/*--------------------------------*- C++ -*----------------------------------*\
| =========                 |                                                 |
| \\      /  F ield         | OpenFOAM: The Open Source CFD Toolbox           |
|  \\    /   O peration     | Version:  2.1.1                                 |
|   \\  /    A nd           | Web:      www.OpenFOAM.org                      |
|    \\/     M anipulation  |                                                 |
\*---------------------------------------------------------------------------*/
FoamFile
{
    version     2.0;
    format      ascii;
    class       volScalarField;
    location    "0.006100000";
    object      fH;
}
// * * * * * * * * * * * * * * * * * * * * * * * * * * * * * * * * * * * * * //

dimensions      [0 0 0 0 0 0 0];

internalField   nonuniform List<scalar> 
12384
(
0.0285336
0.0281048
0.0279054
0.0280127
0.0282201
0.0284323
0.028606
0.0287137
0.028723
0.0287472
0.0286728
0.0286508
0.0294202
0.0309113
0.0235686
0.024759
0.0251285
0.0251676
0.0251751
0.0251658
0.0251003
0.0249652
0.0247975
0.0246613
0.0245708
0.0245199
0.024496
0.0244757
0.0244819
0.0244739
0.0244932
0.0244927
0.0245384
0.0244929
0.024561
0.0245088
0.024521
0.0245485
0.0245999
0.0246986
0.0248053
0.0243735
0.0232537
0.022928
0.0271454
0.0263608
0.0268354
0.0273078
0.0276087
0.0278886
0.028162
0.0283738
0.0285662
0.0286983
0.0288703
0.0289852
0.0291593
0.0292595
0.0293408
0.0293023
0.0293235
0.0292071
0.0291556
0.0290141
0.0288596
0.0287706
0.0285627
0.0285517
0.0283562
0.0282279
0.0279461
0.0276689
0.028075
0.0287992
0.030387
0.0300147
0.0300573
0.030171
0.0302529
0.0302996
0.0303285
0.0303361
0.0303337
0.0303324
0.0303235
0.0303037
0.0303522
0.030292
0.0304179
0.0302154
0.0303647
0.0301701
0.0302478
0.0301359
0.030129
0.030164
0.0301913
0.0301884
0.0299212
0.0293983
0.0298399
0.0301811
0.0303406
0.0303506
0.0332354
0.0335337
0.0334714
0.0333136
0.0331791
0.033119
0.033126
0.0331938
0.0333032
0.0334433
0.0336148
0.0335886
0.0336204
0.0335058
0.0335069
0.033328
0.0330937
0.0327458
0.032281
0.0318106
0.0310669
0.0297484
0.0294734
0.0300421
0.0304038
0.0306098
0.0306843
0.0305911
0.0304124
0.0302546
0.0359347
0.0373774
0.0372868
0.036724
0.0361799
0.035698
0.0352978
0.0350981
0.0350303
0.0350323
0.0350519
0.0350631
0.0350632
0.0350584
0.0350534
0.0350472
0.0350314
0.0350176
0.0349895
0.0349719
0.0349632
0.0349613
0.034956
0.0349515
0.034961
0.0350426
0.035381
0.0349842
0.0339772
0.0340123
0.0312109
0.030781
0.0300607
0.0303829
0.0312806
0.0319706
0.0324046
0.0324257
0.032368
0.0322657
0.0321567
0.0320268
0.0319764
0.0318599
0.0319311
0.0318912
0.0319527
0.0319564
0.0319604
0.0319605
0.0319725
0.0320123
0.0320968
0.0317181
0.0281532
0.0266189
0.0266685
0.0266721
0.0266558
0.0266911
0.0304867
0.0320631
0.034856
0.0362
0.0363481
0.0362785
0.0361921
0.0361168
0.036075
0.0360584
0.036053
0.0360481
0.0360718
0.0360772
0.0361125
0.0360969
0.0361183
0.0360993
0.0361183
0.0362266
0.0364981
0.036764
0.0352597
0.0336229
0.0334725
0.0335072
0.0335587
0.0336076
0.0336
0.0335696
0.0324751
0.0336979
0.0341567
0.034148
0.0340238
0.0338482
0.0336919
0.0335741
0.0334916
0.033515
0.0334568
0.0335011
0.0334731
0.0335405
0.0336252
0.0336912
0.0338612
0.0340344
0.0341238
0.0351306
0.0406935
0.0432559
0.0428652
0.0415679
0.040709
0.0401943
0.0403901
0.0410172
0.0421304
0.0430343
0.0312157
0.0337527
0.0350238
0.0355664
0.0356611
0.0356031
0.0354333
0.0352307
0.035045
0.0348097
0.0347753
0.0346041
0.0346018
0.034482
0.0343155
0.0344144
0.0342213
0.0344214
0.0343871
0.0345039
0.0344232
0.0344741
0.03579
0.0368815
0.037097
0.0371919
0.0372368
0.0372535
0.0372796
0.0372988
0.0365818
0.037073
0.0370303
0.0370382
0.0370689
0.0370419
0.03695
0.0368711
0.036733
0.0366662
0.0365237
0.036453
0.036352
0.0363067
0.0363041
0.03623
0.0361628
0.0360971
0.0360791
0.0361457
0.0365375
0.0381065
0.0387943
0.0388621
0.0389422
0.0390853
0.0392328
0.039287
0.0391204
0.0388808
0.0345825
0.0340265
0.0340622
0.0349753
0.0372961
0.038939
0.0378215
0.036207
0.0351628
0.0346436
0.0344754
0.0344781
0.03445
0.0345841
0.0345525
0.0346299
0.0345338
0.0345425
0.0345409
0.034623
0.0347855
0.0349875
0.035212
0.0354025
0.0355737
0.035734
0.0359603
0.0364977
0.0378588
0.0360857
0.0310177
0.0312858
0.0290806
0.0249083
0.0209087
0.0189372
0.0252837
0.0510232
0.057069
0.0575215
0.0574367
0.0571724
0.0568658
0.0565671
0.0561541
0.0556478
0.055035
0.0543276
0.0535201
0.0527177
0.0521586
0.052144
0.0537127
0.0558653
0.0574604
0.0578233
0.0576565
0.0569698
0.0533787
0.0331327
0.0259866
0.0263282
0.0273481
0.0282591
0.0288484
0.0292254
0.0294922
0.0297312
0.0298703
0.0298064
0.0295437
0.0290403
0.0293322
0.0307127
0.0236622
0.0249166
0.025294
0.0253358
0.0253428
0.0252386
0.0249431
0.02454
0.0242935
0.0242235
0.0242877
0.0244136
0.0245755
0.0247544
0.0249103
0.0250388
0.0251363
0.0251805
0.0251799
0.0251046
0.0250108
0.0248719
0.0247662
0.0246043
0.0245429
0.0245727
0.0247269
0.0246828
0.0241113
0.0232149
0.0271007
0.0264996
0.0272171
0.0277768
0.0281706
0.028545
0.0288091
0.0289733
0.0291596
0.0294739
0.0298839
0.0302332
0.0304487
0.030543
0.030503
0.0305247
0.0304199
0.0303831
0.0302132
0.0301217
0.0298972
0.0297506
0.0294829
0.0291663
0.0288078
0.0284971
0.0281502
0.0277833
0.0277859
0.0287444
0.0303689
0.0300276
0.0301864
0.0303542
0.0304044
0.0303899
0.0303595
0.0303358
0.0303058
0.0302583
0.0301829
0.0300883
0.0300224
0.0299862
0.0298364
0.0297785
0.0296836
0.0296639
0.0297244
0.0298058
0.0299063
0.0300147
0.0301161
0.0301688
0.0300789
0.0296074
0.029592
0.0304934
0.0308388
0.0308014
0.0340391
0.0332576
0.0323406
0.0316442
0.0311978
0.0309468
0.030856
0.0308965
0.0310551
0.0313268
0.0317302
0.0321972
0.0326644
0.0330655
0.0334065
0.0335866
0.0335966
0.0332455
0.0327598
0.0321977
0.0315632
0.0302995
0.0296434
0.0305872
0.0313607
0.0316354
0.0315754
0.0314251
0.0311995
0.0308874
0.0361387
0.0373072
0.0367491
0.0358239
0.035128
0.0347942
0.0346719
0.0349592
0.0351716
0.0352807
0.0353289
0.0353239
0.0352982
0.0352704
0.0352445
0.0352228
0.0352059
0.0351931
0.0351779
0.0351439
0.0350866
0.0350195
0.0349606
0.0349213
0.0349022
0.0349249
0.0351614
0.0353526
0.035046
0.0352297
0.0311995
0.030625
0.0308297
0.0326697
0.0334759
0.0329994
0.0321165
0.0313098
0.0307752
0.0304544
0.0302928
0.0302507
0.0302068
0.030278
0.030277
0.0303637
0.0304716
0.03061
0.0308028
0.0310404
0.0313048
0.0315622
0.0318457
0.031876
0.0302639
0.0272393
0.0260729
0.0259806
0.0261768
0.0262183
0.0332839
0.036504
0.037231
0.0366969
0.0361467
0.035892
0.0358247
0.0358681
0.0359691
0.0360696
0.0361682
0.0362371
0.036296
0.0363228
0.0362838
0.0362526
0.0362119
0.0361705
0.0361218
0.0361204
0.0362602
0.0366343
0.0363896
0.0345305
0.0334315
0.0335571
0.0338317
0.0340859
0.0341479
0.0339656
0.0337271
0.034735
0.0342719
0.0335659
0.0329953
0.0326089
0.0323479
0.0321694
0.0320733
0.0319793
0.0319525
0.0319237
0.0319814
0.0321481
0.0323969
0.032719
0.0331226
0.0335685
0.0338876
0.0342367
0.0365845
0.0415411
0.0411434
0.0381409
0.0373721
0.0375138
0.0377351
0.0377704
0.0380745
0.0394964
0.0311565
0.0341948
0.0356175
0.0358115
0.0355838
0.0351131
0.0345637
0.034057
0.0336075
0.0332717
0.0329709
0.0327929
0.0326794
0.0326251
0.0326568
0.0327966
0.0329317
0.033196
0.0335058
0.0338257
0.0340984
0.0342459
0.0348433
0.0363087
0.0371845
0.0372928
0.0371674
0.0369989
0.0370348
0.0372927
0.0364528
0.0371739
0.0372166
0.0373455
0.0372161
0.0368919
0.0365397
0.036194
0.0358978
0.0356246
0.0354152
0.035214
0.0350855
0.0350975
0.0351681
0.0353077
0.0354504
0.0355908
0.0357399
0.0358779
0.0361387
0.0371048
0.0384141
0.0393978
0.0400865
0.0405541
0.0407938
0.0407007
0.0404623
0.0401958
0.0368822
0.0366654
0.0362615
0.0372361
0.0384803
0.0378851
0.0358991
0.0346102
0.0342569
0.034377
0.0349307
0.0355464
0.0361004
0.0364072
0.0365008
0.0363666
0.0360284
0.0355537
0.0350596
0.0347819
0.0350004
0.0355009
0.0359869
0.0362521
0.0362429
0.0360886
0.0360022
0.0362535
0.0375419
0.0365923
0.044223
0.0443916
0.0428304
0.0355391
0.023657
0.0227578
0.0411755
0.0553219
0.0570995
0.0568898
0.0563556
0.0558087
0.0552817
0.0548872
0.0545896
0.0542238
0.053724
0.0528858
0.0514325
0.0490662
0.0463461
0.0444134
0.0446993
0.0485908
0.053181
0.0567916
0.0574901
0.0567902
0.0525145
0.0316833
0.0260483
0.0270671
0.0280214
0.0283935
0.0283734
0.0283775
0.0285338
0.0288896
0.0293587
0.029825
0.0300415
0.0296582
0.0294782
0.0305109
0.0238181
0.0251148
0.025509
0.02558
0.0255804
0.0252549
0.0245716
0.0241429
0.024145
0.024407
0.0247701
0.0251698
0.0255479
0.025885
0.0261365
0.0262584
0.0262547
0.0261344
0.0259817
0.025808
0.0257401
0.0256098
0.0254287
0.0251127
0.0247647
0.0245622
0.0246029
0.0247139
0.0245328
0.023597
0.0270949
0.0266939
0.0275724
0.0280536
0.0283603
0.0285727
0.0286268
0.0286989
0.0291111
0.0297743
0.0304705
0.0307961
0.0308609
0.0307385
0.030569
0.0303525
0.0302556
0.0300539
0.0300123
0.0298641
0.0297885
0.0296652
0.0294944
0.0293402
0.0290757
0.0287652
0.0283729
0.0279342
0.0277184
0.0284759
0.0303561
0.0300678
0.0302803
0.030393
0.0303575
0.0302941
0.0302569
0.030235
0.0302227
0.0301318
0.0299494
0.029723
0.0295174
0.0294167
0.0292361
0.0291099
0.0289779
0.028988
0.0290383
0.0290977
0.0293161
0.0295984
0.0298695
0.0300779
0.0301312
0.0298688
0.0295783
0.0300104
0.0307872
0.0308682
0.0334694
0.0322016
0.0313155
0.0306194
0.0301335
0.0297986
0.0296131
0.0295361
0.0295485
0.029619
0.0298414
0.0302259
0.0307825
0.0314927
0.0322915
0.0330344
0.0335158
0.0335751
0.0331781
0.0326069
0.0319671
0.0308573
0.02986
0.0307306
0.0316917
0.0317947
0.0316167
0.0315756
0.0316975
0.0314009
0.0362935
0.0371043
0.0360607
0.0351027
0.034698
0.0347571
0.0352885
0.0356692
0.0357103
0.0355926
0.0354465
0.0353432
0.0352955
0.0352885
0.0353003
0.0353126
0.0353149
0.0353031
0.0352904
0.0352749
0.0352407
0.0351743
0.0350768
0.034977
0.0348964
0.0348481
0.0349427
0.035236
0.035467
0.0356766
0.0310751
0.0309617
0.0334429
0.0338804
0.0324144
0.0307383
0.0299279
0.0296206
0.0296331
0.0297713
0.029935
0.0301197
0.0302532
0.0303939
0.0304534
0.0305266
0.0305481
0.0305718
0.0305915
0.0306536
0.030796
0.0310325
0.0313674
0.0317499
0.0313651
0.0291963
0.0270979
0.0265755
0.0267125
0.0263253
0.036265
0.0375496
0.0363714
0.0357692
0.0357467
0.0358971
0.0361621
0.0364318
0.0366768
0.0368739
0.0370312
0.0371433
0.0372198
0.0372359
0.037194
0.0370848
0.0369063
0.0366704
0.0364269
0.036221
0.0361577
0.0363908
0.0366067
0.0357999
0.0339751
0.0334644
0.0338095
0.0343868
0.0347873
0.0345926
0.0352467
0.0343488
0.0333058
0.0326394
0.0322757
0.0320365
0.0318837
0.0317358
0.0315859
0.031434
0.0313284
0.0312854
0.0312398
0.0312718
0.0313847
0.0316698
0.0321286
0.0327469
0.033349
0.0337374
0.0344786
0.03765
0.0407302
0.0380192
0.0372593
0.037886
0.0383576
0.0377686
0.0371322
0.0375423
0.0312657
0.0349336
0.035873
0.0356369
0.0350339
0.0342497
0.0335005
0.0328279
0.0322707
0.0318538
0.03152
0.0312863
0.0311336
0.0311385
0.0311232
0.0313144
0.0315169
0.0318363
0.0322966
0.0328117
0.0333691
0.0338136
0.0342242
0.035393
0.0368401
0.0372887
0.0370192
0.0365878
0.0364284
0.0369906
0.0364222
0.0371257
0.0375286
0.0373835
0.0368313
0.0362011
0.0356662
0.0351859
0.0347798
0.0343104
0.0339175
0.0336109
0.033436
0.0333551
0.0334728
0.0337693
0.0341624
0.0346033
0.0350257
0.0354025
0.0357353
0.0362936
0.0373617
0.038888
0.040473
0.0411987
0.041212
0.0408693
0.0406113
0.0406104
0.0375112
0.0376148
0.0379023
0.0384036
0.0377853
0.0359979
0.0345349
0.0342874
0.0350071
0.0361377
0.0373049
0.0379816
0.0383018
0.0383206
0.0383533
0.0381396
0.0379166
0.0373202
0.0364398
0.0354508
0.0353831
0.0361564
0.0368407
0.0370047
0.0367924
0.0364115
0.0360941
0.0361178
0.0372345
0.03692
0.0444455
0.0446626
0.0418169
0.0327985
0.0254921
0.0341589
0.0518991
0.0565103
0.0564533
0.0556187
0.054855
0.0541748
0.0537011
0.0534755
0.053454
0.0536893
0.0539821
0.054099
0.0538757
0.0522996
0.0490123
0.0439104
0.040789
0.0410136
0.0459109
0.0524843
0.0549867
0.0537428
0.0476297
0.0286977
0.0262959
0.0270682
0.0269398
0.0266786
0.0267955
0.0270627
0.027317
0.0275909
0.0280158
0.0288219
0.0296955
0.0299735
0.0297298
0.0304343
0.0239555
0.0253539
0.025802
0.0259476
0.0258422
0.0249978
0.0241981
0.0240384
0.0243298
0.0247737
0.0252127
0.0256982
0.0262231
0.0267156
0.0270457
0.0270865
0.0268348
0.0264218
0.0260589
0.0258615
0.0258318
0.0259098
0.025913
0.0256494
0.0251778
0.0247261
0.0245562
0.0246541
0.0246658
0.0238631
0.0271145
0.0268698
0.0277837
0.0281038
0.0282272
0.0282188
0.0281392
0.0282848
0.0289357
0.0298976
0.030751
0.0309585
0.0307603
0.0302656
0.0297151
0.0292399
0.0289904
0.0287873
0.0287507
0.0287045
0.0287641
0.0288235
0.0289299
0.028968
0.0289276
0.0287762
0.0284749
0.0280553
0.0277207
0.0283158
0.0303613
0.0301021
0.0303217
0.0303512
0.0302396
0.0301632
0.0301687
0.030216
0.0302141
0.0300756
0.0297769
0.0294511
0.0291419
0.0289528
0.028713
0.0286343
0.0285367
0.0284872
0.0285475
0.0286208
0.028795
0.0291174
0.0295104
0.0298652
0.0300704
0.0299986
0.0296976
0.0297491
0.0303932
0.0308213
0.0323209
0.0319296
0.0312097
0.0304558
0.0299031
0.0295975
0.0294674
0.0294203
0.0294121
0.0293807
0.0294048
0.0294791
0.0296894
0.0301599
0.0309403
0.0319266
0.0328584
0.0334189
0.033408
0.0329167
0.0322731
0.0313276
0.0301574
0.0305218
0.0315652
0.0316564
0.0312459
0.0313856
0.0321152
0.0320099
0.0364031
0.0367581
0.0354343
0.0347784
0.0347489
0.0354108
0.0360058
0.0359378
0.035613
0.0353859
0.0353034
0.0353447
0.0354579
0.0355835
0.0356828
0.035737
0.0357383
0.0356956
0.0356043
0.0355051
0.0354197
0.0353356
0.0352309
0.0350991
0.0349567
0.034844
0.0348254
0.035045
0.035478
0.0358248
0.0310939
0.0325473
0.0345136
0.0321657
0.0300913
0.0295194
0.0297414
0.0301567
0.0305317
0.0308121
0.0310297
0.0312436
0.0314593
0.0316597
0.031809
0.0318641
0.0317954
0.0316205
0.0313653
0.0310998
0.0308892
0.0308138
0.0309907
0.0314066
0.0316229
0.0306949
0.0287569
0.0277725
0.0277339
0.0266561
0.0380715
0.0365447
0.0357826
0.0359041
0.0361248
0.0364263
0.0367493
0.0370348
0.0372754
0.0374922
0.0376768
0.0378169
0.0379171
0.0379946
0.038024
0.0379074
0.0376858
0.0373513
0.0369571
0.0365761
0.0362774
0.0362447
0.0365434
0.036471
0.0350751
0.0336405
0.0335464
0.0343751
0.0352669
0.0352397
0.0343147
0.0334056
0.0327335
0.0323749
0.0321682
0.0319642
0.0316871
0.0313413
0.0310056
0.0307247
0.0305467
0.0304883
0.0305485
0.0305998
0.0307338
0.0309342
0.0312987
0.0318821
0.0326357
0.033266
0.0336474
0.0350691
0.0388224
0.0389785
0.0374736
0.0382485
0.0387066
0.0381173
0.0371202
0.0370108
0.0317929
0.0355423
0.0357711
0.0352366
0.0343466
0.0333883
0.0325002
0.0318105
0.0311765
0.0307251
0.0303167
0.0300553
0.0299367
0.0298429
0.0300012
0.0300932
0.0303569
0.0307199
0.0311882
0.0318209
0.0325209
0.0332337
0.0337672
0.0346637
0.0361268
0.0371246
0.0371659
0.0365531
0.0362287
0.0368015
0.0367406
0.0374716
0.0376063
0.0369471
0.0361364
0.0354942
0.0349454
0.0342259
0.0335337
0.0327572
0.0320854
0.0316513
0.0313271
0.0313126
0.0314575
0.0318884
0.0325282
0.0332635
0.0340032
0.0346522
0.0352118
0.0357306
0.036485
0.0379305
0.0401684
0.0412489
0.0412034
0.040478
0.0400362
0.0400506
0.0379533
0.038356
0.0385247
0.0379456
0.0364011
0.0347473
0.0343168
0.0351762
0.0366658
0.0378955
0.0384811
0.0386958
0.0386549
0.0386207
0.0386068
0.0386366
0.0385989
0.0383625
0.0377119
0.0362784
0.0354026
0.0364182
0.0372145
0.0370781
0.0364159
0.0357285
0.0354942
0.0357404
0.0370037
0.0371139
0.0418837
0.0426726
0.0359395
0.030934
0.0326161
0.0461332
0.0554336
0.0562255
0.0551663
0.0539663
0.0528372
0.0518212
0.0510193
0.0505909
0.0506419
0.0510147
0.0518103
0.0527435
0.0536683
0.0541139
0.0533557
0.0492828
0.0423119
0.0387023
0.0400255
0.0444936
0.0479361
0.047415
0.0407138
0.0259952
0.0260513
0.025981
0.0255894
0.0259178
0.02653
0.0269598
0.0271154
0.0272202
0.0273944
0.027913
0.0290238
0.0298965
0.0298614
0.0303998
0.0241144
0.0255967
0.0261632
0.0263715
0.0258786
0.0246614
0.0240452
0.0240327
0.0243356
0.0246608
0.0250715
0.0257215
0.0265817
0.0273852
0.0278663
0.0277886
0.0271817
0.0264034
0.0258845
0.0257684
0.0259658
0.0261869
0.026304
0.0260885
0.0255809
0.0249576
0.02459
0.0245973
0.0246841
0.0239917
0.027145
0.0270052
0.0278817
0.0280549
0.027996
0.0278445
0.0277358
0.0279184
0.0286522
0.0297077
0.0307816
0.031062
0.0306683
0.0298402
0.0290477
0.0284642
0.0281641
0.0280176
0.0279598
0.0279685
0.0279778
0.0280467
0.0282072
0.028376
0.0285394
0.0285977
0.028451
0.0281082
0.027746
0.0282506
0.0303575
0.0301383
0.0303194
0.0302481
0.0300923
0.0300501
0.0301168
0.030201
0.0302295
0.0300898
0.0297332
0.0293303
0.0290017
0.0287544
0.028537
0.0284109
0.0282934
0.0282562
0.0282438
0.0283155
0.0284565
0.0287348
0.0291501
0.0296035
0.0299628
0.0300345
0.0298106
0.0296861
0.0301345
0.0307569
0.0325669
0.0319985
0.031007
0.030157
0.0296655
0.029487
0.0294872
0.0295378
0.0295842
0.0295778
0.0295382
0.0294642
0.0294351
0.02956
0.0300494
0.0309109
0.032013
0.0329453
0.0333825
0.0330816
0.0324821
0.0316703
0.0305157
0.0303037
0.0310501
0.0312257
0.030776
0.0311551
0.03244
0.0326305
0.0364549
0.0363512
0.0350348
0.0347175
0.0353117
0.0360674
0.0362192
0.0357778
0.0354706
0.0353961
0.0355218
0.0357639
0.0359917
0.036146
0.036237
0.036285
0.0362976
0.0362621
0.0361815
0.0360226
0.0358212
0.0356234
0.03545
0.0352763
0.0350775
0.0348871
0.034786
0.0349115
0.0353895
0.0358735
0.0315601
0.0340492
0.0331801
0.030173
0.0296314
0.0303816
0.0311531
0.0315614
0.0316574
0.0316784
0.0318012
0.0320642
0.0324016
0.0327468
0.0330073
0.0331375
0.0331084
0.032899
0.0325094
0.0319838
0.0314371
0.0310084
0.0308538
0.0310723
0.0315103
0.0313278
0.0300948
0.0289732
0.0285928
0.0269776
0.0384184
0.0359322
0.0361071
0.0362071
0.0364316
0.0367793
0.0371063
0.037401
0.0376203
0.0378663
0.038063
0.0382404
0.038423
0.038536
0.0385932
0.038521
0.0383251
0.0380112
0.0375515
0.0370199
0.0365522
0.0362784
0.0364031
0.0366143
0.0358696
0.0343745
0.0337115
0.0344992
0.0356252
0.0358167
0.0336987
0.0330587
0.0326061
0.0323494
0.0321129
0.0317253
0.031176
0.0305419
0.0299947
0.0295977
0.0293486
0.0293529
0.0294154
0.0296595
0.0299528
0.030282
0.0306416
0.0311686
0.0319171
0.0327262
0.0332298
0.0339009
0.0365671
0.0388377
0.038497
0.0386134
0.038675
0.037819
0.036989
0.0368119
0.0327467
0.0358148
0.0355835
0.0347448
0.033624
0.032563
0.0316942
0.0309661
0.030312
0.0298373
0.0294451
0.02919
0.0290809
0.0290633
0.0290956
0.0292049
0.0294554
0.0298536
0.0303389
0.0309799
0.0317385
0.0326103
0.0333374
0.0341374
0.0353946
0.036613
0.0370728
0.036538
0.0364345
0.036914
0.0372173
0.0379222
0.0373159
0.0363132
0.0356443
0.0350506
0.0342715
0.0332097
0.0321141
0.0310303
0.0301149
0.0294822
0.029067
0.0289316
0.0292185
0.0297727
0.0306683
0.0317256
0.0327915
0.0337406
0.034568
0.0352284
0.0358815
0.0370149
0.0394114
0.0411832
0.0411524
0.0402048
0.0395675
0.0395353
0.0382539
0.0385945
0.0382544
0.0369332
0.0352067
0.0343241
0.0349138
0.0364564
0.0378411
0.0384542
0.0384878
0.0382446
0.0380271
0.0379888
0.0380399
0.0382107
0.0384761
0.038679
0.0385801
0.0374518
0.0353478
0.0365032
0.0374201
0.0367803
0.0352089
0.0341782
0.0342381
0.0351079
0.0368144
0.037215
0.039544
0.0409952
0.0356256
0.0349221
0.0422361
0.0525826
0.0559115
0.0552025
0.053634
0.052054
0.0504672
0.0490321
0.0479318
0.0474225
0.0474476
0.0481834
0.049245
0.0505089
0.051886
0.053267
0.0542432
0.0537043
0.0482437
0.0401639
0.0382513
0.040676
0.0421648
0.0408806
0.0344729
0.0236726
0.0254648
0.0248516
0.0250347
0.0261868
0.0271517
0.027342
0.0271488
0.0269769
0.027016
0.0273496
0.0283795
0.0296754
0.0299145
0.0304282
0.0242165
0.0258552
0.0265871
0.0268052
0.0259532
0.0245451
0.0239591
0.0239072
0.0240222
0.0241852
0.0246094
0.0254733
0.0267546
0.0279442
0.0285731
0.0283208
0.0273219
0.0262576
0.0257635
0.0258883
0.0262582
0.0265491
0.026597
0.0263947
0.0258621
0.0251497
0.0246435
0.0245686
0.0246744
0.0240341
0.0271728
0.0270988
0.0279539
0.0279943
0.0278025
0.0276281
0.0275235
0.0277244
0.0283548
0.0294295
0.0308875
0.0314277
0.0308651
0.0298598
0.0289284
0.0282667
0.0279526
0.0278374
0.027806
0.0278292
0.0278384
0.0278737
0.0278996
0.02801
0.0281897
0.0283441
0.0283401
0.0280994
0.0277629
0.0282398
0.0303631
0.0301595
0.0302811
0.0301288
0.0299826
0.030002
0.0300924
0.0301809
0.0302558
0.0301767
0.0298085
0.0293473
0.0289793
0.0286782
0.0284415
0.0281941
0.0280667
0.0280227
0.0280408
0.028129
0.028259
0.0285114
0.0288964
0.0293784
0.029837
0.0300177
0.0298637
0.0296772
0.0300495
0.0307378
0.0327792
0.0318344
0.0306859
0.0298913
0.0295301
0.0294886
0.029599
0.0297249
0.02979
0.029795
0.0297443
0.02962
0.0295103
0.0294471
0.0296717
0.0303003
0.0313564
0.0324558
0.0331462
0.0331034
0.0325661
0.0318645
0.0308868
0.0302308
0.0304889
0.030529
0.0303321
0.0311356
0.032908
0.0332921
0.0364397
0.0358836
0.0347853
0.0350794
0.0359771
0.036416
0.0361409
0.0357508
0.0355785
0.035619
0.0358722
0.0361257
0.0362884
0.0363626
0.0364167
0.0364874
0.0365474
0.0365757
0.0365406
0.0364423
0.0362454
0.0359817
0.0357161
0.0354738
0.0352142
0.0349566
0.0347752
0.0348462
0.0353238
0.035917
0.0322276
0.034222
0.0312541
0.0299075
0.0308439
0.0320396
0.0326237
0.0325622
0.0322259
0.032065
0.0322501
0.0326808
0.0332085
0.0336683
0.0340078
0.034206
0.034223
0.0340135
0.0335723
0.0329196
0.0321439
0.0314118
0.0309663
0.0309213
0.0313182
0.0314696
0.0308196
0.0298593
0.0292075
0.0273589
0.0377796
0.0360437
0.0362974
0.036297
0.0366188
0.037028
0.0373363
0.0375871
0.0377959
0.0380497
0.0382898
0.0385507
0.0387648
0.0389348
0.0389854
0.0389978
0.0388308
0.0385456
0.0380677
0.0374615
0.0368508
0.0364197
0.0363385
0.0366189
0.0363379
0.0351924
0.0344196
0.0349248
0.0359489
0.0362375
0.0335779
0.0329674
0.032586
0.0323503
0.0319859
0.0313387
0.030516
0.0296783
0.029015
0.0285716
0.0283559
0.0282924
0.0284477
0.0287009
0.0291236
0.0296007
0.0300827
0.0306162
0.0313368
0.0322106
0.0328902
0.0333763
0.0350721
0.0379341
0.0388435
0.0388236
0.038306
0.0371861
0.0365252
0.0366064
0.0339961
0.0357197
0.035246
0.0341824
0.0329649
0.0320003
0.0311283
0.0304065
0.0296468
0.0292243
0.0288404
0.0286816
0.0286184
0.0286099
0.0286684
0.0287403
0.0288979
0.0292489
0.0297445
0.0303431
0.031115
0.0320664
0.0329266
0.0337458
0.034782
0.0359234
0.036597
0.0364981
0.0369031
0.0373045
0.0375163
0.037932
0.0367788
0.0359515
0.0354596
0.0347021
0.0336281
0.032043
0.0307012
0.0293041
0.0283161
0.0276534
0.0272672
0.0272311
0.0274448
0.0280435
0.0289684
0.0302339
0.0315504
0.0328084
0.0338723
0.0347315
0.0354345
0.0364471
0.0387628
0.0409387
0.0411601
0.0399708
0.0392174
0.0391844
0.0384095
0.0385905
0.037655
0.0360153
0.0346655
0.0345377
0.035754
0.0373892
0.0382869
0.038366
0.0379277
0.037529
0.0373614
0.0373137
0.0374511
0.0376304
0.0379324
0.0383543
0.0387952
0.0385793
0.0354081
0.0362841
0.0375829
0.0362584
0.0335111
0.0320117
0.0326992
0.0344485
0.0367835
0.0373058
0.0375439
0.0417132
0.0400729
0.0423191
0.0498489
0.0551775
0.0555814
0.0539952
0.05209
0.0501023
0.0480673
0.0461586
0.0447329
0.0439874
0.0442553
0.0452326
0.0469387
0.0486808
0.0502624
0.0516625
0.0532207
0.0546233
0.053568
0.0446258
0.0378629
0.0388115
0.0392956
0.0363913
0.0297597
0.0216262
0.0247926
0.0241081
0.0252039
0.0270917
0.0278585
0.0277065
0.0272913
0.0268986
0.0267869
0.0270094
0.0279776
0.0295305
0.0299302
0.0304244
0.0243122
0.0260937
0.0269921
0.0272043
0.0261738
0.0246973
0.0239222
0.0237141
0.023644
0.0236728
0.0240323
0.0249993
0.0266289
0.0282716
0.0290281
0.0286272
0.0272614
0.0260415
0.0257058
0.0260033
0.0264108
0.0266218
0.0266346
0.0264683
0.0259467
0.0252101
0.0246577
0.0245638
0.0246674
0.0240043
0.0272185
0.0271875
0.028044
0.0280028
0.0277663
0.0276116
0.0276286
0.0278835
0.0282746
0.0292116
0.0311543
0.0318767
0.0311782
0.0300459
0.0290336
0.0282746
0.0279068
0.0278054
0.0278323
0.0278976
0.0279496
0.0279543
0.0279159
0.0279353
0.0280179
0.0281628
0.0282223
0.0280654
0.0277665
0.0282595
0.0303777
0.0301752
0.0302262
0.030043
0.0299858
0.0301023
0.0301806
0.0302007
0.0302898
0.0302966
0.0299689
0.0294467
0.029005
0.0286752
0.0283608
0.0280472
0.0279042
0.0278594
0.0279149
0.0280198
0.0281607
0.0283982
0.0287739
0.0292672
0.0297632
0.0299914
0.0298563
0.0296931
0.0300488
0.0308393
0.0327562
0.0315882
0.0304569
0.0297715
0.0295109
0.0295657
0.0297323
0.0298747
0.0299249
0.0299301
0.029873
0.0297588
0.0296242
0.0295023
0.029595
0.0300581
0.0310017
0.0320885
0.0328605
0.032966
0.0325109
0.031911
0.031143
0.0303387
0.0301188
0.0299524
0.0301488
0.0316008
0.0336894
0.0339993
0.0363581
0.0354718
0.0348094
0.0355971
0.0363942
0.0365262
0.0362084
0.0359005
0.0357357
0.0357899
0.0360222
0.0361967
0.0362741
0.036318
0.0364139
0.036575
0.036709
0.0367602
0.0367477
0.0366863
0.0365441
0.036274
0.0359665
0.035655
0.03534
0.0350066
0.0347635
0.0347969
0.0353425
0.0359974
0.0328199
0.0334028
0.0306437
0.0309078
0.0324535
0.0335721
0.0338116
0.0332067
0.0324356
0.032204
0.0325543
0.0331668
0.0338314
0.0342703
0.0346069
0.0348179
0.0348934
0.0347508
0.0343311
0.033634
0.0327413
0.031818
0.0311137
0.0308822
0.0311556
0.0314436
0.0310955
0.0303722
0.0295808
0.0281039
0.0370833
0.0365296
0.0362436
0.0363355
0.0367663
0.0371538
0.0374009
0.0376017
0.0378312
0.0381378
0.0384533
0.03885
0.0391635
0.0393836
0.0394584
0.0394118
0.0392556
0.0389379
0.0384119
0.0377526
0.0370771
0.0365298
0.0363419
0.0365759
0.0365771
0.0358458
0.0352146
0.0355706
0.03625
0.0363259
0.033575
0.0329708
0.0326194
0.0323613
0.0318381
0.0309545
0.0299398
0.0290099
0.028351
0.027959
0.0277825
0.0277678
0.0278003
0.0280535
0.028472
0.0290046
0.0295866
0.0301874
0.0309019
0.0317796
0.0325818
0.0330931
0.0342363
0.0368077
0.0380836
0.038469
0.0375141
0.0364905
0.0361034
0.0364193
0.0350239
0.0356332
0.034904
0.0337247
0.0325757
0.0316297
0.0307841
0.0299551
0.0292281
0.028862
0.0285952
0.0285531
0.0285347
0.0285566
0.0285529
0.0285833
0.0286543
0.0289014
0.0293606
0.0299119
0.0306787
0.031631
0.0326
0.0334352
0.0343328
0.0353223
0.0359804
0.0365827
0.0375751
0.037842
0.0377128
0.0374879
0.0364325
0.0358953
0.0353372
0.0343612
0.0329465
0.0310839
0.0295602
0.0279815
0.0271295
0.0264806
0.0261321
0.0260437
0.0262756
0.026848
0.0277588
0.0290784
0.0304859
0.0319702
0.0332046
0.034246
0.035088
0.0360768
0.0382332
0.0406925
0.0409863
0.0395661
0.0389838
0.0389551
0.038477
0.0384933
0.0370882
0.0353866
0.0345098
0.0349033
0.0364612
0.0378383
0.0383176
0.0379479
0.0373347
0.036935
0.0367369
0.0368196
0.0370727
0.0373478
0.0375728
0.0379305
0.0385613
0.0392263
0.0357283
0.0358198
0.0377221
0.0358859
0.0320297
0.030306
0.0317477
0.0344007
0.0369684
0.0373715
0.0353784
0.043203
0.0455249
0.048801
0.0537186
0.0555702
0.0548457
0.0528834
0.0507095
0.0483693
0.0458686
0.0434493
0.0414816
0.0405701
0.0407412
0.0423189
0.0446376
0.0471916
0.0493231
0.0507628
0.0519198
0.0536311
0.0552348
0.0508774
0.0382717
0.0355024
0.0368469
0.0329234
0.0255497
0.0200473
0.0242245
0.0238139
0.0259676
0.0280622
0.0283911
0.0281601
0.0278478
0.0274129
0.0270585
0.0271195
0.0280582
0.0295587
0.0299663
0.0304839
0.024384
0.0263195
0.027382
0.0277523
0.0268537
0.0252414
0.0240707
0.0236086
0.0234116
0.0233388
0.0235212
0.0243879
0.0261986
0.0283134
0.0292732
0.0288119
0.0271314
0.0258368
0.0256675
0.0259863
0.026264
0.0264752
0.0265045
0.0263356
0.0258097
0.0251165
0.0246139
0.0245806
0.0246877
0.0239106
0.0272638
0.0271925
0.0281742
0.0282251
0.0280034
0.0280745
0.0283889
0.0285419
0.0284573
0.0291482
0.0314368
0.0322702
0.031425
0.030218
0.0290919
0.028269
0.0278692
0.0278073
0.0279216
0.0280747
0.0281797
0.0281776
0.028087
0.0280297
0.0280314
0.0281044
0.0281515
0.0280041
0.0277665
0.0283625
0.0303848
0.0301637
0.0301829
0.030016
0.0301286
0.0304677
0.0305348
0.0303685
0.030326
0.0304019
0.0301787
0.0296207
0.0290862
0.0287338
0.0283891
0.0280237
0.0278793
0.027829
0.0278877
0.0279877
0.0281505
0.0283925
0.0287841
0.0292789
0.0297504
0.0299543
0.0298228
0.0296994
0.0301832
0.0313494
0.0325887
0.0314233
0.0303807
0.0297627
0.0295368
0.0296232
0.0297976
0.0299272
0.0299721
0.0299788
0.0299337
0.0298188
0.0296943
0.0295838
0.0296515
0.0300751
0.0308966
0.0318645
0.0325615
0.0326895
0.0323179
0.031814
0.031245
0.0304971
0.0299597
0.0297773
0.0306073
0.0329398
0.0348022
0.0346965
0.0362731
0.035238
0.0349582
0.035985
0.0366283
0.0366503
0.0363967
0.0360626
0.0358381
0.0358327
0.0359887
0.0361079
0.0361699
0.036241
0.0364099
0.0366562
0.0368366
0.0368698
0.0368527
0.0368263
0.0366859
0.0364548
0.0361063
0.0357591
0.0353832
0.0349979
0.0347415
0.0348341
0.0354521
0.0361135
0.0332312
0.0328228
0.0309838
0.0322714
0.0339161
0.0349573
0.0348208
0.0336158
0.0324395
0.0322159
0.0327057
0.0334359
0.0341491
0.0345129
0.0348236
0.0350591
0.0352152
0.0351072
0.0346963
0.0340029
0.0330843
0.0320522
0.0312101
0.0308767
0.0310727
0.0314021
0.0311814
0.0306871
0.0299525
0.0304008
0.0369496
0.036661
0.036192
0.0363776
0.0367959
0.0371534
0.0373479
0.0375332
0.0377932
0.0381599
0.0386289
0.0392212
0.0397362
0.040049
0.0400283
0.0398842
0.039617
0.0391959
0.0385906
0.0378938
0.0371595
0.0365965
0.0363542
0.0365615
0.0367103
0.0362774
0.0358848
0.0360865
0.0361017
0.0357905
0.0336551
0.0330421
0.0326755
0.0323868
0.0317517
0.0307179
0.0296166
0.0286527
0.0280228
0.0276521
0.0274927
0.0274511
0.0275338
0.027652
0.0280951
0.0286225
0.0292687
0.0298933
0.0306287
0.0314991
0.0323643
0.0329522
0.0338733
0.0358939
0.0369929
0.0372757
0.0364762
0.0360389
0.0360291
0.0363058
0.0356475
0.0355247
0.0346696
0.0335047
0.0323911
0.0314955
0.0306101
0.0297651
0.0290345
0.0287381
0.0285608
0.0285669
0.0285872
0.0285908
0.028565
0.0285502
0.0285916
0.0287522
0.029167
0.0296746
0.0304826
0.0313877
0.0324053
0.033237
0.034016
0.034837
0.0356346
0.0372409
0.0383545
0.0382877
0.0377947
0.0371612
0.0364825
0.0359488
0.0352932
0.0341685
0.0325332
0.0304936
0.0289058
0.0272518
0.0265644
0.0258203
0.0255791
0.0255211
0.0256634
0.0261948
0.0270317
0.0283665
0.0297391
0.0313374
0.0326662
0.0338508
0.0348391
0.0358968
0.0380834
0.0404455
0.0406056
0.0391667
0.0388181
0.0388322
0.038511
0.0385653
0.0368579
0.0351754
0.0345426
0.0352101
0.0368273
0.0379892
0.0382026
0.0375968
0.0368929
0.0363957
0.036228
0.0363356
0.0368233