/*--------------------------------*- C++ -*----------------------------------*\
| =========                 |                                                 |
| \\      /  F ield         | OpenFOAM: The Open Source CFD Toolbox           |
|  \\    /   O peration     | Version:  2.1.1                                 |
|   \\  /    A nd           | Web:      www.OpenFOAM.org                      |
|    \\/     M anipulation  |                                                 |
\*---------------------------------------------------------------------------*/
FoamFile
{
    version     2.0;
    format      ascii;
    class       volScalarField;
    location    "0.006100000";
    object      G;
}
// * * * * * * * * * * * * * * * * * * * * * * * * * * * * * * * * * * * * * //

dimensions      [0 0 0 0 0 0 0];

internalField   nonuniform List<scalar> 
12384
(
1
1
1
1
1
1
1
1
1
1
1
1
1
1
1
1
1
1
1
1
1
1
1
1
1
1
1
0.999999
0.999998
0.999996
0.999991
0.99999
0.99999
0.999996
0.999998
0.999999
1
1
1
1
1
1
1
1
1
1
1
1
1
1
1
1
1
1
1
0.999998
0.999991
0.999962
0.999925
0.999786
0.999793
0.999562
0.999769
0.999715
0.999902
0.999931
0.999975
0.99999
0.999997
0.999999
1
1
1
1
1
1
1
1
1
1
1
0.999999
0.999994
0.999957
0.999822
0.999149
0.997656
0.99422
0.981401
0.98227
0.960591
0.974868
0.969667
0.981296
0.988062
0.993828
0.997253
0.99928
0.99988
0.999984
0.999999
1
1
1
1
1
0.999992
0.999933
0.99967
0.998841
0.996949
0.99394
0.991771
0.992142
0.992477
0.992089
0.994947
0.992887
0.995278
0.995196
0.996608
0.997908
0.999002
0.999687
0.99994
0.999986
0.999999
1
1
1
1
1
1
1
1
1
1
1
1
1
1
1
1
1
1
0.999996
0.999978
0.999897
0.999651
0.999087
0.998411
0.997606
0.997467
0.997323
0.996747
0.99719
0.997738
0.998544
0.999372
0.999795
0.999967
0.999997
1
1
1
1
0.999998
0.999995
0.999995
0.999983
0.999897
0.999271
0.996575
0.98751
0.966821
0.940018
0.884662
0.865671
0.821489
0.829082
0.83326
0.847956
0.877961
0.907896
0.938662
0.965567
0.987684
0.997016
0.996526
0.998408
0.999355
0.999713
0.999896
0.999906
1
1
1
1
0.999984
0.999774
0.998606
0.995307
0.98631
0.975708
0.965596
0.954515
0.955183
0.96733
0.973937
0.982594
0.987384
0.992884
0.996216
0.998255
0.999325
0.999816
0.999981
1
1
1
1
1
1
1
1
1
1
0.999986
0.999838
0.998993
0.996818
0.990332
0.987492
0.979055
0.979943
0.983457
0.988018
0.991847
0.994811
0.997227
0.998826
0.999614
0.999889
0.999962
0.999989
1
1
1
1
1
1
1
1
1
1
1
0.999999
0.999994
0.999947
0.999579
0.997538
0.989803
0.967768
0.941445
0.86568
0.860116
0.80241
0.832398
0.816914
0.891384
0.898489
0.951075
0.972051
0.991158
0.996604
0.999532
0.999992
1
1
1
1
1
1
1
1
0.999999
0.999978
0.999823
0.998874
0.994955
0.979087
0.933589
0.886183
0.802063
0.647049
0.647891
0.570443
0.564124
0.644798
0.702427
0.775132
0.832946
0.884821
0.934937
0.976089
0.996479
0.999847
0.999961
0.999974
0.999967
0.999956
0.99994
0.999932
0.999953
1
1
0.999997
0.999978
0.999951
0.999978
0.99994
0.999741
0.999522
0.999387
0.999324
0.999259
0.998972
0.998819
0.999066
0.999394
0.99925
0.999544
0.999201
0.998722
0.998312
0.997777
0.996859
0.997623
0.998602
0.999302
0.999742
0.999947
0.999999
1
1
1
1
1
1
0.999754
0.993828
1
0.999998
0.999993
0.99998
0.999959
0.999929
0.999903
0.999822
0.99982
0.999856
0.999939
0.999984
0.999998
1
1
1
1
1
1
1
1
1
1
1
1
1
1
1
1
1
1
1
1
1
1
1
1
1
1
1
1
1
1
1
1
1
1
0.999994
0.99995
0.999663
0.998656
0.995163
0.988419
0.976301
0.96266
0.949933
0.942134
0.940012
0.948265
0.957924
0.970318
0.983079
0.995128
0.99967
0.999996
1
1
1
1
1
1
1
1
1
0.999999
0.999997
0.999934
0.99899
0.991426
0.966246
0.90794
0.822622
0.728418
0.648138
0.585375
0.55379
0.55195
0.572554
0.633068
0.717279
0.808716
0.883514
0.949188
0.987766
0.999249
0.999999
1
1
1
1
1
0.999999
0.999995
0.999973
0.999842
0.998955
0.994376
0.973487
0.91532
0.781743
0.631749
0.383574
0.28677
0.160493
0.1301
0.111028
0.129907
0.17603
0.24447
0.374886
0.588366
0.837255
0.973546
0.999895
1
1
0.999999
1
0.998246
0.975725
0.902283
0.761887
0.570705
0.37931
0.232085
0.152088
0.0946641
0.0877044
0.0889179
0.112936
0.133251
0.202077
0.271967
0.387142
0.530505
0.725115
0.906009
0.986708
0.998982
0.999906
0.999979
0.999973
0.999969
0.999985
0.999994
0.999998
1
1
1
1
1
1
1
1
1
0.999986
0.999651
0.996132
0.978546
0.928126
0.83497
0.711298
0.580541
0.47415
0.392481
0.35973
0.341449
0.378082
0.423626
0.503556
0.629124
0.768543
0.903278
0.98308
0.998971
0.999989
1
1
1
1
1
0.999932
0.992664
0.88336
0.585337
0.285492
0.123449
0.0591172
0.0295867
0.0156884
0.00970669
0.00661875
0.00559098
0.00574552
0.00702891
0.010261
0.0175771
0.0378323
0.104924
0.282869
0.600768
0.797167
0.915795
0.994827
0.998901
0.998406
0.997667
1
1
0.999999
0.999451
0.984988
0.908865
0.753202
0.544368
0.364187
0.242642
0.15809
0.103174
0.0837053
0.0755188
0.0807221
0.0988372
0.132366
0.187827
0.289328
0.454775
0.682054
0.889003
0.986055
0.999811
0.999999
0.999999
1
0.999999
0.999999
1
1
0.999997
0.998738
0.97206
0.857938
0.656848
0.433201
0.265811
0.182364
0.090069
0.077143
0.0717862
0.0797888
0.107988
0.166104
0.267464
0.433317
0.662704
0.875949
0.976265
0.997571
0.999932
1
1
1
1
1
1
1
1
1
1
1
0.999977
0.99625
0.933821
0.689998
0.378885
0.156836
0.0593187
0.0187065
0.00709152
0.00434355
0.00292381
0.00301305
0.00758439
0.0106322
0.0345885
0.0986496
0.192456
0.468551
0.78393
0.971873
0.999609
1
1
1
1
1
1
1
1
0.999991
0.999028
0.96923
0.785927
0.494421
0.187938
0.0958021
0.0242704
0.00985609
0.00330416
0.00231605
0.00194442
0.00216003
0.0037717
0.00821945
0.0203489
0.0537732
0.14799
0.360046
0.651987
0.91244
0.994699
0.999113
0.998515
0.998547
0.998917
0.999162
0.999918
0.999999
1
0.999997
0.999871
0.999107
0.989759
0.907307
0.759401
0.613683
0.51301
0.465728
0.551953
0.61701
0.758141
0.863182
0.924973
0.975791
0.98558
0.986309
0.980748
0.965139
0.938516
0.918409
0.880593
0.858884
0.846558
0.881111
0.937389
0.99075
0.999984
1
1
1
1
0.995333
0.731314
0.998787
0.998551
0.984786
0.937954
0.871092
0.808367
0.760795
0.738241
0.756026
0.788398
0.847879
0.906509
0.956153
0.987426
0.99847
0.999975
1
1
1
1
1
1
1
1
1
1
1
1
1
1
1
1
1
1
1
1
1
1
1
1
1
1
1
1
1
1
0.999999
0.999995
0.999979
0.999939
0.999766
0.999313
0.997747
0.995005
0.989674
0.985728
0.982044
0.983198
0.984152
0.98734
0.988752
0.989707
0.988861
0.991766
0.997662
0.999884
0.999999
1
1
0.999999
1
1
1
1
0.999999
0.999993
0.999867
0.997316
0.986158
0.961294
0.936912
0.895019
0.859387
0.796372
0.754588
0.694218
0.665177
0.634427
0.632908
0.650941
0.700588
0.769478
0.843528
0.905943
0.958827
0.991247
0.999799
1
1
1
1
1
0.999994
0.999928
0.999525
0.997789
0.992767
0.978079
0.947351
0.882629
0.770693
0.649347
0.443466
0.345265
0.202709
0.161796
0.137381
0.140656
0.15912
0.212559
0.277258
0.392035
0.59791
0.838977
0.985697
0.999989
1
0.999998
1
0.965674
0.864154
0.753723
0.64649
0.525222
0.399607
0.290496
0.208254
0.143155
0.133114
0.11724
0.14171
0.161571
0.207151
0.279832
0.373412
0.469594
0.609844
0.780701
0.93462
0.989506
0.998894
0.999936
0.999995
0.999998
0.999997
0.999983
0.99998
1
1
1
1
1
1
1
0.999999
0.999958
0.999357
0.996109
0.986351
0.965074
0.928283
0.871454
0.797367
0.705652
0.622271
0.534182
0.481876
0.428719
0.426773
0.432928
0.47656
0.535816
0.632227
0.778542
0.913093
0.986946
0.999668
0.999996
1
1
1
0.999995
0.992422
0.807126
0.534318
0.335195
0.203238
0.119967
0.0691763
0.0403647
0.0241662
0.0157163
0.0108912
0.00876129
0.00799709
0.00854182
0.0104106
0.0143799
0.022348
0.0426443
0.105764
0.28438
0.553311
0.705036
0.919543
0.996935
0.998545
0.99488
1
1
0.99992
0.991585
0.924093
0.780638
0.617768
0.440832
0.343015
0.233016
0.165812
0.141165
0.115442
0.101082
0.093677
0.107828
0.132143
0.165152
0.218346
0.306989
0.457176
0.670239
0.883263
0.987563
0.999725
0.999999
1
1
0.999998
1
1
0.999183
0.963333
0.824439
0.643691
0.470117
0.347636
0.24801
0.17167
0.107443
0.100065
0.0769164
0.0732912
0.0888999
0.115953
0.165385
0.255545
0.411096
0.634992
0.853313
0.968088
0.996505
0.999953
1
1
1
1
1
1
1
1
1
0.999999
0.998962
0.948054
0.680596
0.366627
0.161174
0.0706391
0.0239058
0.0075004
0.00504853
0.00172147
0.00192882
0.00146291
0.00326518
0.00820186
0.0102965
0.0420548
0.0838678
0.190414
0.463608
0.790412
0.974749
0.999867
1
1
1
1
1
0.999999
0.999998
0.999883
0.984418
0.811294
0.453328
0.223827
0.0782488
0.0422041
0.00960379
0.00685951
0.00254879
0.00176864
0.00147532
0.00153427
0.00190954
0.00285142
0.00632864
0.0141545
0.0356748
0.10574
0.284354
0.589057
0.906263
0.997072
0.999794
0.999565
0.998818
0.996716
0.999899
0.999991
0.999998
0.999943
0.998853
0.98321
0.878643
0.696358
0.532787
0.482316
0.551957
0.636919
0.703798
0.773595
0.8246
0.863563
0.921065
0.94091
0.96049
0.9569
0.943411
0.934504
0.93709
0.943705
0.94499
0.934068
0.921179
0.915504
0.920502
0.966909
0.999882
1
1
1
0.999998
0.900033
0.941253
0.996204
0.980207
0.929832
0.863462
0.805787
0.761803
0.733835
0.722629
0.727148
0.760223
0.805469
0.857721
0.90531
0.950828
0.982482
0.997383
0.999971
1
1
1
1
1
1
1
1
1
1
1
1
1
1
1
1
1
1
1
1
1
1
1
1
1
1
1
1
0.999998
0.999989
0.999972
0.999925
0.999832
0.999565
0.99909
0.997929
0.996536
0.995344
0.995302
0.996614
0.997494
0.998304
0.998681
0.998841
0.998432
0.997009
0.994809
0.996118
0.999383
0.999985
1
1
0.999993
1
1
1
1
0.999999
0.999971
0.998972
0.987146
0.955657
0.931656
0.923067
0.924341
0.920262
0.914928
0.893988
0.880156
0.84835
0.82689
0.801179
0.798087
0.789216
0.822602
0.848801
0.888676
0.930136
0.973663
0.997333
1
1
0.999998
0.999999
0.999999
0.999972
0.999601
0.9971
0.989321
0.969761
0.936332
0.879909
0.820211
0.730303
0.676502
0.561975
0.474674
0.365426
0.277529
0.254045
0.212068
0.224321
0.229597
0.265279
0.319809
0.450959
0.682079
0.919681
0.998679
1
0.999998
0.999999
0.862637
0.698305
0.615943
0.574534
0.541026
0.501809
0.437084
0.358045
0.309689
0.267089
0.233024
0.23466
0.264221
0.282313
0.334099
0.415487
0.478579
0.576046
0.688605
0.847311
0.951337
0.990534
0.999135
0.999987
1
1
0.999964
0.999941
1
1
1
1
1
1
0.999999
0.999966
0.999423
0.995796
0.986943
0.976406
0.966419
0.954931
0.939936
0.917684
0.883173
0.842045
0.7845
0.720757
0.670008
0.614413
0.589091
0.567577
0.568989
0.620888
0.703153
0.830476
0.956656
0.997034
0.999978
0.999999
1
1
0.997805
0.837409
0.601825
0.436639
0.362204
0.314887
0.269758
0.199284
0.152822
0.110087
0.0835938
0.0632772
0.0557091
0.0426548
0.0372381
0.0332516
0.0346225
0.0287228
0.0372168
0.0577824
0.142282
0.337731
0.588615
0.79667
0.982563
0.999066
0.994936
1
1
0.998835
0.961442
0.827973
0.667315
0.546144
0.452995
0.395324
0.306694
0.281393
0.220121
0.186658
0.172714
0.17865
0.17271
0.183115
0.206292
0.246905
0.273331
0.356673
0.512906
0.72518
0.913654
0.992681
0.999805
1
1
0.999999
1
0.999999
0.982976
0.850867
0.662907
0.527677
0.433175
0.387682
0.305725
0.229209
0.21727
0.159293
0.147518
0.144697
0.129762
0.144818
0.167821
0.209128
0.290948
0.449298
0.670735
0.871722
0.97244
0.997429
0.999986
1
1
1
1
1
1
1
1
0.999982
0.987078
0.777593
0.431295
0.189296
0.0991924
0.0332546
0.0209677
0.00677916
0.00436827
0.00192869
0.00155819
0.00292461
0.00256942
0.0077397
0.0119116
0.0183211
0.0594933
0.0975575
0.233243
0.547299
0.850372
0.990707
0.999991
1
1
0.999999
1
0.999997
0.999994
0.998577
0.906729
0.535054
0.244001
0.118761
0.0459442
0.0284049
0.00766198
0.00524548
0.00277199
0.00197689
0.00167739
0.0016288
0.00189415
0.00250004
0.0035266
0.00629614
0.0127972
0.0335556
0.107324
0.308536
0.66336
0.954125
0.999558
0.999943
0.99919
0.993656
0.999904
0.999955
0.99998
0.999358
0.987071
0.891778
0.691551
0.507898
0.503028
0.594302
0.686254
0.747657
0.771955
0.79631
0.833969
0.848625
0.879638
0.898281
0.917938
0.921554
0.881337
0.85137
0.903436
0.946454
0.969613
0.97648
0.969217
0.947727
0.918441
0.927653
0.99968
1
1
1
0.99567
0.939175
0.988908
0.979625
0.938026
0.880094
0.834394
0.804945
0.784562
0.770186
0.759034
0.761262
0.77679
0.798995
0.833728
0.875787
0.918312
0.959992
0.98998
0.99929
0.999999
1
1
1
1
1
1
1
1
1
1
1
1
1
1
1
1
1
1
1
1
1
1
1
1
1
1
1
0.99999
0.999956
0.999877
0.999721
0.999463
0.998968
0.998227
0.997129
0.996809
0.997793
0.999244
0.999809
0.999955
0.999977
0.999978
0.999962
0.999887
0.999468
0.997806
0.996088
0.998548
0.999898
1
1
0.999962
0.999999
1
1
1
0.999999
0.999921
0.997117
0.96946
0.926637
0.902968
0.921475
0.940015
0.959031
0.965082
0.968293
0.962392
0.95334
0.942914
0.923119
0.913625
0.901482
0.888825
0.890735
0.891566
0.907468
0.947805
0.988186
1
1
0.999974
0.999997
0.999995
0.999914
0.998742
0.991964
0.969799
0.927422
0.859509
0.791079
0.707248
0.708377
0.670602
0.738292
0.688857
0.717207
0.581976
0.528344
0.429313
0.34359
0.307577
0.28946
0.290427
0.370413
0.561097
0.841697
0.991651
0.999994
0.999999
0.999977
0.711839
0.538426
0.507488
0.537491
0.59873
0.648157
0.639679
0.622152
0.603335
0.539298
0.490742
0.434952
0.464183
0.436818
0.447559
0.502241
0.520007
0.589876
0.640533
0.7666
0.886131
0.965677
0.99355
0.999818
0.999999
0.999999
0.999938
0.999919
1
1
1
1
1
1
0.999991
0.999725
0.995906
0.984747
0.974161
0.972312
0.975823
0.978774
0.979656
0.978401
0.974251
0.968395
0.953878
0.935033
0.899194
0.855396
0.79419
0.72993
0.692548
0.665447
0.688223
0.78962
0.92511
0.991631
0.999974
0.999998
1
0.999983
0.928947
0.698255
0.554597
0.54777
0.50362
0.454885
0.387605
0.332933
0.331559
0.27138
0.313242
0.260875
0.225337
0.197387
0.18228
0.136436
0.11973
0.0767858
0.0587159
0.0534648
0.0912585
0.223489
0.472144
0.741779
0.958163
0.998812
0.994773
1
0.999995
0.994322
0.909012
0.736524
0.611972
0.541196
0.515232
0.488274
0.44743
0.455816
0.400943
0.380343
0.339156
0.307411
0.319253
0.295778
0.308562
0.305604
0.303057
0.344631
0.430504
0.583887
0.81798
0.961659
0.997841
0.999988
1
0.999999
1
0.999992
0.935025
0.737182
0.573394
0.487134
0.450507
0.448558
0.381528
0.372863
0.348518
0.296332
0.262286
0.240293
0.242887
0.22601
0.223294
0.232656
0.260849
0.346424
0.51869
0.738318
0.911329
0.983374
0.999348
0.999999
1
1
1
1
1
0.999999
1
0.999722
0.935433
0.593389
0.264404
0.131551
0.0600261
0.024484
0.0192175
0.00812448
0.00480903
0.00525785
0.00515813
0.00406218
0.00819989
0.00666939
0.0219595
0.0200889
0.0349648
0.078444
0.12827
0.328862
0.678614
0.940184
0.999122
1
1
0.999999
1
0.999992
0.999983
0.988442
0.737367
0.357626
0.160083
0.0777644
0.037222
0.0225251
0.0088975
0.00681271
0.00406966
0.00308896
0.00241644
0.00229783
0.00240851
0.00291979
0.00366649
0.00457586
0.00708786
0.0139306
0.0443857
0.142816
0.398444
0.805771
0.993562
0.999985
0.99967
0.987922
0.999894
0.999859
0.999858
0.995655
0.938839
0.745957
0.534753
0.497087
0.596234
0.711285
0.780978
0.805446
0.834009
0.840748
0.8563
0.85176
0.854304
0.827888
0.868196
0.872379
0.854456
0.730862
0.836803
0.934853
0.983609
0.994712
0.991202
0.96337
0.905455
0.871185
0.999436
1
1
0.999989
0.994273
0.989701
0.982075
0.950165
0.900389
0.864764
0.848201
0.848585
0.851808
0.859359
0.868048
0.877356
0.871237
0.854292
0.844619
0.855651
0.889478
0.938389
0.981256
0.998167
0.999986
1
1
1
1
1
1
1
1
1
1
1
1
1
1
1
1
1
1
1
1
1
0.999999
1
1
1
1
0.999998
0.999971
0.999869
0.999643
0.999307
0.998611
0.99752
0.99566
0.994341
0.995082
0.998151
0.999829
0.999996
1
1
1
1
0.999994
0.999915
0.999064
0.996623
0.997478
0.999599
1
1
0.99981
0.999998
1
1
1
0.999999
0.999852
0.99456
0.953615
0.895036
0.886963
0.91833
0.950644
0.975307
0.983777
0.987394
0.989411
0.988155
0.98909
0.985937
0.978261
0.964986
0.948911
0.919716
0.904497
0.891992
0.915279
0.968371
0.999999
1
0.999778
0.999988
0.999988
0.999813
0.997698
0.984925
0.94598
0.876445
0.782921
0.682909
0.618006
0.614899
0.645168
0.817094
0.858816
0.956763
0.937594
0.882044
0.708247
0.551306
0.418257
0.330542
0.284161
0.334197
0.501286
0.789194
0.983755
0.999976
0.999999
0.999677
0.564845
0.43935
0.447488
0.537282
0.676126
0.789101
0.843972
0.900406
0.892092
0.856122
0.809637
0.73481
0.704742
0.665437
0.617571
0.613656
0.598656
0.629125
0.636198
0.716868
0.827757
0.931957
0.981609
0.998844
0.999991
0.999995
0.999889
0.999941
1
1
0.999995
0.999999
1
0.999998
0.999926
0.998281
0.986243
0.967586
0.964159
0.971592
0.97878
0.983854
0.98808
0.991156
0.994892
0.996229
0.996335
0.994598
0.989156
0.974555
0.939746
0.889828
0.812072
0.740109
0.719434
0.765833
0.881036
0.980665
0.999973
0.999998
1
0.995528
0.832315
0.680865
0.672629
0.632002
0.545145
0.461928
0.418407
0.419735
0.495234
0.542841
0.66858
0.662064
0.697569
0.62805
0.53888
0.407828
0.306895
0.184898
0.112061
0.0635075
0.0818912
0.163405
0.390059
0.709063
0.954595
0.998699
0.996275
1
0.999969
0.983175
0.846106
0.67814
0.588383
0.559188
0.565836
0.580175
0.619831
0.653601
0.67033
0.679684
0.65377
0.604551
0.540772
0.511744
0.423435
0.394921
0.386455
0.372453
0.386558
0.538342
0.728605
0.9195
0.991622
0.999913
0.999999
0.999999
1
0.999948
0.882856
0.663833
0.524323
0.475028
0.467624
0.494987
0.474695
0.532675
0.51425
0.506625
0.497925
0.461583
0.40306
0.373103
0.317835
0.294682
0.276689
0.310832
0.432593
0.625344
0.831783
0.958018
0.996069
0.999966
1
0.999999
1
1
1
0.999999
1
0.997702
0.858804
0.446393
0.197848
0.0825619
0.0460408
0.022062
0.0263903
0.0130873
0.0251299
0.0189676
0.0189007
0.0193208
0.0216718
0.0221476
0.0222457
0.0413563
0.0294271
0.0531563
0.104677
0.201551
0.507814
0.864789
0.993558
0.999982
0.999998
0.999999
1
0.999977
0.999931
0.954578
0.58999
0.260437
0.125451
0.054997
0.0278583
0.0274129
0.00881543
0.0169082
0.0104589
0.0123724
0.00934503
0.00540261
0.00468628
0.00443781
0.00465268
0.00483575
0.00586167
0.00943648
0.0221914
0.0738999
0.27015
0.645376
0.962164
0.999929
0.999843
0.982805
0.999778
0.999625
0.999379
0.982684
0.850525
0.629332
0.484969
0.555307
0.694654
0.802832
0.852518
0.897777
0.913199
0.938065
0.922347
0.891053
0.85594
0.787119
0.760195
0.836282
0.839464
0.669951
0.754061
0.914904
0.987913
0.999242
0.997418
0.965411
0.872246
0.809403
0.999458
1
1
0.999987
0.998653
0.991656
0.968818
0.925678
0.887695
0.877597
0.891425
0.91202
0.942198
0.961802
0.971692
0.971273
0.962418
0.943492
0.907644
0.869835
0.868681
0.912519
0.969873
0.99714
0.999962
1
1
1
1
1
1
1
1
1
1
1
1
1
1
1
1
1
1
1
1
1
0.999996
1
1
1
1
0.999998
0.999967
0.999823
0.999473
0.998648
0.99732
0.995103
0.991503
0.988332
0.990765
0.997488
0.999901
1
1
1
1
1
1
0.999976
0.999423
0.996537
0.996342
0.998957
1
0.999999
0.99936
0.999995
1
1
1
0.999998
0.999744
0.992557
0.940187
0.882013
0.876575
0.920924
0.956072
0.980495
0.989866
0.992948
0.995564
0.997832
0.999164
0.999673
0.999067
0.993535
0.979297
0.947329
0.906999
0.876542
0.885427
0.946535
0.999999
1
0.998761
0.999952
0.999981
0.999828
0.997298
0.98006
0.929208
0.840147
0.719222
0.624346
0.521514
0.520684
0.57737
0.770377
0.883012
0.993929
0.999512
0.993882
0.904036
0.711817
0.496761
0.348092
0.289977
0.330071
0.476586
0.778988
0.984833
0.999968
0.999999
0.996146
0.464794
0.392385
0.429133
0.549299
0.73381
0.878328
0.958951
0.991035
0.994733
0.992942
0.984792
0.957013
0.901667
0.872531
0.776965
0.736571
0.687118
0.689157
0.663154
0.703367
0.802178
0.909159
0.974612
0.99733
0.999938
0.999963
0.999851
0.999975
1
1
0.999955
0.999995
0.999998
0.999987
0.999557
0.992686
0.970542
0.949921
0.945621
0.956886
0.967001
0.975561
0.983292
0.992218
0.998189
0.999613
0.999937
0.999967
0.999864
0.998661
0.991126
0.960683
0.894155
0.814962
0.75481
0.760591
0.859372
0.97855
0.999988
0.999997
0.999984
0.967439
0.798314
0.7616
0.721722
0.640364
0.516324
0.406074
0.372916
0.455611
0.592762
0.748476
0.890564
0.951496
0.981859
0.965881
0.895857
0.734756
0.538424
0.345498
0.188812
0.0977715
0.0830965
0.149387
0.355344
0.699326
0.961707
0.998898
0.997917
1
0.99976
0.964158
0.798796
0.63381
0.557688
0.54642
0.569416
0.630172
0.698865
0.822364
0.897729
0.956172
0.967149
0.917948
0.847523
0.692802
0.593433
0.540021
0.471664
0.383289
0.43465
0.505227
0.692561
0.88822
0.988579
0.999812
0.999998
1
1
0.999766
0.850161
0.619471
0.497003
0.455469
0.470955
0.513461
0.540252
0.649843
0.755774
0.853686
0.878912
0.820223
0.711554
0.584474
0.463137
0.366431
0.325772
0.313108
0.386172
0.551944
0.76871
0.929935
0.992105
0.999873
0.999997
1
1
1
1
0.999997
0.999999
0.991511
0.778968
0.366331
0.14097
0.0662278
0.0286536
0.0314964
0.0296443
0.0394119
0.11351
0.126315
0.212379
0.165154
0.0816908
0.0876329
0.0453483
0.045097
0.0475389
0.0397237
0.0695567
0.170154
0.392295
0.794183
0.987961
0.999911
0.999996
1
1
0.999959
0.999348
0.898812
0.504555
0.200397
0.0931733
0.0422141
0.0259585
0.0278229
0.0174209
0.0456539
0.0484327
0.0855029
0.0850469
0.0611008
0.0252438
0.0102974
0.00713678
0.00560308
0.00717873
0.0072837
0.0140216
0.0502934
0.173236
0.513301
0.909931
0.999408
0.999846
0.97298
0.999401
0.999237
0.998607
0.962214
0.784008
0.554877
0.492518
0.632143
0.791354
0.871409
0.928363
0.966207
0.987125
0.989358
0.981537
0.946612
0.891093
0.772188
0.687824
0.770057
0.852857
0.668311
0.707585
0.898489
0.986281
0.999436
0.998189
0.949968
0.824139
0.762951
0.999749
1
1
0.999995
0.999327
0.99095
0.960808
0.918422
0.898474
0.900878
0.94017
0.96204
0.989192
0.995856
0.998576
0.998113
0.994497
0.981538
0.954583
0.913498
0.878099
0.893559
0.953978
0.995557
0.999964
1
1
1
1
1
1
1
1
1
1
1
1
1
1
1
1
1
1
1
1
1
0.999989
1
1
1
1
0.999999
0.999976
0.999836
0.999352
0.998017
0.995284
0.991932
0.986873
0.981862
0.984563
0.996378
0.999879
0.999999
1
1
1
1
1
0.999982
0.999345
0.995908
0.995115
0.998195
1
0.999999
0.997387
0.99998
1
1
1
0.999998
0.999678
0.991729
0.939002
0.881166
0.881938
0.921415
0.958716
0.982045
0.990273
0.99415
0.996563
0.998964
0.999902
0.999995
0.99999
0.999183
0.990986
0.95538
0.908094
0.861484
0.868898
0.926267
1
0.999999
0.995667
0.999885
0.999989
0.999893
0.997851
0.981688
0.928444
0.823303
0.710719
0.583004
0.471032
0.443787
0.478475
0.63873
0.750557
0.951101
0.987894
0.986015
0.890432
0.701828
0.455146
0.334841
0.297894
0.326514
0.490106
0.811548
0.991473
0.999907
0.999991
0.980158
0.447135
0.393341
0.423702
0.545565
0.747337
0.907023
0.983503
0.998899
0.999918
0.999984
0.999906
0.998582
0.984837
0.960949
0.89714
0.814847
0.772998
0.744524
0.696899
0.727022
0.803298
0.909778
0.975793
0.997842
0.999907
0.999923
0.999916
0.999994
1
0.999998
0.999737
0.999982
0.999995
0.999951
0.998661
0.983334
0.948775
0.924308
0.916375
0.921243
0.933393
0.946963
0.963044
0.984836
0.996911
0.999709
0.999996
1
1
0.999965
0.99809
0.98039
0.929717
0.842565
0.761704
0.747415
0.878917
0.980781
0.999995
0.999992
0.999456
0.931734
0.837929
0.799891
0.742899
0.623671
0.456572
0.32373
0.297288
0.413598
0.597795
0.789859
0.932094
0.988215
0.999733
0.999884
0.991886
0.891807
0.70008
0.455121
0.258317
0.120766
0.0899334
0.149893
0.354712
0.724429
0.975121
0.999191
0.99986
0.999998
0.997815
0.934374
0.747241
0.585035
0.507108
0.501004
0.523689
0.612899
0.686762
0.854242
0.950336
0.997172
0.999965
0.99857
0.968688
0.854199
0.730861
0.633368
0.507139
0.464299
0.445443
0.521008
0.684809
0.893606
0.987588
0.999869
0.999999
1
1
0.999325
0.843241
0.596433
0.471409
0.434906
0.449416
0.492285
0.545295
0.669065
0.859937
0.971087
0.998152
0.995753
0.931356
0.766524
0.605629
0.416819
0.372956
0.318676
0.380879
0.521481
0.738445
0.922527
0.99218
0.999831
0.999999
1
1
1
1
0.999993
0.999912
0.97925
0.729564
0.306095
0.116675
0.0525289
0.027241
0.0230914
0.0421976
0.077459
0.212545
0.425331
0.775874
0.755418
0.377249
0.164764
0.106413
0.0523372
0.0433093
0.0496467
0.0503036
0.133622
0.372501
0.765111
0.987019
0.999933
0.999998
0.999999
1
0.99988
0.993479
0.839141
0.448992
0.171638
0.0708607
0.0378923
0.0266727
0.0272855
0.0257309
0.0770337
0.10369
0.376516
0.498614
0.331912
0.118634
0.0294181
0.0155975
0.00754713
0.00615284
0.00790246
0.0140104
0.0345993
0.138507
0.458234
0.86125
0.997857
0.999379
0.957567
0.99624
0.998686
0.997354
0.946201
0.746752
0.517493
0.53342
0.694627
0.831976
0.902404
0.967502
0.994473
0.99946
0.999725
0.996848
0.974427
0.921842
0.769551
0.658316
0.720019
0.861311
0.750486
0.695772
0.91008
0.980113
0.996724
0.992329
0.915399
0.786198
0.754397
0.999912
1
1
0.999999
0.999676
0.993124
0.963922
0.926709
0.920107
0.926657
0.968312
0.986686
0.998937
0.999952
0.999999
0.999993
0.999658
0.995096
0.974279
0.934205
0.890944
0.885582
0.940726
0.992904
0.999965
1
1
1
1
1
1
1
1
1
1
1
1
1
1
1
1
1
1
1
1
1
1
0.999475
0.999976
1
1
1
1
1
0.999997
0.999943
0.99965
0.998415
0.995121
0.99035
0.983565
0.975524
0.978152
0.994813
0.999785
0.999997
1
1
1
1
1
0.999949
0.998873
0.99457
0.99456
0.997035
0.999279
0.999995
0.999991
0.995983
0.996669
0.999931
1
1
1
0.999998
0.99974
0.993338
0.94808
0.89693
0.892282
0.925812
0.958274
0.980871
0.988605
0.992409
0.995004
0.997995
0.999614
0.999963
0.999965
0.999287
0.989681
0.952629
0.897062
0.85939
0.861658
0.926628
0.999039
0.999999
0.999995
0.993367
0.989241
0.999704
0.999992
0.99997
0.999139
0.988197
0.94016
0.851043
0.722886
0.602203
0.457454
0.423916
0.377426
0.494601
0.524603
0.700239
0.74525
0.773077
0.641216
0.502381
0.362335
0.309742
0.291685
0.351499
0.543459
0.856759
0.984243
0.996142
0.99768
0.999777
0.999284
0.749164
0.518871
0.416805
0.413448
0.511435
0.699836
0.877183
0.971189
0.997014
0.999801
0.999989
0.999988
0.999797
0.995889
0.983398
0.931188
0.853592
0.826338
0.773261
0.7348
0.765615
0.829746
0.93142
0.985595
0.999167
0.999962
0.99997
0.999982
0.999999
1
0.999998
0.999939
0.991859
0.998144
0.999744
0.999926
0.999715
0.996187
0.975072
0.927108
0.880997
0.861621
0.856716
0.868612
0.882436
0.912685
0.950219
0.983334
0.996669
0.999738
0.999984
0.999981
0.999754
0.995807
0.972596
0.915298
0.815009
0.739934
0.780753
0.9054
0.988565
0.999723
0.999855
0.998494
0.9197
0.895921
0.842773
0.835875
0.806948
0.746846
0.607833
0.411511
0.244614
0.226185
0.318076
0.514763
0.692719
0.848713
0.951435
0.993455
0.996807
0.982324
0.88181
0.713993
0.466076
0.253801
0.125534
0.098688
0.168677
0.406041
0.785967
0.990927
0.999937
0.999807
0.999969
0.999785
0.978068
0.958287
0.851086
0.663704
0.516197
0.443787
0.436141
0.450257
0.531172
0.594914
0.752573
0.86741
0.96776
0.996305
0.995013
0.969995
0.877913
0.766586
0.623799
0.58612
0.479171
0.48564
0.543882
0.730778
0.907021
0.994049
0.999976
0.999998
0.999917
0.999014
0.999926
0.999778
0.97455
0.808661
0.569039
0.457725
0.413517
0.411669
0.444049
0.47423
0.575501
0.774369
0.912412
0.988902
0.994831
0.946677
0.796053
0.637538
0.427768
0.370266
0.338883
0.369632
0.527971
0.735635
0.925298
0.994106
0.999974
1
1
0.999998
0.999942
0.999354
0.999805
0.999491
0.990182
0.992602
0.943136
0.661734
0.2872
0.104809
0.0507375
0.0208
0.021222
0.0292248
0.0689254
0.145133
0.404685
0.672301
0.765621
0.462057
0.221
0.0996495
0.0725846
0.0346114
0.0378092
0.0574381
0.116978
0.360479
0.812522
0.99367
0.999997
0.999993
0.999628
0.99832
0.999715
0.999018
0.975519
0.958798
0.773408
0.399093
0.156005
0.0686945
0.0365055
0.0221178
0.0217141
0.0213585
0.0538481
0.080968
0.279734
0.578885
0.48449
0.178656
0.0573917
0.0235999
0.00794332
0.00745271
0.0098134
0.0116669
0.0326811
0.130706
0.410656
0.835246
0.993422
0.996406
0.926061
0.864177
0.999796
0.999763
0.997303
0.995836
0.94558
0.736739
0.509919
0.547551
0.704875
0.83302
0.923516
0.97879
0.99871
0.999992
0.999985
0.998635
0.979034
0.930501
0.750141
0.680701
0.702422
0.8633
0.867235
0.771591
0.928199
0.978542
0.991548
0.973513
0.886783
0.77066
0.703782
0.839916
0.999935
0.999999
0.999991
0.999999
0.999997
0.99986
0.995912
0.973795
0.94057
0.939045
0.944002
0.978479
0.993401
0.999709
0.999998
1
0.999999
0.99985
0.996566
0.977219
0.939202
0.895501
0.88159
0.933726
0.990594
0.999956
1
1
1
0.999999
0.999998
1
1
1
1
1
1
1
1
1
1
1
1
1
1
1
1
1
1
1
0.999213
0.999935
1
1
1
1
1
1
0.999996
0.999922
0.999292
0.996341
0.99117
0.985156
0.975884
0.974267
0.992615
0.999535
0.999983
0.999999
1
1
1
0.999992
0.999777
0.997733
0.994132
0.992535
0.992251
0.996438
0.999887
0.999774
0.991776
0.996089
0.999903
1
1
1
0.999999
0.999907
0.99647
0.967547
0.919359
0.914352
0.92921
0.958525
0.975926
0.985295
0.987427
0.989918
0.992408
0.996174
0.998037
0.997878
0.994527
0.977266
0.9408
0.895681
0.86925
0.89286
0.955774
0.998053
0.999995
0.999926
0.983453
0.984522
0.999346
0.999995
0.999996
0.999853
0.996299
0.969728
0.89334
0.784276
0.657997
0.516759
0.398451
0.336768
0.368528
0.330876
0.406064
0.395062
0.400801
0.371261
0.315193
0.288247
0.265374
0.286242
0.393037
0.61589
0.87524
0.973741
0.993727
0.997694
0.998277
0.993517
0.786472
0.578904
0.427374
0.385331
0.454568
0.591707
0.771088
0.904719
0.965136
0.989472
0.995731
0.997129
0.992124
0.984508
0.964646
0.899377
0.862942
0.828246
0.768039
0.770826
0.800287
0.874762
0.959701
0.995078
0.999898
0.999999
0.999999
0.999999
0.999999
0.999991
0.999312
0.99345
0.966343
0.993259
0.998985
0.999707
0.999265
0.994251
0.968194
0.912681
0.852365
0.802668
0.77788
0.773418
0.785667
0.818386
0.847385
0.906209
0.956266
0.980715
0.989842
0.99093
0.984819
0.961637
0.916951
0.832743
0.746465
0.752552
0.834783
0.945131
0.993893
0.99765
0.975143
0.857525
0.74003
0.849267
0.887213
0.868686
0.830502
0.769639
0.634349
0.406005
0.213395
0.161037
0.208906
0.348331
0.495624
0.652818
0.727731
0.809816
0.849281
0.829663
0.713449
0.568534
0.337683
0.186618
0.108879
0.107795
0.199728
0.456118
0.825321
0.996248
0.999592
0.997321
0.990814
0.986594
0.988625
0.968774
0.850267
0.648168
0.484681
0.404582
0.383475
0.371023
0.4127
0.427458
0.542906
0.612935
0.737027
0.801806
0.820501
0.810315
0.724232
0.698574
0.609898
0.565444
0.48293
0.535315
0.599433
0.758538
0.933284
0.995274
0.999928
0.999972
0.999838
0.999552
0.999549
0.998542
0.974598
0.824004
0.587432
0.456335
0.403212
0.382122
0.381507
0.36578
0.434969
0.507425
0.609016
0.714463
0.760704
0.717154
0.639727
0.492432
0.400286
0.334575
0.338392
0.393158
0.540301
0.762556
0.934989
0.996333
0.999999
1
0.999973
0.999073
0.99588
0.991282
0.989387
0.990991
0.996245
0.996381
0.955921
0.712758
0.322094
0.120073
0.0464687
0.022517
0.015139
0.0182909
0.027686
0.0541601
0.097877
0.172261
0.233142
0.131409
0.135315
0.052368
0.0469682
0.0402275
0.0266918
0.0535688
0.149999
0.385148
0.843391
0.997647
0.999994
0.999935
0.998723
0.995082
0.993236
0.993352
0.994903
0.984589
0.819083
0.438041
0.174713
0.0786491
0.0425875
0.0181529
0.0153721
0.012638
0.0217622
0.0218685
0.0597016
0.0942245
0.116144
0.0837562
0.0278604
0.0156981
0.010002
0.00903671
0.0088319
0.0150735
0.0437539
0.138092
0.404919
0.801223