/*--------------------------------*- C++ -*----------------------------------*\
| =========                 |                                                 |
| \\      /  F ield         | OpenFOAM: The Open Source CFD Toolbox           |
|  \\    /   O peration     | Version:  2.1.1                                 |
|   \\  /    A nd           | Web:      www.OpenFOAM.org                      |
|    \\/     M anipulation  |                                                 |
\*---------------------------------------------------------------------------*/
FoamFile
{
    version     2.0;
    format      ascii;
    class       volScalarField;
    location    "0.006100000";
    object      H2O;
}
// * * * * * * * * * * * * * * * * * * * * * * * * * * * * * * * * * * * * * //

dimensions      [0 0 0 0 0 0 0];

internalField   nonuniform List<scalar> 
12384
(
0.230077
0.228681
0.228078
0.228583
0.229438
0.230342
0.230955
0.231406
0.231377
0.231443
0.231131
0.231075
0.233353
0.235589
0.207135
0.21651
0.21895
0.219095
0.218914
0.218592
0.217845
0.216653
0.215361
0.214234
0.213559
0.213056
0.212872
0.212599
0.212637
0.212435
0.212565
0.21242
0.212775
0.212285
0.212876
0.212346
0.212515
0.212645
0.213047
0.213767
0.214474
0.212028
0.203929
0.201328
0.234268
0.228507
0.23135
0.234087
0.235896
0.237858
0.239217
0.240494
0.241449
0.242313
0.243218
0.243991
0.244777
0.245151
0.245183
0.245238
0.244921
0.24481
0.244233
0.243667
0.242431
0.241957
0.24059
0.240364
0.239218
0.238416
0.236878
0.2354
0.238342
0.241857
0.246737
0.246346
0.246735
0.247076
0.247206
0.247358
0.247328
0.247366
0.247303
0.247297
0.247298
0.247536
0.247624
0.247711
0.248341
0.247866
0.248594
0.24818
0.248604
0.248243
0.248123
0.248129
0.248077
0.247955
0.247618
0.247163
0.248078
0.248645
0.24887
0.248898
0.251203
0.251187
0.250902
0.250883
0.250766
0.250902
0.251013
0.251166
0.251276
0.251441
0.251573
0.251518
0.2515
0.2515
0.251491
0.251475
0.25132
0.251194
0.250877
0.251079
0.249392
0.2466
0.24614
0.247314
0.248004
0.248567
0.248698
0.248427
0.247985
0.247626
0.251545
0.251558
0.251557
0.251587
0.251516
0.251526
0.251479
0.251488
0.251499
0.251528
0.251552
0.251544
0.251582
0.251629
0.251647
0.251691
0.251732
0.251768
0.25176
0.251761
0.251787
0.251766
0.251756
0.251761
0.251715
0.251675
0.251612
0.251693
0.251761
0.251786
0.25153
0.251136
0.250174
0.250612
0.251756
0.252021
0.251991
0.251986
0.252
0.252039
0.25209
0.252056
0.252147
0.252126
0.252172
0.252197
0.252171
0.252196
0.252154
0.252107
0.252051
0.252036
0.251972
0.252227
0.243841
0.233492
0.233785
0.233827
0.233712
0.23396
0.250265
0.251863
0.251966
0.251799
0.251718
0.25169
0.251692
0.25169
0.251738
0.251745
0.251756
0.251787
0.251784
0.251778
0.251771
0.251738
0.251717
0.251704
0.251658
0.251619
0.251595
0.2516
0.251671
0.251611
0.251534
0.251648
0.251688
0.251689
0.251684
0.251693
0.251201
0.251357
0.251525
0.251492
0.251497
0.2514
0.2514
0.251453
0.25147
0.251551
0.251496
0.251537
0.251473
0.251427
0.251488
0.251378
0.251425
0.251342
0.251334
0.251452
0.25107
0.250557
0.250624
0.250865
0.251057
0.251136
0.251114
0.251041
0.250778
0.25061
0.250924
0.25189
0.251907
0.251758
0.251743
0.251747
0.251757
0.251822
0.251889
0.251921
0.252028
0.252098
0.252239
0.252176
0.252212
0.252169
0.252127
0.252085
0.251956
0.251889
0.251866
0.25187
0.251755
0.25171
0.251716
0.251693
0.251671
0.251672
0.251686
0.251708
0.251958
0.251822
0.251857
0.251829
0.251819
0.251817
0.251869
0.251885
0.251907
0.251904
0.251999
0.252013
0.252049
0.252068
0.252022
0.252046
0.252002
0.251971
0.251994
0.251965
0.251922
0.251699
0.251614
0.251602
0.251591
0.251573
0.251544
0.251534
0.251567
0.251616
0.252407
0.252374
0.252375
0.252275
0.251974
0.251594
0.251817
0.25213
0.252249
0.252403
0.25239
0.252396
0.252398
0.252403
0.252484
0.252441
0.252448
0.252458
0.252444
0.252404
0.252151
0.252126
0.252095
0.252028
0.252028
0.251998
0.251944
0.251903
0.2516
0.2519
0.25174
0.252313
0.249146
0.220032
0.185966
0.168725
0.223283
0.248713
0.247173
0.247061
0.247086
0.247156
0.247235
0.247311
0.247441
0.247542
0.247702
0.247882
0.248086
0.248287
0.248427
0.248431
0.24804
0.247504
0.247094
0.247001
0.247046
0.24722
0.248125
0.252366
0.218646
0.22056
0.225824
0.230089
0.232471
0.234087
0.234806
0.23526
0.235159
0.234546
0.233672
0.232369
0.233113
0.235324
0.207897
0.217636
0.220209
0.220156
0.219784
0.218632
0.216063
0.21311
0.211325
0.210767
0.21124
0.212113
0.213311
0.214535
0.215676
0.216511
0.217108
0.21726
0.217035
0.216266
0.21538
0.214213
0.213461
0.212417
0.212248
0.212676
0.213844
0.213796
0.210261
0.203541
0.233954
0.229551
0.233549
0.237063
0.239119
0.241216
0.242771
0.243885
0.244917
0.246014
0.247196
0.248084
0.248573
0.248795
0.248683
0.248669
0.248364
0.248308
0.247785
0.247463
0.246725
0.246101
0.24515
0.243975
0.241955
0.240091
0.238076
0.236231
0.236631
0.241599
0.246642
0.246505
0.247074
0.247417
0.247407
0.247279
0.247074
0.24695
0.246888
0.246857
0.246901
0.246733
0.246926
0.246907
0.247096
0.247036
0.247214
0.247175
0.24744
0.247562
0.247679
0.247861
0.248074
0.248044
0.247821
0.247224
0.247511
0.249117
0.249736
0.249669
0.251162
0.25055
0.25005
0.249968
0.248879
0.24854
0.248481
0.248906
0.2493
0.250026
0.250881
0.250833
0.250969
0.251182
0.251235
0.251349
0.251363
0.251261
0.251037
0.250766
0.250323
0.247654
0.246407
0.248401
0.250103
0.250747
0.250585
0.250162
0.24977
0.249008
0.25154
0.251499
0.251587
0.25156
0.251518
0.2515
0.251878
0.251615
0.251637
0.251646
0.251658
0.251674
0.25166
0.251691
0.251725
0.251766
0.251769
0.251804
0.251818
0.251845
0.251833
0.251838
0.251832
0.251801
0.251771
0.25174
0.251638
0.251601
0.251683
0.251701
0.251631
0.251018
0.251208
0.252022
0.251992
0.252014
0.252026
0.251762
0.251198
0.250693
0.250466
0.250396
0.250306
0.250414
0.250372
0.250491
0.250634
0.250823
0.251091
0.251424
0.251956
0.252164
0.252056
0.251967
0.250267
0.237937
0.229277
0.228564
0.230103
0.230442
0.251901
0.251775
0.251638
0.251659
0.251668
0.251691
0.25171
0.251712
0.251737
0.251748
0.25177
0.251765
0.251793
0.251788
0.251775
0.251762
0.25174
0.251721
0.251687
0.251679
0.251626
0.251592
0.251614
0.251769
0.251557
0.251705
0.251777
0.251851
0.251815
0.25182
0.251332
0.251622
0.251532
0.251289
0.251256
0.251175
0.251233
0.251217
0.251195
0.251338
0.251326
0.251289
0.251267
0.251234
0.251259
0.251231
0.251305
0.251274
0.251354
0.251479
0.251543
0.25088
0.25094
0.251392
0.25156
0.251579
0.251606
0.251623
0.251439
0.251241
0.250783
0.251986
0.251766
0.251657
0.251696
0.251768
0.252102
0.252012
0.251974
0.252032
0.252041
0.252103
0.252095
0.252109
0.2521
0.251964
0.25204
0.251981
0.251836
0.251974
0.251916
0.251846
0.251728
0.251742
0.25167
0.251594
0.251584
0.251662
0.251605
0.251615
0.251986
0.251809
0.251795
0.251743
0.251772
0.251856
0.251873
0.251974
0.252002
0.252104
0.252155
0.252207
0.25224
0.252222
0.252214
0.252193
0.252145
0.252093
0.252062
0.251993
0.251967
0.25189
0.251656
0.251493
0.251371
0.251282
0.251235
0.251249
0.251292
0.251354
0.25203
0.252057
0.252109
0.251982
0.251696
0.251808
0.252176
0.252399
0.252377
0.252385
0.252277
0.25216
0.252069
0.252013
0.251971
0.252006
0.252008
0.252098
0.252169
0.252175
0.252155
0.252069
0.251995
0.251943
0.251908
0.251915
0.251905
0.251918
0.251766
0.251875
0.250378
0.250345
0.250678
0.252007
0.20952
0.202025
0.251038
0.24764
0.247162
0.247216
0.247352
0.247519
0.247647
0.247724
0.247799
0.247896
0.248025
0.248224
0.248598
0.249186
0.249854
0.250317
0.250218
0.249295
0.248169
0.247263
0.247086
0.247264
0.248342
0.252542
0.219048
0.224507
0.229197
0.23144
0.232278
0.232928
0.23393
0.235183
0.236159
0.235908
0.235084
0.233866
0.233387
0.235019
0.209116
0.21901
0.221433
0.221387
0.22072
0.218249
0.213224
0.21024
0.210356
0.212269
0.215048
0.218039
0.221055
0.223423
0.22527
0.225993
0.225827
0.224534
0.22304
0.22118
0.220246
0.218893
0.217523
0.215199
0.213188
0.212212
0.212825
0.213774
0.212931
0.206384
0.233836
0.230602
0.235568
0.238368
0.240064
0.24136
0.241773
0.242504
0.245035
0.247004
0.248704
0.24949
0.249498
0.249212
0.248682
0.248192
0.247944
0.247442
0.247204
0.246876
0.246557
0.246091
0.245502
0.244837
0.243649
0.241736
0.239444
0.237066
0.235754
0.240166
0.246745
0.246692
0.247274
0.24737
0.247153
0.246833
0.246756
0.24672
0.246711
0.246582
0.246392
0.246093
0.245918
0.245912
0.245986
0.245768
0.24552
0.245655
0.245991
0.246328
0.246737
0.247137
0.247596
0.248033
0.248042
0.247636
0.247306
0.248194
0.249482
0.249559
0.250778
0.249968
0.249209
0.247715
0.246561
0.245948
0.245709
0.245646
0.245869
0.246206
0.246655
0.247655
0.248748
0.250361
0.250706
0.250989
0.25118
0.251277
0.251143
0.250895
0.25053
0.248878
0.246776
0.248721
0.250849
0.251142
0.250692
0.250507
0.250855
0.250092
0.251547
0.251526
0.251577
0.251564
0.251808
0.251604
0.251656
0.251651
0.251634
0.251664
0.251651
0.251642
0.251632
0.25163
0.251635
0.251624
0.251642
0.251689
0.251716
0.251747
0.251769
0.251805
0.251817
0.251831
0.251825
0.251777
0.251732
0.251646
0.251597
0.251631
0.251532
0.251339
0.251976
0.252099
0.252018
0.251175
0.250009
0.24959
0.249602
0.249779
0.24998
0.250211
0.250371
0.250697
0.250597
0.250713
0.250722
0.250763
0.250799
0.250895
0.251098
0.251579
0.251919
0.252507
0.251824
0.248808
0.236981
0.233305
0.234271
0.231326
0.251796
0.251613
0.251642
0.251662
0.251697
0.251725
0.251694
0.251724
0.2517
0.251731
0.251743
0.251714
0.251715
0.25172
0.251731
0.251714
0.251701
0.251699
0.251691
0.251677
0.251677
0.251628
0.25161
0.251624
0.251683
0.25164
0.251801
0.251885
0.251785
0.251941
0.251293
0.251549
0.251274
0.251145
0.251143
0.25117
0.251109
0.251434
0.251261
0.251169
0.250845
0.25088
0.250805
0.250757
0.250857
0.251236
0.251111
0.251226
0.251242
0.251359
0.251704
0.251538
0.251052
0.251406
0.251548
0.251446
0.251402
0.25163
0.251586
0.251569
0.251016
0.2519
0.251618
0.251644
0.251782
0.252068
0.251952
0.251888
0.251881
0.251918
0.251861
0.251692
0.251487
0.251372
0.251405
0.251673
0.251924
0.251874
0.251777
0.251806
0.251898
0.251894
0.251883
0.251748
0.251681
0.251595
0.251659
0.251673
0.251675
0.251599
0.251944
0.25184
0.251745
0.251735
0.25184
0.251935
0.252024
0.252126
0.252171
0.252379
0.252305
0.252267
0.252252
0.252248
0.252261
0.252281
0.252407
0.252389
0.252189
0.252135
0.252037
0.251979
0.251829
0.251584
0.25129
0.25112
0.251113
0.251213
0.25127
0.251287
0.251948
0.251968
0.251824
0.251711
0.251895
0.252161
0.252393
0.252379
0.252247
0.252043
0.251862
0.251655
0.251552
0.25155
0.251532
0.251574
0.251636
0.251846
0.251954
0.25211
0.252097
0.251965
0.251882
0.251809
0.251849
0.251858
0.25188
0.251903
0.2518
0.251848
0.250319
0.250243
0.250876
0.252205
0.224936
0.252393
0.248505
0.247308
0.247321
0.247555
0.247735
0.247897
0.24801
0.248064
0.248072
0.248017
0.247949
0.247926
0.247978
0.248368
0.249196
0.250429
0.251113
0.251105
0.249941
0.248344
0.24772
0.248031
0.249561
0.246997
0.220439
0.224621
0.224964
0.224826
0.226066
0.227689
0.229127
0.230577
0.23264
0.23484
0.235216
0.234456
0.233831
0.23483
0.210231
0.220797
0.223236
0.223406
0.222059
0.216172
0.210679
0.209682
0.211893
0.21527
0.218918
0.222486
0.226412
0.230044
0.232229
0.232354
0.230445
0.227002
0.223576
0.221373
0.220287
0.220123
0.219713
0.218089
0.215324
0.2129
0.212261
0.213227
0.213646
0.208334
0.233962
0.23162
0.237081
0.238502
0.239263
0.23925
0.239012
0.240156
0.244113
0.24732
0.249263
0.24961
0.249024
0.247864
0.246548
0.245206
0.244188
0.242922
0.242689
0.242335
0.24263
0.242845
0.243461
0.243436
0.243087
0.241985
0.240151
0.237769
0.235754
0.239297
0.246891
0.246839
0.247355
0.247224
0.246761
0.246515
0.246521
0.246611
0.246643
0.246508
0.246119
0.245693
0.245386
0.244605
0.243732
0.243482
0.243222
0.243135
0.243434
0.243934
0.244739
0.24635
0.246991
0.247612
0.248029
0.247857
0.247381
0.247712
0.248751
0.24941
0.250067
0.249869
0.24901
0.247417
0.24622
0.245551
0.245248
0.245214
0.245295
0.24523
0.245362
0.245673
0.246163
0.247188
0.24894
0.250503
0.250921
0.251145
0.251173
0.251021
0.250711
0.249987
0.247325
0.248227
0.250531
0.250807
0.249787
0.250084
0.250557
0.250421
0.251558
0.251541
0.251567
0.251541
0.251636
0.251699
0.251682
0.251627
0.251662
0.251646
0.251601
0.251535
0.251514
0.251452
0.251413
0.25141
0.251419
0.251472
0.251497
0.251564
0.251621
0.251689
0.251739
0.251796
0.251808
0.251805
0.251764
0.251672
0.251597
0.251635
0.251438
0.252008
0.252116
0.252041
0.250235
0.249464
0.249758
0.250313
0.250674
0.251102
0.25139
0.251646
0.251955
0.252231
0.252456
0.251977
0.252477
0.252029
0.251758
0.251438
0.251331
0.25125
0.251501
0.251913
0.252287
0.250882
0.246903
0.241878
0.241393
0.233909
0.251521
0.251624
0.251629
0.251663
0.251708
0.251682
0.251676
0.25167
0.251648
0.25168
0.251642
0.251672
0.251572
0.251552
0.251531
0.251553
0.251652
0.251652
0.251642
0.251672
0.2517
0.251657
0.251615
0.251619
0.251645
0.251715
0.251675
0.251856
0.251729
0.251671
0.251513
0.251265
0.251251
0.251175
0.251159
0.251127
0.251332
0.250794
0.25012
0.249445
0.249299
0.249137
0.249223
0.249431
0.249627
0.249946
0.250733
0.251043
0.251188
0.251217
0.251375
0.251506
0.251333
0.251301
0.251547
0.251388
0.251353
0.251397
0.251599
0.251601
0.251932
0.25173
0.251603
0.251712
0.252031
0.251879
0.251807
0.252182
0.251328
0.250665
0.250197
0.249848
0.249842
0.249685
0.249688
0.249864
0.250044
0.250676
0.251402
0.252203
0.251785
0.251865
0.25185
0.252046
0.251719
0.251632
0.251618
0.251643
0.25167
0.251645
0.251909
0.251764
0.251716
0.251812
0.251926
0.252039
0.252089
0.252311
0.25224
0.252251
0.252181
0.25219
0.251761
0.251739
0.251917
0.252161
0.252203
0.252255
0.252366
0.252376
0.25214
0.25204
0.251913
0.251727
0.251349
0.251104
0.251099
0.251265
0.251346
0.251369
0.251829
0.251727
0.251686
0.251802
0.252101
0.252302
0.25238
0.252185
0.251951
0.251642
0.251475
0.251423
0.251403
0.251381
0.251399
0.251398
0.251439
0.251494
0.251754
0.251971
0.252105
0.251925
0.251838
0.251804
0.251862
0.251884
0.251898
0.251906
0.251828
0.251843
0.25087
0.250712
0.25202
0.251645
0.252258
0.249905
0.247609
0.247374
0.247659
0.247941
0.248207
0.248451
0.248636
0.24874
0.248734
0.248652
0.248474
0.248239
0.248021
0.247906
0.248099
0.249131
0.250775
0.251489
0.251223
0.250314
0.249484
0.249614
0.25118
0.228869
0.219058
0.21922
0.218103
0.220687
0.224766
0.226755
0.227387
0.228143
0.229248
0.23176
0.234314
0.234405
0.234039
0.23481
0.211495
0.222281
0.225259
0.225643
0.221998
0.213801
0.20967
0.209683
0.212029
0.214589
0.21783
0.222833
0.229327
0.234561
0.237917
0.237381
0.232811
0.226689
0.22193
0.2199
0.220204
0.220814
0.221171
0.219915
0.217482
0.21405
0.212273
0.212717
0.213668
0.209459
0.234101
0.23243
0.237443
0.238209
0.237863
0.237105
0.236364
0.238118
0.242537
0.246811
0.24912
0.249647
0.248683
0.246734
0.244412
0.241204
0.239395
0.238553
0.238157
0.238096
0.238201
0.238457
0.239318
0.240249
0.240971
0.241135
0.240174
0.238159
0.235948
0.238947
0.247065
0.246999
0.24736
0.24691
0.246457
0.246248
0.246343
0.246618
0.246696
0.246688
0.246092
0.245635
0.244683
0.243847
0.242617
0.242381
0.241646
0.241859
0.241743
0.242222
0.243058
0.244436
0.246355
0.247221
0.247827
0.247896
0.247504
0.247447
0.248172
0.249363
0.250185
0.249997
0.248844
0.246947
0.245769
0.245197
0.245043
0.245221
0.245313
0.245198
0.24525
0.245167
0.245253
0.245448
0.246771
0.248752
0.250442
0.251018
0.251219
0.251081
0.250829
0.250584
0.248062
0.247781
0.249364
0.249762
0.248892
0.249687
0.250666
0.250661
0.251507
0.251561
0.251574
0.251863
0.251692
0.251694
0.251643
0.251656
0.251634
0.251604
0.251539
0.251396
0.251307
0.251248
0.251175
0.251142
0.251132
0.251189
0.251255
0.251325
0.251403
0.251509
0.251612
0.251703
0.251761
0.251797
0.251777
0.251661
0.251589
0.25159
0.252145
0.252052
0.252038
0.250342
0.249615
0.250706
0.251476
0.252105
0.2521
0.252086
0.252234
0.251877
0.251908
0.251873
0.251944
0.251969
0.251972
0.251938
0.251923
0.251904
0.251749
0.251336
0.251268
0.25151
0.251934
0.251771
0.250015
0.247939
0.245925
0.236195
0.251433
0.251631
0.251602
0.25167
0.251709
0.251657
0.25164
0.251613
0.251617
0.251553
0.251509
0.25151
0.251479
0.251475
0.25145
0.251449
0.251481
0.251504
0.251606
0.251638
0.251681
0.251662
0.251644
0.251588
0.251613
0.251763
0.251695
0.251895
0.251705
0.251623
0.251405
0.251254
0.251188
0.251172
0.251106
0.251331
0.250194
0.249195
0.248104
0.247352
0.246936
0.247006
0.247113
0.247492
0.248087
0.248702
0.249333
0.250446
0.251028
0.251191
0.251202
0.251427
0.251556
0.251339
0.251367
0.25136
0.251354
0.251523
0.251509
0.251639
0.251699
0.251507
0.251629
0.251804
0.251944
0.2518
0.251886
0.251001
0.250155
0.249481
0.249099
0.248871
0.248608
0.24839
0.248594
0.248493
0.248904
0.249168
0.250081
0.250937
0.252064
0.251796
0.251816
0.251935
0.251766
0.251685
0.251655
0.251675
0.251655
0.251612
0.251824
0.251543
0.251787
0.251925
0.251988
0.252079
0.252205
0.252176
0.252064
0.251492
0.250187
0.24924
0.248618
0.247889
0.248909
0.249653
0.250868
0.252307
0.252225
0.252346
0.252369
0.252141
0.252015
0.251875
0.251472
0.251109
0.251106
0.251298
0.251427
0.25145
0.25176
0.251671
0.251738
0.252022
0.252242
0.252379
0.252222
0.251959
0.251619
0.251451
0.25139
0.251394
0.251411
0.251399
0.251402
0.251383
0.251397
0.251377
0.251455
0.251816
0.252086
0.251931
0.251824
0.251837
0.251952
0.252166
0.252165
0.251948
0.251851
0.251852
0.251365
0.251104
0.252052
0.252148
0.250783
0.248306
0.247485
0.247649
0.248016
0.248387
0.248766
0.249086
0.249379
0.249439
0.249473
0.249276
0.249049
0.248771
0.248461
0.248118
0.247892
0.248032
0.249385
0.251249
0.251577
0.251115
0.250806
0.251165
0.252434
0.209715
0.215797
0.212592
0.214731
0.222336
0.227068
0.227115
0.225845
0.225237
0.226164
0.228195
0.231745
0.233803
0.23395
0.234783
0.212305
0.223965
0.228057
0.228116
0.222413
0.213057
0.208975
0.208663
0.209761
0.211038
0.214258
0.221029
0.230418
0.238302
0.241544
0.240142
0.233676
0.225326
0.220396
0.219912
0.221118
0.222608
0.222518
0.221326
0.218698
0.215092
0.212498
0.212479
0.213577
0.209765
0.234222
0.233062
0.237872
0.237805
0.23677
0.235427
0.234945
0.236764
0.240944
0.24607
0.249285
0.250261
0.248969
0.246609
0.24361
0.240014
0.238251
0.237453
0.237323
0.237326
0.237389
0.237576
0.237678
0.238183
0.239201
0.239785
0.23964
0.238184
0.236455
0.238935
0.246983
0.246978
0.247262
0.246652
0.246169
0.246157
0.246328
0.246591
0.246785
0.24691
0.246393
0.245662
0.2447
0.243492
0.242016
0.241274
0.240357
0.240568
0.240607
0.241257
0.241957
0.243276
0.245234
0.246871
0.247668
0.247902
0.247595
0.247366
0.247956
0.249298
0.250244
0.250098
0.248168
0.246387
0.245443
0.245065
0.245075
0.245363
0.245161
0.245311
0.245381
0.245187
0.245103
0.244929
0.245597
0.247288
0.249847
0.250743
0.251073
0.251066
0.250882
0.250467
0.248864
0.247487
0.248178
0.24832
0.247859
0.24957
0.250841
0.250942
0.251509
0.251571
0.251603
0.25168
0.251727
0.25168
0.251659
0.251666
0.251653
0.25151
0.251383
0.251265
0.251163
0.251118
0.251056
0.250967
0.250963
0.250986
0.251046
0.251064
0.251225
0.251367
0.251479
0.251611
0.251708
0.251768
0.251764
0.251688
0.2516
0.251567
0.251931
0.252075
0.251738
0.249995
0.251295
0.252038
0.252031
0.251975
0.251915
0.251876
0.251864
0.251818
0.251854
0.251855
0.251959
0.251899
0.251943
0.251939
0.251968
0.251868
0.251888
0.251879
0.251352
0.251277
0.251727
0.251982
0.250969
0.249595
0.248641
0.238841
0.251528
0.251571
0.2516
0.251681
0.25169
0.251675
0.251654
0.251586
0.251608
0.251513
0.251497
0.251461
0.251431
0.251406
0.251392
0.251401
0.251388
0.251442
0.251492
0.251631
0.251648
0.25168
0.251613
0.251591
0.251632
0.251643
0.25175
0.251708
0.25162
0.251526
0.251266
0.251258
0.251186
0.251145
0.250999
0.25047
0.248843
0.247465
0.245828
0.243802
0.242792
0.242423
0.243187
0.244473
0.24652
0.24742
0.248288
0.249289
0.250727
0.251054
0.251199
0.25128
0.251577
0.25146
0.251323
0.25134
0.251366
0.251431
0.251381
0.251555
0.251882
0.251435
0.251673
0.251898
0.25175
0.251684
0.251133
0.250078
0.249259
0.248636
0.247405
0.246433
0.24625
0.246183
0.246395
0.246588
0.247291
0.248466
0.248946
0.250086
0.251069
0.2517
0.251787
0.251826
0.251796
0.251738
0.251692
0.251664
0.251599
0.251547
0.251756
0.251528
0.251823
0.251932
0.252001
0.252271
0.252153
0.252059
0.250857
0.249029
0.244493
0.240849
0.238054
0.237842
0.239433
0.243329
0.248083
0.250297
0.252062
0.252274
0.252323
0.252321
0.252088
0.251962
0.25157
0.251177
0.251103
0.251369
0.251482
0.251519
0.251726
0.251672
0.25192
0.252137
0.252399
0.252455
0.252046
0.25178
0.25147
0.251392
0.251376
0.251539
0.251438
0.251468
0.251504
0.251528
0.251434
0.251427
0.251375
0.251499
0.2521
0.251979
0.251819
0.251898
0.252053
0.251728
0.251878
0.252256
0.251862
0.251799
0.251817
0.250904
0.251286
0.250787
0.248978
0.24767
0.24756
0.247931
0.248376
0.24884
0.249338
0.24969
0.249955
0.250109
0.250086
0.249874
0.249555
0.249165
0.248829
0.248521
0.248133
0.247784
0.248056
0.250256
0.251674
0.251468
0.25141
0.251996
0.249966
0.192195
0.211534
0.208011
0.216325
0.226613
0.229108
0.22747
0.225259
0.223495
0.223508
0.225138
0.229277
0.233059
0.2338
0.234782
0.212913
0.225396
0.229923
0.230001
0.223597
0.214041
0.208621
0.207113
0.206589
0.206803
0.209816
0.217233
0.229549
0.239899
0.243923
0.241773
0.233201
0.22342
0.219501
0.220195
0.221977
0.222861
0.222724
0.221928
0.219132
0.215709
0.212609
0.212449
0.213573
0.20961
0.23459
0.233638
0.23831
0.23789
0.236529
0.235421
0.235825
0.238067
0.240534
0.245571
0.249764
0.250629
0.249525
0.246954
0.244117
0.23997
0.238017
0.237369
0.237417
0.237813
0.238021
0.238068
0.237907
0.237861
0.238273
0.238906
0.239055
0.238043
0.23644
0.239067
0.247211
0.247099
0.247082
0.246525
0.246129
0.24636
0.24652
0.246662
0.246864
0.24722
0.246663
0.245955
0.244876
0.243426
0.241692
0.240539
0.239539
0.23976
0.239883
0.240612
0.241388
0.242701
0.244682
0.246678
0.24754
0.247917
0.24761
0.247358
0.247882
0.249445
0.250514
0.250224
0.247837
0.246188
0.245366
0.245068
0.245104
0.245238
0.244936
0.245217
0.245235
0.245013
0.244951
0.244926
0.245091
0.246605
0.24895
0.250542
0.2509
0.251077
0.250853
0.250463
0.249409
0.247553
0.247255
0.246932
0.247407
0.250525
0.251155
0.251231
0.251539
0.251599
0.251675
0.251718
0.251701
0.251691
0.251703
0.251654
0.251598
0.251508
0.251372
0.25126
0.251104
0.251078
0.250986
0.250932
0.250945
0.250918
0.250958
0.250944
0.251088
0.25117
0.251364
0.251485
0.251637
0.251702
0.251728
0.251668
0.251527
0.251545
0.251936
0.251984
0.251016
0.251394
0.252073
0.252115
0.25205
0.251959
0.251887
0.251861
0.251801
0.251847
0.251832
0.251893
0.251962
0.251765
0.2518
0.251827
0.251905
0.251908
0.251847
0.252249
0.251366
0.251196
0.251479
0.251933
0.251321
0.250236
0.249086
0.243596
0.251544
0.25154
0.251612
0.25166
0.251661
0.251649
0.251636
0.251589
0.251535
0.251523
0.251475
0.251425
0.25137
0.251337
0.251334
0.251327
0.251342
0.25138
0.251433
0.251589
0.251663
0.251611
0.251616
0.251633
0.251619
0.251608
0.251655
0.251665
0.251604
0.251518
0.251266
0.251253
0.251181
0.2511
0.250908
0.249629
0.247686
0.245818
0.242532
0.240675
0.239795
0.239764
0.23993
0.241162
0.24325
0.245941
0.247412
0.248595
0.249953
0.251469
0.251104
0.251236
0.251719
0.251616
0.251444
0.251402
0.251442
0.251222
0.251234
0.251524
0.251775
0.251504
0.251719
0.251808
0.251666
0.25192
0.250609
0.249599
0.248516
0.247323
0.246059
0.245669
0.245797
0.245748
0.245721
0.245935
0.245942
0.247245
0.248491
0.249243
0.25057
0.251859
0.251737
0.251863
0.252037
0.251755
0.251734
0.251631
0.251523
0.251398
0.25164
0.251715
0.251868
0.251958
0.252006
0.252226
0.252069
0.251384
0.249086
0.242783
0.236831
0.232381
0.229494
0.228815
0.230621
0.235048
0.241794
0.24865
0.25062
0.25216
0.252277
0.252309
0.252125
0.251966
0.251674
0.251249
0.251182
0.251429
0.251532
0.251553
0.251713
0.251687
0.252004
0.252217
0.25239
0.252222
0.251914
0.251559
0.251404
0.251365
0.251459
0.251411
0.251374
0.251346
0.251418
0.251466
0.251504
0.25148
0.251401
0.25136
0.252039
0.252045
0.251814
0.25193
0.251847
0.249842
0.25213
0.252136
0.251864
0.251804
0.252051
0.250571
0.25003
0.249237
0.24802
0.247568
0.247732
0.248189
0.248714
0.249206
0.24976
0.250218
0.250496
0.250707
0.250671
0.250384
0.249995
0.249514
0.249022
0.24872
0.248452
0.248025
0.247641
0.248752
0.251624
0.252026
0.251863
0.252227
0.225316
0.178464
0.207944
0.205925
0.220752
0.230012
0.22982
0.228813
0.227548
0.22509
0.22355
0.22415
0.228319
0.232585
0.233715
0.234775
0.213521
0.226898
0.232169
0.233229
0.227605
0.217946
0.209887
0.206314
0.204768
0.204186
0.205614
0.212561
0.226291
0.240105
0.244783
0.24276
0.232238
0.221687
0.218954
0.220152
0.221314
0.222353
0.222203
0.221076
0.218505
0.215036
0.212406
0.212645
0.213778
0.208849
0.234729
0.233925
0.239159
0.239082
0.237977
0.23857
0.240628
0.241729
0.241577
0.245411
0.25032
0.250802
0.250019
0.247292
0.244436
0.239963
0.237773
0.237412
0.237916
0.238642
0.239318
0.239248
0.238901
0.238412
0.238444
0.238608
0.238679
0.237707
0.236464
0.23958
0.247251
0.247122
0.247001
0.246483
0.246674
0.247435
0.247494
0.246997
0.246997
0.247324
0.247119
0.246293
0.245397
0.243729
0.241937
0.240458
0.239526
0.239627
0.2398
0.240519
0.241366
0.24281
0.244777
0.24668
0.247588
0.247901
0.247589
0.247355
0.248205
0.250461
0.250558
0.250053
0.247781
0.24625
0.245454
0.245129
0.245116
0.244931
0.244746
0.245036
0.245028
0.244939
0.244836
0.245021
0.245119
0.246549
0.248798
0.250385
0.25074
0.250944
0.250721
0.250847
0.249568
0.247958
0.2468
0.246402
0.248352
0.250845
0.251251
0.251557
0.251525
0.251605
0.251679
0.25173
0.251712
0.251688
0.251708
0.251655
0.251581
0.251493
0.251394
0.251239
0.251151
0.251123
0.250976
0.250935
0.250922
0.250828
0.250879
0.250922
0.250997
0.251123
0.251262
0.251417
0.251563
0.251662
0.251709
0.251598
0.251517
0.251517
0.251985
0.251983
0.251396
0.252079
0.252155
0.251997
0.251983
0.252056
0.251866
0.251851
0.251838
0.251797
0.251867
0.25183
0.251745
0.251701
0.25171
0.251722
0.252017
0.251854
0.251883
0.251856
0.251622
0.251149
0.251341
0.251868
0.251415
0.250625
0.249564
0.250124
0.251489
0.251496
0.251635
0.251633
0.251639
0.251641
0.251634
0.251602
0.251598
0.251527
0.251444
0.251371
0.251275
0.251237
0.251232
0.251241
0.251279
0.251329
0.251398
0.251502
0.25159
0.251612
0.251594
0.251626
0.25158
0.251607
0.251608
0.251632
0.251558
0.251491
0.251324
0.251213
0.25117
0.251079
0.25139
0.249281
0.247121
0.243969
0.240939
0.238659
0.237689
0.237558
0.238069
0.238749
0.241407
0.243939
0.24693
0.247997
0.249342
0.250965
0.251083
0.251233
0.251572
0.251619
0.251634
0.251541
0.251252
0.251185
0.251231
0.251462
0.251648
0.251556
0.251866
0.251808
0.251637
0.251693
0.250361
0.249274
0.24809
0.246596
0.245754
0.245782
0.246004
0.24589
0.24568
0.245626
0.245781
0.246349
0.248329
0.248947
0.250176
0.251663
0.251792
0.251829
0.251889
0.251799
0.251716
0.251585
0.251329
0.251339
0.251642
0.25175
0.251841
0.251926
0.251992
0.25221
0.251979
0.250351
0.247297
0.237702
0.232752
0.227062
0.225048
0.224771
0.225828
0.229977
0.236353
0.244824
0.249637
0.25197
0.252192
0.252231
0.252167
0.251979
0.251681
0.251281
0.251235
0.251491
0.251559
0.251608
0.25171
0.251681
0.252041
0.252245
0.252386
0.252161
0.251854
0.25151
0.251395
0.25149
0.251388
0.251363
0.251254
0.251265
0.251325
0.251343
0.251551
0.251559
0.251451
0.251297
0.251896
0.252133
0.251797
0.251937
0.252525
0.249706
0.251725
0.25199
0.2518
0.251791
0.252107
0.25064
0.249145
0.248335
0.247677
0.247579
0.247886
0.248377
0.248923
0.24949
0.250096
0.250459
0.250771
0.250763
0.250767
0.250725
0.250289
0.249733
0.249166
0.248787
0.248583
0.248279
0.247718
0.247672
0.251014
0.252141
0.252165
0.246048
0.199743
0.179035
0.205017
0.205975
0.225063
0.231184
0.23113
0.230897
0.230272
0.228635
0.226726
0.226255
0.228762
0.232459
0.233633
0.234747
0.232487
0.222614
0.21479
0.227706
0.233699
0.235385
0.230775
0.222799
0.214199
0.208356
0.205026
0.203485
0.203601
0.207812
0.221327
0.238941
0.245109
0.243527
0.231656
0.220543
0.218439
0.219481
0.220072
0.220422
0.220478
0.219332
0.217156
0.213935
0.212358
0.213044
0.213528
0.209018
0.217465
0.229656
0.234997
0.234342
0.240402
0.241685
0.242429
0.244915
0.246433
0.246332
0.244453
0.245463
0.25066
0.25088
0.25033
0.247445
0.244451
0.239813
0.237849
0.237487
0.238319
0.239543
0.240151
0.240372
0.239721
0.239166
0.238819
0.238666
0.238387
0.23744
0.236406
0.239695
0.244641
0.246569
0.247498
0.247239
0.246927
0.246585
0.247327
0.249133
0.249479
0.248337
0.247262
0.24741
0.247499
0.246775
0.245722
0.244605
0.242778
0.24132
0.240249
0.240129
0.240375
0.24108
0.24206
0.243559
0.245586
0.246982
0.247681
0.24782
0.247495
0.247616
0.250015
0.251046
0.251214
0.250988
0.250613
0.249976
0.247982
0.246574
0.245706
0.245271
0.245077
0.2449
0.2446
0.244661
0.244799
0.244648
0.244784
0.245067
0.245344
0.246912
0.248962
0.25066
0.250618
0.250735
0.250512
0.250586
0.249391
0.247973
0.246602
0.247021
0.250553
0.251284
0.251327
0.251303
0.251435
0.251494
0.251563
0.25165
0.251734
0.251689
0.251661
0.251661
0.251696
0.251664
0.251634
0.251505
0.251426
0.251323
0.251251
0.251114
0.251061
0.250997
0.250927
0.250839
0.25089
0.250864
0.250964
0.251112
0.251236
0.251389
0.25156
0.251656
0.251931
0.251532
0.251468
0.251544
0.25192
0.251944
0.251975
0.25254
0.252076
0.252165
0.251998
0.251836
0.251858
0.252073
0.251876
0.25183
0.251837
0.251849
0.25184
0.25185
0.251751
0.251696
0.251712
0.25174
0.251989
0.251915
0.251852
0.251853
0.251567
0.251104
0.251526
0.251768
0.251143
0.251032
0.251849
0.251484
0.251464
0.251471
0.251498
0.251577
0.251604
0.251648
0.251648
0.251646
0.25164
0.251609
0.251594
0.251525
0.251431
0.251335
0.251239
0.251192
0.251185
0.251228
0.251276
0.251317
0.251405
0.251534
0.251599
0.251588
0.25159
0.251582
0.251586
0.251562
0.251568
0.251435
0.251413
0.25169
0.251567
0.251651
0.251474
0.251311
0.251215
0.251155
0.251434
0.249259
0.246978
0.243675
0.240514
0.238132
0.237213
0.237039
0.237554
0.238586
0.241032
0.243252
0.246744
0.247698
0.249065
0.250826
0.251065
0.251268
0.251449
0.251668
0.251614
0.251206
0.25108
0.251321
0.251437
0.251501
0.251537
0.251595
0.251584
0.251608
0.251899
0.25172
0.251685
0.251762
0.250432
0.24931
0.24839
0.246547
0.245726
0.24587