/*--------------------------------*- C++ -*----------------------------------*\
| =========                 |                                                 |
| \\      /  F ield         | OpenFOAM: The Open Source CFD Toolbox           |
|  \\    /   O peration     | Version:  2.1.1                                 |
|   \\  /    A nd           | Web:      www.OpenFOAM.org                      |
|    \\/     M anipulation  |                                                 |
\*---------------------------------------------------------------------------*/
FoamFile
{
    version     2.0;
    format      ascii;
    class       volScalarField;
    location    "0.006100000";
    object      p;
}
// * * * * * * * * * * * * * * * * * * * * * * * * * * * * * * * * * * * * * //

dimensions      [1 -1 -2 0 0 0 0];

internalField   nonuniform List<scalar> 
12384
(
876597
875757
876077
875445
873576
871191
872303
869320
868960
868639
868897
868470
868594
868643
854530
853332
853765
852113
853084
852767
852329
856398
854219
859998
857427
864885
862181
870427
867617
876334
873854
882433
878558
891078
884960
902206
897966
913184
914519
918433
923278
923613
925290
927136
836727
835466
836012
834141
834951
832450
837299
834481
842527
839844
849304
847507
855276
853114
860936
857160
867580
862620
875746
871282
883661
882049
892251
893521
898470
898972
898591
896008
894234
894074
945224
942813
941854
936119
937247
931111
932208
926329
926406
915342
912826
897760
888708
877011
842854
856276
820995
835959
813045
826801
829087
835132
838452
838885
837125
834971
832085
831172
830615
829635
877602
879472
880967
877436
868314
854744
838149
820981
808472
799888
792484
790087
806015
800428
819562
823932
834169
841565
847776
854649
860139
866674
870244
875016
874644
877623
880096
883075
884836
885097
849696
849087
848938
847646
848469
848462
848707
849287
850167
850004
848645
844762
839439
832421
824376
816826
809188
802242
798513
797019
791274
793824
792546
791580
792307
790005
787563
785897
786897
785215
822757
822075
823297
825365
825245
825669
826841
825397
823574
820335
815384
814913
802030
805448
791888
795804
790141
794589
798908
803567
808754
811311
813979
814433
814635
813891
813577
813050
813233
812671
799453
799404
801056
803373
805047
805501
804514
804253
796512
796514
793241
787379
787462
788721
788187
795455
796329
803788
808412
812376
814123
815498
815558
815667
815472
814013
814226
816696
816350
814225
869922
869621
870846
870315
868634
862069
859173
842405
849278
830888
834706
831204
835460
839430
844609
852350
856972
859825
861079
861258
861450
861512
861511
860404
859086
857334
857871
856173
856563
856056
836430
836358
833545
833629
833489
832016
829773
825480
816259
818017
795652
804427
788897
797296
789119
813898
809544
836681
838766
860810
859633
867479
872058
872026
872847
871568
871340
869986
869553
867884
856497
855994
854959
852903
851814
851062
844129
831577
834251
820791
801905
810255
798126
795856
805521
807956
815575
819876
822928
823479
822966
820665
816627
812229
810786
807615
807316
807478
807379
806969
866970
865990
865140
862726
862569
860092
861008
858920
859567
859694
857371
861796
867037
863275
876806
886612
883195
900078
899641
906201
912652
920496
918869
926823
930060
932528
938210
943998
946595
949664
922491
923257
924704
923210
926644
927316
929987
930158
929390
927546
923601
919044
912844
910933
903452
905525
903445
904498
905226
904195
902763
901450
898095
894552
895467
894340
890260
891456
890834
889968
877312
877377
875604
875597
874580
871813
871348
870796
870137
869615
869646
870109
869839
870567
853270
853001
852241
852186
851834
852205
852308
854600
854730
859052
858600
864199
863162
869958
868601
874757
875094
879651
880587
885733
886309
896037
898588
908309
910795
917956
922161
923866
925236
926510
836279
836156
834755
835631
834035
834078
836411
835146
840842
840275
846798
847637
852280
852626
857860
856842
864845
862982
872128
872870
880129
881461
886689
892023
892692
896293
896825
896843
894616
894490
944123
941542
939673
935528
933874
931041
929651
926607
922313
917364
905237
899956
878962
878888
842837
849180
823095
825101
816510
818979
825991
828917
834352
837679
837992
835654
832743
830429
828212
828237
872593
875333
874813
870410
860672
847690
831808
815388
805936
790437
793565
792184
800280
800378
814544
820393
831708
838339
846870
855130
861456
867403
872098
874152
875706
876486
878548
882073
883837
885181
849386
848102
847220
847011
845823
847006
846754
847227
847950
847705
845594
842277
836800
830068
822607
814266
807746
801235
797926
792332
793448
791340
790857
792306
791725
790476
792158
791498
787136
788597
820622
822169
823278
823387
825223
827327
826320
826367
823098
820133
816165
811010
800895
804820
790168
791735
790966
792069
795392
800359
805399
809597
812883
814935
816019
815529
815113
814650
814737
812954
799476
800159
801772
803504
805129
804650
804596
799178
796143
793300
788404
783053
784802
783598
786579
788890
794322
798467
804394
810549
814845
816587
817002
816097
816466
813557
816747
814439
816081
817952
868981
869619
869259
868436
865331
860213
851900
844025
842903
824057
828213
828572
830523
834224
840438
846204
852905
858128
861309
862072
861652
860782
859945
858628
857268
857546
856280
856468
855214
855120
837945
835729
834998
835426
832704
832759
827732
824574
814699
810139
796826
791721
793446
788573
790221
807978
805590
825491
842660
845476
860459
867646
870511
872960
872503
871569
869968
870225
868395
867923
857176
855037
854420
853636
852438
847274
846768
827360
833382
811112
810295
794854
800893
792754
795880
803311
809423
815539
820728
824328
824193
821496
817562
813228
810825
807801
806419
806629
809284
807948
865926
865329
864120
862773
860878
861272
860078
857770
856948
857314
855783
863144
858767
869236
873920
876740
889540
894555
898022
907319
912606
913231
921777
922001
927631
929365
937034
941800
945796
949892
922278
922712
923833
923017
925740
927872
929905
930439
929127
926364
920437
915445
908717
903766
904176
899686
901756
901668
902234
903112
902142
900527
897274
895458
894765
892147
891210
891616
890543
890431
877687
877120
876938
875012
874404
874003
871107
871748
868924
870466
869463
868600
869040
868975
857203
855888
856556
855209
856125
855242
855713
857429
855727
861191
859188
865741
864034
870984
868989
875653
873890
880300
877483
885800
882703
893673
893144
905340
907208
915113
918083
922707
923626
924984
839626
837483
838256
835104
835944
834318
837181
834600
841320
838767
847069
845447
852360
849254
857683
853995
863830
861162
870973
869591
878566
877899
884073
885167
890522
891528
894322
894218
894277
894942
941144
939107
937708
935081
932257
930471
928333
923748
922474
913293
905318
894802
877338
871671
841574
845973
816850
820501
813023
816739
816221
823728
828208
832402
833985
833980
832631
830831
830895
829991
868517
870758
868538
862708
852890
839282
825072
810305
799799
784757
789381
785777
795157
799563
807004
816223
827990
834809
844390
852007
860848
865301
871452
872688
875567
874894
878551
881412
884123
884787
847878
846765
846758
845495
845648
844626
846402
845304
844933
844389
842595
838685
833753
826816
819824
810801
805686
798033
796241
790368
791238
789794
791386
791383
790886
793207
791312
790291
794064
795619
826156
826976
826631
827609
826508
826736
827954
825633
823801
820649
813815
808508
801818
799733
786427
792994
785456
788906
792485
797215
801015
806694
809979
812918
814403
814977
814615
813767
814010
813491
802124
803535
805370
805942
805609
804601
803294
795050
796844
786031
781917
783917
780794
781390
778220
783850
788638
793891
800383
805816
811661
815039
816358
818508
815701
818985
816969
819529
816685
818979
868276
869236
868280
866280
862827
854589
849892
841101
832777
822128
826519
821295
820649
827536
833842
840244
846391
852491
856421
858626
859244
858997
858206
856888
857000
855694
856509
855479
855272
854705
835790
836383
835487
834372
835658
830918
827665
820741
813991
803091
788351
793799
779399
787575
781324
796099
813059
809085
835028
842721
848572
863444
867224
870321
871939
870748
870621
869701
868230
867184
855441
856439
856697
853534
854071
846687
845318
827582
829660
802232
811458
789389
785188
786323
791746
793773
800958
808476
813799
818040
820463
820255
817683
813736
810438
811480
807286
808877
807803
807793
866007
864827
863763
861671
861046
859526
856647
856821
857583
856484
856015
855877
859478
867611
865308
882816
881321
895590
895847
903570
909381
912556
916013
921212
924064
927739
933621
938160
942370
946452
922746
922285
923565
923602
924802
926875
927762
927355
925726
920856
915358
909054
903806
900347
895979
898092
898786
900877
900528
900957
901344
899198
898185
896414
893243
892997
892397
890999
890159
891244
877565
878029
878032
877419
874121
874142
872039
872815
870772
869697
870491
871971
871807
872728
854301
854375
853565
854182
853564
853926
855642
855357
856222
861047
861124
865878
864888
871060
870367
874262
876325
876280
880179
879435
884171
887364
891390
898032
903737
910195
915450
918299
920889
921962
838519
838502
836490
838166
835410
836571
836162
836114
839157
840652
843036
846162
847562
850353
851793
856325
857274
863314
865223
869187
872424
878513
877118
883179
883257
886869
889349
892207
892597
894092
937694
936595
935181
931865
930870
929203
924185
924449
916520
913602
899457
892806
872012
865769
842205
832263
818205
806405
810445
804155
813103
814774
822016
827640
832511
833735
832221
831621
830816
831030
862642
864138
859649
853209
842356
829237
817767
802630
790036
785208
781369
780227
784456
798549
801798
810630
824585
830549
842075
848608
859863
862869
870694
871117
875724
873528
880222
879997
883419
884257
846713
845815
844134
843486
841007
841860
840028
842608
842034
839985
837581
834197
828628
822158
814926
806419
801866
794873
791368
790857
788160
790069
790047
790206
793694
794134
793035
793177
793553
790407
824620
824582
825744
828018
830163
829032
827697
827064
822408
820309
811358
807544
798402
794328
788047
786475
784208
784879
787177
795649
796041
803936
806639
811822
813443
816337
817154
818113
818274
818328
806660
807588
808020
808060
806771
804045
800484
794150
791596
779933
782297
773657
771737
770616
778267
776594
780955
786710
798113
800826
808447
814033
818181
816765
821108
817331
819648
819077
824780
820906
869736
869287
867861
863868
858726
849788
847652
832181
820738
824027
813105
814282
819643
817138
824647
831555
839280
845219
851325
854864
856368
856465
855745
855405
854297
855359
854454
854659
854031
853587
841397
840587
839615
839082
834392
833472
822689
823046
798921
803392
782681
783315
772982
770178
784885
778066
801205
808581
812917
841416
842289
851248
865505
866377
868445
870387
869715
869872
870100
869578
858208
857009
857993
856350
852856
846665
842859
822920
824239
796500
800554
781210
784940
782588
776876
785005
789454
797692
805480
812629
816771
819357
819982
818752
815611
811390
812613
810171
812507
808788
863527
862974
861451
860907
859359
856453
856413
856183
852702
850343
851500
850096
854001
860682
864477
873979
880091
888599
896175
899865
904582
911112
913708
916043
921169
924393
928827
933921
937876
942096
921400
922229
922678
923360
924674
924512
925402
924034
920100
914213
909065
902656
896019
888852
886813
885659
888251
893787
899287
899332
898483
899672
898156
895509
894937
893582
891901
891649
891478
890516
880279
878988
877340
877171
876803
874813
872622
871935
872494
873359
872758
871073
871041
870769
861668
860192
860927
859485
860112
859925
859035
860149
861819
862698
862804
866286
867485
871273
872414
874920
874800
877582
875805
880873
878592
886511
886214
894573
897759
906009
910131
915088
916675
918458
841627
841265
841634
837485
838325
836161
837679
835633
840253
838424
844070
842628
847713
845839
853037
850384
859750
858004
864297
865769
867555
871163
876617
874823
881732
882348
884831
887995
890341
892674
931125
931901
931147
931202
928718
924803
924429
919495
915650
907065
899861
882642
876572
849292
848664
817937
822504
798122
804402
803550
802084
809595
817585
822174
828429
831049
832450
832171
831404
830102
857978
857538
850336
842816
831781
820789
809988
790769
784595
783009
777145
779984
776101
796934
797927
804636
822112
826355
841397
845509
858715
861383
869532
870449
874795
875013
878704
881029
882957
884237
843866
842721
842198
841245
841388
840051
838976
835748
836309
835016
831884
828017
822982
816396
808663
801756
797124
790709
789472
787032
788694
788526
788407
793293
794720
795643
798980
803464
802733
803032
830142
831730
831749
829541
829611
830366
829228
826513
823156
817653
809383
807580
790296
795727
781877
777920
776453
781473
780059
790900
792645
801060
804822
810834
814491
817047
818505
819227
819546
818324
811815
812552
812218
811212
808888
803809
798622
792577
786237
774749
777602
768188
767486
767104
763551
773670
774503
783591
791879
796910
807104
815083
815612
822536
821816
826140
823817
828263
823415
825033
870675
869913
867149
862460
855075
846968
841816
822144
820855
815093
808846
807099
806320
815109
817319
823253
832014
838889
844852
849770
852434
853473
853371
852879
852360
852028
854047
854457
853346
853555
840636
839685
842402
839507
838291
829948
827211
814289
795148
797372
775386
770989
771157
773869
766959
783537
778731
805530
807392
818653
843907
843329
854890
865948
865484
867924
869726
869505
869864
869659
859482
858380
858178
858580
854873
847130
838567
819972
816287
791066
792199
768066
779174
766967
775925
775765
780817
787984
794909
806411
811832
818553
818775
816407
816354
815149
812085
813954
811873
812854
861927
860799
860970
859020
856240
855469
855360
850563
847501
847083
842379
846499
844101
851277
856471
871967
870159
888725
887744
900654
899457
907617
910617
914511
914965
921565
922616
929661
933502
937465
922117
922326
922649
923107
922597
923547
922257
918947
914891
907529
901406
891662
884939
881802
881674
882453
880974
884058
890350
897437
898738
898520
897888
896942
895072
893208
893676
891596
891696
891888
879870
880186
879809
877481
876402
876666
875655
874870
872951
872238
871803
873725
874347
875388
857892
858379
857299
858303
857099
857445
857604
858778
859809
860451
864976
866445
869178
870954
874182
874895
875399
874921
877067
875653
880352
879163
884640
888678
894120
899939
905918
908638
911021
911383
847320
841920
839768
841390
837714
838485
837076
836708
839358
839806
841393
842923
845345
844396
851417
850695
854286
860065
858554
863250
864206
863882
868080
874120
872031
880447
882281
883946
886598
889458
931250
927604
927793
925410
921787
923349
920625
917361
912355
905067
894517
883794
869067
843128
849800
807751
822080
789856
799834
790891
798719
804221
812980
817320
825746
831023
832514
832436
831019
830404
855071
851313
842887
833670
823983
814064
800478
780992
786834
775885
772054
776797
774073
788179
798566
803372
818692
824973
841594
845045
857156
861701
869255
870651
875481
876633
878073
880651
882034
882611
843655
841381
840449
837729
834597
834951
835015
834085
830589
830148
827813
822652
816910
810594
801168
798650
790724
785865
783229
783358
784904
785491
792306
793513
795587
799104
802483
802675
801519
805379
831597
831733
831629
832759
832510
831926
830440
826844
821086
817439
807209
804799
788250
791779
774779
780965
777368
780664
779926
788164
789605
801333
801349
812194
814772
819262
821416
822697
822666
823311
818056
818203
817247
814685
810622
804317
798912
789652
782429
774492
770622
763806
763361
760295
765614
765219
777186
775429
785566
798031
808367
809368
821727
822769
827147
825460
831787
827649
831389
832058
871965
870814
867708
861320
853495
843325
836350
817866
817978
800970
796749
795138
800205
799798
812103
813519
824826
830777
838858
845638
849191
850723
851654
850858
851262
851785
850740
850782
850628
851115
847488
846985
844408
844464
838311
834553
819606
813821
790084
796008
761385
774717
755742
755011
761726
766648
780267
780742
811228
805885
828629
845837
847133
858486
865540
865002
867937
869891
869963
871557
860243
862074
861687
858862
855919
848622
834188
812987
818316
777080
789676
764885
765009
763106
756479
766036
768928
785063
784172
802449
809985
817572
819579
824777
823000
820516
818134
815498
816646
811985
858583
858076
857267
855533
855062
855144
848977
845470
844540
839359
841803
833361
843596
838935
847332
862366
870803
873159
891332
893153
900941
903375
908691
910547
913186
916402
919399
925013
931009
933549
922313
922180
922184
922796
922688
921689
919649
913802
908850
900750
890964
886204
881789
877396
874390
875900
882551
883833
883420
889377
897133
897821
898185
897119
895594
893915
894308
891866
892198
890976
881036
880051
879440
878979
877426
875550
874973
874921
875349
875237
875851
874575
873956
873773
867888
865520
866356
864294
864895
864642
864661
865607
865197
867516
867677
870822
872230
873172
873775
874929
874577
874433
873977
876514
874965
880418
878491
887315
888545
895473
899116
903933
904799
906847
843793
847417
844184
839996
841175
837185
838713
836908
839913
838425
842666
840589
845999
843433
849361
851124
853285
854636
859557
855212
860173
860902
860975
867066
870970
873874
879644
882129
887841
888106
921612
921583
919965
919568
923415
920196
917031
915364
910704
900703
897843
878659
869695
842016
846083
804308
817779
786281
797971
790872
797330
801590
807410
815175
825690
829502
831518
831556
830356
829376
842437
841759
836173
828095
817679
807834
792862
780105
785398
769214
767954
776411
777949
778134
803203
800631
817515
824849
843984
847162
857222
865170
869632
874878
874544
877301
877176
879489
879987
881897
838748
838377
835824
835665
835820
830432
828002
829007
827418
822641
820433
816639
812033
803528
796802
795111
782415
781853
778855
780075
781285
789546
791280
793832
799214
804951
807642
805454
810076
810817
835187
835131
835240
835131
834372
832966
831135
827691
820967
815811
807660
801076
786107
787216
774069
777078
771494
776545
778198
785088
789772
800483
804897
812011
817769
821938
824182
825270
825374
825067
823436
823399
821722
818566
812605
804897
799071
786921
781845
768183
770262
758035
758506
759305
756272
768816
766667
773035
789143
801194
799389
818353
821247
828007
828649
835383
832946
836988
834812
836118
873590
871614
868372
861399
851868
842375
833706
816083
810287
801143
799944
796337
795062
799197
805530
810213
817227
827385
833782
841288
845089
848510
848442
849297
850528
850332
850947
851275
851131
851671
850328
849796
850101
845434
843136
833161
823081
806566
797838
783819
761647
771201
747825
759034
758492
752690
779161
773476
795016
808491
819058
832900
851034
852788
861262
866519
866914
868071
870206
871842
863834
864391
865033
862144
855949
847987
832519
813278
813846
773923
785321
754607
758546
751833
757966
760291
760432
780722
778963
803310
807060
815166
824565
823462
822750
823394
821163
819678
816832
817644
857041
857932
855690
854375
854815
849019
847042
846793
840834
837919
831834
834770
829287
836924
838749
857139
864554
869434
886052
895534
896413
903925
906371
911319
909653
915568
916993
922136
926509
931060
922935
922398
921568
922049
920184
918907
916065
911074
899499
899084
878166
881627
862377
863085
857418
862214
866351
878518
884806
887887
893520
897505
898031
897439
896055
894543
893602
892573
892934
891202
881244
881048
880330
879570
878890
877991
876821
876038
874982
875056
874444
876243
876302
877314
863925
865827
863194
863811
862463
862354
862289
862474
864281
865448
868222
869144
872271
875355
876343
875604
874776
873654
874151
873409
875874
875154
878570
880441
888337
890542
895767
897074
898769
896731
857415
842134
845326
843208
839530
839770
837872
838376
839228
839117
841620
841124
844819
844211
849552
849125
853905
852992
853481
856747
851579
857659
855532
865749
864496
873566
877571
885987
887795
889924
921702
918047
917213
916903
913223
913773
915360
913767
906535
904833
894304
880000
871671
843234
844416
803225
817886
785750
797925
788997
797875
795658
805273
816113
822090
827432
829868
829946
828025
826963
838268
835667
834094
823958
813350
804631
791059
781847
782243
766645
769060
774472
781648
776680
801347
807389
813077
829885
847390
847728
860334
868368
872932
876896
879614
878223
877183
878177
876170
877872
840078
837529
834531
832647
829013
829465
824765
822822
822985
821142
816856
813238
807217
798757
795878
789536
778139
781616
776631
776375
786094
788739
790769
797817
804191
808155
807772
815659
817787
814269
838108
839084
838706
837882
836626
834753
831566
828750
821925
815258
807049
800698
785095
787857
771308
776531
769793
778289
776279
787386
789304
802900
805944
813351
819664
823653
825988
826958
826696
826625
836326
834247
828683
822037
815254
805616
799434
786174
783272
766417
770418
755625
759553
755168
757045
765374
766578
775293
792293
793695
808404
815604
824940
828213
836366
834188
839031
836753
840536
834985
882020
875526
869379
861429
853428
842263
833846
816073
805850
803924
795605
788380
794096
792393
801049
807459
810030
824707
828858
838435
842991
846995
849403
848642
846136
844796
845101
844479
845359
845423
858252
858597
855770
852406
843047
836445
823657
811602
788869
789358
760120
764992
746385
752203
757534
754566
765252
775362
789627
796101
825137
823701
843638
855444
857350
862559
867647
866238
868704
871526
869907
870357
868567
865861
858927
845463
836198
815360
813521
772411
787067
745768
761694
740959
744779
760763
754244
780843
780933
798040
808019
821321
823908
827926
830920
826495
826323
823395
821612
809097
853007
852420
853011
853940
849791
848785
846581
842341
833482
832620
827096
821465
828889
828699
835032
855524
857625
866843
885471
895419
895803
902196
910344
909687
911250
914642
915630
919106
923690
924653
925608
924423
924465
922494
921632
918054
913054
908861
892805
895121
870382
878080
858589
864146
861279
861932
864625
872858
879885
886146
891903
895950
897685
897264
895858
894419
893238
892443
892920
891961
881174
880601
880477
879206
878614
878489
878138
877643
877865
878419
878204
877461
878408
876356
877682
874403
874841
870188
871524
870056
870266
870711
870635
871041
871058
872126
873383
875964
875120
875129
874590
875872
875108
874267
873227
873928
872872
876681
874361
882234
881767
889154
887873
891695
890340
890826
866482
871949
855704
858195
844225
845585
842502
837418
839388
837832
839727
838631
842376
841053
845974
844135
850192
848825
853272
852259
852796
850492
853884
851466
857237
860702
865775
871330
880643
882706
887787
894424
886011
908137
908764
911371
914664
913571
914909
913166
910880
908823
909764
902062
898000
880900
880098
844028
850271
809649
817575
789530
796000
786823
794578
796971
809502
815857
821803
825798
827901
827475
827196
826867
829409
839314
836875
834448
829818
821874
812378
803555
793595
782119
782499
771860
771344
777874
781265
779504
808000
809601
812937
838827
847893
851239
865748
871422
877303
879255
880700
881592
874748
872266
867721
863576
847139
841115
836834
836388
829389
827987
825804
823096
823882
819870
816275
815764
813327
810963
803789
798930
792900
788698
780803
781130
781954
783175
788518
788990
792855
802797
806524
807400
815528
819601
819501
824201
829849
825915
837818
837750
838120
837232
836878
835263
831855
830851
822002
817698
807727
803200
787927
784217
775290
779081
775239
778922
779329
790615
794267
803830
809379
816088
822536
826795
830235
831863
831774
831478
830522
823189
827361
826031
823299
820065
814954
806009
800420
787766
785581
771430
772478
760354
759860
760848
763673
770716
770689
782216
782903
806077
806266
819440
823184
836085
835117
842118
842584
847613
847271
850222
855475
866617
868020
868546
866933
863294
854423
843510
836405
818115
808193
806570
793131
788325
791598
791431
797570
806135
808002
819296
830291
832960
842367
844450
845009
845980
848106
847159
846099
846593
846174
849003
846214
841506
852116
851302
851377
847799
846242
836439
829833
809158
796628
785672
765583
762249
753134
749121
753582
754743
768299
767330
796540
789758
814802
828394
839173
849012
860750
861600
864424
867223
866669
869567
864317
863265
867816
867206
867011
865481
860085
850497
839119
819082
813373
777867
784845
748139
755583
743285
744721
757005
760609
784330
778699
799569
813269
819872
826173
831587
830944
831885
829100
829181
828247
827825
838961
836709
847529
849268
852136
849467
849282
847609
844393
837737
835714
828768
822818
823671
821665
826375
832132
858210
848193
874520
887725
892142
896672
909192
910075
910757
916963
915945
916932
922726
925815
928997
923605
920156
919732
918869
918040
919380
917221
916737
907046
908988
887499
892966
868562
874142
856220
861717
855790
862274
865225
871280
878314
887075
890568
894973
897016
897090
895595
894457
893935
891550
891421
892506
891088
891339
880840
880519
880174
879838
878916
878590
877911
877809
877719
877424
877688
879210
878215
879249
876758
876764
873455
873346
869972
869457
868351
868195
868302
868412
869695
871610
874119
874721
877461
878332
878765
876790
876202
875833
874062
873977
872205
876908
874404
879500
884515
885082
889735
887810
887880
885600
874838
865771
859190
851915
850340
840669
842873
837192
838265
838269
837750
840713
840183
844361
844113
848379
848335
852642
851791
854650
851405
853449
852890
850744
857504
860900
869415
876568
881575
889322
894489
901762
902171
902058
913178
909002
907567
907376
907817
909380
910696
911104
906751
903421
897662
888548
875125
852937
852780
817314
822333
800571
798425
798955
798675
806905
811556
814998
821252
824657
824599
824372
824325
825816
826603
834125
829008
830027
826614
820572
814510
803557
797063
788168
779556
776722
774187
786643
777208
792184
811554
805168
824508
844325
846195
858809
869837
876198
881367
883967
882778
882005
874984
872824
858172
860874
840972
845595
831820
833223
827680
825491
819953
817895
816472
816414
815400
813646
811624
808306
803953
800528
790553
788971
786343
781079
777627
780698
787275
789847
800347
805178
806568
814884
819999
819694
825760
828061
830297
831272
835114
836370
836832
837247
837045
836519
833979
830533
825922
820221
810564
805681
793493
792247
776179
774013
775428
784331
785082
796690
794995
806582
812346
818537
823733
828774
831497
832404
832179
831003
829823
825256
829832
826572
824952
821723
817030
810451
804995
791233
787240
773311
775908
765905
768025
763107
762767
769773
768878
786746
791527
808251
805582
824286
827359
832256
838886
839829
843209
843001
847134
846499
855049
860357
865441
867028
867924
864734
857257
847702
839140
822243
816986
805572
797160
792563
790959
791750
803266
799808
814514
816335
829139
833405
838497
843505
845559
846034
843762
842740
842891
842600
844980
844839
846212
846229
852121
852054
851673
850737
847524
842129
828767
818381
798423
792014
768679
769078
753377
755726
757525
750849
775405
766775
791192
803170
808836
824643
845003
845842
855490
863389
862449
863618
865498
868277
864850
864858
866732
867692
868247
868600
864513
857580
848998
822556
819320
785640
788284
752822
763557
749570
754576
766833
760471
780595
789302
806784
812529
824350
836488
836560
833937
831018
831207
828997
831185
829436
842928
841726
847317
849236
847653
848212
848086
846311
842107
842122
833681
827610
826151
825041
823500
828078
837144
853056
851244
883983
880792
893441
905110
908806
910661
918422
917790
917670
923621
923173
924122
922873
922856
919854
920405
920012
920026
919419
917674
917024
906959
907980
887222
891053
868170
872507
856573
862018
856861
861934
868189
873911
877675
887005
891031
893303
895645
895720
894944
894397
892026
891267
892238
891328
891509
891592
880462
879974
879783
879461
879562
879521
879280
879013
878828
879507
880626
880181
880454
878971
879877
877484
880150
876464
876819
876450
876394
875867
875800
875969
877017
877161
878233
878945
878345
878334
878115
877581
876604
875005
875700
875671
874195
877143
875874
881819
882262
886705
886230
888199
885219
882430
872033
862050
862366
846997
852895
837756
843342
835235
838294
836535
839278
838831
843490
843119
848412
847509
853062
851936
856258
853863
856071
852761
856092
853845
862391
866732
874223
880478
888528
895805
900636
903261
901614
907241
908369
909041
910775
909724
908280
906736
906123
907151
907881
904125
902025
889915
880706
861473
856412
828328
830004
806484
811664
800954
807526
807146
812748
816892
821267
822268
822453
820499
820784
821250
824453
827565
824044
825543
824803
822474
816153
805699
803698
790959
786083
782644
784197
786996
781354
807628
802515
812372
839717
838951
852322
866568
873180
881168
883313
885361
883338
881153
870438
872402
852824
858455
840552
838531
830852
831440
820173
822223
820111
818061
814211
813205
813526
810872
810033
806363
806584
800884
794269
791387
786473
783742
788772
793338
791515
798560
803189
805248
813726
819356
819561
825767
829021
828828
830225
831216
835591
835973
836613
836932
836748
836075
835785
833155
829242
824092
817424
810067
799851
796354
791124
790237
780299
786139
788860
796611
802241
808275
816077
820047
824929
828016
830179
830526
830675
829563
828120
825526
827558
824314
823479
821402
817605
812703
806099
797806
793778
780692
776757
771739
767183
768370
770799
780761
782003
795446
791997
810622
808608
827579
825428
834796
835715
840252
839940
841775
846642
846237
852090
857997
862113
865485
867758
866194
860899
853568
841872
830734
819883
811101
806079
794895
800642
795461
803767
803996
814505
820503
826881
833595
838533
839576
839799
839336
840963
842212
841717
843269
842511
845114
843524
845687
850631
849662
851085
850548
849373
841791
833964
823994
806367
795929
781428
772766
770427
764276
766624
758567
777868
782893
790597
798723
825151
822954
837832
851866
851725
855886
861091
857564
860087
864119
860085
862201
867086
867567
871142
872365
870151
864048
854371
834461
826672
796786
790288
763002
763690
763721
763816
762291
771042
793951
797950
808970
823875
834009
833531
835480
836421
833157
829805
831213
831987
833948
842250
842353
847282
847424
849205
848510
847833
845309
844610
841381
834626
831322
831020
829491
821461
837918
840724
852316
858211
885150
879748
903602
903419
910137
917589
919542
919435
925030
923848
923722
921437
919229
919381
918854
920180
920037