/*--------------------------------*- C++ -*----------------------------------*\
| =========                 |                                                 |
| \\      /  F ield         | OpenFOAM: The Open Source CFD Toolbox           |
|  \\    /   O peration     | Version:  2.1.1                                 |
|   \\  /    A nd           | Web:      www.OpenFOAM.org                      |
|    \\/     M anipulation  |                                                 |
\*---------------------------------------------------------------------------*/
FoamFile
{
    version     2.0;
    format      ascii;
    class       volScalarField;
    location    "0.006100000";
    object      rho;
}
// * * * * * * * * * * * * * * * * * * * * * * * * * * * * * * * * * * * * * //

dimensions      [1 -3 0 0 0 0 0];

internalField   nonuniform List<scalar> 
12384
(
0.827478
0.832347
0.835147
0.833279
0.829107
0.824578
0.823314
0.819608
0.818951
0.81835
0.819397
0.819375
0.809768
0.802867
0.929578
0.908366
0.901311
0.89732
0.895424
0.891594
0.88909
0.893418
0.894022
0.901444
0.900625
0.90782
0.905515
0.912866
0.909849
0.917319
0.914309
0.921369
0.916915
0.928843
0.922195
0.939217
0.935642
0.949884
0.95065
0.953194
0.955801
0.97843
1.03559
1.0487
0.852141
0.860543
0.847506
0.835865
0.831407
0.825724
0.828434
0.825639
0.83204
0.830156
0.838209
0.837268
0.843231
0.841636
0.847806
0.845223
0.852931
0.849775
0.859122
0.856924
0.86657
0.865659
0.874574
0.874139
0.879451
0.879147
0.879891
0.884463
0.88161
0.87236
0.912176
0.918539
0.919784
0.91463
0.915514
0.911011
0.91259
0.908323
0.909055
0.900304
0.89826
0.885711
0.877249
0.86755
0.837457
0.850371
0.819225
0.833745
0.813125
0.826013
0.827293
0.831027
0.832715
0.83198
0.832354
0.839152
0.834269
0.830656
0.828545
0.82752
0.853259
0.853829
0.856197
0.854557
0.848564
0.838071
0.824758
0.810482
0.799671
0.791841
0.784405
0.782636
0.795752
0.791501
0.807549
0.812794
0.82366
0.832255
0.840633
0.848146
0.859088
0.879193
0.884921
0.88153
0.877434
0.877202
0.878387
0.882031
0.885828
0.887902
0.828822
0.821459
0.824812
0.828907
0.832206
0.834388
0.836447
0.839337
0.84124
0.841529
0.840563
0.837552
0.833179
0.827353
0.820736
0.814401
0.80796
0.80203
0.798758
0.797447
0.792465
0.794372
0.792983
0.791466
0.790885
0.787154
0.781576
0.781222
0.785242
0.783929
0.859738
0.862353
0.867996
0.863025
0.85125
0.84513
0.842884
0.840921
0.839396
0.837151
0.833516
0.833914
0.823086
0.826568
0.814652
0.818235
0.813162
0.816772
0.820368
0.824268
0.828488
0.830004
0.831265
0.833827
0.880915
0.918106
0.917206
0.916409
0.916738
0.915405
0.844714
0.831139
0.81395
0.80405
0.799098
0.795826
0.793027
0.791563
0.784626
0.78403
0.781041
0.77615
0.775495
0.777033
0.776162
0.782847
0.783687
0.790052
0.794173
0.797768
0.800026
0.804095
0.814531
0.820425
0.818947
0.816095
0.815221
0.816531
0.816167
0.814613
0.842172
0.834187
0.832111
0.831538
0.830826
0.826772
0.825171
0.812351
0.817888
0.803089
0.806303
0.80326
0.806656
0.809373
0.81273
0.818261
0.819954
0.820261
0.820409
0.821137
0.816197
0.812502
0.812764
0.813733
0.81403
0.813696
0.813898
0.811518
0.810239
0.808568
0.825025
0.812572
0.802674
0.797197
0.794986
0.793465
0.792693
0.790593
0.784572
0.787523
0.770191
0.778036
0.765486
0.773058
0.76694
0.786873
0.783589
0.804606
0.805539
0.822214
0.821141
0.828809
0.835789
0.834987
0.832701
0.830247
0.828951
0.827214
0.826442
0.825006
0.816169
0.809251
0.806878
0.803998
0.802488
0.801763
0.797055
0.787771
0.790586
0.780582
0.766685
0.773518
0.764899
0.763342
0.770903
0.77266
0.778585
0.78182
0.783953
0.783693
0.781655
0.777587
0.774056
0.770732
0.769359
0.766614
0.76595
0.765957
0.766303
0.766704
0.851105
0.854402
0.852916
0.841046
0.821051
0.80834
0.813632
0.819142
0.824461
0.826821
0.825928
0.829564
0.833627
0.830374
0.840712
0.848302
0.845955
0.859335
0.858596
0.863595
0.867913
0.872844
0.870249
0.875355
0.876738
0.877867
0.881159
0.882791
0.877995
0.888479
0.901264
0.899079
0.918952
1.00395
1.12918
1.20825
0.999508
0.811297
0.786891
0.784402
0.782105
0.779975
0.7766
0.776389
0.772564
0.776113
0.777086
0.780547
0.784012
0.786075
0.78672
0.785545
0.777672
0.768315
0.764342
0.762294
0.759968
0.762515
0.773673
0.855335
0.867023
0.861222
0.843879
0.831228
0.823509
0.817119
0.814308
0.811176
0.808589
0.807923
0.809869
0.815661
0.811809
0.804636
0.926625
0.904316
0.89398
0.888267
0.881553
0.879071
0.88405
0.894938
0.900727
0.906231
0.904436
0.906698
0.902515
0.904796
0.90043
0.902954
0.90082
0.90301
0.90241
0.906897
0.907796
0.918654
0.923259
0.937111
0.943615
0.952812
0.954914
0.962157
0.992257
1.02887
0.852135
0.856563
0.838451
0.82842
0.823543
0.822533
0.824706
0.824709
0.830873
0.832289
0.83843
0.839085
0.842462
0.842174
0.847242
0.845936
0.853764
0.851336
0.860383
0.859982
0.866849
0.866403
0.869644
0.872702
0.873829
0.876815
0.877868
0.881601
0.882554
0.873839
0.912037
0.918181
0.917671
0.914097
0.91427
0.914192
0.914896
0.913467
0.910187
0.905722
0.894812
0.890394
0.871571
0.871901
0.841559
0.847939
0.8259
0.82834
0.820107
0.821349
0.826559
0.827931
0.831038
0.832352
0.832171
0.835202
0.835581
0.827482
0.821263
0.821397
0.846607
0.852857
0.858708
0.860179
0.857472
0.849392
0.837328
0.822962
0.813876
0.798241
0.797349
0.793662
0.797594
0.795077
0.805164
0.808649
0.818319
0.82638
0.837275
0.847816
0.856461
0.873605
0.88465
0.874953
0.867153
0.863856
0.866007
0.871127
0.875825
0.881161
0.827536
0.821692
0.827183
0.833128
0.835172
0.839394
0.842117
0.843385
0.842757
0.841341
0.83864
0.835498
0.830941
0.825345
0.819196
0.812303
0.807008
0.801685
0.798907
0.79433
0.795279
0.793607
0.793185
0.793941
0.792582
0.789804
0.787808
0.784789
0.78212
0.783695
0.857362
0.861939
0.854272
0.837198
0.832951
0.837778
0.842464
0.848367
0.849961
0.8504
0.848364
0.844401
0.835766
0.838586
0.825852
0.826363
0.824764
0.824504
0.825708
0.828003
0.829885
0.831596
0.832574
0.833797
0.850647
0.902332
0.931736
0.93355
0.928087
0.925782
0.821464
0.803229
0.791524
0.787399
0.787266
0.786671
0.786578
0.781992
0.779129
0.776331
0.771924
0.767266
0.768464
0.767053
0.769717
0.771664
0.776554
0.780826
0.787111
0.793734
0.798779
0.802014
0.808435
0.817315
0.819655
0.813305
0.813919
0.810648
0.810648
0.811338
0.8331
0.828143
0.830344
0.833811
0.834356
0.832472
0.827005
0.821361
0.820893
0.805871
0.809084
0.809262
0.810606
0.812626
0.816179
0.819112
0.822066
0.823279
0.822756
0.821889
0.819691
0.81445
0.814052
0.817924
0.818415
0.818979
0.817755
0.817373
0.815467
0.812687
0.826876
0.810071
0.798907
0.794309
0.792741
0.795984
0.79557
0.797169
0.792158
0.790994
0.781613
0.778765
0.781041
0.776782
0.778129
0.792051
0.788706
0.803872
0.81525
0.815727
0.825247
0.829898
0.832696
0.83578
0.831834
0.828947
0.827972
0.828117
0.824959
0.822425
0.81817
0.807961
0.804154
0.801528
0.801333
0.799402
0.801587
0.788369
0.794885
0.778475
0.779154
0.767553
0.773129
0.76671
0.768791
0.773994
0.778233
0.782285
0.785331
0.786765
0.784349
0.779334
0.774559
0.770039
0.766635
0.763028
0.761251
0.761582
0.76425
0.76399
0.830099
0.830612
0.830623
0.821818
0.811564
0.813734
0.821388
0.8249
0.825669
0.824699
0.820644
0.822882
0.816142
0.82285
0.825955
0.829741
0.841986
0.849288
0.855024
0.863819
0.86648
0.863965
0.867385
0.865517
0.869446
0.871426
0.878242
0.881321
0.878496
0.885971
0.835433
0.835205
0.84332
0.877341
1.03923
1.07064
0.85393
0.793654
0.785717
0.784489
0.781199
0.778679
0.77504
0.772699
0.774039
0.772387
0.776236
0.780167
0.786827
0.796531
0.80587
0.811139
0.807165
0.791786
0.775941
0.763147
0.760641
0.762912
0.77618
0.862046
0.866659
0.84963
0.835909
0.831022
0.832848
0.834185
0.830812
0.826992
0.817841
0.811737
0.805834
0.807971
0.809519
0.803926
0.926823
0.901459
0.889239
0.879057
0.873669
0.878133
0.894576
0.907039
0.90619
0.9059
0.897327
0.896163
0.888362
0.889429
0.883974
0.88742
0.884814
0.890198
0.887105
0.893715
0.888725
0.898369
0.899786
0.9179
0.929606
0.945827
0.95163
0.956115
0.970008
1.00916
0.854796
0.853121
0.834752
0.824333
0.823606
0.82259
0.826371
0.826218
0.832093
0.831029
0.837084
0.834275
0.839099
0.836052
0.84338
0.840469
0.849224
0.847609
0.856711
0.855861
0.864552
0.864045
0.869477
0.868816
0.872008
0.87223
0.875075
0.877726
0.882276
0.876501
0.910086
0.916521
0.91583
0.914838
0.915697
0.917094
0.916829
0.913551
0.911758
0.902664
0.89506
0.886827
0.872294
0.868299
0.842999
0.849108
0.825143
0.8293
0.821885
0.824502
0.822261
0.826448
0.828073
0.829362
0.829179
0.83065
0.833395
0.830615
0.823094
0.821217
0.844867
0.854781
0.86105
0.864529
0.86226
0.854427
0.844261
0.832434
0.823472
0.809451
0.811668
0.804869
0.807363
0.804177
0.805406
0.808666
0.815906
0.821604
0.832716
0.843461
0.854319
0.866251
0.881803
0.872177
0.862723
0.859982
0.864692
0.86787
0.870326
0.875607
0.82545
0.822195
0.830723
0.835518
0.8389
0.842457
0.843282
0.838259
0.83525
0.834113
0.832937
0.829919
0.825806
0.819631
0.813279
0.80542
0.801044
0.794894
0.793919
0.789745
0.791282
0.790944
0.79309
0.793691
0.793297
0.794424
0.790253
0.785634
0.78653
0.787882
0.862056
0.858295
0.834709
0.832258
0.840847
0.853652
0.862511
0.863295
0.861569
0.857329
0.849428
0.842829
0.835127
0.831632
0.819563
0.824384
0.817707
0.820445
0.823514
0.827397
0.829913
0.832938
0.83341
0.832371
0.837323
0.861342
0.903491
0.915174
0.911561
0.922204
0.804622
0.792503
0.788671
0.787796
0.787339
0.786324
0.784756
0.776924
0.777216
0.767101
0.762684
0.763364
0.760134
0.760652
0.757983
0.763058
0.767719
0.773103
0.779979
0.786574
0.793567
0.798336
0.803002
0.813089
0.818128
0.819394
0.815596
0.816022
0.809812
0.807566
0.825532
0.830324
0.835528
0.837643
0.836756
0.830916
0.827473
0.819693
0.813524
0.805173
0.809465
0.805427
0.805155
0.810916
0.815537
0.818926
0.821964
0.823495
0.822838
0.821373
0.81963
0.816917
0.81333
0.816783
0.81864
0.817755
0.817953
0.816555
0.816353
0.815043
0.824164
0.806602
0.793256
0.792925
0.798506
0.800455
0.803372
0.801931
0.79921
0.792628
0.781737
0.787699
0.776811
0.783933
0.778217
0.789598
0.801629
0.797401
0.816263
0.819688
0.821102
0.8298
0.83056
0.833289
0.832703
0.83002
0.832354
0.833106
0.829321
0.822685
0.817295
0.808119
0.80255
0.801003
0.805135
0.803657
0.805569
0.793683
0.797134
0.776148
0.78568
0.768776
0.766358
0.767302
0.771443
0.772002
0.776141
0.780575
0.783453
0.784959
0.78439
0.781007
0.776152
0.770611
0.765098
0.764098
0.760583
0.762523
0.762337
0.762582
0.823693
0.820264
0.816875
0.812105
0.814109
0.820345
0.824074
0.824365
0.820111
0.811534
0.80334
0.798405
0.798565
0.804683
0.80349
0.819281
0.821303
0.837584
0.844382
0.85701
0.861745
0.859692
0.857604
0.859589
0.861931
0.866201
0.87267
0.877467
0.876708
0.881652
0.834422
0.833495
0.846432
0.889171
0.98545
0.885012
0.805213
0.785587
0.783925
0.781734
0.778847
0.775314
0.772307
0.770176
0.767208
0.768468
0.768806
0.771042
0.773433
0.781084
0.794953
0.812195
0.822689
0.81931
0.798689
0.777161
0.768719
0.771365
0.793703
0.888817
0.862525
0.850809
0.85499
0.861963
0.860053
0.85704
0.851942
0.848695
0.840189
0.826929
0.812854
0.807595
0.809083
0.806888
0.92108
0.892816
0.876252
0.865973
0.864288
0.883223
0.904538
0.908884
0.903797
0.899636
0.892173
0.889576
0.881591
0.879855
0.874989
0.877212
0.880626
0.883506
0.887548
0.884813
0.884797
0.883212
0.884825
0.895654
0.91276
0.933201
0.947244
0.951043
0.959063
0.994142
0.853287
0.850478
0.82912
0.825909
0.823144
0.824824
0.826452
0.828663
0.83086
0.830871
0.830328
0.831258
0.831706
0.834196
0.836259
0.841015
0.842898
0.849278
0.851279
0.855175
0.858215
0.86343
0.862366
0.867237
0.866558
0.868563
0.870728
0.874862
0.88023
0.876819
0.90754
0.914602
0.913864
0.913418
0.916379
0.917404
0.914488
0.914704
0.906719
0.902315
0.890361
0.886096
0.869932
0.868002
0.850973
0.844394
0.833839
0.824046
0.827317
0.820131
0.825413
0.822217
0.825243
0.827256
0.829123
0.82971
0.831164
0.831897
0.825451
0.822138
0.84603
0.850935
0.855416
0.858784
0.855569
0.84738
0.838768
0.825984
0.815495
0.811591
0.808551
0.807118
0.808861
0.816621
0.811716
0.81077
0.816636
0.818902
0.829485
0.839053
0.852544
0.860177
0.878072
0.873641
0.864606
0.860898
0.870819
0.868508
0.867381
0.870902
0.823968
0.823499
0.832067
0.83733
0.83955
0.839873
0.831724
0.830675
0.830886
0.830438
0.828771
0.824799
0.817648
0.809484
0.801
0.792257
0.788008
0.782722
0.781687
0.783411
0.783588
0.787417
0.789578
0.791515
0.795576
0.796118
0.794039
0.790388
0.786536
0.782961
0.858448
0.839294
0.827067
0.843675
0.862847
0.867622
0.864908
0.860658
0.852896
0.847611
0.837016
0.831091
0.8205
0.814815
0.807568
0.806522
0.804074
0.806599
0.810779
0.820673
0.823287
0.83156
0.833202
0.83466
0.833738
0.845798
0.870066
0.889484
0.890883
0.91736
0.797646
0.791851
0.789159
0.788901
0.787964
0.785134
0.780677
0.773382
0.769279
0.757845
0.758105
0.75017
0.748249
0.746715
0.753143
0.752332
0.757099
0.763473
0.774731
0.779223
0.788085
0.795266
0.801363
0.806072
0.818801
0.819526
0.821225
0.818396
0.816896
0.806324
0.831227
0.836067
0.838602
0.837377
0.833778
0.826318
0.824184
0.81275
0.804964
0.809017
0.800893
0.801985
0.806568
0.804599
0.810669
0.815689
0.819775
0.821794
0.822738
0.821644
0.819996
0.817846
0.813731
0.81408
0.815704
0.816414
0.815668
0.813596
0.812582
0.81429
0.824734
0.803111
0.795527
0.79964
0.802664
0.808834
0.805028
0.808222
0.792126
0.79911
0.78388
0.7864
0.777994
0.775932
0.788028
0.781175
0.79973
0.802821
0.803894
0.822977
0.82096
0.824109
0.83166
0.830137
0.83121
0.831163
0.832332
0.835152
0.832339
0.824344
0.816183
0.803891
0.802563
0.806232
0.809051
0.807509
0.807155
0.792948
0.79701
0.776401
0.782389
0.767669
0.772165
0.77078
0.765408
0.770492
0.772297
0.776712
0.780409
0.783906
0.784771
0.783484
0.780521
0.776143
0.769428
0.763732
0.764561
0.76423
0.767158
0.764487
0.817825
0.813616
0.811014
0.813322
0.818487
0.822931
0.823278
0.816605
0.803265
0.792265
0.787439
0.78352
0.78603
0.7912
0.795186
0.804087
0.811325
0.822254
0.834993
0.848736
0.857911
0.857206
0.853584
0.854495
0.860091
0.864908
0.869759
0.874183
0.873579
0.877252
0.844016
0.840742
0.870856
0.897404
0.889097
0.82784
0.788018
0.782467
0.781399
0.778998
0.77699
0.77411
0.770798
0.766462
0.765054
0.763599
0.764238
0.766838
0.769396
0.770006
0.774999
0.792717
0.81757
0.828503
0.821699
0.803798
0.79099
0.793716
0.821497
0.939365
0.86938
0.871285
0.881095
0.878302
0.867484
0.85796
0.852981
0.851753
0.850735
0.84288
0.824294
0.808145
0.807097
0.805123
0.923566
0.890538
0.871397
0.860211
0.8695
0.897052
0.911896
0.913801
0.908739
0.903655
0.897601
0.890846
0.879123
0.871969
0.866015
0.868222
0.874583
0.883356
0.88273
0.882096
0.87212
0.872654
0.869279
0.880788
0.895298
0.920936
0.939019
0.947572
0.95212
0.983962
0.855533
0.850761
0.832175
0.825084
0.825681
0.824855
0.829164
0.829761
0.833091
0.828557
0.829304
0.825515
0.829413
0.829244
0.837422
0.838731
0.848603
0.847628
0.854097
0.855067
0.857114
0.859813
0.863684
0.861505
0.866383
0.865272
0.866953
0.870835
0.877688
0.875843
0.90244
0.910661
0.910636
0.913621
0.914691
0.913779
0.914851
0.910682
0.906031
0.896624
0.890835
0.878078
0.876132
0.857199
0.859769
0.8354
0.841148
0.820737
0.826652
0.824947
0.821079
0.823172
0.824061
0.824445
0.826995
0.827934
0.830226
0.83177
0.82696
0.820857
0.838745
0.845448
0.849991
0.85295
0.848388
0.840288
0.830679
0.813022
0.807218
0.806209
0.802027
0.80603
0.80369
0.821352
0.817065
0.814496
0.819894
0.817813
0.828856
0.835547
0.851031
0.856921
0.873553
0.875923
0.870549
0.868708
0.875982
0.872486
0.865068
0.86695
0.821474
0.823282
0.833486
0.83821
0.839706
0.832641
0.826039
0.824772
0.827135
0.826473
0.821057
0.813193
0.80364
0.793385
0.783372
0.775259
0.770319
0.765527
0.766319
0.768234
0.774364
0.77918
0.783488
0.791175
0.795115
0.797383
0.799868
0.800754
0.794889
0.793092
0.856207
0.835184
0.84055
0.861862
0.867746
0.862762
0.855441
0.848486
0.843259
0.836954
0.82728
0.823644
0.805925
0.807732
0.793991
0.789642
0.788475
0.794106
0.795647
0.808617
0.81454
0.826435
0.831989
0.836164
0.836013
0.839621
0.8538
0.867475
0.874822
0.909204
0.796591
0.793316
0.791435
0.791545
0.789501
0.783613
0.776738
0.768743
0.761406
0.749776
0.750557
0.741663
0.740057
0.739791
0.736774
0.745777
0.747896
0.757168
0.766327
0.773219
0.784328
0.793858
0.79714
0.807274
0.814965
0.825379
0.825649
0.82665
0.815755
0.806661
0.835803
0.838807
0.839139
0.836195
0.830079
0.822895
0.821131
0.807802
0.809391
0.806765
0.802827
0.801608
0.800554
0.80703
0.807741
0.81155
0.817493
0.820038
0.821009
0.820583
0.819309
0.817538
0.814279
0.812201
0.812536
0.81316
0.814936
0.810224
0.807836
0.812493
0.819781
0.794709
0.799004
0.804162
0.81096
0.810517
0.812331
0.806447
0.794089
0.799258
0.782567
0.780736
0.781254
0.784421
0.777622
0.791084
0.785914
0.805718
0.804441
0.810003
0.825644
0.82133
0.826085
0.831285
0.829597
0.830506
0.832491
0.834704
0.829153
0.82155
0.810561
0.800956
0.805025
0.81237
0.81343
0.80974
0.805854
0.793807
0.795024
0.777609
0.783817
0.766414
0.777856
0.768796
0.774038
0.771735
0.771886
0.77315
0.775815
0.782239
0.783554
0.785748
0.782268
0.776352
0.771098
0.766596
0.76412
0.767717
0.767556
0.768845
0.814315
0.81026
0.811748
0.815808
0.820575
0.822527
0.816882
0.801586
0.788202
0.781028
0.774429
0.776805
0.774814
0.780767
0.785797
0.799269
0.799962
0.816657
0.820603
0.841485
0.854276
0.854274
0.850131
0.853943
0.859324
0.86759
0.868419
0.872391
0.870404
0.873121
0.854318
0.846823
0.871121
0.875765
0.842076
0.79887
0.78206
0.780063
0.779774
0.776989
0.775157
0.770508
0.767292
0.765937
0.765575
0.76548
0.763005
0.76372
0.766331
0.769303
0.768939
0.773943
0.79581
0.825064
0.830156
0.817939
0.814236
0.819845
0.849359
0.998969
0.879824
0.895707
0.896775
0.874083
0.853932
0.848027
0.848441
0.851239
0.852248
0.849067
0.831655
0.812858
0.808823
0.808304
0.917666
0.881671
0.857293
0.850441
0.865899
0.897919
0.913335
0.915698
0.912874
0.910165
0.907492
0.895018
0.878349
0.863994
0.859754
0.862248
0.872317
0.880618
0.881158
0.871209
0.865385
0.857306
0.860478
0.868386
0.884742
0.909325
0.932105
0.941139
0.945882
0.975218
0.860001
0.850548
0.83001
0.828165
0.82568
0.828652
0.830146
0.832571
0.834265
0.830082
0.825486
0.822386
0.824737
0.82641
0.835554
0.839387
0.844722
0.85075
0.850345
0.854625
0.855856
0.855513
0.859283
0.863208
0.859909
0.864954
0.865268
0.867503
0.8735
0.873036
0.903075
0.907261
0.907845
0.90852
0.907975
0.911204
0.910999
0.908936
0.903632
0.89494
0.885802
0.878752
0.870509
0.852626
0.86222
0.828369
0.843291
0.815585
0.825481
0.81656
0.821521
0.821797
0.823353
0.821811
0.82579
0.828408
0.830028
0.831563
0.826476
0.821183
0.834898
0.84219
0.847447
0.847754
0.842476
0.833546
0.820352
0.801521
0.806064
0.796774
0.794543
0.801019
0.800835
0.814935
0.821661
0.819327
0.821721
0.819706
0.830315
0.835257
0.849799
0.857288
0.870138
0.877252
0.87813
0.879272
0.881664
0.873635
0.861979
0.861656
0.821308
0.825171
0.835595
0.836822
0.830156
0.822705
0.822348
0.823901
0.822113
0.819575
0.812182
0.801544
0.791012
0.781132
0.769964
0.764962
0.756791
0.752138
0.751203
0.754344
0.760991
0.76813
0.78054
0.787258
0.793669
0.799446
0.803068
0.800862
0.794336
0.794646
0.851434
0.83383
0.853672
0.86807
0.861739
0.852602
0.846772
0.842332
0.837017
0.833231
0.821531
0.815995
0.797509
0.797201
0.780358
0.784364
0.781354
0.785667
0.787869
0.799609
0.806185
0.822136
0.827413
0.838337
0.837732
0.840026
0.848434
0.85951
0.866755
0.904578
0.798938
0.796075
0.79577
0.794975
0.79034
0.782112
0.774494
0.763935
0.755856
0.747024
0.742555
0.735674
0.734606
0.731327
0.736121
0.735952
0.746911
0.747395
0.758539
0.771364
0.783125
0.787269
0.800552
0.805002
0.815685
0.822018
0.830618
0.825481
0.82107
0.809194
0.838167
0.840256
0.839719
0.83472
0.828273
0.821334
0.81968
0.808605
0.812762
0.803007
0.801608
0.800567
0.803611
0.800502
0.806949
0.806079
0.813976
0.816484
0.818713
0.819948
0.818762
0.81727
0.814903
0.811642
0.811771
0.813611
0.810001
0.803033
0.801433
0.807941
0.81817
0.798194
0.803717
0.811927
0.815001
0.817259
0.809571
0.809821
0.793266
0.801993
0.775578
0.789837
0.774347
0.773397
0.778946
0.782031
0.791946
0.788221
0.811547
0.80291
0.817808
0.826197
0.822378
0.8273
0.83052
0.829228
0.831937
0.833046
0.822768
0.817421
0.805909
0.803519
0.811742
0.814942
0.815052
0.81155
0.804653
0.79142
0.802814
0.774087
0.795114
0.78094
0.78659
0.785558
0.776672
0.77742
0.770119
0.777697
0.770535
0.782256
0.784626
0.787305
0.785258
0.78491
0.777832
0.771164
0.768829
0.769328
0.772042
0.768797
0.81048
0.807914
0.81111
0.816676
0.821081
0.819247
0.804558
0.788782
0.778934
0.770551
0.771122
0.763706
0.771266
0.767837
0.775783
0.789427
0.799347
0.80361
0.819368
0.82777
0.854916
0.852167
0.847896
0.852369
0.864003
0.872571
0.872052
0.870299
0.868387
0.869693
0.862944
0.843122
0.849763
0.84108
0.810016
0.785782
0.779872
0.778105
0.777777
0.774884
0.771206
0.770631
0.769828
0.767547
0.765024
0.764538
0.766668
0.765618
0.763869
0.76693
0.770026
0.767858
0.775431
0.809356
0.834426
0.827081
0.827363
0.841069
0.878672
1.05795
0.894883
0.913013
0.893102
0.857068
0.839514
0.837769
0.841761
0.847442
0.852247
0.852303
0.837982
0.814267
0.808036
0.806689
0.924036
0.881168
0.85655
0.849104
0.868693
0.901025
0.920668
0.926018
0.925933
0.926816
0.920134
0.907243
0.882778
0.862305
0.854316
0.858858
0.871493
0.880695
0.875996
0.868284
0.85794
0.857146
0.854321
0.864714
0.877768
0.902851
0.925048
0.936319
0.939995
0.97149
0.856572
0.854876
0.833517
0.826797
0.828832
0.828243
0.832202
0.831933
0.835304
0.829403
0.824432
0.817836
0.822835
0.824096
0.832369
0.83945
0.84449
0.847009
0.851916
0.848791
0.853753
0.854895
0.855056
0.858987
0.860593
0.860586
0.863699
0.866098
0.874389
0.871563
0.895199
0.901979
0.901216
0.902223
0.90646
0.905447
0.905631
0.906451
0.902595
0.891287
0.887868
0.873562
0.87078
0.851083
0.860068
0.826712
0.841373
0.814825
0.825433
0.818133
0.821871
0.821165
0.820184
0.820756
0.826305
0.827506
0.829368
0.830275
0.825101
0.819747
0.825276
0.836403
0.843978
0.843871
0.836823
0.827037
0.812188
0.798999
0.803392
0.789047
0.789027
0.798741
0.802474
0.805387
0.826655
0.819403
0.824351
0.82199
0.834229
0.837906
0.850635
0.86063
0.868622
0.88004
0.882195
0.88702
0.883408
0.868744
0.856272
0.857086
0.817775
0.826321
0.834281
0.833362
0.825597
0.817199
0.816521
0.819339
0.81779
0.810266
0.802367
0.793263
0.784781
0.773672
0.764341
0.75904
0.746044
0.744308
0.742163
0.745242
0.750701
0.764615
0.773919
0.783777
0.794178
0.803427
0.807242
0.803543
0.801167
0.799033
0.849101
0.841614
0.863353
0.863318
0.853063
0.844786
0.840269
0.838467
0.834645
0.830064
0.819023
0.808899
0.790717
0.788689
0.775083
0.77662
0.771657
0.777005
0.781098
0.791787
0.801866
0.817381
0.828739
0.838156
0.84153
0.842486
0.847775
0.856008
0.864882
0.88965
0.801621
0.798806
0.800541
0.79837
0.791193
0.781417
0.77343
0.760631
0.754405
0.740789
0.741005
0.729509
0.728888
0.729205
0.726625
0.737034
0.736609
0.743481
0.75921
0.771979
0.77437
0.793287
0.798739
0.807847
0.81423
0.827007
0.828856
0.830744
0.819461
0.8086
0.839956
0.841045
0.839982
0.834188
0.826758
0.822345
0.820539
0.811417
0.813225
0.809436
0.810089
0.807268
0.805687
0.806446
0.808009
0.806539
0.809901
0.815491
0.817025
0.817509
0.817247
0.816832
0.813469
0.811737
0.812649
0.813394
0.805542
0.798379
0.798223
0.80602
0.813866
0.801743
0.811117
0.815472
0.821267
0.817368
0.814707
0.806235
0.80241
0.795463
0.778492
0.788851
0.768672
0.778858
0.778177
0.772468
0.794644
0.785214
0.800516
0.807512
0.812568
0.817615
0.827534
0.824131
0.827852
0.831236
0.832665
0.827037
0.813528
0.811142
0.805723
0.808509
0.816659
0.817617
0.815512
0.812403
0.805516
0.795416
0.805058
0.783936
0.80665
0.787682
0.797053
0.792215
0.794238
0.788231
0.775
0.779225
0.770915
0.785387
0.784458
0.78748
0.791096
0.785507
0.77852
0.773602
0.771194
0.773374
0.772597
0.773637
0.80889
0.808013
0.812075
0.817823
0.82077
0.810909
0.796752
0.784226
0.772308
0.767335
0.761297
0.762564
0.757611
0.763497
0.765868
0.782386
0.792866
0.800973
0.814987
0.824088
0.848543
0.855273
0.845465
0.854106
0.867161
0.882094
0.873419
0.868521
0.863981
0.867543
0.873261
0.836457
0.825345
0.812915
0.791324
0.780448
0.778198
0.777909
0.773058
0.776285
0.765449
0.771441
0.761023
0.762912
0.758443
0.75932
0.758276
0.763208
0.765287
0.76708
0.770563
0.770193
0.767225
0.786266
0.834549
0.844104
0.838237
0.858034
0.95209
1.11126
0.906945
0.922171
0.879435
0.840042
0.831786
0.832994
0.834848
0.839256
0.843996
0.845795
0.832471
0.814064
0.809433
0.809327
0.918644
0.87589
0.846739
0.839615
0.853675
0.886027
0.914452
0.925774
0.930505
0.932384
0.931237
0.916599
0.889906
0.863656
0.854264
0.857475
0.872629
0.881093
0.875274
0.86598
0.861861
0.85537
0.856615
0.862209
0.880784
0.901903
0.923428
0.929623
0.93409
0.965816
0.867921
0.852012
0.834715
0.828667
0.827026
0.828403
0.827249
0.828983
0.833317
0.829975
0.821316
0.816463
0.820179
0.823794
0.831639
0.837856
0.845638
0.84605
0.846587
0.849443
0.845593
0.851904
0.850898
0.858709
0.855658
0.860689
0.862197
0.869708
0.874356
0.872314
0.89539
0.898805
0.898088
0.897892
0.89409
0.894305
0.898493
0.902239
0.898614
0.895315
0.88417
0.873518
0.870846
0.850844
0.858167
0.82555
0.84211
0.814868
0.8258
0.816694
0.822166
0.815708
0.818088
0.821403
0.823255
0.826039
0.828147
0.828243
0.821582
0.815683
0.824141
0.832929
0.842941
0.840232
0.832718
0.823798
0.810177
0.800655
0.800927
0.787115
0.790019
0.79677
0.805256
0.803252
0.824489
0.824924
0.821506
0.827953
0.839224
0.840394
0.85478
0.863717
0.870956
0.880162
0.888631
0.889426
0.877795
0.859886
0.848268
0.850041
0.81924
0.827889
0.833523
0.827889
0.816892
0.815519
0.813008
0.813262
0.812978
0.808078
0.799219
0.791177
0.781832
0.770691
0.763711
0.753592
0.740658
0.741769
0.73807
0.738836
0.750948
0.759524
0.770482
0.784302
0.797061
0.805572
0.807217
0.811042
0.806441
0.801473
0.847909
0.849436
0.864588
0.856949
0.846694
0.838689
0.834822
0.836323
0.834976
0.829174
0.817015
0.806592
0.787192
0.787663
0.771189
0.774342
0.767983
0.776
0.776654
0.791184
0.79882
0.81826
0.828095
0.839217
0.843773
0.844298
0.848293
0.853821
0.861744
0.856931
0.809631
0.807588
0.806621
0.801154
0.793234
0.781927
0.77363
0.759994
0.755158
0.739192
0.740659
0.726938
0.72876
0.724523
0.726008
0.73355
0.735436
0.744234
0.760644
0.765172
0.780967
0.79017
0.801199
0.807048
0.81903
0.823111
0.830887
0.826356
0.816175
0.803991
0.846841
0.843998
0.840407
0.833769
0.827058
0.823202
0.822364
0.815285
0.812892
0.815764
0.810643
0.804788
0.808849
0.80538
0.808267
0.807748
0.805446
0.814563
0.814728
0.816836
0.816559
0.816419
0.815381
0.812793
0.811802
0.805238
0.793476
0.790006
0.792526
0.798894
0.814909
0.811033
0.816456
0.82225
0.822091
0.821046
0.816104
0.811846
0.796218
0.80211
0.777497
0.783985
0.76716
0.772735
0.778095
0.774898
0.784038
0.788768
0.797106
0.79852
0.819073
0.811419
0.82286
0.827326
0.825968
0.829321
0.83228
0.815003
0.803226
0.805398
0.809246
0.815346
0.819013
0.820057
0.81804
0.81107
0.809729
0.800012
0.809443
0.791901
0.816427
0.789628
0.808439
0.790603
0.791605
0.798488
0.779547
0.787205
0.775359
0.783206
0.786915
0.793935
0.791681
0.79012
0.78552
0.776525
0.776108
0.777006
0.776735
0.767084
0.805518
0.803229
0.810583
0.817887
0.81585
0.807702
0.792557
0.77782
0.764942
0.761812
0.756887
0.751456
0.756694
0.756266
0.761708
0.778908
0.785784
0.798552
0.815603
0.821876
0.842775
0.857261
0.84852
0.852638
0.868272
0.881951
0.872836
0.86463
0.860835
0.861232
0.889359
0.839451
0.812537
0.798044
0.785317
0.778978
0.777162
0.777396
0.769694
0.775206
0.761996
0.772331
0.76229
0.768774
0.765536
0.762599
0.759711
0.760771
0.762131
0.765714
0.770731
0.771929
0.767323
0.769319
0.822895
0.865721
0.861616
0.892588
1.03259
1.10911
0.916858
0.922169
0.863387
0.830612
0.82647
0.829371
0.830965
0.829661
0.831845
0.834867
0.826941
0.812333
0.810739
0.8088
0.832695
0.883854
0.92293
0.876387
0.849974
0.838956
0.848739
0.875067
0.906503
0.926665
0.936314
0.940986
0.941564
0.933965
0.903068
0.865977
0.852042
0.856323
0.873624
0.883086
0.875818
0.869618
0.865217
0.864274
0.860593
0.871947
0.883546
0.907088
0.918068
0.923846
0.929343
0.959735
0.917385
0.891072
0.865761
0.865957
0.834004
0.828553
0.825193
0.819867
0.820991
0.821391
0.828807
0.829125
0.82044
0.815494
0.820292
0.823418
0.83219
0.837922
0.845012
0.845247
0.845442
0.842965
0.84656
0.845447
0.851733
0.854368
0.856504
0.858673
0.86475
0.867347
0.874537
0.875702
0.859094
0.876995
0.883488
0.892557
0.895418
0.893086
0.891174
0.886174
0.885491
0.891073
0.899214
0.893715
0.887094
0.872859
0.876149
0.849288
0.860756
0.828912
0.840023
0.816381
0.822398
0.812866
0.816791
0.814339
0.819265
0.820253
0.822812
0.824907
0.826457
0.82407
0.815224
0.810016
0.808098
0.817959
0.823883
0.831954
0.838179
0.837487
0.831508
0.823089
0.813074
0.801759
0.802531
0.793072
0.793335
0.801
0.805545
0.805247
0.828889
0.825311
0.821236
0.836257
0.842277
0.846355
0.861658
0.868064
0.875219
0.881801
0.889858
0.887622
0.861806
0.845665
0.838012
0.836747
0.823684
0.817872
0.819937
0.831061
0.827414
0.819714
0.81256
0.809584
0.811186
0.809809
0.80716
0.804431
0.798163
0.791581
0.781316
0.773235
0.763376
0.754395
0.743274
0.741356
0.741443
0.744009
0.752343
0.759737
0.771913
0.788638
0.799515
0.805175
0.812384
0.812308
0.806018
0.8121
0.834292
0.83433
0.850637
0.855833
0.857599
0.848573
0.840381
0.832958
0.830198
0.835618
0.834877
0.83154
0.81807
0.80824
0.790022
0.784552
0.774602
0.776594
0.772604
0.776558
0.779634
0.793589
0.803289
0.819289
0.831438
0.841611
0.84572
0.847071
0.852997
0.854192
0.826048
0.804794
0.800108
0.795666
0.80076
0.801602
0.802153
0.799986
0.793711
0.782966
0.775218
0.762029
0.757582
0.743832
0.742591
0.731004
0.72921
0.729315
0.731562
0.73774
0.738661
0.749984
0.753186
0.775165
0.778948
0.793238
0.799457
0.813351
0.816944
0.828081
0.830098
0.816668
0.813061
0.817022
0.823034
0.832679
0.835854
0.838154
0.838053
0.834813
0.82759
0.824307
0.824962
0.817762
0.81595
0.818915
0.809522
0.80593
0.807626
0.805149
0.806159
0.808132
0.804431
0.810942
0.816517
0.812863
0.816298
0.814529
0.812562
0.812485
0.813603
0.79376
0.789618
0.794171
0.796625
0.800871
0.799678
0.79653
0.806607
0.807365
0.812997
0.818337
0.824267
0.820578
0.821002
0.809493
0.802452
0.798855
0.782302
0.781646
0.772782
0.770488