/*--------------------------------*- C++ -*----------------------------------*\
| =========                 |                                                 |
| \\      /  F ield         | OpenFOAM: The Open Source CFD Toolbox           |
|  \\    /   O peration     | Version:  2.1.1                                 |
|   \\  /    A nd           | Web:      www.OpenFOAM.org                      |
|    \\/     M anipulation  |                                                 |
\*---------------------------------------------------------------------------*/
FoamFile
{
    version     2.0;
    format      ascii;
    class       volScalarField;
    location    "0.005950000";
    object      rho;
}
// * * * * * * * * * * * * * * * * * * * * * * * * * * * * * * * * * * * * * //

dimensions      [1 -3 0 0 0 0 0];

internalField   nonuniform List<scalar> 
12384
(
0.821164
0.829757
0.833161
0.835725
0.833386
0.833044
0.830955
0.831746
0.830935
0.831931
0.831897
0.830059
0.813021
0.812955
0.938627
0.920197
0.909527
0.905678
0.903061
0.901516
0.896967
0.8957
0.894064
0.89575
0.895906
0.897248
0.896441
0.897056
0.895284
0.894878
0.893654
0.891625
0.891593
0.892429
0.890464
0.89266
0.899698
0.898018
0.902708
0.900656
0.906698
0.93495
0.98342
0.99352
0.921823
0.946514
0.937642
0.921581
0.908975
0.90389
0.891413
0.890487
0.877785
0.878123
0.87028
0.858882
0.859456
0.842662
0.847328
0.829719
0.837015
0.822651
0.826017
0.825761
0.82334
0.825466
0.829486
0.834581
0.839346
0.842455
0.845805
0.850117
0.84708
0.83604
0.845549
0.852729
0.858603
0.863607
0.86719
0.871458
0.876228
0.880725
0.88412
0.885326
0.884592
0.881524
0.877281
0.872562
0.869128
0.866275
0.867312
0.870545
0.871772
0.875565
0.880745
0.885103
0.885217
0.883103
0.884404
0.892037
0.888081
0.881453
0.880022
0.880777
0.797727
0.803904
0.805676
0.805925
0.805673
0.802336
0.801622
0.803396
0.801
0.805129
0.811158
0.810018
0.815441
0.821911
0.822537
0.827109
0.831859
0.834001
0.83461
0.834002
0.835082
0.847168
0.854516
0.846138
0.839149
0.835183
0.833505
0.831356
0.833592
0.83029
0.822706
0.813014
0.813826
0.819937
0.823466
0.826157
0.827808
0.828514
0.829246
0.828527
0.829681
0.824794
0.826424
0.817791
0.820107
0.811095
0.813704
0.803375
0.806364
0.798462
0.800185
0.797787
0.795997
0.800781
0.798338
0.801174
0.79881
0.803765
0.809585
0.812019
0.850342
0.852828
0.861532
0.857488
0.84576
0.834554
0.830669
0.828408
0.82718
0.827017
0.825994
0.826185
0.826084
0.825239
0.825744
0.825617
0.827857
0.831093
0.832654
0.835359
0.838438
0.839355
0.838534
0.838423
0.876264
0.923113
0.920118
0.914254
0.911035
0.908845
0.902141
0.8848
0.86506
0.851232
0.842591
0.834221
0.825244
0.820887
0.805802
0.808757
0.787941
0.796818
0.776587
0.786488
0.779144
0.780984
0.78594
0.793554
0.795469
0.79852
0.801843
0.804854
0.812501
0.820988
0.821755
0.819414
0.818523
0.818134
0.818356
0.818373
0.838741
0.83414
0.829242
0.825505
0.821618
0.815341
0.808301
0.798301
0.79663
0.779876
0.786448
0.776274
0.784819
0.781073
0.794297
0.794666
0.803315
0.807558
0.811464
0.814409
0.816537
0.806027
0.803693
0.803921
0.803552
0.805439
0.805556
0.80583
0.803396
0.803757
0.878455
0.860506
0.852064
0.842398
0.837443
0.831044
0.831135
0.818182
0.820662
0.798387
0.80707
0.784971
0.794631
0.784525
0.787908
0.787923
0.797089
0.800036
0.805833
0.81305
0.815102
0.817302
0.821777
0.820598
0.816776
0.816012
0.814584
0.814814
0.814802
0.814507
0.821781
0.812533
0.811413
0.810018
0.809289
0.807512
0.806898
0.796757
0.799156
0.772587
0.782185
0.748556
0.763577
0.742862
0.760551
0.749943
0.781761
0.774282
0.800237
0.797187
0.805525
0.804648
0.806086
0.807672
0.809361
0.809922
0.811444
0.81224
0.813659
0.81387
0.864357
0.86813
0.859795
0.847347
0.83084
0.822772
0.825119
0.828863
0.831798
0.8349
0.836203
0.839329
0.840491
0.845582
0.845723
0.849896
0.853021
0.854918
0.856147
0.856319
0.855259
0.852664
0.849016
0.845305
0.842302
0.839076
0.837272
0.833476
0.82922
0.854196
0.950846
0.948025
0.992957
1.06632
1.15384
1.16436
0.958219
0.783469
0.754284
0.75258
0.751063
0.751889
0.750306
0.753175
0.750463
0.759499
0.755473
0.768114
0.764138
0.779598
0.774145
0.788849
0.781638
0.79514
0.791101
0.806391
0.807815
0.819361
0.844602
0.959371
0.86704
0.861238
0.844328
0.829813
0.821666
0.819049
0.818227
0.816731
0.816651
0.817435
0.822076
0.828054
0.818621
0.814191
0.938952
0.914244
0.901363
0.896808
0.891965
0.888167
0.88529
0.888914
0.894777
0.899358
0.901303
0.900062
0.898906
0.895424
0.892497
0.888638
0.885441
0.883261
0.881546
0.884814
0.883996
0.892888
0.892807
0.901191
0.900711
0.904316
0.903654
0.919234
0.955956
0.986267
0.924509
0.943555
0.925102
0.907554
0.895887
0.891811
0.88447
0.881322
0.879228
0.869022
0.874295
0.857269
0.86412
0.841661
0.846407
0.83396
0.827644
0.826559
0.818599
0.822994
0.819638
0.823204
0.824319
0.828652
0.833192
0.839754
0.843786
0.848276
0.846071
0.832208
0.844771
0.851062
0.859107
0.861982
0.863843
0.86882
0.873057
0.877931
0.881406
0.882652
0.881324
0.878285
0.874058
0.870325
0.867059
0.866038
0.865878
0.864374
0.872544
0.872788
0.875066
0.880386
0.884281
0.884855
0.884554
0.887682
0.889197
0.878869
0.875064
0.874479
0.807484
0.805654
0.801687
0.798985
0.794946
0.792589
0.794204
0.791767
0.796232
0.794184
0.798557
0.807182
0.80731
0.812935
0.822
0.824266
0.828691
0.832743
0.834981
0.835103
0.833508
0.838621
0.850503
0.841357
0.827773
0.821562
0.818484
0.820712
0.822633
0.826973
0.82158
0.812935
0.817447
0.825351
0.829287
0.830458
0.832569
0.835332
0.837209
0.835704
0.834857
0.829617
0.828895
0.82108
0.820686
0.815638
0.812276
0.808758
0.805573
0.804213
0.79982
0.79999
0.801027
0.802364
0.802352
0.803582
0.802139
0.802131
0.806557
0.808012
0.850507
0.854069
0.852362
0.831361
0.823668
0.822303
0.823849
0.827486
0.831063
0.83357
0.835865
0.837455
0.835232
0.834663
0.835252
0.836732
0.835614
0.83729
0.839895
0.841103
0.842129
0.841721
0.840791
0.839203
0.848547
0.889115
0.929676
0.936898
0.931478
0.924523
0.870457
0.849381
0.83572
0.829398
0.826279
0.821711
0.815143
0.815753
0.796439
0.800022
0.782609
0.783496
0.773391
0.77631
0.771982
0.774928
0.776672
0.780911
0.789137
0.79489
0.799317
0.804138
0.809695
0.818803
0.822315
0.818463
0.814829
0.814888
0.814373
0.814314
0.829634
0.823706
0.822706
0.822018
0.821275
0.816063
0.812729
0.800702
0.801439
0.787143
0.791361
0.782576
0.783722
0.788257
0.792314
0.798229
0.803833
0.808866
0.813247
0.815194
0.81685
0.813963
0.805953
0.80786
0.810595
0.811459
0.813294
0.811655
0.810518
0.80767
0.876063
0.855321
0.843611
0.833639
0.832829
0.831637
0.832783
0.824374
0.824378
0.810938
0.8128
0.79844
0.800582
0.798644
0.795171
0.795497
0.796225
0.804512
0.811398
0.814024
0.816818
0.818918
0.820485
0.82088
0.817022
0.813043
0.812005
0.811599
0.810701
0.809322
0.822634
0.81126
0.809411
0.807578
0.80732
0.806009
0.806484
0.798256
0.797381
0.777828
0.781076
0.756576
0.762322
0.753517
0.753747
0.759577
0.774352
0.778098
0.798101
0.798397
0.810637
0.807197
0.809102
0.807159
0.80818
0.807638
0.807964
0.807753
0.809472
0.810128
0.842449
0.841136
0.838823
0.831539
0.82568
0.826931
0.833419
0.839105
0.842925
0.844492
0.845132
0.843974
0.843526
0.843663
0.846746
0.852804
0.854703
0.857891
0.859778
0.857964
0.85517
0.85107
0.847063
0.843604
0.84054
0.837336
0.837251
0.835299
0.830749
0.847677
0.80366
0.802684
0.820035
0.866278
1.04196
1.00125
0.820457
0.761085
0.752535
0.751055
0.751012
0.749671
0.751024
0.750254
0.75027
0.756954
0.756794
0.76716
0.76774
0.783671
0.787407
0.805602
0.804816
0.811976
0.797695
0.803899
0.807705
0.818848
0.84636
0.963425
0.870124
0.849719
0.830793
0.82319
0.826133
0.829213
0.830108
0.829131
0.823348
0.817675
0.814517
0.819899
0.819253
0.813711
0.933157
0.908068
0.893653
0.886462
0.880217
0.875315
0.882967
0.894503
0.904616
0.904511
0.901912
0.894722
0.888681
0.881109
0.875935
0.868583
0.864347
0.859214
0.85632
0.857131
0.861116
0.870438
0.881998
0.890397
0.901466
0.902424
0.906472
0.9085
0.934093
0.970466
0.926122
0.939261
0.915359
0.899062
0.894134
0.88839
0.886405
0.879525
0.883186
0.872943
0.879298
0.861522
0.867583
0.8448
0.849919
0.838542
0.826846
0.830906
0.817653
0.822394
0.817472
0.817441
0.821679
0.823882
0.828318
0.833481
0.839816
0.844515
0.844951
0.833083
0.842019
0.852567
0.857041
0.858718
0.860595
0.865893
0.871503
0.876083
0.878672
0.8791
0.877656
0.874832
0.871803
0.868733
0.865794
0.86443
0.865305
0.869881
0.864406
0.872756
0.872423
0.875678
0.881069
0.883856
0.883378
0.885056
0.886596
0.882628
0.870933
0.870832
0.800081
0.794707
0.793366
0.792449
0.791573
0.793858
0.790509
0.790311
0.789061
0.794542
0.790526
0.792793
0.803775
0.802279
0.809378
0.819908
0.823758
0.827434
0.831274
0.832353
0.831661
0.831586
0.843231
0.841408
0.823285
0.81634
0.814606
0.814638
0.819802
0.823276
0.81941
0.813927
0.822409
0.829097
0.832171
0.833663
0.838749
0.840451
0.838819
0.832925
0.830435
0.823806
0.823234
0.815035
0.816985
0.807291
0.806617
0.80226
0.798198
0.795218
0.797626
0.797534
0.797563
0.80368
0.803334
0.806763
0.803562
0.802823
0.803522
0.806837
0.852251
0.852626
0.831368
0.820781
0.821604
0.828131
0.836444
0.845362
0.848464
0.84734
0.844855
0.839934
0.834793
0.832566
0.828649
0.829701
0.830734
0.831778
0.83507
0.839735
0.84285
0.844018
0.843226
0.838657
0.838449
0.853649
0.891166
0.914144
0.924566
0.926471
0.85153
0.836302
0.831153
0.830333
0.825574
0.821878
0.815166
0.810412
0.790777
0.797995
0.771793
0.777925
0.766379
0.765441
0.765325
0.768121
0.772554
0.773359
0.781273
0.789418
0.794806
0.799834
0.80592
0.812238
0.820055
0.820964
0.816312
0.813508
0.810612
0.809226
0.820313
0.823304
0.827158
0.829641
0.827887
0.822044
0.817711
0.804479
0.805384
0.79303
0.790809
0.78906
0.788518
0.796348
0.790211
0.804765
0.802303
0.81121
0.812814
0.815287
0.815975
0.817246
0.810601
0.809945
0.812101
0.814308
0.814007
0.816201
0.815592
0.811447
0.86997
0.849027
0.834188
0.83249
0.83626
0.837782
0.841378
0.830185
0.827166
0.821152
0.811565
0.800204
0.806651
0.796183
0.801104
0.802626
0.801722
0.802815
0.812455
0.815668
0.816881
0.817899
0.819095
0.820523
0.818559
0.814809
0.81486
0.815925
0.813264
0.808631
0.820397
0.80952
0.806848
0.806014
0.807115
0.807197
0.807826
0.797563
0.798429
0.776969
0.784104
0.7542
0.769043
0.749522
0.762858
0.754089
0.779322
0.778123
0.79262
0.800179
0.808413
0.809356
0.810258
0.807324
0.808079
0.805174
0.80511
0.805937
0.806421
0.806726
0.834002
0.830895
0.82782
0.826098
0.828294
0.834979
0.841583
0.843637
0.840396
0.834603
0.826501
0.822572
0.821112
0.821702
0.82459
0.833793
0.840717
0.847535
0.853415
0.85484
0.849363
0.844265
0.841052
0.838516
0.836915
0.837076
0.83667
0.834684
0.830575
0.841741
0.789276
0.790363
0.807573
0.863582
0.917785
0.826984
0.76986
0.751693
0.74951
0.749072
0.748185
0.74934
0.748076
0.751823
0.749881
0.755956
0.753615
0.76598
0.762996
0.779106
0.784007
0.815123
0.826344
0.842897
0.829688
0.821194
0.818813
0.831779
0.861269
0.991789
0.86172
0.842019
0.83437
0.84316
0.849972
0.852956
0.853359
0.851293
0.843729
0.829569
0.817157
0.816681
0.81953
0.816116
0.933383
0.897673
0.881884
0.87165
0.865803
0.871595
0.888335
0.906122
0.908094
0.902743
0.891735
0.883449
0.874947
0.870149
0.864666
0.860918
0.853805
0.848253
0.840259
0.836027
0.8367
0.848302
0.856547
0.879605
0.890223
0.904852
0.903839
0.909866
0.924969
0.966902
0.926112
0.934689
0.909377
0.896511
0.89196
0.890119
0.884116
0.88276
0.883296
0.875778
0.879057
0.861568
0.859512
0.851644
0.839144
0.84315
0.825587
0.830854
0.819036
0.820976
0.817914
0.817748
0.815134
0.81974
0.822753
0.828996
0.834244
0.841858
0.842953
0.833056
0.838897
0.84671
0.850675
0.853016
0.857739
0.862996
0.86794
0.872381
0.873707
0.873216
0.871909
0.870303
0.86696
0.862933
0.862093
0.863252
0.866088
0.863095
0.872952
0.868763
0.875375
0.874701
0.877652
0.882418
0.884388
0.885082
0.888275
0.8847
0.87642
0.876317
0.788882
0.794723
0.796797
0.801104
0.803187
0.803037
0.80113
0.801895
0.80002
0.798032
0.802005
0.795232
0.794831
0.805637
0.801715
0.808696
0.8192
0.822681
0.824353
0.828214
0.8298
0.82873
0.835161
0.842043
0.82554
0.816041
0.812586
0.813634
0.815254
0.821065
0.819199
0.816027
0.82559
0.831793
0.83409
0.839122
0.841573
0.837741
0.83261
0.826315
0.823517
0.821885
0.819522
0.813699
0.809382
0.805685
0.794665
0.795927
0.786078
0.789641
0.787243
0.787424
0.793885
0.795649
0.803114
0.806143
0.806093
0.803537
0.802743
0.806077
0.852031
0.837529
0.816832
0.820161
0.831587
0.845634
0.855176
0.856036
0.852234
0.845846
0.837423
0.829353
0.824452
0.816568
0.813726
0.810771
0.812872
0.817172
0.820342
0.827785
0.835792
0.841379
0.842903
0.841392
0.838285
0.842503
0.862867
0.886827
0.904949
0.925915
0.840762
0.832685
0.832223
0.829581
0.824015
0.822362
0.809756
0.801436
0.787913
0.785792
0.763572
0.770538
0.755646
0.756247
0.756805
0.756221
0.764061
0.76886
0.774756
0.783396
0.789925
0.798088
0.802352
0.808003
0.818088
0.821079
0.820428
0.818228
0.813838
0.80958
0.822375
0.829015
0.833111
0.83323
0.829271
0.822316
0.81383
0.803942
0.802556
0.789607
0.787533
0.7874
0.786482
0.789484
0.793842
0.80446
0.802477
0.812758
0.813654
0.815768
0.816632
0.817301
0.814375
0.810121
0.81343
0.814753
0.815925
0.814556
0.81467
0.816227
0.86348
0.841348
0.831763
0.835906
0.84063
0.843263
0.842367
0.82718
0.830715
0.822543
0.801578
0.811152
0.794232
0.80104
0.792751
0.797589
0.80501
0.803205
0.809161
0.81457
0.817541
0.818248
0.819258
0.819956
0.819953
0.816989
0.816936
0.818995
0.817593
0.81
0.814497
0.806676
0.804619
0.805994
0.809496
0.808903
0.808816
0.796146
0.79691
0.776572
0.776174
0.761123
0.759007
0.758928
0.751216
0.765829
0.765918
0.782078
0.787655
0.797002
0.80745
0.809287
0.810154
0.807989
0.807873
0.804254
0.803839
0.805107
0.806521
0.806424
0.831851
0.827474
0.825307
0.827932
0.834867
0.841082
0.842668
0.837686
0.826805
0.815425
0.807431
0.80073
0.801211
0.805292
0.808785
0.814542
0.825477
0.8368
0.846826
0.852399
0.846141
0.839349
0.836508
0.83663
0.839048
0.839866
0.837974
0.834422
0.829787
0.838202
0.794698
0.794906
0.823641
0.854023
0.829965
0.778751
0.752598
0.749163
0.748654
0.747972
0.748135
0.74643
0.749108
0.747518
0.753667
0.749536
0.75629
0.760496
0.762723
0.772692
0.7725
0.8001
0.825489
0.85703
0.85684
0.857123
0.842882
0.853299
0.880332
1.04042
0.870218
0.858006
0.866775
0.873976
0.871944
0.868474
0.866748
0.865734
0.862654
0.84748
0.826421
0.816034
0.817341
0.815871
0.926366
0.892156
0.87081
0.861273
0.857005
0.87281
0.900254
0.9108
0.908749
0.895962
0.88749
0.878316
0.873125
0.867248
0.865409
0.861124
0.857676
0.846636
0.836147
0.827131
0.827126
0.830001
0.844004
0.859021
0.886295
0.897393
0.907116
0.908291
0.92176
0.959398
0.925746
0.930652
0.904859
0.894855
0.891121
0.887356
0.887267
0.881346
0.884765
0.875715
0.873788
0.859484
0.85476
0.850567
0.838741
0.837675
0.827375
0.830069
0.818616
0.822099
0.814615
0.81582
0.817333
0.815492
0.818633
0.824127
0.830361
0.838438
0.84063
0.831134
0.83749
0.84744
0.848356
0.848881
0.852463
0.858262
0.86331
0.867949
0.87023
0.868112
0.86437
0.861336
0.860705
0.864606
0.866673
0.866927
0.861802
0.870338
0.863644
0.87056
0.871671
0.878546
0.87542
0.882579
0.885921
0.885509
0.885938
0.886419
0.87626
0.874709
0.796322
0.802032
0.813188
0.814089
0.814929
0.815664
0.814957
0.812097
0.80759
0.801548
0.800837
0.806708
0.799313
0.79866
0.809423
0.804037
0.809428
0.820108
0.823251
0.823793
0.826576
0.827357
0.83009
0.840745
0.832472
0.823473
0.818025
0.814193
0.813608
0.817503
0.817939
0.81791
0.828874
0.83396
0.838056
0.842407
0.838919
0.830449
0.825624
0.8262
0.822204
0.823014
0.815604
0.812917
0.798562
0.79577
0.782927
0.779371
0.774324
0.770088
0.773138
0.779267
0.786141
0.790153
0.798701
0.804372
0.806673
0.804267
0.802946
0.80496
0.849004
0.828296
0.819718
0.830679
0.847067
0.859119
0.861849
0.856634
0.848412
0.838908
0.829225
0.822794
0.812418
0.804202
0.800272
0.797586
0.797348
0.801856
0.808699
0.815214
0.823201
0.833557
0.840303
0.842588
0.83905
0.839685
0.848906
0.860792
0.878716
0.915527
0.835104
0.832912
0.831711
0.828004
0.824748
0.819164
0.80255
0.796963
0.782781
0.773623
0.759524
0.762697
0.744342
0.752061
0.746321
0.749865
0.753976
0.766214
0.76901
0.77663
0.789476
0.794016
0.799417
0.808488
0.812957
0.819061
0.821177
0.818263
0.811288
0.804388
0.828226
0.833107
0.834849
0.832423
0.825819
0.818063
0.808087
0.802822
0.797463
0.783939
0.788542
0.782137
0.783537
0.791325
0.789231
0.803469
0.799419
0.816531
0.810538
0.818659
0.816447
0.817793
0.81888
0.814327
0.813554
0.814952
0.814966
0.814394
0.814657
0.817254
0.855182
0.832417
0.833561
0.839149
0.844482
0.846395
0.835488
0.828796
0.83499
0.806363
0.809276
0.803671
0.797649
0.790263
0.793043
0.787023
0.794908
0.803454
0.807586
0.811232
0.817451
0.81808
0.820295
0.820501
0.820926
0.818785
0.817549
0.819932
0.817196
0.807204
0.808219
0.80236
0.803589
0.808058
0.811829
0.808505
0.807513
0.792259
0.795287
0.768509
0.783797
0.75556
0.769596
0.751691
0.762395
0.767572
0.7596
0.786758
0.780129
0.797578
0.801602
0.808701
0.809007
0.807697
0.807442
0.804478
0.803199
0.805989
0.807181
0.808009
0.8286
0.824566
0.825971
0.832841
0.839151
0.842342
0.836151
0.825313
0.808339
0.797928
0.789686
0.788983
0.789048
0.791173
0.798177
0.803321
0.811018
0.824178
0.838824
0.848991
0.84364
0.834187
0.832708
0.836466
0.842764
0.843385
0.841362
0.835639
0.828119
0.835421
0.802473
0.797188
0.826969
0.825783
0.788149
0.756798
0.750543
0.748193
0.747122
0.746347
0.74549
0.747115
0.744983
0.748554
0.747567
0.755833
0.752877
0.761837
0.759219
0.774682
0.767795
0.785307
0.803658
0.854132
0.86275
0.867136
0.864308
0.868681
0.902538
1.09194
0.873124
0.875361
0.887998
0.881041
0.867793
0.862314
0.863447
0.864438
0.865434
0.857331
0.832443
0.818799
0.818408
0.816535
0.927818
0.883245
0.861341
0.848928
0.85524
0.879365
0.907217
0.914328
0.908322
0.897855
0.88901
0.880869
0.872117
0.865181
0.861245
0.86307
0.859656
0.850448
0.835089
0.825516
0.821901
0.827514
0.832444
0.856571
0.873011
0.89677
0.904323
0.911313
0.918711
0.960562
0.923312
0.927949
0.901125
0.892962
0.891327
0.887818
0.886725
0.884065
0.880001
0.878549
0.863754
0.863549
0.847655
0.852624
0.836196
0.842508
0.826599
0.83146
0.821925
0.817935
0.819159
0.817159
0.815915
0.815561
0.815025
0.821
0.826301
0.835521
0.83813
0.828545
0.830655
0.837932
0.839381
0.843076
0.848281
0.852556
0.857297
0.861482
0.862748
0.860054
0.856132
0.855205
0.858491
0.85991
0.858763
0.85461
0.859176
0.856547
0.869152
0.866408
0.872362
0.880469
0.879057
0.883722
0.887426
0.888982
0.889612
0.886562
0.879769
0.880058
0.802574
0.812708
0.824278
0.825353
0.815861
0.816433
0.807716
0.800486
0.793662
0.799435
0.793028
0.795794
0.805982
0.799155
0.800991
0.812365
0.806824
0.808454
0.819213
0.823303
0.824257
0.824563
0.82563
0.836956
0.838883
0.831098
0.822097
0.816299
0.813902
0.815608
0.818062
0.820831
0.831233
0.83643
0.841049
0.840108
0.831379
0.826805
0.824821
0.827115
0.822982
0.821906
0.808658
0.804728
0.785493
0.781122
0.764521
0.763485
0.753328
0.756352
0.756443
0.761059
0.775658
0.781609
0.79688
0.800454
0.806638
0.804941
0.801751
0.805099
0.844398
0.82247
0.82326
0.840524
0.859573
0.865035
0.86158
0.853068
0.844149
0.83523
0.82725
0.815698
0.803866
0.799199
0.792347
0.789071
0.788802
0.790634
0.796179
0.805943
0.814344
0.826514
0.834991
0.840084
0.842942
0.841942
0.847846
0.859308
0.874841
0.918358
0.833061
0.832323
0.830409
0.82799
0.823882
0.813836
0.797724
0.796232
0.773688
0.767824
0.757229
0.750964
0.7434
0.743626
0.744017
0.742506
0.753062
0.758611
0.762991
0.780001
0.783232
0.792445
0.803139
0.803738
0.810854
0.822221
0.823837
0.821197
0.81516
0.806495
0.829246
0.833036
0.834449
0.829712
0.822308
0.81173
0.808465
0.801078
0.7896
0.792932
0.791899
0.789961
0.789066
0.79151
0.791205
0.803774
0.799558
0.814129
0.812374
0.817449
0.817497
0.820806
0.819097
0.818134
0.815111
0.814757
0.81805
0.814558
0.811927
0.814661
0.847614
0.828844
0.83589
0.840549
0.847859
0.841188
0.835335
0.832733
0.825795
0.801879
0.816602
0.792344
0.796362
0.799681
0.794885
0.796005
0.789842
0.790717
0.809186
0.806158
0.817807
0.817605
0.820951
0.821342
0.821276
0.819982
0.818875
0.820582
0.810183
0.803174
0.804401
0.799198
0.803845
0.809881
0.81172
0.808528
0.804131
0.790216
0.792606
0.773235
0.785646
0.766745
0.776875
0.771279
0.765486
0.78317
0.767695
0.788788
0.779717
0.799161
0.794963
0.809559
0.806552
0.80737
0.807826
0.804066
0.803894
0.806333
0.808973
0.810107
0.830041
0.825513
0.829325
0.836032
0.841033
0.837923
0.827532
0.811662
0.795665
0.787414
0.78176
0.777536
0.779473
0.780108
0.786817
0.79695
0.80305
0.811504
0.827478
0.844446
0.842142
0.830039
0.830871
0.834446
0.843507
0.852639
0.844329
0.836832
0.826618
0.832725
0.819415
0.803655
0.811968
0.795037
0.770428
0.753025
0.750213
0.750549
0.747117
0.746731
0.749023
0.748027
0.749966
0.746978
0.7524
0.746771
0.758031
0.759706
0.758121
0.775602
0.769824
0.78251
0.785195
0.837228
0.867374
0.86697
0.868322
0.883984
0.920707
1.14217
0.893805
0.906821
0.905337
0.882137
0.865518
0.862847
0.865514
0.867787
0.865688
0.858841
0.835739
0.818212
0.819124
0.817441
0.923248
0.877009
0.851544
0.84526
0.851689
0.881963
0.910978
0.918271
0.911345
0.906251
0.89607
0.885634
0.87118
0.862113
0.855995
0.858965
0.8603
0.855138
0.838352
0.826739
0.826035
0.825255
0.838532
0.848405
0.875853
0.889971
0.907275
0.907484
0.920467
0.958715
0.921251
0.925157
0.898301
0.890071
0.891133
0.890948
0.887501
0.890069
0.877862
0.877675
0.864066
0.857036
0.856682
0.845108
0.847744
0.835449
0.83636
0.824308
0.828703
0.817826
0.812999
0.813232
0.811441
0.813458
0.813749
0.816638
0.824582
0.832605
0.83457
0.824412
0.830864
0.838313
0.840766
0.841635
0.842453
0.846943
0.853405
0.856528
0.855912
0.852844
0.850705
0.850686
0.852736
0.851
0.848826
0.854738
0.851088
0.861377
0.864711
0.869248
0.873485
0.88413
0.882571
0.886504
0.890925
0.892113
0.891267
0.887802
0.876491
0.878636
0.815617
0.827258
0.825389
0.832322
0.814218
0.817189
0.795628
0.80071
0.78913
0.789939
0.794161
0.787408
0.79168
0.803012
0.799003
0.800988
0.814227
0.811013
0.811021
0.816272
0.824628
0.825575
0.826909
0.834729
0.839785
0.835851
0.82418
0.816622
0.810983
0.814637
0.817428
0.823045
0.833122
0.838254
0.840589
0.834741
0.826489
0.825891
0.826795
0.826863
0.821087
0.819417
0.801384
0.795329
0.773515
0.771473
0.753474
0.753433
0.745526
0.746087
0.748849
0.7519
0.765635
0.77602
0.792302
0.799525
0.805943
0.804226
0.802018
0.805004
0.840836
0.821237
0.831046
0.852001
0.863304
0.864288
0.857902
0.849945
0.842474
0.835522
0.823718
0.809111
0.803221
0.792215
0.783029
0.782713
0.782425
0.787159
0.791807
0.795959
0.811358
0.819987
0.829349
0.84227
0.842647
0.840379
0.845656
0.853133
0.865299
0.910186
0.831607
0.830232
0.829138
0.827089
0.822044
0.809992
0.79705
0.79284
0.767634
0.770379
0.749933
0.751467
0.73921
0.742683
0.740316
0.742214
0.74726
0.758206
0.768204
0.772267
0.786476
0.797503
0.798623
0.807514
0.816141
0.81807
0.821422
0.819056
0.80956
0.801986
0.829022
0.831686
0.833116
0.82618
0.81683
0.810682
0.807978
0.793823
0.794798
0.792886
0.79278
0.787426
0.786438
0.797017
0.787525
0.808549
0.795543
0.817755
0.811196
0.818557
0.820012
0.820551
0.824113
0.823044
0.822034
0.822039
0.814816
0.808036
0.807211
0.816512
0.841657
0.8288
0.836531
0.84103
0.846624
0.838103
0.837383
0.828328
0.824172
0.804166
0.813811
0.785045
0.798904
0.78135
0.787733
0.790703
0.79746
0.785992
0.804347
0.801708
0.819659
0.815966
0.822087
0.822218
0.822111
0.82138
0.819538
0.813722
0.795602
0.791109
0.79995
0.797148
0.80394
0.809402
0.810949
0.806166
0.800058
0.788265
0.797359
0.776191
0.79294
0.775226
0.794704
0.7767
0.78261
0.788573
0.780257
0.796752
0.782863
0.800385
0.792305
0.809692
0.805951
0.808709
0.806763
0.806155
0.804028
0.807881
0.810308
0.812375
0.829218
0.825579
0.830457
0.837913
0.838982
0.832885
0.817107
0.803476
0.786642
0.779313
0.771124
0.767981
0.767598
0.7751
0.778454
0.787642
0.798957
0.805325
0.815607
0.836518
0.843702
0.829697
0.828024
0.830862
0.843553
0.853753
0.846723
0.834329
0.826978
0.832207
0.83638
0.806195
0.798661
0.77731
0.762917
0.756335
0.750609
0.750023
0.752097
0.747273
0.745334
0.747053
0.745188
0.747528
0.751202
0.748382
0.761074
0.751526
0.765077
0.772025
0.773096
0.783547
0.781304
0.810524
0.869254
0.876038
0.874276
0.894189
0.968904
1.18688
0.902646
0.9217
0.90297
0.866364
0.85296
0.8542
0.856364
0.857795
0.8573
0.848859
0.832786
0.821033
0.820336
0.81913
0.926054
0.870837
0.845813
0.837677
0.848938
0.87633
0.912029
0.920991
0.919417
0.913408
0.908928
0.894425
0.877289
0.858149
0.850871
0.85137
0.860172
0.858186
0.846399
0.833358
0.828678
0.83667
0.838615
0.859081
0.871578
0.895805
0.901006
0.91095
0.920664
0.964971
0.915565
0.921979
0.895142
0.886296
0.888254
0.892102
0.889866
0.892978
0.88144
0.876973
0.863162
0.8616
0.852829
0.854267
0.843488
0.843695
0.832211
0.830863
0.820324
0.820922
0.808468
0.810681
0.809016
0.810356
0.813733
0.814823
0.821756
0.831983
0.831622
0.822181
0.823715
0.829951
0.828291
0.829787
0.835901
0.838943
0.841815
0.846654
0.850707
0.85101
0.847017
0.8421
0.84178
0.849722
0.851118
0.847566
0.851422
0.859424
0.861892
0.872057
0.876798
0.884723
0.885213
0.889042
0.89337
0.89448
0.892525
0.883578
0.871023
0.874528
0.821142
0.833617
0.83727
0.829864
0.818019
0.812254
0.791259
0.792899
0.775132
0.778854
0.774515
0.785816
0.783809
0.787667
0.802493
0.798525
0.802425
0.8092
0.81674
0.813981
0.822358
0.823415
0.82732
0.832488
0.839079
0.833164
0.822734
0.81216
0.808298
0.811848
0.817269
0.825221
0.83469
0.839242
0.837467
0.829271
0.824878
0.824787
0.826593
0.828011
0.819402
0.815335
0.798146
0.789029
0.768134
0.767537
0.749933
0.748334
0.740143
0.74149
0.744505
0.747891
0.761009
0.776408
0.789182
0.800211
0.805468
0.803121
0.802316
0.805492
0.839105
0.823741
0.838329
0.857136
0.863722
0.86082
0.853781
0.847331
0.84303
0.834859
0.82305
0.809874
0.802442
0.78797
0.783638
0.781086
0.779475
0.782571
0.790575
0.79658
0.806089
0.817691
0.831798
0.838744
0.843604
0.849615
0.853252
0.852006
0.867405
0.899762
0.833537
0.83136
0.82868
0.82648
0.820072
0.810392
0.796782
0.78806
0.770288
0.768517
0.747817
0.752379
0.738366
0.739609
0.738515
0.746321
0.752279
0.753401
0.765539
0.782468
0.787812
0.792983
0.806553
0.812383
0.813262
0.819235
0.822047
0.819737
0.805718
0.797317
0.830419
0.830182
0.829375
0.823186
0.813085
0.81149
0.798495
0.794891
0.795134
0.792882
0.786402
0.792035
0.791693
0.793933
0.792954
0.804186
0.80043
0.813457
0.814845
0.820476
0.82005
0.824399
0.825797
0.826732
0.82604
0.821649
0.810012
0.805349
0.807723
0.81135
0.841913
0.833299
0.838288
0.839806
0.845535
0.838433
0.834016
0.820404
0.83061
0.798127
0.812897
0.783643
0.789254
0.777287
0.775747
0.777258
0.78774
0.792211
0.798032
0.79996
0.818286
0.818372
0.820573
0.822764
0.822117
0.821536
0.817527
0.795591
0.781277
0.781959
0.798872
0.800148
0.804877
0.810358
0.808357
0.803254
0.797691
0.790079
0.796779
0.779009
0.801177
0.788964
0.797294
0.790031
0.785675
0.802001
0.783385
0.808254
0.786255
0.803036
0.794674
0.808002
0.809178
0.809411
0.808707
0.807312
0.805818
0.809323
0.812759
0.812412
0.830701
0.82623
0.830786
0.837512
0.837254
0.826344
0.811455
0.795299
0.782842
0.769882
0.772182
0.766381
0.765262
0.771568
0.772449
0.779762
0.794634
0.802923
0.809068
0.827293
0.845788
0.831178
0.824772
0.829141
0.839116
0.847913
0.841956
0.831802
0.824196
0.830702
0.869506
0.82937
0.799489
0.775959
0.76086
0.756644
0.756572
0.751136
0.749204
0.752859
0.747407
0.745423
0.752847
0.750208
0.757112
0.747026
0.76258
0.748382
0.772116
0.762302
0.782624
0.778261
0.785863
0.793116
0.855048
0.893826
0.89404
0.918063
1.06423
1.20599
0.922854
0.938767
0.900478
0.860324
0.850487
0.85114
0.85078
0.847721
0.843454
0.836168
0.823208
0.818303
0.818664
0.818123
0.848091
0.908992
0.924806
0.878588
0.842841
0.838433
0.843675
0.869925
0.905181
0.924693
0.927443
0.926244
0.919563
0.907466
0.88373
0.860792
0.844514
0.843867
0.852738
0.861251
0.852809
0.841738
0.839654
0.83975
0.852952
0.858411
0.879898
0.889915
0.902042
0.906951
0.924494
0.963507
0.966901
0.941383
0.916639
0.917873
0.898126
0.884088
0.883261
0.888637
0.891451
0.89162
0.888478
0.875757
0.867309
0.857403
0.860755
0.847711
0.854234
0.83635
0.842689
0.824639
0.827707
0.810929
0.814722
0.806816
0.807353
0.810365
0.812676
0.816588
0.82196
0.830361
0.827952
0.816186
0.81269
0.80244
0.82339
0.829661
0.831036
0.828186
0.825208
0.82961
0.83698
0.846208
0.852514
0.848233
0.840424
0.841003
0.842222
0.842211
0.846897
0.849919
0.849952
0.858815
0.862169
0.878183
0.876307
0.886229
0.887645
0.89308
0.896483
0.895189
0.881475
0.868237
0.858527
0.859394
0.849157
0.8574
0.834716
0.848652
0.840441
0.840726
0.811115
0.81875
0.785309
0.794017
0.768559
0.775484
0.768624
0.770453
0.78378
0.782064
0.79357
0.797905
0.808129
0.802303
0.814488
0.813618
0.824931
0.823851
0.827468
0.831711
0.834435
0.825153
0.816246
0.805468
0.801693
0.805439
0.809713
0.80128
0.815886
0.824982
0.834422
0.836979
0.832805
0.826128
0.823004
0.823781
0.824887
0.826615
0.822175
0.8124
0.798417
0.790959
0.770202
0.76407
0.757219
0.744932
0.742524
0.745225
0.742305
0.750545
0.763728
0.78086
0.789962
0.800421
0.803396
0.801074
0.803015
0.811721
0.824997
0.81511
0.828467
0.824884
0.840902
0.85188
0.857408
0.854697
0.848244
0.844172
0.841763
0.834837
0.824321
0.81482
0.800819
0.790328
0.784914
0.785512
0.784208
0.785437
0.789235
0.798649
0.811496
0.820842
0.828376
0.840345
0.84937
0.848835
0.85155
0.861912
0.868285
0.830581
0.809432
0.806464
0.817062
0.814992
0.820157
0.821487
0.818638
0.811197
0.798089
0.787757
0.777171
0.769176
0.753318
0.755734
0.745189
0.748062
0.749833
0.749904
0.750176
0.764475
0.777999
0.779406
0.789305
0.804499
0.808967
0.810195
0.817129
0.824741
0.82308
0.805758
0.801465
0.802792
0.806477
0.815841
0.820239
0.823474
0.824475
0.818228
0.813348
0.80254
0.798163
0.790202
0.798284
0.784369
0.791925
0.786949
0.785019
0.798897
0.787308
0.809045
0.798967
0.813016
0.816789
0.819598
0.822783
0.825247
0.82915
0.832101
0.828906
0.814071
0.801406
0.803674
0.806376
0.812986
0.814705
0.812354
0.825572
0.824842
0.828729
0.834524
0.839787
0.835088
0.839671
0.81512
0.829826
0.792844
0.812147
0.775232
0.790462
0.768863
0.778424
0.776587
0.778213