/*--------------------------------*- C++ -*----------------------------------*\
| =========                 |                                                 |
| \\      /  F ield         | OpenFOAM: The Open Source CFD Toolbox           |
|  \\    /   O peration     | Version:  2.1.1                                 |
|   \\  /    A nd           | Web:      www.OpenFOAM.org                      |
|    \\/     M anipulation  |                                                 |
\*---------------------------------------------------------------------------*/
FoamFile
{
    version     2.0;
    format      ascii;
    class       volVectorField;
    location    "0.005950000";
    object      U;
}
// * * * * * * * * * * * * * * * * * * * * * * * * * * * * * * * * * * * * * //

dimensions      [0 1 -1 0 0 0 0];

internalField   nonuniform List<vector> 
12384
(
(2.06271 -1.25261 0)
(7.3439 -2.90261 0)
(13.5895 -3.74405 0)
(22.2189 -4.92974 0)
(31.4193 -4.59903 0)
(39.8349 -4.22327 0)
(46.4991 -2.6353 0)
(49.8047 -0.234689 0)
(50.1703 2.39154 0)
(46.0667 4.49424 0)
(38.0019 5.54884 0)
(26.5545 6.17863 0)
(14.7341 6.02527 0)
(4.43324 4.3716 0)
(-6.04198 4.25066 0)
(-19.2147 5.51202 0)
(-33.0043 5.60535 0)
(-45.0822 2.59775 0)
(-53.5807 1.79188 0)
(-55.7173 -2.60458 0)
(-52.4083 -5.10856 0)
(-42.2212 -8.45372 0)
(-26.1576 -10.9009 0)
(-6.91427 -11.8873 0)
(14.9832 -13.0593 0)
(38.0931 -12.892 0)
(62.1248 -13.1792 0)
(85.7523 -12.8821 0)
(109.28 -11.8147 0)
(130.676 -11.2574 0)
(150.936 -9.1511 0)
(167.968 -7.38833 0)
(178.705 -4.96371 0)
(185.317 0.382581 0)
(183.358 2.6946 0)
(171.173 8.79346 0)
(153.941 13.436 0)
(122.571 16.3534 0)
(88.9192 19.4604 0)
(53.4134 16.4246 0)
(24.048 13.4262 0)
(5.03211 6.76482 0)
(-3.78844 0.65998 0)
(-3.46603 -7.7261 0)
(-8.75469 3.68433 0)
(-25.3467 3.85089 0)
(-41.0184 1.88721 0)
(-51.2512 0.373541 0)
(-59.4848 -3.2341 0)
(-59.778 -4.67761 0)
(-54.3858 -9.49043 0)
(-41.4224 -11.5869 0)
(-16.8339 -16.7579 0)
(6.54663 -18.4366 0)
(41.6819 -18.8406 0)
(74.1245 -21.735 0)
(108.353 -17.0879 0)
(140.283 -19.3035 0)
(164.934 -12.2996 0)
(192.12 -14.0273 0)
(206.325 -9.31465 0)
(224.898 -7.75806 0)
(233.451 -4.88147 0)
(235.138 -1.97267 0)
(239.264 3.76553 0)
(231.506 4.46422 0)
(210.927 13.7915 0)
(181.984 19.4331 0)
(138.384 26.4506 0)
(87.2043 27.5548 0)
(39.2402 22.9455 0)
(3.58161 13.7499 0)
(-10.7196 0.0431198 0)
(-8.5568 -10.2618 0)
(-9.672 11.0349 0)
(-24.4942 10.9641 0)
(-37.8381 5.65492 0)
(-43.9166 3.38164 0)
(-37.6445 -5.07141 0)
(-20.403 -11.3471 0)
(8.3945 -16.9272 0)
(46.4959 -21.7431 0)
(91.9509 -24.9733 0)
(141.994 -27.3399 0)
(193.9 -27.1619 0)
(245.735 -25.9441 0)
(294.561 -23.7946 0)
(337.744 -20.7796 0)
(373.355 -17.0208 0)
(399.48 -10.065 0)
(409.455 -7.00625 0)
(409.696 10.542 0)
(399.989 9.36108 0)
(368.64 19.7822 0)
(325.814 29.7984 0)
(262.504 37.9446 0)
(186.049 40.202 0)
(112.436 34.1877 0)
(53.7334 24.4074 0)
(13.7381 14.4375 0)
(-9.07827 6.73786 0)
(-20.515 -2.0948 0)
(-19.2521 -7.49948 0)
(-8.14526 -9.92111 0)
(6.12085 -9.94399 0)
(29.8182 -22.0538 0)
(70.6985 -27.0367 0)
(116.746 -28.018 0)
(161.087 -26.4699 0)
(201.199 -21.7876 0)
(233.188 -18.0573 0)
(256.902 -14.9714 0)
(273.77 -8.64231 0)
(282.575 -6.16962 0)
(285.298 0.467263 0)
(276.122 3.13798 0)
(263.314 9.5748 0)
(247.186 10.8157 0)
(220.961 16.8694 0)
(189.382 20.379 0)
(152.19 24.3384 0)
(109.463 26.3424 0)
(63.3187 26.3925 0)
(20.8532 24.1353 0)
(-14.5462 20.3709 0)
(-41.332 16.3697 0)
(-60.2595 13.3726 0)
(-74.1461 11.2601 0)
(-82.9263 8.84347 0)
(-87.136 3.40815 0)
(-79.2621 -3.24559 0)
(-60.0683 -10.1048 0)
(-34.9289 -11.1881 0)
(-10.3061 -8.08593 0)
(-2.04142 1.7248 0)
(-6.70439 2.53574 0)
(-11.825 2.286 0)
(-14.2052 -0.00921229 0)
(-13.0813 -1.30284 0)
(-7.69141 -5.09798 0)
(4.40554 -8.73983 0)
(22.6929 -12.6634 0)
(46.9005 -14.6092 0)
(74.3639 -17.6829 0)
(103.82 -17.2412 0)
(133.779 -18.9423 0)
(161.952 -16.3281 0)
(189.558 -17.3601 0)
(211.365 -12.4721 0)
(232.07 -12.7557 0)
(244.073 -7.35483 0)
(255.574 -6.26128 0)
(257.192 0.722728 0)
(255.662 2.64555 0)
(243.464 8.42023 0)
(227.753 13.7804 0)
(198.623 15.9747 0)
(163.126 21.4471 0)
(121.899 22.0406 0)
(78.3423 21.8027 0)
(40.6888 16.7549 0)
(12.2788 11.3998 0)
(-3.25215 0.598714 0)
(-7.22315 -8.40781 0)
(-3.16938 3.73564 0)
(-7.89944 3.28958 0)
(-9.4506 1.74383 0)
(-5.35842 -1.535 0)
(5.5713 -6.30725 0)
(23.5327 -9.83618 0)
(47.3166 -12.1037 0)
(75.0055 -13.3353 0)
(104.951 -13.9112 0)
(136.018 -13.8038 0)
(167.1 -12.9076 0)
(196.082 -11.9678 0)
(221.174 -10.3774 0)
(241.983 -7.14347 0)
(256.272 -4.76531 0)
(262.21 -1.36726 0)
(262.062 4.36248 0)
(252.714 8.05569 0)
(232.858 13.6994 0)
(203.606 19.0827 0)
(164.793 24.0734 0)
(118.932 26.2342 0)
(70.0581 25.0242 0)
(27.9446 20.759 0)
(-5.26004 15.3089 0)
(-26.1534 8.29676 0)
(-34.2523 1.71621 0)
(-32.9699 -3.88466 0)
(-23.3193 -7.33469 0)
(-7.99231 -9.48169 0)
(0.14756 3.11416 0)
(3.96652 0.335564 0)
(16.5487 -5.69094 0)
(41.3654 -11.8115 0)
(77.1642 -16.8758 0)
(122.392 -20.1438 0)
(169.722 -20.6627 0)
(221.761 -21.3755 0)
(264.496 -18.9964 0)
(302.164 -13.3267 0)
(339.668 -13.3017 0)
(356.662 -5.75784 0)
(378.282 -4.97831 0)
(375.635 2.34095 0)
(376.392 6.4296 0)
(355.117 13.1216 0)
(325.11 20.4542 0)
(283.403 25.9806 0)
(226.601 30.6588 0)
(164.385 32.353 0)
(104.603 28.0953 0)
(54.0918 21.4262 0)
(16.6253 14.8737 0)
(-10.0854 9.85717 0)
(-29.2224 7.10869 0)
(-41.8335 3.60565 0)
(-47.0767 -1.3472 0)
(-42.1393 -5.88426 0)
(-27.3953 -9.92972 0)
(-9.4334 -10.127 0)
(-3.72636 5.10224 0)
(4.81098 -7.78197 0)
(33.0366 -17.515 0)
(76.2555 -22.5215 0)
(126.886 -24.7381 0)
(179.885 -23.4925 0)
(232.282 -21.9644 0)
(276.35 -16.5444 0)
(314.652 -15.2572 0)
(342.913 -7.46357 0)
(353.785 -3.49536 0)
(364.93 -0.853333 0)
(356.36 6.97839 0)
(336.666 10.9561 0)
(304.018 17.2865 0)
(264.109 24.9256 0)
(207.746 29.1907 0)
(148.195 32.1089 0)
(88.0535 27.1325 0)
(37.8196 21.2424 0)
(1.17464 13.6307 0)
(-22.7356 8.1311 0)
(-37.3372 4.03824 0)
(-45.6094 2.30197 0)
(-50.3524 -0.96592 0)
(-50.5962 -1.52557 0)
(-42.8035 -7.04499 0)
(-28.9109 -7.59611 0)
(-14.9584 -5.9806 0)
(-4.29452 -3.23299 0)
(-7.34422 10.132 0)
(-13.729 5.84572 0)
(-13.2695 2.37576 0)
(2.28766 -7.5574 0)
(32.3886 -14.4961 0)
(71.8849 -20.661 0)
(121.389 -22.1926 0)
(168.912 -26.3616 0)
(218.43 -18.9873 0)
(266.488 -23.3966 0)
(300.314 -11.7615 0)
(336.278 -13.6931 0)
(345.86 -1.44235 0)
(359.105 -0.520798 0)
(349.964 8.25821 0)
(334.956 15.1515 0)
(305.835 21.3713 0)
(259.013 27.4694 0)
(199.625 35.141 0)
(135.291 36.6998 0)
(70.7136 32.5415 0)
(16.4493 26.13 0)
(-23.0685 18.1391 0)
(-47.2961 10.204 0)
(-56.5699 3.17105 0)
(-56.9076 1.00224 0)
(-51.5897 -3.25275 0)
(-38.7555 -6.77498 0)
(-21.6836 -7.62938 0)
(-6.52045 -5.4963 0)
(-8.17422 11.2909 0)
(-14.7733 5.08505 0)
(-12.88 2.54627 0)
(2.21823 -6.91251 0)
(33.9946 -15.6527 0)
(79.1299 -21.6368 0)
(135.702 -26.3328 0)
(194.429 -27.2687 0)
(254.652 -24.7833 0)
(315.169 -25.7831 0)
(361.126 -15.1607 0)
(412.649 -16.1831 0)
(427.874 -3.19049 0)
(454.238 -2.81334 0)
(444.496 12.9851 0)
(427.011 9.12209 0)
(374.51 27.2189 0)
(324.092 29.221 0)
(241.851 39.5893 0)
(160.074 41.9921 0)
(82.5509 34.7836 0)
(25.4778 25.9831 0)
(-12.8882 15.2426 0)
(-31.2369 7.49166 0)
(-36.6828 3.06299 0)
(-37.0319 1.50339 0)
(-35.4296 0.366506 0)
(-27.2288 -4.1606 0)
(-13.709 -4.95427 0)
(-3.30102 -1.43689 0)
(6.71537 -7.99369 0)
(12.7659 -3.39835 0)
(12.2588 -3.05173 0)
(5.98513 1.57706 0)
(-6.76289 4.83824 0)
(-26.6448 7.75781 0)
(-50.741 9.96046 0)
(-77.284 11.0062 0)
(-103.425 9.71335 0)
(-124.985 7.8704 0)
(-141.207 2.87124 0)
(-146.821 0.86912 0)
(-145 -4.90901 0)
(-134.24 -7.22571 0)
(-116.7 -10.8847 0)
(-95.1268 -12.404 0)
(-68.2224 -13.3971 0)
(-40.7046 -14.4268 0)
(-11.6265 -14.8621 0)
(19.4934 -15.6832 0)
(51.7054 -16.5341 0)
(84.4959 -15.6042 0)
(114.045 -12.8316 0)
(135.326 -7.55372 0)
(143.783 -0.496238 0)
(135.995 9.62457 0)
(111.595 16.0097 0)
(75.8748 19.0096 0)
(38.2248 16.5993 0)
(10.1587 8.99315 0)
(8.92229 -12.1639 0)
(27.9838 -10.2838 0)
(42.5679 -6.32163 0)
(46.1787 -3.35113 0)
(46.1277 1.69842 0)
(40.1079 4.95535 0)
(26.0858 8.57286 0)
(4.42527 12.9388 0)
(-26.3146 15.5678 0)
(-59.8841 17.776 0)
(-96.192 17.4292 0)
(-129.327 14.7611 0)
(-155.387 8.30459 0)
(-167.364 4.58597 0)
(-170.987 -7.35174 0)
(-156.95 -7.52449 0)
(-139.213 -17.3419 0)
(-109.06 -15.3534 0)
(-76.4731 -21.9216 0)
(-40.7919 -17.2957 0)
(-9.03961 -18.7435 0)
(19.4759 -12.7609 0)
(39.9125 -10.7595 0)
(51.9322 -3.75118 0)
(58.0084 -1.91513 0)
(49.8777 2.85242 0)
(44.4823 5.95773 0)
(28.4059 8.07704 0)
(16.2751 7.7188 0)
(6.89055 6.86934 0)
(1.67745 -7.63179 0)
(6.29228 -12.3757 0)
(13.187 -15.3917 0)
(22.9239 -17.6484 0)
(33.6965 -17.1591 0)
(42.9356 -15.3281 0)
(50.5672 -9.82962 0)
(54.1663 -4.54608 0)
(53.9754 4.20569 0)
(50.3794 10.4041 0)
(43.3755 16.3602 0)
(33.5719 19.9038 0)
(20.6975 19.9577 0)
(6.78336 16.7875 0)
(-8.00038 12.5769 0)
(-22.5717 13.6339 0)
(-36.3735 11.7475 0)
(-44.7266 5.83853 0)
(-48.628 -0.472222 0)
(-46.9749 -8.68489 0)
(-40.3253 -16.863 0)
(-29.3345 -24.8535 0)
(-14.2074 -31.101 0)
(2.52652 -33.3329 0)
(21.2054 -36.0505 0)
(40.8365 -36.1809 0)
(61.2695 -37.2153 0)
(82.6761 -36.2207 0)
(103.63 -35.1748 0)
(124.898 -32.3587 0)
(144.945 -28.1748 0)
(162.739 -21.8414 0)
(176.873 -14.7232 0)
(185.661 -1.35266 0)
(185.252 7.01306 0)
(180.801 21.3062 0)
(169.899 31.9848 0)
(150.496 43.4621 0)
(126.992 49.4004 0)
(97.4782 48.9043 0)
(67.2878 40.493 0)
(38.1788 27.3327 0)
(16.055 12.4976 0)
(2.65141 -1.3643 0)
(-10.1603 12.355 0)
(-26.6326 11.2411 0)
(-40.5977 5.17014 0)
(-49.3674 -0.273186 0)
(-54.7816 -9.27857 0)
(-55.8289 -14.996 0)
(-47.5383 -27.2779 0)
(-36.5596 -35.4408 0)
(-14.0425 -46.967 0)
(12.1377 -54.3682 0)
(43.9495 -56.1979 0)
(77.4681 -59.8987 0)
(107.15 -51.8156 0)
(140.228 -51.613 0)
(161.16 -37.4325 0)
(185.128 -38.6039 0)
(201.006 -26.4225 0)
(214.919 -22.8058 0)
(227.877 -15.3222 0)
(230.704 -6.43918 0)
(234.404 4.59865 0)
(229.408 13.9212 0)
(218.614 31.2974 0)
(199.008 49.4162 0)
(172.061 67.0716 0)
(135.123 75.5809 0)
(91.6489 69.8431 0)
(49.5808 48.3799 0)
(17.6301 18.2902 0)
(0.570333 -7.80433 0)
(-8.61153 34.7131 0)
(-25.4034 30.2384 0)
(-35.9834 17.7907 0)
(-36.1152 6.32848 0)
(-28.5043 -14.7029 0)
(-11.2422 -31.6052 0)
(15.4349 -47.3617 0)
(50.0535 -60.6582 0)
(91.7494 -70.2272 0)
(137.915 -75.0091 0)
(186.345 -76.134 0)
(234.989 -73.4706 0)
(281.118 -67.9375 0)
(322.331 -59.9941 0)
(356.047 -49.1626 0)
(380.335 -31.7143 0)
(397.093 -15.0607 0)
(401.128 7.24013 0)
(394.057 25.9619 0)
(381.145 49.6627 0)
(351.995 76.7354 0)
(312.616 98.4307 0)
(259.402 109.786 0)
(195.05 102.461 0)
(128.386 81.0151 0)
(71.8061 52.9495 0)
(31.2718 29.4765 0)
(6.13622 3.15607 0)
(-3.27164 -12.3229 0)
(-2.01642 -23.1344 0)
(14.674 -39.4617 0)
(51.5173 -70.5352 0)
(97.8205 -81.3375 0)
(143.422 -80.7459 0)
(185.978 -73.7547 0)
(222.063 -62.3431 0)
(250.498 -51.5934 0)
(272.896 -38.4331 0)
(288.042 -24.9484 0)
(295.175 -13.4182 0)
(294.547 3.17498 0)
(291.032 10.025 0)
(278.576 24.9006 0)
(262.327 34.6573 0)
(244.439 44.5702 0)
(218.074 56.443 0)
(188.044 67.5433 0)
(154.529 75.3998 0)
(115.165 78.6346 0)
(70.5713 74.9343 0)
(26.605 67.3068 0)
(-12.0613 55.3791 0)
(-41.3066 44.3325 0)
(-61.7669 36.5156 0)
(-74.9868 26.8883 0)
(-78.1433 11.7976 0)
(-72.7526 -10.6437 0)
(-55.7199 -26.5078 0)
(-32.9748 -31.5043 0)
(-11.1876 -23.3253 0)
(-3.40244 7.07278 0)
(-9.84717 8.15716 0)
(-14.3641 5.41776 0)
(-14.8145 -0.662736 0)
(-10.8145 -6.83064 0)
(-1.439 -16.9427 0)
(13.8007 -27.4805 0)
(34.6157 -38.0121 0)
(60.2051 -44.3362 0)
(86.9034 -51.639 0)
(116.572 -50.7979 0)
(144.942 -53.5852 0)
(172.261 -48.2835 0)
(198.595 -47.7028 0)
(219.666 -38.0362 0)
(239.702 -34.7996 0)
(253.429 -21.7504 0)
(264.855 -14.8231 0)
(267.605 -0.855369 0)
(265.87 9.63939 0)
(260.007 22.732 0)
(243.734 33.9924 0)
(222.358 44.4527 0)
(196.594 56.2658 0)
(163.184 61.1886 0)
(125.432 61.9554 0)
(87.0973 53.5525 0)
(50.8111 38.6104 0)
(22.5371 17.1038 0)
(4.28569 -3.8604 0)
(-3.06447 11.4399 0)
(-6.25126 7.84766 0)
(-6.2624 1.10897 0)
(-0.156053 -9.44338 0)
(13.3996 -20.1062 0)
(33.0979 -28.7485 0)
(56.6821 -35.3758 0)
(82.4448 -38.9073 0)
(110.155 -40.513 0)
(139.592 -40.193 0)
(168.333 -38.672 0)
(195.741 -35.6308 0)
(221.906 -30.099 0)
(242.976 -22.4006 0)
(258.755 -13.6503 0)
(267.892 -3.35123 0)
(267.645 10.3594 0)
(261.294 22.4995 0)
(248.189 36.3652 0)
(227.79 50.4116 0)
(199.995 63.3424 0)
(165.534 72.461 0)
(124.564 73.6454 0)
(80.242 65.3142 0)
(40.0566 51.0521 0)
(8.60623 30.207 0)
(-9.26573 13.0986 0)
(-16.4908 -3.37211 0)
(-14.6749 -13.8782 0)
(-5.64584 -20.5304 0)
(1.78119 6.2554 0)
(10.2392 -3.75246 0)
(28.4304 -20.2351 0)
(57.5013 -37.6523 0)
(96.2206 -51.5996 0)
(143.613 -59.8737 0)
(188.454 -62.0884 0)
(236.75 -62.4569 0)
(284.13 -53.6462 0)
(321.032 -41.9807 0)
(356.732 -35.2263 0)
(377.325 -16.4865 0)
(398.261 -7.61258 0)
(393.351 11.0689 0)
(391.415 22.4375 0)
(377.236 36.7838 0)
(353.418 54.37 0)
(320.567 69.5014 0)
(280.491 81.2101 0)
(231.578 88.3082 0)
(175.797 84.3116 0)
(118.693 70.3221 0)
(66.1435 52.7576 0)
(23.598 37.218 0)
(-7.03802 25.373 0)
(-26.6692 14.2943 0)
(-36.0236 -0.154166 0)
(-33.847 -15.5668 0)
(-22.3657 -24.7797 0)
(-7.75053 -25.7621 0)
(1.93041 1.3386 0)
(22.1959 -31.7621 0)
(58.886 -55.6793 0)
(106.098 -68.7114 0)
(158.221 -72.8742 0)
(209.193 -67.9307 0)
(259.257 -62.6198 0)
(299.975 -47.6234 0)
(334.063 -40.2655 0)
(364.663 -25.2632 0)
(375.896 -10.1326 0)
(390.288 1.08406 0)
(383.545 19.7158 0)
(367.182 29.1113 0)
(344.378 50.7314 0)
(314.819 62.1643 0)
(273.765 79.1418 0)
(226.915 86.5472 0)
(171.777 83.022 0)
(114.223 70.0215 0)
(61.87 51.0395 0)
(19.2494 33.6315 0)
(-11.3644 19.7595 0)
(-31.657 11.1492 0)
(-43.2937 2.28565 0)
(-46.0217 -6.63928 0)
(-38.7002 -20.1007 0)
(-25.747 -23.7258 0)
(-13.2569 -18.7386 0)
(-3.60824 -10.7451 0)
(-4.55431 26.9489 0)
(-4.60895 12.4952 0)
(5.83792 -0.776415 0)
(28.2804 -25.3034 0)
(61.5734 -44.5085 0)
(101.994 -60.8412 0)
(150.572 -64.9742 0)
(199.194 -74.0091 0)
(247.033 -55.196 0)
(287.718 -59.2967 0)
(322.624 -37.2271 0)
(352.462 -28.9773 0)
(360.927 -9.10962 0)
(368 5.10405 0)
(367.927 21.439 0)
(355.068 40.3345 0)
(330.606 59.1087 0)
(299.044 75.5856 0)
(257.956 93.0714 0)
(205.334 102.87 0)
(145.516 100.03 0)
(84.6308 85.0794 0)
(29.0948 63.366 0)
(-11.4655 38.868 0)
(-36.5496 16.9261 0)
(-47.919 7.81846 0)
(-47.7671 -6.80956 0)
(-38.1437 -18.4546 0)
(-22.599 -21.7724 0)
(-7.13484 -16.3442 0)
(-3.66943 27.3335 0)
(-2.59894 9.63724 0)
(8.83028 -3.16984 0)
(33.9774 -26.6746 0)
(71.8214 -48.5264 0)
(120.047 -64.4751 0)
(177.401 -76.5411 0)
(236.015 -77.0774 0)
(296.799 -71.0762 0)
(353.142 -64.9109 0)
(399.17 -46.5407 0)
(445.518 -35.972 0)
(461.728 -13.4009 0)
(485.537 0.569469 0)
(479.784 23.5338 0)
(453.876 35.2819 0)
(424.064 68.0547 0)
(380.395 82.2488 0)
(326.128 108.632 0)
(269.669 113.757 0)
(193.032 109.182 0)
(119.844 88.1358 0)
(57.9637 60.8053 0)
(11.9367 35.1438 0)
(-16.8577 18.6688 0)
(-31.8941 10.0941 0)
(-37.2201 3.80708 0)
(-33.334 -9.20586 0)
(-21.4636 -15.2545 0)
(-6.77201 -7.75008 0)
(1.92515 -19.1074 0)
(1.80804 -8.01372 0)
(-3.64567 -2.64427 0)
(-15.5036 8.84661 0)
(-33.6513 17.32 0)
(-57.2115 25.0772 0)
(-83.0575 30.24 0)
(-108.958 31.409 0)
(-131.869 28.1455 0)
(-150.672 21.0468 0)
(-162.085 10.0657 0)
(-166.051 0.268824 0)
(-163.105 -13.6572 0)
(-150.57 -21.5965 0)
(-131.26 -32.4019 0)
(-105.822 -38.3475 0)
(-77.6127 -41.1043 0)
(-48.0868 -43.2425 0)
(-17.2421 -44.4314 0)
(13.448 -45.9052 0)
(44.9056 -46.944 0)
(76.3916 -44.9506 0)
(104.977 -37.5324 0)
(126.891 -22.9029 0)
(138.89 -3.40467 0)
(138.565 19.4957 0)
(125.19 40.8765 0)
(97.9197 53.8943 0)
(59.0062 53.0301 0)
(19.056 36.1033 0)
(8.84398 -28.0234 0)
(24.6028 -25.1059 0)
(35.4884 -15.0662 0)
(36.831 -4.34959 0)
(31.2905 7.40357 0)
(19.5538 17.1782 0)
(-4.49313 33.138 0)
(-38.9948 44.7646 0)
(-79.3454 52.2765 0)
(-120.245 54.9775 0)
(-156.373 50.4746 0)
(-185.067 39.7764 0)
(-202.368 23.0905 0)
(-211.68 7.17624 0)
(-214.495 -14.1762 0)
(-199.522 -24.3546 0)
(-182.756 -44.6011 0)
(-153.031 -48.164 0)
(-120.637 -59.4541 0)
(-83.6565 -53.7839 0)
(-50.4555 -53.3937 0)
(-21.9676 -38.7678 0)
(-0.308006 -30.7396 0)
(13.6977 -13.376 0)
(24.6189 -8.92006 0)
(24.5391 4.98968 0)
(27.3641 11.123 0)
(19.4337 18.7429 0)
(12.2826 20.5442 0)
(5.46728 20.2999 0)
(2.95143 -14.4746 0)
(10.0035 -20.7395 0)
(19.3474 -25.7031 0)
(29.2556 -28.4279 0)
(39.3842 -27.694 0)
(48.4106 -23.5641 0)
(54.3324 -14.3106 0)
(57.9631 -5.43503 0)
(58.2016 6.53452 0)
(54.8268 16.5657 0)
(47.6006 26.4801 0)
(35.2974 33.0908 0)
(21.9896 34.7765 0)
(7.65019 31.986 0)
(-7.81932 21.2056 0)
(-21.3484 22.69 0)
(-31.7992 17.0976 0)
(-39.3731 7.47761 0)
(-42.512 -4.00402 0)
(-40.6511 -16.8863 0)
(-34.7956 -28.3459 0)
(-25.8832 -40.6774 0)
(-15.4518 -46.9409 0)
(-3.96026 -51.8773 0)
(8.64021 -54.0797 0)
(22.6334 -56.4903 0)
(38.2512 -57.6245 0)
(55.5643 -58.1714 0)
(74.163 -56.6571 0)
(94.2532 -53.4025 0)
(113.891 -47.4395 0)
(132.598 -37.4859 0)
(147.895 -26.2831 0)
(161.342 -6.95513 0)
(167.822 6.76374 0)
(167.542 28.5435 0)
(163.969 44.9765 0)
(149.97 62.1997 0)
(134.704 73.7102 0)
(111.543 76.1348 0)
(84.6176 70.0669 0)
(56.6673 54.7035 0)
(30.8834 33.7892 0)
(10.6879 12.679 0)
(-9.58037 22.4554 0)
(-25.6624 18.1453 0)
(-38.3132 8.12068 0)
(-46.5304 -3.00133 0)
(-49.8092 -14.0363 0)
(-48.617 -28.1642 0)
(-40.4362 -42.2789 0)
(-30.6458 -60.4482 0)
(-10.6033 -74.9899 0)
(13.4465 -88.1809 0)
(42.2722 -93.1272 0)
(72.8788 -94.2074 0)
(98.2831 -85.4795 0)
(128.401 -77.656 0)
(144.173 -65.5791 0)
(164.94 -54.0744 0)
(180.406 -47.6441 0)
(192.248 -34.6691 0)
(206.066 -27.973 0)
(210.559 -11.8245 0)
(217.814 2.926 0)
(212.473 20.9968 0)
(203.516 43.3888 0)
(190.784 68.5506 0)
(171.108 95.5132 0)
(145.207 112.532 0)
(111.616 112.995 0)
(73.4344 89.3327 0)
(37.7906 49.5597 0)
(11.0807 8.12839 0)
(-9.1402 58.3648 0)
(-22.1659 48.0031 0)
(-31.3208 29.1653 0)
(-34.4428 6.46667 0)
(-27.9058 -24.198 0)
(-13.5351 -50.5752 0)
(8.75407 -75.1781 0)
(38.3622 -96.5496 0)
(74.2055 -111.959 0)
(115.118 -120.446 0)
(158.783 -123.322 0)
(202.166 -120.234 0)
(243.012 -111.761 0)
(279.781 -97.7123 0)
(310.914 -79.0693 0)
(335.821 -53.6748 0)
(349.777 -27.6387 0)
(357.153 3.66661 0)
(356.099 35.8113 0)
(342.901 69.0899 0)
(328.497 104.882 0)
(301.05 139.113 0)
(266.793 161.619 0)
(219.626 164.075 0)
(162.548 142.344 0)
(106.313 103.693 0)
(60.0682 62.2212 0)
(29.0212 20.8554 0)
(11.0088 -11.0715 0)
(1.6519 -29.8986 0)
(21.7629 -82.1724 0)
(67.2916 -124.598 0)
(111.988 -134.254 0)
(152.577 -128.776 0)
(188.083 -116.198 0)
(217.119 -98.5363 0)
(241.31 -77.7137 0)
(258.994 -58.1028 0)
(270.372 -36.4101 0)
(278.323 -20.4261 0)
(278.46 3.64049 0)
(272.996 21.2667 0)
(266.466 36.4377 0)
(251.551 54.6291 0)
(233.489 71.7326 0)
(214.816 84.4454 0)
(189.637 101.364 0)
(163.254 116.08 0)
(134.392 125.11 0)
(100.348 126.778 0)
(61.7918 118.662 0)
(23.0623 101.69 0)
(-10.6461 82.145 0)
(-36.3294 65.9671 0)
(-53.8391 46.2882 0)
(-61.0036 21.2928 0)
(-57.0829 -15.5706 0)
(-44.802 -40.3922 0)
(-27.5586 -48.8518 0)
(-9.28388 -37.5483 0)
(-3.67231 13.9995 0)
(-10.1956 13.8038 0)
(-13.7451 7.85138 0)
(-13.1885 -2.82436 0)
(-7.09365 -15.0045 0)
(4.49239 -30.4892 0)
(20.4964 -47.7281 0)
(40.4561 -63.0129 0)
(64.6475 -73.2051 0)
(89.3212 -83.7526 0)
(115.931 -82.2634 0)
(140.957 -86.2133 0)
(165.435 -78.2291 0)
(188.707 -78.2741 0)
(208.55 -63.8014 0)
(230.175 -58.3376 0)
(243.069 -37.6832 0)
(253.479 -25.0549 0)
(259.889 -3.80665 0)
(260.166 14.4892 0)
(252.506 33.1863 0)
(241.001 51.1744 0)
(222.595 67.5254 0)
(199.947 82.5376 0)
(172.757 91.6909 0)
(140.356 97.3487 0)
(106.371 90.1235 0)
(70.4638 71.9766 0)
(36.6106 43.6958 0)
(10.4995 10.1618 0)
(-4.54645 19.7381 0)
(-9.2295 11.6335 0)
(-7.41662 -0.724142 0)
(0.788888 -18.3358 0)
(14.1645 -35.0105 0)
(30.236 -47.3692 0)
(49.8922 -56.5615 0)
(72.1676 -61.9073 0)
(96.4865 -64.6213 0)
(122.242 -64.6218 0)
(148.524 -63.2681 0)
(175.405 -57.537 0)
(200.727 -50.8271 0)
(223.005 -39.9035 0)
(239.895 -24.6602 0)
(250.242 -6.83722 0)
(253.79 12.3334 0)
(248.22 32.9233 0)
(237.332 53.98 0)
(221.614 73.7649 0)
(200.944 92.6937 0)
(175.924 107.897 0)
(145.757 114.709 0)
(110.527 109.111 0)
(73.6953 90.7042 0)
(39.7289 60.6445 0)
(15.1334 30.7438 0)
(0.756057 2.87622 0)
(-4.22508 -17.0653 0)
(-2.86591 -28.0795 0)
(2.54609 7.37044 0)
(13.3317 -11.5751 0)
(33.9681 -38.9922 0)
(64.6623 -66.5575 0)
(104.106 -86.9115 0)
(148.865 -100.284 0)
(189.259 -103.753 0)
(234.175 -99.6713 0)
(276.455 -87.1676 0)
(306.074 -71.7919 0)
(341.149 -54.3193 0)
(356.221 -30.7144 0)
(375.886 -11.9102 0)
(378.844 15.6637 0)
(378.872 35.1904 0)
(367.016 57.7165 0)
(348.8 79.8541 0)
(321.056 102.75 0)
(288.219 121.342 0)
(250.815 133.482 0)
(204.651 135.217 0)
(153.522 122.587 0)
(103.112 100.045 0)
(57.6574 73.3046 0)
(22.3233 49.8565 0)
(-0.858888 28.8001 0)
(-14.1024 4.61063 0)
(-17.2695 -23.2977 0)
(-12.1669 -36.2452 0)
(-4.35579 -38.2954 0)
(9.16409 -10.3759 0)
(36.0246 -62.4647 0)
(75.8919 -97.2618 0)
(120.737 -114.106 0)
(167.688 -117.516 0)
(211.564 -109.919 0)
(255.721 -98.8577 0)
(290.348 -79.1709 0)
(319.387 -61.5711 0)
(346.774 -44.6539 0)
(360.801 -18.0971 0)
(373.475 0.525267 0)
(367.667 23.0488 0)
(358.242 43.5966 0)
(339.995 71.8772 0)
(315.987 88.8757 0)
(287.145 115.693 0)
(248.622 128.271 0)
(207.172 133.508 0)
(156.431 122.951 0)
(104.351 99.9004 0)
(56.1847 72.4842 0)
(16.293 47.7995 0)
(-11.3974 28.8052 0)
(-27.7753 10.294 0)
(-32.973 -10.3822 0)
(-28.6298 -31.6838 0)
(-19.2629 -36.0558 0)
(-8.87273 -28.609 0)
(-1.81844 -17.4605 0)
(-2.43291 39.2892 0)
(2.16903 13.5835 0)
(17.2117 -12.8749 0)
(42.3961 -47.3872 0)
(76.4845 -77.0385 0)
(115.632 -100.9 0)
(158.814 -108.235 0)
(204.54 -115.643 0)
(245.678 -92.3198 0)
(277.162 -93.1239 0)
(308.456 -59.8761 0)
(332.547 -47.4856 0)
(343.347 -17.3909 0)
(353.098 8.25176 0)
(345.775 32.9786 0)
(338.188 58.8556 0)
(318.603 87.4426 0)
(291.988 114.929 0)
(262.451 136.405 0)
(225.3 156.084 0)
(178.726 162.423 0)
(126.796 149.617 0)
(73.348 119.852 0)
(26.4615 80.7926 0)
(-8.2271 43.9271 0)
(-28.2064 20.4479 0)
(-34.371 -6.29461 0)
(-29.3988 -27.493 0)
(-17.5842 -33.5456 0)
(-5.54274 -26.4971 0)
(0.1798 36.0783 0)
(7.04632 8.73475 0)
(24.0761 -16.8456 0)
(53.8415 -51.1325 0)
(94.4199 -83.8623 0)
(142.976 -108.166 0)
(198.96 -124.432 0)
(254.159 -125.133 0)
(308.524 -117.46 0)
(359.352 -102.405 0)
(395.619 -78.4621 0)
(436.789 -58.7914 0)
(449.139 -27.0772 0)
(473.2 -3.06825 0)
(466.733 30.1083 0)
(456.637 53.0509 0)
(423.637 91.1653 0)
(395.418 119.431 0)
(345.527 157.955 0)
(301.112 173.506 0)
(242.71 181.307 0)
(176.424 160.689 0)
(110.057 125.98 0)
(51.7121 83.2486 0)
(8.24156 50.8381 0)
(-18.8379 29.4038 0)
(-32.9367 11.5168 0)
(-34.4462 -10.1925 0)
(-25.3524 -26.7316 0)
(-9.30292 -19.4886 0)
(-0.194364 -23.9265 0)
(-4.53209 -9.46848 0)
(-14.4711 3.63307 0)
(-30.8555 19.6656 0)
(-51.5371 33.0747 0)
(-75.178 44.3287 0)
(-100.209 50.1952 0)
(-125.417 49.8103 0)
(-149.081 44.2142 0)
(-167.887 32.6196 0)
(-182.774 17.1476 0)
(-189.803 -1.00162 0)
(-186.194 -22.4874 0)
(-174.02 -39.12 0)
(-153.756 -55.0425 0)
(-124.962 -66.8284 0)
(-93.2236 -72.2483 0)
(-61.1493 -73.6918 0)
(-29.3082 -74.154 0)
(0.940369 -75.6812 0)
(30.5769 -76.6775 0)
(60.1394 -73.581 0)
(87.7801 -62.2586 0)
(110.233 -39.3555 0)
(123.9 -9.24328 0)
(125.922 22.9249 0)
(116.025 58.0825 0)
(94.5524 84.1214 0)
(60.8898 91.6268 0)
(21.1315 74.1561 0)
(6.39832 -44.8076 0)
(16.0708 -40.3544 0)
(22.0233 -22.3975 0)
(17.7603 -1.59224 0)
(6.08426 16.9807 0)
(-12.3196 38.7812 0)
(-42.8412 66.4837 0)
(-79.3369 83.1236 0)
(-117.808 92.6412 0)
(-153.743 91.5489 0)
(-183.588 80.0331 0)
(-205.334 59.6386 0)
(-223.574 35.115 0)
(-230.82 6.86476 0)
(-233.446 -21.6481 0)
(-222.969 -41.6089 0)
(-207.861 -73.0115 0)
(-179.725 -81.9896 0)
(-148.595 -99.5948 0)
(-112.724 -92.4091 0)
(-78.3862 -89.2759 0)
(-48.3618 -66.0288 0)
(-26.8711 -51.5692 0)
(-12.1893 -25.5629 0)
(-0.407816 -18.2288 0)
(-1.7754 1.67675 0)
(4.28941 12.9811 0)
(4.09174 21.884 0)
(2.03541 28.717 0)
(1.23113 28.2054 0)
(2.38821 -21.8312 0)
(8.32506 -31.4017 0)
(16.9042 -38.2112 0)
(26.6164 -41.7084 0)
(35.6785 -39.6426 0)
(43.4557 -32.6136 0)
(49.1753 -20.7783 0)
(51.71 -7.90882 0)
(51.9467 7.2276 0)
(49.3049 21.9988 0)
(43.6775 35.9045 0)
(35.3239 45.4076 0)
(22.7541 49.3317 0)
(7.85448 47.5223 0)
(-7.17058 31.4678 0)
(-20.0422 29.1117 0)
(-32.2105 21.2441 0)
(-37.8885 6.44763 0)
(-40.0029 -8.22875 0)
(-38.0568 -23.8986 0)
(-34.48 -37.9641 0)
(-30.3037 -50.8905 0)
(-25.6088 -57.9703 0)
(-20.3714 -63.1115 0)
(-13.8625 -67.0568 0)
(-5.38125 -70.9227 0)
(5.90621 -74.7062 0)
(19.9099 -76.6163 0)
(36.2125 -76.5359 0)
(54.1285 -73.2347 0)
(72.7433 -66.682 0)
(90.4463 -54.4746 0)
(107.931 -39.9858 0)
(121.719 -18.5191 0)
(131.638 2.0555 0)
(139.616 30.7941 0)
(138.54 51.1875 0)
(133.086 74.7125 0)
(122.945 89.9881 0)
(106.445 98.5759 0)
(86.4242 95.7679 0)
(60.2095 81.1043 0)
(32.5864 57.3001 0)
(9.46011 32.6648 0)
(-8.17582 30.9643 0)
(-20.8708 24.1106 0)
(-31.212 9.40898 0)
(-36.53 -5.4243 0)
(-39.3973 -20.8122 0)
(-39.4989 -37.3919 0)
(-32.053 -57.8929 0)
(-25.0226 -80.5374 0)
(-8.02899 -100.73 0)
(13.3249 -118.424 0)
(36.6147 -125.932 0)
(66.3626 -124.007 0)
(84.292 -114.979 0)
(107.541 -97.0304 0)
(123.302 -88.2879 0)
(137.176 -68.4969 0)
(153.36 -64.1382 0)
(164.863 -48.6693 0)
(180.258 -38.1434 0)
(185.652 -20.7808 0)
(189.606 2.31612 0)
(188.894 25.5313 0)
(181.503 54.3226 0)
(169.18 83.9266 0)
(153.815 116.738 0)
(133.536 139.767 0)
(108.406 147.801 0)
(76.8306 127.06 0)
(43.9436 84.794 0)
(13.9341 35.7619 0)
(-8.03861 79.6362 0)
(-23.8033 64.0912 0)
(-33.002 38.5469 0)
(-33.316 8.46228 0)
(-29.6325 -29.4706 0)
(-19.609 -64.8273 0)
(-2.8133 -97.3476 0)
(21.0354 -126.541 0)
(50.7798 -147.982 0)
(84.8841 -160.566 0)
(121.697 -165.758 0)
(159.003 -162.416 0)
(195.235 -150.782 0)
(228.119 -132.46 0)
(255.236 -107.576 0)
(273.665 -77.6292 0)
(290.065 -40.0311 0)
(298.081 -3.71903 0)
(295.024 41.5172 0)
(292.303 82.4833 0)
(279.707 126.802 0)
(262.636 165.888 0)
(237.199 198.161 0)
(204.462 209.276 0)
(162.745 193.099 0)
(115.994 151.132 0)
(74.9518 98.0586 0)
(43.9624 42.4759 0)
(23.0429 -1.03107 0)
(7.88066 -21.7152 0)
(23.9305 -135.35 0)
(68.4948 -174.092 0)
(108.163 -179.757 0)
(139.202 -166.798 0)
(166.333 -149.478 0)
(190.8 -125.577 0)
(208.736 -101.692 0)
(223.392 -76.5014 0)
(232.578 -50.2586 0)
(237.876 -22.3968 0)
(242.581 1.00266 0)
(237.882 28.2359 0)
(229.721 53.4009 0)
(221.932 70.5005 0)
(204.888 93.1755 0)
(186.934 112.138 0)
(171.248 127.143 0)
(149.889 145.281 0)
(128.583 160.449 0)
(105.344 167.385 0)
(77.04 162.888 0)
(45.2327 146.204 0)
(13.4778 121.436 0)
(-12.964 96.4309 0)
(-30.3779 67.8939 0)
(-38.3053 29.4227 0)
(-37.3523 -17.1877 0)
(-28.0575 -51.5644 0)
(-15.553 -59.4279 0)
(-4.89056 -47.6826 0)
(-5.13854 22.1957 0)
(-12.2799 19.1442 0)
(-15.2578 8.99921 0)
(-13.1208 -6.08898 0)
(-6.62091 -23.6938 0)
(4.23932 -44.1402 0)
(19.9853 -66.2337 0)
(38.7976 -86.0435 0)
(59.5201 -98.3981 0)
(81.5753 -111.008 0)
(103.832 -109.122 0)
(124.882 -114.858 0)
(146.358 -103.33 0)
(169.527 -105.964 0)
(187.912 -86.5373 0)
(206.562 -80.5702 0)
(224.975 -55.6441 0)
(233.98 -35.9749 0)
(243.839 -9.0781 0)
(241.883 15.9254 0)
(237.382 41.7383 0)
(223.746 65.0825 0)
(206.732 86.408 0)
(185.817 106.388 0)
(161.939 117.369 0)
(136.714 125.791 0)
(106.168 121.186 0)
(75.0215 104.353 0)
(42.9218 72.0127 0)
(13.9327 31.1774 0)
(-5.32252 28.3192 0)
(-10.9721 14.8292 0)
(-11.4865 -3.83737 0)
(-6.3561 -27.5541 0)
(4.11331 -48.0345 0)
(17.617 -63.4688 0)
(32.7505 -74.2599 0)
(50.429 -81.157 0)
(70.9681 -85.6874 0)
(93.7724 -87.251 0)
(119.417 -85.5596 0)
(145.206 -80.7714 0)
(170.82 -72.9755 0)
(194.885 -56.5632 0)
(213.382 -37.0787 0)
(225.147 -11.9533 0)
(229.56 14.6178 0)
(227.319 41.599 0)
(217.086 69.3807 0)
(202.442 94.2644 0)
(184.84 115.985 0)
(164.618 133.774 0)
(142.921 144.579 0)
(117.022 143.161 0)
(87.2432 125.909 0)
(55.4461 94.0613 0)
(27.6604 56.0476 0)
(8.7226 16.986 0)
(-0.400515 -12.3735 0)
(-1.57301 -30.1954 0)
(2.6669 7.83611 0)
(13.3334 -21.5425 0)
(33.9949 -59.5842 0)
(64.3356 -94.7153 0)
(99.9879 -121.126 0)
(138.272 -137.763 0)
(174.829 -139.907 0)
(214.85 -130.637 0)
(246.294 -117.491 0)
(275.668 -94.6696 0)
(305.176 -69.7074 0)
(317.11 -44.7422 0)
(335.718 -13.1799 0)
(337.014 13.0746 0)
(336.064 44.3691 0)
(332.167 74.2803 0)
(318.667 101.653 0)
(299.036 128.196 0)
(271.621 152.916 0)
(241.91 168.588 0)
(206.186 174.817 0)
(165.718 167.296 0)
(120.942 142.868 0)
(78.6142 109.874 0)
(44.4397 77.9192 0)
(17.9864 45.8389 0)
(1.04426 12.9373 0)
(-4.77006 -23.286 0)
(-4.67652 -40.9544 0)
(-2.14312 -44.0012 0)
(13.0094 -31.8634 0)
(43.1836 -96.3174 0)
(79.8777 -135.116 0)
(117.365 -152.961 0)
(155.14 -154.445 0)
(190.749 -144.857 0)
(227.397 -127.186 0)
(255.289 -106.8 0)
(280.256 -81.7801 0)
(305.709 -57.2581 0)
(316.408 -27.7849 0)
(325.57 -0.115726 0)
(330.774 29.1296 0)
(326.821 56.7552 0)
(309.96 87.5145 0)
(291.153 112.022 0)
(269.972 143.142 0)
(237.806 157.79 0)
(208.1 173.066 0)
(167.712 166.397 0)
(124.001 147.157 0)
(79.6638 114.696 0)
(40.9788 80.6346 0)
(10.7749 49.8437 0)
(-8.02723 20.5922 0)
(-15.3085 -10.6665 0)
(-12.0892 -38.6524 0)
(-5.13512 -44.8112 0)
(-1.7059 -35.0125 0)
(0.454073 -18.017 0)
(-1.03667 47.606 0)
(5.83339 10.4803 0)
(21.8127 -27.9984 0)
(46.2258 -71.3636 0)
(78.284 -108.259 0)
(113.452 -139.341 0)
(151.76 -146.129 0)
(193.116 -148.826 0)
(220.747 -128.378 0)
(250.986 -117.505 0)
(277.741 -75.0844 0)
(288.502 -58.3438 0)
(305.766 -19.6126 0)
(304.242 13.2589 0)
(306.516 48.9961 0)
(296.374 80.8427 0)
(284.365 109.745 0)
(260.888 143.844 0)
(236.75 171.483 0)
(212.674 197.592 0)
(178.369 210.222 0)
(139.516 204.206 0)
(96.1836 174.117 0)
(52.8391 127.477 0)
(16.7683 77.5891 0)
(-6.4654 38.8324 0)
(-16.4032 -1.29871 0)
(-15.3289 -31.8234 0)
(-8.57058 -40.4943 0)
(-2.31747 -31.7592 0)
(2.0551 39.8384 0)
(10.613 3.67772 0)
(30.572 -34.2917 0)
(62.2357 -77.5571 0)
(102.562 -119.087 0)
(148.419 -149.555 0)
(199.985 -168.27 0)