/*--------------------------------*- C++ -*----------------------------------*\
| =========                 |                                                 |
| \\      /  F ield         | OpenFOAM: The Open Source CFD Toolbox           |
|  \\    /   O peration     | Version:  2.1.1                                 |
|   \\  /    A nd           | Web:      www.OpenFOAM.org                      |
|    \\/     M anipulation  |                                                 |
\*---------------------------------------------------------------------------*/
FoamFile
{
    version     2.0;
    format      ascii;
    class       volScalarField;
    location    "0.002600000";
    object      c;
}
// * * * * * * * * * * * * * * * * * * * * * * * * * * * * * * * * * * * * * //

dimensions      [0 0 0 0 0 0 0];

internalField   nonuniform List<scalar> 
12384
(
1
1
1
1
1
1
1
1
1
1
1
0.114825
0.00338036
2.07719e-05
0.00278863
0.0202972
0.0888001
0.190263
1
1
1
1
1
1
1
1
1
1
1
1
1
1
1
1
1
0.325172
0.120417
0.0665009
0.0142775
0.000264281
5.22601e-06
2.71191e-07
9.2359e-09
4.11769e-10
1
1
1
1
1
1
1
1
1
1
1
1
1
1
1
1
1
1
1
1
1
1
1
1
0.241906
0.0563373
0.0102369
0.000470783
7.9629e-06
4.4137e-08
0.0122839
0.0367592
1
1
1
1
1
1
1
1
1
1
1
1
1
1
1
1
1
0.326477
0.102744
0.0727665
0.0563058
0.0438751
0.031212
0.00735483
0.000788829
0.000135051
1.46308e-05
1.09444e-07
1.76946e-22
7.94954e-22
2.2769e-20
1.05777e-19
2.18245e-19
3.37727e-19
6.98565e-19
3.76561e-18
4.2206e-17
4.49231e-15
5.75682e-13
1.13781e-10
6.37983e-08
1.54781e-05
0.00101695
0.00215369
0.000379429
8.96699e-05
1.98411e-05
1.22655e-06
5.57947e-08
8.74376e-10
8.76048e-12
2.67925e-14
7.5494e-17
3.08861e-20
4.13125e-23
3.09109e-26
2.47622e-29
1.91012e-32
1.80481e-49
4.48036e-50
1.03081e-52
1.12479e-55
1.13871e-58
7.91527e-62
6.0178e-65
3.74731e-68
2.28124e-71
1.23808e-74
5.52464e-78
1.98934e-81
6.41618e-85
1.91158e-88
5.40795e-92
1.57542e-95
4.64459e-99
1.37681e-102
4.07012e-106
1.19981e-109
3.54611e-113
1.01846e-116
2.94187e-120
8.46143e-124
2.43624e-127
7.09464e-131
2.06282e-134
5.99512e-138
1.73522e-141
4.97818e-145
8.00873e-158
1.63225e-159
7.3466e-163
2.56168e-166
5.10971e-172
1.22637e-177
1.27066e-182
3.38879e-187
8.67667e-192
1.62472e-196
1.69857e-201
1.25363e-206
7.12265e-212
3.4884e-217
1.53117e-222
5.95416e-228
2.04359e-233
6.3122e-239
1.74001e-244
4.43259e-250
1.0375e-255
2.29883e-261
4.81167e-267
9.79239e-273
1.94845e-278
3.91781e-284
8.21909e-290
1.96193e-295
6.41713e-301
5.21098e-306
0
0
0
0
0
0
0
0
0
0
0
0
0
0
0
0
0
0
0
0
0
0
0
0
0
0
0
0
0
0
0
0
0
0
0
0
0
0
0
0
0
0
0
0
0
0
0
0
0
0
0
0
0
0
0
0
0
0
0
0
0
0
0
0
0
0
0
0
0
0
0
0
0
0
0
0
0
0
0
0
0
0
0
0
0
0
0
0
0
0
0
0
0
0
0
0
0
0
0
0
0
0
0
0
0
0
0
0
0
0
0
0
0
0
0
0
0
0
0
0
0
0
0
0
0
0
0
0
0
0
0
0
0
0
0
0
0
0
0
0
0
0
0
0
0
0
0
0
0
0
0
0
0
0
0
0
0
0
0
0
0
0
0
0
0
0
0
0
0
0
0
0
0
0
0
0
0
0
0
0
1
1
1
1
1
1
1
1
1
1
1
0.0570139
0.000488403
5.81926e-06
0.0204992
0.242445
1
1
1
1
1
1
1
1
1
1
1
1
1
1
1
1
1
1
1
1
1
1
0.306029
0.0210999
0.000159563
8.88962e-06
3.14801e-07
1.18135e-08
1
1
1
1
1
1
1
1
1
1
1
1
1
1
1
1
1
1
1
1
1
1
1
1
1
0.99508
0.123421
0.0313438
0.00139833
7.38564e-06
0.0300826
1
1
1
1
1
1
1
1
1
1
1
1
1
1
1
1
1
1
1
1
1
1
1
1
0.215303
0.0600354
0.0312248
0.00304574
1.93856e-05
1.74872e-19
8.83569e-19
3.41028e-17
1.90476e-16
3.92923e-16
4.7056e-16
8.8615e-16
3.69166e-15
4.92293e-14
7.09103e-12
1.39734e-09
2.60052e-07
0.000240638
0.0200575
0.127091
0.150579
0.0954728
0.0507037
0.00529729
0.00053353
4.63427e-05
9.74083e-07
1.72321e-08
6.23863e-11
1.62195e-13
1.53297e-17
6.25253e-20
2.30037e-23
1.51951e-26
1.15697e-29
5.01818e-46
1.44687e-46
3.84828e-49
4.31529e-52
5.18508e-55
3.7696e-58
3.15685e-61
1.87459e-64
1.09926e-67
5.27264e-71
2.14857e-74
5.80916e-78
1.54481e-81
2.96351e-85
1.9415e-89
1.40369e-93
1.18547e-97
1.15053e-101
1.28073e-105
1.72618e-109
2.97715e-113
7.93238e-117
2.36627e-120
8.47184e-124
3.52175e-126
1.47118e-129
5.2307e-133
1.7679e-136
5.58306e-140
1.712e-143
2.86368e-154
5.96822e-156
2.33046e-159
7.43526e-163
1.79169e-166
5.81225e-172
9.11627e-177
2.52585e-181
9.26349e-186
1.83493e-190
1.91674e-195
1.37895e-200
7.31391e-206
3.29509e-211
1.3494e-216
5.00198e-222
1.665e-227
4.98847e-233
1.33883e-238
3.2949e-244
7.44303e-250
1.58182e-255
3.17349e-261
6.15918e-267
1.16591e-272
2.21365e-278
4.35963e-284
9.64232e-290
2.82494e-295
1.66874e-300
9.88131e-324
0
0
0
0
0
0
0
0
0
0
0
0
0
0
0
0
0
0
0
0
0
0
0
0
0
0
0
0
0
0
0
0
0
0
0
0
0
0
0
0
0
0
0
0
0
0
0
0
0
0
0
0
0
0
0
0
0
0
0
0
0
0
0
0
0
0
0
0
0
0
0
0
0
0
0
0
0
0
0
0
0
0
0
0
0
0
0
0
0
0
0
0
0
0
0
0
0
0
0
0
0
0
0
0
0
0
0
0
0
0
0
0
0
0
0
0
0
0
0
0
0
0
0
0
0
0
0
0
0
0
0
0
0
0
0
0
0
0
0
0
0
0
0
0
0
0
0
0
0
0
0
0
0
0
0
0
0
0
0
0
0
0
0
0
0
0
0
0
0
0
0
0
0
0
0
0
0
0
0
1
1
1
1
1
1
1
1
1
1
1
0.150386
0.0100098
9.42064e-05
0.0839761
1
1
1
1
1
1
1
1
1
1
1
1
1
1
1
1
1
1
1
1
1
1
1
0.252353
0.0328655
0.00393022
0.000296458
8.04669e-06
1.64315e-07
1
1
1
1
1
1
1
1
1
1
1
1
1
1
1
1
1
1
1
1
1
1
1
1
1
1
0.989031
0.086153
0.00589316
5.35616e-05
1
1
1
1
1
1
1
1
1
1
1
1
1
1
1
1
1
1
1
1
1
1
1
1
1
1
1
0.965805
0.0367836
0.000676479
1.67963e-16
1.3409e-15
5.70354e-14
2.99011e-13
5.00576e-13
4.93301e-13
7.78007e-13
3.84112e-12
4.91573e-11
1.20033e-08
2.82611e-06
0.000598854
0.0487641
0.266522
1
1
1
1
0.223163
0.0576928
0.0115453
0.000335673
1.47273e-05
1.16418e-07
7.54247e-10
1.27219e-12
3.94167e-16
4.94947e-20
1.48242e-23
8.41993e-27
2.84341e-42
1.32513e-42
4.15621e-45
6.61951e-48
5.86096e-51
3.95131e-54
2.35284e-57
1.36166e-60
8.12057e-64
4.96453e-67
2.48665e-70
8.83999e-74
2.17817e-77
4.61198e-81
2.3469e-86
2.82847e-90
3.94681e-94
4.5766e-98
4.66017e-102
5.64924e-106
1.08962e-109
2.79943e-113
7.61027e-117
2.03038e-120
1.28998e-122
3.57155e-126
9.009e-130
2.51141e-133
5.07738e-137
6.48811e-141
1.78916e-150
3.72306e-152
1.44398e-155
4.08841e-159
8.71902e-163
1.94681e-166
4.64568e-171
1.34768e-175
8.38909e-180
1.65668e-184
1.7659e-189
1.30906e-194
6.77789e-200
2.91497e-205
1.12455e-210
3.98257e-216
1.28827e-221
3.76889e-227
9.87178e-233
2.34211e-238
5.07109e-244
1.02159e-249
1.94072e-255
3.54148e-261
6.28742e-267
1.10681e-272
2.00964e-278
4.03419e-284
1.03843e-289
4.45297e-295
1.77891e-317
6.26969e-321
0
0
0
0
0
0
0
0
0
0
0
0
0
0
0
0
0
0
0
0
0
0
0
0
0
0
0
0
0
0
0
0
0
0
0
0
0
0
0
0
0
0
0
0
0
0
0
0
0
0
0
0
0
0
0
0
0
0
0
0
0
0
0
0
0
0
0
0
0
0
0
0
0
0
0
0
0
0
0
0
0
0
0
0
0
0
0
0
0
0
0
0
0
0
0
0
0
0
0
0
0
0
0
0
0
0
0
0
0
0
0
0
0
0
0
0
0
0
0
0
0
0
0
0
0
0
0
0
0
0
0
0
0
0
0
0
0
0
0
0
0
0
0
0
0
0
0
0
0
0
0
0
0
0
0
0
0
0
0
0
0
0
0
0
0
0
0
0
0
0
0
0
0
0
0
0
0
0
1
1
1
1
1
1
1
1
1
1
1
0.306749
0.0342443
0.000652355
0.19885
1
1
1
1
1
1
1
1
1
1
1
1
1
1
1
1
1
1
1
1
1
1
1
0.998731
0.21245
0.0270315
0.0021509
5.15734e-05
9.0955e-07
1
1
1
1
1
1
1
1
1
1
1
1
1
1
1
1
1
1
1
1
1
1
1
1
1
1
0.993797
0.105517
0.015029
0.000279777
1
1
1
1
1
1
1
1
1
1
1
1
1
1
1
1
1
1
1
1
1
1
1
1
1
1
1
0.993714
0.0804479
0.00672052
2.30476e-13
2.4725e-12
5.85713e-11
2.56598e-10
3.89043e-10
3.99685e-10
5.71604e-10
3.9177e-09
5.41467e-08
1.77395e-05
0.00460584
0.0408651
0.331991
1
1
1
1
1
1
1
0.337331
0.0704981
0.006462
7.02503e-05
4.76169e-07
1.81129e-09
2.6727e-12
7.61144e-16
7.40853e-20
1.36916e-23
5.5846e-38
2.39323e-38
4.58988e-41
3.71608e-44
1.98877e-47
9.30098e-51
4.27195e-54
2.03798e-57
1.10131e-60
6.55669e-64
4.28404e-67
2.89631e-70
1.69696e-73
6.02563e-77
1.45749e-80
2.50742e-84
3.80746e-88
4.73791e-92
5.00926e-96
5.76452e-100
1.03265e-103
2.637e-107
6.97027e-111
1.802e-114
4.62629e-118
1.13472e-121
2.53187e-125
5.31096e-129
8.9613e-133
1.00339e-136
1.00924e-145
1.65811e-147
6.58003e-151
1.66681e-154
4.05486e-158
8.25739e-162
1.71197e-165
4.88032e-170
5.20436e-174
1.03622e-178
1.20922e-183
1.00348e-188
5.58035e-194
2.48031e-199
9.53427e-205
3.3248e-210
1.06414e-215
3.12519e-221
8.17279e-227
1.91991e-232
4.03692e-238
7.80034e-244
1.39895e-249
2.39191e-255
3.91725e-261
6.27241e-267
1.01649e-272
1.78858e-278
3.81732e-284
1.16967e-289
9.99106e-312
3.40648e-315
1.99158e-320
0
0
0
0
0
0
0
0
0
0
0
0
0
0
0
0
0
0
0
0
0
0
0
0
0
0
0
0
0
0
0
0
0
0
0
0
0
0
0
0
0
0
0
0
0
0
0
0
0
0
0
0
0
0
0
0
0
0
0
0
0
0
0
0
0
0
0
0
0
0
0
0
0
0
0
0
0
0
0
0
0
0
0
0
0
0
0
0
0
0
0
0
0
0
0
0
0
0
0
0
0
0
0
0
0
0
0
0
0
0
0
0
0
0
0
0
0
0
0
0
0
0
0
0
0
0
0
0
0
0
0
0
0
0
0
0
0
0
0
0
0
0
0
0
0
0
0
0
0
0
0
0
0
0
0
0
0
0
0
0
0
0
0
0
0
0
0
0
0
0
0
0
0
0
0
0
0
1
1
1
1
1
1
1
1
1
1
0.999771
0.99687
0.16801
0.0129761
0.594226
0.999425
1
1
1
1
1
1
1
1
1
1
1
1
1
1
1
1
1
1
1
1
1
1
1
1
0.128067
0.00730459
0.000102666
1.66286e-06
1
1
1
1
1
1
1
1
1
1
1
1
1
1
1
1
1
1
1
1
1
1
1
1
1
1
1
0.981964
0.0868003
0.00278506
1
1
1
1
1
1
1
1
1
1
1
1
1
1
1
1
1
1
1
1
1
1
1
1
1
1
1
1
0.983478
0.0297737
3.7746e-10
3.34434e-09
3.21368e-08
1.13753e-07
1.77167e-07
2.25491e-07
3.08396e-07
3.22986e-06
4.29389e-05
0.00711088
0.0625941
0.247715
0.997892
1
1
1
1
1
1
1
1
1
0.29993
0.0329741
0.00020249
9.14601e-07
2.03435e-09
2.37456e-12
4.98162e-16
4.04714e-20
9.5269e-34
1.54544e-34
1.44324e-37
7.50076e-41
2.59438e-44
8.67557e-48
2.26443e-51
8.25809e-55
3.80343e-58
2.32807e-61
1.66701e-64
1.28324e-67
9.85597e-71
7.2738e-74
3.86719e-77
1.42275e-80
3.32146e-84
5.89553e-88
8.28043e-92
1.1181e-95
2.32375e-99
6.61548e-103
1.94789e-106
5.77527e-110
1.53469e-113
4.16326e-117
9.48357e-121
2.0142e-124
3.37509e-128
3.92998e-132
3.0472e-141
5.16083e-143
2.08992e-146
6.25066e-150
1.45916e-153
3.33674e-157
6.80507e-161
1.48759e-164
2.4332e-168
4.28318e-173
4.9734e-178
4.20896e-183
2.63558e-188
1.33399e-193
5.64754e-199
2.04937e-204
6.78624e-210
2.05361e-215
5.55051e-221
1.32939e-226
2.81224e-232
5.34796e-238
9.27436e-244
1.49795e-249
2.25787e-255
3.2211e-261
4.59049e-267
6.98032e-273
1.23204e-278
2.78509e-284
6.99721e-306
2.0783e-309
9.35813e-315
2.99404e-320
0
0
0
0
0
0
0
0
0
0
0
0
0
0
0
0
0
0
0
0
0
0
0
0
0
0
0
0
0
0
0
0
0
0
0
0
0
0
0
0
0
0
0
0
0
0
0
0
0
0
0
0
0
0
0
0
0
0
0
0
0
0
0
0
0
0
0
0
0
0
0
0
0
0
0
0
0
0
0
0
0
0
0
0
0
0
0
0
0
0
0
0
0
0
0
0
0
0
0
0
0
0
0
0
0
0
0
0
0
0
0
0
0
0
0
0
0
0
0
0
0
0
0
0
0
0
0
0
0
0
0
0
0
0
0
0
0
0
0
0
0
0
0
0
0
0
0
0
0
0
0
0
0
0
0
0
0
0
0
0
0
0
0
0
0
0
0
0
0
0
0
0
0
0
0
0
1
1
1
1
1
1
1
1
1
1
1
1
0.995118
0.103988
1
1
1
1
1
1
1
1
1
1
1
1
1
1
1
1
1
1
1
1
1
1
1
1
1
1
0.105748
0.0215961
0.00137574
3.00009e-05
1
1
1
1
1
1
1
1
1
1
1
1
1
1
1
1
1
1
1
1
1
1
1
1
1
1
1
0.997188
0.126661
0.00568891
1
1
1
1
1
1
1
1
1
1
1
1
1
1
1
1
1
1
1
1
1
1
1
1
1
1
1
1
1
0.0464419
5.21509e-07
2.55129e-06
9.54673e-06
2.7706e-05
4.68641e-05
7.7413e-05
9.79079e-05
0.00114412
0.00658436
0.0541329
0.308237
0.996259
1
1
1
1
1
1
1
1
1
1
1
0.444494
0.0632681
0.000746965
7.99681e-07
1.2457e-09
8.99168e-13
9.77201e-17
7.83974e-30
4.57064e-31
2.96762e-34
1.06901e-37
3.10502e-41
8.85512e-46
6.65746e-50
7.16173e-54
4.27572e-57
3.63781e-60
3.4477e-63
3.1778e-66
2.73379e-69
2.17836e-72
1.73585e-75
1.16807e-78
6.79404e-82
3.07753e-85
1.29136e-88
5.04026e-92
1.87472e-95
6.69253e-99
2.34328e-102
7.91821e-106
2.46065e-109
7.39619e-113
1.92249e-116
4.47226e-120
8.29699e-124
1.04286e-127
4.16057e-137
6.4031e-139
2.95781e-142
9.38128e-146
2.5267e-149
6.056e-153
1.39257e-156
3.09488e-160
7.13311e-164
1.56812e-167
1.5994e-172
1.1906e-177
7.25112e-183
3.87207e-188
1.81066e-193
7.53269e-199
2.77773e-204
9.17183e-210
2.65308e-215
6.72176e-221
1.47327e-226
2.85519e-232
4.9369e-238
7.75581e-244
1.08384e-249
1.38495e-255
1.72668e-261
2.27754e-267
3.35598e-273
5.7025e-279
5.73166e-300
1.66605e-303
4.94872e-309
1.18733e-314
2.59187e-320
0
0
0
0
0
0
0
0
0
0
0
0
0
0
0
0
0
0
0
0
0
0
0
0
0
0
0
0
0
0
0
0
0
0
0
0
0
0
0
0
0
0
0
0
0
0
0
0
0
0
0
0
0
0
0
0
0
0
0
0
0
0
0
0
0
0
0
0
0
0
0
0
0
0
0
0
0
0
0
0
0
0
0
0
0
0
0
0
0
0
0
0
0
0
0
0
0
0
0
0
0
0
0
0
0
0
0
0
0
0
0
0
0
0
0
0
0
0
0
0
0
0
0
0
0
0
0
0
0
0
0
0
0
0
0
0
0
0
0
0
0
0
0
0
0
0
0
0
0
0
0
0
0
0
0
0
0
0
0
0
0
0
0
0
0
0
0
0
0
0
0
0
0
0
0
1
1
1
1
1
1
1
1
1
1
1
1
1
0.1822
1
1
1
1
1
1
1
1
1
1
1
1
1
1
1
1
1
1
1
1
1
1
1
1
1
1
0.133815
0.177447
0.00954391
0.000200603
1
1
1
1
1
1
1
1
1
1
1
1
1
1
1
1
1
1
1
1
1
1
1
1
1
1
1
0.995519
0.130131
0.0123392
1
1
1
1
1
1
1
1
1
1
1
1
1
1
1
1
1
1
1
1
1
1
1
1
1
1
1
1
1
0.082543
0.000366374
0.000770866
0.00150715
0.00313688
0.00511678
0.0103577
0.015501
0.0356846
0.0515394
0.225394
0.989549
1
1
1
1
1
1
1
1
1
1
1
1
1
0.329578
0.0336846
0.000100608
2.07173e-07
3.39578e-10
1.12747e-13
3.78149e-26
1.00888e-27
4.57608e-31
1.63193e-34
4.45022e-39
1.54101e-43
8.30627e-48
6.62762e-52
5.74978e-55
1.02719e-57
9.93899e-61
9.01548e-64
8.82767e-67
8.98833e-70
8.50431e-73
7.64764e-76
5.86557e-79
4.10777e-82
2.4293e-85
1.30907e-88
6.33782e-92
2.85492e-95
1.2065e-98
4.85047e-102
1.79881e-105
6.35563e-109
1.96959e-112
5.38059e-116
1.12958e-119
1.63654e-123
2.48053e-133
3.43321e-135
1.62829e-138
6.15533e-142
1.859e-145
5.20429e-149
1.29961e-152
3.28177e-156
7.92182e-160
2.0707e-163
5.09636e-167
3.35581e-172
1.7964e-177
8.05516e-183
3.37193e-188
1.43609e-193
6.06001e-199
2.37051e-204
7.82086e-210
2.17853e-215
5.14077e-221
1.04538e-226
1.86421e-232
2.88683e-238
3.78525e-244
4.35161e-250
4.84847e-256
5.63853e-262
7.10019e-268
9.60301e-274
5.31935e-294
1.1275e-297
2.50536e-303
4.495e-309
7.62244e-315
1.28408e-320
0
0
0
0
0
0
0
0
0
0
0
0
0
0
0
0
0
0
0
0
0
0
0
0
0
0
0
0
0
0
0
0
0
0
0
0
0
0
0
0
0
0
0
0
0
0
0
0
0
0
0
0
0
0
0
0
0
0
0
0
0
0
0
0
0
0
0
0
0
0
0
0
0
0
0
0
0
0
0
0
0
0
0
0
0
0
0
0
0
0
0
0
0
0
0
0
0
0
0
0
0
0
0
0
0
0
0
0
0
0
0
0
0
0
0
0
0
0
0
0
0
0
0
0
0
0
0
0
0
0
0
0
0
0
0
0
0
0
0
0
0
0
0
0
0
0
0
0
0
0
0
0
0
0
0
0
0
0
0
0
0
0
0
0
0
0
0
0
0
0
0
0
0
0
1
1
1
1
1
1
1
1
1
1
1
1
1
0.990859
1
1
1
1
1
1
1
1
1
1
1
1
1
1
1
1
1
1
1
1
1
1
1
1
1
1
0.997893
1
0.0648062
0.00131663
1
1
1
1
1
1
1
1
1
1
1
1
1
1
1
1
1
1
1
1
1
1
1
1
1
1
1
0.998469
0.217737
0.0999958
1
1
1
1
1
1
1
1
1
1
1
1
1
1
1
1
1
1
1
1
1
1
1
1
1
1
1
1
0.999192
0.117789
0.051587
0.0737575
0.101219
0.0968058
0.118746
0.160641
0.203376
0.227885
0.227958
0.981161
1
1
1
1
1
1
1
1
1
1
1
1
1
1
1
0.23114
0.0181834
3.74396e-05
6.0258e-08
2.7312e-11
1.28048e-22
1.61274e-24
2.03185e-28
1.49494e-32
2.02435e-36
4.41166e-40
7.72158e-44
1.08623e-47
3.04035e-51
1.97699e-54
1.42796e-57
1.00664e-60
7.77464e-64
6.96878e-67
6.64145e-70
5.66746e-73
4.71353e-76
3.38918e-79
2.37453e-82
1.48274e-85
8.81007e-89
4.87225e-92
2.54277e-95
1.23004e-98
5.5171e-102
2.29099e-105
8.36965e-109
2.77126e-112
6.96434e-116
1.27453e-119
8.74751e-130
1.05414e-131
4.16016e-135
1.58229e-138
5.51062e-142
1.73654e-145
5.12675e-149
1.42765e-152
3.97888e-156
1.10454e-159
3.21657e-163
8.96344e-167
4.23159e-172
1.5516e-177
5.27906e-183
1.82179e-188
6.71584e-194
2.78479e-199
1.10871e-204
3.63358e-210
9.64445e-216
2.14291e-221
4.03468e-227
6.21026e-233
7.61371e-239
8.1792e-245
8.38409e-251
8.89578e-257
9.96904e-263
1.15182e-268
5.25667e-288
1.05537e-291
1.16155e-297
1.35174e-303
1.65932e-309
2.16598e-315
2.92487e-321
0
0
0
0
0
0
0
0
0
0
0
0
0
0
0
0
0
0
0
0
0
0
0
0
0
0
0
0
0
0
0
0
0
0
0
0
0
0
0
0
0
0
0
0
0
0
0
0
0
0
0
0
0
0
0
0
0
0
0
0
0
0
0
0
0
0
0
0
0
0
0
0
0
0
0
0
0
0
0
0
0
0
0
0
0
0
0
0
0
0
0
0
0
0
0
0
0
0
0
0
0
0
0
0
0
0
0
0
0
0
0
0
0
0
0
0
0
0
0
0
0
0
0
0
0
0
0
0
0
0
0
0
0
0
0
0
0
0
0
0
0
0
0
0
0
0
0
0
0
0
0
0
0
0
0
0
0
0
0
0
0
0
0
0
0
0
0
0
0
0
0
0
0
1
1
1
1
1
1
1
1
1
1
1
1
1
1
1
1
1
1
1
1
1
1
1
1
1
1
1
1
1
1
1
1
1
1
1
1
1
1
1
1
1
1
1
0.998516
0.0857034
0.00258461
0.0383921
0.425144
1
1
1
1
1
1
1
1
1
1
1
1
1
1
1
1
1
1
1
1
1
1
1
1
1
1
1
0.999981
0.991585
0.984483
1
1
1
1
1
1
1
1
1
1
1
1
1
1
1
1
1
1
1
1
1
1
1
1
1
1
1
1
1
1
1
0.949977
1
1
0.991677
0.997785
0.999573
1
0.998978
1
1
0.999578
1
0.998837
0.999983
1
1
1
1
1
1
1
1
1
1
1
1
1
1
0.979862
0.0934354
0.00409201
5.66963e-06
5.49897e-09
3.01063e-12
1.3452e-15
2.87427e-19
1.12072e-22
3.87166e-26
1.46522e-29
5.87088e-33
1.88864e-36
4.69499e-40
8.27132e-44
1.37367e-47
3.88399e-51
1.74502e-54
9.67334e-58
5.78867e-61
4.21175e-64
3.68296e-67
3.33736e-70
2.72584e-73
2.08678e-76
1.46036e-79
9.54812e-83
5.95102e-86
3.58705e-89
2.0946e-92
1.18025e-95
6.34853e-99
3.22896e-102
1.51977e-105
6.42335e-109
2.28153e-112
5.75672e-116
1.5064e-119
4.42262e-123
2.50384e-126
1.53873e-129
9.77982e-133
5.23717e-136
2.55248e-139
1.12958e-142
4.65219e-146
1.84364e-149
6.83965e-153
2.48935e-156
8.52135e-160
2.86216e-163
8.79838e-167
2.25167e-172
5.9181e-178
1.60168e-183
4.78632e-189
1.57265e-194
5.97233e-200
2.20857e-205
6.80354e-211
1.66421e-216
3.39383e-222
5.4945e-228
6.98242e-234
7.40001e-240
7.14476e-246
6.77781e-252
6.45743e-258
6.16846e-264
5.92951e-270
5.74794e-276
5.54173e-282
5.37946e-288
5.44855e-294
5.82148e-300
6.56956e-306
7.87336e-312
1.01126e-317
0
0
0
0
0
0
0
0
0
0
0
0
0
0
0
0
0
0
0
0
0
0
0
0
0
0
0
0
0
0
0
0
0
0
0
0
0
0
0
0
0
0
0
0
0
0
0
0
0
0
0
0
0
0
0
0
0
0
0
0
0
0
0
0
0
0
0
0
0
0
0
0
0
0
0
0
0
0
0
0
0
0
0
0
0
0
0
0
0
0
0
0
0
0
0
0
0
0
0
0
0
0
0
0
0
0
0
0
0
0
0
0
0
0
0
0
0
0
0
0
0
0
0
0
0
0
0
0
0
0
0
0
0
0
0
0
0
0
0
0
0
0
0
0
0
0
0
0
0
0
0
0
0
0
0
0
0
0
0
0
0
0
0
0
0
0
0
0
0
0
0
0
0
0
0
0
0
0
0
0
0
0
0
0
0
1
1
1
1
1
1
1
1
1
1
1
1
1
1
1
1
1
1
1
1
1
1
1
1
1
1
1
1
1
1
1
1
1
1
1
1
1
1
1
1
1
1
1
0.985904
0.0425566
0.0390102
0.257017
0.995183
1
1
1
1
1
1
1
1
1
1
1
1
1
1
1
1
1
1
1
1
1
1
1
1
1
1
1
1
1
1
1
1
1
1
1
1
1
1
1
1
1
1
1
1
1
1
1
1
1
1
1
1
1
1
1
1
1
1
1
1
1
1
1
1
1
1
1
1
1
1
1
1
1
1
1
1
1
1
1
1
1
1
1
1
1
1
1
1
1
1
0.390102
0.057604
0.000998056
5.22478e-07
1.40393e-10
9.58271e-14
7.3443e-17
5.18096e-20
3.31176e-23
1.80758e-26
8.09135e-30
3.00975e-33
8.10078e-37
1.46249e-40
1.92726e-44
2.74515e-48
7.47689e-52
3.38742e-55
1.83542e-58
9.80524e-62
5.04534e-65
2.428e-68
1.15135e-71
4.95659e-75
2.3325e-78
1.07271e-81
5.34135e-85
2.71107e-88
1.42618e-91
7.65992e-95
4.15616e-98
2.29044e-101
1.23143e-104
6.49388e-108
3.28085e-111
1.49719e-114
6.72238e-118
2.89692e-121
1.36559e-124
6.4704e-128
3.05135e-131
1.38305e-134
6.1663e-138
2.66611e-141
1.12627e-144
4.66093e-148
1.8708e-151
7.40171e-155
2.83778e-158
1.0697e-161
3.95063e-165
1.11871e-170
3.45086e-176
1.17193e-181
4.30701e-187
1.73649e-192
7.59118e-198
3.26081e-203
1.14362e-208
3.1343e-214
6.82314e-220
1.2361e-225
1.82507e-231
2.19072e-237
2.235e-243
2.1252e-249
1.98162e-255
1.87517e-261
1.8171e-267
1.82196e-273
1.87562e-279
2.01314e-285
2.26877e-291
2.69894e-297
3.37587e-303
4.46436e-309
6.24214e-315
9.21432e-321
0
0
0
0
0
0
0
0
0
0
0
0
0
0
0
0
0
0
0
0
0
0
0
0
0
0
0
0
0
0
0
0
0
0
0
0
0
0
0
0
0
0
0
0
0
0
0
0
0
0
0
0
0
0
0
0
0
0
0
0
0
0
0
0
0
0
0
0
0
0
0
0
0
0
0
0
0
0
0
0
0
0
0
0
0
0
0
0
0
0
0
0
0
0
0
0
0
0
0
0
0
0
0
0
0
0
0
0
0
0
0
0
0
0
0
0
0
0
0
0
0
0
0
0
0
0
0
0
0
0
0
0
0
0
0
0
0
0
0
0
0
0
0
0
0
0
0
0
0
0
0
0
0
0
0
0
0
0
0
0
0
0
0
0
0
0
0
0
0
0
0
0
0
0
0
0
0
0
0
0
0
0
0
0
1
1
1
1
1
1
1
1
1
1
1
1
1
1
1
1
1
1
1
1
1
1
1
1
1
1
1
1
1
1
1
1
1
1
1
1
1
1
1
1
1
1
1
1
0.999847
0.999013
0.994701
1
1
1
1
1
1
1
1
1
1
1
1
1
1
1
1
1
1
1
1
1
1
1
1
1
1
1
1
1
1
1
1
1
1
1
1
1
1
1
1
1
1
1
1
1
1
1
1
1
1
1
1
1
1
1
1
1
1
1
1
1
1
1
1
1
1
1
1
1
1
1
1
1
1
1
1
1
1
1
1
1
1
1
1
1
1
1
1
1
1
1
1
0.2866
0.043432
8.36865e-05
3.57784e-08
3.39973e-11
2.83242e-14
2.07766e-17
1.25124e-20
6.25188e-24
2.5836e-27
7.58368e-31
1.69531e-34
2.4975e-38
2.47685e-42
1.96465e-46
2.12877e-50
4.60993e-54
1.59347e-57
6.66641e-61
2.84639e-64
1.22149e-67
4.93773e-71
2.0783e-74
8.02242e-78
3.45404e-81
1.47479e-84
6.78819e-88
3.19603e-91
1.56149e-94
7.80222e-98
3.93782e-101
2.04677e-104
1.04053e-107
5.44632e-111
2.70435e-114
1.38612e-117
6.67447e-121
3.17361e-124
1.46459e-127
6.46746e-131
2.79564e-134
1.19538e-137
5.00236e-141
2.09663e-144
8.55029e-148
3.47142e-151
1.37912e-154
5.40615e-158
2.09796e-161
7.97431e-165
2.15912e-170
6.40629e-176
2.0658e-181
7.21231e-187
2.74826e-192
1.13085e-197
4.88862e-203
1.84417e-208
5.43063e-214
1.27331e-219
2.48385e-225
4.1171e-231
6.0027e-237
7.5766e-243
8.44401e-249
8.76055e-255
8.90488e-261
9.09487e-267
9.52177e-273
1.0282e-278
1.16189e-284
1.38036e-290
1.72864e-296
2.26763e-302
3.11182e-308
4.44787e-314
6.63333e-320
0
0
0
0
0
0
0
0
0
0
0
0
0
0
0
0
0
0
0
0
0
0
0
0
0
0
0
0
0
0
0
0
0
0
0
0
0
0
0
0
0
0
0
0
0
0
0
0
0
0
0
0
0
0
0
0
0
0
0
0
0
0
0
0
0
0
0
0
0
0
0
0
0
0
0
0
0
0
0
0
0
0
0
0
0
0
0
0
0
0
0
0
0
0
0
0
0
0
0
0
0
0
0
0
0
0
0
0
0
0
0
0
0
0
0
0
0
0
0
0
0
0
0
0
0
0
0
0
0
0
0
0
0
0
0
0
0
0
0
0
0
0
0
0
0
0
0
0
0
0
0
0
0
0
0
0
0
0
0
0
0
0
0
0
0
0
0
0
0
0
0
0
0
0
0
0
0
0
0
0
0
0
0
0
1
1
1
1
1
1
1
1
1
1
1
1
1
1
1
1
1
1
1
1
1
1
1
1
1
1
1
1
1
1
1
1
1
1
1
1
1
1
1
1
1
1
1
1
1
1
1
1
1
1
1
1
1
1
1
1
1
1
1
1
1
1
1
1
1
1
1
1
1
1
1
1
1
1
1
1
1
1
1
1
1
1
1
1
1
1
1
1
1
1
1
1
1
1
1
1
1
1
1
1
1
1
1
1
1
1
1
1
1
1
1
1
1
1
1
1
1
1
1
1
1
1
1
1
1
1
1
1
1
1
1
1
1
1
1
1
1
1
1
0.997843
0.318158
0.0442821
4.66677e-05
7.056e-08
5.1644e-11
3.36831e-14
1.77423e-17
8.39902e-21
3.02688e-24
8.76128e-28
1.77492e-31
2.62879e-35
2.52133e-39
1.78658e-43
1.26762e-47
1.36697e-51
2.68181e-55
7.65478e-59
2.5959e-62
9.17376e-66
3.40334e-69
1.19485e-72
4.53282e-76
1.61113e-79
6.28682e-83
2.43587e-86
9.8413e-90
3.97138e-93
1.62178e-96
6.47823e-100
2.61826e-103
1.01202e-106
3.98322e-110
1.46327e-113
5.55158e-117
1.94711e-120
6.96416e-124
2.36964e-127
7.95785e-131
2.67478e-134
8.92195e-138
3.05904e-141
1.05044e-144
3.64801e-148
1.28989e-151
4.52577e-155
1.60977e-158
5.64038e-162
1.97488e-165
5.01586e-171
1.34347e-176
3.7738e-182
1.11427e-187
3.48001e-193
1.14663e-198
3.89523e-204
1.15203e-209
2.70409e-215
5.14433e-221
8.35006e-227
1.18638e-232
1.54888e-238
1.90688e-244
2.31049e-250
2.7442e-256
3.24083e-262
3.84011e-268
4.62908e-274
5.64218e-280
7.00944e-286
8.87488e-292
1.15081e-297
1.5239e-303
2.07948e-309
2.93108e-315
4.28849e-321
0
0
0
0
0
0
0
0
0
0
0
0
0
0
0
0
0
0
0
0
0
0
0
0
0
0
0
0
0
0
0
0
0
0
0
0
0
0
0
0
0
0
0
0
0
0
0
0
0
0
0
0
0
0
0
0
0
0
0
0
0
0
0
0
0
0
0
0
0
0
0
0
0
0
0
0
0
0
0
0
0
0
0
0
0
0
0
0
0
0
0
0
0
0
0
0
0
0
0
0
0
0
0
0
0
0
0
0
0
0
0
0
0
0
0
0
0
0
0
0
0
0
0
0
0
0
0
0
0
0
0
0
0
0
0
0
0
0
0
0
0
0
0
0
0
0
0
0
0
0
0
0
0
0
0
0
0
0
0
0
0
0
0
0
0
0
0
0
0
0
0
0
0
0
0
0
0
0
0
0
0
0
0
0
1
1
1
1
1
1
1
1
1
1
1
1
1
1
1
1
1
1
1
1
1
1
1
1
1
1
1
1
1
1
1
1
1
1
1
1
1
1
1
1
1
1
1
1
1
1
1
1
1
1
1
1
1
1
1
1
1
1
1
1
1
1
1
1
1
1
1
1
1
1
1
1
1
1
1
1
1
1
1
1
1
1
1
1
1
1
1
1
1
1
1
1
1
1
1
1
1
1
1
1
1
1
1
1
1
1
1
1
1
1
1
1
1
1
1
1
1
1
1
1
1
1
1
1
1
1
1
1
1
1
1
1
1
1
1
1
1
1
1
1
1
0.299118
0.0467153
0.000245747
1.18593e-07
5.38194e-11
2.48611e-14
9.67862e-18
3.44633e-21
9.07654e-25
1.87264e-28
2.69921e-32
2.77147e-36
1.96388e-40
1.16352e-44
8.82897e-49
1.13568e-52
3.07024e-56
1.63727e-59
8.79076e-63
4.08179e-66
1.70325e-69
6.2932e-73
2.3825e-76
8.52866e-80
3.21167e-83
1.20066e-86
4.57311e-90
1.73122e-93
6.49659e-97
2.44162e-100
8.8271e-104
3.22941e-107
1.10461e-110
3.8606e-114
1.24739e-117
4.09758e-121
1.2625e-124
3.8653e-128
1.14296e-131
3.3158e-135
9.50349e-139
2.65164e-142
7.40976e-146
2.00593e-149
5.42142e-153
1.44115e-156
3.77912e-160
9.89701e-164
2.1221e-167
3.13921e-173
4.30122e-179
5.81857e-185
8.46158e-191
1.47004e-196
3.05622e-202
6.50372e-208
1.28388e-213
2.26176e-219
3.57274e-225
5.06139e-231
6.58849e-237
7.95892e-243
9.12731e-249
1.00199e-254
1.07168e-260
1.12253e-266
1.16795e-272
1.21409e-278
1.28164e-284
1.38549e-290
1.55192e-296
1.80405e-302
2.19119e-308
2.78082e-314
3.69709e-320
0
0
0
0
0
0
0
0
0
0
0
0
0
0
0
0
0
0
0
0
0
0
0
0
0
0
0
0
0
0
0
0
0
0
0
0
0
0
0
0
0
0
0
0
0
0
0
0
0
0
0
0
0
0
0
0
0
0
0
0
0
0
0
0
0
0
0
0
0
0
0
0
0
0
0
0
0
0
0
0
0
0
0
0
0
0
0
0
0
0
0
0
0
0
0
0
0
0
0
0
0
0
0
0
0
0
0
0
0
0
0
0
0
0
0
0
0
0
0
0
0
0
0
0
0
0
0
0
0
0
0
0
0
0
0
0
0
0
0
0
0
0
0
0
0
0
0
0
0
0
0
0
0
0
0
0
0
0
0
0
0
0
0
0
0
0
0
0
0
0
0
0
0
0
0
0
0
0
0
0
0
0
0
0
1
1
1
1
1
1
1
1
1
1
1
1
1
1
1
1
1
1
1
1
1
1
1
1
1
1
1
1
1
1
1
1
1
1
1
1
1
1
1
1
1
1
1
1
1
1
1
1
1
1
1
1
1
1
1
1
1
1
1
1
1
1
1
1
1
1
1
1
1
1
1
1
1
1
1
1
1
1
1
1
1
1
1
1
1
1
1
1
1
1
1
1
1
1
1
1
1
1
1
1
1
1
1
1
1
1
1
1
1
1
1
1
1
1
1
1
1
1
1
1
1
1
1
1
1
1
1
1
1
1
1
1
1
1
1
1
1
1
1
1
1
0.999208
0.346042
0.0571943
0.000230255
6.25592e-08
2.25483e-11
7.33169e-15
2.24855e-18
5.77137e-22
1.11077e-25
1.63188e-29
1.669e-33
1.22982e-37
7.33874e-42
5.3817e-46
1.25737e-49
6.57335e-53
4.01269e-56
1.90388e-59
8.39153e-63
2.98345e-66
1.11534e-69
3.57057e-73
1.26734e-76
4.25564e-80
1.50635e-83
5.28606e-87
1.90241e-90
6.68718e-94
2.40658e-97
8.23235e-101
2.88711e-104
9.41098e-108
3.16059e-111
9.78394e-115
3.12695e-118
9.32359e-122
2.83389e-125
8.17744e-129
2.36752e-132
6.61526e-136
1.82562e-139
4.96433e-143
1.32124e-146
3.51415e-150
9.10197e-154
2.36045e-157
5.98938e-161
1.51332e-164
3.86143e-170
1.0524e-175
2.98197e-181
8.73206e-187
2.46729e-192
6.01753e-198
1.19487e-203
2.02706e-209
2.98323e-215
3.9554e-221
4.77657e-227
5.41031e-233
5.79434e-239
6.00914e-245
6.07734e-251
6.11491e-257
6.15847e-263
6.31593e-269
6.62918e-275
7.2128e-281
8.14089e-287
9.57388e-293
1.16927e-298
1.48466e-304
1.95164e-310
2.66161e-316
3.26083e-322
0
0
0
0
0
0
0
0
0
0
0
0
0
0
0
0
0
0
0
0
0
0
0
0
0
0
0
0
0
0
0
0
0
0
0
0
0
0
0
0
0
0
0
0
0
0
0
0
0
0
0
0
0
0
0
0
0
0
0
0
0
0
0
0
0
0
0
0
0
0
0
0
0
0
0
0
0
0
0
0
0
0
0
0
0
0
0
0
0
0
0
0
0
0
0
0
0
0
0
0
0
0
0
0
0
0
0
0
0
0
0
0
0
0
0
0
0
0
0
0
0
0
0
0
0
0
0
0
0
0
0
0
0
0
0
0
0
0
0
0
0
0
0
0
0
0
0
0
0
0
0
0
0
0
0
0
0
0
0
0
0
0
0
0
0
0
0
0
0
0
0
0
0
0
0
0
0
0
0
0
0
0
0
1
1
1
1
1
1
1
1
1
1
1
1
1
1
1
1
1
1
1
1
1
1
1
1
1
1
1
1
1
1
1
1
1
1
1
1
1
1
1
1
1
1
1
1
1
1
1
1
1
1
1
1
1
1
1
1
1
1
1
1
1
1
1
1
1
1
1
1
1
1
1
1
1
1
1
1
1
1
1
1
1
1
1
1
1
1
1
1
1
1
1
1
1
1
1
1
1
1
1
1
1
1
1
1
1
1
1
1
1
1
1
1
1
1
1
1
1
1
1
1
1
1
1
1
1
1
1
1
1
1
1
1
1
1
1
1
1
1
1
1
1
1
1
0.216924
0.0299194
1.4574e-05
7.12836e-09
2.07475e-12
6.22083e-16
1.26686e-19
2.30109e-23
2.92832e-27
3.83135e-31
3.62016e-35
8.87615e-39
2.41068e-42
8.77313e-46
2.97789e-49
1.22996e-52
4.30206e-56
1.61945e-59
4.87803e-63
1.66303e-66
4.76188e-70
1.5714e-73
4.80072e-77
1.58679e-80
5.14632e-84
1.73624e-87
5.76604e-91
1.97049e-94
6.45895e-98
2.17903e-101
6.88023e-105
2.26076e-108
6.85983e-112
2.17941e-115
6.40728e-119
1.95428e-122
5.57481e-126
1.63015e-129
4.49047e-133
1.26268e-136
3.35981e-140
9.12583e-144
2.36396e-147
6.17213e-151
1.56995e-154
3.96468e-158
9.94334e-162
2.44237e-165
7.05525e-171
1.50973e-176
3.18791e-182
5.8279e-188
9.40491e-194
1.34256e-199
1.73517e-205
2.0415e-211
2.24634e-217
2.32458e-223
2.31837e-229
2.24219e-235
2.14786e-241
2.05268e-247
1.99578e-253
1.98968e-259
2.06432e-265
2.2316e-271
2.52274e-277
2.95933e-283
3.59299e-289
4.47965e-295
5.74122e-301
7.5489e-307
1.02268e-312
1.43028e-318
0
0
0
0
0
0
0
0
0
0
0
0
0
0
0
0
0
0
0
0
0
0
0
0
0
0
0
0
0
0
0
0
0
0
0
0
0
0
0
0
0
0
0
0
0
0
0
0
0
0
0
0
0
0
0
0
0
0
0
0
0
0
0
0
0
0
0
0
0
0
0
0
0
0
0
0
0
0
0
0
0
0
0
0
0
0
0
0
0
0
0
0
0
0
0
0
0
0
0
0
0
0
0
0
0
0
0
0
0
0
0
0
0
0
0
0
0
0
0
0
0
0
0
0
0
0
0
0
0
0
0
0
0
0
0
0
0
0
0
0
0
0
0
0
0
0
0
0
0
0
0
0
0
0
0
0
0
0
0
0
0
0
0
0
0
0
0
0
0
0
0
0
0
0
0
0
0
0
0
0
0
0
0
1
1
1
1
1
1
1
1
1
1
1
1
1
1
1
1
1
1
1
1
1
1
1
1
1
1
1
1
1
1
1
1
1
1
1
1
1
1
1
1
1
1
1
1
1
1
1
1
1
1
1
1
1
1
1
1
1
1
1
1
1
1
1
1
1
1
1
1
1
1
1
1
1
1
1
1
1
1
1
1
1
1
1
1
1
1
1
1
1
1
1
1
1
1
1
1
1
1
1
1
1
1
1
1
1
1
1
1
1
1
1
1
1
1
1
1
1
1
1
1
1
1
1
1
1
1
1
1
1
1
1
1
1
1
1
1
1
1
1
1
1
1
1
0.526084
0.0869952
0.00133437
1.35522e-07
1.88524e-11
6.49378e-15
1.72448e-18
4.89631e-22
1.17442e-25
2.95212e-29
7.34803e-33
1.94966e-36
5.2726e-40
1.45908e-43
4.11402e-47
1.19066e-50
3.46329e-54
1.02894e-57
2.88069e-61
8.49344e-65
2.25771e-68
6.55932e-72
1.83736e-75
5.43516e-79
1.62385e-82
5.00788e-86
1.5547e-89
4.96935e-93
1.56294e-96
5.04994e-100
1.56175e-103
4.9712e-107
1.49231e-110
4.60417e-114
1.34504e-117
4.00508e-121
1.13982e-124
3.27614e-128
9.06001e-132
2.51358e-135
6.74676e-139
1.81564e-142
4.73904e-146
1.23904e-149
3.15673e-153
8.01994e-157
2.0069e-160
4.96375e-164
7.86435e-168
6.01262e-174
3.85545e-180
2.29453e-186
1.37952e-192
9.72666e-199
8.8369e-205
9.78403e-211
1.18893e-216
1.45839e-222
1.76988e-228
2.08662e-234
2.40577e-240
2.69615e-246
2.96582e-252
3.19485e-258
3.40787e-264
3.60324e-270
3.82589e-276
4.0975e-282
4.48898e-288
5.06345e-294
5.95566e-300
7.33467e-306
9.52531e-312
1.30369e-317
0
0
0
0
0
0
0
0
0
0
0
0
0
0
0
0
0
0
0
0
0
0
0
0
0
0
0
0
0
0
0
0
0
0
0
0
0
0
0
0
0
0
0
0
0
0
0
0
0
0
0
0
0
0
0
0
0
0
0
0
0
0
0
0
0
0
0
0
0
0
0
0
0
0
0
0
0
0
0
0
0
0
0
0
0
0
0
0
0
0
0
0
0
0
0
0
0
0
0
0
0
0
0
0
0
0
0
0
0
0
0
0
0
0
0
0
0
0
0
0
0
0
0
0
0
0
0
0
0
0
0
0
0
0
0
0
0
0
0
0
0
0
0
0
0
0
0
0
0
0
0
0
0
0
0
0
0
0
0
0
0
0
0
0
0
0
0
0
0
0
0
0
0
0
0
0
0
0
0
0
0
0
0
1
1
1
1
1
1
1
1
1
1
1
0.125952
0.00289097
1.99783e-05
0.0082205
0.0658121
0.0849298
0.206613
1
1
1
1
1
1
1
1
1
1
1
1
1
1
1
1
1
0.324893
0.127907
0.073548
0.0170707
0.000183586
6.23979e-06
4.17941e-07
1.64268e-08
5.86868e-10
1
1
1
1
1
1
1
1
1
1
1
1
1
1
1
1
1
1
1
1
1
1
1
1
0.235558
0.049798
0.00980658
0.000460879
6.41377e-06
3.87246e-08
0.0117959
0.0308203
1
1
1
1
1
1
1
1
1
1
1
1
1
1
1
1
1
0.279483
0.0953378
0.0712221
0.0553151
0.0392832
0.0253337
0.00876738
0.000408178
6.89362e-05
7.75984e-06
6.2295e-08
5.34812e-23
6.53274e-22
2.60278e-20
1.17641e-19
2.40459e-19
3.34508e-19
6.91647e-19
2.867e-18
4.38982e-17
3.10261e-15
1.08951e-12
1.37595e-10
6.41929e-08
1.11635e-05
0.000141674
0.00142617
0.000326743
0.000105716
2.06972e-05
1.28492e-06
5.61554e-08
1.10155e-09
1.03984e-11
3.362e-14
1.75266e-17
3.80329e-20
2.41802e-23
2.0294e-26
1.67293e-29
1.36421e-32
1.22006e-49
4.48066e-50
9.80679e-53
1.43155e-55
1.23255e-58
1.14493e-61
7.65981e-65
5.83852e-68
4.03053e-71
2.34375e-74
9.96562e-78
3.38161e-81
9.45283e-85
2.42495e-88
5.9318e-92
1.4864e-95
3.81822e-99
1.00019e-102
2.67798e-106
7.32685e-110
2.03089e-113
5.81868e-117
1.63179e-120
4.65808e-124
1.33539e-127
3.80452e-131
1.08939e-134
3.08881e-138
8.6635e-142
2.40766e-145
1.02305e-157
9.52338e-160
4.59386e-163
1.68334e-166
3.68728e-172
9.45714e-178
1.21004e-182
3.68483e-187
1.01989e-191
1.95059e-196
2.26335e-201
1.82428e-206
1.06201e-211
5.32172e-217
2.34181e-222
9.21001e-228
3.24346e-233
1.01154e-238
2.87954e-244
7.40436e-250
1.77936e-255
3.96384e-261
8.44252e-267
1.71901e-272
3.45196e-278
6.91904e-284
1.45627e-289
3.45889e-295
1.12972e-300
9.57611e-306
0
0
0
0
0
0
0
0
0
0
0
0
0
0
0
0
0
0
0
0
0
0
0
0
0
0
0
0
0
0
0
0
0
0
0
0
0
0
0
0
0
0
0
0
0
0
0
0
0
0
0
0
0
0
0
0
0
0
0
0
0
0
0
0
0
0
0
0
0
0
0
0
0
0
0
0
0
0
0
0
0
0
0
0
0
0
0
0
0
0
0
0
0
0
0
0
0
0
0
0
0
0
0
0
0
0
0
0
0
0
0
0
0
0
0
0
0
0
0
0
0
0
0
0
0
0
0
0
0
0
0
0
0
0
0
0
0
0
0
0
0
0
0
0
0
0
0
0
0
0
0
0
0
0
0
0
0
0
0
0
0
0
0
0
0
0
0
0
0
0
0
0
0
0
0
0
0
0
0
0
1
1
1
1
1
1
1
1
1
1
1
0.0767888
0.00068598
7.31212e-06
0.0582099
1
1
1
1
1
1
1
1
1
1
1
1
1
1
1
1
1
1
1
1
1
1
1
0.333327