/*--------------------------------*- C++ -*----------------------------------*\
| =========                 |                                                 |
| \\      /  F ield         | OpenFOAM: The Open Source CFD Toolbox           |
|  \\    /   O peration     | Version:  2.1.1                                 |
|   \\  /    A nd           | Web:      www.OpenFOAM.org                      |
|    \\/     M anipulation  |                                                 |
\*---------------------------------------------------------------------------*/
FoamFile
{
    version     2.0;
    format      ascii;
    class       volScalarField;
    location    "0.002600000";
    object      cSound;
}
// * * * * * * * * * * * * * * * * * * * * * * * * * * * * * * * * * * * * * //

dimensions      [0 1 -1 0 0 0 0];

internalField   nonuniform List<scalar> 
12384
(
1055.72
1047.72
1029.35
1021.1
1018.68
1026.73
1020.04
1013.3
988.205
964.489
953.126
584.345
484.731
489.51
454.936
472.886
526.515
597.849
909.9
911.379
919.889
920.765
922.613
927.055
928.373
930.639
930.693
929.567
927.9
927.548
928.735
927.256
922.438
913.936
895.861
669.34
554.703
509.016
463.254
448.672
456.755
461.314
465.743
467.799
1085.58
1103.99
1098.31
1083.8
1056.73
1076.97
1065.42
1073.35
1069.14
1067.55
1063.48
1056.46
1046.73
1035.1
1024.01
1011.32
1002.46
991.092
981.367
965.353
949.521
941.615
931.549
905.842
631.949
507.172
467.636
469.865
494.834
523.727
441.642
471.131
893.393
938.22
957.379
937.035
968.807
990.01
1004.66
1024.74
1046.03
1045.26
1065.76
1060.6
1070.45
1061.56
1054.31
1046.12
1044.65
788.577
612.16
569.985
537.21
517.168
502.405
479.296
491.975
532
570.457
598.44
443.561
442.781
440.738
439.235
438.83
447.769
447.792
453.068
443.577
470.227
481.721
478.348
522.629
531.975
535.544
532.001
522.077
507.362
501.594
494.374
487.397
478.487
478.596
471.893
488.361
494.032
517.637
528.591
536.359
536.488
428.491
425.923
421.518
424.345
419.129
422.76
420.849
425.168
424.636
427.641
427.737
432.742
433.214
436.87
439.032
441.718
443.577
445.216
445.863
446.758
446.475
441.704
442.45
439.182
437.027
437.991
436.892
437.098
437.194
436.994
412.847
412.48
412.519
411.785
412.159
411.511
411.492
411.129
410.539
410.667
409.681
410.107
408.879
409.476
408.275
408.68
408.097
407.812
407.771
407.368
407.379
407.018
407.063
406.759
406.806
406.573
406.618
406.459
406.497
406.495
405.355
405.254
405.251
405.23
405.227
405.203
405.196
405.17
405.166
405.136
405.136
405.102
405.104
405.067
405.072
405.044
405.055
405.034
405.049
405.03
405.037
405.032
405.026
405.03
405.024
405.029
405.026
405.03
405.033
405.139
405.123
405.017
405.011
405.007
405.006
405.001
404.999
404.996
404.994
404.99
404.988
404.984
404.978
404.972
404.968
404.969
404.972
404.977
404.983
404.986
404.989
404.991
404.996
404.997
405.001
405.004
405.006
405.009
405.016
405.121
405.121
405.017
405.009
405.005
405.003
405.001
404.996
404.995
404.991
404.989
404.986
404.983
404.978
404.973
404.969
404.968
404.971
404.977
404.983
404.987
404.99
404.994
404.997
404.999
405.002
405.005
405.008
405.01
405.016
405.121
405.121
405.015
405.009
405.006
405.004
405
404.998
404.994
404.993
404.989
404.987
404.983
404.978
404.972
404.969
404.968
404.971
404.976
404.983
404.986
404.989
404.992
404.996
404.998
405.001
405.004
405.006
405.009
405.016
405.121
405.121
405.015
405.009
405.006
405.005
405.001
404.999
404.995
404.992
404.988
404.987
404.982
404.978
404.972
404.969
404.969
404.972
404.977
404.983
404.987
404.989
404.993
404.994
404.998
405
405.004
405.005
405.009
405.015
405.121
405.122
405.015
405.01
405.005
405.004
404.999
404.999
404.994
404.994
404.99
404.988
404.984
404.979
404.973
404.971
404.969
404.973
404.977
404.982
404.985
404.99
404.992
404.996
404.998
405.002
405.005
405.007
405.009
405.016
405.122
1046.74
1001.93
947.089
906.297
894.822
906.237
919.058
918.725
928.143
915.969
904.323
513.479
476.308
485.253
470.85
625.119
885.253
895.891
905.8
916.783
927.03
932.689
935.187
935.382
935.02
935.984
937.044
939.746
943.72
941.111
933.869
927.701
922.751
918.28
910.909
912.202
906.745
892.041
652.039
459.645
451.82
454.307
463.711
465.6
1055.69
1100.69
1110.58
1085.65
1062.73
1074.86
1064.35
1064.59
1061.78
1062.86
1067.31
1075.96
1082.35
1081.78
1079.58
1073.23
1067.81
1063.37
1054.67
1046.34
1029.33
1007.07
980.543
940.047
901.895
835.711
549.258
490.209
484.117
512.414
464.06
1004.74
915.189
896.434
929.075
932.726
955.268
980.463
989.307
1025.83
1029.29
1044.75
1053.88
1058.76
1065.95
1068.3
1068.02
1058.57
1059.09
1081.05
1067.39
1042.96
1010.3
969.698
939.029
640.804
548.746
545.295
534.401
574.751
448.916
435.759
428.388
436.615
450.555
459.542
465.144
458.87
475.426
485.307
497.055
513.426
546.981
578.933
710.508
717.138
669.068
620.689
552.074
537.209
532.732
521.683
501.816
476.708
472.801
471.119
485.779
499.578
522.003
532.118
410.105
403.283
402.868
398.112
405.467
406.801
416.18
418.581
420.509
417.631
414.591
409.099
412.444
409.518
411.524
412.546
414.269
416.133
418.496
420.495
420.987
425.446
424.124
429.442
428.292
432.066
433.224
433.747
434.262
434.889
394.42
395.05
394.186
396.828
396.472
398.256
399.074
399.526
400.978
400.683
402.174
401.4
402.867
401.601
402.788
401.655
402.682
401.929
402.638
402.151
402.57
402.234
402.486
402.281
402.417
402.352
402.371
402.403
402.375
404.861
402.988
400.726
400.538
400.659
400.559
400.619
400.547
400.543
400.504
400.466
400.426
400.372
400.294
400.2
400.148
400.124
400.172
400.231
400.3
400.333
400.366
400.404
400.429
400.471
400.496
400.536
400.56
400.595
400.741
403.241
403.231
400.736
400.578
400.557
400.501
400.48
400.419
400.398
400.339
400.315
400.252
400.217
400.123
400.051
399.987
399.999
400.033
400.123
400.18
400.245
400.272
400.338
400.361
400.424
400.451
400.507
400.534
400.578
400.724
403.227
403.224
400.722
400.572
400.519
400.497
400.439
400.414
400.354
400.335
400.276
400.254
400.193
400.143
400.053
400.014
399.985
400.033
400.105
400.211
400.275
400.316
400.379
400.405
400.465
400.484
400.538
400.549
400.594
400.71
403.314
403.221
400.729
400.57
400.548
400.494
400.473
400.412
400.39
400.331
400.308
400.248
400.215
400.126
400.057
399.99
399.996
400.027
400.117
400.178
400.244
400.273
400.34
400.364
400.427
400.454
400.512
400.537
400.578
400.724
403.228
403.322
400.704
400.566
400.551
400.497
400.476
400.41
400.385
400.321
400.293
400.227
400.196
400.109
400.047
399.992
399.991
400.043
400.111
400.2
400.233
400.297
400.321
400.383
400.406
400.468
400.487
400.543
400.564
400.7
403.319
403.233
400.726
400.561
400.538
400.478
400.459
400.394
400.377
400.317
400.301
400.239
400.213
400.131
400.067
399.996
399.996
400.027
400.114
400.176
400.241
400.269
400.335
400.359
400.424
400.449
400.509
400.536
400.578
400.725
403.231
998.944
941.161
898.907
885.424
870.129
858.265
854.961
852.812
860.741
866.12
887.281
558.221
471.183
475.959
512.401
861.252
873.612
895.13
912.257
929.579
941.769
953.768
960.424
964.494
965.773
974.382
981.108
989.832
993.16
987.899
968.856
948.415
932.535
918.892
908.419
898.502
885.96
870.045
605.295
464.002
446.412
443.09
453.775
463.999
1049.42
1089.51
1098.45
1078.89
1041.84
1056.57
1034.29
1035.74
1028.25
1030.61
1040.32
1059.6
1083.53
1093.89
1099.35
1099.41
1100.54
1098.25
1096.65
1091.12
1086.73
1079.16
1064.69
1009.53
963.502
897.783
771.898
512.395
478.741
498.25
970.016
965
927.818
879.885
906.784
906.692
942.293
976.611
988.919
1021.22
1019.51
1036.51
1035.82
1048.39
1056.43
1071.77
1076.04
1075.42
1068.82
1072.32
1066.99
1051.71
1038.6
1038.46
1032.08
1029.99
940.696
850.179
549.911
541.211
432.801
434.267
446.272
458.454
466.512
469.613
470.684
471.885
476.121
489.001
481.027
522.436
600.478
809.642
1105.59
1124.28
1101.02
1117.79
770.878
614.219
567.815
558.801
556.83
541.597
516.415
493.383
481.162
478.203
489.762
511.276
394.167
396.099
402.447
414.582
427.592
439.234
448.138
455.366
460.605
461.543
451.127
434.524
417.668
413.846
407.171
406.077
403.653
402.738
401.132
399.199
399.865
397.724
396.468
396.221
393.468
393.962
394.75
396.425
398.54
398.832
368.885
370.553
370.283
370.865
370.104
370.056
369.374
369.854
368.559
369.401
368.015
368.816
367.657
368.253
367.619
367.593
367.45
366.845
367.065
366.234
366.678
365.848
366.335
365.6
366.063
365.439
365.844
365.36
365.627
363.185
362.005
364.328
364.41
364.535
364.493
364.581
364.556
364.633
364.61
364.685
364.675
364.75
364.783
364.884
364.905
364.927
364.861
364.807
364.72
364.696
364.644
364.623
364.581
364.561
364.52
364.499
364.463
364.436
364.312
361.846
361.832
364.277
364.41
364.451
364.478
364.509
364.54
364.573
364.603
364.64
364.677
364.726
364.797
364.878
364.922
364.925
364.878
364.81
364.74
364.699
364.659
364.622
364.587
364.554
364.515
364.485
364.45
364.419
364.296
361.829
361.829
364.292
364.426
364.467
364.498
364.528
364.563
364.592
364.623
364.654
364.69
364.728
364.791
364.86
364.911
364.925
364.896
364.816
364.727
364.668
364.64
364.592
364.554
364.522
364.49
364.462
364.437
364.402
364.27
361.831
361.831
364.288
364.416
364.456
364.482
364.514
364.545
364.579
364.609
364.644
364.68
364.726
364.793
364.872
364.919
364.927
364.883
364.815
364.742
364.7
364.659
364.621
364.585
364.552
364.513
364.481
364.446
364.417
364.294
361.829
361.832
364.291
364.418
364.442
364.476
364.51
364.549
364.586
364.62
364.659
364.698
364.742
364.806
364.877
364.925
364.924
364.88
364.805
364.739
364.694
364.657
364.619
364.586
364.553
364.516
364.485
364.453
364.417
364.295
361.833
361.832
364.292
364.426
364.467
364.494
364.525
364.555
364.587
364.615
364.648
364.682
364.726
364.785
364.861
364.912
364.93
364.888
364.822
364.748
364.706
364.665
364.625
364.589
364.554
364.515
364.483
364.447
364.419
364.296
361.83
935.578
933.225
952.685
975.357
962.806
928.368
901.324
888.748
871.581
840.832
822.3
590.32
476.774
463.27
577.979
844.988
879.787
921.811
945.356
962.708
977.957
1001.4
1018.82
1044.79
1062.35
1075.79
1080.83
1083.12
1084.64
1079.22
1065.03
1035.11
999.437
963.263
939.31
913.863
879.239
847.141
797.479
549.968
453.78
433.477
446.974
457.197
1045.07
1073.13
1080.35
1057.06
1046.09
1011.36
1010.39
1003.36
1003.59
1020.1
1038.43
1054.79
1065.44
1078.49
1086.87
1094.37
1095.78
1099.1
1098.81
1099.98
1098.78
1097.34
1094.45
1073.99
1036.21
953.925
819.752
518.195
475.418
490.139
935.752
949.076
918.866
878.862
891.688
915.107
951.157
973.476
1001.84
1013.59
1015.03
1022.2
1011.66
1030.52
1048.51
1067.31
1078.27
1081.29
1076.7
1072.49
1077.77
1071.74
1072.99
1068.29
1059.61
1043.41
1029.73
899.867
562.58
526.757
434.607
441.528
460.671
479.278
486.218
483.861
477.81
472.929
455.025
489.262
501.671
571.906
819.137
1085.92
1135.42
1153.5
1150.41
1134.99
1137.08
1102.48
819.689
626.366
576.033
566.886
574.387
547.246
512.541
486.174
477.437
488.009
396.577
408.848
427.047
440.151
445.186
444.809
452.181
456.608
472.014
484.039
491.52
486.612
467.239
441.817
430.211
418.81
415.529
409.97
406.637
405.325
402.245
401.231
399.84
396.546
396.992
392.103
392.976
391.352
390.94
390.941
373.609
372.804
373.296
371.497
371.69
371.025
370.386
369.725
369.617
368.446
368.79
367.584
367.948
366.857
367.216
366.241
366.568
365.707
366.009
365.283
365.554
364.963
365.19
364.723
364.906
364.55
364.693
364.453
364.509
364.01
363.174
363.506
363.559
363.48
363.518
363.454
363.477
363.428
363.445
363.403
363.419
363.383
363.398
363.373
363.384
363.363
363.358
363.347
363.332
363.33
363.317
363.318
363.307
363.308
363.299
363.3
363.294
363.289
363.256
362.834
362.82
363.243
363.273
363.281
363.279
363.284
363.282
363.287
363.286
363.291
363.289
363.296
363.297
363.306
363.305
363.308
363.302
363.301
363.293
363.294
363.288
363.289
363.284
363.286
363.279
363.281
363.275
363.275
363.24
362.819
362.819
363.24
363.276
363.275
363.282
363.279
363.286
363.283
363.289
363.288
363.293
363.292
363.299
363.3
363.308
363.305
363.306
363.297
363.295
363.289
363.286
363.288
363.282
363.284
363.277
363.28
363.274
363.275
363.241
362.809
362.819
363.241
363.271
363.279
363.277
363.283
363.281
363.287
363.285
363.29
363.289
363.295
363.296
363.305
363.305
363.309
363.302
363.301
363.293
363.294
363.288
363.289
363.284
363.285
363.279
363.281
363.274
363.274
363.24
362.819
362.809
363.241
363.272
363.278
363.277
363.283
363.281
363.287
363.285
363.292
363.29
363.296
363.297
363.305
363.305
363.305
363.305
363.297
363.296
363.29
363.291
363.285
363.288
363.282
363.283
363.278
363.279
363.271
363.242
362.81
362.819
363.242
363.272
363.28
363.278
363.284
363.283
363.288
363.286
363.291
363.29
363.296
363.296
363.304
363.304
363.308
363.302
363.301
363.293
363.294
363.289
363.29
363.285
363.287
363.28
363.281
363.276
363.275
363.24
362.818
942.027
1006.86
1054.44
1083.51
1084.53
1084.21
1060.13
1045.67
1003.67
931.869
822.858
742.108
530.755
464.145
717.665
831.88
903.074
964.239
992.452
1010.18
1037.04
1080.21
1101.54
1117.08
1123.16
1124.55
1125.4
1128.49
1129.71
1127.91
1120.05
1109.24
1090.65
1060.97
1029.46
976.889
904.909
844.142
801.642
701.681
493.165
429.099
437.485
453.074
1007.03
1059.51
1058.63
1053.9
1016.51
1006.92
988.671
992.971
1021.34
1070.94
1104.06
1115.04
1113.86
1105.95
1101.44
1097.38
1097.85
1096.08
1092.91
1084.66
1081.35
1088.08
1095.67
1096.48
1070.45
989.688
857.247
736.737
519.417
484.496
877.142
905.969
897.199
879.057
904.299
931.399
959.831
988.647
999.595
1014.78
1001.04
999.668
1002.35
1019.43
1035.68
1054.12
1064.96
1075.05
1078.79
1077.21
1079.78
1082.96
1094.52
1098.68
1096.67
1079.24
1051.42
961.634
870.116
520.445
429.451
444.372
469.35
486.3
490.358
485.091
477.448
473.678
466.667
496.248
570.727
738.866
1061.15
1102.27
1135.63
1168.93
1184.03
1182.06
1159.26
1137.24
1114.44
1101.99
809.895
606.347
585.608
580.462
556.051
513.703
484.293
476.272
403.353
425.278
436.77
437.25
423.548
429.112
420.166
439.016
451.748
471.76
491.313
505.437
504.336
486.713
458.386
444.501
429.453
425.051
419.636
415.391
413.146
410.404
408.502
405.615
403.527
400.179
397.445
396.635
394.202
393.597
381.59
383.881
381.684
381.187
379.434
378.775
377.258
376.407
375.291
375.127
373.675
373.997
372.599
372.989
371.734
372.147
371.048
371.444
370.495
370.857
370.057
370.378
369.715
369.994
369.455
369.691
369.267
369.462
369.161
369.226
368.381
368.451
368.38
368.417
368.337
368.352
368.289
368.295
368.241
368.25
368.202
368.212
368.171
368.182
368.147
368.157
368.127
368.135
368.111
368.117
368.101
368.103
368.094
368.092
368.089
368.084
368.085
368.077
368.07
368.031
368.018
368.056
368.07
368.059
368.071
368.058
368.07
368.057
368.069
368.057
368.069
368.058
368.069
368.059
368.07
368.059
368.069
368.058
368.068
368.057
368.068
368.057
368.068
368.056
368.069
368.057
368.068
368.057
368.052
368.015
368.012
368.05
368.057
368.068
368.055
368.068
368.055
368.067
368.056
368.068
368.056
368.068
368.058
368.069
368.058
368.069
368.059
368.07
368.06
368.064
368.066
368.057
368.069
368.056
368.068
368.056
368.068
368.055
368.062
368.005
368.016
368.053
368.069
368.056
368.069
368.056
368.068
368.056
368.068
368.056
368.068
368.057
368.069
368.059
368.069
368.059
368.069
368.059
368.068
368.057
368.068
368.057
368.069
368.057
368.069
368.057
368.068
368.058
368.053
368.016
368.006
368.059
368.058
368.057
368.069
368.056
368.069
368.056
368.069
368.056
368.069
368.057
368.07
368.059
368.067
368.068
368.06
368.07
368.057
368.069
368.057
368.069
368.056
368.069
368.057
368.07
368.058
368.062
368.058
368.009
368.016
368.054
368.069
368.056
368.069
368.057
368.069
368.056
368.069
368.056
368.069
368.057
368.069
368.059
368.07
368.059
368.071
368.059
368.069
368.057
368.069
368.057
368.069
368.058
368.07
368.057
368.068
368.058
368.052
368.015
1018.6
1080.98
1110.79
1135.17
1159.6
1173.17
1171.9
1158.89
1138.63
1077.49
938.978
865.678
712.232
498.629
823.842
842.011
924.105
1008.9
1045.51
1073.26
1101.34
1129.72
1143.88
1151.6
1152.46
1154.52
1161
1163.08
1160.46
1152.49
1142.02
1130.04
1118.55
1099.15
1081.14
1043.25
948.706
855.847
798.093
739.011
478.077
438.554
431.97
448.256
1013.02
1033.07
1063.14
1051.19
1030.41
1009.3
990.864
1030.67
1095.23
1128.96
1137.58
1134.51
1134.6
1132.22
1129.4
1127.31
1117.09
1100.65
1055.13
1012.65
1004.77
1039.04
1082.49
1098.32
1085.2
1022.55
899.567
801.742
545.659
486.683
865.556
880.982
880.213
886.344
916.413
943.226
974.424
992.072
1004.45
998.73
994.315
988.404
996.139
1017.79
1029.75
1046.07
1057.2
1065.74
1071.53
1074.56
1075.4
1085.5
1101.53
1109.02
1118.36
1113.34
1073.55
1024.92
902.511
515.468
427.468
443.019
463.941
479.473
485.263
483.027
477.838
476.045
488.763
551.034
758.119
1043.41
1068.35
1113.7
1159.89
1178.39
1203.34
1206.89
1204.7
1190.19
1172.91
1138.34
1126.21
907.766
654.034
595.945
585.776
548.293
500.993
470.166
410.977
433.407
435.74
417.271
419.652
404.054
418.479
422.653
442.715
461.214
479.93
499.679
515.744
514.633
499.137
469.833
456.478
441.01
436.064
429.98
426.578
422.474
419.713
416.765
412.076
410.955
404.137
403.518
399.849
397.7
395.408
398.898
397.382
393.48
390.794
388.061
386.787
385.023
383.628
382.395
381.899
380.409
380.401
379.122
379.129
378.123
378.104
377.335
377.291
376.706
376.646
376.212
376.12
375.82
375.698
375.502
375.36
375.246
375.088
374.666
374.312
374.525
374.58
374.404
374.431
374.301
374.317
374.223
374.232
374.163
374.169
374.118
374.121
374.085
374.083
374.06
374.052
374.039
374.03
374.022
374.017
374.01
374.007
374.001
374
373.996
373.995
373.989
373.957
373.562
373.55
373.948
373.979
373.975
373.978
373.973
373.976
373.972
373.975
373.972
373.975
373.972
373.975
373.973
373.976
373.972
373.975
373.971
373.974
373.971
373.975
373.971
373.976
373.971
373.976
373.972
373.975
373.969
373.94
373.545
373.541
373.938
373.97
373.976
373.971
373.975
373.97
373.974
373.97
373.974
373.97
373.974
373.971
373.975
373.971
373.975
373.972
373.976
373.973
373.972
373.973
373.971
373.975
373.971
373.975
373.971
373.975
373.969
373.946
373.548
373.543
373.944
373.975
373.972
373.976
373.971
373.974
373.971
373.974
373.97
373.974
373.971
373.975
373.972
373.976
373.972
373.975
373.972
373.974
373.971
373.975
373.971
373.976
373.971
373.976
373.972
373.974
373.97
373.941
373.545
373.548
373.944
373.967
373.971
373.974
373.971
373.975
373.971
373.975
373.971
373.975
373.971
373.976
373.973
373.974
373.974
373.973
373.977
373.972
373.976
373.971
373.976
373.972
373.976
373.972
373.977
373.972
373.968
373.944
373.549
373.544
373.944
373.974
373.972
373.976
373.972
373.976
373.971
373.975
373.971
373.975
373.972
373.977
373.974
373.978
373.973
373.977
373.974
373.977
373.972
373.976
373.972
373.977
373.973
373.977
373.972
373.975
373.97
373.94
373.544
1089.25
1121.87
1146.73
1173.11
1200.59
1202.16
1185.39
1158.28
1129.38
1098.78
1037.5
991.226
845.656
529.245
847.909
919.456
1017.92
1074.76
1096.62
1121.88
1142.89
1160.18
1166.63
1171.25
1176.63
1182.08
1181.83
1171.38
1151.88
1131.22
1119.5
1116.06
1109.12
1099.84
1085.17
1064.87
991.038
879.509
806.125
764.597
493.541
520.442
436.787
437.794
963.453
1033.44
1058.44
1073.19
1050.37
1013.13
1034.38
1092.83
1128.91
1137.75
1129.59
1125.5
1123.46
1130.1
1137.23
1137.81
1118.93
1061.55
955.857
919.576
945.094
1009.29
1069.17
1090.56
1085.15
1033.49
922.746
829.912
563.612
503.593
864.725
871.209
883.924
899.88
934.663
956.342
974.515
994.576
996.964
985.801
973.101
987.511
994.4
1011.84
1034.68
1047.17
1058.26
1061.1
1066.95
1067.14
1068.02
1081.43
1095.24
1111.55
1118.36
1124.43
1104.92
1041.6
930.051
539.351
426.599
443.355
459.8
472.262
482.477
495.49
504.779
521.752
537.483
685.72
1036.1
1051.86
1084.3
1106.92
1151.09
1190.38
1200.8
1217.46
1226.33
1227.85
1218.62
1201.14
1169.72
1146.89
859.916
632.904
594.25
583.924
544.048
487.59
416.79
433.095
429.192
422.809
412.03
415.92
412.674
429.98
441.271
462.231
479.293
496.398
513.504
526.136
521.537
507.033
479.174
468.121
453.987
448.536
442.757
438.596
434.299
430.855
425.625
423.705
416.982
413.56
409.406
403.732
409.661
417.304
414.589
411.191
405.398
402.654
398.947
397.551
395.442
394.136
392.854
392.132
390.701
390.803
389.243
389.607
388.212
388.617
387.443
387.82
386.852
387.165
386.376
386.641
385.971
386.216
385.604
385.835
385.287
385.487
385.293
385.212
384.969
385.028
384.828
384.863
384.713
384.745
384.63
384.658
384.567
384.595
384.518
384.545
384.481
384.505
384.454
384.473
384.434
384.447
384.421
384.429
384.411
384.414
384.405
384.405
384.398
384.394
384.39
384.508
384.496
384.383
384.382
384.378
384.382
384.374
384.379
384.372
384.377
384.371
384.376
384.371
384.375
384.371
384.374
384.371
384.374
384.37
384.374
384.37
384.376
384.371
384.377
384.372
384.378
384.373
384.377
384.371
384.373
384.49
384.484
384.368
384.373
384.379
384.374
384.377
384.371
384.376
384.37
384.375
384.369
384.374
384.369
384.373
384.37
384.373
384.37
384.375
384.372
384.369
384.372
384.371
384.376
384.371
384.377
384.373
384.377
384.371
384.379
384.498
384.488
384.376
384.377
384.374
384.378
384.371
384.376
384.37
384.375
384.37
384.374
384.37
384.374
384.37
384.373
384.37
384.373
384.37
384.375
384.37
384.376
384.372
384.377
384.372
384.378
384.373
384.376
384.371
384.373
384.49
384.499
384.375
384.368
384.371
384.377
384.372
384.377
384.371
384.376
384.371
384.375
384.37
384.375
384.37
384.371
384.371
384.371
384.375
384.37
384.376
384.37
384.377
384.372
384.377
384.373
384.379
384.373
384.369
384.374
384.499
384.489
384.377
384.378
384.374
384.379
384.372
384.378
384.371
384.377
384.37
384.375
384.369
384.375
384.37
384.374
384.37
384.373
384.369
384.375
384.37
384.375
384.371
384.377
384.371
384.378
384.372
384.376
384.37
384.37
384.486
1134.75
1156
1179.46
1207.49
1213.44
1191.31
1145.9
1091.77
1026.87
1000.78
990.318
995.803
920.844
679.502
886.523
989.855
1076.89
1109.38
1128.84
1150.91
1164.05
1175.17
1179.19
1188.32
1192.94
1189.96
1170.32
1130.8
1092.9
1025.34
996.122
1011.67
1049.12
1068.98
1071.83
1065.1
1001.95
881.947
805.359
777.191
780.058
816.977
470.527
453.193
982.17
1018.14
1066.78
1093.77
1052.28
1035.58
1063.87
1107.34
1123.9
1115.84
1103.19
1093.64
1101.25
1114.84
1131.73
1137.65
1110.91
1027.11
918.371
888.201
915.526
978.246
1044.16
1070.1
1061.85
1000.2
909.839
838.436
620.024
574.77
866.132
873.939
898.114
923.31
942.199
960.29
972.417
977.37
975.758
962.728
959.342
964.567
991.088
1004.39
1028.44
1045.96
1055.54
1084.72
1100.45
1096.52
1086.98
1080.12
1092.21
1103.77
1111.74
1123.44
1116.18
1078.69
958.966
561.172
475.789
504.215
535.354
544.136
574.393
618.482
639.378
641.294
662.712
988.718
1026.6
1064.13
1091.47
1109.9
1144.23
1175.37
1197.56
1211.25
1222.35
1225.17
1232.27
1229.55
1219.48
1182.35
1149.71
796.252
618.883
593.087
573.016
490.912
418.22
425.506
424.129
418.009
426.282
419.485
434.555
434.335
452.832
469.308
487.495
502.13
515.931
528.516
533.69
524.543
512.541
487.871
479.522
466.933
461.99
455.949
451.755
446.386
442.032
437.589
430.248
426.204
416.478
410.672
417.063
424.866
432.621
429.571
423.152
417.849
414.111
410.967
409.244
406.626
405.574
404.058
402.989
401.751
401.319
400.174
399.866
399.045
398.742
398.171
397.863
397.463
397.156
396.887
396.556
396.379
396.004
395.843
395.45
395.47
396.09
395.844
395.578
395.422
395.264
395.189
395.08
395.028
394.954
394.917
394.863
394.842
394.797
394.79
394.745
394.748
394.709
394.717
394.682
394.693
394.666
394.673
394.655
394.66
394.645
394.647
394.63
394.627
394.617
394.761
394.755
394.614
394.612
394.616
394.62
394.62
394.622
394.62
394.62
394.62
394.621
394.62
394.62
394.619
394.619
394.618
394.619
394.618
394.62
394.618
394.62
394.618
394.62
394.618
394.619
394.614
394.611
394.601
394.603
394.744
394.738
394.599
394.603
394.612
394.614
394.618
394.618
394.619
394.617
394.618
394.618
394.619
394.618
394.618
394.618
394.619
394.618
394.621
394.62
394.618
394.618
394.619
394.621
394.619
394.618
394.614
394.61
394.602
394.605
394.751
394.742
394.605
394.605
394.61
394.615
394.616
394.619
394.617
394.618
394.617
394.619
394.618
394.619
394.618
394.619
394.618
394.619
394.618
394.62
394.619
394.62
394.619
394.621
394.619
394.619
394.614
394.61
394.602
394.604
394.744
394.751
394.604
394.6
394.608
394.614
394.616
394.62
394.619
394.62
394.618
394.62
394.618
394.62
394.618
394.618
394.618
394.618
394.62
394.619
394.62
394.618
394.62
394.619
394.621
394.617
394.617
394.611
394.6
394.603
394.751
394.745
394.606
394.605
394.61
394.616
394.617
394.62
394.619
394.62
394.619
394.619
394.619
394.62
394.619
394.621
394.62
394.62
394.619
394.62
394.619
394.621
394.619
394.621
394.618
394.619
394.612
394.605
394.587
394.565
394.704
1170.45
1182.6
1205.11
1218.52
1207.99
1161.32
1099.23
1031.31
1021.84
1013.66
972.427
961.891
932.337
760.377
752.88
875.389
911.507
1025.47
1095.23
1124.83
1144.61
1160.38
1171.55
1182.84
1191.95
1197.85
1191
1160.86
1113.96
1015.25
919.603
893.001
897.135
922.623
979.36
1026.24
1054.41
1051.97
980.182
876.168
810.453
795.014
831.986
881.755
502.407
467.668
519.248
778.577
984.781
1040.18
1086.76
1083.23
1060.59
1036.15
1042.76
1077.49
1092.82
1090.71
1082.23
1081.79
1094.19
1114.55
1133.35
1143.6
1124.33
1071.22
955.328
896.118
885.135
905.684
943.722
969.702
966.765
933.323
886.814
864.103
903.834
923.898
909.369
911.626
884.165
889.939
911.326
935.737
947.63
948.098
953.805
955.165
949.633
949.614
944.805
953.888
965.588
996.922
1013.64
1033.47
1069.09
1115.08
1140.32
1143.7
1124.1
1106.46
1096.36
1099.76
1108.84
1115.38
1124.21
1096.14
1008.81
915.672
765.291
842.142
891.762
902.009
918.967
925.971
928.731
916.524
911.841
914.636
957.381
983.629
1018.6
1044.92
1087.92
1099.78
1134.9
1151.55
1178.05
1192.58
1206
1212.94
1223.28
1234.41
1234.92
1220.93
1176.76
1191.39
690.539
595.328
578.71
518.922
455.764
429.32
444.977
429.469
439.063
446.147
435.589
452.869
440.693
466.947
471.036
488.925
499.572
512.645
523.092
532.144
536.854
537.672
523.125
517.45
496.561
490.068
480.328
475.013
469.891
465.301
460.096
455.566
449.217
443.354
432.399
417.617
414.16
415.926
418.464
432.717
443.14
446.355
440.261
435.025
430.315
428.484
424.963
423.739
421.779
420.144
419.609
417.983
417.433
416.52
415.944
415.254
414.839
414.32
413.928
413.572
413.225
412.925
412.629
412.341
411.986
411.747
411.166
411.676
412.589
412.883
412.504
412.212
411.369
411.585
411.105
411.272
410.942
411.066
410.828
410.913
410.748
410.809
410.69
410.732
410.645
410.675
410.61
410.629
410.584
410.592
410.562
410.567
410.544
410.548
410.526
410.527
410.506
410.507
410.553
411.244
411.889
411.893
411.245
410.559
410.494
410.49
410.493
410.493
410.498
410.495
410.497
410.495
410.497
410.496
410.498
410.497
410.497
410.496
410.497
410.496
410.497
410.495
410.496
410.494
410.496
410.493
410.492
410.486
410.483
410.481
410.54
411.23
411.88
411.88
411.227
410.536
410.483
410.484
410.486
410.491
410.492
410.495
410.493
410.494
410.494
410.496
410.496
410.497
410.496
410.497
410.496
410.498
410.498
410.493
410.494
410.495
410.495
410.493
410.491
410.485
410.483
410.483
410.544
411.236
411.88
411.88
411.23
410.543
410.485
410.482
410.486
410.488
410.493
410.492
410.495
410.493
410.495
410.495
410.497
410.496
410.497
410.496
410.497
410.496
410.497
410.495
410.496
410.495
410.497
410.494
410.492
410.486
410.481
410.482
410.541
411.231
411.88
411.88
411.236
410.541
410.479
410.48
410.486
410.489
410.494
410.494
410.495
410.495
410.496
410.496
410.497
410.496
410.495
410.496
410.496
410.497
410.495
410.496
410.494
410.495
410.494
410.495
410.49
410.488
410.483
410.48
410.54
411.236
411.879
411.879
411.232
410.544
410.486
410.482
410.488
410.489
410.495
410.493
410.495
410.493
410.494
410.493
410.494
410.495
410.496
410.496
410.497
410.496
410.497
410.494
410.495
410.492
410.494
410.489
410.489
410.483
410.479
410.478
410.539
411.226
411.838
411.324
1197.2
1205
1217.87
1219.77
1199.12
1143.96
1080.56
1051.72
1055.23
1055.16
1019.53
961.036
932.509
831.796
781.78
801.45
862.467
971.594
1088.7
1124.2
1144.98
1160.72
1176.63
1191.92
1201.14
1193.24
1152.74
1102.18
985.142
890.191
871.556
880.825
901.821
930.682
962.304
993.87
1006.97
990.455
927.723
859.836
825.695
829.194
887.822
898.335
505.393
520.029
688.12
964.81
1015.57
1062.61
1085.49
1092.49
1068.11
1033.34
1023.86
1026.5
1046.94
1063.04
1078.79
1094.29
1111.72
1131.12
1146.55
1150.91
1147.59
1121.29
1079.28
1005.64
939.242
902.712
895.113
898.511
900.962
896.334
890.731
899.977
924.812
930.467
917.488
902.026
896.83
905.773
926.707
940.177
940.207
941.782
937.832
939.228
946.049
958.132
958.585
954.962
958.835
972.38
1002.84
1018.18
1061.07
1124.79
1172.71
1183.16
1163.42
1131.27
1113.27
1107.62
1107.83
1112.2
1121.27
1107.2
1036.58
820.553
831.08
858.859
889.507
933.959
962.422
990.058
993.949
989.134
976.236
985.988
1020.74
1038.06
1058.47
1060.02
1080.5
1088.88
1118.19
1137.22
1157.1
1173.23
1184.23
1196.17
1209.24
1226.88
1237
1236.87
1215.55
1171.49
895.221
662.594
593.385
558.319
506.071
486.16
469.009
477.278
471.305
464.313
480.437
477.263
484.01
492.904
500.464
507.455
516.805
524.618
532.167
536.617
540.382
539.523
538.765
521.704
520.275
504.407
499.869
492.437
488.4
483.156
478.436
473.782
467.046
461.276
453.323
441.933
438.053
431.852
440.903
447.683
457.978
458.874
456.312
450.685
446.975
444.62
440.898
440.226
436.889
436.024
434.631
433.035
432.617
431.035
430.905
429.7
429.443
428.614
428.413
427.708
427.578
426.988
426.846
426.366
426.2
425.812
425.549
425.405
426.202
426.113
426.042
425.989
425.46
425.551
425.172
425.243
424.968
425.077
424.815
424.908
424.726
424.796
424.658
424.709
424.613
424.643
424.576
424.598
424.543
424.564
424.518
424.539
424.501
424.517
424.486
424.492
424.472
424.479
424.476
424.573
425.236
425.245
424.567
424.481
424.465
424.463
424.462
424.466
424.468
424.47
424.47
424.471
424.471
424.472
424.473
424.473
424.473
424.473
424.473
424.472
424.471
424.469
424.469
424.468
424.467
424.465
424.462
424.456
424.454
424.454
424.465
424.556
425.23
425.23
424.554
424.462
424.457
424.455
424.456
424.461
424.465
424.467
424.467
424.468
424.469
424.471
424.471
424.473
424.472
424.473
424.472
424.473
424.472
424.468
424.467
424.469
424.468
424.465
424.461
424.456
424.454
424.456
424.467
424.559