/*--------------------------------*- C++ -*----------------------------------*\
| =========                 |                                                 |
| \\      /  F ield         | OpenFOAM: The Open Source CFD Toolbox           |
|  \\    /   O peration     | Version:  2.1.1                                 |
|   \\  /    A nd           | Web:      www.OpenFOAM.org                      |
|    \\/     M anipulation  |                                                 |
\*---------------------------------------------------------------------------*/
FoamFile
{
    version     2.0;
    format      ascii;
    class       volScalarField;
    location    "0.002600000";
    object      H2O2;
}
// * * * * * * * * * * * * * * * * * * * * * * * * * * * * * * * * * * * * * //

dimensions      [0 0 0 0 0 0 0];

internalField   nonuniform List<scalar> 
12384
(
9.088e-07
9.18379e-07
8.22574e-07
6.12851e-07
4.28939e-07
4.35697e-07
4.29956e-07
4.32547e-07
4.17062e-07
3.89171e-07
3.85416e-07
6.07044e-08
1.9026e-09
1.04134e-11
9.88519e-10
6.37845e-09
2.07663e-08
3.65488e-08
1.90763e-07
1.91239e-07
1.92959e-07
1.8988e-07
1.91235e-07
1.97342e-07
2.00552e-07
2.01824e-07
1.99329e-07
1.94038e-07
1.88208e-07
1.84254e-07
1.83843e-07
1.83327e-07
1.68078e-07
1.596e-07
1.50723e-07
4.84824e-08
2.38536e-08
1.28367e-08
3.76787e-09
9.57753e-11
2.50236e-12
1.0065e-13
2.63079e-15
1.22814e-16
2.06434e-06
1.54155e-06
9.56668e-07
6.75983e-07
5.17011e-07
5.89139e-07
5.12931e-07
5.4408e-07
5.33255e-07
5.33736e-07
5.29567e-07
5.21595e-07
5.13616e-07
5.04687e-07
4.99996e-07
5.00227e-07
4.98449e-07
4.93233e-07
4.81249e-07
4.64691e-07
4.24397e-07
4.09379e-07
3.65944e-07
2.64308e-07
5.08539e-08
1.32106e-08
2.83801e-09
2.16609e-10
6.00211e-12
2.67224e-14
3.99718e-09
1.22708e-08
1.91162e-07
3.89605e-07
3.20094e-07
3.75255e-07
2.20801e-07
1.74135e-07
1.10595e-07
7.25822e-08
7.22939e-08
7.43661e-08
7.94289e-08
1.37682e-07
1.71388e-07
2.29372e-07
3.43434e-07
5.03392e-07
5.88947e-07
2.37991e-07
8.2506e-08
5.47972e-08
3.29981e-08
2.07376e-08
1.33664e-08
2.33099e-09
2.83554e-10
1.17134e-10
2.39831e-11
1.76356e-13
7.46387e-29
3.42332e-28
7.17931e-27
2.64108e-26
5.81833e-26
1.16765e-25
2.55763e-25
1.81021e-24
1.86366e-23
2.4889e-21
3.23271e-19
5.00396e-17
3.22399e-14
7.04744e-12
3.93681e-10
7.19285e-10
1.34372e-10
4.82991e-11
1.59067e-11
9.55506e-13
3.39027e-14
3.21705e-16
2.74282e-18
6.34807e-21
3.4342e-23
1.48396e-26
4.07876e-29
3.1447e-32
1.53636e-35
1.177e-38
6.12671e-56
1.59158e-56
3.38255e-59
3.71808e-62
3.0436e-65
2.02234e-68
1.32564e-71
8.8182e-75
5.15026e-78
3.10979e-81
1.45375e-84
6.26355e-88
2.25728e-91
7.57126e-95
2.26975e-98
6.67154e-102
1.91414e-105
5.29873e-109
1.45678e-112
3.90121e-116
1.0506e-119
2.86396e-123
8.0753e-127
2.26867e-130
6.20501e-134
1.8497e-137
5.2831e-141
1.53714e-144
4.46194e-148
1.27098e-151
1.47841e-164
3.07502e-166
1.37878e-169
4.79122e-173
9.42205e-179
2.24358e-184
2.31299e-189
6.1285e-194
1.56235e-198
2.91751e-203
3.1591e-208
2.22748e-213
1.31542e-218
6.39065e-224
2.80984e-229
1.07836e-234
3.74183e-240
1.12967e-245
3.1621e-251
7.88954e-257
1.87043e-262
4.07529e-268
8.62008e-274
1.73124e-279
3.47252e-285
6.91543e-291
1.45897e-296
3.46157e-302
1.1357e-307
9.11104e-313
0
0
0
0
0
0
0
0
0
0
0
0
0
0
0
0
0
0
0
0
0
0
0
0
0
0
0
0
0
0
0
0
0
0
0
0
0
0
0
0
0
0
0
0
0
0
0
0
0
0
0
0
0
0
0
0
0
0
0
0
0
0
0
0
0
0
0
0
0
0
0
0
0
0
0
0
0
0
0
0
0
0
0
0
0
0
0
0
0
0
0
0
0
0
0
0
0
0
0
0
0
0
0
0
0
0
0
0
0
0
0
0
0
0
0
0
0
0
0
0
0
0
0
0
0
0
0
0
0
0
0
0
0
0
0
0
0
0
0
0
0
0
0
0
0
0
0
0
0
0
0
0
0
0
0
0
0
0
0
0
0
0
0
0
0
0
0
0
0
0
0
0
0
0
0
0
0
0
0
0
9.06067e-07
7.14759e-07
3.97534e-07
2.01693e-07
1.1539e-07
8.79265e-08
1.13389e-07
1.39733e-07
1.95914e-07
2.04816e-07
1.95721e-07
1.61936e-08
2.95697e-10
3.46917e-12
6.28095e-09
4.38153e-08
1.40506e-07
1.53293e-07
1.76284e-07
1.83648e-07
1.88666e-07
1.89752e-07
1.90282e-07
1.89602e-07
1.90765e-07
1.90309e-07
1.89362e-07
1.89714e-07
1.91904e-07
1.83942e-07
1.62375e-07
1.57657e-07
1.58622e-07
1.56896e-07
1.5302e-07
1.51797e-07
1.46185e-07
1.15889e-07
4.00197e-08
3.61656e-09
6.69335e-11
4.31203e-12
1.09629e-13
3.47487e-15
9.42165e-07
1.44316e-06
1.32795e-06
6.94962e-07
5.51282e-07
5.79064e-07
5.46202e-07
5.5467e-07
5.56401e-07
5.5408e-07
5.20781e-07
4.19744e-07
2.5362e-07
1.91979e-07
1.62787e-07
1.55125e-07
1.6714e-07
1.81704e-07
2.02565e-07
2.5602e-07
3.83863e-07
4.72788e-07
4.54625e-07
3.50481e-07
1.95895e-07
6.11635e-08
2.33004e-08
8.59605e-09
7.69695e-10
5.6544e-12
1.02737e-08
3.74365e-07
2.43245e-07
2.6135e-07
3.90862e-07
4.02666e-07
3.50384e-07
2.55746e-07
1.69146e-07
1.30706e-07
1.16981e-07
1.45477e-07
1.76691e-07
1.89891e-07
1.88678e-07
2.29078e-07
2.6529e-07
4.28482e-07
5.74161e-07
3.13857e-07
1.87665e-07
3.15879e-07
5.52111e-07
4.71224e-07
4.30421e-07
8.91244e-08
3.11249e-08
1.37489e-08
2.07888e-09
3.43264e-11
7.9061e-26
2.18144e-25
5.98319e-24
4.75854e-23
1.66848e-22
2.31325e-22
2.67024e-22
6.42837e-22
9.76144e-21
2.14617e-18
3.82355e-16
1.02537e-13
7.84705e-11
2.17109e-09
5.74337e-09
4.64772e-09
2.60982e-09
1.00375e-09
7.39173e-11
7.33846e-12
8.36143e-13
6.43049e-14
1.22405e-14
2.43455e-17
1.77898e-20
5.63989e-25
5.53773e-27
7.73059e-30
1.56259e-32
9.25315e-36
6.4018e-53
7.07414e-54
1.40194e-56
7.04006e-60
1.96647e-62
1.85923e-65
3.40613e-68
2.15454e-71
1.11152e-74
2.92729e-78
6.96218e-82
9.35465e-86
3.03769e-89
5.16317e-93
4.22143e-97
4.20972e-101
5.22026e-105
7.13274e-109
1.15162e-112
2.26945e-116
4.71486e-120
1.95079e-123
6.60409e-127
3.03718e-130
1.28316e-132
5.41496e-136
1.77193e-139
5.84115e-143
1.81218e-146
5.07339e-150
5.00742e-161
1.07764e-162
4.05786e-166
1.49311e-169
3.79784e-173
1.31193e-178
2.2784e-183
6.27462e-188
2.49882e-192
4.84971e-197
5.25597e-202
3.70991e-207
1.95522e-212
8.87457e-218
3.57369e-223
1.33591e-228
4.37401e-234
1.31137e-239
3.45251e-245
8.5512e-251
1.8846e-256
4.03981e-262
7.92142e-268
1.54484e-273
2.87869e-279
5.46479e-285
1.06811e-290
2.35458e-296
6.87667e-302
3.43908e-307
0
0
0
0
0
0
0
0
0
0
0
0
0
0
0
0
0
0
0
0
0
0
0
0
0
0
0
0
0
0
0
0
0
0
0
0
0
0
0
0
0
0
0
0
0
0
0
0
0
0
0
0
0
0
0
0
0
0
0
0
0
0
0
0
0
0
0
0
0
0
0
0
0
0
0
0
0
0
0
0
0
0
0
0
0
0
0
0
0
0
0
0
0
0
0
0
0
0
0
0
0
0
0
0
0
0
0
0
0
0
0
0
0
0
0
0
0
0
0
0
0
0
0
0
0
0
0
0
0
0
0
0
0
0
0
0
0
0
0
0
0
0
0
0
0
0
0
0
0
0
0
0
0
0
0
0
0
0
0
0
0
0
0
0
0
0
0
0
0
0
0
0
0
0
0
0
0
0
0
0
6.84984e-07
3.40289e-07
2.02482e-07
1.57597e-07
8.90269e-08
4.63659e-08
2.82136e-08
3.16788e-08
5.25917e-08
7.40185e-08
1.43813e-07
1.63211e-08
2.86285e-09
5.70253e-11
1.4498e-08
9.24529e-08
1.11248e-07
1.39452e-07
1.67004e-07
1.87931e-07
2.11415e-07
2.27953e-07
2.48138e-07
2.53868e-07
2.52913e-07
2.98819e-07
3.69874e-07
4.63821e-07
5.25387e-07
5.11692e-07
3.73437e-07
2.24864e-07
1.58175e-07
1.46495e-07
1.36135e-07
1.1437e-07
9.93419e-08
8.16839e-08
1.9054e-08
2.88503e-09
8.02473e-10
8.89858e-11
3.88076e-12
5.411e-14
7.40676e-07
1.35523e-06
1.28778e-06
8.44869e-07
5.26211e-07
5.9581e-07
5.15619e-07
5.08045e-07
4.83775e-07
4.86729e-07
5.24662e-07
5.36337e-07
3.65566e-07
7.90168e-08
4.23444e-08
2.46013e-08
2.11533e-08
1.97692e-08
2.00553e-08
2.21316e-08
2.38596e-08
4.07391e-08
1.39308e-07
4.71421e-07
4.05047e-07
1.94765e-07
1.34345e-08
1.03016e-08
2.10159e-09
4.16147e-11
3.24542e-07
3.33127e-07
2.96985e-07
2.17083e-07
3.63974e-07
3.70562e-07
3.95682e-07
3.45092e-07
2.08262e-07
1.78338e-07
1.6713e-07
2.34859e-07
3.30606e-07
2.70166e-07
2.40567e-07
2.20118e-07
2.45142e-07
3.42941e-07
4.78489e-07
3.73716e-07
1.07438e-07
6.47007e-08
7.70291e-08
7.99688e-08
2.16671e-07
5.58449e-07
4.29105e-07
1.00094e-07
1.87083e-08
7.60048e-10
2.82278e-23
1.529e-22
1.6321e-20
1.48522e-19
2.04244e-19
1.06967e-19
1.40644e-19
1.07578e-18
2.31816e-17
6.95487e-15
1.42208e-12
4.50785e-10
8.51086e-09
7.96429e-09
6.05701e-09
5.48799e-09
9.86287e-09
1.69576e-08
3.11333e-09
3.82531e-10
3.635e-11
7.87593e-13
5.21832e-14
1.09741e-15
1.89132e-16
7.33646e-19
2.07315e-23
9.99902e-28
1.51454e-30
5.97383e-33
1.57448e-50
1.10359e-50
1.41232e-52
1.10205e-54
2.12491e-57
1.1221e-60
3.75046e-64
1.29503e-67
7.45748e-71
5.80671e-74
1.09892e-76
2.40411e-80
1.42151e-84
1.04498e-88
2.2845e-94
1.81939e-98
1.60361e-102
1.63031e-106
1.47005e-110
1.35475e-114
2.96645e-118
6.2761e-122
1.78868e-125
4.8042e-129
3.03655e-131
1.03469e-134
3.87902e-138
2.20204e-141
6.73434e-145
1.03096e-148
1.13201e-159
4.47935e-161
1.65642e-164
6.9901e-168
1.05845e-171
3.29052e-175
5.77555e-180
2.38623e-184
1.04062e-188
3.02613e-193
2.29946e-198
2.42842e-203
9.47923e-209
5.19117e-214
1.84064e-219
6.95747e-225
2.30018e-230
6.15505e-236
1.7607e-241
3.59706e-247
8.95277e-253
1.53118e-258
3.37915e-264
5.28519e-270
1.07967e-275
1.65584e-281
3.40084e-287
6.09701e-293
1.70019e-298
2.82323e-304
0
0
0
0
0
0
0
0
0
0
0
0
0
0
0
0
0
0
0
0
0
0
0
0
0
0
0
0
0
0
0
0
0
0
0
0
0
0
0
0
0
0
0
0
0
0
0
0
0
0
0
0
0
0
0
0
0
0
0
0
0
0
0
0
0
0
0
0
0
0
0
0
0
0
0
0
0
0
0
0
0
0
0
0
0
0
0
0
0
0
0
0
0
0
0
0
0
0
0
0
0
0
0
0
0
0
0
0
0
0
0
0
0
0
0
0
0
0
0
0
0
0
0
0
0
0
0
0
0
0
0
0
0
0
0
0
0
0
0
0
0
0
0
0
0
0
0
0
0
0
0
0
0
0
0
0
0
0
0
0
0
0
0
0
0
0
0
0
0
0
0
0
0
0
0
0
0
0
0
0
3.31799e-07
4.17904e-07
6.20176e-07
7.74875e-07
5.74948e-07
2.71102e-07
1.33437e-07
8.9605e-08
5.49245e-08
2.66474e-08
3.12849e-08
4.22811e-09
2.36558e-09
1.964e-10
1.62796e-08
5.42195e-08
1.07401e-07
1.78301e-07
2.21988e-07
2.60466e-07
3.86632e-07
5.5516e-07
6.19933e-07
6.8556e-07
6.664e-07
5.91219e-07
5.18995e-07
5.05572e-07
4.97905e-07
5.29536e-07
6.77744e-07
7.34228e-07
5.4118e-07
2.77792e-07
1.86571e-07
1.35547e-07
8.18296e-08
5.18933e-08
1.78431e-08
4.76952e-09
1.59629e-09
2.13125e-10
2.05157e-11
3.81673e-13
7.14053e-07
1.06802e-06
1.11276e-06
6.97811e-07
6.07101e-07
4.30104e-07
4.1923e-07
3.69387e-07
3.61551e-07
4.49071e-07
5.36864e-07
5.57993e-07
5.20883e-07
4.68555e-07
2.54292e-07
1.59584e-07
6.6437e-08
5.66913e-08
4.60833e-08
3.95866e-08
2.6051e-08
1.79844e-08
1.81154e-08
5.86176e-08
3.7846e-07
3.6428e-07
4.82187e-08
8.90335e-09
3.70004e-09
2.00502e-10
3.06271e-07
3.21655e-07
2.93374e-07
2.6324e-07
3.27457e-07
3.87047e-07
4.29943e-07
3.37366e-07
2.3707e-07
2.19355e-07
2.93282e-07
4.50576e-07
4.66947e-07
4.83746e-07
4.08485e-07
2.9836e-07
3.39263e-07
3.9378e-07
4.37047e-07
3.82421e-07
1.12789e-07
2.16671e-08
1.03241e-08
8.26226e-09
1.08408e-08
5.61697e-08
3.67607e-07
2.23663e-07
3.56567e-08
5.07265e-09
1.33201e-20
3.22045e-19
2.8159e-17
8.59552e-17
5.52822e-17
8.3151e-17
2.0582e-16
2.07162e-15
2.03712e-14
9.57888e-12
3.0273e-09
1.83991e-08
3.4421e-09
2.77306e-09
1.34054e-09
7.0249e-10
1.33413e-09
1.46685e-09
3.98179e-09
2.98166e-09
7.29451e-10
1.77149e-10
9.16882e-12
9.19588e-14
1.07261e-15
2.95405e-17
2.47839e-18
7.08714e-23
1.19261e-27
1.33381e-30
4.50286e-46
2.31605e-45
1.65084e-47
2.97391e-51
1.19281e-54
5.87921e-58
3.52419e-61
9.11411e-65
2.43061e-68
6.37603e-72
2.98554e-75
3.43941e-78
1.52201e-80
2.58035e-83
3.26409e-87
2.3645e-91
2.06912e-95
1.45946e-99
8.58183e-104
6.53856e-108
8.25074e-112
1.49575e-115
3.18298e-119
5.15442e-123
1.24605e-126
2.43509e-130
5.09606e-134
1.02371e-137
1.59986e-141
1.75992e-145
3.54463e-154
4.85377e-156
2.14386e-159
3.30063e-163
1.00109e-166
1.46432e-170
3.24929e-174
7.47197e-179
8.90565e-183
1.4063e-187
1.90024e-192
1.22883e-197
8.17779e-203
2.88881e-208
1.28046e-213
3.75396e-219
1.36642e-224
3.44548e-230
1.01049e-235
2.08682e-241
4.8409e-247
8.40703e-253
1.63549e-258
2.56488e-264
4.48176e-270
6.70498e-276
1.14228e-281
1.91354e-287
4.14919e-293
9.93733e-299
8.74002e-321
4.94066e-324
0
0
0
0
0
0
0
0
0
0
0
0
0
0
0
0
0
0
0
0
0
0
0
0
0
0
0
0
0
0
0
0
0
0
0
0
0
0
0
0
0
0
0
0
0
0
0
0
0
0
0
0
0
0
0
0
0
0
0
0
0
0
0
0
0
0
0
0
0
0
0
0
0
0
0
0
0
0
0
0
0
0
0
0
0
0
0
0
0
0
0
0
0
0
0
0
0
0
0
0
0
0
0
0
0
0
0
0
0
0
0
0
0
0
0
0
0
0
0
0
0
0
0
0
0
0
0
0
0
0
0
0
0
0
0
0
0
0
0
0
0
0
0
0
0
0
0
0
0
0
0
0
0
0
0
0
0
0
0
0
0
0
0
0
0
0
0
0
0
0
0
0
0
0
0
0
0
0
5.21848e-07
1.13744e-06
1.30867e-06
1.23823e-06
1.131e-06
1.06561e-06
9.19316e-07
8.25937e-07
5.53986e-07
1.94634e-07
1.59203e-08
1.75109e-09
2.33404e-09
1.22131e-09
2.12262e-08
3.53873e-08
1.39379e-07
2.72837e-07
4.3817e-07
6.1164e-07
6.74063e-07
4.37806e-07
1.79931e-07
8.44064e-08
6.98713e-08
5.42263e-08
4.85444e-08
4.02176e-08
3.06301e-08
3.57277e-08
5.19121e-08
1.14238e-07
2.64891e-07
6.35834e-07
6.14971e-07
3.04529e-07
1.16818e-07
4.55001e-08
1.86927e-08
9.59377e-10
1.49128e-09
1.72591e-10
1.87924e-11
7.76123e-13
5.23282e-07
8.29345e-07
7.75597e-07
7.90672e-07
4.41157e-07
4.06774e-07
3.40467e-07
3.09636e-07
5.1177e-07
7.45888e-07
4.38942e-07
2.26571e-07
1.94253e-07
2.67643e-07
2.69991e-07
2.42426e-07
2.33966e-07
2.27779e-07
2.47682e-07
2.55729e-07
2.46771e-07
7.68419e-08
2.57289e-08
1.70872e-08
7.22143e-08
4.54228e-07
1.0192e-07
4.80767e-09
1.34395e-08
1.61843e-09
2.82365e-07
3.01102e-07
2.89499e-07
2.86123e-07
3.67757e-07
4.23268e-07
4.19961e-07
3.53443e-07
2.95258e-07
3.41297e-07
4.08761e-07
5.02343e-07
5.23938e-07
5.51586e-07
5.42006e-07
5.30349e-07
5.55702e-07
5.72134e-07
5.01773e-07
4.27274e-07
2.31867e-07
2.80826e-08
6.29089e-09
3.03141e-09
2.48847e-09
4.34067e-09
6.0255e-08
4.98575e-07
1.54319e-07
1.39878e-08
8.9932e-18
5.34414e-16
1.78106e-14
2.45638e-14
2.59636e-14
9.20068e-14
1.77334e-13
1.61188e-12
1.85877e-11
4.23131e-09
3.64467e-08
1.6263e-08
1.21591e-08
4.03656e-09
9.59907e-10
2.6652e-10
1.47964e-10
2.93939e-10
5.10007e-10
1.1007e-09
1.36197e-09
6.82929e-10
9.43557e-11
3.00387e-11
1.7156e-13
1.29732e-15
2.43839e-17
2.22903e-18
4.12172e-23
6.77458e-28
4.58937e-41
5.46706e-41
1.95524e-44
1.18489e-47
8.49481e-51
2.97824e-54
6.20345e-58
3.19694e-61
9.59165e-65
9.19149e-69
1.14874e-72
3.38857e-76
2.56032e-79
7.3146e-82
4.03789e-84
6.20741e-87
1.03448e-90
1.25772e-94
1.17069e-98
9.99017e-103
1.45858e-106
2.90583e-110
6.54225e-114
1.37949e-117
2.49408e-121
5.62004e-125
8.64726e-129
1.55027e-132
1.77005e-136
1.76557e-140
8.21247e-149
1.87009e-150
5.53282e-154
1.4824e-157
2.4779e-161
5.34544e-165
8.04415e-169
1.75749e-172
2.23855e-176
4.3154e-181
3.7323e-186
3.74687e-191
1.6809e-196
1.06384e-201
3.38879e-207
1.52491e-212
3.91346e-218
1.37671e-223
3.11753e-229
8.61275e-235
1.55633e-240
3.3624e-246
5.08932e-252
9.16183e-258
1.2344e-263
1.9196e-269
2.50206e-275
4.05737e-281
6.71416e-287
1.5581e-292
3.95055e-314
1.20169e-317
5.43472e-323
0
0
0
0
0
0
0
0
0
0
0
0
0
0
0
0
0
0
0
0
0
0
0
0
0
0
0
0
0
0
0
0
0
0
0
0
0
0
0
0
0
0
0
0
0
0
0
0
0
0
0
0
0
0
0
0
0
0
0
0
0
0
0
0
0
0
0
0
0
0
0
0
0
0
0
0
0
0
0
0
0
0
0
0
0
0
0
0
0
0
0
0
0
0
0
0
0
0
0
0
0
0
0
0
0
0
0
0
0
0
0
0
0
0
0
0
0
0
0
0
0
0
0
0
0
0
0
0
0
0
0
0
0
0
0
0
0
0
0
0
0
0
0
0
0
0
0
0
0
0
0
0
0
0
0
0
0
0
0
0
0
0
0
0
0
0
0
0
0
0
0
0
0
0
0
0
0
1.26102e-06
1.08324e-06
8.0895e-07
5.2984e-07
1.92165e-07
7.98744e-08
8.14565e-08
1.27139e-07
3.3693e-07
8.4697e-07
2.13409e-07
5.44322e-08
7.77467e-10
1.78075e-09
3.3763e-08
5.18942e-08
1.73155e-07
4.81646e-07
6.27965e-07
4.71947e-07
1.49087e-07
4.10275e-08
1.66432e-08
1.23924e-08
1.0409e-08
7.9403e-09
5.18626e-09
4.17209e-09
4.72133e-09
7.31558e-09
1.18351e-08
2.0322e-08
4.47593e-08
1.20832e-07
3.58161e-07
5.5851e-07
2.18007e-07
5.22716e-08
1.45068e-08
3.34425e-09
8.54603e-10
4.38818e-10
1.36177e-10
1.32332e-11
5.46543e-07
5.25705e-07
7.96186e-07
6.08415e-07
4.83756e-07
4.08418e-07
3.37034e-07
5.8382e-07
6.99147e-07
2.12565e-07
1.04572e-07
6.3912e-08
5.77304e-08
5.6262e-08
6.75539e-08
8.03464e-08
7.90586e-08
1.63117e-07
4.64314e-07
4.80966e-07
4.57719e-07
4.83612e-07
7.71857e-08
1.62973e-08
4.03596e-08
4.73126e-07
1.82295e-07
2.89697e-08
1.84476e-08
2.69864e-09
2.86449e-07
2.8536e-07
2.90703e-07
3.20965e-07
3.906e-07
4.37083e-07
4.27468e-07
3.71964e-07
3.7598e-07
4.26161e-07
5.04083e-07
5.07366e-07
5.34906e-07
5.86009e-07
5.90215e-07
6.10941e-07
6.24315e-07
6.39727e-07
6.30723e-07
5.6284e-07
4.13117e-07
1.23042e-07
1.36706e-08
4.21597e-09
1.49208e-09
1.19983e-09
5.1236e-09
3.92179e-07
2.37354e-07
1.41057e-08
1.28531e-14
5.89208e-13
4.56878e-12
4.98685e-12
6.29203e-12
2.34719e-11
5.07328e-11
6.2843e-10
3.73598e-09
2.85268e-08
9.92248e-08
7.50681e-08
2.84935e-08
5.21252e-09
5.41645e-10
1.06559e-10
6.31804e-11
4.03802e-11
5.50812e-11
1.09512e-10
1.40368e-10
2.82818e-10
1.48212e-10
4.35375e-11
2.05072e-11
3.77952e-13
1.0449e-15
2.77583e-17
6.40656e-19
2.40752e-24
1.24269e-36
8.43322e-38
4.20114e-41
3.36342e-44
8.64786e-48
1.16475e-52
1.37167e-56
1.74285e-60
1.68308e-63
4.61623e-67
6.48197e-71
1.19728e-74
3.29469e-78
2.19355e-81
4.94827e-84
2.19092e-86
8.41382e-89
1.15325e-91
5.26254e-95
1.70242e-98
5.22939e-102
1.4536e-105
3.74035e-109
9.49308e-113
2.09998e-116
4.59459e-120
8.6815e-124
1.43681e-127
1.85884e-131
1.51059e-135
6.96538e-144
1.33576e-145
5.41009e-149
1.20439e-152
2.61238e-156
4.70581e-160
9.63778e-164
1.69535e-167
3.70862e-171
6.58338e-175
6.82607e-180
4.23761e-185
2.71578e-190
1.21568e-195
5.99532e-201
2.11387e-206
8.45578e-212
2.46384e-217
7.32499e-223
1.7496e-228
3.89505e-234
7.27256e-240
1.25674e-245
1.94023e-251
2.67662e-257
3.40015e-263
4.14901e-269
5.47467e-275
7.85031e-281
1.24473e-286
1.37997e-307
4.11564e-311
1.24742e-316
2.91499e-322
0
0
0
0
0
0
0
0
0
0
0
0
0
0
0
0
0
0
0
0
0
0
0
0
0
0
0
0
0
0
0
0
0
0
0
0
0
0
0
0
0
0
0
0
0
0
0
0
0
0
0
0
0
0
0
0
0
0
0
0
0
0
0
0
0
0
0
0
0
0
0
0
0
0
0
0
0
0
0
0
0
0
0
0
0
0
0
0
0
0
0
0
0
0
0
0
0
0
0
0
0
0
0
0
0
0
0
0
0
0
0
0
0
0
0
0
0
0
0
0
0
0
0
0
0
0
0
0
0
0
0
0
0
0
0
0
0
0
0
0
0
0
0
0
0
0
0
0
0
0
0
0
0
0
0
0
0
0
0
0
0
0
0
0
0
0
0
0
0
0
0
0
0
0
0
0
9.61528e-07
5.78938e-07
3.37962e-07
6.5313e-08
1.0207e-08
7.16083e-09
1.47656e-08
5.90623e-08
2.2726e-07
6.68885e-07
7.32886e-07
4.87462e-07
3.70384e-08
1.72777e-09
5.47676e-08
1.54338e-07
5.13725e-07
4.04959e-07
1.88148e-07
5.71309e-08
1.51665e-08
6.82382e-09
4.29229e-09
3.35944e-09
2.20015e-09
1.70722e-09
1.60442e-09
2.37699e-09
5.26309e-09
1.07437e-08
1.82453e-08
2.58303e-08
3.9535e-08
9.45923e-08
2.24573e-07
4.87672e-07
3.3616e-07
7.57577e-08
1.85634e-08
7.39546e-09
1.27333e-09
2.75309e-09
6.44256e-10
6.79391e-11
4.07904e-07
5.3592e-07
5.97509e-07
6.27958e-07
5.69449e-07
4.19967e-07
5.91975e-07
7.77768e-07
2.17298e-07
7.94069e-08
4.13573e-08
4.24942e-08
3.96783e-08
3.90253e-08
4.10664e-08
3.53823e-08
4.21708e-08
3.53431e-07
3.30446e-07
2.15437e-07
3.02715e-07
4.7815e-07
1.91279e-07
2.46664e-08
4.35922e-08
4.71922e-07
2.13444e-07
4.13098e-08
2.66405e-08
6.09595e-09
2.97947e-07
2.83579e-07
3.15817e-07
3.59552e-07
4.31054e-07
4.44545e-07
4.34408e-07
4.40543e-07
4.6258e-07
4.87318e-07
4.80139e-07
5.25144e-07
5.23377e-07
5.6867e-07
6.0315e-07
6.12379e-07
6.32397e-07
6.31914e-07
6.33101e-07
6.15479e-07
5.85695e-07
4.14344e-07
6.6498e-08
1.04427e-08
2.44081e-09
9.09134e-10
1.18433e-09
2.77888e-08
3.76608e-07
2.51102e-08
1.78154e-11
1.86072e-10
7.19718e-10
1.21432e-09
1.45708e-09
3.32966e-09
6.36533e-09
1.63188e-08
2.43466e-08
9.63337e-08
4.23308e-07
2.04192e-07
4.77946e-08
8.28325e-09
5.92146e-10
5.70254e-11
2.08307e-11
1.66175e-11
2.73746e-11
5.01185e-11
4.02928e-11
3.6806e-11
5.33436e-11
2.89891e-11
1.27652e-11
8.38169e-12
5.83602e-14
2.48596e-16
9.27009e-18
3.06269e-20
1.10471e-32
1.87414e-34
1.15917e-37
5.27795e-41
8.01341e-46
3.08135e-50
1.60308e-54
1.91696e-58
2.13655e-61
7.76539e-65
1.47808e-68
3.89667e-72
1.1465e-75
4.60636e-79
4.06819e-82
9.85086e-85
3.13411e-87
9.00095e-90
1.84904e-92
2.543e-95
1.95942e-98
1.10607e-101
4.76532e-105
1.78133e-108
5.59676e-112
1.69173e-115
4.04455e-119
7.83888e-123
1.10723e-126
8.53899e-131
6.65555e-140
5.44068e-142
3.2778e-145
1.63817e-148
5.21829e-152
1.3666e-155
2.905e-159
7.03151e-163
1.46099e-166
3.82023e-170
8.09907e-174
5.59103e-179
2.5694e-184
1.23812e-189
4.40534e-195
2.09364e-200
7.59493e-206
3.31083e-211
9.5443e-217
2.88049e-222
6.16661e-228
1.34362e-233
2.20741e-239
3.62232e-245
4.42653e-251
5.34097e-257
5.58301e-263
6.74857e-269
8.02156e-275
1.12046e-280
6.52136e-301
1.37997e-304
2.99155e-310
5.42078e-316
9.0414e-322
0
0
0
0
0
0
0
0
0
0
0
0
0
0
0
0
0
0
0
0
0
0
0
0
0
0
0
0
0
0
0
0
0
0
0
0
0
0
0
0
0
0
0
0
0
0
0
0
0
0
0
0
0
0
0
0
0
0
0
0
0
0
0
0
0
0
0
0
0
0
0
0
0
0
0
0
0
0
0
0
0
0
0
0
0
0
0
0
0
0
0
0
0
0
0
0
0
0
0
0
0
0
0
0
0
0
0
0
0
0
0
0
0
0
0
0
0
0
0
0
0
0
0
0
0
0
0
0
0
0
0
0
0
0
0
0
0
0
0
0
0
0
0
0
0
0
0
0
0
0
0
0
0
0
0
0
0
0
0
0
0
0
0
0
0
0
0
0
0
0
0
0
0
0
0
3.8053e-07
2.00071e-07
5.52324e-08
4.92332e-09
1.69933e-09
4.84193e-09
5.52084e-08
6.00032e-07
6.60241e-07
5.32659e-07
4.67673e-07
5.12755e-07
1.63757e-07
2.73937e-10
9.79946e-08
3.4358e-07
3.81177e-07
1.14713e-07
3.99092e-08
1.39176e-08
5.82798e-09
3.49589e-09
2.03211e-09
1.17358e-09
9.64362e-10
1.10538e-09
2.85582e-09
1.14935e-08
7.85539e-08
4.44834e-07
3.62765e-07
4.07693e-07
4.42503e-07
3.76494e-07
4.22342e-07
4.63417e-07
3.60828e-07
7.84399e-08
1.85914e-08
1.09978e-08
1.16814e-08
3.21155e-08
2.40427e-09
3.56664e-10
4.33497e-07
4.90596e-07
5.95181e-07
5.68776e-07
5.6844e-07
5.52042e-07
8.26032e-07
5.05103e-07
1.90447e-07
8.58856e-08
7.95021e-08
1.72878e-07
7.84447e-08
4.1744e-08
3.23671e-08
2.64127e-08
2.83419e-08
4.87277e-07
2.11682e-07
1.40218e-07
1.91166e-07
3.7702e-07
4.42104e-07
1.77218e-07
2.36747e-07
4.5309e-07
1.6701e-07
5.14795e-08
4.11841e-08
3.69712e-08
3.02349e-07
2.95051e-07
3.45999e-07
4.10169e-07
4.32331e-07
4.52664e-07
4.66189e-07
4.65128e-07
4.77261e-07
4.63935e-07
4.56394e-07
4.85494e-07
5.44069e-07
5.50312e-07
5.83766e-07
6.06731e-07
6.07464e-07
5.73907e-07
4.40773e-07
4.65888e-07
5.34699e-07
5.23303e-07
2.49449e-07
3.0344e-08
5.86117e-09
1.15072e-09
6.32123e-10
3.12292e-09
5.02155e-07
3.37331e-08
5.07481e-09
1.28225e-08
2.21664e-08
2.6215e-08
3.77283e-08
5.85279e-08
6.60505e-08
6.91092e-08
8.2606e-08
4.2248e-07
4.55064e-07
2.37475e-07
5.34762e-08
1.22517e-08
1.31521e-09
1.42359e-10
2.78521e-11
1.71019e-11
1.95827e-11
2.28582e-11
4.18154e-11
5.14093e-11
3.32567e-11
2.16242e-11
1.76569e-11
1.02969e-11
4.37737e-12
2.21449e-14
1.79296e-16
1.46645e-17
3.5126e-29
5.2319e-31
6.23907e-35
2.98967e-39
5.29888e-43
1.11812e-46
2.53403e-50
3.71542e-54
4.49676e-58
3.24907e-62
7.27537e-66
2.25335e-69
7.87668e-73
2.65065e-76
1.75639e-79
1.59614e-82
3.23657e-85
7.12285e-88
1.46734e-90
2.07878e-93
2.35976e-96
2.08258e-99
2.15527e-102
2.05643e-105
1.31269e-108
7.90315e-112
3.14841e-115
9.47355e-119
1.54071e-122
1.59302e-126
1.00759e-136
5.04068e-139
9.04745e-143
4.46634e-146
3.55252e-149
2.3532e-152
9.59278e-156
3.38162e-159
1.00376e-162
2.99516e-166
8.77391e-170
2.45716e-173
1.16228e-178
4.19394e-184
1.42659e-189
4.82817e-195
1.77835e-200
7.27655e-206
2.88976e-211
9.39115e-217
2.48277e-222
5.48913e-228
1.01804e-233
1.5791e-239
1.89513e-245
2.0472e-251
2.05841e-257
2.19331e-263
2.40987e-269
2.80965e-275
1.33213e-294
2.64327e-298
2.91197e-304
3.34257e-310
4.10536e-316
5.33591e-322
0
0
0
0
0
0
0
0
0
0
0
0
0
0
0
0
0
0
0
0
0
0
0
0
0
0
0
0
0
0
0
0
0
0
0
0
0
0
0
0
0
0
0
0
0
0
0
0
0
0
0
0
0
0
0
0
0
0
0
0
0
0
0
0
0
0
0
0
0
0
0
0
0
0
0
0
0
0
0
0
0
0
0
0
0
0
0
0
0
0
0
0
0
0
0
0
0
0
0
0
0
0
0
0
0
0
0
0
0
0
0
0
0
0
0
0
0
0
0
0
0
0
0
0
0
0
0
0
0
0
0
0
0
0
0
0
0
0
0
0
0
0
0
0
0
0
0
0
0
0
0
0
0
0
0
0
0
0
0
0
0
0
0
0
0
0
0
0
0
0
0
0
0
0
1.0524e-07
5.80135e-08
8.63326e-09
1.12595e-09
1.34745e-09
1.88066e-08
4.99161e-07
7.71116e-07
7.59113e-07
6.86591e-07
3.83776e-07
3.24888e-07
1.93866e-07
3.83747e-09
3.64111e-09
5.933e-08
1.30789e-07
5.12605e-07
2.08771e-07
5.08287e-08
2.01833e-08
9.51924e-09
4.96314e-09
2.1253e-09
9.79273e-10
7.39872e-10
1.01732e-09
3.80663e-09
2.90049e-08
4.18457e-07
1.41009e-07
9.5481e-08
1.0177e-07
1.48949e-07
3.02683e-07
4.46964e-07
4.99165e-07
4.68763e-07
3.01857e-07
7.35195e-08
2.08826e-08
1.49828e-08
4.21468e-08
1.0215e-07
5.03182e-09
5.21515e-10
1.10136e-08
1.6869e-07
4.33932e-07
5.4583e-07
4.99183e-07
4.44811e-07
5.5285e-07
5.81914e-07
6.84852e-07
7.63625e-07
4.42517e-07
2.64309e-07
2.64472e-07
2.40101e-07
1.40352e-07
3.36291e-08
2.27626e-08
1.78366e-08
1.57285e-08
1.95861e-07
3.22648e-07
1.49722e-07
1.1775e-07
1.55321e-07
2.58542e-07
3.59322e-07
3.58756e-07
2.45942e-07
1.1852e-07
7.80553e-08
1.34409e-07
1.79955e-07
2.28021e-07
3.11562e-07
3.2134e-07
3.28882e-07
3.7682e-07
4.27188e-07
4.41793e-07
4.39233e-07
4.48703e-07
4.34307e-07
4.24028e-07
4.34188e-07
4.32644e-07
4.57359e-07
4.94512e-07
5.68636e-07
5.48663e-07
5.80445e-07
5.62407e-07
1.73502e-07
2.24647e-08
2.4448e-08
7.14123e-08
2.65974e-07
2.74145e-07
7.40456e-08
1.36106e-08
2.66842e-09
6.47806e-10
1.20024e-09
3.65813e-07
2.5225e-07
4.97026e-08
8.54299e-08
2.03203e-07
2.79585e-07
3.14079e-07
2.86878e-07
2.33469e-07
2.22513e-07
2.36934e-07
2.55581e-07
3.37501e-07
3.93078e-07
4.66885e-07
3.62916e-07
7.62918e-08
2.32143e-08
4.3986e-09
1.08887e-09
1.53494e-10
5.07843e-11
2.23679e-11
1.98593e-11
2.28818e-11
4.9453e-11
5.41895e-11
2.95335e-11
1.7115e-11
1.78068e-11
8.9601e-12
8.72422e-13
2.96546e-15
3.06406e-16
1.04187e-18
4.0892e-22
1.13083e-25
3.49638e-29
1.27266e-32
2.95611e-36
6.41411e-40
7.2977e-44
1.64691e-47
1.67111e-51
8.9268e-56
1.01266e-59
2.45889e-63
8.75492e-67
3.11843e-70
1.34932e-73
6.69147e-77
5.5662e-80
4.58018e-83
8.7882e-86
1.1992e-88
1.91286e-91
2.07515e-94
2.06144e-97
1.79277e-100
1.60279e-103
1.19714e-106
1.0555e-109
8.71219e-113
8.49768e-116
5.8652e-119
1.77974e-122
4.54292e-126
1.35705e-129
4.48322e-133
4.5108e-137
6.83783e-141
2.59293e-144
1.96071e-147
1.47681e-150
9.76882e-154
4.53056e-157
2.09237e-160
7.92573e-164
3.82744e-167
1.26902e-170
4.83724e-174
1.19857e-179
3.65216e-185
9.31606e-191
3.12316e-196
9.68378e-202
4.03418e-207
1.41585e-212
4.70308e-218
1.10018e-223
2.38845e-229
3.72449e-235
5.0037e-241
5.14435e-247
5.96068e-253
4.87881e-259
5.86132e-265
4.45655e-271
3.80892e-277
3.50818e-283
3.50459e-289
3.41306e-295
3.79116e-301
3.89879e-307
4.62323e-313
5.39727e-319
0
0
0
0
0
0
0
0
0
0
0
0
0
0
0
0
0
0
0
0
0
0
0
0
0
0
0
0
0
0
0
0
0
0
0
0
0
0
0
0
0
0
0
0
0
0
0
0
0
0
0
0
0
0
0
0
0
0
0
0
0
0
0
0
0
0
0
0
0
0
0
0
0
0
0
0
0
0
0
0
0
0
0
0
0
0
0
0
0
0
0
0
0
0
0
0
0
0
0
0
0
0
0
0
0
0
0
0
0
0
0
0
0
0
0
0
0
0
0
0
0
0
0
0
0
0
0
0
0
0
0
0
0
0
0
0
0
0
0
0
0
0
0
0
0
0
0
0
0
0
0
0
0
0
0
0
0
0
0
0
0
0
0
0
0
0
0
0
0
0
0
0
0
0
0
0
0
0
0
0
0
0
0
0
0
0
2.68343e-08
1.5986e-08
1.90524e-09
6.23929e-10
2.13195e-09
5.31616e-08
7.64698e-07
8.92086e-07
9.11469e-07
8.83142e-07
6.71369e-07
3.28902e-07
1.94696e-07
2.07502e-08
6.62302e-09
1.16596e-08
4.94992e-08
2.76273e-07
3.29173e-07
7.56207e-08
2.92648e-08
1.41838e-08
4.36944e-09
1.14747e-09
5.68132e-10
8.11054e-10
4.53712e-09
6.90661e-08
3.14496e-07
8.25513e-08
6.01372e-08
7.57947e-08
1.08484e-07
1.71537e-07
2.47504e-07
3.46276e-07
3.88929e-07
3.39014e-07
1.57666e-07
5.57231e-08
3.04071e-08
3.59463e-08
1.08321e-07
1.36696e-07
9.91982e-09
1.39776e-08
1.10192e-07
3.99085e-07
5.04684e-07
5.61381e-07
3.8266e-07
3.70372e-07
5.33905e-07
4.70682e-07
4.7376e-07
4.75819e-07
5.06353e-07
4.81954e-07
3.25371e-07
7.56157e-08
2.00766e-08
1.16531e-08
1.03306e-08
9.42021e-09
1.21885e-08
1.27544e-08
7.33602e-08
4.56929e-07
2.64173e-07
1.57783e-07
1.41841e-07
1.50216e-07
1.59309e-07
1.51925e-07
1.27579e-07
1.5064e-07
2.3152e-07
3.24157e-07
3.18578e-07
3.27349e-07
3.3847e-07
3.55937e-07
4.18075e-07
4.37407e-07
4.39607e-07
4.46535e-07
4.23677e-07
4.19159e-07
4.33952e-07
4.57196e-07
4.72799e-07
4.59853e-07
4.73079e-07
5.08838e-07
5.6898e-07
5.52315e-07
4.46823e-07
4.88821e-08
4.60213e-09
2.35989e-09
5.68792e-09
2.88482e-08
8.3503e-08
6.96798e-08
2.47635e-08
6.16423e-09
1.34177e-09
6.33761e-10
1.17298e-08
2.07055e-07
1.41139e-07
1.51612e-07
2.4954e-07
3.73401e-07
3.51733e-07
2.66325e-07
2.944e-07
4.25127e-07
4.17932e-07
3.53111e-07
2.78491e-07
1.97928e-07
1.62087e-07
1.44275e-07
7.24562e-08
2.8763e-08
8.38748e-09
2.18916e-09
7.05694e-10
2.87291e-10
1.1935e-10
4.89753e-11
2.85885e-11
3.96819e-11
5.72807e-11
6.44672e-11
2.38643e-11
1.7638e-11
7.55631e-12
6.64689e-12
1.93782e-13
4.88922e-16
2.82954e-19
4.81282e-22
4.67594e-25
2.49617e-28
1.11581e-31
3.64467e-35
1.05656e-38
2.31285e-42
6.33365e-46
1.07552e-49
1.16961e-53
1.32933e-57
3.18896e-61
1.14731e-64
5.25533e-68
1.88952e-71
8.23743e-75
3.15189e-78
1.44328e-81
6.55256e-85
5.674e-88
4.10257e-91
3.44194e-94
2.86804e-97
2.17116e-100
1.70783e-103
1.32241e-106
1.04374e-109
8.35726e-113
7.51298e-116
5.15383e-119
6.98993e-122
3.90127e-125
1.47873e-128
2.11178e-132
3.33901e-136
5.63734e-140
1.93324e-143
1.05658e-146
6.97937e-150
3.69415e-153
1.7465e-156
9.15486e-160
4.14389e-163
1.74393e-166
7.07965e-170
2.76994e-173
8.15491e-179
2.88133e-184
1.0294e-189
4.04135e-195
1.6365e-200
7.59007e-206
3.22139e-211
1.19668e-216
3.20687e-222
7.39122e-228
1.30266e-233
2.03762e-239
2.37445e-245
2.56951e-251
2.36327e-257
2.35484e-263
2.12542e-269
1.9512e-275
1.8484e-281
1.98544e-287
2.01752e-293
2.45659e-299
2.81761e-305
3.69891e-311
4.76771e-317
6.91692e-323
0
0
0
0
0
0
0
0
0
0
0
0
0
0
0
0
0
0
0
0
0
0
0
0
0
0
0
0
0
0
0
0
0
0
0
0
0
0
0
0
0
0
0
0
0
0
0
0
0
0
0
0
0
0
0
0
0
0
0
0
0
0
0
0
0
0
0
0
0
0
0
0
0
0
0
0
0
0
0
0
0
0
0
0
0
0
0
0
0
0
0
0
0
0
0
0
0
0
0
0
0
0
0
0
0
0
0
0
0
0
0
0
0
0
0
0
0
0
0
0
0
0
0
0
0
0
0
0
0
0
0
0
0
0
0
0
0
0
0
0
0
0
0
0
0
0
0
0
0
0
0
0
0
0
0
0
0
0
0
0
0
0
0
0
0
0
0
0
0
0
0
0
0
0
0
0
0
0
0
0
0
0
0
0
0
6.86235e-09
4.62284e-09
9.60577e-10
5.40904e-10
2.4221e-09
8.53145e-08
7.82217e-07
9.03793e-07
9.08034e-07
8.70045e-07
7.91873e-07
4.54435e-07
2.3572e-07
5.33174e-08
1.37581e-08
1.91605e-08
8.54496e-08
4.70828e-07
2.57018e-07
1.33183e-07
5.71372e-08
1.43062e-08
2.28977e-09
7.17572e-10
5.66506e-10
2.92711e-09
8.14527e-08
2.97812e-07
8.66147e-08
5.65462e-08
6.00518e-08
8.09558e-08
1.0181e-07
1.14928e-07
1.36679e-07
1.47438e-07
1.47837e-07
1.17915e-07
9.38707e-08
7.29524e-08
7.96264e-08
1.20909e-07
1.63655e-07
1.74038e-07
2.21681e-07
3.94592e-07
4.8569e-07
4.60857e-07
5.12964e-07
5.07979e-07
3.64479e-07
2.54186e-07
2.63622e-07
5.08261e-07
5.01061e-07
4.73767e-07
4.97878e-07
4.57864e-07
1.40693e-07
1.28252e-08
7.11043e-09
4.7049e-09
3.97735e-09
5.22466e-09
6.88535e-09
9.95339e-09
1.4478e-08
3.01679e-08
1.99725e-07
4.52896e-07
2.46143e-07
1.49956e-07
1.47843e-07
1.63889e-07
1.98565e-07
2.6764e-07
3.53707e-07
3.86196e-07
3.5909e-07
3.51381e-07
3.75325e-07
4.06028e-07
4.38116e-07
4.50056e-07
4.71284e-07
4.63615e-07
4.61489e-07
4.6946e-07
4.85679e-07
4.92873e-07
4.9901e-07
5.11977e-07
5.03921e-07
5.24236e-07
5.64243e-07
5.68468e-07
4.25973e-07
3.77122e-08
3.61056e-09
8.12741e-10
7.17231e-10
3.41897e-09
1.32815e-08
2.89118e-08
2.23231e-08
1.16287e-08
4.45533e-09
1.16935e-09
1.44132e-09