/*--------------------------------*- C++ -*----------------------------------*\
| =========                 |                                                 |
| \\      /  F ield         | OpenFOAM: The Open Source CFD Toolbox           |
|  \\    /   O peration     | Version:  2.1.1                                 |
|   \\  /    A nd           | Web:      www.OpenFOAM.org                      |
|    \\/     M anipulation  |                                                 |
\*---------------------------------------------------------------------------*/
FoamFile
{
    version     2.0;
    format      ascii;
    class       volScalarField;
    location    "0.002600000";
    object      Xi;
}
// * * * * * * * * * * * * * * * * * * * * * * * * * * * * * * * * * * * * * //

dimensions      [0 0 0 0 0 0 0];

internalField   nonuniform List<scalar> 
12384
(
1.56666
1.74294
2.09462
2.71451
4.19128
4.29033
4.34835
4.12113
3.87088
4.0958
3.21297
1.22826
1.00444
1.00002
1.00427
1.0443
1.24002
1.63504
3.57571
5.38621
7.05338
7.3979
7.55669
7.10413
7.22763
7.6285
8.85149
10.8581
11.1271
11.0064
9.9877
9.02629
8.45746
7.8321
7.18577
3.3867
1.66762
1.34776
1.05577
1.00087
1.00001
1
1
1
4.81292
6.43906
11.8941
21.0492
22.37
23.4664
24.4474
25.3975
28.2797
29.6446
31.8451
30.0089
28.3922
24.4436
20.1946
17.0504
13.0275
10.9937
11.2616
13.148
13.0415
12.2912
11.6448
11.0515
3.01041
1.30503
1.04418
1.00138
1.00002
1
1.04181
1.20568
12.8741
20.3186
32.4154
46.0378
51.4494
60.5038
61.4891
63.7042
66.7983
64.5383
63.0555
49.4887
40.6877
29.6831
23.0929
16.0733
10.4606
2.92869
1.44276
1.3207
1.25788
1.204
1.13587
1.02963
1.00277
1.00034
1.00003
1
1
1
1
1
1
1
1
1
1
1
1
1
1
1.00015
1.00899
1.01371
1.00185
1.00036
1.00008
1
1
1
1
1
1
1
1
1
1
1
1
1
1
1
1
1
1
1
1
1
1
1
1
1
1
1
1
1
1
1
1
1
1
1
1
1
1
1
1
1
1
1
1
1
1
1
1
1
1
1
1
1
1
1
1
1
1
1
1
1
1
1
1
1
1
1
1
1
1
1
1
1
1
1
1
1
1
1
1
1
1
1
1
1
1
1
1
1
1
1
1
1
1
1
1
1
1
1
1
1
1
1
1
1
1
1
1
1
1
1
1
1
1
1
1
1
1
1
1
1
1
1
1
1
1
1
1
1
1
1
1
1
1
1
1
1
1
1
1
1
1
1
1
1
1
1
1
1
1
1
1
1
1
1
1
1
1
1
1
1
1
1
1
1
1
1
1
1
1
1
1
1
1
1
1
1
1
1
1
1
1
1
1
1
1
1
1
1
1
1
1
1
1
1
1
1
1
1
1
1
1
1
1
1
1
1
1
1
1
1
1
1
1
1
1
1
1
1
1
1
1
1
1
1
1
1
1
1
1
1
1
1
1
1
1
1
1
1
1
1
1
1
1
1
1
1
1
1
1
1
1.74857
1.89128
2.48121
3.26651
4.45599
6.88898
6.94857
6.86038
6.43366
6.18788
5.29226
1.15104
1.00083
1.00001
1.04848
1.95872
5.92687
6.69999
6.92535
8.66212
10.447
12.4488
14.2498
15.8812
16.9385
18.1353
19.2226
19.4043
18.8716
18.8298
18.6924
17.3031
15.0571
13.7971
13.2947
13.9296
13.8618
14.3797
4.49658
1.13396
1.0006
1.00002
1
1
19.7141
12.8446
19.7937
45.7612
55.7266
62.8992
65.4708
70.2587
73.3536
75.442
74.6026
70.015
61.5589
51.6393
42.8581
34.4984
26.5041
21.7379
20.1713
20.0795
19.018
17.9041
16.8874
17.5524
18.0882
18.867
2.08822
1.1583
1.00425
1.00002
1.33932
28.2942
79.7927
86.018
76.6951
89.9146
92.8472
96.7698
96.042
103.92
106.576
116.656
121.381
118.271
106.039
85.0989
57.9449
36.1592
22.8275
16.552
13.6392
11.9483
10.7613
9.93252
8.84054
2.68669
1.26376
1.11093
1.00675
1.00004
1
1
1
1
1
1
1
1
1
1
1
1
1.00331
1.28968
2.71506
2.38758
1.50552
1.17537
1.01393
1.00128
1.00011
1
1
1
1
1
1
1
1
1
1
1
1
1
1
1
1
1
1
1
1
1
1
1
1
1
1
1
1
1
1
1
1
1
1
1
1
1
1
1
1
1
1
1
1
1
1
1
1
1
1
1
1
1
1
1
1
1
1
1
1
1
1
1
1
1
1
1
1
1
1
1
1
1
1
1
1
1
1
1
1
1
1
1
1
1
1
1
1
1
1
1
1
1
1
1
1
1
1
1
1
1
1
1
1
1
1
1
1
1
1
1
1
1
1
1
1
1
1
1
1
1
1
1
1
1
1
1
1
1
1
1
1
1
1
1
1
1
1
1
1
1
1
1
1
1
1
1
1
1
1
1
1
1
1
1
1
1
1
1
1
1
1
1
1
1
1
1
1
1
1
1
1
1
1
1
1
1
1
1
1
1
1
1
1
1
1
1
1
1
1
1
1
1
1
1
1
1
1
1
1
1
1
1
1
1
1
1
1
1
1
1
1
1
1
1
1
1
1
1
1
1
1
1
1
1
1
1
1
1
1
1
1
1
1
1
1
1
1
1
1
1
1
1
1
1
1
1
1
1
2.07701
2.51562
3.10856
3.7347
4.98542
7.2841
10.1849
9.79689
9.03053
8.25709
6.58281
1.68693
1.02797
1.00019
1.29463
8.58877
10.6986
11.6766
12.1162
14.6405
16.3758
18.0147
17.7683
18.9621
20.0691
18.1861
15.8458
13.2569
11.6122
11.0441
12.0556
15.4896
17.0805
16.1164
15.7921
15.869
15.8393
16.9048
4.06489
1.25359
1.02051
1.00114
1.00002
1
24.5466
16.0475
22.0152
39.8567
60.7981
74.2621
80.1247
95.1929
104.956
111.713
112.351
105.536
94.1748
80.7403
68.6367
56.6269
46.1026
38.7812
32.985
28.2537
24.1438
20.7554
18.9363
20.4896
21.8454
23.0896
25.9402
1.67858
1.02425
1.00016
15.8775
65.5449
92.285
102.277
94.9617
102.86
101.526
107.274
102.231
107.695
109.281
123.261
127.917
131.422
128.595
125.049
112.246
94.5104
72.6035
48.5834
30.9909
22.6135
18.3578
15.33
11.8828
9.1582
7.52718
8.89807
1.09369
1.00173
1
1
1
1
1
1
1
1
1
1
1.00005
1.01536
2.66538
12.1071
51.6886
35.3024
22.5106
18.0059
2.56738
1.25781
1.04025
1.00099
1.00004
1
1
1
1
1
1
1
1
1
1
1
1
1
1
1
1
1
1
1
1
1
1
1
1
1
1
1
1
1
1
1
1
1
1
1
1
1
1
1
1
1
1
1
1
1
1
1
1
1
1
1
1
1
1
1
1
1
1
1
1
1
1
1
1
1
1
1
1
1
1
1
1
1
1
1
1
1
1
1
1
1
1
1
1
1
1
1
1
1
1
1
1
1
1
1
1
1
1
1
1
1
1
1
1
1
1
1
1
1
1
1
1
1
1
1
1
1
1
1
1
1
1
1
1
1
1
1
1
1
1
1
1
1
1
1
1
1
1
1
1
1
1
1
1
1
1
1
1
1
1
1
1
1
1
1
1
1
1
1
1
1
1
1
1
1
1
1
1
1
1
1
1
1
1
1
1
1
1
1
1
1
1
1
1
1
1
1
1
1
1
1
1
1
1
1
1
1
1
1
1
1
1
1
1
1
1
1
1
1
1
1
1
1
1
1
1
1
1
1
1
1
1
1
1
1
1
1
1
1
1
1
1
1
1
1
1
1
1
1
1
1
1
1
1
1
1
1
2.64305
2.71049
2.60704
2.78397
3.56505
5.18449
7.10667
8.2418
10.8158
14.2892
12.5196
3.75952
1.16219
1.00168
2.18357
15.6863
18.4311
17.4833
17.4736
17.5396
13.2635
10.9477
10.8371
10.4611
10.1024
9.65465
9.42307
9.25271
9.03845
8.84853
8.63744
8.92731
10.464
15.3473
17.7368
17.5595
18.6165
21.4242
21.701
3.97348
1.22391
1.01277
1.00018
1
26
22.6574
27.2629
43.2639
61.8629
80.8528
101.192
120.941
131.809
121.127
108.334
111.281
119.877
111.598
98.8973
85.7416
72.7531
62.2363
50.4229
41.8409
35.3352
28.9469
26.1942
27.2656
28.9075
29.7047
30.9735
2.25772
1.08392
1.00101
19.6945
75.4118
96.8157
103.053
98.9341
99.4102
102.96
101.047
104.691
106.567
112.819
127.368
130.023
134.824
136.117
136.085
132.796
124.051
111.932
89.823
63.2533
42.89
30.8904
23.5319
18.1917
13.2128
9.0023
8.76929
1.2773
1.02061
1
1
1
1
1
1
1
1
1
1.00042
1.18409
3.18466
33.0814
85.2375
78.1371
62.2485
42.7284
28.3346
20.7599
14.7092
4.61147
1.38426
1.0253
1.00022
1
1
1
1
1
1
1
1
1
1
1
1
1
1
1
1
1
1
1
1
1
1
1
1
1
1
1
1
1
1
1
1
1
1
1
1
1
1
1
1
1
1
1
1
1
1
1
1
1
1
1
1
1
1
1
1
1
1
1
1
1
1
1
1
1
1
1
1
1
1
1
1
1
1
1
1
1
1
1
1
1
1
1
1
1
1
1
1
1
1
1
1
1
1
1
1
1
1
1
1
1
1
1
1
1
1
1
1
1
1
1
1
1
1
1
1
1
1
1
1
1
1
1
1
1
1
1
1
1
1
1
1
1
1
1
1
1
1
1
1
1
1
1
1
1
1
1
1
1
1
1
1
1
1
1
1
1
1
1
1
1
1
1
1
1
1
1
1
1
1
1
1
1
1
1
1
1
1
1
1
1
1
1
1
1
1
1
1
1
1
1
1
1
1
1
1
1
1
1
1
1
1
1
1
1
1
1
1
1
1
1
1
1
1
1
1
1
1
1
1
1
1
1
1
1
1
1
1
1
1
1
1
1
1
1
1
1
1
1
1
1
1
1
1
1
1
2.38169
2.11963
2.07384
2.2514
2.81299
3.44853
4.40271
4.86381
6.28618
10.1433
26.551
27.8731
2.6059
1.05507
7.65772
26.6502
24.9409
23.9236
15.6164
11.479
10.4151
9.31705
9.02505
8.85588
9.02243
9.45218
9.8098
10.0654
10.0179
9.65187
8.96686
8.34643
8.15867
9.06747
10.6699
18.2649
22.3934
28.6713
30.7548
34.5609
2.69422
1.06341
1.00051
1.00001
29.5385
33.6895
39.4414
39.4593
76.7577
101.768
122.562
144.599
101.728
70.526
59.9724
56.2953
61.0791
74.3032
85.5173
100.769
91.6042
81.5499
73.9494
66.1495
59.5082
50.6354
44.8037
42.5464
42.6416
50.0556
50.4162
47.3036
1.9173
1.0154
22.3101
73.6901
96.3142
94.548
91.6562
92.5811
90.8648
96.8063
105.697
118.527
124.661
137.467
139.919
141.338
141.365
142.877
143.225
141.077
133.149
118.912
95.9908
68.1857
49.5152
37.3258
27.1803
19.4772
15.0823
13.1679
10.125
1.13116
1
1
1
1
1
1
1
1.00004
1.00124
1.36734
5.44102
30.0183
110.647
109.364
100.251
82.5129
61.2363
43.1618
29.8329
22.2543
16.6871
13.6531
4.23191
1.16697
1.00075
1
1
1
1
1
1
1
1
1
1
1
1
1
1
1
1
1
1
1
1
1
1
1
1
1
1
1
1
1
1
1
1
1
1
1
1
1
1
1
1
1
1
1
1
1
1
1
1
1
1
1
1
1
1
1
1
1
1
1
1
1
1
1
1
1
1
1
1
1
1
1
1
1
1
1
1
1
1
1
1
1
1
1
1
1
1
1
1
1
1
1
1
1
1
1
1
1
1
1
1
1
1
1
1
1
1
1
1
1
1
1
1
1
1
1
1
1
1
1
1
1
1
1
1
1
1
1
1
1
1
1
1
1
1
1
1
1
1
1
1
1
1
1
1
1
1
1
1
1
1
1
1
1
1
1
1
1
1
1
1
1
1
1
1
1
1
1
1
1
1
1
1
1
1
1
1
1
1
1
1
1
1
1
1
1
1
1
1
1
1
1
1
1
1
1
1
1
1
1
1
1
1
1
1
1
1
1
1
1
1
1
1
1
1
1
1
1
1
1
1
1
1
1
1
1
1
1
1
1
1
1
1
1
1
1
1
1
1
1
1
1
1
1
1
1
1.83101
1.87883
2.069
2.53212
3.02714
3.48141
3.78401
4.31028
5.0482
7.12322
16.3531
23.1455
38.8546
1.94836
19.9022
32.4458
31.986
19.7821
12.4485
10.4832
9.80452
9.52971
9.8672
10.3113
10.9229
11.598
12.1765
12.7055
12.7249
12.2656
11.5687
10.7359
9.74144
9.47277
9.71689
13.7086
26.8134
35.4612
38.8146
35.7877
2.55841
1.2321
1.00888
1.00013
34.6161
59.1968
45.0726
60.5766
90.8706
124.496
139.23
90.8903
57.8718
46.739
45.1606
48.5973
49.8203
50.3307
49.7819
47.9669
53.1025
82.0317
100.029
105.213
101.187
85.9737
73.2799
65.2704
63.9181
74.9364
95.1276
71.0514
3.64987
1.05835
26.842
75.1238
87.4747
85.2041
82.484
78.1163
80.6664
98.6619
122.446
132.991
146.352
146.963
147.485
149.052
146.682
147.152
146.971
148.067
145.439
136.496
120.317
96.4801
72.3152
53.9753
40.6217
29.3916
20.762
16.6529
14.3148
1.30687
1
1.00001
1.00003
1.00011
1.00026
1.00081
1.00209
1.04668
1.37549
5.29695
42.2268
129.511
131.927
129.76
111.663
86.4209
63.8076
47.0609
36.8523
29.5558
23.4012
18.5649
15.4582
6.44312
1.36963
1.00294
1
1
1
1
1
1
1
1
1
1
1
1
1
1
1
1
1
1
1
1
1
1
1
1
1
1
1
1
1
1
1
1
1
1
1
1
1
1
1
1
1
1
1
1
1
1
1
1
1
1
1
1
1
1
1
1
1
1
1
1
1
1
1
1
1
1
1
1
1
1
1
1
1
1
1
1
1
1
1
1
1
1
1
1
1
1
1
1
1
1
1
1
1
1
1
1
1
1
1
1
1
1
1
1
1
1
1
1
1
1
1
1
1
1
1
1
1
1
1
1
1
1
1
1
1
1
1
1
1
1
1
1
1
1
1
1
1
1
1
1
1
1
1
1
1
1
1
1
1
1
1
1
1
1
1
1
1
1
1
1
1
1
1
1
1
1
1
1
1
1
1
1
1
1
1
1
1
1
1
1
1
1
1
1
1
1
1
1
1
1
1
1
1
1
1
1
1
1
1
1
1
1
1
1
1
1
1
1
1
1
1
1
1
1
1
1
1
1
1
1
1
1
1
1
1
1
1
1
1
1
1
1
1
1
1
1
1
1
1
1
1
1
1
1
1.62565
1.89723
2.3397
3.06713
3.71313
4.26034
4.75846
5.77313
7.59842
9.09523
11.8651
15.6026
31.7669
4.69875
33.8515
38.1113
23.5337
13.3729
11.3819
10.6333
10.8267
11.275
11.8316
12.5227
13.1955
14.0432
14.8566
15.3285
16.4532
18.5031
19.0208
16.9007
14.7885
12.9333
12.8578
15.6355
32.9359
45.6541
52.3841
44.7825
3.48761
4.98469
1.08413
1.00152
33.6231
66.0461
69.926
81.1815
107.46
136.471
96.4136
58.5545
47.1502
47.9573
62.3735
74.0725
72.4027
57.011
47.4397
44.854
60.7107
120.222
157.377
179.211
161.658
131.227
107.872
96.2689
93.5983
108.102
146.98
128.927
6.21581
1.31981
38.0827
82.0099
83.6813
75.3846
70.5658
68.2491
80.5121
113.945
141.023
154.645
159.404
164.902
156.54
152.202
149.791
145.417
146.041
145.334
146.187
142.276
134.737
119.829
95.079
73.7411
56.2466
43.4631
32.6069
24.6093
25.9077
1.96993
1.00584
1.01237
1.02662
1.06521
1.14215
1.41963
1.87433
3.74439
5.77644
34.748
158.36
154.007
150.3
131.579
112.196
94.8649
77.2137
57.493
40.1553
29.6844
26.1771
25.8616
20.7636
17.1117
5.24975
1.20113
1.00042
1
1
1
1
1
1
1
1
1
1
1
1
1
1
1
1
1
1
1
1
1
1
1
1
1
1
1
1
1
1
1
1
1
1
1
1
1
1
1
1
1
1
1
1
1
1
1
1
1
1
1
1
1
1
1
1
1
1
1
1
1
1
1
1
1
1
1
1
1
1
1
1
1
1
1
1
1
1
1
1
1
1
1
1
1
1
1
1
1
1
1
1
1
1
1
1
1
1
1
1
1
1
1
1
1
1
1
1
1
1
1
1
1
1
1
1
1
1
1
1
1
1
1
1
1
1
1
1
1
1
1
1
1
1
1
1
1
1
1
1
1
1
1
1
1
1
1
1
1
1
1
1
1
1
1
1
1
1
1
1
1
1
1
1
1
1
1
1
1
1
1
1
1
1
1
1
1
1
1
1
1
1
1
1
1
1
1
1
1
1
1
1
1
1
1
1
1
1
1
1
1
1
1
1
1
1
1
1
1
1
1
1
1
1
1
1
1
1
1
1
1
1
1
1
1
1
1
1
1
1
1
1
1
1
1
1
1
1
1
1
1
1
1
1.65876
2.04721
2.68473
3.57249
4.45376
5.18445
6.76614
10.1149
13.0611
15.771
17.4009
19.5669
37.8697
87.7669
63.6157
47.8105
17.5131
13.3433
12.6377
12.3526
12.7008
13.0391
13.7529
14.53
15.3515
16.204
17.077
22.2947
44.6634
51.4233
51.0106
44.9741
38.926
26.3328
20.9047
24.3227
46.5472
65.5824
79.9079
74.9866
47.7771
50.8209
2.18847
1.02561
42.1001
72.9859
82.7358
98.4743
124.768
104.383
68.9361
54.494
55.1641
85.861
120.902
119.136
114.903
82.9972
52.5895
47.1968
78.2882
140.001
200.117
233.323
228.036
187.019
153.294
134.906
132.317
151.565
203.965
211.815
22.0246
7.63418
48.8942
87.602
84.9068
76.6017
73.1362
83.7631
107.444
132.732
159.587
171.622
180.325
176.424
173.978
158.372
148.354
142.05
135.839
129.157
122.4
124.304
129.673
127.439
113.692
92.8287
74.5277
61.0766
51.1413
42.0708
48.2119
3.38518
3.66712
6.09911
9.85621
10.3476
14.0482
21.5534
36.0089
42.8186
45.9954
189.849
195.857
179.705
163.993
142.108
123.426
108.892
97.308
83.2637
62.7986
49.7795
34.5022
26.6161
24.906
23.1908
18.4827
3.67266
1.11335
1.00017
1
1
1
1
1
1
1
1
1
1
1
1
1
1
1
1
1
1
1
1
1
1
1
1
1
1
1
1
1
1
1
1
1
1
1
1
1
1
1
1
1
1
1
1
1
1
1
1
1
1
1
1
1
1
1
1
1
1
1
1
1
1
1
1
1
1
1
1
1
1
1
1
1
1
1
1
1
1
1
1
1
1
1
1
1
1
1
1
1
1
1
1
1
1
1
1
1
1
1
1
1
1
1
1
1
1
1
1
1
1
1
1
1
1
1
1
1
1
1
1
1
1
1
1
1
1
1
1
1
1
1
1
1
1
1
1
1
1
1
1
1
1
1
1
1
1
1
1
1
1
1
1
1
1
1
1
1
1
1
1
1
1
1
1
1
1
1
1
1
1
1
1
1
1
1
1
1
1
1
1
1
1
1
1
1
1
1
1
1
1
1
1
1
1
1
1
1
1
1
1
1
1
1
1
1
1
1
1
1
1
1
1
1
1
1
1
1
1
1
1
1
1
1
1
1
1
1
1
1
1
1
1
1
1
1
1
1
1
1
1
1
1
1.77464
2.19238
2.94774
4.06299
5.02244
6.35748
9.81558
12.8362
14.5629
17.7888
26.1748
35.2505
62.641
194.826
178.761
133.942
93.0879
45.6167
19.1997
15.4368
14.5123
14.1193
14.0735
14.517
15.3173
16.2776
17.2493
19.4177
29.8796
61.6498
79.945
84.5452
79.1098
70.1804
59.5844
51.2256
38.9098
47.7255
63.5212
85.5387
101.109
94.4853
69.9437
59.9592
3.97128
1.08965
2.87385
38.388
84.0486
88.5767
92.7623
106.559
134.767
113.338
82.9778
69.6544
93.3871
124.191
121.208
117.134
111.686
86.5292
51.5387
43.5614
60.9237
121.956
176.441
233.312
258.684
255.843
225.33
203.512
198.211
219.375
260.484
269.378
197.52
148.369
116.753
115.734
126.917
117.126
106.079
100.97
101.441
111.586
134.331
157.031
171.366
183.618
187.955
191.384
183.88
174.423
150.602
138.659
129.172
109.611
95.6633
90.3969
107.833
120.661
121.824
109.965
95.0472
81.9536
75.5575
73.1694
104.998
113.81
110.264
142.238
141.837
178.821
205.02
225.005
255.433
248.154
248.481
256.911
313.969
282.466
256.739
224.902
201.912
171.337
156.897
140.665
133.249
125.663
117.503
98.055
68.6287
43.1829
29.8609
28.2387
25.8175
21.5342
1.91108
1.0283
1.00003
1
1
1
1
1
1
1
1
1
1
1
1
1
1
1
1
1
1
1
1
1
1
1
1
1
1
1
1
1
1
1
1
1
1
1
1
1
1
1
1
1
1
1
1
1
1
1
1
1
1
1
1
1
1
1
1
1
1
1
1
1
1
1
1
1
1
1
1
1
1
1
1
1
1
1
1
1
1
1
1
1
1
1
1
1
1
1
1
1
1
1
1
1
1
1
1
1
1
1
1
1
1
1
1
1
1
1
1
1
1
1
1
1
1
1
1
1
1
1
1
1
1
1
1
1
1
1
1
1
1
1
1
1
1
1
1
1
1
1
1
1
1
1
1
1
1
1
1
1
1
1
1
1
1
1
1
1
1
1
1
1
1
1
1
1
1
1
1
1
1
1
1
1
1
1
1
1
1
1
1
1
1
1
1
1
1
1
1
1
1
1
1
1
1
1
1
1
1
1
1
1
1
1
1
1
1
1
1
1
1
1
1
1
1
1
1
1
1
1
1
1
1
1
1
1
1
1
1
1
1
1
1
1
1
1
1
1
1
1
1
1
1
1
1
1
1
1
1
1
1
1
1
1
1
1
1
1
1
1
1.92118
2.29614
3.22292
4.32566
5.47716
7.50093
11.0111
13.8082
15.9875
18.774
28.0546
51.9451
82.7411
228.265
244.86
203.576
145.602
91.1408
28.1373
17.3732
15.422
14.5753
14.6215
15.4764
16.4313
17.7896
21.8777
41.035
74.2974
102.528
112.555
111.874
104.654
95.5874
87.6797
80.3593
77.1952
80.1245
95.5683
116.102
129.747
120.794
97.2419
82.2899
3.20696
3.08977
21.676
101.74
110.932
91.7162
94.7309
110.161
131.377
151.637
131.195
125.425
141.057
127.239
117.954
110.305
102.439
61.1653
45.284
41.4326
41.6475
64.9435
109.606
139.28
181.252
220.151
243.076
249.95
254.531
266.463
282.926
274.405
239.165
176.343
176.087
183.443
173.511
136.584
122.129
118.332
121.492
134.377
154.736
173.554
177.501
181.539
186.309
195.162
196.828
183.371
164.918
140.101
120.317
99.6338
65.5096
64.1805
82.4602
112.27
127.584
128.519
119.931
110.372
107.117
111.269
143.552
262.639
322.638
328.896
298.24
276.453
267.991
273.284
279.215
302.817
305.089
291.2
316.871
295.853
288.928
273.501
263.831
231.69
214.386
194.573
186.809
181.844
174.031
161.707
131.043
81.382
50.0271
34.1246
35.5748
28.6727
9.39485
1.6367
1.00939
1.00001
1
1
1
1
1
1
1
1
1
1
1
1
1
1
1
1
1
1
1
1
1
1
1
1
1
1
1
1
1
1
1
1
1
1
1
1
1
1
1
1
1
1
1
1
1
1
1
1
1
1
1
1
1
1
1
1
1
1
1
1
1
1
1
1
1
1
1
1
1
1
1
1
1
1
1
1
1
1
1
1
1
1
1
1
1
1
1
1
1
1
1
1
1
1
1
1
1
1
1
1
1
1
1
1
1
1
1
1
1
1
1
1
1
1
1
1
1
1
1
1
1
1
1
1
1
1
1
1
1
1
1
1
1
1
1
1
1
1
1
1
1
1
1
1
1
1
1
1
1
1
1
1
1
1
1
1
1
1
1
1
1
1
1
1
1
1
1
1
1
1
1
1
1
1
1
1
1
1
1
1
1
1
1
1
1
1
1
1
1
1
1
1
1
1
1
1
1
1
1
1
1
1
1
1
1
1
1
1
1
1
1
1
1
1
1
1
1
1
1
1
1
1
1
1
1
1
1
1
1
1
1
1
1
1
1
1
1
1
1
1
1
1
1
1
1
1
1
1
1
1
1
1
1
1
1
1
1
1
2.04877
2.37091
3.29635
4.55194
5.98605
8.32205
12.7776
16.835
19.8855
23.4069
29.8156
54.7695
85.4825
170.537
232.653
202.346
139.094
64.2408
25.1722
17.5336
15.3831
14.6587
15.1842
16.2628
17.4066
21.1661
50.419
84.4505
113.157
130.488
136.94
138.299
138.577
137.553
134.334
131.754
131.477
138.001
147.263
158.637
157.966
154.539
155.259
172.991
157.519
140.529
135.491
132.854
117.815
100.169
105.461
113.826
119.789
136.27
145.789
149.343
138.497
124.711
111.322
101.073
56.0984
43.4048
41.0776
40.847
44.8875
53.1765
75.9926
101.841
111.942
137.807
173.293
204.953
219.714
234.934
245.331
238.598
224.558
209.921
197.558
190.426
172.353
140.971
127.755
127.157
137.601
148.512
163.084
170.979
172.526
171.589
178.333
190.208
200.549
195.605
175.451
151.149
128.187
105.75
62.6892
63.9198
79.5801
98.092
131.288
143.066
145.791
145.253
144.573
150.327
166.649
246.823
263.198
255.565
267.174
265.522
261.901
267.041
274.991
288.079
297.571
294.687
300.646
292.413
313.591
292.502
302.299
275.551
275.303
254.734
252.342
240.823
235.539
221.313
169.768
123.57
76.8708
51.9384
37.3415
41.5409
30.5666
7.96608
1.63826
1.00124
1
1
1
1
1
1
1
1
1
1
1
1
1
1
1
1
1
1
1
1
1
1
1
1
1
1
1
1
1
1
1
1
1
1
1
1
1
1
1
1
1
1
1
1
1
1
1
1
1
1
1
1
1
1
1
1
1
1
1
1
1
1
1
1
1
1
1
1
1
1
1
1
1
1
1
1
1
1
1
1
1
1
1
1
1
1
1
1
1
1
1
1
1
1
1
1
1
1
1
1
1
1
1
1
1
1
1
1
1
1
1
1
1
1
1
1
1
1
1
1
1
1
1
1
1
1
1
1
1
1
1
1
1
1
1
1
1
1
1
1
1
1
1
1
1
1
1
1
1
1
1
1
1
1
1
1
1
1
1
1
1
1
1
1
1
1
1
1
1
1
1
1
1
1
1
1
1
1
1
1
1
1
1
1
1
1
1
1
1
1
1
1
1
1
1
1
1
1
1
1
1
1
1
1
1
1
1
1
1
1
1
1
1
1
1
1
1
1
1
1
1
1
1
1
1
1
1
1
1
1
1
1
1
1
1
1
1
1
1
1
1
1
1
1
1
1
1
1
1
1
1
1
1
1
1
1
1
1
2.13069
2.37344
3.32826
4.74922
6.54648
9.17492
14.1615
18.5437
21.8386
25.3961
33.7479
54.2876
86.2822
148.208
192.198
136.238
61.0689
30.213
20.9653
17.9081
15.635
15.1972
16.0201
17.0105
18.4763
32.5599
86.5221
120.411
139.768
150.023
154.533
155.929
159.315
163.063
165.203
165.429
163.795
160.701
156.619
149.97
145.459
142.3
143.74
147.392
143.612
151.176
157.551
158.088
141.746
122.086
111.019
109.515
115.256
117.584
124.856
126.67
125.379
115.22
98.3146
52.176
42.4115
40.4212
42.715
45.5476
53.3406
65.315
88.6937
112.419
122.816
143.099
183.674
219.545
234.722
244.493
248.944
243.631
236.469
218.494
200.451
184.58
170.622
150.9
140.314
143.293
149.651
157.296
165.288
167.086
161.428
161.479
169.272
181.507
197.412
200.019
187.296
168.969
150.238
129.676
72.616
72.9218
70.7
77.2183
109.02
147.631
161.287
169.734
174.746
181.435
193.233
224.577
240.978
252.248
250.975
269.911
274.899
276.29
283.454
293.792
304.464
309.576
310.748
320.071
311.658
325.105
317.449
315.059
304.591
295.84
291.228
284.452
277.832
221.804
173.194
129.369
95.2964
65.0885
49.3721
52.3432
41.0488
37.0168
11.264
1.88755
1.00102
1
1
1
1
1
1
1
1
1
1
1
1
1
1
1
1
1
1
1
1
1
1
1
1
1
1
1
1
1
1
1
1
1
1
1
1
1
1
1
1
1
1
1
1
1
1
1
1
1
1
1
1
1
1
1
1
1
1
1
1
1
1
1
1
1
1
1
1
1
1
1
1
1
1
1
1
1
1
1
1
1
1
1
1
1
1
1
1
1
1
1
1
1
1
1
1
1
1
1
1
1
1
1
1
1
1
1
1
1
1
1
1
1
1
1
1
1
1
1
1
1
1
1
1
1
1
1
1
1
1
1
1
1
1
1
1
1
1
1
1
1
1
1
1
1
1
1
1
1
1
1
1
1
1
1
1
1
1
1
1
1
1
1
1
1
1
1
1
1
1
1
1
1
1
1
1
1
1
1
1
1
1
1
1
1
1
1
1
1
1
1
1
1
1
1
1
1
1
1
1
1
1
1
1
1
1
1
1
1
1
1
1
1
1
1
1
1
1
1
1
1
1
1
1
1
1
1
1
1
1
1
1
1
1
1
1
1
1
1
1
1
1
1
1
1
1
1
1
1
1
1
1
1
1
1
1
1
2.14301
2.35959
3.34377
4.92475
7.0139
9.5784
14.0148
17.9058
20.4529
23.7398
28.9427
41.5452
67.1505
105.057
78.1447
40.1507
26.9733
22.6862
20.4225
17.4596
15.7982
16.1413
16.9995
17.8464
20.1256
50.2769
105.469
141.527
155.669
157.952
155.192
149.647
148.56
151.373
156.723
161.63
162.077
156.611
147.745
140.969
134.675
132.804
131.943
129.192
133.384
140.541
149.103
149.233
134.06
116.069
109.903
108.577
109.186
114.862
117.535
122.781
119.533
94.1917
51.0144
43.2681
42.5687
44.4201
46.3016
52.7907
64.6494
97.5702
127.126
138.369
159.597
192.866
230.247
250.423
252.588
249.936
243.914
237.626
226.456
213.816
197.48
189.348
180.425
168.183
162.777
159.873
161.038
160.594
159.091
147.763
140.884
143.162
153.749
168.747
184.732
196.122
195.268
188.787
180.789
164.143
107.47
84.0062
78.1868
80.633
85.3755
93.902
116.643
150.977
185.773
197.422
206.873
222.741
237.14
251.304
265.622
266.74
284.897
292.175
293.657
302.807
306.446
319.13
321.007
327.661
321.614
336.976
324.079
328.123
318.85
285.467
234.4
211.299
182.345
163.421
141.655
123.017
97.5519
73.548
56.1156
62.606
51.9019
44.4239
43.2275
12.3023
2.25517
1.00679
1
1
1
1
1
1
1
1
1
1
1
1
1
1
1
1
1
1
1
1
1
1
1
1
1
1
1
1
1
1
1
1
1
1
1
1
1
1
1
1
1
1
1
1
1
1
1
1
1
1
1
1
1
1
1
1
1
1
1
1
1
1
1
1
1
1
1
1
1
1
1
1
1
1
1
1
1
1
1
1
1
1
1
1
1
1
1
1
1
1
1
1
1
1
1
1
1
1
1
1
1
1
1
1
1
1
1
1
1
1
1
1
1
1
1
1
1
1
1
1
1
1
1
1
1
1
1
1
1
1
1
1
1
1
1
1
1
1
1
1
1
1
1
1
1
1
1
1
1
1
1
1
1
1
1
1
1
1
1
1
1
1
1
1
1
1
1
1
1
1
1
1
1
1
1
1
1
1
1
1
1
1
1
1
1
1
1
1
1
1
1
1
1
1
1
1
1
1
1
1
1
1
1
1
1
1
1
1
1
1
1
1
1
1
1
1
1
1
1
1
1
1
1
1
1
1
1
1
1
1
1
1
1
1
1
1
1
1
1
1
1
1
1
1
1
1
1
1
1
1
1
1
1
1
1
1
2.05454
2.28598
3.25243
4.90468
7.18491
9.70386
12.8356
15.8082
17.7809
19.9953
23.0889
27.8025
35.0029
41.9713
28.9613
24.6704
23.3239
21.8938
19.5986
17.4736
17.1951
17.626
18.0936
18.7232
21.0958
41.1044
95.5547
134.34
146.043
142.325
136.462
130.565
128.759
130.536
137.765
148.332
155.902
156.135
150.7
141.36
135.825
130.528
127.769
129.95
133.764
137.921
138.727
134.821
123.881
114.674
109.02
109.48
114.261
118.962
124.816
123.096
90.6202
51.309
45.577
45.7062
47.9276
48.8252
53.0839
64.9641
108.191
144.284
159.125
182.053
215.007
245.447
268.378
270.112
261.228
250.323
236.763
220.36
208.328
194.271
188.881
186.216
174.515
165.349
159.373
156.759
153.019
147.782
134.838
120.803
117.439
125.589
137.351
153.209
171.752
187.536
197.16
203.564
203.249
190.892
123.133
93.6344
91.5808
86.1163
81.5488
85.4518
93.6579
105.189
120.894
139.975
171.116
200.426
245.336
257.708
271.414
282.165
288.805
296.984
307.983
307.671
315.516
321.722
323.305
337.754
314.712
346.463
315.612
318.282
311.196
214.996
206.808
158.065
144.689
135.147
125.407
106.815
80.7425
67.9208
59.2407
55.9301
54.6937
50.7965
46.6648
48.6275
18.1059
2.86317
1.00726
1
1
1
1
1
1
1
1
1
1
1
1
1
1
1
1
1
1
1
1
1
1
1
1
1
1
1
1
1
1
1
1
1
1
1
1
1
1
1
1
1
1
1
1
1
1
1
1
1
1
1
1
1
1
1
1
1
1
1
1
1
1
1
1
1
1
1
1
1
1
1
1
1
1
1
1
1
1
1
1
1
1
1
1
1
1
1
1
1
1
1
1
1
1
1
1
1
1
1
1
1
1
1
1
1
1
1
1
1
1
1
1
1
1
1
1
1
1
1
1
1
1
1
1
1
1
1
1
1
1
1
1
1
1
1
1
1
1
1
1
1
1
1
1
1
1
1
1
1
1
1
1
1
1
1
1
1
1
1
1
1
1
1
1
1
1
1
1
1
1
1
1
1
1
1
1
1
1
1
1
1
1
1
1
1
1
1
1
1
1
1
1
1
1
1
1
1
1
1
1
1
1
1
1
1
1
1
1
1
1
1
1
1
1
1
1
1
1
1
1
1
1
1
1
1
1
1
1
1
1
1
1
1
1
1
1
1
1
1
1
1
1
1
1
1
1
1
1
1
1
1
1
1
1
1
1.97955
2.22417
3.10949
4.62002
6.79063
9.31804
11.8948
14.4707
16.8159
18.7779
20.0161
21.0135
22.0292
22.4993
21.6113
21.3229
20.8028
19.9463
19.0824
18.8091
18.6297
18.6955
18.9571
19.3757
20.3345
25.6339
58.2969
104.792
124.67
122.575
122.017
121.32
122.521
126.132
132.321
141.066
148.348
150.752
147.333
139.493
136.7
129.435
134.198
137.14
139.913
137.524
133.443
126.144
120.47
111.638
107.928
108.515
113.965
123.241
127.302
82.8451
55.3383
48.3417
48.1287
50.7715
52.2485
54.6244
58.079
82.8903
147.025
160.526
189.478
220.119
249.986
278.135
290.804
288.472
276.013
257.052
240.729
221.743
202.358
182.505
170.906
157.475
151.452
145.482
147.124
143.627
141.825
133.489
127.366
126.093
128.901
136.258
144.295
157.717
174.055
191.996
209.086
220.083
220.395
218.368
164.102
168.444
160.052
112.996
86.2199
78.9563
81.7582
88.621
99.1769
112.396
126.484
151.702
177.581
203.863
245.511
282.623
304.129
305.238
301.148
315.457
311.129
320.681
320.466
325.783
313.392
330.387
312.858
296.267
276.557
195.807
170.793
136.898
118.545
102.74
85.1704
70.7161
58.847
51.3325
54.0583
53.6388
53.8848
53.4055
50.5331
50.4764
57.0704
10.4702
2.00719
1.00047
1
1
1
1
1
1
1
1
1
1
1
1
1
1
1
1
1
1
1
1
1
1
1
1
1
1
1
1
1
1
1
1
1
1
1
1
1
1
1
1
1
1
1
1
1
1
1
1
1
1
1
1
1
1
1
1
1
1
1
1
1
1
1
1
1
1
1
1
1
1
1
1
1
1
1
1
1
1
1
1
1
1
1
1
1
1
1
1
1
1
1
1
1
1
1
1
1
1
1
1
1
1
1
1
1
1
1
1
1
1
1
1
1
1
1
1
1
1
1
1
1
1
1
1
1
1
1
1
1
1
1
1
1
1
1
1
1
1
1
1
1
1
1
1
1
1
1
1
1
1
1
1
1
1
1
1
1
1
1
1
1
1
1
1
1
1
1
1
1
1
1
1
1
1
1
1
1
1
1
1
1
1
1
1
1
1
1
1
1
1
1
1
1
1
1
1
1
1
1
1
1
1
1
1
1
1
1
1
1
1
1
1
1
1
1
1
1
1
1
1
1
1
1
1
1
1
1
1
1
1
1
1
1
1
1
1
1
1
1
1
1
1
1
1
1
1
1
1
1
1
1
1
1
1
1.5144
1.73702
1.945
2.1486
2.24606
2.73037
3.43239
4.57296
5.90667
7.81832
10.5036
13.624
17.2106
18.9114
19.6191
19.86
19.5653
18.5262
17.8121
16.2528
15.4685
13.9612
13.951
12.8216
12.8324
11.5743
12.3581
33.9559
46.51
49.9781
56.3995
62.8615
71.499
77.8852
85.5539
93.5302
103.55
107.952
116.351
113.44
121.96
119.279
124.688
126.317
124.497
122.457
117.019
111.815
100.837
91.71
87.3349
85.4286
82.4872
62.6324
44.1306
31.2337
25.7402
24.9101
23.7845
22.8787
23.1452
23.4589
23.8119
29.8364
59.0399
70.2513
85.262
101.865
122.98
150.692
175.781
201.488
190.929
197.386
188.285
183.59
182.783
181.364
183.639
190.095
190.765
201.768
212.911
220.374
217.02
207.921
195.36
195.871
193.938
195.834
198.857
201.737
202.644
207.104
205.781
199.781
190.007
179.538
162.691
154.269
152.129
155.843
88.9537
48.8957
47.8026
51.1685
55.3301
60.3519
66.0101
71.7519
73.5871
84.2601
107.788
92.4542
151.536
166.764
146.509
161.269
169.993
161.217
155.408
166.333
148.422
162.06
135.481
120.989
115.657
75.2037
64.5176
46.2374
36.1796
32.5021
37.823
43.7781
43.4279
42.4885
41.2344
45.5115
38.6534
34.1194
31.4782
23.887
15.9291
12.7075
1.92092
1.01718
1
1
1
1
1
1
1
1
1
1
1
1
1
1
1
1
1
1
1
1
1
1
1
1
1
1
1
1
1
1
1
1
1
1
1
1
1
1
1
1
1
1
1
1
1
1
1
1
1
1
1
1
1
1
1
1
1
1
1
1
1
1
1
1
1
1
1
1
1
1
1
1
1
1
1
1
1
1
1
1
1
1
1
1
1
1
1
1
1
1
1
1
1
1
1
1
1
1
1
1
1
1
1
1
1
1
1
1
1
1
1
1
1
1
1
1
1
1
1
1
1
1
1
1
1
1
1
1
1
1
1
1
1
1
1
1
1
1
1
1
1
1
1
1
1
1
1
1
1
1
1
1
1
1
1
1
1
1
1
1
1
1
1
1
1
1
1
1
1
1
1
1
1
1
1
1
1
1
1
1
1
1
1
1
1
1
1
1
1
1
1
1
1
1
1
1
1
1
1
1
1
1
1
1
1
1
1
1
1
1
1
1
1
1
1
1
1
1
1
1
1
1
1
1
1
1
1
1
1
1
1
1
1
1
1
1
1
1
1
1
1
1
1
1
1
1
1
1
1
1
1
1
1
1
1.55183
1.74717
2.07959
2.82873
4.1477
4.25565
4.12668
4.00431
3.69482
3.5305
3.57529
1.24974
1.00398
1.00002
1.01405
1.1763
1.22035
1.69587
3.53469
5.19277
6.4753
7.62336
7.34693
7.11106
7.08933
7.95822
9.11053
10.184
10.996
10.565
9.8362
9.09498
8.89029
7.61626
7.55273
3.43552
1.73281
1.37857
1.07423
1.00055
1.00001
1
1
1
5.09546
5.98411
10.2532
21.1601
22.6179
23.1781
24.2528
25.5854
26.9688
30.8279
31.5311
32.1474
28.9549
25.7965
22.6777
18.4702
14.8992
12.226
10.8338
10.0943
11.1962
12.7853
13.7401
10.6098
2.98871
1.26041
1.04195
1.00127
1.00001
1
1.03903
1.17238
12.2618
22.2175
36.8944
44.4504
57.5586
59.0907
62.462
64.0528
65.1625
66.2414
56.2406
48.5674
33.3365
24.6539
20.5954
15.5732
8.62548
2.593
1.41
1.31641
1.24451
1.17219
1.11023
1.0346
1.00136
1.00018
1.00001
1
1
1
1
1
1
1
1
1
1
1
1
1
1
1.00011
1.00122
1.00959
1.00156
1.00043
1.00008
1.00001
1
1
1
1
1
1
1
1
1
1
1
1
1
1
1
1
1
1
1
1
1
1
1
1
1
1
1
1
1
1
1
1
1
1
1
1
1
1
1
1
1
1
1
1
1
1
1
1
1
1
1
1
1
1
1
1
1
1
1
1
1
1
1
1
1
1
1
1
1
1
1
1
1
1
1
1
1
1
1
1
1
1
1
1
1
1
1
1
1
1
1
1
1
1
1
1
1
1
1
1
1
1
1
1
1
1
1
1
1
1
1
1
1
1
1
1
1
1
1
1
1
1
1
1
1
1
1
1
1
1
1
1
1
1
1
1
1
1
1
1
1
1
1
1
1
1
1
1
1
1
1
1
1
1
1
1
1
1
1
1
1
1
1
1
1
1
1
1
1
1
1
1
1
1
1
1
1
1
1
1
1
1
1
1
1
1
1
1
1
1
1
1
1
1
1
1
1
1
1
1
1
1
1
1
1
1
1
1
1
1
1
1
1
1
1
1
1
1
1
1
1
1
1
1
1
1
1
1
1
1
1
1
1
1
1
1
1
1
1
1
1
1
1
1
1
1
1
1
1
1
1.7312
1.8924
2.51417
3.26582
4.45404
6.78312
6.51233
6.3112
5.96792
5.7653
5.40078
1.20141
1.00127
1.00001
1.16559
4.89494
5.80703
6.50609
6.89273
8.33147
10.188
12.0672
14.26
15.8769
17.1665
18.4681
19.4199
19.2616
18.8884
18.8819
18.6569
17.2161
15.1108
13.7359
13.2701
14.0036
14.4212
14.1494
4.99698
1.14607
1.00096
1.00004
1
1
14.7467
11.177
22.7472
51.2364
58.6081
60.5904
66.3364
70.1932
73.8273
75.5946
75.5114
70.5183
62.0448
52.4171
43.8295
36.1528
28.4542
23.3489
21.0948
19.4258
18.7103
16.7769
16.1498
17.697
17.7916
17.4916
2.04614
1.12947
1.00251
1.00001
1.39574
27.35
79.9061
75.0457
84.9853
86.3209
94.2937
96.8167
100.199
98.6897
109.954
116.358
120.429
117.631
106.062
84.2753
57.508
35.275
22.5857
16.783
13.8779
12.2813
10.9571
9.28922
10.0384
3.15271
1.19101
1.04979
1.00326
1.00002
1
1
1
1
1
1
1
1
1
1
1
1
1.00337
1.25829
2.10202
2.28029
1.5458
1.17979
1.01597
1.00124
1.00011
1
1
1
1
1
1
1
1
1
1
1
1
1
1
1
1
1
1
1
1
1
1
1
1
1
1
1
1
1
1
1
1
1
1
1
1
1
1
1
1
1
1
1
1
1
1
1
1
1
1
1
1
1
1
1
1
1
1
1
1
1
1
1
1
1
1
1
1
1
1
1
1
1
1
1
1
1
1
1
1
1
1
1
1
1
1
1
1
1
1
1
1
1
1
1
1
1
1
1
1
1
1
1
1
1
1
1
1
1
1
1
1
1
1
1
1
1
1
1
1
1
1
1
1
1
1
1
1
1
1
1
1
1
1
1
1
1
1
1
1
1
1
1
1
1
1
1
1
1
1
1
1
1
1
1
1
1
1
1
1
1
1
1
1
1
1
1
1
1
1
1
1
1
1
1
1
1
1
1
1
1
1
1
1
1
1
1
1
1
1
1
1
1
1
1
1
1
1
1
1
1
1
1
1
1
1
1
1
1
1
1
1
1
1
1
1
1
1
1
1
1
1
1
1
1
1
1
1
1
1
1
1
1
1
1
1
1
1
1
1
1
1
1
1
1
1
1
1
1
2.00422
2.44613
3.05165
3.81147
5.04335
7.48301
10.0172
9.18839
8.76287
7.44172
6.79607
1.63245
1.03736
1.00029
1.55072
8.423
10.53
11.6951
12.2854
14.3716
16.4077
17.7046
18.285
19.34
19.6269
18.827
15.7556
13.2624
11.6927
11.2562
12.062
14.9443
17.0084
16.1193
16.0102
15.8794
15.6192
16.8315
4.52375
1.22234
1.03296
1.00197
1.00003
1
23.5007
15.6393
24.2632
42.3653
64.5474
68.9751
83.5697
93.612
105.823
112.705
113.112
106.453
94.8172
81.9647
69.2143
57.7406
46.6357
39.2539
33.3124
28.1219
24.3509
20.6584
18.7482
19.9959
21.994
23.3571
25.8401
1.62217
1.02012
1.00014
15.5929
64.9505
93.5423
91.6292
99.653
98.9097
106.638
103.384
106.085
102.394
114.89
119.387
128.918
130.046
130.185
122.727
112.065
94.7326
72.4626
47.9278
31.6231
22.9393
18.8421
15.6567
11.7096
8.42388
9.20319
1.89792
1.07693
1.00204
1
1
1
1
1
1
1
1
1
1
1.00008
1.02861
2.67011
13.0507
56.2898
33.5252
23.5791
16.7752
2.70193
1.26208
1.04015
1.00102
1.00005
1
1
1
1
1
1
1
1
1
1
1
1
1
1
1
1
1
1
1
1
1
1
1
1
1
1
1
1
1
1
1
1
1
1
1
1
1
1
1
1
1
1
1
1
1
1
1
1
1
1
1
1
1
1
1
1
1
1
1
1
1
1
1
1
1
1
1
1
1
1
1
1
1
1
1
1
1
1
1
1
1
1
1
1
1
1
1
1
1
1
1
1
1
1
1
1
1
1
1
1
1
1
1
1
1
1
1
1
1
1
1
1
1
1
1
1
1
1
1
1
1
1
1
1
1
1
1
1
1
1
1
1
1
1
1
1
1
1
1
1
1
1
1
1
1
1
1
1
1
1
1
1
1
1
1
1
1
1
1
1
1
1
1
1
1
1
1
1
1
1
1
1
1
1
1
1
1
1
1
1
1
1
1
1
1
1
1
1
1
1
1
1
1
1
1
1
1
1
1
1
1
1
1
1
1
1
1
1
1
1
1
1
1
1
1
1
1
1
1
1
1
1
1
1
1
1
1
1
1
1
1
1
1
1
1
1
1
1
1
1
1
1
1
1
1
1
1
2.58995
2.70472
2.5579
2.90777
3.76695
5.55728
7.23085
8.8967
11.5311
13.717
12.4865
3.68692