/*--------------------------------*- C++ -*----------------------------------*\
| =========                 |                                                 |
| \\      /  F ield         | OpenFOAM: The Open Source CFD Toolbox           |
|  \\    /   O peration     | Version:  2.1.1                                 |
|   \\  /    A nd           | Web:      www.OpenFOAM.org                      |
|    \\/     M anipulation  |                                                 |
\*---------------------------------------------------------------------------*/
FoamFile
{
    version     2.0;
    format      ascii;
    class       volScalarField;
    location    "0.004250000";
    object      H2;
}
// * * * * * * * * * * * * * * * * * * * * * * * * * * * * * * * * * * * * * //

dimensions      [0 0 0 0 0 0 0];

internalField   nonuniform List<scalar> 
12384
(
0.00909277
0.00959154
0.00983623
0.00961852
0.0091973
0.00853201
0.00798949
0.00728464
0.00693219
0.00731366
0.00689841
0.00272545
0.000383503
0.000154474
3.24249e-05
0.000113041
0.000156908
0.000169592
0.000164336
0.000150765
0.000138712
0.000131503
0.00012933
0.000131288
0.000137742
0.000145929
0.000163407
0.000179653
0.000206656
0.000237485
0.00026943
0.000293843
0.000323487
0.000345403
0.000361297
0.000412433
0.00052287
0.000435991
0.000198885
9.50114e-05
4.75849e-05
2.70087e-05
5.33865e-05
0.000382248
0.000477487
0.0010763
0.00176416
0.00216455
0.00222381
0.00219357
0.00210005
0.00197546
0.00183122
0.00164741
0.00149198
0.00135541
0.00133939
0.00122983
0.00124182
0.00112976
0.00110425
0.00102007
0.000956657
0.000855818
0.000525608
0.000301049
0.00033297
0.0011935
0.00298486
0.00360125
0.0034985
0.00246394
0.000771926
0.000172029
0.0018498
0.00185355
0.00264003
0.00323866
0.00368577
0.00379643
0.00401241
0.00379643
0.00406521
0.00361886
0.00370622
0.00362125
0.00358853
0.00354323
0.00346517
0.00338713
0.00329713
0.00307191
0.00268102
0.00210746
0.00134881
0.000986375
0.00130401
0.00059915
0.00033772
0.000382244
0.000413445
0.000430449
0.000415626
0.000409573
0.00118256
0.000621843
0.000477953
0.000428948
0.000418994
0.000423597
0.000441111
0.000461425
0.000485242
0.000497925
0.00050295
0.000532019
0.000650548
0.000719825
0.00074061
0.000859497
0.00111
0.00153878
0.00208323
0.00270901
0.00316333
0.00333546
0.00332963
0.00305228
0.00176172
0.000515381
0.000249456
0.000208257
0.000221413
0.00023021
0.000182228
0.00433331
0.00754239
0.00636335
0.00429849
0.00278339
0.00188315
0.00162676
0.00140482
0.00182342
0.00156097
0.00225453
0.00194199
0.00268879
0.00216984
0.00299241
0.00223603
0.00298742
0.00230683
0.0027174
0.00253734
0.00259374
0.00258783
0.00273587
0.00271174
0.00268382
0.00271624
0.00285869
0.00119255
0.000148858
0.00120435
0.000999723
0.000754351
0.000645846
0.00240537
0.00640263
0.00939673
0.0105372
0.0105601
0.0099182
0.00882862
0.00750259
0.0056641
0.00440484
0.00280651
0.00211432
0.00120962
0.000902487
0.000736371
0.00057674
0.000521486
0.000493198
0.000511858
0.000554588
0.000675155
0.000941377
0.001411
0.00287778
0.00355605
7.11312e-05
3.10535e-05
3.54551e-05
5.57633e-05
0.000575671
0.0102241
0.0125553
0.0113955
0.0109476
0.0107643
0.0106551
0.0105926
0.0106249
0.0104137
0.010411
0.0103998
0.010336
0.0103678
0.0101161
0.00968731
0.00895045
0.00815832
0.00721498
0.00633491
0.00557167
0.00503085
0.00485196
0.00526293
0.00637702
0.00748275
0.00748422
1.62045e-05
2.0087e-05
2.54202e-05
0.00419671
0.02827
0.027273
0.0247213
0.0236272
0.0228004
0.0220285
0.0209208
0.0216548
0.0199841
0.0213181
0.0204793
0.0216042
0.0211913
0.0217525
0.0213356
0.02128
0.0206833
0.0202897
0.0200089
0.0201808
0.0216397
0.0230781
0.0219704
0.0107347
3.85395e-05
1.40225e-05
5.17706e-05
0.00123207
0.00646282
0.00511238
0.00354558
0.00304062
0.0028637
0.00284691
0.00300268
0.00344182
0.00398519
0.00468171
0.00544235
0.00621069
0.00716151
0.00783867
0.00834085
0.00850894
0.00861806
0.0084834
0.0087912
0.00809569
0.00935301
0.00929727
0.00988028
0.0107535
0.0116558
0.0119484
0.0111119
0.00838283
1.64332e-05
0.0100671
0.0147221
0.0144216
0.0141621
0.0142792
0.0146002
0.01528
0.0159871
0.0166051
0.0171194
0.0174506
0.0176687
0.0177044
0.0175802
0.0173315
0.0170015
0.0168493
0.0162085
0.016018
0.0156154
0.0147906
0.015415
0.0148296
0.0150366
0.0145967
0.0139752
0.012516
0.00888701
0.00361371
6.01534e-06
0.00497784
0.0184459
0.0201782
0.0213237
0.0226328
0.022564
0.0222576
0.0222482
0.0213826
0.0210674
0.0202855
0.0197449
0.0192974
0.0189899
0.0190785
0.0194729
0.020284
0.0212541
0.0220468
0.0223868
0.0223729
0.0220503
0.0220809
0.0199869
0.00784968
3.74654e-05
4.26234e-06
4.28532e-06
8.62903e-06
1.24601e-06
2.28606e-06
2.38887e-06
3.21713e-06
8.10041e-06
2.06052e-05
4.71508e-05
0.0001114
0.000318313
0.00414185
0.00606995
0.0116262
0.0123751
0.0150553
0.0157671
0.0156011
0.0146171
0.012664
0.0104153
0.00805118
0.00631417
0.00435692
0.00244653
0.000454076
0.000119969
1.5912e-05
3.58006e-06
2.06825e-06
2.21982e-06
4.86795e-06
0.0124887
0.0115541
0.0105164
0.00970128
0.0090852
0.00845232
0.00746561
0.00604769
0.00515131
0.00527752
0.00620921
0.00408019
0.00077731
0.000158684
3.28936e-05
0.000160509
0.00017565
0.000138498
0.000101378
8.23642e-05
7.36715e-05
7.07486e-05
7.1948e-05
7.70507e-05
8.54735e-05
9.84743e-05
0.000115481
0.000136497
0.000168039
0.000199673
0.000230539
0.000259493
0.000277676
0.000298513
0.000323248
0.000349845
0.000435147
0.000498251
0.000383038
0.000205517
0.00010168
4.78062e-05
4.22148e-05
0.000214398
0.000612402
0.00237389
0.00304148
0.0031027
0.00301985
0.00263072
0.00214897
0.0017362
0.00141127
0.00126274
0.00119839
0.00115887
0.0011603
0.00115632
0.00121601
0.00116215
0.00128604
0.00117075
0.00115234
0.00101285
0.000697329
0.000401615
0.000286566
0.00030911
0.000435646
0.00118735
0.00328279
0.00386883
0.00209778
0.00024292
0.00150607
0.00440067
0.00523264
0.00486616
0.00412417
0.00336888
0.00286653
0.00258664
0.0025464
0.00251818
0.00278492
0.00293665
0.00326861
0.00352174
0.0037068
0.00381327
0.00385378
0.00378313
0.00355098
0.00302909
0.00217491
0.00125983
0.0012513
0.000898905
0.000412817
0.000463443
0.000636572
0.000693536
0.000597959
0.00048745
0.00013917
0.000126008
0.000134537
0.000153108
0.000159001
0.000160593
0.000165347
0.000175362
0.000190401
0.000209881
0.000228297
0.000253649
0.00030167
0.000375108
0.000438879
0.000492698
0.000580529
0.000819776
0.00111311
0.00191955
0.00269985
0.00320229
0.00339389
0.00335289
0.00288391
0.00148376
0.000540359
0.000439082
0.000497298
0.000441542
0.000334487
0.00549018
0.00618086
0.00292469
0.000975624
0.000806605
0.00112583
0.00246069
0.00356799
0.00498333
0.00563464
0.00670644
0.00724019
0.00800436
0.00819788
0.00874772
0.00873014
0.00872789
0.00865826
0.00823859
0.00791774
0.00725249
0.00653991
0.0057879
0.00491907
0.0041331
0.0034491
0.00323313
0.00208271
0.000467084
0.0028416
0.00116572
0.000811004
0.00170132
0.00643791
0.01105
0.0123835
0.011235
0.00870469
0.0054814
0.00223518
0.000610749
0.000267872
0.00019474
0.000179641
0.000187046
0.00020664
0.000241027
0.000229833
0.000228428
0.000192842
0.000155902
0.000128291
9.72268e-05
9.01998e-05
0.000104253
0.000228753
0.00090612
0.00300294
0.000226533
3.44874e-05
5.16305e-05
0.000260157
0.00610693
0.0115189
0.0115598
0.0104659
0.0100281
0.0097647
0.00961212
0.00946932
0.00911697
0.00913545
0.00888321
0.0087449
0.00889508
0.00926736
0.00949726
0.00947391
0.00871521
0.00721991
0.00488155
0.0026786
0.000851888
0.000355048
0.000265517
0.000439057
0.00214776
0.00572617
0.00740785
1.59855e-05
0.000352892
0.0144469
0.0218046
0.027115
0.0243533
0.0215174
0.0196603
0.018396
0.0174277
0.0167414
0.0159677
0.015767
0.0159359
0.0166828
0.0177782
0.0189097
0.0195891
0.0200622
0.019768
0.0187605
0.0168254
0.0146704
0.0130652
0.0144961
0.019479
0.022163
0.0148308
0.000228384
1.45315e-05
0.000157486
0.00294111
0.00488901
0.00208138
0.000958875
0.00062195
0.000542461
0.00053521
0.000687745
0.00123434
0.00279884
0.00502372
0.0071683
0.00873555
0.00947932
0.00895628
0.00751491
0.00569956
0.00364499
0.00209654
0.00126655
0.000842632
0.000828141
0.00115699
0.00282398
0.00597593
0.00938522
0.0115976
0.0118847
0.00969252
0.000210446
0.0111998
0.0125278
0.00878209
0.00645678
0.00592382
0.00737058
0.00963336
0.0125176
0.0152559
0.0173014
0.0182553
0.0185148
0.0181746
0.0173171
0.0162798
0.0152548
0.0141862
0.0132181
0.012096
0.011397
0.0107349
0.0105421
0.0101717
0.0106552
0.0113072
0.0124479
0.0123971
0.0105884
0.00595434
0.000181123
0.0127223
0.0206512
0.0225802
0.0240006
0.0230766
0.0224547
0.0197647
0.0181671
0.0158293
0.0139144
0.0121864
0.0102165
0.00896865
0.00779128
0.00750084
0.00763819
0.00898076
0.0115935
0.0153399
0.0192762
0.0222614
0.0235556
0.0240578
0.0232979
0.0154067
0.00186242
2.84666e-05
4.83413e-06
5.13027e-06
1.33681e-06
2.48489e-06
2.83611e-06
7.17528e-06
3.2918e-05
0.00016294
0.0029161
0.011061
0.0206749
0.0286813
0.0343246
0.0361628
0.0375503
0.0374712
0.0379457
0.0382393
0.0389741
0.0391526
0.0391645
0.0378118
0.03513
0.0305823
0.026253
0.0205499
0.0162577
0.00497719
9.06784e-05
6.99522e-06
2.50411e-06
3.81478e-06
0.00857078
0.00623591
0.00442072
0.00368059
0.00395615
0.00466463
0.00536081
0.00502171
0.00399478
0.00348761
0.00469026
0.00499817
0.00155894
0.000183939
5.62366e-05
0.000187012
0.000135444
9.12533e-05
7.05146e-05
6.31463e-05
6.79138e-05
7.85784e-05
9.34159e-05
0.000123739
0.000160938
0.000203834
0.000251915
0.00032418
0.000416127
0.000501316
0.000579328
0.000588664
0.000512875
0.00043504
0.000358502
0.000321016
0.000365875
0.000459908
0.000499756
0.000361699
0.000183846
7.94688e-05
4.35632e-05
0.000151129
0.000717342
0.00279566
0.00279823
0.00304635
0.00257178
0.00163874
0.000983951
0.000657403
0.000501284
0.000452689
0.00044307
0.00045538
0.000468833
0.000539394
0.000584343
0.000672495
0.000762687
0.000845613
0.000918128
0.000906374
0.000821672
0.000549689
0.000341491
0.000263933
0.000229794
0.000355522
0.00118301
0.00341919
0.00322211
0.000381124
0.0036838
0.00676409
0.00466569
0.00300745
0.00188735
0.00124514
0.00081235
0.000720397
0.000571012
0.000592206
0.000626806
0.000781211
0.0010826
0.00156202
0.00225135
0.00288894
0.00345436
0.00390376
0.00406956
0.00386503
0.00311351
0.00191465
0.001314
0.00115329
0.000714055
0.000580168
0.000732689
0.000838256
0.000800704
0.000515747
0.000101558
0.00036927
0.000956635
0.0013382
0.00104543
0.000770843
0.000479921
0.000361598
0.000276502
0.000245236
0.000256747
0.000315472
0.000442425
0.000604679
0.000854225
0.000947667
0.000937749
0.00090353
0.000984661
0.00136762
0.00217697
0.00288849
0.00334675
0.00348402
0.00341891
0.00272423
0.00118554
0.00062938
0.00062905
0.000539921
0.000773146
0.00563534
0.0034115
0.000933132
0.000974322
0.00265533
0.00518022
0.00634685
0.00721648
0.00785766
0.00868009
0.00955878
0.0104022
0.0110575
0.0117117
0.0120138
0.0125162
0.0123897
0.012713
0.0125025
0.012274
0.0117813
0.0109757
0.00992728
0.0084758
0.00679431
0.005164
0.00399804
0.00286484
0.00120458
0.00438202
0.00140488
0.00150732
0.0054085
0.0113921
0.0132327
0.0106455
0.00599406
0.00171441
0.000349095
0.000158134
0.000146756
0.000211596
0.00037396
0.000715689
0.000997318
0.000968091
0.000809546
0.000538974
0.000421043
0.000351364
0.000272555
0.000225408
0.000154873
9.40617e-05
6.63436e-05
8.64352e-05
0.000271232
0.00216942
0.000363741
4.70668e-05
0.000113811
0.00276179
0.00961281
0.0114532
0.0106693
0.0102013
0.0103409
0.0106362
0.010929
0.0110375
0.0108043
0.0103525
0.00927031
0.0083226
0.00751724
0.00710779
0.00752414
0.00824866
0.0083842
0.00706773
0.00388384
0.000724346
0.000139556
5.36704e-05
4.16045e-05
6.71263e-05
0.000349664
0.00366311
0.0071686
6.59146e-05
0.0130847
0.0263267
0.0272752
0.0246448
0.0216218
0.0198855
0.0191094
0.0185155
0.0181082
0.0163746
0.0149298
0.0143871
0.0138392
0.0146656
0.0161455
0.0181547
0.019455
0.0204226
0.0203819
0.0186742
0.0161628
0.0130168
0.0108216
0.00983158
0.0141738
0.0215545
0.0186439
0.00259047
1.78494e-05
0.000402014
0.00373873
0.00279196
0.000969534
0.000677062
0.000590646
0.000485546
0.00039777
0.000414215
0.00082417
0.00343202
0.00804429
0.0112067
0.0120293
0.0105608
0.00663567
0.00267691
0.000447023
0.000142095
7.87939e-05
6.9998e-05
6.04717e-05
5.45428e-05
4.77262e-05
5.88648e-05
0.000219319
0.00312426
0.00894621
0.0119737
0.0106442
0.00157283
0.010744
0.00764845
0.00237435
0.00097894
0.000842052
0.00148066
0.00408313
0.00895635
0.0140805
0.0173379
0.0183768
0.0181172
0.0169484
0.0154867
0.0140766
0.0128727
0.0117521
0.0103724
0.00841122
0.00721452
0.00536996
0.0041804
0.00334344
0.00335897
0.00442606
0.00741876
0.0102285
0.0105185
0.00697468
0.00284306
0.0178203
0.0225316
0.0238828
0.023097
0.0208297
0.0190432
0.0169956
0.0148618
0.0120595
0.00972451
0.00735706
0.0058249
0.00455804
0.00364635
0.00245637
0.00166569
0.00149347
0.00249627
0.00521529
0.011088
0.0173703
0.0224263
0.0252395
0.0259679
0.0216885
0.0111672
0.000523276
1.13576e-05
3.2532e-06
1.58928e-06
2.72593e-06
4.99337e-06
3.19708e-05
0.000705452
0.00829545
0.0194071
0.0292122
0.0341991
0.0351534
0.0339741
0.0333596
0.032492
0.0323522
0.0325471
0.0332194
0.0344977
0.0364907
0.0389793
0.0410834
0.0414477
0.0373356
0.0299351
0.0217992
0.0181438
0.0173762
0.00930933
0.000116919
5.44636e-06
2.37567e-06
0.00425521
0.00199926
0.00103307
0.000827468
0.000925267
0.00126572
0.00234938
0.00337781
0.00332831
0.00256345
0.00340093
0.00508799
0.00253016
0.00024689
0.00015644
0.000149329
8.9245e-05
7.38895e-05
6.96399e-05
7.86199e-05
9.24648e-05
0.000114618
0.000157079
0.000207922
0.000263592
0.000349746
0.000476688
0.000702239
0.0010383
0.00144089
0.00178086
0.00180498
0.00148105
0.000994647
0.000584958
0.000392128
0.000335455
0.000404421
0.000508145
0.000466754
0.000277705
0.000111072
5.44185e-05
0.000116685
0.000776164
0.00238586
0.00203055
0.00293966
0.00221037
0.00109034
0.000534549
0.000300766
0.000214408
0.000193341
0.000196631
0.000212742
0.000239891
0.000274848
0.000311126
0.000338798
0.000389771
0.000438475
0.000611756
0.000696429
0.000699665
0.000553782
0.000406113
0.000295912
0.000220606
0.000212675
0.000444116
0.00197677
0.00346148
0.000571015
0.00721292
0.00551125
0.00303943
0.00179648
0.00103779
0.000716811
0.000490514
0.000413962
0.000254895
0.000298284
0.000228301
0.000292094
0.000351663
0.00053166
0.000956773
0.00171464
0.0026186
0.00343305
0.00415175
0.00428722
0.00385514
0.00259644
0.00149408
0.00132793
0.00111689
0.000898143
0.00084216
0.00095655
0.00104282
0.000699806
0.000256232
0.00333213
0.00622807
0.00672564
0.00592336
0.00433213
0.00253614
0.000955942
0.000389393
0.000236143
0.000222604
0.000325965
0.000616149
0.0011362
0.00175777
0.00206652
0.00199582
0.00162872
0.00134427
0.00135339
0.00186864
0.00265655
0.00323187
0.00362469
0.00366634
0.00330406
0.00220152
0.00100805
0.000688989
0.000577053
0.00158362
0.00487334
0.00164957
0.0011245
0.00332061
0.00593998
0.00683942
0.00682144
0.00710718
0.00777407
0.00872849
0.0097574
0.0105593
0.0112817
0.0117506
0.0119347
0.0119503
0.0119357
0.0119492
0.0120084
0.0120694
0.0120202
0.0116511
0.0111403
0.0102703
0.00881578
0.00685455
0.00511
0.00354133
0.00206053
0.0059299
0.00200252
0.00320341
0.00932516
0.0135226
0.0115235
0.00559678
0.000996638
0.000245592
0.000195694
0.000290344
0.00079094
0.00195374
0.0030765
0.00365458
0.00383424
0.00252049
0.000944031
0.000409887
0.00028508
0.000241221
0.000226099
0.000202229
0.000164619
0.000114893
7.29338e-05
6.8271e-05
0.000169153
0.0016703
0.000357577
6.97711e-05
0.00054623
0.0066465
0.0110748
0.0111571
0.0108932
0.0113512
0.0126327
0.0140789
0.0154302
0.0161227
0.0159559
0.0151043
0.0133284
0.0111714
0.00855869
0.00645662
0.00560292
0.00644273
0.00745388
0.00708848
0.00330589
0.00033539
6.57257e-05
3.44313e-05
3.24433e-05
4.09064e-05
0.00014208
0.00263545
0.00695474
0.000486568
0.0228615
0.0286241
0.0261566
0.0226883
0.020807
0.0206074
0.0206839
0.0208767
0.0196287
0.017981
0.0155179
0.0137838
0.0126994
0.0132485
0.0151824
0.0175002
0.0189279
0.0183576
0.0160599
0.0128014
0.00939511
0.00720249
0.00649826
0.00717679
0.00999055
0.0193421
0.0226366
0.00819403
2.46303e-05
0.000640898
0.0037958
0.00187003
0.00117873
0.00153263
0.00154512
0.000951655
0.000531812
0.000351845
0.000519239
0.0030224
0.00938912
0.013373
0.0135354
0.00968557
0.0041107
0.000691452
0.000167664
9.0846e-05
8.66951e-05
9.96964e-05
9.85221e-05
7.61409e-05
3.98964e-05
1.98122e-05
2.6603e-05
0.000140917
0.00464145
0.011132
0.0112397
0.0035593
0.00911804
0.00368681
0.000955492
0.000692696
0.00059238
0.000640686
0.00282572
0.00919247
0.0154581
0.0181506
0.0186399
0.0172145
0.0151245
0.012975
0.0112914
0.0103187
0.00986692
0.00928579
0.00842919
0.00698991
0.00480245
0.00218196
0.000531321
0.000226932
0.000281171
0.00163531
0.00605986
0.0090272
0.00713362
0.00693412
0.0202236
0.0232777
0.0232539
0.0214322
0.0197145
0.0185107
0.0167916
0.0147582
0.0122373
0.00948109
0.00728072
0.00590122
0.00537115
0.00399253
0.0013428
0.000331577
0.000241284
0.000329765
0.000911421
0.00460839
0.0118981
0.0192695
0.0247237
0.0272619
0.0266012
0.0213353
0.00985865
0.000107257
2.72278e-06
1.75198e-06
3.09503e-06
1.23472e-05
0.000375422
0.0103461
0.0218105
0.0313767
0.0351744
0.0340724
0.0320265
0.0299341
0.0289525
0.0284842
0.0286514
0.028904
0.0296482
0.0302329
0.0312914
0.0333459
0.0369546
0.0405526
0.0410608
0.0317711
0.0198298
0.0125891
0.0129532
0.0146509
0.00497077
1.52094e-05
1.74928e-06
0.00219889
0.000785808
0.000499791
0.000470208
0.000492876
0.000533696
0.00082705
0.00158728
0.00224676
0.00201982
0.0024332
0.0047425
0.00359238
0.000386917
0.000226024
0.000103763
8.35713e-05
8.22715e-05
9.69578e-05
0.000119415
0.000146684
0.000173735
0.00019744
0.000217584
0.000230411
0.000297552
0.000444681
0.000778579
0.00151846
0.00229224
0.00260143
0.00246465
0.00211096
0.00156092
0.000876744
0.000481679
0.000341156
0.000368083
0.000484846
0.000480902
0.000322717
0.000155136
6.0454e-05
0.000105099
0.000806927
0.00157712
0.00139244
0.00293476
0.00203637
0.000871451
0.000352701
0.000175584
0.000133402
0.000132626
0.000152296
0.000174012
0.000198929
0.000225964
0.000261076
0.000280421
0.000310413
0.00034407
0.000426355
0.000479455
0.000520668
0.0005097
0.000420941
0.000320939
0.000235248
0.000190093
0.000262112
0.00107963
0.0031662
0.000704568
0.00751479
0.00408403
0.00270337
0.001381
0.000863253
0.000678247
0.000453491
0.000299962
0.000183195
0.00019843
0.000146696
0.000203183
0.000211892
0.000341272
0.000516141
0.000965731
0.0018563
0.00297805
0.0039435
0.00450564
0.00426118
0.00308086
0.00165517
0.00135545
0.00141638
0.00132905
0.00106483
0.00113791
0.00127765
0.000880513
0.000991027
0.00590915
0.0090654
0.0092503
0.00848597
0.00657358
0.00395458
0.00135667
0.000327539
0.000182093
0.000212794
0.000504253
0.00123043
0.00231407
0.00283519
0.00293144
0.00284407
0.00251766
0.00202704
0.00168037
0.00193876
0.00253463
0.0031702
0.00366344
0.0038646
0.00358158
0.00278999
0.00142398
0.000796104
0.000577325
0.0023393
0.00384942
0.00155392
0.00289702
0.0058738
0.00649388
0.00576
0.00558057
0.00608932
0.00702543
0.0082542
0.00933624
0.00997738
0.0101569
0.0099585
0.00952807
0.00914117
0.00885387
0.00882402
0.00881796
0.00919625
0.00971611
0.0103356
0.0105608
0.0103215
0.00952773
0.00798855
0.00603734
0.00417126
0.0025872
0.00676155
0.00266988
0.00610799
0.0124003
0.0132505
0.0076275
0.00195052
0.000428287
0.000350339
0.000701023
0.00207362
0.0035979
0.00509734
0.00682992
0.00788851
0.00766429
0.0046565
0.000992672
0.000240472
0.00020123
0.00022551
0.000245508
0.000263511
0.000240599
0.000174531
9.1675e-05
8.05539e-05
0.00017638
0.00171396
0.000291853
8.59694e-05
0.00163595
0.00869872
0.0114126
0.01149
0.0120904
0.0140005
0.0164081
0.0187233
0.0199552
0.0205122
0.0203567
0.0194872
0.0182901
0.0158043
0.0121693
0.0078134
0.00484862
0.00452471
0.00661985
0.00737857
0.00329489
0.000168141
4.44122e-05
3.20027e-05
3.22951e-05
4.95195e-05
0.000216948
0.00297947
0.00702393
0.00332109
0.0260306
0.0282713
0.0245754
0.021856
0.021385
0.021512
0.0216749
0.0215265
0.0211983
0.0193966
0.0169886
0.0135496
0.0116565
0.0115786
0.0136506
0.0163832
0.0169475
0.0134685
0.00790293
0.00238944
0.000309985
0.000142498
0.000157552
0.000761081
0.0044469
0.014982
0.023691
0.0136485
5.1915e-05
0.00076944
0.0035764
0.00202222
0.00290779
0.00505
0.00508165
0.0031099
0.00094094
0.000339522
0.000309724
0.00192987
0.0099898
0.0154769
0.0154642
0.0101022
0.00376435
0.000466019
0.000157451
0.000150616
0.000257675
0.00049476
0.000643501
0.000300349
9.76976e-05
2.56304e-05
1.09446e-05
2.97598e-05
0.00121345
0.00973383
0.0115652
0.00462709
0.00753273
0.00244322
0.0013934
0.00129092
0.000878317
0.000819303
0.00380759
0.011511
0.0174494
0.0188294
0.0180751
0.014825
0.0107308
0.00720864
0.00505337
0.00442335
0.00455121
0.00554161
0.0060363
0.00595186
0.00460652
0.00217237
0.000399795
9.57337e-05
5.61733e-05
0.000145649
0.00213672
0.0068432
0.00680591
0.00968083
0.0212473
0.0230202
0.0215993
0.0195206
0.0180504
0.0170731
0.0160258
0.0147352
0.0125958
0.00992645
0.00754389
0.0067198
0.00696794
0.00523917
0.000723636
0.000113875
7.69032e-05
0.000119328
0.000278346
0.00191166
0.0081135
0.0165179
0.0232075
0.02761
0.0304221
0.0294664
0.0199286
0.00186991
2.92567e-06
1.93046e-06
3.92775e-06
4.87802e-05
0.00645942
0.020957
0.0310224
0.0350719
0.0339901
0.0310498
0.028381
0.0261799
0.025004
0.0242974
0.0246079
0.0257739
0.0274361
0.0289389
0.029878
0.0306692
0.0326541
0.0368692
0.0403657
0.0364009
0.0199371
0.00913866
0.00803774
0.0125219
0.00856833
3.50599e-05
1.78458e-06
0.00153752
0.000518656
0.000450966
0.000484654
0.000519596
0.000473054
0.00049095
0.000714455
0.00122681
0.00142804
0.00183063
0.00430671
0.0043222
0.000548341
0.000201522
0.000117667
0.000106333
0.000102943
0.000147497
0.00020958
0.000263829
0.000278301
0.000260573
0.000225082
0.000193507
0.00019467
0.000295482
0.000645822
0.00151268
0.0023104
0.00214794
0.00173119
0.00138117
0.00109708
0.000754554
0.000453992
0.000314491
0.000348754
0.000476691
0.000512489
0.0003476
0.0001772
7.08083e-05
9.47731e-05
0.000872437
0.00101613
0.00100637
0.00286705
0.00205104
0.00087082
0.000331502
0.000166634
0.000135269
0.000148991
0.000178509
0.000264077
0.00033502
0.000422072
0.00046125
0.000480488
0.000379303
0.000340538
0.000305903
0.00036964
0.000409803
0.000414409
0.000373751
0.000311107
0.00023584
0.000175911
0.000203225
0.000669533
0.00273221
0.00078285
0.0069542
0.00406223
0.00249351
0.00134963
0.0010631
0.000841895
0.000500085
0.000266507
0.000178643
0.000199057
0.000188295
0.000226446
0.000246538
0.000344302
0.000499679
0.000890694
0.00172979
0.00274605
0.00393289
0.00445955
0.00431848
0.00320942
0.0017054
0.00122246
0.00140947
0.00159367
0.00153549
0.00151127
0.00150267
0.000988682
0.00214017
0.00665706
0.00983251
0.00960841
0.00805918
0.00592003
0.00306266
0.000655678
0.000176442
0.000135902
0.000328788
0.00123606
0.00273164
0.00324695
0.00326723
0.00327715
0.00318978
0.00294629
0.00249784
0.00216113
0.00220566
0.00265181
0.00324649
0.00382725
0.00398694
0.00378066
0.00308201
0.00185125
0.000825757
0.000571732
0.00277639
0.00314316
0.00220266
0.00512782
0.00653595
0.00572385
0.00497424
0.0050945
0.00578087
0.006775
0.00825077
0.00932948
0.00969834
0.0091648
0.00839546
0.00786683
0.0076722
0.00767172
0.00775206
0.0078686
0.00801084
0.00826984
0.00857185
0.00919666
0.00957728
0.00938589
0.00839613
0.00662539
0.00464446
0.00293967
0.00733034
0.00384362
0.00907488
0.0137455
0.011468
0.00497555
0.00131057
0.000794952
0.00141041
0.00305245
0.00476977
0.00659183
0.00874315
0.0111698
0.0125563
0.0117365
0.00730663
0.00116377
0.000172843
0.000173966
0.000344841
0.000770218
0.0013125
0.00143261
0.000601219
0.000184488
0.000121745
0.000281239
0.00196188
0.000210527
0.000139496
0.00357482
0.009891
0.0117779
0.01221
0.0139082
0.017084
0.0198878
0.0216203
0.0222067
0.0224406
0.0221798
0.0214166
0.0206951
0.0189544
0.0162109
0.0109018
0.00521215
0.00277762
0.00533689
0.00766662
0.00305576
0.000197353
7.07285e-05
0.000126303
0.000148372
0.000232962
0.000794008
0.0043716
0.00710375
0.00678777
0.0272672
0.0273258
0.0236697
0.0220668
0.0217057
0.0217246
0.021541
0.0212515
0.0211366
0.0209871
0.0184551
0.0144355
0.0107722
0.00991713
0.0119562
0.0149045
0.0146123
0.00831889
0.000811672
7.07071e-05
2.73171e-05
1.78917e-05
1.59002e-05
2.39919e-05
0.000108422
0.00660428
0.0217456
0.0183255
0.000158255
0.000893079
0.0035645
0.00290292
0.00548631
0.00791034
0.00814131
0.0062471
0.00228074
0.000392494
0.000237519
0.000948512
0.0105934
0.0174098
0.017331
0.00994511
0.00249763
0.000238457
0.000143259
0.000248786
0.00112179
0.00280976
0.00264713
0.000882085
8.29069e-05
1.65258e-05
7.2477e-06
1.34026e-05
0.00035169
0.00878912
0.0116365
0.00507266
0.00645654
0.00272695
0.00300213
0.00294396
0.00158493
0.00119788
0.00532494
0.0140671
0.018777
0.0192398
0.0160041
0.00986922
0.00382351
0.000731261
0.00027494
0.000212072
0.000320481
0.000704864
0.0019626
0.0029529
0.00310079
0.00178195
0.000339818
7.0668e-05
2.94388e-05
4.74046e-05
0.000385645
0.00478056
0.00620936
0.0113777
0.0215687
0.0219136
0.0192631
0.0166194
0.0149166
0.0140581
0.0141039
0.014052
0.013479
0.0107019
0.00795274
0.00705593
0.00823245
0.00729317
0.00109347
8.12874e-05
5.86445e-05
9.96892e-05
0.000246634
0.00110096
0.00704197
0.0147615
0.0223492
0.0275978
0.0326066
0.0352275
0.0284578
0.00744568
3.99286e-06
2.07536e-06
6.31748e-06
0.000303148
0.0145001
0.028669
0.0348151
0.0346237
0.0313029
0.0273824
0.0239052
0.0201598
0.0178186
0.0165233
0.017277
0.019317
0.0226668
0.0261816
0.0289268
0.030185
0.0310342
0.033614
0.038151
0.0383842
0.0215317
0.00677138
0.00441879
0.0100396
0.00906413
8.03189e-05
1.90988e-06
0.0012451
0.000438271
0.000489407
0.000679513
0.000764047
0.000641476
0.000472817
0.00048784
0.000638991
0.000901286
0.00126807
0.00344592
0.00505092
0.00096782
0.000166767
0.000243067
0.000180194
0.000157864
0.000217851
0.000365317
0.000498405
0.000530985
0.000425544
0.000283824
0.000191975
0.000155642
0.000193997
0.000465031
0.00131938
0.00202042
0.00158278
0.000870078
0.000556362
0.000500416
0.000435755
0.000334318
0.000307582
0.000365766
0.000507476
0.000506532
0.000345021
0.000183282
8.26065e-05
9.57397e-05
0.00106144
0.000742702
0.00080433
0.00267857
0.00214476
0.0010761
0.000503199
0.000281654
0.000268881
0.00037023
0.0006667
0.00119758
0.00187008
0.00210513
0.00214991
0.00208498
0.00169282
0.00117091
0.000404616
0.000269811
0.00025262
0.00028621
0.000294049
0.000270709
0.000212128
0.000161683
0.000173117
0.000482534
0.00237512
0.000830496
0.00675962
0.00415602
0.00248251
0.0016093
0.00140101
0.0011038
0.000544052
0.000254765
0.000175571
0.000237359
0.000299841
0.000378615
0.000439029
0.000529951
0.000753477
0.00121655
0.00202886
0.0030359
0.00394046
0.0042864
0.00392403
0.00281914
0.0013728
0.00101157
0.00121197
0.00164757
0.00184252
0.00182498
0.00165179
0.00103201
0.00246547
0.00734155
0.00960867
0.00816161
0.00575779
0.00331191
0.000870353
0.000198996
0.000102008
0.00017669
0.000838495
0.00271289
0.00341984
0.00340433
0.00324637
0.00324344
0.00322407
0.00303438
0.00273118
0.00243369
0.00253255
0.002914
0.00350352
0.00404255
0.00418412
0.00382026
0.00322859
0.00202067
0.000815153
0.000561998
0.0029955
0.00298294
0.00370091
0.00647486
0.006447
0.00537315
0.00525901
0.00558192
0.00606533
0.00686822
0.00827903
0.00935911
0.00924255
0.00823595
0.00741938
0.00736332
0.00749681
0.00787511
0.00812894
0.0083335
0.00828591
0.00831537
0.00837683
0.00848984
0.00881087
0.00893574
0.00833745
0.0068771
0.00492906
0.00317517
0.00772336
0.00530203
0.0112757
0.0139595
0.00962222
0.00435492
0.00247704
0.00285132
0.00426719
0.00594382
0.00756857
0.00974689
0.0119652
0.0136818
0.0148352
0.0142751
0.00971076
0.00148748
0.000132309
0.000144873
0.000594025
0.00258838
0.00417064
0.00410897
0.00204816
0.000401524
0.000247722
0.000758209
0.00210103
0.000122072
0.000199817
0.00445213
0.0104598
0.0121783
0.0131438
0.0158294
0.0195845
0.0218316
0.0229851
0.0232667
0.023403
0.0233313
0.0222854
0.0214574
0.0200822
0.0183127
0.0138594
0.00661053
0.00203014
0.00397658
0.00774742
0.0026385
0.000170861
0.000217541
0.00107983
0.00252846
0.00283932
0.00424694
0.00624779
0.00712709
0.00962178
0.0274962
0.0269335
0.0236052
0.0221421
0.0217935
0.0215045
0.0210481
0.0208075
0.0210606
0.0212641
0.0204332
0.0152971
0.0104586
0.0083367
0.0105156
0.0137732
0.013026
0.00437346
0.000118641
2.71896e-05
1.79137e-05
1.69169e-05
1.35708e-05
1.10418e-05
1.37627e-05
0.000226967
0.0154562
0.0206657
0.000992081
0.000714819
0.00394125
0.00405397
0.00759805
0.0095576
0.00951297
0.00835248
0.00435959
0.000494221
0.000153656
0.000558193
0.0115136
0.0192562
0.0181716
0.00823333
0.000657913
0.000106802
0.000109066
0.000453084
0.00277529
0.00428998
0.00385439
0.000887523
5.23876e-05
6.34816e-06
3.01621e-06
8.3397e-06
0.00022906
0.00850953
0.0118265
0.00529466
0.00600584
0.00374972
0.00496903
0.00465585
0.00240125
0.00185165
0.00698161
0.0161719
0.0195826
0.019208
0.0122157
0.00375022
0.000304227
0.000100503
7.46551e-05
5.14119e-05
6.34827e-05
0.000103051
0.000217172
0.000474863
0.000789129
0.00059018
0.000208897
6.17581e-05
2.17157e-05
3.02413e-05
0.000138009
0.00320948
0.00567687
0.0120243
0.0216652
0.0203669
0.0164256
0.0129865
0.0109719
0.0105328
0.0111305
0.0125926
0.0132127
0.0119014
0.00852093
0.00667486
0.00872375
0.0102406
0.00447827
0.00020208
7.41969e-05
0.000148501
0.000356147
0.00199298
0.00739408
0.0151653
0.0222324
0.0284469
0.0338738
0.0378929
0.0338307
0.0135072
6.86904e-06
2.20876e-06
1.39953e-05
0.00333328
0.0212189
0.032531
0.0353584
0.0328687
0.0282979
0.0233871
0.0184585
0.0132492
0.010136
0.0090242
0.00996663
0.0127316
0.0165515
0.0216877
0.0265452
0.0295789
0.0306388
0.0322357
0.0364603
0.03764
0.0196284
0.00478582
0.00358911
0.0070512
0.00505684
5.03442e-05
2.35329e-06
0.00106695
0.000385859
0.000538949
0.000910215
0.0013445
0.00124718
0.000859564
0.000720152
0.000800958
0.0009889
0.0012958
0.00304036
0.00570332
0.0013338
0.000298909
0.000757091
0.000425478
0.000243794
0.000320723
0.000555305
0.000739282
0.000795527
0.000632915
0.000368935
0.000198058
0.000127545
0.000128636
0.000311992
0.0010175
0.00177296
0.00138466
0.000663008
0.000378891
0.000311169