/*--------------------------------*- C++ -*----------------------------------*\
| =========                 |                                                 |
| \\      /  F ield         | OpenFOAM: The Open Source CFD Toolbox           |
|  \\    /   O peration     | Version:  2.1.1                                 |
|   \\  /    A nd           | Web:      www.OpenFOAM.org                      |
|    \\/     M anipulation  |                                                 |
\*---------------------------------------------------------------------------*/
FoamFile
{
    version     2.0;
    format      ascii;
    class       volScalarField;
    location    "0.004250000";
    object      H2O;
}
// * * * * * * * * * * * * * * * * * * * * * * * * * * * * * * * * * * * * * //

dimensions      [0 0 0 0 0 0 0];

internalField   nonuniform List<scalar> 
12384
(
0.238725
0.240208
0.240637
0.241425
0.241149
0.241066
0.240336
0.24026
0.239223
0.239183
0.235881
0.220501
0.197255
0.221651
0.184379
0.195305
0.200298
0.202582
0.2038
0.204522
0.204751
0.204795
0.204725
0.204706
0.204723
0.204796
0.204728
0.205192
0.20527
0.205734
0.206068
0.206449
0.206917
0.207239
0.207969
0.208942
0.212712
0.213837
0.202043
0.18509
0.172971
0.168719
0.188213
0.226118
0.230449
0.241772
0.246877
0.248386
0.248484
0.248149
0.247652
0.246994
0.246177
0.245335
0.24428
0.243261
0.241165
0.24082
0.23888
0.238824
0.236492
0.236636
0.23309
0.231775
0.223942
0.214282
0.214562
0.229938
0.238481
0.240724
0.241823
0.240702
0.230637
0.207966
0.247717
0.247695
0.24968
0.251026
0.250894
0.250872
0.251391
0.251089
0.251978
0.251582
0.25206
0.252093
0.252023
0.25206
0.252143
0.251997
0.251872
0.251509
0.250918
0.250035
0.248877
0.247499
0.248812
0.242921
0.235693
0.237411
0.238573
0.239301
0.238741
0.238535
0.245273
0.238868
0.235346
0.234364
0.234402
0.234925
0.235829
0.237076
0.23837
0.239708
0.241033
0.241958
0.243229
0.244163
0.244416
0.245086
0.247542
0.248283
0.248838
0.249897
0.250695
0.251167
0.251296
0.25083
0.248394
0.23731
0.226599
0.224033
0.224996
0.226165
0.227362
0.252245
0.252074
0.252213
0.25174
0.250591
0.248723
0.248259
0.24814
0.248872
0.248985
0.250074
0.249895
0.250985
0.250146
0.251464
0.250119
0.251353
0.250111
0.25084
0.250469
0.25061
0.250574
0.250805
0.250756
0.25069
0.250738
0.250935
0.248378
0.222792
0.248637
0.247571
0.244605
0.24329
0.250392
0.252177
0.251808
0.251595
0.25159
0.25171
0.251885
0.252043
0.252172
0.252082
0.251289
0.25019
0.249073
0.247103
0.244639
0.242835
0.240571
0.24019
0.239256
0.239657
0.241625
0.244635
0.247861
0.250959
0.251912
0.212115
0.193421
0.197727
0.205958
0.242367
0.25165
0.251203
0.251424
0.251505
0.251541
0.25156
0.251574
0.251569
0.251609
0.251616
0.251621
0.251565
0.251483
0.251452
0.251494
0.251638
0.251753
0.251954
0.252098
0.252092
0.252043
0.25188
0.251859
0.251927
0.251744
0.251773
0.161256
0.164762
0.171076
0.25138
0.247414
0.247618
0.248235
0.248451
0.248636
0.248763
0.249019
0.248876
0.249417
0.249048
0.249351
0.249076
0.249237
0.249098
0.249234
0.249244
0.249401
0.249498
0.24956
0.249521
0.249166
0.248818
0.249086
0.251576
0.200011
0.183426
0.181898
0.239327
0.249074
0.24819
0.247714
0.245782
0.244702
0.244665
0.245054
0.246562
0.247903
0.24872
0.249683
0.25059
0.250286
0.250601
0.250735
0.250896
0.250982
0.251089
0.250998
0.250781
0.250564
0.250542
0.250459
0.25028
0.25004
0.249939
0.250003
0.249737
0.175821
0.250784
0.250172
0.25035
0.250488
0.250537
0.250478
0.250406
0.250318
0.250137
0.250046
0.249996
0.24996
0.249976
0.250029
0.250123
0.250216
0.250286
0.250442
0.250492
0.250559
0.25076
0.250543
0.250649
0.25051
0.250546
0.250568
0.250758
0.251236
0.250669
0.166154
0.250887
0.24935
0.24908
0.248843
0.248633
0.248653
0.248823
0.248809
0.249064
0.249125
0.249323
0.24944
0.249553
0.249622
0.249636
0.249525
0.249349
0.249117
0.248954
0.248811
0.24881
0.248855
0.248813
0.2493
0.251489
0.189057
0.150132
0.150886
0.163036
0.153626
0.151359
0.143079
0.146016
0.162675
0.18173
0.19873
0.21725
0.23521
0.252289
0.252458
0.251408
0.251276
0.250653
0.250494
0.250543
0.250738
0.251182
0.251588
0.251986
0.252441
0.252207
0.251233
0.241208
0.217016
0.181806
0.156663
0.150079
0.15351
0.16531
0.244889
0.244569
0.244199
0.244107
0.243706
0.243405
0.241976
0.240713
0.238219
0.238256
0.236899
0.228207
0.20545
0.215572
0.184433
0.199058
0.204215
0.206239
0.206438
0.205429
0.204606
0.204142
0.203902
0.203927
0.204223
0.204667
0.205198
0.205767
0.206221
0.20707
0.207534
0.207585
0.207493
0.207419
0.207412
0.207867
0.210386
0.213642
0.212386
0.202336
0.186541
0.174266
0.180051
0.215876
0.234074
0.248632
0.25152
0.251837
0.251438
0.25009
0.248272
0.246478
0.245049
0.242964
0.241429
0.240417
0.239393
0.239017
0.238186
0.237862
0.237498
0.236626
0.236184
0.234053
0.229341
0.220367
0.213562
0.214029
0.219083
0.230351
0.239025
0.241937
0.239509
0.213551
0.246464
0.250764
0.250853
0.250409
0.250257
0.250166
0.249529
0.248885
0.249617
0.249644
0.250825
0.251291
0.2518
0.252056
0.252052
0.252063
0.252058
0.252056
0.25204
0.251444
0.250144
0.248751
0.248744
0.246484
0.238571
0.240516
0.243361
0.24408
0.242953
0.241504
0.220229
0.220054
0.222966
0.224532
0.224972
0.224904
0.225013
0.225635
0.226801
0.228381
0.230278
0.23236
0.234125
0.236488
0.238421
0.240099
0.24166
0.244315
0.247688
0.248775
0.249894
0.25094
0.251275
0.25127
0.250431
0.247558
0.237351
0.234251
0.236974
0.235985
0.236464
0.252309
0.252255
0.251111
0.245209
0.24297
0.246161
0.249866
0.251409
0.251752
0.25203
0.251956
0.252083
0.251968
0.251979
0.25192
0.251888
0.251902
0.25188
0.251947
0.251975
0.252063
0.252156
0.252105
0.252053
0.252005
0.251874
0.251547
0.249784
0.240187
0.251104
0.248549
0.245374
0.249361
0.252188
0.2515
0.251247
0.251464
0.251894
0.252116
0.25015
0.242862
0.233102
0.227322
0.2265
0.227185
0.229035
0.230838
0.230044
0.228591
0.225506
0.221374
0.216298
0.212108
0.20871
0.212697
0.225879
0.245066
0.251702
0.231875
0.194941
0.204772
0.232598
0.252172
0.251406
0.251394
0.251599
0.25168
0.251728
0.251758
0.251777
0.251818
0.251827
0.251861
0.25189
0.251883
0.251847
0.251746
0.251724
0.251766
0.251952
0.252095
0.250858
0.245717
0.235487
0.23041
0.237395
0.249392
0.251741
0.251645
0.162823
0.229399
0.25063
0.248969
0.247689
0.24834
0.248961
0.249348
0.249553
0.249731
0.249863
0.250054
0.250169
0.25029
0.25013
0.249914
0.249728
0.249593
0.249523
0.24961
0.249857
0.250307
0.25078
0.25113
0.250815
0.249682
0.249039
0.250738
0.230404
0.18395
0.203078
0.246425
0.24849
0.243025
0.233969
0.227873
0.223958
0.224925
0.229657
0.239177
0.246476
0.2503
0.250962
0.251221
0.251445
0.251653
0.251859
0.252258
0.252053
0.250386
0.248666
0.244773
0.244086
0.247675
0.250844
0.251705
0.251115
0.250323
0.250075
0.250021
0.221426
0.250589
0.250473
0.250936
0.251149
0.251665
0.25143
0.251307
0.250998
0.250448
0.25001
0.24982
0.249799
0.2499
0.250115
0.250419
0.250662
0.250902
0.251114
0.251346
0.251491
0.251611
0.251618
0.251659
0.251424
0.25125
0.250919
0.250846
0.25108
0.251201
0.222575
0.250502
0.248937
0.248548
0.248282
0.248522
0.248679
0.249368
0.249709
0.250269
0.250661
0.250998
0.25135
0.251527
0.251658
0.251706
0.25177
0.251726
0.251227
0.250403
0.249544
0.248841
0.248519
0.248383
0.248544
0.250294
0.248547
0.183594
0.151167
0.153241
0.15364
0.147785
0.145005
0.16019
0.189813
0.222422
0.250905
0.25133
0.249274
0.247351
0.245957
0.245488
0.245154
0.245167
0.245046
0.244971
0.244796
0.244753
0.244751
0.245082
0.245753
0.246873
0.247942
0.249293
0.250313
0.25226
0.214013
0.167852
0.153494
0.159154
0.243491
0.242394
0.240395
0.239017
0.239567
0.240456
0.240392
0.239727
0.236651
0.234932
0.236447
0.23346
0.217159
0.211662
0.18875
0.202819
0.205675
0.20562
0.204098
0.202399
0.201186
0.200945
0.201992
0.20381
0.206004
0.208329
0.210809
0.213461
0.21595
0.218299
0.219609
0.219422
0.217456
0.213914
0.210543
0.208146
0.208658
0.212147
0.215132
0.212156
0.200148
0.182591
0.17663
0.208244
0.23778
0.250733
0.251529
0.251959
0.2503
0.246866
0.240977
0.234686
0.230424
0.228451
0.227876
0.229167
0.229432
0.231426
0.231486
0.23329
0.234126
0.234895
0.234368
0.233527
0.232068
0.225825
0.217794
0.213308
0.211314
0.215776
0.230016
0.239148
0.24056
0.220385
0.250451
0.250886
0.250076
0.248432
0.245455
0.242646
0.23971
0.238014
0.237655
0.237902
0.242018
0.243249
0.248424
0.249018
0.250224
0.251231
0.252095
0.252058
0.252069
0.25206
0.251576
0.249756
0.248835
0.248593
0.244282
0.242708
0.244515
0.245784
0.245365
0.242002
0.21711
0.237517
0.247611
0.249135
0.248589
0.245284
0.241474
0.236869
0.233521
0.231856
0.232078
0.234162
0.237607
0.241074
0.243445
0.244043
0.244178
0.244214
0.245498
0.247791
0.249068
0.25035
0.251045
0.251373
0.25112
0.24993
0.246898
0.239847
0.239507
0.238701
0.245643
0.252307
0.252097
0.244961
0.245039
0.250096
0.251603
0.251998
0.251764
0.251814
0.251831
0.251661
0.251616
0.251476
0.251385
0.251348
0.25122
0.25125
0.251174
0.251219
0.251256
0.251353
0.251504
0.251702
0.251907
0.25212
0.252067
0.251995
0.250977
0.248437
0.252095
0.248933
0.249068
0.252135
0.251439
0.251082
0.251577
0.252149
0.249321
0.23595
0.22396
0.223086
0.228981
0.237065
0.24461
0.247894
0.247719
0.245846
0.242624
0.239571
0.236232
0.232433
0.227121
0.219726
0.20991
0.204135
0.208857
0.229507
0.249866
0.23822
0.200377
0.218885
0.251209
0.251726
0.251367
0.251565
0.251649
0.251623
0.251566
0.251509
0.251491
0.251533
0.251625
0.251814
0.251946
0.25206
0.252122
0.252078
0.251986
0.251899
0.25205
0.252046
0.244264
0.221756
0.204081
0.197761
0.203093
0.230259
0.251122
0.251747
0.192983
0.250889
0.247942
0.247674
0.248305
0.248982
0.249363
0.249489
0.24961
0.249672
0.250053
0.250339
0.250567
0.250642
0.250578
0.250301
0.249875
0.249603
0.249416
0.249437
0.249877
0.250458
0.251142
0.25157
0.251748
0.250886
0.249186
0.249877
0.250821
0.187067
0.221696
0.247813
0.245492
0.234361
0.229038
0.22627
0.222812
0.220381
0.222395
0.236575
0.250509
0.251354
0.251167
0.251236
0.251604
0.25231
0.251753
0.241486
0.223867
0.212043
0.205077
0.200077
0.197348
0.195838
0.203111
0.227428
0.251522
0.251348
0.250351
0.250154
0.246476
0.250598
0.250655
0.246917
0.24138
0.241247
0.246866
0.25134
0.251611
0.250678
0.250023
0.249828
0.249902
0.250174
0.250557
0.250892
0.251217
0.251417
0.251673
0.251998
0.252187
0.252279
0.252321
0.252584
0.252822
0.252071
0.251823
0.251335
0.251173
0.251392
0.24973
0.249538
0.248546
0.248278
0.248461
0.249006
0.249425
0.249962
0.250395
0.25102
0.251428
0.251747
0.25176
0.251644
0.251546
0.250364
0.248519
0.24803
0.2502
0.251798
0.251186
0.249956
0.248784
0.248115
0.247926
0.248922
0.251096
0.238486
0.164897
0.145149
0.151934
0.146337
0.154368
0.189473
0.243491
0.251735
0.249534
0.247198
0.24597
0.245727
0.24603
0.246179
0.246407
0.246442
0.246384
0.246214
0.245898
0.245408
0.244785
0.244266
0.244179
0.245212
0.247026
0.248962
0.249785
0.250009
0.251823
0.220678
0.162328
0.151216
0.239631
0.233253
0.225488
0.223258
0.225131
0.229703
0.235249
0.237503
0.234921
0.231903
0.233679
0.235427
0.225421
0.210557
0.197477
0.204854
0.20529
0.204104
0.202344
0.200909
0.20023
0.201263
0.203225
0.205715
0.208598
0.212287
0.21676
0.221831
0.227107
0.230869
0.232347
0.232458
0.230631
0.225839
0.218544
0.211536
0.208495
0.210345
0.215061
0.215956
0.207392
0.189699
0.178894
0.203325
0.239856
0.250223
0.250276
0.251816
0.249304
0.242344
0.232558
0.223831
0.219144
0.218149
0.218773
0.220523
0.222537
0.224333
0.225637
0.226641
0.227896
0.230208
0.232263
0.232434
0.231655
0.228113
0.222208
0.216158
0.211863
0.210819
0.219015
0.235092
0.240137
0.224882
0.251127
0.2506
0.248387
0.244767
0.239991
0.235865
0.231905
0.229925
0.225733
0.226689
0.226921
0.229533
0.235159
0.241007
0.246838
0.249457
0.250795
0.252044
0.252075
0.252082
0.252064
0.250793
0.249123
0.248858
0.248544
0.246475
0.24581
0.247191
0.248232
0.244105
0.233002
0.252139
0.252273
0.2522
0.252244
0.252142
0.250818
0.247277
0.237773
0.231019
0.229723
0.234138
0.240941
0.245685
0.246963
0.247424
0.247271
0.246912
0.247041
0.247145
0.248366
0.249438
0.250698
0.250805
0.250894
0.251026
0.24873
0.243891
0.24003
0.23868
0.249652
0.252162
0.24871
0.247193
0.251653
0.251862
0.251743
0.251793
0.251856
0.251806
0.251818
0.251608
0.251549
0.251374
0.25137
0.251308
0.251325
0.251335
0.251316
0.251307
0.251296
0.251305
0.251375
0.251472
0.251637
0.251865
0.252115
0.252072
0.251984
0.249786
0.252181
0.24987
0.251696
0.251826
0.25102
0.251414
0.252138
0.24748
0.231628
0.227281
0.233694
0.245249
0.249792
0.251631
0.252093
0.252127
0.25087
0.247398
0.238914
0.2344
0.232195
0.231032
0.228808
0.224491
0.216782
0.207994
0.206077
0.22162
0.248928
0.23804
0.204784
0.242616
0.252117
0.25138
0.251468
0.251541
0.251437
0.251192
0.250888
0.250589
0.250438
0.250472
0.250666
0.251055
0.251481
0.251928
0.252205
0.252186
0.252221
0.252086
0.252049
0.251712
0.233565
0.204311
0.190063
0.186525
0.190992
0.215378
0.249592
0.251486
0.234337
0.248788
0.247365
0.247963
0.248764
0.249201
0.249218
0.249204
0.249133
0.249432
0.249783
0.250405
0.250737
0.251013
0.25082
0.250495
0.249995
0.249714
0.249876
0.250444
0.251218
0.25189
0.252137
0.25222
0.252132
0.25172
0.249713
0.248925
0.251987
0.192755
0.230454
0.247827
0.242499
0.237581
0.241297
0.241382
0.235771
0.225074
0.220014
0.230233
0.249957
0.251531
0.250958
0.251012
0.251844
0.25235
0.245215
0.225288
0.211622
0.206775
0.206932
0.204898
0.200589
0.191841
0.181531
0.188403
0.223037
0.251835
0.250892
0.250432
0.250266
0.250679
0.249408
0.239814
0.236261
0.235872
0.238701
0.25065
0.251594
0.250467
0.249875
0.249791
0.250102
0.250587
0.251064
0.251459
0.251688
0.251773
0.251885
0.252002
0.252194
0.252262
0.250764
0.243162
0.233112
0.235222
0.24964
0.252266
0.251608
0.251484
0.251293
0.249062
0.248408
0.248416
0.248829
0.249233
0.249556
0.249996
0.250461
0.250997
0.25157
0.251809
0.25214
0.251803
0.251712
0.247837
0.231949
0.224815
0.229869
0.244114
0.251458
0.251023
0.249525
0.248245
0.247619
0.247779
0.249018
0.251315
0.20849
0.141191
0.150825
0.147621
0.170686
0.236497
0.251442
0.248994
0.246656
0.245719
0.245983
0.246509
0.247014
0.247252
0.247375
0.247339
0.247278
0.247082
0.246943
0.246682
0.246174
0.245283
0.244395
0.244275
0.246585
0.249453
0.251016
0.250868
0.250609
0.252353
0.179436
0.145025
0.233809
0.221197
0.215738
0.215997
0.217372
0.219082
0.224835
0.232083
0.232856
0.229035
0.230925
0.236134
0.230085
0.212909
0.202849
0.205823
0.206446
0.205779
0.205685
0.206117
0.206954
0.207597
0.20818
0.208763
0.209759
0.212102
0.217144
0.225013
0.231824
0.235222
0.23533
0.23467
0.233562
0.230599
0.224094
0.214926
0.209261
0.209626
0.21425
0.217098
0.211254
0.194942
0.180881
0.201052
0.240453
0.248472
0.249093
0.251548
0.248663
0.23994
0.228654
0.218389
0.214712
0.214864
0.21672
0.218874
0.221396
0.222761
0.223992
0.22484
0.225209
0.226457
0.228728
0.229899
0.229755
0.227522
0.223469
0.218426
0.213347
0.2095
0.212619
0.228829
0.239053
0.227628
0.251021
0.249595
0.247452
0.242923
0.238376
0.235343
0.231114
0.226344
0.220416
0.221667
0.21896
0.223136
0.226386
0.23314
0.240969
0.246515
0.249666
0.251363
0.25206
0.2521
0.252083
0.251537
0.249355
0.248911
0.248993
0.248877
0.248468
0.24858
0.248815
0.24626
0.247725
0.252225
0.251889
0.251864
0.251959
0.252198
0.252089
0.248937
0.235348
0.226251
0.228066
0.237575
0.246067
0.247656
0.248197
0.248369
0.248454
0.247767
0.247485
0.247313
0.247823
0.249156
0.250261
0.250648
0.250691
0.250898
0.249842
0.246975
0.240936
0.238265
0.250806
0.252003
0.248542
0.250907
0.251915
0.251751
0.251874
0.251786
0.252038
0.25183
0.251794
0.251662
0.251605
0.251484
0.251634
0.251697
0.251827
0.251851
0.251846
0.251862
0.2518
0.251736
0.251621
0.251581
0.251627
0.251774
0.251973
0.25213
0.252022
0.250607
0.252162
0.250887
0.252184
0.251252
0.251079
0.25204
0.249728
0.239006
0.236023
0.244014
0.24996
0.252054
0.252151
0.252164
0.252041
0.252069
0.252173
0.24785
0.231871
0.228441
0.230741
0.232764
0.233684
0.233099
0.22695
0.216016
0.210319
0.223574
0.249264
0.235572
0.212079
0.249617
0.251791
0.251248
0.251371
0.251315
0.250918
0.250378
0.249848
0.249559
0.249432
0.249468
0.249672
0.24995
0.250518
0.251297
0.25203
0.252156
0.252147
0.252193
0.25197
0.251869
0.224551
0.196452
0.189949
0.189958
0.195177
0.21885
0.249255
0.251319
0.251847
0.247993
0.247477
0.248354
0.249004
0.249065
0.249037
0.24897
0.249034
0.249101
0.249566
0.250095
0.250866
0.251228
0.251198
0.250769
0.250252
0.250143
0.250928
0.251898
0.250741
0.234946
0.223369
0.224687
0.245026
0.252135
0.250707
0.248669
0.250999
0.205042
0.233449
0.248259
0.243202
0.245997
0.248494
0.248808
0.246862
0.23656
0.220702
0.221417
0.247384
0.251508
0.250561
0.250628
0.251763
0.252308
0.242356
0.222638
0.216363
0.223461
0.23227
0.236622
0.225976
0.20854
0.186024
0.174971
0.194435
0.249156
0.251325
0.250608
0.25065
0.250578
0.246107
0.243814
0.244313
0.241598
0.242228
0.251453
0.25121
0.250016
0.249732
0.249893
0.250579
0.251415
0.252023
0.252332
0.252205
0.252214
0.252243
0.252273
0.252294
0.252225
0.250699
0.239306
0.217234
0.208015
0.224113
0.250425
0.251805
0.25165
0.251144
0.248881
0.248483
0.248782
0.249246
0.249585
0.249847
0.250127
0.250456
0.251065
0.251496
0.251913
0.251964
0.251889
0.251927
0.242456
0.208955
0.200868
0.209307
0.226288
0.248702
0.251567
0.250135
0.248614
0.24753
0.246856
0.247099
0.249341
0.248269
0.142033
0.150304
0.151342
0.197539
0.251985
0.249199
0.246754
0.245743
0.245999
0.246735
0.247396
0.247905
0.248205
0.248368
0.248294
0.248023
0.247639
0.247248
0.247027
0.246827
0.246345
0.245296
0.24444
0.245428
0.249438
0.251645
0.251577
0.251043
0.25186
0.195548
0.14491
0.229901
0.215623
0.214718
0.217258
0.217895
0.217688
0.217493
0.221923
0.225767
0.224441
0.226573
0.236432
0.233707
0.217101
0.203514
0.209202
0.211422
0.21176
0.214104
0.217187
0.219942
0.219852
0.217871
0.214668
0.211372
0.210059
0.213515
0.222733
0.232298
0.235098
0.234203
0.230551
0.227362
0.225364
0.221201
0.213941
0.208671
0.209362
0.214664
0.218262
0.212811
0.198723
0.182699
0.198493
0.240881
0.244776
0.247701
0.251562
0.248642
0.240504
0.230591
0.220001
0.216534
0.217768
0.221832
0.226649
0.230812
0.233413
0.233998
0.234061
0.230837
0.226789
0.224336
0.225687
0.226213
0.225022
0.222915
0.219
0.214302
0.209205
0.209566
0.223431
0.237727
0.228511
0.250848
0.249562
0.246718
0.242519
0.240438
0.238947
0.233314
0.225855
0.220257
0.220915
0.222976
0.223977
0.227366
0.232656
0.239174
0.245116
0.249107
0.251192
0.25207
0.252095
0.252099
0.251757
0.249476
0.248727
0.249021
0.249279
0.249203
0.249164
0.24915
0.247603
0.250095
0.252179
0.251743
0.251785
0.251999
0.25219
0.251525
0.243601
0.225763
0.222039
0.232163
0.245786
0.248315
0.248853
0.248814
0.248744
0.248912
0.248443
0.248056
0.247504
0.248103
0.248866
0.250074
0.250457
0.250539
0.250711
0.250491
0.247809
0.241347
0.238124
0.25141
0.251875
0.249885
0.251797
0.251757
0.251806
0.251657
0.251734
0.251925
0.25185
0.251795
0.251627
0.251586
0.251592
0.251799
0.25174
0.25201
0.251953
0.251985
0.251969
0.251952
0.251921
0.251882
0.251812
0.251766
0.251793
0.251935
0.252154
0.252052
0.251153
0.252086
0.252051
0.251859
0.25097
0.251426
0.2521
0.248742
0.24512
0.248887
0.251482
0.252101
0.25219
0.251915
0.251497
0.251235
0.251394
0.25211
0.248767
0.225832
0.226085
0.236534
0.245306
0.249205
0.249484
0.243742
0.227876
0.218951
0.232862
0.249997
0.230558
0.218312
0.252104
0.251533
0.25122
0.251202
0.250911
0.250237
0.249554
0.24916
0.249021
0.248961
0.249027
0.249211
0.249383
0.249775
0.250428
0.251547
0.252183
0.251186
0.252236
0.251903
0.250832
0.21926
0.201508
0.210816
0.213368
0.220621
0.239274
0.250386
0.251162
0.251742
0.247721
0.247685
0.248617
0.248955
0.249032
0.248975
0.249017
0.249066
0.249149
0.249205
0.249841
0.250708
0.251447
0.251481
0.251154
0.250549
0.25064
0.251797
0.244421
0.203256
0.184585
0.178843
0.177571
0.185995
0.217776
0.252202
0.249141
0.249952
0.224392
0.235749
0.248767
0.246491
0.248851
0.249224
0.249292
0.249645
0.245398
0.223899
0.215555
0.243453
0.251444
0.250137
0.250209
0.251784
0.251329
0.229856
0.216031
0.223647
0.242436
0.248251
0.248481
0.24419
0.213178
0.184427
0.169395
0.181391
0.237367
0.25176
0.250846
0.250948
0.250636
0.247378
0.248185
0.248853
0.24682
0.246645
0.251853
0.25074
0.249741
0.249645
0.250365
0.251478
0.251707
0.244483
0.234096
0.229393
0.235542
0.244412
0.250066
0.251539
0.251918
0.25
0.236963
0.212812
0.196812
0.204356
0.237924
0.252014
0.25212
0.250945
0.248843
0.248751
0.249282
0.249843
0.250156
0.250366
0.25044
0.25059
0.250758
0.251404
0.251929
0.25199
0.25186
0.251835
0.246817
0.203682
0.195272
0.205821
0.224054
0.245949
0.251689
0.2505
0.248818
0.247562
0.246331
0.245696
0.247352
0.251449
0.146982
0.149774
0.158236
0.233443
0.250647
0.247346
0.245819
0.245844
0.246666
0.24762
0.248424
0.249318
0.249752
0.249985
0.249844
0.249458
0.248718
0.247904
0.24725
0.246944
0.246729
0.246093
0.244983
0.24494
0.249041
0.251765
0.251399
0.251377
0.251743
0.212452
0.144222
0.226945
0.213102
0.215894
0.220167
0.222011
0.21987
0.215698
0.214821
0.216556
0.217172
0.220998
0.233564
0.235597
0.22321
0.206155
0.216527
0.218692
0.21869
0.222762
0.22833
0.232245
0.232486
0.228657
0.221844
0.213976
0.208513
0.209131
0.219544
0.23108
0.234139
0.230782
0.222388
0.215967
0.214141
0.212722
0.2096
0.208346
0.210371
0.216151
0.218735
0.213719
0.200649
0.185595
0.197221
0.242001
0.240382
0.24507
0.251134
0.249006
0.243908
0.237544
0.230474
0.229438
0.234323
0.242017
0.247458
0.248385
0.248474
0.247928
0.247527
0.246474
0.244495
0.231432
0.22327
0.220649
0.220976
0.219672
0.217359
0.213525
0.208491
0.208151
0.219708
0.236786
0.228521
0.250746
0.249533
0.24659
0.244009
0.243509
0.241946
0.235053
0.226071
0.221613
0.224292
0.229768
0.232411
0.23546
0.238483
0.243043
0.248186
0.249755
0.25153
0.252066
0.252097
0.252071
0.251171
0.248951
0.247893
0.248714
0.249391
0.249667
0.24965
0.249383
0.248111
0.250543
0.252081
0.251778
0.251975
0.25216
0.251853
0.246074
0.227646
0.216357
0.222809
0.241873
0.248297
0.249304
0.249224
0.248803
0.248697
0.248748
0.248823
0.248266
0.248093
0.248283
0.249365
0.250512
0.250386
0.250427
0.250699
0.250648
0.248162
0.240941
0.23767
0.251714
0.25162
0.251774
0.251813
0.251752
0.251731
0.251705
0.251821
0.252049
0.251813
0.251746
0.251623
0.251619
0.251593
0.251905
0.25171
0.252024
0.251802
0.251931
0.251907
0.251913
0.25191
0.251906
0.251897
0.251884
0.251827
0.251886
0.252066
0.252065
0.251511
0.252031
0.25213
0.251462
0.250923
0.251771
0.252061
0.250504
0.25111
0.252054
0.25218
0.252052
0.251759
0.251344
0.250991
0.250741
0.250867
0.251774
0.249227
0.22237
0.22341
0.243274
0.251045
0.252183
0.25223
0.250446
0.239231
0.232286
0.244876
0.25079
0.221558
0.226254
0.252132
0.251447
0.25114
0.251024
0.250463
0.249618
0.249058
0.248798
0.248746
0.248731
0.248748
0.249004
0.249199
0.249515
0.2499
0.250924
0.2522
0.250205
0.25215
0.251888
0.249468
0.21628
0.221434
0.24509
0.248864
0.249155
0.250421
0.251258
0.251198
0.251517
0.247661
0.247798
0.248632
0.248931
0.248976
0.249037
0.249108
0.249221
0.249176
0.249175
0.249372
0.25057
0.251499
0.251812
0.251358
0.250769
0.250962
0.251782
0.212432
0.182015
0.174582
0.173996
0.173476
0.16972
0.176188
0.230481
0.250602
0.249403
0.247729
0.234736
0.248969
0.248191
0.249337
0.249382
0.249762
0.249717
0.248895
0.229523
0.211619
0.236176
0.251324
0.249735
0.250011
0.25209
0.244558
0.213834
0.211519
0.231493
0.248305
0.250045
0.251046
0.247041
0.205718
0.172579
0.162019
0.175901
0.231319
0.25189
0.250949
0.251594
0.251126
0.249086
0.24979
0.250201
0.24856
0.248448
0.251787
0.250344
0.249577
0.249646
0.251091
0.251614
0.232109
0.213562
0.2081
0.205037
0.208769
0.216809
0.229625
0.241323
0.24564
0.243434
0.229887
0.209225
0.192561
0.195439
0.223272
0.25226
0.252064
0.251009
0.248908
0.249158
0.249925
0.250461
0.25066
0.250805
0.250861
0.250849
0.250759
0.251154
0.251913
0.252087
0.251863
0.251448
0.251737
0.222736
0.201796
0.213741
0.231963
0.248929
0.251693
0.25042
0.248844
0.247349
0.246027
0.245038
0.246041
0.250721
0.154498
0.15006
0.170105
0.252487
0.249158
0.246389
0.245668
0.246293
0.247405
0.248552
0.249592
0.250518
0.250752
0.251072
0.250863
0.250601
0.249951
0.2489
0.247811
0.247085
0.246824
0.246449
0.245396
0.245127
0.249511
0.251709
0.25148
0.251813
0.252107
0.200304
0.145553
0.224931
0.211262
0.217297
0.223887
0.228328
0.227162
0.222477
0.218932
0.21832
0.218565
0.2209
0.232315
0.236793
0.227177
0.214976
0.227581
0.227694
0.226178
0.229695
0.235284
0.238882
0.23909
0.234873
0.226513
0.215749
0.207152
0.204835
0.214734
0.228812
0.233506
0.229508
0.218151
0.210059
0.207305
0.2069
0.206983
0.208235
0.21281
0.219447
0.220903
0.215034
0.204477
0.187946
0.194026
0.242474
0.235925
0.24212
0.250688
0.249613
0.247121
0.246446
0.245297
0.248046
0.249911
0.251809
0.251618
0.251549
0.251094
0.250759
0.249488
0.249041
0.249906
0.249087
0.244038
0.228347
0.221243
0.217273
0.214847
0.211647
0.207452
0.207142
0.218151
0.236204
0.22843
0.250625
0.249448
0.246842
0.244847
0.244834
0.244426
0.236956
0.22665
0.222689
0.226746
0.235752
0.240461
0.24434
0.246216
0.248606
0.249396
0.25061
0.251947
0.252087
0.252062
0.251384
0.249571
0.24643
0.245909
0.24869
0.249575
0.249848
0.249546
0.24893
0.246646
0.250867
0.251928
0.251853
0.252174
0.251371
0.245645
0.227786
0.2142
0.21289
0.229147
0.246749
0.249255
0.249942
0.249597
0.249277
0.249123
0.249081
0.2488
0.248899
0.248656
0.249213
0.250238
0.250257
0.250302
0.250453
0.250702
0.25041
0.247298
0.238549
0.237574
0.251789
0.252146
0.251891
0.25175
0.251722
0.251979
0.251728
0.251784
0.251846
0.251811
0.251738
0.251516
0.251671
0.25162
0.25184
0.251759
0.25192
0.251633
0.251779
0.25176
0.251831
0.251844
0.251866
0.251904
0.251892
0.251838
0.251868
0.252039
0.25207
0.251776
0.25199
0.252136
0.251157
0.250985
0.251845
0.252131
0.252094
0.252169
0.252051
0.251891
0.251636
0.251381
0.251152
0.250999
0.250832
0.250694
0.251383
0.250936
0.219918
0.217232
0.241951
0.251776
0.252232
0.252273
0.2522
0.249686
0.249028
0.250606
0.249689
0.208253
0.227271
0.252234
0.251388
0.251106
0.250852
0.250167
0.249298
0.248881
0.248628
0.24856
0.248492
0.248539
0.248801
0.249117
0.249423
0.249758
0.2506
0.252004
0.249499
0.251655
0.251538
0.247318
0.226346
0.248254
0.251307
0.251169
0.251034
0.251048
0.251018
0.251204
0.251314
0.247677
0.247933
0.248662
0.248917
0.249014
0.249081
0.249268
0.249291
0.249235
0.24903
0.249165
0.250213
0.251675
0.251884
0.251636
0.25083
0.251174
0.249644
0.198275
0.178365
0.17832
0.1865
0.189634
0.181489
0.169211
0.186423
0.252104
0.249545
0.251677
0.237665
0.24899
0.249113
0.249494
0.249225
0.249494
0.249947
0.250106
0.235253
0.208276
0.232032
0.251255
0.249367
0.250054
0.252399
0.227817
0.20223
0.205017
0.227512
0.245367
0.249555
0.25126
0.24955
0.216095
0.175734
0.166506
0.180496
0.236914
0.251928
0.250992
0.25172
0.251117
0.249667
0.250108
0.250883
0.250692
0.248906
0.251798
0.250049
0.249416
0.250066
0.251724
0.241751
0.215136
0.206306
0.202953
0.200506
0.20008
0.203293
0.210398
0.219104
0.22468
0.226391
0.216937
0.203816
0.190486
0.19084
0.218393
0.250867
0.251934
0.250724
0.249091
0.249495
0.250377
0.250788
0.250731
0.250778
0.250959
0.250957
0.250881
0.250874
0.251594
0.252369
0.252062
0.251157
0.251359
0.251474
0.231427
0.231586
0.246511
0.251569
0.251429
0.250174
0.248598
0.247132
0.245606
0.244586
0.24557
0.25119
0.15799
0.150871
0.185152
0.251787
0.247884
0.245976
0.245773
0.246749
0.248017
0.249366
0.25048
0.250722
0.25026
0.250158
0.250662
0.250844
0.250637
0.249781
0.248517
0.247411
0.246916
0.246637
0.24567
0.244875
0.248049
0.25161
0.247313
0.249255
0.232375
0.185138
0.163949
0.224031
0.209765
0.217334
0.226369
0.23527
0.238942
0.237324
0.234273
0.233197
0.231856
0.230834
0.235004
0.239086
0.234384
0.23356
0.23467
0.233819
0.236103
0.235924
0.233564
0.2358
0.238354
0.24058
0.240543
0.237422
0.229682
0.217608
0.206351
0.201298
0.208386
0.223152
0.233196
0.231691
0.222667
0.212901
0.2082
0.207469
0.208944
0.211895
0.218034
0.222334
0.221326
0.214484
0.200434
0.188845
0.194686
0.21378
0.231844
0.240737
0.223696
0.236033
0.2493
0.249931
0.248887
0.24944
0.250714
0.251745
0.25194
0.252035
0.252121
0.251955
0.25177
0.25114
0.249969
0.248754
0.249865
0.249866
0.250284
0.245331
0.232191
0.220385
0.215205
0.210808
0.206675
0.206706
0.217125
0.233985
0.232954
0.250673
0.250792
0.250754
0.249509
0.248177
0.245753
0.245607
0.245565
0.240099
0.22806
0.222753
0.226742
0.235065
0.242315
0.246544
0.248311
0.249035
0.2499
0.250424
0.250688
0.250645
0.250066
0.248889
0.246018
0.244767
0.246454
0.249034
0.249246
0.248847
0.245161
0.243318
0.243847
0.237773
0.233852
0.252083
0.251713
0.251997
0.252043
0.246672
0.228802
0.213995
0.208212
0.213171
0.232206
0.246723
0.249343
0.250219
0.250181
0.25011
0.249885
0.249624
0.24968
0.249727
0.249975
0.250051
0.25033
0.250251
0.250406
0.250538
0.250911
0.249274
0.243592
0.235288
0.23807
0.245598
0.250889
0.251952
0.252044
0.251887
0.251662
0.251708
0.251635
0.251631
0.251711
0.251827
0.251823
0.251683
0.25159
0.251692
0.251591
0.251849
0.251803
0.251677
0.251624
0.251621
0.251711
0.251742
0.251814
0.251868
0.251892
0.251858
0.251806
0.251861
0.252072
0.252058
0.251995
0.252139
0.251866
0.251909
0.252006
0.250952
0.250948
0.251667
0.251946
0.251914
0.251776
0.251611
0.251486
0.251348
0.251306
0.251333
0.25136
0.251295
0.25098
0.251068
0.252157
0.223371
0.208764
0.225605
0.245479
0.251072
0.252178
0.252219
0.252508
0.251643
0.250503
0.238901
0.201373
0.197488
0.20079
0.212775
0.249721
0.251508
0.251061
0.250743
0.250083
0.249222
0.248824
0.248568
0.248474
0.248401
0.248452
0.248742
0.249117
0.24943
0.249784
0.250493
0.251947
0.249169
0.251117
0.251565
0.245969
0.240243
0.251162
0.250847
0.250815
0.250953
0.250424
0.245712
0.234959
0.223431
0.251179
0.250752
0.247694
0.248006
0.24865
0.248887
0.248999
0.249123
0.249271
0.249339
0.249247
0.248961
0.248937
0.250176
0.251878
0.251951
0.251618
0.250727
0.251277
0.246052
0.194143
0.179911
0.185834
0.20149
0.207392
0.196842
0.178269
0.171753
0.248316
0.250009
0.25224
0.251784
0.229966
0.236942
0.250004
0.24991
0.249554
0.249229
0.249428
0.249728
0.250144
0.239873
0.205621
0.226191
0.25104
0.249055
0.250188
0.252296
0.216355