/*--------------------------------*- C++ -*----------------------------------*\
| =========                 |                                                 |
| \\      /  F ield         | OpenFOAM: The Open Source CFD Toolbox           |
|  \\    /   O peration     | Version:  2.1.1                                 |
|   \\  /    A nd           | Web:      www.OpenFOAM.org                      |
|    \\/     M anipulation  |                                                 |
\*---------------------------------------------------------------------------*/
FoamFile
{
    version     2.0;
    format      ascii;
    class       volScalarField;
    location    "0.004250000";
    object      p;
}
// * * * * * * * * * * * * * * * * * * * * * * * * * * * * * * * * * * * * * //

dimensions      [1 -1 -2 0 0 0 0];

internalField   nonuniform List<scalar> 
12384
(
798999
798989
796705
788629
788467
764709
772818
740484
752770
723078
733716
715279
722505
715415
861390
858728
865289
862018
861441
855911
848111
839929
832593
826135
822261
817769
826955
823439
837934
845062
858571
859708
859661
856909
857314
854306
852545
841585
840749
835924
836892
846815
851039
857017
764692
762825
767883
771462
774367
775265
775210
773531
774209
769588
775551
765726
787412
769413
811582
788306
846763
822600
895725
892994
917205
922201
920515
915085
916865
912684
911943
914949
915040
916272
984700
976793
963069
947782
917232
910180
842982
860257
752945
798275
683120
745008
653685
693617
683359
675929
679917
674109
676458
674961
676162
676622
677196
677926
677113
679816
675738
687740
688620
692183
797345
801698
798865
792677
782377
769155
754351
737118
718536
696852
673628
662972
655214
645591
642331
654777
660133
657581
665848
664694
674602
672362
682145
686640
695449
696278
697443
697880
700555
696972
815796
817538
819802
822370
823760
824754
816277
821889
787467
792506
748227
761623
710493
732802
679601
698934
640242
666239
604008
635726
605735
622496
613655
615522
610781
604031
603357
596907
594995
591255
672744
659204
647630
642927
646408
646967
644736
638361
634739
629723
654205
633846
681271
667092
737128
722214
805909
798827
838898
835141
863562
852007
887684
897569
923459
920867
915918
901660
897550
875202
700907
680381
672161
623759
622882
599344
606227
595672
599352
594531
600682
607016
606813
625859
635965
664633
688089
706092
712274
703095
683832
658071
649831
642098
640719
661651
662594
678046
675403
680485
965550
996194
978616
1.03492e+06
1.03399e+06
1.07413e+06
1.06877e+06
1.09893e+06
1.0971e+06
1.13513e+06
1.11751e+06
1.10428e+06
984847
1.01929e+06
884373
931458
821221
858327
766136
795504
729353
748752
710946
722340
698115
704596
691574
694562
684216
677220
979790
987157
997733
1.00024e+06
999184
996313
1.0046e+06
1.01256e+06
1.02476e+06
1.02176e+06
1.01634e+06
991708
986876
960262
968961
956430
960611
951295
966393
958698
985519
1.00503e+06
1.02626e+06
1.02306e+06
1.01847e+06
1.01233e+06
1.02085e+06
1.02986e+06
1.03579e+06
1.04231e+06
1.12537e+06
1.10173e+06
1.07839e+06
1.04324e+06
1.00689e+06
982665
989525
967225
975715
967500
965553
962941
949953
939585
916111
878715
870417
811972
834980
779263
849991
804410
921534
885240
989030
984144
1.01851e+06
1.02679e+06
1.02667e+06
1.03912e+06
1.25853e+06
1.25491e+06
1.24443e+06
1.22651e+06
1.23291e+06
1.15875e+06
1.17078e+06
1.0527e+06
1.09437e+06
1.01971e+06
1.04804e+06
1.02039e+06
1.02832e+06
1.01385e+06
1.01516e+06
997954
999842
1.0046e+06
1.00662e+06
997937
1.05359e+06
1.05743e+06
1.07134e+06
1.10034e+06
1.09851e+06
1.10025e+06
1.09271e+06
1.0898e+06
1.08237e+06
1.07782e+06
1.00839e+06
1.01623e+06
1.01908e+06
1.02586e+06
1.03138e+06
1.03254e+06
1.02721e+06
1.02953e+06
990989
1.00033e+06
939807
961432
921673
942694
941578
936335
946905
948165
952568
954514
958264
957784
957441
956560
951152
931747
922086
893819
890791
870202
799455
798928
797541
786484
789562
764887
771043
741897
752061
724791
735039
718158
723065
720342
855104
859647
858916
860975
857937
853361
846829
839549
833493
828242
822854
821040
822879
821891
839966
843185
850470
857327
855402
853779
851084
851787
846571
843416
837345
833965
835168
842750
846754
850898
761442
760247
764493
768788
770192
771326
770869
772472
768593
769096
771933
767835
783396
773961
807031
789537
837077
832577
863234
891074
907467
915878
917951
913318
910847
911277
912464
911167
914204
914630
979109
971939
962579
947902
915735
906122
843196
853276
761905
778719
705238
713535
672246
689625
674528
679085
672148
674878
671933
674318
676913
679149
681312
680894
679304
681474
677169
686201
686810
692258
783269
786160
782927
776798
767272
756198
743173
727855
710032
691919
672254
657485
647382
643178
646133
644325
650232
653859
652362
660477
670741
677405
682474
693534
694530
703127
704067
704893
701463
702361
812564
815081
817220
822778
824200
828351
823890
812023
802886
792130
744513
767459
711140
730343
678824
698864
636404
662093
605558
629655
605614
611761
615861
611637
610930
608064
607709
609274
608728
609432
658445
663846
668102
658542
650987
643660
640539
640628
642719
639030
651720
638244
689518
668781
732183
743100
758637
809664
804572
829406
830330
841964
874957
887881
906078
914787
915950
904487
899563
909199
690599
677545
657747
659210
623710
613181
605332
600215
595930
597633
605451
598026
618473
621779
643135
664497
686581
705288
708320
702159
686891
654559
661426
640052
662349
666947
658630
663016
686086
709338
968781
987920
995987
1.02042e+06
1.04439e+06
1.05089e+06
1.07289e+06
1.06442e+06
1.10361e+06
1.10482e+06
1.1112e+06
1.06235e+06
1.00792e+06
974293
902811
909322
840260
851984
790388
789561
751505
738146
729264
712406
709389
698137
694793
693871
687218
684901
987561
992228
995648
993788
986446
989358
993067
1.01062e+06
1.0151e+06
1.01761e+06
1.0056e+06
978814
970662
966718
953318
957733
948182
950640
943594
964924
966129
1.0026e+06
1.00562e+06
1.00129e+06
979185
982869
995880
1.01422e+06
1.02647e+06
1.03754e+06
1.12763e+06
1.09885e+06
1.07438e+06
1.0317e+06
1.00924e+06
977438
978587
973323
967273
967290
966151
959727
953911
935060
915685
873661
861042
813324
808970
786742
830614
815243
902268
890096
961438
982076
1.01096e+06
1.02014e+06
1.02559e+06
1.03168e+06
1.24865e+06
1.24253e+06
1.23823e+06
1.22982e+06
1.20742e+06
1.15854e+06
1.14933e+06
1.05663e+06
1.0768e+06
1.02818e+06
1.02772e+06
1.02535e+06
1.01484e+06
1.01564e+06
1.00239e+06
999721
990665
985164
993381
1.01345e+06
1.02743e+06
1.04944e+06
1.07482e+06
1.08068e+06
1.09806e+06
1.09596e+06
1.09678e+06
1.08929e+06
1.08775e+06
1.08721e+06
1.01235e+06
1.01301e+06
1.01897e+06
1.02433e+06
1.02935e+06
1.02962e+06
1.02761e+06
1.02008e+06
993701
988778
946214
954963
925480
934260
930484
939706
945047
950443
954914
956885
955594
958051
956181
951893
953430
929036
933939
893938
903430
881323
800183
798129
798056
786675
789008
763730
771433
741998
752316
725513
735796
719215
725273
720954
853906
854777
858077
855805
854135
850808
845571
840310
835198
830885
825782
824254
825748
821323
831476
843559
846686
848339
850913
847551
846423
843136
844287
836292
835401
832342
831674
835475
841901
845291
757736
756684
761621
763970
766240
767189
768923
764868
767355
763788
772691
765490
784486
773610
799790
796046
821540
822779
864686
869422
895860
904233
910179
908531
909669
907551
907935
911374
912706
914639
973018
968732
961654
942958
917624
903965
840490
851512
753783
784139
686828
727219
662040
692202
665458
675570
674168
669602
671291
673810
675144
680177
679657
681120
678159
680165
680276
684377
689165
691231
767564
773029
769699
762250
755346
744310
732494
717782
702200
687311
670422
651105
642489
641645
633126
642510
638638
640079
646966
655415
666659
671461
689618
689612
701885
699634
702152
700609
703135
697985
808295
812108
815590
820904
826568
828385
829048
813340
812487
789358
747280
767609
715563
728031
676709
697095
633635
653405
602566
617935
600633
612869
608670
610175
610723
608945
610432
607228
607181
608183
679199
666911
660878
661225
653957
652349
645942
643056
640800
650495
643028
654030
695952
676643
740089
731293
766062
764475
802777
785800
806833
827384
850444
863825
894133
907629
910273
908263
913717
914622
732670
733030
728603
686446
685315
619314
609075
608238
602612
597659
605820
598286
619320
625659
647544
667176
686223
703255
705035
708176
689158
659919
650167
653321
640704
647652
679697
716030
707612
687965
974626
997637
985143
1.02372e+06
1.01844e+06
1.04824e+06
1.03951e+06
1.07148e+06
1.06563e+06
1.09102e+06
1.0609e+06
1.05669e+06
954826
969327
890200
914408
850692
869531
801260
814066
755672
763159
720090
730724
703183
709640
691726
696757
688468
692957
991961
985621
985464
981446
980309
982156
992598
994652
1.00734e+06
1.00566e+06
983467
970142
970016
946110
952647
941358
940228
928250
936962
932336
966802
961784
983414
971919
961361
951422
966228
985587
1.00271e+06
1.0162e+06
1.11436e+06
1.08784e+06
1.06281e+06
1.0236e+06
1.00655e+06
973815
981190
967796
967888
967895
964705
963354
952597
936207
907895
869675
842092
805624
793102
763888
834012
796709
898724
882622
948517
963280
992516
1.00499e+06
1.01215e+06
1.02358e+06
1.23281e+06
1.22867e+06
1.22732e+06
1.2065e+06
1.19703e+06
1.14218e+06
1.1247e+06
1.05451e+06
1.06625e+06
1.01298e+06
1.03179e+06
1.00793e+06
1.01563e+06
1.0013e+06
1.00266e+06
987477
991255
987870
989157
998496
1.01966e+06
1.03218e+06
1.06486e+06
1.07729e+06
1.08025e+06
1.09377e+06
1.09175e+06
1.08845e+06
1.09159e+06
1.09345e+06
1.00932e+06
1.01328e+06
1.01402e+06
1.01961e+06
1.02434e+06
1.02634e+06
1.01878e+06
1.01611e+06
982596
988608
938035
953027
920907
923836
929380
939219
945439
951243
958202
958478
965382
961304
961815
951182
953805
927754
937200
898351
910336
876384
801154
797484
797323
786898
786194
764754
771556
741692
753190
727262
737822
724679
725298
720315
854089
851799
850694
850437
848951
846622
844394
840433
837528
833175
829647
827053
822624
826178
824559
832524
843966
842899
840116
841178
836871
838190
832786
833999
827378
826712
830777
828279
832231
836005
752520
752249
756462
759382
761846
762469
759118
762424
761186
764912
767657
770425
776742
782026
789606
796035
816877
815195
847014
860594
877167
898899
900670
902727
900835
901589
906794
908959
911371
911547
966598
964952
954922
941187
918268
890309
853913
840018
749112
784441
685920
724958
663693
682844
668838
671278
668028
668716
672649
671130
677801
678080
683545
680521
683210
680926
680438
685411
689596
693137
741407
747362
744371
740854
734334
725049
714866
704829
694278
680170
663630
649217
644917
630906
633546
623119
630779
634908
632163
656909
655215
682610
682705
699453
700603
712983
712771
713736
707068
708551
805006
808740
814412
820791
826991
831847
829047
826282
800291
797340
752700
765241
715790
733692
673053
693759
625157
649139
593551
603536
603602
603174
604848
608140
608669
613193
613882
618188
621070
619811
675497
674561
669477
662225
660958
654308
652799
648592
651996
651495
646537
690343
675159
710092
716151
737964
738876
758736
748273
787582
781274
800103
819511
851565
879129
892633
901581
915206
924102
921461
761610
743131
730475
719907
681030
684472
621064
614152
611642
601825
611458
592539
630537
619503
655059
669342
687513
696975
711671
705618
699910
711690
712484
690172
704450
721513
716692
687942
697367
730948
987652
984625
1.00111e+06
996433
1.02225e+06
1.01171e+06
1.04392e+06
1.02889e+06
1.05997e+06
1.03191e+06
1.04673e+06
961717
970282
912285
918153
886662
884580
860715
842875
824114
777139
779799
734152
725955
720892
706243
693726
700881
691483
691145
977875
979832
979089
969133
956454
964611
978722
994350
992632
975289
967652
965607
932805
943484
927456
929836
918741
920623
902961
920446
915664
944297
922387
915958
887137
898343
914680
945736
964338
983100
1.10018e+06
1.07177e+06
1.0459e+06
1.01277e+06
997358
975786
969222
967864
968301
966283
967231
962695
954534
932290
894931
862303
807078
807261
761013
776975
792827
812144
868383
886569
930672
948229
968950
988144
995925
1.00587e+06
1.21512e+06
1.21032e+06
1.19401e+06
1.1844e+06
1.15761e+06
1.13105e+06
1.09396e+06
1.0511e+06
1.03458e+06
1.02067e+06
1.00136e+06
1.01211e+06
996719
1.00132e+06
987033
989657
971423
970666
971316
984527
1.00163e+06
1.02664e+06
1.03952e+06
1.06527e+06
1.06962e+06
1.07415e+06
1.08298e+06
1.09125e+06
1.08539e+06
1.09435e+06
1.00682e+06
1.00663e+06
1.013e+06
1.01442e+06
1.01676e+06
1.01695e+06
1.01728e+06
998339
985123
972611
939427
935291
916721
922968
920087
936328
942817
953420
957191
966297
962736
964939
963942
959203
948066
937150
932354
904680
908383
897910
800738
797170
798244
785299
786969
766546
767898
744241
752986
732976
734943
733137
734988
736659
844736
845639
846690
844561
844380
844100
842605
842104
839488
836183
833318
829871
825825
823436
825669
821571
827089
832789
830211
831254
834732
829250
830609
825903
825583
822074
818392
826431
824529
832077
742808
745360
749284
751776
753621
753094
757968
758786
763192
761317
770843
767755
780481
774940
794757
784406
816222
805602
836983
844840
869331
878524
894383
894392
895983
897357
899799
907577
909392
911915
962219
956395
950883
942073
908340
888413
864228
815563
756099
775471
689517
720392
660630
688187
661886
672636
666543
673543
669233
676113
673659
679014
678892
683432
680284
685643
684198
684238
690641
690751
711185
717161
716713
714589
709312
702395
696698
691796
683357
669137
659564
651329
635042
623108
623849
626731
616575
635313
629605
643349
669137
675666
693555
698727
712429
709995
715578
709918
714673
707443
803245
802037
812134
818908
828560
832507
831902
825828
797180
804013
756456
768974
714804
734675
669683
685225
620996
637912
581738
608993
583296
590348
597328
606182
609155
612757
618355
621940
621880
624045
678333
672276
667933
664346
656267
657475
654008
655405
654705
655038
668217
684154
693715
700056
721567
719118
735758
731826
746979
739715
768705
768355
801574
848114
853838
873107
898456
913437
918213
926440
768516
770205
761229
752219
730246
683592
683052
619617
616031
609796
611270
591280
632775
618347
664248
670760
681446
708231
721816
703409
723509
684218
665025
687856
687981
689526
703796
744652
770522
760855
984602
988817
982590
999312
985243
1.01568e+06
991543
1.02035e+06
988028
1.01573e+06
952991
966849
904847
920253
887753
895000
873943
876631
849621
850569
807970
785716
744315
745709
714436
713196
704534
697820
699882
700897
963885
965171
950386
932020
934376
929986
947924
963769
955738
954267
954278
916167
932460
920682
923177
910050
905615
886058
897044
890292
908292
883871
891375
860454
861746
840513
864405
894961
914739
934917
1.06937e+06
1.04785e+06
1.02498e+06
996963
978880
971040
963883
966816
966640
968086
967187
965119
951259
922837
877250
847301
776654
778396
753483
754760
779012
787217
853633
869729
909762
926831
945000
959774
970397
980812
1.18042e+06
1.16643e+06
1.16337e+06
1.14475e+06
1.1311e+06
1.09241e+06
1.06619e+06
1.03293e+06
1.01676e+06
994470
1.00528e+06
989279
996682
985812
989057
970565
973475
961313
970293
969356
997721
1.00497e+06
1.0375e+06
1.04119e+06
1.06975e+06
1.07114e+06
1.07847e+06
1.08169e+06
1.08846e+06
1.08888e+06
1.00569e+06
1.00353e+06
1.00629e+06
1.01152e+06
1.01255e+06
1.01354e+06
998500
1.00086e+06
964097
960944
930022
913648
907128
909356
918490
923010
942308
950174
965776
969907
975839
971271
964694
964097
949335
944381
931201
919215
912253
897040
800503
799274
795205
784453
787187
764651
767934
747696
751844
736747
743683
733932
734290
731806
842744
836130
838549
838948
839704
841782
843749
843014
842294
837877
837538
830303
824524
819419
812795
814128
808933
818945
827156
821827
816715
820617
817181
818133
811077
809652
809964
805066
812248
807824
740823
741399
748171
750260
750737
754762
755002
758385
757561
764355
764296
771781
771127
779888
783488
788479
799535
811724
823194
833593
857341
870703
876680
881627
884841
892786
899936
902478
908829
907716
957523
952430
951008
936597
903053
893541
851496
807813
760560
770097
695478
715115
667867
683723
667964
675071
678088
670617
679958
674160
685498
686185
692958
690004
692264
684778
688917
688236
687994
691942
679093
687300
687692
686619
684571
684674
684751
679874
669634
663789
659930
641798
630124
630132
621091
619858
614270
633774
623618
660602
656932
686402
691381
710936
711975
722857
718273
721464
714483
715058
783193
799219
802953
821260
824969
834771
830212
826841
802478
801346
758948
773006
716611
733119
661181
688909
610847
624935
585682
582875
585304
589612
587502
604954
603298
613816
617769
621586
623812
626030
672529
666870
663771
657713
657095
651139
651814
654731
649149
675599
664430
691644
689333
707020
705102
720116
711875
729689
721581
740574
766956
751042
792800
826773
837879
859264
885973
898277
911461
916989
779472
771387
768155
759245
748144
724417
672872
683034
611938
611105
611007
596369
626398
624321
666077
661762
702124
719003
714393
758358
753702
754801
785305
755614
762431
755697
776742
775409
777521
786787
983480
981650
986541
970379
989236
960368
988321
945340
984627
916033
941375
887640
912825
875153
890744
871154
878157
867185
869317
850058
842469
803824
763178
739886
736411
704562
716184
701533
700596
696476
965979
932502
914584
932854
930044
940860
937178
916052
926686
938910
901348
920895
913707
902377
891252
892754
879462
881992
861507
870386
855422
876401
835339
837587
809457
831353
834303
852578
867042
881478
1.025e+06
1.01327e+06
995574
977873
967034
955389
957665
953727
954904
959977
964441
963432
943938
916305
857183
832096
742405
755156
725121
753616
743323
787806
820377
862510
878724
905804
913912
933052
949444
960829
1.14426e+06
1.13956e+06
1.12294e+06
1.10905e+06
1.07993e+06
1.05897e+06
1.0288e+06
1.01296e+06
989357
995206
974934
988275
982296
988600
973444
975561
960021
963462
954198
975579
980720
1.0049e+06
1.01379e+06
1.03636e+06
1.03169e+06
1.04869e+06
1.05222e+06
1.06201e+06
1.06346e+06
1.07544e+06
1.00142e+06
1.00246e+06
1.00548e+06
1.00385e+06
1.00566e+06
996536
1.00136e+06
977516
951813
954928
902611
904717
896223
899665
910303
920061
933770
957269
967175
975996
974804
973887
967597
966925
949282
953304
926219
933609
911813
916416
800058
797762
791241
790884
777531
771768
760153
758196
746031
745135
742007
744219
742085
747492
833701
830678
833139
836230
839509
842315
843936
844523
843176
840533
834771
827021
822614
814442
813909
804985
797916
786446
795240
803524
813620
814161
815946
812104
810916
804006
797830
801216
800989
810830
740238
740918
738462
740589
746637
749328
752619
753205
759703
759288
765329
764373
771779
769297
782083
779936
796714
793082
827599
817981
851523
857175
869886
879237
884180
889728
893726
906389
906816
917341
954580
951507
947106
933567
906684
884135
849623
806504
761944
768921
706593
716693
682593
683800
675916
673095
672257
684448
675616
685785
680908
689699
687942
696065
690889
694079
687008
689947
689536
691264
663438
665900
664568
664879
666016
667507
665819
659863
660433
662195
649495
638536
640293
625978
623171
621662
622473
624540
642558
648742
675983
681758
705483
709888
723159
720962
726334
718911
721566
714317
775270
791388
795910
814262
824508
830487
830401
826484
799566
804872
765352
771778
718611
732164
659809
684618
597171
627297
573216
580176
577495
578541
586106
595961
601015
612119
613462
620516
621113
624916
663465
661383
656473
654379
647223
648045
644023
655412
646604
673236
666716
687016
697272
697507
706710
704029
713039
718582
729522
720850
758964
765441
769660
816438
832528
846961
865018
884982
891721
898935
778541
779361
769510
764778
744274
743493
686832
687646
642635
622265
605028
599519
628586
631355
646589
685614
710106
713296
765289
757210
755519
810656
770549
780524
762207
782208
767574
777764
781767
783475
964759
968484
963338
973688
946623
969313
922983
954140
898298
927464
872330
901986
863157
881131
859401
872067
861099
866801
867020
867176
852499
814460
802771
743952
736108
709623
715213
700458
703081
709118
889825
876512
890148
874585
863385
860096
873101
912639
914641
879442
912183
897822
881355
886103
893121
865435
859614
846548
855708
838561
843227
818087
816893
771173
767456
744734
773464
801754
827722
841612
969975
971231
964916
957941
953459
958317
957031
958998
958802
956053
963329
956623
924931
901644
825531
816427
720019
736239
695116
712378
739697
772735
801346
846718
866481
878566
901491
910555
918367
931423
1.0516e+06
1.0495e+06
1.04659e+06
1.04014e+06
1.03154e+06
1.01314e+06
994535
966750
978440
956229
970728
969147
982798
975427
978189
967759
966488
965167
970419
965974
991442
994252
1.01358e+06
1.01989e+06
1.04381e+06
1.03848e+06
1.05405e+06
1.06069e+06
1.05677e+06
1.07867e+06
1.00042e+06
994809
998276
998777
993393
1.00009e+06
981246
962045
954876
922385
892842
903872
871956
874110
910595
909501
938497
956655
974649
982685
986619
983969
979546
970982
960148
953427
932337
933968
927362
921354
798427
795172
792587
785650
777391
773497
761845
757680
754691
746960
749613
747581
754725
748391
810620
817611
824278
833962
839501
842631
845423
843617
844118
835672
829443
822339
808321
798184
786092
785567
792519
797429
793706
799508
792059
793663
791859
791620
788558
788017
790873
779458
779627
776378
739570
740203
742729
743403
745049
750448
749831
754788
753845
758371
756179
761982
758559
769818
766896
778872
788362
784863
814056
814117
839407
856143
861814
871434
888056
885098
903623
903540
914474
906480
962884
961326
948513
933297
906956
879842
844155
822342
765138
775734
721907
727913
687081
703101
678066
691992
692102
683205
695282
689274
700703
699935
705369
701181
702219
694223
695271
688333
690604
691377
623629
649163
657572
662599
662762
657728
653664
658530
661491
653913
647546
647708
636265
627825
617535
619242
619022
641402
633760
665810
672166
694604
702476
721921
722040
731144
725323
728522
720362
718674
779711
779614
803611
803465
822605
828199
829054
818624
807468
802865
769107
779774
716825
727588
668900
656137
605627
610633
581077
571200
574386
579391
577017
592622
596170
607170
612710
616510
623117
625411
660228
653804
649760
641886
643027
637745
637663
652276
644197
671167
666069
689520
684150
700406
694752
709113
702785
721509
717636
731685
747375
773810
770150
804390
820416
840993
851763
864870
878666
876890
777011
774217
766830
764143
734971
740567
687939
697408
634765
657970
609826
612962
633370
621819
674751
684829
697220
763512
769006
789716
854264
812075
818893
804658
796605
780853
788962
781656
790708
793909
953611
958823
967897
949572
949204
910767
928678
875612
886109
855277
885494
858211
875008
858433
867329
850605
858183
852296
863419
860864
862874
839352
790181
778326
739991
703696
713198
712095
708392
707132
839826
884430
875514
857623
869388
878893
881701
882251
859614
879304
896374
887100
889880
889816
881942
862581
855362
851793
856344
851976
832848
819322
779036
782662
742660
759458
767893
788734
800430
836344
947032
936535
932062
924594
921155
922886
928660
930572
934419
942835
938098
935917
913620
868670
817781
782039
701662
713875
680291
700387
720662
761286
796385
811464
851988
857597
876292
901578
906708
929695
1.06188e+06
1.05928e+06
1.05892e+06
1.02478e+06
1.00166e+06
979974
955099
961968
935917
961326
964904
974690
974395
971761
983805
979340
965223
968940
981709
989078
986008
1.00544e+06
1.00512e+06
1.02178e+06
1.01606e+06
1.02735e+06
1.02169e+06
1.0304e+06
1.03062e+06
1.01649e+06
997670
1.00105e+06
999426
997712
998476
987309
968999
961505
944610
894768
899208
875110
859973
862991
896273
918314
935692
964835
981671
992465
994743
991296
984352
977794
968084
961103
941567
942791
929796
930156
792190
793160
787279
787719
775006
776956
761597
765407
754674
756014
751409
756412
750081
757415
721372
763510
786627
788624
811999
829998
839816
841824
842460
844117
836215
828448
823098
810664
802618
785142
783109
764813
761208
768185
773655
783976
798941
799666
799267
794293
791128
783517
775929
779835
772244
776139
712631
715627
735181
736449
733111
737373
738488
745035
749485
749760
752087
747832
752411
747133
757449
752787
768066
762560
786988
774245
813226
798110
844272
839435
865364
873947
880626
900483
898110
916467
919230
941286
934908
918285
949095
947554
942691
927605
909240
882247
845096
830812
790158
779686
750685
733425
712824
699824
695188
687666
690865
701726
695280
703659
701303
708015
706367
708553
701903
699672
689617
688998
680266
675875
662893
682277
655046
661658
661077
656204
647576
646749
650836
655869
653494
653473
652318
647035
640497
633705
638982
630681
639267
634673
657052
658850
692013
689826
716898
718267
731889
729302
736202
727206
727950
714659
719894
659783
741441
759281
785918
808448
811267
823749
819342
819886
808546
796620
790082
763934
719016
728935
663386
637057
632249
592937
597926
564053
578308
571504
580397
587575
592120
606432
609287
617131
621767
630890
623342
642638
641988
646172
642822
644316
635815
635379
632261
644362
644802
664837
664625
683833
681389
696567
693118
701168
712595
717406
718565
748678
737419
761784
794656
788035
811795
830056
841428
844886
845801
845671
811768
802735
795257
789171
778346
767329
746948
732661
695398
694268
645489
646842
621235
628478
619377
652133
670548
668826
749792
757023
786761
868077
853764
859907
850454
824718
803784
798612
794281
802903
786982
762817
736856
658392
855634
923237
925776
930119
917662
916820
878952
894910
857365
876917
856025
869075
864154
871025
864868
852534
845215
852001
858942
861521
850704
844792
821609
753032
760263
713774
701985
708628
714896
728102
740030
715853
759699
775109
780717
799332
798507
802980
824056
837203
853337
886625
897028
891240
892101
889092
883388
878517
871577
870726
859348
849995
829330
816160
778166
763743
751501
751241
771968
797090
803659
825736
798815
779920
845872
894028
915072
921485
922839
933741
938470
940261
934809
937234
941683
924360
887959
861141
778985
788979
692570
719313
677581
674671
738845
723104
796521
783078
839476
833349
872574
876759
894720
902787
905936
891485
889578
918414
920564
938072
942564
921992
930352
900310
920609
925611
952838
969016
980990
981487
977030
992390
996441
985079
979042
993306
997933
1.00082e+06
1.01196e+06
1.01148e+06
1.02355e+06
1.02413e+06
1.03168e+06
1.0258e+06
1.0293e+06
1.04174e+06
998319
972449
999885
1.00243e+06
999790
998572
995772
984717
964035
966125
923313
885782
898679
848049
867839
857032
886006
919565
946053
968090
992519
1.00285e+06
1.00493e+06
1.00212e+06
995573
983605
981927
955767
961900
943861
938399
938345
938745
939298
793343
789346
787245
782953
780187
774708
768782
764679
762942
761983
763786
758071
765795
761955
753572
762921
804253
806233
821523
835026
839778
842686
840959
834241
829055
825122
809520
792696
779758
779237
766388
771582
770118
767630
774526
779500
775549
775700
773280
763721
751306
742926
742982
740403
743642
738751
740024
725658
739569
728494
729350
735766
736377
746134
746243
751387
747112
748119
739775
746085
741028
753629
752537
759812
776687
775116
801953
800427
833416
843862
868229
870193
899219
897949
916065
918790
941610
934103
940205
936104
949576
951514
942314
931751
911722
895247
858579
853972
815813
802557
764116
758666
711710
723346
702222
707503
706730
702773
711276
708644
713257
711297
712604
707518
706046
695334
694525
681835
685076
682386
678818
682955
670202
665362
662042
653909
652982
653344
655318
652518
659278
655201
652134
651664
643011
645648
636553
652046
648668
659989
658336
675532
687200
712346
710467
730298
730516
740454
735617
738172
729286
731756
730427
712064
753829
775835
783649
795771
813124
807189
813720
809959
804311
805775
780631
751874
751731
697560
665744
664052
632702
590595
605647
580696
578341
585291
581838
586504
598099
605758
612623
620887
627953
634885
634705
639903
647362
644083
644402
637430
635110
634550
630026
646075
637030
666086
657347
682705
675678
696357
687803
709221
704245
724654
720749
750213
747673
762940
790149
798441
804094
822107
831295
839459
838224
835589
809753
797465
776242
773574
769300
762986
744413
742549
693692
705823
647557
662442
623876
632463
642124
656159
646244
722274
729113
764320
858420
864602
887671
897390
860307
852209
837301
820350
819631
811873
804167
784298
761784
754983
865560
878183
930739
931468
917035
889499
889411
858204
857793
863350
860386
877680
870567
866840
856734
860832
860872
858355
854193
866321
854321
837535
817515
795928
715588
736308
696391
724255
734132
764021
749324
707954
809429
808729
835384
824961
819878
832774
844028
833627
877040
886593
911595
906987
920320
896916
892299
875245
865391
862249
863556
853553
833200
809875
780887
760878
760411
773541
792910
806198
830738
869565
861166
877959
906714
903247
899168
896259
906464
905280
916289
919373
922891
919406
913574
913946
879565
858161
783653
788205
700055
706888
674997
698776
722148
730838
777307
775239
837234
831827
868416
885375
904230
920478
903871
867743
957989
964409
972779
958054
933529
921784
899431
919033
920189
926465
962870
971853
989123
999477
998725
987773
992929
995088
999093
996364
1.00929e+06
1.0067e+06
1.0054e+06
1.00901e+06
1.00372e+06
1.00158e+06
999561
1.00218e+06
1.0019e+06
1.01346e+06
1.00305e+06
994276
1.00897e+06
1.00854e+06
1.00736e+06
1.00453e+06
997067
983265
967405
951379
925371
880383
887923
840985
852677
875853
878168
918347
954291
981343
1.001e+06
1.01318e+06
1.01644e+06
1.01068e+06
1.00422e+06
996874
984437
971466
968575
950945
950565
944330
935605
935559
781757
784416
782774
784279
779263
779444
770096
772280
766043
763364
761496
769577
764961
775745
779375
779907
804337
819504
827501
836067
835950
832176
832814
830476
822472
814441
806078
783578
788181
762906
768965
755899
759104
760308
768191
770460
782437
781167
766318
757036
750476
759390
750042
750234
742849
745200
716304
728871
736492
729608
725164
737232
733297
744265
746068
744989
743342
738136
736867
730757
741873
736869
755990
753732
784107
772309
810883
796225
840844
845294
861451
896245
896231
915063
925591
954284
937728
964652
962645
958536
956804
953013
951345
944033
919690
909696
884668
864251
850943
821117
797937
750934
740779
716863
719174
708893
708505
716156
712595
717026
714532
716056
712349
709228
702206
694314
689246
681160
679325
682554
677363
679108
672168
666508
665505
658342
653001
654885
656564
661974
656200
661611
654098
650179
650642