/*--------------------------------*- C++ -*----------------------------------*\
| =========                 |                                                 |
| \\      /  F ield         | OpenFOAM: The Open Source CFD Toolbox           |
|  \\    /   O peration     | Version:  2.1.1                                 |
|   \\  /    A nd           | Web:      www.OpenFOAM.org                      |
|    \\/     M anipulation  |                                                 |
\*---------------------------------------------------------------------------*/
FoamFile
{
    version     2.0;
    format      ascii;
    class       volScalarField;
    location    "0.004250000";
    object      T;
}
// * * * * * * * * * * * * * * * * * * * * * * * * * * * * * * * * * * * * * //

dimensions      [0 0 0 1 0 0 0];

internalField   nonuniform List<scalar> 
12384
(
3019.01
3022.54
3022.24
3025.09
3029.84
3023.73
3030.86
3021.83
3027.6
3005.33
2997.77
2956.06
2756.25
2596.18
2578.66
2730.31
2795.57
2813.45
2815.6
2810.29
2800.48
2793.57
2789.63
2788.94
2791.71
2795.43
2807.42
2814.6
2832.34
2846.89
2862.92
2870.84
2878.45
2882.78
2891.41
2901.93
2927.86
2904.48
2809.94
2700.99
2616.2
2536.45
2544.47
2650.63
2914.55
2976.01
2982.12
2973.37
2974.83
2979.68
2986.82
2993.43
3000.18
3002.74
3011.39
3004.53
3017.36
3002.68
3021.79
3004.69
3024.96
3008.8
3016.72
2995.58
2948.98
2907.29
2934.59
3064.41
3115.65
3122.34
3114.64
3088.16
2968.67
2730.58
2984.75
2976.25
2963.33
2948.12
2919.3
2909.46
2870.51
2880.15
2814.86
2845.85
2769.26
2810.32
2742.54
2773.66
2767.38
2762.62
2766.22
2766.44
2775.59
2784.21
2796.99
2799.4
2791.5
2746.79
2700.92
2719.82
2730.38
2748.85
2746.5
2747.71
2759.5
2745.35
2730.44
2723.94
2718.76
2713.75
2709.76
2706.2
2701.88
2695.47
2688.21
2684.56
2687.74
2680.87
2682.6
2691.95
2701.86
2692.41
2685.53
2674.14
2667.4
2656.25
2658.08
2670.21
2700.58
2643.58
2552.65
2531.67
2539.9
2547.37
2595.19
2817.24
2814.71
2819.3
2836.18
2845.01
2844.98
2839.62
2828.15
2813.84
2797.26
2788.33
2768.81
2765.33
2742.14
2741.16
2714.16
2721.94
2689.97
2708.58
2694.72
2714.01
2708.12
2714.57
2717.18
2720.12
2727.45
2735.33
2713.11
2500.96
2585.74
2580.24
2577.98
2593.65
2644.59
2628.35
2602.87
2585.49
2578.93
2573.07
2591.87
2585.06
2620.64
2624.93
2668.04
2666.42
2713.94
2705.8
2712.69
2703.3
2707.19
2702.32
2719.11
2736.8
2768.11
2790.74
2809.7
2815.66
2813.35
2520.35
2254.89
2274.83
2336.93
2571.47
2485.28
2446.31
2471.84
2474.2
2480.25
2479.58
2484.8
2492.01
2492.99
2509.36
2518.38
2541.78
2559.45
2582.84
2599.91
2617.82
2624.54
2634.54
2652.09
2669.27
2684.2
2706.63
2701.3
2684.09
2640.07
2618.84
2503.4
2543.83
2571.21
2979.69
2597.88
2609.11
2620.36
2637.96
2644.86
2669.47
2674.71
2657.12
2628.77
2621.58
2572.61
2579.46
2537.25
2548.33
2521.71
2536.95
2529.61
2549.68
2541.08
2553.03
2518.34
2500.36
2502.14
2659.44
2524.1
2422.23
2536.36
2950.98
2948.91
2951.47
2971.39
2965.26
2962.32
2963.86
2966.72
2964.83
2956.46
2939.6
2919.71
2903
2882.67
2865.41
2855.21
2845.11
2847.67
2844.47
2852.38
2871.41
2867.52
2866.68
2862.28
2850.9
2849.42
2857.78
2878.99
2937
2427.72
2939.18
2869.23
2846.55
2832.27
2814.43
2807.83
2780.2
2768.12
2747.75
2733.68
2721.37
2706.06
2695.01
2680.27
2660.93
2658.36
2627.89
2647.6
2617.25
2660.75
2657.3
2707.3
2706.97
2754.92
2765.23
2797.01
2833.61
2899.99
3000.72
2373.96
3034.06
2886.89
2846.78
2829.58
2784.42
2781.72
2736.34
2751.2
2732.13
2744.09
2746.28
2754.01
2755.51
2759.68
2750.86
2746.05
2735.15
2723.61
2709.05
2733.42
2739.09
2755.78
2774.01
2795.32
2956.27
2652.68
2353.69
2351.91
2446.89
2216.79
2287.37
2282.16
2315.48
2441.36
2573.43
2682.04
2798.41
2901.94
2940.08
2902.42
2813.73
2795.74
2767.95
2758.87
2757.97
2775.28
2804.44
2838.85
2878.01
2909.09
2941.61
2964.27
2924.51
2784.22
2511.97
2321.88
2250.31
2275.17
2358.56
3013.98
3020.82
3028.03
3032.05
3039.48
3035.19
3044.61
3041.57
3045.57
3028.54
3012.82
2984.77
2841.77
2618.68
2579.09
2785.36
2822.9
2811.81
2784.92
2758.32
2745
2740.6
2742.93
2750.2
2760.14
2774.09
2790.66
2806.04
2831.47
2849.54
2865.03
2876.07
2880.16
2883.28
2885.28
2893.07
2910.06
2920.23
2890.03
2812.27
2711.55
2610.58
2557.05
2618.9
2932.99
2969.62
2917.29
2913.41
2932.46
2959.98
2981.8
2998.65
3006.06
3005.16
3006.48
3005.93
3014.94
3012.35
3029.04
3018.5
3040.55
3031.68
3033.62
3020.05
2981.16
2929.13
2900.04
2921.16
2966.63
3063.09
3118.27
3119.74
3068.27
2790.6
2976.63
2942.87
2915.1
2902.4
2892.83
2897.22
2867.57
2872.68
2824.96
2832.24
2789.23
2788.59
2759.45
2764.12
2750.14
2749.49
2744.23
2748.53
2753.41
2765.8
2781.51
2798.28
2799.94
2774.82
2721.63
2745.86
2773.73
2795.75
2790.8
2787.42
2652.56
2655.63
2675.02
2681.88
2678.78
2671.61
2664.4
2658.89
2654.91
2653
2651.45
2654
2657.48
2668.16
2678.47
2686.83
2694.15
2702.85
2709.08
2694.16
2680.68
2671.55
2666.28
2671.91
2682.31
2703.62
2649.53
2619.63
2631.32
2624.66
2671.82
2813.51
2818.91
2839.37
2819.85
2797.9
2802.91
2776.44
2753.59
2710.55
2668.84
2657.4
2615.12
2612.05
2578.33
2581.64
2543.5
2562.28
2530.93
2562.7
2559.36
2589.66
2617.4
2640.7
2670.13
2695.57
2719.98
2738.46
2734.21
2654.71
2568.04
2591.85
2605.83
2652.34
2641.97
2602.51
2576.36
2562.74
2560.89
2565.55
2578.07
2524.08
2495.75
2443.07
2482.92
2499.49
2525.78
2576.47
2575.94
2584.72
2571.7
2555.28
2540.37
2527.66
2518.41
2561.82
2666.53
2795.52
2818.79
2694.04
2268.64
2347.23
2537.93
2575.65
2482.02
2476
2497.32
2504.6
2511.25
2516.42
2525.23
2527.06
2535.47
2538.81
2549.47
2557.92
2560.68
2570.09
2574.43
2594.72
2627.24
2671.78
2733.48
2748.33
2732.19
2724.29
2761.3
2788.37
2708.36
2649.5
2518.18
2919.57
2781.88
2677.72
2588.57
2597.89
2627.39
2645.67
2680.83
2700.82
2710.96
2707.32
2686.6
2657.92
2610.1
2587.48
2541.04
2537.95
2508.15
2523.74
2533.49
2573.93
2619.42
2648.28
2634.16
2553.55
2507.1
2600
2708.04
2427.57
2709.53
2974.82
2963.07
2967.84
2929.28
2899.35
2876.66
2887.93
2908.26
2947.98
2950.8
2911.47
2867.76
2830.78
2802.96
2805.91
2818.81
2848.35
2880.66
2904.8
2914.66
2916.23
2917.46
2925.64
2909.99
2873.08
2840
2833.77
2853.7
2909.6
2815.78
2930.76
2911.4
2953.42
2979.49
2967.13
2932.32
2884.27
2826.21
2773.56
2731.86
2705.47
2690.76
2681.38
2683.47
2676.97
2684.48
2674.17
2679.47
2685.07
2719.2
2730.71
2773.45
2783.28
2805.88
2810.55
2808.92
2822.63
2865.24
2954.46
2859.67
2947.81
2852.57
2818.65
2789.5
2783.72
2780.99
2781.07
2807.77
2817.88
2844.7
2868.16
2895.34
2914.59
2929.37
2932.91
2927.93
2903.09
2862.74
2813.37
2761.29
2731.2
2731.28
2736.15
2755.26
2848.95
3019.89
2610.02
2365.84
2377.8
2240.29
2289.35
2301.16
2423.25
2637.16
2852.37
2988.33
2861.85
2731.32
2628.46
2560.49
2547.29
2521.98
2527.54
2521.39
2520.89
2515.48
2513.11
2512.66
2525.3
2554.33
2609.48
2666.19
2732.92
2791.25
2926.1
2753.33
2398.32
2289.07
2321.2
3046.55
3059.74
3064.09
3057.08
3058.95
3049.3
3052.35
3044.59
3050.81
3033.79
3031.02
3003.95
2928.54
2652.88
2638.98
2817.5
2792.91
2753.34
2725.06
2713.81
2716.61
2732.78
2760.15
2790.97
2819.47
2847.7
2875.59
2898.87
2926.68
2955.03
2968.13
2968.48
2957.34
2931.77
2908.69
2892.33
2897.57
2914.49
2920.13
2882.86
2800.55
2680.51
2583.13
2611.83
2944.67
2932.01
2884.26
2892.42
2939.63
2983.28
2981.26
2953.97
2933.44
2916.45
2913.77
2914.23
2924.51
2926.02
2938.82
2947.95
2967.95
2980.44
3001.85
3001.07
2990.26
2948.28
2901.8
2884.83
2883.96
2932.38
3058.53
3117.89
3097.74
2861.13
2957.61
2894.77
2911.03
2917.72
2909.09
2898.91
2859
2856.38
2805.52
2816.81
2781.03
2802.04
2781.26
2790.88
2761.62
2758.51
2749.12
2736.95
2736.55
2745.66
2763.07
2786.09
2797.89
2791.77
2757.31
2756.84
2782.04
2804.72
2808.81
2793.07
2626.62
2766.54
2821.68
2819.93
2815.42
2790.72
2762.22
2724.83
2694.33
2674.06
2663.12
2661.84
2676.33
2695.45
2705.36
2713.58
2712.05
2709
2712.13
2712.77
2697.95
2684.21
2683.5
2677.16
2680.46
2689.28
2706.79
2671.22
2665.36
2647.15
2745.72
2812.78
2836.55
2803.84
2786.65
2769.69
2719.09
2676.75
2655.19
2626.3
2588.62
2586.2
2542.49
2540.95
2500.49
2511.88
2465.02
2482.48
2445.87
2462.28
2458.73
2486.3
2507.58
2543.67
2587.94
2637.6
2685.54
2723.79
2740.63
2726.07
2578.07
2601.19
2632.73
2654.04
2608.86
2580.3
2551.59
2550.86
2544.15
2464.39
2377.45
2381.13
2454.35
2498.36
2594.86
2617.81
2651.01
2654.6
2669.78
2650.81
2645.47
2637.79
2613.32
2576.29
2524.67
2498.57
2543.39
2698.9
2826.2
2744.9
2343.9
2508.18
2674.24
2559.05
2534.03
2515.63
2528.14
2543.83
2547.27
2550.47
2558.26
2560.76
2570.76
2592.53
2606.34
2616.97
2614.19
2604.78
2583.33
2587.04
2616.03
2689.86
2743.93
2661.08
2573.3
2547.2
2608.97
2788.5
2795.75
2646.52
2712.55
2802.88
2584.13
2565.9
2575.86
2605.83
2621.12
2646.66
2658.3
2676.7
2703.39
2731.81
2698.48
2708.27
2657.08
2631.2
2572.26
2557.32
2519.69
2533.06
2546.1
2603.02
2641.09
2694.24
2701.04
2642.85
2518.51
2553.2
2781.05
2449.17
2842.92
2974.54
2974.44
2938.63
2916.14
2901.51
2884.05
2864.4
2869.11
2932.07
2939.11
2842.77
2775.88
2738.26
2756.2
2818.37
2886.33
2865.56
2773.12
2706.12
2678.72
2646.5
2631.56
2612.9
2646.55
2785.15
2898.56
2835.76
2823.48
2878.07
2991.14
2944.9
2999.53
3049.14
3020.82
2991.41
3005.67
2969.23
2881.02
2786.76
2724.25
2699.9
2696.18
2713.86
2729.26
2734.35
2735.81
2732.01
2733.25
2745.65
2794.33
2815.13
2874.6
2898.03
2926.41
2914.47
2877.61
2841.31
2852.2
2930.63
3032.33
2881.49
2825
2798.74
2805.9
2816.89
2826.78
2825.09
2853.65
2866.75
2907.69
2933.4
2961.63
2977.89
2996.29
3006.76
3014.43
3017.02
3010.75
2978.7
2885.91
2792.78
2738.58
2716.38
2715.53
2770.13
2905.68
2979.9
2478.49
2316.04
2255.02
2295.91
2375.03
2630.5
2977.34
2907.65
2756.64
2642.72
2591.06
2586.27
2582.61
2594.96
2592.79
2594.13
2596.55
2593.38
2580.9
2558.99
2529.59
2501.46
2493.27
2536.42
2628.34
2732.41
2789.95
2771.2
2868.98
2774.21
2369.9
2265
3068.24
3039.41
2988.19
2964.8
2977.31
2996.92
3037.08
3035.87
3042.94
3028.49
3033.61
3018.35
2977.51
2696.11
2761.82
2791.41
2725.51
2696.35
2690.38
2700.67
2723.6
2758.73
2796.26
2830.69
2862.68
2896.69
2931.49
2972.85
3008.85
3037.12
3051.56
3050.93
3039.41
3011.9
2962.02
2914.5
2891.25
2903.88
2923.9
2910.53
2848.79
2733.33
2612.98
2598.93
2943.98
2908.27
2881.18
2890.99
2953.09
2978.25
2924.14
2857.74
2810.89
2795.17
2791.93
2797.15
2808.24
2815.56
2826.23
2835.13
2860.06
2884.95
2930.22
2955.13
2960.53
2947.4
2910.05
2882.75
2866.25
2872.35
2961.72
3098.7
3105.79
2907.13
2893.34
2905.51
2929.28
2927.07
2902.41
2870.09
2838.74
2819.17
2755.25
2775.53
2723.84
2749.62
2742.01
2773.14
2781.22
2772.55
2753.37
2742.3
2731.47
2731.04
2748.68
2772.97
2795.66
2794.42
2786.94
2776.09
2782.72
2807.22
2821.13
2804.43
2712.79
2811.23
2771.3
2759.2
2761.8
2773.55
2781.74
2775.2
2715.94
2664.53
2642.69
2657.38
2691.8
2706.59
2708.62
2709.17
2717.77
2722.54
2720.28
2724.9
2708.01
2704.2
2693.63
2690.34
2682.02
2691.79
2704.41
2705.47
2682.29
2660.9
2778.82
2817.35
2818.74
2787.03
2758.95
2700.3
2670.95
2660.48
2643.64
2631.18
2596.19
2592.5
2560.5
2568.34
2540.88
2555.75
2528.45
2546.19
2512.85
2517.53
2512.45
2513.19
2520.42
2535.04
2559.48
2602.49
2657.64
2711.77
2750.9
2743.64
2554.93
2611.18
2657.47
2642.32
2601.08
2556.05
2548.31
2528.1
2420.65
2391.24
2430.8
2537.11
2550.16
2579.18
2596.82
2617.91
2645.15
2665.6
2625.47
2630.36
2620.28
2625.93
2621.97
2612.58
2576.3
2526.15
2525.46
2652.67
2833.4
2748.15
2420.46
2694.44
2646.67
2563.69
2559.54
2585.57
2561.36
2555.42
2548.86
2524.28
2521.69
2511.55
2541.04
2562.08
2606.15
2645.84
2666.24
2656.45
2622.75
2595.26
2616.2
2745.42
2752.64
2609.01
2552.88
2554.87
2581.79
2709.75
2820.8
2689.79
2952.42
2632.13
2537.15
2544.96
2575.1
2581.95
2588.6
2574.38
2575.81
2594.93
2643.4
2668.58
2713.08
2714.19
2704.86
2658.45
2617.33
2590.88
2597.87
2637.5
2672.62
2742.81
2754.67
2765.35
2754.81
2703.38
2554.11
2504.43
2697.31
2483.02
2894.81
2976.39
2978.52
2966.92
2986.36
2989.56
2964.81
2900.76
2856.63
2888.13
2934.7
2809.52
2710.95
2704.71
2760.04
2866.65
2893.02
2793.63
2707.44
2689.58
2695.5
2695.01
2651.06
2575.8
2477.45
2516.68
2737.04
2866.41
2800.42
2846.35
3002.56
2977.7
3063.83
3034.46
2994.27
2965.08
2960.76
2981.54
2870.55
2758.46
2709.87
2699.63
2733.53
2767.77
2787.58
2797.85
2777.67
2777.09
2754.58
2767.8
2789.73
2834.96
2887.55
2882.47
2847.15
2872.75
2949.59
2901.65
2864.89
2916.58
2995.91
2847.86
2806.48
2806.69
2822.23
2835.46
2829.61
2831.14
2842.8
2864.98
2892.28
2928.86
2946.44
2960.05
2985.75
3017.66
2937.32
2897.8
2927.63
3005.71
2989.5
2876.44
2771.08
2715.82
2697.63
2706.18
2768.29
2924.59
2799.04
2291.3
2262.35
2311.3
2497.91
2931.18
2875.71
2720.14
2624.61
2587.81
2605.17
2622.51
2638.72
2643.39
2640.27
2641.77
2637.16
2634.86
2633.41
2627
2604.63
2562.52
2512.15
2496.86
2603.83
2761.51
2865.24
2856.71
2807.7
2917.95
2503.24
2234.23
3048.3
2959.47
2913.96
2905.2
2916.87
2918.79
2964.86
3006.01
3031.05
3016
3028.62
3033.05
3005.07
2762.01
2824.41
2743.98
2692.99
2676.83
2696.19
2728.05
2758.96
2782.99
2798.97
2811.14
2827.91
2855.69
2904.89
2975
3030.1
3051.03
3055.09
3057.51
3052.43
3038.76
3000.78
2934.32
2895.34
2894.98
2920.16
2920.93
2867.4
2767.8
2635.82
2608.16
2938.9
2905.81
2879.59
2887.51
2951.56
2951.83
2861.12
2774.31
2738.42
2728.43
2737.38
2746.21
2764.41
2771.27
2786.64
2791.78
2808.73
2823.4
2863.72
2895.83
2917.64
2912.88
2899.92
2878.64
2859
2844.38
2890.4
3049.11
3104.84
2941.04
2882.69
2924.66
2938.27
2926.52
2890.54
2868.1
2842.5
2790.75
2734.84
2750.88
2688.91
2719.97
2700.36
2741.65
2756.69
2774.13
2762.74
2749.87
2731.27
2727.02
2734.91
2764.81
2787.73
2796.75
2789.03
2788.29
2794.73
2804.72
2817.7
2812.49
2782.13
2764.51
2718.22
2714.89
2718.42
2734.18
2760.23
2773.14
2696.58
2629.14
2629.05
2675.56
2706.59
2698.38
2705.73
2712.31
2715.66
2727.56
2723.52
2722.85
2725.34
2713.91
2710.87
2701.65
2693.83
2686.46
2698.43
2713.26
2697.98
2666.35
2789.98
2818.09
2793.43
2760.91
2707.82
2684.16
2688.61
2683.87
2668.42
2657.53
2625.6
2630.86
2617.09
2646.99
2643.15
2673.94
2659.71
2678.39
2643.58
2665.47
2631
2620.33
2598.25
2592.14
2588.95
2606.51
2647.81
2702.47
2745.25
2753.78
2552.85
2622.96
2653.19
2615.72
2569.71
2541.17
2529.8
2463.53
2440.98
2486.63
2522.09
2536.15
2539.82
2541.21
2567.43
2580.3
2632.54
2652.02
2582.08
2565.97
2607.95
2623.72
2650.84
2679.61
2645.3
2587.72
2565.16
2673.77
2833.92
2733.83
2480.74
2747.67
2632.57
2593.71
2606.08
2607
2598.94
2538
2504.75
2484.99
2474.11
2460.95
2492.91
2497.74
2554.1
2610.08
2670.32
2706.38
2674.06
2600.19
2615.29
2730.29
2694.63
2582.58
2565.39
2567.9
2609.38
2781.29
2874.59
2708.82
2986.13
2572.94
2518.41
2543.73
2549.11
2547.16
2513.9
2496.32
2485.72
2509.05
2542.6
2612.39
2676.98
2734.52
2730.25
2697.94
2645.8
2643.16
2699.62
2803.59
2871.59
2801.85
2710.72
2722.56
2810.48
2794.74
2621.52
2493.26
2619.35
2566.44
2909.51
2979.18
2981.55
3000.3
2998.77
2989.84
2996.9
2957.64
2846.72
2833.6
2934.05
2772.11
2675.2
2662.58
2759.64
2879.37
2891.14
2777.43
2753.04
2807.34
2874.22
2885.87
2804.87
2660.92
2493.49
2397.46
2529.83
2871.1
2782.07
2810.28
2989.29
3004.18
3071.73
3055.68
3033.8
2993.53
2973.17
2963.26
2824.72
2724.79
2703.28
2726.77
2792.04
2849.2
2884.84
2900.65
2867.48
2852.27
2817.54
2805.36
2804.47
2827.46
2883.01
2852.36
2733.69
2687.75
2805.97
2944.64
2885.62
2908.58
2952.67
2821.2
2805.05
2822.27
2849.2
2854.06
2853.8
2847.26
2846.03
2854.46
2886.59
2910.89
2927.78
2926.83
2969.78
2993.28
2803.75
2752.62
2810.79
2910.7
3023.19
2932.16
2811.54
2725.41
2694.6
2664.22
2669.49
2784.95
3023.26
2301.86
2269.77
2345.75
2686.22
2934.05
2727.79
2621.35
2588.96
2611.97
2636.81
2668.63
2687.9
2695.19
2705.31
2701.65
2685.57
2660.91
2646.68
2638.85
2640.55
2621.07
2569.77
2516.78
2545.75
2758.04
2916.24
2940.21
2854.71
2882.25
2619.51
2238.82
3024.11
2916.95
2901.44
2914.18
2921.47
2907.25
2912.63
2939.42
2985.3
2990.49
3014.6
3039.75
3020.09
2816.58
2819.68
2755.85
2718.41
2701.21
2736.14
2784.8
2821.21
2827.11
2815.54
2793.06
2778.34
2783.82
2835.74
2934.28
3019.45
3046.57
3045.47
3037.51
3026.22
3009.25
2976.77
2926.46
2885.57
2890.24
2915.35
2922.49
2873.45
2782.89
2649.98
2595.48
2944.12
2902.36
2873.44
2890.77
2944.66
2936.94
2839.42
2758.76
2724.07
2728.96
2753.52
2786.1
2813.49
2835.48
2843.96
2848.37
2833.45
2817.95
2808.47
2838.17
2863.22
2873.72
2871.15
2861.05
2844.92
2824.91
2851.97
2997.04
3101.48
2950.23
2889.86
2931.91
2939.98
2919.41
2893.89
2888.65
2845.86
2784.46
2736.17
2736.98
2705.08
2708.12
2699.29
2727.95
2743.65
2768.9
2767.68
2751.22
2736.75
2725.66
2740.02
2767.08
2794.12
2801.63
2798.26
2787.38
2791.76
2799.79
2808.43
2817.63
2770.65
2734.88
2686.73
2690.13
2708.93
2733.2
2762.64
2744.21
2630.3
2599.24
2649.88
2706.31
2699.09
2710.65
2713.92
2720.58
2723.52
2732.12
2724.21
2733.71
2724.13
2725.82
2718.6
2714.62
2700.17
2691.46
2695.87
2713.77
2700.34
2668.77
2783.62
2811.42
2771.81
2730.62
2700.08
2706.27
2711.39
2708.97
2691.05
2675.52
2650.37
2667.48
2673.54
2721.2
2719.2
2757.61
2714.9
2728.52
2694.95
2695.56
2695.28
2689.76
2680.09
2665.64
2641.24
2637.83
2656.72
2699.78
2742.73
2758.49
2544.1
2628.67
2639.95
2600.45
2545.37
2528.15
2514.32
2492
2500.25
2515.76
2498.89
2510.41
2512.63
2525.9
2547.2
2566.78
2603.58
2654.61
2525.69
2549.25
2645.14
2690.51
2742.84
2772.62
2761.98
2676.53
2632.14
2735.3
2831.4
2690.13
2554.39
2748.71
2628.7
2601.78
2633.42
2629.24
2578.03
2547.51
2478.94
2471.35
2472.64
2464.23
2482.87
2482.03
2515.4
2542.45
2643.23
2731.75
2713.19
2658.85
2621.97
2782.12
2757.74
2675.16
2755.64
2775.83
2829.79
2921.74
2859.42
2727.24
2912.08
2543.22
2515.97
2526.15
2523.88
2485.51
2459.8
2429.6
2448.05
2441.44
2469.79
2528.32
2645.61
2727.12
2763.94
2723.91
2678.1
2685.1
2804.41
2886.13
2642.49
2504.62
2443.44
2423.47
2474.14
2655.38
2760.24
2520.67
2556.89
2680.3
2926.17
2970.18
2984.79
3004.9
2984.9
2975.12
2977.98
2976.53
2854.58
2791.46
2903.03
2765.26
2630.5
2622.42
2751.16
2896.96
2813.29
2743.87
2795.66
2923.83
2931.27
2925.3
2873.45
2649.32
2436.67
2339.72
2421.54
2783.46
2762.53
2776.57
2972.7
3017.13
3075.26
3070.07
3047.4
3012.14
2990.11
2931.31
2775.69
2702.1
2705.22
2775.58
2875.94
2962.76
2941.8
2866.43
2790.66
2818.86
2842.37
2860.11
2841.73
2855.47
2874.58
2836.22
2691.35
2601.65
2668.01
2888.68
2911.01
2909.72
2919.29
2807.53
2808.3
2849.9
2882.23
2903.44
2904.04
2886.84
2864.52
2853.5
2864.91
2901.35
2912.52
2905.45
2928.68
3012.6
2764.57
2717.74
2784.99
2902.62
3016.67
2950.74
2828.79
2737.04
2680
2633.48
2598.97
2676.59
2968.66
2339.72
2272.62
2403.79
2915.31
2809.21
2637.62
2584.05
2602.63
2637.57
2684.27
2738.2
2779.97
2822.78
2844.25
2831.11
2798.89
2742.79
2688.08
2654.37
2642.46
2641.31
2612.3
2551.47
2528.78
2732.2
2945.21
2994.43
2893.35
2894.39
2743.03
2248.63
3004.44
2895.82
2908.39
2945.78
2954.49
2936.64
2900.96
2902.04
2924.63
2951.14
2984.43
3040.35
3032.15
2895.28
2808.41
2838.8
2785.92
2744.05
2783.19
2846.12
2886.26
2889.98
2858.78
2806.5
2749.28
2724.09
2766.22
2891.73
3010.59
3037.52
3023.31
2975.3
2942.9
2931.19
2919.75
2893.25
2882.62
2892.58
2923.2
2919.65
2871.02
2791.67
2665.84
2604.35
2962.67
2892.47
2859.5
2888.77
2933.21
2932.29
2862.59
2805.37
2795.53
2822.02
2868.29
2896.25
2900.92
2906.91
2918.43
2923.87
2927.43
2917.84
2851.13
2801.19
2808.41
2826.23
2832.09
2834.28
2824.53
2806.02
2825.22
2962.96
3097.38
2959.94
2895.8
2937.32
2937.09
2921.03
2906.28
2894.55
2852.5
2782.44
2741.14
2741.64
2726.66
2734.77
2726.64
2739.93
2756.15
2767.92
2756.83
2751.93
2732.89
2734.6
2744.56
2774.19
2797.03
2804.31
2800.42
2792.22
2786.23
2794.39
2802.89
2816.73
2771.76
2708.23
2673.07
2693.78
2725.74
2755.05
2748.49
2638.18
2564.44
2598.28
2688.9
2696.49
2713.3
2720.38
2730.77
2729.27
2734.14
2728.55
2736.18
2727.86
2735.18
2728.23
2732.21
2718.49
2705.47
2689.67
2693.65
2708.47
2703.64
2669.65
2782.35
2793.59
2754.68
2719.95
2721.97
2737.39
2743.36
2736.65
2709.04
2694.46
2669.6
2694.76
2714.57
2767.81
2751.76
2778.17
2707.7
2729.43
2673.62
2682.57
2682
2688.16
2699.21
2701.53
2688.01
2673.13
2672.83
2703.35
2740.16
2759.48
2539.04
2624.99
2618.75
2579.07
2528.86
2517.72
2507.1
2506.66
2487.3
2491.31
2484.25
2496.68
2521.8
2542.87
2570.73
2573.63
2596.11
2652.32
2503.63
2515.2
2675.99
2715.61
2720.63
2764.39
2800.28
2759.3
2721.69
2807.41
2821.15
2610.84
2607.54
2748.09
2624.62
2610.6
2630.97
2634.22
2561.85
2538.9
2499.21
2490.06
2481.49
2480.9
2501.14
2501.13
2498.87
2529.62
2600
2710.53
2770.91
2679.82
2615.49
2834.46
2758.44
2826.17
2949.89
2960.91
2947.7
2909.4
2811.98
2726.17
2845.26
2522.16
2498.24
2512.93
2488.49
2462.04
2415.39
2419.25
2408.58
2424.17
2420.7
2474.81
2595.7
2732.61
2782.18
2751.88
2691.93
2714.06
2873.73
2716.58
2515.63
2446.71
2437.41
2404.33
2375.81
2399.68
2738.6
2610.58
2529.26
2811.78
2884.36
2945.07
2986.95
2971.53
2954.67
2942.75
2936.12
2973.09
2884.85
2735.7
2875.94
2733.84
2582.87
2600.37
2789.87
2879.65
2715
2703.82
2854.97
2927.55
2918.2
2880.89
2841.55
2536.96
2296.8
2227.52
2344.29
2713.01
2738.82
2749.74
2953.18
3016.49
3072.02
3063.28
3035.72
3015.37
2987.33
2901.14
2741.45
2689.34
2710.33
2838.31
2968.08
2896.56
2750.73
2709.23
2640.86
2659.31
2672.46
2749.23
2827.87
2849.66
2853.29
2793.82
2668.19
2564.62
2608.5
2795.53
2924.33
2905.91
2873.48
2773.58
2808.06
2875.06
2936.8
2970.44
2970.42
2940.76
2906.62
2862.45
2860.11
2887.42
2914.38
2886.65
2877.03
2977.33
2880.99
2755.68
2838.43
2942.68
3020.64
2939.81
2823.78
2735.67
2676.96
2615.74
2569.37
2614.85
2863.24
2411.91
2282.34
2493.45
2980.41
2717.99
2599.67
2588.15
2617.76
2674.3
2751.64
2820.2
2909.21
2977.35
2982.38
2965.23
2927.61
2852.06
2769.84
2694.26
2652.99
2645.65
2633.84
2580.96
2547.29
2759.69
2976.71
2994.42
2930.77
2945.89
2665.14
2265.45
2990.94
2880.66
2922.37
2977.32
3008.74
3002.45
2963.81
2943.87
2950.19
2963.03
2989.69
3041.63
3040.2
2929.59
2867.26
2958.77
2884.72
2800.74
2825.69
2886.56
2925.21
2925.77
2889.66
2818.22
2734.47
2678.8
2694.41
2827.61
2972.53
3021.72
3010.33
2953.1
2896.37
2877.84
2866.68
2864.29
2869.5
2897.41
2929.02
2920.94
2876.66
2808.9
2680.32
2586.61
2971.57
2859.11
2840.63
2883.83
2918.81
2932.89
2897.9
2877.49
2883.99
2876.75
2869.68
2864.64
2871.87
2895.81
2920.15
2939.18
2948.72
2937.94
2931.74
2919.86
2837.47
2813.46
2798.31
2799.54
2802.29
2785.69
2815.31
2945.04
3098.27
2954.26
2907.61
2946.2
2936.23
2918.41
2905.73
2900.38
2856.21
2790.7
2741.59
2750.75
2762.64
2764.32
2757.07
2773.24
2761.1
2766.4
2758.53
2751.89
2751.76
2752.95
2776.22
2797.28
2803.75
2798.81
2804.77
2789.83
2790.42
2791.23
2801.07
2805.23
2743.29
2679.2
2674.02
2718.53
2750.05
2741.6
2632.88
2553.66
2539.42
2623.22
2696.92
2700.82
2710.24
2718.7
2722.11
2725
2727.49
2733.61
2725.37
2732.97
2731.04
2735
2726.87
2721.07
2700.63
2687.07
2690.27
2713.83
2690.14
2665
2784.72
2778.34
2745.92
2732.5
2755.8
2775.53
2778.88
2761.1
2731.83
2707.09
2681.89
2716.43
2736.47
2789.92
2765.87
2757.13
2704.7
2706.56
2667.25
2660.61
2664.57
2678.05
2693.75
2712.91
2712.22
2695.96
2692.99
2712.11
2744.31
2761.08
2538.4
2625
2603.23
2557.43
2514.21
2506.33
2503.77
2500.3
2482.02
2492.74
2498.26
2529.05
2555.37
2584.37
2599.9
2595.21
2597.95
2655.7
2475.8
2473.96
2652.87
2713.42
2712.62
2745.36
2784.2
2811.49
2817.89
2815.42
2801.08
2490.2
2629.42
2730.51
2624.53
2607.07
2624.52
2617.58
2557.19
2537.13
2500.16
2514.93
2488.97
2491.76
2512.27
2506.12
2528.66
2527.88
2565.44
2714.49
2784.91
2716.03
2676.38
2865.6
2853.38
2961.74
2884.71
2862.88
2862.57
2822.98
2787.51
2776.84
2810.01
2510.37
2494.7
2492.85
2469.75
2421.62
2409.17
2394.89
2403.74
2398.33
2405.92
2430.84
2561.48
2737.83
2814.35
2763.41
2696.85
2724.99
2900.66
2625.52
2496.88
2485.25
2519.59
2546.42
2472.78
2361.95
2469.54
2747.66
2542.44
2793.98
2873.71
2949.6
2971.81
2967.26
2976.47
2969.18
2939.34
2944.64
2889.87
2715
2844.79
2719.14
2561.13
2606.83
2831.84
2793.67
2639.62
2667.83
2828.71
2930.46
2919.16
2873.11
2827.94
2591.85
2298.33
2249.78
2364.87
2734.22
2711.23
2747.21
2940.85
3007.57
3059.17
3044.46
3016.78
3001.41
2976.82
2874.1
2710.53
2673.52
2733.97
2901.75
2955.12
2776.43
2706.77
2659.33
2617.53
2599.17
2595.49
2634.5
2695.38
2731.24
2768.19
2697.74
2639.53
2548.1
2571.7
2762.95
2926.83
2911.55
2859.94
2786.93
2842.79
2922.13
2991.16
3026.71
3027.55
2996.92
2936.37
2894.65
2859.91
2877.26
2920.64
2900.82
2846.48
2881.3
2998.02
2929.23
2938.29
3019.51
2988.59
2904.19
2805.48
2726.47
2655.01
2588.93
2538.96
2581.88
2904.81
2408.31
2293.07
2610.27
2894.81
2659.06
2592.47
2589.52
2638.67
2717.09
2812.91
2905.82
3021.08
3061.15
3059.03
3032.62
3004.59
2943.63
2851.65
2752.62
2677.67
2652.95
2645.97
2598.96
2547.24
2677.98
2983.62
2999.57
2989.12
2899.95
2565.26
2402.74
2981.63
2868.18
2920.55
2998.47
3050.26
3062.51
3049.83
3043.24
3037.84
3037.43
3037.9
3052.67
3045.47
2999.44
3006.13
3023.32
3029.95
3037.63
2983.61
2868.49
2866.27
2901.84
2930.95
2932.03
2896.74
2828.94
2733.49
2648.05
2635.51
2745.64
2918.36
3004.25
2998.21
2956.07
2899.08
2873.03
2873.15
2880.5
2896.74
2928.4
2941.78
2916.26
2864.85
2775.49
2625.21
2565.75
2671.17
2842.46
2949.75
2746.15
2810.11
2885.43
2903.03
2919.48
2894.92
2868.87
2854.42
2830.91
2821.77
2818.83
2833.73
2856.09
2900.52
2931.19
2952.69
2944.37
2930
2915.14
2935.23
2866.85
2808.56
2793.6
2782.71
2782.37
2800.99
2942.79
3088.88
2999.69
2917.13
2894.21
2922.31
2941.79
2935.56
2915.23
2904.47
2899.46
2869.27
2797.47
2746.04
2758.75
2775.16
2780.19
2781.05
2772.01
2768.24
2761.06
2764.77
2771.03
2774.6
2789.06
2803.58
2804.43
2798.95
2802.61
2799.04
2792.76
2787.45
2768.49
2756.83
2771.97
2731.13
2704.89
2741.25
2671.91
2691.3
2738.77
2737.53
2636.5
2545.81
2512.66
2529.62
2633.3
2691.78
2689.68
2698.52
2710.13
2722.71
2723.14
2726.93
2722
2729.86
2725.97
2733.99
2723.47
2719.84
2702.22
2686.55
2682.21
2698.87
2711.56
2677.18
2673.19
2725.53
2743.38
2760.01
2752.85
2740.22
2765.6
2784.52
2802.51
2799.28
2784.54
2749.55
2714.69
2700.97
2713.17
2746.85
2798.84
2761.42
2742.3
2725.78
2697.92
2686.24
2665.21
2671.15
2679.35
2702.53
2716.73
2716.92
2711.1
2705.51
2723.5
2747.93
2763.57
2655.29
2547.54
2522.83
2613.38
2592.89
2544.2
2506.26
2507.47
2505.17
2505.74
2505.7
2526.87
2546.92
2578.25
2601.93
2621.75
2631.29
2619.68
2615.04
2647.66
2496.82
2418.94
2530.14
2677.44
2735.76
2738.3
2763.09
2790.21
2796.69
2789.46
2711.78
2440.88
2419.37
2469.63
2552.97
2779.43
2652.01
2609.68
2622.8
2609.05
2560.01
2536.44
2505.33
2505.7
2488.41
2498.1
2499.99
2529.55
2532.2
2516.72
2595
2700.73
2792.45
2762.65
2690.04
2908.5
2956.22
2895.5
2804.19
2800.53
2813.85
2862.05
2893.61
2858.71
2800.98
2862.18
2685.72
2480.82
2466.91
2475.31
2451.44
2422.49
2394.54
2410.48
2400.92
2412.26
2392.45
2415.75
2548.05
2763.93
2849.44
2768.77
2680.03
2735.98
2898.41
2599.34
2498.96
2543.37
2644.44
2654.29
2606.55
2447.39
2376.47
2836.05
2577.71
2762.77
2860.22
2795.31
2832.87
2902.91
2939.24
2956.79
2973.25
2958.03
2923.73
2906.32
2913.13
2702.75
2813.61
2702.56
2540.46
2618.96
2868.59
2732.61
2575.87
2584.76
2687.22
2791.29
2861.31
2889.7
2837.36
2784.01
2556.94
2384.1
2489.94
2791.29
2700.96
2743
2854.39
2922
2902.82
2990.01
3056.06
3043.73
3007.45
2997.29
2978.98
2847.82
2687.99
2659.35
2749.08
2935.28
2881.72
2760.08
2702.46
2684.35
2612.68
2595.71
2568.78
2564.04
2617.79
2621.37
2673.59
2629.29
2603.59
2532.86
2592
2776.12
2924.85
2917.07
2992.06
2919.42
2771.25
2730.62
2820.98
2938
3030.89
3067.25
3071.51
3039.66
2988.82
2926.81
2877.09
2863.94
2924.34
2943.39
2845.41
2810.75
2865.33
2946.77
2984.51
2971.73
2914.98
2831.91
2747.89
2667.82
2604.36
2570.16
2559.3
2587.91
2769.1
2977.01
2683.22
2355.98
2342.09
2803.73
2812.07
2628.14
2587.46
2597.33
2656
2751.05
2844.52
2975.35
3068.44
3089.07
3082.39
3061.22
3025.01
2985.53
2906.83
2801.27
2706.6
2664.38
2654.42
2607.43
2554.17
2666.56
2967.57
2970.98
2965.26
2969.91
2961.27
2856.98
2503.18
2492.29
2978.58
2854.02
2906.24
2994.57
3060.21
3057.24
3042
3046.84
3049.94
3044.24
3048.55
3055.15
3050.95
3035.29
3032.72
3039.93
3060.12
3060.67
3036.06
2940.45
2915.44
2928.15
2933.19
2926.79
2898.53
2846.4
2753.52
2641.26
2584.95
2650.3
2817.15
2967
3002.74
2985.44
2954.57
2925.76
2907.93
2918.1
2939.04
2954.48
2939.25
2904.02
2847.36
2766.95
2591.2
2528.49
2532.31
2671.22
2801.37
2560.48
2685.15
2875.2
2884.73
2910.4
2896.92
2851.78
2823.99
2805.11
2783.55
2779.96
2783.06
2810.79
2849.88
2908.2
2946.5
2947.24
2921.03
2888.05
2922.89
2929.18
2861.71
2808.8
2795.97
2775.82
2808.26
2977.21
3081.47
3004.61
2904.47
2908.35
2931.68
2935.93
2934.57
2918.3
2902.77
2900.17
2887.47
2833.22
2766.19
2762.86
2766.89
2782.46
2779.14
2787.05
2786.65
2795.2
2797.75
2801.18
2804.73
2802.71
2803.62
2800.71
2799.82
2790.82
2774.94
2725.74
2665.91
2633.42
2668.52
2726.37
2750.23
2763.81
2674.68
2666.52
2702.57
2742.35
2695.86
2576.67
2514.44
2492.65
2519.98
2598.66
2672.08
2674.62
2675.82
2686.43
2692.74
2707.32
2710.54
2713.93
2709.24
2710.03
2707.54
2703.84
2686.1
2679.49
2677.77
2690.03
2714.38
2689.19
2672.44
2713.47
2769.16
2760.05
2754.61
2756.22
2762.74
2790.07
2813.35
2813.05
2810.76
2790.47
2761.47
2730.32
2697.56
2703.63
2764.64
2778.37
2768.81
2764.18
2733.51
2704.57
2712.7
2696.82
2695.14
2704.59
2713.72
2716.4
2721.74
2717.75
2721.22
2739.29
2761.25
2769.16
2630.87
2535.03
2535.28
2612.26
2592.18
2539.63
2516.96
2526.03
2528.84
2544.73
2550.21
2582.66
2592.28
2613.79
2619.09
2631.56
2637.13
2644.68
2626.15
2637.08
2570.26
2380.36
2371.46
2443.08
2554.06
2662.94
2748.42
2758.9
2740.27
2558.99
2388.73
2398.73
2578.43
2706.4
2718.18
2752.18
2646.36
2602.4
2610.97
2611.35
2564.37
2551.01
2510.66
2513.2
2491.03
2502.09
2520
2533.4
2513.74
2555.6
2583.53
2707.24
2820.93
2753.94
2727.16
2946.41
2973.38
2850.68
2791.89
2815.88
2894.28
2866.96
2885.19
2901.29
2838.97
2749.53
2587.18
2447.05
2464.82
2469.76
2446.99
2419.92
2408.75
2394.86
2402.77
2410.21
2389.03
2418.57
2569.75
2805.33
2869.23
2762.48
2667.1
2748.67
2884.9
2616.02
2532.49
2594.16
2729.21
2754.47
2645.77
2537.24
2409.47
2741.7
2618.63
2763.31
2898.8
2752.38
2874.74
2917.03
2967.85
2982.2
2994.72
2998.9
2943.75
2898.76
2929.38
2677.73
2806.23
2702.1
2538.03
2620.8
2875.97
2701.08
2519.07
2487.59
2529.91
2597.84
2668.2
2756.45
2851.89
2817.56
2758.15
2756.06
2745.31
2764.77
2697.29
2762.47
2856.9
2975.84
2946.23
3003.27
3054.89
3034.34