/*--------------------------------*- C++ -*----------------------------------*\
| =========                 |                                                 |
| \\      /  F ield         | OpenFOAM: The Open Source CFD Toolbox           |
|  \\    /   O peration     | Version:  2.1.1                                 |
|   \\  /    A nd           | Web:      www.OpenFOAM.org                      |
|    \\/     M anipulation  |                                                 |
\*---------------------------------------------------------------------------*/
FoamFile
{
    version     2.0;
    format      ascii;
    class       volScalarField;
    location    "0.007450000";
    object      H;
}
// * * * * * * * * * * * * * * * * * * * * * * * * * * * * * * * * * * * * * //

dimensions      [0 0 0 0 0 0 0];

internalField   nonuniform List<scalar> 
12384
(
0.000129932
0.000117315
0.000104975
9.45097e-05
8.76217e-05
8.64506e-05
8.95415e-05
9.64352e-05
0.000106177
0.000119028
0.000131733
0.000150413
0.000164808
0.000192276
2.01947e-05
2.27796e-05
2.24917e-05
2.38904e-05
2.5682e-05
3.16469e-05
4.00738e-05
4.50289e-05
5.15081e-05
5.45616e-05
5.4797e-05
5.37955e-05
5.20222e-05
4.9527e-05
4.63555e-05
4.28699e-05
3.94699e-05
4.01018e-05
3.85896e-05
3.76213e-05
3.73093e-05
3.74287e-05
3.77943e-05
3.76068e-05
3.78525e-05
3.70717e-05
3.61767e-05
3.38219e-05
2.57412e-05
1.10091e-05
6.42807e-05
7.97116e-05
8.38235e-05
8.33273e-05
8.11103e-05
7.87533e-05
7.58533e-05
7.39747e-05
7.14107e-05
7.0131e-05
6.82801e-05
6.7157e-05
6.60535e-05
6.52638e-05
6.47449e-05
6.42351e-05
6.39851e-05
6.40314e-05
6.39025e-05
6.46176e-05
6.38592e-05
6.50945e-05
6.41847e-05
6.6065e-05
6.7361e-05
6.9133e-05
7.19439e-05
7.9127e-05
7.14002e-05
6.726e-05
8.53758e-05
9.58041e-05
9.23622e-05
8.7117e-05
8.54564e-05
8.37138e-05
8.25496e-05
8.26419e-05
8.17591e-05
8.14316e-05
8.11455e-05
8.08713e-05
8.05618e-05
8.02174e-05
7.98686e-05
7.95553e-05
7.92767e-05
7.92746e-05
7.8464e-05
7.75077e-05
7.85381e-05
7.73791e-05
7.75985e-05
7.81724e-05
7.82649e-05
7.88848e-05
7.89828e-05
7.91738e-05
7.8624e-05
7.4778e-05
9.82811e-05
9.64337e-05
9.61543e-05
9.68749e-05
9.72767e-05
9.82526e-05
9.92182e-05
9.97654e-05
9.92615e-05
9.89628e-05
9.86663e-05
9.86779e-05
9.85193e-05
9.73762e-05
9.73025e-05
9.75363e-05
9.7878e-05
9.92959e-05
0.00010037
0.000101989
0.000103075
0.000102826
9.90204e-05
9.58681e-05
9.20925e-05
9.33969e-05
9.39065e-05
9.34242e-05
9.26082e-05
9.07628e-05
9.45694e-05
9.52754e-05
9.55167e-05
9.54675e-05
9.62182e-05
9.62156e-05
9.64461e-05
9.7144e-05
9.67234e-05
9.65461e-05
9.64133e-05
9.62553e-05
9.60561e-05
9.58433e-05
9.53328e-05
9.4788e-05
9.39754e-05
9.29315e-05
9.20786e-05
9.20579e-05
9.12266e-05
9.18642e-05
9.24973e-05
9.23231e-05
9.39654e-05
9.46859e-05
9.54126e-05
9.74765e-05
0.00010003
0.000101995
7.00395e-05
7.34172e-05
7.30291e-05
7.47339e-05
7.7812e-05
8.05103e-05
8.21558e-05
8.22416e-05
8.20351e-05
8.11731e-05
7.97978e-05
7.78662e-05
7.60912e-05
7.38621e-05
7.15823e-05
7.01233e-05
6.86903e-05
6.70298e-05
6.65911e-05
6.60633e-05
6.6512e-05
6.6449e-05
6.69214e-05
6.71008e-05
7.06675e-05
5.84108e-05
2.18813e-05
2.14097e-05
2.32166e-05
2.73527e-05
8.73665e-05
9.3163e-05
9.62395e-05
9.76211e-05
9.94911e-05
9.96938e-05
9.9258e-05
9.85647e-05
9.74529e-05
9.52926e-05
9.56832e-05
9.19841e-05
9.26616e-05
9.17116e-05
9.2282e-05
9.34875e-05
9.53328e-05
9.72831e-05
9.74753e-05
9.73267e-05
9.31926e-05
8.97382e-05
8.91517e-05
8.98792e-05
8.95144e-05
8.99037e-05
8.92062e-05
8.93775e-05
8.84919e-05
8.82532e-05
8.85452e-05
9.07562e-05
9.22829e-05
9.31047e-05
9.29683e-05
9.22395e-05
9.16442e-05
9.11205e-05
8.84061e-05
8.7718e-05
8.73951e-05
8.74295e-05
8.82342e-05
9.01974e-05
9.12494e-05
9.36647e-05
9.54157e-05
9.89574e-05
9.16763e-05
9.06013e-05
9.26798e-05
9.34174e-05
9.4008e-05
9.4855e-05
9.54902e-05
9.53711e-05
9.57003e-05
9.58671e-05
8.92547e-05
8.26038e-05
8.19146e-05
8.09535e-05
8.05945e-05
8.08759e-05
8.14602e-05
8.16565e-05
8.10273e-05
7.98428e-05
7.87698e-05
7.64619e-05
7.43924e-05
7.39847e-05
7.48104e-05
7.34774e-05
7.45063e-05
7.78577e-05
7.90083e-05
8.02055e-05
8.62131e-05
8.5993e-05
8.46444e-05
8.5913e-05
8.63441e-05
8.63912e-05
8.79388e-05
8.80218e-05
8.84001e-05
8.8028e-05
8.83137e-05
8.80752e-05
8.37369e-05
8.39679e-05
8.52184e-05
8.61252e-05
8.65573e-05
8.582e-05
8.44279e-05
8.29963e-05
8.01913e-05
7.81015e-05
7.79336e-05
7.73859e-05
7.65918e-05
7.64513e-05
7.49561e-05
6.58385e-05
6.16759e-05
6.15453e-05
5.90913e-05
5.74856e-05
5.75199e-05
5.57098e-05
5.58365e-05
5.57131e-05
5.59178e-05
5.5869e-05
5.57762e-05
5.57802e-05
5.53821e-05
5.53526e-05
5.67319e-05
5.70181e-05
5.65025e-05
5.71951e-05
5.61086e-05
5.60918e-05
5.62729e-05
5.617e-05
5.63029e-05
5.60084e-05
5.61844e-05
5.61329e-05
5.53671e-05
5.7769e-05
5.73795e-05
5.83629e-05
5.86827e-05
6.05147e-05
6.05474e-05
6.259e-05
6.24561e-05
6.32341e-05
6.28033e-05
6.4228e-05
6.40701e-05
6.51955e-05
6.5806e-05
6.68102e-05
6.67615e-05
6.47122e-05
6.01544e-05
6.00496e-05
5.9297e-05
5.91289e-05
5.71172e-05
5.71662e-05
5.64909e-05
5.25188e-05
5.08791e-05
5.03323e-05
4.8892e-05
4.8874e-05
4.65624e-05
4.66981e-05
4.60769e-05
4.60081e-05
4.51616e-05
4.48928e-05
4.43466e-05
4.42179e-05
4.39158e-05
4.427e-05
4.41966e-05
4.48072e-05
4.36092e-05
4.47903e-05
4.578e-05
4.83134e-05
5.03406e-05
4.77055e-05
9.36638e-05
7.99041e-05
6.10594e-05
5.24654e-05
5.21098e-05
5.5147e-05
6.02485e-05
6.50212e-05
7.06209e-05
7.59115e-05
9.50078e-05
0.000121791
0.000155797
0.000189209
2.0544e-05
2.27065e-05
2.23556e-05
2.44003e-05
3.04014e-05
4.58573e-05
6.39405e-05
7.68312e-05
7.5068e-05
7.08569e-05
6.46938e-05
5.94796e-05
5.66547e-05
4.74842e-05
3.73484e-05
3.42621e-05
3.02716e-05
2.83026e-05
2.75563e-05
2.75846e-05
2.75373e-05
2.78047e-05
2.91156e-05
3.11184e-05
3.33467e-05
3.49669e-05
3.57688e-05
3.38929e-05
3.29217e-05
1.90074e-05
6.62273e-05
8.11994e-05
8.42914e-05
8.25692e-05
7.91027e-05
7.51319e-05
7.09279e-05
6.76101e-05
6.45297e-05
6.17377e-05
6.23374e-05
6.0523e-05
5.97999e-05
5.98033e-05
6.03195e-05
6.13925e-05
5.96949e-05
6.03332e-05
6.10197e-05
6.13243e-05
6.14104e-05
6.11869e-05
6.43254e-05
6.51378e-05
6.33529e-05
6.56228e-05
6.83215e-05
7.5049e-05
7.80342e-05
7.39015e-05
8.88557e-05
9.43769e-05
8.87629e-05
8.46057e-05
8.36018e-05
8.39054e-05
8.44653e-05
8.40407e-05
8.316e-05
8.20714e-05
8.0616e-05
7.88829e-05
7.73224e-05
7.62164e-05
7.59485e-05
7.60738e-05
7.62996e-05
7.5829e-05
7.49295e-05
7.40688e-05
7.34366e-05
7.25638e-05
7.305e-05
7.31899e-05
7.44549e-05
7.58291e-05
7.71793e-05
7.82298e-05
7.86001e-05
7.72774e-05
9.83656e-05
9.59399e-05
9.53932e-05
9.60586e-05
9.76962e-05
9.87003e-05
9.95593e-05
9.92263e-05
9.88458e-05
0.000103882
0.000102156
9.96889e-05
9.74898e-05
9.67e-05
9.55897e-05
9.51863e-05
9.69312e-05
9.93775e-05
0.000102196
0.000105571
0.000102538
0.000103113
9.98532e-05
9.78576e-05
9.25911e-05
9.53394e-05
9.52669e-05
9.45116e-05
9.51697e-05
9.65639e-05
9.49618e-05
9.56236e-05
9.61993e-05
9.65723e-05
9.88833e-05
0.000100594
0.000101398
0.000100195
9.79651e-05
9.70539e-05
9.5681e-05
9.50879e-05
9.51019e-05
9.48148e-05
9.45699e-05
9.4277e-05
9.38674e-05
9.42796e-05
9.40337e-05
9.37685e-05
9.4085e-05
9.34581e-05
9.39912e-05
9.55572e-05
9.46903e-05
9.51213e-05
9.63333e-05
9.69975e-05
9.86571e-05
0.00010169
7.02684e-05
7.43583e-05
7.79309e-05
8.66215e-05
8.62841e-05
8.63296e-05
8.51576e-05
8.44776e-05
8.45001e-05
8.5398e-05
8.14069e-05
7.73922e-05
7.44913e-05
7.19125e-05
6.98566e-05
6.83463e-05
6.69452e-05
6.65035e-05
6.55425e-05
6.54987e-05
6.55641e-05
6.60168e-05
6.61568e-05
6.63133e-05
6.68003e-05
6.60799e-05
4.13185e-05
2.32952e-05
2.57433e-05
3.40647e-05
8.71265e-05
9.34258e-05
9.71819e-05
9.99758e-05
0.000100239
9.91323e-05
9.77143e-05
9.62509e-05
9.48829e-05
9.20111e-05
9.14059e-05
9.00035e-05
8.94077e-05
8.94004e-05
8.95853e-05
9.06851e-05
9.14287e-05
9.32331e-05
9.52538e-05
9.68092e-05
9.60807e-05
9.25171e-05
8.98189e-05
8.92637e-05
8.95492e-05
9.00724e-05
8.99182e-05
9.02745e-05
9.03678e-05
9.03181e-05
8.84506e-05
9.07883e-05
9.3458e-05
9.33375e-05
9.19397e-05
8.99112e-05
8.79485e-05
8.45872e-05
8.27958e-05
8.21042e-05
8.54614e-05
8.44475e-05
8.71858e-05
8.37183e-05
8.60149e-05
8.85547e-05
9.21657e-05
9.6272e-05
9.70738e-05
9.23528e-05
9.054e-05
9.09547e-05
9.08635e-05
9.17503e-05
9.30661e-05
9.46042e-05
9.55853e-05
9.87721e-05
9.66925e-05
8.47787e-05
8.08832e-05
7.99199e-05
8.07157e-05
8.27173e-05
8.37371e-05
8.3239e-05
8.1174e-05
7.8605e-05
7.50037e-05
7.18279e-05
7.08785e-05
6.93851e-05
6.8136e-05
6.93296e-05
7.05634e-05
7.22132e-05
7.42648e-05
7.75759e-05
8.14538e-05
8.88406e-05
8.62627e-05
8.49978e-05
8.55125e-05
8.70795e-05
8.68789e-05
8.73303e-05
8.82058e-05
8.85847e-05
8.88618e-05
8.84766e-05
8.37558e-05
8.4132e-05
8.47487e-05
8.4087e-05
8.42534e-05
8.4378e-05
8.35438e-05
7.95206e-05
7.67926e-05
7.58925e-05
7.44464e-05
7.31062e-05
7.3178e-05
7.43309e-05
7.621e-05
7.24823e-05
6.73647e-05
6.07232e-05
5.91069e-05
5.58248e-05
5.5346e-05
5.53604e-05
5.5936e-05
5.57517e-05
5.56323e-05
5.56523e-05
5.56831e-05
5.57584e-05
5.54542e-05
5.54126e-05
5.66176e-05
5.63611e-05
5.59291e-05
5.71597e-05
5.57556e-05
5.6228e-05
5.62554e-05
5.56571e-05
5.59169e-05
5.68471e-05
5.65071e-05
5.79597e-05
5.70976e-05
5.86856e-05
5.78629e-05
5.8953e-05
5.85458e-05
6.07582e-05
6.07458e-05
6.15598e-05
6.24807e-05
6.26529e-05
6.31389e-05
6.36685e-05
6.4579e-05
6.49482e-05
6.52634e-05
6.61618e-05
6.65881e-05
6.57533e-05
5.97034e-05
5.98347e-05
5.8501e-05
5.90588e-05
5.78886e-05
5.84824e-05
5.54969e-05
5.44552e-05
5.16238e-05
5.18472e-05
5.00842e-05
5.05233e-05
4.99892e-05
4.97339e-05
4.83495e-05
4.73913e-05
4.60674e-05
4.56509e-05
4.4641e-05
4.16732e-05
4.31667e-05
4.16303e-05
4.23353e-05
4.26285e-05
4.32268e-05
4.39643e-05
4.50494e-05
4.82994e-05
5.08432e-05
4.78954e-05
6.9826e-05
5.06847e-05
4.37515e-05
4.71554e-05
5.37275e-05
6.70518e-05
7.48108e-05
8.32018e-05
8.39319e-05
8.09206e-05
8.10719e-05
9.75048e-05
0.000135571
0.000183925
2.09289e-05
2.25144e-05
2.19992e-05
2.44227e-05
3.39708e-05
5.50546e-05
8.12723e-05
8.69279e-05
8.22123e-05
7.5457e-05
6.78713e-05
5.95532e-05
5.45956e-05
4.03781e-05
3.16383e-05
2.61726e-05
2.50752e-05
2.5733e-05
2.72156e-05
2.82124e-05
2.89623e-05
2.88133e-05
2.83911e-05
2.83661e-05
2.92672e-05
3.13261e-05
3.3519e-05
3.56333e-05
3.54004e-05
2.41741e-05
6.70358e-05
8.20853e-05
8.50311e-05
8.33597e-05
7.99833e-05
7.64198e-05
7.22948e-05
6.77307e-05
6.53575e-05
6.11835e-05
5.77307e-05
5.46753e-05
5.38666e-05
5.51087e-05
5.76729e-05
6.07624e-05
6.03403e-05
6.17824e-05
6.22379e-05
6.2738e-05
6.22517e-05
6.21776e-05
6.40555e-05
6.40506e-05
6.38484e-05
6.5047e-05
6.40477e-05
6.95469e-05
7.66852e-05
7.71427e-05
9.00306e-05
9.20743e-05
8.58558e-05
8.44459e-05
8.72832e-05
9.01404e-05
9.09571e-05
9.01371e-05
8.81575e-05
8.57641e-05
8.32282e-05
8.02739e-05
7.77794e-05
7.67096e-05
7.69535e-05
7.72731e-05
7.65553e-05
7.48059e-05
7.3038e-05
7.09127e-05
6.89212e-05
6.82534e-05
6.7677e-05
6.82935e-05
6.95288e-05
7.14756e-05
7.37257e-05
7.56124e-05
7.74693e-05
7.80195e-05
9.84063e-05
9.53936e-05
9.47862e-05
9.58325e-05
9.7462e-05
9.80987e-05
9.76004e-05
0.000103407
0.000101196
9.94253e-05
9.68309e-05
9.44511e-05
9.34275e-05
9.21474e-05
9.14662e-05
9.14904e-05
9.1345e-05
9.30094e-05
9.53378e-05
0.000100224
0.000104425
0.000102173
0.000103103
9.73098e-05
9.8587e-05
9.29425e-05
9.41735e-05
8.87058e-05
9.25226e-05
9.42974e-05
9.53148e-05
9.53836e-05
9.71239e-05
9.96583e-05
0.000103102
0.000104736
0.000103533
0.00010028
9.69541e-05
9.3059e-05
9.07185e-05
9.03632e-05
9.10092e-05
9.1797e-05
9.27023e-05
9.4166e-05
9.56979e-05
9.76394e-05
9.81769e-05
9.84018e-05
9.91453e-05
9.95501e-05
9.787e-05
9.84977e-05
9.7944e-05
9.70226e-05
9.71114e-05
9.73215e-05
9.75511e-05
0.000100959
7.01041e-05
7.59432e-05
8.52559e-05
8.7615e-05
8.8171e-05
8.61446e-05
8.39508e-05
8.39869e-05
8.41651e-05
8.17242e-05
7.64532e-05
7.29394e-05
7.08868e-05
6.94812e-05
6.91581e-05
6.84094e-05
6.81746e-05
6.77485e-05
6.73566e-05
6.70811e-05
6.67392e-05
6.67373e-05
6.64268e-05
6.61043e-05
6.60307e-05
6.90279e-05
5.75872e-05
3.47167e-05
2.28537e-05
3.27603e-05
8.66906e-05
9.30656e-05
9.97136e-05
0.000100112
9.83148e-05
9.62761e-05
9.55263e-05
9.37406e-05
9.27736e-05
9.13397e-05
9.14065e-05
8.82511e-05
8.93195e-05
8.78678e-05
8.86147e-05
8.90902e-05
9.01941e-05
9.15166e-05
9.21037e-05
9.38124e-05
9.52923e-05
9.45875e-05
9.13905e-05
8.95769e-05
8.9702e-05
8.96842e-05
9.09566e-05
9.03887e-05
9.09316e-05
9.03611e-05
8.92624e-05
9.35429e-05
9.43412e-05
9.19214e-05
8.87719e-05
8.60153e-05
8.25165e-05
8.20566e-05
7.93773e-05
7.4647e-05
7.24132e-05
7.24401e-05
7.42509e-05
7.72826e-05
8.15768e-05
8.75856e-05
8.71878e-05
9.17745e-05
9.77464e-05
9.53206e-05
9.14488e-05
8.88983e-05
8.84993e-05
8.94795e-05
9.14432e-05
9.23726e-05
9.37785e-05
9.5709e-05
9.91448e-05
9.02373e-05
7.988e-05
7.98191e-05
8.27135e-05
8.53956e-05
8.54156e-05
8.25374e-05
7.78837e-05
7.29569e-05
6.8733e-05
6.9887e-05
6.41556e-05
6.08287e-05
5.98882e-05
6.01161e-05
6.22027e-05
6.67383e-05
7.28559e-05
7.21577e-05
7.67247e-05
8.37761e-05
8.66991e-05
8.47342e-05
8.54118e-05
8.62002e-05
8.68184e-05
8.64055e-05
8.63432e-05
8.7771e-05
8.80228e-05
8.87217e-05
7.97479e-05
8.00159e-05
8.20602e-05
8.26864e-05
8.17242e-05
7.99858e-05
7.5401e-05
7.186e-05
7.07163e-05
6.92568e-05
6.78294e-05
6.83161e-05
6.99728e-05
7.04299e-05
7.22841e-05
7.61436e-05
7.07272e-05
6.39175e-05
5.9045e-05
5.48833e-05
5.53476e-05
5.51279e-05
5.56416e-05
5.5156e-05
5.48141e-05
5.48849e-05
5.51457e-05
5.56155e-05
5.54073e-05
5.56502e-05
5.63084e-05
5.59626e-05
5.77905e-05
5.704e-05
5.66446e-05
5.73499e-05
5.87173e-05
5.95486e-05
6.03505e-05
6.20865e-05
6.18689e-05
6.23781e-05
6.09345e-05
6.11991e-05
5.89398e-05
6.00274e-05
5.87243e-05
6.05914e-05
6.03506e-05
6.17818e-05
6.18932e-05
6.29848e-05
6.39494e-05
6.3869e-05
6.45166e-05
6.51542e-05
6.51961e-05
6.56291e-05
6.70514e-05
6.57982e-05
5.89735e-05
5.99421e-05
5.83019e-05
5.77318e-05
5.89529e-05
5.69807e-05
5.31225e-05
5.48427e-05
5.3964e-05
5.44925e-05
5.36807e-05
5.56446e-05
5.39879e-05
5.43873e-05
5.20456e-05
5.01927e-05
5.09456e-05
4.85984e-05
4.54682e-05
4.53463e-05
4.50557e-05
4.63658e-05
4.76522e-05
4.80862e-05
4.78542e-05
4.73293e-05
4.80874e-05
5.0094e-05
5.1854e-05
4.73841e-05
4.36773e-05
3.79473e-05
4.52432e-05
5.91512e-05
7.34815e-05
8.903e-05
0.000100576
0.000109499
0.000121585
0.00011729
9.73359e-05
9.27063e-05
0.00011652
0.000177892
2.09872e-05
2.23199e-05
2.16049e-05
2.34297e-05
3.31942e-05
5.66885e-05
8.53705e-05
9.37781e-05
9.22311e-05
8.5864e-05
7.56949e-05
6.22637e-05
5.32592e-05
3.72441e-05
2.68639e-05
2.46955e-05
2.70968e-05
3.09915e-05
3.42544e-05
3.61714e-05
3.70178e-05
3.68033e-05
3.5095e-05
3.24173e-05
3.00161e-05
2.94363e-05
3.14433e-05
3.40092e-05
3.54881e-05
2.79035e-05
6.66373e-05
8.25134e-05
8.65361e-05
8.65774e-05
8.48985e-05
8.28378e-05
7.73561e-05
6.91075e-05
6.34048e-05
5.82116e-05
5.55594e-05
5.21181e-05
5.09428e-05
5.40739e-05
5.9164e-05
6.06383e-05
6.28245e-05
6.31974e-05
6.27369e-05
6.12927e-05
6.32328e-05
6.28114e-05
6.19426e-05
6.26261e-05
6.21394e-05
6.26739e-05
6.46729e-05
6.54763e-05
7.39676e-05
7.81763e-05
8.9982e-05
9.00761e-05
8.45931e-05
8.6135e-05
9.1074e-05
9.44071e-05
9.42653e-05
9.16125e-05
8.91227e-05
8.67383e-05
8.36667e-05
7.97506e-05
7.70438e-05
7.63606e-05
7.80842e-05
7.73286e-05
7.48521e-05
7.18048e-05
6.85393e-05
6.47529e-05
6.30369e-05
6.16392e-05
6.14884e-05
6.26516e-05
6.42312e-05
6.65466e-05
6.95485e-05
7.25222e-05
7.58213e-05
7.75347e-05
9.86421e-05
9.52937e-05
9.45158e-05
9.65031e-05
9.5554e-05
9.58639e-05
0.000101603
9.9882e-05
9.80394e-05
9.55836e-05
9.30251e-05
9.1822e-05
8.99241e-05
8.74068e-05
8.63996e-05
8.69855e-05
8.8203e-05
8.96271e-05
9.0967e-05
9.48778e-05
9.89614e-05
0.000105207
0.00010256
0.000101489
9.61376e-05
9.82368e-05
9.26502e-05
8.4171e-05
8.75195e-05
9.72527e-05
9.44998e-05
9.55502e-05
9.66997e-05
0.00010145
0.000104993
0.000106857
0.000105321
9.99811e-05
9.49399e-05
9.10818e-05
8.97676e-05
8.92634e-05
9.08777e-05
9.17994e-05
9.42198e-05
9.78877e-05
0.000100433
0.000103061
0.000105507
0.000107128
0.000107334
0.000107682
0.00010641
0.000104343
0.000103787
0.00010055
9.75166e-05
9.69562e-05
9.7502e-05
0.00010016
7.00361e-05
7.80268e-05
8.52775e-05
8.93173e-05
8.8125e-05
8.43294e-05
8.26546e-05
8.30384e-05
8.40104e-05
7.74289e-05
7.24625e-05
7.0365e-05
6.94741e-05
6.97015e-05
7.02023e-05
7.13392e-05
7.14882e-05
7.14545e-05
7.12258e-05
7.07224e-05
7.03261e-05
6.89108e-05
6.81944e-05
6.66261e-05
6.59284e-05
6.58143e-05
6.48653e-05
4.4977e-05
2.68328e-05
3.08714e-05
8.66599e-05
9.67081e-05
0.000100218
9.83417e-05
9.62699e-05
9.53888e-05
9.4518e-05
9.28808e-05
9.23592e-05
9.11924e-05
9.0859e-05
9.02833e-05
8.96956e-05
8.99123e-05
8.92885e-05
8.95056e-05
8.9506e-05
9.02959e-05
9.12348e-05
9.16306e-05
9.32884e-05
9.44063e-05
9.32225e-05
9.10048e-05
8.94124e-05
8.79863e-05
8.9873e-05
9.10697e-05
9.1263e-05
9.21581e-05
9.39162e-05
9.63987e-05
9.39139e-05
8.95893e-05
8.58014e-05
8.25038e-05
8.04928e-05
7.39935e-05
6.82969e-05
6.27075e-05
6.10687e-05
6.06221e-05
6.20226e-05
6.57879e-05
7.08788e-05
7.77429e-05
8.59093e-05
8.76172e-05
9.30572e-05
9.97882e-05
9.53119e-05
9.08303e-05
8.85707e-05
9.08363e-05
9.20036e-05
9.21776e-05
9.27715e-05
9.49194e-05
9.87096e-05
9.47036e-05
7.90214e-05
8.08038e-05
8.57693e-05
8.8415e-05
8.48438e-05
7.81736e-05
7.19279e-05
6.99238e-05
6.34113e-05
5.66118e-05
5.09743e-05
4.86452e-05
4.8175e-05
4.88176e-05
5.15405e-05
5.55763e-05
6.22501e-05
6.99135e-05
7.26154e-05
7.93485e-05
8.85456e-05
8.55904e-05
8.44446e-05
8.59405e-05
8.69901e-05
8.5618e-05
8.52238e-05
8.64935e-05
8.84806e-05
8.86896e-05
7.78242e-05
7.9781e-05
8.21439e-05
8.20618e-05
7.66457e-05
7.09283e-05
6.71824e-05
6.68789e-05
6.07979e-05
5.66909e-05
5.76247e-05
6.26726e-05
6.82269e-05
6.60125e-05
6.91225e-05
7.12001e-05
7.30621e-05
6.82295e-05
5.93017e-05
5.55674e-05
5.52494e-05
5.54647e-05
5.56432e-05
5.5249e-05
5.4708e-05
5.37821e-05
5.4261e-05
5.52719e-05
5.49633e-05
5.56135e-05
5.61e-05
5.7951e-05
5.8433e-05
5.80897e-05
5.92815e-05
6.07612e-05
6.36019e-05
6.55444e-05
6.79694e-05
6.94769e-05
6.9368e-05
6.90139e-05
6.74761e-05
6.60859e-05
6.33326e-05
6.17657e-05
5.96171e-05
6.00041e-05
6.01875e-05
6.08444e-05
6.14136e-05
6.27219e-05
6.44748e-05
6.37587e-05
6.45999e-05
6.55229e-05
6.54228e-05
6.54776e-05
6.66007e-05
6.55146e-05
5.82001e-05
6.01398e-05
5.88469e-05
5.97562e-05
5.81179e-05
5.54031e-05
5.44006e-05
5.60868e-05
5.44972e-05
5.92163e-05
5.99469e-05
6.31569e-05
6.23162e-05
6.21977e-05
6.16484e-05
5.81783e-05
5.46397e-05
5.03252e-05
4.81092e-05
4.60769e-05
4.66631e-05
4.76091e-05
5.01607e-05
5.15799e-05
5.17614e-05
5.16833e-05
5.16276e-05
5.19762e-05
5.1512e-05
4.68325e-05
3.1642e-05
4.04706e-05
5.89254e-05
7.54544e-05
8.54587e-05
8.66074e-05
8.79464e-05
9.27207e-05
0.000115795
0.000136203
0.000119783
0.000100355
0.000109736
0.000175835
2.0969e-05
2.21473e-05
2.08447e-05
2.15782e-05
2.75008e-05
5.1512e-05
7.81602e-05
9.18459e-05
9.60816e-05
9.26306e-05
8.19574e-05
6.35175e-05
5.00354e-05
3.2331e-05
2.47584e-05
2.72354e-05
3.28567e-05
3.73429e-05
4.03076e-05
4.19168e-05
4.3343e-05
4.33451e-05
4.17253e-05
3.86775e-05
3.41398e-05
3.10882e-05
3.05359e-05
3.25863e-05
3.51595e-05
2.95457e-05
6.52359e-05
8.20727e-05
8.80814e-05
9.07088e-05
9.16539e-05
8.98828e-05
8.191e-05
6.82767e-05
5.95722e-05
5.55278e-05
5.38795e-05
5.03033e-05
5.07995e-05
5.67354e-05
6.04883e-05
6.383e-05
6.36908e-05
6.14902e-05
6.06125e-05
5.85883e-05
5.6663e-05
5.72586e-05
5.70406e-05
5.88771e-05
5.96996e-05
6.07987e-05
6.24185e-05
6.60819e-05
7.13237e-05
7.81674e-05
8.96027e-05
8.84229e-05
8.36632e-05
8.66565e-05
9.28376e-05
9.44503e-05
9.11453e-05
8.80957e-05
8.76279e-05
8.6612e-05
8.30988e-05
7.78994e-05
7.56838e-05
7.65515e-05
7.86603e-05
7.57164e-05
7.18492e-05
6.69098e-05
6.29283e-05
5.83355e-05
5.60997e-05
5.44234e-05
5.51373e-05
5.60664e-05
5.85711e-05
6.16246e-05
6.55272e-05
6.97287e-05
7.35631e-05
7.72391e-05
9.91294e-05
9.5225e-05
9.45479e-05
9.50995e-05
9.76547e-05
9.74984e-05
9.91389e-05
9.79446e-05
9.53623e-05
9.25431e-05
9.04898e-05
8.76799e-05
8.45792e-05
8.38686e-05
8.34886e-05
8.39598e-05
8.44229e-05
8.69645e-05
8.85142e-05
9.13826e-05
9.49122e-05
0.000100699
0.000107819
0.000102118
9.99944e-05
0.000101256
9.4908e-05
8.36334e-05
8.9682e-05
9.39052e-05
9.60396e-05
9.54671e-05
9.65353e-05
0.000102488
0.000106385
0.000107072
0.000105164
0.000100646
9.48693e-05
9.04281e-05
9.01315e-05
8.98291e-05
9.14491e-05
9.39209e-05
9.75515e-05
0.000102318
0.000107167
0.000111326
0.000113775
0.000116537
0.000117375
0.000115788
0.00011566
0.00011198
0.000107932
0.000105059
0.000100914
9.75398e-05
9.76793e-05
9.98619e-05
6.96453e-05
7.92898e-05
8.64603e-05
8.89775e-05
8.70082e-05
8.49786e-05
8.14614e-05
8.16314e-05
8.20424e-05
7.48178e-05
7.00172e-05
6.88022e-05
6.91894e-05
7.12279e-05
7.30345e-05
7.49864e-05
7.65274e-05
7.70524e-05
7.7565e-05
7.59957e-05
7.48732e-05
7.17453e-05
7.05019e-05
6.77945e-05
6.67574e-05
6.55099e-05
6.73368e-05
5.29862e-05
3.27601e-05
3.14335e-05
9.0389e-05
9.95047e-05
9.93175e-05
9.68912e-05
9.60165e-05
9.5097e-05
9.37317e-05
9.30314e-05
9.27806e-05
9.17102e-05
9.2201e-05
9.00721e-05
8.95676e-05
8.89402e-05
8.99718e-05
9.01177e-05
9.0051e-05
9.00022e-05
9.04879e-05
9.15145e-05
9.1736e-05
9.32041e-05
9.38054e-05
9.18125e-05
8.96106e-05
8.86182e-05
9.01619e-05
9.12961e-05
9.2456e-05
9.19549e-05
9.97079e-05
9.81416e-05
9.27238e-05
8.78637e-05
8.42576e-05
8.30855e-05
7.30576e-05
6.58743e-05
5.78277e-05
5.24317e-05
5.16141e-05
5.08196e-05
5.36548e-05
5.46877e-05
6.15822e-05
6.88369e-05
7.80178e-05
8.83583e-05
8.92663e-05
9.52953e-05
9.78327e-05
9.44411e-05
9.21115e-05
9.29161e-05
9.32866e-05
9.26745e-05
9.2592e-05
9.35513e-05
9.76542e-05
9.51792e-05
7.92571e-05
8.32357e-05
8.80833e-05
8.95697e-05
8.10031e-05
7.25511e-05
7.04855e-05
6.1847e-05
5.35048e-05
4.69105e-05
4.38897e-05
4.15958e-05
4.06631e-05
4.09311e-05
4.25124e-05
4.73763e-05
5.31782e-05
6.24755e-05
7.12868e-05
7.51491e-05
8.55532e-05
8.60421e-05
8.43444e-05
8.69828e-05
8.66852e-05
8.51674e-05
8.50466e-05
8.57099e-05
8.76795e-05
8.8427e-05
7.85951e-05
8.41267e-05
8.25824e-05
7.56622e-05
6.98833e-05
6.71387e-05
5.61988e-05
4.68428e-05
4.04154e-05
3.87606e-05
4.11013e-05
4.54654e-05
5.35759e-05
6.34678e-05
6.53412e-05
6.80998e-05
7.2249e-05
6.88864e-05
5.95325e-05
5.63286e-05
5.55902e-05
5.56638e-05
5.56278e-05
5.56184e-05
5.52907e-05
5.43721e-05
5.43393e-05
5.61153e-05
5.58331e-05
5.58702e-05
5.60206e-05
5.89333e-05
5.94388e-05
6.01819e-05
6.22601e-05
6.55314e-05
6.89348e-05
7.3305e-05
7.59069e-05
7.84158e-05
7.79873e-05
7.84859e-05
7.45464e-05
7.29775e-05
6.83178e-05
6.47641e-05
6.11927e-05
6.0425e-05
5.96903e-05
6.06109e-05
6.07162e-05
6.27542e-05
6.36316e-05
6.23316e-05
6.26302e-05
6.48969e-05
6.54965e-05
6.54037e-05
6.62594e-05
6.49327e-05
5.78216e-05
5.93775e-05
6.00936e-05
6.02857e-05
5.82721e-05
5.38434e-05
5.63492e-05
5.73714e-05
6.09759e-05
6.67095e-05
6.9528e-05
7.11646e-05
7.19036e-05
7.21301e-05
6.82882e-05
6.61286e-05
6.16448e-05
5.62644e-05
5.09937e-05
4.78835e-05
4.79097e-05
4.80194e-05
5.16554e-05
5.26939e-05
5.25063e-05
5.15319e-05
5.12888e-05
5.1161e-05
4.93454e-05
4.23752e-05
3.41293e-05
5.04176e-05
6.79107e-05
7.74176e-05
7.94557e-05
7.74956e-05
7.52438e-05
7.66857e-05
8.72484e-05
0.000123958
0.000134739
0.000111699
0.000109804
0.000172831
2.08111e-05
2.20207e-05
2.01837e-05
1.93519e-05
2.3334e-05
3.63815e-05
5.70474e-05
7.80387e-05
8.76372e-05
8.62214e-05
8.27207e-05
6.23239e-05
4.58575e-05
2.84185e-05
2.57594e-05
3.15164e-05
3.78344e-05
4.12896e-05
4.36191e-05
4.55806e-05
4.65804e-05
4.7566e-05
4.7246e-05
4.46477e-05
3.92419e-05
3.33115e-05
3.05742e-05
3.14716e-05
3.47291e-05
2.99764e-05
6.32019e-05
8.00641e-05
8.82603e-05
9.29043e-05
8.89407e-05
9.30781e-05
8.14768e-05
6.47742e-05
5.66663e-05
5.37838e-05
5.22721e-05
4.87243e-05
5.24043e-05
5.88273e-05
6.39318e-05
6.41648e-05
6.06876e-05
5.79756e-05
5.41571e-05
5.1626e-05
5.12095e-05
5.13015e-05
5.22348e-05
5.4537e-05
5.6318e-05
5.83438e-05
6.06302e-05
6.39951e-05
6.88926e-05
7.79227e-05
8.80515e-05
8.70615e-05
8.25342e-05
8.673e-05
9.18072e-05
9.03171e-05
8.52188e-05
8.28421e-05
8.54923e-05
8.66265e-05
8.27943e-05
7.61303e-05
7.44485e-05
7.68769e-05
7.82061e-05
7.33554e-05
6.76071e-05
6.24064e-05
5.59874e-05
5.44016e-05
5.22456e-05
5.02135e-05
5.01516e-05
5.23406e-05
5.58532e-05
5.7406e-05
6.22266e-05
6.68416e-05
7.20495e-05
7.67787e-05
9.95388e-05
9.55478e-05
9.39122e-05
9.66477e-05
9.26478e-05
9.61843e-05
9.81997e-05
9.65188e-05
9.39722e-05
9.08212e-05
8.73714e-05
8.3572e-05
8.26376e-05
8.25787e-05
8.22968e-05
8.2339e-05
8.23362e-05
8.41532e-05
8.62171e-05
8.92926e-05
9.20936e-05
9.76609e-05
0.000104922
0.000103206
0.000102311
0.000104346
9.82575e-05
8.4745e-05
9.556e-05
9.56212e-05
9.44718e-05
9.55549e-05
9.65589e-05
9.91906e-05
0.000103412
0.000104805
0.000102236
9.72433e-05
9.29534e-05
9.07979e-05
8.89718e-05
9.06631e-05
9.27032e-05
9.69055e-05
0.000102681
0.000108454
0.000112898
0.000119249
0.000121839
0.000124277
0.00012609
0.000124472
0.00012261
0.000119335
0.000112896
0.000109071
0.000103895
9.9076e-05
9.72214e-05
9.98138e-05
6.94484e-05
8.02524e-05
8.66063e-05
8.77684e-05
8.70639e-05
8.6206e-05
8.1437e-05
8.12053e-05
7.99414e-05
7.21463e-05
6.83637e-05
6.81763e-05
6.96719e-05
7.23854e-05
7.444e-05
7.84797e-05
8.11828e-05
8.23034e-05
8.308e-05
8.14984e-05
7.96638e-05
7.58973e-05
7.31121e-05
6.96753e-05
6.71227e-05
6.58392e-05
6.77843e-05
5.73015e-05
3.75426e-05
3.34356e-05
9.57075e-05
0.000100209
9.79238e-05
9.69892e-05
9.5804e-05
9.45052e-05
9.36231e-05
9.26249e-05
9.29805e-05
9.20204e-05
9.06754e-05
8.97949e-05
8.79005e-05
8.8089e-05
8.79115e-05
8.91339e-05
9.03366e-05
9.06378e-05
9.06984e-05
9.12868e-05
9.15993e-05
9.23312e-05
9.37509e-05
9.2474e-05
9.03682e-05
8.94502e-05
9.05028e-05
9.21639e-05
9.20546e-05
9.28302e-05
9.8996e-05
9.88287e-05
9.2238e-05
8.71628e-05
8.31142e-05
7.8447e-05
6.78539e-05
5.87412e-05
5.19703e-05
4.63467e-05
4.36232e-05
4.28847e-05
4.464e-05
4.85398e-05
5.3639e-05
6.13755e-05
7.11996e-05
8.172e-05
9.23343e-05
9.20886e-05
9.72422e-05
9.65518e-05
9.58764e-05
9.51927e-05
9.43431e-05
9.30038e-05
9.38621e-05
9.47896e-05
9.70339e-05
9.57363e-05
8.06173e-05
8.89244e-05
9.12782e-05
8.66729e-05
7.59083e-05
6.90293e-05
6.47442e-05
5.39502e-05
4.75242e-05
4.24104e-05
3.99497e-05
3.66492e-05
3.54225e-05
3.59387e-05
3.85348e-05
4.08424e-05
4.6954e-05
5.69534e-05
6.60494e-05
7.25295e-05
8.37236e-05
8.63487e-05
8.57619e-05
8.81596e-05
8.62668e-05
8.51285e-05
8.54221e-05
8.61193e-05
8.78632e-05
8.84811e-05
8.52199e-05
8.42807e-05
7.8042e-05
7.09683e-05
6.82077e-05
5.32731e-05
4.06646e-05
3.29219e-05
2.71889e-05
2.53326e-05
2.70326e-05
3.40457e-05
4.29844e-05
5.38711e-05
6.46764e-05
6.58345e-05
6.95583e-05
6.92484e-05
5.93145e-05
5.62123e-05
5.65752e-05
5.58457e-05
5.62334e-05
5.60591e-05
5.5966e-05
5.57572e-05
5.43024e-05
5.46013e-05
5.63677e-05
5.61046e-05
5.60201e-05
5.97486e-05
5.99526e-05
6.19765e-05
6.5436e-05
7.00093e-05
7.51905e-05
8.02215e-05
8.37861e-05
8.5848e-05
8.59292e-05
8.58834e-05
8.27533e-05
7.8641e-05
7.35619e-05
6.83255e-05
6.34912e-05
6.1217e-05
5.98418e-05
6.01904e-05
6.04307e-05
6.20334e-05
6.46036e-05
6.24197e-05
6.2358e-05
6.43194e-05
6.65838e-05
6.52677e-05
6.60215e-05
6.41544e-05
5.53706e-05
5.92784e-05
6.03364e-05
5.97225e-05
5.68597e-05
5.54923e-05
5.83888e-05
6.18923e-05
6.70719e-05
7.2798e-05
7.72695e-05
8.13942e-05
8.40363e-05
8.44226e-05
8.15595e-05
7.46295e-05
6.91219e-05
6.22699e-05
5.56978e-05
5.19684e-05
4.84175e-05
4.72369e-05
5.21657e-05
5.283e-05
4.8932e-05
4.5891e-05
4.61328e-05
4.56406e-05
4.24034e-05
4.02073e-05
4.47059e-05
6.42609e-05
7.38625e-05
8.22815e-05
8.74127e-05
9.10375e-05
8.57515e-05
7.75533e-05
8.19172e-05
0.0001103
0.0001367
0.000112929
0.000111456
0.000172973
2.07325e-05
2.1978e-05
1.9692e-05
1.77826e-05
1.76705e-05
2.43611e-05
3.48784e-05
5.11087e-05
5.89081e-05
7.22486e-05
7.49201e-05
6.23997e-05
4.152e-05
2.63251e-05
2.7418e-05
3.60502e-05
4.105e-05
4.3224e-05
4.52903e-05
4.93924e-05
5.32128e-05
5.3372e-05
5.16895e-05
4.90169e-05
4.35287e-05
3.596e-05
3.12248e-05
3.1226e-05
3.49023e-05
3.0008e-05
5.97533e-05
7.60266e-05
8.56193e-05
9.14339e-05
9.27415e-05
8.7531e-05
7.34542e-05
6.23919e-05
5.48634e-05
5.27944e-05
5.01865e-05
4.7408e-05
5.65765e-05
6.35152e-05
6.57979e-05
6.20861e-05
5.75055e-05
5.1712e-05
4.86342e-05
4.84496e-05
4.84516e-05
4.88425e-05
4.96955e-05
5.12928e-05
5.33869e-05
5.61301e-05
5.89752e-05
6.26605e-05
6.79452e-05
7.82129e-05
8.6601e-05
8.72372e-05
8.27863e-05
8.38642e-05
8.74658e-05
8.63943e-05
8.15077e-05
7.94403e-05
8.35699e-05
8.56621e-05
8.11148e-05
7.42132e-05
7.4255e-05
7.74042e-05
7.70967e-05
7.00643e-05
6.41198e-05
5.7572e-05
5.2318e-05
4.92794e-05
4.57698e-05
4.46299e-05
4.56638e-05
4.77407e-05
5.14806e-05
5.67953e-05
5.92069e-05
6.50595e-05
7.1024e-05
7.65954e-05
9.98369e-05
9.51447e-05
9.2109e-05
8.85585e-05
9.07358e-05
9.59729e-05
9.78562e-05
9.56207e-05
9.27704e-05
8.88579e-05
8.42148e-05
8.18026e-05
8.19089e-05
8.26685e-05
8.36671e-05
8.36333e-05
8.29192e-05
8.34546e-05
8.42746e-05
8.74502e-05
9.03917e-05
9.5681e-05
0.000103436
0.000103866
0.000102914
0.00010071
9.90739e-05
8.63862e-05
9.57904e-05
9.9381e-05
9.60894e-05
9.62808e-05
9.58568e-05
9.76834e-05
9.98126e-05
0.000100611
9.82274e-05
9.49915e-05
9.23908e-05
9.08257e-05
8.99454e-05
9.10435e-05
9.5874e-05
0.000100591
0.00010596
0.000111989
0.000119395
0.000123545
0.000128725
0.000132587
0.000133344
0.000131589
0.00012773
0.000125723
0.000118966
0.000111919
0.000106438
0.000101071
9.7354e-05
9.92914e-05
6.93747e-05
8.00787e-05
8.6132e-05
8.81099e-05
8.77089e-05
8.53257e-05
8.08942e-05
8.18666e-05
7.95733e-05
6.97785e-05
6.69919e-05
6.76959e-05
6.96323e-05
7.13182e-05
7.62738e-05
8.15262e-05
8.37473e-05
8.67348e-05
8.73958e-05
8.54076e-05
8.23752e-05
7.86326e-05
7.51037e-05
7.07449e-05
6.78309e-05
6.5579e-05
6.78379e-05
5.90111e-05
3.81428e-05
3.59152e-05
9.86486e-05
9.96341e-05
9.72836e-05
9.70323e-05
9.51182e-05
9.45091e-05
9.24861e-05
9.33377e-05
9.18602e-05
9.18249e-05
8.9426e-05
8.67643e-05
8.61972e-05
8.4612e-05