/*--------------------------------*- C++ -*----------------------------------*\
| =========                 |                                                 |
| \\      /  F ield         | OpenFOAM: The Open Source CFD Toolbox           |
|  \\    /   O peration     | Version:  2.1.1                                 |
|   \\  /    A nd           | Web:      www.OpenFOAM.org                      |
|    \\/     M anipulation  |                                                 |
\*---------------------------------------------------------------------------*/
FoamFile
{
    version     2.0;
    format      ascii;
    class       volScalarField;
    location    "0.007450000";
    object      H2;
}
// * * * * * * * * * * * * * * * * * * * * * * * * * * * * * * * * * * * * * //

dimensions      [0 0 0 0 0 0 0];

internalField   nonuniform List<scalar> 
12384
(
0.00147038
0.00133503
0.00119896
0.0010896
0.00101244
0.00100777
0.00105005
0.0011339
0.00124941
0.0013991
0.00159168
0.00182465
0.00199069
0.00238312
0.000303898
0.000327801
0.000323813
0.000348623
0.000387623
0.000467333
0.000575161
0.000661026
0.000761252
0.000815349
0.000826502
0.000817024
0.00079094
0.000754295
0.000704853
0.000648592
0.000593189
0.000583415
0.000561666
0.000548232
0.000543863
0.000545823
0.000551305
0.000550701
0.000555747
0.00054974
0.0005484
0.000544589
0.000399493
0.000176249
0.00162171
0.00262226
0.00286814
0.00283416
0.00270764
0.00256025
0.0024023
0.00226504
0.00211803
0.00201601
0.00190319
0.00181899
0.00173903
0.00167443
0.00162702
0.00158439
0.00156013
0.00155011
0.00154205
0.0015424
0.00152047
0.00154311
0.00151403
0.00155291
0.00157241
0.00163465
0.00178783
0.00221709
0.001815
0.00138472
0.00261646
0.00309099
0.00293354
0.00271301
0.00264683
0.00262782
0.00260647
0.00258659
0.00256109
0.00253674
0.00251692
0.00250266
0.00249542
0.00249665
0.00250147
0.00250744
0.0025174
0.00253307
0.00255875
0.00256436
0.00258531
0.00259006
0.00260445
0.00262238
0.0026397
0.00266259
0.00266609
0.00266547
0.00264359
0.00255934
0.00392488
0.00387469
0.00397623
0.00406297
0.00412984
0.00417639
0.00418016
0.00413179
0.00405717
0.00398474
0.00391299
0.0038524
0.00380282
0.00376582
0.00370228
0.00374336
0.0037225
0.00375552
0.00380253
0.00385288
0.00395818
0.00402038
0.00348097
0.00343577
0.00382338
0.00394793
0.00397792
0.00392368
0.00383216
0.00369627
0.00750055
0.00718145
0.00721927
0.00741191
0.00765929
0.00781956
0.00790574
0.00796083
0.00797862
0.00798533
0.00795957
0.00793202
0.00790105
0.0078688
0.00781691
0.00776577
0.00770634
0.00764752
0.0075933
0.00753786
0.00749595
0.00744057
0.00739883
0.007355
0.00730218
0.00723654
0.00714771
0.00705891
0.0068553
0.00671403
0.00423958
0.00436637
0.00419099
0.00450785
0.00497239
0.00538897
0.00566062
0.0056564
0.0055788
0.00543407
0.00524125
0.00503357
0.00484871
0.00467871
0.00453181
0.00440923
0.00429262
0.00418961
0.00407719
0.00399566
0.00392635
0.00384054
0.00373543
0.00360065
0.0034362
0.002589
0.000497747
0.000484647
0.000569936
0.00070441
0.00644661
0.00795726
0.00847358
0.00905864
0.00946437
0.00966874
0.00964929
0.00958135
0.00951012
0.00948099
0.00938536
0.00942979
0.00935401
0.00938116
0.00937173
0.00938179
0.00939238
0.00939759
0.00930996
0.00901169
0.00792218
0.00679211
0.00672455
0.00680685
0.00684023
0.00688619
0.0069424
0.0069975
0.00696147
0.00682393
0.00513056
0.00509539
0.00505264
0.00501645
0.00494188
0.00484726
0.00474656
0.00465236
0.00454807
0.00448988
0.00441898
0.00436458
0.00436841
0.00439309
0.0043928
0.00444092
0.00451724
0.00575523
0.00950354
0.00998011
0.00970618
0.00960635
0.00949886
0.00939251
0.0092657
0.00917617
0.00923571
0.00956842
0.0103987
0.0117003
0.00535392
0.00509408
0.00497561
0.00498884
0.00504672
0.0050632
0.00502629
0.00495131
0.00485739
0.00474672
0.00464328
0.00453566
0.00444393
0.00437301
0.00433852
0.00436965
0.00439366
0.00434445
0.00518807
0.00774315
0.00814039
0.00805676
0.00805626
0.00808921
0.00813758
0.00819962
0.00829537
0.00842459
0.00860918
0.00875857
0.00607377
0.00588204
0.00593346
0.00605444
0.00609024
0.00604677
0.00596281
0.00584081
0.00569107
0.00556331
0.00545422
0.00535969
0.00528288
0.00531571
0.007672
0.0105709
0.010727
0.0102956
0.00993975
0.00976753
0.00968414
0.00964487
0.00963932
0.00966119
0.00968888
0.00971731
0.00975311
0.00980505
0.00998227
0.0106243
0.00775114
0.0074724
0.0079881
0.00888714
0.00862551
0.00828674
0.00815027
0.00811766
0.00808023
0.00810804
0.00808346
0.00815978
0.00814294
0.0082724
0.00828313
0.00837058
0.00842072
0.00846319
0.00855538
0.00853912
0.00862122
0.00849194
0.00846362
0.00832468
0.00824284
0.00817798
0.00805879
0.00811454
0.00841285
0.00798023
0.0105807
0.0103821
0.0103494
0.0107827
0.01155
0.0116167
0.0163732
0.0234919
0.0244469
0.0246013
0.0247421
0.0247744
0.0248189
0.0248266
0.024819
0.0248015
0.0247505
0.0247016
0.0246385
0.024589
0.0245605
0.0245057
0.0244097
0.0242055
0.0238704
0.0234341
0.0229774
0.0221171
0.0191715
0.0196031
0.00106757
0.000897596
0.000703614
0.000615007
0.000616667
0.00065357
0.000712449
0.000768413
0.000833059
0.000916462
0.00114954
0.00149225
0.00190309
0.00235103
0.00030669
0.000326052
0.000324318
0.000355261
0.000445165
0.000637661
0.000907116
0.00110264
0.00115588
0.00112565
0.00104887
0.000954739
0.000884452
0.000736953
0.000568679
0.000503234
0.000443389
0.000412242
0.000399478
0.000397854
0.000399003
0.000402158
0.000420036
0.000448668
0.000481322
0.000510577
0.000531603
0.000533637
0.000506987
0.000291653
0.00174265
0.00271337
0.00290368
0.00280612
0.00260735
0.00236348
0.00210017
0.00185114
0.00162812
0.00144391
0.00133789
0.00129029
0.00127011
0.00127122
0.00128723
0.00131869
0.00134262
0.00137896
0.00140113
0.00140307
0.00139576
0.00137141
0.001362
0.00136436
0.00138535
0.00145656
0.00158086
0.00194714
0.0021609
0.00194951
0.00276582
0.00303638
0.00278767
0.00262228
0.00262813
0.00266273
0.00269559
0.00268653
0.00263776
0.00256474
0.00247299
0.00237142
0.00228991
0.00224802
0.00225624
0.00229576
0.00232894
0.00234143
0.00235181
0.00234145
0.00233236
0.00232665
0.00234428
0.00238002
0.0024399
0.00251292
0.00257481
0.00261314
0.00262951
0.00258973
0.00392826
0.0038373
0.00391238
0.00402227
0.00416379
0.00420327
0.00409326
0.00390272
0.00370434
0.00348153
0.00337418
0.00327805
0.00320047
0.00314685
0.00310157
0.00308804
0.00313328
0.00321576
0.00333481
0.00347893
0.00370591
0.00391135
0.00378731
0.00344454
0.00380241
0.00413827
0.0040075
0.00384203
0.00396509
0.00421578
0.00742978
0.00718558
0.0073843
0.00778477
0.0081924
0.00845501
0.00855726
0.00853619
0.00843202
0.00830875
0.00818636
0.0080819
0.00799772
0.00790813
0.00779474
0.00767685
0.00756885
0.0074885
0.00742228
0.00737711
0.00734639
0.00732309
0.00730143
0.00727989
0.00725912
0.00723128
0.00717201
0.00709072
0.00695926
0.00679614
0.00425357
0.00448443
0.00500017
0.00630738
0.00738892
0.00768421
0.00751308
0.00712666
0.00676617
0.00615959
0.00555268
0.00503524
0.00466802
0.00441527
0.00425482
0.00416105
0.00409761
0.00405127
0.00399878
0.00395477
0.00390686
0.00384721
0.00376409
0.00364822
0.00353988
0.00312415
0.00142069
0.000528098
0.000646419
0.000919315
0.00611936
0.00795563
0.00897813
0.00970646
0.0097528
0.00944342
0.00910567
0.00886118
0.00875916
0.00868666
0.00868933
0.00870201
0.00872342
0.00878116
0.0088398
0.00891611
0.00902093
0.00916063
0.00923501
0.0091368
0.0087058
0.00768076
0.00677435
0.00654001
0.00650062
0.00651637
0.00667968
0.00690541
0.0072119
0.00730216
0.00513482
0.00513286
0.00517838
0.00507823
0.00485625
0.00456301
0.00427858
0.0040067
0.00379305
0.00362437
0.00347536
0.00343139
0.00345391
0.00364224
0.00381863
0.00404675
0.00423768
0.00481584
0.00714465
0.00956012
0.00996746
0.00988226
0.00989036
0.00972612
0.00930626
0.00881373
0.00850833
0.00846593
0.00919814
0.0111566
0.0052718
0.00495797
0.00503606
0.00532458
0.00546736
0.00541225
0.00517097
0.00484348
0.00450747
0.00419946
0.00395566
0.00376768
0.00364188
0.00360867
0.00367057
0.00381183
0.00398533
0.00409047
0.00450818
0.00620822
0.00792943
0.00802221
0.00805173
0.00808949
0.00801793
0.00805228
0.00817214
0.00829741
0.00849821
0.00873879
0.00625035
0.00605292
0.00642813
0.00666988
0.00663354
0.00645517
0.0061512
0.00585556
0.0055719
0.00535152
0.00519181
0.00510136
0.00508211
0.00504481
0.00593034
0.00827116
0.0101452
0.0103308
0.00963717
0.0094211
0.00941224
0.00946548
0.00957059
0.00968916
0.00978927
0.00982002
0.00981044
0.00980404
0.00994507
0.0106304
0.00788329
0.00812367
0.00869513
0.00872897
0.00835794
0.00817811
0.00814662
0.00817297
0.00822407
0.00827876
0.00834763
0.00835092
0.00845822
0.00849326
0.00866015
0.00882199
0.00902775
0.00920068
0.00927467
0.00922129
0.00900758
0.0087429
0.00847774
0.00834222
0.00823608
0.0081598
0.00803122
0.00799836
0.00831034
0.00807531
0.0115167
0.0100604
0.00909759
0.0105608
0.0115401
0.0147581
0.0213962
0.0242494
0.0246227
0.0248159
0.0248515
0.0248297
0.0247993
0.0247748
0.0247672
0.0247496
0.0246881
0.0245311
0.0242905
0.0240354
0.0239093
0.0240014
0.0240705
0.0241803
0.0241116
0.0238192
0.0233421
0.0221089
0.0188725
0.0194577
0.000790874
0.000577031
0.000511182
0.000548718
0.00064172
0.000792046
0.000895799
0.00100349
0.00101438
0.000979569
0.000992499
0.00119472
0.00168688
0.00230003
0.000310606
0.000323621
0.000320448
0.0003547
0.000484988
0.000763441
0.00113102
0.00131184
0.00129993
0.0012309
0.00112911
0.000989317
0.000862317
0.00062085
0.000467335
0.000386203
0.000366288
0.000373037
0.000391283
0.000405897
0.000412649
0.00040673
0.000398816
0.000397922
0.000413481
0.000448615
0.000488496
0.000533881
0.000542572
0.000377376
0.00181027
0.00278152
0.00296489
0.00287344
0.00267237
0.00240012
0.00204276
0.00166161
0.00134521
0.00120631
0.00111707
0.00105958
0.00106159
0.00111958
0.00121
0.00130629
0.00140163
0.00147297
0.00149577
0.00149004
0.00145722
0.00141167
0.00135969
0.00133896
0.00133104
0.00134372
0.00139269
0.00165437
0.0020627
0.00212587
0.00284104
0.00295376
0.00268606
0.00266872
0.00283164
0.00299366
0.00305256
0.00300261
0.00289421
0.00276103
0.00259836
0.00239744
0.00225889
0.00221081
0.00227349
0.00232517
0.00233139
0.00229367
0.00224336
0.00217447
0.00211509
0.00208665
0.00207912
0.00211244
0.00217895
0.00227921
0.00239113
0.00248691
0.00256647
0.00258949
0.00393739
0.00378082
0.00381308
0.00400512
0.00417739
0.00403265
0.0038001
0.00349374
0.00333895
0.0032229
0.00311312
0.00301368
0.00293506
0.00287024
0.00281178
0.00280767
0.0028156
0.00286665
0.00296935
0.00311692
0.00331871
0.00366113
0.0038367
0.00365754
0.00347513
0.00370794
0.0032846
0.00296697
0.00316491
0.00374213
0.00738725
0.00721545
0.00760352
0.0082057
0.00872496
0.00896047
0.00892786
0.00874464
0.00851123
0.0083069
0.0081565
0.00802686
0.00789968
0.00773775
0.00756476
0.00741024
0.00729563
0.00724694
0.0072152
0.00720557
0.00720876
0.00721361
0.00721337
0.00720868
0.00720306
0.00720142
0.00717911
0.00711349
0.00701851
0.00686772
0.00426753
0.00480678
0.00618386
0.00814369
0.00895431
0.00859097
0.00783345
0.00709955
0.00657624
0.00569948
0.00490865
0.00439128
0.00411944
0.00400185
0.003984
0.00400889
0.00404172
0.00405404
0.00405209
0.00403864
0.00400244
0.00394294
0.00385129
0.0037226
0.00359514
0.00336223
0.00254868
0.000952119
0.000551646
0.000876951
0.00607408
0.00795953
0.00981988
0.00971019
0.00904624
0.008544
0.00838811
0.00841202
0.00853096
0.0086014
0.00873899
0.00876486
0.00885124
0.00884595
0.00883527
0.0088169
0.00882019
0.00889682
0.00902773
0.00910217
0.00899319
0.00851147
0.00749841
0.00660429
0.00615146
0.00608913
0.00629948
0.00646535
0.00682445
0.00741864
0.00515398
0.00531745
0.00529571
0.00497478
0.00451828
0.00405787
0.00363594
0.00325671
0.00298496
0.00280234
0.00267767
0.00264772
0.00269116
0.00283687
0.00306625
0.00338062
0.00380847
0.00420307
0.00538772
0.00784258
0.00967894
0.0101183
0.010172
0.0100132
0.00939851
0.00862971
0.0081142
0.00799933
0.00839745
0.010386
0.00512686
0.00499926
0.00542809
0.0058339
0.00580573
0.00542559
0.00480438
0.00419955
0.00367076
0.00323026
0.00297195
0.00278437
0.00269626
0.00269494
0.00278029
0.00296967
0.00330059
0.00366816
0.00400067
0.0050999
0.00718361
0.00811105
0.00819648
0.00804571
0.00769275
0.00779051
0.00806849
0.00834744
0.00853105
0.00873148
0.00653669
0.00669225
0.00694876
0.00683918
0.00644887
0.00590396
0.00535855
0.00485051
0.00446847
0.00424317
0.00418439
0.00428991
0.00453305
0.00472017
0.00504448
0.00623755
0.00818566
0.00990153
0.00970882
0.00937958
0.00942437
0.00954619
0.00972962
0.00995399
0.0101419
0.0101971
0.0100472
0.00985007
0.0099742
0.0107377
0.00815748
0.00860565
0.00875744
0.00847861
0.00826309
0.00827125
0.00836317
0.00847348
0.00853925
0.00858059
0.0085599
0.00854934
0.00848873
0.00846001
0.0084657
0.00864019
0.00890045
0.00925119
0.0093047
0.00905326
0.00849786
0.00783099
0.00725004
0.00702084
0.00714738
0.0075003
0.00771226
0.00780179
0.00817622
0.00811793
0.0136792
0.0101837
0.00866039
0.0112288
0.0139634
0.0194707
0.0237269
0.0245892
0.0246522
0.0245005
0.02416
0.023889
0.023661
0.0236959
0.0237919
0.0240464
0.024231
0.0242365
0.0238761
0.0231447
0.0222269
0.0215682
0.0212681
0.0212775
0.0217741
0.0224396
0.0220323
0.0201974
0.0175199
0.0196384
0.000504444
0.000446842
0.000527747
0.000705775
0.000903757
0.00111352
0.00125965
0.00139145
0.00151624
0.00140756
0.0011825
0.00114137
0.00146364
0.00222638
0.000310624
0.000321115
0.000315778
0.000340931
0.000468208
0.000773259
0.00116989
0.0013844
0.0014106
0.00135751
0.00123649
0.00103211
0.00084268
0.000552872
0.00039588
0.000363891
0.000396279
0.000449548
0.000492209
0.000516512
0.000523619
0.000515181
0.000487897
0.000447622
0.000415844
0.000414796
0.000449691
0.000501781
0.000541033
0.000433034
0.00180056
0.00282141
0.00306594
0.0030774
0.00295936
0.00268295
0.00222385
0.00161126
0.00123809
0.00108019
0.00101258
0.000955906
0.000967927
0.00109228
0.00126034
0.00143171
0.00154587
0.00155416
0.00149434
0.00139916
0.00135065
0.00132436
0.00129918
0.0012996
0.00128386
0.00128184
0.00132177
0.00144517
0.00188947
0.00217707
0.0028651
0.00288838
0.00267503
0.00278111
0.00305923
0.0032304
0.00321601
0.00308813
0.00296873
0.00283582
0.00263991
0.00236018
0.00218657
0.00217831
0.00232781
0.00234148
0.00227051
0.00216069
0.00202289
0.00188336
0.00179306
0.00174137
0.00174309
0.0017963
0.00189157
0.00201237
0.00216848
0.00232184
0.00246789
0.00256159
0.00395801
0.00374698
0.00379198
0.00410398
0.00392535
0.00367919
0.00342844
0.00329347
0.00317385
0.00305364
0.00291893
0.00279301
0.00267591
0.00257436
0.00252907
0.00252758
0.00256888
0.00262865
0.00271379
0.00283127
0.00303553
0.00332428
0.0037046
0.00377708
0.00360381
0.00344153
0.00318498
0.00272938
0.00291464
0.00343151
0.00737206
0.007242
0.00774793
0.00848531
0.00904482
0.00922649
0.00917175
0.00886363
0.00852026
0.00828484
0.00816712
0.00802962
0.00784433
0.0075907
0.00736607
0.00723307
0.00720024
0.00724228
0.00729621
0.0073406
0.00736086
0.00734954
0.00731122
0.00726275
0.00721587
0.00718186
0.007163
0.00711802
0.0070407
0.00690867
0.00428467
0.00518904
0.00719782
0.0093341
0.0097897
0.0089289
0.00767753
0.00679729
0.00615437
0.00512912
0.00436799
0.00401802
0.0039243
0.003974
0.0040879
0.00422341
0.00433701
0.0044156
0.00443056
0.00439339
0.00431041
0.00418921
0.0040327
0.00384657
0.00366281
0.00351262
0.00306094
0.00168174
0.000687417
0.000816424
0.00655407
0.00935866
0.0099159
0.00888667
0.00830846
0.00825278
0.00841268
0.00863637
0.00886417
0.00906687
0.00922791
0.00932303
0.00938577
0.00937302
0.00930495
0.00919162
0.00903509
0.00890539
0.00890456
0.00897723
0.00901519
0.00884374
0.00818967
0.00709047
0.00616277
0.00592256
0.00617532
0.0062805
0.00644661
0.00726198
0.00532455
0.00561725
0.00531109
0.00470225
0.00412793
0.0035836
0.00306968
0.00266394
0.00231081
0.00204017
0.00188129
0.00184758
0.0019347
0.00213067
0.00242718
0.00280877
0.00325823
0.0037494
0.00443127
0.00604723
0.00825044
0.00969778
0.0101242
0.0097221
0.00897794
0.00810667
0.00745028
0.00737102
0.00787389
0.00969156
0.00496315
0.00523685
0.00597062
0.00625277
0.00582039
0.00495326
0.00409317
0.00335228
0.00286267
0.00245612
0.00214962
0.00195291
0.00187682
0.00190224
0.00204327
0.00229206
0.00265946
0.00312085
0.00356303
0.0044105
0.00635485
0.00797385
0.00825816
0.00779148
0.00723696
0.00748628
0.0079455
0.00835181
0.00863055
0.00876636
0.00711135
0.00717387
0.00685617
0.00621158
0.00547392
0.00465618
0.00387828
0.00321258
0.00280909
0.00262523
0.00268354
0.00296366
0.00341918
0.00405928
0.00449363
0.00511921
0.00654655
0.00891598
0.00970018
0.00934339
0.00935852
0.00944461
0.00962975
0.00991892
0.0102303
0.0103875
0.0102907
0.0100287
0.0101673
0.010888
0.0083384
0.00874498
0.00865798
0.008398
0.00838863
0.00852647
0.00869291
0.00882907
0.00889706
0.00894566
0.0089301
0.00887386
0.00878204
0.00861344
0.00844483
0.00836898
0.00848501
0.00889171
0.00916629
0.00880106
0.00795998
0.00704934
0.00621098
0.00568038
0.00576975
0.00644419
0.00710752
0.00751981
0.00805671
0.00812867
0.0152641
0.010236
0.00874748
0.0128481
0.0174614
0.0224876
0.0244599
0.0245163
0.0241307
0.0234604
0.0226987
0.0222083
0.0218244
0.0218606
0.0221625
0.0226834
0.0233604
0.0238906
0.0239623
0.0232539
0.0215233
0.0196275
0.0183329
0.0174376
0.0174148
0.01774
0.0180865
0.0173477
0.017123
0.0209384
0.000379129
0.000474283
0.000703205
0.000946528
0.00111522
0.00115816
0.00118552
0.00127398
0.00153274
0.00172167
0.00148336
0.00123088
0.00138032
0.0021671
0.000310074
0.000318825
0.000306084
0.000316458
0.000391483
0.000679296
0.00105422
0.00130279
0.00139755
0.00138949
0.00129457
0.00103876
0.000790523
0.000481137
0.000368767
0.000402715
0.00048145
0.00054115
0.000576244
0.000589432
0.00060004
0.0005964
0.000571862
0.000528781
0.000466582
0.00042516
0.000426893
0.000472989
0.000532632
0.000457805
0.00173229
0.00280932
0.00317116
0.00333148
0.003367
0.00316579
0.00251673
0.00158531
0.00113949
0.0010056
0.000965321
0.000912623
0.000973695
0.001185
0.00142835
0.00160266
0.00157055
0.00140874
0.0012812
0.00120904
0.00115697
0.00115601
0.00115435
0.00119092
0.00121365
0.00123005
0.00126464
0.00134859
0.00173483
0.00216925
0.00286481
0.00287096
0.00266833
0.0028563
0.0031624
0.00323625
0.00307013
0.00290878
0.00288977
0.00284408
0.00263593
0.0022689
0.00209352
0.00218551
0.00238848
0.00229489
0.00212784
0.00192145
0.00172589
0.00153407
0.00141112
0.0013426
0.00136137
0.00143234
0.00156552
0.00174221
0.00194276
0.00215438
0.00235559
0.00252848
0.00398442
0.00374034
0.00381953
0.00400827
0.00344529
0.00335751
0.00328615
0.00319085
0.00305866
0.00288867
0.00269389
0.00247351
0.00230061
0.00220254
0.00213899
0.00217407
0.00223994
0.00236295
0.00248733
0.00262017
0.00280655
0.00308424
0.00344615
0.00376514
0.00370157
0.00343537
0.00325474
0.00269825
0.00302911
0.00371629
0.00738782
0.00722875
0.00776091
0.00854608
0.00912089
0.00927315
0.00918133
0.00878449
0.0083492
0.00817792
0.0081262
0.00795808
0.00770528
0.00740312
0.00721125
0.00720105
0.00729846
0.00745582
0.00758227
0.00768146
0.00771197
0.00767713
0.00759057
0.00747311
0.00734284
0.00723043
0.0071689
0.00711554
0.0070454
0.00692268
0.00430031
0.0054931
0.00787007
0.0100227
0.0103825
0.00930429
0.00747974
0.00662874
0.00587316
0.00470585
0.00405622
0.00386597
0.00391154
0.00407258
0.00428885
0.00452307
0.00472374
0.00485155
0.00487598
0.00481798
0.00468965
0.00450169
0.00426616
0.00401345
0.00375444
0.00356393
0.00324762
0.0022388
0.000888179
0.000838975
0.00761687
0.0104193
0.00915741
0.0082426
0.00817353
0.00835296
0.00861712
0.00892203
0.00917431
0.00944941
0.00963719
0.009785
0.00987407
0.00988049
0.00982876
0.00966863
0.00943675
0.00916643
0.00896839
0.00890501
0.00894172
0.00890972
0.00855902
0.00760364
0.00645371
0.00594954
0.00613617
0.00622568
0.00620978
0.00700879
0.00607036
0.00592042
0.00518094
0.00446021
0.0038586
0.00320612
0.00267583
0.00213468
0.00168132
0.00136271
0.00121294
0.00118853
0.00125285
0.00146255
0.00183954
0.00227068
0.00279199
0.00329297
0.00389263
0.00489589
0.00664265
0.00841885
0.00919929
0.00889193
0.00818687
0.00740681
0.00675446
0.00671006
0.00738546
0.00922539
0.00502156
0.0057282
0.00661702
0.00639377
0.00536936
0.00427698
0.00338211
0.00277877
0.00225078
0.00182567
0.00151455
0.00131984
0.00122427
0.00125986
0.00139807
0.00170248
0.002117
0.00265623
0.00316328
0.00395823
0.00575104
0.00762637
0.00817583
0.00745321
0.00693378
0.00742488
0.00807069
0.00846491
0.00876505
0.0088345
0.0072469
0.0068182
0.00615214
0.00534758
0.00436692
0.00326539
0.00242675
0.00176677
0.00131994
0.00115485
0.00129417
0.00170349
0.00238914
0.00317456
0.00394781
0.00450511
0.00556399
0.00818496
0.00959985
0.00925084
0.00914423
0.00911419
0.00921567
0.00948058
0.00990819
0.0103735
0.0106013
0.0105639
0.0105861
0.0110719
0.00841787
0.0087838
0.00861093
0.00846593
0.00860339
0.00882938
0.00901099
0.00912147
0.0091982
0.00921922
0.00923683
0.00920515
0.00916498
0.00898151
0.00874286
0.00846128
0.00829654
0.00853932
0.00899453
0.00871502
0.00778791
0.00686965
0.00585614
0.00505252
0.00500534
0.0056317
0.00654892
0.00724332
0.00798837
0.00811234
0.0166441
0.0109554
0.00886306
0.0147838
0.0201907
0.0237794
0.0245218
0.0240782
0.0231273
0.0220245
0.0208793
0.0201044
0.0195155
0.0195128
0.0199115
0.0208046
0.0218577
0.0229603
0.0237843
0.0238049
0.0221789
0.0192483
0.0172403
0.0166214
0.016859
0.0171205
0.0173714
0.0175386
0.0185969
0.0232923
0.000405996
0.000599737
0.000860317
0.00104542
0.0010997
0.00108615
0.00105986
0.0010749
0.00121707
0.00162498
0.00169031
0.00135597
0.00138477
0.00214068
0.000308344
0.000316788
0.000297008
0.000287586
0.000331354
0.000490913
0.000757482
0.00104457
0.00117557
0.00122571
0.0012562
0.00100065
0.000721756
0.000423352
0.00038019
0.000464714
0.000553626
0.000591827
0.000605167
0.000613028
0.000618189
0.000627752
0.000626335
0.000593904
0.000524722
0.00045122
0.000422243
0.000454136
0.000524267
0.000464561
0.001604
0.00269409
0.00318503
0.00346193
0.00362862
0.003411
0.0025487
0.0014381
0.00107207
0.000965959
0.000931906
0.000884576
0.0010487
0.00133363
0.00162134
0.00160532
0.00135727
0.00119336
0.00107637
0.00100724
0.000987468
0.000987059
0.00100933
0.00106491
0.00111543
0.00116402
0.00121589
0.00129423
0.00162456
0.0021551
0.00286998
0.00285375
0.00264771
0.00285117
0.00312236
0.00307539
0.00280481
0.00265567
0.00277573
0.00283869
0.00260325
0.00214258
0.00201539
0.0022393
0.0024056
0.00218367
0.00193597
0.00166175
0.00138881
0.0012255
0.00115454
0.0011143
0.00112217
0.00117975
0.00127679
0.00148513
0.00174331
0.00200351
0.00226259
0.00249388
0.0040257
0.00376271
0.00380166
0.00344422
0.00317853
0.00325761
0.00323162
0.00312482
0.00295886
0.00270968
0.00240767
0.00215684
0.00200486
0.00194356
0.0019323
0.00193317
0.00198543
0.00211267
0.00229125
0.00244981
0.00263727
0.0029019
0.00328249
0.00369981
0.00374379
0.00350707
0.00328794
0.00272988
0.00335828
0.00410372
0.00739891
0.00723399
0.00762779
0.00832763
0.00889656
0.00908586
0.00895135
0.00846692
0.00805799
0.00805841
0.00804793
0.00782842
0.00752799
0.0072404
0.00717665
0.00731014
0.00752637
0.00776173
0.00795604
0.00809618
0.00813603
0.0080741
0.0079373
0.00775045
0.00754181
0.00734913
0.00721078
0.00711728
0.00704003
0.00692706
0.00433978
0.00568012
0.00818429
0.0103565
0.0107735
0.00972803
0.00728473
0.00654805
0.005687
0.00440314
0.00388474
0.00380513
0.00393299
0.00417425
0.00447823
0.00481099
0.00511673
0.00531477
0.0053516
0.00525519
0.0050603
0.00480933
0.0045033
0.00418408
0.00385521
0.0035948
0.00330559
0.00254148
0.00105237
0.00090875
0.00862211
0.0101729
0.00852289
0.00812572
0.00819894
0.0084439
0.00875502
0.00909756
0.00941635
0.00973399
0.00996689
0.0101318
0.0102598
0.0102567
0.0102079
0.0100552
0.0098137
0.00948421
0.00916657
0.00893813
0.00888821
0.00889718
0.00869188
0.00798234
0.00682358
0.00611826
0.00618254
0.00621399
0.00608347
0.00678761
0.00678312
0.00608785
0.0050551
0.0043185
0.00366587
0.00293839
0.00228928
0.00167882
0.00121257
0.00103677
0.000946894
0.000926593
0.000982495
0.00109956
0.00134284
0.0018117
0.0023836
0.00299287
0.00347244
0.00422803
0.0054621
0.00706419
0.00791734
0.00782823
0.00734896
0.00673561
0.00619225
0.00621993
0.00711094
0.00898841
0.0052822
0.0063701
0.00702062
0.00613401
0.00474049
0.0037402
0.00298842
0.00235043
0.0018054
0.00136241
0.00109665
0.001004
0.000968582
0.000976215
0.00105136
0.0012478
0.00169495
0.00228152
0.00286585
0.0036603
0.00535049
0.00722145
0.00785143
0.00703886
0.00682467
0.00769752
0.00849168
0.00878931
0.00896347
0.00891976
0.00677455
0.00646052
0.00574151
0.00468418
0.00334199
0.00222705
0.00127663
0.000851909
0.000647834
0.000576038
0.000642295
0.000884865
0.0014681
0.00242951
0.00334443
0.00410664
0.00507037
0.00793027
0.00950947
0.00911582
0.00891245
0.00879486
0.00877579
0.00887566
0.00917038
0.00972377
0.010417
0.0109397
0.0111421
0.0112614
0.0084237
0.0088219
0.00863435
0.0085884
0.00881837
0.00906762
0.00920728
0.00925456
0.00921309
0.00916479
0.0091494
0.0091936
0.00925599
0.00922562
0.00906413
0.00870847
0.00837836
0.0082641
0.00873625
0.00878318
0.007898
0.00704531
0.00615103
0.00508515
0.00491839
0.00538969
0.00626545
0.00710054
0.00800625
0.00807176
0.018096
0.0126994
0.00894781
0.0158676
0.021625
0.0241297
0.0243034
0.0234243
0.0219885
0.0205229
0.0189802
0.0178763
0.0170372
0.0169906
0.0176472
0.0188098
0.0202698
0.0217058
0.0230233
0.0238835
0.0234029
0.0200945
0.0170223
0.0165431
0.0185068
0.0215341
0.021467
0.0214813
0.0233077
0.025608
0.000517743
0.000780105
0.00099307
0.00113959
0.0012495
0.00127883
0.00117644
0.00108256
0.00113197
0.00147763
0.00172797
0.00141358
0.00141558
0.00215406
0.000307966
0.000315813
0.000289662
0.000266593
0.000260502
0.000337277
0.000467085
0.000666555
0.000783416
0.000983056
0.00110897
0.000963365
0.000650527
0.000392057
0.000407256
0.000532606
0.000595775
0.000601402
0.000600176
0.000628871
0.000665598
0.000671442
0.000661938
0.000636905
0.000571813
0.000481627
0.000425925
0.000447087
0.000526167
0.000465753
0.00141406
0.00246879
0.00303965
0.00336724
0.00343349
0.00307184
0.00207333
0.00127367
0.00102519
0.000947873
0.000892249
0.000880343
0.00119017
0.00160928
0.00169457
0.00143613
0.00117732
0.00100892
0.000927778
0.000912851
0.000910343
0.000918847
0.000935999
0.000972439
0.00103252
0.00110326
0.00117021
0.00125879
0.00157529
0.00216497
0.00284212
0.00287664
0.0026456
0.00273464
0.00294791
0.00288601
0.00262249
0.00251191
0.00271201
0.00282394
0.00251755
0.00199004
0.00199777
0.00231478
0.00235861
0.00204392
0.00174435
0.00140084
0.00116848
0.00105916
0.000978249
0.000951032
0.00097374
0.00103638
0.00114213
0.0012868
0.0015796
0.0018916
0.00219437
0.0024761
0.00406856
0.00377873
0.00362289
0.00302868
0.00306198
0.00322739
0.00320431
0.00307147
0.00285862
0.00251274
0.00217847
0.0019515
0.00187536
0.00187236
0.00188057
0.00188051
0.00189499
0.00197459
0.00213479
0.00231463
0.00250335
0.00278106
0.00317394
0.003614
0.00375406
0.00362188
0.00329087
0.00282491
0.00416829
0.00479422
0.00745849
0.00720544
0.00744168
0.00790813
0.00834861
0.00849731
0.00830954
0.00796469
0.00786691
0.0079822
0.00794414
0.00766676
0.00735497
0.00715452
0.00724337
0.00747216
0.00775473
0.0080355
0.00827445
0.0084086
0.00844235
0.0083781
0.00821726
0.00799167
0.00773082
0.00747405
0.00726822
0.00712988
0.00703406
0.00692284
0.00433126
0.00574068
0.00819552
0.0104396
0.010916
0.0099475
0.00712231
0.00653755
0.00559644
0.00422733
0.00378122
0.00375794
0.00394183
0.00422587
0.00460268
0.00503662
0.0054545
0.00573829
0.00577818
0.00563967
0.00535891
0.00504765
0.00468373
0.00430987
0.00391804
0.00360047
0.00331196
0.00267539
0.00122222
0.000997372
0.00928007
0.00935332
0.00838878
0.00813752
0.00819267
0.00846417
0.00880989
0.00919388
0.00956362
0.00992408
0.0101803
0.010401
0.0105174
0.0105419
0.0104789
0.0103082
0.0100786
0.00972848
0.0093636
0.00903855
0.00888143
0.00886368
0.0087224
0.00818999
0.00712828
0.0063727
0.00632894
0.00621001
0.006036
0.00664956
0.00718944
0.00621478
0.00496177
0.00424284
0.00346819
0.00274864
0.00204171
0.00137255
0.00105067
0.000872492
0.000793748
0.000781592
0.000830531
0.000941345
0.00114235
0.00149222
0.00208877
0.00271983
0.00326596
0.00385372
0.00477901
0.00603266
0.00684424
0.007009
0.00676832
0.00637196
0.00597485
0.00611389
0.00709588
0.00885991
0.00572676
0.00708184
0.00706538
0.00558818
0.00429245
0.00343126
0.00275302
0.00205815
0.00151045
0.0010793
0.000966835
0.000920613
0.000911395
0.000918078
0.000941187
0.00105461
0.00143742
0.00203403
0.00265911
0.00342971
0.00511965
0.00684025
0.00730173
0.00661113
0.00691809
0.00823432
0.00901966
0.00917169
0.00916988
0.00904019
0.00687337
0.00643065
0.00542167
0.00405335
0.00260184
0.00139269
0.000792095
0.000532959
0.000455697
0.000420696
0.000453378
0.000566922
0.000963388
0.00189574
0.00296848
0.00382888
0.00490677
0.00818563
0.00943827
0.00898476
0.00879332
0.00871813
0.00867959
0.00862577
0.00861008
0.00881791
0.00930292
0.0100831
0.0108244
0.0111508
0.00838628
0.00883891
0.00871773
0.00868283
0.00896125
0.00920675
0.00926694
0.00917829
0.00900571
0.00886647
0.00884296
0.00895143
0.00913191
0.00925895
0.00925245
0.00894175
0.00857822
0.00821903
0.00838906
0.00880277
0.00817632
0.00736646
0.00678533
0.00599035
0.00540749
0.00568824
0.00632205
0.00719242
0.00812424
0.0080043
0.0190318
0.0159144
0.00864459
0.0157386
0.021988
0.0241469
0.0240549
0.0228638
0.0210244
0.0192942
0.0172717
0.0158315
0.0146106
0.0145437
0.0153897
0.0170341
0.0189302
0.0206742
0.022131
0.0234272
0.0240827
0.0217609
0.0168187
0.0155242
0.0174179
0.0241672
0.0259725
0.025946
0.0258048
0.0252815
0.000586988
0.000852792
0.00112619
0.00149518
0.00179629
0.00183149
0.00166127
0.0013981
0.00126337
0.00152468
0.00174555
0.00143228
0.00146963
0.00224132
0.000299742
0.000315857
0.000286288
0.000254865
0.000221777
0.000238103
0.000277665
0.000368212
0.000485119
0.000730182
0.00100417
0.000903665
0.000585555
0.000377627
0.000443425
0.000577991
0.00060755
0.000578646
0.000612129
0.000701146
0.000770081
0.000771658
0.000729851
0.000677849
0.000599204
0.000497691
0.000426215
0.000446105
0.000523376
0.000463894
0.00129289
0.00210964
0.00267318
0.0029463
0.00287153
0.00224362
0.00144537