/*--------------------------------*- C++ -*----------------------------------*\
| =========                 |                                                 |
| \\      /  F ield         | OpenFOAM: The Open Source CFD Toolbox           |
|  \\    /   O peration     | Version:  2.1.1                                 |
|   \\  /    A nd           | Web:      www.OpenFOAM.org                      |
|    \\/     M anipulation  |                                                 |
\*---------------------------------------------------------------------------*/
FoamFile
{
    version     2.0;
    format      ascii;
    class       volScalarField;
    location    "0.007450000";
    object      HO2;
}
// * * * * * * * * * * * * * * * * * * * * * * * * * * * * * * * * * * * * * //

dimensions      [0 0 0 0 0 0 0];

internalField   nonuniform List<scalar> 
12384
(
1.25988e-05
1.29231e-05
1.31592e-05
1.3338e-05
1.33649e-05
1.32417e-05
1.30177e-05
1.27105e-05
1.2329e-05
1.19498e-05
1.08386e-05
1.04592e-05
1.02725e-05
9.1316e-06
1.05307e-05
1.12658e-05
1.12874e-05
1.07774e-05
1.03421e-05
1.02874e-05
1.02035e-05
9.58531e-06
9.19564e-06
8.86972e-06
8.70718e-06
8.65039e-06
8.64306e-06
8.7424e-06
8.92531e-06
9.16261e-06
9.4017e-06
9.84753e-06
9.95854e-06
1.00032e-05
1.00198e-05
1.0003e-05
9.97564e-06
9.90471e-06
9.85048e-06
9.66492e-06
9.25032e-06
8.59612e-06
9.76731e-06
1.02086e-05
2.84731e-06
1.7332e-06
1.48181e-06
1.51781e-06
1.6352e-06
1.78934e-06
1.92661e-06
2.09342e-06
2.2308e-06
2.36184e-06
2.46005e-06
2.57433e-06
2.68011e-06
2.77227e-06
2.84373e-06
2.90482e-06
2.94154e-06
2.96655e-06
2.97363e-06
3.02306e-06
3.01892e-06
3.09521e-06
3.0997e-06
3.14218e-06
3.18545e-06
3.16002e-06
2.98278e-06
2.44958e-06
2.89595e-06
4.03861e-06
1.98539e-06
1.54109e-06
1.68707e-06
1.86257e-06
1.91129e-06
1.93291e-06
1.89708e-06
1.95176e-06
1.94645e-06
1.9804e-06
2.00662e-06
2.02064e-06
2.01552e-06
1.98742e-06
1.94977e-06
1.91161e-06
1.86623e-06
1.82798e-06
1.80557e-06
1.72181e-06
1.75018e-06
1.65367e-06
1.63689e-06
1.63783e-06
1.60407e-06
1.59609e-06
1.59424e-06
1.60819e-06
1.62088e-06
1.65411e-06
6.72873e-07
6.61091e-07
6.30246e-07
6.18172e-07
6.05816e-07
6.07835e-07
6.21407e-07
6.42278e-07
6.49836e-07
6.65466e-07
6.81151e-07
6.98889e-07
7.06295e-07
6.9707e-07
7.13641e-07
7.11783e-07
7.24322e-07
7.39186e-07
7.43601e-07
7.5633e-07
7.42357e-07
7.21503e-07
1.01811e-06
9.24124e-07
6.23002e-07
6.08446e-07
6.07845e-07
6.15106e-07
6.28007e-07
6.37026e-07
1.17596e-07
1.30841e-07
1.30268e-07
1.23388e-07
1.17377e-07
1.11394e-07
1.08982e-07
1.0956e-07
1.07243e-07
1.06302e-07
1.06819e-07
1.07294e-07
1.07706e-07
1.081e-07
1.08052e-07
1.07831e-07
1.06834e-07
1.04904e-07
1.03518e-07
1.05421e-07
1.03637e-07
1.08066e-07
1.11998e-07
1.12836e-07
1.21014e-07
1.25986e-07
1.31654e-07
1.42039e-07
1.57121e-07
1.70125e-07
2.89566e-07
3.08238e-07
3.28581e-07
2.88496e-07
2.48551e-07
2.12427e-07
1.87399e-07
1.89284e-07
1.99618e-07
2.13027e-07
2.27936e-07
2.38132e-07
2.6592e-07
2.63775e-07
2.57541e-07
2.68727e-07
2.67301e-07
2.61038e-07
2.70848e-07
2.75389e-07
2.89959e-07
3.00641e-07
3.1985e-07
3.39204e-07
5.25433e-07
1.03667e-06
4.52769e-06
4.63853e-06
3.8673e-06
3.49914e-06
1.29105e-07
9.69236e-08
8.99074e-08
6.11894e-08
5.19815e-08
5.92024e-08
5.87067e-08
5.82655e-08
4.12358e-08
4.94521e-08
5.43639e-08
3.84622e-08
4.38722e-08
5.27391e-08
4.17622e-08
4.58936e-08
5.23906e-08
5.92965e-08
4.80216e-08
7.28301e-08
9.59548e-08
1.24276e-07
1.24236e-07
1.24151e-07
1.21701e-07
1.21603e-07
1.1737e-07
1.1638e-07
1.1427e-07
1.17519e-07
2.86047e-07
3.22771e-07
3.52825e-07
3.7208e-07
3.59874e-07
3.72198e-07
4.10066e-07
4.23111e-07
4.05911e-07
4.08469e-07
4.1953e-07
4.32451e-07
4.43268e-07
4.66122e-07
4.68989e-07
4.93182e-07
4.82416e-07
2.54897e-07
4.04374e-08
4.6016e-08
5.06274e-08
5.22522e-08
4.86982e-08
5.54029e-08
6.19347e-08
5.038e-08
4.92182e-08
5.559e-08
4.12807e-08
2.62764e-08
2.30844e-07
2.61481e-07
2.76958e-07
2.78066e-07
2.75645e-07
2.75223e-07
2.73127e-07
2.7037e-07
2.72335e-07
2.60966e-07
2.68543e-07
2.79689e-07
3.03671e-07
2.97869e-07
3.15595e-07
3.43684e-07
3.41432e-07
3.65775e-07
2.86623e-07
8.82592e-08
7.23243e-08
7.93313e-08
8.08754e-08
8.00062e-08
8.41626e-08
8.25973e-08
8.1158e-08
6.73862e-08
6.2121e-08
5.63172e-08
1.40349e-07
1.72869e-07
1.37436e-07
1.25847e-07
1.24876e-07
1.23308e-07
1.65129e-07
1.67785e-07
1.56985e-07
1.85101e-07
1.99598e-07
2.06773e-07
2.07416e-07
1.99852e-07
6.49363e-08
2.02064e-08
1.63255e-08
1.76726e-08
1.71406e-08
1.64915e-08
1.67506e-08
1.54833e-08
1.55271e-08
1.54424e-08
1.54197e-08
1.53358e-08
1.52228e-08
1.50912e-08
1.45461e-08
1.29744e-08
3.57717e-08
3.88549e-08
3.31605e-08
2.19095e-08
2.26474e-08
2.97834e-08
3.13219e-08
3.15859e-08
3.20668e-08
3.15705e-08
3.19495e-08
2.86146e-08
2.70353e-08
3.10168e-08
2.98811e-08
2.73851e-08
2.71601e-08
3.12242e-08
2.99123e-08
3.5058e-08
3.36054e-08
3.25757e-08
3.18863e-08
3.77665e-08
3.8566e-08
4.25001e-08
4.58891e-08
4.73946e-08
3.72949e-08
4.46757e-08
1.70514e-08
1.75057e-08
1.70097e-08
1.57451e-08
1.21973e-08
1.20576e-08
3.20197e-09
1.24587e-09
1.03223e-09
1.00324e-09
9.28596e-10
9.30688e-10
8.18397e-10
8.27895e-10
8.0245e-10
8.02202e-10
7.69332e-10
7.60862e-10
7.4054e-10
7.36853e-10
7.24312e-10
7.39503e-10
7.37552e-10
7.66822e-10
7.10625e-10
8.51712e-10
9.78691e-10
1.3472e-09
2.20998e-09
1.72462e-09
1.35831e-05
1.44183e-05
1.46876e-05
1.46296e-05
1.44709e-05
1.42594e-05
1.40011e-05
1.3731e-05
1.34483e-05
1.26351e-05
1.20316e-05
1.06765e-05
1.01883e-05
9.10985e-06
1.0658e-05
1.13212e-05
1.11488e-05
1.07717e-05
1.05507e-05
1.04984e-05
9.46984e-06
8.62586e-06
7.46276e-06
7.11571e-06
7.04035e-06
7.14379e-06
7.94514e-06
8.56206e-06
9.3498e-06
1.01508e-05
1.05407e-05
1.07917e-05
1.09118e-05
1.09785e-05
1.10951e-05
1.10846e-05
1.10179e-05
1.08697e-05
1.05406e-05
1.02022e-05
9.72736e-06
8.84054e-06
9.21588e-06
1.02494e-05
2.70529e-06
1.63823e-06
1.43693e-06
1.52674e-06
1.71546e-06
1.96681e-06
2.23978e-06
2.53366e-06
2.82419e-06
3.04949e-06
3.69063e-06
3.8443e-06
3.91927e-06
3.91145e-06
3.8462e-06
3.72536e-06
3.14628e-06
3.10559e-06
3.10173e-06
3.11703e-06
3.13818e-06
3.24253e-06
3.75689e-06
3.89003e-06
3.36053e-06
3.34945e-06
3.23386e-06
2.81843e-06
2.51415e-06
2.74545e-06
1.85967e-06
1.57695e-06
1.79712e-06
1.91314e-06
1.92696e-06
1.8645e-06
1.82548e-06
1.81407e-06
1.86443e-06
1.9568e-06
2.06627e-06
2.17957e-06
2.25846e-06
2.27743e-06
2.23904e-06
2.15388e-06
2.09141e-06
2.02708e-06
2.00923e-06
1.96951e-06
1.94546e-06
1.89351e-06
1.89095e-06
1.8209e-06
1.77864e-06
1.71398e-06
1.67179e-06
1.65975e-06
1.64807e-06
1.6491e-06
6.73133e-07
6.64076e-07
6.36215e-07
6.1656e-07
6.02926e-07
6.06681e-07
6.48686e-07
6.95155e-07
7.47862e-07
1.07511e-06
1.21197e-06
1.26682e-06
1.29687e-06
1.37335e-06
1.40658e-06
1.40935e-06
1.42527e-06
1.39984e-06
1.31062e-06
1.20378e-06
8.09679e-07
7.59231e-07
7.48258e-07
1.02777e-06
6.35788e-07
5.85329e-07
6.19184e-07
6.5238e-07
6.28534e-07
5.81348e-07
1.21445e-07
1.32026e-07
1.2705e-07
1.07832e-07
9.97811e-08
9.52259e-08
9.40617e-08
9.0072e-08
8.5814e-08
9.69893e-08
9.65141e-08
9.81107e-08
1.01091e-07
1.03153e-07
1.0613e-07
1.08963e-07
1.10842e-07
1.14937e-07
1.15974e-07
1.16314e-07
1.18515e-07
1.16927e-07
1.19912e-07
1.26916e-07
1.24481e-07
1.27351e-07
1.34226e-07
1.39269e-07
1.48009e-07
1.65902e-07
2.89937e-07
3.01525e-07
2.45692e-07
8.37162e-08
9.89661e-08
9.04693e-08
9.16541e-08
1.00856e-07
1.11638e-07
1.43889e-07
1.95407e-07
2.31634e-07
2.73303e-07
2.7917e-07
2.77557e-07
2.80201e-07
2.72076e-07
2.73024e-07
2.68651e-07
2.74065e-07
2.81255e-07
2.94659e-07
3.07473e-07
3.2459e-07
3.43739e-07
7.10333e-07
1.72037e-06
4.43021e-06
3.69019e-06
2.92711e-06
1.20208e-07
9.78866e-08
6.27838e-08
5.92426e-08
5.9136e-08
5.1114e-08
5.91213e-08
7.53899e-08
7.38976e-08
6.52289e-08
6.29646e-08
6.76014e-08
6.47658e-08
6.31162e-08
6.19725e-08
6.36423e-08
5.13733e-08
5.33017e-08
5.79982e-08
6.68765e-08
7.90651e-08
1.01852e-07
1.24942e-07
1.29971e-07
1.31773e-07
1.32967e-07
1.27413e-07
1.21856e-07
1.13064e-07
1.10351e-07
2.84906e-07
3.15206e-07
3.41459e-07
3.31324e-07
3.90687e-07
4.26007e-07
4.60297e-07
4.70561e-07
4.91075e-07
5.18074e-07
7.60761e-07
7.71978e-07
7.07229e-07
5.37686e-07
5.32899e-07
5.16004e-07
5.22051e-07
4.41911e-07
1.3723e-07
5.13809e-08
4.6071e-08
4.72126e-08
4.70416e-08
4.93895e-08
5.22053e-08
7.44184e-08
7.76908e-08
9.10773e-08
5.43122e-08
3.01081e-08
2.31508e-07
2.70919e-07
2.6767e-07
2.44236e-07
1.98866e-07
2.35708e-07
2.5023e-07
2.72882e-07
2.96974e-07
3.03698e-07
3.28428e-07
3.38068e-07
3.39906e-07
3.61286e-07
3.67168e-07
3.66433e-07
3.63075e-07
3.8762e-07
3.52847e-07
1.29859e-07
8.3952e-08
7.71294e-08
7.80484e-08
8.25121e-08
8.38981e-08
8.46424e-08
8.41903e-08
8.17265e-08
6.76882e-08
5.82017e-08
1.12205e-07
1.47346e-07
1.22171e-07
1.13613e-07
1.15138e-07
1.20086e-07
1.23735e-07
1.60436e-07
1.69168e-07
1.91359e-07
1.97523e-07
1.94519e-07
1.97919e-07
2.16059e-07
1.09077e-07
5.07215e-08
2.27481e-08
1.7322e-08
1.79715e-08
1.32885e-08
1.76249e-08
1.70851e-08
1.57257e-08
1.53801e-08
1.50969e-08
1.50231e-08
1.50548e-08
1.50887e-08
1.46578e-08
1.30006e-08
3.43252e-08
3.16594e-08
2.15024e-08
2.36069e-08
2.49171e-08
3.10025e-08
3.13472e-08
2.68605e-08
2.68022e-08
2.82491e-08
2.67135e-08
3.00216e-08
2.69698e-08
3.03057e-08
2.66886e-08
2.26785e-08
1.89431e-08
2.20514e-08
2.09512e-08
1.69476e-08
2.86067e-08
2.71974e-08
3.24663e-08
3.59493e-08
3.98919e-08
4.20836e-08
4.49174e-08
4.76646e-08
3.87739e-08
4.56945e-08
1.31348e-08
1.81944e-08
1.88765e-08
1.62758e-08
1.27707e-08
6.42959e-09
1.95904e-09
1.22408e-09
1.06027e-09
1.06621e-09
9.65081e-10
9.90502e-10
9.65835e-10
9.57032e-10
8.93995e-10
8.53321e-10
7.98679e-10
7.92906e-10
7.60845e-10
5.41723e-10
8.29608e-10
5.37954e-10
5.87976e-10
5.99183e-10
6.5553e-10
7.44847e-10
8.82326e-10
1.34668e-09
2.35574e-09
1.78837e-09
1.47561e-05
1.52137e-05
1.50749e-05
1.47918e-05
1.41885e-05
1.362e-05
1.28079e-05
1.25506e-05
1.24799e-05
1.24088e-05
1.21948e-05
1.16525e-05
1.02305e-05
9.0498e-06
1.07827e-05
1.13198e-05
1.10389e-05
1.08273e-05
1.0821e-05
1.02367e-05
9.13198e-06
7.61013e-06
7.04249e-06
6.69921e-06
6.59589e-06
6.8159e-06
7.80819e-06
8.93748e-06
1.01703e-05
1.07834e-05
1.10178e-05
1.10553e-05
1.10505e-05
1.11294e-05
1.12139e-05
1.13618e-05
1.14644e-05
1.14915e-05
1.13308e-05
1.09712e-05
1.03596e-05
9.56921e-06
9.07939e-06
9.82955e-06
2.60555e-06
1.55058e-06
1.35501e-06
1.43603e-06
1.63464e-06
1.96863e-06
2.40608e-06
2.96889e-06
4.04325e-06
4.69694e-06
5.01352e-06
5.09732e-06
4.92055e-06
4.5758e-06
4.13922e-06
3.73776e-06
3.05686e-06
2.99161e-06
2.96713e-06
3.01478e-06
3.05299e-06
3.1569e-06
3.72938e-06
3.95634e-06
3.99173e-06
4.08719e-06
3.46303e-06
3.17783e-06
2.65543e-06
2.5429e-06
1.75361e-06
1.618e-06
1.8431e-06
1.89265e-06
1.70863e-06
1.5271e-06
1.44321e-06
1.5022e-06
1.61619e-06
1.7572e-06
1.95475e-06
2.13941e-06
2.30039e-06
2.34246e-06
2.26121e-06
2.16493e-06
2.10048e-06
2.06404e-06
2.11527e-06
2.11457e-06
2.10494e-06
2.11921e-06
2.09562e-06
2.06592e-06
2.00695e-06
1.9237e-06
1.8357e-06
1.75611e-06
1.70904e-06
1.69977e-06
6.70798e-07
6.71207e-07
6.54274e-07
6.17703e-07
5.95262e-07
6.4381e-07
7.00844e-07
1.01951e-06
1.23657e-06
1.38989e-06
1.46682e-06
1.53418e-06
1.65134e-06
1.71765e-06
1.81234e-06
1.82502e-06
1.79596e-06
1.79616e-06
1.71121e-06
1.53712e-06
1.31943e-06
8.26698e-07
7.81124e-07
7.49151e-07
1.00607e-06
6.66088e-07
1.14714e-06
1.4988e-06
1.30498e-06
6.75854e-07
1.24295e-07
1.30072e-07
1.22707e-07
1.02491e-07
9.39743e-08
7.6183e-08
7.2541e-08
8.20973e-08
8.98681e-08
8.34522e-08
8.05697e-08
8.38838e-08
9.04172e-08
9.8636e-08
1.07441e-07
1.17535e-07
1.26312e-07
1.34467e-07
1.36689e-07
1.34415e-07
1.37109e-07
1.38644e-07
1.32101e-07
1.35709e-07
1.34506e-07
1.34522e-07
1.3631e-07
1.39632e-07
1.41454e-07
1.60278e-07
2.85476e-07
2.5376e-07
1.38266e-07
8.08114e-08
5.87074e-08
6.30728e-08
7.84764e-08
1.02386e-07
1.15951e-07
1.74925e-07
2.41599e-07
2.96103e-07
3.11059e-07
3.10378e-07
3.11627e-07
2.98791e-07
2.91212e-07
2.84412e-07
2.80344e-07
2.79302e-07
2.80658e-07
2.89287e-07
2.98435e-07
3.1232e-07
3.28307e-07
5.34583e-07
1.04695e-06
2.76909e-06
3.95655e-06
3.04401e-06
1.23436e-07
9.65189e-08
5.78905e-08
5.9371e-08
6.40055e-08
7.62124e-08
8.95305e-08
8.17661e-08
7.4111e-08
7.53628e-08
7.17654e-08
5.92954e-08
6.07315e-08
5.55391e-08
5.86375e-08
6.09268e-08
6.48546e-08
6.73535e-08
5.38431e-08
5.73822e-08
6.63337e-08
8.03915e-08
1.0407e-07
1.29123e-07
1.37384e-07
1.48559e-07
1.24684e-07
1.35351e-07
1.26247e-07
1.06812e-07
2.9117e-07
3.12737e-07
3.28332e-07
3.64899e-07
4.20239e-07
4.81302e-07
5.22253e-07
9.44329e-07
1.12639e-06
1.30269e-06
1.38688e-06
1.44768e-06
1.37035e-06
1.28486e-06
1.11639e-06
8.93118e-07
5.54373e-07
5.25017e-07
3.26108e-07
1.02973e-07
4.93603e-08
4.29344e-08
4.20662e-08
4.44669e-08
4.34824e-08
7.30292e-08
9.55691e-08
9.83597e-08
9.51693e-08
4.25557e-08
2.42767e-07
2.62425e-07
2.26657e-07
1.50219e-07
1.5567e-07
2.24572e-07
2.70449e-07
3.18155e-07
3.44803e-07
5.95144e-07
7.91707e-07
8.60184e-07
9.34462e-07
9.52433e-07
9.62944e-07
8.23274e-07
6.84586e-07
3.89689e-07
3.91613e-07
2.72381e-07
1.06849e-07
7.34991e-08
7.3607e-08
8.0637e-08
9.32532e-08
8.92996e-08
8.10388e-08
7.76168e-08
6.34388e-08
5.91199e-08
1.04375e-07
1.01216e-07
1.01015e-07
1.05417e-07
1.12254e-07
1.21718e-07
1.85173e-07
2.16649e-07
2.59288e-07
2.82843e-07
2.7392e-07
2.65997e-07
2.5414e-07
2.34656e-07
2.13133e-07
1.05721e-07
4.73863e-08
2.06484e-08
1.78292e-08
1.18735e-08
1.75008e-08
1.60861e-08
1.52512e-08
1.45653e-08
1.40061e-08
1.38817e-08
1.43251e-08
1.49379e-08
1.45725e-08
1.29317e-08
3.12726e-08
2.25788e-08
2.44918e-08
2.60964e-08
2.77001e-08
2.90051e-08
3.06824e-08
2.67824e-08
2.74911e-08
3.10636e-08
3.06774e-08
3.24573e-08
2.99436e-08
3.1664e-08
2.64723e-08
2.73589e-08
2.08956e-08
2.10353e-08
1.9613e-08
2.65253e-08
3.38992e-08
4.52675e-08
5.48821e-08
5.68211e-08
5.64022e-08
5.26619e-08
4.95873e-08
4.93523e-08
4.69596e-08
4.50515e-08
7.66489e-09
1.79548e-08
2.4172e-08
1.24565e-08
7.32832e-09
2.80106e-09
1.26219e-09
1.22627e-09
1.1702e-09
1.19754e-09
1.19408e-09
1.44389e-09
1.27819e-09
1.32395e-09
1.05627e-09
8.35259e-10
1.02117e-09
9.21201e-10
8.65753e-10
1.05069e-09
1.10053e-09
1.24893e-09
1.36426e-09
1.39517e-09
1.33837e-09
1.24779e-09
1.33621e-09
1.62965e-09
2.82943e-09
1.66869e-09
1.53357e-05
1.51779e-05
1.48471e-05
1.38529e-05
1.24016e-05
1.14542e-05
1.09298e-05
1.02253e-05
1.03911e-05
1.13996e-05
1.18401e-05
1.1631e-05
1.03915e-05
8.93974e-06
1.08298e-05
1.1325e-05
1.10117e-05
1.08955e-05
1.1088e-05
1.05544e-05
9.27047e-06
7.81698e-06
7.28045e-06
6.93937e-06
6.67543e-06
6.77035e-06
7.8479e-06
9.6114e-06
1.05831e-05
1.0927e-05
1.0812e-05
1.06135e-05
1.05226e-05
1.05737e-05
1.06729e-05
1.08858e-05
1.12755e-05
1.16015e-05
1.17361e-05
1.15345e-05
1.0978e-05
1.00856e-05
9.17718e-06
9.54104e-06
2.59907e-06
1.49255e-06
1.2388e-06
1.21486e-06
1.34846e-06
1.67371e-06
2.32518e-06
3.16491e-06
4.72848e-06
5.47051e-06
5.72323e-06
5.75598e-06
5.39786e-06
4.66676e-06
3.90566e-06
3.00808e-06
2.89413e-06
2.89565e-06
2.99816e-06
3.11255e-06
3.71125e-06
3.85953e-06
3.95905e-06
4.09334e-06
4.16189e-06
4.29655e-06
4.21501e-06
3.42986e-06
2.88432e-06
2.48914e-06
1.68857e-06
1.63774e-06
1.88806e-06
1.74662e-06
1.43903e-06
1.26976e-06
1.29207e-06
1.40237e-06
1.50606e-06
1.64961e-06
1.88678e-06
2.18938e-06
2.41884e-06
2.39086e-06
2.21289e-06
2.1319e-06
2.12403e-06
2.21158e-06
2.28516e-06
2.32003e-06
2.39835e-06
2.41325e-06
2.39742e-06
2.37046e-06
2.28469e-06
2.16374e-06
2.03249e-06
1.90402e-06
1.81293e-06
1.72585e-06
6.67945e-07
6.78904e-07
6.55788e-07
6.01e-07
6.35179e-07
7.05371e-07
1.05848e-06
1.25814e-06
1.41462e-06
1.52461e-06
1.6611e-06
1.87668e-06
2.01978e-06
2.08062e-06
2.11683e-06
2.16307e-06
2.15478e-06
2.12033e-06
2.01232e-06
1.88915e-06
1.65477e-06
1.36051e-06
8.18552e-07
7.75736e-07
7.47686e-07
1.05885e-06
1.27091e-06
1.73393e-06
1.53723e-06
1.01704e-06
1.21694e-07
1.29881e-07
1.10039e-07
9.78508e-08
7.3339e-08
7.21956e-08
6.85988e-08
7.62519e-08
8.24215e-08
7.74435e-08
8.49592e-08
8.73443e-08
9.80666e-08
1.03617e-07
1.19241e-07
1.36153e-07
1.42917e-07
1.50134e-07
1.52928e-07
1.56901e-07
1.56423e-07
1.58795e-07
1.55795e-07
1.53976e-07
1.55245e-07
1.44856e-07
1.34567e-07
1.35155e-07
1.40397e-07
1.55498e-07
2.81859e-07
2.15105e-07
1.01091e-07
5.10191e-08
4.43734e-08
4.6818e-08
8.35553e-08
1.07108e-07
1.27493e-07
2.16344e-07
2.94026e-07
3.20212e-07
3.21915e-07
3.15347e-07
3.02144e-07
2.93962e-07
2.7723e-07
2.64395e-07
2.70957e-07
2.7088e-07
2.78471e-07
2.79492e-07
2.9337e-07
3.01127e-07
3.18207e-07
3.36336e-07
7.29449e-07
1.58163e-06
3.54619e-06
3.20643e-06
1.23628e-07
4.58326e-08
5.76725e-08
7.05397e-08
8.57402e-08
9.37593e-08
8.49836e-08
7.06507e-08
6.06292e-08
4.85809e-08
5.44521e-08
4.93931e-08
4.51483e-08
4.655e-08
4.63583e-08
5.08096e-08
5.56791e-08
6.26348e-08
6.61467e-08
5.38923e-08
5.85067e-08
6.83341e-08
8.66448e-08
1.19356e-07
1.31799e-07
1.58103e-07
1.34343e-07
1.29254e-07
1.38607e-07
1.17678e-07
3.17206e-07
2.44185e-07
3.20213e-07
3.92101e-07
4.63261e-07
5.33705e-07
1.0309e-06
1.40703e-06
1.73213e-06
1.93482e-06
2.10417e-06
2.14204e-06
2.06237e-06
1.92616e-06
1.67778e-06
1.37865e-06
1.02889e-06
5.75117e-07
4.88841e-07
1.97562e-07
9.6052e-08
4.84688e-08
4.25031e-08
4.83383e-08
5.98216e-08
9.02436e-08
1.14781e-07
1.24866e-07
1.14374e-07
5.32433e-08
2.58456e-07
2.34489e-07
1.73317e-07
1.0892e-07
1.86345e-07
2.48495e-07
3.21495e-07
5.86265e-07
9.16584e-07
1.09048e-06
1.2526e-06
1.3816e-06
1.46363e-06
1.46873e-06
1.39496e-06
1.27857e-06
1.03972e-06
7.87049e-07
4.13297e-07
3.56102e-07
9.83237e-08
8.03134e-08
6.83635e-08
8.70015e-08
1.07069e-07
9.54667e-08
8.08822e-08
7.32122e-08
7.14643e-08
5.75848e-08
8.65085e-08
8.85795e-08
1.0348e-07
9.66698e-08
1.84165e-07
2.34992e-07
3.05967e-07
6.27123e-07
8.45891e-07
9.6591e-07
9.43887e-07
7.28178e-07
3.9009e-07
2.69274e-07
2.48622e-07
1.91262e-07
8.31141e-08
3.47742e-08
1.79217e-08
1.37472e-08
1.81114e-08
1.73747e-08
1.55063e-08
1.46765e-08
1.37558e-08
1.2544e-08
1.30341e-08
1.44018e-08
1.37551e-08
1.25697e-08
2.92555e-08
2.49651e-08
2.6849e-08
2.90343e-08
3.14794e-08
2.85184e-08
3.24227e-08
2.90577e-08
3.37753e-08
3.6547e-08
2.97888e-08
3.02688e-08
3.48964e-08
3.50387e-08
3.61256e-08
3.44332e-08
2.82604e-08
2.43143e-08
2.11263e-08
2.76595e-08
3.99252e-08
5.47928e-08
7.07628e-08
8.80812e-08
8.67813e-08
6.9699e-08
5.93632e-08
5.32669e-08
4.76606e-08
4.41345e-08
5.91752e-09
1.79485e-08
2.41989e-08
8.85459e-09
3.74638e-09
1.70803e-09
1.20311e-09
1.29374e-09
1.02341e-09
1.69329e-09
1.86996e-09
2.33782e-09
2.27974e-09
2.2633e-09
2.27566e-09
1.83791e-09
1.38276e-09
8.6725e-10
8.93636e-10
9.76331e-10
1.27498e-09
1.70247e-09
2.38556e-09
2.80825e-09
2.84035e-09
2.74794e-09
2.6579e-09
2.88772e-09
2.87664e-09
1.35551e-09
1.53628e-05
1.50954e-05
1.38665e-05
1.18209e-05
1.05203e-05
9.87053e-06
9.62642e-06
9.08599e-06
9.32314e-06
9.81749e-06
1.05235e-05
1.14867e-05
1.03554e-05
9.49559e-06
1.08521e-05
1.13323e-05
1.10036e-05
1.09421e-05
1.13884e-05
1.14237e-05
9.93464e-06
8.50769e-06
8.04681e-06
7.61967e-06
7.06344e-06
6.87548e-06
8.04788e-06
9.96714e-06
1.07684e-05
1.06355e-05
1.02818e-05
1.01109e-05
1.01943e-05
1.04044e-05
1.07067e-05
1.08235e-05
1.10111e-05
1.14128e-05
1.17935e-05
1.18505e-05
1.13891e-05
1.0491e-05
9.32979e-06
9.39999e-06
2.65644e-06
1.48705e-06
1.11576e-06
9.4717e-07
9.30462e-07
1.23023e-06
1.96965e-06
3.17319e-06
5.07852e-06
5.7834e-06
5.92225e-06
5.89864e-06
5.26332e-06
4.21486e-06
3.00553e-06
2.83297e-06
2.8898e-06
3.10212e-06
3.91854e-06
4.25989e-06
4.44058e-06
4.56779e-06
4.54245e-06
4.51753e-06
4.43013e-06
4.48352e-06
4.40749e-06
4.18725e-06
3.07399e-06
2.50609e-06
1.66149e-06
1.69717e-06
1.83546e-06
1.60373e-06
1.32137e-06
1.26041e-06
1.4117e-06
1.57165e-06
1.58285e-06
1.61975e-06
1.8538e-06
2.27664e-06
2.54326e-06
2.38491e-06
2.11494e-06
2.12922e-06
2.24812e-06
2.39349e-06
2.54296e-06
2.60693e-06
2.74648e-06
2.7254e-06
2.73854e-06
2.65625e-06
2.55919e-06
2.40942e-06
2.24575e-06
2.07759e-06
1.90202e-06
1.77923e-06
6.67763e-07
6.79386e-07
6.48854e-07
6.06227e-07
9.77351e-07
1.15486e-06
1.22876e-06
1.36831e-06
1.49916e-06
1.6996e-06
2.01495e-06
2.25261e-06
2.45781e-06
2.65075e-06
2.78422e-06
2.73345e-06
2.60238e-06
2.48724e-06
2.28646e-06
2.17232e-06
1.95093e-06
1.65471e-06
1.2316e-06
7.92548e-07
7.76752e-07
1.06094e-06
1.25834e-06
1.76917e-06
1.42692e-06
6.78601e-07
1.27174e-07
1.3018e-07
1.09037e-07
9.9853e-08
7.60249e-08
7.10249e-08
6.77274e-08
8.26867e-08
8.86217e-08
7.90534e-08
8.77767e-08
9.16059e-08
1.03877e-07
1.1723e-07
1.32578e-07
1.4977e-07
1.59801e-07
1.68181e-07
1.65061e-07
1.71383e-07
1.73173e-07
1.67961e-07
1.73577e-07
1.69855e-07
1.60523e-07
1.55936e-07
1.46696e-07
1.36756e-07
1.40764e-07
1.5376e-07
2.74544e-07
1.79136e-07
8.48568e-08
4.3465e-08
3.83053e-08
3.78e-08
8.47133e-08
1.06639e-07
1.49175e-07
2.72156e-07
3.10803e-07
3.23273e-07
3.18896e-07
3.16912e-07
3.03467e-07
2.89618e-07
2.76233e-07
2.62341e-07
2.64904e-07
2.55104e-07
2.62725e-07
2.54997e-07
2.78357e-07
2.90994e-07
3.15082e-07
3.261e-07
6.01641e-07
1.22659e-06
2.94838e-06
3.11845e-06
9.91676e-08
5.21328e-08
6.3399e-08
9.07386e-08
9.88222e-08
8.92655e-08
7.4781e-08
6.09787e-08
5.10445e-08
5.03637e-08
4.82542e-08
4.45205e-08
4.34086e-08
4.24861e-08
4.41607e-08
4.54398e-08
4.50105e-08
5.34053e-08
6.12949e-08
6.71521e-08
5.55051e-08
6.18474e-08
7.60545e-08
1.02046e-07
1.33772e-07
1.62315e-07
1.46302e-07
1.43111e-07
1.60421e-07
1.24304e-07
1.82313e-07
1.97086e-07
3.32536e-07
4.20507e-07
4.99724e-07
9.32936e-07
1.43685e-06
1.92301e-06
2.28668e-06
2.55743e-06
3.2155e-06
3.29588e-06
3.16348e-06
2.51507e-06
2.23039e-06
1.85716e-06
1.4349e-06
9.36084e-07
5.64376e-07
4.09864e-07
1.60201e-07
8.73309e-08
5.24608e-08
6.58196e-08
9.12796e-08
1.15909e-07
1.37955e-07
1.42647e-07
1.29704e-07
4.75184e-08
2.5111e-07
1.82355e-07
1.25376e-07
9.62375e-08
2.13376e-07
3.0172e-07
5.78756e-07
9.40766e-07
1.20013e-06
1.44775e-06
1.698e-06
1.84609e-06
1.90431e-06
1.8976e-06
1.77919e-06
1.64411e-06
1.3909e-06
1.06015e-06
8.10139e-07
3.78094e-07
1.72414e-07
9.16955e-08
7.00985e-08
1.00297e-07
1.14777e-07
9.56425e-08
7.65547e-08
6.71616e-08
6.46833e-08
5.40544e-08
8.30128e-08
1.103e-07
1.12511e-07
1.91207e-07
2.75599e-07
5.63214e-07
1.13392e-06
1.55412e-06
1.76722e-06
1.89505e-06
1.85141e-06
1.54919e-06
1.09763e-06
6.22542e-07
2.78705e-07
2.34791e-07
1.46861e-07
4.73601e-08
1.84059e-08
1.63134e-08
2.05674e-08
2.09301e-08
1.98559e-08
1.71122e-08
1.47136e-08
1.33119e-08
1.24042e-08
1.36521e-08
1.33907e-08
1.23598e-08
2.83779e-08
2.64725e-08
2.93483e-08
3.23774e-08
3.06951e-08
2.90598e-08
2.67109e-08
3.57745e-08
3.2196e-08
3.89231e-08
3.70282e-08
4.01574e-08
2.97449e-08
3.90687e-08
3.7855e-08
3.49735e-08
3.39187e-08
2.98477e-08
2.21468e-08
2.8326e-08
4.0531e-08
5.72363e-08
9.55076e-08
1.41319e-07
1.49162e-07
1.04905e-07
6.80431e-08
5.72762e-08
4.78194e-08
4.29001e-08
4.08817e-09
1.46701e-08
2.53628e-08
7.04975e-09
2.37714e-09
1.08248e-09
1.30399e-09
1.39329e-09
1.93491e-09
2.79631e-09
3.28557e-09
3.67123e-09
4.16149e-09
4.23201e-09
3.00114e-09
2.8848e-09
2.30697e-09
1.60071e-09
9.48718e-10
8.91879e-10
1.31305e-09
1.85285e-09
2.92291e-09
3.17943e-09
3.10788e-09
2.88031e-09
2.78349e-09
2.7262e-09
2.20584e-09
8.20359e-10
1.52397e-05
1.42103e-05
1.17558e-05
1.00749e-05
9.39344e-06
9.17303e-06
9.18343e-06
9.21597e-06
8.87497e-06
9.37903e-06
1.00879e-05
1.12639e-05
1.03174e-05
9.47016e-06
1.08312e-05
1.1363e-05
1.10476e-05
1.09553e-05
1.14706e-05
1.19104e-05
1.10844e-05
1.01685e-05
9.68144e-06
8.48543e-06
7.54753e-06
7.08197e-06
8.33436e-06
1.02759e-05
1.06309e-05
1.01806e-05
9.86526e-06
1.00131e-05
1.06226e-05
1.12184e-05
1.14943e-05
1.15612e-05
1.1505e-05
1.15178e-05
1.17737e-05
1.1985e-05
1.17324e-05
1.08005e-05
9.42287e-06
9.27787e-06
2.80743e-06
1.59739e-06
1.09641e-06
8.14058e-07
6.05576e-07
9.24339e-07
1.87378e-06
3.29467e-06
5.27612e-06
5.90394e-06
6.00253e-06
5.84579e-06
4.81346e-06
3.10839e-06
2.79784e-06
2.84151e-06
3.16029e-06
4.30163e-06
4.80587e-06
5.05005e-06
5.17757e-06
5.20364e-06
5.14469e-06
5.05381e-06
4.81515e-06
4.72717e-06
4.59384e-06
4.3822e-06
3.20887e-06
2.52238e-06
1.6697e-06
1.63732e-06
1.80068e-06
1.6217e-06
1.34248e-06
1.34305e-06
1.61181e-06
1.79158e-06
1.69796e-06
1.63372e-06
1.90812e-06
2.45582e-06
2.64153e-06
2.32828e-06
2.04586e-06
2.22485e-06
2.41229e-06
2.64696e-06
2.78886e-06
3.50384e-06
3.8114e-06
3.84075e-06
3.74759e-06
3.6017e-06
3.32188e-06
2.64201e-06
2.45155e-06
2.2051e-06
2.00199e-06
1.82373e-06
6.61632e-07
6.78577e-07
6.44738e-07
9.1691e-07
1.2444e-06
1.28944e-06
1.29066e-06
1.42327e-06
1.63447e-06
1.99863e-06
2.39607e-06
2.74743e-06
3.04297e-06
3.19146e-06
3.19679e-06
3.20031e-06
3.06761e-06
2.88192e-06
2.60338e-06
2.45143e-06
2.17472e-06
1.90694e-06
1.44381e-06
8.32229e-07
7.9897e-07
1.09162e-06
1.21925e-06
1.77405e-06
1.07747e-06
5.99225e-07
1.20788e-07
1.30408e-07
1.20101e-07
9.58933e-08
7.46061e-08
7.10776e-08
8.15585e-08
9.25939e-08
9.20418e-08
9.17224e-08
8.60383e-08
9.8055e-08
1.09084e-07
1.32789e-07
1.52659e-07
1.64804e-07
1.65145e-07
1.79073e-07
1.68679e-07
1.70248e-07
1.76488e-07
1.72825e-07
1.73984e-07
1.72026e-07
1.64076e-07
1.65396e-07
1.52443e-07
1.42095e-07
1.38729e-07
1.53358e-07
2.75741e-07
1.59757e-07
7.57886e-08
3.91595e-08
3.51389e-08
4.25797e-08
8.95581e-08
1.07095e-07
1.52757e-07
2.84759e-07
3.16275e-07
3.24869e-07
3.20399e-07
3.14056e-07
2.89698e-07
2.67208e-07
2.46694e-07
2.25416e-07
2.28978e-07
2.25981e-07
2.38523e-07
2.56131e-07
2.7208e-07
2.88559e-07
3.05131e-07
3.25713e-07
5.39636e-07
1.04021e-06
2.44448e-06
2.90023e-06
8.27356e-08
5.52508e-08
8.34153e-08
1.039e-07
9.7183e-08
8.37766e-08
6.94768e-08
5.3055e-08
4.30105e-08
4.72914e-08
4.4163e-08
4.1959e-08
3.8817e-08
3.91647e-08
3.91716e-08
4.17186e-08
4.47175e-08
4.57802e-08
5.5755e-08
6.51751e-08
6.79798e-08
5.92804e-08
7.14402e-08
9.12211e-08
1.2526e-07
1.40913e-07
1.41995e-07
1.56863e-07
1.78735e-07
1.33471e-07
1.56409e-07
1.67471e-07
3.53407e-07
4.41536e-07
5.24984e-07
1.15705e-06
1.74613e-06
2.35728e-06
3.23343e-06
3.88815e-06
4.25358e-06
4.31039e-06
4.10084e-06
3.69173e-06
2.69209e-06
2.27498e-06
1.79507e-06
1.28122e-06
8.21608e-07
5.25208e-07
3.02308e-07
1.38785e-07
1.09569e-07
1.1004e-07
1.23636e-07
1.39897e-07
1.42491e-07
1.48532e-07
1.38173e-07
5.87008e-08
2.24133e-07
9.27651e-08
1.21387e-07
1.54492e-07
2.7344e-07
3.38587e-07
8.08867e-07
1.15838e-06
1.52084e-06
1.81847e-06
2.39847e-06
2.53741e-06
2.60422e-06
2.6393e-06
2.52136e-06
1.87993e-06
1.6288e-06
1.31224e-06
9.5212e-07
3.94704e-07
2.23946e-07
1.04246e-07
8.41047e-08
1.16179e-07
1.16509e-07
8.7403e-08
6.51519e-08
5.88153e-08
5.93267e-08
5.11656e-08
1.13477e-07
1.19462e-07
1.61708e-07
2.47866e-07
5.1684e-07
1.24649e-06
1.87419e-06
3.1929e-06
3.89325e-06
4.17576e-06
3.91134e-06
3.11099e-06
1.7237e-06
1.05972e-06
4.53864e-07
2.6038e-07
1.79079e-07
5.21698e-08
1.29424e-08
1.73115e-08
2.02155e-08
1.98745e-08
2.48308e-08
2.36752e-08
2.0564e-08
1.52931e-08
1.31845e-08
1.18461e-08
1.25688e-08
1.2113e-08
2.83173e-08
2.76503e-08
2.5422e-08
3.03072e-08
2.89569e-08
2.83636e-08
3.0063e-08
4.25119e-08
4.38183e-08
3.97329e-08
4.05791e-08
5.11922e-08
4.05321e-08
3.02246e-08
3.01256e-08
3.28617e-08
3.30136e-08
3.5023e-08
2.58596e-08
2.6421e-08
3.85063e-08
5.33133e-08
7.72466e-08
1.38434e-07
1.55732e-07
1.25217e-07
5.37285e-08
5.90663e-08
4.6981e-08
4.15802e-08
3.06004e-09
9.01205e-09
2.47913e-08
5.09716e-09
1.99039e-09
1.19994e-09
1.42423e-09
2.02305e-09
2.82865e-09
3.74989e-09
5.84793e-09
7.29658e-09
8.58563e-09
8.81337e-09
7.69914e-09
5.25163e-09
3.32263e-09
2.39436e-09
1.5345e-09
1.2509e-09
1.15231e-09
1.16707e-09
3.03809e-09
3.21662e-09
2.16926e-09
1.21651e-09
1.23981e-09
1.20243e-09
8.20354e-10
5.74063e-10
1.5167e-05
1.29692e-05
1.02406e-05
9.2443e-06
8.55643e-06
8.69673e-06
9.27852e-06
9.25287e-06
9.29112e-06
9.14194e-06
9.77678e-06
1.04827e-05
1.01574e-05
9.27532e-06
1.07886e-05
1.13908e-05
1.1115e-05
1.10179e-05
1.13217e-05
1.20771e-05
1.21345e-05
1.17915e-05
1.09766e-05
1.0025e-05
8.12989e-06
7.82678e-06
8.62473e-06
1.0456e-05
1.03895e-05
9.77777e-06
9.76071e-06
1.05961e-05
1.16292e-05
1.22757e-05
1.25158e-05
1.2364e-05
1.19849e-05
1.17769e-05
1.19364e-05
1.21509e-05
1.18472e-05
1.09407e-05
9.46606e-06
9.23667e-06
2.99965e-06
1.80404e-06
1.22723e-06
9.16298e-07
8.58935e-07
1.27415e-06
2.40938e-06
4.25642e-06
5.44673e-06
5.92958e-06
6.07878e-06
5.61095e-06
4.14324e-06
2.79995e-06
2.75422e-06
3.07738e-06
4.3807e-06
5.05238e-06
5.31985e-06
5.43898e-06
5.45994e-06
5.52934e-06
5.4236e-06
5.42736e-06
5.1745e-06
4.95877e-06
4.77123e-06
4.51359e-06
3.26804e-06
2.51924e-06
1.62861e-06
1.59572e-06
1.82452e-06
1.6897e-06
1.44093e-06
1.50821e-06
1.77663e-06
1.88696e-06
1.70806e-06
1.59765e-06
1.98597e-06
2.68664e-06
2.66786e-06
2.19296e-06
2.08039e-06
2.31778e-06
2.58747e-06
2.8774e-06
3.68579e-06
4.20633e-06
4.34592e-06
4.39833e-06
4.36853e-06
4.1346e-06
3.78789e-06
3.34226e-06
2.59668e-06
2.32598e-06
2.08069e-06
1.8508e-06
6.53378e-07
6.68422e-07
6.66855e-07
1.31855e-06
1.37798e-06
1.33946e-06
1.32902e-06
1.48424e-06
1.78137e-06
2.23375e-06
2.73821e-06
3.11525e-06
3.30407e-06
3.34486e-06
3.38384e-06
3.40574e-06
3.31951e-06
3.18283e-06
2.84884e-06
2.65565e-06
2.39278e-06
2.07189e-06
1.61633e-06
8.7224e-07
8.12095e-07
8.13493e-07
1.26492e-06
1.66974e-06
5.86024e-07
4.69356e-07
1.20878e-07
1.34529e-07
1.20218e-07
1.08134e-07
9.80059e-08
9.49568e-08
9.36876e-08
1.03075e-07
9.73419e-08
8.81261e-08
8.62657e-08
9.89483e-08
1.26306e-07
1.46491e-07
1.58151e-07
1.65038e-07
1.72538e-07
1.71801e-07
1.6593e-07
1.75287e-07
1.7616e-07
1.72121e-07
1.65176e-07
1.8584e-07
1.79909e-07
1.70089e-07
1.59556e-07
1.49057e-07
1.39173e-07
1.51261e-07
2.76292e-07
1.47146e-07
7.362e-08
3.88874e-08
3.46911e-08
3.9951e-08
9.17339e-08
1.094e-07
1.63291e-07
2.82128e-07
3.15926e-07
3.2534e-07
3.18168e-07
2.92087e-07
2.92136e-07
2.6597e-07
2.18981e-07
2.07096e-07
1.6748e-07
2.07402e-07
2.19232e-07
2.51403e-07
2.67414e-07
2.73714e-07
3.04364e-07
3.21668e-07
5.33542e-07
9.43328e-07
1.80241e-06
2.6075e-06
5.59693e-08
5.653e-08
8.60618e-08
1.03609e-07
9.46677e-08
8.31232e-08
6.30967e-08
5.23378e-08
4.87586e-08
4.57638e-08