/*--------------------------------*- C++ -*----------------------------------*\
| =========                 |                                                 |
| \\      /  F ield         | OpenFOAM: The Open Source CFD Toolbox           |
|  \\    /   O peration     | Version:  2.1.1                                 |
|   \\  /    A nd           | Web:      www.OpenFOAM.org                      |
|    \\/     M anipulation  |                                                 |
\*---------------------------------------------------------------------------*/
FoamFile
{
    version     2.0;
    format      ascii;
    class       volScalarField;
    location    "0.007450000";
    object      k;
}
// * * * * * * * * * * * * * * * * * * * * * * * * * * * * * * * * * * * * * //

dimensions      [0 2 -2 0 0 0 0];

internalField   nonuniform List<scalar> 
12384
(
50.6751
91.1365
118.114
145.051
171.946
196.74
215.237
223.298
220.466
207.874
185.862
150.436
99.8129
44.8664
149.332
210.669
250.941
275.774
295.053
315.831
339.306
365.355
391.767
418.485
430.426
445.882
480
551.808
697.513
868.827
1069.25
1276.08
1450.9
1559.91
1560.42
1467.7
1383.83
1295.17
1186.87
1045.48
859.199
610.211
294.558
99.8534
287.08
379.423
448.397
492.602
523.567
552.139
586.583
630.544
677.525
698.725
726.535
775.309
867.943
1062.57
1348.99
1677.37
2039.02
2381.11
2666.62
2792.65
2776.32
2558.74
2353.98
2135.44
1896.37
1621.02
1284.36
869.474
388.979
191.568
348.991
496.589
709.632
935.835
1133.21
1295.83
1450.19
1640.94
1799.66
1793.81
1678.42
1540.69
1427.42
1370.93
1392.62
1548.23
1847.83
2216.49
2636.89
3044.61
3367.53
3518.54
3475.41
3338.91
3122.6
2817.64
2380.22
1723.51
852.866
398.904
588.201
861.59
1046.25
1154.85
1241.34
1388.91
1702.13
2243.56
2943.09
3764.31
4618.03
5428.4
5994.08
6279.16
6163.67
5732.22
5413.08
5024.48
4565.38
4007.68
3296.01
2357.5
1049.89
355.577
283.343
281.88
289.244
285.385
273.939
248.921
196.251
279.542
347.013
412.286
498.374
608.571
735.833
875.405
1024.55
1154.86
1202.82
1233.03
1279.75
1379.41
1638.2
1963.15
2346.73
2748.07
3108.22
3339.49
3404.84
3294.22
3145.05
2938.23
2651.01
2261.76
1748.64
1101.92
498.433
310.636
144.358
231.63
363.505
530.748
712.971
887.969
1044.33
1144.4
1263.1
1525.09
1904.18
2375.11
2932.65
3530.45
4096.91
4527.48
4740.74
4653.06
4336.7
4071.59
3784.06
3431.54
2966.94
2346.21
1525.38
647.872
273.473
230.958
231.369
271.592
159.959
250.824
438.966
758.411
1269.55
1937.51
2742.14
3625.99
4497.8
5257.92
5759.66
5968.06
5657.97
5237.8
4876.13
4547.15
4158.06
3653.98
3006.21
2223.49
1313.02
594.543
356.085
302.288
292.963
295.822
286.521
266.317
252.352
248.522
394.299
899.418
1800.36
2869.32
3917.49
4967.59
5966.38
6803.93
7254.43
7359.95
6681.41
5861.58
5230.06
4613.08
3955.38
3189.59
2296.74
1373.84
726.14
466.037
369.16
346.346
354.181
357.608
336.892
297.74
250.16
209.969
177.601
158.432
260.167
499.497
1016.82
1762.33
2651.11
3642.09
4722.33
5829.88
6835.85
7556.86
7800.6
7399.93
6362.01
5500.24
4819.23
4151.57
3414.67
2538.27
1625.82
979.963
628.383
461.589
412.046
416.164
412.436
375.736
333.028
302.534
290.325
294.09
812.495
1797.78
2820.98
3927.75
5147.15
6244.12
6994.07
7337.84
7009.07
5900.51
4759.41
3830.16
3026.61
2295.23
1670.59
1307.52
1129.44
973.762
832.767
720.799
659.366
626.801
604.911
573.291
536.462
492.929
454.86
419.006
382.592
347.618
151.779
155.282
287.302
566.134
910.937
1229.78
1505.91
1736.42
1926.48
2048.19
2039.75
1894.24
1688.62
1443.63
1211.69
1009.26
874.089
819.915
839.239
909.589
1011.95
1089.54
1076.32
977.742
916.542
874.856
829.593
754.823
615.826
416.083
62.2787
87.3534
75.4918
55.7134
44.3252
92.2136
471.393
1072.17
1517.17
1857.92
2140.53
2390.61
2617.33
2819.39
2883.8
2702.1
2390.18
1989.21
1577.78
1188.13
865.291
679.877
555.745
452.014
361.841
281.334
208.082
135.642
67.1676
18.2661
90.6855
65.5264
88.7293
125.19
166.278
209.001
247.645
275.065
286.825
278.427
248.787
201.041
142.57
115.532
157.968
206.352
322.568
484.31
663.831
814.23
899.115
899.175
808.626
675.451
558.062
496.215
508.003
634.636
888.096
1285.22
1831.65
2508.43
3255.15
3969.46
4505.9
4756.72
4672.03
4295.32
3667.91
2862.16
1996.71
1208.04
604.856
385.106
395.196
699.058
1065.41
1393.35
1617.21
1706.93
1659.93
1463.23
1205.22
972.313
809.838
756.782
877.389
1241.37
1849.43
2712.41
3814.06
5087.13
6411.9
7591.44
8420.25
8756.94
8540.88
7825.8
6708.74
5290.73
3700.43
2186.92
998.744
609.149
671.64
1536.08
2951.06
4411.55
5549.71
6216.07
6375.02
5941.09
5111.91
4112.24
3123.31
2295.21
1690.06
1310.09
1173.84
1368.3
1867.58
2652.77
3665.41
4777.32
5824.56
6631.53
7018.08
6938.59
6395.18
5445.08
4217.22
2901.19
1682.46
1277.48
441.188
554.535
525.244
530.503
649.489
1003.89
1779.52
3085.14
5008.89
7538.19
10616.2
14052.2
17532
20564.3
22590.6
23205.4
22452.5
20480.2
17592.3
14014.8
10012
6183.19
3180.65
1346.85
416.877
229.551
244.092
248.213
255.169
317.538
268.821
629.107
1188.19
1842.82
2438.39
2859.43
3040.22
2959.07
2602.96
2126.69
1692.14
1397.62
1312.47
1528.51
2099.43
3006.66
4256.16
5793.82
7465.38
9016.08
10153.2
10645.9
10442.2
9634.74
8348.73
6722.31
4894.62
3066.71
1522.11
753.531
285.139
816.122
1185.33
1409.16
1450.51
1320.66
1185.83
1146.81
1303.69
1823.27
2698.04
4006
5805.02
8094
10765.4
13567.6
16130.9
18049
18942.1
18713.2
17513.1
15516.5
12911.9
9876.49
6629.26
3614.78
1408.58
306.211
150.772
324.249
194.621
161.978
327.07
888.323
1970.57
3539.81
5593.16
8141.29
11125.3
14375.4
17613.5
20425.8
22376.3
23080.4
22587.7
20992.8
18431
15131.1
11306.8
7466.48
4207.09
1928.75
644.819
306.314
296.512
278.286
249.442
197.956
158.952
278.355
392.453
853.708
2110.39
3955.34
6339.88
9267.15
12779.1
16742.7
20834.2
24523.1
27159.4
28085
27279
24959.7
21290
16494.3
11034.5
6076.42
2619.19
825.32
408.061
393.627
390.288
403.864
394.823
337.689
258.764
194.255
150.861
191.238
251.717
513.986
987.226
1839.01
3232.55
5245.21
7872.32
11111.3
14848.7
18818.4
22574
25517.2
27155.6
27021.3
25245.3
22043
17791.3
12643.1
7277.64
2994.55
950.254
558.795
528.2
486.232
457.82
381.458
278.043
197.818
164.56
298.253
544.838
1005.28
1826.39
3995.96
6704.12
9536.02
12269
14728.6
16640.3
17637.7
17566.3
16207.6
13519.3
9837.51
6005.51
2829.25
1038.55
656.98
642.177
621.079
596.702
568.443
542.718
505.326
460.536
404.55
355.563
326.548
322.545
334.672
262.578
474.526
1035.81
1701.81
2414.38
3083.43
3616.93
3952.67
4048.67
3885.12
3489.2
2936.51
2344.75
1794.96
1359.44
1052.87
925.166
993.623
1268.05
1735.7
2363.37
3103.25
3812.75
4319.96
4381.45
4007.61
3278.96
2295.68
1277.87
639.537
130.918
168.076
140.872
124.798
201.278
755.943
1781.34
3266.78
5038.6
6813.79
8265.69
9230.37
9598.03
9285.48
8347.28
6993.02
5471.81
4012.24
2754.16
1762.31
1051.92
626.773
463.384
449.383
486.741
495.694
451.198
349.796
209.001
41.4643
132.815
103.759
139.371
187.264
233.504
273.079
303.599
321.306
326.335
316.249
289.477
246.85
192.904
165.215
174.208
244.358
350.549
481.748
595.404
657.193
661.547
622.506
567.284
544.487
581.949
682.306
854.197
1141.77
1539.14
2041.84
2598.22
3172.46
3737.54
4254.46
4642.47
4829.28
4793.4
4557.25
4116.69
3471.59
2657.13
1776.69
996.73
630.795
441.862
834.498
1059.82
1178.03
1184.03
1112.99
1000.71
894.948
829.774
832.956
915.929
1120.82
1555.18
2258.26
3195.42
4257.24
5355.2
6439.67
7448.77
8308.59
8864.91
9058.01
8859.11
8325.91
7502.23
6394.31
4976.23
3346.63
1789.94
1029.5
880.723
2166.2
3424.45
4295.08
4661.71
4665.16
4436.65
4030.49
3560.84
3119.53
2755.93
2469.77
2214.29
1993.73
1990.67
2406.05
3221.65
4317.59
5527.46
6693.16
7690.12
8416.49
8720.95
8567.74
7997.61
7045.46
5749.94
4223.63
2678
2030.48
402.625
464.81
391.782
501.779
880.322
1741.06
3225.82
5325.82
7801.89
10390.1
13007.7
15585.5
18058.8
20203.6
21782.3
22459.6
22090
20952.1
19120.8
16682.8
13481.6
9700.27
5974.38
3077.84
1273.01
365.655
188.195
245.449
321.486
375.203
312.25
826.738
1319.24
1764.21
2035.61
2110.88
2030.24
1846.94
1636.12
1499.03
1497.74
1668.89
2093.62
2839.9
3863.12
5054.66
6322.42
7624.95
8887.72
10006
10773.6
11028.6
10767.8
10071.7
9043.22
7751.72
6191.62
4389.32
2554.82
1298.7
359.112
1082.41
1220.74
1217.02
1158.61
1137.05
1293.05
1621.31
2244.83
3205.74
4420.63
5805.86
7335.96
9034.24
10910.4
12882.1
14767.4
16319.3
17243.6
17317.3
16642.4
15379.4
13684.9
11564.8
8930.23
5919.03
3064.3
1031.61
235.893
332.458
248.306
234.538
633.991
1739.36
3437.52
5514.03
7810.54
10249.3
12799.3
15384.3
17905.6
20155.2
21922.1
22827.2
22773.7
21913.7
20368.6
18177.6
15219.5
11564.2
7687.96
4326.91
1948.55
634.274
222.724
208.202
262.049
236.621
175.944
300.69
767.719
1720.44
3787.89
6530.94
9467.75
12345.5
15168.5
17965
20713
23167.8
25149.5
26202.4
26119.8
25111.5
23274.7
20362.4
16077.5
10898.2
6100.39
2678.83
891.596
347.293
338.451
513.853
611.329
557.026
425.535
304.958
222.473
227.129
291.08
772.723
1487.67
2978.66
5302.76
8179.71
11242.8
14303.7
17301.9
20203.3
22865.2
24955.1
26212.8
26293.1
25260.4
23419.9
20706.4
16780.2
11694.2
6383.39
2461.73
764.125
376.304
412.405
568.57
545.907
396.651
267.805
200.613
321.01
502.163
1264.78
3887.41
8367.54
13191
17266.5
20204.3
22041.5
22945.1
23044
22272.3
20816.7
18597.1
15265.3
10882.5
6263.2
2606.15
918.364
622.74
638.789
679.705
713.884
726.777
680.686
573.717
415.668
282.137
231.739
278.439
351.358
516.318
942.784
1699.12
2518.99
3273.01
3889.33
4322.7
4577.58
4635.11
4500.7
4166.12
3699.19
3168.74
2641.23
2151.67
1749.79
1510.4
1493.7
1668.4
1912.51
2113.41
2299.35
2516.05
2783.94
2988.82
3056.38
2890.54
2398.69
1604.52
758.382
179.143
192.285
111.74
194.609
710.383
1746.78
3282.22
5137.93
7006.53
8639.32
9882.18
10704.4
11065.7
10906.5
10201.7
9114.23
7791.36
6335.9
4815.89
3326.48
2012.94
1042.36
490.409
260.351
189.768
187.041
202.829
201.481
157.298
25.3054
163.029
154.188
204.592
263.135
310.758
340.277
353.227
355.706
352.278
342.82
325.928
300.165
264.281
213.767
199.417
315.806
391.163
473.278
517.976
507.973
462.112
415.492
412.467
499.434
683.902
945.654
1290.95
1726.25
2274.68
2855.25
3343.69
3696.74
3945.02
4140.89
4319.36
4448.3
4457.72
4365.07
4148.09
3760.77
3146.52
2328.63
1464.07
856.257
473.832
1004.35
1034.09
936.125
776.481
629.591
541.294
547.943
655.096
867.81
1201.48
1667.21
2398.2
3438.59
4625.33
5710.55
6568.38
7203.3
7660.54
8011.33
8233.37
8307.53
8171.78
7883.61
7456.37
6825.76
5839.42
4401.28
2695.38
1421.56
1028.94
2805.58
3647.03
3823.96
3527.6
3082.24
2674.2
2412.98
2370.23
2521.35
2775.33
2987.74
3015.12
2888.41
3004.26
3698.9
4874.19
6188.18
7351.08
8252.54
8897.83
9300.87
9417.78
9256.37
8829.54
8105.04
7019.65
5560.37
3869.3
2702.37
453.317
497.886
374.412
598.914
1306.72
2731.73
4975.15
7726.16
10355.3
12432.7
13977.5
15157
16195.7
17104.4
17947
18565.2
18737.9
18574.1
18022
17049.9
15283.2
12459.9
8785.67
5182.45
2467.61
942.849
248.28
225.803
357.845
415.932
351.873
1063.14
1368.34
1537.19
1509.64
1346.47
1148.23
996.878
982.463
1157.93
1548.32
2203.21
3154.2
4394.4
5784.82
7024.45
7994.57
8722.16
9268.55
9704.72
10022.3
10108.9
9918.65
9490.9
8872.26
8083.34
7030.11
5562.45
3710.97
1761.7
430.01
1424.82
1244.24
1008.32
901.222
1038.15
1520.5
2248.67
3313.88
4668.2
6103.04
7366.7
8397.4
9275.3
10113.3
10998.1
11947
12884.6
13638.6
13985.1
13923.8
13511
12820.3
11784.4
10132.2
7656.37
4656.72
1964.84
506.883
338.287
304.131
352.465
1110.94
2736.03
4908.5
7269.77
9496
11427.1
13079.8
14562.9
15973
17297.3
18527.7
19440.2
19871.5
19848.2
19378.5
18500.6
16904.8
14323.2
10788.4
6994.6
3758.09
1563.76
458.124
207.727
288.553
274.566
192.528
314.119
1508.77
2886.13
5639.41
8884.95
11790.4
13989
15532.2
16687.1
17721.1
18729.9
19806
20725.7
21344.5
21673.1
21650.9
20915.9
18749.9
14761.8
9801.01
5325.06
2290.19
820.464
511.742
743.269
894.355
817.365
618.3
448.602
348.067
273.783
413.791
1018.02
2111.62
4341.3
7533.93
10991.3
13992.1
16226.1
17825.4
19043
20119.8
21097.9
22005.6
22390.4
22301.9
21851.6
20900.7
18858.5
15124.8
9940.49
4919.27
1736.07
559.334
492.145
732.167
708.004
499.955
332.807
252.263
349.425
972.264
2974.83
7940.52
14277.2
19731.3
23262.2
24880.2
25123.7
24651.4
23868.6
22839.7
21862.1
20764.5
18737.9
15001.3
9850.4
4810.38
1655.4
737.313
743.441
900.019
1051.73
1138.61
1115.88
958.525
688.188
407.291
249.281
285.529
383.702
805.399
1386.39
2280.47
3139.65
3813.54
4274.64
4545.23
4678.7
4695.11
4619.28
4422.97
4174.88
3863.2
3493.24
3029.7
2553.65
2181.8
2066.03
2149.58
2216.48
2056.78
1740.17
1455.35
1418.56
1657.34
2025.23
2345.69
2387.25
1960.9
837.902
211.334
198.897
143.413
490.253
1372.06
2847.27
4717.79
6612
8193.34
9352.19
10121.7
10616.1
10864.7
10815.3
10481.3
9979.07
9244.3
8199.52
6772.8
5012.54
3178.38
1673.45
726.627
284.609
119.998
69.1415
79.6091
107.124
108.803
10.1823
183.543
214.782
282.985
348.531
386.373
391.244
375.062
356.739
345.762
344.544
350.065
357.649
355.169
261.313
228.565
408.924
440.479
468.885
455.917
395.367
320.588
278.375
320.248
496.576
815.304
1233.36
1729.07
2308.65
3006.29
3627.46
3965.48
3986.42
3818.13
3623.95
3529.14
3565.75
3668.66
3799.52
3874.64
3808.25
3481.3
2838.24
1991.81
1056.57
488.836
1204.73
1050.69
772.237
496.447
319.675
274.081
369.944
622.629
1031.62
1567.04
2240.22
3229.28
4544.19
5845.25
6748.45
7143.01
7149.34
6953.24
6741.3
6611.65
6589.56
6637.94
6743.2
6829.54
6784.9
6371.57
5328.67
3681.15
1766.22
1112.05
3496.07
3864.59
3423.07
2617.95
1869.34
1367.2
1249.78
1571.65
2238.07
3008.69
3615.54
3839.98
3771.24
4049.04
5145.14
6705.77
8037.19
8770.29
8973.47
8920.58
8836.2
8781.67
8758.12
8704.93
8482.37
7899.23
6810.8
5229.56
3298.66
571.091
582.992
403.75
768.739
1847.69
3855.77
6797.19
9939.14
12297.4
13414.7
13531.3
13110.3
12602.3
12306.8
12389.4
12847.7
13596.4
14469.9
15265.1
15787.6
15578.5
14071.8
10989.9
7138.74
3710.3
1566.53
486.496
224.547
365.558
452.903
384.135
1345.97
1431.53
1353.64
1118.16
832.426
607.537
515.324
631.451
1029.1
1767.42
2837.12
4192.55
5852.36
7425.89
8443.03
8829.9
8735.06
8408.86
8082.59
7917.3
7886.54
7957.8
8044.68
8062.16
7952.59
7569.65
6640.75
4998.85
2113.44
499.186
1855.89
1318.05
848.77
709.765
1003.63
1792.85
2873.66
4271.27
5943.26
7506.53
8550.9
9014.55
9023.57
8762.38
8479.11
8386.65
8577.05
9062.92
9695.16
10322
10814.4
11141.5
11170.6
10543
8807.72
5970.42
2853.57
844.66
366.798
376.808
512.517
1648.31
3682.29
6219.83
8729.74
10686.9
11874.9
12368
12499.1
12576.4
12823.2
13329.8
14106.8
14959.8
15802.4
16479.4
16878.6
16698.9
15462.9
12841.9
9261.66
5607.01
2717.75
959.195
338.87
328.923
302.5
207.876
327.399
2403.97
4089.71
7223.97
10591.1
13124.1
14399.7
14553.4
14070.6
13453.4
13116.5
13265.2
13980.3
15116.8
16530.3
18005.9
19160.9
19113.5
16851.3
12572.9
7747.08
3889.48
1628.03
896.577
1017.65
1137.73
989.841
724.483
551.523
496.209
322.769
682.591
1273.18
2805.4
5713.07
9561.53
13230.7
15692
16644.1
16498.9
15878.6
15347.6
15209.9
15656.6
16516.8
17571.7
18723.7
19558.2
19470.8
17437.4
12997.6
7478.46
3129.25
1062.64
679.028
846.971
771.759
518.98
346.781
294.189
377.519
2684.24
6266.87
12963.9
19365.4
23472.6
24924.1
24331.1
22595.1
20737.9
19440.1
18950
19265.3
19924.3
19818
17568.4
12764.3
6945.83
2595.92
1025.84
997.812
1271.71
1556.65
1746.86
1777.17
1608.45
1240.91
773.36
394.398
314.712
411.039
1028.25
1787.32
2752.05
3562.51
4069.9
4299.91
4330.45
4257.32
4162.03
4101.65
4099.79
4190.29
4264.3
4211.37
3892.4
3366.55
2829.52
2568.62
2551.63
2497.82
2111.88
1459.76
831.233
569.8
792.666
1319.83
1960.09
2413.84
2330.15
877.286
234.592
207.026
243.011
796.914
1974.5
3779
5783.7
7462.94
8509.59
8956.62
9059.33
9005.19
8955.53
8968.06
9085.05
9318.36
9436.39
9145.7
8184.84
6473.9
4294.42
2318.1
1018.93
384.452
140.208
52.882
42.4682
63.1351
77.6191
4.11163
193.543
283.105
366.147
426.232
438.327
406.11
356.681
318.933
305.054
322.295
365.406
421.22
462.449
304.026
254.924
510.259
496.736
471.121
410.581
316.391
227.512
191.458
262.089
506.182
938.813
1487.7
2092.68
2808.61
3644.49
4267.25
4378.06
3991.58
3368.34
2787.96
2428.68
2380.03
2615.45
3017.94
3432.45
3718.06
3713.24
3309.05
2545.61
1201.95
464.143
1383.87
1108.74
705.841
356.594
171.324
164.715
332.28
697.061
1227.51
1877.03
2681.97
3868.67
5379.63
6655.69
7205.9
7022.39
6375.4
5583.22
4903.06
4476.38
4408.12
4713.73
5261.12
5921.8
6496.12
6701.77
6145.3
4688.03
2013.67
1103
4129.42
4106.01
3202.34
2052.42
1137.81
621.29
602.722
1168.25
2200.85
3308.05
4150.04
4466.08
4457.1
4991.96
6631.88
8529.75
9578.32
9477.63
8643.9
7672.11
6993.28
6787.28
7087.75
7696.14
8279.78
8457.39
7980.98
6670.98
3735.8
721.93
703.089
471.71
994.928
2448.91
4997.59
8478.87
11729.2
13514.5
13524.2
12264.7
10493.4
8751.74
7478.79
6906.92
7209.8
8367.12
10012.5
11961.9
13739.3
14913.8
14645.7
12350.2
8566.03
4698.95
2066.39
692.041
256.499
363.944
493.181
401.563
1613.13
1504.44
1244.53
894.597
570.506
359.615
309.51
489.427
1045.62
2011.27
3312.93
4973.16
6926.24
8491.58
9085.81
8746.64
7776.39
6609.49
5607.75
5022.28
4954.75
5402.02
6141.99
6926.93
7594.42
7956.7
7656.84
6343.36
2295.14
548.058
2313.09
1437.49
738.907
565.065
982.753
2019.33
3323.27
4940.23
6852.9
8511.17
9359.93
9351.63
8629.32
7426.12
6110.32
5057.49
4523.6
4696.47
5563.91
6786.5
8075.34
9288.15
10237.7
10507.9
9490.62
6923.79
3545.63
1132.51
394.534
499.158
689.676
2131.34
4476.45
7325.31
9946.84
11595.2
12027.1
11377.8
10202.5
8976.01
8154.14
7892.36
8348.08
9498.61
11039.1
12720.5
14235.9
15299.3
15339.1
13802.6
10806.6
7117.02
3774.54
1490.1
529.903
377.319
315.992
220.151
347.759
3185.29
5051
8338.49
11663
13773.2
14194.5
13153.2
11325.2
9355.62
7929.64
7345.78
7816.14
9261.83
11368.9
13804.6
16247
17819.1
17136.8
13891.6
9257.16
5014.48
2247.09
1202.52
1181.6
1209.14
961.392
669.901
585.166
657.584
349.533
1148.86
1532.2
3459.68
6870.87
11121.3
14712.3
16360
15938.2
14179.1
11967.4
10086.3
9017.09
9131.74
10497.4
12549.4
15137.9
17587.6
19256.4
18801.6
15235.7
9544.67
4350.44
1569.95
837.642
847.649
704.958
444.408
318.712
331.741
403.924
5036.92
10660.8
17714.7
22463.1
24071.1
22962.1
20141.4
16822.1
14045.2
12553.6
12947.6
14827.5
17382
19319.3
18871.4
14906.2
8785.43
3595.95
1552.08
1452.03
1753.6
2104.25
2378.73
2487.94
2363.06
1970.36
1367.23
741.076
404.025
446.168
1141.03
2116.33
3134.76
3875.62
4174.44
4098.87
3789.47
3390.05
3091.6
3040.94
3282.79
3770.24
4323.97
4698.65
4633.73
4091.28
3355.51
2888.87
2746.42
2632.01
2191.93
1447.4
701.42
325.171
491.582
1029.01
1787.53
2446.46
2591.34
868.367
260.419
219.107
322.076
1013.51
2412.51
4430.76
6407.95
7728.78
8151.27
7838.94
7183.2
6454.65
6003.13
6032.02
6596.07
7548.67
8537.8
9111.06
8844.21
7491.72
5203.51
2860.15
1257.49
477.648
178.818
67.2057
39.3098
49.1941
61.9932
1.93303
196.648
354.322
442.797
482.402
455.957
381.121
299.997
245.118
234.885
283.596
380.641
495.777
577.157
335.083
276.843
601.005
557.96
487.079
387.383
269.452
172.546
139.65
223.024
511.948
1023.31
1643.53
2323.34
3156.92
4113.49
4711.76
4565.25
3784.02
2776.04
1894.22
1338.5
1243.55
1623.11
2290.63
3027.5
3640.75
3927.7
3754.93
3060.45
1238.2
450.313
1482.3
1155.81
715.859
360.626
184.806
203.869
412.358
815.733
1363.44
2020.49
2873.66
4205.85
5847.6
6992.87
7127.7
6411.83
5244.88
4021.74
3018.58
2409.58
2361.98
2938.95
3910.08
5096.18
6231.37
6988.75
6887.32
5608.28
2083.2
980.301
4549.31
4310
3157.05
1822.37
843.49
367.658
437.129
1143.29
2319.89
3532.63
4435.86
4751.97
4822.77
5724.69
8015.71
10120.5
10602
9428.24
7484.95
5632.34
4423.56
4149.94
4923.99
6397.04
7949.43
8969.09
9145.49
8020.88
3815.77
869.374
847.935
564.478
1269.8
3049.89
6029.82
9854.94
13028.4
14192.3
13261.2
10998.9
8352.35
5848.15
3990.39
2955.86
3039.28
4403.23
6478.22
9167.69
11797.5
13943.6
14604
12972
9340.55
5227.26
2288.03
744.861
262.801
370.696
549.403
413.851
1805.71
1552.36
1191.7
804.146
490.194
309.517
290.617
500.304
1092.56
2113.64
3501.59
5348.87
7480.53
8921.37
9052.97
8082.38
6427.6
4671.17
3216.15
2355.49
2321.3
3140.26
4473.58
5942.05
7301.32
8318.26
8572.84
7561.05
2217.77
557.233
2734.26
1584.5
667.067
445.186
939.552
2114.64
3502.55
5218.93
7301.12
9056.81
9848.17
9603
8431.02
6613.08
4585.23
2834.96
1735.33
1666.11
2679.83
4241.31
6026.73
7836.29
9427.92
10335.3
9830.8
7469.99
3919.31
1310.62
419.613
676.759
883.769
2524.1
5093.2
8210.52
10972.2
12427.6
12308.5
10778.7
8569.42
6294.35
4532.33
3558.23
3694.74
4993.42
6928.81
9252.72
11540
13510.5
14542.3
13959.5
11620.8
8094.87
4492.46
1840.95
652.329
396.314
309.999
250.064
420.802
3727.75
5576.38
8917.81
12210.2
14046.1
13880.8
12042.2
9295.37
6362.41
4106.39
3024.35
3421.96
5000.97
7356.08
10228.8
13304.7
15806.6
16166.9
13913.9
9678.11
5355.85
2392.11
1232.44
1130.27
1050.19
731.325
523.476
647.85
858.054
352.376
1729.61
1761.24
3985.33
7678.52
12134
15533.4
16401
14885.4
11932.6
8597.43
5760.67
4092.44
4136.21
5887.93
8594.85
12112.7
15699
18720.9
19431.1
16559
10793.6
5070.75
1856.17
854.459
733.019
585.955
418.005
380.348
430.565
475.57
6460.01
14797.4
20793.8
23136.6
22313.1
19151.8
14769.5
10487
7365.35
6236.92
7669.99
10899
14964.9
18561.2
19701.5
16536.3
10288.3
4593.22
2397.2
2076.11
2218.65
2468.38
2715.11
2882.39
2863.51
2580.05
1988.01
1238.01
638.827
539.932
1137.81
2332.19
3438.73
4217.55
4381.15
3990.17
3276.84
2456.76
1887.5
1820.48
2301.41
3172.12
4193.79
4997.97
5227.69
4699.44
3744.26
2995.68
2692.42
2554.45
2186.44
1556.46
912.332
546.818
605.847
1027.29
1713.63
2387.06
2666.01
842.056
295.921
227.799
343.125
1077.92
2615.21
4784.34
6734.48
7723.14
7601.72
6612.17
5267.95
3922.97
3108.64
3125.04
4020.31
5495.37
7155.45
8459.5
8857.05
8003.73
5818.88
3246.12
1399.83
520.582
200.775
87.7968
50.6879
53.3548
61.2113
1.77442
193.156
412.619
495.809
509.836
445.196
333.374
229.142
166.634
167.834
256.827
415.272
583.934
678.089
352.759
300.202
663.641
617.503
520.76
390.012
253.867
151.226
118.626
206.751
510.155
1035.39
1665.52
2379.25
3307.48
4369.47
4933.24
4570.56
3510.93
2279.34
1236.24
577.264
481.184
986.935
1848.5
2828.32
3690.57
4186.91
4166.03
3446.15
1178.48
455.905
1467.94
1153.93
764.585
478.751
349.192
376.329
565.985
911.674
1372.87
1946.62
2789.08
4239.16
5970.67
6943.65
6724.12
5650.16
4196.9
2772.75
1626.76
918.305
953.256
1750.56
3032.76
4619.02
6192.94
7359.28
7555.32
6274.56
1938.56
864.249
4705.55
4389.28
3197.51
1861.47
917.432
507.48
652.06
1356.67
2437.25
3565.89
4396.43
4644.03
4811.16
6164.4
9136.21
11297.3
11120.8
8971.98
6171.16
3712.1
2157.87
1885.21
3243.65
5662.52
8125.75
9825.62
10344.3
9033.44
3602.55
1020.58
1075.97
694.552
1599.92
3659.48
6836.91
10808.6
13875.1
14637.2
13165.6
10421.1
7408.42
4572.07
2404.98
1022.61
958.51
2322.76
4542.18
7553.56
10627.5
13294.6
14424.1
13123.9
9532.85
5265.89
2203.79
659.906
261.903
427.313
617.594
429.725
1891.94
1542.74
1159.43
805.44
538.952
389.568
378.426
572.183
1104.77
2032.18
3364.44
5298.78
7527.65
8847.94
8664.11
7364.63
5423.36
3438.6
1816.7
833.819
859.938
1955.29
3662.32
5543.68
7323.76
8708.44
9254.49
8451.18
1924.88
557.101
3026.8
1750.45
643.467
353.965
861.58
2036.02
3388.97
5113.1
7269.69
9125.72
10036.5
9854.04
8619.25
6640.41
4335.7
2249.89
847.165
600.182
1529.29
3102.32
5054.65
7141.66
9046.5
10218.5
9872.93
7514.25
3864.17
1331.61
466.157
930.548
1165.3
2858.67
5516.4
8789.85
11725.3
13220.6
12910.6
10932.3
8146.2
5251.79
2859.39
1308.2
1061.3
2316.21
4329.92
6857.24
9542.78
12007.8
13618.5
13639
11832.9
8484.65
4739.4
1918.15
656.969
395.141
360.539
402.442
688.781
3829.49
5625.56
9002.06
12325.4
14122.7
13751.9
11632.9
8534.14
5165.84
2434.06
1086.55
1393.19
2836.53
5105.87
8018.71
11256.6
14035.5
14732.4
12991.4
9063.91
4840.29
1983.74
974.654
918.43
816.942
571.637
564.079
849.74
1049.59
424.463
2236.74
1987.03
4354.47
8128.21
12670.8
15931.6
16329.3
14228.6
10669
6806.25
3473.85
1514.59
1611.24
3378.11
6275.96
10202.2
14448.3
18251.5
19500.6
16953.6
11072.3
5157.82
1820.92
738.396
642.498
632.744
645.216
676.441
728.094
794.416
6974.89
16889.8
21204.3
21730.7
19547.3
15294.6
10218.9
5619.62
2685.15
2469.56
4800.4
8873.38
13922.7
18553.4
20561.6
17791.1
11389
5746.92
3443.14
2727.93
2485.11
2430.17
2496.24
2644.61
2741.56
2666.52
2298.7
1655.15
962.655
670.268
1056.56
2384.5
3606.47
4582.29
4840.33
4317.62
3282.95
2016
1053.48
954.771
1647.01
2829.06
4194.22
5297.86
5735.86
5223.79
4046.68
2948.07
2435.85
2271.57
2031.52
1620.31
1190.45
923.185
901.026
1150.55
1639.42
2190.32
2543.8
810.887
350.096
255.249
334.459
1037.65
2600.09
4890.71
6930.03
7767.94
7322.23
5899.35
4075.3
2332.57
1205.6
1170.37
2259.41
4008.28
6015.51
7742.04
8567.93
8124.05
6134.52
3475.31
1462.97
520.523
200.364
101.393
70.9977
75.4099
81.1439
6.94287
187.138
446.052
519.659
510.655
414.875
279.187
167.146
112.934
136.981
272.328
484.738
679.472
761.211
661.818
472.42
453.638
568.836
693.184
659.96
560.438
417.697
271.168
163.342
129.258
214.127
493.408
969.928
1550.87
2254.64
3245.99
4387.39
4945.8
4479.86
3332.24
2076.83
1036.76
370.891
296.123
885.163
1853.01
2953.96
3923.35
4473.48
4451.31
3596.25
2069.06
645.405
523.933
967.548
1303.22
1026.08
743
569.296
517.547
560.559
694.121
920.186
1233.59
1679.75
2480.44
4027.96
5818.58
6678.75
6279.59
5098.07
3626.78
2223.12
1101.24
409.98
515.715
1392.09
2855.18
4702.68
6525.65
7848.72
8063.88
6627.2
3784.69
1061.48
840.587
2208.98
4419.03
4174.34
3166.01
2016.84
1207.09
884.739
1045.92
1616.05
2456.36
3369.09
4043.2
4182.83
4461.03
6343.99
9856.98
12020.9
11387.8
8670.63
5473.06
2781.56
1136.57
1068.68
3128.24
6309.2
9257.42
11026.6
11180.6
9176.11
5364.13
1179.33
1524.76
3008.02
1659.19
1211.94
2112.53
4235.76
7432.94
11333.6
14284
14995.5
13497.3
10851.3
7951.22
5165.86
2959.92
1414.03
1190.65
2408.84
4561.08
7536.65
10636.5
13285.6
14326.4
12953.1
9289.08
5036.05
2045.71
643.79
436.461
639.27
719.59
606.521
611.182
1152.01
1689.44
1347.81
1053.51
805.142
622.15
514.169
502.535
645.927
1043.79
1772.82
2961.08
4940.45
7215.21
8474.23
8259.94
7064.25
5328.41
3524.67
1993.39
1089.24
1322.32
2474.85
4129.76
5951.9
7664.7
8953.07
9379.39
8482.82
3871.91
1026.39
767.644
2286.65
3172.82
1864.08
667.885
329.743
766.939
1806.6
3025.05
4646.78
6772.24
8733.58
9913.27
10046.2
9122.77
7452.69
5388.02
3408.03
1987.49
1527.93
2165.33
3490.97
5283.87
7266.3
9051.32
10051.9
9520.51
6998.48
3445.68
1351.08
918.241
994.133
1174.67
986.2
1441.48
3037.37
5640.27
8934.81
12023.3
13786.1
13677.2
11832.8
9070.8
6084.63
3479.08
1628.75
966.012
1815.37
3561.51
5951.49
8634.35
11165.2
12923.9
13129.3
11547.7
8248.69
4443.22
1668.69
626.039
560.352
667.783
831.955
1134.76
1700.51
2288.16
2943.84
5478.48
8737.55
12000.1
13926.4
13792
11948.8
9124.79
5989.42
3317.34
1742.93
1669.15
2801.7
4783.74
7439.55
10418.4
12896.9
13420.7
11663.3
7783.98
3707.64
1280.98
684.967
740.284
732.726
739.528
998.287
1387.36
1648.64
1790.98
1861.6
1968.11
1803.85
2489.17
4759.7
8343.87
12748.9
15929
16336.2
14221.2
10737.4
6996.63
3732.97
1691.07
1503.96
2978.18
5713.36
9642.95
14026.2
17917.6
19018.4
16394.4
10428.3
4697.5
1558.99
714.283
774.263
965.586
1122.1
1172.46
1164.68
1228.37
1768.74
2530.36
8885.55
15236.5
19046.2
19329.5
16971.2
12768.6
7921.44
3726.69
1485.7
2126.21
4903.55
9361.08
14749.8
19460.7
21225.6
18353.9
12056.4
6797.3
4372
3187.8
2399.96
1901.46
1696.31
1752.92
1972.05
2189.69
2211.97
1911.09
1319.82
882.382
631.526
640.191
1727.13
2718.41
3992.65
5214.81
5760.03
5328.44
4190.57
2637.97
1335.91
1095.14
1868.05
3187.81
4666.42
5841.58
6314.15
5753.24
4349.3
2859.15
2074.26
1855.83
1735.46
1539.02
1312.43
1147.45
1087.44
1170.61
1403.74
1714.46
1982.67
1416.66
595.379
453.898
518.286
431.195
415.051
1020.59
2529.81
4850.01
7029.72
7959.28
7522.15
6033.49
4051.41
2158.42
887.758
743.931
1869.83
3608.55
5592.15
7349.32
8304.23
8002.02
6160.19
3533.77
1457.18
495.464
192.92
115.063
104.608
120.006
124.489
69.4807
18.4083
3.05233
179.941
443.523
514.608
494.478
387.381
247.516
141.854
106.982
166.067
337.678
567.711
748.855
780.486
603.87
248.396
239.642
515.699
622.909
629.121
561.664
445.085
312.485
207.797
170.917
245.31
473.639
850.618
1321.02
1981.1
2995.68
4176.61
4774.66
4378.49
3375
2290.72
1402.43
847.32
831.533
1389.81
2317.24
3362.3
4259.5
4701.73
4501.44
3403.61
1807.23
330.313
312.635
975.03
993.072
787.847
624.616
562.176
580.443
638.869
720.516
830.851
1002.76
1321.07
2072.97
3692.12
5495.67
6332.72
5991.93
4979.02
3738.17
2541.13
1566.57
1010.38
1179.21
2045.41
3486.1
5318.16
7104.41
8291.53
8281.46
6478.61
3450.59
482.677
441.948
2467.75
3702.79
3664.81
2970.64
2119.85
1510.62
1284.6
1397.65
1780.18
2358.88
3014.14
3455.08
3458.77
3849.32
6230.03
10136.6
12363.5
11638
9030.61
6064.57
3594.22
2291.87
2811.94
5244.7
8512.12
11220.8
12379.9
11538.4
8565.9
4611.75
1782.14
3663.12
4833.39
1898.92
1427.31
2383.87
4454.49
7460.17
11221.5
14301.6
15375.2
14407.3
12338.5
9935.32
7536.23
5537.34
4130.61
3884.21
4848.5
6673.57
9231.72
11854.5
13924.1
14381.4
12568.3
8824.22
4805.4
2074.73
852.62
682.782
857.968
895.472
753.425
778.923
1412.5
1202.83
991.399
857.133
754.626
675.541
620.068
609.467
686.17
925.006
1430.39
2479.3
4413.01
6660.26
8010.48
8155.6
7506.44
6394.17
5125.29
4005.83
3433.71
3718.7
4571.21
5745.28
7010.39
8113.98
8770.67
8615.67
7260.89
4083.09
793.172
844.262
3022.35
3211.79
1879.83
680.616
331.623
674.651
1496.3
2480.13
3889.02
5878.87
7911.33
9432.49
10098.7
9820.04
8813.51
7346.84
5786.96
4551.12
3979.99
4257.58
5173.63
6517.72
8008.49
9231.5
9634.23
8595.48
5954.42
2770.74
1236.63
1016.4
836.343
875.486
895.145
1341.05
2816.03
5225.9
8402.29
11645
13906.2
14419.2
13225.8
11021
8450.61
6032.77
4174.87
3242.97
3572.47
4823.97
6726.95
8964.12
11071.4
12478.5
12478.4
10812.2
7535.62
3835.88
1375.47
653.096
634.376
736.248
823.13
823.146
776.554
1119.72
2698.17
5018.51
7983.72
11132.3
13384.5
13910.8
12833.1
10741.8
8223.86
5950.91
4404.45
4005.42
4757.22
6335.53
8493.8
10786.5
12416.3
12306.6
10207.7
6352.23
2603.16
850.34
636.444
777.385
923.304
1147.06
1497.23
1824.93
1885.56
1631.18
1264.07
1306.16
1496.73
2488.03
4653.18
7965.16
12163.4
15482.9
16362.9
14888.2
12084
8949.79
6074.35
4125.5
3619.24
4701.58
7025.75
10466.6
14304.9
17466.9
17928.3
14944.2
9152.51
4034.87
1417.82
797.934
877.742
1060.71
1132.38
1072.94
996.151
1047.81
1439.29