/*--------------------------------*- C++ -*----------------------------------*\
| =========                 |                                                 |
| \\      /  F ield         | OpenFOAM: The Open Source CFD Toolbox           |
|  \\    /   O peration     | Version:  2.1.1                                 |
|   \\  /    A nd           | Web:      www.OpenFOAM.org                      |
|    \\/     M anipulation  |                                                 |
\*---------------------------------------------------------------------------*/
FoamFile
{
    version     2.0;
    format      ascii;
    class       volScalarField;
    location    "0.007450000";
    object      p;
}
// * * * * * * * * * * * * * * * * * * * * * * * * * * * * * * * * * * * * * //

dimensions      [1 -1 -2 0 0 0 0];

internalField   nonuniform List<scalar> 
12384
(
858563
858595
858649
858547
858462
858268
858008
857773
857328
857378
856954
857090
856720
857014
847623
847333
846893
846554
846419
845012
844931
843848
844373
843847
844198
844752
844960
845383
845696
845559
844917
844064
843432
841814
841537
841530
843109
842046
845026
846181
846197
847674
847758
848479
847493
846400
845192
843614
841054
840123
836226
837446
834684
835518
834805
835489
835944
836515
836981
837161
836987
837302
836062
839385
836785
844629
841921
849218
853190
857678
857326
860374
861532
862967
891697
891562
890146
887338
887186
881653
876884
879648
876207
877182
877659
877696
876766
874490
871478
868329
864965
862592
856700
849767
853965
844599
845133
845784
843571
844128
843701
844116
845224
844716
859010
858505
858916
860563
860303
861117
862605
862916
862316
859524
857502
856143
850303
845959
847121
851006
853196
859353
863184
869403
871837
874367
876209
877019
877388
877650
877918
877278
877406
875491
863423
862504
861747
860974
859951
856051
854703
854923
852522
852097
852688
853286
853569
853687
853100
852287
850121
847245
844974
845317
842416
844611
848275
847300
852734
855241
856068
858311
858424
859285
876868
875849
875093
874480
873268
873534
873172
873651
874192
874049
872858
869706
864726
858573
851647
844738
840449
833611
835512
834836
840472
843353
848477
851975
853687
854266
854655
855105
856220
856885
862775
861752
862861
862433
862681
861986
860002
856954
852750
841775
843981
830377
834264
827697
832728
835566
839792
842975
844438
844321
843943
842836
841418
841593
838826
839002
835711
836504
833291
832897
850360
852085
855435
857894
860300
859898
858895
858518
849159
848481
848707
850844
853880
860323
864881
870415
872973
873848
874084
874540
874858
874468
875025
876389
876563
877312
877289
877168
876774
877185
863198
862258
863581
863573
864109
863970
861660
858548
855941
847486
839076
840465
846325
844147
846980
863830
868846
869056
876605
878084
877849
882131
884408
883456
889135
889497
890663
893328
894014
895010
877672
874116
878385
877458
878327
876898
874563
872699
864412
859803
863037
861660
856322
852811
853656
840832
835276
837703
825088
819012
821888
810227
808365
809664
802065
802485
802190
798984
799963
799799
824476
824501
824224
825070
824939
827114
825953
829728
827107
834558
830288
842545
836792
851929
846410
861168
856440
869590
866282
876866
875090
882736
880766
887352
886013
890748
892972
893611
893834
894713
876638
876681
873752
874105
868811
869039
862167
864455
853097
856990
843353
848094
834326
838994
830785
833626
831010
831856
830347
830318
827799
828085
825688
826479
825781
826406
826645
827220
827637
828057
857821
857963
857976
857863
857743
857516
857369
857069
857053
856592
856800
856528
856733
856742
847862
847625
847197
846507
846372
845087
843997
844346
843664
843954
843829
844255
844667
844885
845004
844627
843988
843177
841186
840208
840842
838962
840043
842677
843250
844493
846145
847047
847394
847984
847379
846154
844543
842670
840433
839048
835782
836037
834864
834232
834397
834554
835388
835985
836258
836228
836043
835329
836332
836800
836828
842268
841146
849816
850380
856619
857485
861609
862164
863093
892554
890886
889228
886079
882819
879639
878095
875555
875438
876006
876332
876420
875624
873815
871475
867663
865376
860644
856367
851873
849274
844237
845933
842773
844133
844112
844666
845733
845319
845450
859042
858505
858642
858874
860519
860651
861048
861324
859411
858238
856555
849568
844578
846013
845024
842928
848468
854922
859446
867012
871047
874958
876491
877393
877479
877741
877583
877071
876516
876398
863937
863662
862515
861263
858716
856189
855665
852741
851745
852251
852483
852850
853236
853089
852544
850832
847732
847314
843842
841510
842424
840604
842810
850646
849856
852236
858051
858244
858825
860467
876327
875001
874169
873474
871696
872185
871162
870999
871815
872333
870767
867466
862449
856821
850358
841196
836058
835114
831317
833172
835292
840573
844843
849528
852437
854693
855234
856086
856735
857006
862112
861822
862498
862337
861760
860124
858779
852771
850545
840064
839331
830325
827942
828528
828388
832018
836712
841102
843627
845085
844479
843478
841805
840998
838632
838606
836180
835809
835040
835877
852674
852020
854821
857720
858082
858466
858083
850355
848830
849319
847872
844636
850704
855344
860971
868122
872687
875103
875699
875435
875302
874925
875001
875563
876182
876814
877055
876785
876891
876960
861157
860438
860941
861211
861531
860210
858580
856361
846669
840857
842607
839702
833405
843368
848751
852482
860514
870022
874707
875312
880200
879952
880803
886253
885727
888245
891086
891118
893079
893694
878354
874879
877186
876079
875501
874231
872151
862552
858898
861573
858470
854690
855170
855487
848310
845692
841030
829894
829252
823045
815853
814046
808861
807230
804351
802018
801553
799745
799987
799893
823998
824282
824295
825673
825444
826405
826580
827688
827495
832565
829993
840787
836931
850103
846420
859808
856392
868351
866334
875237
874953
880194
881171
883414
886393
889079
890811
893184
894513
895870
877055
875873
874035
873519
868935
870011
862365
864746
853060
856520
841821
845248
833879
835531
830965
830780
830950
829736
830305
828871
828350
826821
826483
825577
825979
825917
826526
827115
827711
828328
857684
857655
857547
857366
857029
856764
856399
856331
855782
856099
855581
855877
855504
856036
847673
847160
847105
846336
846046
845277
843728
844080
843273
843720
843858
844013
844149
844339
844184
843755
843019
840808
839763
839312
839156
838791
838769
839358
840985
843697
844557
845635
846229
847012
845680
844455
843184
841541
839121
837885
835520
836099
833464
834636
833761
834344
834535
835356
835712
835443
835237
835430
833787
836190
834810
840023
838936
849121
847039
855376
857397
861273
861993
863755
889517
887813
885621
883738
880250
876735
873419
874160
874654
874805
875801
875705
874545
873410
870393
868294
864472
859123
856971
850399
845895
844631
842012
842786
843057
843977
845436
845520
846033
848420
858697
858167
858864
858703
859212
860616
860199
858665
858468
856498
848938
843283
843746
841180
842593
843954
842904
849911
853057
862344
867369
871963
874900
876486
877240
877527
877369
877901
877708
876786
865455
862661
862701
861198
857697
857965
855070
852922
853558
852611
852597
853540
853016
852853
851100
849602
846572
844948
839721
839876
839987
842080
839354
845912
851450
850076
855082
858447
858178
859805
874177
873508
872325
869903
869585
870522
871688
870743
869367
869540
868476
864469
860928
854068
846095
838623
834465
830615
829570
830220
831999
836808
840908
845887
849827
852685
854692
855954
857212
857284
862663
861853
862678
862036
860865
859085
856113
849575
847410
835745
837395
822720
828256
821397
825025
827162
831589
836538
839942
841783
842980
842719
842102
841429
839909
839626
837927
837317
835027
833668
852099
853458
855080
856271
857342
857415
851850
847347
849214
840524
838226
842180
845048
850606
855971
863266
869056
872846
874815
875634
874833
874973
875346
875541
876066
876348
876922
876847
876775
876823
859434
858554
859020
858183
858245
857827
855060
846666
841267
842335
832093
826360
828893
829661
838463
846540
857482
860118
867885
875202
876757
877994
882012
883074
885439
887586
888497
890704
891099
892294
873823
873455
875681
873683
872343
869589
861004
856726
859809
853656
848394
849774
853401
848911
847326
846732
837764
831985
832911
822292
816053
817979
807678
809030
806201
801262
803007
800957
799550
800799
824689
824904
824817
825064
825399
825575
825634
827711
824822
832288
828946
839106
835016
849800
844203
859977
854725
868309
864444
875037
873064
879073
878571
883378
883683
887543
889147
891417
892875
894475
876661
876599
874185
873607
869269
869662
861715
863018
852112
853777
840299
844098
830355
834805
827887
829853
828206
829506
828339
828894
827494
827570
825712
825738
825489
826068
826396
826779
827150
827818
854949
855085
855170
855044
855162
855034
855154
854972
855154
854802
855260
855012
855476
855433
847441
847222
846980
846457
845211
845655
843856
844205
843019
843452
843529
843767
843548
843451
843306
842371
840294
839444
838621
836464
834667
834283
836826
838518
839523
839991
842838
844137
844744
845399
844120
842854
841791
840008
837841
837321
835329
834349
833916
833505
833738
833733
834297
834244
834281
834155
833323
831473
832356
831060
833711
837110
836653
846071
845336
854916
855887
860063
861912
863676
886265
884657
883750
879778
874955
873241
873266
871325
870308
871711
872896
873991
873700
871270
870414
867415
862839
858842
854461
844650
844973
841441
838949
840929
841278
843063
844917
845704
848384
847824
858399
858350
858318
858895
858922
858520
858916
857672
855290
848251
842503
843447
838177
830382
827757
830963
836872
844152
846234
858455
861789
870393
872590
876394
876430
878140
878447
878161
877021
876507
862813
864129
863027
860369
857828
857451
856495
852527
851634
852901
851841
851544
852849
852257
849598
848258
844819
839630
840387
837927
835621
837897
840835
838941
848413
851024
851151
856734
858395
858542
872682
870660
869142
868515
867003
865830
866442
869389
869329
866394
863940
862662
856158
849642
841321
836557
828686
824259
820350
822072
827675
829990
837718
840975
847256
850159
853954
855516
856831
857676
862205
862029
862663
861487
860327
856634
854144
845657
842460
833430
826794
823625
817964
821298
819603
823493
825811
831225
835819
839451
841263
842284
841993
841239
840035
838580
838033
837220
836639
838476
856083
855747
856576
856879
856184
853435
848281
845946
842189
833008
837183
836782
838395
844164
849815
857308
865340
870864
873975
875180
875753
874594
875144
875708
876144
876071
876263
876421
876598
876976
856788
855864
856379
855907
854811
851342
845301
840386
840513
826174
815599
815567
820128
822130
828998
834970
845110
854667
863442
869681
872973
878438
879199
880377
884057
885143
886618
888647
889858
890468
873898
875204
874634
872034
867041
858816
853435
854087
844557
834618
837705
843815
842077
844198
847249
840948
838356
836860
826039
827053
819180
811883
814152
807234
804722
804153
801971
800200
801701
800418
825361
825245
824887
824955
824987
824550
824617
823726
826251
826073
829839
834967
833769
846171
844246
856590
855400
865350
865447
872230
873481
877096
877507
881198
881854
885203
887598
889981
891240
892978
876803
876110
874255
873791
868684
869875
860379
863246
849374
853791
836500
841141
828399
829615
827147
824387
826914
827447
828657
827477
828061
827392
826933
826730
826801
826159
826883
826749
827237
827806
855781
855720
855415
855379
854828
854288
853832
853834
853032
853426
852621
853005
852833
853131
847624
846997
846554
846756
845540
845186
843864
844218
843118
843549
843320
843238
843073
842661
841710
840523
839457
837398
833981
831727
833874
832187
830577
832683
835848
839098
839480
841670
842923
844149
842013
841118
839922
838412
837262
836294
834121
834546
833596
833372
833146
833365
833547
833718
833841
833105
831108
830310
827922
830336
828050
835586
833884
843254
842493
853026
854330
859283
861265
863496
884135
882198
877987
873733
874020
873275
870466
870160
869843
869935
869810
870458
871344
870914
868928
865358
862895
855533
852214
839428
841816
833637
836583
834969
838598
839963
844250
847824
847651
849878
859119
857755
858309
858233
858745
857687
857086
854638
848383
841946
840225
831555
822597
823428
825476
826917
826227
837561
839645
853351
858412
866727
872477
874620
877576
877984
878328
878428
879263
879437
868737
864718
864264
864813
861483
857633
858313
858567
855745
854413
856150
854383
851883
851965
849755
844626
842825
837921
833556
832789
832634
830536
838737
838119
840443
850385
850774
852491
857251
858200
869472
866958
867283
867829
867089
865925
864074
863474
865295
864955
862241
857586
850761
846159
836932
830629
824611
819694
821491
818593
824043
823279
835261
835108
845854
847330
852637
854719
856728
856929
862430
861808
861726
860974
858220
856166
849977
842739
839151
824282
825109
813703
814075
809170
814425
816579
820649
825905
830336
836991
839778
841437
842394
843252
842516
842346
841032
839402
840033
837005
856994
858092
857465
856863
856085
850914
843464
844005
834129
829604
825699
824505
831706
835422
845800
851815
861713
868558
872436
875341
877158
876013
874829
875686
875865
875968
875860
875050
875167
875824
854957
853913
853836
853374
850070
843869
842259
835714
821894
811455
816396
816930
815171
818382
818295
827594
833994
845760
860320
862208
870766
876242
875746
880538
882189
883205
885755
886579
887209
888066
872811
874749
872530
866819
860313
852660
847501
834244
823186
825256
830748
827879
831262
838992
838638
840565
839643
833267
829806
827047
816546
816439
813091
806233
807500
805077
802063
803588
801403
802309
825315
825395
825049
824626
824102
824322
822962
823868
822443
826961
822439
835392
829127
845517
840305
856675
852189
866022
862471
872971
870763
877523
875542
880625
880374
883978
885546
888491
889682
890743
876348
876649
874362
874630
869104
869594
860444
862197
847606
849898
834366
835826
825068
826478
820896
822573
820952
823575
826372
828011
827497
826989
826600
826602
826356
827326
827140
827721
827774
827964
850910
851158
851071
850897
851140
851008
851547
851845
852798
852476
853194
853104
853068
853509
847451
847264
847277
846132
845822
845604
844923
843737
844171
843129
843616
843065
843047
841953
840777
839283
836599
833292
831737
831440
827333
829536
832091
832113
832157
834059
838075
839051
840321
841500
841412
840276
838832
837479
836908
835091
834123
834562
833666
833625
832905
833899
833730
833867
832602
829937
828399
827536
828299
825647
828102
830060
831251
841774
840160
850388
853445
858634
860953
863002
878187
874997
873669
875263
871805
866971
865820
867392
869020
870337
871198
870542
869356
869286
866930
865419
858712
855674
842731
836431
837798
831193
827272
831377
836612
838188
845396
846152
849189
851352
859384
858750
858642
858185
857670
857277
854663
850776
845160
839594
833523
824624
825566
822627
819856
821743
822329
833298
832536
851810
853298
866210
870428
875606
878012
880306
880707
881223
879654
879110
863752
865851
863490
861410
862216
859685
856054
855465
856184
854289
852969
854864
853641
849990
848937
845102
838181
836066
829282
825423
827556
827525
831759
839682
837249
844231
851835
851382
853369
857513
865367
866443
864408
861209
861881
864355
864067
861120
859341
861047
859139
851184
848965
841478
829537
829213
820879
815295
816259
815702
822159
821228
831063
832642
840790
847519
849883
854518
855348
856940
860938
861219
861104
859120
857948
853386
848330
838668
835877
821166
818051
813291
807853
810725
807558
812838
815930
823251
826892
834646
837676
841197
843498
842316
841977
841196
841360
842349
839779
843097
859971
859721
859354
857670
855032
847649
843367
840672
826074
826775
827918
826765
828031
828541
842192
848084
858188
864968
872358
876613
876425
877603
877159
875468
876285
874850
874569
874425
874076
873835
853439
853736
852539
847761
846016
841971
837426
818077
819732
815375
806700
793364
792043
793985
808982
813871
825870
841849
852415
857883
870719
873509
875224
880201
880912
882298
883714
885521
886342
886818
870249
871820
867626
861137
853945
842721
831954
820542
820628
820986
817930
821831
829205
830603
832443
838946
836127
834395
830780
821690
821535
815635
809407
811218
805048
804945
804713
803235
805322
803601
825153
825325
825184
824471
823559
822616
822617
819657
820618
821145
822751
827636
829456
840563
839833
852955
851994
863980
862829
870709
871210
875851
876507
879809
879776
883953
885232
886799
889438
888682
876696
876401
874656
874489
869879
870428
859844
861869
845144
847180
830915
832754
822276
819246
821177
819976
822656
821471
823922
827604
827644
828742
828867
828144
828192
827249
827428
827278
827360
827772
852725
852315
852322
852184
851695
851564
851221
850685
849157
849262
849130
849103
849667
849882
847361
847211
847227
847247
846456
846054
844699
845092
843394
843725
843106
843519
842307
841641
839278
838615
834354
832087
829082
826359
825548
823208
823361
826331
830397
833276
834332
837538
839005
839975
838092
837404
836871
837127
835626
834449
834677
834328
834079
833375
834427
833697
833726
833616
832635
829036
828349
826643
822714
825238
824487
830660
827822
839396
838978
848535
852593
858405
860257
863781
872634
874421
875375
870134
865998
866153
865555
864481
864354
865713
868433
869966
868492
867080
867461
861707
858249
851762
834771
840176
827840
825413
829045
829331
833753
839196
843621
847057
850725
852389
859661
858536
858735
858322
857291
856103
853241
847874
841137
834104
826420
819818
814405
808676
808214
815019
815669
830536
826950
847469
853152
864081
871169
876899
879739
881081
881755
881341
882146
881066
873898
871023
870772
868568
865794
865658
865478
862485
861645
862363
860624
856343
857977
852515
846056
843249
841239
830315
828432
828314
826588
826883
827284
837412
838992
839784
849610
852065
851864
854968
866544
863560
861593
861065
859506
858285
860258
861860
860172
855512
852366
850409
845811
831923
831124
827778
812914
813014
811982
811404
815517
817829
828091
831699
839879
844896
850010
852529
855287
855355
861155
860076
858936
858851
854908
853555
843568
840018
829768
819210
815410
804397
807544
800353
803886
806656
808133
822243
825564
830879
836859
842386
842900
844579
844949
845387
844120
842640
844052
840897
860122
861203
860118
859052
854082
846678
843883
835203
823603
822661
819576
817320
824815
826687
839964
844828
853743
865785
872851
875458
877668
877885
878236
876456
874519
873681
872871
871565
871056
870829
852192
851424
849935
846875
844825
834528
830158
815682
817532
793538
788823
787215
794365
800270
801053
803048
827561
837375
839539
859081
869411
869351
876756
878501
879153
882118
882954
883490
883882
883998
867815
867999
863190
855337
847632
835145
826400
817393
817515
810285
809821
813793
818375
826786
833241
832944
835388
833990
826131
825011
819007
812279
813705
807451
806129
806842
804660
806755
805418
807286
824840
825114
825104
824569
823026
822538
819750
819989
816989
820865
816774
829041
822488
841270
834999
854024
849345
864619
860917
872090
870000
877213
875888
880715
879616
883880
885288
886284
887309
889049
877381
876314
875759
873867
872631
869308
861857
859930
844721
844002
830746
826337
820066
818530
815841
817052
820402
821191
824020
826502
828844
828315
828263
828642
828155
828870
828918
829050
829035
828705
846607
847022
847015
847141
847135
847097
847418
848187
849965
850180
850755
850663
851083
851135
846658
846883
847228
846542
846823
845516
845790
845130
845831
844428
844291
842980
843047
840895
839405
835321
834481
828775
826905
825256
824986
824412
825374
824491
827099
829235
833590
834423
835861
837728
838205
837267
837585
835806
835373
834934
834737
834531
833936
835134
834776
835157
835259
833579
831946
830532
825985
825891
822973
822201
823950
826828
828456
835883
841817
845918
852788
857291
861185
863455
875130
874043
870064
867752
868377
865898
864894
865535
866216
866776
866209
867122
868555
867942
865340
861468
857940
843517
836115
837806
821819
825056
823585
825541
835536
838894
843846
850553
852648
854612
859824
860513
860180
859163
857536
855331
852066
845036
838134
831954
825628
815937
811505
811880
809857
816643
811217
832251
825806
848589
852911
864215
871855
878687
881880
884018
884199
883633
882476
882907
868778
869910
869028
868437
866586
863627
862735
863330
860936
859057
859865
859459
855266
857233
849885
841467
839117
836520
825960
827805
827561
824189
829924
835999
839701
841091
848159
853449
852567
855543
862604
859665
860870
860883
859074
858009
856243
857615
856767
853226
852773
847735
838406
832163
833289
819243
811804
814760
811519
811446
816507
819030
823433
833783
838331
845095
849082
852981
854062
855718
859331
859661
859096
856750
854865
850427
843755
836047
830167
813813
816784
802679
805149
802078
804838
803574
809923
821922
821476
830629
839170
840970
844055
845659
846250
844950
844023
846229
843351
848181
865146
863946
862416
858948
854125
846686
842093
832919
827398
819508
821589
818237
823689
828127
838536
841328
854469
864573
870923
875904
879305
879082
877675
876142
874590
871827
870273
869617
870557
870604
853973
851527
851244
843182
843984
828665
831572
809014
808405
789054
795836
786334
786101
787702
788414
803032
825814
823118
843928
862648
862235
870679
877875
877200
879589
882011
881609
883280
883264
884274
851653
861557
858550
851902
843261
833218
818680
809999
809874
801580
801514
808593
814705
821474
831438
833341
834910
829203
827433
823640
814005
816634
809611
805582
807929
806227
806560
805304
808775
806387
824634
825129
825121
824536
823583
821598
819239
818299
817467
816086
816571
824625
821781
838484
833899
852665
848644
864303
861057
871709
870242
877277
876887
881535
881380
884706
885854
888010
888012
887505
875426
875726
874539
874303
871658
870460
863398
859812
847002
843602
832655
820896
822787
812877
815126
816269
818044
822376
822667
826992
828894
830793
830413
829736
829620
828605
828601
828603
828790
829375
849126
848828
848640
848611
848159
848276
848020
846885
845967
845875
845979
845970
845471
846516
847233
847847
848196
848400
848285
848526
848281
848192
847175
846602
845354
845307
844544
844527
842535
841603
838809
836252
831304
830836
823770
822672
820433
819056
822036
822625
826062
828376
830298
833602
834546
836894
833701
833665
835622
835811
835061
835447
835246
835126
834639
834291
835479
835345
835733
836498
836789
835823
832386
830727
828490
823998
825248
823635
825132
827703
827140
835054
843300
846171
852129
859222
862267
866942
864840
856549
869986
867640
867693
869089
865252
864424
864705
864778
865054
865642
867966
868160
867844
868148
864921
861800
854370
842423
839035
833625
821796
820915
823637
828343
836588
840422
844531
851093
853418
855633
848574
842487
858691
857972
857856
857117
855658
854022
850319
845386
836710
831856
825236
815772
814224
813222
814440
814618
813848
832557
828334
848507
856927
864816
873815
880804
884452
886121
885455
884505
883149
881692
882109
874787
878953
878310
876186
874178
874032
873463
870256
867822
870230
868877
865375
863883
863648
855616
855659
846681
837155
838164
832424
827374
824806
827399
830759
834414
839848
843772
849555
852130
853579
856684
853516
858708
859714
860195
858021
856661
857457
858039
856524
853239
852636
854166
849751
843986
840309
835772
830078
817841
816983
813890
814497
810162
817882
818389
826622
833102
840015
844077
849692
851484
853576
854467
852342
855774
857852
856675
856294
856101
852773
851054
843440
836766
828785
818397
815988
803353
807034
806163
805158
803062
815019
819986
821122
834002
837628
841784
845191
847218
847734
848148
849269
847338
851369
847667
856212
853410
858342
859506
859564
858371
853968
850262
841527
833418
829811
820460
817468
816655
823153
828300
836683
844174
856295
864117
871322
877229
879472
879891
878318
875291
874229
871575
868205
867347
865699
862243
860388
852386
854416
847846
847344
843000
839090
829701
829127
804273
811324
786873
792568
780443
786884
781431
792630
811675
812802
825302
852492
854295
862059
875064
875351
877532
881012
881135
881664
882846
882216
880910
883580
884672
873240
869424
863565
855715
844073
834804
814981
808939
808990
809299
802584
809291
816837
822043
828836
831273
831270
829426
826868
817588
815724
814699
805895
808882
805089
807181
804855
810893
809906
814843
817893
819527
823196
824480
825043
824554
822891
821830
818527
818875
815462
818758
813788
826339
819617
839286
831841
853337
847834
864591
861048
872423
869680
878092
877931
881328
882739
885734
886292
886783
885374
884061
868166
880072
877187
877761
878469
875472
874482
868247
867317
852741
852209
836727
837742
819336
825210
813158
816582
814824
820653
822039
825231
827881
830324
830441
831095
830372
830114
830447
829944
830140
829968
830413
829868
830645
843825
843835
844251
843817
844095
844003
844772
846053
846801
847531
847669
848108
847478
848761
846620
847735
847613
848075
848631
848438
848617
847617
848256
847932
848088
846679
846659
844998
844262
841715
839332
835623
832518
827761
826912
820398
822657
819917
822514
821445
824203
828931
828579
832288
834390
835242
833794
832176
836321
835104
835740
834951
835119
835059
834544
835631
835707
836467
837424
837566
837194
836353
834709
830958
829360
826318
823868
824709
825337
826095
830419
835344
845210
845231
854017
858425
863385
866759
866264
865942
870606
870446
869525
866893
865174
865735
863567
864030
865830
865773
866925
868055
869051
867535
866811
861608
856658
845420
839354
835349
830297
831844
833567
832406
836856
842406
849742
853823
856745
858776
851991
849155
856428
854478
854551
854580
853977
852178
850108
845413
837345
831511
826360
817204
811266
812616
810275
816148
817552
835888
829821
852476
858960
868292
876168
882968
886048
887141
887095
886034
884868
883771
881858
876656
877995
876661
876611
875072
872776
872489
872348
871808
868254
868323
867747
865905
862722
862918
854354
854784
844422
837982
835891
834342
833708
833946
840401
840419
843731
848343
850803
854560
857234
859128
855466
857617
861615
858956
858165
857362
856020
854486
854368
854301
853876
850358
848073
844728
841275
833190
832365
821246
820358
814942
811383
814096
822361
821497
830932
835504
840703
846984
849941
852946
853964
855398
854290
856650
857783
857043
856885
855015
854143
849280
847665
836194
833265
820023
820348
811304
804199
801480
805499
812528
818413
816114
826994
836237
838563
843302
846679
848107
848783
848870
848579
848071
848856
847970
853650
853693
858960
858456
860015
859416
855956
850703
846695
838957
835872
833341
832528
830467
834095
833813
841916
849141
857239
865551
873126
877487
879545
879257
877866
874883
872309
870971
869368
865778
865348
861786
858648
850938
853022
846285
847613
840452
841213
828221
828942
807953
809058
791672
793052
789703
790619
782712
805174
802792
810624
840852
847233
852163
869468
872224
874859
878770
879480
881176
881501
882229
882302
882379
882362
885108
874273
868839
867313
857940
845750
837586
828390
823996
807494
808588
818227
810713
822671
827472
829987
835926
830466
829252
826621
816824
816532
812288
806233
808215
804461
807101
805274
810865
809911
814682
817457
820044
822352
824389
825022
824971
823683
822095
820850
817414
818872
817721
816153
826477
820162
839434
832814
852707
848325
864279
861512
872295
870117
878746
877710
883257
883646
886001
887356
887476
886620
886565
877015
881681
878268
878686
878068
875229
875578
867599
868215
854764
854323
836222
841208
824254
821289
820056
817510
821807
821591
826001
826596
830848
831995
833005
832158
832042
830852
830272
830519
830017
830203
830981
830158
830911
845934
845786
845576
845538
845453
845436
844929
844544
844861
844976
845716
846093
847132
847877
847317
847846
847332
848588
848353
849060
848998
849728
848910
848828
847909
848327
847102
846422
844802
843456
839988
836518
833213
828666
827020
821186
822719
820914
821270
823420
825253
826744
830142
831030
833126
835150
832910
833270
834559
834859
834469
835080
834933
834905
835501
835433
836309
837418
837991
838952
839876
838212
836727
833834
832248
829870
828694
825681
829782
831418
831555
839295
843431
849808
854563
860128
863734
866683
865842
866777
871535
870246
868886
868173
865618
865328
864478
864451
865979
866011
867064
869202
868889
870001
867983
862935
858076
850771
839778
835755
832715
829239
829124
834069
843807
850611
853728
856193
858682
858311
850709
848525
854836
851368
851355
851679
851766
851587
849454
846946
840711
835170
831150
829434
826787
822658
826372
826232
830295
835703
840186
856817
860997
872404
879437
883735
886149
887027
886497
885833
885170
884117
883145
880630
883513
881758
881413
881050
879838
877238
875314
875223
875767
873065
873006
871138
868102
863520
862614
853134
853989
845378
840910
835630
836688
837610
837109
840526
847188
852352
856589
858585
859580
861242
856970
858173
860440
858874
858299
856724
855719
853991
852798
853496
851001
849927
849193
844966
841503
838173
832597
826773
825013
824959
825683
825110
825214
824557
835904
837873
843966
848252
852118
853624
854745
856455
854507
857034
857076
856747
856082
855836
854560
850785
847875
842045
836162
826662
821499
818968
820456
814054
808776
815803
814155
822885
836202
837282
839136
845611
848432
848877
849396
848745
849279
847972
850037
847083
852084
854656
856806
857628
859935
859615
857185
853756
848587
843173
836029
830397
830221
830540
834326
838049
846353
853332
861061
868356
874774
877939
878977
878397
876932
873529
873424
868052
869059
863333
864001
857121
857945
850133
853169
845134
847432
840474
841585
829061
831478
810269
816228
794612
795342
785516
786416
796659
805144
802058
831609
837330
846841
861807
867205
872441
876985
877082
879528
880944
880922
881813
881971
882391
882612
884456
879527
876815
867996
865192
856612
839203
824774
824864
829481
816123
821574
829065
824629
839408
833195
836937
836111
826484
826964
822116
812161
813440
809510
805301
805362
807336
805423
810845
810812
815504
817340
819546
821416
822994
823962
824588
823989
823497
821675
822299
817540
821688
818971
828036
824481
839890
835186
853169
849255
864588
861746
872342
870401
878755
877497
883899
883281
886910
887175
888095
887332
888080
881326
881576
880107
877779