/*--------------------------------*- C++ -*----------------------------------*\
| =========                 |                                                 |
| \\      /  F ield         | OpenFOAM: The Open Source CFD Toolbox           |
|  \\    /   O peration     | Version:  2.1.1                                 |
|   \\  /    A nd           | Web:      www.OpenFOAM.org                      |
|    \\/     M anipulation  |                                                 |
\*---------------------------------------------------------------------------*/
FoamFile
{
    version     2.0;
    format      ascii;
    class       volScalarField;
    location    "0.007450000";
    object      rho;
}
// * * * * * * * * * * * * * * * * * * * * * * * * * * * * * * * * * * * * * //

dimensions      [1 -3 0 0 0 0 0];

internalField   nonuniform List<scalar> 
12384
(
0.825859
0.830389
0.835217
0.838989
0.841889
0.841842
0.840065
0.836753
0.83205
0.826653
0.819713
0.814154
0.809932
0.803973
0.893409
0.888501
0.887754
0.882534
0.875733
0.867148
0.858182
0.849313
0.845086
0.842084
0.841945
0.842937
0.844398
0.846595
0.849386
0.852212
0.854459
0.856784
0.858123
0.857778
0.857845
0.857697
0.858632
0.857641
0.859992
0.861119
0.860801
0.861146
0.879843
0.935534
0.834523
0.827034
0.823796
0.822488
0.821065
0.821154
0.81876
0.820563
0.819036
0.820221
0.819932
0.820873
0.821554
0.822218
0.822709
0.822975
0.822845
0.823034
0.821875
0.824515
0.822438
0.828635
0.826464
0.832435
0.835551
0.838784
0.837385
0.838398
0.842594
0.846083
0.878709
0.872185
0.869917
0.869269
0.870083
0.866291
0.862575
0.865301
0.862692
0.863632
0.864031
0.86394
0.862927
0.860693
0.857784
0.85477
0.8516
0.849328
0.844497
0.838508
0.842054
0.834161
0.834605
0.835234
0.833353
0.833806
0.83371
0.834362
0.835425
0.83607
0.844998
0.846284
0.846483
0.847314
0.846605
0.846878
0.848094
0.848667
0.848571
0.846863
0.845785
0.845175
0.8409
0.837559
0.838813
0.841953
0.843857
0.848666
0.851283
0.855594
0.856523
0.858176
0.863392
0.865132
0.864625
0.864206
0.86438
0.86425
0.864939
0.864211
0.846732
0.847783
0.845567
0.842538
0.838516
0.832803
0.830149
0.829431
0.827116
0.826661
0.827625
0.828625
0.829476
0.830223
0.830623
0.830886
0.830079
0.828662
0.827616
0.828753
0.827065
0.829574
0.833113
0.83284
0.837731
0.840155
0.841296
0.843212
0.84195
0.841738
0.884715
0.879697
0.879385
0.876142
0.871827
0.869269
0.86718
0.86761
0.868383
0.869089
0.869201
0.86782
0.865078
0.861015
0.856146
0.851285
0.848432
0.843102
0.845495
0.84543
0.850756
0.853817
0.858783
0.862368
0.863398
0.875252
0.927626
0.929778
0.921538
0.916234
0.858582
0.840153
0.834906
0.830232
0.827852
0.826397
0.824582
0.822141
0.818624
0.809836
0.812124
0.800746
0.804498
0.799232
0.803105
0.805364
0.808761
0.81108
0.812362
0.814057
0.821226
0.831302
0.831418
0.830718
0.827574
0.8265
0.822492
0.82199
0.818722
0.81823
0.819574
0.820252
0.82276
0.824711
0.826584
0.826577
0.826391
0.826381
0.819154
0.818715
0.819283
0.821376
0.823754
0.828663
0.831964
0.835893
0.836569
0.834859
0.829038
0.828404
0.828515
0.827875
0.827719
0.828414
0.828123
0.828083
0.827682
0.827895
0.828177
0.828457
0.831399
0.830643
0.831502
0.830888
0.830865
0.830629
0.828945
0.826817
0.825194
0.818959
0.812816
0.814521
0.81979
0.818338
0.820847
0.834029
0.837197
0.836992
0.839796
0.836125
0.835686
0.838444
0.839259
0.837311
0.840598
0.839931
0.840594
0.842794
0.843044
0.843616
0.828582
0.825751
0.828615
0.827375
0.82814
0.827498
0.826667
0.826045
0.820369
0.817609
0.820638
0.819766
0.815328
0.811727
0.806465
0.791148
0.78675
0.789808
0.781174
0.777063
0.779693
0.770975
0.769649
0.770619
0.764691
0.764821
0.764374
0.761598
0.761589
0.759935
0.803665
0.805522
0.795782
0.783543
0.78479
0.788837
0.788873
0.792358
0.790564
0.796604
0.793288
0.802878
0.798163
0.809981
0.805187
0.816935
0.812212
0.822826
0.819369
0.827789
0.825734
0.831711
0.830387
0.835878
0.835056
0.839041
0.841034
0.840741
0.83921
0.843856
0.822355
0.823198
0.82118
0.81992
0.813357
0.813792
0.785035
0.756869
0.745741
0.74864
0.738404
0.742096
0.73202
0.735604
0.730065
0.732466
0.73116
0.73228
0.731679
0.731955
0.73018
0.73041
0.728862
0.729932
0.730175
0.731678
0.733033
0.736143
0.746553
0.746751
0.839281
0.849156
0.860446
0.865918
0.866051
0.863853
0.860121
0.85618
0.851929
0.844665
0.835376
0.822087
0.812096
0.803922
0.892827
0.888768
0.887859
0.881307
0.870362
0.853716
0.837626
0.829423
0.82677
0.828029
0.829992
0.833294
0.838993
0.846682
0.855626
0.864325
0.869047
0.870946
0.869986
0.868969
0.86902
0.866857
0.866429
0.866592
0.864477
0.863181
0.862667
0.860629
0.8672
0.900742
0.83356
0.825918
0.82284
0.821938
0.821512
0.821939
0.820455
0.821274
0.820894
0.821062
0.82228
0.823737
0.825111
0.825755
0.825783
0.825147
0.824072
0.823122
0.823679
0.823864
0.823716
0.828242
0.82743
0.834831
0.834359
0.839091
0.838792
0.840435
0.840687
0.843555
0.877558
0.870953
0.870521
0.869609
0.867959
0.865615
0.864595
0.86284
0.863334
0.864339
0.86475
0.864562
0.863279
0.860939
0.858072
0.854065
0.851791
0.847914
0.84491
0.841502
0.839787
0.835655
0.837293
0.834419
0.835283
0.834846
0.835052
0.835964
0.835589
0.835993
0.844978
0.846469
0.846402
0.845607
0.845581
0.845199
0.846376
0.848106
0.848429
0.848424
0.848935
0.844548
0.841352
0.843358
0.843316
0.841563
0.845797
0.850369
0.852654
0.856959
0.858963
0.859816
0.861738
0.864772
0.864598
0.86338
0.864663
0.865496
0.864078
0.862116
0.847594
0.848357
0.843913
0.837044
0.828662
0.821974
0.819608
0.817737
0.81934
0.822865
0.82562
0.827705
0.828914
0.829805
0.830601
0.830357
0.828799
0.829209
0.826929
0.825528
0.826716
0.825697
0.828058
0.834937
0.834787
0.837287
0.842591
0.843151
0.842798
0.843083
0.883927
0.877868
0.872715
0.862957
0.856189
0.855277
0.855726
0.857629
0.859924
0.862953
0.865229
0.865769
0.864234
0.861173
0.856772
0.849811
0.845826
0.845387
0.842477
0.844374
0.846513
0.851462
0.855682
0.860367
0.863164
0.868494
0.892418
0.925818
0.918886
0.907326
0.860807
0.840318
0.8311
0.8264
0.825157
0.824441
0.824368
0.820351
0.818765
0.810242
0.809525
0.802297
0.80012
0.80056
0.800309
0.803184
0.806649
0.810017
0.812019
0.81372
0.815863
0.82281
0.830641
0.833668
0.830721
0.828418
0.823302
0.819832
0.817347
0.817823
0.821777
0.820302
0.821926
0.824208
0.825629
0.827054
0.827898
0.822607
0.822156
0.823324
0.822178
0.819753
0.824064
0.828184
0.831967
0.836492
0.838742
0.838251
0.833906
0.830345
0.829848
0.829803
0.829605
0.829595
0.829267
0.829122
0.827994
0.826353
0.826398
0.827844
0.830492
0.829696
0.828372
0.826977
0.826385
0.826113
0.82616
0.82609
0.820212
0.816977
0.819671
0.818308
0.814015
0.822183
0.826134
0.828366
0.833803
0.840537
0.841454
0.836257
0.837897
0.838252
0.837861
0.840314
0.837775
0.836858
0.836789
0.837236
0.840118
0.841665
0.828865
0.82585
0.826772
0.825249
0.825312
0.825596
0.825234
0.819584
0.818107
0.821399
0.819721
0.817001
0.817007
0.816347
0.80675
0.799006
0.791937
0.783912
0.785656
0.781785
0.776647
0.775364
0.771241
0.769575
0.766881
0.764697
0.764063
0.762346
0.761775
0.759975
0.799147
0.793762
0.785258
0.784299
0.786395
0.788312
0.788665
0.789183
0.788636
0.792449
0.790118
0.799113
0.795901
0.806882
0.803608
0.813847
0.81023
0.818912
0.816619
0.823306
0.823818
0.828334
0.829807
0.83182
0.834486
0.837063
0.839143
0.841006
0.84021
0.843853
0.817432
0.823301
0.825931
0.819902
0.813222
0.799057
0.763887
0.753925
0.744383
0.746173
0.734757
0.737278
0.728947
0.730556
0.727688
0.728351
0.729655
0.730439
0.732694
0.733146
0.733405
0.731575
0.730607
0.729313
0.729619
0.730255
0.731958
0.736102
0.747495
0.74748
0.855333
0.871757
0.878071
0.874136
0.864484
0.855407
0.847218
0.842619
0.84124
0.842519
0.841079
0.833129
0.816443
0.803875
0.892092
0.888422
0.888027
0.881167
0.866397
0.845047
0.827941
0.822285
0.821507
0.82333
0.826165
0.830689
0.838718
0.852149
0.866844
0.873851
0.874746
0.871726
0.868707
0.866362
0.865434
0.865396
0.865965
0.866757
0.867253
0.867194
0.864921
0.861877
0.861731
0.882974
0.831572
0.823742
0.821091
0.820509
0.819895
0.819932
0.818183
0.818821
0.817773
0.820916
0.822247
0.825262
0.826894
0.827626
0.826981
0.825032
0.823285
0.822735
0.820827
0.822652
0.821385
0.826127
0.825568
0.835092
0.833013
0.839981
0.839844
0.841423
0.840606
0.84312
0.873832
0.868507
0.868358
0.867954
0.864092
0.859772
0.856471
0.857971
0.860149
0.861938
0.863748
0.862903
0.860481
0.857909
0.854585
0.85285
0.85055
0.847301
0.847126
0.842626
0.839701
0.838924
0.836939
0.837236
0.8369
0.836842
0.837224
0.836705
0.836665
0.838493
0.844547
0.846357
0.846772
0.844567
0.842782
0.844739
0.84656
0.847325
0.850444
0.851308
0.846854
0.843438
0.844972
0.843695
0.845646
0.846935
0.845801
0.851203
0.85244
0.857809
0.859034
0.860122
0.860477
0.862659
0.864174
0.865519
0.869016
0.873848
0.871589
0.866792
0.849043
0.847146
0.841027
0.830519
0.818889
0.814292
0.812733
0.815789
0.822677
0.827512
0.831269
0.833977
0.833506
0.833783
0.833034
0.832429
0.830048
0.828463
0.823779
0.823352
0.823246
0.824932
0.823095
0.829185
0.834513
0.834468
0.839475
0.843028
0.842542
0.842869
0.881831
0.874005
0.863504
0.850588
0.8464
0.849973
0.855735
0.858696
0.859307
0.863582
0.867621
0.867922
0.86669
0.861424
0.854702
0.847929
0.844018
0.840638
0.839881
0.840681
0.84264
0.847395
0.851674
0.856936
0.861005
0.863877
0.876147
0.904365
0.92378
0.909503
0.862051
0.841106
0.826682
0.825598
0.826645
0.826729
0.824637
0.818593
0.815911
0.805582
0.806291
0.793763
0.797963
0.792358
0.795609
0.797809
0.801958
0.806361
0.809126
0.810871
0.812549
0.815542
0.823217
0.832466
0.834312
0.832052
0.826132
0.820873
0.815455
0.814187
0.821021
0.820634
0.82186
0.823981
0.826544
0.828319
0.825332
0.823046
0.826081
0.820618
0.819597
0.823191
0.824939
0.82861
0.831432
0.835115
0.838286
0.839032
0.836586
0.832672
0.830038
0.83044
0.830937
0.830776
0.830705
0.830885
0.830468
0.827585
0.825853
0.827205
0.829941
0.827351
0.824856
0.822304
0.822739
0.824779
0.825674
0.822118
0.820301
0.822906
0.817219
0.81398
0.816689
0.817377
0.824172
0.828726
0.834846
0.835243
0.83931
0.840038
0.836181
0.83728
0.841
0.840495
0.840137
0.837208
0.833413
0.832538
0.834584
0.838916
0.825567
0.824652
0.825614
0.824684
0.825448
0.82535
0.821335
0.819946
0.824005
0.820236
0.816273
0.816972
0.818897
0.813936
0.810287
0.80504
0.793222
0.785779
0.788407
0.781755
0.777244
0.778536
0.770181
0.770357
0.767237
0.76281
0.764228
0.763037
0.761327
0.760507
0.79428
0.786385
0.782912
0.784562
0.785908
0.785447
0.78408
0.784138
0.780645
0.786083
0.783353
0.792317
0.790112
0.803609
0.80036
0.813726
0.808988
0.818845
0.815005
0.824196
0.824066
0.830848
0.831547
0.83569
0.835211
0.83722
0.838322
0.840111
0.839575
0.842388
0.808171
0.823914
0.828782
0.817851
0.80203
0.777405
0.753231
0.750667
0.741688
0.74235
0.732274
0.735354
0.725567
0.728922
0.724062
0.72579
0.725579
0.728389
0.730774
0.735456
0.738212
0.739966
0.73865
0.738331
0.736372
0.734565
0.735944
0.742122
0.751821
0.74662
0.876693
0.882557
0.874465
0.859196
0.846533
0.83902
0.833762
0.827977
0.824193
0.826524
0.834053
0.834683
0.822228
0.804546
0.8916
0.888676
0.8886
0.883353
0.866953
0.844647
0.826008
0.819651
0.817245
0.818111
0.821133
0.827649
0.838637
0.857599
0.872757
0.874406
0.86915
0.863024
0.857936
0.853435
0.850765
0.850988
0.855691
0.860661
0.864465
0.865432
0.866043
0.863296
0.860011
0.874365
0.830225
0.821851
0.818901
0.817499
0.81639
0.815965
0.814662
0.814983
0.817872
0.820075
0.822133
0.824704
0.827601
0.827225
0.824922
0.822239
0.820273
0.817979
0.818513
0.817629
0.82033
0.823835
0.824109
0.832582
0.832359
0.840969
0.840534
0.841678
0.84116
0.842395
0.870563
0.866101
0.867209
0.863193
0.856143
0.852059
0.851652
0.852095
0.854276
0.858248
0.861127
0.86112
0.85832
0.854093
0.853322
0.852698
0.851197
0.850276
0.848475
0.841524
0.84277
0.840336
0.838265
0.839448
0.838732
0.838748
0.838893
0.838298
0.839478
0.838181
0.844027
0.846505
0.84585
0.842358
0.842074
0.844077
0.846894
0.849804
0.850927
0.847207
0.844141
0.846645
0.84365
0.837935
0.836357
0.839152
0.84387
0.849563
0.850094
0.85867
0.858531
0.861652
0.860222
0.862083
0.863112
0.865568
0.870161
0.876584
0.87395
0.868128
0.84703
0.848141
0.839172
0.825461
0.813615
0.809886
0.810344
0.814835
0.822872
0.830498
0.833404
0.834402
0.83515
0.834874
0.833172
0.831605
0.827198
0.820917
0.81955
0.816213
0.813848
0.816054
0.81937
0.819534
0.829099
0.833076
0.834914
0.84091
0.842723
0.84201
0.880385
0.869079
0.855331
0.843041
0.840535
0.845252
0.853321
0.859404
0.861019
0.864431
0.867747
0.869021
0.86381
0.857421
0.848941
0.843448
0.835649
0.831273
0.828068
0.830093
0.835826
0.839147
0.847257
0.851749
0.858525
0.861752
0.86879
0.889218
0.917322
0.912573
0.858617
0.832858
0.8258
0.828004
0.828881
0.825694
0.822166
0.813402
0.809072
0.800106
0.793776
0.790453
0.785333
0.788346
0.787405
0.791544
0.794706
0.800529
0.805281
0.808764
0.810664
0.81256
0.817135
0.826829
0.833845
0.833182
0.828028
0.820247
0.815292
0.81646
0.822822
0.821239
0.823256
0.82555
0.827065
0.826792
0.824709
0.825554
0.824932
0.819213
0.823564
0.823498
0.824334
0.827933
0.83072
0.834453
0.837782
0.839777
0.839117
0.83518
0.83254
0.830398
0.830758
0.8314
0.83178
0.832052
0.832074
0.829889
0.826118
0.826687
0.827951
0.823546
0.820815
0.819028
0.820581
0.821994
0.821601
0.820847
0.82524
0.816542
0.810252
0.811625
0.81632
0.817611
0.822249
0.825165
0.830256
0.834188
0.838377
0.838878
0.834351
0.837557
0.839047
0.839805
0.840472
0.835302
0.830994
0.828961
0.830566
0.83553
0.825567
0.825887
0.826273
0.826281
0.825883
0.822681
0.821313
0.823988
0.818997
0.81223
0.814377
0.81725
0.812808
0.813245
0.813337
0.804943
0.797997
0.791344
0.783065
0.78564
0.779933
0.774203
0.775505
0.769253
0.766026
0.764434
0.762528
0.761727
0.762469
0.759921
0.791455
0.783755
0.782548
0.783838
0.782933
0.780125
0.777474
0.774131
0.774344
0.773274
0.776067
0.781191
0.782387
0.795104
0.797013
0.809891
0.810314
0.817909
0.816661
0.823278
0.826711
0.832062
0.833805
0.837752
0.837431
0.838152
0.838483
0.839606
0.838696
0.841158
0.801782
0.824008
0.829137
0.810409
0.78547
0.764302
0.748476
0.749424
0.738431
0.742153
0.730147
0.734245
0.725371
0.726279
0.724251
0.721842
0.723413
0.724326
0.727743
0.732272
0.740604
0.746719
0.749746
0.752168
0.752169
0.750267
0.749532
0.752122
0.753719
0.742788
0.890461
0.880723
0.860312
0.846675
0.840695
0.839092
0.837794
0.833507
0.8249
0.81818
0.821506
0.829911
0.822343
0.804002
0.891662
0.888625
0.889544
0.887489
0.873583
0.851497
0.83058
0.820726
0.81694
0.816826
0.818451
0.82595
0.840532
0.863688
0.873484
0.868955
0.860187
0.852166
0.845376
0.841407
0.842497
0.841142
0.841849
0.847634
0.855862
0.863042
0.864169
0.863098
0.858806
0.869961
0.828823
0.820283
0.816247
0.813813
0.812544
0.811952
0.811473
0.815194
0.819744
0.821521
0.822559
0.825551
0.827763
0.825704
0.82208
0.819652
0.817185
0.816559
0.8161
0.81945
0.818455
0.825145
0.823749
0.831552
0.830669
0.840129
0.840363
0.842771
0.84131
0.842042
0.868668
0.864545
0.862122
0.85655
0.852747
0.849496
0.847727
0.849952
0.852765
0.85624
0.858696
0.857908
0.854997
0.852778
0.852698
0.853336
0.85428
0.850784
0.849978
0.840802
0.84386
0.837519
0.839985
0.837841
0.839669
0.839068
0.840588
0.841695
0.839831
0.840239
0.844303
0.845773
0.844639
0.839927
0.84224
0.844879
0.848153
0.849745
0.847193
0.843919
0.844787
0.839338
0.833277
0.835144
0.837528
0.838729
0.837491
0.846464
0.846694
0.857204
0.858939
0.862097
0.861588
0.86106
0.863458
0.864421
0.868183
0.876723
0.874505
0.870189
0.85178
0.84892
0.840214
0.828259
0.815551
0.809858
0.812345
0.821455
0.829166
0.833935
0.838199
0.837486
0.834769
0.835177
0.832831
0.82636
0.821204
0.813695
0.806824
0.804219
0.803371
0.802384
0.810862
0.813122
0.818232
0.829545
0.832823
0.836598
0.84166
0.841831
0.877614
0.863955
0.84996
0.839046
0.837394
0.843599
0.852737
0.855273
0.859076
0.86622
0.86862
0.865826
0.859034
0.853096
0.842899
0.835226
0.828241
0.822998
0.824298
0.822465
0.828522
0.82992
0.842567
0.845099
0.85657
0.859058
0.865289
0.880513
0.908487
0.910981
0.847242
0.824296
0.827389
0.829956
0.827702
0.824399
0.817234
0.808825
0.803996
0.789907
0.789479
0.778915
0.778805
0.774612
0.779397
0.782356
0.78717
0.79371
0.79923
0.806256
0.809199
0.811097
0.814341
0.823253
0.833323
0.83635
0.831178
0.821581
0.816231
0.813807
0.821177
0.822664
0.824522
0.826278
0.827943
0.825899
0.823911
0.827607
0.822391
0.820405
0.819177
0.818712
0.823549
0.824875
0.831249
0.83356
0.838326
0.83947
0.840214
0.838763
0.836277
0.832899
0.831097
0.832202
0.832657
0.832945
0.833056
0.830735
0.825987
0.825106
0.824662
0.819883
0.816473
0.816369
0.818791
0.819419
0.82221
0.821902
0.814514
0.808999
0.815681
0.817632
0.81716
0.819437
0.818547
0.823631
0.825852
0.830841
0.838373
0.83503
0.834536
0.835699
0.835699
0.840074
0.838805
0.831987
0.827725
0.82533
0.82634
0.831849
0.824384
0.826417
0.826864
0.826297
0.825222
0.822409
0.823812
0.817368
0.810669
0.81323
0.817028
0.812217
0.810895
0.812407
0.80924
0.807586
0.802232
0.790307
0.786146
0.785908
0.778378
0.778535
0.775814
0.769891
0.769639
0.765937
0.762186
0.763056
0.761343
0.761125
0.78984
0.782647
0.78203
0.781595
0.77833
0.774669
0.769785
0.767356
0.76382
0.766141
0.76258
0.773786
0.771148
0.787667
0.788212
0.806246
0.806608
0.819494
0.814978
0.824537
0.825413
0.833246
0.833189
0.839063
0.838557
0.839271
0.838317
0.839129
0.837686
0.839577
0.795821
0.821334
0.828786
0.802274
0.773611
0.757857
0.746919
0.747894
0.737342
0.740522
0.730392
0.732656
0.725375
0.726499
0.721943
0.72225
0.720104
0.721188
0.723453
0.728051
0.736599
0.747979
0.754003
0.755527
0.754188
0.753815
0.752758
0.752661
0.749542
0.735925
0.88359
0.862739
0.846116
0.839995
0.838426
0.839175
0.841191
0.840959
0.835311
0.82189
0.817429
0.825753
0.822593
0.80494
0.891637
0.889015
0.891549
0.891484
0.884458
0.865747
0.844276
0.830704
0.825423
0.820778
0.8196
0.826384
0.844019
0.868764
0.871865
0.86193
0.850513
0.842649
0.839545
0.838165
0.833873
0.835326
0.838225
0.841102
0.847126
0.855275
0.862438
0.861771
0.856971
0.866096
0.829057
0.820333
0.814911
0.811664
0.811465
0.809237
0.811739
0.816908
0.822061
0.823075
0.823555
0.828146
0.827811
0.822892
0.819394
0.815965
0.814842
0.817113
0.820196
0.819384
0.821936
0.823705
0.82421
0.832356
0.830112
0.838776
0.840483
0.843356
0.841376
0.841589
0.864197
0.858498
0.858177
0.857159
0.850426
0.844705
0.845206
0.848535
0.851947
0.856611
0.860282
0.857269
0.851914
0.85155
0.852936
0.855974
0.853489
0.853537
0.844985
0.842318
0.845789
0.841056
0.837249
0.839269
0.841153
0.840005
0.843548
0.841705
0.84205
0.841778
0.844169
0.846061
0.843294
0.839701
0.843707
0.846596
0.848163
0.848112
0.845927
0.844024
0.841894
0.83691
0.839435
0.837941
0.835862
0.837237
0.836748
0.845437
0.842709
0.858303
0.856752
0.864387
0.862346
0.862944
0.86381
0.865745
0.868806
0.878353
0.871362
0.867789
0.847705
0.85008
0.841869
0.829432
0.820399
0.814994
0.815617
0.824732
0.833883
0.836103
0.836487
0.837997
0.836347
0.833662
0.83044
0.822928
0.812124
0.805565
0.795989
0.790134
0.791037
0.792047
0.798152
0.808229
0.810854
0.821318
0.831584
0.834711
0.838272
0.841306
0.874343
0.862453
0.845917
0.831777
0.830612
0.840342
0.853742
0.853495
0.854897
0.86507
0.867422
0.860964
0.856996
0.847909
0.834649
0.830944
0.821282
0.814936
0.815446
0.815803
0.823172
0.825049
0.836633
0.841233
0.851355
0.859015
0.862197
0.876355
0.90026
0.908024
0.833987
0.823481
0.829366
0.829182
0.82722
0.821426
0.81481
0.804097
0.799455
0.785322
0.781197
0.775873
0.770614
0.773134
0.770899
0.776517
0.780595
0.789033
0.79448
0.803224
0.807238
0.810581
0.813918
0.818923
0.829154
0.833805
0.830703
0.822091
0.814051
0.817065
0.823609
0.823976
0.826322
0.827389
0.827808
0.825123
0.826134
0.827962
0.819688
0.824253
0.827285
0.82666
0.82662
0.824267
0.831498
0.83343
0.838268
0.83947
0.840941
0.842202
0.838162
0.836158
0.834749
0.833422
0.833814
0.832349
0.832083
0.830679
0.825598
0.823322
0.821013
0.816812
0.81287
0.813134
0.818569
0.820508
0.8217
0.810652
0.816307
0.816034
0.811772
0.802738
0.802743
0.803703
0.815082
0.815489
0.82248
0.830681
0.834425
0.833128
0.835924
0.83356
0.834347
0.839492
0.836227
0.82785
0.822688
0.822458
0.824495
0.829515
0.822655
0.825238
0.82532
0.82468
0.822859
0.821133
0.818235
0.816508
0.821512
0.823713
0.819364
0.816488
0.814633
0.810142
0.805849
0.808306
0.801537
0.79192
0.787114
0.781921
0.78232
0.778075
0.773476
0.774901
0.769643
0.768234
0.765743
0.762429
0.76321
0.76169
0.789476
0.781686
0.780948
0.778971
0.774059
0.768594
0.764266
0.758573
0.756943
0.756066
0.757315
0.762304
0.765567
0.777747
0.781919
0.798537
0.803487
0.817844
0.816227
0.822676
0.825726
0.831742
0.833014
0.838279
0.838383
0.840123
0.838582
0.838216
0.837598
0.83832
0.790089
0.813602
0.829057
0.796795
0.767538
0.756006
0.745933
0.747706
0.736481
0.740204
0.730008
0.733093
0.726287
0.724298
0.724719
0.722414
0.722821
0.720748
0.721547
0.724659
0.730288
0.745606
0.7571
0.757411
0.750546
0.739831
0.740178
0.740251
0.735163
0.729346
0.8743
0.85292
0.842979
0.83704
0.8312
0.829858
0.834475
0.839194
0.836444
0.824327
0.813708
0.819218
0.818926
0.801643
0.891554
0.88898
0.892419
0.896072
0.895489
0.885239
0.867059
0.85286
0.841603
0.832188
0.822819
0.82928
0.84726
0.871713
0.867812
0.854529
0.843813
0.8401
0.836519
0.831712
0.828394
0.825856
0.826928
0.832045
0.841386
0.851472
0.858197
0.860645
0.85591
0.864369
0.827481
0.819534
0.814117
0.811765
0.809822
0.810485
0.815197
0.820218
0.824215
0.824247
0.826792
0.830104
0.826089
0.820707
0.81811
0.814994
0.818082
0.820254
0.818844
0.821763
0.821335
0.826434
0.82315
0.832304
0.830489
0.838154
0.840544
0.843897
0.840991
0.842189
0.859877
0.857778
0.859343
0.853419
0.846767
0.845777
0.846673
0.847162
0.848387
0.853367
0.858353
0.855625
0.850143
0.850582
0.855491
0.854615
0.854947
0.852643
0.842648
0.850776
0.842411
0.840926
0.843493
0.841701
0.842571
0.843132
0.84362
0.843597
0.844015
0.842857
0.844018
0.844901
0.841979
0.843071
0.844975
0.847165
0.848362
0.846647
0.84365
0.840976
0.838301
0.834962
0.831664
0.826864
0.826219
0.832197
0.832169
0.8447
0.839524
0.856268
0.858423
0.864232
0.864702
0.864976
0.865423
0.867044
0.869593
0.877546
0.870014
0.865868
0.855496
0.854811
0.850574
0.84213
0.833142
0.830774
0.834577
0.839295
0.842249
0.844105
0.843203
0.839012
0.840191
0.83502
0.825394
0.817668
0.810021
0.795862
0.789146
0.786299
0.784023
0.785436
0.788937
0.80174
0.808479
0.814967
0.828107
0.834393
0.83678
0.839229
0.875695
0.859841
0.843562
0.831013
0.827378
0.834207
0.851337
0.853967
0.855981
0.861773
0.862745
0.860631
0.854204
0.839197
0.834686
0.8278
0.811825
0.809652
0.808156
0.809033
0.814912
0.819928
0.832329
0.838959
0.849917
0.856703
0.862275
0.872844
0.896433
0.902784
0.827267
0.825186
0.828129
0.828909
0.824736
0.821368
0.8105
0.804353
0.793794
0.782201
0.777592
0.766792
0.768783
0.7627
0.76591
0.769519
0.772203
0.786553
0.7916
0.799046
0.805909
0.811278
0.812861
0.818795
0.82851
0.834883
0.830711
0.819752
0.815024
0.814051
0.823935
0.825132
0.827094
0.828818
0.826653
0.82571
0.828392
0.825386
0.821351
0.824361
0.823447
0.821482
0.827107
0.826221
0.833287
0.832633
0.836476
0.841853
0.843178
0.842894
0.84135
0.837948
0.837175
0.835247
0.832149
0.829885
0.830262
0.828213
0.8229
0.820881
0.81791
0.810887
0.80943
0.814811
0.819796
0.815217
0.817467
0.810571
0.816957
0.800249
0.799741
0.799802
0.806948
0.811574
0.811654
0.809177
0.826226
0.829016
0.825974
0.834102
0.835615
0.830331
0.835088
0.837747
0.832006
0.823481
0.819428
0.819805
0.822441
0.825882
0.820041
0.822581
0.823157
0.822113
0.822621
0.820158
0.823142
0.824512
0.830225
0.825923
0.82315
0.818923
0.81165
0.810287
0.809022
0.804832
0.801782
0.791142
0.783913
0.784479
0.779936
0.774504
0.775535
0.771025
0.770551
0.771299
0.768723
0.76851
0.764859
0.765131
0.789791
0.78138
0.779781
0.777318
0.771023
0.765314
0.758647
0.755356
0.750874
0.752905
0.749831
0.76002
0.756324
0.774172
0.773746
0.795196
0.797982
0.816717
0.815744
0.823782
0.823979
0.832388
0.831349
0.836342
0.836907
0.839439
0.838656
0.837553
0.835402
0.839163
0.78656
0.799534
0.831142
0.796946
0.767538
0.754395
0.747039
0.746513
0.737061
0.739193
0.731849
0.730972
0.727814
0.726958
0.723636
0.722394
0.722399
0.721414
0.722515
0.723469
0.726308
0.73787
0.757658
0.762121
0.755036
0.733699
0.728414
0.728717
0.729483
0.731193
0.858832
0.842967
0.83243
0.819113
0.809514
0.807955
0.81336
0.822866
0.830222
0.823202
0.814431
0.819877
0.818932
0.800978
0.891774
0.888664
0.8928
0.897043
0.901942
0.900926
0.893478
0.880779
0.866684
0.845969
0.82988
0.831689
0.85163
0.872596
0.864368
0.846841
0.842416
0.837962
0.833194
0.826148
0.822028
0.821048
0.824328
0.82721
0.835991
0.846216
0.856875
0.857568
0.852955
0.862366
0.829183
0.822008
0.817414
0.813367
0.81296
0.815526
0.819472
0.824427
0.825977
0.827594
0.830172
0.832032
0.824035
0.819226
0.817057
0.81869
0.819335
0.822007
0.820634
0.820639
0.822333
0.8244
0.82462
0.830284
0.833895
0.836735
0.841344
0.843416
0.841719
0.841809
0.86274
0.857442
0.854615
0.852189
0.850852
0.848012
0.847886
0.848891
0.850537
0.855174
0.856241
0.851833
0.849641
0.852831
0.855078
0.855658
0.856343
0.848836
0.847515
0.852291
0.8403
0.843659
0.841564
0.841106
0.846324
0.844625
0.844552
0.847118
0.845828
0.844862
0.843763
0.845348
0.842311
0.845781
0.846245
0.847326
0.848116
0.844642
0.841813
0.840437
0.839
0.832888
0.82997
0.829728
0.827737
0.833702
0.828304
0.847121
0.83924
0.858209
0.859106
0.865401
0.866182
0.866301
0.867553
0.869404
0.873725
0.873379
0.864238
0.862151
0.850971
0.853801
0.85114
0.847742
0.84314
0.840089
0.841992
0.844648
0.843274
0.842221
0.842604
0.841031
0.838318
0.837525
0.826419
0.814153
0.805994
0.798031
0.784508
0.783291
0.782079
0.780628
0.78834
0.798046
0.807021
0.814416
0.826015
0.835126
0.837208
0.839624
0.872839
0.85757
0.844386
0.831578
0.826823
0.834454
0.848439
0.850213
0.853011
0.860392
0.863623
0.858997
0.848529
0.839577
0.836376
0.820254
0.81
0.809636
0.806352
0.807948
0.814675
0.819753
0.827669
0.840386
0.848544
0.857098
0.861766
0.873365
0.894167
0.899558
0.823418
0.825286
0.827243
0.827104
0.825048
0.819079
0.810736
0.801007
0.793852
0.777319
0.777978
0.764637
0.766038
0.763244
0.765703
0.766089
0.772361
0.785103
0.787273
0.798104
0.806992
0.809884
0.813604
0.818671
0.827399
0.832783
0.827806
0.818404
0.813105
0.818521
0.828417
0.827359
0.829017
0.8288
0.82683
0.826216
0.827632
0.824174
0.825982
0.82314
0.826242
0.823595
0.827534
0.828952
0.833992
0.830752
0.838167
0.84173
0.842575
0.844145
0.843814
0.840645
0.837245
0.834768
0.829937
0.826549
0.827078
0.825558
0.821159
0.820257
0.816378
0.805558
0.81099
0.813881
0.819949
0.810804
0.819471
0.805961
0.810397
0.797842
0.806989
0.799923
0.800706
0.801235
0.801972
0.810363
0.825823
0.818144
0.830435
0.837294
0.830225
0.831426
0.836248
0.835468
0.827865
0.820362
0.818302
0.821432
0.823919
0.825884
0.80506
0.817671
0.820894
0.821013
0.822686
0.824016
0.823186
0.825007
0.829737
0.823832
0.820802
0.819405
0.812199
0.807216
0.808774
0.805713
0.800852
0.786295
0.784969
0.782956
0.77486
0.776245
0.770474
0.767501
0.769922
0.76947
0.770365
0.769424
0.771797
0.769023
0.790258
0.78278
0.778835
0.775947
0.770271
0.763061
0.756452
0.752326
0.749694
0.748068
0.748265
0.755241
0.753774
0.769599
0.769808
0.790943
0.794517
0.813983
0.816254
0.823929
0.823087
0.831844
0.831293
0.835089
0.835639
0.838319
0.838085
0.837796
0.836087
0.838807
0.788149
0.781538
0.823558
0.806924
0.768471
0.755104
0.748099
0.746678
0.739128
0.739759
0.734509
0.728995
0.732197
0.725374
0.725589
0.7235
0.721704
0.722398
0.721865
0.724746
0.724944
0.7316
0.757268
0.769807
0.771269
0.747571
0.73116
0.732766
0.74133
0.756881
0.856157
0.839866
0.822199
0.804606
0.799307
0.801982
0.805805
0.810667
0.816964
0.81407
0.810196
0.815947
0.812224
0.798795
0.819589
0.858683
0.890023
0.890014
0.893064
0.899009
0.905253
0.911022
0.909446
0.902038
0.885006
0.857622
0.834853
0.836064
0.855124
0.87334
0.859943
0.845355
0.84007
0.839897
0.828243
0.820177
0.813934
0.812471
0.81862
0.824188
0.834745
0.845796
0.853896
0.855499
0.852165
0.862687
0.863557
0.846582
0.828785
0.823252
0.819213
0.818102
0.819006
0.821408
0.82514
0.827393
0.830306
0.831036
0.835381
0.831981
0.823282
0.820451
0.817617
0.820873
0.823229
0.821315
0.823243
0.822427
0.823677
0.825553
0.823997
0.829982
0.83564
0.837429
0.841203
0.84443
0.841913
0.845156
0.84847
0.846601
0.859046
0.852386
0.852189
0.853417
0.849598
0.848466
0.848691
0.848715
0.850726
0.855117
0.856969
0.85105
0.849149
0.85431
0.855607
0.856862
0.854581
0.850321
0.852152
0.850329
0.8416
0.841125
0.842712
0.844395
0.847732
0.846028
0.845076
0.847564
0.846665
0.845617
0.833092
0.826676
0.842418
0.841377
0.8442
0.845365
0.845302
0.846804
0.846732
0.844922
0.840682
0.840584
0.838907
0.833135
0.832428
0.830912
0.831811
0.831592
0.830762
0.847358
0.841712
0.858551
0.862532
0.865753
0.867761
0.868072
0.869887
0.871582
0.874215
0.865956
0.860623
0.856769
0.855536
0.850814
0.858694
0.860736
0.857878
0.855368
0.85457
0.854011
0.851609
0.849661
0.851568
0.850626
0.846889
0.844752
0.845101
0.835135
0.830235
0.818234
0.804646
0.799891
0.790532
0.783665
0.780773
0.78397
0.789683
0.797509
0.807494
0.816694
0.827175
0.833987
0.837923
0.84056
0.842568
0.863161
0.870471
0.859148
0.843874
0.830513
0.826275
0.836008
0.848685
0.846264
0.848798
0.860905
0.861465
0.856641
0.85115
0.843836
0.835323
0.82087
0.816074
0.810964
0.810346
0.807952
0.81655
0.820124
0.831011
0.840634
0.850718
0.855756
0.862871
0.872669
0.892344
0.893386
0.836448
0.816907
0.821264
0.820276
0.822597
0.825875
0.823726
0.820323
0.811036
0.802311
0.793107
0.781485
0.77758
0.76539
0.767611
0.766483
0.766163
0.765572
0.776225
0.783365
0.786669
0.800373
0.805411
0.810465
0.814487
0.819745
0.828002
0.832685
0.823776
0.815603
0.818637
0.815374
0.820407
0.81886
0.823695
0.824693
0.826403
0.827947
0.827127
0.82853
0.826537
0.823943
0.826835
0.822576
0.822176
0.821718
0.826382
0.82851
0.831916
0.832979
0.839554
0.841256
0.843021
0.845417
0.844295
0.841686
0.837344
0.831611
0.82564
0.824644
0.823139
0.820382
0.818361
0.819407
0.819629
0.808793
0.806714
0.799269
0.808444
0.813738
0.81556
0.811149
0.817371
0.801747
0.812843
0.796035
0.804203