/*--------------------------------*- C++ -*----------------------------------*\
| =========                 |                                                 |
| \\      /  F ield         | OpenFOAM: The Open Source CFD Toolbox           |
|  \\    /   O peration     | Version:  2.1.1                                 |
|   \\  /    A nd           | Web:      www.OpenFOAM.org                      |
|    \\/     M anipulation  |                                                 |
\*---------------------------------------------------------------------------*/
FoamFile
{
    version     2.0;
    format      ascii;
    class       volScalarField;
    location    "0.007450000";
    object      Xi;
}
// * * * * * * * * * * * * * * * * * * * * * * * * * * * * * * * * * * * * * //

dimensions      [0 0 0 0 0 0 0];

internalField   nonuniform List<scalar> 
12384
(
7.61456
9.4425
10.5469
11.5571
12.4733
13.1525
13.5388
13.5752
13.3066
12.7563
11.9447
10.7772
9.16003
6.73346
18.9727
20.0781
21.3792
22.6039
23.0053
22.6545
22.1224
22.0307
22.2327
22.7553
23.1524
23.6533
24.5316
26.0465
28.6111
31.2346
33.9333
36.3586
38.2337
39.3886
39.4316
38.5705
37.7409
37.0337
35.9852
34.8618
33.4639
30.3048
23.8829
18.246
24.9819
27.7756
29.4113
30.4192
31.2023
31.8319
32.7385
33.4876
34.5098
34.7546
35.2807
36.0053
37.4197
40.1533
43.6771
47.1998
50.6175
53.4471
55.7253
56.1689
56.3383
53.7467
52.3851
49.8017
47.137
44.132
40.4408
35.1558
26.4924
20.3793
25.4002
28.1586
32.3035
36.3141
39.1734
41.552
43.7597
45.5361
47.3909
47.2879
46.1229
44.7193
43.5922
43.1577
43.6537
45.6331
48.9878
52.5641
56.552
60.536
62.1977
64.3595
64.0749
62.8682
61.5013
58.9963
55.4091
49.0643
38.0212
29.6126
29.8747
34.9661
37.6934
38.9392
39.9229
41.3367
44.2143
48.6796
53.6017
58.7227
63.3578
67.1595
70.1325
71.9278
71.3713
68.9308
67.2805
64.8219
62.1483
58.612
54.2522
48.1033
37.9673
26.4071
24.0739
23.8627
24.0097
23.9522
23.6972
23.147
21.3577
24.2505
26.1568
27.7643
29.4708
31.6197
33.7872
35.7879
38.0708
39.8223
40.4075
40.8371
41.4737
42.7129
45.6947
49.0652
52.7567
56.4048
59.4573
61.1117
61.9872
60.9867
59.7
58.3391
55.5196
52.1419
47.2546
39.3714
28.8691
24.0847
24.2998
27.7997
32.7739
36.9136
40.1987
42.7273
44.8429
46.3237
48.049
51.7968
56.7958
62.6447
69.1055
75.7642
82.0966
87.1662
90.183
91.4687
89.396
87.8044
84.7403
81.6103
76.624
69.8697
59.2581
45.4529
39.6475
37.0337
36.4844
38.0055
21.4826
23.3951
27.8438
33.1724
39.3397
45.6707
52.0568
58.0582
63.483
68.7262
70.9622
73.898
72.1456
71.0031
68.4693
66.1145
63.0874
59.301
54.8845
49.6344
42.7525
33.7405
28.1783
26.3693
26.1376
26.1289
25.9517
25.2166
24.9263
24.8968
29.169
38.5712
49.0112
57.7023
64.5173
70.7027
76.1216
80.1141
83.9266
84.803
81.9123
77.8997
74.1295
69.5438
64.7822
58.6934
51.1365
42.5543
33.9932
28.7954
26.2988
25.6458
25.7774
25.7482
25.1318
23.9403
22.4247
21.1067
20.3057
19.9142
26.9504
34.2976
44.5189
54.3453
62.861
70.5658
78.1629
85.4801
91.5691
97.3318
101.269
99.5363
92.9266
89.3589
83.9396
75.9606
69.3961
61.3797
50.0184
40.8731
34.9508
30.9556
29.6015
29.6831
29.1923
28.1776
26.8514
25.7437
25.2429
25.3472
40.5869
53.9799
62.9818
70.7623
77.9311
84.2544
88.921
91.6587
92.6558
88.882
81.9986
75.9954
70.2438
63.6187
56.1055
53.955
53.4066
51.4353
51.6255
51.1922
49.6575
50.9256
50.2062
49.2541
47.9203
46.4348
45.0772
43.6648
42.1707
39.1435
31.0836
31.4519
39.1691
47.8932
58.4318
66.6795
71.955
75.9823
78.9243
80.922
80.7027
77.2077
75.0354
67.7218
63.9224
57.7774
54.5428
51.743
52.0834
52.1127
54.2043
54.6015
54.7008
51.989
50.9764
49.4633
48.2697
46.0134
41.9653
38.0333
19.2166
21.8758
20.9931
18.5736
17.0891
22.1256
32.8588
36.3614
41.5328
44.762
48.1318
50.0918
52.9393
54.3242
55.7453
54.4992
52.6751
49.4621
45.8018
41.4051
37.0352
33.8389
31.5665
29.2682
27.1082
24.8043
22.3585
19.4822
16.3336
10.5175
9.80707
7.01864
8.00119
9.22374
10.2073
10.9918
11.5419
11.8767
11.953
11.6662
10.8484
9.55657
8.07002
9.2325
19.1143
15.2111
17.9977
20.9148
22.2029
21.694
20.7865
20.2347
19.8975
19.3175
18.604
18.225
18.7118
20.6893
23.7706
27.4599
31.3551
35.1129
38.5134
41.2119
42.8747
43.6525
43.2966
41.9829
39.9161
36.9534
33.232
28.6825
22.8236
27.4252
28.0474
26.3223
30.4095
33.4195
35.2632
35.8661
35.429
33.5176
30.9794
28.5237
26.6063
26.0111
27.4793
31.2376
36.1896
41.6904
47.2876
52.5519
56.9913
60.4226
62.5757
62.8278
62.2225
59.5469
56.16
51.0246
44.6168
36.722
27.8778
31.0955
31.8665
32.4217
41.5139
48.575
52.8641
54.996
55.2595
53.9865
51.1642
47.1532
42.5416
37.9571
33.9739
31.0981
30.0464
32.0084
36.0287
41.3482
47.0151
52.341
56.6819
60.1173
61.2604
61.5465
59.6477
56.2237
51.0477
44.2879
36.2598
44.3858
26.9076
22.9516
22.0752
21.7324
23.1122
26.9025
32.914
39.9892
47.7101
55.4555
62.8055
70.3258
77.0938
81.5793
84.7275
85.8116
83.9363
80.3946
75.6202
69.0956
60.9005
50.8231
40.8695
31.3949
20.6952
16.2525
16.5751
16.7822
17.3417
24.4804
23.8674
24.9116
30.8838
35.4088
38.2237
39.6881
40.1099
39.8895
38.6314
36.3521
33.7543
31.6006
30.9251
32.8256
37.0304
42.423
48.4505
54.1988
59.6937
64.1603
66.867
68.4122
67.7907
65.2354
62.516
57.773
51.1713
43.0798
32.9114
33.208
31.0079
33.2545
36.3793
36.1433
34.9468
33.448
32.497
32.4741
34.2904
39.508
46.9432
56.0774
66.3016
77.0015
87.5517
97.9529
106.327
111.351
114.807
114.394
111.645
106.223
99.2008
89.746
77.071
62.6438
50.4403
31.4487
23.2603
39.2622
23.4608
14.9203
18.1261
25.3321
33.7531
42.341
50.7297
59.3855
67.3943
75.7923
82.0548
88.2131
91.6149
92.6158
91.8508
88.7299
83.6732
76.8377
68.0977
57.9922
47.6074
37.3537
26.3559
19.9717
19.5073
18.9653
18.2069
16.6707
15.5643
25.304
29.1413
28.0173
37.9242
47.5574
57.0912
66.4349
75.6982
85.8264
94.2019
100.306
105.094
107.194
104.74
100.135
93.1769
83.0525
69.9743
55.1975
40.6006
26.9263
20.4897
20.0166
19.9069
20.1317
19.9553
18.7939
16.9402
15.0684
14.0473
21.0604
26.8771
26.0466
32.2422
39.9043
48.7529
58.6364
69.3041
80.4
93.1192
105.03
113.031
119.974
125.685
122.38
118.026
110.813
99.9148
85.5221
67.6865
47.8515
30.6692
24.9609
24.0682
22.9911
22.5631
21.0421
18.6224
16.43
15.4059
25.4132
35.2151
32.6567
39.2533
52.0186
62.9952
72.6602
81.3535
90.3795
97.043
99.6211
101.144
100.077
93.8842
82.5754
69.0927
52.6913
37.0499
33.4899
35.176
36.4474
36.6544
35.9649
35.2866
34.3244
33.1556
31.6637
30.3797
29.8409
30.3121
38.5591
37.8861
35.3282
45.5844
53.5462
62.7996
69.2472
73.265
75.1968
75.2316
72.7313
70.1686
64.2139
59.7553
52.6361
47.9353
42.1338
40.265
39.8816
43.6272
47.9502
54.0756
59.3733
64.0529
66.788
66.7096
64.7241
60.4379
52.8076
41.8835
43.8591
24.0586
21.3099
20.4403
18.5663
22.0326
31.0216
34.5501
40.0609
47.5364
52.5561
57.0624
59.031
60.7099
60.1328
58.6728
55.5584
51.5666
46.9729
41.7095
36.0955
30.028
24.7225
21.9679
21.6622
22.3159
22.6777
22.1906
20.8191
18.8219
14.0141
11.8295
8.84012
9.89847
10.878
11.4857
11.7986
11.9308
11.9482
12.0067
12.0146
11.7263
10.7694
9.14881
10.5195
19.622
15.7789
18.2659
20.388
20.212
18.5941
17.4119
17.101
17.2576
17.8019
18.9967
20.7193
22.8893
26.1046
29.7113
33.0238
35.829
38.2513
40.1968
41.6683
42.5998
42.8732
42.6136
41.7978
40.4516
38.3547
35.5444
31.7448
26.6142
31.7142
29.3174
27.5431
29.9249
31.136
31.2388
30.215
28.5521
26.7351
25.5451
25.1453
26.0568
28.4949
32.7777
38.2571
44.0754
49.3456
53.7316
57.3238
60.4413
62.4475
63.9009
63.8226
63.0919
60.7104
58.3565
54.2673
49.1538
42.1956
33.7903
37.5571
35.2356
36.3569
43.6256
47.5548
48.8406
48.7073
47.9156
46.2827
44.3413
42.2995
40.2773
38.6534
37.1366
35.8013
36.032
38.8963
43.7952
49.536
54.768
59.6639
63.7671
66.1352
67.4377
66.8925
65.038
61.7548
56.9196
50.5559
42.4723
52.0642
26.0329
20.9145
19.5119
21.1857
25.7607
32.8326
40.9138
49.0936
56.1712
62.239
68.2017
73.5118
77.3101
80.7166
82.6165
83.4141
83.1464
80.7724
77.6265
72.8944
67.0936
59.0214
49.6213
40.344
30.2804
19.4678
15.3517
16.954
18.9222
26.1605
25.1404
26.9006
31.1691
33.4674
34.1371
33.8747
33.589
33.3444
32.8843
32.7916
33.3686
34.8599
37.7445
42.1171
47.0223
51.5199
55.4652
58.6881
61.9422
64.1531
65.5739
65.9151
66.0609
64.138
61.8746
59.341
54.6487
48.188
39.3155
40.6539
33.8091
35.5151
34.4396
32.0323
30.8189
31.2099
33.616
37.3358
42.4741
49.9018
58.4373
66.9515
74.4652
81.7511
88.9057
95.6893
101.111
105.568
108.267
108.751
107.529
104.245
100.07
94.218
85.5839
73.5329
60.5359
46.1083
27.6355
39.8364
25.6887
16.9114
22.2948
32.2364
42.2519
51.2501
59.0849
66.1735
72.2432
78.6753
82.9822
88.9602
90.7872
93.2536
92.5714
90.9252
87.7208
83.1646
76.9798
68.6786
58.6206
48.1545
37.5086
25.9325
17.8082
17.3093
18.6671
17.8137
16.0021
25.9636
36.9456
35.5539
46.6776
57.7984
67.4799
75.5539
83.5007
90.6003
95.4225
101.321
105.296
106.036
105.144
102.222
98.0983
91.5732
81.7343
68.8729
54.6407
40.4598
27.2793
19.2297
19.0301
22.0987
23.5727
22.8788
20.7096
18.0521
15.7883
22.0371
28.5426
29.8205
36.8983
46.8622
58.0185
69.6217
81.2507
93.3993
104.465
112.297
121.563
128.904
130.903
130.244
125.051
118.189
108.48
98.3657
82.6926
63.0763
43.1822
27.8873
21.1544
21.777
24.4739
24.1462
21.4477
18.3299
16.407
26.0566
34.8465
35.7395
52.7202
69.7838
83.8912
95.4368
105.52
112.526
114.746
117.374
118.027
114.638
108.142
100.508
87.3838
69.898
51.5627
36.6316
34.1214
37.3234
38.3754
39.0698
39.1373
38.1353
35.7569
31.6824
27.5669
25.7915
27.8772
38.9331
48.4658
43.7893
52.3312
61.5893
68.6174
72.2797
73.376
72.8981
72.3485
69.7234
68.055
64.5619
62.3145
57.9026
55.4266
50.1847
48.162
46.2758
48.4018
50.2018
52.8114
54.5418
56.561
58.2665
59.1261
58.6627
57.2312
53.1462
44.9024
46.6309
25.1883
21.9442
18.9674
21.4543
30.7182
35.3453
39.9556
46.0162
51.8216
55.3259
58.6929
59.9717
61.9133
61.3547
60.837
58.8115
56.5588
53.6712
50.4076
45.806
39.4088
31.1842
23.5709
18.6858
16.5364
16.2661
16.8624
17.4412
16.9122
11.7932
13.829
10.5911
11.2867
11.8761
12.2263
12.3903
12.3224
11.9455
11.499
11.501
11.7695
11.6622
10.5632
11.6442
20.5076
17.2243
19.0089
20.2306
18.9674
16.561
14.9676
14.3063
14.6503
16.2993
19.2777
23.0132
26.7199
30.7679
34.5684
37.3623
39.1586
39.994
40.2572
40.3828
40.5149
40.4985
40.1846
39.8452
39.4118
38.5876
36.8895
34.2592
30.2516
35.0391
30.164
29.4084
29.6038
28.5931
26.6373
24.1541
22.238
21.7895
22.6472
24.6738
27.7895
31.9676
37.8639
44.6842
50.8162
55.1245
57.8168
59.6696
60.6599
61.6096
61.7578
61.5855
61.1104
59.4585
58.1389
55.5971
52.1348
46.6491
38.9675
42.1888
37.5084
40.1762
44.6922
45.5478
44.0314
41.6503
39.4891
38.3312
38.3477
39.2607
40.5186
41.4058
41.3451
40.9175
41.7882
45.6963
51.486
57.0354
61.7375
65.9561
68.1193
69.8426
70.5442
69.6655
68.2621
65.6886
61.7908
56.2453
48.5719
57.8836
27.1415
21.2956
19.1793
22.5054
30.0099
39.0919
48.2015
56.2694
62.4974
67.1563
70.3378
71.6548
73.3577
75.535
77.0628
77.4293
77.1799
76.5404
75.8001
73.4045
70.2732
64.5447
56.679
47.4282
37.3956
27.1111
17.0651
16.5376
19.6907
27.4382
26.4095
29.2471
31.2428
31.253
29.9314
28.2746
26.8857
26.594
27.6477
30.2529
34.2723
39.2534
44.3082
49.5748
54.1243
56.767
58.1424
59.0115
58.986
59.3955
60.0174
60.0633
60.1088
60.3324
59.0559
58.3151
56.5574
52.1315
44.9063
45.6732
36.1555
38.5518
33.4456
28.9177
27.7101
30.4653
36.5104
42.7053
49.8016
59.2693
68.4948
74.7828
79.3024
82.2835
84.8466
86.7175
89.6192
92.403
95.2297
96.5955
96.6534
97.0615
95.6706
94.2894
89.6374
80.8017
68.1651
54.6324
36.2749
40.4478
27.1674
18.678
27.1776
38.9015
49.2248
57.6777
63.9017
69.0706
72.6899
76.1582
79.356
82
84.4239
85.7278
86.9277
86.8392
86.2539
84.4076
81.0397
75.4793
67.1715
57.027
46.386
35.2401
23.435
17.5212
19.4494
18.9266
16.519
26.0736
45.5627
42.2844
54.2307
65.6657
74.491
80.8655
85.8707
88.88
91.5906
95.7349
96.7682
98.264
99.1177
98.2748
97.1462
94.1459
88.4394
78.6402
65.7611
51.9131
38.2553
26.4827
22.1347
25.2167
27.0831
26.5106
24.0598
21.152
18.629
23.3109
32.6184
32.7998
41.1811
52.8654
66.5002
80.6046
93.5514
103.82
109.313
117.577
125.251
127.979
128.629
128.199
125.074
120.899
114.637
106.145
93.7973
76.2906
56.2914
37.6202
24.7226
23.3093
26.9752
26.8111
23.5167
20.0028
17.8195
26.8649
45.1058
49.3415
68.9735
87.7687
103.347
115.599
123.35
125.759
128.833
131.25
128.094
122.987
120.29
113.28
101.057
85.6098
64.9882
44.4054
36.7598
39.0783
42.684
45.0353
46.3374
45.7887
43.16
38.0287
31.2822
26.3772
27.7496
39.9853
56.9683
48.495
57.7554
65.7524
69.3872
69.809
68.4234
66.6142
64.6676
63.0978
61.623
60.5854
60.6278
59.5029
59.303
56.8127
55.0533
53.041
53.3872
53.9808
53.1849
50.357
47.3836
46.7021
48.9348
51.4513
53.4721
53.2825
48.4809
48.5347
25.4489
21.8909
20.64
27.6957
34.2041
38.5437
44.3789
49.4439
53.6358
55.4412
57.9732
58.4632
59.975
59.8883
59.6393
59.2925
58.1389
56.72
54.6722
51.8659
46.9032
39.0225
29.283
21.19
15.5667
12.6026
12.9639
14.546
14.4701
8.464
15.0903
11.7692
12.2121
12.9013
13.5002
13.7991
13.6503
13.0167
11.9526
11.1981
11.4742
12.1747
11.901
12.6557
21.5023
18.8832
19.9401
20.3629
18.4642
15.3715
13.1761
12.1728
12.8256
15.3971
19.5844
25.019
29.9884
34.6787
38.4115
40.7432
41.3229
40.5143
38.9607
37.3465
36.1875
36.0437
36.3738
36.8054
37.3478
37.7226
37.5495
36.2189
33.5113
37.6703
30.6217
31.4953
29.8127
26.6313
22.5765
18.8644
17.4577
18.9857
22.2908
26.2166
30.5769
35.7324
42.7762
50.222
55.6623
58.3187
59.2817
59.0121
58.2429
57.0872
56.6878
55.8664
56.1652
55.8966
56.1502
55.4452
53.9053
50.0452
43.6141
45.6161
38.7645
43.7434
46.1074
44.1424
39.457
34.7154
31.1572
30.351
33.1114
37.7467
42.0349
44.5767
45.0729
45.1164
46.9192
52.209
58.4333
63.8629
66.8228
69.396
69.1778
70.2073
69.555
69.6019
68.842
67.6997
65.0105
60.7577
54.6382
62.0947
29.4243
22.5402
19.7116
24.8458
34.547
44.5969
54.0347
61.822
67.0961
69.1736
68.3313
67.2024
66.2538
64.9213
64.5014
65.444
67.3433
68.6413
70.547
71.0454
70.6095
67.5125
61.3565
52.693
42.2794
31.8468
21.4987
16.5297
19.6324
28.0602
26.9476
31.8373
31.7543
29.5971
26.5817
23.6952
21.3389
20.8265
23.5863
29.1641
35.9189
42.8998
49.1387
54.4331
57.6419
58.5659
57.2727
55.5442
53.6379
52.0214
51.3732
51.774
52.0124
53.6989
55.1308
55.8678
56.8063
55.426
49.9945
48.9169
38.389
42.1457
33.4419
26.5719
24.9228
29.7802
39.3632
47.5241
55.5148
66.4175
75.6622
80.3256
81.7322
80.1563
78.1225
75.9529
74.7377
75.1356
76.1812
79.4614
82.0916
86.3406
87.976
91.3771
90.0729
85.4251
74.0512
60.052
42.8928
41.8035
27.7747
20.4712
31.9712
44.109
54.2393
61.709
66.9281
69.6923
70.6711
71.7447
71.5819
72.9802
74.0711
75.9374
77.0678
78.9046
80.4222
81.4696
81.0695
78.2293
72.4642
63.6321
53.0497
41.9915
30.1904
20.8464
20.2898
19.514
16.9432
26.6264
52.4583
47.6449
59.8072
70.7495
78.1223
82.6985
84.8987
83.812
84.3358
84.5566
85.4804
87.0959
88.4807
90.7095
91.6013
92.4241
90.286
84.2476
73.3189
59.8516
46.14
33.8037
27.0835
28.2382
29.6308
28.5846
25.8041
23.2456
21.4339
24.6648
39.1129
35.1248
44.1474
58.086
74.9302
91.2935
101.985
107.963
113.34
116.33
113.743
112.823
114.525
115.967
119.49
117.705
116.935
111.021
101.326
87.0645
66.3105
46.6048
31.4334
26.1452
28.6554
27.7881
23.8517
20.3813
18.8998
27.6591
64.2441
63.1825
84.2891
103.622
117.555
126.488
128.509
130.056
131.202
127.487
123.513
124.611
124.326
120.27
112.453
96.7144
75.1448
52.8585
41.0871
43.2043
48.6052
52.3571
54.546
54.6327
52.5068
47.5607
39.172
29.8931
28.2842
40.5313
62.2786
52.281
60.9962
66.6177
67.0357
64.565
61.3625
58.0145
55.5402
53.8806
54.1103
54.2396
56.8154
58.0384
60.2331
59.793
59.6828
57.6715
57.5376
56.6797
54.4586
47.3772
38.8063
33.5771
37.7456
44.6254
50.6701
53.8592
51.8991
49.7441
25.3922
21.4407
24.5102
30.4475
35.7263
40.9879
46.9389
50.8323
53.3414
53.8003
54.6593
54.35
54.8771
54.8522
55.9094
56.7552
57.8389
57.7982
56.5442
54.1521
50.5231
44.4146
34.4314
24.4194
16.8615
11.5381
10.2408
11.5617
12.0825
6.03411
15.2546
12.5922
13.5069
14.5953
14.9958
14.8226
14.2969
13.6495
12.6519
11.4091
11.3862
12.5711
13.0544
13.4259
22.4192
20.4102
20.8638
20.7172
18.5211
14.9741
12.1459
10.9092
11.978
15.3295
20.1098
26.6554
32.507
37.6213
41.2681
43.0608
42.4072
39.602
35.6409
31.993
29.8637
29.3994
30.5823
32.5762
34.7206
36.5895
37.7199
37.8819
36.4834
39.5224
30.0285
33.1894
30.3996
25.7129
19.9293
15.2274
14.7232
18.4879
23.4276
28.0829
32.8744
38.8631
46.7655
54.0838
58.1806
59.5366
58.575
55.925
52.8178
50.4095
48.4341
48.0197
49.0771
50.6233
53.0875
54.5757
54.87
52.7662
47.6621
47.8664
39.0241
47.1272
47.6305
42.9804
36.2561
29.5045
23.8106
23.5909
29.8346
37.4894
43.4065
46.6756
47.6137
48.25
51.2178
57.7794
64.8951
68.6074
70.4982
69.0792
65.6349
64.3401
64.184
64.751
66.2554
67.6085
66.8826
64.943
59.8178
64.9327
31.9757
24.0925
20.9562
27.8889
38.5927
48.8516
58.6029
65.9162
69.1614
68.2221
64.8392
60.7615
55.7714
52.096
50.5984
51.3477
54.8087
58.8912
63.634
66.7645
69.2836
68.2626
63.9326
55.8143
45.3627
34.3984
23.9069
17.2755
19.4797
28.8194
27.6929
33.9566
32.6172
29.4084
25.0051
20.9663
18.0954
17.8766
21.87
29.5495
38.1237
45.2768
51.6342
56.8735
58.5723
57.4041
54.6528
50.3932
46.5321
43.308
41.1941
41.3704
43.1191
46.0451
50.2377
53.564
56.3162
57.8314
54.7569
50.4356
40.1725
45.3524
34.3553
25.2425
22.7032
29.0629
41.3042
50.4574
59.7424
71.844
80.6208
84.4878
82.4426
77.9619
72.6185
64.8099
59.2688
56.5138
56.76
61.3386
66.9555
74.286
80.1666
86.6566
89.7562
87.4298
78.5649
63.7222
47.1136
42.8411
29.2209
22.7544
35.6729
47.708
57.6379
64.9379
68.8917
70.071
68.2004
66.1241
63.338
61.3086
61.1939
62.2721
65.4945
68.8796
72.4147
75.779
78.1409
78.0974
74.9853
67.7424
57.7225
46.8048
34.8991
24.4612
21.2805
19.6554
17.3113
26.9101
57.3343
51.2603
63.093
73.5297
80.0346
83.1015
82.0593
77.8816
75.0336
70.2072
67.6264
69.1617
73.8319
79.6463
83.8899
87.8919
88.9883
85.7606
77.1697
64.4619
50.9475
37.7987
29.8724
29.776
30.4299
28.5532
25.3889
23.9952
23.9229
25.3686
46.9361
36.086
45.7959
63.5007
83.0038
97.9961
106.166
112.499
109.005
103.273
99.2418
98.5117
99.8691
103.563
107.821
113.243
115.886
112.526
107.446
94.3056
72.9329
52.6632
35.9598
28.2094
28.8214
26.7717
22.3281
19.6084
19.7161
28.3026
76.4983
77.2281
98.56
114.824
124.393
127.573
126.13
120.579
111.902
106.084
108.267
113.954
119.675
123.411
120.357
104.637
83.8826
59.4588
47.9504
50.0656
53.6522
58.2609
61.4075
62.4377
60.989
56.7777
49.4083
38.0971
30.3181
41.298
64.7102
54.831
62.7588
66.1176
63.9807
59.3774
54.0419
49.3779
45.9732
44.6618
45.9163
48.5693
52.4374
56.0757
59.2734
60.7497
60.9047
60.088
59.3964
58.0444
55.2472
47.4474
36.114
27.376
31.6564
40.7338
49.3009
54.3876
54.0876
50.0931
25.3123
20.6213
26.887
31.6077
36.6892
42.4792
48.1981
50.7462
51.8725
50.6974
49.5947
47.4336
46.5309
47.0074
48.5828
51.6436
54.5698
57.036
57.237
54.9562
51.1411
46.1164
37.2689
26.4822
17.8218
11.4894
9.02782
9.63906
10.2503
4.61234
14.7827
13.4799
14.921
15.4414
14.7126
13.5863
12.8708
12.3867
11.992
11.3993
11.5898
13.1716
14.0974
13.9254
23.1787
21.6144
21.7209
21.1394
19.0419
15.3141
12.0327
10.5028
12.0079
15.8306
20.8432
27.7041
34.1804
39.4531
43.2552
44.2935
42.3388
37.3203
31.3597
26.0353
22.3898
21.8579
24.614
28.4857
32.2039
35.4865
38.0681
39.3952
38.9605
40.0336
29.8401
34.2972
30.9876
25.8076
20.0902
15.7168
15.9849
20.0723
24.8978
29.3708
34.1176
41.0428
49.216
55.6472
58.7488
58.7938
55.8732
51.5499
46.9262
42.0206
38.6229
37.9689
41.2254
45.2505
49.9773
53.6887
55.6647
55.0266
50.9168
48.398
37.8616
48.9313
48.2837
43.2534
35.3198
26.6583
19.8415
21.3111
29.9332
38.5794
44.6279
47.4464
48.6847
50.18
54.1727
62.8499
69.6643
72.0626
71.5553
64.5105
59.1781
54.4512
52.8646
56.4463
62.0041
66.5859
68.8623
68.3519
63.9806
65.3498
34.1747
25.8902
22.5971
30.9662
41.8463
52.1708
61.8432
68.487
69.9629
67.027
61.5743
54.6325
47.2134
40.7855
36.2508
36.5028
42.4005
49.2655
57.1871
62.7189
67.0471
68.0176
64.7146
57.2247
46.6248
35.1128
24.226
17.3875
19.2704
29.6075
27.4169
35.1967
32.9466
29.3245
24.8981
20.5995
17.7139
17.8794
22.1832
29.8745
38.2642
45.878
52.0026
56.7183
57.9708
55.665
50.7763
45.6253
39.303
33.6626
29.9644
30.133
34.3537
39.6976
45.8367
51.8453
56.3363
59.4945
58.3724
49.9876
40.4419
48.3133
35.7138
24.2051
20.6579
28.6166
42.388
51.1838
61.1021
75.4756
84.6988
86.5922
83.3517
78.4963
68.2493
56.6523
46.9804
38.3463
37.5302
45.4851
55.1486
64.9347
73.8222
82.5617
88.4896
88.9009
80.7801
65.8192
49.0504
43.8466
31.5291
25.371
38.1393
49.965
60.406
67.3021
71.2424
70.2053
67.2297
61.7313
55.7187
50.1656
45.974
47.0463
52.1861
58.7303
64.7934
69.3663
74.036
76.7691
75.279
69.6869
60.6998
49.3165
36.9544
25.9341
21.405
19.4259
17.9743
28.9723
60.5185
52.7636
64.7017
74.7964
81.2548
82.727
79.3637
73.2376
65.2304
55.3048
49.3946
51.688
58.7616
67.5083
75.0042
82.3153
85.879
84.0348
77.636
66.3451
52.3543
38.8328
30.1076
29.4268
29.1714
25.9382
23.2771
25.0857
26.4588
25.5257
53.3587
35.37
47.7539
68.5888
88.2927
103.111
109.347
110.552
102.663
96.6877
84.6293
74.0524
72.4251
80.6213
95.426
106.188
110.735
113.398
113.213
97.6223
76.9098
55.9794
37.8279
28.5697
27.4418
24.6929
21.4265
20.665
21.7806
30.0187
82.7902
88.9306
108.254
119.832
123.714
122.261
112.36
99.7058
85.9412
81.5792
88.8675
102.007
115.634
123.409
122.628
111.924
89.8867
65.5139
57.4719
55.442
56.3845
59.0637
60.4822
63.8898
65.9054
63.351
57.293
47.9884
37.786
44.8697
64.6648
56.7587
63.8367
66.3324
62.6551
56.0151
48.9151
41.5705
36.5498
35.1882
38.4698
43.1133
49.4029
54.1039
58.6019
60.2861
60.6577
59.4235
59.5656
57.1307
55.1621
48.5435
39.3535
32.469
33.9075
40.5614
48.445
53.8043
54.6784
49.7731
25.701
18.9337
27.5131
32.3178
36.9867
43.3361
48.5182
50.3524
50.025
47.3483
43.6204
39.3611
36.0861
36.359
40.1809
45.3955
50.4473
54.7212
56.6516
55.5367
50.7439
45.288
38.7783
27.9575
19.2076
12.2761
9.36337
9.35597
9.9984
4.51544
14.4776
14.5966
15.6129
14.3749
12.4746
10.9782
9.98165
9.61053
10.0479
10.8096
11.8398
13.8966
14.8265
14.0491
24.23
22.5025
22.3526
21.7116
19.6952
16.2444
12.8149
11.2038
12.8375
16.6535
21.2913
28.1704
34.813
40.2848
44.15
44.8648
41.3344
34.9014
27.6589
20.9993
15.6275
14.7327
19.6502
25.5203
30.7548
35.2023
38.7008
41.0837
41.0773
39.4449
29.7254
34.2828
31.0016
26.5489
22.291
19.7516
19.946
22.385
25.974
29.6749
34.3684
41.739
49.5597
55.7003
58.1812
56.7837
53.1158
47.2989
40.7313
33.5677
27.1917
27.4108
33.9836
41.2956
47.7107
53.6407
56.6179
57.0094
52.99
47.2112
36.0764
49.4578
48.975
43.8969
35.7251
27.6746
22.4696
24.5732
31.669
39.2411
44.8789
47.1166
48.3564
50.3591
56.21
66.3143
72.8391
74.6394
69.749
59.6644
50.8039
41.3798
39.7652
48.517
58.8231
67.068
71.1802
71.1394
66.8326
63.7135
36.1075
28.1309
24.6532
33.8502
44.5975
54.5749
63.9807
70.0441
70.3694
66.2266
59.6189
51.8337
42.7777
33.1538
24.2117
23.5691
33.2399
42.6321
52.6148
59.8262
65.3811
67.4764
64.6822
57.4539
46.3762
34.2343
23.1624
17.035
20.0035
30.5778
28.0878
35.8841
33.1193
29.6231
25.7249
22.2943
20.0587
19.9961
23.4728
30.2315
37.6822
44.3988
51.3104
55.1712
56.1118
53.8777
48.4218
41.551
34.5061
26.7916
20.1323
20.7865
28.2075
36.297
43.863
51.0831
56.8746
60.6638
60.5598
47.3656
40.958
50.8789
37.3788
23.9188
18.939
27.7762
42.0328
50.6872
60.9812
76.1355
85.3786
88.1426
86.2938
79.5287
67.8374
56.301
42.9438
29.0276
25.3624
36.3268
48.2006
59.9189
71.3121
80.3191
88.2723
89.0905
81.1989
65.4068
49.0647
45.4523
34.9246
28.083
39.5609
51.4733
61.9448
69.441
72.9642
71.9932
67.4804
61.1492
52.0277
42.5773
32.156
29.9258
39.4806
49.8614
57.4527
64.4032
70.8817
74.4516
74.1566
70.4502
61.7217
50.0769
37.1628
25.7573
21.2132
20.1838
21.2746
33.9771
60.1773
52.3611
64.6861
75.1753
81.5042
82.4454
78.591
71.4808
59.7593
45.9483
33.8171
37.1607
47.7128
58.5652
68.6601
77.8508
81.996
81.3309
76.1174
65.0102
50.5858
36.3247
27.7803
27.6263
26.4133
23.3245
23.8603
27.5829
28.2225
27.0548
56.1854
34.2693
49.6833
72.5126
90.8059
105.687
109.164
110.099
101.698
89.2771
68.1775
50.73
51.9938
67.2191
88.2825
98.0479
109.207
116.8
112.38
97.9512
78.8422
55.9592
37.449
27.3748
26.024
24.9435
24.7831
25.3252
26.6324
36.2086
86.282
96.1058
112.098
119.11
119.586
112.23
98.5776
79.5821
59.7193
58.6054
75.5358
94.5619
113.096
125.337
125.683
115.56
93.4114
73.1098
65.3884
59.7228
57.4735
55.1504
56.1766
58.3794
59.2179
60.0002
58.5379
53.877
44.7089
52.0509
62.9511
58.0457
63.8685
67.2807
63.9409
56.6614
47.8218
37.8494
28.8129
27.3317
33.0868
40.4366
47.8201
53.4588
58.3251
60.3004
60.0989
57.3989
57.3071
54.7483
53.0836
49.2242
43.1345
38.6128
38.2946
41.6134
46.9679
51.3458
54.028
49.8124
27.8115
17.7039
25.8799
33.8605
37.2017
43.4411
48.7223
50.2459
48.8227
45.1088
39.1907
32.6314
25.299
25.5147
32.329
40.1347
47.0347
52.264
55.5823
55.564
50.8134
43.405
38.3833
28.959
21.0798
14.2521
11.0568
11.24
12.3114
8.06481
14.1748
15.0524
14.7167
12.4804
10.9184
9.56262
8.23281
7.58221
8.55634
10.5453
12.5125
14.751
15.333
14.1004
18.3808
23.3515
23.8134
23.0533
22.5908
22.0476
20.2986
17.3204
14.1772
12.6319
14.1653
17.2982
21.2853
27.8212
34.4121
40.0622
44.084
44.6196
40.3192
33.0882
25.9003
19.1412
13.117
12.2351
18.4792
25.0465
30.839
35.8877
39.9556
42.594
42.2296
38.4239
33.5642
30.8312
30.4269
32.721
29.8891
26.3687
23.7649
22.6675
22.6803
23.958
26.2247
29.0725
33.4633
40.8242
48.2539
54.6468
56.989
55.0655
50.7467
44.8795
37.2831
28.9693
20.194
21.7882
31.1316
40.2525
47.7808
54.614
57.9521
58.1351
54.0597
47.2423
38.5657
36.6156
39.6931
48.8065
48.2189
43.6045
37.2099
30.9089
27.529
29.0342
33.7049
39.4135
43.5108
45.2222
46.7726
49.2207
57.0292
68.3551
75.2495
75.3347
68.0088
57.1282
45.3767
32.6771
32.2423
47.4762
60.9874
70.1525
74.1268
73.1166
67.0809
57.4005
39.0471
42.1101
41.3367
33.9429
30.8857
37.603
47.1956
56.3729
65.2798
70.5902
70.921
66.6685
60.3555
53.2178
44.5818
35.8076
27.1954
25.6448
33.5941
42.6266
52.3193
59.6377
64.7305
66.9896
64.0678
56.6875
45.4573
33.6219
23.2888
19.9335
22.8951
24.697
30.3822
30.977
30.1791
33.9642
31.1859
28.5678
25.8505
23.5493
22.1182
22.1155
24.2444
29.0768
35.2179
41.7687
48.5457
53.7442
54.4559
52.3285
47.9217
41.4889
34.6726
27.9353
22.3705
24.1865
30.8003
38.1546
45.0784
51.7532
57.3298
60.9342
60.3468
47.3366
39.6834
41.6731
53.7589
52.1686
38.7891
24.7603
18.5836
26.7866
39.7218
48.7276
59.0579
73.834
84.9103
89.6942
87.9456
81.7216
72.6983
62.8145
50.6866
40.4118
36.213
42.0662
50.6807
61.5396
71.797
81.3207
88.15
88.8493
79.1702
63.0243
49.214
44.409
40.5277
37.2033
26.4012
29.8169
39.9175
51.5617
62.4952
70.1659
74.2575
73.7406
69.8595
63.3731
55.0663
45.852
34.7885
28.5498
36.0261
46.1957
53.838
62.4109
68.7278
72.443
73.1886
69.6968
61.0238
48.8161
35.1306
24.7895
23.2941
24.7734
26.7589
31.259
45.2588
50.6582
40.4358
52.0026
64.2183
74.435
80.7619
81.9908
79.3957
73.2831
62.7413
51.1704
40.4953
39.473
47.1726
57.0371
66.7758
74.9185
79.1027
78.5404
72.9831
61.4163
46.0091
30.7864
24.6744
25.636
24.7143
25.2239
28.9606
31.9224
33.9477
38.3772
49.4042
47.9381
33.1103
36.0869
52.2976
73.4486
91.961
105.289
110.085
111.664
101.256
90.7415
70.8593
54.0457
50.412
65.6437
83.4929
93.597
113.021
114.376
108.999
98.0778
76.6075
53.5636
35.7036
27.1436
27.539
29.0526
30.5716
30.9335
30.7919
32.0791
47.0107
53.7019
68.2162
91.9196
107.368
113.64
113.016
103.632
89.7958
67.9858
47.9599
53.9808
75.4744
96.5019
114.889
127.345
127.717
117.024
95.7242
79.0206
70.6587
62.7304
54.8595
49.3538
48.2297
48.2477
51.0019
53.1182
53.9516
51.1245
45.7735
42.0722
51.681
51.791
58.3403
65.3867
68.624
70.8224
68.6614
61.6476
52.6567
41.798
31.5676
28.4577
34.7855
41.8726
49.535
54.5147
59.59
60.9115
60.4791
55.4156
53.4205
50.9459
49.6808
47.8972
44.9149
41.8455
40.3286
41.127
43.658
46.6489
49.5896
47.4291
47.4752
38.5005
26.7171
20.6027
20.4731
34.0211
39.8846
43.948
48.6845
51.2103
49.0569
45.8498
38.7627
31.6461
22.5583
21.6302
30.068
38.6435
45.3938
51.0568
54.3885
55.0603
50.7624
42.2442
36.5083
29.8353
22.432
17.6938
14.9592
16.0182
18.2645
15.4826
8.13246
4.29623
14.0878
14.8819
13.308
11.5118
10.5086
9.26883
7.78595
7.19487
8.60585
10.9989
13.3436
15.1982
14.9048
13.3146
11.5874
14.7082
22.1337
22.113
21.9438
21.7451
20.5961
18.3542
15.7782
14.4386
15.4061
17.5271
20.7308
26.7324
32.9338
38.9329
43.2413
43.9813
39.5221
33.1037
26.6334
21.4089
17.5385
17.6068
21.7101
27.1954
32.5718
37.4327
41.5488
43.7503
41.8625
35.2887
19.734
19.0643
29.042
29.3667
26.9513
24.6237
23.3164
22.9865
23.4961
24.5092
25.848
27.514
31.5137
38.4948
46.4181
53.2761
55.5044
54.0205
50.2628
45.2067
39.3251
32.8651
27.7957
29.483
35.6922
43.3078
50.0286
56.3749
58.976
58.8073
53.5461
43.8215
21.749
21.7228
40.2782
45.391
45.511
42.5571
37.8183
33.3381
31.3961
32.0302
34.7957
38.7504
41.3686
42.3843
43.711
46.8436
56.5455
69.2269
75.9163
75.3456
68.8126
59.2549
49.1271
41.4508
45.1993
57.3837
68.3577
75.052
76.5385
73.4876
64.419
50.0212
33.8367
44.8949
50.3073
36.6044
33.1312
39.4489
48.4205
56.6964
65.123
70.7665
71.7174
68.7083
63.6481
58.2252
52.1145
45.7683
40.9927
40.1233
43.9125
49.3137
56.837
61.8379
65.7936
66.7273
63.1938
55.5071
45.1777
34.7236
25.5173
23.2024
25.2001
25.796
24.5613
25.4581
32.0853
30.0711
27.8847
26.4499
25.3426
24.3816
23.6874
23.6042
24.9101
27.7636
32.032
38.6526
46.2904
51.3986
53.8567
52.238
49.4838
45.5505
40.877
36.7504
34.5556
35.8909
39.0355
43.6089
48.512
53.252
57.3222
59.0385
56.561
46.7607
27.1868
32.3707
56.6978
53.3098
39.5413
25.3344
18.8783
26.0431
36.6385
44.6311
54.4113
69.9224
82.4612
88.9471
89.5268
86.9032
79.997
73.1207
64.0618
57.326
54.3593
55.8116
60.36
68.6079
75.9733
83.7939
87.9755
85.2706
74.6012
58.5042
47.1449
41.3149
26.8514
24.5428
24.5572
28.0559
37.6957
49.4179
60.637
69.6169
74.1958
75.7763
72.6741
68.3895
61.656
54.9967
48.8161
44.8081
45.8639
50.4176
56.3145
63.7994
67.924
71.3265
71.722
67.8117
58.9612
46.3791
32.625
24.7972
23.9983
25.2971
26.2076
25.9811
24.8603
28.382
38.7351
49.9576
61.6203
71.8674
78.8551
82.029
80.6952
77.0657
70.2456
62.243
55.4242
53.5772
56.6737
63.09
69.6056
75.0469
77.6734
75.6446
69.1698
56.8757
40.2184
26.4137
24.6276
25.1897
26.3919
29.0934
32.3392
34.747
36.0233
34.7043
29.2263
27.6294
27.8191
34.7717
50.5341
71.8023
89.2345
103.537
109.305
112.142
106.088
98.8978
85.3167
73.3682
69.8359
78.317
86.9096
100.884
113.392
108.459
107.794
93.8044
71.4404
51.0487
34.6721
28.4917
29.1434
30.5838
30.6933
28.7887
26.7906
26.8167