/*--------------------------------*- C++ -*----------------------------------*\
| =========                 |                                                 |
| \\      /  F ield         | OpenFOAM: The Open Source CFD Toolbox           |
|  \\    /   O peration     | Version:  2.1.1                                 |
|   \\  /    A nd           | Web:      www.OpenFOAM.org                      |
|    \\/     M anipulation  |                                                 |
\*---------------------------------------------------------------------------*/
FoamFile
{
    version     2.0;
    format      ascii;
    class       volScalarField;
    location    "0.006050000";
    object      fH;
}
// * * * * * * * * * * * * * * * * * * * * * * * * * * * * * * * * * * * * * //

dimensions      [0 0 0 0 0 0 0];

internalField   nonuniform List<scalar> 
12384
(
0.0286273
0.0281907
0.0279474
0.0280284
0.0282246
0.0284277
0.0286163
0.028702
0.0287388
0.028723
0.0286613
0.0286538
0.0296192
0.0309785
0.0234707
0.0246783
0.0251037
0.0251643
0.025173
0.0251704
0.0251263
0.0250028
0.0248489
0.0247007
0.0245988
0.0245446
0.0244964
0.0244713
0.024457
0.0244373
0.0244858
0.024463
0.0245229
0.0245165
0.0245411
0.0245589
0.0245808
0.0246188
0.0246776
0.0247798
0.024836
0.0242217
0.0232111
0.0229154
0.0273052
0.0262659
0.0266454
0.0271357
0.0274469
0.0276943
0.0279764
0.0281943
0.0283887
0.0285316
0.0286589
0.0287749
0.0288768
0.0289454
0.0289791
0.0289811
0.0289686
0.028877
0.0288508
0.0286908
0.0286003
0.0284895
0.0283007
0.0283353
0.0281063
0.0280247
0.0277759
0.027634
0.0279769
0.0288
0.0304864
0.0300341
0.0300009
0.0301101
0.0301815
0.0302478
0.0302945
0.030316
0.0303291
0.0303306
0.030321
0.0303171
0.0302991
0.0303167
0.0302649
0.0302792
0.0302277
0.0301868
0.0301447
0.0302086
0.0302059
0.0301832
0.0301815
0.030163
0.0298086
0.0292845
0.0296995
0.0300889
0.0302624
0.0302707
0.0331881
0.0334739
0.0336447
0.0336896
0.0336886
0.033699
0.0337424
0.033686
0.0336626
0.0335027
0.0334625
0.0334325
0.0332876
0.0331216
0.0329377
0.0326998
0.0324159
0.0320909
0.0317677
0.03142
0.0305515
0.0293887
0.0294269
0.030003
0.0303349
0.0305122
0.0306025
0.0304899
0.030314
0.0301874
0.0357453
0.0373789
0.0374175
0.0369388
0.036436
0.0359615
0.035532
0.035246
0.0350721
0.0350149
0.0349969
0.0349968
0.0349996
0.0350062
0.0350123
0.0349976
0.0349957
0.0349764
0.0349432
0.0349623
0.0349521
0.0349481
0.0349567
0.0349475
0.0349811
0.0350592
0.0354543
0.0352222
0.0339298
0.0339007
0.0312195
0.0307803
0.0300103
0.0302931
0.0312224
0.0320036
0.0324376
0.0325146
0.0325688
0.032304
0.0323477
0.0320756
0.0321489
0.0319767
0.0320314
0.0319946
0.0319718
0.0319541
0.0319689
0.0319925
0.0320231
0.032074
0.0321462
0.0314638
0.0277096
0.026566
0.0266638
0.0267074
0.0267253
0.0267777
0.0303741
0.0319573
0.0347249
0.0361458
0.0363478
0.0363386
0.0362576
0.0361702
0.0361181
0.0360879
0.0360738
0.0360712
0.0360912
0.0361079
0.0361518
0.0361277
0.0361413
0.0361704
0.0362654
0.0363782
0.0366486
0.0369335
0.0358596
0.0337935
0.0334835
0.0334838
0.0335246
0.0335665
0.0335633
0.033534
0.0323628
0.0335495
0.0340943
0.0342246
0.0341426
0.0339801
0.0338747
0.033756
0.033732
0.0335917
0.0336912
0.0336447
0.0336816
0.033718
0.0337992
0.0339371
0.0340131
0.0341046
0.0341142
0.0345288
0.0392804
0.0433077
0.0433793
0.0421845
0.0412603
0.0406232
0.0406733
0.0413402
0.0424336
0.0432694
0.0309898
0.0335649
0.0349378
0.0355452
0.0356591
0.035581
0.0353983
0.035182
0.0349822
0.0348046
0.0346875
0.0345915
0.0344824
0.0343985
0.0343838
0.0343327
0.0343739
0.0343911
0.0343905
0.0343699
0.0343625
0.034449
0.0358191
0.0368341
0.0370505
0.0371617
0.0372269
0.037254
0.0372794
0.037291
0.0365091
0.0370772
0.037031
0.0369857
0.0369976
0.036955
0.0368609
0.0367398
0.0366314
0.0365318
0.0364085
0.0363884
0.0362955
0.0362686
0.0360351
0.0360809
0.0359136
0.0360681
0.0360593
0.0361566
0.0362748
0.0373791
0.038701
0.0388252
0.0388501
0.0389573
0.0390458
0.0391516
0.039012
0.0387632
0.0343478
0.0338542
0.0340637
0.0351895
0.0375311
0.0391098
0.0381511
0.0366987
0.0356628
0.0349876
0.0346023
0.0344622
0.0344405
0.0344372
0.0344332
0.034426
0.034441
0.0344699
0.0345528
0.0347026
0.0349145
0.0351436
0.0353629
0.0355757
0.035812
0.0360112
0.0364004
0.0371325
0.0384159
0.0355118
0.0292179
0.0295308
0.0273384
0.0235743
0.020127
0.018716
0.0245846
0.0494094
0.0567291
0.0574328
0.0575175
0.0574933
0.057349
0.0571779
0.0569736
0.0567164
0.0563242
0.0558595
0.0551836
0.0545613
0.0539945
0.0538963
0.0549396
0.0567221
0.0577117
0.0578387
0.0575353
0.0566489
0.0524486
0.0316963
0.0259538
0.0262878
0.0273324
0.028364
0.0289832
0.0293881
0.029632
0.0298445
0.0299233
0.0298416
0.0295261
0.0290025
0.0294294
0.0308195
0.0235911
0.0248828
0.0252998
0.0253573
0.0253543
0.0252762
0.0250182
0.0246129
0.0243176
0.0242186
0.0242386
0.0243248
0.0244552
0.0245865
0.0247129
0.0248027
0.0248741
0.0248843
0.0248837
0.0248101
0.0247556
0.0246564
0.0245843
0.0245219
0.0245447
0.0246563
0.0247874
0.024642
0.0239858
0.0231193
0.0272453
0.0263853
0.0270421
0.0276354
0.027993
0.0283559
0.0286869
0.0289067
0.0290785
0.0293097
0.0296256
0.0299268
0.0301879
0.0302982
0.0303265
0.0302913
0.0301992
0.0300716
0.0298984
0.0297303
0.0295144
0.0293157
0.0290559
0.0287647
0.0285068
0.0282238
0.0279309
0.0276758
0.0277812
0.0289062
0.0304604
0.0300181
0.0300861
0.0302837
0.0303806
0.0304061
0.0304029
0.0303821
0.0303549
0.0303231
0.0302663
0.0301829
0.0300954
0.0299961
0.029897
0.0298313
0.0297776
0.0297733
0.0298052
0.0298884
0.02999
0.0300724
0.0301241
0.0301462
0.0300131
0.0295383
0.0295017
0.0304265
0.0308359
0.0307711
0.0340976
0.0338821
0.033353
0.0328199
0.0325189
0.0323764
0.0323903
0.0325564
0.0327575
0.0330823
0.0333568
0.0336485
0.0338228
0.0338419
0.0336759
0.0333899
0.0329871
0.0325041
0.0320474
0.0316296
0.0310216
0.0296892
0.0296887
0.0307808
0.0314229
0.0316197
0.0315649
0.0313675
0.0310807
0.0307885
0.0359657
0.0373542
0.0369905
0.036097
0.0354096
0.0349522
0.0346574
0.0346694
0.0348474
0.0350558
0.0351912
0.0352417
0.0352467
0.0352318
0.0352111
0.0351942
0.0351703
0.035151
0.0351228
0.035049
0.0349734
0.0349511
0.0348502
0.0348835
0.0348452
0.0349095
0.0351713
0.0354567
0.0351835
0.0352081
0.0312087
0.0305976
0.0306569
0.0327065
0.0335808
0.0332432
0.0324889
0.0316653
0.0310208
0.0306566
0.0304291
0.0303887
0.0303262
0.0303971
0.0304121
0.0304677
0.0305717
0.0307034
0.0308692
0.0310766
0.03132
0.031598
0.0318946
0.0318824
0.0299478
0.0270408
0.0260425
0.0259428
0.0261262
0.0262216
0.0334933
0.036682
0.0374546
0.0368704
0.0361678
0.0358309
0.0357475
0.0357814
0.0358928
0.0359895
0.0361364
0.0361698
0.0362222
0.0362533
0.0362702
0.0361974
0.0362008
0.0360894
0.0361144
0.0361669
0.0363767
0.0367469
0.0366428
0.0350785
0.0334635
0.0334716
0.0336955
0.0339618
0.0340328
0.0338481
0.0338215
0.0348666
0.034424
0.033689
0.0330787
0.0326485
0.0323395
0.0321824
0.0320549
0.0319717
0.0319718
0.0320006
0.0320548
0.0322535
0.0325122
0.0328987
0.03331
0.0336651
0.0338994
0.03404
0.0356252
0.040605
0.0421225
0.0387874
0.0374642
0.0373798
0.0376162
0.0377697
0.0382378
0.0397625
0.0309983
0.0341917
0.0356553
0.0358494
0.0355658
0.0350526
0.0344943
0.0339859
0.0335413
0.0331887
0.0329061
0.0327242
0.0325914
0.0325131
0.0324674
0.0325623
0.0327758
0.033064
0.0334028
0.033754
0.0340414
0.0341873
0.0348999
0.0363863
0.0371767
0.0373148
0.0372387
0.0370981
0.0371286
0.0373347
0.0363927
0.037185
0.0371763
0.037278
0.0371864
0.036886
0.0365064
0.0361361
0.0358124
0.0355381
0.0353108
0.0351576
0.0350417
0.034954
0.0349428
0.0349697
0.0350932
0.0352888
0.0354543
0.0357059
0.0360237
0.0365331
0.0376063
0.0388952
0.0397119
0.040217
0.0406335
0.0406867
0.0404289
0.0401013
0.0367855
0.036589
0.036336
0.0373932
0.0386208
0.0381052
0.0361649
0.0346864
0.0340396
0.0339677
0.0342832
0.0348067
0.0353275
0.0356533
0.0357426
0.0355845
0.0352534
0.0348691
0.0345838
0.0346136
0.0350672
0.0355894
0.035935
0.036043
0.0359957
0.0360037
0.0361824
0.03675
0.0381513
0.0362504
0.0440042
0.0441797
0.0420589
0.0341744
0.0233633
0.0220239
0.0385602
0.0544246
0.056938
0.0570072
0.0566035
0.0561955
0.0558116
0.0555436
0.0553322
0.0550847
0.0547522
0.0541361
0.0530572
0.0510996
0.0482878
0.0460622
0.0458784
0.0497296
0.0536603
0.0569744
0.0574285
0.0565057
0.0515794
0.0306295
0.02601
0.0271253
0.028269
0.0287527
0.0287801
0.0287262
0.0288458
0.0291524
0.0295477
0.0299465
0.0300949
0.0296701
0.0295473
0.0305988
0.0237638
0.0251245
0.025547
0.0256158
0.0256216
0.0253704
0.0247105
0.0241889
0.02411
0.0243137
0.0246518
0.0250255
0.0253553
0.0256343
0.0257835
0.025862
0.0258346
0.0257676
0.025656
0.0256531
0.0255662
0.0254165
0.0250852
0.0247748
0.0245521
0.0245346
0.0246695
0.0247447
0.0244404
0.0234603
0.0272052
0.0265706
0.0274254
0.0279362
0.0282186
0.0284978
0.0286738
0.0287615
0.0290245
0.0295711
0.0301855
0.0306237
0.0307725
0.0307712
0.030713
0.0305815
0.0303958
0.0301666
0.0299141
0.0296974
0.0294713
0.0292895
0.0290615
0.0288613
0.0286465
0.0283662
0.0280757
0.0277543
0.0276912
0.0286329
0.0304423
0.0300357
0.0301963
0.0303669
0.0303987
0.0303699
0.0303381
0.0303022
0.0302725
0.0302003
0.0300627
0.0298513
0.0296351
0.0294178
0.029232
0.0291172
0.0290327
0.0290196
0.0290708
0.0292094
0.0294177
0.0296553
0.0298731
0.0300568
0.0300996
0.0298245
0.0295218
0.0299902
0.0308292
0.0308683
0.0339051
0.0324984
0.0314189
0.0307546
0.0303301
0.0301023
0.0300544
0.0301156
0.0302886
0.0306474
0.0310692
0.0317171
0.0324397
0.0330608
0.0334594
0.033555
0.0333721
0.0329496
0.0323989
0.0318708
0.0313632
0.0302842
0.0297328
0.0310108
0.0317401
0.0318186
0.0317204
0.0315946
0.0314958
0.0311889
0.0361815
0.0372146
0.0363518
0.0353301
0.0348313
0.0345943
0.0347855
0.0352995
0.0355724
0.0356219
0.0355448
0.0354262
0.0353247
0.035268
0.0352442
0.0352558
0.0352532
0.0353017
0.03528
0.0352903
0.0352465
0.0351424
0.0350411
0.034912
0.0348043
0.0347896
0.0349144
0.0352688
0.0355859
0.0357191
0.0310687
0.0309078
0.0333204
0.0341062
0.0328637
0.0311371
0.0299767
0.0295992
0.0294277
0.0296962
0.0297714
0.0301049
0.0301987
0.0304541
0.0305513
0.030669
0.0307373
0.0307478
0.0307241
0.0307109
0.0307905
0.0310164
0.0313857
0.0317934
0.0313589
0.0291528
0.02717
0.0265819
0.0265185
0.0262425
0.0364483
0.0377514
0.0364154
0.035674
0.0355593
0.0357266
0.0360121
0.0363163
0.0365991
0.0368322
0.0370006
0.0371585
0.037229
0.0372286
0.0371722
0.0370341
0.0368619
0.036602
0.0364081
0.0362048
0.0362118
0.0364604
0.0367517
0.0362026
0.034304
0.0334118
0.0336514
0.0342314
0.0346197
0.0343708
0.035472
0.0345142
0.0333421
0.0325513
0.0320921
0.0318444
0.0316613
0.0315401
0.031384
0.0312757
0.0311098
0.031048
0.0310047
0.031068
0.0312925
0.0316548
0.0321854
0.0327886
0.0333544
0.0337014
0.0341047
0.0366289
0.0409477
0.0385627
0.0371715
0.0375353
0.0381737
0.0376947
0.0371375
0.037644
0.0313283
0.0350473
0.035941
0.035604
0.0349522
0.0341832
0.0334621
0.0327993
0.0322471
0.0318119
0.0314926
0.0312688
0.0311309
0.0310542
0.0310582
0.0311439
0.0313702
0.0316992
0.03216
0.0327297
0.033334
0.03378
0.0342827
0.0355011
0.0368542
0.037297
0.0370976
0.0366819
0.0365046
0.0370518
0.0364179
0.0371549
0.0374861
0.0374104
0.0368953
0.0362596
0.0356988
0.0351744
0.0347075
0.0342392
0.0338306
0.0334925
0.0333242
0.0333024
0.0332343
0.0334049
0.0336586
0.0340107
0.0344476
0.0349431
0.0354593
0.0359053
0.0365799
0.038034
0.0397719
0.0409916
0.0413162
0.0411131
0.0408281
0.0407279
0.0374349
0.0375818
0.0379644
0.0384796
0.0379311
0.0361554
0.0345148
0.0340424
0.0345628
0.0355949
0.0367607
0.037621
0.0379893
0.0380946
0.038058
0.0378396
0.0373475
0.0365271
0.0355794
0.035029
0.0355724
0.0364531
0.0368309
0.0366829
0.0363388
0.0360059
0.0359696
0.036386
0.0378121
0.0368107
0.0448805
0.0449569
0.0417067
0.0320247
0.0256617
0.0327005
0.0501637
0.0561369
0.0564963
0.0557873
0.0550509
0.0544466
0.0540069
0.0537858
0.0537126
0.0538713
0.0542609
0.0545201
0.0544202
0.0533589
0.0501785
0.0450185
0.0414472
0.0413603
0.045611
0.0522008
0.0545492
0.0531291
0.0467197
0.0280903
0.0263063
0.0272544
0.0273763
0.0270882
0.0270923
0.0272718
0.0275033
0.0277458
0.0281909
0.0289779
0.0298195
0.0300215
0.0297508
0.0304965
0.023937
0.0253872
0.0258608
0.0260343
0.0259586
0.0252052
0.0243026
0.0240326
0.0242634
0.0247346
0.0252124
0.025675
0.0261043
0.0264294
0.0265427
0.02645
0.0262013
0.0259488
0.0258603
0.0258745
0.0260151
0.0260362
0.0257576
0.0253055
0.0248247
0.0245465
0.0245574
0.0247005
0.0246511
0.0237262
0.027196
0.0267448
0.0276789
0.0280284
0.0281706
0.0282631
0.028265
0.0283539
0.0289108
0.0298644
0.030712
0.0309823
0.0308704
0.0305433
0.0301522
0.0297942
0.0294871
0.0292452
0.0290018
0.0288635
0.0287238
0.0286522
0.0286099
0.0285387
0.0284743
0.0283412
0.028136
0.027843
0.0276809
0.0284762
0.0304245
0.0300653
0.0302665
0.0303707
0.0303333
0.0302665
0.0302349
0.030234
0.0302285
0.0301209
0.0298697
0.029539
0.0291998
0.0289293
0.0287381
0.0285941
0.0285274
0.0284898
0.0285194
0.0286325
0.0288469
0.0291419
0.0294971
0.0298505
0.0300665
0.0299657
0.0296552
0.0297244
0.030473
0.0308574
0.0323686
0.0314368
0.0305308
0.0299476
0.0296038
0.0294451
0.0293848
0.0293868
0.0294423
0.0295146
0.0296429
0.0300064
0.0305621
0.0314207
0.0323486
0.033061
0.0333343
0.033159
0.0326827
0.0320953
0.0315758
0.0308219
0.0298723
0.0306587
0.0316222
0.0316572
0.0314327
0.0315193
0.03189
0.0317109
0.0363192
0.0369434
0.0357185
0.0349009
0.0346548
0.0348428
0.0355632
0.0359104
0.0358171
0.0355299
0.0352893
0.0351737
0.0351702
0.0352492
0.0353604
0.0354499
0.0355167
0.0355195
0.0355091
0.035481
0.0354394
0.0353709
0.0352994
0.0351097
0.0349193
0.0347747
0.0347703
0.0350479
0.0355665
0.0358844
0.0310722
0.032438
0.0346669
0.0327937
0.0304125
0.0294097
0.0292614
0.0295994
0.0300011
0.0303644
0.0307289
0.0310692
0.0314134
0.0317327
0.0319703
0.0320937
0.032055
0.0318659
0.0315564
0.0312066
0.0309109
0.0307951
0.0309641
0.0314198
0.0316376
0.0307049
0.0288112
0.0278128
0.0275444
0.026531
0.0381904
0.0366376
0.035607
0.0356658
0.0359133
0.036273
0.0366431
0.0369789
0.0372724
0.0375286
0.0377409
0.0379132
0.0380509
0.0380977
0.0380804
0.0379572
0.0377294
0.037349
0.0369625
0.0365382
0.0362788
0.0362674
0.0366183
0.0366384
0.0353999
0.0337798
0.0334612
0.0342516
0.0350853
0.0349842
0.0345354
0.0334646
0.0326269
0.0321952
0.0319689
0.0317846
0.0315396
0.0312314
0.0309583
0.0307007
0.0305364
0.0304083
0.0303741
0.0304157
0.0305268
0.0307493
0.0312075
0.0318405
0.0325725
0.0332167
0.0335438
0.0345491
0.0384773
0.0392534
0.0374228
0.0380013
0.0386945
0.0381592
0.0371158
0.0370587
0.0320219
0.0357034
0.0357537
0.0351761
0.0343346
0.0333919
0.0325368
0.0317814
0.0311688
0.0306777
0.0303205
0.0300748
0.0299257
0.029915
0.0299
0.0300505
0.0302887
0.0306182
0.0310877
0.0317246
0.0324886
0.0332072
0.0337957
0.0347211
0.0361185
0.037132
0.0371815
0.0365585
0.0361935
0.0368325
0.0368413
0.0374493
0.037664
0.0370449
0.0362217
0.0355443
0.0349264
0.0342607
0.0334816
0.0326934
0.031961
0.0313827
0.0310684
0.030905
0.0311949
0.0314125
0.031936
0.0325761
0.0332066
0.0338902
0.0346447
0.0352854
0.0359302
0.0370512
0.0391322
0.0411048
0.0414312
0.0408601
0.0403801
0.040296
0.0378904
0.0383542
0.0385657
0.0380182
0.0364991
0.0347418
0.0341252
0.0348258
0.0362539
0.0375741
0.0383237
0.0386271
0.0387092
0.0387343
0.0387329
0.0386588
0.038373
0.0377699
0.0365732
0.0353806
0.0355736
0.0368666
0.0371721
0.0366948
0.0357909
0.035168
0.0352204
0.0358973
0.037498
0.0371401
0.0426766
0.0433768
0.0364855
0.0310927
0.0334095
0.04528
0.0547155
0.0561245
0.0553154
0.0541582
0.0530933
0.0521538
0.0514207
0.0509525
0.0509169
0.0511898
0.0519321
0.0528984
0.0539703
0.0545254
0.0540794
0.0500754
0.0427985
0.0387203
0.0395331
0.0438493
0.0471788
0.0468393
0.0405451
0.0255258
0.0261392
0.0263498
0.0259322
0.026081
0.0266034
0.0270005
0.0271682
0.0272878
0.0274675
0.0280044
0.0291533
0.0299556
0.029879
0.0304583
0.0240998
0.0256749
0.0262682
0.0265208
0.0261391
0.0248752
0.0240937
0.024016
0.0243635
0.0247825
0.0252452
0.025848
0.0265155
0.0270367
0.0271914
0.0268885
0.0262829
0.0258614
0.0257666
0.0259691
0.0262793
0.0264472
0.0262992
0.0258176
0.0251832
0.0246946
0.0245234
0.0246436
0.0246881
0.0238516
0.0272042
0.0268846
0.027823
0.0280347
0.0280042
0.0279252
0.0278383
0.0279822
0.0287572
0.0299568
0.0308895
0.0309406
0.0304795
0.0297414
0.0290869
0.0286412
0.0283596
0.0281847
0.0281095
0.028018
0.028023
0.0280385
0.0280825
0.0281797
0.0282232
0.0282165
0.0281322
0.0278998
0.0276957
0.0284126
0.0304156
0.0301048
0.0302942
0.0303173
0.0302021
0.0301294
0.0301398
0.0302011
0.0302313
0.0300815
0.0297336
0.029311
0.0289377
0.0286859
0.0285026
0.0283619
0.0282727
0.0282062
0.0282026
0.0282866
0.0284582
0.0287241
0.0291316
0.0295927
0.0299413
0.029986
0.0297509
0.0296564
0.0302276
0.0308039
0.0322582
0.0314633
0.0304726
0.0298179
0.0295165
0.0294381
0.0294426
0.0294617
0.0294649
0.0294365
0.0294442
0.0294808
0.0297132
0.030245
0.0311839
0.0321979
0.0328658
0.0330512
0.0327645
0.0322224
0.0316922
0.0311601
0.0302168
0.0301278
0.0311281
0.0311507
0.0309465
0.0313495
0.0322944
0.0322729
0.0364152
0.0365768
0.0352295
0.0346958
0.0348026
0.0355149
0.036197
0.0360221
0.035561
0.0352573
0.0351829
0.0352958
0.0355096
0.0357371
0.0359221
0.0360484
0.0360924
0.0361587
0.0361324
0.0360311
0.035903
0.0356942
0.0355568
0.0353398
0.035097
0.0348451
0.0347166
0.0349052
0.035461
0.0359398
0.0315162
0.0340326
0.033855
0.030635
0.0293915
0.0295238
0.0300803
0.0305679
0.0309107
0.0311579
0.0315442
0.0319696
0.0324543
0.0328967
0.0332306
0.0333962
0.0333737
0.0331408
0.0327175
0.032127
0.0314946
0.0310112
0.0308246
0.031084
0.0315085
0.0313441
0.0300867
0.0289816
0.0284491
0.0268138
0.038513
0.0358396
0.0358423
0.0360271
0.0362809
0.0366489
0.0370357
0.0373946
0.0376872
0.0379687
0.0381982
0.0384058
0.0385922
0.0387068
0.0387605
0.0386771
0.0384799
0.0380614
0.0375765
0.0369795
0.0365336
0.0362722
0.0364566
0.0367282
0.0361327
0.0346602
0.0337881
0.0344036
0.0354748
0.0355753
0.0337809
0.0330168
0.0324442
0.0321663
0.0319566
0.0316364
0.0311204
0.030566
0.0300552
0.0296794
0.0294061
0.0293544
0.0293597
0.0295063
0.029727
0.0300604
0.0304434
0.0310385
0.031788
0.0326163
0.0331726
0.0337087
0.0363373
0.0390854
0.0385266
0.0384909
0.0387335
0.0379533
0.0370445
0.036843
0.0331918
0.0359503
0.0355802
0.0347767
0.0337371
0.0326638
0.0317391
0.0309525
0.0303097
0.0297854
0.0294251
0.0292015
0.0290837
0.0290249
0.0290789
0.0292214
0.029473
0.0298097
0.0302746
0.0309085
0.031715
0.0325917
0.0333471
0.034148
0.0353276
0.0366063
0.0370936
0.0364689
0.0363222
0.0369007
0.0373085
0.0379249
0.0374529
0.0364305
0.0356417
0.0350507
0.0342866
0.0332559
0.0321015
0.0309518
0.0299304
0.029184
0.028707
0.028736
0.0287893
0.0293741
0.0300391
0.0309555
0.0318296
0.032725
0.0336772
0.034649
0.0354094
0.0364364
0.038315
0.0409117
0.0414238
0.0406221
0.0399163
0.0397581
0.0382137
0.0386185
0.0383028
0.037
0.0352442
0.0342481
0.034666
0.0361434
0.0375937
0.038337
0.0384688
0.0383392
0.0382375
0.0382603
0.0384038
0.0386132
0.0387484
0.038592
0.0377748
0.0360391
0.0354207
0.0371049
0.0373262
0.0363133
0.0346758
0.0336254
0.0339197
0.0351914
0.0372502
0.0373187
0.040007
0.0418536
0.0363966
0.0359221
0.0432958
0.0525118
0.0558407
0.0553353
0.0538496
0.0523308
0.0508539
0.0495068
0.0484045
0.0477939
0.0476523
0.0482208
0.0491876
0.0505181
0.05197
0.053501
0.0546584
0.0542308
0.0486835
0.0400941
0.0379839
0.0402264
0.0419543
0.0408803
0.0346682
0.0234187
0.0256279
0.0251894
0.0251727
0.0260998
0.0270092
0.0272371
0.0270945
0.0269729
0.0270303
0.0273714
0.028484
0.0297802
0.0299376
0.0304607
0.0242369
0.0259403
0.0267152
0.0270036
0.0262418
0.0247447
0.0240109
0.0239419
0.0241401
0.0244051
0.0248885
0.0257327
0.0268037
0.027632
0.0278959
0.0273885
0.0263812
0.025825
0.0257713
0.0261917
0.0266284
0.026645
0.0265415
0.0261527
0.0254745
0.0248508
0.0245301
0.0246147
0.0246931
0.023914
0.0272364
0.0269974
0.0279586
0.0280354
0.0278388
0.0276796
0.0275715
0.0277168
0.0284977
0.0297869
0.0308477
0.0309158
0.0302259
0.0292473
0.0284961
0.028091
0.0279096
0.0278407
0.0278295
0.0278451
0.0278666
0.027905
0.02792
0.0279999
0.0280615
0.0281426
0.028124
0.0279263
0.0277065
0.0284121
0.0304128
0.0301331
0.0302827
0.0302113
0.0300549
0.030007
0.0300705
0.0301696
0.0302292
0.0301119
0.0297106
0.0292667
0.0288821
0.0286479
0.0284204
0.0282415
0.0280934
0.0280169
0.0280206
0.0280755
0.0282324
0.0284682
0.0288514
0.0293525
0.0297915
0.0299573
0.0297894
0.029668
0.0301239
0.0307892
0.0325623
0.0314995
0.030348
0.0296875
0.0294701
0.0294877
0.0295857
0.0296642
0.0296719
0.0296547
0.0295934
0.0295197
0.0295294
0.0298165
0.0304561
0.0313984
0.032236
0.032674
0.0326081
0.0321993
0.0317218
0.031307
0.0305833
0.0299539
0.0304027
0.030432
0.0305187
0.0314273
0.0328293
0.0328977
0.0364401
0.0361501
0.0348939
0.0347121
0.0353492
0.0361703
0.0363434
0.0358491
0.0354677
0.0353448
0.0354334
0.0357087
0.0360027
0.0362192
0.0363373
0.0364136
0.036495
0.0365286
0.0365555
0.0364978
0.0363575
0.0361414
0.0358755
0.0355881
0.0352737
0.0349336
0.0347164
0.0348267
0.0354056
0.0360002
0.0322044
0.0344751
0.0320056
0.029747
0.0297842
0.0306578
0.031258
0.0314257
0.0314715
0.0316491
0.0321204
0.032675
0.0333586
0.0338908
0.0342781
0.0345051
0.0344837
0.0342211
0.0337467
0.0330535
0.0322135
0.0314033
0.030909
0.0309046
0.0313022
0.0314543
0.0307483
0.0298124
0.0290709
0.0270857
0.0378287
0.0358059
0.0362232
0.0362352
0.0364773
0.0369044
0.0373004
0.0376338
0.0379153
0.0382031
0.0384678
0.0387353
0.0389582
0.03914
0.0392706
0.0392457
0.0390714
0.0386543
0.0381106
0.0374174
0.0368161
0.0363874
0.0363769
0.0367079
0.0365449
0.035504
0.0345851
0.0349358
0.0358744
0.0360907
0.0336823
0.032845
0.0323934
0.0321836
0.0318794
0.0313365
0.0305065
0.0297547
0.0290999
0.0286319
0.0284618
0.0283081
0.0283891
0.0285869
0.0289142
0.0293654
0.0298116
0.0303949
0.0311254
0.0320194
0.0328144
0.0333094
0.0349682
0.0381018
0.0388493
0.0388431
0.0384351
0.0373139
0.0366105
0.0366469
0.034434
0.0358173
0.0353151
0.0343569
0.033171
0.0320936
0.0311792
0.0303923
0.0296921
0.0291674
0.0288681
0.0287119
0.0286506
0.0286514
0.0286434
0.0287392
0.0289238
0.0292331
0.0296862
0.0303144
0.0311088
0.0320485
0.0329341
0.0337225
0.034706
0.0359543
0.0366959
0.0363963
0.0368505
0.0373107
0.0375268
0.0380678
0.0369754
0.0359825
0.0353955
0.0347127
0.0336404
0.0322527
0.030789
0.0294016
0.0282458
0.0274701
0.0270665
0.0268591
0.0272205
0.0275422
0.0284001
0.0293546
0.0305125
0.0316207
0.0328208
0.0339545
0.0349544
0.0359459
0.0377797
0.0404695
0.0413835
0.0404269
0.039524
0.039359
0.0383833
0.0386518
0.0377408
0.0360843
0.0346672
0.0344433
0.0355469
0.0371788
0.0381528
0.0382907
0.0379435
0.0376158
0.0374881
0.0375507
0.0377503
0.0380534
0.0384466
0.0387733
0.03861
0.0369361
0.0352161
0.0371134
0.0374511
0.0357823
0.0331466
0.0316437
0.0324031
0.0344035
0.0371316
0.0373823
0.0373185
0.0420539
0.040919
0.0434973
0.050561
0.055263
0.0556124
0.0542296
0.052367
0.0504626
0.0485281
0.0467366
0.0452443
0.0443486
0.0443589
0.0451858
0.0467398
0.0485162
0.0502075
0.0518342
0.0536225
0.0550427
0.0538321
0.0446286
0.0378011
0.038832
0.0395181
0.0369793
0.0302094
0.0214678
0.0249866
0.0243155
0.025086
0.0268377
0.0276441
0.0275003
0.0271257
0.0268335
0.0267781
0.0270468
0.0280972
0.0296219
0.0299498
0.0304643
0.0243368
0.0262725
0.02721
0.0274721
0.0265286
0.0248962
0.0239778
0.0237758
0.023772
0.0238744
0.0243363
0.0253591
0.0268621
0.0280869
0.0285221
0.0278606
0.0265146
0.0257943
0.0258329
0.0262635
0.0266328
0.0266599
0.0265396
0.0262269
0.0255789
0.0249148
0.0245451
0.0246107
0.0246878
0.0238896
0.0272704
0.0271104
0.0281052
0.0281154
0.0278307
0.0276253
0.0275282
0.0276623
0.0282462
0.0294945
0.0308982
0.0311427
0.0303682
0.0293049
0.0284937
0.0280418
0.0278442
0.027798
0.0278325
0.0278948
0.0279421
0.0279895
0.0279785
0.0280402
0.0280696
0.028133
0.0281216
0.0279252
0.0277049
0.0284955
0.030412
0.030151
0.0302433
0.0300917
0.0299648
0.0299752
0.0300484
0.0301351
0.0302273
0.0302051
0.029808
0.0293424
0.0289574
0.0286888
0.0284157
0.0281431
0.0279404
0.0278674
0.0278877
0.0279367
0.0281069
0.0283242
0.0287197
0.0292298
0.0296774
0.029909
0.0297912
0.0297047
0.0301266
0.0308886
0.0327563
0.0313978
0.0302348
0.029624
0.0294609
0.0295629
0.0297222
0.0298317
0.0298576
0.0298366
0.0297599
0.0296648
0.0295987
0.0296641
0.030066
0.0308269
0.031635
0.0321571
0.0322613
0.0320254
0.0316599
0.0313317
0.0308109
0.0299835
0.0299079
0.0299401
0.0304066
0.0319887
0.033648
0.0336222
0.0364052
0.0356833
0.034714
0.0350475
0.0359513
0.0365034
0.0363292
0.0358854
0.0355688
0.0354899
0.0356978
0.0360153
0.0362711
0.0363749
0.0364257
0.0365245
0.036639
0.0367317
0.0367394
0.0367437
0.0366349
0.0364523
0.0361323
0.0358033
0.0354112
0.0350021
0.0347174
0.0348077
0.0354428
0.0360687
0.0328456
0.034073
0.0308662
0.0300857
0.0309533
0.0319101
0.0322841
0.0321683
0.031919
0.0319919
0.0325072
0.0331478
0.0339347
0.0344027
0.0348168
0.0350454
0.0350969
0.0349004
0.0344346
0.0337297
0.0327959
0.0317983
0.0310682
0.0308482
0.0311559
0.0314351
0.0309958
0.030303
0.0294195
0.0276876
0.0370661
0.0363754
0.0363533
0.0362548
0.0365934
0.0370676
0.0374247
0.0377004
0.0379698
0.0382674
0.0385629
0.0389219
0.0392412
0.0395434
0.0397257
0.0397185
0.0395487
0.0390851
0.0385131
0.0377374
0.0370374
0.0365108
0.0363618
0.0366585
0.0367422
0.0360933
0.0353964
0.0355969
0.0362704
0.0363598
0.0335597
0.0327872
0.0324394
0.0322201
0.031793
0.031052
0.0299902
0.0292082
0.0284115
0.0280921
0.027853
0.0277427
0.0277579
0.0279396
0.0282793
0.0287868
0.0293006
0.0299007
0.0306196
0.0315478
0.0324893
0.0330881
0.0342458
0.0368768
0.0381579
0.0386792
0.0376526
0.036493
0.0361291
0.0364536
0.0353077
0.0356747
0.0350808
0.0340029
0.0327903
0.0317647
0.0308582
0.0300211
0.0292991
0.0288232
0.0286191
0.0285595
0.0285598
0.0285531
0.0285481
0.0285629
0.0286709
0.0289048
0.0293256
0.0299269
0.0307033
0.0316474
0.0326057
0.0334192
0.0342714
0.0354112
0.0361506
0.0367169
0.0377164
0.0379072
0.0377415
0.0377507
0.0365604
0.0358358
0.0353112
0.0344735
0.0331532
0.0314693
0.029856
0.0282991
0.0272295
0.0264404
0.0259697
0.0259616
0.0259643
0.0264946
0.0271304
0.0281982
0.0293249
0.0306819
0.0320056
0.0333789
0.0345006
0.0356729
0.0373736
0.040113
0.0413019
0.0402135
0.0392089
0.0390796
0.0384612
0.0386228
0.0372613
0.0355016
0.034527
0.0348338
0.0363008
0.0377166
0.0382404
0.0378965
0.0373149
0.0369219
0.0368284
0.0369777
0.0372764
0.0375742
0.0379478
0.0384616
0.0389113
0.0380596
0.0350345
0.0368281
0.0376262
0.0354312
0.0318995
0.0301324
0.0313147
0.0341607
0.0372136
0.0374619
0.0340366
0.0420291
0.0455055
0.0492052
0.0538
0.0555133
0.0549673
0.0531744
0.0510544
0.0487923
0.0463576
0.0440512
0.0419741
0.0408467
0.0407955
0.0421343
0.0443593
0.0468738
0.0491034
0.0507605
0.0522393
0.0541647
0.0555845
0.0506687
0.0386845
0.0359842
0.03728
0.0335882
0.0259151
0.0199675
0.0243937
0.0238603
0.025625
0.0277047
0.0281612
0.0279226
0.0276335
0.027282
0.0270732
0.027194
0.0282085
0.029661
0.0299685
0.0305062
0.0244592
0.0264691
0.0275799
0.0280028
0.0271463
0.0254401
0.0241344
0.0236606
0.0234964
0.0234555
0.0237537
0.0247897
0.0266125
0.0283225
0.028975
0.0282908
0.0266931
0.0257618
0.0258008
0.0261561
0.0263997
0.0264727
0.0263909
0.0260581
0.0254653
0.0248584
0.0245464
0.0246248
0.0247015
0.0238291
0.0273402
0.0271439
0.0283053
0.0284151
0.0280882
0.0279246
0.0279084
0.0279582
0.0281973
0.0291922
0.0310396
0.0316135
0.030812
0.0297009
0.0287686
0.0281495
0.0278454
0.0277969
0.0278793
0.0280144
0.0281626
0.0282097
0.0282032
0.0281683
0.0281733
0.0281717
0.0281053
0.0278896
0.0277256
0.028698
0.0304248
0.0301587
0.0301931
0.0300264
0.0300008
0.0301066
0.0301388
0.0301317
0.0302208
0.0302965
0.0300221
0.029537
0.0290873
0.0287809
0.0284735
0.0281531
0.0279212
0.0278056
0.0278345
0.0279121
0.0280872
0.028312
0.0287239
0.0292182
0.0296665
0.0298784
0.0297848
0.0297335
0.0303652
0.0314666
0.0327251
0.0312768
0.0301924
0.0296102
0.0294678
0.0296135
0.0298044
0.0299297
0.0299654
0.0299654
0.0298997
0.0297626
0.0296689
0.0296817
0.0299279
0.0304883
0.0311509
0.0316299
0.0318202
0.0317489
0.0315157
0.0312728
0.0308907
0.0300795
0.029726
0.0299212
0.0310775
0.0333256
0.0347398
0.0344157
0.0363402
0.0353922
0.0347075
0.0354107
0.0363112
0.0366407
0.0364394
0.0360841
0.0357908
0.0356716
0.0358487
0.036129
0.0362979
0.0363419
0.0363968
0.0365514
0.036747
0.0368339
0.0368645
0.0368677
0.0367754
0.0366576
0.0362566
0.0359153
0.035423
0.0349879
0.0347257
0.0348653
0.0355959
0.0361872
0.0332558
0.0334545
0.0308396
0.0309994
0.0321777
0.0331619
0.0334448
0.0329894
0.0323378
0.0321708
0.0326471
0.0333566
0.0341681
0.0345817
0.0348934
0.0351465
0.0353471
0.0351686
0.0346684
0.0340303
0.0330849
0.0320143
0.0311833
0.0308707
0.0311124
0.0313962
0.0310778
0.0306459
0.0297765
0.0301722
0.0369363
0.0369009
0.0362551
0.0362504
0.036641
0.037102
0.0374215
0.0376715
0.0379235
0.0381984
0.0385489
0.0390249
0.0395667
0.0400537
0.0402175
0.0401383
0.0399264
0.039308
0.0387408
0.0378537
0.0371502
0.036564
0.0363717
0.0366263
0.0368445
0.0364552
0.0360244
0.0361529
0.0363196
0.0360433
0.0335405
0.0328969
0.0325236
0.0322776
0.0317735
0.030918
0.0297611
0.0289345
0.0281399
0.0277928
0.0275338
0.0274641
0.0274613
0.0275781
0.0279024
0.0283833
0.0289678
0.0295721
0.0303138
0.0312669
0.0322734
0.03298
0.0338855
0.0359102
0.0370885
0.0377209
0.0364922
0.0360248
0.0360233
0.0363211
0.0357858
0.0356075
0.0349449
0.03382
0.0326367
0.0316325
0.0307121
0.0298273
0.0291303
0.028689
0.0285458
0.0285589
0.0285851
0.0285885
0.0285673
0.0285516
0.0285988
0.0287877
0.0291599
0.029732
0.0304844
0.0314129
0.0323954
0.0332242
0.0340058
0.035078
0.0361214
0.0377274
0.0384933
0.0383314
0.0378819
0.0373495
0.036461
0.0358727
0.0353213
0.034394
0.0328946
0.0310568
0.0293491
0.0277004
0.0267117
0.0258798
0.0255598
0.0253841
0.0255396
0.0258026
0.0265466
0.0274226
0.0285661
0.0299004
0.0313275
0.0328281
0.0341771
0.0354331
0.0372665
0.0398315
0.0410338
0.0397459
0.0390412
0.0389373
0.0385072
0.038741
0.0371251
0.0353241
0.0345814
0.0351494
0.0367019
0.0379062
0.0381485
0.0375205
0.0367975