/*--------------------------------*- C++ -*----------------------------------*\
| =========                 |                                                 |
| \\      /  F ield         | OpenFOAM: The Open Source CFD Toolbox           |
|  \\    /   O peration     | Version:  2.1.1                                 |
|   \\  /    A nd           | Web:      www.OpenFOAM.org                      |
|    \\/     M anipulation  |                                                 |
\*---------------------------------------------------------------------------*/
FoamFile
{
    version     2.0;
    format      ascii;
    class       volScalarField;
    location    "0.006050000";
    object      H;
}
// * * * * * * * * * * * * * * * * * * * * * * * * * * * * * * * * * * * * * //

dimensions      [0 0 0 0 0 0 0];

internalField   nonuniform List<scalar> 
12384
(
0.000174792
0.000154198
0.000142992
0.000145192
0.000152187
0.000160329
0.000168736
0.000172694
0.000175394
0.000175227
0.000172974
0.000172455
0.000211999
0.000294913
9.86745e-06
1.65192e-05
2.21346e-05
2.42049e-05
2.57121e-05
2.74469e-05
2.85576e-05
2.88157e-05
2.75981e-05
2.64322e-05
2.53934e-05
2.50348e-05
2.44796e-05
2.4431e-05
2.40205e-05
2.3583e-05
2.45343e-05
2.30392e-05
2.4217e-05
2.27517e-05
2.32627e-05
2.23935e-05
2.25927e-05
2.26442e-05
2.32191e-05
2.4304e-05
2.47461e-05
1.46851e-05
7.96538e-06
6.8667e-06
3.44985e-05
2.63228e-05
3.12089e-05
4.05201e-05
4.63881e-05
5.01019e-05
5.19685e-05
5.48869e-05
5.81585e-05
6.0007e-05
6.1654e-05
6.28476e-05
6.37076e-05
6.42641e-05
6.44426e-05
6.43965e-05
6.4856e-05
6.31888e-05
6.57429e-05
6.17225e-05
6.45506e-05
6.05331e-05
6.26937e-05
6.34575e-05
6.35674e-05
6.34258e-05
6.1215e-05
6.05732e-05
5.95734e-05
7.78508e-05
8.40738e-05
7.20568e-05
6.85553e-05
6.94812e-05
7.07378e-05
7.19972e-05
7.30849e-05
7.40311e-05
7.44725e-05
7.4704e-05
7.45801e-05
7.40642e-05
7.31267e-05
7.19694e-05
7.17556e-05
6.90661e-05
6.84501e-05
6.72476e-05
6.72494e-05
6.92648e-05
6.96865e-05
7.02023e-05
7.1917e-05
7.20733e-05
6.50554e-05
5.26111e-05
5.73517e-05
6.30629e-05
6.58997e-05
6.58759e-05
9.60174e-05
0.000103805
0.000108082
0.000108855
0.000107053
0.000105453
0.000102706
0.000102176
9.77133e-05
9.73323e-05
9.40787e-05
9.37433e-05
9.30072e-05
9.19129e-05
9.1232e-05
9.02129e-05
8.90549e-05
8.83203e-05
9.25731e-05
8.8688e-05
7.64214e-05
5.79366e-05
5.59453e-05
6.28833e-05
6.47248e-05
6.72225e-05
6.59706e-05
6.5247e-05
6.23801e-05
6.10053e-05
7.75469e-05
7.76216e-05
7.35991e-05
7.49125e-05
7.63513e-05
8.05311e-05
8.29607e-05
8.46246e-05
8.50351e-05
8.51448e-05
8.44664e-05
8.39724e-05
8.33631e-05
8.28301e-05
8.28055e-05
8.27783e-05
8.46558e-05
8.28282e-05
8.7946e-05
8.65498e-05
9.15154e-05
9.13916e-05
9.5105e-05
9.68141e-05
9.85587e-05
0.00010202
0.000103775
0.000102518
9.95244e-05
9.93587e-05
6.04304e-05
5.21557e-05
4.13383e-05
4.51504e-05
5.74743e-05
6.30091e-05
6.53358e-05
6.54702e-05
6.43868e-05
6.31811e-05
6.11846e-05
6.05406e-05
5.79536e-05
5.804e-05
5.6816e-05
5.75329e-05
5.69396e-05
5.73388e-05
5.74673e-05
5.85006e-05
5.9384e-05
6.01272e-05
6.04016e-05
5.81743e-05
1.98291e-05
1.12046e-05
1.2036e-05
1.22553e-05
1.23443e-05
1.26597e-05
5.21225e-05
6.61822e-05
7.92718e-05
8.09725e-05
8.42355e-05
8.54471e-05
8.50656e-05
8.42998e-05
8.38403e-05
8.10985e-05
7.93019e-05
7.97768e-05
7.84209e-05
7.8189e-05
7.74173e-05
8.15471e-05
8.13197e-05
8.66962e-05
8.87265e-05
9.0471e-05
9.11706e-05
9.0606e-05
9.13822e-05
9.37901e-05
9.1341e-05
8.86347e-05
8.82794e-05
8.81167e-05
8.7878e-05
8.76921e-05
8.38766e-05
9.58544e-05
0.000101839
0.000103167
0.000101502
9.87826e-05
9.60016e-05
9.32611e-05
8.91008e-05
8.90506e-05
8.51503e-05
8.58064e-05
8.45082e-05
8.7101e-05
8.7158e-05
9.22028e-05
9.40919e-05
9.76965e-05
9.82847e-05
9.55764e-05
7.77329e-05
6.44753e-05
6.35935e-05
6.89214e-05
7.31133e-05
7.35561e-05
7.21974e-05
7.07305e-05
6.63383e-05
6.29119e-05
7.51207e-05
8.42328e-05
8.8134e-05
9.25043e-05
9.52813e-05
9.43405e-05
9.34658e-05
9.02387e-05
8.76627e-05
8.46306e-05
8.2227e-05
8.02461e-05
7.75186e-05
7.64237e-05
7.51422e-05
7.50952e-05
7.64673e-05
7.93165e-05
8.07871e-05
8.27969e-05
8.42233e-05
8.51232e-05
7.94242e-05
7.76887e-05
7.79149e-05
7.90456e-05
8.00797e-05
8.03375e-05
7.95843e-05
7.87027e-05
6.79362e-05
7.17561e-05
7.2886e-05
7.35032e-05
7.39111e-05
7.31046e-05
7.18732e-05
6.99179e-05
6.82666e-05
6.43303e-05
6.49248e-05
6.0789e-05
6.14158e-05
5.97866e-05
6.06833e-05
6.08224e-05
6.67218e-05
6.57561e-05
7.1876e-05
7.2424e-05
7.51919e-05
7.22141e-05
6.94155e-05
6.7268e-05
6.89247e-05
6.78649e-05
6.86937e-05
6.85556e-05
6.91133e-05
6.92434e-05
5.62575e-05
5.53966e-05
5.56695e-05
5.58828e-05
5.64602e-05
5.83656e-05
6.01213e-05
5.88449e-05
5.90953e-05
5.87016e-05
5.90394e-05
5.8592e-05
5.86314e-05
5.85642e-05
5.85304e-05
5.83614e-05
5.81428e-05
5.79773e-05
5.78394e-05
5.72751e-05
5.57455e-05
5.62668e-05
5.51529e-05
5.60746e-05
5.48771e-05
5.56802e-05
5.50241e-05
5.60491e-05
5.65761e-05
5.60446e-05
3.11353e-05
3.38201e-05
1.57474e-05
2.69528e-06
3.94999e-07
1.34731e-07
4.18632e-06
5.53054e-05
4.79706e-05
4.63308e-05
4.50681e-05
4.52393e-05
4.45626e-05
4.49313e-05
4.62319e-05
4.58371e-05
4.70965e-05
4.65622e-05
4.70092e-05
4.90433e-05
5.05605e-05
5.09171e-05
4.87455e-05
4.80287e-05
4.68542e-05
4.67504e-05
4.76664e-05
4.95498e-05
5.53647e-05
5.59633e-05
7.84069e-05
8.83476e-05
0.000119446
0.000151891
0.000176579
0.000186445
0.000194738
0.000206479
0.000215714
0.000219256
0.000207765
0.000188899
0.00020397
0.000283599
1.0478e-05
1.86231e-05
2.32931e-05
2.62873e-05
2.93548e-05
3.0928e-05
3.27726e-05
2.77762e-05
2.41779e-05
2.28199e-05
2.31965e-05
2.42208e-05
2.59258e-05
2.73541e-05
2.92692e-05
2.99951e-05
3.19444e-05
3.1888e-05
3.29483e-05
3.184e-05
3.13825e-05
2.89379e-05
2.67269e-05
2.45617e-05
2.32728e-05
2.36051e-05
2.48253e-05
2.13442e-05
1.21038e-05
7.79996e-06
3.41208e-05
2.81435e-05
3.87741e-05
4.98571e-05
5.36502e-05
5.85988e-05
6.27869e-05
6.44666e-05
6.57776e-05
6.36796e-05
6.48796e-05
6.60695e-05
6.77974e-05
6.82668e-05
6.82837e-05
6.81734e-05
6.75936e-05
6.71621e-05
6.71738e-05
6.65226e-05
6.7486e-05
6.63314e-05
7.11334e-05
6.808e-05
6.82155e-05
6.50963e-05
6.24335e-05
6.28295e-05
5.72877e-05
7.97079e-05
8.32213e-05
7.05091e-05
6.9037e-05
7.21152e-05
7.46664e-05
7.57374e-05
7.66053e-05
7.75259e-05
7.76586e-05
7.77167e-05
7.63526e-05
7.43495e-05
7.14232e-05
6.97506e-05
6.52566e-05
6.40134e-05
6.30599e-05
6.21575e-05
6.17362e-05
6.39303e-05
6.65563e-05
6.77397e-05
6.87177e-05
7.0095e-05
6.84823e-05
5.9236e-05
5.5508e-05
6.81826e-05
7.56361e-05
7.47262e-05
0.000115097
0.000118718
0.000116728
0.000112821
0.000109656
0.000106165
0.000103179
0.000102238
0.000101386
0.000100557
0.00010241
0.0001023
0.00010151
0.000100363
9.79607e-05
9.52027e-05
9.23138e-05
8.96516e-05
8.78714e-05
9.05198e-05
8.32523e-05
6.27476e-05
5.93676e-05
7.16577e-05
7.61424e-05
7.8196e-05
7.57133e-05
7.38555e-05
7.07479e-05
6.74361e-05
7.80107e-05
7.66628e-05
7.37478e-05
7.63742e-05
7.98501e-05
8.33861e-05
8.51557e-05
8.28721e-05
7.99894e-05
7.87975e-05
7.85549e-05
7.84752e-05
7.85771e-05
7.87088e-05
7.88373e-05
7.89438e-05
8.03385e-05
8.06391e-05
8.25152e-05
8.36586e-05
8.65653e-05
8.7678e-05
9.01274e-05
9.15563e-05
9.53325e-05
9.78106e-05
0.000102491
0.000104142
0.000102388
0.00010026
5.95479e-05
4.9549e-05
5.04692e-05
6.85415e-05
7.40573e-05
7.10496e-05
6.54455e-05
6.22287e-05
5.33235e-05
4.8231e-05
4.51323e-05
4.46361e-05
4.3019e-05
4.39621e-05
4.36556e-05
4.41091e-05
4.49872e-05
4.66328e-05
4.83972e-05
5.09809e-05
5.40705e-05
5.73543e-05
5.79163e-05
5.86527e-05
4.10872e-05
1.45373e-05
9.1923e-06
8.77793e-06
9.56791e-06
9.96413e-06
7.3994e-05
8.02703e-05
8.50769e-05
8.72459e-05
8.82074e-05
8.76018e-05
8.65503e-05
8.55849e-05
8.25356e-05
8.11498e-05
8.09088e-05
7.69684e-05
7.71729e-05
7.74854e-05
7.70605e-05
8.04642e-05
8.08782e-05
8.39571e-05
8.67903e-05
8.85803e-05
9.06885e-05
9.17147e-05
9.0922e-05
9.39842e-05
9.10126e-05
8.5963e-05
8.53274e-05
8.6142e-05
8.71095e-05
8.72485e-05
9.86399e-05
0.000105208
0.000104753
9.75796e-05
9.10461e-05
8.61057e-05
8.24971e-05
7.96316e-05
7.66988e-05
7.52138e-05
7.34953e-05
7.36266e-05
7.44869e-05
7.49458e-05
7.86277e-05
8.23669e-05
8.63783e-05
9.1917e-05
9.54312e-05
9.68141e-05
9.16585e-05
7.35406e-05
6.99997e-05
8.19494e-05
8.49772e-05
8.44205e-05
8.29771e-05
8.19065e-05
7.96815e-05
7.4751e-05
7.48395e-05
8.60057e-05
9.12994e-05
9.69655e-05
9.59944e-05
9.28897e-05
8.94963e-05
8.35826e-05
7.8338e-05
7.41367e-05
7.07635e-05
6.77776e-05
6.59014e-05
6.29961e-05
6.25714e-05
6.41399e-05
6.65463e-05
6.92933e-05
7.24137e-05
7.62416e-05
7.98181e-05
8.31413e-05
8.3274e-05
7.86573e-05
7.97931e-05
8.31105e-05
8.31203e-05
8.34404e-05
8.36052e-05
8.1922e-05
6.71005e-05
7.18694e-05
7.456e-05
7.64745e-05
7.54446e-05
7.24431e-05
7.08153e-05
6.79319e-05
6.51706e-05
6.26919e-05
6.13785e-05
5.96272e-05
5.87859e-05
5.81845e-05
5.87631e-05
5.99003e-05
6.13077e-05
6.38658e-05
6.63562e-05
6.93017e-05
7.32141e-05
7.3314e-05
7.29629e-05
6.80836e-05
6.57868e-05
6.56835e-05
6.55714e-05
6.47395e-05
6.54661e-05
6.64732e-05
5.42817e-05
5.44499e-05
5.4686e-05
5.54826e-05
5.78314e-05
5.93063e-05
5.79946e-05
5.91244e-05
5.71831e-05
5.74327e-05
5.9131e-05
5.95907e-05
6.08752e-05
6.14491e-05
6.11525e-05
6.00599e-05
5.86661e-05
5.78179e-05
5.76398e-05
5.70823e-05
5.54688e-05
5.5897e-05
5.7183e-05
5.62927e-05
5.6238e-05
5.66043e-05
5.60185e-05
5.61195e-05
5.7737e-05
5.51779e-05
5.95201e-05
5.88135e-05
6.33319e-05
6.31993e-05
2.34329e-06
9.96877e-07
6.04197e-05
5.10603e-05
4.91134e-05
4.86071e-05
4.95619e-05
5.08772e-05
4.91062e-05
4.96412e-05
5.056e-05
5.09491e-05
5.0599e-05
5.18797e-05
5.33693e-05
5.50418e-05
5.96587e-05
6.42678e-05
6.45716e-05
5.84816e-05
5.30415e-05
4.93148e-05
4.84159e-05
5.01094e-05
5.4228e-05
4.60839e-05
7.97571e-05
0.000111638
0.00014801
0.000159454
0.000150133
0.00013985
0.000141901
0.000149086
0.000174092
0.000207545
0.000231709
0.000214902
0.00020939
0.000269842
1.13619e-05
2.16345e-05
2.80255e-05
3.31169e-05
3.80683e-05
3.67964e-05
2.99467e-05
2.24964e-05
2.10216e-05
2.31662e-05
2.68021e-05
3.04499e-05
3.12981e-05
3.45233e-05
3.71196e-05
3.84618e-05
4.06615e-05
4.17209e-05
4.40822e-05
4.49899e-05
4.6933e-05
4.36195e-05
3.96236e-05
3.2188e-05
2.63778e-05
2.37443e-05
2.42079e-05
2.41149e-05
1.81429e-05
9.894e-06
3.36759e-05
2.90352e-05
4.57684e-05
5.31844e-05
5.75191e-05
6.08987e-05
6.22922e-05
6.18653e-05
6.29574e-05
6.28586e-05
6.66086e-05
7.01765e-05
7.1396e-05
7.11831e-05
7.08154e-05
6.9741e-05
6.87021e-05
6.64886e-05
6.57206e-05
6.37696e-05
6.50525e-05
6.33605e-05
6.86451e-05
6.71651e-05
6.90129e-05
6.63608e-05
6.41989e-05
5.94461e-05
6.2206e-05
7.46955e-05
8.23287e-05
6.97104e-05
7.08389e-05
7.41181e-05
7.60271e-05
7.64749e-05
7.74514e-05
7.79536e-05
7.79237e-05
7.65732e-05
7.35077e-05
6.88727e-05
6.4291e-05
5.94516e-05
5.51111e-05
5.37423e-05
5.35786e-05
5.35189e-05
5.46693e-05
5.2815e-05
5.67775e-05
6.14973e-05
6.41514e-05
6.65248e-05
6.80496e-05
6.38984e-05
5.76941e-05
6.27584e-05
7.64433e-05
7.71156e-05
0.000117734
0.000111644
0.000108203
9.7745e-05
8.9715e-05
8.48894e-05
8.27338e-05
8.28662e-05
8.30766e-05
8.82769e-05
9.19374e-05
9.97559e-05
9.84601e-05
9.88653e-05
9.91254e-05
9.74026e-05
9.46237e-05
9.17361e-05
8.85347e-05
8.6599e-05
8.67784e-05
7.15344e-05
6.02508e-05
7.43418e-05
7.90433e-05
7.9761e-05
7.59057e-05
7.61004e-05
7.50221e-05
7.22302e-05
7.86202e-05
7.60667e-05
7.50663e-05
7.9436e-05
8.26158e-05
8.34889e-05
7.78721e-05
7.64311e-05
7.65636e-05
7.682e-05
7.80192e-05
7.93472e-05
8.04735e-05
8.15746e-05
8.25556e-05
8.28694e-05
8.4446e-05
8.49249e-05
8.70447e-05
8.77169e-05
8.79473e-05
8.90222e-05
8.97725e-05
9.07892e-05
9.21577e-05
9.46994e-05
9.78138e-05
0.000102776
0.000103213
0.000100625
5.70341e-05
5.33304e-05
7.21349e-05
7.73545e-05
6.77746e-05
5.51384e-05
4.16024e-05
3.74066e-05
3.5241e-05
3.85322e-05
3.88241e-05
4.31162e-05
4.30017e-05
4.63906e-05
4.69218e-05
4.81609e-05
4.86845e-05
4.89889e-05
4.84058e-05
4.78354e-05
4.84422e-05
5.07123e-05
5.45581e-05
5.92043e-05
5.52369e-05
3.29526e-05
1.55223e-05
1.12673e-05
1.08414e-05
1.00577e-05
7.95495e-05
8.44499e-05
8.80911e-05
8.88807e-05
8.75057e-05
8.68542e-05
8.50929e-05
8.25002e-05
8.13918e-05
8.09583e-05
7.87859e-05
7.65878e-05
7.74706e-05
7.76902e-05
7.66941e-05
7.8735e-05
8.02311e-05
8.33202e-05
8.40453e-05
8.75832e-05
8.8343e-05
9.09202e-05
9.1385e-05
9.1945e-05
9.40743e-05
8.57274e-05
8.41247e-05
8.65928e-05
8.88534e-05
8.99748e-05
0.000107056
0.000104751
9.34772e-05
8.59292e-05
8.17379e-05
7.89272e-05
7.98858e-05
7.70421e-05
7.3619e-05
7.22228e-05
6.73669e-05
6.70041e-05
6.56385e-05
6.71246e-05
7.02859e-05
7.71608e-05
7.86741e-05
8.4195e-05
8.94256e-05
9.38775e-05
9.55336e-05
8.8248e-05
7.37786e-05
8.34676e-05
8.64809e-05
8.48562e-05
8.17581e-05
8.12567e-05
8.07527e-05
8.03283e-05
7.74406e-05
8.53312e-05
9.87544e-05
9.72097e-05
9.15517e-05
8.5943e-05
7.96428e-05
7.43295e-05
7.02936e-05
7.06873e-05
6.62174e-05
6.10908e-05
5.82726e-05
5.76424e-05
5.72781e-05
5.66417e-05
6.03556e-05
6.47277e-05
6.4903e-05
6.91169e-05
7.35527e-05
7.82734e-05
8.25032e-05
8.08367e-05
7.94513e-05
8.23034e-05
8.36439e-05
8.40239e-05
8.42923e-05
8.34374e-05
6.67032e-05
7.20799e-05
7.72498e-05
7.6592e-05
7.25813e-05
6.99638e-05
6.81112e-05
6.58346e-05
6.5539e-05
6.12699e-05
5.96344e-05
5.7194e-05
5.68196e-05
5.70689e-05
5.70905e-05
5.70098e-05
5.858e-05
6.05287e-05
6.38412e-05
6.54518e-05
6.91172e-05
7.07519e-05
7.37861e-05
7.11466e-05
6.62153e-05
6.42601e-05
6.63773e-05
6.73053e-05
6.66068e-05
6.54771e-05
5.29322e-05
5.47843e-05
5.72014e-05
5.72397e-05
5.88534e-05
5.8778e-05
5.88247e-05
5.81088e-05
6.15018e-05
6.37638e-05
6.74481e-05
7.1384e-05
7.26902e-05
7.24536e-05
7.09796e-05
6.93986e-05
6.53736e-05
6.18173e-05
5.90593e-05
5.6563e-05
5.70694e-05
5.7915e-05
5.86296e-05
5.87147e-05
5.94308e-05
5.96125e-05
5.83567e-05
5.71064e-05
5.73831e-05
5.59489e-05
6.17497e-05
6.05132e-05
6.37152e-05
5.32626e-05
7.05011e-06
5.20076e-05
5.41343e-05
4.89622e-05
5.14769e-05
5.20438e-05
5.29534e-05
5.71998e-05
5.86979e-05
5.9579e-05
5.8172e-05
5.91137e-05
5.62248e-05
5.59462e-05
5.53717e-05
5.45532e-05
5.78618e-05
6.57606e-05
7.17956e-05
7.23359e-05
6.8386e-05
5.7034e-05
5.11999e-05
5.43958e-05
6.15336e-05
2.12687e-05
8.8259e-05
0.00011541
0.000109956
8.86705e-05
8.15525e-05
8.38896e-05
8.97643e-05
9.6607e-05
0.000109734
0.00015251
0.000209067
0.00023348
0.000220375
0.000263583
1.23156e-05
2.32602e-05
3.46173e-05
4.34703e-05
4.79347e-05
3.47928e-05
2.39077e-05
1.93479e-05
2.17308e-05
2.60248e-05
2.73698e-05
3.18856e-05
3.63584e-05
3.88292e-05
3.7701e-05
3.72233e-05
4.14765e-05
4.23472e-05
4.79956e-05
5.29771e-05
6.19027e-05
6.38303e-05
5.68032e-05
4.37541e-05
3.35807e-05
2.61437e-05
2.40474e-05
2.46682e-05
2.17396e-05
1.17123e-05
3.36582e-05
3.20367e-05
5.04072e-05
5.54722e-05
5.7601e-05
5.84159e-05
5.75771e-05
5.66918e-05
6.05912e-05
6.47913e-05
7.2152e-05
7.46546e-05
7.44499e-05
7.17338e-05
6.80224e-05
6.43878e-05
6.1417e-05
5.93719e-05
5.99135e-05
5.92468e-05
5.91912e-05
5.87881e-05
6.17858e-05
6.16033e-05
6.48041e-05
6.46239e-05
6.40317e-05
6.02954e-05
6.23842e-05
7.20536e-05
8.13892e-05
6.99889e-05
7.2064e-05
7.50919e-05
7.57469e-05
7.62036e-05
7.67341e-05
7.75257e-05
7.70433e-05
7.47893e-05
6.9099e-05
6.28183e-05
5.58448e-05
5.3083e-05
5.02135e-05
4.66267e-05
4.5636e-05
4.50718e-05
4.60027e-05
4.8173e-05
5.02297e-05
5.2382e-05
5.82056e-05
6.26805e-05
6.59145e-05
6.5519e-05
6.05362e-05
6.00779e-05
7.1784e-05
7.84403e-05
0.000109303
0.0001077
9.24197e-05
8.29815e-05
7.77332e-05
7.52782e-05
7.45615e-05
7.38376e-05
7.52212e-05
7.4181e-05
7.57073e-05
8.02975e-05
8.64475e-05
9.55618e-05
9.49496e-05
9.57498e-05
9.46723e-05
9.2098e-05
8.86919e-05
8.5755e-05
8.717e-05
7.78977e-05
6.32111e-05
6.98071e-05
7.78618e-05
7.74507e-05
7.45795e-05
7.47386e-05
7.54167e-05
7.86627e-05
7.83066e-05
7.64478e-05
7.72126e-05
8.08347e-05
8.23751e-05
7.74114e-05
7.42294e-05
7.57406e-05
7.70179e-05
7.91236e-05
8.07061e-05
8.21043e-05
8.35645e-05
8.63854e-05
8.84826e-05
9.1239e-05
9.32633e-05
9.4876e-05
9.47749e-05
9.58958e-05
9.56095e-05
9.34784e-05
9.25985e-05
9.25642e-05
9.14221e-05
9.17381e-05
9.59078e-05
0.000100152
0.00010334
0.000100965
5.64806e-05
6.64867e-05
8.18217e-05
6.67747e-05
4.67814e-05
3.51792e-05
3.40491e-05
3.81093e-05
4.28708e-05
4.74056e-05
5.19019e-05
5.57726e-05
5.93239e-05
6.47255e-05
6.17172e-05
6.31366e-05
6.27853e-05
6.16075e-05
6.04717e-05
5.56779e-05
5.05912e-05
4.85627e-05
4.98995e-05
5.45982e-05
5.73983e-05
4.80599e-05
3.06317e-05
1.94005e-05
1.82482e-05
1.09119e-05
7.98869e-05
8.75395e-05
8.93643e-05
8.77834e-05
8.66953e-05
8.48655e-05
8.30578e-05
8.17794e-05
8.18821e-05
8.05727e-05
7.83203e-05
7.91032e-05
7.77257e-05
7.68201e-05
7.92198e-05
7.8108e-05
8.00995e-05
8.26358e-05
8.32799e-05
8.7284e-05
8.67266e-05
8.9672e-05
9.12156e-05
9.05524e-05
9.25158e-05
8.91623e-05
8.51316e-05
8.77841e-05
8.79664e-05
9.15883e-05
0.000103947
9.36146e-05
8.52919e-05
8.12634e-05
7.919e-05
8.18824e-05
7.88163e-05
7.36667e-05
6.98944e-05
6.56437e-05
6.39748e-05
6.07602e-05
6.09717e-05
6.11237e-05
6.24973e-05
6.54333e-05
7.18871e-05
7.79072e-05
8.30715e-05
8.96389e-05
9.33825e-05
9.52141e-05
8.3138e-05
8.02512e-05
8.68274e-05
8.48075e-05
8.09311e-05
8.27372e-05
8.19036e-05
8.04011e-05
7.74539e-05
9.14971e-05
9.88167e-05
9.26398e-05
8.63443e-05
7.88693e-05
7.38104e-05
7.29007e-05
6.49892e-05
5.79565e-05
5.1939e-05
4.82835e-05
4.6551e-05
4.52654e-05
4.43921e-05
4.74401e-05
4.95292e-05
5.30137e-05
5.85899e-05
6.60417e-05
6.7672e-05
7.26388e-05
7.81683e-05
8.31808e-05
8.01367e-05
8.05034e-05
8.1377e-05
8.17295e-05
8.32396e-05
8.28697e-05
6.79994e-05
7.61198e-05
7.78111e-05
7.26899e-05
6.94836e-05
6.78851e-05
6.5855e-05
6.50365e-05
6.12003e-05
5.78243e-05
5.45898e-05
5.24786e-05
5.00076e-05
4.86776e-05
5.09513e-05
5.28565e-05
5.45466e-05
5.70592e-05
5.88115e-05
6.23005e-05
6.65335e-05
6.89084e-05
7.07136e-05
7.26468e-05
6.90182e-05
6.53091e-05
6.63021e-05
6.81474e-05
6.92276e-05
6.77809e-05
5.53491e-05
5.60352e-05
5.73645e-05
5.8409e-05
5.78367e-05
5.89177e-05
5.90069e-05
6.32983e-05
6.81739e-05
7.48241e-05
7.9396e-05
8.07516e-05
8.20902e-05
8.10279e-05
7.9991e-05
7.58322e-05
7.20421e-05
6.66448e-05
6.10462e-05
5.79538e-05
5.70298e-05
5.82257e-05
5.90847e-05
6.08492e-05
6.01011e-05
6.04571e-05
6.06229e-05
5.82575e-05
5.77404e-05
5.62157e-05
6.34337e-05
6.03947e-05
6.33194e-05
4.78778e-05
5.57936e-05
5.8928e-05
5.11524e-05
4.89357e-05
5.28149e-05
5.83956e-05
6.23589e-05
6.57579e-05
6.62595e-05
6.70249e-05
6.88259e-05
6.68336e-05
6.47819e-05
6.44461e-05
5.98021e-05
5.77349e-05
5.47993e-05
5.87402e-05
6.86669e-05
7.35301e-05
7.56114e-05
7.01823e-05
6.43635e-05
6.32846e-05
6.77631e-05
7.14988e-06
8.343e-05
8.42674e-05
6.25639e-05
5.91518e-05
6.5196e-05
7.84576e-05
8.4469e-05
8.70472e-05
9.16416e-05
0.000109744
0.000172544
0.000231179
0.000227937
0.00026142
1.23079e-05
2.82441e-05
4.34565e-05
5.27051e-05
5.34934e-05
3.24265e-05
2.01185e-05
1.8468e-05
2.1377e-05
2.46954e-05
2.55847e-05
3.16195e-05
3.55038e-05
4.1955e-05
4.47199e-05
4.11944e-05
4.09082e-05
4.16649e-05
5.03626e-05
6.04497e-05
7.50422e-05
8.02234e-05
7.69741e-05
6.02886e-05
4.32006e-05
3.03914e-05
2.48943e-05
2.47025e-05
2.3043e-05
1.28501e-05
3.41894e-05
3.41956e-05
4.93261e-05
5.53968e-05
5.52512e-05
5.45685e-05
5.23156e-05
5.15772e-05
5.8636e-05
6.62694e-05
7.54683e-05
7.66588e-05
7.28087e-05
6.55915e-05
5.83933e-05
5.61094e-05
5.32881e-05
5.11065e-05
5.09043e-05
4.88367e-05
5.09793e-05
5.07447e-05
5.43055e-05
5.61341e-05
6.02707e-05
6.14957e-05
6.29921e-05
6.04994e-05
6.23276e-05
7.08808e-05
8.06039e-05
7.04793e-05
7.31971e-05
7.47852e-05
7.47047e-05
7.48525e-05
7.59666e-05
7.67961e-05
7.65179e-05
7.28676e-05
6.59447e-05
5.72892e-05
5.36575e-05
4.87899e-05
4.6038e-05
4.3968e-05
4.20413e-05
4.04121e-05
4.03827e-05
4.26406e-05
4.54423e-05
4.82524e-05
5.18292e-05
5.86743e-05
6.32145e-05
6.52404e-05
6.21669e-05
6.02891e-05
6.96072e-05
7.86505e-05
0.000107461
0.000105187
8.86312e-05
7.89263e-05
7.53209e-05
7.51212e-05
7.57219e-05
7.68065e-05
7.6784e-05
7.76592e-05
7.69358e-05
7.60288e-05
7.78001e-05
8.25092e-05
9.1705e-05
9.26518e-05
9.2204e-05
9.09404e-05
8.80525e-05
8.4935e-05
8.68892e-05
8.15371e-05
6.80278e-05
6.3537e-05
7.27356e-05
7.21897e-05
6.90985e-05
7.31994e-05
7.71808e-05
7.81542e-05
7.92134e-05
7.73584e-05
7.85047e-05
8.19934e-05
7.74685e-05
7.40512e-05
7.48731e-05
7.67555e-05
7.84834e-05
7.96706e-05
8.20952e-05
8.54058e-05
8.90602e-05
9.43719e-05
0.000100347
0.000103619
0.000107584
0.00010807
0.00011057
0.000107334
0.000106659
0.000103824
9.89653e-05
9.60038e-05
9.24931e-05
9.24807e-05
9.56211e-05
9.80689e-05
0.000102514
0.000101111
6.21932e-05
7.72833e-05
7.42319e-05
4.93197e-05
3.51203e-05
3.66464e-05
4.37734e-05
4.99023e-05
5.52528e-05
5.81502e-05
6.2531e-05
6.448e-05
6.66068e-05
6.9192e-05
7.08009e-05
7.2911e-05
7.21628e-05
7.11943e-05
6.7722e-05
6.35876e-05
5.958e-05
5.18091e-05
4.86098e-05
5.08925e-05
5.54861e-05
5.44337e-05
4.14251e-05
3.25471e-05
2.66023e-05
1.29609e-05
8.19259e-05
8.9387e-05
8.88451e-05
8.71208e-05
8.47113e-05
8.32354e-05
8.29006e-05
8.2388e-05
8.23226e-05
7.99452e-05
7.95687e-05
7.72027e-05
7.53589e-05
7.47837e-05
7.47883e-05
7.80544e-05
7.81077e-05
8.18655e-05
8.30832e-05
8.60773e-05
8.6885e-05
8.90024e-05
9.0336e-05
9.10456e-05
9.14437e-05
9.33036e-05
8.78719e-05
8.92707e-05
8.86982e-05
9.23308e-05
9.62745e-05
8.80849e-05
8.23434e-05
7.93919e-05
7.83503e-05
8.03383e-05
7.42347e-05
6.67402e-05
5.95033e-05
5.54064e-05
5.04288e-05
4.98675e-05
4.91387e-05
5.04673e-05
5.38143e-05
5.81843e-05
6.28174e-05
7.12515e-05
8.28659e-05
8.51639e-05
9.02364e-05
9.35581e-05
8.95213e-05
8.04241e-05
8.35899e-05
8.31852e-05
8.16484e-05
8.74561e-05
8.7917e-05
8.20656e-05
8.00212e-05
0.000101693
9.56014e-05
8.7351e-05
8.09287e-05
7.4395e-05
7.26096e-05
6.16582e-05
5.40929e-05
4.58476e-05
4.09458e-05
3.81594e-05
3.67789e-05
3.72872e-05
3.86611e-05
3.75783e-05
4.0982e-05
4.49584e-05
4.96373e-05
5.6786e-05
6.55597e-05
6.79164e-05
7.38989e-05
7.96395e-05
7.94258e-05
7.88044e-05
7.87129e-05
8.0059e-05
8.35235e-05
8.3888e-05
7.06126e-05
7.75195e-05
7.39729e-05
6.91397e-05
6.69987e-05
6.57291e-05
6.56667e-05
6.12518e-05
5.76785e-05
4.96952e-05
4.0079e-05
3.38468e-05
2.98698e-05
3.02749e-05
3.10521e-05
3.54877e-05
4.11998e-05
4.88455e-05
5.81773e-05
5.7563e-05
6.15298e-05
6.75447e-05
6.95507e-05
7.11943e-05
7.16612e-05
6.44902e-05
6.57456e-05
6.84089e-05
7.02817e-05
6.84063e-05
5.64349e-05
5.75694e-05
5.84733e-05
5.80283e-05
5.92442e-05
5.95075e-05
6.42733e-05
6.96475e-05
7.79123e-05
8.42317e-05
8.79441e-05
8.98924e-05
9.0877e-05
8.93747e-05
8.71088e-05
8.23732e-05
7.80407e-05
7.15989e-05
6.58604e-05
5.93138e-05
5.63956e-05
5.88364e-05
5.93419e-05
6.09984e-05
6.17423e-05
5.97725e-05
5.99318e-05
5.9984e-05
5.81373e-05
5.618e-05
6.52457e-05
6.48564e-05
6.38972e-05
6.13851e-05
6.19095e-05
5.40995e-05
4.99024e-05
5.34067e-05
6.04259e-05
6.69115e-05
7.04852e-05
7.70949e-05
8.18602e-05
8.32404e-05
8.33831e-05
8.28027e-05
7.70646e-05
7.35729e-05
6.3855e-05
6.30875e-05
5.74106e-05
5.53053e-05
6.01377e-05
7.03069e-05
7.53938e-05
7.49009e-05
7.03103e-05
6.82739e-05
6.59424e-05
2.79548e-06
6.80771e-05
5.3278e-05
4.45662e-05
5.88366e-05
8.37055e-05
9.86278e-05
9.78264e-05
9.29194e-05
8.97027e-05
0.000100586
0.000151754
0.000225712
0.000232477
0.000261857
1.33989e-05
3.27428e-05
5.03032e-05
6.68527e-05
5.66944e-05
3.02372e-05
1.87783e-05
1.91681e-05
1.87039e-05
2.05232e-05
2.41145e-05
2.99546e-05
3.93098e-05
4.94628e-05
4.96032e-05
4.7271e-05
4.08023e-05
4.35125e-05
5.38379e-05
7.18496e-05
8.30808e-05
8.61945e-05
8.25718e-05
7.24757e-05
4.9256e-05
3.44448e-05
2.58386e-05
2.49586e-05
2.35733e-05
1.33676e-05
3.43316e-05
3.55317e-05
5.22772e-05
5.62184e-05
5.40662e-05
5.46593e-05
5.23551e-05
5.0896e-05
5.5296e-05
6.51929e-05
7.64355e-05
7.82115e-05
7.20861e-05
6.1599e-05
5.50132e-05
4.9778e-05
4.76158e-05
4.7256e-05
4.68911e-05
4.78553e-05
4.83329e-05
4.9063e-05
5.12284e-05
5.27253e-05
5.75503e-05
5.97476e-05
6.21455e-05
6.10085e-05
6.19074e-05
7.01883e-05
8.07033e-05
7.0891e-05
7.34825e-05
7.43329e-05
7.30138e-05
7.33536e-05
7.51322e-05
7.61126e-05
7.62332e-05
7.26272e-05
6.42029e-05
5.62751e-05
5.17434e-05
4.82281e-05
4.41379e-05
4.26368e-05
4.00654e-05
3.99248e-05
3.83733e-05
3.83713e-05
4.13218e-05
4.40025e-05
5.01713e-05
5.49632e-05
6.14004e-05
6.40973e-05
6.31133e-05
6.1066e-05
6.86076e-05
7.88909e-05
0.000107979
0.000101045
8.29802e-05
7.44538e-05
7.31684e-05
7.47191e-05
7.84431e-05
8.163e-05
8.26883e-05
8.11877e-05
7.99693e-05
7.932e-05
7.79719e-05
7.95071e-05
8.46934e-05
9.31311e-05
9.04748e-05
8.91707e-05
8.69286e-05
8.36915e-05
8.63702e-05
8.20244e-05
7.27892e-05
6.1574e-05
6.57526e-05
6.38745e-05
6.45673e-05
7.46625e-05
7.928e-05
8.11557e-05
7.98054e-05
7.82453e-05
8.03438e-05
8.11481e-05
7.50303e-05
7.42485e-05
7.62535e-05
7.7879e-05
7.91964e-05
8.16724e-05
8.56883e-05
9.1696e-05
9.87443e-05
0.00010541
0.000110921
0.000116171
0.000119346
0.000122241
0.000122508
0.000122408
0.000117174
0.000114185
0.000106983
0.000100076
9.63148e-05
9.24067e-05
9.48084e-05
9.75877e-05
0.000102119
0.000100295
6.42772e-05
7.99303e-05
6.14176e-05
3.90625e-05
3.91478e-05
4.97441e-05
5.81592e-05
6.10244e-05
6.21827e-05
6.44527e-05
6.52156e-05
6.92579e-05
7.24703e-05
7.7994e-05
8.06041e-05
8.15626e-05
8.17383e-05
7.99886e-05
7.64572e-05
7.05394e-05
6.34318e-05
5.78404e-05
5.0071e-05
4.89992e-05
5.32046e-05
5.52043e-05
4.83585e-05
3.90327e-05
3.35655e-05
1.49042e-05
8.59967e-05
9.04625e-05
8.75671e-05
8.51554e-05
8.31997e-05
8.29004e-05
8.33998e-05
8.26102e-05
8.18725e-05
7.95389e-05
7.83177e-05
7.50644e-05
7.45861e-05
7.42228e-05
7.33321e-05
7.37694e-05
7.64498e-05
8.08306e-05
8.18395e-05
8.54955e-05
8.82029e-05
8.84077e-05
8.96908e-05
9.08601e-05
9.06987e-05
9.10374e-05
9.22783e-05
8.96304e-05
9.00073e-05
9.48532e-05
9.32424e-05
8.51433e-05
8.00729e-05
7.81924e-05
7.82408e-05
7.66895e-05
6.65023e-05
5.65051e-05
4.84356e-05
4.28304e-05
3.99715e-05
3.73632e-05
3.95104e-05
4.14836e-05
4.67432e-05
4.98618e-05
5.60918e-05
6.35771e-05
7.44512e-05
8.17578e-05
8.77535e-05
9.21423e-05
9.18935e-05
8.45074e-05
8.17121e-05
8.18353e-05
8.39839e-05
9.54788e-05
9.63763e-05
8.48372e-05
8.46291e-05
0.000102441
9.03922e-05
8.46993e-05
7.60251e-05
7.01463e-05
6.51694e-05
5.38412e-05
4.48875e-05
3.73863e-05
3.64519e-05
3.33329e-05
3.19903e-05
3.22519e-05
3.11427e-05
3.35678e-05
3.59615e-05
3.83074e-05
4.299e-05
4.9999e-05
5.82588e-05
6.43907e-05
7.03081e-05
7.60948e-05
8.18967e-05
7.93704e-05
7.88274e-05
7.88543e-05
8.34278e-05
8.36434e-05
7.32954e-05
7.80665e-05
7.10761e-05
6.72545e-05
6.57536e-05
6.70973e-05
6.19814e-05
5.80815e-05
4.84588e-05
3.55694e-05
2.487e-05
1.83783e-05
1.51697e-05
1.37468e-05
1.62376e-05
1.86355e-05
2.64876e-05
3.52734e-05
4.50992e-05
5.66319e-05
5.76709e-05
6.36221e-05
6.74853e-05
7.00988e-05
7.0385e-05
6.58914e-05
6.59825e-05
6.83757e-05
7.10812e-05
6.92253e-05
5.6492e-05
5.87531e-05
5.88107e-05
5.85316e-05
6.03519e-05
6.22665e-05
6.86478e-05
7.77848e-05
8.64964e-05
9.26344e-05
9.51013e-05
9.83103e-05
9.93544e-05
9.75467e-05
9.43565e-05
8.94237e-05
8.12486e-05
7.62032e-05
6.99707e-05
6.08337e-05
5.65653e-05
5.86258e-05
5.88753e-05
6.1167e-05
5.76952e-05
5.60555e-05
5.66189e-05
6.0123e-05
5.82259e-05
5.79335e-05
6.59207e-05
6.54833e-05
6.43457e-05
6.11913e-05
5.54007e-05
5.1948e-05
5.28074e-05
5.91806e-05
6.80213e-05
7.32219e-05
8.31617e-05
8.78712e-05
9.50049e-05
9.68728e-05
9.78742e-05
9.65288e-05
8.79697e-05
8.25036e-05
7.32671e-05
6.57881e-05
6.12681e-05
5.66888e-05
5.37965e-05
6.49082e-05
7.10153e-05
7.46806e-05
7.19197e-05
6.88152e-05
4.24829e-05
1.0533e-06
5.55149e-05
3.45914e-05
4.19656e-05
7.9106e-05
0.000117605
0.000122457
0.000113172
0.000101942
9.70024e-05
0.000103896
0.000146912
0.00022262
0.00023615
0.000263283
1.42003e-05
3.79386e-05
6.29366e-05
8.03638e-05
5.93589e-05
3.20118e-05
1.77253e-05
1.73098e-05
1.70985e-05
1.75971e-05
1.95075e-05
2.552e-05
4.01714e-05
5.28847e-05
5.97148e-05
4.93765e-05
3.87254e-05
4.46128e-05
5.70804e-05
7.40063e-05
8.22886e-05
8.62023e-05
8.30012e-05
7.53243e-05
5.30227e-05
3.60175e-05
2.66302e-05
2.51982e-05
2.37717e-05
1.30926e-05
3.50358e-05
3.66868e-05
5.33281e-05
5.70339e-05
5.33349e-05
5.34651e-05
5.11566e-05
5.01372e-05
5.16896e-05
6.23893e-05
7.75624e-05
8.16943e-05
7.50649e-05
6.34952e-05
5.62521e-05
4.99744e-05
4.7012e-05
4.65035e-05
4.72962e-05
4.79259e-05
4.90944e-05
5.01668e-05
5.04978e-05
5.32955e-05
5.56348e-05
5.91226e-05
6.16632e-05
6.04956e-05
6.12211e-05
7.09173e-05
8.03815e-05
7.20911e-05
7.33263e-05
7.28715e-05
7.26115e-05
7.27657e-05
7.44712e-05
7.54292e-05
7.63117e-05
7.34965e-05
6.50596e-05
5.69805e-05
5.20124e-05
4.87378e-05
4.38913e-05
4.12798e-05
3.78602e-05
3.71133e-05
3.72678e-05
3.72474e-05
3.93524e-05
4.21983e-05
4.71324e-05
5.41952e-05
5.97165e-05
6.38122e-05
6.30055e-05
6.23928e-05
7.01578e-05
8.15724e-05
0.000107846
9.68973e-05
7.95147e-05
7.24881e-05
7.14991e-05
7.67793e-05
8.27776e-05
8.70983e-05
8.91387e-05
8.9907e-05
8.83807e-05
8.52008e-05
8.2185e-05
7.85958e-05
7.91549e-05
8.45619e-05
9.06394e-05
8.59755e-05
8.492e-05
8.34555e-05
8.37133e-05
8.1365e-05
7.49852e-05
6.30403e-05
5.96181e-05
5.86763e-05
6.3825e-05
7.60815e-05
8.33259e-05
8.39686e-05
8.03491e-05
7.95916e-05
8.20365e-05
7.70872e-05
7.41368e-05
7.57542e-05
7.67176e-05
7.76698e-05
7.97808e-05
8.36824e-05
8.94698e-05
9.69692e-05
0.000105608
0.000112815
0.000117221
0.000122084
0.000126489
0.000128587
0.000130297
0.000130754
0.000127881
0.000121159
0.000114454
0.000106131
9.82564e-05
9.38922e-05
9.50469e-05
9.7093e-05
0.000101825
9.89655e-05
6.8821e-05
7.61816e-05
5.19446e-05
4.23212e-05
5.23852e-05
5.96891e-05
6.3485e-05
6.39563e-05
6.36722e-05
6.45833e-05
6.74068e-05
7.24747e-05
7.88518e-05
8.3583e-05
8.38017e-05
8.54341e-05
8.35078e-05
8.29716e-05
8.1106e-05
7.68968e-05
6.83608e-05
6.30322e-05
5.20225e-05
4.86908e-05
5.16083e-05
5.50009e-05
5.10217e-05
4.42623e-05
3.54113e-05
1.92638e-05
8.70054e-05
8.95564e-05
8.6664e-05
8.35636e-05
8.2569e-05
8.29924e-05
8.31091e-05
8.31492e-05
8.11502e-05
7.80708e-05
7.72493e-05
7.43521e-05