/*--------------------------------*- C++ -*----------------------------------*\
| =========                 |                                                 |
| \\      /  F ield         | OpenFOAM: The Open Source CFD Toolbox           |
|  \\    /   O peration     | Version:  2.1.1                                 |
|   \\  /    A nd           | Web:      www.OpenFOAM.org                      |
|    \\/     M anipulation  |                                                 |
\*---------------------------------------------------------------------------*/
FoamFile
{
    version     2.0;
    format      ascii;
    class       volScalarField;
    location    "0.006050000";
    object      H2O;
}
// * * * * * * * * * * * * * * * * * * * * * * * * * * * * * * * * * * * * * //

dimensions      [0 0 0 0 0 0 0];

internalField   nonuniform List<scalar> 
12384
(
0.230545
0.229094
0.228317
0.228714
0.229496
0.230291
0.230959
0.231254
0.231298
0.231199
0.230939
0.230927
0.233617
0.235581
0.206022
0.215499
0.218316
0.218538
0.218391
0.218101
0.217528
0.216403
0.215213
0.214066
0.213313
0.212866
0.212537
0.212301
0.212256
0.212146
0.212437
0.212457
0.212815
0.212992
0.213129
0.21343
0.213593
0.213926
0.214362
0.215105
0.215539
0.211712
0.204101
0.201685
0.235406
0.227904
0.23031
0.233086
0.234876
0.236433
0.238176
0.239388
0.240391
0.241188
0.241896
0.242581
0.243203
0.243624
0.243844
0.243865
0.243715
0.243272
0.242757
0.242118
0.24111
0.240814
0.239147
0.239323
0.237595
0.237021
0.235424
0.234545
0.23711
0.240954
0.247597
0.247098
0.247286
0.247581
0.247696
0.247793
0.247837
0.247944
0.247943
0.247923
0.247901
0.247947
0.247854
0.248059
0.247892
0.248132
0.248022
0.248022
0.247869
0.24798
0.24792
0.247774
0.247564
0.247477
0.246996
0.246554
0.247419
0.248061
0.248453
0.248486
0.251083
0.250996
0.250907
0.250906
0.251007
0.251105
0.251158
0.251147
0.251239
0.251153
0.251294
0.251289
0.251232
0.25118
0.251096
0.250996
0.250873
0.250703
0.250992
0.250167
0.248407
0.246289
0.246671
0.247794
0.248724
0.249027
0.249306
0.249018
0.248796
0.248546
0.251819
0.251689
0.251731
0.251747
0.251765
0.251733
0.251713
0.251702
0.251703
0.251703
0.251719
0.25173
0.251744
0.251756
0.251757
0.251758
0.251714
0.251759
0.25164
0.251673
0.251559
0.251563
0.251484
0.251444
0.251405
0.251323
0.251298
0.251312
0.251315
0.251305
0.251218
0.25081
0.250006
0.250399
0.251631
0.251804
0.251817
0.25187
0.251901
0.251882
0.251964
0.251929
0.252072
0.252026
0.252089
0.252049
0.252072
0.252051
0.252053
0.25201
0.251976
0.251954
0.251959
0.251934
0.241375
0.233264
0.233939
0.234271
0.234426
0.234796
0.249837
0.251669
0.252113
0.251723
0.251637
0.25161
0.251625
0.251649
0.251663
0.251709
0.251752
0.251741
0.251771
0.251775
0.251771
0.251717
0.251701
0.251593
0.251574
0.251528
0.251551
0.251558
0.251556
0.251387
0.251334
0.251471
0.251403
0.251432
0.251443
0.251438
0.251048
0.25124
0.251442
0.251468
0.251338
0.251374
0.251452
0.251387
0.251471
0.251401
0.251535
0.251594
0.251564
0.251567
0.251607
0.251554
0.251502
0.251524
0.2515
0.251717
0.251298
0.250547
0.250552
0.250776
0.250948
0.25111
0.251119
0.250951
0.250734
0.250571
0.249933
0.251599
0.251618
0.25152
0.251453
0.251495
0.251501
0.251581
0.251633
0.251712
0.252106
0.252008
0.252101
0.251981
0.252036
0.252022
0.252109
0.251974
0.251901
0.251931
0.251855
0.251847
0.251764
0.251707
0.251724
0.251692
0.251664
0.251657
0.251672
0.251692
0.251912
0.251784
0.251797
0.251788
0.251778
0.2518
0.251804
0.251855
0.251866
0.251927
0.251928
0.252003
0.252024
0.25204
0.252055
0.252065
0.25198
0.251983
0.251878
0.251859
0.251809
0.25175
0.251491
0.251494
0.251467
0.25146
0.251431
0.251412
0.251432
0.25148
0.252399
0.252369
0.252385
0.252253
0.251915
0.251533
0.251712
0.252011
0.252125
0.252226
0.252429
0.252423
0.252417
0.252419
0.25242
0.252426
0.252438
0.252451
0.252473
0.252527
0.252296
0.252254
0.252246
0.252194
0.252189
0.252137
0.252105
0.251982
0.251704
0.252204
0.249309
0.24973
0.239004
0.208885
0.179193
0.166802
0.217426
0.24911
0.247271
0.247095
0.247076
0.247081
0.247119
0.247162
0.247213
0.247278
0.24738
0.247492
0.247665
0.247816
0.247956
0.24798
0.247734
0.247273
0.247023
0.246991
0.247067
0.247289
0.248334
0.252503
0.2186
0.220464
0.225835
0.230559
0.232954
0.234291
0.234968
0.235259
0.235018
0.234324
0.233433
0.232109
0.23318
0.235353
0.206975
0.216953
0.219763
0.219808
0.219323
0.218355
0.215968
0.213074
0.210965
0.210281
0.210404
0.211024
0.211938
0.212902
0.21375
0.214448
0.214805
0.214908
0.214752
0.214256
0.213834
0.213302
0.212982
0.212757
0.213161
0.214109
0.215091
0.214348
0.210051
0.203309
0.234957
0.228664
0.232563
0.235973
0.238087
0.240095
0.241956
0.243322
0.244389
0.245322
0.246346
0.247319
0.247958
0.248298
0.248397
0.248285
0.248025
0.247619
0.247082
0.246538
0.245672
0.245024
0.24358
0.241855
0.239979
0.238267
0.236405
0.234611
0.235896
0.241506
0.247592
0.247216
0.247544
0.247912
0.248116
0.248091
0.247979
0.247793
0.247675
0.247548
0.247491
0.247405
0.247412
0.247227
0.247305
0.24721
0.247062
0.247157
0.247324
0.247354
0.247494
0.247657
0.247732
0.24765
0.247348
0.246662
0.246983
0.248765
0.24933
0.249208
0.251078
0.250693
0.250477
0.250178
0.249998
0.250069
0.250205
0.250391
0.250534
0.250815
0.250909
0.251123
0.25115
0.251218
0.251232
0.251188
0.251076
0.250902
0.250701
0.250726
0.249338
0.246836
0.247195
0.249406
0.250761
0.251159
0.251297
0.25087
0.250304
0.249746
0.251791
0.251712
0.251767
0.251795
0.251793
0.251749
0.251976
0.251931
0.25183
0.25184
0.251834
0.251832
0.25183
0.251828
0.251827
0.251827
0.251796
0.251792
0.251753
0.251732
0.251666
0.251648
0.251592
0.251569
0.251478
0.251422
0.251312
0.251275
0.251314
0.251365
0.251307
0.250653
0.250693
0.25179
0.251913
0.251847
0.251826
0.252305
0.251339
0.250786
0.250614
0.250575
0.250642
0.250699
0.250603
0.250681
0.250823
0.251156
0.251355
0.251549
0.251769
0.252056
0.252016
0.251981
0.249883
0.236692
0.229137
0.228347
0.229794
0.23055
0.251897
0.251675
0.251552
0.251587
0.251591
0.251619
0.251646
0.251644
0.251708
0.251716
0.25171
0.251798
0.251769
0.25176
0.251767
0.251715
0.251706
0.251662
0.251594
0.25158
0.251522
0.251534
0.251554
0.251507
0.251338
0.251489
0.251633
0.251728
0.251716
0.251617
0.251276
0.25123
0.251531
0.251246
0.251187
0.251109
0.251085
0.25115
0.25122
0.251259
0.251347
0.251348
0.251326
0.251404
0.251334
0.251385
0.251394
0.251409
0.251365
0.251524
0.251524
0.251113
0.25078
0.251339
0.251609
0.251625
0.251584
0.251599
0.251463
0.251251
0.249998
0.251829
0.251548
0.251436
0.251457
0.25152
0.251812
0.251849
0.25178
0.251758
0.251755
0.251837
0.251843
0.251959
0.251966
0.251917
0.251862
0.251876
0.251839
0.251874
0.251932
0.25183
0.251732
0.251747
0.251674
0.251591
0.251653
0.251651
0.251592
0.251618
0.251939
0.251773
0.251749
0.251699
0.25173
0.251821
0.251858
0.251927
0.252022
0.25209
0.25214
0.252197
0.252231
0.252255
0.252246
0.252218
0.252172
0.252094
0.252036
0.251945
0.251854
0.25183
0.251753
0.25147
0.251338
0.251239
0.251158
0.251181
0.25122
0.251251
0.252045
0.252071
0.252104
0.251954
0.251643
0.251732
0.252099
0.252441
0.25241
0.252386
0.252368
0.252238
0.252142
0.252087
0.252082
0.252127
0.2522
0.25226
0.252488
0.252519
0.252281
0.2522
0.252126
0.25213
0.252138
0.252129
0.252116
0.252034
0.251741
0.252122
0.25044
0.250407
0.25084
0.252364
0.207122
0.195722
0.251628
0.247842
0.247216
0.247199
0.2473
0.247402
0.247509
0.247576
0.247626
0.247688
0.247774
0.247927
0.248186
0.248679
0.249369
0.249896
0.249932
0.249022
0.248043
0.247207
0.247093
0.247325
0.248587
0.251003
0.218946
0.224888
0.230199
0.232727
0.233715
0.234234
0.234897
0.236032
0.236087
0.235727
0.234835
0.233691
0.233406
0.23506
0.20834
0.218594
0.221233
0.221106
0.22046
0.218385
0.213625
0.210062
0.209574
0.211079
0.213564
0.216366
0.219039
0.221056
0.22202
0.222532
0.221991
0.221276
0.219958
0.219827
0.218811
0.217905
0.215628
0.213893
0.212746
0.212992
0.214132
0.214821
0.213073
0.205925
0.234686
0.22999
0.234783
0.237735
0.239237
0.240831
0.241925
0.242612
0.244365
0.246385
0.248095
0.249038
0.249403
0.249425
0.249269
0.248946
0.248596
0.248043
0.247312
0.246743
0.245771
0.245262
0.243901
0.242669
0.240893
0.239182
0.237298
0.235464
0.234815
0.24011
0.247622
0.247375
0.247739
0.247983
0.248029
0.247869
0.247635
0.247442
0.24746
0.247214
0.247045
0.246776
0.246446
0.246218
0.246069
0.245823
0.245601
0.245514
0.24572
0.246271
0.246535
0.246811
0.24727
0.247641
0.247721
0.247194
0.246791
0.247857
0.249208
0.249268
0.250773
0.249932
0.249132
0.247523
0.246641
0.246132
0.24618
0.246413
0.246955
0.247772
0.249019
0.25033
0.250462
0.250885
0.25104
0.251186
0.251209
0.251008
0.250855
0.250653
0.250185
0.247998
0.247247
0.249872
0.251457
0.251629
0.251422
0.251347
0.251154
0.250479
0.25176
0.251736
0.251798
0.251807
0.251777
0.251875
0.251883
0.251865
0.251837
0.251839
0.251819
0.251799
0.251782
0.251762
0.251743
0.251742
0.251705
0.251693
0.251642
0.251627
0.251632
0.251611
0.251594
0.251575
0.251546
0.251494
0.251422
0.251307
0.251298
0.25136
0.251232
0.25101
0.251905
0.251956
0.251875
0.251414
0.249876
0.249447
0.249293
0.249553
0.249722
0.250014
0.250294
0.250503
0.250696
0.250839
0.250952
0.250935
0.250954
0.251001
0.251131
0.251422
0.25188
0.252327
0.251709
0.248895
0.237602
0.233413
0.232955
0.230714
0.25171
0.251549
0.251585
0.251595
0.251631
0.251616
0.25164
0.251683
0.251662
0.251654
0.251691
0.251696
0.251705
0.251699
0.251728
0.25169
0.25167
0.251647
0.251642
0.251602
0.251583
0.251512
0.251489
0.251537
0.251664
0.251471
0.251671
0.251841
0.251926
0.251746
0.251204
0.251597
0.251231
0.251059
0.250992
0.251009
0.251435
0.25103
0.250949
0.250763
0.250556
0.250403
0.250441
0.250452
0.250767
0.251407
0.251183
0.251236
0.251358
0.251329
0.251475
0.251564
0.251048
0.251357
0.251585
0.251546
0.251447
0.251618
0.251664
0.251643
0.250569
0.251681
0.251395
0.25143
0.251554
0.251831
0.251676
0.251649
0.251582
0.251976
0.251586
0.251282
0.251258
0.251115
0.251177
0.251231
0.251687
0.252069
0.251787
0.251773
0.251842
0.251784
0.251904
0.251752
0.251702
0.251611
0.251593
0.25161
0.251614
0.251601
0.251917
0.251806
0.251666
0.251687
0.251817
0.251897
0.25197
0.252063
0.252298
0.252288
0.252288
0.252266
0.252258
0.252248
0.252239
0.252262
0.252303
0.252279
0.252318
0.252111
0.251976
0.251915
0.251816
0.251602
0.251321
0.251105
0.250989
0.251028
0.251129
0.251163
0.251998
0.251942
0.251786
0.25168
0.251775
0.252063
0.252424
0.25237
0.252432
0.252068
0.251899
0.251742
0.251588
0.251571
0.251597
0.25166
0.251841
0.251968
0.252138
0.252264
0.252179
0.25204
0.252004
0.252023
0.252028
0.252071
0.2521
0.252066
0.251861
0.252029
0.250194
0.250183
0.250918
0.252209
0.226253
0.252345
0.248924
0.247425
0.247324
0.247502
0.247701
0.247824
0.24793
0.247983
0.248016
0.247975
0.247886
0.247823
0.247838
0.248114
0.248897
0.250138
0.250912
0.250923
0.24997
0.24839
0.247823
0.248173
0.249755
0.243832
0.220631
0.225577
0.227098
0.226885
0.227656
0.228898
0.230163
0.231417
0.233192
0.234927
0.234928
0.234311
0.233749
0.234916
0.209694
0.220537
0.223053
0.223372
0.222114
0.217195
0.21087
0.209128
0.210869
0.214429
0.218349
0.221795
0.224961
0.22747
0.228407
0.227704
0.225111
0.222776
0.221262
0.220777
0.220947
0.220916
0.219295
0.216927
0.214141
0.21273
0.21315
0.214336
0.214367
0.207927
0.234612
0.231025
0.23626
0.238116
0.238879
0.239447
0.239564
0.240329
0.243819
0.247241
0.249312
0.249727
0.249602
0.248757
0.247804
0.247029
0.246245
0.245572
0.244572
0.243658
0.242684
0.242221
0.241522
0.241031
0.24016
0.239207
0.237754
0.23601
0.234708
0.239282
0.24766
0.247455
0.247854
0.24803
0.247813
0.247507
0.247327
0.247354
0.247268
0.247119
0.246821
0.246265
0.245838
0.244923
0.243951
0.243425
0.243085
0.242894
0.242974
0.243481
0.244738
0.24608
0.246645
0.247369
0.24775
0.247435
0.246925
0.247229
0.248496
0.249296
0.249886
0.249261
0.247175
0.245792
0.244944
0.244559
0.244391
0.244485
0.244561
0.244964
0.24531
0.246263
0.247648
0.249686
0.250582
0.250959
0.251186
0.251113
0.251013
0.250827
0.250593
0.249014
0.247389
0.249214
0.251212
0.251384
0.250996
0.25127
0.251227
0.251411
0.251757
0.251717
0.251826
0.25181
0.251952
0.251888
0.251885
0.251823
0.25182
0.251795
0.251779
0.251758
0.25173
0.251662
0.251624
0.251557
0.251509
0.251494
0.251496
0.251468
0.251472
0.251523
0.25154
0.251528
0.25156
0.251565
0.251466
0.251368
0.251295
0.251354
0.251318
0.251797
0.252114
0.251899
0.250511
0.249249
0.249005
0.249345
0.249886
0.250289
0.250705
0.251136
0.251627
0.252173
0.251876
0.251845
0.25185
0.251846
0.251877
0.251548
0.251151
0.251127
0.251398
0.251969
0.252162
0.250954
0.247347
0.242204
0.240265
0.233048
0.251472
0.25159
0.251587
0.251621
0.251609
0.251629
0.25165
0.251661
0.251642
0.251611
0.251647
0.251534
0.251527
0.251531
0.2515
0.251539
0.251606
0.251619
0.251628
0.251597
0.25162
0.251549
0.251498
0.251563
0.251536
0.251487
0.251524
0.251792
0.251631
0.251551
0.251469
0.251305
0.251136
0.251068
0.251059
0.251614
0.251147
0.250428
0.249995
0.249678
0.249337
0.249151
0.249178
0.249299
0.249496
0.249865
0.250579
0.251069
0.251183
0.251266
0.251263
0.251744
0.251374
0.251281
0.251568
0.251437
0.251364
0.251437
0.251639
0.251677
0.251161
0.251545
0.251395
0.251526
0.251889
0.251684
0.25152
0.251994
0.251045
0.250153
0.249702
0.249471
0.249263
0.249309
0.249391
0.249515
0.24994
0.250446
0.251082
0.251962
0.251762
0.251838
0.251796
0.252066
0.251732
0.251663
0.25164
0.25167
0.251658
0.251629
0.251882
0.251695
0.251641
0.251803
0.25191
0.251991
0.252104
0.252219
0.252223
0.252163
0.252177
0.251841
0.251387
0.251158
0.251577
0.251865
0.252169
0.252176
0.252211
0.252262
0.252236
0.251999
0.251913
0.251804
0.251412
0.251052
0.250964
0.251103
0.251179
0.251215
0.251823
0.251722
0.25166
0.251762
0.25206
0.252257
0.252346
0.252154
0.251931
0.251712
0.251446
0.251379
0.251346
0.251356
0.251365
0.251431
0.251524
0.251823
0.251981
0.252188
0.25218
0.252008
0.251951
0.251973
0.252108
0.25218
0.252161
0.252113
0.251898
0.251978
0.250706
0.250575
0.251972
0.252019
0.252347
0.250114
0.247781
0.247447
0.247636
0.247906
0.248157
0.24838
0.248562
0.248675
0.248674
0.248617
0.248443
0.2482
0.247948
0.247817
0.247928
0.248918
0.250633
0.251444
0.251271
0.250385
0.249619
0.249708
0.25116
0.224997
0.219683
0.221387
0.220149
0.221837
0.225424
0.227265
0.227973
0.228678
0.229664
0.231819
0.23407
0.234112
0.23392
0.234851
0.211068
0.222352
0.225422
0.226242
0.223011
0.214743
0.209562
0.20915
0.211813
0.21506
0.218921
0.223376
0.228512
0.232035
0.232955
0.230907
0.225904
0.222101
0.220144
0.220714
0.221777
0.222667
0.221738
0.219423
0.216046
0.213431
0.212722
0.21382
0.214484
0.208836
0.2346
0.23189
0.237398
0.238171
0.237938
0.23745
0.237094
0.238267
0.243
0.247408
0.249547
0.249586
0.248398
0.246692
0.245084
0.242492
0.240829
0.239851
0.239302
0.238907
0.238631
0.238808
0.238642
0.239118
0.238896
0.238678
0.237846
0.236397
0.234839
0.238958
0.247715
0.247549
0.247822
0.247863
0.247434
0.247142
0.247161
0.247193
0.247341
0.247192
0.246615
0.246078
0.244901
0.243778
0.242848
0.242127
0.24176
0.241514
0.241491
0.241774
0.242612
0.244134
0.246111
0.246931
0.247631
0.247543
0.247071
0.246959
0.24801
0.249072
0.2499
0.249367
0.247207
0.245646
0.244836
0.244552
0.244504
0.244476
0.244482
0.244282
0.244391
0.244628
0.245364
0.246853
0.249232
0.250571
0.250947
0.251115
0.251096
0.250944
0.251047
0.249788
0.248043
0.248151
0.250207
0.250354
0.250064
0.250895
0.25132
0.251264
0.251728
0.251756
0.251836
0.251986
0.251891
0.251893
0.251814
0.25181
0.251807
0.251805
0.251757
0.25168
0.251605
0.251503
0.251361
0.251312
0.251218
0.251239
0.25117
0.251251
0.251256
0.251297
0.251391
0.251461
0.251545
0.251538
0.251823
0.251417
0.251315
0.251351
0.251862
0.25193
0.252008
0.250792
0.249207
0.249349
0.249983
0.250519
0.251008
0.251351
0.251909
0.25174
0.251781
0.251839
0.251877
0.251832
0.251861
0.251829
0.251805
0.251832
0.251825
0.25125
0.251202
0.251584
0.252085
0.251786
0.250218
0.248225
0.245474
0.235061
0.251387
0.251578
0.25159
0.251593
0.251632
0.251645
0.251631
0.251623
0.251609
0.251512
0.251473
0.251467
0.251453
0.251437
0.251433
0.251402
0.25144
0.251472
0.251598
0.251611
0.251608
0.251565
0.251526
0.251498
0.25155
0.251726
0.251554
0.251795
0.251599
0.251538
0.251375
0.251219
0.251141
0.251149
0.251099
0.251294
0.250264
0.249273
0.248293
0.247552
0.247275
0.247172
0.247276
0.247608
0.247919
0.248477
0.249172
0.250088
0.251507
0.251149
0.25121
0.251346
0.251545
0.251307
0.251362
0.251374
0.251347
0.25141
0.251559
0.251652
0.251539
0.25133
0.251453
0.251648
0.251737
0.251542
0.251896
0.250509
0.249524
0.248938
0.248535
0.248251
0.24812
0.247817
0.247969
0.248405
0.248676
0.249135
0.249882
0.250794
0.252
0.251784
0.251831
0.25186
0.251797
0.251734
0.251707
0.251714
0.251644
0.251601
0.251789
0.251544
0.251744
0.251898
0.252
0.252093
0.252195
0.252169
0.252062
0.251399
0.249879
0.248851
0.246736
0.246871
0.247114
0.249105
0.249999
0.251262
0.252578
0.252179
0.252251
0.25232
0.251973
0.251857
0.251539
0.251118
0.250971
0.251145
0.251254
0.25131
0.251741
0.251647
0.251702
0.251992
0.252181
0.252346
0.252329
0.251912
0.251691
0.251382
0.251318
0.251313
0.251315
0.251333
0.251332
0.25136
0.251387
0.251489
0.251786
0.25207
0.252214
0.251963
0.251926
0.252019
0.252335
0.252309
0.252278
0.252177
0.251925
0.251954
0.251297
0.250873
0.25197
0.252075
0.250566
0.248324
0.247514
0.247629
0.247976
0.248333
0.248681
0.248981
0.24923
0.249374
0.249407
0.249271
0.249061
0.248748
0.248438
0.248055
0.247785
0.247887
0.249265
0.251238
0.251545
0.251155
0.250809
0.251122
0.252371
0.207442
0.216869
0.214863
0.215775
0.222035
0.226761
0.22708
0.225979
0.225507
0.226282
0.227971
0.23145
0.233537
0.233929
0.234835
0.212101
0.224028
0.228165
0.228577
0.223511
0.213889
0.209059
0.208493
0.210251
0.212339
0.216104
0.222596
0.230448
0.235986
0.237877
0.234256
0.226775
0.221521
0.219769
0.221366
0.223702
0.223533
0.223054
0.220968
0.217729
0.214256
0.212628
0.213525
0.214445
0.209291
0.23485
0.232645
0.238008
0.238046
0.236885
0.235707
0.235113
0.236509
0.241563
0.246907
0.24928
0.249309
0.247715
0.245324
0.241589
0.239314
0.238279
0.237826
0.237793
0.237781
0.237875
0.238018
0.237852
0.238244
0.238057
0.238378
0.237886
0.236587
0.234982
0.239035
0.24769
0.247609
0.24788
0.247511
0.24707
0.24685
0.246984
0.247152
0.247367
0.247337
0.246738
0.246049
0.244774
0.243584
0.242528
0.241448
0.240747
0.240214
0.240464
0.240861
0.241571
0.242892
0.244779
0.246522
0.247313
0.247579
0.247094
0.246906
0.247745
0.24899
0.250146
0.249663
0.247193
0.245568
0.24489
0.244797
0.244813
0.244798
0.244718
0.244811
0.24469
0.244451
0.244613
0.245593
0.247435
0.249884
0.250704
0.250992
0.251067
0.250997
0.251218
0.250257
0.248782
0.247793
0.248832
0.249003
0.249206
0.25097
0.251455
0.251392
0.251712
0.25177
0.251821
0.252031
0.251889
0.251829
0.251795
0.251797
0.251798
0.251753
0.251665
0.251535
0.251396
0.25127
0.251172
0.251101
0.251028
0.250955
0.251002
0.250998
0.251068
0.251126
0.251244
0.251383
0.251453
0.251549
0.251867
0.251427
0.251325
0.251372
0.251823
0.251973
0.251877
0.249611
0.249702
0.250798
0.251646
0.251754
0.251735
0.251955
0.25175
0.25176
0.251841
0.251866
0.251894
0.251937
0.251919
0.251901
0.251887
0.251832
0.251864
0.251809
0.251222
0.251366
0.251849
0.251977
0.25103
0.249811
0.248682
0.237003
0.251459
0.251555
0.251606
0.251625
0.251656
0.251638
0.251604
0.251605
0.2515
0.251473
0.251439
0.251428
0.251398
0.251359
0.251345
0.251354
0.251351
0.251379
0.251465
0.251548
0.251567
0.251576
0.251544
0.251503
0.251561
0.251569
0.251738
0.251598
0.251553
0.25147
0.251342
0.251207
0.251231
0.251221
0.251069
0.250708
0.249097
0.247731
0.246497
0.244235
0.24344
0.242725
0.242982
0.244115
0.245684
0.247208
0.247908
0.248907
0.250253
0.250966
0.25113
0.251189
0.251555
0.251422
0.251331
0.251324
0.251373
0.251438
0.251429
0.251645
0.251865
0.251337
0.25156
0.251828
0.251734
0.251532
0.251055
0.249819
0.24879
0.248273
0.246866
0.246235
0.246025
0.245985
0.246076
0.246393
0.247315
0.248334
0.248972
0.24995
0.251191
0.251759
0.251783
0.25187
0.252125
0.251761
0.251697
0.251747
0.251617
0.251585
0.251753
0.251504
0.25181
0.251957
0.252054
0.25236
0.252223
0.252089
0.251129
0.249163
0.24433
0.239608
0.236783
0.23529
0.237891
0.240168
0.245143
0.249085
0.250658
0.252227
0.252192
0.252215
0.252067
0.251924
0.251751
0.251188
0.250978
0.251184
0.251318
0.251375
0.251709
0.251625
0.251879
0.252098
0.252385
0.252371
0.251971
0.251677
0.251383
0.251281
0.251309
0.251428
0.251402
0.251445
0.251452
0.251362
0.251405
0.251407
0.251502
0.251941
0.252239
0.251967
0.25192
0.252083
0.252236
0.252362
0.252149
0.252356
0.25194
0.25191
0.251873
0.250821
0.251135
0.250541
0.248814
0.247637
0.247563
0.247886
0.248321
0.248764
0.249193
0.249605
0.249892
0.25012
0.250107
0.249895
0.249586
0.249199
0.248827
0.248462
0.24803
0.247693
0.247996
0.250236
0.251768
0.251409
0.251321
0.251846
0.250371
0.190715
0.212826
0.209429
0.21534
0.225842
0.228522
0.226903
0.224752
0.223435
0.223487
0.224996
0.229061
0.23287
0.233743
0.234756
0.212853
0.226218
0.230761
0.230906
0.225478
0.21499
0.20892
0.207326
0.207331
0.208161
0.211885
0.219935
0.23082
0.238848
0.241146
0.237651
0.228051
0.221114
0.219934
0.221752
0.223815
0.223604
0.222997
0.221291
0.218203
0.214609
0.212646
0.213454
0.214365
0.209128
0.235029
0.233438
0.238939
0.23855
0.236916
0.235413
0.234911
0.236157
0.240218
0.246157
0.249325
0.249702
0.24789
0.245326
0.24141
0.238932
0.237884
0.237615
0.237762
0.238133
0.238324
0.238528
0.238369
0.238464
0.238351
0.238356
0.237972
0.236639
0.235056
0.239555
0.247724
0.247538
0.247749
0.247225
0.246773
0.246797
0.24688
0.247101
0.247352
0.247593
0.246999
0.246235
0.245281
0.243807
0.242529
0.240931
0.239957
0.239537
0.239661
0.240019
0.240946
0.242109
0.244249
0.246173
0.247108
0.24744
0.247177
0.246928
0.24757
0.249039
0.250256
0.249741
0.247147
0.245545
0.245023
0.244875
0.244913
0.244906
0.244862
0.244691
0.244527
0.244423
0.244471
0.245087
0.24654
0.248703
0.250744
0.250863
0.250945
0.250897
0.250962
0.250428
0.249334
0.247712
0.247878
0.248013
0.248923
0.251241
0.251618
0.251575
0.251702
0.251776
0.251989
0.251876
0.251852
0.251768
0.251786
0.251799
0.251777
0.251707
0.251587
0.251437
0.251264
0.251123
0.251076
0.25096
0.250914
0.250873
0.25083
0.250875
0.250875
0.251023
0.251116
0.251242
0.251408
0.251514
0.251856
0.25144
0.251333
0.251405
0.251821
0.251998
0.251086
0.25007
0.251274
0.251933
0.251862
0.251809
0.25176
0.251749
0.251793
0.251766
0.251845
0.251939
0.251755
0.251701
0.251743
0.251766
0.251931
0.251859
0.251797
0.252211
0.251377
0.251256
0.251678
0.251953
0.251323
0.2504
0.249257
0.24129
0.251588
0.251555
0.251584
0.25166
0.251663
0.251627
0.251605
0.251589
0.251499
0.251482
0.251436
0.251409
0.251346
0.251306
0.25128
0.25127
0.251299
0.251322
0.251396
0.251557
0.251552
0.251567
0.251555
0.251507
0.251493
0.251568
0.251533
0.251574
0.251564
0.251408
0.251393
0.251267
0.251298
0.251248
0.251621
0.250182
0.248099
0.246674
0.243124
0.241513
0.240456
0.23962
0.239881
0.240921
0.242279
0.245153
0.246764
0.248055
0.249259
0.250895
0.251028
0.251119
0.251612
0.251578
0.251421
0.251355
0.251451
0.251271
0.251315
0.251531
0.25166
0.251363
0.251612
0.251804
0.251642
0.25209
0.250517
0.249493
0.248345
0.246862
0.245764
0.24578
0.245662
0.245744
0.245536
0.245428
0.245982
0.24714
0.248423
0.249398
0.25065
0.252017
0.251812
0.25187
0.251935
0.251783
0.251738
0.25166
0.251588
0.251457
0.251715
0.251752
0.251903
0.252029
0.252057
0.252317
0.252202
0.252094
0.2498
0.24462
0.237857
0.232174
0.228456
0.228358
0.228436
0.232713
0.237211
0.244096
0.249008
0.250954
0.252168
0.252221
0.252244
0.251941
0.251788
0.25127
0.251001
0.251218
0.251388
0.251433
0.251685
0.251625
0.25193
0.252152
0.252439
0.252145
0.251861
0.251624
0.2513
0.25128
0.251317
0.251311
0.251288
0.251346
0.25138
0.251486
0.25143
0.251429
0.251413
0.251688
0.252257
0.252019
0.251887
0.25215
0.252178
0.250156
0.251796
0.252381
0.251941
0.25195
0.252354
0.25084
0.25004
0.249142
0.248005
0.247587
0.247711
0.248133
0.248638
0.249132
0.249673
0.250116
0.250416
0.250682
0.250692
0.250403
0.250102
0.249562
0.249065
0.2487
0.24836
0.2479
0.247569
0.248781
0.251516
0.251903
0.251828
0.25224
0.228045
0.177715
0.209123
0.206325
0.218982
0.228996
0.229423
0.228148
0.226499
0.2246
0.223587
0.224181
0.22825
0.23249
0.233635
0.234816
0.213802
0.227772
0.232781
0.23382
0.22852
0.218697
0.209983
0.206423
0.205178
0.204859
0.207241
0.215405
0.229238
0.240008
0.243583
0.239969
0.229278
0.22086
0.219787
0.221242
0.222588
0.222856
0.222127
0.22049
0.217713
0.214315
0.212685
0.213524
0.214468
0.208645
0.235478
0.233706
0.23996
0.240118
0.238333
0.237575
0.237699
0.238294
0.239943
0.245355
0.249619
0.250691
0.248833
0.246085
0.242815
0.239491
0.237871
0.237634
0.237987
0.238711
0.239397
0.239663
0.239555
0.239201
0.238991
0.238527
0.237949
0.236526
0.235299
0.240691
0.247757
0.247532
0.247487
0.24704
0.246906
0.247059
0.247195
0.247159
0.247282
0.24778
0.247391
0.246619
0.246073
0.244356
0.242898
0.241035
0.239896
0.2393
0.239542
0.240041
0.240847
0.242049
0.244216
0.246156
0.246983
0.247342
0.24708
0.246863
0.247908
0.250135
0.25049
0.249459
0.247074
0.245679
0.24505
0.245073
0.245065
0.244941
0.244834
0.244772
0.244765
0.244556
0.244473
0.244819
0.245992
0.247776
0.249572
0.25079
0.251239
0.251238
0.250757
0.250213
0.249471
0.247907
0.247479
0.247926
0.250222
0.251527
0.251888
0.251766
0.251688
0.25175
0.252
0.25185
0.251789
0.25177
0.251758
0.251762
0.251741
0.251618
0.251517
0.251367
0.251248
0.25115
0.250999
0.250967
0.250841
0.250852
0.250803
0.250815
0.250813
0.250902
0.251048
0.251198
0.251386
0.251517
0.251807
0.251408
0.251341
0.251431
0.251821
0.251897
0.25113
0.251393
0.251945
0.251964
0.252035
0.251943
0.25183
0.251749
0.251821
0.251792
0.251832
0.251942
0.251699
0.251639
0.251643
0.251699
0.251975
0.251858
0.251866
0.251883
0.251488
0.251268
0.251627
0.25191
0.251428
0.25082
0.249725
0.250259
0.251528
0.251533
0.251622
0.251678
0.251673
0.251646
0.251605
0.251591
0.251518
0.251482
0.251431
0.251389
0.2513
0.25123
0.251208
0.251216
0.251247
0.251301
0.25135
0.251477
0.251568
0.251549
0.251546
0.251512
0.251498
0.251567
0.251523
0.251546
0.251484
0.251412
0.251398
0.251317
0.251287
0.251216
0.251404
0.24991
0.247717
0.245763
0.241758
0.24009
0.238288
0.237931
0.237756
0.238621
0.240423
0.243031
0.245612
0.247431
0.248639
0.250305
0.250956
0.251085
0.251424
0.25154
0.251624
0.251503
0.251228
0.251127
0.251232
0.251472
0.251571
0.251491
0.251674
0.251826
0.251664
0.251797
0.250324
0.249233
0.24824
0.246357
0.245569
0.245718
0.24573
0.245696
0.245624
0.245553
0.245832
0.246496
0.248287
0.249232
0.250351
0.251708
0.251834
0.25188
0.251897
0.251797
0.251724
0.251548
0.251381
0.251408
0.251552
0.251775
0.251906
0.251999
0.252106
0.252358
0.252206
0.251417
0.249095
0.24131
0.234181
0.227771
0.225235
0.223833
0.225082
0.227158
0.233058
0.239323
0.245999
0.249833
0.251912
0.252149
0.25223
0.252026
0.251799
0.251317
0.251086
0.251296
0.251432
0.25148
0.251663
0.251588
0.251922
0.252162
0.252381
0.252033
0.251742
0.251396
0.251259
0.251347
0.251257
0.251222
0.251144
0.251195
0.251312
0.251437
0.251518
0.251482
0.251426
0.251447
0.252244
0.252072
0.251829
0.252087
0.25213
0.250209
0.25173
0.252325
0.251919
0.25188
0.251726
0.251213
0.249456
0.248419
0.247786
0.247621
0.247849
0.2483
0.248845
0.249406
0.249944
0.250402
0.250687
0.250793
0.250759
0.250727
0.250318
0.249797
0.249211
0.248792
0.248527
0.248141
0.247623
0.247699
0.250941
0.25201
0.252149
0.248358
0.201161
0.177994
0.20592
0.205333
0.223197
0.230835
0.230597
0.230292
0.229822
0.228489
0.227083
0.227001
0.229312
0.23247
0.233636
0.234732
0.233541
0.22395
0.214452
0.22595
0.234349
0.236093
0.231803
0.223499
0.213991
0.207624
0.20461
0.203433
0.204083
0.210343
0.224912
0.239774
0.244689
0.242223
0.231018
0.220993
0.219163
0.220276
0.22098
0.22076
0.220191
0.218731
0.216408
0.213652
0.212833
0.213666
0.212627
0.209542
0.219481
0.231493
0.235669
0.235037
0.241666
0.2432
0.243005
0.243768
0.244536
0.243126
0.241003
0.244149
0.249911
0.250653
0.249732
0.247096
0.244449
0.240032
0.237817
0.237517
0.238211
0.239205
0.240318
0.240505
0.240567
0.239755
0.239575
0.238664
0.237827
0.236332
0.235316
0.241575
0.245436
0.247187
0.247634
0.247466
0.247333
0.246891
0.247335
0.248264
0.248167
0.247478
0.24735
0.247738
0.247699
0.247115
0.246481
0.245249
0.243932
0.242071
0.240731
0.240084
0.239977
0.240411
0.241165
0.242853
0.244993
0.246331
0.247038
0.247216
0.246871
0.247296
0.25067
0.250697
0.251012
0.250722
0.250374
0.249297
0.247277
0.245878
0.245139
0.245102
0.24503
0.244835
0.244665
0.244415
0.244435
0.244368
0.244468
0.244893
0.245822
0.247308
0.248919
0.249959
0.250366
0.250535
0.250437
0.249954
0.249444
0.247993
0.247552
0.248875
0.251395
0.251682
0.251653
0.251677
0.25168
0.25167
0.251698
0.2518
0.251843
0.251813
0.251788
0.251742
0.251743
0.251727
0.251708
0.25164
0.251478
0.251391
0.251263
0.251104
0.251048
0.250998
0.250888
0.250861
0.250788
0.250816
0.250844
0.250923
0.251084
0.251242
0.251405
0.251525
0.25177
0.251382
0.251333
0.251478
0.251954
0.251918
0.251915
0.251943
0.251816
0.251978
0.252049
0.252203
0.252174
0.252007
0.251823
0.251788
0.25183
0.251839
0.251863
0.251891
0.25174
0.2517
0.251693
0.251748
0.251942
0.251867
0.251871
0.251868
0.251568
0.251359
0.251666
0.251758
0.251206
0.251162
0.251934
0.251566
0.251516
0.25156
0.251505
0.251558
0.251668
0.251717
0.251664
0.251659
0.251629
0.251643
0.25158
0.251494
0.251489
0.251392
0.251277
0.251222
0.251188
0.251214
0.251262
0.251308
0.251362
0.251576
0.251556
0.251547
0.251534
0.25151
0.251555
0.251555
0.251562
0.251433
0.251381
0.251434
0.251627
0.251609
0.251592
0.251386
0.251335
0.251288
0.251106
0.250062
0.247859
0.245569
0.241567
0.239364
0.237734
0.23706
0.237073
0.237991
0.239978
0.242131
0.244973
0.24708
0.248415
0.250115
0.250917
0.251056
0.251362
0.251561
0.251563
0.251116
0.250944
0.251177
0.251345
0.251454
0.251554
0.251611
0.251522
0.251547
0.251692
0.251795
0.251692
0.251973
0.250538
0.249396
0.248481
0.246677
0.245563