/*--------------------------------*- C++ -*----------------------------------*\
| =========                 |                                                 |
| \\      /  F ield         | OpenFOAM: The Open Source CFD Toolbox           |
|  \\    /   O peration     | Version:  2.1.1                                 |
|   \\  /    A nd           | Web:      www.OpenFOAM.org                      |
|    \\/     M anipulation  |                                                 |
\*---------------------------------------------------------------------------*/
FoamFile
{
    version     2.0;
    format      ascii;
    class       volScalarField;
    location    "0.006050000";
    object      H2O2;
}
// * * * * * * * * * * * * * * * * * * * * * * * * * * * * * * * * * * * * * //

dimensions      [0 0 0 0 0 0 0];

internalField   nonuniform List<scalar> 
12384
(
1.48094e-06
1.50236e-06
1.50797e-06
1.49614e-06
1.48922e-06
1.46752e-06
1.45375e-06
1.44555e-06
1.44851e-06
1.45101e-06
1.4595e-06
1.4592e-06
1.31861e-06
1.27701e-06
1.11235e-06
1.17421e-06
1.22587e-06
1.25748e-06
1.28492e-06
1.31588e-06
1.33626e-06
1.36291e-06
1.36597e-06
1.3709e-06
1.36762e-06
1.38291e-06
1.36344e-06
1.38056e-06
1.35355e-06
1.34463e-06
1.35216e-06
1.31916e-06
1.33251e-06
1.28805e-06
1.29801e-06
1.27505e-06
1.27963e-06
1.27532e-06
1.27875e-06
1.28056e-06
1.27974e-06
1.17434e-06
1.04108e-06
1.03404e-06
9.11285e-07
1.03911e-06
1.03493e-06
1.01525e-06
9.98121e-07
9.73762e-07
8.929e-07
8.57465e-07
8.2411e-07
8.02271e-07
7.84101e-07
7.64872e-07
7.39334e-07
7.26284e-07
7.18656e-07
7.17057e-07
7.24199e-07
7.33126e-07
7.68656e-07
7.77693e-07
8.38783e-07
8.33455e-07
9.3668e-07
9.17964e-07
1.0175e-06
1.0396e-06
1.11192e-06
1.18254e-06
1.05054e-06
9.5026e-07
4.88419e-07
5.05809e-07
4.89065e-07
4.73762e-07
4.68749e-07
4.63206e-07
4.61094e-07
4.65766e-07
4.65666e-07
4.6546e-07
4.6577e-07
4.61157e-07
4.53669e-07
4.40289e-07
4.4926e-07
4.22894e-07
4.2917e-07
4.28181e-07
4.36854e-07
4.42983e-07
4.46209e-07
4.54498e-07
4.65211e-07
4.69197e-07
4.93838e-07
5.10543e-07
4.57922e-07
4.25241e-07
4.14454e-07
4.12285e-07
1.6257e-07
1.67572e-07
1.68485e-07
1.66907e-07
1.6029e-07
1.53996e-07
1.43463e-07
1.4443e-07
1.33829e-07
1.41451e-07
1.34451e-07
1.35828e-07
1.41509e-07
1.46769e-07
1.53923e-07
1.62706e-07
1.73107e-07
1.86197e-07
2.9165e-07
3.29698e-07
4.13908e-07
5.11909e-07
4.90553e-07
4.25762e-07
3.7551e-07
3.61458e-07
3.35797e-07
3.51143e-07
3.60936e-07
3.73839e-07
4.28047e-08
2.97546e-08
2.73374e-08
3.21736e-08
3.68951e-08
4.42173e-08
4.9739e-08
5.45289e-08
5.6537e-08
5.73019e-08
5.68809e-08
5.64524e-08
5.5821e-08
5.52205e-08
5.51336e-08
5.41519e-08
5.72065e-08
5.53323e-08
6.12546e-08
5.94014e-08
6.652e-08
6.61558e-08
7.19518e-08
7.36831e-08
7.69274e-08
7.95018e-08
7.73873e-08
7.80662e-08
1.2672e-07
1.27611e-07
2.38055e-07
2.55437e-07
2.95191e-07
2.81577e-07
2.20648e-07
1.13348e-07
1.0601e-07
1.05348e-07
9.92955e-08
1.04345e-07
9.59849e-08
1.0197e-07
9.30159e-08
9.81805e-08
9.13605e-08
9.42012e-08
9.31462e-08
9.45234e-08
9.65193e-08
9.83725e-08
9.95922e-08
9.98424e-08
9.83084e-08
1.8289e-07
6.30883e-07
7.16474e-07
7.06378e-07
7.01647e-07
6.90793e-07
6.91819e-07
3.00805e-07
1.20595e-07
6.07756e-08
4.44379e-08
4.56077e-08
4.67495e-08
4.69343e-08
4.68041e-08
4.67285e-08
4.39661e-08
4.20998e-08
4.26089e-08
4.10014e-08
4.06699e-08
3.95463e-08
4.41028e-08
4.35166e-08
4.93212e-08
5.04201e-08
5.13141e-08
4.88696e-08
4.54091e-08
5.84391e-08
1.20615e-07
1.28069e-07
1.21485e-07
1.20683e-07
1.18704e-07
1.18037e-07
1.18626e-07
1.65279e-07
1.41196e-07
1.27019e-07
1.23329e-07
1.25979e-07
1.26084e-07
1.22544e-07
1.22561e-07
1.13103e-07
1.19161e-07
1.0557e-07
1.0738e-07
1.04143e-07
1.07673e-07
1.03902e-07
1.09267e-07
1.10396e-07
1.12319e-07
1.13648e-07
9.32529e-08
2.19494e-08
8.9573e-09
8.65205e-09
1.11106e-08
1.30524e-08
1.61649e-08
1.53655e-08
1.23647e-08
1.007e-08
8.55653e-09
3.55906e-07
1.16377e-07
6.71724e-08
6.60774e-08
6.75146e-08
6.84093e-08
6.84633e-08
6.73742e-08
6.51626e-08
6.36537e-08
6.64827e-08
6.95453e-08
6.5812e-08
7.03254e-08
6.74767e-08
6.90422e-08
6.72492e-08
7.45781e-08
7.87056e-08
8.09054e-08
8.50414e-08
8.44503e-08
4.85229e-08
3.84388e-08
3.60907e-08
3.60828e-08
3.64601e-08
3.6441e-08
3.54799e-08
3.45218e-08
3.33766e-08
3.23498e-08
3.29356e-08
3.36344e-08
3.38027e-08
3.32732e-08
3.32924e-08
3.22322e-08
3.17582e-08
2.88101e-08
3.01711e-08
2.65802e-08
2.74751e-08
2.63415e-08
2.8127e-08
2.82623e-08
3.46688e-08
3.28602e-08
3.88129e-08
3.85279e-08
4.03587e-08
2.98676e-08
1.99794e-08
1.88381e-08
1.95815e-08
1.88908e-08
1.90867e-08
1.88167e-08
1.93774e-08
1.99683e-08
4.69448e-08
5.50629e-08
5.16467e-08
3.04994e-08
1.98105e-08
1.46396e-08
1.69967e-08
2.55435e-08
3.13455e-08
3.44944e-08
4.47023e-08
4.7007e-08
4.7699e-08
4.77013e-08
4.77762e-08
4.75665e-08
4.66649e-08
4.55445e-08
4.3194e-08
3.81062e-08
3.23028e-08
3.07176e-08
2.93912e-08
2.84461e-08
2.67598e-08
2.61694e-08
2.38081e-08
2.09123e-08
1.49043e-08
2.87858e-08
3.48913e-07
3.25671e-07
7.06335e-07
7.29875e-07
4.67779e-07
3.4862e-07
7.63832e-07
3.63113e-09
1.47724e-09
1.37612e-09
1.31613e-09
1.326e-09
1.29912e-09
1.32263e-09
1.34113e-09
1.38605e-09
1.40479e-09
1.71774e-09
1.80943e-09
2.00815e-09
2.15665e-09
2.18819e-09
1.98012e-09
1.49494e-09
1.40494e-09
1.39352e-09
1.44547e-09
1.56113e-09
2.60446e-09
1.78773e-07
1.67173e-06
1.66574e-06
1.5855e-06
1.44173e-06
1.38098e-06
1.25138e-06
1.23721e-06
1.22419e-06
1.24799e-06
1.27527e-06
1.31317e-06
1.44398e-06
1.32426e-06
1.27166e-06
1.11949e-06
1.18666e-06
1.25591e-06
1.29133e-06
1.33631e-06
1.39425e-06
1.42424e-06
1.40825e-06
1.40443e-06
1.39875e-06
1.40084e-06
1.39842e-06
1.4007e-06
1.39362e-06
1.40075e-06
1.38386e-06
1.40929e-06
1.3905e-06
1.40644e-06
1.38949e-06
1.39448e-06
1.36284e-06
1.34698e-06
1.32197e-06
1.29307e-06
1.28607e-06
1.28717e-06
1.24861e-06
1.16139e-06
1.04496e-06
9.22172e-07
1.0439e-06
1.01407e-06
9.8396e-07
8.95662e-07
8.36333e-07
7.7656e-07
7.28186e-07
6.98527e-07
5.71953e-07
5.16348e-07
4.71369e-07
4.32015e-07
4.15606e-07
4.10497e-07
4.15812e-07
4.277e-07
4.47168e-07
4.83366e-07
5.08154e-07
5.72981e-07
6.00209e-07
7.80024e-07
8.30007e-07
9.30969e-07
9.9874e-07
1.07965e-06
1.18976e-06
1.10052e-06
9.35917e-07
4.89129e-07
5.00904e-07
4.76464e-07
4.57428e-07
4.5767e-07
4.57634e-07
4.62181e-07
4.70414e-07
4.75088e-07
4.80488e-07
4.81628e-07
4.84493e-07
4.81552e-07
4.90734e-07
4.71908e-07
4.76171e-07
4.74621e-07
4.69034e-07
4.59406e-07
4.59947e-07
4.65059e-07
4.5803e-07
4.55756e-07
4.60596e-07
4.75091e-07
5.01658e-07
4.87567e-07
3.97938e-07
3.67556e-07
3.7389e-07
1.5624e-07
1.78817e-07
2.04894e-07
2.27061e-07
2.32321e-07
2.29461e-07
2.14842e-07
2.01912e-07
1.86724e-07
1.662e-07
1.58672e-07
1.43729e-07
1.35568e-07
1.32453e-07
1.34586e-07
1.41453e-07
1.53424e-07
1.69573e-07
1.86376e-07
3.02785e-07
3.68036e-07
4.92113e-07
4.64705e-07
3.44057e-07
2.64064e-07
2.4479e-07
2.35645e-07
2.57061e-07
2.84963e-07
3.12169e-07
4.14474e-08
2.91206e-08
3.05846e-08
3.94548e-08
4.77929e-08
5.5768e-08
6.72559e-08
6.77519e-08
5.30949e-08
5.04467e-08
4.91785e-08
4.86897e-08
4.87005e-08
4.88787e-08
4.90894e-08
4.92419e-08
5.09089e-08
5.11433e-08
5.45614e-08
5.60988e-08
6.02959e-08
6.27226e-08
6.66872e-08
6.9146e-08
7.37778e-08
7.70828e-08
7.86733e-08
7.67379e-08
7.8522e-08
7.61128e-08
2.34163e-07
2.64983e-07
2.62496e-07
1.06638e-07
9.0681e-08
9.59041e-08
1.04871e-07
1.82908e-07
2.24961e-07
2.4703e-07
2.54719e-07
2.57383e-07
2.51737e-07
2.48693e-07
2.44164e-07
2.402e-07
2.32575e-07
2.22141e-07
2.10919e-07
1.99976e-07
1.8736e-07
1.70445e-07
9.9343e-08
1.00838e-07
2.88114e-07
6.7308e-07
7.24339e-07
7.25039e-07
7.2076e-07
7.20128e-07
8.94385e-08
3.94341e-08
3.61495e-08
4.25926e-08
5.063e-08
5.33758e-08
5.31476e-08
5.14057e-08
4.71555e-08
4.46405e-08
4.32951e-08
3.883e-08
3.88158e-08
3.89371e-08
3.83651e-08
4.24157e-08
4.26683e-08
4.71322e-08
4.99147e-08
5.15633e-08
5.17241e-08
4.87377e-08
4.91549e-08
6.97733e-08
1.28437e-07
1.17601e-07
1.07225e-07
9.83671e-08
9.77853e-08
1.05275e-07
1.34414e-07
8.94737e-08
1.16565e-07
1.37707e-07
1.49828e-07
1.55215e-07
1.55995e-07
1.54413e-07
1.47658e-07
1.4647e-07
1.41748e-07
1.37257e-07
1.37833e-07
1.33984e-07
1.33733e-07
1.29743e-07
1.23067e-07
1.21412e-07
1.19917e-07
1.14234e-07
6.09214e-08
1.63375e-08
1.1448e-08
2.55139e-08
3.5829e-08
3.62056e-08
3.39049e-08
3.15349e-08
2.55732e-08
1.90298e-08
3.51748e-07
9.53796e-08
6.34575e-08
6.737e-08
6.99894e-08
7.17089e-08
9.07627e-08
9.6296e-08
1.01799e-07
1.04222e-07
1.04452e-07
1.02391e-07
1.0056e-07
9.54065e-08
9.55667e-08
9.7168e-08
9.7187e-08
9.57012e-08
9.31344e-08
8.99711e-08
8.62444e-08
8.93187e-08
6.02897e-08
4.27131e-08
3.6563e-08
3.82932e-08
3.78288e-08
3.95511e-08
4.02947e-08
3.679e-08
3.34845e-08
3.15501e-08
3.30045e-08
3.3776e-08
3.35033e-08
3.30899e-08
3.49545e-08
3.48135e-08
3.42906e-08
3.32717e-08
3.28016e-08
3.20003e-08
3.10982e-08
3.17054e-08
3.16226e-08
3.32177e-08
3.37979e-08
3.58543e-08
3.76932e-08
3.88349e-08
4.03459e-08
3.66055e-08
2.77435e-08
1.89764e-08
1.63027e-08
1.51991e-08
1.42088e-08
1.34321e-08
1.44372e-08
1.58247e-08
2.21655e-08
2.31932e-08
2.45158e-08
1.96637e-08
1.5295e-08
1.67572e-08
2.79303e-08
4.28445e-08
5.33051e-08
5.54504e-08
5.18963e-08
3.69898e-08
3.50544e-08
3.36727e-08
3.29507e-08
3.30071e-08
3.38149e-08
3.43956e-08
4.19558e-08
3.97828e-08
3.12206e-08
2.87882e-08
2.80343e-08
2.65422e-08
2.66893e-08
2.69957e-08
2.56253e-08
2.28717e-08
1.54538e-08
2.48203e-08
7.84025e-09
7.48952e-09
1.05397e-08
6.02287e-08
7.15328e-07
5.96811e-07
1.72191e-08
2.1283e-09
1.51207e-09
1.48536e-09
1.53521e-09
1.60354e-09
1.82745e-09
1.88657e-09
1.9782e-09
2.03652e-09
2.05726e-09
2.23371e-09
2.39467e-09
3.26394e-09
4.28238e-09
6.62255e-09
6.87422e-09
3.96082e-09
2.39614e-09
1.5359e-09
1.47882e-09
1.58985e-09
3.11125e-09
2.61044e-07
1.67113e-06
1.5983e-06
1.45124e-06
1.36519e-06
1.31588e-06
1.27998e-06
1.24997e-06
1.14846e-06
1.16923e-06
1.2069e-06
1.26761e-06
1.31536e-06
1.32777e-06
1.28461e-06
1.12897e-06
1.21466e-06
1.27572e-06
1.32564e-06
1.39312e-06
1.44106e-06
1.43223e-06
1.40049e-06
1.39304e-06
1.39002e-06
1.38847e-06
1.38075e-06
1.36093e-06
1.33581e-06
1.33189e-06
1.319e-06
1.35465e-06
1.35722e-06
1.42305e-06
1.41129e-06
1.45965e-06
1.45091e-06
1.44011e-06
1.39317e-06
1.35001e-06
1.31048e-06
1.29178e-06
1.28252e-06
1.21584e-06
1.08507e-06
9.25995e-07
1.03378e-06
9.96548e-07
9.05845e-07
8.63579e-07
8.08508e-07
7.76733e-07
7.47537e-07
6.94566e-07
5.14594e-07
4.25387e-07
3.70266e-07
3.52431e-07
3.51275e-07
3.58664e-07
3.74097e-07
4.00846e-07
4.26457e-07
4.7373e-07
4.98026e-07
5.6019e-07
5.88754e-07
7.5596e-07
7.98115e-07
8.89749e-07
9.55655e-07
1.0375e-06
1.111e-06
1.1862e-06
9.74922e-07
4.88307e-07
4.93816e-07
4.66778e-07
4.52663e-07
4.61e-07
4.66548e-07
4.76988e-07
4.84961e-07
4.94406e-07
4.9413e-07
5.01726e-07
5.1306e-07
5.18367e-07
5.27474e-07
5.23087e-07
5.36355e-07
6.11994e-07
6.14845e-07
6.11939e-07
5.10199e-07
4.99046e-07
4.88698e-07
4.67053e-07
4.49587e-07
4.55538e-07
4.82108e-07
4.94986e-07
4.42956e-07
3.72736e-07
3.69258e-07
1.72874e-07
2.44555e-07
4.38529e-07
5.11575e-07
5.48202e-07
5.56045e-07
5.4861e-07
5.34599e-07
4.93006e-07
4.5678e-07
3.94824e-07
3.2275e-07
1.9408e-07
1.63693e-07
1.46237e-07
1.37875e-07
1.39862e-07
1.52371e-07
1.68282e-07
1.86029e-07
3.25793e-07
4.32444e-07
4.60876e-07
3.20286e-07
2.28624e-07
2.20556e-07
2.20034e-07
2.33277e-07
2.41285e-07
2.74849e-07
4.03613e-08
2.97525e-08
3.63755e-08
4.81955e-08
5.49148e-08
7.10611e-08
5.15427e-08
4.57317e-08
4.3943e-08
4.41328e-08
4.5807e-08
4.79264e-08
4.96894e-08
5.10414e-08
5.20159e-08
5.27469e-08
5.44656e-08
5.41693e-08
5.70801e-08
5.738e-08
5.97208e-08
6.18239e-08
6.4255e-08
6.66547e-08
6.92585e-08
7.3765e-08
7.70175e-08
7.76746e-08
7.42322e-08
7.00999e-08
2.40517e-07
2.45262e-07
9.49146e-08
8.06851e-08
1.00229e-07
2.23551e-07
3.00547e-07
3.2529e-07
3.31118e-07
3.16242e-07
3.02853e-07
2.86594e-07
2.67171e-07
2.55738e-07
2.42562e-07
2.34654e-07
2.28333e-07
2.30257e-07
2.30228e-07
2.28651e-07
2.22279e-07
2.06333e-07
1.80249e-07
1.53438e-07
1.86084e-07
3.36981e-07
6.60752e-07
7.0355e-07
7.06248e-07
7.19258e-07
4.06482e-08
3.28062e-08
4.78604e-08
5.6187e-08
5.60374e-08
5.33856e-08
4.90455e-08
4.34628e-08
4.01611e-08
3.76735e-08
3.40467e-08
3.13785e-08
3.06153e-08
3.09216e-08
3.01667e-08
3.37368e-08
3.65064e-08
4.17089e-08
4.41717e-08
5.01346e-08
5.09072e-08
5.13243e-08
4.89994e-08
5.51618e-08
9.94205e-08
1.19376e-07
1.05963e-07
8.87118e-08
7.85109e-08
9.0944e-08
8.27581e-08
1.11473e-07
1.43716e-07
1.60022e-07
1.65536e-07
1.6793e-07
2.53563e-07
2.62272e-07
2.61657e-07
2.71587e-07
2.68762e-07
2.78193e-07
2.74266e-07
2.74932e-07
2.58678e-07
2.37766e-07
1.46541e-07
1.396e-07
1.28714e-07
1.24962e-07
1.11934e-07
4.77165e-08
1.54853e-08
2.69278e-08
4.03285e-08
3.64637e-08
2.67614e-08
3.16263e-08
3.61211e-08
3.10693e-08
3.11058e-07
6.30133e-08
6.78099e-08
7.042e-08
7.12976e-08
9.45031e-08
1.0902e-07
1.198e-07
1.26931e-07
2.01778e-07
2.20563e-07
2.25046e-07
2.24824e-07
2.32241e-07
2.29993e-07
2.18004e-07
2.0402e-07
1.85519e-07
1.13211e-07
1.06367e-07
9.79242e-08
9.44918e-08
8.41731e-08
5.24966e-08
3.89973e-08
3.74854e-08
4.04946e-08
4.45982e-08
4.64059e-08
4.06876e-08
3.29052e-08
3.09584e-08
3.2702e-08
3.26677e-08
3.32041e-08
3.61107e-08
3.80337e-08
3.8363e-08
4.76196e-08
5.1916e-08
5.72941e-08
6.02621e-08
6.30545e-08
6.33242e-08
6.4401e-08
6.17127e-08
5.88912e-08
5.56022e-08
5.01585e-08
4.02386e-08
4.0208e-08
3.90069e-08
3.67003e-08
2.26502e-08
1.62799e-08
1.28212e-08
1.14775e-08
1.18692e-08
1.38356e-08
1.36346e-08
1.75043e-08
1.81678e-08
1.57532e-08
1.52871e-08
1.68762e-08
2.8516e-08
4.5985e-08
5.50695e-08
4.677e-08
3.60872e-08
3.10782e-08
2.81394e-08
2.36936e-08
2.33337e-08
2.28468e-08
2.21743e-08
2.61568e-08
2.88021e-08
3.16116e-08
3.23592e-08
2.99209e-08
2.59009e-08
2.39835e-08
2.47063e-08
2.72904e-08
2.91823e-08
2.84257e-08
2.54249e-08
1.84615e-08
2.25339e-08
6.63005e-09
6.4331e-09
1.09476e-08
9.29774e-08
7.86917e-07
7.44678e-08
3.37085e-09
1.82096e-09
1.62185e-09
2.03411e-09
2.17198e-09
2.48658e-09
2.62139e-09
2.70063e-09
2.66949e-09
2.7337e-09
2.47864e-09
2.46122e-09
2.40793e-09
2.50478e-09
3.70981e-09
7.31335e-09
1.33573e-08
1.39618e-08
7.59902e-09
2.72518e-09
2.17763e-09
2.54333e-09
5.9498e-09
5.98151e-07
1.66196e-06
1.58653e-06
1.51537e-06
1.46018e-06
1.41405e-06
1.37667e-06
1.35738e-06
1.34094e-06
1.25748e-06
1.27012e-06
1.25259e-06
1.28855e-06
1.31284e-06
1.29104e-06
1.14096e-06
1.24106e-06
1.29774e-06
1.36561e-06
1.43673e-06
1.45164e-06
1.40213e-06
1.38248e-06
1.36403e-06
1.35672e-06
1.33783e-06
1.29882e-06
1.25805e-06
1.21709e-06
1.19911e-06
1.20466e-06
1.27991e-06
1.33257e-06
1.41271e-06
1.43972e-06
1.50014e-06
1.49923e-06
1.50068e-06
1.47232e-06
1.4006e-06
1.34656e-06
1.31157e-06
1.29465e-06
1.25198e-06
1.11227e-06
9.27823e-07
1.022e-06
9.82477e-07
8.98205e-07
8.76328e-07
8.58377e-07
8.55e-07
8.21043e-07
7.01345e-07
4.73493e-07
3.65361e-07
3.35171e-07
3.50553e-07
3.9126e-07
4.37116e-07
4.83147e-07
5.20484e-07
5.62398e-07
6.76351e-07
7.08399e-07
7.53992e-07
7.67659e-07
8.2818e-07
8.41716e-07
9.03102e-07
9.49108e-07
1.01907e-06
1.09087e-06
1.18741e-06
9.97432e-07
4.86975e-07
4.90669e-07
4.60469e-07
4.60693e-07
4.70214e-07
4.82591e-07
4.89846e-07
4.98479e-07
4.90803e-07
4.97757e-07
5.10422e-07
5.2771e-07
5.46487e-07
6.38893e-07
6.62346e-07
6.64937e-07
6.71985e-07
6.77359e-07
6.79642e-07
6.69948e-07
6.28633e-07
5.20149e-07
4.95449e-07
4.61263e-07
4.43234e-07
4.59777e-07
4.86567e-07
4.73198e-07
4.078e-07
3.7749e-07
2.40166e-07
4.29925e-07
5.2584e-07
5.86093e-07
6.20715e-07
6.33011e-07
6.36353e-07
6.16274e-07
6.22287e-07
5.87968e-07
5.73842e-07
5.33169e-07
4.58939e-07
3.53633e-07
1.88765e-07
1.55368e-07
1.40566e-07
1.43065e-07
1.55503e-07
1.73555e-07
2.94728e-07
3.70477e-07
4.52204e-07
3.52106e-07
2.40394e-07
2.31154e-07
2.51015e-07
2.35644e-07
1.46238e-07
2.26502e-07
3.89023e-08
3.32365e-08
4.30922e-08
5.28162e-08
6.63578e-08
4.96735e-08
4.19056e-08
4.077e-08
4.27007e-08
4.69433e-08
5.02773e-08
5.23212e-08
5.43483e-08
5.6095e-08
5.74816e-08
5.91194e-08
6.01836e-08
6.24954e-08
6.26057e-08
6.4424e-08
6.53648e-08
6.40724e-08
6.49296e-08
6.61018e-08
6.72018e-08
7.07755e-08
7.51746e-08
7.76839e-08
7.45109e-08
6.82432e-08
2.36792e-07
1.1026e-07
6.71259e-08
1.00182e-07
2.74875e-07
3.37539e-07
3.50023e-07
3.29204e-07
3.03162e-07
2.79165e-07
2.5181e-07
2.27099e-07
1.96065e-07
1.75247e-07
1.05833e-07
1.05494e-07
1.0589e-07
1.06264e-07
1.81992e-07
2.02744e-07
2.18295e-07
2.21501e-07
2.07211e-07
1.74638e-07
1.62159e-07
2.28151e-07
4.45539e-07
5.76694e-07
6.32525e-07
7.06493e-07
2.52833e-08
4.50082e-08
5.72195e-08
5.51391e-08
5.15282e-08
4.64998e-08
4.1148e-08
3.65029e-08
3.37845e-08
3.12852e-08
2.70897e-08
2.43072e-08
2.32875e-08
2.27095e-08
2.39593e-08
2.37862e-08
2.90278e-08
3.3911e-08
3.80006e-08
4.63051e-08
4.83014e-08
5.19517e-08
5.0148e-08
4.88032e-08
6.47268e-08
1.12976e-07
1.16291e-07
9.10204e-08
6.27931e-08
6.71437e-08
1.12421e-07
1.37594e-07
1.54685e-07
1.6016e-07
1.63427e-07
2.45056e-07
2.64794e-07
2.88116e-07
3.07104e-07
3.1933e-07
3.37854e-07
3.36018e-07
3.45097e-07
3.39601e-07
3.30373e-07
3.14477e-07
2.78024e-07
1.62069e-07
1.45234e-07
1.35919e-07
1.31096e-07
9.21756e-08
2.66478e-08
2.32595e-08
3.81278e-08
2.93247e-08
2.49041e-08
2.71993e-08
3.73387e-08
3.64844e-08
1.60098e-07
6.24509e-08
6.97392e-08
6.9562e-08
8.89208e-08
1.09418e-07
1.26401e-07
2.1401e-07
2.60288e-07
2.94644e-07
3.0755e-07
3.1777e-07
3.27857e-07
3.17753e-07
3.12283e-07
3.15471e-07
2.93512e-07
2.68763e-07
2.37425e-07
1.92845e-07
1.10419e-07
9.99543e-08
9.34816e-08
6.94918e-08
4.61488e-08
3.72387e-08
3.75439e-08
4.34308e-08
4.80074e-08
4.18322e-08
3.0623e-08
3.18474e-08
3.15246e-08
3.19851e-08
3.59729e-08
3.88689e-08
4.07941e-08
5.76708e-08
6.76349e-08
7.86956e-08
8.75206e-08
1.68576e-07
1.90328e-07
2.01956e-07
1.81931e-07
1.65499e-07
8.58436e-08
7.98014e-08
6.97516e-08
6.05696e-08
5.16997e-08
4.11566e-08
3.87324e-08
3.19109e-08
1.88226e-08
1.10515e-08
1.13061e-08
1.43281e-08
1.60567e-08
1.56673e-08
1.52237e-08
1.50553e-08
1.51966e-08
1.65459e-08
2.57935e-08
3.57988e-08
5.49942e-08
3.96929e-08
3.52985e-08
3.01467e-08
2.60694e-08
2.61502e-08
2.65217e-08
2.59582e-08
2.51571e-08
2.35899e-08
2.23806e-08
2.30329e-08
2.76966e-08
3.1637e-08
2.98167e-08
2.35218e-08
2.22332e-08
2.64033e-08
3.0727e-08
3.45758e-08
3.38834e-08
2.87025e-08
2.03146e-08
2.10328e-08
1.01417e-08
8.69404e-09
3.13819e-08
2.07903e-07
6.71269e-08
6.04134e-09
2.12779e-09
1.78967e-09
2.14195e-09
2.65277e-09
3.0352e-09
3.37128e-09
4.11827e-09
4.31212e-09
4.55254e-09
4.23735e-09
3.82943e-09
3.21503e-09
2.77552e-09
2.59673e-09
2.42838e-09
3.82546e-09
1.12058e-08
2.34186e-08
2.19607e-08
1.04829e-08
6.16704e-09
6.1924e-09
1.59611e-08
8.30866e-07
1.66986e-06
1.62583e-06
1.54192e-06
1.48185e-06
1.42328e-06
1.40533e-06
1.41156e-06
1.39981e-06
1.38489e-06
1.31424e-06
1.26529e-06
1.29656e-06
1.30491e-06
1.2937e-06
1.1691e-06
1.24385e-06
1.3171e-06
1.3622e-06
1.44366e-06
1.4351e-06
1.38199e-06
1.35227e-06
1.34393e-06
1.32167e-06
1.29789e-06
1.25428e-06
1.18141e-06
1.10085e-06
1.09067e-06
1.11571e-06
1.26214e-06
1.33816e-06
1.45772e-06
1.491e-06
1.54178e-06
1.5375e-06
1.54905e-06
1.51143e-06
1.46507e-06
1.38381e-06
1.32501e-06
1.30955e-06
1.27433e-06
1.13337e-06
9.342e-07
1.01248e-06
9.11639e-07
8.94684e-07
9.12256e-07
9.28926e-07
9.38864e-07
8.89812e-07
7.32473e-07
4.64986e-07
3.5219e-07
3.5006e-07
4.07272e-07
4.9841e-07
5.83427e-07
7.43618e-07
7.94865e-07
8.21597e-07
8.51412e-07
8.57072e-07
8.91004e-07
8.69696e-07
9.07091e-07
8.92837e-07
9.33627e-07
9.57641e-07
1.01084e-06
1.07527e-06
1.18038e-06
1.00427e-06
4.84752e-07
4.85869e-07
4.61868e-07
4.67797e-07
4.87565e-07
4.98807e-07
5.07943e-07
4.93633e-07
4.85598e-07
4.92186e-07
5.0996e-07
5.35089e-07
6.43661e-07
6.63426e-07
6.83439e-07
6.98738e-07
7.01078e-07
7.00864e-07
7.0303e-07
7.05964e-07
6.88988e-07
6.42818e-07
5.18573e-07
4.81224e-07
4.47995e-07
4.54342e-07
4.78338e-07
4.86064e-07
4.42101e-07
3.88562e-07
2.38579e-07
4.06078e-07
5.06812e-07
5.7702e-07
6.09373e-07
6.26617e-07
6.1223e-07
6.18836e-07
6.06081e-07
6.27434e-07
6.22322e-07
6.00602e-07
5.70312e-07
4.92709e-07
3.72118e-07
1.86181e-07
1.53919e-07
1.43625e-07
1.49262e-07
1.65209e-07
2.70841e-07
3.31338e-07
4.17183e-07
4.03776e-07
2.9049e-07
2.82092e-07
2.96579e-07
2.54179e-07
1.354e-07
1.38093e-07
3.91122e-08
3.62757e-08
4.81312e-08
6.39782e-08
5.09468e-08
4.20807e-08
3.79088e-08
4.07303e-08
4.60341e-08
4.95349e-08
5.22565e-08
5.49644e-08
5.65666e-08
5.93967e-08
6.29998e-08
6.44259e-08
6.79956e-08
6.70535e-08
7.1029e-08
6.85797e-08
7.11728e-08
7.08501e-08
6.75649e-08
6.76823e-08
6.7416e-08
6.8962e-08
8.48267e-08
7.7279e-08
7.4831e-08
6.76082e-08
2.06681e-07
8.31348e-08
8.21591e-08
2.59447e-07
3.40277e-07
3.31518e-07
3.01426e-07
2.69018e-07
2.47212e-07
2.27262e-07
1.91419e-07
1.14069e-07
1.03643e-07
9.67884e-08
8.90561e-08
8.91773e-08
8.76899e-08
9.29429e-08
9.79394e-08
1.05793e-07
1.86064e-07
2.12033e-07
2.17241e-07
1.9658e-07
1.67346e-07
1.82323e-07
2.69307e-07
4.23201e-07
4.91931e-07
6.85733e-07
2.52166e-08
5.47661e-08
5.427e-08
5.08263e-08
4.62889e-08
4.13397e-08
3.72365e-08
3.30706e-08
3.01302e-08
2.45377e-08
2.37931e-08
2.21067e-08
2.05101e-08
2.00304e-08
2.00555e-08
2.19657e-08
2.23561e-08
2.5962e-08
3.18742e-08
4.0215e-08
4.57268e-08
5.1131e-08
5.078e-08
4.89359e-08
5.54514e-08
8.78022e-08
1.09596e-07
8.8458e-08
5.95352e-08
6.25485e-08
1.28625e-07
1.44132e-07
1.52632e-07
1.55985e-07
1.60476e-07
2.57764e-07
3.0439e-07
3.52119e-07
3.87825e-07
4.26709e-07
4.36612e-07
4.43746e-07
4.29311e-07
4.20993e-07
4.06863e-07
3.83126e-07
3.47447e-07
3.05556e-07
2.4385e-07
1.51172e-07
1.39539e-07
1.24832e-07
5.20549e-08
2.3941e-08
2.71335e-08
2.7012e-08
2.51687e-08
3.05543e-08
4.25507e-08
4.00143e-08
1.19203e-07
6.97619e-08
6.74873e-08
6.69105e-08
1.01295e-07
1.23284e-07
2.18431e-07
2.77425e-07
3.27599e-07
3.47975e-07
3.67164e-07
3.80784e-07
3.80238e-07
4.48234e-07
4.52231e-07
3.63137e-07
3.57176e-07
3.35227e-07
2.98269e-07
2.5301e-07
1.91032e-07
1.07888e-07
9.81823e-08
8.50758e-08
5.2329e-08
4.01964e-08
3.57096e-08
4.26578e-08
4.71043e-08
4.21437e-08
2.88981e-08
2.60719e-08
2.95963e-08
3.40672e-08
3.74727e-08
3.98983e-08
5.85962e-08
7.33542e-08
9.20705e-08
2.02202e-07
2.76016e-07
3.30243e-07
4.48255e-07
4.42331e-07
4.30581e-07
3.16053e-07
2.66614e-07
2.00079e-07
1.40341e-07
7.79573e-08
6.38405e-08
4.98447e-08
4.07852e-08
3.55774e-08
2.16721e-08
1.30018e-08
1.11397e-08
1.49688e-08
1.75755e-08
1.71788e-08
1.51021e-08
1.51745e-08
1.60756e-08
2.30492e-08
3.34807e-08
5.32718e-08
4.98881e-08
3.72943e-08
3.12736e-08
2.86294e-08
3.0373e-08
3.16094e-08
3.24664e-08
3.1686e-08
2.95837e-08
2.68397e-08
2.42112e-08
2.15112e-08
2.34987e-08
2.92382e-08
3.00166e-08
2.26909e-08
2.1543e-08
2.86614e-08
4.59987e-08
6.38849e-08
5.92193e-08
3.36171e-08
2.18443e-08
2.00541e-08
1.62435e-08
1.10804e-08
3.24264e-08
3.34042e-08
9.05183e-09
2.50042e-09
1.8992e-09
2.18159e-09
2.83066e-09
3.44021e-09
4.74592e-09
5.86037e-09
6.68475e-09
8.30908e-09
8.40724e-09
6.85069e-09
5.94372e-09
5.23757e-09
3.72287e-09
3.07558e-09
2.55132e-09
2.45359e-09
4.24862e-09
1.80261e-08
2.56408e-08
1.96443e-08
1.2762e-08
1.48815e-08
5.29636e-08
7.54941e-07
1.66231e-06
1.6043e-06
1.51485e-06
1.4794e-06
1.44355e-06
1.48634e-06
1.52452e-06
1.51622e-06
1.49111e-06
1.46686e-06
1.40486e-06
1.32069e-06
1.31792e-06
1.29403e-06
1.171e-06
1.2556e-06
1.29356e-06
1.3507e-06
1.45882e-06
1.42758e-06
1.35682e-06
1.31861e-06
1.3217e-06
1.31135e-06
1.28782e-06
1.25755e-06
1.1328e-06
1.02867e-06
9.31051e-07
1.06116e-06
1.23358e-06
1.37304e-06
1.48388e-06
1.53792e-06
1.50993e-06
1.52088e-06
1.52145e-06
1.53921e-06
1.48941e-06
1.41473e-06
1.34428e-06
1.31548e-06
1.27876e-06
1.14142e-06
9.27464e-07
1.00137e-06
9.00555e-07
9.13956e-07
9.48502e-07
1.0196e-06
1.02499e-06
9.80305e-07
7.74357e-07
4.88781e-07
3.64645e-07
3.62239e-07
4.4825e-07
5.71917e-07
7.71905e-07
8.4575e-07
8.75189e-07
8.90795e-07
8.89632e-07
8.95226e-07
8.94067e-07
9.03798e-07
9.23549e-07
9.11976e-07
9.56138e-07
9.47972e-07
1.0051e-06
1.05344e-06
1.17153e-06
9.97045e-07
4.87662e-07
4.82689e-07
4.68912e-07
4.85145e-07
5.03729e-07
5.12175e-07
5.1533e-07
4.94732e-07
4.82743e-07
4.84451e-07
5.01697e-07
5.27893e-07
6.37427e-07
6.68807e-07
6.81144e-07
7.15753e-07
7.25576e-07
7.45726e-07
7.28595e-07
7.1461e-07
7.06324e-07
6.70184e-07
6.2743e-07
4.99997e-07
4.63904e-07
4.51665e-07
4.78067e-07
4.87864e-07
4.54111e-07
3.91968e-07
2.19606e-07
3.73141e-07
4.89466e-07
5.63589e-07
6.00752e-07
5.96531e-07
5.9889e-07
5.95632e-07
5.95944e-07
5.87765e-07
5.9321e-07
6.11308e-07
5.97185e-07
5.57032e-07
4.64818e-07
3.41343e-07
1.79248e-07
1.54628e-07
1.52462e-07
1.62203e-07
2.61696e-07
3.0691e-07
3.78547e-07
4.1926e-07
3.68629e-07
3.4932e-07
3.39291e-07
2.4958e-07
1.20376e-07
1.22355e-07
3.95516e-08
4.05084e-08
5.26071e-08
6.22282e-08
4.4135e-08
3.76241e-08
3.78242e-08
4.3326e-08
4.76692e-08
5.07873e-08
5.41227e-08
5.72808e-08
6.07808e-08
6.43365e-08
6.76126e-08
7.13936e-08
7.3146e-08
7.59159e-08
7.51959e-08
7.64476e-08
7.42193e-08
7.52585e-08
7.24199e-08
6.88367e-08
6.89802e-08
6.91707e-08
8.22739e-08
7.58842e-08
7.50067e-08
6.57948e-08
1.12535e-07
7.43507e-08
1.09995e-07
3.17419e-07
3.12557e-07
2.57781e-07
2.17049e-07
2.09603e-07
2.05745e-07
1.93068e-07
1.10873e-07
1.05257e-07
8.91491e-08
8.27467e-08
7.469e-08
6.86391e-08
7.017e-08
7.52513e-08
8.35221e-08
9.39675e-08
1.02754e-07
1.87299e-07
2.14776e-07
2.08414e-07
1.8117e-07
1.72448e-07
2.24111e-07
2.91439e-07
4.11093e-07
6.67355e-07
2.89031e-08
5.60875e-08
4.91612e-08
4.7093e-08
4.29673e-08
3.85483e-08
3.51503e-08
3.08713e-08
2.6213e-08
2.37213e-08
2.25041e-08
2.005e-08
1.94929e-08
1.88572e-08
1.81257e-08
1.85223e-08
2.00812e-08
2.37662e-08
2.55926e-08
3.6306e-08
4.41134e-08
4.91247e-08
5.08061e-08
4.89352e-08
5.01025e-08
6.21889e-08
8.84846e-08
6.59315e-08
5.67946e-08
5.93393e-08
1.26779e-07
1.42776e-07
1.48235e-07
1.51178e-07
1.62251e-07
2.8404e-07
3.5886e-07
4.26819e-07
4.7788e-07
6.00591e-07
6.1717e-07
6.30179e-07
6.33236e-07
5.97495e-07
5.63338e-07
4.43834e-07
4.1046e-07
3.64468e-07
3.06975e-07
1.65113e-07
1.49249e-07
1.38951e-07
6.94709e-08
2.90781e-08
2.53148e-08
2.50353e-08
2.75409e-08
4.5885e-08
5.44963e-08
4.36916e-08
8.38823e-08
7.22059e-08
6.39124e-08
8.66275e-08
1.09183e-07
1.31352e-07
2.59801e-07
3.12384e-07
3.56609e-07
3.74879e-07
4.90606e-07
4.90243e-07
4.87603e-07
4.90461e-07
4.74101e-07
4.79922e-07
4.5854e-07
3.68038e-07
3.36452e-07
2.95814e-07
2.32516e-07
1.13441e-07
1.0314e-07
9.05024e-08
6.64923e-08
4.66258e-08
3.98139e-08
4.18444e-08
4.18153e-08
3.77768e-08
2.84056e-08
2.52223e-08
3.16455e-08
3.54297e-08
3.7729e-08
4.65847e-08
6.54585e-08
9.08564e-08
2.17916e-07
3.151e-07
5.17326e-07
6.24219e-07
6.45193e-07
6.55767e-07
6.36718e-07
6.09215e-07
4.86697e-07
3.17833e-07
2.32597e-07
1.59575e-07
7.58978e-08
6.20321e-08
4.19227e-08
3.80431e-08
2.5213e-08
1.45268e-08
1.12451e-08
1.53676e-08
1.88987e-08
1.85631e-08
1.52173e-08
1.55851e-08
1.94524e-08
2.87584e-08
4.55847e-08
5.12147e-08
4.02976e-08
3.58385e-08
3.02523e-08
3.31736e-08
3.61825e-08
4.4451e-08
4.71432e-08
4.46104e-08
4.10548e-08
3.17365e-08
2.67577e-08
2.3283e-08
2.04288e-08
2.5266e-08
3.1212e-08
2.24877e-08
2.04325e-08
3.18702e-08
7.2102e-08
1.66164e-07
8.64887e-08
4.88905e-08
2.25081e-08
2.12449e-08
2.73691e-08
1.10357e-08
1.34931e-08
8.72852e-09
3.40915e-09
2.11523e-09
2.1145e-09
2.7049e-09
3.52231e-09
5.16282e-09
6.80659e-09
9.96062e-09
1.24623e-08
1.48822e-08
1.52499e-08
1.28029e-08
9.86505e-09
6.96871e-09
5.27624e-09
4.02291e-09
2.93793e-09
2.47057e-09
2.40818e-09
7.37909e-09
2.68504e-08
2.35734e-08
2.03966e-08
3.22762e-08
2.94526e-07
6.10597e-07
1.67343e-06
1.55654e-06
1.49841e-06
1.45667e-06
1.49314e-06
1.56343e-06
1.60465e-06
1.62057e-06
1.60031e-06
1.57247e-06
1.49071e-06
1.36054e-06
1.32516e-06
1.29913e-06
1.17204e-06
1.24609e-06
1.25876e-06
1.33077e-06
1.42066e-06
1.42113e-06
1.34287e-06
1.28699e-06
1.28315e-06
1.28254e-06
1.30366e-06
1.27339e-06
1.12753e-06
9.0605e-07
8.30246e-07
9.35124e-07
1.19426e-06
1.38999e-06
1.49114e-06
1.54073e-06
1.50289e-06
1.53369e-06
1.52365e-06
1.55024e-06
1.49753e-06
1.42157e-06
1.35264e-06
1.31752e-06
1.28236e-06
1.13404e-06
9.3031e-07
9.81178e-07
8.69497e-07
8.8717e-07
9.44829e-07
1.02225e-06
1.0263e-06
9.89661e-07
8.12448e-07
5.2459e-07
3.60852e-07
3.40768e-07
4.38137e-07
5.70486e-07
7.81266e-07
8.5933e-07
8.86915e-07
8.9513e-07
8.92473e-07
8.79869e-07
8.79268e-07
8.75888e-07
8.99225e-07
9.06244e-07
9.3521e-07
9.59658e-07
9.84392e-07
1.0492e-06
1.16262e-06
9.77057e-07
4.86474e-07
4.87362e-07
4.7431e-07
4.97685e-07
5.18418e-07
5.14237e-07
5.08643e-07
4.96176e-07
4.82434e-07
4.70291e-07
4.87386e-07
5.18587e-07
6.1721e-07
6.62128e-07
6.78677e-07
7.28564e-07
7.4483e-07
7.56328e-07
7.54266e-07
7.40121e-07
7.20876e-07
6.91689e-07
6.26913e-07
5.18213e-07
4.73322e-07
4.59643e-07
4.8315e-07
4.96695e-07
4.63657e-07
3.90582e-07
2.04518e-07
3.66251e-07
4.88973e-07
5.62873e-07
5.78888e-07
5.8852e-07
5.90337e-07
5.836e-07
5.92878e-07
6.01377e-07
6.10712e-07
6.06341e-07
6.08692e-07
5.71967e-07
4.98539e-07
3.90444e-07
2.85747e-07
1.67772e-07
1.59077e-07
1.65538e-07
2.62475e-07
2.97533e-07
3.49506e-07
4.22595e-07
4.14666e-07
3.98821e-07
3.53344e-07
1.4337e-07
9.99945e-08
1.02225e-07
4.03812e-08
4.56021e-08
6.42059e-08
4.79652e-08
3.907e-08
3.65789e-08
3.83401e-08
4.28534e-08
4.72388e-08
5.18043e-08
5.53298e-08
5.90062e-08
6.42231e-08
6.95544e-08
7.22661e-08
7.55495e-08
7.76696e-08
7.79225e-08
8.01582e-08
7.95731e-08
8.05981e-08
7.61739e-08
7.63371e-08
7.19207e-08
6.88237e-08
6.97048e-08
8.249e-08
7.54004e-08
7.40064e-08
6.34673e-08
1.03129e-07
7.92741e-08
2.42908e-07
2.91927e-07
2.32784e-07
1.08236e-07
1.05866e-07
1.09834e-07
1.14669e-07
1.1731e-07
1.05421e-07
9.73997e-08
8.24615e-08
7.31615e-08
5.54808e-08
5.6184e-08
5.36356e-08
5.4173e-08
7.01767e-08
8.50548e-08
9.73198e-08
1.62519e-07
2.04681e-07
2.14177e-07
1.90956e-07
1.74171e-07
2.07988e-07
2.58298e-07
3.21588e-07
6.23297e-07
3.98689e-08
4.93293e-08
4.73104e-08
4.53472e-08
4.12241e-08
3.70584e-08
3.35523e-08
3.0706e-08
2.56669e-08
2.28329e-08
2.17476e-08
1.94234e-08
1.83413e-08
1.70143e-08