/*--------------------------------*- C++ -*----------------------------------*\
| =========                 |                                                 |
| \\      /  F ield         | OpenFOAM: The Open Source CFD Toolbox           |
|  \\    /   O peration     | Version:  2.1.1                                 |
|   \\  /    A nd           | Web:      www.OpenFOAM.org                      |
|    \\/     M anipulation  |                                                 |
\*---------------------------------------------------------------------------*/
FoamFile
{
    version     2.0;
    format      ascii;
    class       volScalarField;
    location    "0.006050000";
    object      p;
}
// * * * * * * * * * * * * * * * * * * * * * * * * * * * * * * * * * * * * * //

dimensions      [1 -1 -2 0 0 0 0];

internalField   nonuniform List<scalar> 
12384
(
870758
870690
870728
870353
871282
870420
872306
871449
873540
873125
874232
873967
873890
874335
893470
894851
895382
897190
898548
899206
898927
899973
898991
899582
896799
897339
891729
893316
883010
878916
879482
864432
869879
855716
861386
853221
857570
857448
860414
860524
860801
859986
860058
860233
833142
834083
834831
833884
836201
834175
839279
839188
843248
844889
848026
849763
850232
849939
848903
847750
849926
845956
856931
848996
869979
857805
891239
886489
913546
917367
930208
933684
939122
942305
886963
886301
887288
884915
886853
886104
886943
886418
886433
884263
882639
877180
872062
862861
864599
848097
851217
846650
848857
856787
858838
862073
865843
865737
863926
861065
858073
859328
859427
857946
910314
915315
914175
909156
898036
889051
871458
868510
851695
857609
852270
856624
859784
860546
861632
862194
861802
859936
856198
851576
844684
842642
831736
830560
816892
820764
808165
811722
805076
805810
784262
787387
784887
791197
788404
796424
794973
801168
802485
805162
805623
805875
804753
803641
803470
799766
808249
800758
819543
811742
834229
829538
845695
845537
851984
853491
854840
854872
857103
856635
853025
853142
852824
855009
854606
855438
850965
851974
840201
844003
826512
832987
814329
822100
807591
814285
810062
812053
814737
817848
819249
818629
815081
810814
805801
801170
795185
795421
791302
791457
821729
823748
824426
826060
827405
826723
822973
819026
816040
800895
794448
795491
788556
789810
781320
807639
798121
824387
831358
838188
842339
846514
849511
849190
848319
847356
847630
847938
846226
845300
890169
889509
889988
888309
883626
877939
867494
859079
839241
843075
821617
828347
819191
829782
824794
840439
840001
846560
848901
849778
851288
851021
852196
849797
849956
847394
844871
845550
841554
842714
895372
893951
895205
895003
895809
895485
891951
885707
876599
868208
848912
843421
832554
830512
826254
828859
833811
846536
853385
861971
866704
870360
873000
874210
874987
874767
875546
875455
874456
873213
881058
878569
879150
874831
873237
869316
861991
855480
846204
825037
830638
806165
812702
802704
802143
811026
836139
834178
855154
854540
864077
862635
869271
868489
875776
874435
877694
878954
880193
878955
872230
871050
874414
873256
877728
877217
880193
880135
881203
881988
882506
883544
885117
885946
886623
886337
885001
883520
880551
873418
870732
864167
864116
856786
859260
855094
856798
858414
858359
859608
916875
917290
915603
914302
911658
910642
909566
907660
906541
904290
899959
901460
895735
896567
894781
900605
898864
908693
907323
914033
915586
915466
918723
917281
920052
919216
920193
919343
919317
918894
870231
870687
870708
870548
870812
870760
871688
871560
873173
872997
873811
874049
874307
874521
894601
894464
895846
896472
897831
898088
899317
898531
899217
897210
897366
894420
893237
887356
887608
875600
878680
864214
867698
855593
858203
851714
852858
856516
857297
859795
860964
861357
861099
860920
835645
834181
834957
834259
836201
835002
838612
838756
842744
845233
846981
848453
848826
848024
847055
847107
845856
846465
852083
849967
866006
860298
885938
883480
908786
914743
928130
935388
939726
943933
887174
886038
886375
885435
886352
885038
884338
884652
883210
882207
877642
873580
865653
865115
847473
847691
845273
841996
837266
842637
852606
855924
859067
862580
862145
859920
857661
857633
857110
857448
904508
908775
907282
900690
891270
879326
864979
857666
853626
842990
852943
853212
852432
855204
856077
856770
857137
857009
855447
851320
845798
842155
832388
827881
816493
818208
807259
808077
805617
802990
784956
787363
785624
790325
789936
795440
796846
800427
802706
804356
805169
804936
804205
803004
801566
800006
805455
801648
816239
813357
829512
830406
841338
842364
850865
852125
854886
854859
856253
856475
852312
852635
853249
854694
855044
854131
851192
849790
841005
839500
827401
828384
815514
817135
808712
809648
810564
811104
811295
813876
816952
817152
815285
811436
806327
802113
795777
794762
791013
792140
822130
822688
824246
825480
825838
824250
822853
816771
807653
799333
799542
783024
781621
783629
780986
799212
798946
816919
825371
836324
840581
849084
849353
849955
850162
848850
848653
847179
847055
846003
885177
885822
885489
883091
878690
871112
860501
852769
837310
831446
825038
816011
819775
818309
824260
834256
835971
847319
849197
852521
852408
852456
851538
851666
848167
848850
844721
844654
841589
841757
892464
891747
891746
891596
892017
890565
886535
880647
869361
858348
845754
836669
825845
815692
814508
821876
829130
838853
845954
856475
863730
869611
872244
873494
873679
873710
872757
872801
871217
868964
880312
875959
874935
873770
871009
866084
861652
849918
840813
826092
816788
807785
796689
800301
799778
810561
815210
833259
844189
854072
858916
863244
866824
867444
871143
875409
875101
877187
879174
877959
871482
872404
873471
873872
876952
878656
879928
880688
880569
880785
881134
881424
882776
883832
884410
884479
884312
880710
879302
874055
867269
864550
864918
855700
854943
856775
856006
857467
859395
861304
916910
916630
915044
913833
911324
911626
910086
909432
906748
904301
899353
897012
892972
890900
894355
896700
897164
906199
906488
912454
913072
916563
916279
917474
918473
919385
919347
919345
919349
919312
871737
871112
870873
870479
870851
870449
872014
871562
872687
873155
873551
873925
874400
874582
894855
895065
895422
896585
897325
898597
898779
898775
898638
896756
895961
893518
891783
886379
885242
875473
876894
862321
867250
851928
857916
848756
851723
851572
855566
857095
859090
860573
861209
861406
835664
835656
834681
835230
836019
836224
838476
839232
842452
844833
846858
847048
846951
846479
846104
845137
846630
843478
852826
846059
865519
856218
884123
878108
905873
910124
924476
932830
938769
943517
887437
885804
886814
884270
886043
882873
882902
881449
881281
877378
874113
867789
861711
852426
842072
842897
832790
833525
837393
830897
836169
847985
851673
853748
856612
857140
856595
857321
856857
855934
899580
901834
897014
890795
879762
867718
856523
849693
836676
843110
835320
839843
845587
845261
848521
850062
850816
851207
849688
847156
842889
838441
830343
826736
814028
815472
805710
807971
803126
803665
787784
787868
786947
792300
790608
795603
798183
800988
802656
804239
804421
804498
803743
802327
800997
799150
804256
799163
813540
810226
826119
826566
838557
841043
844649
850471
851930
854078
855207
856679
855121
854766
854266
854992
854817
852873
850473
850325
837800
840552
823496
829727
809558
816118
804144
804924
803567
808144
810267
810958
812483
813591
812569
809660
805812
801730
796097
795956
792031
791088
821409
822705
823353
824688
824320
823723
820131
810951
804444
799772
790499
777762
783035
784800
778628
791334
793154
814033
813786
833878
836039
844618
847675
850189
849858
848633
847260
847058
846333
846169
883079
882581
880836
877632
871068
864891
850423
845986
828994
829400
811674
816810
808820
814923
816154
828256
830821
842586
846125
850440
852886
854696
854327
851584
850333
847354
846047
844555
842312
841075
888635
887834
889013
888112
886740
884389
879944
871298
859711
849715
839752
823446
814191
814880
815459
810187
818325
827963
837951
847530
857072
863261
867817
869506
870162
869151
869169
868861
868140
868526
873358
873568
872558
870754
867558
863608
856673
842847
836637
816126
811942
794964
797432
787801
784542
795567
810066
818095
832321
843522
852408
855576
864342
867682
868794
871791
875816
875973
877038
877550
872239
873379
873801
874282
877347
878140
879771
879827
880541
879322
879167
879204
880334
880688
882065
882327
880924
879680
877080
871389
869579
863272
862222
856420
853625
855397
855420
856757
858385
860597
916734
916599
914996
913416
911475
911010
909125
907777
903960
901487
896628
892379
889355
888671
888459
896533
892432
903418
903785
911471
911564
916043
916017
916815
918796
918494
918658
918692
918647
918991
870610
871272
870845
871487
871193
871334
871207
871820
871767
873064
873586
873729
874238
874728
895903
895627
895906
895689
897340
896998
898407
898102
896663
895548
894360
891326
890520
884548
884844
875181
874875
862908
863692
850800
854829
847542
845924
849988
850200
854392
857200
859663
860188
861539
835354
835659
837823
837651
837428
836613
838621
839139
842561
843846
845846
846427
845772
845411
844037
842961
842076
845513
843312
848162
857428
855965
878484
875841
899838
905659
920594
929102
936819
942113
887655
887114
885953
884799
884127
881257
879367
879396
875912
874158
866710
862165
852253
842257
838201
825252
822761
821916
826230
832875
826519
830971
841977
847025
850096
853892
854936
856252
855536
856315
890568
891752
884987
874649
864580
853992
845291
831670
834848
820097
825134
832424
834325
838821
837775
840370
843665
843981
843805
841860
839031
832942
829327
822464
812513
809714
808372
802863
804099
802012
786558
786886
791708
791004
793745
796755
799183
801820
803756
805556
805650
803509
802886
801466
799867
799464
797103
802665
804063
809731
821955
821313
833788
837831
841602
845500
850945
852101
854002
854882
855244
855051
855437
855156
855202
852381
851168
848661
838021
836111
824231
821862
808739
811959
799076
799654
800431
798505
804276
807871
808882
809452
809847
808421
806182
801353
798227
797752
793921
794257
820941
821790
823155
822946
823260
820638
813814
806214
803482
790075
780770
781170
774993
771573
781708
781085
786129
806074
805901
830720
829170
841478
847238
848577
849663
849871
850288
849140
849492
848780
877509
876691
874008
869718
863618
852869
843697
833626
823869
810224
814216
800974
808219
808881
811900
820308
823020
839892
840576
850591
853817
854007
852960
853074
850835
850014
846244
845090
842139
841803
882912
881703
882263
882754
880984
877206
869197
859038
849512
838712
821265
811523
807826
799558
792802
808397
809478
816217
827000
837827
847022
856005
861162
865409
867353
866826
866241
864852
863003
861987
871745
868988
867976
865600
863395
857322
846894
837009
822931
808118
796402
786088
773829
770897
781047
780856
789247
808177
814509
830352
840974
852850
854118
864695
868477
868550
870860
874277
876775
876040
873799
873460
875050
876348
876880
878764
879078
879766
877933
877671
876511
874705
876147
876049
876907
877328
877895
877426
872516
872585
866918
863462
858103
859796
852081
852800
854693
854998
858355
859686
917029
916313
914892
913210
912037
908344
908934
905110
901831
898162
891073
887005
886099
879564
886661
882866
891841
897057
899693
910292
909332
915190
915171
917360
917503
918248
918322
918654
918676
918255
873225
872129
872516
870896
870752
870462
870757
871522
872143
872419
873698
873655
873941
874696
895342
895059
895735
895805
895112
896061
896512
894852
894369
893701
891842
889928
889887
882728
884352
872386
875447
859696
864662
848766
853148
843347
846838
845461
848927
851816
855689
857877
859855
859793
839558
837484
835693
835378
836862
838769
840648
839919
842837
843796
844709
845311
844988
843252
841418
841108
843128
840866
846546
841038
857638
850128
872807
871317
894542
899738
915943
925462
933324
939469
887086
887274
886849
883050
883088
878634
879388
874366
871710
867684
861845
853718
846387
835124
826796
821431
811693
803807
804946
815699
826146
823388
830226
841052
845097
852492
853665
857069
858280
858420
874570
876230
869319
861377
850569
841046
826844
822537
813570
822385
821145
816099
822944
825835
830360
828890
831009
835222
836096
835699
832443
830218
824199
818305
811476
806946
803750
802513
801915
799847
790188
792168
791114
792348
795962
798640
800378
802174
803445
803671
804003
804537
800728
800338
799190
795539
798032
793731
806895
800330
817908
820580
825782
832894
839311
841827
846395
850408
851619
853743
856441
856339
856303
856038
854458
853163
850056
845741
838626
834563
817652
822558
804557
804593
794558
798098
793903
797703
796021
801062
807232
807607
807562
807547
805284
803200
798793
798314
794647
794024
820493
821218
821681
822262
820685
815512
810420
802219
797547
780951
782396
772412
765234
766394
766534
782740
776631
799030
799058
822055
826712
839351
844116
848128
849896
850019
849405
849198
849604
849267
873546
871831
868427
862887
853380
845260
832372
824999
808861
812477
795756
801000
791536
796086
802989
816596
816920
833574
838735
850685
852928
856186
857792
854640
852684
850781
849077
845786
843783
843346
875965
877305
877405
875660
874451
867343
857909
846918
838913
818241
807982
800756
792294
784523
793626
783639
796539
807015
814998
827848
836773
847305
856370
860664
860664
861345
861614
862805
863068
862400
859937
862724
861737
861032
855966
847132
839818
823279
813711
791587
781403
771611
769863
763311
750518
770894
772996
783044
803696
814466
826085
846320
850682
856266
865116
868341
867063
870567
871896
870744
873229
874767
876507
876139
878228
878998
879099
877120
876673
873801
872242
867710
868538
868634
869566
872019
874378
872096
873664
869375
863972
865540
857403
858987
851368
853866
851941
856726
858196
857734
916398
916508
915013
913605
911354
909480
907637
902938
899324
892501
886763
884201
878134
879806
876263
880096
880183
897094
892208
906437
908556
913637
915191
916653
917045
917508
916898
916867
917116
917600
871340
871138
871793
873105
872930
872269
872187
872296
872908
872150
873379
874272
874172
874329
894450
895011
894845
894487
895447
895799
894750
895093
893559
892129
889738
889957
886201
884804
880276
876320
870351
862738
858597
852769
846137
846301
842836
846273
846620
850462
853692
856961
857833
860108
837857
839006
841710
841727
841510
840128
839988
839682
843262
843911
845824
845423
844275
843447
841798
841446
840109
842179
839958
845167
846609
851981
867016
865301
892957
892077
911624
920782
929459
934904
890777
886100
886198
884856
879934
877269
877244
871931
868001
865032
854337
851719
836163
835176
813300
817134
804630
809543
801003
797744
811016
815153
824986
835619
845712
848965
856166
856688
856645
857402
864410
859123
850928
843881
836580
821541
815328
808922
804701
795761
794804
807957
809653
818552
824510
829809
829334
828673
830318
829269
829083
824634
820058
812690
813594
802196
803030
801456
798933
800288
793267
792637
793689
798248
799518
801310
804965
806559
808812
808099
807571
805680
802604
799060
795434
796013
792030
794624
797011
802430
805755
815307
825979
824587
836934
839294
842592
846658
849908
850323
855840
855812
856418
856026
854861
852667
847335
847189
834724
834030
815756
819124
796573
802557
792292
786805
790173
792652
797585
795877
797858
804019
806725
805886
806193
803707
801155
799080
797096
796795
818374
820712
820776
820509
817383
812619
807846
797690
792130
779253
777534
764118
768770
767365
763511
772339
772851
798300
791093
812674
826833
835382
840851
847353
849986
850480
850626
850772
850982
851842
865940
864725
860501
853766
846506
836817
821104
817155
804823
795666
791098
783241
794947
790073
798857
805544
814891
829225
837977
847833
853564
857869
857256
858162
855434
853274
850299
848002
845197
843460
870420
870166
869712
868575
863351
856844
848989
835032
820716
802753
803319
785608
775685
776311
764568
776920
779646
790851
801317
818397
827655
838930
850260
854892
860702
861295
858926
855706
855431
854407
861561
858861
858625
854696
848196
841281
824404
815974
796360
779304
774316
757753
747490
738951
753978
745409
763287
774901
779767
807047
812316
833489
846406
853720
857139
865810
868765
867167
871241
871950
876271
877585
877185
878205
878349
879466
878381
876023
873911
870847
863259
862365
863003
863621
865781
868028
867466
872477
870343
867055
865425
865428
856542
860230
853852
851056
854200
852912
857102
865043
916247
916412
914558
914395
911789
910240
906164
901892
897220
886990
883814
877703
869295
863824
867475
871527
872521
889311
892015
901145
905684
914524
913591
916573
915560
916579
916749
916567
916677
916272
875839
875300
874805
872271
871680
871320
871387
871095
872579
872277
873739
873989
874228
876318
893207
890870
890586
890978
891709
890425
890583
890184
890268
889348
889770
887031
886689
882625
881126
875968
867814
865667
855681
854375
844318
848404
842753
845157
847649
849309
854396
855525
858023
857323
841896
839957
838639
838669
839254
839749
840300
843636
843510
843106
843181
842248
842806
842292
844056
842682
840087
840509
841674
839667
845195
847151
858419
866323
881699
893909
904215
918316
924844
930207
891978
889925
884198
882790
881718
875398
873537
869349
865892
860572
850691
850639
829932
834511
810421
814683
800188
799254
802219
798958
808355
815667
815661
838731
843570
852096
856830
860437
861301
862391
856291
849201
843129
838268
821670
815498
809458
799460
798213
800685
803326
800006
806686
803633
805938
810047
815013
818435
821369
825288
823169
820453
815453
813451
807855
801890
803046
797633
799416
797890
795069
794890
798679
797894
800213
803841
804915
806750
806415
807368
805391
803878
804155
801544
795135
792107
793009
788517
793315
795118
807693
804249
822816
822298
829669
836984
840936
843570
846385
848560
855335
855935
855638
855529
853568
850124
847475
844658
831699
835298
811639
814029
795961
798160
778829
785439
778680
780214
787839
797087
797589
800835
803796
806154
806221
805093
803140
800140
798265
796387
816715
818284
819331
818024
815331
810739
804072
797095
788209
774155
775405
765239
762688
760584
766379
769397
766654
795615
791485
805909
824385
833960
838591
847185
849996
851289
852070
851725
852077
852315
862329
860233
856434
849088
838407
831052
814616
814142
789743
795946
779524
785361
785900
780127
803010
793978
822539
821486
838038
845800
855198
859467
860569
859245
860562
856130
852507
849191
847730
845404
870366
870916
870277
863388
856617
849258
838215
816851
816088
795267
788596
762854
765089
752935
764269
772993
775837
784237
797467
806270
821073
833518
845989
852949
855484
855635
857420
857229
856764
855630
845829
847460
844458
844115
840725
826725
820605
797823
788660
762873
761963
740206
734557
737669
722526
740959
731927
769402
760964
799916
799470
827947
833375
851510
855346
858797
864975
868237
865820
866942
877528
877246
878129
880566
879858
878210
878191
875652
869725
862653
860104
856049
853621
853795
857687
859786
865502
867801
868143
866437
866371
865449
858985
856745
853937
858683
856306
863690
864690
867925
913715
916804
915460
914594
913606
911251
907646
898514
899648
883886
877119
875098
866220
867266
864553
872060
867271
882849
889648
899517
902755
913113
913797
914404
915665
914411
914041
913479
913872
913070
873619
874056
874626
875659
875982
874737
874454
874288
872914
873403
874649
874920
876654
876273
891855
891906
892314
891415
890573
891781
892161
891730
890120
890256
887159
887480
883924
884451
877414
878599
866074
868728
853864
858711
844240
848547
843171
845257
845689
848083
852394
854756
856057
858509
846317
846326
847104
845875
846034
845704
846944
845069
845967
848495
849372
849433
848420
846437
842724
841909
840651
838842
840905
839349
843804
845069
853536
864531
875334
892556
901256
914541
921549
926659
891713
890432
888456
880579
877946
877804
869798
866168
866613
857017
850076
849196
830435
831728
809139
815377
801870
799735
796059
793288
808123
814011
818819
837133
848533
853597
860666
863080
863496
864473
834763
842625
838620
830825
818890
804780
798241
791720
784911
783056
784033
790535
796105
808078
810615
810796
815735
817404
815915
815962
817978
815843
815312
809074
805331
804624
797680
798766
796114
797464
796732
800688
800537
802882
806438
807886
811406
811922
813791
813888
814381
811332
805841
802879
798992
793303
792761
789395
792001
788596
806700
801627
815885
821309
827598
832012
841157
842982
844120
846484
855367
855270
854849
854031
851094
851160
844694
840981
832998
829026
808982
816273
789479
793048
780037
782741
781058
782467
781602
792688
795602
799033
803227
805387
805733
805166
803255
800318
797083
796300
819550
819819
818369
816280
813067
807253
804065
796198
781554
778352
776254
759747
759501
757308
762292
774101
763215
793709
791789
805727
819207
834875
838760
846920
849457
852173
852955
851584
851842
852658
862591
857081
851675
845640
832779
829352
809289
806922
787382
791095
776606
775114
781401
775852
798534
791531
822746
817511
837437
847487
856260
861083
864608
866042
861108
859788
854153
849263
846480
846513
865443
863305
859696
857104
851279
838751
830902
811407
808379
779020
775504
762555
762362
762476
759003
759807
759679
783814
791350
798442
818226
831644
842746
850596
854956
856724
852129
848211
845097
842700
852573
849381
847888
839445
829523
821913
808387
790208
779709
754989
756306
725206
729488
711628
727003
723868
735542
749269
764882
778778
798903
817687
835744
838835
856376
857268
861424
865299
865618
855543
879048
879496
881181
880503
881102
880875
876436
875766
870733
858447
857404
854731
849275
850527
854297
859725
862919
864781
871275
871241
865893
864177
868003
862342
860759
855394
861585
858895
865408
872406
919113
916286
917234
917793
917477
912922
910841
901529
892480
892697
873634
869980
870662
858232
863395
862305
871184
876384
890755
895781
903186
909262
913469
913700
912983
914505
912942
912935
912189
911063
879788
879162
877921
876301
874580
874274
873947
873631
875418
875330
874886
876967
875911
879824
875742
880156
884179
884432
883966
884990
885506
885269
885913
886040
887314
886185
887556
885417
885561
882888
878757
877371
869145
869947
856275
858908
848652
851419
848810
850159
852085
855525
856811
858422
859067
858313
854367
840554
847942
843407
843574
844902
847292
845911
844019
845344
847389
846888
847183
848353
847569
848693
849384
848295
847419
845285
841708
843635
839041
852060
845846
872080
867743
892721
897865
908878
916074
920249
908290
898793
900157
891146
887980
884502
875254
872113
870709
866514
861196
859000
854939
847637
833571
835967
811444
815932
799175
797277
800614
809762
821345
814894
827835
844440
852206
858433
864081
867225
867471
869971
872887
882778
855043
855498
844798
830608
819038
804416
797300
790213
785929
788876
789501
789656
795195
794182
800305
804154
802717
805668
813556
816233
812802
813858
810472
807185
806966
800677
800161
794615
793235
792131
793993
784105
799645
797952
802973
805265
807577
810689
810633
812756
813987
812468
810597
810720
808629
804088
798581
793781
789818
788398
791750
789015
803114
801901
812669
820082
827365
830115
835059
841160
842067
844936
837748
837163
851530
850802
851403
848947
849288
845283
841631
841259
830361
826402
811728
811424
787580
796877
775759
781937
778976
780396
782537
792211
795384
797537
801633
804730
805864
806115
804985
802544
799331
797877
795981
791294
803636
805501
808193
809406
807828
807357
802301
791370
787505
781000
768381
762193
763134
756525
765761
773815
763887
793129
795535
803357
820972
834548
840268
846798
853043
855343
856453
856169
854985
855337
853534
861614
853878
852401
848945
841962
832098
826947
806656
808332
783666
791600
774067
777573
782953
777302
797628
791969
821996
816825
840796
847817
858030
864143
866776
867307
868014
861717
858967
852526
850785
848046
848032
837219
854222
853252
852539
846276
840845
833149
826367
803415
801862
771003
779488
749610
753636
741431
748804
748370
764132
781686
782332
799040
818116
829531
842517
849729
855666
855870
855283
849250
849198
844612
836501
826837
832382
830497
826990
826816
825419
811818
804159
781266
778227
742655
749464
717928
725762
717188
709688
731300
724273
744833
770150
770219
800033
808725
837950
835057
850546
857897
861875
863320
867207
866745
876637
873924
876493
879073
879227
880688
882279
881529
879631
873012
869809
861008
850329
851820
847382
845245
854975
860023
859841
869466
870650
869310
870665
866587
863564
864128
862132
865511
864667
872154
877211
890038
891144
892196
900000
907916
914682
917454
915215
915797
913914
906657
893107
894206
880148
865416
871173
864805
865212
863641
878504
873767
893511
891397
906289
907572
910518
913328
911962
911464
911399
909611
910381
909193
907253
907665
877329
877828
878235
878271
879933
878737
878371
877445
875431
875563
876231
876490
878486
880786
878783
880138
888272
884370
886470
887579
887311
887832
887600
888511
887729
888105
885994
886259
884607
883471
879713
880768
870865
871174
859670
862344
850257
852477
847692
849166
850585
853182
856127
857544
859110
859563
855815
851890
852851
854068
853334
849814
846508
847174
850274
852684
853282
854046
855320
855485
854423
852511
851502
849276
846275
844791
846702
842563
843106
852196
851203
870481
871742
890913
900021
910507
916539
922382
912576
903812
902689
894445
883869
882224
876544
869025
866637
866457
859986
857832
855415
851189
838190
836662
826456
820434
820463
820647
809070
810454
811361
820325
842767
850743
856032
863526
868418
870336
872381
875296
874407
882777
862494
856506
846342
832593
821010
809312
801250
793056
794646
785453
794274
788793
795499
797872
799084
802254
808181
808524
806710
807672
813131
811947
808808
808838
803133
803604
797128
797599
793506
794407
794024
793854
798718
802925
804521
808101
811740
812570
815629
818215
818619
821477
821683
818388
815873
812788
809570
804082
799772
796174
794399
792012
805851
804972
814669
821216
826617
832724
836276
839325
843346
846009
841434
841028
846829
844702
841922
843757
844216
842270
842442
836729
827729
829759
811034
811426
790510
796373
778735
783500
780777
778766
785417
793211
794281
798421
803033
804842
805908
805236
803416
800334
797384
795432
792887
791707
799855
801411
803604
804750
807605
806213
797632
794831
792480
776100
771242
769115
760538
763975
767651
773019
768286
799810
795707
802407
829262
835158
840927
849297
854676
855971
856252
854748
853725
852684
851958
854982
851105
850248
845698
842101
832034
827360
808410
809426
788497
790870
776774
782249
785820
777647
800916
797796
819284
824640
843193
851674
861937
867745
872045
872139
869223
867074
860402
855687
853648
847629
848833
842580
845318
844299
843762
844261
836504
831554
818845
803675
796592
770830
772378
746438
756240
745356
751492
745207
771098
780051
780856
803783
821615
830508
843212
851149
854072
854739
851803
845968
846003
836944
837120
825717
834014
831396
832546
826541
817505
813376
797207
783389
773851
742540
750459
718404
727932
714665
713445
724715
736174
739592
774902
767532
809782
803324
831994
841264
843186
852292
856644
859908
861421
868320
875877
877594
881132
880368
882026
884739
883001
880987
880890
876641
869062
864627
854677
853463
852004
856027
857840
860169
867404
869251
870942
874208
877608
877458
874685
871100
873250
869037
873620
873055
886522
879985
897177
888401
909506
906815
918464
917088
920366
922494
915327
913248
899777
891734
890836
870886
867028
870015
867889
868517
876443
878339
894125
893574
904986
907943
910002
909726
911641
910615
910744
909540
909388
907129
907648
907015
884712
883510
882821
881535
879437
879278
878051
878021
878744
879087
879043
880186
879296
882772
878302
882888
884291
885436
883982
882827
882494
881999
882802
882648
884295
884217
885605
885510
886010
885105
882392
880899
874218
874093
865328
863653
858311
858203
856124
857500
860199
861267
862452
862162
861112
859038
859808
856826
859169
852839
851828
853607
856086
856810
855723
854520
854846
856472
857397
858185
858984
858592
857077
855976
853926
852440
848420
849123
853460
852899
857031
875634
875025
896320
900525
913128
917481
920638
911956
906919
902739
895673
886580
877434
871718
870640
866077
861062
863145
861968
859058
858085
849679
842029
834242
831354
822560
814888
824473
827845
836280
843555
849368
854922
865261
872033
873368
874512
875576
876549
873715
878649
864388
860928
851611
839631
827628
815935
806016
800306
794214
800750
790197
799964
793309
800563
797964
801183
801626
803432
807665
810107
808178
808160
808895
804415
804683
799461
799101
795066
795132
794354
797760
794112
803202
803551
807729
811215
812071
815093
817404
818344
821177
822727
821842
820550
818005
813601
808468
804663
801200
801076
805235
806213
809272
805548
819729
820199
830599
832377
838060
839920
840992
844085
838667
837999
843866
841491
844312
842401
837994
837873
836772
833820
833412
825147
811797
815512
795558
798057
782414
787397
780866
780406
790710
794487
794573
801484
803631
805181
804713
803433
800607
797548
794508
792500
791145
789377
794240
793283
796646
801528
804131
800638
800338
797703
787652
780242
779062
770950
770184
764262
775281
770446
781368
800547
798023
811611
833689
835275
844744
852469
855238
857266
856209
854541
853492
853384
850440
852055
849089
847285
846035
841517
835233
828751
813667
813278
794255
796432
786558
779558
780933
789773
804679
799682
824440
831409
846550
855870
866199
870886
873734
874046
871455
866158
865046
854914
856367
845016
847337
841947
846938
841195
839338
835970
835076
827288
817370
806034
792477
778120
767684
751031
754546
746222
751197
746945
777780
779609
785649
807935
827673
832913
845261
851172
853710
851437
849816
845108
841908
832710
835618
823686
827814
823077
821489
822992
818113
806679
804665
778422
780618
746535
752243
729863
725798
718485
726569
722877
751886
737096
781220
772173
808280
812117
827189
843815
842629
852387
852540
861219
857606
869445
875418
877988
879550
882051
884995
884571
885765
885596
882288
878972
874252
866011
860134
852358
850597
852083
855121
862014
869079
873541
879822
880717
876171
876177
875394
874610
872793
878336
880626
881207
886798
880872
895694
888370
910975
906219