/*--------------------------------*- C++ -*----------------------------------*\
| =========                 |                                                 |
| \\      /  F ield         | OpenFOAM: The Open Source CFD Toolbox           |
|  \\    /   O peration     | Version:  2.1.1                                 |
|   \\  /    A nd           | Web:      www.OpenFOAM.org                      |
|    \\/     M anipulation  |                                                 |
\*---------------------------------------------------------------------------*/
FoamFile
{
    version     2.0;
    format      ascii;
    class       volScalarField;
    location    "0.006050000";
    object      rho;
}
// * * * * * * * * * * * * * * * * * * * * * * * * * * * * * * * * * * * * * //

dimensions      [1 -3 0 0 0 0 0];

internalField   nonuniform List<scalar> 
12384
(
0.821553
0.827061
0.830321
0.828949
0.827161
0.823967
0.82323
0.821402
0.822532
0.822275
0.823948
0.823852
0.812145
0.807158
0.965948
0.946762
0.938628
0.937545
0.936334
0.933549
0.930433
0.931481
0.932755
0.935704
0.934914
0.936009
0.93167
0.9332
0.923969
0.920488
0.919522
0.906838
0.910206
0.898543
0.903456
0.896806
0.901006
0.900895
0.903071
0.901491
0.901288
0.928534
0.977375
0.987013
0.846739
0.862398
0.851053
0.839099
0.835106
0.82955
0.830904
0.829992
0.832967
0.834273
0.837019
0.838661
0.839112
0.838861
0.837927
0.836813
0.838229
0.835297
0.843388
0.837897
0.85454
0.845464
0.874024
0.869021
0.89326
0.895567
0.907903
0.917062
0.920479
0.912122
0.863206
0.870369
0.874751
0.872602
0.874169
0.873603
0.874652
0.874159
0.874687
0.873026
0.871886
0.867199
0.863014
0.854862
0.856504
0.842614
0.845286
0.841489
0.843384
0.849076
0.850395
0.852884
0.855037
0.854286
0.855736
0.861972
0.857357
0.855165
0.853248
0.851779
0.87938
0.882917
0.881909
0.878135
0.869598
0.862109
0.848072
0.845728
0.832481
0.83846
0.834557
0.838868
0.842878
0.844956
0.847252
0.849569
0.851393
0.852129
0.850181
0.848898
0.850995
0.863019
0.852232
0.844368
0.829128
0.830652
0.819025
0.823308
0.819427
0.821436
0.777168
0.772026
0.772381
0.782109
0.782808
0.791175
0.791332
0.798162
0.800865
0.804051
0.804958
0.805384
0.804455
0.80345
0.803168
0.800024
0.806671
0.800263
0.815993
0.808842
0.827615
0.822873
0.836033
0.834658
0.839091
0.838179
0.835344
0.836226
0.842686
0.84256
0.885904
0.889448
0.893962
0.888686
0.876139
0.86994
0.862717
0.862339
0.852155
0.856783
0.84168
0.848788
0.832336
0.840143
0.82736
0.833534
0.829894
0.83167
0.833745
0.836081
0.836825
0.835646
0.831885
0.833151
0.882124
0.907433
0.900124
0.899178
0.894788
0.893756
0.865321
0.852686
0.834106
0.82374
0.81825
0.813774
0.808535
0.80403
0.800773
0.788059
0.782255
0.782893
0.777143
0.778325
0.770628
0.793418
0.78493
0.807663
0.813057
0.819402
0.823
0.828415
0.839872
0.848259
0.846897
0.844195
0.843405
0.842876
0.841443
0.841006
0.859082
0.850696
0.847386
0.845197
0.842108
0.838332
0.830236
0.82433
0.808387
0.812197
0.794472
0.800133
0.792574
0.800592
0.795777
0.80702
0.805462
0.809096
0.810762
0.81271
0.810602
0.804548
0.804989
0.804677
0.806169
0.805111
0.803216
0.802882
0.798238
0.798092
0.874834
0.859346
0.852005
0.845511
0.843759
0.843121
0.84166
0.838252
0.832712
0.827321
0.812551
0.808867
0.800706
0.799938
0.796815
0.799147
0.802688
0.812693
0.818089
0.824575
0.827866
0.831554
0.83737
0.837198
0.835084
0.83325
0.832619
0.831739
0.830515
0.829458
0.836082
0.826949
0.825625
0.82137
0.819517
0.816575
0.811624
0.807276
0.80099
0.78496
0.790085
0.771002
0.77634
0.768879
0.768881
0.776343
0.795856
0.794121
0.809283
0.807953
0.813752
0.810964
0.814145
0.813867
0.819353
0.818153
0.820317
0.821041
0.822371
0.822205
0.857278
0.859876
0.860146
0.84699
0.830793
0.820569
0.826881
0.83327
0.839044
0.842723
0.844602
0.846206
0.847682
0.848519
0.849193
0.849093
0.847978
0.846657
0.843881
0.837365
0.834569
0.828245
0.827016
0.820192
0.820919
0.816767
0.816299
0.814264
0.808139
0.821768
0.91137
0.909087
0.941429
1.03212
1.14314
1.2004
0.999882
0.801589
0.772741
0.768963
0.765877
0.767063
0.763448
0.764532
0.763971
0.769157
0.769449
0.778401
0.77993
0.786918
0.789652
0.789792
0.787966
0.781409
0.780341
0.779207
0.780702
0.782497
0.796684
0.885392
0.861585
0.856256
0.839983
0.825655
0.818584
0.814286
0.812756
0.810296
0.810146
0.809942
0.813285
0.819349
0.814347
0.807273
0.964749
0.941371
0.932162
0.927089
0.922384
0.918634
0.923513
0.931535
0.938997
0.939539
0.939118
0.934361
0.930303
0.92187
0.919061
0.90586
0.906246
0.892152
0.894257
0.884176
0.88741
0.884369
0.8888
0.896171
0.899481
0.901709
0.900826
0.909675
0.940791
0.971963
0.849635
0.858821
0.842467
0.829923
0.826238
0.823391
0.826128
0.826981
0.831517
0.835613
0.838801
0.840938
0.841018
0.840245
0.839383
0.839411
0.838337
0.838816
0.843178
0.840748
0.853187
0.84702
0.867768
0.865853
0.887221
0.892931
0.905425
0.916092
0.92099
0.912998
0.863932
0.871299
0.874227
0.872653
0.873644
0.87386
0.874966
0.876396
0.875866
0.875014
0.870921
0.867167
0.860197
0.859768
0.845417
0.845608
0.843979
0.840972
0.836321
0.840063
0.847185
0.849106
0.851129
0.853102
0.852739
0.856043
0.857042
0.850622
0.845458
0.846085
0.871973
0.876665
0.878998
0.877547
0.872532
0.863869
0.852329
0.84513
0.841024
0.829696
0.83632
0.834931
0.833552
0.836275
0.838625
0.841548
0.844938
0.848256
0.849851
0.847794
0.847403
0.858678
0.850232
0.833958
0.817581
0.816477
0.80741
0.810498
0.812169
0.813251
0.776568
0.772399
0.776011
0.785907
0.788542
0.794969
0.799105
0.804774
0.807295
0.807678
0.807289
0.806264
0.805086
0.80376
0.80237
0.800917
0.805548
0.801939
0.814497
0.811597
0.825964
0.825822
0.83543
0.834916
0.841265
0.839982
0.838624
0.835522
0.837697
0.838813
0.884738
0.88864
0.881478
0.862844
0.856904
0.858708
0.861011
0.864718
0.8627
0.86522
0.856016
0.857493
0.846111
0.847145
0.839922
0.840181
0.840189
0.839292
0.838332
0.839116
0.840013
0.837965
0.834224
0.830664
0.845374
0.894586
0.914354
0.91603
0.90765
0.906683
0.838929
0.820759
0.809284
0.804952
0.804096
0.802633
0.80134
0.79619
0.788375
0.781024
0.7808
0.767002
0.765652
0.767151
0.764947
0.780373
0.780022
0.796023
0.803643
0.814465
0.819555
0.827935
0.833029
0.843515
0.848584
0.843281
0.840503
0.837825
0.836614
0.83546
0.845069
0.840654
0.842012
0.844324
0.844055
0.840523
0.8335
0.827982
0.815896
0.811255
0.80624
0.798109
0.801066
0.798749
0.80192
0.80818
0.807085
0.813715
0.813143
0.814838
0.814322
0.809333
0.806309
0.811208
0.810796
0.812014
0.808877
0.808271
0.804623
0.801916
0.872381
0.854277
0.84293
0.837438
0.838902
0.841676
0.842763
0.842105
0.836528
0.830281
0.821812
0.815654
0.807547
0.799885
0.798969
0.804698
0.809287
0.815292
0.819036
0.825263
0.828646
0.831961
0.834755
0.836686
0.833044
0.83052
0.829566
0.829465
0.826624
0.822979
0.836738
0.823993
0.82004
0.817315
0.815739
0.814036
0.813188
0.806414
0.801007
0.790913
0.784675
0.778195
0.769954
0.772875
0.772963
0.78123
0.784097
0.797953
0.805323
0.811725
0.812091
0.813308
0.813005
0.812261
0.813573
0.815443
0.813865
0.815206
0.817435
0.817655
0.835527
0.8368
0.836951
0.829017
0.822993
0.82611
0.835623
0.842495
0.845182
0.845261
0.843488
0.841016
0.839322
0.838657
0.839119
0.840638
0.842866
0.842615
0.842743
0.838306
0.830806
0.825621
0.823685
0.815274
0.814586
0.816085
0.815189
0.814499
0.810184
0.819486
0.832548
0.83185
0.840497
0.876405
1.03385
1.07698
0.850828
0.782854
0.771106
0.769146
0.766094
0.765001
0.762688
0.7618
0.765036
0.767718
0.769807
0.779182
0.784422
0.796585
0.807128
0.817128
0.816611
0.803693
0.790854
0.78125
0.779943
0.782721
0.799522
0.893036
0.862315
0.84371
0.827625
0.822496
0.824356
0.826457
0.827307
0.822908
0.818243
0.811925
0.807991
0.811912
0.813104
0.80782
0.961232
0.935395
0.922378
0.914611
0.908692
0.912888
0.928638
0.941851
0.94432
0.938408
0.930825
0.921601
0.91366
0.904329
0.900325
0.889452
0.888931
0.874396
0.877049
0.861853
0.866518
0.860506
0.870684
0.879843
0.892319
0.898373
0.899733
0.90175
0.919189
0.956388
0.850064
0.85509
0.834699
0.825484
0.823885
0.823843
0.826517
0.828877
0.833192
0.836978
0.839292
0.838473
0.837516
0.836758
0.836248
0.835635
0.837113
0.834937
0.843355
0.837432
0.853743
0.844563
0.86778
0.861719
0.884442
0.888442
0.901703
0.91147
0.920297
0.915423
0.864774
0.87187
0.874177
0.871793
0.875047
0.874899
0.87711
0.876918
0.876769
0.872516
0.86883
0.863119
0.858782
0.851964
0.844383
0.846282
0.838845
0.83947
0.841936
0.834857
0.837694
0.845785
0.847231
0.84749
0.848459
0.850444
0.853966
0.852892
0.844357
0.843077
0.867139
0.879212
0.884645
0.887579
0.883329
0.876089
0.86717
0.8607
0.847656
0.849883
0.838435
0.835566
0.836
0.831906
0.832929
0.83441
0.837263
0.841554
0.844246
0.844874
0.842803
0.848641
0.848266
0.830572
0.811645
0.81123
0.804017
0.807029
0.805559
0.810193
0.77783
0.773945
0.780785
0.790945
0.792161
0.799798
0.805376
0.805966
0.804194
0.802929
0.802197
0.802248
0.801755
0.800575
0.799336
0.797143
0.801378
0.796173
0.809032
0.805457
0.820173
0.820722
0.832187
0.834659
0.837956
0.841587
0.839796
0.83706
0.835393
0.83716
0.887152
0.882597
0.857926
0.853552
0.861547
0.872341
0.880691
0.884203
0.873964
0.874535
0.857784
0.86076
0.841069
0.845001
0.832988
0.832704
0.830881
0.834921
0.837214
0.838376
0.839582
0.8392
0.835635
0.829612
0.830173
0.849961
0.884785
0.898627
0.896392
0.903912
0.819259
0.8072
0.803213
0.80326
0.802685
0.801942
0.798239
0.789578
0.783077
0.777778
0.769465
0.758072
0.761706
0.763204
0.757906
0.769398
0.771122
0.789517
0.790315
0.808647
0.812636
0.821916
0.827531
0.836881
0.845489
0.844766
0.840757
0.838492
0.834073
0.830941
0.836079
0.83965
0.84481
0.846802
0.843997
0.840153
0.827981
0.825262
0.811412
0.812557
0.7988
0.803755
0.797161
0.801869
0.80128
0.808809
0.808421
0.815047
0.814267
0.815287
0.816043
0.81542
0.810318
0.81153
0.813275
0.811496
0.810213
0.808796
0.806571
0.804162
0.866946
0.846396
0.833954
0.834563
0.839132
0.843584
0.845771
0.842936
0.836706
0.830074
0.823971
0.812186
0.805302
0.806182
0.807062
0.802363
0.807465
0.813311
0.819526
0.824282
0.828302
0.830038
0.831371
0.833313
0.83186
0.828856
0.830806
0.831948
0.828981
0.823479
0.831384
0.820863
0.815009
0.813944
0.815191
0.816394
0.814335
0.805922
0.802629
0.788055
0.786198
0.773815
0.77619
0.769019
0.766249
0.77508
0.785507
0.790545
0.800361
0.80734
0.811399
0.810938
0.81408
0.813501
0.811086
0.810498
0.812374
0.813082
0.814471
0.815262
0.829028
0.827171
0.824086
0.821264
0.825981
0.834172
0.842095
0.843577
0.839999
0.832049
0.824116
0.818441
0.816918
0.816975
0.819333
0.822585
0.826212
0.831617
0.835813
0.834413
0.829897
0.819691
0.81579
0.810918
0.809749
0.812451
0.813413
0.814117
0.810317
0.816414
0.82843
0.828227
0.840625
0.884619
0.969752
0.879421
0.799406
0.773711
0.769016
0.768055
0.765345
0.76322
0.761676
0.76157
0.761435
0.766945
0.763425
0.771652
0.773886
0.785382
0.798393
0.820726
0.833541
0.833315
0.818173
0.796013
0.78819
0.792569
0.817633
0.9207
0.856474
0.842275
0.842138
0.850314
0.852898
0.851611
0.84854
0.845605
0.838735
0.826748
0.812831
0.808089
0.810746
0.808012
0.958227
0.927581
0.911436
0.899816
0.899418
0.915067
0.939213
0.946423
0.940467
0.930049
0.920169
0.910856
0.90418
0.894426
0.891957
0.883383
0.883997
0.872848
0.869644
0.85399
0.851771
0.843853
0.847365
0.861821
0.876618
0.891517
0.897867
0.899121
0.907468
0.944706
0.849841
0.851679
0.832938
0.826075
0.824821
0.824309
0.827279
0.830072
0.83382
0.834821
0.835187
0.834146
0.832403
0.832035
0.83145
0.830997
0.830838
0.833892
0.832996
0.83765
0.846228
0.844984
0.863663
0.860974
0.880335
0.884858
0.897968
0.907246
0.917854
0.915379
0.865527
0.873357
0.873087
0.872658
0.875177
0.875481
0.875985
0.876602
0.873213
0.869592
0.862332
0.859468
0.853033
0.84803
0.84736
0.838951
0.837928
0.837966
0.841112
0.844562
0.835634
0.835205
0.841782
0.843578
0.844239
0.847248
0.850531
0.852649
0.845208
0.84251
0.869524
0.879126
0.884791
0.883359
0.879023
0.871826
0.864967
0.85324
0.85545
0.841921
0.845074
0.847769
0.843045
0.83804
0.830422
0.828921
0.831139
0.834155
0.838194
0.840361
0.839429
0.8391
0.845796
0.831411
0.811977
0.808276
0.808887
0.802982
0.803567
0.804375
0.775992
0.77483
0.787719
0.792363
0.798228
0.804808
0.804347
0.800759
0.799863
0.801892
0.802944
0.801668
0.800651
0.797987
0.794318
0.792029
0.788191
0.792183
0.793646
0.798979
0.810945
0.811786
0.824725
0.829947
0.834955
0.838547
0.841584
0.838023
0.834877
0.834924
0.884661
0.865531
0.850149
0.862248
0.880586
0.887927
0.888313
0.883538
0.86981
0.864739
0.849901
0.844597
0.828981
0.828381
0.81599
0.81526
0.816246
0.81592
0.823153
0.829705
0.834281
0.836575
0.83619
0.831571
0.8278
0.832745
0.852255
0.870519
0.873435
0.898815
0.808638
0.803085
0.801942
0.801235
0.801439
0.798399
0.791243
0.782872
0.778496
0.765799
0.756732
0.755842
0.750134
0.747138
0.755403
0.755974
0.760587
0.778911
0.78025
0.802844
0.803862
0.816933
0.824235
0.830722
0.841044
0.846814
0.84675
0.843017
0.837477
0.830138
0.836105
0.841113
0.843754
0.842834
0.838602
0.829128
0.82205
0.815329
0.8082
0.797615
0.802165
0.791767
0.798345
0.799029
0.801111
0.807572
0.806645
0.817233
0.814039
0.818405
0.818685
0.81672
0.81235
0.811868
0.812936
0.812556
0.809546
0.807261
0.804578
0.805268
0.857765
0.833827
0.828151
0.834045
0.839852
0.843933
0.842665
0.837378
0.833646
0.828362
0.816176
0.809319
0.807051
0.800627
0.794742
0.807069
0.806451
0.810342
0.816484
0.821214
0.825233
0.828045
0.828484
0.829643
0.830851
0.828564
0.829569
0.831038
0.827307
0.81861
0.82554
0.812911
0.809793
0.81266
0.816579
0.815834
0.810188
0.804571
0.795879
0.786407
0.779118
0.772835
0.764675
0.76269
0.770407
0.768826
0.774107
0.787323
0.790288
0.80094
0.806291
0.812573
0.80958
0.81349
0.811792
0.807522
0.808121
0.811969
0.81521
0.815148
0.826366
0.821644
0.821125
0.824731
0.831492
0.840178
0.841915
0.836663
0.824446
0.814343
0.807206
0.802697
0.802981
0.803343
0.805591
0.808659
0.813675
0.81996
0.825585
0.833286
0.82772
0.817346
0.810374
0.812504
0.809163
0.811759
0.813809
0.813216
0.811004
0.814229
0.837433
0.833681
0.862259
0.888043
0.874974
0.819349
0.779718
0.76996
0.76854
0.767389
0.763896
0.762579
0.763134
0.759267
0.764484
0.761226
0.766491
0.768597
0.768829
0.776231
0.780268
0.801355
0.828404
0.844881
0.840463
0.82427
0.812502
0.815036
0.842466
0.973923
0.861844
0.858871
0.870423
0.870166
0.861632
0.854588
0.851754
0.851207
0.849491
0.840586
0.821822
0.809011
0.809035
0.807827
0.953451
0.918629
0.898938
0.887406
0.893997
0.923188
0.943444
0.944629
0.936706
0.928334
0.9191
0.908973
0.898883
0.886112
0.884858
0.87682
0.88423
0.870184
0.868502
0.846784
0.842047
0.830019
0.83533
0.844643
0.864155
0.882551
0.894741
0.89695
0.903368
0.936992
0.853308
0.851226
0.828836
0.823671
0.824395
0.826453
0.829812
0.831966
0.834565
0.833461
0.831222
0.83056
0.830117
0.829396
0.828649
0.830973
0.833976
0.833039
0.83828
0.834586
0.848617
0.842323
0.86129
0.858774
0.87734
0.880677
0.893907
0.903453
0.914281
0.913408
0.86555
0.873507
0.873706
0.871845
0.875153
0.873952
0.876559
0.873173
0.869731
0.863945
0.858877
0.853626
0.851443
0.845967
0.842132
0.839718
0.83273
0.826736
0.827991
0.83591
0.841599
0.834587
0.834564
0.840377
0.841283
0.846487
0.848523
0.852804
0.84815
0.844219
0.85596
0.866246
0.872331
0.873363
0.867403
0.859695
0.847131
0.84296
0.83571
0.844346
0.843842
0.839198
0.842773
0.838993
0.833119
0.82433
0.823131
0.827168
0.831269
0.835138
0.834095
0.834667
0.83782
0.833963
0.817348
0.812751
0.810887
0.804593
0.799587
0.799915
0.778484
0.781017
0.789821
0.795888
0.80345
0.804964
0.798152
0.79663
0.799275
0.801475
0.802267
0.801095
0.794094
0.788809
0.783153
0.77603
0.77599
0.770395
0.782586
0.778189
0.797298
0.802884
0.812231
0.821874
0.830891
0.835147
0.838381
0.838452
0.833714
0.833689
0.878899
0.85535
0.856392
0.879465
0.890316
0.888982
0.88131
0.873102
0.862057
0.855685
0.835689
0.836936
0.816998
0.814007
0.802606
0.804583
0.801063
0.805759
0.807521
0.815977
0.82638
0.832215
0.834757
0.833331
0.828126
0.827841
0.836545
0.848689
0.855356
0.891301
0.803404
0.80089
0.799474
0.800353
0.799007
0.793169
0.786354
0.776642
0.770251
0.75479
0.754163
0.744811
0.738225
0.73898
0.738837
0.752954
0.748698
0.76938
0.771056
0.793078
0.799241
0.812902
0.819509
0.827308
0.836663
0.844172
0.846727
0.843991
0.83747
0.827133
0.837454
0.840306
0.840794
0.837546
0.829514
0.822658
0.813592
0.810475
0.799045
0.804414
0.79139
0.796528
0.788432
0.791919
0.796801
0.80756
0.805534
0.816661
0.815199
0.821669
0.820135
0.820573
0.818592
0.81354
0.812838
0.812167
0.811566
0.805069
0.801858
0.805159
0.845919
0.822742
0.826271
0.832586
0.839358
0.840323
0.836547
0.833333
0.830761
0.817006
0.810414
0.805747
0.799599
0.793431
0.801044
0.791231
0.800554
0.807354
0.811443
0.818366
0.820422
0.824859
0.827297
0.827513
0.826535
0.825755
0.826253
0.829912
0.824682
0.816466
0.809469
0.803968
0.8069
0.813601
0.814564
0.810064
0.806778
0.796696
0.792874
0.77892
0.77566
0.770884
0.773539
0.768392
0.756831
0.770168
0.768626
0.772928
0.785165
0.792257
0.798046
0.810363
0.809796
0.80963
0.810865
0.807639
0.805248
0.809793
0.81251
0.812414
0.823264
0.820757
0.8233
0.828594
0.83739
0.841167
0.836212
0.823197
0.810821
0.801352
0.796781
0.792314
0.79298
0.793689
0.795795
0.799553
0.804365
0.807713
0.817775
0.826909
0.826317
0.817992
0.808974
0.81269
0.811746
0.817165
0.815153
0.816016
0.811269
0.811883
0.848124
0.83923
0.861465
0.862883
0.828547
0.789497
0.772811
0.769024
0.768522
0.765801
0.764022
0.764458
0.761869
0.76401
0.761596
0.763762
0.76262
0.772687
0.767119
0.774713
0.774401
0.782864
0.806881
0.839977
0.847781
0.837539
0.831832
0.838324
0.868378
1.02966
0.869502
0.880899
0.886979
0.872466
0.854555
0.847306
0.847629
0.850264
0.852481
0.848023
0.830087
0.811218
0.808229
0.80717
0.94932
0.91081
0.886385
0.877667
0.892849
0.926516
0.944478
0.947257
0.940467
0.934042
0.92416
0.911181
0.89217
0.880172
0.871907
0.873866
0.878182
0.871226
0.860002
0.843809
0.828488
0.827769
0.826056
0.837552
0.853821
0.875743
0.890907
0.895323
0.899722
0.934054
0.851449
0.851478
0.832975
0.828465
0.828654
0.829207
0.831318
0.833825
0.836295
0.833173
0.830991
0.828832
0.828138
0.829119
0.831675
0.833478
0.833473
0.835888
0.83445
0.839467
0.841348
0.84595
0.858825
0.855979
0.87781
0.874847
0.890153
0.899251
0.910794
0.909423
0.869027
0.872474
0.872754
0.873486
0.872057
0.872264
0.87448
0.871381
0.866919
0.861935
0.852494
0.852646
0.8434
0.847424
0.831338
0.837397
0.828209
0.833852
0.827095
0.823453
0.83253
0.831524
0.834003
0.837471
0.842972
0.843959
0.850441
0.851619
0.846593
0.843184
0.844411
0.851767
0.857959
0.859236
0.854876
0.841011
0.833908
0.827377
0.823744
0.816919
0.817794
0.831295
0.833134
0.83791
0.83589
0.830907
0.82535
0.823652
0.827243
0.83013
0.831912
0.829703
0.830869
0.83108
0.827508
0.817598
0.815237
0.803951
0.794537
0.797046
0.78071
0.783533
0.794716
0.803795
0.806373
0.800976
0.798096
0.800599
0.804806
0.805383
0.803079
0.796494
0.787195
0.777673
0.769232
0.765658
0.759487
0.760436
0.762094
0.767798
0.775813
0.788327
0.804834
0.809549
0.825879
0.831753
0.835285
0.836377
0.832687
0.830665
0.871928
0.852033
0.868647
0.888739
0.888713
0.880024
0.869106
0.866639
0.853081
0.850066
0.829301
0.828229
0.803215
0.804526
0.793033
0.786857
0.790002
0.793783
0.801263
0.804589
0.812714
0.82451
0.83277
0.832978
0.830486
0.827071
0.831619
0.839221
0.846123
0.88735
0.799372
0.798774
0.79793
0.799152
0.796124
0.789512
0.782182
0.770595
0.763523
0.75072
0.747561
0.735409
0.738155
0.73687
0.73352
0.741732
0.742391
0.765595
0.761615
0.783184
0.797083
0.8077
0.815217
0.82445
0.833125
0.841285
0.845459
0.844292
0.836966
0.825895
0.832692
0.835799
0.834701
0.829667
0.823183
0.81661
0.806763
0.807988
0.800569
0.797924
0.795692
0.790313
0.799679
0.793587
0.797956
0.801078
0.806802
0.816617
0.818754
0.822231
0.82263
0.823425
0.819901
0.817548
0.815198
0.81466
0.810467
0.802332
0.798678
0.802759
0.833586
0.81505
0.823286
0.82999
0.833891
0.83481
0.832974
0.827193
0.819419
0.807756
0.811687
0.798676
0.791087
0.792167
0.781925
0.791095
0.790827
0.797269
0.803406
0.814138
0.816927
0.821125
0.82512
0.824573
0.826821
0.826778
0.825206
0.822372
0.810965
0.804268
0.806683
0.799983
0.808124
0.811546
0.809326
0.805952
0.796395
0.793815
0.784077
0.776001
0.782471
0.777495
0.774545
0.769351
0.777962
0.76576
0.771819
0.772918
0.772337
0.788986
0.789993
0.80295
0.809022
0.809626
0.806096
0.806463
0.806587
0.807649
0.812975
0.814464
0.824346
0.822463
0.825883
0.833782
0.839012
0.838566
0.828086
0.812573
0.801083
0.794059
0.786785
0.785398
0.785901
0.787065
0.790423
0.794726
0.79675
0.803442
0.807923
0.81938
0.828554
0.818188
0.807896
0.815116
0.819216
0.822
0.822231
0.814762
0.810629
0.817026
0.859556
0.837813
0.839866
0.829218
0.798854
0.777842
0.770877
0.769651
0.76895
0.764595
0.76535
0.763777
0.760054
0.757291
0.759969
0.761493
0.760238
0.769738
0.769854
0.77429
0.774594
0.778112
0.785513
0.823634
0.849241
0.84358
0.842583
0.85694
0.894998
1.0873
0.886457
0.904002
0.892328
0.856677
0.83951
0.837798
0.841601
0.845794
0.85019
0.848258
0.833043
0.811832
0.807853
0.808584
0.945429
0.898637
0.872864
0.866993
0.883747
0.918527
0.941661
0.946536
0.945509
0.941823
0.933814
0.914591
0.891863
0.87234
0.865832
0.867264
0.87333
0.87305
0.855008
0.843907
0.827179
0.829283
0.825868
0.834951
0.851999
0.872487
0.8902
0.893224
0.899275
0.931643
0.854572
0.85166
0.829889
0.825507
0.826758
0.829879
0.832809
0.838367
0.838238
0.832821
0.827458
0.82363
0.824827
0.826713
0.832566
0.834222
0.833858
0.835149
0.836916
0.836147
0.84189
0.843968
0.853728
0.858451
0.869505
0.876842
0.884053
0.897193
0.906891
0.904614
0.870351
0.875525
0.870771
0.87096
0.871698
0.868689
0.870219
0.869047
0.86569
0.858523
0.849093
0.851458
0.836908
0.846232
0.82836
0.835709
0.82547
0.82632
0.829822
0.825836
0.832394
0.833756
0.827735
0.841075
0.841976
0.84711
0.850682
0.853805
0.849774
0.84697
0.836618
0.844549
0.852514
0.854836
0.841409
0.833965
0.826716
0.816357
0.815369
0.818105
0.822498
0.822054
0.829503
0.826221
0.823723
0.819441
0.816582
0.818038
0.821845
0.827956
0.828301
0.826818
0.825217
0.831536
0.828218
0.822594
0.816506
0.798014
0.791247
0.791431
0.782233
0.78861
0.801838
0.804799
0.802926
0.797736
0.797002
0.800682
0.802674
0.803292
0.7975
0.789341
0.782169
0.774019
0.764047
0.75787
0.75569
0.749942
0.753883
0.755127
0.769511
0.771348
0.795841
0.802578
0.817115
0.828607
0.833608
0.833772
0.82934
0.829269
0.865738
0.854257
0.877741
0.886686
0.878816
0.868722
0.86296
0.859788
0.846924
0.848381
0.822259
0.820201
0.797913
0.79694
0.777953
0.782125
0.776283
0.778926
0.7885
0.800707
0.808373
0.817777
0.828459
0.833328
0.831539
0.828363
0.830699
0.834812
0.842831
0.872939
0.796583
0.794815
0.797274
0.79777
0.794196
0.786924
0.777871
0.768755
0.759123
0.745321
0.74457
0.734846
0.732124
0.729899
0.733875
0.737592
0.735495
0.761469
0.759682
0.775827
0.793532
0.805224
0.8122
0.822893
0.830757
0.838645
0.84391
0.842535
0.833486
0.821983
0.830539
0.832646
0.831273
0.825298
0.815359
0.813006
0.803696
0.808858
0.7947
0.80402
0.791619
0.79859
0.798363
0.791606
0.80778
0.795425
0.815581
0.812477
0.821925
0.822443
0.825519
0.825804
0.823626
0.820227
0.820893
0.817831
0.806928
0.797356
0.796427
0.801927
0.827725
0.817289
0.825842
0.828007
0.830774
0.829369
0.826558
0.814363
0.817862
0.805466
0.802491
0.781466
0.783881
0.773593
0.783563
0.790613
0.791118
0.794922
0.802114
0.806249
0.814072
0.818308
0.823641
0.824475
0.823995
0.823258
0.825397
0.81586
0.800603
0.798095
0.791162
0.79354
0.800023
0.804026
0.804046
0.795337
0.795083
0.781518
0.782573
0.771905
0.784918
0.776277
0.778412
0.78145
0.767953
0.776305
0.759965
0.779265
0.761698
0.788444
0.781407
0.800829
0.800366
0.809726
0.805776
0.801931
0.803927
0.808999
0.809424
0.810933
0.824718
0.82206
0.828399
0.837468
0.839668
0.833795
0.820959
0.805712
0.793614
0.785318
0.782214
0.778401
0.776267
0.776816
0.781471
0.786318
0.794691
0.799169
0.801875
0.8116
0.830142
0.819906
0.809248
0.813429
0.823893
0.837409
0.828166
0.824138
0.815711
0.818966
0.87279
0.837852
0.820654
0.805521
0.786212
0.775495
0.772658
0.768729
0.772293
0.764886
0.763653
0.765915
0.762912
0.765411
0.763482
0.766576
0.759506
0.766853
0.769196
0.774816
0.775722
0.779117
0.777209
0.799329
0.847807
0.856784
0.851305
0.870544
0.962552
1.13613
0.896681
0.914735
0.881319
0.843391
0.832675
0.832916
0.836024
0.8397
0.841893
0.842307
0.829126
0.811129
0.809544
0.808263
0.941466
0.894025
0.868017
0.859426
0.872351
0.907021
0.939425
0.950735
0.951582
0.951596
0.942945
0.925315
0.892991
0.871196
0.857777
0.865126
0.869737
0.87607
0.854076
0.850066
0.832304
0.832942
0.829747
0.838627
0.853153
0.872978
0.888162
0.891505
0.896952
0.93393
0.857648
0.858161
0.836878
0.830192
0.831938
0.833808
0.837381
0.838241
0.840767
0.837987
0.830851
0.825852
0.826351
0.828116
0.828857
0.832725
0.834611
0.834217
0.836471
0.835572
0.839553
0.841537
0.84924
0.857614
0.864407
0.875904
0.881831
0.894443
0.904125
0.90005
0.870232
0.875561
0.873734
0.867458
0.865521
0.867155
0.864162
0.86523
0.866796
0.856294
0.848013
0.848999
0.835228
0.842086
0.826001
0.835728
0.826547
0.827051
0.824243
0.820786
0.831771
0.831806
0.830386
0.83965
0.846274
0.848469
0.853745
0.854829
0.849855
0.846179
0.819588
0.840785
0.8493
0.848022
0.838459
0.823704
0.815716
0.808469
0.802656
0.801462
0.803716
0.812288
0.819367
0.829857
0.8291
0.823597
0.821852
0.820033
0.818993
0.821202
0.825396
0.824354
0.824602
0.826916
0.827741
0.824229
0.805391
0.792641
0.783887
0.787313
0.783714
0.795191
0.804877
0.807878
0.804052
0.799034
0.801914
0.804336
0.807627
0.807102
0.802362
0.792775
0.781684
0.774057
0.766758
0.758046
0.753774
0.748454
0.749933
0.746959
0.764687
0.764766
0.786929
0.798769
0.814425
0.823969
0.83333
0.832022
0.826398
0.827406
0.862261
0.858121
0.878819
0.878375
0.868764
0.86272
0.854105
0.851346
0.845287
0.841705
0.818881
0.820279
0.790721
0.791369
0.777859
0.778896
0.776481
0.778688
0.781681
0.794797
0.804689
0.815012
0.826836
0.832294
0.831374
0.82869
0.82976
0.831186
0.837838
0.833085
0.79655
0.794463
0.797598
0.796718
0.792337
0.783957
0.777639
0.767881
0.753755
0.74848
0.745131
0.73049
0.728753
0.72623
0.729619
0.740441
0.731477
0.759351
0.758503
0.775042
0.788388
0.805311
0.81159
0.821869
0.828649
0.836654
0.841597
0.83857
0.825589
0.817805
0.83122
0.829773
0.827166
0.822179
0.810993
0.812183
0.800408
0.805314
0.795276
0.803162
0.793576
0.793325
0.798882
0.792661
0.807838
0.79726
0.818308
0.810551
0.823184
0.825584
0.827305
0.827791
0.827906
0.827405
0.823822
0.818238
0.799785
0.793724
0.793611
0.800046
0.819349
0.813704
0.818078
0.824064
0.827417
0.822064
0.821757
0.810942
0.812693
0.792929
0.792105
0.781318
0.781543
0.781868
0.779292
0.779972
0.778527
0.796084
0.79764
0.80063
0.813053
0.81844
0.822205
0.823647
0.824366
0.825277
0.817947
0.794759
0.783547
0.783168
0.795554
0.798033
0.80341
0.800398
0.794965
0.791761
0.786267
0.777574
0.777747
0.771619
0.787558
0.771158
0.780502
0.766752
0.778587
0.771126
0.771038
0.771008
0.77142
0.774729
0.78368
0.794393
0.803976
0.800648
0.807271
0.80116
0.801864
0.80768
0.809842
0.802585
0.825658
0.823027
0.830964
0.837651
0.839493
0.832639
0.815496
0.802666
0.792241
0.780754
0.779055
0.776384
0.772
0.773039
0.776604
0.784056
0.791713
0.797427
0.8033
0.808358
0.829477
0.822146
0.815749
0.8168
0.829195
0.834971
0.832795
0.8191
0.815657
0.821121
0.892556
0.844858
0.811342
0.795862
0.784157
0.776393
0.775779
0.771783
0.76859
0.772547
0.763545
0.765594
0.770502
0.764322
0.76766
0.76368
0.765361
0.763925
0.770395
0.772371
0.777435
0.779047
0.7768
0.781462
0.834979
0.878546
0.874224
0.901838
1.04525
1.13196
0.912578
0.923072
0.868959
0.831754
0.824879
0.826463
0.827798
0.827059
0.828853
0.82869
0.820536
0.810844
0.808395
0.810682
0.824268
0.881283
0.930887
0.89369
0.859404
0.848734
0.857031
0.88381
0.919843
0.941926
0.951591
0.952751
0.951866
0.935467
0.903731
0.87033
0.856341
0.859962
0.869716
0.878222
0.859195
0.854727
0.842868
0.844144
0.843102
0.851157
0.865257
0.882658
0.891282
0.894717
0.90929
0.931884
0.901301
0.860751
0.858551
0.854343
0.833305
0.82718
0.828534
0.827828
0.827081
0.832536
0.840597
0.838573
0.827557
0.823268
0.823169
0.827928
0.831502
0.837123
0.840336
0.839655
0.836589
0.837931
0.834026
0.845554
0.841066
0.863017
0.857176
0.875714
0.87903
0.890648
0.900275
0.893492
0.875571
0.870354
0.877417
0.875832
0.872517
0.868845
0.85998
0.856783
0.859052
0.862273
0.861848
0.859279
0.852459
0.846358
0.836228
0.843051
0.82563
0.833847
0.822443
0.823131
0.826646
0.833488
0.840488
0.829987
0.835678
0.844944
0.849019
0.852421
0.856338
0.855508
0.844387
0.845088
0.842178
0.852029
0.837733
0.851801
0.853451
0.847135
0.838253
0.823412
0.815016
0.807565
0.803905
0.80702
0.808855
0.811412
0.818026
0.817507
0.820755
0.819685
0.814097
0.814267
0.820887
0.824109
0.822622
0.823795
0.820941
0.824511
0.827792
0.813672
0.795995
0.782103
0.778837
0.780064
0.781633
0.771126
0.788666
0.797586
0.807567
0.806445
0.800835
0.800199
0.800032
0.803621
0.806566
0.80481
0.798842
0.792593
0.785166
0.776952
0.768281
0.760018
0.752227
0.74751
0.749155
0.747124
0.761419
0.765362
0.784484
0.799088
0.81521
0.822629
0.827173
0.827792
0.822965
0.828872
0.840557
0.841647
0.859263
0.865542
0.872326
0.866406
0.860713
0.850704
0.844616
0.8467
0.84174
0.839468
0.822113
0.816484
0.789722
0.795384
0.775102
0.77973
0.77617
0.778412
0.783232
0.795202
0.804934
0.814109
0.825222
0.831159
0.831071
0.830054
0.832289
0.830575
0.803483
0.779049
0.773281
0.769388
0.779354
0.78225
0.789062
0.79153
0.788854
0.784839
0.77708
0.764878
0.759264
0.751592
0.7399
0.732837
0.732225
0.726083
0.732901
0.740327
0.73268
0.759065
0.761933
0.773184
0.78981
0.804931
0.812585
0.821531
0.830519
0.837875
0.841207
0.823822
0.818246
0.820199
0.820191
0.827927
0.82411
0.825376
0.824533
0.818857
0.810686
0.809694
0.798209
0.806733
0.792967
0.805058
0.792296
0.797059
0.801703
0.79485
0.808134
0.799323
0.819241
0.810695
0.826397
0.826095
0.828866
0.830351
0.830244
0.830311
0.829223
0.805473
0.7986
0.797717
0.799412
0.799271
0.800457
0.792943
0.806614
0.806656
0.811573
0.814921
0.818986
0.817276
0.817972
0.803839
0.807379
0.785328
0.795691
0.769947
0.773759
0.763371
0.77048
0.769647
0.782196