/*--------------------------------*- C++ -*----------------------------------*\
| =========                 |                                                 |
| \\      /  F ield         | OpenFOAM: The Open Source CFD Toolbox           |
|  \\    /   O peration     | Version:  2.1.1                                 |
|   \\  /    A nd           | Web:      www.OpenFOAM.org                      |
|    \\/     M anipulation  |                                                 |
\*---------------------------------------------------------------------------*/
FoamFile
{
    version     2.0;
    format      ascii;
    class       volScalarField;
    location    "0.006050000";
    object      rhoEu;
}
// * * * * * * * * * * * * * * * * * * * * * * * * * * * * * * * * * * * * * //

dimensions      [1 -1 -2 0 0 0 0];

internalField   nonuniform List<scalar> 
12384
(
414522
402574
394785
393311
396258
397941
402786
404325
408402
408866
409171
408336
431721
494993
96634
98225.4
123462
137568
149302
163360
177180
188792
192723
197395
198166
202902
202012
208279
204523
205341
212157
200575
209105
193871
196959
183424
179710
171225
166413
162670
159351
114046
80141.1
85854.5
29406.2
52646.8
70383.8
82028.6
87976.4
86628
85735.3
79745
76904.8
73226.9
71079.7
68877.2
67933.5
69090.8
72193.9
77077.6
86369.4
89737.6
108966
104656
130325
117926
150263
141392
164364
164332
178940
168524
152084
153857
60811.8
41198.6
29249.9
26858.4
28238.7
29350.2
30647.9
32608.2
33847.8
35933.7
39010.2
41141.8
44234.7
44131.7
52834.1
44711.4
50352.2
47177.8
46829.5
48327.6
42618.3
36536.2
35573
31511.6
20744.7
-3630.34
-8773.63
-5257.1
-3294.73
-4476.99
33732.1
54998.8
68393
78041.9
83562.7
91927.2
91948.6
100853
92582.7
95998.3
86779.7
79689.4
71837
62690.3
53873.6
44024.4
34736.5
28390.5
24135.6
24334.7
21997.4
10998.5
-1456.56
-4629.15
-16252.8
-14404.1
-25258.2
-22610.4
-27581.2
-27054.8
-54781.1
-51235.2
-64182.2
-61214.9
-58435.2
-45427.6
-39876.5
-33447.8
-32229
-31217.9
-31735.8
-31138.4
-30394.5
-29020.2
-25994.8
-26527.4
-16100.3
-20526.7
-5318.09
-10848.1
4306.25
703.691
11012.6
11954.8
17423.3
24550.3
31393.8
25539.7
22339.4
22095.6
-80158.9
-99360.3
-119624
-111894
-94918.3
-79767.3
-73513.6
-68350.6
-72047.1
-69365.6
-75318.4
-70808
-77264.8
-73013.5
-78585.9
-76544.3
-80332.7
-83137.5
-85877.2
-88229.2
-91083.9
-93564.4
-96058
-102549
-126998
-126100
-124566
-126231
-128757
-128286
-79786.9
-70666.6
-54515
-39240.8
-28638.3
-22967.4
-20042.2
-16414.7
-11277.8
-15013.3
-11667.1
-5227.92
-6886.26
-3334.16
-10663
2542.4
-8304.48
-239.857
156.121
-2940.94
-3103.86
-5635.66
-4204.35
6825.74
3872.76
-4027.92
-6286.38
-7754.76
-9344.69
-10057.3
2157.3
22623.2
32578.7
35757.1
35571.3
35368.9
34708.8
35195.3
27624.4
35108.7
23964.2
27356.7
19893.7
23092.5
12751
18312.2
13367.5
16470.1
15293.9
1571.66
-32400.5
-44216.8
-41394.8
-37189
-33604.5
-34297.8
-38070.1
-41101.2
-48080
-50655.1
-718.484
-13960.3
-9930.28
4968.51
12528.8
14737.5
12569.3
10156.1
7819.02
8992.88
1632.9
6845.9
3203.3
2793.98
-1864.58
-4509.45
-9932.84
-9167.55
-15652.9
-19490.7
-21862.2
-23577.3
-37451.6
-43491.3
-39604.8
-36158.6
-33012.3
-32289
-34500.7
-37175.2
-74482
-61540.9
-55443.9
-54309.8
-53051.8
-54917.4
-58814
-59764
-60855.3
-67501.5
-56760.6
-65135.2
-57156.3
-61020.6
-61986.3
-69023.8
-52807.9
-68992
-56655.7
-60961.7
-51754.8
-59998.2
-60887.9
-65833.4
-60728
-63580.9
-61070.4
-61422.4
-61303.3
-63013.3
-156400
-159114
-154974
-145972
-118120
-100079
-100896
-108137
-112323
-114272
-115080
-115042
-114826
-115967
-117338
-119311
-121299
-122600
-124074
-127045
-125919
-126635
-123267
-124185
-120565
-122317
-121123
-117982
-110035
-133821
-152040
-147970
-148570
-131263
-117648
-128563
-168961
-4836.44
42830.2
45937.8
45538.9
50371.4
49132
51292.7
49045.7
48623.4
41387.8
40061.5
30882.2
28970.6
26853.2
25900.2
36332
43482.8
50059.6
50912.4
51071.9
48158.3
25390.6
-116078
352093
357818
373094
383074
390756
393299
396439
405013
418958
429937
428795
417458
427776
485824
97547.9
105180
134057
153150
176675
199926
215240
215071
214747
213181
215213
215615
218142
217574
223486
219945
231759
228511
239911
236228
238530
227231
214701
200416
183285
172324
167568
147252
107808
85081.1
32978.1
58726.9
80077.8
89988
90519.3
81512.6
72348.5
62015.7
54294.1
42473.9
28838.5
18497.6
13709.2
13328.5
16395.9
23043.5
30402.1
39991.3
55184.1
63428.4
87499.5
92009.9
120226
127458
152271
162139
177186
180236
165354
152634
59569.1
36226.6
25981.3
27554.3
32348.2
35206.9
38730.2
44095.3
46748.2
50446.2
50227.6
50850.9
48272.2
53147.7
42673.9
47599.6
47884
45961.8
40364.1
41665.3
45713.9
41476.9
36163.1
33741.7
28201.1
11601.5
-4309.97
-3611.72
4671.51
4569.74
73067.9
92159.3
104218
112538
117474
120654
119363
122345
121820
116002
115536
106188
94044.2
83016.6
70915
58574.6
46907.7
36869.6
29287.2
24428
24824.9
15851.1
-1975.23
-10403.8
-23574.3
-24721.5
-34195.9
-31823.7
-31307.5
-30937.6
-52963.5
-53691.1
-64615.1
-59049.2
-48865.9
-37488.2
-37182.7
-43153.4
-47937.8
-49616.9
-48459.9
-46547.4
-43815.4
-40796.2
-37759.3
-35114.2
-28424.6
-27155.4
-18085.8
-16374.2
-9485.76
-5612.74
-767.686
3353.71
11188.1
17918.8
27449.7
30175
25445.4
20388.6
-84578
-104222
-101162
-66462.4
-54163.8
-60395.3
-72296.7
-85400.2
-92416.8
-94983.1
-97026.9
-93439.1
-95593.3
-91630.3
-93915.3
-93562.2
-93643.4
-95279.6
-98242.3
-98920.6
-98552.2
-99003.7
-98524.4
-99063.6
-116385
-130471
-136314
-137461
-138883
-137212
-58656.1
-43314.7
-26115.1
-17877.3
-14037.5
-12370.2
-9970.98
-9573.92
-10615.6
-9381.24
-3641.18
-9433.79
-6862.55
-3929.78
-7945.63
1475.82
-1658.68
1561.36
3385.85
3721
1663.36
2308.87
-3114.69
1864.21
2765.44
-13470.6
-18112.1
-19296.5
-17415.9
-15093.6
25957
40266.7
37265.8
31137.9
25713.9
21241.6
18256.1
18382
14290.5
15039.1
13426
10274.4
10514.7
8441.03
11484.5
13672.6
12981.6
17943
17816.4
15094.8
-5090.15
-34942.8
-35612.5
-20835.4
-19985.2
-21494.5
-27994.2
-30914.3
-35212.9
-38341.3
-2914.96
-16903
1648.67
19264.8
18703.7
11045.6
1761.41
-3127.94
-7309.02
-8876.55
-9497.79
-10131.5
-12037.7
-18711.5
-20395
-20320.2
-18263.4
-17405.4
-19284.8
-18853.9
-19651.7
-19081.4
-25072
-38092.4
-34434.8
-25047.1
-22582.9
-21654
-23856.9
-28497.7
-77235.9
-61333.8
-50911
-44746.4
-46668
-52733.5
-56122.1
-62084.8
-62495.8
-65218.8
-63823.6
-61972.9
-65338.3
-61916.1
-65272.9
-60976.2
-65153.8
-62257.7
-60301.4
-60282
-53357.7
-54175.1
-54405.9
-64741.2
-65360.1
-61604.6
-59341.4
-57988.7
-58198.8
-61965.2
-140384
-138606
-134712
-122161
-105077
-103399
-111586
-117069
-117554
-114459
-109200
-103889
-98539.8
-96813.5
-99058.8
-104683
-111598
-120152
-124278
-126903
-126296
-121293
-114908
-115892
-114917
-114378
-116656
-116631
-109865
-125136
-41020
-41467.9
-52825.1
-96921.1
-134163
-154333
-91124.2
34292
54723.3
58166
61645.3
65685.4
66186.3
66690
67171.2
64065.5
56444.8
50843.1
34749
18960.4
865.971
-7566.96
-4845.01
14169.9
35761.3
50648.9
52132.7
48583.7
21272
-116574
352797
369473
382160
369992
346707
325959
322357
329338
360464
402371
437926
434545
432457
475878
98642.1
115999
147249
175926
208009
226961
222863
213205
209018
206823
204374
198640
192952
186710
189948
190088
208478
217815
245758
246451
267542
261940
255941
233019
209282
186606
174762
164123
133395
94072.5
34697.3
65107.8
85954.8
92659
88018.1
78952.7
71035.7
62294.2
46288.1
23504.9
4983.22
-1431.35
-1962.34
263.217
5321.32
11377.2
20305.7
26748.1
43193.6
48675.2
73528.4
77966.2
106325
112707
142436
154670
172213
181683
176086
156797
58115.2
32404.4
27218.6
30767.9
36902.7
40888
47642.5
52885.5
55589.6
55639.9
52770
48644.1
43333
37780.3
31114.9
33858.9
28720.4
30917.9
33947.7
26401.9
29528.4
37769.3
36311.2
31894
29221.5
20791.1
5626.35
-1486.62
8337.94
9000.1
83548.9
104281
115945
126178
128358
130058
130398
132561
124773
127101
114713
107488
99526.2
85952.9
74494.5
62406.8
50326.5
39509.9
29408.8
22842
22567.7
18520.7
-244.094
-11957.7
-29211.2
-29572.3
-36838.1
-33555.5
-34209.3
-30289.7
-50565.8
-55286.1
-62374.2
-49991.1
-42559.9
-41069.1
-54749.6
-59324.4
-57230.9
-52584.6
-48068.4
-42958.7
-38124.5
-33160
-28231
-23237.9
-16892
-14920.6
-8078.06
-6536.51
-3733.73
-2630.65
-1023.05
585.156
2539.8
10366.2
18882.5
28559.2
28183.6
21624.9
-90473.4
-98904.4
-59422.1
-49678
-69233.8
-96596.4
-108006
-110003
-110983
-101992
-100991
-89951
-92456.7
-83893.2
-84330.4
-83816.2
-85430.6
-86541.9
-90970.1
-96873.2
-100941
-102986
-104036
-102491
-106090
-126113
-135416
-136166
-139367
-141239
-45899.8
-27712.2
-16998.7
-13645.7
-13794.1
-13238.7
-13130.6
-14919.8
-13427.7
-9639.52
-11916.1
-14222.9
-7842.93
-5138.78
-8576.02
-5859.85
-4628.33
2382.82
-848.639
7424.96
4258.45
4703.74
684.79
22.9166
924.307
-13827.4
-22127.8
-21688.6
-19524.4
-12846
43583
35034.4
24019.7
16208.2
11800.1
11113.1
6874.39
10505.9
6010.7
8372.85
359.72
3194.72
-1362.69
429.721
-948.506
4227.4
7962.68
13951.2
17281.8
18164.4
12092.1
-11396.3
-31553.8
-19097.2
-16931.5
-22865.1
-29227.5
-32612.1
-35433
-36088.5
-8440.51
-18177.6
22905
20867.6
7004.56
-5964.59
-11558.7
-14277.7
-16786.7
-17338.7
-16397.5
-21589
-23952.5
-21316.8
-24667.4
-31058.9
-32197.9
-31172.2
-28646.2
-26581.8
-24185.2
-22585.3
-22887
-31346.4
-35653.6
-27957.4
-24287.8
-23418.5
-22907.9
-24432.5
-81920.6
-58194.6
-42340.7
-42877.2
-51629.7
-58293.5
-62203.1
-66694.4
-64039
-69956.5
-65950.8
-71328.2
-65656.2
-70325.6
-73013.8
-74008.3
-67525.5
-67449.3
-64646.6
-60293.4
-56460.8
-56483.1
-50773.6
-57455.7
-64311.2
-61670.1
-52656.1
-51794.2
-52139.7
-56507.1
-131022
-123818
-115378
-107959
-105842
-111771
-116142
-113044
-101935
-83833.8
-65328.2
-51040.2
-44079.4
-45058.9
-50608.4
-61881.4
-78755.1
-96401.1
-112471
-122798
-118588
-112000
-104292
-103612
-104121
-104856
-109193
-112986
-109481
-119274
-32626.5
-35703.8
-54916.2
-119708
-143645
-133214
4222.33
56602.4
64749.9
71209.2
75523.5
78129.4
80078
80996.9
81514.6
85165
78309.2
77210.1
64902.8
48253.7
18476.3
-11082
-27153.6
-23639.8
2656.6
28049.1
39541.5
34340.8
-10603.7
-127594
356049
369318
342874
302296
278240
270339
270908
274427
288262
339312
414638
445686
439489
471842
101436
126164
163532
200401
232487
231070
213521
202531
196776
189143
177011
162934
152845
141588
144238
148882
176974
201229
239930
259034
287808
291302
286122
266880
234270
204889
184590
174154
150154
103330
36050.6
68278.5
90718.4
95546
92429.5
87894.3
84712.4
72889.1
46240.2
15651.8
-88.545
-265.945
4527.05
13263.6
21311.1
29040.6
36807.1
48328
56030.2
66941.2
82543.3
85570.1
108705
111782
136034
148443
167985
180175
180661
160831
57037.6
32667.4
28227
34208.1
39589.3
46802.5
52382.3
58111.9
57881.9
57226.8
48846.8
42277.3
31670.1
24333
25586.6
16678.2
17880.8
17554.1
21669.8
27076.5
19387.1
21853.4
30798.6
31052.9
28127.7
24419.5
13400.9
3389.77
8774.95
12971.6
87660.7
111003
120908
124427
126346
127920
130040
125414
133919
121100
119447
114572
103956
89357.4
71942.9
58512.9
48161.5
37670
28376.9
20976.2
19789.2
17798.9
6095.68
-12439.4
-28865.5
-32146.9
-32205
-35620.5
-31202.3
-29795.1
-50817.6
-56640.1
-55049.5
-46928.6
-45653.5
-58617.2
-65354.7
-58852.2
-51842.8
-45224.1
-40218.7
-35411.4
-27823.3
-19050.3
-9750.86
-1219.82
4591.24
11738.5
12003.5
14135
15430.8
8864.36
7253.35
5287.6
1820.03
4466.54
13675.6
24301.1
29668.3
22556.9
-93559.5
-71600.9
-42027
-73155.5
-106102
-118219
-114499
-106500
-97618.5
-88295
-80759.6
-74723.9
-70554.4
-62768.7
-63727.6
-60208.3
-62109.6
-68525.5
-74568.8
-83547
-94802
-102275
-105837
-105999
-105399
-114024
-129868
-133504
-134854
-141680
-38130.5
-19090.5
-13770.5
-14546.6
-15080.3
-15702.1
-16495.7
-16038.6
-12180.7
-16002.9
-18734.5
-13633.5
-16366.4
-17371.1
-10585.5
-13982.1
-11695.4
-3102.02
-3733.8
8555
4425
7000.64
6264.95
775.756
744.254
-7172.88
-16485.9
-18369.3
-16178.6
-6955.33
30716.4
20613.2
12004.6
8417.42
8171.36
5664.91
7125.65
5930.38
5115.18
-462.269
3456.24
-3509.02
-1847.64
-2814.3
-3433.14
-2895.18
297.983
10457.3
13049.5
19454.5
19628.7
5752.75
-22148.5
-22385.2
-16023
-19629.6
-28130.9
-26792
-32177.9
-36590
-16985.1
690.453
22480.1
7889.22
-8230.37
-14523.6
-17432.1
-21103.1
-21007.8
-23465.1
-31137.3
-33569.5
-33041.1
-38952.2
-42726.8
-35570.5
-38377.1
-40719.1
-39223.6
-36976.4
-33237
-29191.5
-26061.8
-28270.9
-33742.1
-33033.8
-30624.5
-29738.4
-26352.5
-26901.1
-74149.1
-46317.9
-39880.1
-52125.3
-60418.2
-63753.7
-65292.8
-65658.9
-68576.9
-72901.5
-76713.7
-78251.8
-84179.4
-83690.2
-80004.2
-79548.2
-80886.3
-70571.8
-70098.2
-64867.8
-59858.7
-54714.6
-55956.1
-52630.5
-59509.4
-61491.2
-53046.7
-47785.6
-47343
-52999.4
-122338
-113016
-107109
-106697
-110924
-113930
-109872
-91746.2
-64709.3
-38301.6
-19216.1
-10286.1
-6447.76
-9449.66
-16613.7
-29059.1
-45771
-69521.9
-97354.4
-114879
-117700
-106047
-101536
-97461.7
-102406
-102678
-104388
-109684
-106947
-114956
-41703.7
-44122.2
-90103.8
-132286
-119648
-32918
49627.8
68542
75308.6
81678.1
82893.7
84169.4
85757.1
82882.5
88232.9
83962.6
87323.4
86178.8
81508.4
79130.3
55688.4
19774.8
-22410
-37830.4
-27725.1
-7952.29
6913.48
623.176
-47542.4
-118149
355307
339999
293596
265649
262414
274114
281250
280173
280708
304831
384774
446298
445194
470992
102872
135818
180441
223601
243562
225174
202164
191359
183568
172679
157951
143691
130805
115036
117149
123567
164165
201216
256447
278101
311016
310960
314498
291268
258664
221229
194339
179637
159255
108191
41132.7
69909.9
87331.6
94032.2
97803.8
101264
99933.9
83515.7
49991.5
17660.9
5404.18
9459.47
20297.9
32179.4
43166.6
56249.8
68459.4
74252.2
84803.1
83805
100597
95270
114099
113643
134435
143891
164079
178447
181701
163332
55612.3
33516.8
31862.1
35779.4
43364.1
49969.1
57107.1
59708.7
59297.7
56051
46480.5
35526
26460.5
20473.9
15967.9
16057
10185.4
5707.68
5760.67
13392.5
20344.7
16070.3
20683.5
28742.9
26890
26937.1
18278.8
9924.47
14086.5
17406.6
84751.9
109436
115352
117738
118181
119317
114920
119049
113758
123755
121428
112590
105436
91539.6
73490.5
53032.9
39225.2
31807.7
24641.1
18546.1
14560.1
16820.3
8128.86
-9564.05
-24679.6
-29099.5
-30973.1
-32458.6
-30554.9
-28551
-47939.7
-52487.8
-52204
-47387.1
-56319.3
-66367.3
-61130
-52297
-47091.3
-43279.6
-35915.4
-23922.1
-11367.4
5161.07
19582.4
28761.2
38453.6
40194.1
48170.8
39694.3
40572.1
33817.1
20471.5
14460
7561.6
4606.37
8203.54
21437.6
29118.5
23598.3
-86517.7
-49957.1
-58107.3
-105124
-119286
-115567
-101635
-90931.4
-80738.7
-76562.7
-73241.6
-61726.1
-59106.2
-52422.8
-49740.8
-45224
-47620.9
-48737.6
-58777.3
-68053.6
-80588.1
-94473.2
-104609
-107562
-107162
-108807
-121384
-128110
-129619
-142562
-30925.3
-15054.7
-14006.9
-16271
-18282.4
-18633.3
-16563.5
-16688.3
-16108.5
-24540.8
-22369.1
-28323.3
-33223.4
-32736.8
-31049.2
-20920.7
-22274.2
-11026.7
-7843.86
3113.77
6249.86
9579.99
8359.96
4057.62
1419.42
-4429.86
-12079
-15820.1
-13888.7
-1745.02
20259.8
12120
6668.52
5620.59
6328.84
6563.92
5331.13
3295.17
-2594.73
-407.107
-9912.48
-8529.21
-13067.6
-13022.9
-9145.37
-4564.34
-2669.75
4598.89
10489.1
19614.4
20367.2
16061.3
-6021.33
-22374.3
-19376.9
-20558.4
-25590.3
-13399.8
-14226.2
-32202.1
-26537.2
27613.3
12414.1
-7388.85
-15493.4
-18808.1
-22630
-26309.4
-29533.2
-44695.6
-50225.9
-53435.1
-57262.9
-59048.9
-54377.2
-60018
-52992.7
-49003.1
-49292.5
-45478
-43621.5
-37714.1
-30980
-29562.2
-35455.4
-38477.6
-38369.9
-34552.5
-25165.8
-23912.5
-65741.9
-39177.5
-50031.9
-63632.6
-68225.3
-66565.4
-64442.7
-70257.6
-74248.4
-85149.6
-88453.6
-91292.4
-87593.6
-91586.7
-97362.2
-91667.1
-88880.3
-86252.8
-75295.3
-70947.6
-65127.4
-56139.1
-53945.6
-54948.9
-55683
-60713.3
-54707.7
-49444.7
-47631.4
-54555.2
-116470
-106268
-104799
-109351
-111706
-109292
-91776.4
-60575.6
-27093.1
-3942.62
8814.44
11938.2
13681.8
10292.4
2919.98
-6809.36
-21091.7
-44077.8
-72542.6
-106452
-118391
-101862
-100159
-98404.2
-105979
-103496
-105137
-105227
-104071
-112439
-58487.7
-49697.9
-88076.2
-96244
-41869.7
29689
68463.6
76797.1
83663.2
86110.4
86900.3
88428.7
87521.9
90042
87757.8
88120.7
84139.4
91989.5
81335.2
85354.7
77990.9
57390.9
8011.63
-36745
-42096.8
-25453.6
-24581.4
-39603
-90627
-110932
343471
307625
264879
263708
292967
321737
331732
325974
312669
317628
376275
448407
451430
471731
104033
144195
194222
238923
250173
220935
194228
185938
177795
169350
158391
143461
121986
104313
96994
112321
153776
213933
267240
302302
314892
322512
319883
307479
272011
232925
200800
184664
163504
111697
40462.8
69513.9
90673.4
101011
107354
109826
107319
89737.9
56776.3
24067.2
13373.1
18490.5
30888.5
45538.4
60621.1
72068
77816
83816.8
83874.1
89152.1
91053.9
95144.6
108156
108043
133791
137628
160556
175846
181068
162040
58816.3
34166.8
34234.8
40714.1
44605
51683.3
58918.4
61123.6
61699.7
58137.5
44271.3
36661.6
22272.7
22142.4
9754.89
14874.9
8245.6
13427.7
5037.61
1395.89
9421.23
10525.6
17484.3
25070.4
30035.9
26130.8
23344.3
14123.7
16295.5
18934.1
85097.6
101392
104704
107085
108760
104172
108603
109218
110424
101627
100142
106144
101137
92424.8
76327.3
57840.1
40049
27586.1
20993.1
14828.1
12257.7
11897.3
8645.29
-7773.55
-17172.5
-28016.5
-27142.6
-30332.4
-30282.2
-26606.3
-45045.8
-50097.3
-47981
-49603.4
-64068
-63629
-53526.8
-48378.9
-43840.5
-36349.7
-22280
-3885.72
15103.5
31790.9
44584.4
56224.6
60690.5
66068
68033.6
69912.1
58668.6
55574.7
42508.1
25205.5
16236.3
8103.95
7195.51
18876
29771.7
22166.3
-76788.4
-45922.9
-87827.4
-116175
-116534
-101322
-88073.9
-79258.3
-74710.2
-70490.4
-65025.5
-54605.9
-52007.1
-38852.6
-36815.8
-37541.3
-36436.7
-38154.1
-42508.8
-54053.6
-71680.6
-86346.8
-100212
-107623
-107713
-108636
-115032
-121833
-126147
-142439
-25089.7
-12330.4
-16014.6
-20356.3
-21247.3
-18880.5
-16280.7
-19154
-21421.6
-30581.3
-33095.7
-43210.3
-40744.5
-42941.2
-44320.7
-39768.1
-32361.8
-16290.9
-14785.5
-4118.79
8977.58
10104.9
9230.99
7065.07
2630.81
-2220.6
-7964.09
-12638.1
-9997.68
5011.71
12787.3
5893.99
2187.8
2836.54
7328.56
5206.1
1486.88
-1492.19
-8039.24
-14235.4
-16737
-20046.6
-12898.1
-17019.2
-13262.2
-11124.1
-5346.5
2300.53
10095.5
16794.1
21412.5
21128
3613.67
-16833.2
-21601.5
-24607.7
-18055.6
7776.76
8060.03
-22910
-26802.4
30932.8
-3259.98
-16350.6
-23170
-24497.9
-26292.1
-38009.2
-48063.3
-64834.7
-62907.2
-74185.9
-80150.1
-79243.7
-83707.3
-73542.7
-71530.7
-65890.2
-61314.1
-54456
-51764.7
-46620.8
-37920.1
-34423.8
-34261.1
-37312.4
-40863.8
-38097.3
-25276.3
-25065.6
-54909.6
-39832.4
-60835.2
-70984.4
-68323.3
-64402.3
-70308.7
-73537.5
-86234.8
-94390.7
-91825.8
-95745.6
-100067
-100834
-95476.7
-99348.8
-95378
-90048.1
-88276.3
-73620.8
-69942.5
-59429.5
-54177.1
-51942
-57871.2
-59372
-54172.6
-50751.4
-47624.8
-54357.2
-111544
-101813
-105293
-109562
-110562
-98205.5
-68645.5
-31217.1
-125.278
17324.3
22130.3
27122.4
29047.4
25709.1
18623.8
7136.58
-9102.36
-23018.4
-50678.1
-93247.2
-116429
-101304
-100743
-99436.7
-110108
-111476
-105777
-105944
-103357
-104252
-76076.7
-45968.9
-54151.5
-38287.2
13847.3
59796.9
76657.3
83389.5
89085.7
86580.8
89987.2
88578.1
85391.8
84072.1
86629.8
88895.3
84099.2
91499.1
85767.2
83922.9
79652.3
77685
45750.7
-18886.3
-54820.1
-35513.9
-38621.6
-67817.4
-115169
-96306
336699
285824
259949
292176
343869
367820
372798
366462
357051
355181
395979
454325
457337
475879
104566
147860
202621
248797
253632
218192
187023
179028
176469
173756
166899
147592
122310
95565.6
87763.2
98176.8
146336
221772
272866
302791
308912
322030
318347
308615
277763
235937
205200
186637
166168
108736
44156
67027.7
82966
95424.1
104381
107800
104367
90988
61657.6
29913.6
15822.3
20408.5
34584.2
48713
65779.3
75449.5
78581.2
80603.4
81884.8
79204.8
82131
83741.8
92577.7
102938
119404
137454
154807
174822
179325
158567
60360.1
40054
35693.4
41955.6
48645.7
50282.6
57297.7
61226.9
65214
58934.5
48041.7
39516
22625.7
23937.6
11179.5
15781.3
7163.96
7064.32
7257.73
5775.93
7855.36
13444.7
10942.6
29106.3
29829.9
29533.5
25274.9
20109.2
23724.8
25455.1
84657.2
96657.8
99476.9
103294
98055
103493
107781
107425
108775
111515
111522
105425
102332
86711.8
66897.9
46677.2
29387.5
19019
14037.9
12628.5
8492.87
8049.21
5666.91
-2397.14
-16833.5
-23647.4
-24232.4
-29993.1
-27434
-27297.7
-42425.8
-47141.3
-45946.3
-58779.3
-65109.5
-57712.2
-51588.9
-47816.3
-41012.4
-26951
-8731.51
12457.1
34550
50198.6
58159.4
65391.2
72900.9
74076.9
77653.4
80576.9
79423.7
67225.7
58129.5
39222.6
20424.3
12152.4
9438.65
19198.5
29894.8
19715.3
-66739.4
-54099.7
-103781
-115193
-104182
-89397.9
-76351.7
-72280
-69100.6
-63748.4
-61184.3
-50895.3
-40889.6
-33845.1
-36359.7
-29615.6
-34689.3
-37188
-40567.9
-42325.5
-60717.1
-79100.8
-97259.9
-105667
-108068
-107650
-111968
-117123
-122490
-142098
-20790.3
-14087.2
-20222.3
-24085.6
-21956.1
-18425.7
-17713.9
-19143.6
-26809.4
-38370.5
-40112.1
-48390
-52383.2
-54802.8
-48806.6
-49014.8
-43868.6
-23342.7
-17143.7
-9154.08
7734.7
10889.9
9813.68
9155.49
3842.14
-1531.08
-5700.85
-11816.1
-5188.18
11095.1
8506.45
2164.93
587.459
3327.33
4743.2
4270.21
115.244
-5881.5
-17536.7
-17979.8
-27791.3
-26466.6
-23968.3
-27721.3
-9843.36
-18455.7
-313.096
-2103.97
9023.82
15001.1
22951.5
23277.2
10591.9
-12626.4
-19767
-25614.6
6909.18
35925.2
30078.5
-9959.01
-18421
23344.9
-8167.36
-19826.1
-26624.8
-29719.7
-34425.2
-55149.4
-56373.1
-75954.8
-79057.1
-97309
-94108.4
-100318
-91806.1
-83099.3
-79699.1
-74552.9
-67255.5
-65690.7
-59314.3
-53571.9
-44257.1
-38128.6
-38071.9
-40947.3
-41697.7
-29026.1
-16738.9
-19684.6
-52421.3
-55766.6
-75894.2
-76557.2
-69526.3
-69949.5
-70152.2
-85080.7
-90723.9
-100381
-94597.8
-101451
-102849
-101815
-108973
-102064
-108133
-93197
-98387.7
-80059.3
-74105.5
-61760.7
-58965
-51796.3
-54569.3
-62858.7
-56875.8
-50848.7
-51221.5
-57327.8
-108591
-100267
-104830
-107117
-104841
-85851.3
-48289.4
-9987.66
14481.9
26118.7
34435.5
37991.9
38488.8
35925.5
30265.1
16215.9
977.965
-15969.2
-34513.2
-74822.1
-114480
-103282
-98523.1
-103312
-114827
-109871
-105868
-100239
-95395
-103591
-96991.4
-42778.1
-18367.9
6570.32
45896
72958.3
82074.4
84493.5
95149.2
86810.3
87268.7
91528.9
90196.2
93819.2
92055
95892.3
85221.3
91361.4
88502
85848.3
78332.2
78756.1
68364.2
14888.3
-59182
-64287
-59937.6
-92931.9
-118639
-90126.1
323482
269276
265132
341737
393491
399356
400467
402684
400538
402817
431559
466924
463405
477851
103026
151232
207737
251582
267861
232994
191845
180340
178323
179014
173177
157710
124516
95610.7
78609.5
90182.7
138855
223595
269275
297734
296919
312352
310064
299434
267112
229691
202529
188019
165427
109262
46161
67486.8
82567.9
92883.2
99776.5
98535
91328.9
79119.1
63541.8
38925.3
22345.2
26539.2
39305.3
51262.4
62234.5
73003.4
77666.3
77377.9
78802.5
75162
76307.1
75878.3
81882
94755.5
109479
134939
152920
173003
175700
151623
61008.4
42819.8
42371.4
42186.7
45658.7
50425.3
51251.2
58889.8
68760.1
60455.5
54095.4
43328.2
26867.9
24669.1
13293.9
18005.8
10189.9
8652.49
4528.77
1697.52
9451.91
14860
14731.8
30211.5
33885.6
31207.4
28362.5
25085.6
29772.6
28622.6
71903.5
91158.8
92640
95009.9
95723.6
96678.7
103153
109966
107876
106559
101403
100440
97294.7
92904.6
74223
50089.4
32514.7
18936.3
8795.01
3985.1
4466.63
4255.86
5952.6
-3802.52
-14735.8
-17894.8
-27250.5
-26295.6
-27918
-27075
-39051.5
-40635.1
-46489.1
-58968.5
-59323.9
-52971.7
-47899.5
-43514.9
-32195.4
-15266.9
6928.16
26929
42784.5
56850.9
66119
71045.6
78617.6
80948.1
84661.3
83368.9
88938.8
78091.9
63705.9
47518.6
24772
12536.5
13803.7
23802.7
30000.8
16940.3
-59776.4
-64082.5
-107265
-107561
-93050.7
-75777.3
-67952.8
-64962.5
-63256.9
-65270.6
-60253.8
-44110
-39157.3
-32982.2
-31220.6
-27244.3
-27520.7
-29807
-41197.2
-39186.3
-56860.3
-74387.4
-94645.6
-104268
-107821
-107724
-111319
-114133
-120718
-119438
-13199.1
-13006.4
-23697.1
-25279.9
-22449.5
-19767.4
-16366.8
-19679.6
-32749.4
-35998.3
-41300.9
-55223.4
-56037
-59473.2
-54136.2
-49341.9
-47482.5
-28359.3
-16960.9
-9951.81
3872.08
12401.1
11430.7
10015.9
3678.47
-1166.69
-6075.3
-10200.5
3060.67
15995.8
7609.17
928.279
-1509.35
3147.18
3586.3
5474.86
-1871.87
-11923.3
-18034.7
-24487.1
-32630.2
-36712.8
-31278.7
-33376
-14831.8
-18293.1
-175.445
-3509.07
8593.35
17344
23739.5
24250.6
15868.3
-4508.68
-20412.3
-8383.68
47948
52404.6
36549
3649.18
-10026.8
4556.39
-15562.6
-24384
-29718.2
-36177.1
-40741.5
-60012
-65401.8
-87646.2
-88865.5
-97716
-97469.4
-96402
-98233.2
-96799.8
-95938.7
-78155.4
-75271.7
-74794.9
-63874.4
-57541.1
-49501.2
-42517.9
-39886.5
-40167
-39953.4
-22690.8
-20814.8
-26177.9
-44848
-62804.4
-73981.3
-77511
-72717.4
-70146.1
-75412.5
-87359.9
-93927.5
-99745.5
-95370.7
-107651
-107506
-115660
-109156
-105343
-102221
-97276.9
-92704
-88597.1
-75594.2
-64361
-57131.1
-56999.2
-52880.3
-60818.9
-59232.5
-51694.2
-53819.5
-66785.9
-105214
-96443
-100981
-105390
-98797.9
-73209.9
-36258.3
3407.68
25671.5
31621.3
41782
46519.5
44852.6
44035.3
40609.5
29026.8
7754.39
-13458.3
-24828.3
-54250.3
-112422
-108638
-92342.6
-99843
-110940
-114753
-104818
-101922
-96755
-99744.5
-106976
-51103.6
3040.62
33559.8
61600.5
76805.4
86129.4
88332.5
89561
96595.8
85331.7
90483.6
97477.1
90724.9
94448.2
90695.4
91930.3
88891.6
92022.5
85262.2
78535.4
74608.8
72424.4
48935
-49355.3
-98009.6
-95926.7
-119063
-101982
-92627
322968
270621
293854
387108
420062
412015
409189
421249
437984
444865
460615
476922
464928
480432
397840
226473
107873
134412
185456
239620
278747
253110
201404
178676
175851
175931
177471
165244
135364
96504.5
76717.3
80946.2
131545
216524
263575
285741
284746
297164
296423
284440
256967
228312
205884
190149
152991
94940.7
67990.4
40793.9
50699.9
60329.7
69257.1
75070
77642
67100
55770.3
56409.4
58902
41236.4
21651.3
27063.6
37295.2
50238
63211.6
76418.7
82791.2
82743.9
79135.9
78051.5
69355.7
78463.6
72281.3
99131.1
102435
134945
152308
166780
167845
140295
111139
81814
69178
45490.4
44891.3
48268.3
43184.7
40659.8
45660.8
55155.9
63504.4
65104
62109.7
46369.9
32852.5
29319.8
15724.6
19193.8
9934.77
6875.56
8443.35
13962.1
23316.7
17610.4
24372.3
36544.3
35694.1
33192.7
31217.4
32083.4
36074.9
40304.1
57326.9
73495.1
82320.9
93258.5
90391.4
89935.8
93506.8
95997
104836
113063
117266
121379
116637
107827
100244
83402.8
66813.8
46617.1
24079.8
10988
8271.65
6421.69
1301.49
3358.46
1742.62
-4169.14
-10218.4
-22833.5
-25590.6
-27246.4
-28769.2
-30289.5
-31096.9
-39489.7
-34859.5
-42567.3
-50046.6
-58779.9
-55514
-49722.5
-47457.3
-40724.2
-28005.5
-11899.9
7103.59
27885.1
45366.8
57740.6
65995.3
72299
78503.6
84203.8
89140.6
87527
89705.2
79192.6
63551.3
45362.2
25306
13487.3
15530.1
28559.4
30151.7
6140.47
-55419.6
-62197
-67974.9
-92066.2
-104020
-96728.9
-82245.5
-68928.8
-59125.8
-55370.6
-62381.1
-65314.8
-59274.4
-46789.3
-39895.5
-29840.4
-33943.8
-30472.3
-30451.3
-32928.9
-39308
-39776.3
-56649.6
-75409.6
-94872.6
-103068
-106313
-106512
-109675
-106818
-65099.4
-24917.6
-20899
-24486.4
-16922.6
-23027.9
-27893.1
-28016.2
-24749
-18317.8
-17123
-22639.2
-25806.6
-31998.8
-46134
-50601.1
-52682.9
-58678.6
-51106.4
-46604.6
-46680.9
-26765.9
-13497.1
-11945
5443.8
12421.4
12758.9
9893.04
6050.83
550.588
-3489.07
15221.2
19028.2
13991.3
8855.43
13526.7
3018.1
-140.633
-2740.11
994.931
4997.96
5599.94
-2323.1
-8482.94
-18936.5
-21561.9
-31671.9
-32883.7
-29379.5
-30352.6
-15023
-16116.2
255.598
-2279.25
12212.2
18818.6
25095.6
26353.5
16586.1
-5179.97
-12808.1
57198.4
73923.8
42564.8
23147.1
7448.45
-2109.78
-14275
-2388.64
-5554.14
-16473.6
-28701.9
-36185.9
-39420.2
-45110.4
-63015
-72280.5
-89912.7
-85776.7
-105547
-102632
-110972
-107063
-105633
-94840.3
-81460.5
-85513.1
-76771.3
-66378.9
-61193.7
-52048.5
-45015.2
-40135.4
-39761
-15456.2
-11423.3
-23725.4
-31293.8
-45995.5
-58575.1
-63390.8
-71775.3
-82778
-81251.5
-73174.2
-73632.6
-76438.9
-87930.5
-92381.1
-103008
-96744.3
-108594
-106320
-110297
-114899
-99566.1
-103683
-97641.8
-84995.7
-93287.2
-72718.4
-69597.2
-52627.1
-58390.7
-53912.8
-58604.4
-55503.5
-52297.7
-50675.5
-57793.6
-64054.7
-78331.5
-93949.3
-94730.3
-99394
-102470
-93655.9
-67209.8
-28505.4
5141.92
29331.1
37560.9
40961.3
49515
48229.9
44952.6
47119.7
36381.8
10313.5
-8572.37
-24159.4
-44943.6
-103625
-113792
-96442.9
-97364.2
-108138
-108322
-103883
-92799.2
-84616
-102662
-133726
-132284
-100425
-47401.2
10595.5
48199.2
62629
77037.3
86726.6
91845.4
88915.3
97373.4
91299.1
85641.2
98346.9
95702.3
97217.9
91301.3
98179.9
87613
93844.9
82177.6
79380.8
71055.4
68004.4
59676.8
-21990.5
-117790
-115669
-108991
-101683
-81038.5
104814
129335
316233
269903
321378
418447
438722
411803
391130
406914
442480
464879
474668
477715
469984
477476
387272
213012
120085
123433
174274
236742
295531
299456
248654
205774
180876
177982
176714
172988
145875
102705
76837.2
77328.8
117561
202520
254628
276638
266755
272462
266913
256352
236770
217473
203506
182574
137844
94773
74065.6
52338.6
54889.3
60466.6
63048.6
60273.2
51350.5
40777.9
37861.6
43141.2
52291.9
48022.7
28733.9
32122.7
39837.3
50110.8
61762.3
74356.3
80969
82952.3
85602.5
79557.9
76092.1
80614.4
79576.6
101307
108786
137281
154544
166755
158488
134409
105729
78520
69757
50455.9
44559.5
49528.1
44087.7
32634.5
32793.7
45484.7
56809.2
64448.4
64519.6
54539.4
39439.5
32795.6
27630.5
24828.3
27097.8
29429.2
20701.1
21839.6
19150.7
23379.8
37230.4
39709.7
36678.3
36936.3
37862.6
42797
51719.5
57059.1
59656.2
72093.5
72051.9
76518.6
82511.3
85278.5
89625.5
94892.9
103045
111781
121825
118797
124315
110409
101302
84896.8
63689.5
43215.5
28265.7
14949.1
4857.97
308.042
2563.42
2826.58
1817.74
-3384.76
-16316.7
-27738.2
-27174.8
-25264.4
-29054
-28586.4
-31239.2
-35516.9
-36681.9
-43398.3
-53785.5
-54847.6
-49245.2
-46879.9
-43240.9
-36559.2
-25541.1
-7162.35
11569.8
28291.1
44681.2
59147.4
70200.3
75990.7
80689.4
85755.3
87291.8
84996.1
85037.6
71182.9
54681.5
38198.2
23135.6
20869
25750.5
30249.1
16837.4
-21719.2
-53878.6
-63574.9
-73608.1
-87239.3
-90460
-86137.6
-77143.8
-61992.4
-47584.5
-49576.5
-61075.8
-60818.8
-64336.7
-50014.5
-43109.3
-30605.7
-35392.5
-30098.7
-32344.3
-37147.6
-39238.8
-43845
-62328.2
-80183.8
-94794.1
-101677
-104512
-106155
-106181
-78206.5
-28908.9
-13428.8
-14350.7
-12654.7
-9011.76
-16388.2
-26196.1