/*--------------------------------*- C++ -*----------------------------------*\
| =========                 |                                                 |
| \\      /  F ield         | OpenFOAM: The Open Source CFD Toolbox           |
|  \\    /   O peration     | Version:  2.1.1                                 |
|   \\  /    A nd           | Web:      www.OpenFOAM.org                      |
|    \\/     M anipulation  |                                                 |
\*---------------------------------------------------------------------------*/
FoamFile
{
    version     2.0;
    format      ascii;
    class       volScalarField;
    location    "0.006050000";
    object      T;
}
// * * * * * * * * * * * * * * * * * * * * * * * * * * * * * * * * * * * * * //

dimensions      [0 0 0 1 0 0 0];

internalField   nonuniform List<scalar> 
12384
(
3065.21
3057.12
3052.3
3054.04
3058.63
3061.9
3065.95
3067.3
3069.17
3069
3068.28
3067.96
3083.03
3058.77
2795.98
2835.71
2853.28
2860.63
2867.98
2878.06
2887.04
2888.95
2884.62
2880.08
2875.52
2874.82
2871.09
2871.87
2867.49
2865.45
2869.22
2860.48
2866.51
2857.1
2859.83
2853.79
2854.57
2853.93
2855.8
2859.23
2859.78
2786.14
2664.57
2643.77
2903.81
2873.47
2906.41
2933.43
2948.69
2956.04
2963.36
2961.43
2960.6
2958.54
2956.96
2954.75
2952.59
2951.04
2950.06
2949.96
2952.61
2951.32
2960.69
2956.64
2971.51
2964.62
2982.26
2982.63
2994.33
3000.66
3006.44
2990.57
2990.64
3007.77
2949.27
2936.9
2927.03
2923.41
2922.43
2919.86
2917.65
2917.06
2914.91
2913.21
2911.93
2909.8
2907.27
2903.91
2905.53
2897.16
2900.08
2898.9
2900.98
2906.55
2908.93
2911.79
2916.73
2919.35
2919.07
2904.86
2898.44
2898.62
2900.57
2900.37
2891.57
2886.57
2880.7
2875.8
2868.79
2864.68
2853.32
2853.25
2843.56
2847.59
2844.7
2845.45
2846.68
2847.19
2848.54
2849.75
2850.87
2851.94
2856.51
2854.75
2848.78
2835.23
2833.58
2839.6
2835.5
2838.65
2832.5
2833.15
2828.44
2827.63
2745.59
2728.27
2717.46
2718.54
2720.57
2732.41
2739
2744.86
2745.07
2744.96
2744
2743.45
2742.75
2742.24
2742.44
2740.94
2747.12
2744.14
2754.97
2752.42
2764.44
2764.86
2773.82
2778.01
2783.31
2788.72
2790.97
2794.94
2819.02
2818.76
2749.05
2751.26
2758.67
2774.03
2785.65
2784.47
2779.95
2782.24
2775.06
2780.51
2770.65
2777.11
2766.71
2772.24
2763.91
2767.18
2765.65
2767.01
2768.8
2770.79
2772.06
2772.27
2770.56
2772.44
2695.32
2624.65
2624.47
2627.31
2626.25
2628.92
2734.29
2736.59
2718.52
2716.84
2733.55
2746.49
2754.1
2758.81
2761.45
2754.94
2753.57
2754.98
2750.7
2750.43
2746.79
2758.25
2754.8
2764.19
2766.25
2764.02
2757.86
2745.38
2747.82
2778.99
2789.79
2795.87
2798.05
2799.63
2798.86
2798.12
2920.53
2909.79
2906.04
2904.06
2901.65
2901.13
2898.06
2894.13
2884.09
2887.85
2874.49
2879.04
2873.23
2880.02
2877.62
2886.85
2888.43
2895.03
2896.7
2880.58
2754.93
2665.89
2666.31
2691.11
2711.29
2724.04
2721.04
2706.22
2679.98
2662.29
2926.38
2895.49
2882.24
2884.98
2889.93
2893.54
2892.66
2890.88
2886.42
2883.04
2874.56
2871.74
2867.2
2865.27
2862.35
2864.51
2867.78
2874.83
2878.8
2885.54
2889.88
2886.52
2834.2
2809
2812.4
2814.57
2817.24
2819.13
2819.38
2818.69
2844.97
2851.16
2858.99
2860.98
2861.84
2860.58
2856.57
2853.98
2848.45
2837.08
2841.41
2826.79
2832.86
2826.03
2830.89
2833.39
2854.11
2849.1
2865.89
2865.6
2873.24
2845.74
2817.9
2812.86
2816.67
2813.45
2813.9
2812.42
2815.81
2819.57
2810.87
2813.27
2816.98
2822.94
2822.85
2810.18
2825.75
2846.49
2861.08
2871.54
2878.85
2881.05
2881.8
2881.75
2881.79
2881.44
2880.46
2879.27
2876.56
2871.03
2865.02
2858.14
2855.69
2848.55
2847.27
2841.83
2837.65
2828.43
2812.07
2854.37
2934.04
2933.2
2877.18
2680.51
2460.84
2359.68
2736.75
2692.86
2613.1
2603.56
2599.66
2600.51
2599.48
2602.04
2603.32
2608.43
2611.26
2620.04
2626.46
2636.74
2645.27
2646.75
2637.97
2614.89
2604.03
2602.61
2607.16
2618.74
2669.07
2950.33
2989.15
3001.31
3033.75
3059.17
3069.51
3074.19
3076.09
3077.91
3080.65
3081.92
3081.34
3075.06
3081.95
3064.28
2800.91
2846.76
2870.85
2886.58
2904.63
2917.84
2910.12
2890.43
2875.39
2869.3
2870.64
2874.12
2880.25
2884.96
2891.99
2892.83
2900
2897.19
2901.65
2895.3
2894.53
2884.89
2876.25
2866.56
2858.78
2858.22
2862.49
2839.42
2757.86
2683.48
2903.68
2883.24
2927.55
2956.03
2968.35
2966.2
2961.83
2954.69
2949.03
2937.63
2924.23
2914.02
2907.79
2904.83
2903.78
2904.77
2906.66
2910.41
2919.11
2924.66
2941.69
2948.83
2969.59
2974.12
2990.34
2996.75
3004.72
2997.82
2995.03
3007.59
2948.36
2933.71
2923.51
2919.9
2916.8
2910.84
2904.72
2901.27
2898.92
2899.21
2899.52
2901.18
2901.08
2903.62
2896.19
2898.25
2897.02
2896.47
2895.54
2898.43
2904.98
2907.31
2909.49
2913.7
2917.24
2912.78
2903.72
2898.73
2902.36
2903.22
2868.98
2872.8
2876.25
2876.01
2871.36
2865.93
2857.27
2852.52
2847.06
2840.62
2843.15
2840.33
2837.22
2836.77
2836.83
2837.92
2839.86
2842.82
2846.01
2852.08
2851.4
2839.3
2835.08
2844.05
2843.44
2847.83
2843.33
2840.74
2834.2
2829.33
2743.79
2727.63
2719.23
2726.05
2735
2744.74
2744.2
2736.74
2730.76
2729.15
2729.35
2730.58
2731.94
2732.78
2733.2
2733.31
2736.69
2736.55
2744.1
2746.23
2754.04
2758.05
2764.98
2768.98
2776.65
2782.96
2788.48
2790.29
2795.69
2792.13
2750.9
2757.48
2780.11
2783.46
2777.78
2778.98
2784.67
2794.05
2789.77
2786.99
2783.13
2782.83
2778.55
2778.57
2772.94
2773.72
2773.87
2775.22
2774.29
2774.44
2774.83
2774.25
2771.23
2770.24
2759.86
2657.28
2595.5
2589.01
2597.68
2602.66
2730.61
2700.49
2721.95
2757.15
2781.36
2790.89
2793.16
2789.49
2782.67
2777.18
2774.47
2765.35
2763.69
2764.46
2762.62
2773.11
2773.31
2781.75
2782.95
2780.82
2771.42
2760.53
2747.52
2759.62
2790.9
2804.31
2806.51
2802.79
2804.26
2809.97
2906.44
2891.41
2899.73
2906.23
2911.71
2912.17
2910.7
2908.94
2902.76
2901.67
2897.43
2894.01
2894.85
2891.97
2893.13
2893.43
2890.42
2894.64
2895.66
2896.88
2850.59
2726.52
2692.78
2767.76
2795.55
2796.06
2786.49
2784.06
2773.08
2740.31
2924.94
2886.56
2880.07
2892.24
2897.16
2898.63
2899.44
2898.28
2893.92
2889.73
2885.52
2881.98
2877.45
2872.04
2872.61
2874.86
2876.97
2880.26
2880.71
2883.63
2887.35
2890.65
2867.85
2821.48
2811.27
2815.68
2818.15
2822.68
2826.25
2825.56
2843.83
2849.71
2860.26
2862.83
2862.07
2860.92
2860.52
2856.42
2854.74
2848.9
2846.08
2842.87
2837.36
2842.14
2840.25
2847.19
2849.23
2855.67
2861.49
2864.37
2869.51
2864.47
2845.77
2812.98
2797.19
2790.15
2782.9
2783.53
2789.41
2793.93
2808.56
2812.99
2823.35
2820.54
2815.13
2824.82
2853.69
2877.57
2887.75
2890.35
2887.79
2880.98
2875.27
2871.09
2868.72
2868.59
2870.55
2871.41
2875.45
2872.59
2861.94
2855.08
2852.55
2848.1
2849.4
2850
2845.29
2835.72
2815.96
2845.91
2757.1
2753.9
2777.91
2885.67
2670.6
2584.31
2827.55
2640.21
2614.46
2612.5
2617.68
2623.87
2628.83
2631.93
2635.81
2639.21
2641.13
2649.99
2658.48
2682.1
2718.43
2752.62
2758.35
2706.73
2657.41
2615.65
2609.68
2621.24
2680.75
2958.29
2990.53
3027.11
3055.65
3061.79
3057.78
3051.96
3051.62
3057.98
3065.06
3074.88
3083.37
3082.35
3083.27
3069.7
2808.94
2862.03
2894.41
2919.93
2939.55
2934.45
2897.98
2867.81
2861.6
2869.75
2884.13
2898.06
2911.88
2918.72
2924.77
2926.2
2932.35
2932.25
2941.02
2939.77
2945.22
2937.46
2919.97
2896.29
2874.61
2861.59
2861.73
2859.16
2813.79
2722.73
2903.07
2897.47
2945.31
2968.8
2970.87
2965.62
2960.35
2953.05
2943.93
2925.1
2907.41
2898.57
2897.47
2898.57
2900.62
2903.04
2908.34
2911.42
2921.05
2924.34
2939.82
2944.83
2964.05
2968.74
2987.32
2993.74
3002.16
3004.01
2994.85
3004.75
2947.04
2930.8
2921.88
2916.32
2910.3
2900.97
2894.26
2890.88
2891.82
2894.91
2900.56
2905.08
2905.79
2904.23
2900.59
2900.19
2893.14
2893.8
2897.41
2895.97
2898.11
2903.62
2905.04
2905.95
2911.11
2914.09
2909.43
2902.35
2905.23
2905.35
2874.46
2883.73
2882.89
2871.52
2861.53
2852.02
2845.86
2842.92
2838.07
2842.53
2843.79
2850.98
2846.89
2841.55
2837.16
2834.71
2833.22
2832.57
2835.08
2840.41
2847.94
2843.34
2833.35
2845.29
2846.95
2851.31
2845.22
2846.34
2837.16
2831.15
2742.98
2727.88
2725.05
2737.17
2741.27
2739.22
2723.77
2716.66
2720.5
2728.76
2733.99
2737.38
2739.34
2740.1
2740.41
2741.28
2744.18
2743.2
2748.64
2749.24
2754.14
2756.72
2761.05
2764.71
2768.68
2775.97
2782.79
2788.19
2788.17
2783.41
2756.64
2774.33
2779.73
2772.95
2783.53
2794.37
2793.3
2792.78
2789.01
2788.35
2783.09
2784.5
2778.07
2779.94
2776.02
2776.27
2775.77
2777.71
2778.16
2777.19
2776.2
2774.81
2772.59
2771.01
2768.1
2752.09
2664.31
2632.89
2627.52
2606.84
2707.83
2715.65
2768.93
2794.66
2798.87
2794.56
2787.09
2777.51
2769.98
2766
2758.82
2750.75
2754.21
2754.99
2754.11
2761.02
2766
2779.98
2781.86
2791.6
2784.84
2774.31
2757.11
2749.99
2775.7
2800.43
2802.48
2792.35
2793.33
2810.33
2879.83
2895.71
2908
2915.17
2917.44
2917.97
2918.01
2915.49
2910.63
2911.09
2902.97
2905.02
2901.91
2904.58
2904.43
2909.54
2902.65
2900.78
2898.18
2898.36
2891.8
2825.04
2719.81
2772.68
2802.44
2788.33
2770.25
2784.1
2800.38
2790.12
2921.08
2874.35
2893.02
2898.23
2898.09
2899.3
2899.35
2901.19
2901.16
2904.84
2901.55
2893.13
2889.5
2890.97
2889.88
2885.4
2889.55
2892.72
2890.33
2888.48
2888.01
2888.72
2883.98
2845.95
2813.31
2807.19
2806.31
2813.49
2826.38
2830.54
2838.77
2853.73
2860.77
2860.86
2861.44
2863.16
2864.18
2863.28
2868.31
2863.99
2868.53
2863.85
2869.11
2861.54
2862.07
2864.03
2869.74
2868.82
2869.56
2867.57
2867.37
2866.14
2863.98
2834.25
2796.47
2773.98
2771.17
2774.86
2781.53
2783.3
2814.2
2819.8
2820.32
2816.58
2826.15
2853.04
2881.13
2890.62
2889.32
2880.76
2872.61
2866.81
2864.79
2862.64
2860.03
2856.07
2853.76
2855.56
2861.22
2864.18
2857.32
2845.49
2844.42
2846.62
2851.54
2857.87
2855.74
2845.4
2822.17
2837.61
2746.69
2744.98
2787.08
2924.31
2809.83
2912.79
2685.85
2626.89
2623.48
2635.83
2647.89
2656.69
2663.36
2666.88
2668.49
2669.59
2660.51
2658.46
2654.23
2662.62
2695.98
2766.54
2820.84
2826.5
2767.59
2674.84
2646.05
2664.84
2740.06
2937.45
3000.01
3029.74
3028.09
3011.44
3003.16
3004.61
3009.61
3016.3
3028.89
3052.46
3075.51
3084.9
3085.05
3072.85
2817.99
2883.01
2923.58
2954.92
2961.41
2925.45
2872.46
2855.3
2864.49
2884.25
2903.22
2914.28
2924.99
2931.13
2938.44
2936.21
2935.97
2936.43
2949.49
2956.96
2973.79
2975.22
2963.65
2938.93
2901.01
2873.42
2863.1
2864.94
2842.17
2752.04
2902.91
2905.3
2957.03
2972.89
2973.36
2970.37
2967.02
2957.53
2944.82
2921.34
2903.5
2901.19
2908.37
2917.33
2925.5
2933.58
2939.63
2947.47
2948.93
2952.13
2956.74
2957.46
2969.52
2971.19
2985.66
2992.09
3000.92
3004.05
2996.7
3004.06
2945.89
2929.33
2920.6
2915.11
2905.25
2896.33
2889.09
2887.22
2886.95
2896.4
2903.6
2907.8
2906.45
2896.34
2889.02
2876.64
2872.97
2870.74
2874.18
2882.73
2886.8
2896.85
2901.66
2902.69
2904.6
2909.84
2911.36
2906.98
2907.99
2908.97
2883.48
2883.68
2868.37
2855.44
2845.87
2838.57
2833.52
2826.33
2828.15
2821.38
2824.7
2830.85
2838.22
2847.22
2842.68
2835.51
2831.21
2827.27
2827.41
2831.27
2840.44
2841.63
2833.91
2837.61
2843.72
2846.15
2845.63
2844.84
2835.52
2831.1
2741.29
2728.89
2735.32
2740.06
2736.63
2719.19
2708.64
2719.74
2731.97
2739.24
2742.77
2743.07
2744.45
2746.26
2750.11
2753.89
2757.05
2762.13
2762.15
2763.78
2765.32
2762.43
2762.52
2763.92
2765.31
2770.41
2778.01
2785.16
2786.52
2780.21
2764.88
2784.12
2769.18
2784.54
2796.63
2793.41
2792.43
2789.19
2786.04
2785.35
2783.1
2782.76
2780.18
2784.38
2774.16
2774.83
2775.35
2775.52
2780.48
2781.06
2777.73
2775.63
2773.56
2771.05
2769.61
2762.94
2740.34
2702.36
2684.98
2627.6
2692.93
2757.81
2795.97
2796.13
2789.31
2780.72
2772.01
2765.97
2763.72
2755.4
2749.74
2749.34
2744.53
2742.1
2748.09
2747.37
2754.78
2768.92
2774.55
2791.5
2790.29
2786.51
2770.53
2752.79
2757.58
2786.69
2797.96
2783.46
2778.23
2803.15
2890.39
2903.37
2911.42
2913.85
2915.21
2918.7
2919.17
2916.68
2915.99
2913.53
2915.95
2910.05
2913.34
2912.12
2912.16
2912.24
2911.7
2913.39
2904.13
2902.83
2902.55
2880.15
2776.79
2757.05
2798.02
2779.99
2758.45
2777.6
2807.29
2805.52
2912.35
2877.27
2896.8
2895.77
2896.42
2898.84
2903.08
2911.98
2910.48
2906.01
2898.76
2896.21
2895.57
2889.4
2886.88
2894
2893.19
2893.58
2895.78
2897.95
2890.97
2889.25
2886.64
2868.93
2829.08
2805.55
2798.77
2807.32
2824.52
2832.38
2841.04
2857.58
2858.81
2859.45
2862.97
2865.74
2869.39
2876.09
2882.53
2889.08
2896.84
2900.29
2894.7
2896.04
2896.27
2895.09
2890.18
2889.63
2881.74
2877.62
2871.84
2869.98
2865.31
2853.36
2811.1
2770.61
2766.82
2780.35
2790.56
2790.87
2814.79
2816.32
2817.03
2824.7
2848
2877.18
2891.24
2889.68
2882.52
2877.46
2876.38
2877.55
2878.78
2876.48
2871.34
2864.22
2856.96
2851.69
2851.69
2861.25
2856.04
2842.06
2839.67
2851.77
2864.81
2876.82
2874.33
2857.19
2828.79
2832.51
2777.12
2768.44
2865.49
2942.08
2908.52
2741.24
2642.61
2632.2
2646.04
2666.12
2682.36
2697.29
2710.54
2715.78
2719.84
2713.09
2703.64
2688.47
2670.06
2662.7
2656.7
2699.23
2798.09
2864.83
2856.47
2792.64
2744.34
2745.64
2824.7
2820.51
2994.22
2997.25
2971.39
2965.41
2983.71
2997.1
3003.66
3005.56
3009.56
3027.86
3064.31
3083.01
3086.24
3074.67
2827.72
2903.06
2954.32
2985.52
2967.41
2902.89
2858.05
2851.03
2867.27
2883.4
2898.6
2913.2
2933.64
2941.57
2947.76
2940.54
2936.05
2936.04
2957.4
2971.24
2994.24
2998.64
2995.16
2969.62
2929.69
2890.09
2868.22
2866.75
2852.92
2766.74
2905.34
2910.24
2961.66
2973.38
2976.59
2977.6
2974.45
2961.84
2946.61
2923.22
2908.08
2910.87
2923.9
2941.26
2956.02
2956.19
2958.63
2957.89
2960.66
2956.73
2964.41
2960.26
2970.34
2971.63
2984.18
2989.84
2999.7
3003.74
2996.96
3003.6
2944.35
2928.24
2920.48
2913.46
2905.42
2896.48
2890.02
2882.72
2884.68
2895.22
2903.01
2906.23
2898.53
2884.56
2872.95
2865.69
2857.69
2852.16
2851.95
2860.43
2873.5
2882.31
2896.89
2900.78
2901.55
2907.25
2911.04
2910.87
2914.22
2911.48
2880.07
2875.05
2859.85
2848.25
2839.88
2835.2
2828.39
2826.9
2820.24
2822.11
2819.54
2817.06
2822.71
2831.41
2841.78
2837.98
2829.67
2824.87
2822.61
2824.49
2833.44
2838.18
2833.46
2829.36
2834.99
2834.71
2835.88
2842.52
2829.58
2821.65
2742.33
2735.82
2739.92
2738.73
2722.24
2706.1
2715.64
2731.83
2740.16
2742.05
2742.45
2744.81
2749.51
2759.68
2769.84
2778.67
2785.96
2789.19
2791.85
2787.94
2784.62
2780.45
2770.15
2767.7
2766.04
2767.5
2775.95
2782.52
2785.75
2779.01
2774.17
2773.6
2775.59
2796.49
2793.19
2789.23
2786.88
2784.51
2786.65
2786.76
2784.7
2783.89
2774.81
2771.9
2766.3
2766.73
2765.03
2768.95
2769.73
2776.23
2781.62
2777.31
2774.42
2771.82
2769.27
2767.52
2759.29
2748.49
2725.86
2644.07
2699.92
2786.29
2792.76
2786.37
2778.54
2770.87
2766.39
2762.46
2760.87
2750.79
2751.67
2744.93
2738.53
2736.69
2736.23
2743.86
2743.46
2758.35
2766.29
2783.78
2790.72
2793.16
2780.95
2760.02
2751.79
2770.24
2785.37
2775.93
2767.24
2797.55
2895.86
2903.95
2908.85
2910.35
2912.71
2919.55
2921.74
2923.1
2921.7
2926.04
2921.51
2923.29
2918.47
2918.17
2918.74
2918.78
2916.1
2917.33
2919.02
2910.26
2905.91
2898.96
2832.72
2761.14
2772.82
2769.95
2759.65
2793.12
2824.04
2817.18
2893.82
2893.33
2892.83
2890.03
2894.84
2901.01
2912.21
2908.69
2909.02
2901.06
2899.01
2896.51
2891.54
2886.72
2890.95
2886.28
2891.89
2895.11
2895.34
2897.29
2897.49
2890.06
2888.71
2877.64
2845.39
2812.64
2797.72
2807.2
2829.92
2839.1
2844.26
2854.34
2854.89
2859.39
2862.81
2866.88
2876.99
2887.66
2903.68
2910.75
2915.53
2919.26
2914.12
2907.98
2901.64
2913.49
2907.24
2901.3
2905.68
2889.33
2879.74
2875.57
2868.7
2857.18
2826.83
2774.99
2764.82
2782.61
2797.27
2798.47
2814.08
2815.85
2821.83
2840.72
2869.67
2889.76
2894.21
2887.44
2885.98
2887.78
2895.06
2899.99
2903.29
2900.43
2891.71
2880.31
2867.08
2852.65
2846.87
2852.81
2855.8
2839.59
2837.73
2859.76
2887.18
2908.72
2900.15
2874.3
2834.56
2829.01
2814.25
2792.19
2871.13
2876.39
2772.62
2663.08
2636.3
2647.14
2672.88
2698.23
2723.31
2747.49
2765.95
2779.25
2780.53
2769.98
2749.71
2732.42
2701.64
2680.7
2660.78
2656.85
2715.5
2839.6
2875.61
2846.47
2815.17
2823.58
2907.5
2698.78
2973.7
2945.97
2930.94
2964.89
3004.13
3019.75
3020.86
3015.21
3009.33
3014.04
3050.58
3081.7
3088
3075.75
2834.69
2922.11
2983.35
3002.06
2969.75
2894.37
2851.11
2845.02
2857.62
2867.99
2882.18
2908.58
2937.68
2956.31
2964.11
2953.73
2937.54
2942.86
2964.53
2988.95
3009.95
3012.08
3008.63
2988.79
2950.34
2904.13
2873.39
2869.23
2857.47
2775.29
2905.23
2912.43
2964.79
2978.32
2981.13
2977.12
2971.57
2959.67
2947.75
2929.18
2913.5
2917.51
2935.31
2956.53
2959.1
2960.47
2959.77
2959.86
2957.46
2957.43
2955.31
2956.88
2963.01
2965.06
2981.07
2986.07
2998.54
3001.99
2995.93
3002.32
2944.81
2927.01
2922
2916.66
2909.4
2900.98
2891.72
2881.56
2881.85
2892.43
2900.32
2904.17
2892.46
2880.64
2864.84
2861.17
2852.11
2851.5
2844.91
2844.91
2856.94
2869.92
2887.02
2899.12
2902.11
2904.94
2911.74
2913.12
2916.88
2911.89
2876.55
2866.45
2850.35
2840.42
2835.76
2829.9
2829.23
2826.54
2823.75
2816.49
2811.82
2813.79
2813.53
2821.09
2831.8
2841.98
2835.16
2825.94
2821.48
2820.51
2828.84
2832.29
2832.57
2824.51
2827.63
2821.28
2830.05
2838.72
2820.84
2814.49
2744.41
2740.71
2741.45
2731.62
2708.99
2710.01
2727.19
2738
2742.13
2741.11
2744.38
2752.25
2765.19
2780.01
2794.03
2806.59
2812.64
2817.14
2818.76
2818.51
2805.29
2799.94
2786.53
2774.36
2769.53
2767.86
2773.83
2779.45
2785.22
2776.27
2773.37
2769.65
2791.94
2792.81
2788.1
2783
2783.21
2785.62
2786.78
2789.25
2781.72
2779.98
2767.3
2767.65
2760.43
2756.25
2757.62
2760.78
2766.02
2769.24
2773.69
2779.64
2775.55
2772.42
2770.42
2768.83
2764.8
2759.21
2750.69
2660.4
2725.44
2792.85
2784.12
2778.73
2771.84
2766.54
2764.73
2761.62
2759.67
2753.05
2751.16
2741
2741.21
2735.9
2731
2732.68
2736.78
2752.71
2757.4
2774.21
2790.43
2794.56
2787.13
2767.65
2752.05
2756.56
2770.25
2764.17
2761.76
2795.01
2890.13
2901.23
2905.19
2906.58
2913.86
2920.35
2924.26
2927.74
2929.44
2916.65
2912.11
2906.5
2913.16
2913.27
2921.75
2922.89
2922.43
2920.87
2922.68
2917.04
2910.36
2906.71
2866.95
2786.63
2764.67
2759.66
2775.73
2828.19
2852.22
2831.6
2880.19
2900.88
2886.22
2888.81
2894.44
2902.78
2910.71
2905.98
2904.03
2897.69
2892.64
2878.84
2871.36
2869.65
2863.77
2873.71
2880.54
2890.23
2892.53
2896.63
2896.05
2891.53
2888.46
2881.68
2863.67
2828.05
2803.93
2811.83
2836.77
2843.44
2852.96
2851.48
2854.41
2858.95
2862.67
2872.25
2880.91
2903.59
2913.78
2922.36
2907.97
2880.03
2859.44
2849.67
2868.72
2875.25
2902.62
2918.83
2904.49
2909.67
2887
2879.16
2870.9
2863.39
2833.13
2783.19
2766.74
2784.56
2804.65
2806.6
2815.26
2818.03
2831.67
2856.76
2882.28
2894.24
2892.55
2889.82
2894.46
2905.37
2916.93
2928.95
2932.98
2929
2918.01
2900.77
2880.33
2863.51
2845.73
2844.57
2859.04
2838.31
2835.04
2871.26
2916.23
2944.66
2929.96
2890.11
2836.65
2833.18
2853.93
2791.02
2810.37
2774.21
2685.72
2640.03
2643.8
2667.61
2700.47
2731.64
2767.93
2801.12
2827.61
2844.58
2846.2
2831.04
2797.43
2769.59
2734.75
2706.69
2676.05
2656.5
2657.17
2768.82
2871.89
2863.47
2847.58
2873.47
2955.94
2580.51
2945.77
2903.48
2925.57
2998.49
3034.06
3040.23
3035.28
3026.85
3018.56
3018.17
3049.19
3082.43
3088.66
3077
2840.56
2941.03
3003.22
3015.48
2981.97
2899.11
2847.22
2834.79
2838.29
2844.7
2862.52
2895.45
2939.08
2966.05
2973.22
2966.12
2943.5
2946.81
2969.78
2992.48
3008.36
3013.7
3008.94
2992.18
2957.49
2909.5
2877.53
2871.13
2859.52
2773.95
2907.78
2912.94
2961.95
2976.48
2980.32
2974.64
2968.44
2958.62
2947.48
2935.75
2915.22
2918.27
2937.57
2959.1
2963.51
2963.01
2959.71
2957.62
2954.59
2948.92
2946.87
2945.22
2950.3
2959.11
2972.03
2985.69
2994.95
3000.99
2994.12
3001.37
2944.4
2928.63
2923.06
2921.64
2918.82
2907.65
2894.11
2881.76
2878.95
2886.45
2896.86
2902.43
2891.75
2881.51
2865.13
2860.54
2849.2
2844.48
2842.57
2843.82
2850.9
2867.19
2879.28
2900.76
2901.52
2906.1
2913.3
2917.19
2921.25
2912.55
2870.3
2861.03
2845.85
2838.08
2830.43
2830.52
2829.03
2825.93
2823.98
2823.55
2819.86
2812.6
2812.89
2812.66
2819.51
2828.85
2834.68
2825.77
2819.77
2819.46
2822.4
2827.34
2829.84
2824.47
2819.09
2816.68
2828.7
2829.26
2809.72
2804.38
2746.25
2744.05
2739.61
2717.25
2705.92
2720.06
2731.14
2737.34
2738.33
2741.48
2748.27
2761.82
2780.15
2796.85
2808.98
2817.85
2825.64
2828.32
2830.29
2832.01
2826.27
2813.31
2799.28
2784
2770.81
2768.63
2773.89
2778.56
2783.81
2773.31
2772.13
2774.81
2794
2787.88
2781.5
2774.21
2772.51
2776.86
2783.22
2788.2
2779.73
2775.49
2766.29
2763.6
2750.09
2751.89
2747.39
2749.17
2756.18
2766.66
2769.88
2779.96
2775.22
2773.7
2771.19
2769.82
2767.62
2763.28
2755.73
2692.36
2751.01
2782.01
2777.76
2774.66
2768.31
2764.55
2763.56
2764.24
2760.41
2753.11
2752.02
2741.94
2734.06
2726.52
2727.36
2724.49
2727.16
2746.28
2754.39
2768.19
2788.23
2794.8
2790.43
2773.76
2754.2
2750.96
2756.14
2753.89
2765.47
2801.87
2889.48
2899.07
2902.1
2904.86
2917.4
2921.29
2927.17
2929.74
2911.77
2908
2898.49
2896.62
2899.48
2898.84
2915.4
2916.34
2932.65
2922.86
2926.12
2924.2
2915.78
2910.52
2886.96
2816.29
2781.47
2762.79
2817.3
2873.36
2882.73
2846.37
2873.45
2899.82
2886.39
2889.31
2894.35
2907.4
2905.5
2898.99
2905.19
2887.27
2878.16
2861.2
2860.48
2852.87
2858.66
2864.75
2871.02
2882.83
2893.94
2893.15
2895.13
2895.91
2889.47
2884.88
2868.94
2837.5
2814.25
2829.69
2852.43
2851.84
2849.46
2846.25
2848.21
2854.53
2858.64
2867.47
2887.4
2908.53
2918.9
2903.01
2873.06
2836.51
2815.2
2816.19
2806.98
2838.65
2852.36
2902.52
2909.36
2913.71
2898.05
2885.36
2871.37
2863.79
2840.15
2786.29
2766.07
2789.31
2808.44
2810.63
2815.73
2819.14
2840.07
2869.26
2889.33
2894.2
2893.94
2896.95
2904.79
2921.6
2941.83
2954.14
2956.63
2950.78
2937.72
2918.28
2895.82
2872.4
2851
2836.43
2862.15
2840.86
2833.23
2876.22
2939.31
2961.44
2950.34
2900.82
2841.52
2833.66
2901.49
2792.82
2752.21
2705.21
2655.61
2645.1
2656.89
2685.75
2728.25
2763.06
2809.71
2857.22
2897.29
2923.92
2923.65
2898.3
2847.24
2802.53
2757.56
2726.3
2696.59
2669.49
2645
2689.14
2851.02
2896.91
2875.58
2921.94
2833.42
2481.96
2917.84
2874.56
2950.36
3032.84
3056.92
3057.34
3051.48
3045.89
3038.46
3035.64
3060.4
3085.88
3089.78
3076.69
2846.02
2956.17
3017.12
3031.16
3001.68
2929.19
2855.87
2829.21
2824.59
2825.71
2836.53
2873.21
2931.43
2970.45
2978.17
2972.54
2946.2
2947.62
2967.56
2988.68
2995.15
3006.06
2999.74
2983.76
2949.72
2905.04
2877.42
2873.72
2860.1
2772.02
2911.14
2912.23
2962.18
2978.15
2979.87
2976.06
2968.58
2958.61
2948.25
2944.7
2920.55
2921.82
2938.89
2956.86
2965.65
2963.11
2958.95
2955.13
2952.33
2946.97
2944.94
2941.37
2943.87
2953.08
2965.8
2983.39
2993.2
2998.86
2992.42
3000.51
2943.58
2929.91
2928.25
2927.86
2926.18
2917
2899.64
2884.13
2877.73
2879.41
2892.23
2900.27
2896.72
2884.12
2867.6
2862.81
2851.99
2845.25
2841.39
2841.91
2852.66
2868.36
2880.98
2900.5
2903.84
2907.35
2915.83
2921.52
2921.2
2905.69
2857.86
2854.95
2842.59
2836.23
2830.61
2826.91
2825.11
2822.73
2817.31
2814.7
2812.43
2809.82
2808.04
2814.63
2820.69
2826.02
2831.91
2831.38
2824.83
2819.66
2818.61
2821.34
2829.2
2822.3
2816.89
2821.08
2829.82
2812.03
2792.24
2794.14
2748.59
2749.41
2735.83
2713.45
2712.84
2725.45
2733.11
2736.63
2739.98
2745.11
2757.51
2771.84
2786.86
2802.32
2813.24
2820.63
2828.54
2833.98
2836.69
2835.69
2836.24
2821.87
2803.31
2790.52
2772.62
2768.09
2775.17
2780.67
2781.82
2769.43
2771.09
2778.38
2788.93
2783.21
2769.19
2759.22
2757.57
2767.69
2780.39
2783.78
2777.9
2776.62
2761.77
2759.96
2752.32
2750.71
2747.59
2750.03
2751.46
2762.91
2767.09
2776.02
2775.35
2773.83
2771.31
2770.09
2768.81
2766.1
2757.8
2759.51
2764.17
2773.36
2776.3
2772.58
2765.77
2762.17
2764.45
2765.09
2757.96
2758.26
2753.32
2735.63
2726.26
2714.51
2715.19
2719.1
2719.49
2741.2
2753.29
2766.94
2785.62
2795.98
2792.77
2777.28
2756.57
2750.06
2748.56
2750.46
2789.48
2826.54
2888.61
2895.13
2897.65
2902.16
2913.65
2922.09
2926.77
2923.76
2907.24
2900.48
2886.69
2883.63
2886.54
2886.42
2907.76
2909.76
2932.25
2925.2
2928.32
2926.82
2919.79
2912.32
2896.23
2842.03
2804.13
2800.42
2881.16
2900.25
2891.61
2860.44
2871.79
2889.6
2882.65
2887.72
2892.86
2900.72
2901.35
2897.65
2901.42
2876.48
2869.58
2860.51
2858.1
2857.12
2854.06
2855.01
2858.84
2879.61
2893.04
2891.21
2895.2
2895.86
2890.09
2885.91
2873.93
2844.06
2823.16
2844.37
2851.9
2849.91
2851.87
2848.36
2850.64
2850.47
2852.62
2866.18
2884.38
2907.38
2918.9
2887.15
2851.81
2807.14
2795.3
2778.74
2793
2803.38
2836.1
2872.72
2906.4
2910.11
2908.65
2889.65
2876.45
2860.55
2841.44
2791.9
2769.29
2797.55
2811.18
2806.69
2816.02
2819.58
2845.07
2873.75
2892.2
2897.07
2895.13
2902.12
2915.71
2935.58
2959.95
2974.8
2974.62
2967.54
2952.67
2932.96
2906.76
2879.38
2860
2834.21
2862.48
2845.49
2835.26
2873.36
2943.45
2960.33
2953.19
2893.24
2836.73
2834.24
2944.03
2815.24
2723.96
2676.38
2652.58
2650.5
2669.52
2701.58
2742.43
2793.15
2838.85
2898.36
2952.39
2976.87
2974.36
2942.13
2887.84
2825.95
2773.84
2734.02
2708.07
2682.22
2651.03
2643.35
2804.63
2950.84
2935.48
2957.36
2653.86
2485.21
2896.16
2867.89
2984.69
3055.35
3065.09
3062.33
3059.92
3065.54
3068.63
3067.3
3076.73
3090.52
3090.52
3080.42
3062
2958.52
2851.55
2938.18
3016.43
3036.83
3023.31
2965.07
2884.51
2834.64
2817.08
2812.81
2818.25
2847.62
2912.41
2969.15
2980.7
2976.66
2951.8
2945.12
2961.37
2978.5
2981.25
2985.23
2981.83
2965.91
2936.52
2900.71
2881.62
2875.24
2837.06
2776.39
2836.2
2893.28
2912.61
2911.74
2956.79
2973.94
2977.76
2973.72
2968.24
2960.42
2949.52
2943.56
2920.46
2912.09
2932.68
2951.93
2971.91
2966.63
2961.79
2958
2953.2
2950.36
2943.94
2946.62
2941.92
2956.46
2962.97
2983.76
2992.13
2994.91
2988.06
2998.72
2989.96
2963.26
2946.24
2931.36
2932.18
2935.82
2930.35
2920.23
2908.89
2891.62
2876.52
2875.05
2886.64
2896.3
2897.85
2891.55
2873.11
2867.55
2854.41
2848.17
2847.96
2854.13
2866.81
2874.43
2889.75
2903.2
2905.44
2912.15
2919.89
2923.96
2915.49
2885.55
2870.9
2880.28
2867.09
2861.49
2847.63
2837.27
2831.58
2826.55
2823.88
2819.94
2815.36
2814.59
2811.93
2807.55
2808.21
2808.06
2814.95
2822.55
2824.47
2824.02
2821.99
2819.18
2815.6
2819.83
2826.44
2822.47
2818.93
2829.53
2817.8
2784.25
2774.33
2779.19
2776.29
2752.7
2751.84
2742.98
2725.7
2710.53
2719.75
2728
2730.59
2734.52
2739.71
2745.88
2756.05
2771.7
2786.46
2798.4
2808.43
2816.83
2824.36
2832.89
2837.27
2834.98
2834.73
2820.52
2801.75
2787.56
2772.53
2769.49
2775.79
2782.33
2777.95
2764.75
2766.62
2764.26
2775.77
2785.57
2784.29
2769.92
2755.11
2742.14
2741.5
2758.23
2774.08
2782.56
2778.48
2773.94
2760.68
2762.32
2751
2750.98
2748.65
2749.62
2753.29
2762.97
2767.48
2774.55
2774.35
2773.35
2771.37
2771.15
2769.91
2769.37
2764.92
2754.97
2752.22
2746.22
2750.55
2753.54
2768.05
2768.81
2762.11
2761.51
2762.66
2762.64
2763.65
2761.08
2748.86
2737.04
2723.74
2710.15
2713.07
2719.18
2719.49
2742.82
2758.13
2768.45
2788.29
2796.62
2793.85
2777.65
2759.96
2750.46
2747.81
2809.06
2854.18
2862.71
2866.77
2876.02
2872.49
2888.87
2894.3
2898.25
2908.65
2920.74
2923.12
2924.3
2903.31
2896.74
2883.58
2881.31
2883.98
2885.43
2905.65
2907.51
2929.3
2926.75
2930.55
2928.21
2921.57
2913.65
2899.39
2853.96
2810.79
2889.76
2918.65
2897.1
2884.66
2876.29
2875.36
2866.98
2876.61
2878.2
2879.02
2881.33
2886.03
2897.91
2898.11
2894.33
2896.84
2873.97
2871.24
2853.55
2853.75
2845.88
2848.14
2850.07
2862.03
2879.67
2888.94
2891.61
2894.17
2895.24
2890.85
2885.49
2873.71
2840.84
2850.4
2857.59
2853.38
2851.2
2844.17
2837.14
2840.02
2837.94
2836.58
2842.16
2847.9
2858.28
2880.14
2901.82
2917.68
2874.9
2844.3
2799.8
2791.44
2783.37
2776.86
2804.06
2817.25
2858.55
2904.3
2907.74
2912.9
2886.75
2879.56
2856.65
2837.49
2792.6
2776.99
2800.6
2812.33
2815.71
2812.3
2806.99
2810.64
2818.87
2843.12
2875.1
2893.44
2899.28
2899.87
2903.74
2919.81
2943.14
2964.35
2983.32
2983.84
2973.18
2959.45
2939.3
2910.25
2885.87
2863.36
2832.16
2861.09
2857.1
2828.87
2858.15
2921.61
2956.15
2937.27
2880.23
2842.44
2880.68
2910.47
2934.37
2895.65
2804.23
2714.19
2666.02
2653.47
2656.24
2676.89
2710.43
2749.45
2802.3
2852.61
2906.4
2966.61
2992.9
2995.59
2951.46
2902.92
2832.44
2778.75
2733.81
2712.86
2689.34
2655.1
2631.59
2745.16
2961.91
2885.09
2737.51
2683.76
2817.07
2504.34
2470.12
2879.27
2871.37
3010.86
3064.53
3070.36
3057.95
3047.69
3057.81
3078.29
3086.73
3090.28
3091.82
3090.64
3082.95
3053.79
2954.24
2873.03
2921.03
3010.48
3039.45
3034.41
3011.92
2953.26
2884.98
2836.32
2813.63
2809.79
2823.69
2886.62
2963.27
2980.12
2983.62
2957.11
2940.76
2952.2
2968.43
2964.67
2962.38
2955.06
2940.66
2915.19
2894.05
2883.71
2866.46
2812.87
2776.8
2822.67
2892.84
2913.42
2916.58
2951.7
2961.93
2956.96
2948.2
2946.89
2952.85
2958.75
2947.12
2925
2908.81
2932.87
2947.62
2967.48
2967.94
2961.78
2958.4
2957.95
2953.23
2949.51
2950.41
2948.59
2960.59
2968.64
2985.6
2992.41
2989.24
2991.13
3003.03
2984.28
2958.7
2945.85
2934.21
2934.68
2939.92
2932.23
2919.45
2910.92
2902.28
2882.63
2872.02
2879.15
2893.67
2897.48
2898.72
2887.62
2878.08
2872.91
2870.41
2864.3
2867.46
2872.99
2884.59
2901.71
2906.18
2909.37
2917.44
2920.91
2910.98
2878.66
2872.62
2875.4
2881.03
2867.99
2861.39
2849.15
2838.74
2832.91
2828.23
2824.29
2819.58
2816.86
2810.13
2809.22
2805.72
2807.69
2811.48
2815.99
2821.83
2825.98
2823.97
2817.62
2814.05
2816.13
2819.54
2825.89
2825.6
2827.72
2829.25
2783.34
2772
2769.91
2772.4
2766.31
2753.79
2746.91
2734.56
2718.2
2716.1
2726.49
2729.93
2731.68
2734.38
2739.22
2748.25
2759.43
2770.1
2782.65
2794.67
2805.17
2811.82
2818.62
2824.88
2827.6
2824.28
2823
2808.18
2792.64
2780.96
2771.99
2774.19
2778.72
2780.59
2774.36
2764.79
2765.83
2765.32
2772.89
2773.65
2766.54
2758.1
2743.34
2726.91
2724.88
2740.39
2764.5
2783.17
2777.75
2775.9
2762.61
2762.64
2753.26
2756.06
2753.13
2752.33
2757.61
2764.77
2768.37
2777.86
2773.99
2772.64
2771.36
2770.72
2769.38
2767.1
2752.58
2740.83
2729.56
2715.61
2717.42
2727.29
2758.99
2766.64
2762.95
2758.85
2757.13
2763.12
2767.08
2759.15
2753.54
2746.7
2730.84
2724.7
2723.67
2727.71
2730.56
2755.52
2764.83
2772.78
2795.59
2796.98
2792.11
2775.95
2759.33
2749.51
2767.09
2831.44
2839.63
2829.11
2820.43
2823.92
2847.18
2881.43
2890.15
2894.95
2903.59
2918.8
2920.39
2928.07
2908.48
2900.65
2886.85
2887.3
2889.51
2889.72
2908.58
2911.15
2928.37
2930.09
2931.02
2931.32
2921.92
2914.81
2896.19
2853.36
2860.34
2932.61
2910.65
2895.82
2888.83
2882.77
2881.31
2877.8
2878.46
2872.8
2872.35
2880.59
2882.15
2891.7
2892.88
2892.43
2892.06
2876.79
2868.93
2853.18
2857.14
2850.57
2855.04
2851.97
2870.55
2882.43
2886.18
2892.5
2894.85
2895.59
2890.41
2885.05
2864.22
2842.52
2859.38
2858.88
2856.96
2852.04