/*--------------------------------*- C++ -*----------------------------------*\
| =========                 |                                                 |
| \\      /  F ield         | OpenFOAM: The Open Source CFD Toolbox           |
|  \\    /   O peration     | Version:  2.1.1                                 |
|   \\  /    A nd           | Web:      www.OpenFOAM.org                      |
|    \\/     M anipulation  |                                                 |
\*---------------------------------------------------------------------------*/
FoamFile
{
    version     2.0;
    format      ascii;
    class       volVectorField;
    location    "0.006050000";
    object      U;
}
// * * * * * * * * * * * * * * * * * * * * * * * * * * * * * * * * * * * * * //

dimensions      [0 1 -1 0 0 0 0];

internalField   nonuniform List<vector> 
12384
(
(0.598448 -0.0644894 0)
(3.16374 -1.77271 0)
(8.17652 -2.60692 0)
(14.3476 -3.89054 0)
(21.8976 -3.24174 0)
(28.6653 -3.29569 0)
(34.2385 -1.38991 0)
(37.3149 -0.149987 0)
(36.9374 2.19068 0)
(33.577 4.13806 0)
(26.3453 5.91127 0)
(17.8446 6.64098 0)
(8.98299 6.66402 0)
(2.51513 5.38218 0)
(-3.26073 8.85887 0)
(-10.6213 9.65652 0)
(-18.2763 8.69171 0)
(-22.8225 6.08559 0)
(-23.2685 3.96411 0)
(-19.294 0.159147 0)
(-10.0615 -3.0155 0)
(4.1302 -6.4743 0)
(21.0799 -7.90523 0)
(40.732 -9.81189 0)
(61.8993 -10.4806 0)
(84.4801 -11.2508 0)
(108.901 -12.0318 0)
(131.291 -12.0053 0)
(158.661 -11.7632 0)
(179.558 -12.0211 0)
(201.276 -8.92913 0)
(221.664 -9.26972 0)
(233.246 -3.85955 0)
(242.682 -2.55342 0)
(237.387 4.28807 0)
(229.317 6.42929 0)
(203.333 13.9616 0)
(169.916 17.5479 0)
(127.935 19.5255 0)
(84.2008 17.9019 0)
(46.4303 12.7329 0)
(19.1783 6.07854 0)
(4.41105 -1.03342 0)
(-0.627567 -8.71507 0)
(-8.57602 9.41938 0)
(-25.381 9.79179 0)
(-40.1178 9.31325 0)
(-53.5678 7.09572 0)
(-61.1396 5.57072 0)
(-64.6498 1.62734 0)
(-60.6328 -0.578298 0)
(-48.4715 -5.82281 0)
(-31.0759 -9.39006 0)
(-3.15503 -13.0766 0)
(30.825 -15.981 0)
(70.0781 -17.8335 0)
(111.152 -18.1219 0)
(151.345 -16.9532 0)
(188.999 -14.7918 0)
(221.434 -12.41 0)
(249.827 -8.61194 0)
(270.07 -8.98901 0)
(284.631 -2.46045 0)
(293.889 -3.17213 0)
(293.238 5.01571 0)
(288.594 3.69833 0)
(265.571 11.8159 0)
(240.189 14.9857 0)
(188.426 22.2711 0)
(139.76 25.8136 0)
(83.8945 24.5404 0)
(37.9667 16.7961 0)
(6.98153 5.46116 0)
(-2.70358 -7.415 0)
(-10.7394 10.6701 0)
(-32.2634 9.95232 0)
(-50.8155 6.33187 0)
(-61.6367 -1.41017 0)
(-61.6995 -4.50673 0)
(-53.8987 -11.8898 0)
(-37.0703 -16.871 0)
(-9.85798 -22.1385 0)
(23.7553 -24.6251 0)
(64.4876 -27.8588 0)
(108.949 -26.9262 0)
(153.936 -28.3135 0)
(198.541 -23.8532 0)
(236.997 -23.4459 0)
(268.449 -18.6263 0)
(297.85 -12.46 0)
(312.989 -8.76223 0)
(317.113 0.312923 0)
(308.595 7.946 0)
(287.608 15.6918 0)
(249.837 24.7367 0)
(197.574 34.5622 0)
(134.958 38.0212 0)
(68.2604 35.0581 0)
(13.2659 27.5556 0)
(-24.5583 17.0699 0)
(-41.9452 6.08297 0)
(-43.2897 0.570638 0)
(-32.0813 -11.6572 0)
(-12.4207 -10.4281 0)
(6.24104 -5.14845 0)
(40.7556 -27.3494 0)
(104.301 -36.5885 0)
(179.008 -37.3898 0)
(249.614 -34.7661 0)
(313.056 -27.2938 0)
(359.719 -23.1944 0)
(391.989 -12.2587 0)
(416.942 -13.4748 0)
(419.579 -1.41688 0)
(420.663 1.16779 0)
(398.809 4.05567 0)
(372.892 10.3599 0)
(344.175 13.8922 0)
(308.628 17.8927 0)
(265.25 21.6314 0)
(215.633 23.8842 0)
(161.934 23.6433 0)
(109.727 19.3959 0)
(65.8264 15.0207 0)
(29.7771 9.60271 0)
(2.16778 8.48445 0)
(-25.8877 5.55576 0)
(-46.8668 6.44921 0)
(-65.0006 -0.439026 0)
(-72.5668 -2.32388 0)
(-65.6494 -13.697 0)
(-49.3701 -13.4041 0)
(-26.884 -16.2345 0)
(-8.6918 -9.32005 0)
(-2.83647 4.92732 0)
(-8.94212 5.04099 0)
(-17.1624 4.65015 0)
(-22.2673 3.32311 0)
(-25.5857 0.391838 0)
(-23.055 -2.14372 0)
(-14.5293 -7.60081 0)
(-0.571836 -9.51846 0)
(19.9934 -13.3847 0)
(43.1936 -14.5202 0)
(70.1809 -15.6713 0)
(97.7934 -15.7261 0)
(125.344 -14.6188 0)
(151.08 -13.2356 0)
(174.85 -10.4195 0)
(191.191 -10.6715 0)
(205.072 -4.54218 0)
(211.994 -5.41672 0)
(210.07 5.23045 0)
(204.586 2.51157 0)
(185.567 10.9919 0)
(167.177 10.9787 0)
(135.356 18.7796 0)
(102.248 20.6682 0)
(63.8942 21.4822 0)
(30.3679 19.6348 0)
(2.13265 14.8278 0)
(-15.5021 8.55854 0)
(-20.0507 0.505642 0)
(-11.0809 -11.3381 0)
(1.8006 2.76521 0)
(6.9737 1.34429 0)
(14.9062 -1.99927 0)
(28.4259 -5.79724 0)
(48.882 -9.70231 0)
(74.9918 -12.9407 0)
(101.922 -14.5915 0)
(133.036 -15.6275 0)
(162.763 -15.6855 0)
(191.261 -14.0602 0)
(220.398 -14.804 0)
(241.596 -10.8045 0)
(264.953 -11.0552 0)
(274.003 -5.39878 0)
(285.637 -5.09466 0)
(279.891 2.21323 0)
(273.298 4.97393 0)
(252.103 11.1596 0)
(224.229 15.6929 0)
(187.582 20.3147 0)
(143.91 23.244 0)
(96.4517 23.7496 0)
(52.8042 20.8469 0)
(15.0244 16.7168 0)
(-13.5398 10.9439 0)
(-30.1675 5.46963 0)
(-40.9615 -1.48048 0)
(-36.859 -4.2099 0)
(-25.1314 -10.1679 0)
(-10.6024 -10.9127 0)
(-0.957387 2.46776 0)
(-0.415812 0.573974 0)
(8.10352 -5.82288 0)
(28.1813 -11.6309 0)
(59.0868 -16.7695 0)
(97.427 -19.9163 0)
(142.244 -21.2595 0)
(187.016 -21.2583 0)
(229.669 -20.2036 0)
(271.055 -14.1772 0)
(303.771 -14.1103 0)
(325.9 -9.36017 0)
(340.606 -4.16897 0)
(352.27 5.24111 0)
(344.794 3.15265 0)
(323.483 13.7794 0)
(294.888 15.2913 0)
(243.952 25.6004 0)
(192.863 29.2163 0)
(125.644 32.2848 0)
(66.4754 28.137 0)
(16.5893 22.0693 0)
(-19.1537 14.778 0)
(-41.9143 9.32048 0)
(-53.8858 5.54396 0)
(-59.3022 1.16643 0)
(-59.2252 -1.46078 0)
(-49.694 -7.32051 0)
(-31.5884 -10.9245 0)
(-11.0905 -9.39705 0)
(-7.43043 2.13447 0)
(0.479465 -8.93433 0)
(25.1858 -19.6739 0)
(67.1145 -25.9293 0)
(116.928 -30.1574 0)
(170.718 -28.2957 0)
(218.94 -27.6362 0)
(264.491 -18.9903 0)
(297.899 -20.8063 0)
(320.593 -7.05691 0)
(342.02 -11.4501 0)
(340.258 5.99358 0)
(335.641 6.20349 0)
(311.152 14.187 0)
(273.876 22.6113 0)
(221.826 27.2304 0)
(160.85 33.1019 0)
(96.6887 30.111 0)
(41.1267 24.9339 0)
(-2.60045 17.6269 0)
(-31.7289 11.377 0)
(-49.1665 6.38685 0)
(-57.9137 3.08053 0)
(-62.0003 0.774173 0)
(-64.3869 -0.884058 0)
(-57.9093 -4.82096 0)
(-45.4616 -8.27714 0)
(-29.0076 -7.41402 0)
(-14.4905 -6.86699 0)
(-4.75561 -3.04186 0)
(-7.6259 4.94247 0)
(-14.2246 -0.172848 0)
(-13.6641 -2.81192 0)
(-1.90413 -11.0235 0)
(25.6307 -18.7538 0)
(65.6316 -24.4699 0)
(116.17 -26.7621 0)
(171.096 -28.5143 0)
(225.345 -25.8926 0)
(276.45 -24.8752 0)
(321.73 -16.9847 0)
(356.951 -15.2778 0)
(377.541 -9.01137 0)
(386.093 -4.87306 0)
(386.952 5.90996 0)
(372.613 6.77196 0)
(339.691 15.4741 0)
(299.97 22.1899 0)
(243.356 28.2656 0)
(177.812 30.6504 0)
(114.68 26.11 0)
(62.1281 18.2187 0)
(25.417 9.73805 0)
(1.36977 1.59559 0)
(-12.3615 -2.96601 0)
(-19.2997 -6.1585 0)
(-21.7288 -8.46603 0)
(-17.5248 -11.613 0)
(-9.12472 -11.6397 0)
(-2.62113 -8.64264 0)
(-10.8996 7.29391 0)
(-22.2923 2.44666 0)
(-24.5847 -2.94131 0)
(-13.7334 -10.2771 0)
(10.0605 -17.5914 0)
(48.521 -23.9424 0)
(97.7846 -26.7807 0)
(149.636 -29.6712 0)
(206.15 -25.0987 0)
(253.462 -25.6035 0)
(295.584 -16.9543 0)
(329.936 -14.7744 0)
(343.911 -4.3937 0)
(360.384 6.04115 0)
(345.033 3.55867 0)
(311.219 20.0936 0)
(278.6 20.6243 0)
(209.626 30.5304 0)
(143.177 37.1259 0)
(69.3906 34.5338 0)
(3.14768 31.252 0)
(-47.4621 21.4709 0)
(-77.8986 13.9706 0)
(-87.6413 2.09204 0)
(-83.1618 0.115553 0)
(-75.2207 -0.891299 0)
(-65.1555 -3.18071 0)
(-47.8735 -6.11853 0)
(-26.0385 -7.13417 0)
(-7.29349 -2.61305 0)
(7.29272 -6.86371 0)
(16.444 -4.10593 0)
(21.02 0.210098 0)
(19.0549 1.81139 0)
(11.2849 6.42201 0)
(-2.87796 8.6714 0)
(-22.4748 11.6619 0)
(-45.0875 12.2982 0)
(-69.0074 12.9524 0)
(-89.9112 10.2283 0)
(-105.156 7.50073 0)
(-112.175 2.73698 0)
(-110.162 -1.73558 0)
(-99.814 -5.89632 0)
(-82.8226 -9.55048 0)
(-60.3449 -12.1041 0)
(-34.4111 -13.3145 0)
(-8.48988 -14.7646 0)
(18.1692 -13.5454 0)
(43.7181 -14.9206 0)
(70.0731 -13.3239 0)
(93.5359 -13.9362 0)
(116.279 -10.1824 0)
(134.377 -7.89957 0)
(139.18 0.260863 0)
(133.583 6.91867 0)
(110.879 13.6294 0)
(77.3904 17.1995 0)
(41.2407 15.9396 0)
(11.6911 9.80764 0)
(5.84796 -7.24858 0)
(16.9147 -6.90053 0)
(24.9748 -2.78906 0)
(25.9977 0.341641 0)
(20.1961 4.15647 0)
(9.67469 6.47155 0)
(-2.91994 9.93641 0)
(-24.5675 13.6551 0)
(-56.7012 17.5804 0)
(-93.2734 20.1601 0)
(-133.568 20.0889 0)
(-170.138 16.6601 0)
(-197.101 9.41251 0)
(-211.932 4.77918 0)
(-213.443 -5.6793 0)
(-199.872 -7.2043 0)
(-179.94 -16.2236 0)
(-149.624 -15.8929 0)
(-116.281 -20.2094 0)
(-80.8279 -17.737 0)
(-47.6638 -16.8577 0)
(-20.3182 -13.2324 0)
(2.10295 -9.75319 0)
(16.06 -5.26656 0)
(23.6682 -2.14637 0)
(26.3556 1.82571 0)
(23.9027 5.26317 0)
(18.4079 5.29189 0)
(11.2319 5.62731 0)
(3.93171 5.50118 0)
(1.00101 -1.62832 0)
(4.13473 -6.40784 0)
(9.8382 -8.65135 0)
(17.1333 -12.0254 0)
(25.7509 -10.3735 0)
(32.8783 -9.61586 0)
(38.3573 -4.49222 0)
(41.6334 -0.37611 0)
(41.382 6.28132 0)
(38.8613 11.8339 0)
(32.4421 17.1811 0)
(24.2237 20.0904 0)
(14.2817 20.7671 0)
(4.65025 17.9615 0)
(-3.99117 26.5597 0)
(-11.4482 27.4141 0)
(-17.2301 23.727 0)
(-19.4015 15.9786 0)
(-16.8709 8.85163 0)
(-10.3941 -1.32036 0)
(-0.19429 -9.44854 0)
(12.4918 -17.9072 0)
(27.0164 -21.1028 0)
(43.0736 -25.9817 0)
(60.1919 -27.1652 0)
(79.4277 -30.8093 0)
(99.9718 -31.7336 0)
(121.967 -34.814 0)
(144.687 -32.7327 0)
(168.512 -34.1459 0)
(190.016 -27.312 0)
(211.028 -25.6334 0)
(224.743 -13.486 0)
(236.433 -6.61793 0)
(234.637 8.15566 0)
(232.52 17.2965 0)
(216.336 32.0634 0)
(192.431 45.1347 0)
(162.841 52.0191 0)
(126.549 51.413 0)
(88.3449 41.1152 0)
(52.5271 25.8397 0)
(24.1499 8.68827 0)
(5.83008 -6.31261 0)
(-9.82481 30.4452 0)
(-28.2003 28.9106 0)
(-43.1841 26.621 0)
(-54.5387 18.7248 0)
(-59.5198 14.6367 0)
(-61.0482 2.97853 0)
(-55.2251 -3.37803 0)
(-41.4372 -17.8117 0)
(-23.2276 -27.5258 0)
(4.41456 -38.8358 0)
(37.4519 -47.0982 0)
(75.2602 -51.7372 0)
(114.614 -51.6369 0)
(152.614 -47.7536 0)
(187.427 -41.7797 0)
(218.369 -34.974 0)
(243.932 -27.4915 0)
(263.562 -21.6536 0)
(280.967 -10.5682 0)
(288.555 -5.17112 0)
(293.375 7.7142 0)
(288.342 11.8361 0)
(272.034 29.0938 0)
(256.064 39.6707 0)
(221.292 55.5753 0)
(187.472 68.3051 0)
(139.125 70.2966 0)
(89.4168 56.7492 0)
(42.799 32.7854 0)
(10.8803 -0.330084 0)
(-12.2782 32.7606 0)
(-32.8708 28.0813 0)
(-48.0085 16.5999 0)
(-58.137 -1.63654 0)
(-58.7248 -14.2214 0)
(-50.9861 -33.3222 0)
(-35.9326 -47.9722 0)
(-10.5209 -61.3141 0)
(20.4572 -70.4846 0)
(58.452 -78.2043 0)
(99.8961 -79.5793 0)
(143.659 -79.3719 0)
(185.912 -70.3044 0)
(221.85 -67.0377 0)
(258.127 -48.0013 0)
(282.24 -37.945 0)
(298.179 -20.1228 0)
(306.636 2.07786 0)
(301.399 22.4038 0)
(287.154 44.2293 0)
(266.717 64.1975 0)
(233.504 87.5349 0)
(189.239 104.72 0)
(136.305 104.838 0)
(79.6268 87.3298 0)
(31.2769 59.3894 0)
(-0.820329 27.5998 0)
(-15.966 10.5953 0)
(-16.7931 -11.3503 0)
(-8.15843 -21.3202 0)
(14.8201 -22.837 0)
(61.1768 -82.725 0)
(130.209 -105.946 0)
(200.671 -106.835 0)
(265.94 -94.8504 0)
(323.253 -77.4645 0)
(369.901 -61.8778 0)
(403.193 -40.7955 0)
(427.506 -28.4687 0)
(439.558 -11.9867 0)
(428.812 2.46292 0)
(415.288 16.0791 0)
(394.184 29.7447 0)
(368.118 40.7941 0)
(339.995 51.4852 0)
(305.732 61.7187 0)
(265.855 67.4597 0)
(219.707 68.1033 0)
(168.436 62.0295 0)
(115.74 52.2294 0)
(65.0091 38.7157 0)
(22.1169 31.5327 0)
(-14.1323 22.2127 0)
(-38.8489 20.1072 0)
(-59.7923 2.09578 0)
(-68.0812 -7.90923 0)
(-60.6053 -34.5086 0)
(-46.7954 -40.179 0)
(-25.8089 -43.498 0)
(-7.35594 -30.3666 0)
(-5.04165 13.9285 0)
(-13.7552 14.5022 0)
(-20.9651 11.5273 0)
(-22.7797 6.51803 0)
(-21.8595 -2.1872 0)
(-15.8917 -9.96829 0)
(-3.74147 -23.6605 0)
(11.5638 -29.9416 0)
(32.4168 -39.1082 0)
(55.8468 -43.03 0)
(81.5045 -44.9578 0)
(108.092 -45.2394 0)
(134.258 -42.7214 0)
(158.886 -39.4889 0)
(181.339 -32.6071 0)
(198.33 -28.9078 0)
(214.29 -15.1741 0)
(219.596 -11.0367 0)
(219.43 4.61823 0)
(214.052 10.2027 0)
(198.152 27.299 0)
(185.102 33.0172 0)
(161.659 49.6624 0)
(139.769 55.2408 0)
(111.618 60.9933 0)
(80.7506 57.491 0)
(50.4 47.9777 0)
(24.2752 31.6772 0)
(6.99975 14.6145 0)
(-0.192711 -7.06065 0)
(1.52984 5.28283 0)
(6.81093 -0.114339 0)
(17.6639 -8.1368 0)
(34.5621 -18.5525 0)
(56.3838 -28.6218 0)
(82.006 -37.2028 0)
(108.498 -41.2002 0)
(138.642 -44.5136 0)
(165.421 -44.0967 0)
(194.317 -42.3627 0)
(220.622 -39.715 0)
(243.455 -33.7699 0)
(265.248 -28.5619 0)
(275.843 -17.0806 0)
(287.269 -10.3273 0)
(282.289 4.70509 0)
(276.398 14.5928 0)
(262.442 27.4443 0)
(240.293 41.0252 0)
(213.642 53.5522 0)
(181.208 63.3201 0)
(143.201 67.6385 0)
(100.984 64.1349 0)
(58.799 54.2778 0)
(21.6404 38.4041 0)
(-4.32974 21.8693 0)
(-20.8483 3.18465 0)
(-24.6702 -7.28361 0)
(-18.84 -23.4225 0)
(-8.34032 -27.0625 0)
(0.832449 4.554 0)
(6.99541 -3.94181 0)
(21.9102 -20.7799 0)
(46.9291 -37.4106 0)
(81.051 -50.9697 0)
(121.598 -59.3525 0)
(165.033 -63.146 0)
(208.678 -61.2779 0)
(252.376 -55.185 0)
(288.062 -44.9465 0)
(317.722 -38.147 0)
(346.164 -23.0745 0)
(358.54 -11.2991 0)
(365.006 3.97687 0)
(356.502 14.4087 0)
(343.378 33.8623 0)
(322.045 45.4918 0)
(282.228 65.5059 0)
(246.909 79.3175 0)
(195.391 86.8538 0)
(140.869 85.912 0)
(86.0286 72.1134 0)
(35.641 52.942 0)
(-2.25148 35.1068 0)
(-27.4453 21.7442 0)
(-43.0536 9.69738 0)
(-48.1458 -0.235236 0)
(-42.1356 -16.761 0)
(-27.7803 -26.1524 0)
(-9.47498 -25.4718 0)
(1.33338 -0.698388 0)
(21.0761 -34.4139 0)
(56.1779 -59.9296 0)
(100.368 -76.7527 0)
(148.975 -83.0443 0)
(198.392 -80.3767 0)
(242.585 -73.2806 0)
(283.65 -56.861 0)
(318.609 -47.9225 0)
(340.258 -24.9261 0)
(358.393 -13.7545 0)
(359.466 4.65359 0)
(350.019 20.169 0)
(338.641 39.6877 0)
(311.595 56.0438 0)
(276.309 71.2942 0)
(233.841 87.342 0)
(179.015 86.7462 0)
(121.389 79.6731 0)
(65.3465 61.8085 0)
(18.4111 42.9394 0)
(-15.5268 26.3881 0)
(-38.26 13.9856 0)
(-51.159 7.4398 0)
(-56.2794 -1.35563 0)
(-53.4018 -13.1744 0)
(-42.1653 -23.4306 0)
(-27.3182 -22.1738 0)
(-13.6641 -18.7467 0)
(-4.08807 -9.78508 0)
(-4.7312 12.7432 0)
(-5.43688 -2.89066 0)
(3.59308 -12.8091 0)
(24.6109 -35.2856 0)
(57.6669 -55.6514 0)
(101.228 -70.4293 0)
(150.958 -78.2403 0)
(203.952 -80.3705 0)
(255.448 -74.2531 0)
(303.003 -65.5364 0)
(344.366 -51.4896 0)
(375.947 -39.5018 0)
(398.783 -23.1808 0)
(409.872 -6.82459 0)
(407.156 7.51087 0)
(392.19 24.5372 0)
(373.59 42.2968 0)
(341.908 58.8401 0)
(301.452 74.2446 0)
(252.855 83.2916 0)
(197.44 79.4107 0)
(138.485 63.4987 0)
(84.5697 41.017 0)
(40.6677 20.2845 0)
(9.15394 4.76282 0)
(-9.7789 -7.87822 0)
(-17.2567 -19.8921 0)
(-15.5905 -31.4197 0)
(-8.53278 -32.0243 0)
(-2.34978 -25.6332 0)
(-8.02055 16.1054 0)
(-7.98767 0.729275 0)
(-1.86952 -14.3176 0)
(16.8202 -34.7434 0)
(48.1839 -55.268 0)
(90.6136 -71.6977 0)
(140.653 -81.0443 0)
(193.91 -81.9665 0)
(245.993 -75.3103 0)
(293.165 -67.1122 0)
(332.699 -48.745 0)
(365.58 -36.5375 0)
(384.11 -14.9322 0)
(384.973 4.877 0)
(379.918 20.2541 0)
(364.045 47.165 0)
(328.813 58.6885 0)
(285.377 86.4009 0)
(233.419 101.124 0)
(168.009 106.33 0)
(98.5587 98.4988 0)
(33.3465 78.0275 0)
(-17.3668 52.2657 0)
(-50.9934 23.2451 0)
(-67.9951 9.9627 0)
(-71.8914 4.56369 0)
(-67.2809 -6.24276 0)
(-54.5786 -15.9955 0)
(-33.0242 -21.3716 0)
(-10.338 -11.044 0)
(3.17584 -13.5722 0)
(7.03006 -6.31426 0)
(6.68006 3.59024 0)
(-0.23043 9.54303 0)
(-13.1245 20.607 0)
(-31.5586 28.5342 0)
(-53.73 34.9381 0)
(-76.7172 36.8852 0)
(-98.7679 35.2184 0)
(-116.817 29.1921 0)
(-128.864 20.0382 0)
(-134.662 8.15254 0)
(-131.866 -5.49887 0)
(-120.526 -17.052 0)
(-101.811 -28.0734 0)
(-77.3436 -36.6353 0)
(-49.307 -41.5812 0)
(-19.7427 -43.4141 0)
(8.59627 -42.7438 0)
(35.2312 -42.5139 0)
(62.8356 -40.5132 0)
(86.9357 -40.734 0)
(109.297 -31.5039 0)
(130.406 -22.6889 0)
(138.319 -2.35837 0)
(134.563 14.8294 0)
(122.171 35.2146 0)
(95.5617 48.9433 0)
(58.3463 49.9783 0)
(19.3222 36.9563 0)
(4.2149 -18.4544 0)
(11.4116 -16.8967 0)
(14.4925 -5.77803 0)
(10.6597 5.3262 0)
(-0.624463 15.2382 0)
(-16.6308 23.2471 0)
(-42.376 38.2768 0)
(-81.9642 48.8135 0)
(-125.514 57.4644 0)
(-167.085 60.9859 0)
(-204.933 55.1953 0)
(-233.277 44.35 0)
(-250.425 26.5777 0)
(-262.18 8.87655 0)
(-259.038 -12.3895 0)
(-244.734 -24.6425 0)
(-225.316 -42.2777 0)
(-193.723 -49.5588 0)
(-158.97 -57.3693 0)
(-122.421 -54.1619 0)
(-87.624 -49.8569 0)
(-57.9293 -39.7064 0)
(-35.1855 -29.1574 0)
(-19.253 -17.1028 0)
(-6.87962 -10.4132 0)
(1.15357 0.752058 0)
(5.23845 4.78136 0)
(6.4382 11.2867 0)
(4.83279 12.9409 0)
(1.90298 13.4633 0)
(1.60471 -3.89004 0)
(6.44711 -11.5828 0)
(13.3417 -15.8501 0)
(20.7355 -20.7207 0)
(29.2772 -18.1241 0)
(36.2309 -15.9172 0)
(41.2048 -7.5624 0)
(43.3027 -0.0701147 0)
(43.1293 10.3027 0)
(40.9345 18.9426 0)
(34.7427 28.2304 0)
(26.6267 33.7204 0)
(16.4551 36.0082 0)
(5.633 33.1354 0)
(-3.88488 43.4095 0)
(-10.5347 42.7825 0)
(-15.2825 36.1585 0)
(-16.187 23.5679 0)
(-13.4731 10.4791 0)
(-7.55146 -3.95497 0)
(0.723522 -15.4049 0)
(9.44567 -26.4975 0)
(18.989 -30.3873 0)
(29.61 -37.7323 0)
(42.2018 -39.1804 0)
(56.4783 -48.5901 0)
(75.2784 -47.8989 0)
(93.661 -57.4626 0)
(116.572 -52.2666 0)
(137.242 -56.9935 0)
(159.514 -46.451 0)
(179.793 -44.0541 0)
(194.773 -26.6327 0)
(209.525 -15.3514 0)
(212.244 6.18582 0)
(213.701 21.7856 0)
(204.014 43.8575 0)
(188.131 63.0463 0)
(163.66 76.5387 0)
(135.636 80.1661 0)
(102.655 70.9315 0)
(68.4443 51.9064 0)
(36.8557 27.9544 0)
(11.1419 3.73024 0)
(-10.1964 52.4405 0)
(-27.235 48.2724 0)
(-40.9663 41.8617 0)
(-50.5932 29.4725 0)
(-54.1874 21.1383 0)
(-54.6951 3.62084 0)
(-48.1528 -7.69171 0)
(-35.2963 -29.2306 0)
(-17.5928 -44.6913 0)
(7.76531 -63.1589 0)
(38.4827 -76.5592 0)
(72.7858 -83.4373 0)
(108.14 -82.6768 0)
(141.881 -76.3894 0)
(172.218 -66.7744 0)
(198.729 -55.7957 0)
(222.822 -44.8475 0)
(241.389 -35.1542 0)
(257.065 -21.216 0)
(268.183 -12.0143 0)
(272.542 5.85214 0)
(273.494 16.4362 0)
(259.085 39.603 0)
(247.284 55.6222 0)
(218.438 79.4637 0)
(192.294 98.8032 0)
(152.145 109.514 0)
(109.658 100.677 0)
(62.1067 71.1777 0)
(20.1466 24.7208 0)
(-11.3278 55.3938 0)
(-31.0438 44.7216 0)
(-46.3914 25.64 0)
(-56.6581 -0.971622 0)
(-58.0017 -23.0486 0)
(-53.0153 -52.2346 0)
(-42.0089 -74.8751 0)
(-21.4428 -97.7901 0)
(4.88401 -113.585 0)
(37.9197 -126.185 0)
(75.3323 -128.549 0)
(115.08 -128.003 0)
(151.689 -115.975 0)
(188.029 -104.379 0)
(219.014 -80.5297 0)
(240.947 -60.8198 0)
(261.907 -32.3184 0)
(268.121 -3.56743 0)
(265.455 25.7004 0)
(254.508 60.6611 0)
(239.525 92.8594 0)
(222.178 123.498 0)
(195.254 151.614 0)
(158.514 162.505 0)
(115.279 147.062 0)
(70.0771 110.246 0)
(30.7457 63.8693 0)
(5.5855 28.9343 0)
(-4.3892 -4.76206 0)
(-4.3725 -23.7828 0)
(18.7701 -56.0635 0)
(69.1131 -145.4 0)
(132.673 -174.538 0)
(193.762 -170.26 0)
(248.979 -149.254 0)
(296.895 -124.256 0)
(336.493 -98.6119 0)
(368.241 -73.0149 0)
(388.07 -44.8789 0)
(397.521 -22.3127 0)
(402.801 5.24736 0)
(391.105 24.592 0)
(374.26 44.0023 0)
(355.76 61.9838 0)
(331.26 78.1005 0)
(303.928 91.7186 0)
(270.934 101.657 0)
(233.618 106.64 0)
(191.12 104.115 0)
(142.748 94.9375 0)
(92.3867 78.8199 0)
(47.3594 63.48 0)
(8.83804 46.3705 0)
(-18.3263 34.7521 0)
(-40.3554 8.19881 0)
(-50.5513 -13.8901 0)
(-48.1668 -49.9384 0)
(-37.0901 -65.6296 0)
(-20.2995 -64.9782 0)
(-6.20354 -52.6926 0)
(-3.53101 25.5177 0)
(-10.858 23.9854 0)
(-17.6221 17.1751 0)
(-18.4158 7.74158 0)
(-17.4735 -6.63832 0)
(-10.9677 -20.1673 0)
(0.64856 -38.4903 0)
(15.1482 -51.6145 0)
(34.1026 -63.1221 0)
(55.1506 -70.8614 0)
(77.3816 -73.1104 0)
(101.231 -73.1266 0)
(125.44 -69.7946 0)
(148.749 -64.9109 0)
(170.812 -55.8474 0)
(187.081 -48.1509 0)
(202.021 -28.1407 0)
(209.994 -18.9689 0)
(210.554 3.84947 0)
(209.237 14.6044 0)
(192.646 38.7751 0)
(181.353 52.2454 0)
(160.055 70.1484 0)
(143.939 83.356 0)
(121.505 93.5825 0)
(98.1216 92.1616 0)
(72.716 83.9174 0)
(45.5541 63.2449 0)
(21.7748 38.3797 0)
(6.04355 7.35108 0)
(1.23955 8.24363 0)
(7.44021 -1.87633 0)
(18.4572 -15.3181 0)
(34.733 -31.9207 0)
(55.1111 -46.7457 0)
(78.2997 -58.0988 0)
(100.888 -65.3205 0)
(126.42 -70.9439 0)
(150.256 -70.8225 0)
(176.254 -70.5797 0)
(202.306 -64.2063 0)
(222.598 -58.6279 0)
(245.485 -46.0322 0)
(255.896 -32.3662 0)
(269.248 -17.1881 0)
(267.46 3.97313 0)
(262.686 21.8903 0)
(249.408 40.4482 0)
(231.627 59.0842 0)
(208.421 78.4677 0)
(182.93 94.3029 0)
(154.364 104.296 0)
(121.583 104.51 0)
(86.1647 94.1887 0)
(51.276 71.8651 0)
(23.0348 45.074 0)
(1.62396 15.5878 0)
(-6.16966 -5.73221 0)
(-5.54613 -30.6256 0)
(-3.67259 -38.7149 0)
(1.86781 4.83564 0)
(10.4851 -13.7893 0)
(29.1787 -40.6455 0)
(57.031 -66.6597 0)
(91.849 -87.0239 0)
(130.028 -99.4534 0)
(169.96 -102.973 0)
(210.082 -97.7732 0)
(247.51 -88.565 0)
(277.171 -76.3244 0)
(305.339 -56.9515 0)
(329.532 -39.2854 0)
(338.427 -20.2762 0)
(347.813 1.25755 0)
(344.281 21.4797 0)
(329.286 48.4066 0)
(314.23 68.8797 0)
(281.977 92.7217 0)
(253.465 117.2 0)
(214.528 129.6 0)
(173.902 138.756 0)
(125.1 124.826 0)
(77.6507 101.504 0)
(34.2622 72.067 0)
(1.59153 47.3357 0)
(-18.4604 25.938 0)
(-27.2811 3.33327 0)
(-25.5364 -23.0939 0)
(-17.2562 -37.3287 0)
(-6.2871 -38.6113 0)
(9.97777 -17.8978 0)
(37.28 -68.6897 0)
(74.7002 -104.444 0)
(116.543 -125.892 0)
(158.374 -131.892 0)
(200.481 -127.826 0)
(237.739 -114.148 0)
(273.133 -93.0278 0)
(300.155 -74.1898 0)
(316.952 -47.2686 0)
(334.916 -22.8452 0)
(337.313 2.37608 0)
(338.879 26.2403 0)
(324.727 52.6417 0)
(304.291 79.4058 0)
(281.211 102.408 0)
(251.089 126.226 0)
(210.743 134.374 0)
(167.142 134.353 0)
(113.799 114.083 0)
(64.3702 87.4018 0)
(21.4679 59.2773 0)
(-9.88732 35.8949 0)
(-29.7681 19.0223 0)
(-40.1789 1.46062 0)
(-39.258 -20.5727 0)
(-30.555 -35.7912 0)
(-18.5884 -36.2936 0)
(-9.1085 -27.7653 0)
(-2.77295 -15.6425 0)
(-1.88073 15.9932 0)
(1.52972 -9.9032 0)
(15.4997 -32.2828 0)
(41.2852 -65.6845 0)
(76.3171 -96.0032 0)
(119.338 -118.703 0)
(166.445 -129.017 0)
(214 -130.54 0)
(259.616 -118.847 0)
(300.573 -104.455 0)
(335.681 -84.4746 0)
(364.38 -60.6217 0)
(384.218 -35.4347 0)
(390.185 -12.8284 0)
(387.903 11.7405 0)
(380.71 36.2948 0)
(360.1 62.3255 0)
(337.879 85.9789 0)
(307.786 107.509 0)
(270.701 123.887 0)
(227.167 127.948 0)
(175.928 114.897 0)
(121.828 87.4906 0)
(73.2348 54.2755 0)
(35.3561 22.6364 0)
(8.96907 -3.9749 0)
(-4.3222 -27.9087 0)
(-5.65695 -47.5981 0)
(-2.63424 -48.5184 0)
(-0.497184 -39.7506 0)
(-4.9206 16.1491 0)
(-2.18799 -7.80862 0)
(11.8586 -34.9094 0)
(35.847 -66.5707 0)
(71.0699 -98.279 0)
(113.624 -122.465 0)
(162.061 -132.844 0)
(209.768 -132.108 0)
(255.599 -122.222 0)
(296.805 -103.171 0)
(329.386 -82.6298 0)
(356.117 -55.2778 0)
(369.779 -27.3958 0)
(382.758 4.83348 0)
(376.913 28.4767 0)
(352.45 64.2512 0)
(333.889 88.8709 0)
(300.245 124.49 0)
(260.794 148.887 0)
(216.006 167.282 0)
(158.451 164.197 0)
(97.6464 145.753 0)
(39.966 104.148 0)
(-8.59178 64.9135 0)
(-41.5534 32.2662 0)
(-57.9855 18.5998 0)
(-61.0392 -4.48033 0)
(-52.8345 -23.3378 0)
(-34.2052 -37.7413 0)
(-11.4339 -26.1003 0)
(1.58256 -15.719 0)
(0.374314 -3.94659 0)
(-5.3118 9.64067 0)
(-16.554 23.6 0)
(-31.922 37.7887 0)
(-51.5037 50.6375 0)
(-72.596 57.9585 0)
(-94.8939 60.1413 0)
(-116.039 56.0087 0)
(-134.652 46.5047 0)
(-149.124 32.1926 0)
(-157.188 13.1488 0)
(-156.089 -10.226 0)
(-144.831 -30.209 0)
(-125.556 -49.764 0)
(-99.5211 -64.6257 0)
(-68.4505 -72.7998 0)
(-36.3939 -75.25 0)
(-5.35161 -73.5858 0)
(22.9913 -69.524 0)
(48.8689 -68.554 0)
(74.6705 -66.9453 0)
(96.6638 -55.4697 0)
(117.01 -38.0831 0)
(127.919 -11.344 0)
(126.159 18.9882 0)
(116.372 50.4672 0)
(92.568 75.8551 0)
(59.2564 84.9232 0)
(21.0262 72.3893 0)
(1.7952 -27.355 0)
(4.02062 -23.1841 0)
(2.7081 -5.58038 0)
(-5.45147 15.1972 0)
(-21.1047 31.2108 0)
(-44.6119 52.1568 0)
(-80.1738 78.1046 0)
(-123.294 92.6581 0)
(-164.947 100.214 0)
(-202.406 98.0902 0)
(-233.816 84.7492 0)
(-257.082 65.5955 0)
(-274.461 39.1493 0)
(-281.252 11.8807 0)
(-282.396 -17.5751 0)
(-269.313 -44.385 0)
(-251.496 -69.9412 0)
(-220.406 -84.237 0)
(-186.691 -95.7218 0)
(-149.118 -93.0636 0)
(-113.201 -83.8772 0)
(-82.2667 -67.1532 0)
(-58.9524 -49.6151 0)
(-42.7997 -30.5149 0)
(-29.8378 -21.0415 0)
(-20.7354 -4.07625 0)
(-13.6567 1.9399 0)
(-8.32054 11.8989 0)
(-4.40774 15.4596 0)
(-1.29681 16.9012 0)
(1.90433 -7.65644 0)
(6.76265 -17.8836 0)
(13.3745 -23.5922 0)
(21.0248 -28.2099 0)
(28.5656 -24.3702 0)
(34.1611 -21.2371 0)
(38.5088 -9.59913 0)
(40.6956 -0.0661609 0)
(40.0625 14.2096 0)
(38.7468 25.7252 0)
(33.9554 38.3482 0)
(26.2164 46.9442 0)
(16.4544 51.1588 0)
(5.65104 49.025 0)
(-3.69829 58.3414 0)
(-9.5309 56.2512 0)
(-13.5268 46.3934 0)
(-14.8463 30.0029 0)
(-12.497 11.9349 0)
(-8.2318 -4.10055 0)
(-4.04037 -19.039 0)
(0.493975 -29.3057 0)
(5.70317 -36.077 0)
(12.0216 -43.3474 0)
(20.8027 -50.0822 0)
(32.8185 -60.2814 0)
(49.4822 -65.2797 0)
(66.4749 -75.3086 0)
(87.3758 -72.6309 0)
(107.625 -77.4331 0)
(128.053 -64.3913 0)
(145.241 -61.7683 0)
(159.711 -38.4279 0)
(173.689 -26.6021 0)
(177.358 2.77451 0)
(182.2 23.4835 0)
(176.492 52.2795 0)
(164.819 75.7346 0)
(149.801 93.9809 0)
(127.529 101.29 0)
(101.734 95.4671 0)
(72.6236 76.4118 0)
(42.1223 49.9536 0)
(13.6273 20.6439 0)
(-8.59511 72.6751 0)
(-24.9322 66.6227 0)
(-37.9432 56.226 0)
(-45.84 39.2603 0)
(-48.0211 27.1201 0)
(-46.6809 2.80453 0)
(-40.904 -12.5334 0)
(-29.165 -38.78 0)
(-12.9874 -60.2023 0)
(8.95005 -83.8286 0)
(35.576 -101.767 0)
(65.2706 -110.682 0)
(94.7228 -108.596 0)
(122.141 -99.2933 0)
(147.038 -86.0852 0)
(170.004 -72.0488 0)
(190.299 -58.9709 0)
(210.627 -47.343 0)
(228.167 -32.969 0)
(238.094 -17.7058 0)
(249.554 2.42905 0)
(245.952 22.6705 0)
(239.108 47.8367 0)
(225.992 69.9852 0)
(201.272 99.6541 0)
(179.749 122.095 0)
(146.302 141.364 0)
(109.347 139.127 0)
(65.2648 111.389 0)
(21.9611 59.5869 0)
(-11.1606 76.3424 0)
(-29.8843 61.1935 0)
(-44.4745 35.3096 0)
(-55.9795 1.43841 0)
(-59.9095 -27.8687 0)
(-58.5123 -66.5623 0)
(-52.2037 -96.4202 0)
(-36.6211 -128.074 0)
(-15.7913 -149.433 0)
(11.3619 -167.955 0)
(42.4293 -171.143 0)
(75.8551 -171.208 0)
(109.19 -155.419 0)
(140.411 -139.665 0)
(168.876 -110.903 0)
(189.79 -79.4616 0)
(204.177 -46.3525 0)
(211.728 -6.97448 0)
(217.253 30.2747 0)
(212.211 69.6234 0)
(197.696 111.445 0)
(183.144 149.841 0)
(168.977 183.575 0)
(147.246 202.678 0)
(117.427 194.959 0)
(82.8234 157.833 0)
(48.4297 105.078 0)
(22.3886 54.6492 0)
(7.73495 9.51194 0)
(0.543613 -17.9921 0)
(20.5657 -94.4993 0)
(69.8164 -205.808 0)
(124.159 -234.529 0)
(171.617 -223.852 0)
(215.13 -195.288 0)
(254.416 -165.011 0)
(288.836 -131.556 0)
(316.415 -98.7887 0)
(337.491 -67.3355 0)
(346.857 -34.786 0)
(343.445 -4.78668 0)
(338.924 27.6833 0)
(333.34 53.7784 0)
(318.18 79.2106 0)
(300.039 100.47 0)
(277.382 118.236 0)
(252.978 130.213 0)
(223.91 137.542 0)
(190.054 138.861 0)
(151.502 131.98 0)
(109.852 117.37 0)
(68.7346 96.1355 0)
(32.3891 72.4983 0)
(4.75914 50.3738 0)
(-13.7772 19.0233 0)
(-27.1945 -18.6078 0)
(-29.0651 -60.2441 0)
(-20.5004 -81.9662 0)
(-12.4814 -82.0864 0)
(-3.92324 -67.2447 0)
(-5.87014 36.1807 0)
(-16.9519 31.62 0)
(-21.5824 23.0754 0)
(-23.3287 7.50681 0)
(-20.4181 -10.1629 0)
(-12.684 -30.6732 0)
(-3.244 -51.5241 0)
(10.1536 -69.739 0)
(26.4533 -83.1253 0)
(45.7414 -92.6059 0)
(65.8635 -96.7513 0)
(86.596 -98.1985 0)
(107.384 -94.9094 0)
(128.971 -88.4795 0)
(149.502 -78.4306 0)
(169.144 -65.5904 0)
(183.542 -44.9444 0)
(189.018 -24.1769 0)
(192.207 2.46327 0)
(185.201 23.5983 0)
(175.756 49.2535 0)
(160.642 70.1588 0)
(145.158 89.6385 0)
(131.353 105.503 0)
(112.214 117.459 0)
(94.8289 121.515 0)
(74.2934 114.994 0)
(50.7349 96.209 0)
(27.4151 67.2869 0)
(8.51016 30.1843 0)
(-0.502535 14.0222 0)
(3.72122 -2.45897 0)
(13.7992 -21.8327 0)
(27.7302 -43.0294 0)
(43.654 -61.2449 0)
(62.6179 -74.5417 0)
(81.8626 -86.2375 0)
(104.357 -92.711 0)
(127.187 -95.2328 0)
(153.061 -95.3299 0)
(176.191 -88.0484 0)
(198.975 -80.4277 0)
(221.77 -65.4695 0)
(233.173 -47.1034 0)
(247.816 -23.2953 0)
(245.052 0.363365 0)
(238.317 27.5138 0)
(226.538 54.5913 0)
(208.855 76.8071 0)
(189.232 98.5787 0)
(166.148 117.026 0)
(143.832 132.004 0)
(120.458 135.924 0)
(93.7994 127.277 0)
(65.9123 104.236 0)
(39.4294 71.4734 0)
(15.4646 33.2361 0)
(1.16519 1.92039 0)
(-3.57676 -29.7061 0)
(-4.05786 -42.0715 0)
(2.56244 3.32303 0)
(12.688 -25.5684 0)
(32.5543 -62.4325 0)
(59.4251 -95.5486 0)
(90.677 -121.015 0)
(124.063 -134.148 0)
(158.915 -136.578 0)
(191.142 -129.331 0)
(220.417 -117.478 0)
(247.92 -98.6437 0)
(270.676 -74.6213 0)
(288.278 -54.2963 0)
(299.957 -25.3178 0)
(305.504 3.61984 0)
(302.516 28.9339 0)
(295.984 59.2763 0)
(277.65 89.6652 0)
(257.619 115.342 0)
(233.382 145.357 0)
(204.326 162.749 0)
(174.212 177.985 0)
(136.26 168.73 0)
(98.3919 147.7 0)
(58.5457 112.337 0)
(26.8487 78.0032 0)
(2.99987 45.2232 0)
(-11.1425 12.1251 0)
(-14.4024 -22.7794 0)
(-10.4934 -41.849 0)
(-3.65683 -43.7922 0)
(13.7412 -45.2302 0)
(44.7982 -106.178 0)
(79.4099 -146.472 0)
(113.859 -169.148 0)
(148.42 -172.579 0)
(182.53 -167.295 0)
(212.435 -146.831 0)
(238.79 -124.729 0)
(265.099 -94.0616 0)
(278.512 -64.3865 0)
(291.389 -33.327 0)
(297.411 -2.27735 0)
(293.554 30.6883 0)
(291.176 61.6003 0)
(274.835 95.558 0)
(257.315 122.862 0)
(236.117 153.647 0)
(207.896 168.793 0)
(177.148 176.317 0)
(135.651 160.585 0)
(93.5167 133.104 0)
(51.9643 96.529 0)
(16.9578 62.714 0)
(-7.83727 34.3187 0)
(-20.8173 7.59078 0)
(-22.8299 -24.2553 0)
(-17.0959 -45.1105 0)
(-9.89271 -46.1145 0)
(-3.5942 -33.3245 0)
(-0.379529 -18.0221 0)
(-1.03293 14.3237 0)
(5.30619 -20.8891 0)
(22.4015 -54.9837 0)
(49.7154 -97.3769 0)
(83.7619 -135.93 0)
(122.773 -164.019 0)
(164.05 -174.337 0)
(205.356 -173.671 0)
(242.935 -158.734 0)
(274.937 -137.49 0)
(304.425 -108.493 0)
(326.716 -77.4675 0)
(339.147 -47.6193 0)
(348.193 -12.5203 0)
(349.692 16.5635 0)
(339.593 46.6565 0)
(328.791 77.9256 0)
(308.01 107.907 0)
(284.791 133.961 0)
(257.751 155.788 0)
(225.284 167.068 0)
(186.06 159.854 0)
(141.198 133.243 0)
(95.6151 92.2201 0)
(57.57 47.7409 0)
(31.0836 6.9794 0)
(16.5113 -31.1481 0)
(10.3142 -59.2084 0)
(6.57664 -61.0026 0)
(2.47068 -50.1512 0)
(0.685574 14.8141 0)
(7.82052 -20.4479 0)
(21.0035 -58.4451 0)
(45.9354 -101.238 0)
(78.6471 -142.332 0)
(118.312 -168.776 0)
(159.782 -181.316 0)