/*--------------------------------*- C++ -*----------------------------------*\
| =========                 |                                                 |
| \\      /  F ield         | OpenFOAM: The Open Source CFD Toolbox           |
|  \\    /   O peration     | Version:  2.1.1                                 |
|   \\  /    A nd           | Web:      www.OpenFOAM.org                      |
|    \\/     M anipulation  |                                                 |
\*---------------------------------------------------------------------------*/
FoamFile
{
    version     2.0;
    format      ascii;
    class       volScalarField;
    location    "0.001500000";
    object      k;
}
// * * * * * * * * * * * * * * * * * * * * * * * * * * * * * * * * * * * * * //

dimensions      [0 2 -2 0 0 0 0];

internalField   nonuniform List<scalar> 
12384
(
0.0966038
0.10608
0.109631
0.113065
0.112537
0.114937
0.115493
0.11693
0.114368
0.114153
0.110066
0.112182
0.10714
0.103186
0.10486
0.1096
0.114313
0.116345
0.124039
0.132094
0.146978
0.163604
0.181239
0.207276
0.227577
0.255677
0.259827
0.285793
0.295258
0.286341
0.292513
0.224961
0.196695
0.160018
0.137264
0.130807
0.116823
0.114206
0.112389
0.112435
0.110402
0.108602
0.105936
0.103738
0.101439
0.103303
0.104282
0.105512
0.107457
0.109488
0.111396
0.112784
0.113728
0.11392
0.114195
0.113928
0.113603
0.113072
0.112071
0.111348
0.110192
0.10922
0.10814
0.107259
0.106459
0.105991
0.105646
0.105325
0.10499
0.104457
0.103893
0.10303
0.102252
0.101258
0.0997776
0.100161
0.100315
0.10046
0.10065
0.100725
0.100809
0.100807
0.100826
0.100743
0.100758
0.100606
0.100617
0.100441
0.100422
0.100251
0.100205
0.100056
0.0999901
0.0998452
0.099778
0.0996198
0.09957
0.0994015
0.0993584
0.0991988
0.0991454
0.0990079
0.0989323
0.0988216
0.0984703
0.0984902
0.0984913
0.0984967
0.098489
0.0984958
0.0984892
0.0984896
0.098476
0.0984756
0.0984612
0.0984608
0.0984472
0.0984457
0.098437
0.0984349
0.0984244
0.0984221
0.0984149
0.0984131
0.0984071
0.0984062
0.0984009
0.0984
0.0983936
0.0983954
0.0983905
0.0983932
0.098386
0.0983737
0.0983665
0.0983828
0.0983857
0.0983845
0.0983866
0.0983858
0.0983866
0.0983864
0.0983872
0.0983872
0.0983882
0.0983885
0.0983865
0.0983881
0.0983884
0.0983896
0.0983879
0.098389
0.0983873
0.0983876
0.0983861
0.0983864
0.0983849
0.098385
0.0983831
0.0983825
0.098382
0.0983811
0.0983786
0.0983747
0.0983658
0.0983816
0.0983845
0.0983845
0.0983849
0.0983845
0.0983847
0.0983867
0.0983861
0.0983875
0.098387
0.0983885
0.0983876
0.0983892
0.0983876
0.0983895
0.0983877
0.0983889
0.0983871
0.0983874
0.0983865
0.0983865
0.0983859
0.0983861
0.0983853
0.098386
0.0983844
0.0983859
0.0983829
0.0983663
0.0983662
0.0983824
0.0983834
0.0983839
0.0983839
0.0983861
0.0983857
0.098387
0.0983868
0.0983877
0.0983875
0.0983886
0.0983878
0.0983893
0.0983877
0.0983897
0.0983877
0.0983887
0.0983872
0.0983873
0.0983861
0.0983862
0.0983849
0.098385
0.0983832
0.0983827
0.098382
0.0983814
0.0983787
0.0983746
0.0983754
0.0983797
0.09838
0.0983824
0.0983825
0.0983844
0.0983847
0.0983856
0.0983858
0.0983867
0.0983867
0.0983878
0.0983874
0.098389
0.0983875
0.0983894
0.0983876
0.0983886
0.0983871
0.0983873
0.0983859
0.0983862
0.0983848
0.098385
0.0983831
0.0983827
0.0983821
0.0983812
0.0983787
0.0983748
0.0983767
0.0983787
0.0983811
0.0983822
0.098385
0.0983846
0.0983861
0.0983859
0.0983869
0.0983866
0.0983876
0.0983872
0.0983887
0.0983874
0.0983891
0.0983872
0.0983889
0.0983869
0.0983871
0.0983872
0.0983863
0.0983862
0.0983857
0.0983859
0.0983851
0.0983858
0.0983837
0.098385
0.0983827
0.0983665
0.0983764
0.0983796
0.0983801
0.0983824
0.0983826
0.0983844
0.0983847
0.0983858
0.0983858
0.0983868
0.0983867
0.0983879
0.0983875
0.098389
0.0983876
0.0983895
0.0983876
0.0983887
0.0983872
0.0983873
0.0983859
0.0983861
0.0983847
0.0983848
0.098383
0.0983824
0.0983821
0.0983811
0.0983787
0.0983747
0.0983666
0.0983823
0.0983834
0.0983855
0.0983858
0.0983867
0.0983859
0.0983872
0.0983864
0.0983875
0.098387
0.0983882
0.0983877
0.0983889
0.0983903
0.0983903
0.0983888
0.0983877
0.0983883
0.0983869
0.0983875
0.0983866
0.0983875
0.0983864
0.0983871
0.0983855
0.0983844
0.0983829
0.0983822
0.0983672
0.0983763
0.0983798
0.0983812
0.0983831
0.0983846
0.0983851
0.0983874
0.0983865
0.0983882
0.0983874
0.0983886
0.0983882
0.0983887
0.0983892
0.0983884
0.0983892
0.0983874
0.0983888
0.0983872
0.0983872
0.0983864
0.0983863
0.0983854
0.0983851
0.0983835
0.0983826
0.0983822
0.0983811
0.0983785
0.0983749
0.100363
0.204729
0.235656
0.249877
0.246021
0.273892
0.282209
0.286746
0.286086
0.271783
0.238429
0.211403
0.186722
0.114453
0.110055
0.190103
0.225754
0.259652
0.314747
0.413193
0.550184
0.717069
0.93463
1.22904
1.56508
1.93852
2.37731
2.83341
3.22698
3.55243
3.7149
3.70727
3.5287
3.22061
2.83481
2.42334
2.04995
1.72825
1.3134
0.86975
0.528407
0.339597
0.224162
0.11164
0.102159
0.12355
0.131868
0.141428
0.154312
0.174728
0.201891
0.232527
0.262846
0.290997
0.315237
0.333401
0.344412
0.347001
0.342763
0.332166
0.316773
0.297926
0.276178
0.253215
0.229942
0.207412
0.186658
0.168
0.151377
0.13711
0.125091
0.115676
0.10905
0.102208
0.100099
0.103741
0.104061
0.104503
0.105022
0.105504
0.10594
0.106164
0.106342
0.106256
0.106186
0.105884
0.105635
0.105219
0.104888
0.10446
0.104112
0.103718
0.103383
0.103025
0.102738
0.102425
0.102191
0.101923
0.101745
0.101528
0.101392
0.101252
0.101128
0.098806
0.0984301
0.100527
0.100529
0.100543
0.100529
0.100519
0.100522
0.100499
0.100494
0.100462
0.100452
0.100415
0.100393
0.100336
0.100315
0.100285
0.100263
0.100272
0.100247
0.100248
0.100215
0.100216
0.100183
0.100183
0.10016
0.100149
0.100147
0.100123
0.100116
0.0983086
0.0983069
0.100115
0.100123
0.100136
0.10012
0.100132
0.100114
0.100125
0.100106
0.100115
0.100093
0.100098
0.100068
0.100047
0.100041
0.100025
0.100055
0.100063
0.100095
0.100091
0.100114
0.100105
0.100124
0.100112
0.100132
0.100118
0.100132
0.100141
0.100114
0.0983078
0.0983035
0.100117
0.10012
0.100131
0.100131
0.100122
0.100133
0.100113
0.100124
0.100101
0.100109
0.100082
0.100081
0.100044
0.10004
0.100026
0.10006
0.100072
0.100102
0.100099
0.100118
0.10011
0.100127
0.100116
0.100133
0.100121
0.100136
0.100123
0.100111
0.0983084
0.0983031
0.100118
0.100134
0.100125
0.100134
0.100116
0.100126
0.100107
0.10012
0.100096
0.100106
0.10008
0.10008
0.100043
0.100039
0.100025
0.100057
0.100065
0.100096
0.100091
0.100115
0.100105
0.100124
0.100112
0.100131
0.100117
0.100133
0.100141
0.100115
0.0983076
0.0983082
0.100114
0.100145
0.100124
0.100135
0.100116
0.100128
0.100108
0.100122
0.1001
0.100109
0.100085
0.100085
0.100046
0.10004
0.100024
0.100055
0.100063
0.100095
0.100091
0.100115
0.100105
0.100125
0.100112
0.100132
0.100118
0.100133
0.100141
0.100115
0.0983076
0.098306
0.100124
0.100137
0.100138
0.100118
0.100129
0.100109
0.100121
0.100102
0.100112
0.10009
0.100095
0.100065
0.100058
0.100026
0.100039
0.100045
0.100085
0.100086
0.100105
0.100112
0.100108
0.100126
0.100115
0.100132
0.100121
0.100138
0.100125
0.100117
0.0983037
0.098308
0.100116
0.100145
0.100124
0.100134
0.100115
0.100127
0.100107
0.10012
0.100098
0.100108
0.100083
0.100084
0.100046
0.100041
0.100024
0.100055
0.100063
0.100096
0.100091
0.100115
0.100106
0.100125
0.100114
0.100133
0.100119
0.100133
0.10014
0.100114
0.0983079
0.0983024
0.100115
0.100119
0.100127
0.100135
0.100121
0.100131
0.100112
0.100123
0.1001
0.100108
0.100082
0.10008
0.100042
0.100033
0.100034
0.100043
0.100081
0.100082
0.100108
0.100099
0.100121
0.100109
0.100128
0.100116
0.10013
0.100123
0.100124
0.100116
0.0983018
0.0983084
0.100116
0.100145
0.100121
0.100131
0.100111
0.100125
0.100106
0.10012
0.100099
0.100111
0.100085
0.100088
0.100051
0.100045
0.100024
0.100052
0.100061
0.100095
0.10009
0.100115
0.100106
0.100126
0.100114
0.100133
0.100119
0.100132
0.10014
0.100113
0.0983079
0.119268
0.340712
0.275721
0.241077
0.228729
0.273246
0.277944
0.262374
0.240015
0.228543
0.209822
0.196467
0.187902
0.110265
0.116643
0.297448
0.368748
0.431918
0.539829
0.667235
0.827515
1.0034
1.24276
1.5919
2.08619
2.4893
2.71425
2.82193
2.90067
2.91687
2.81954
2.62015
2.32605
1.98981
1.67113
1.41792
1.22636
1.06047
0.82646
0.60374
0.461931
0.36785
0.242281
0.112458
0.103881
0.149353
0.16194
0.178038
0.194839
0.213608
0.233748
0.254265
0.271045
0.281768
0.287151
0.288053
0.283963
0.275532
0.264296
0.250965
0.236848
0.22231
0.207499
0.192824
0.179143
0.166326
0.154728
0.144306
0.134617
0.126229
0.118782
0.112921
0.108519
0.102112
0.100436
0.105426
0.105299
0.105367
0.105445
0.105512
0.105539
0.105461
0.105338
0.105119
0.104865
0.104616
0.104295
0.10403
0.103695
0.103448
0.103149
0.102903
0.102631
0.102393
0.102164
0.101963
0.101774
0.10162
0.101475
0.101359
0.101248
0.101168
0.101055
0.0989068
0.0986266
0.100533
0.100497
0.100489
0.100453
0.100427
0.100407
0.100364
0.100354
0.100311
0.100305
0.100259
0.100242
0.100185
0.100161
0.10014
0.10014
0.100169
0.100154
0.100167
0.100136
0.100143
0.100115
0.100126
0.10011
0.100103
0.100107
0.100086
0.100087
0.0985009
0.0984937
0.10008
0.100063
0.100077
0.100053
0.100065
0.100039
0.100051
0.100024
0.100034
0.100005
0.100002
0.0999587
0.0999303
0.0999136
0.0998952
0.0999407
0.0999542
0.1
0.0999993
0.10003
0.100019
0.100046
0.100034
0.100062
0.100056
0.100074
0.100084
0.100084
0.0984693
0.0984964
0.100074
0.100065
0.100072
0.100064
0.100045
0.100052
0.100025
0.100037
0.100009
0.100019
0.0999814
0.0999756
0.0999259
0.0999152
0.0998932
0.0999365
0.0999549
0.100004
0.100006
0.100037
0.10003
0.100055
0.100044
0.100068
0.100057
0.10008
0.100069
0.100089
0.098488
0.0984947
0.100063
0.10007
0.100054
0.100064
0.100037
0.100051
0.100023
0.100038
0.10001
0.10002
0.0999814
0.0999749
0.099924
0.0999135
0.0998953
0.0999405
0.0999548
0.100001
0.1
0.100031
0.100019
0.100046
0.100034
0.100061
0.100055
0.100074
0.100082
0.100084
0.0984691
0.0984695
0.100087
0.100088
0.10006
0.100073
0.100045
0.100058
0.10003
0.100044
0.100016
0.100026
0.0999895
0.0999791
0.0999272
0.0999139
0.0998942
0.0999379
0.0999526
0.0999995
0.0999981
0.10003
0.100019
0.100045
0.100034
0.100061
0.100055
0.100074
0.100083
0.100083
0.0984689
0.0984666
0.100082
0.100068
0.10007
0.100046
0.100059
0.100032
0.100046
0.100019
0.100033
0.100002
0.100006
0.0999612
0.0999483
0.0998998
0.0999091
0.0999149
0.0999708
0.0999915
0.100021
0.100031
0.100031
0.100056
0.100044
0.10007
0.100057
0.100079
0.100063
0.100078
0.098495
0.0984663
0.100083
0.100087
0.100058
0.100072
0.100044
0.100056
0.100029
0.100044
0.100015
0.100026
0.0999894
0.0999807
0.0999296
0.0999156
0.0998935
0.0999355
0.099951
0.0999976
0.0999972
0.10003
0.100018
0.100045
0.100034
0.100062
0.100056
0.100075
0.100084
0.100084
0.0984695
0.0984939
0.100071
0.100067
0.100066
0.100063
0.100038
0.100051
0.100023
0.100037
0.100009
0.10002
0.0999821
0.0999762
0.0999256
0.099905
0.0999057
0.0999272
0.0999772
0.0999833
0.100021
0.10001
0.100039
0.100024
0.100052
0.100039
0.100065
0.100062
0.100067
0.100067
0.0984935
0.098466
0.100083
0.100085
0.100056
0.10007
0.100041
0.100054
0.100025
0.10004
0.100011
0.100025
0.0999892
0.0999846
0.0999344
0.0999195
0.099891
0.0999291
0.0999474
0.0999948
0.099995
0.100027
0.100016
0.100044
0.100033
0.10006
0.100055
0.100073
0.100086
0.100085
0.0984687
0.180551
0.665213
0.516469
0.437863
0.390797
0.465281
0.457786
0.411994
0.350022
0.29954
0.257265
0.232105
0.216958
0.108346
0.132535
0.558386
0.752367
1.01859
1.35592
1.50472
1.58593
1.72491
2.18431
2.70385
3.5356
4.42194
5.28052
5.27161
4.98405
4.50208
4.02051
3.54692
3.03858
2.50073
2.01522
1.64206
1.3447
1.1275
0.860298
0.639211
0.526051
0.418181
0.296613
0.114343
0.107799
0.202707
0.241443
0.29107
0.337069
0.359108
0.368873
0.375576
0.378621
0.374585
0.363446
0.349168
0.331607
0.313127
0.293609
0.273115
0.252888
0.23314
0.215486
0.198849
0.183934
0.170176
0.157691
0.146475
0.136342
0.127712
0.120196
0.114379
0.109931
0.102452
0.100749
0.108779
0.108108
0.107757
0.107446
0.107153
0.106816
0.106494
0.106105
0.105764
0.105342
0.105003
0.104565
0.104224
0.103823
0.103496
0.103153
0.102875
0.102562
0.102345
0.102064
0.101897
0.101646
0.101516
0.101314
0.1012
0.101054
0.100967
0.100839
0.0988721
0.0985481
0.100369
0.100338
0.100316
0.100281
0.100254
0.100239
0.10021
0.100193
0.100162
0.100146
0.100114
0.100097
0.100064
0.100046
0.100029
0.100004
0.0999849
0.0999625
0.0999451
0.099922
0.0999052
0.0998843
0.099872
0.0998447
0.099839
0.0998323
0.0998177
0.0998037
0.0983659
0.0983622
0.0997811
0.0997919
0.0997907
0.0997853
0.099785
0.0997819
0.0997822
0.0997794
0.0997798
0.0997766
0.0997791
0.0997726
0.0997676
0.0997759
0.0997731
0.0997748
0.0997747
0.0997779
0.0997779
0.0997807
0.0997792
0.0997819
0.0997817
0.0997857
0.0997827
0.0997935
0.0998004
0.0997847
0.098378
0.0983613
0.099785
0.0997888
0.0997946
0.0997896
0.0997821
0.0997875
0.0997832
0.0997835
0.0997805
0.0997811
0.0997777
0.0997775
0.0997747
0.099775
0.0997738
0.099775
0.0997748
0.0997776
0.0997772
0.0997795
0.0997793
0.0997824
0.0997826
0.099786
0.0997864
0.0997924
0.099794
0.0997819
0.0983628
0.0983615
0.0997891
0.0997973
0.0997908
0.0997915
0.0997851
0.0997849
0.0997812
0.0997819
0.099779
0.0997791
0.0997758
0.0997756
0.0997726
0.0997726
0.0997718
0.0997737
0.099774
0.0997771
0.0997772
0.09978
0.0997786
0.0997813
0.0997807
0.0997848
0.0997824
0.0997943
0.0997995
0.0997844
0.0983777
0.098379
0.0997773
0.0997943
0.0997863
0.0997849
0.0997813
0.0997818
0.0997795
0.0997806
0.0997783
0.0997785
0.0997754
0.0997753
0.0997725
0.0997726
0.0997719
0.099774
0.0997742
0.0997773
0.0997775
0.0997804
0.099779
0.0997816
0.099781
0.099785
0.0997823
0.0997939
0.0997995
0.0997849
0.098378
0.0983794
0.0997825
0.0997901
0.0997952
0.0997862
0.0997861
0.0997824
0.0997829
0.0997802
0.0997812
0.0997783
0.0997781
0.099775
0.0997749
0.0997726
0.0997736
0.0997733
0.099776
0.0997732
0.0997854
0.0997875
0.099779
0.0997819
0.0997817
0.0997853
0.0997859
0.0997916
0.0997923
0.0997817
0.0983618
0.0983806
0.099782
0.0997946
0.0997863
0.0997849
0.0997811
0.0997818
0.0997794
0.0997806
0.0997782
0.0997787
0.0997756
0.0997755
0.0997727
0.0997727
0.0997718
0.0997737
0.0997739
0.0997769
0.099777
0.0997799
0.0997787
0.0997814
0.0997814
0.0997855
0.0997825
0.0997928
0.0998
0.0997845
0.0983777
0.0983614
0.0997859
0.099786
0.0997846
0.0997935
0.0997856
0.0997858
0.0997815
0.0997821
0.0997792
0.0997795
0.0997761
0.0997758
0.099772
0.0997809
0.0997802
0.0997713
0.0997752
0.0997754
0.0997785
0.0997782
0.0997809
0.09978
0.0997835
0.0997835
0.0997902
0.0997827
0.099788
0.0997862
0.0983615
0.0983801
0.0997797
0.0997935
0.0997857
0.0997847
0.0997813
0.0997823
0.0997805
0.0997817
0.0997799
0.0997806
0.0997774
0.0997767
0.0997729
0.0997723
0.099771
0.0997719
0.0997719
0.0997749
0.0997761
0.0997795
0.0997789
0.0997818
0.0997817
0.0997866
0.0997826
0.0997927
0.0997996
0.0997853
0.0983787
0.217818
0.865865
0.926806
0.881073
0.7096
0.752924
0.654766
0.558972
0.485166
0.415518
0.388385
0.345802
0.317355
0.125091
0.16052
0.872054
1.60832
2.87135
4.0634
4.14288
3.88384
3.91797
4.26877
4.53199
5.14599
5.92782
5.87153
6.53364
7.93612
7.45605
6.21226
5.19257
4.35773
3.5563
2.82888
2.27638
1.83675
1.51274
1.19194
0.90119
0.741036
0.594619
0.450781
0.121574
0.114826
0.320074
0.47416
0.641342
0.822447
0.880675
0.818764
0.722511
0.640351
0.579798
0.52771
0.478925
0.433823
0.392414
0.354496
0.320207
0.290265
0.263285
0.23959
0.218654
0.199866
0.183135
0.168287
0.154887
0.143641
0.133552
0.125297
0.118515
0.11347
0.102858
0.101109
0.114497
0.112802
0.111713
0.110757
0.109957
0.109129
0.108421
0.107684
0.107065
0.106447
0.105882
0.105341
0.10483
0.104362
0.10389
0.103497
0.103138
0.102786
0.102524
0.102224
0.102028
0.101768
0.101618
0.101402
0.101283
0.101124
0.101019
0.100903
0.0988856
0.0986323
0.100451
0.100427
0.100388
0.100377
0.100347
0.100317
0.100294
0.10026
0.100242
0.100204
0.100191
0.10015
0.100139
0.100104
0.100075
0.100067
0.10003
0.100026
0.0999873
0.0999825
0.0999432
0.0999376
0.0999028
0.0999015
0.0998838
0.0998585
0.0998635
0.0998261
0.0984054
0.0983967
0.0998058
0.0998351
0.0998168
0.0998328
0.0998148
0.0998322
0.0998142
0.0998323
0.0998139
0.099831
0.0998112
0.0998277
0.0998286
0.0998099
0.0998288
0.0998116
0.0998307
0.0998134
0.0998327
0.0998144
0.0998324
0.0998139
0.0998313
0.0998135
0.0998307
0.0998201
0.0998155
0.0998222
0.098379
0.098399
0.0998061
0.0998333
0.0998155
0.0998226
0.099832
0.0998144
0.0998321
0.0998143
0.0998332
0.0998143
0.0998326
0.0998129
0.0998304
0.0998115
0.0998289
0.0998116
0.0998295
0.0998126
0.0998294
0.0998137
0.0998301
0.0998139
0.0998316
0.0998148
0.0998327
0.0998172
0.099833
0.0998046
0.0983954
0.0983967
0.0998081
0.099823
0.0998326
0.0998145
0.0998319
0.0998139
0.0998325
0.0998139
0.099833
0.0998133
0.0998312
0.0998116
0.0998285
0.09981
0.0998274
0.0998107
0.0998299
0.0998127
0.0998322
0.0998141
0.0998323
0.0998138
0.0998311
0.0998134
0.0998306
0.0998184
0.0998163
0.0998218
0.0983793
0.0983823
0.0998189
0.0998147
0.099832
0.0998141
0.0998321
0.0998141
0.0998325
0.0998141
0.0998327
0.0998132
0.0998307
0.0998116
0.0998282
0.09981
0.0998275
0.0998109
0.0998302
0.0998129
0.0998324
0.0998143
0.0998324
0.0998139
0.0998312
0.0998135
0.0998308
0.0998188
0.0998159
0.0998223
0.0983791
0.098382
0.0998179
0.0998277
0.099816
0.0998321
0.0998142
0.0998327
0.0998143
0.0998335
0.0998145
0.0998329
0.0998134
0.0998307
0.0998116
0.0998286
0.0998107
0.0998282
0.099811
0.0998276
0.0998173
0.0998156
0.09983
0.0998135
0.0998314
0.099815
0.0998326
0.0998171
0.0998353
0.0998041
0.0983981
0.0983792
0.0998213
0.0998139
0.0998315
0.0998138
0.0998321
0.0998139
0.0998327
0.0998141
0.099833
0.0998133
0.099831
0.0998116
0.0998283
0.09981
0.0998273
0.0998107
0.0998297
0.0998126
0.0998318
0.0998139
0.0998318
0.0998135
0.0998306
0.099813
0.0998302
0.0998198
0.0998151
0.0998217
0.0983791
0.0983998
0.0998071
0.0998325
0.0998264
0.0998165
0.0998326
0.099814
0.0998322
0.0998138
0.0998328
0.0998132
0.0998313
0.0998112
0.0998281
0.0998098
0.0998115
0.0998274
0.0998106
0.0998305
0.0998127
0.0998323
0.0998133
0.0998319
0.0998134
0.0998319
0.0998146
0.0998283
0.0998298
0.0998067
0.0983993
0.0983803
0.0998196
0.0998131
0.0998315
0.0998137
0.0998321
0.0998138
0.0998332
0.0998145
0.0998343
0.0998143
0.0998326
0.0998118
0.0998283
0.0998091
0.0998259
0.0998089
0.0998268
0.099811
0.0998315
0.0998137
0.0998322
0.0998137
0.0998311
0.0998135
0.0998306
0.0998207
0.0998152
0.0998237
0.0983792
0.235493
0.941272
1.20656
1.27821
1.01976
0.92678
0.839345
0.710758
0.603345
0.552481
0.509121
0.503351
0.468006
0.145276
0.157575
1.1784
2.7354
7.3294
8.80857
8.43418
7.44381
6.82107
6.59428
6.19874
6.07532
6.51585
6.89861
7.9004
8.49116
9.73758
9.32457
7.81311
6.4974
5.33129
4.24515
3.3663
2.68271
2.17541
1.78445
1.44556
1.20781
1.03609
0.847123
0.148242
0.128085
0.515953
0.803931
1.57345
2.44991
2.71961
2.34862
1.77841
1.32161
1.03611
0.851932
0.71827
0.614334
0.52735
0.456519
0.398161
0.349729
0.309512
0.275848
0.247265
0.222636
0.20123
0.182902
0.166625
0.153767
0.142183
0.133071
0.125422
0.11994
0.103574
0.101552
0.124076
0.120696
0.117874
0.115594
0.113848
0.112284
0.110944
0.109706
0.10866
0.107711
0.10688
0.106156
0.10548
0.104903
0.104363
0.103906
0.103472
0.103097
0.102748
0.102447
0.102177
0.10193
0.101725
0.10152
0.101368
0.101211
0.101085
0.10096
0.0989137
0.0986885
0.100541
0.1005
0.100454
0.100431
0.100398
0.100365
0.100342
0.100306
0.100286
0.100247
0.10023
0.100191
0.100172
0.100144
0.100116
0.100099
0.100069
0.100057
0.100025
0.100014
0.0999817
0.0999686
0.0999388
0.0999299
0.0999146
0.0998905
0.099884
0.0998599
0.0984034
0.0984008
0.0998358
0.099851
0.0998389
0.099849
0.0998392
0.0998497
0.0998395
0.0998503
0.0998393
0.0998489
0.0998387
0.0998467
0.099845
0.0998364
0.0998471
0.0998369
0.0998486
0.0998392
0.0998506
0.0998398
0.0998499
0.0998388
0.0998476
0.0998379
0.0998452
0.0998414
0.0998395
0.0998389
0.0983965
0.098398
0.0998353
0.0998467
0.0998384
0.0998475
0.0998487
0.0998396
0.0998497
0.0998402
0.0998515
0.0998404
0.0998514
0.0998389
0.0998487
0.0998376
0.0998478
0.0998371
0.099848
0.099838
0.0998473
0.0998371
0.0998482
0.0998387
0.0998492
0.0998392
0.0998488
0.0998395
0.0998495
0.0998336
0.0983995
0.0983979
0.0998376
0.0998444
0.099848
0.0998383
0.0998489
0.0998389
0.0998507
0.09984
0.0998515
0.0998393
0.0998493
0.0998369
0.0998462
0.099835
0.0998455
0.0998357
0.0998476
0.0998384
0.0998499
0.0998395
0.0998497
0.0998386
0.0998473
0.0998373
0.0998449
0.0998392
0.0998403
0.0998386
0.0983966
0.0983966
0.0998382
0.0998396
0.0998476
0.0998374
0.0998489
0.0998388
0.09985
0.0998398
0.0998506
0.0998387
0.0998486
0.0998367
0.0998458
0.099835
0.0998457
0.099836
0.0998478
0.0998385
0.09985
0.0998397
0.0998499
0.0998388
0.0998475
0.0998376
0.099845
0.0998393
0.0998398
0.099839
0.0983964
0.0983963
0.0998414
0.099847
0.099839
0.0998472
0.0998383
0.0998498
0.0998398
0.0998516
0.0998404
0.099851
0.0998391
0.0998486
0.0998368
0.099847
0.0998363
0.0998461
0.0998365
0.0998442
0.0998423
0.0998399
0.0998478
0.0998382
0.099849
0.0998392
0.0998488
0.099839
0.0998512
0.0998351
0.0983981
0.0983973
0.0998392
0.0998382
0.0998468
0.0998368
0.0998488
0.0998387
0.0998503
0.0998398
0.0998509
0.0998389
0.0998488
0.0998367
0.0998459
0.0998351
0.0998454
0.0998357
0.0998473
0.0998381
0.0998493
0.0998389
0.0998488
0.0998379
0.0998466
0.0998374
0.0998446
0.0998409
0.0998387
0.0998382
0.0983964
0.0983988
0.0998372
0.0998458
0.099847
0.0998413
0.099849
0.099839
0.0998501
0.0998397
0.0998509
0.0998391
0.0998496
0.0998369
0.099845
0.0998373
0.0998379
0.0998441
0.0998362
0.0998489
0.0998385
0.0998504
0.0998392
0.0998497
0.0998382
0.0998482
0.0998386
0.0998453
0.0998467
0.0998374
0.0983984
0.0983978
0.0998376
0.0998373
0.0998464
0.0998364
0.0998485
0.0998383
0.0998504
0.0998401
0.099852
0.0998405
0.0998505
0.0998373
0.0998461
0.099834
0.0998439
0.0998336
0.0998453
0.0998374
0.0998495
0.0998399
0.09985
0.0998394
0.099848
0.099839
0.0998475
0.099843
0.0998404
0.099842
0.0983968
0.260447
1.06652
1.25186
1.29905
1.07832
1.00871
0.929832
0.75277
0.703074
0.735598
0.707723
0.605955
0.559525
0.167283
0.192827
2.55992
7.76567
13.2125
13.5325
12.5725
11.4238
10.0328
8.94595
7.86524
7.14908
7.223
8.04607
9.21786
10.2136
11.5344
13.0937
12.7217
10.4281
8.51454
6.90217
5.52817
4.45105
3.65251
3.04859
2.6362
2.36898
2.26288
2.11988
0.275863
0.11881
0.718583
1.96308
5.1596
7.99201
8.38424
6.7828
4.63621
2.98245
2.00695
1.47067
1.14868
0.931642
0.769637
0.643109
0.537669
0.454715
0.389609
0.337751
0.295317
0.260793
0.232366
0.209224
0.189768
0.173892
0.159958
0.148223
0.13841
0.132133
0.104995
0.103489
0.141798
0.136118
0.128857
0.123316
0.119595
0.116711
0.114446
0.112532
0.111001
0.109599
0.108479
0.107426
0.106565
0.105781
0.105097
0.104495
0.103977
0.103508
0.103102
0.102735
0.102416
0.102133
0.101892
0.101658
0.101483
0.101296
0.101168
0.101013
0.0989425
0.0987337
0.100645
0.100584
0.100544
0.100506
0.100473
0.100431
0.100401
0.100364
0.10034
0.100303
0.100279
0.100244
0.100218
0.100194
0.100163
0.100141
0.100115
0.100095
0.100069
0.100049
0.100024
0.100002
0.0999775
0.0999588
0.0999439
0.0999182
0.0999047
0.0998811
0.0983719
0.0983656
0.0998579
0.0998682
0.0998636
0.0998676
0.0998656
0.0998693
0.0998666
0.0998705
0.0998667
0.0998693
0.0998661
0.099869
0.099866
0.0998649
0.0998687
0.099866
0.0998693
0.0998675
0.0998711
0.0998676
0.0998706
0.0998662
0.0998679
0.0998644
0.0998664
0.0998656
0.0998625
0.0998581
0.0983614
0.0983649
0.0998567
0.0998641
0.0998618
0.0998711
0.0998691
0.099866
0.0998697
0.0998678
0.0998719
0.0998681
0.0998716
0.0998671
0.0998694
0.0998666
0.0998685
0.0998655
0.0998685
0.0998658
0.0998679
0.0998643
0.0998689
0.0998656
0.0998691
0.0998657
0.0998673
0.0998636
0.0998662
0.0998544
0.0983639
0.0983644
0.0998575
0.0998667
0.0998667
0.099863
0.0998681
0.0998655
0.0998705
0.0998675
0.0998717
0.0998671
0.0998697
0.0998651
0.0998672
0.0998643
0.0998669
0.0998647
0.0998685
0.0998667
0.0998706
0.0998673
0.0998705
0.099866
0.0998677
0.0998638
0.0998657
0.099863
0.0998628
0.0998579
0.0983615
0.0983629
0.0998566
0.0998627
0.0998652
0.0998627
0.0998682
0.0998656
0.0998701
0.0998676
0.0998711
0.0998668
0.0998694
0.0998652
0.0998672
0.0998644
0.0998672
0.0998651
0.0998687
0.0998669
0.0998708
0.0998675
0.0998707
0.0998662
0.0998679
0.0998641
0.099866
0.0998633
0.0998624
0.0998582
0.0983615
0.0983626
0.0998586
0.0998648
0.0998626
0.0998662
0.0998651
0.0998697
0.0998673
0.0998719
0.0998684
0.0998716
0.0998673
0.0998692
0.0998658
0.0998682
0.0998652
0.0998674
0.0998643
0.0998658
0.0998683
0.0998661
0.0998691
0.0998652
0.0998692
0.0998655
0.099867
0.0998631
0.0998675
0.0998565
0.0983647
0.098362
0.0998578
0.0998614
0.0998649
0.0998627
0.0998685
0.0998659
0.0998706
0.0998678
0.0998716
0.099867
0.0998695
0.0998652
0.0998671
0.0998644
0.0998668
0.0998647
0.0998683
0.0998664
0.0998701
0.0998667
0.0998696
0.0998653
0.0998671
0.0998638
0.0998659
0.099865
0.0998618
0.0998573
0.0983614
0.0983655
0.0998578
0.0998639
0.0998679
0.0998655
0.0998677
0.0998652
0.0998695
0.099867
0.0998708
0.0998668
0.0998703
0.0998652
0.099867
0.0998639
0.0998643
0.0998663
0.0998647
0.0998696
0.0998663
0.0998704
0.0998666
0.0998692
0.0998647
0.0998667
0.0998627
0.0998638
0.0998653
0.0998573
0.0983654
0.0983623
0.0998553
0.0998596
0.0998639
0.0998611
0.0998676
0.0998643
0.09987
0.0998664
0.0998715
0.0998671
0.0998705
0.0998647
0.0998668
0.0998628
0.0998658
0.0998637
0.0998678
0.0998664
0.0998708
0.099868
0.0998715
0.0998675
0.0998696
0.0998657
0.0998694
0.0998675
0.0998644
0.0998618
0.0983617
0.293503
1.1327
1.27683
1.21689
1.01953
1.03823
1.03538
1.05627
1.33094
1.51176
1.22627
0.639146
0.541822
0.155962
1.36875
6.76214
23.4364
28.0149
26.7213
22.9957
19.3637
15.7776
13.1886
10.7158
9.15843
8.62733
9.42066
10.8234
12.7933
14.314
16.5832
18.5151
17.2805
14.3533
11.6991
9.48095
7.66391
6.31976
5.31542
4.58716
4.07567
3.93427
4.55059
0.485457
0.450589
3.54367
10.6757
19.9225
25.0281
22.8992
17.1316
10.9175
6.42317
3.87874
2.57772
1.87396
1.44623
1.15339
0.938762
0.770727
0.633375
0.521021
0.435551
0.369088
0.317436
0.275989
0.243146
0.21606
0.193965
0.17546
0.160463
0.150254
0.149305
0.107724
0.115378
0.188825
0.174348
0.15238
0.137528
0.128587
0.122787
0.118878
0.115868
0.113686
0.111678
0.110207
0.108775
0.107719
0.106684
0.105869
0.10512
0.104499
0.103932
0.103474
0.103035
0.1027
0.102354
0.102114
0.101835
0.101677
0.101468
0.10139
0.101275
0.0992396
0.0986725
0.100619
0.100564
0.100561
0.100538
0.100517
0.100473
0.100452
0.100404
0.100388
0.100344
0.100325
0.100289
0.100264
0.100237
0.100206
0.100184
0.100157
0.100136
0.10011
0.100089
0.100065
0.100042
0.100019
0.0999967
0.09998
0.0999542
0.099939
0.0999152
0.0983658
0.0983595
0.0998892
0.099896
0.0998918
0.0998947
0.099894
0.0998959
0.0998949
0.0998973
0.0998954
0.0998966
0.099896
0.0998984
0.0998958
0.0998957
0.0998969
0.0998972
0.099898
0.0998968
0.0998982
0.0998965
0.0998979
0.0998952
0.0998954
0.0998935
0.0998943
0.0998941
0.0998924
0.0998871
0.0983575
0.098357
0.0998875
0.099892
0.0998915
0.0998997
0.0998966
0.0998949
0.0998971
0.099897
0.0998988
0.0998973
0.0998989
0.0998979
0.0998986
0.099897
0.099897
0.0998969
0.0998976
0.0998951
0.0998952
0.0998931
0.0998961
0.0998943
0.0998962
0.0998944
0.0998946
0.0998925
0.0998946
0.0998855
0.0983578
0.0983565
0.0998884
0.0998956
0.0998938
0.0998927
0.0998956
0.0998948
0.0998977
0.0998964
0.0998985
0.0998961
0.099897
0.099896
0.0998968
0.0998949
0.0998957
0.0998961
0.0998976
0.0998961
0.0998979
0.0998961
0.0998979
0.0998952
0.0998954
0.099893
0.0998936
0.0998917
0.0998922
0.0998869
0.0983575
0.0983573
0.0998857
0.0998926
0.0998926
0.0998926
0.0998958
0.0998949
0.0998976
0.0998966
0.0998981
0.0998959
0.0998969
0.0998963
0.0998968
0.0998951
0.0998961
0.0998965
0.0998977
0.0998963
0.099898
0.0998963
0.099898
0.0998954
0.0998955
0.0998932
0.099894
0.099892
0.099892
0.099887
0.0983574
0.0983582
0.0998875
0.0998938
0.0998917
0.0998939
0.0998945
0.0998971
0.0998964
0.099899
0.0998973
0.0998986
0.0998965
0.099898
0.099897
0.0998966
0.0998955
0.0998967
0.0998955
0.0998938
0.0998972
0.099895
0.0998965
0.0998944
0.0998963
0.0998942
0.0998943
0.0998919
0.099895
0.0998871
0.098357
0.0983577
0.0998869
0.099891
0.0998925
0.0998926
0.0998962
0.0998952
0.099898
0.099897
0.0998985
0.0998962
0.099897
0.0998962
0.0998968
0.0998952
0.0998956
0.0998961
0.0998973
0.0998958
0.0998974
0.0998955
0.0998969
0.0998943
0.0998946
0.0998927
0.0998937
0.0998933
0.0998915
0.0998862
0.0983575
0.0983571
0.099888
0.0998917
0.099896
0.0998946
0.0998953
0.0998943
0.0998969
0.099896
0.0998978
0.099896
0.0998979
0.0998962
0.0998968
0.0998947
0.099895
0.0998961
0.0998958
0.0998973
0.0998956
0.0998974
0.0998957
0.0998967
0.0998939
0.0998943
0.0998922
0.0998915
0.0998924
0.0998877
0.0983569
0.0983577
0.0998842
0.0998892
0.0998922
0.0998917
0.0998961
0.0998941
0.099898
0.0998962
0.0998993
0.0998968
0.0998986
0.0998952
0.099896
0.0998939
0.099895
0.099894
0.0998959
0.0998954
0.0998976
0.0998967
0.0998987
0.0998969
0.0998977
0.0998948
0.0998959
0.0998952
0.0998937
0.0998904
0.0983587
0.330489
1.19055
1.35564
1.29485
1.16609
1.34297
1.65138
2.08089
2.68299
3.29127
3.24962
2.43342
1.5523
3.81898
2.7982
2.15475
12.3491
22.5271
41.5979
40.4547
36.5971
31.5475
25.9104
20.9886
17.5064
14.4358
12.653
12.1186
12.3439
13.2767
15.4396
16.6843
19.5513
22.6623
25.8968
26.4404
22.0108
17.9369
14.7862
12.4399
10.7585
9.69966
9.39597
11.0507
19.2462
111.528
30.8288
5.77074
14.4076
32.6873
55.0981
68.2837
64.9923
50.9845
34.8202
21.0176
11.9545
6.97949
4.44812
3.11133
2.32432
1.81114
1.44659
1.17028
0.951303
0.772396
0.622705
0.510288
0.426616
0.363389
0.315104
0.277835
0.250154
0.23129
0.222413
0.228964
0.265873
0.350794
0.141511
0.113201
0.30542
0.350573
0.280392
0.209663
0.168351
0.146638
0.134452
0.127023
0.121872
0.11822
0.115266
0.113047
0.111079
0.109577
0.108194
0.107124
0.106142
0.105339
0.104646
0.104041
0.103539
0.103093
0.102713
0.102387
0.102092
0.101858
0.101632
0.101469
0.101381
0.101539
0.0991752
0.0992648
0.101508
0.101409
0.101129
0.100919
0.100773
0.100668
0.100591
0.100536
0.100482
0.100449
0.100403
0.100376
0.100335
0.100309
0.100278
0.10025
0.100223
0.100198
0.100175
0.10015