/*--------------------------------*- C++ -*----------------------------------*\
| =========                 |                                                 |
| \\      /  F ield         | OpenFOAM: The Open Source CFD Toolbox           |
|  \\    /   O peration     | Version:  2.1.1                                 |
|   \\  /    A nd           | Web:      www.OpenFOAM.org                      |
|    \\/     M anipulation  |                                                 |
\*---------------------------------------------------------------------------*/
FoamFile
{
    version     2.0;
    format      ascii;
    class       volScalarField;
    location    "0.001500000";
    object      rho;
}
// * * * * * * * * * * * * * * * * * * * * * * * * * * * * * * * * * * * * * //

dimensions      [1 -3 0 0 0 0 0];

internalField   nonuniform List<scalar> 
12384
(
0.424376
0.582484
0.914162
1.21232
1.28941
1.28648
1.27972
1.26699
1.25998
1.24465
1.2614
1.30671
1.34614
1.38988
1.43067
1.4291
1.41953
1.35457
1.35052
1.34042
1.33802
1.34563
1.35416
1.3752
1.37537
1.41339
1.41682
1.4426
1.47132
1.46963
1.47085
1.42391
1.36657
1.34823
1.30005
1.29319
1.27002
1.27202
1.25591
1.26138
1.22857
1.24146
1.22252
1.22965
1.08066
1.09618
1.10547
1.11407
1.12322
1.13115
1.13946
1.1377
1.14536
1.14501
1.14889
1.15369
1.15469
1.15781
1.15409
1.14843
1.14484
1.12146
1.10907
1.10716
1.06715
1.07354
1.06342
1.05517
1.05956
1.0582
1.06105
1.06149
1.06458
1.06142
0.943452
0.944266
0.942738
0.942384
0.939853
0.940095
0.935788
0.936683
0.932667
0.928951
0.930048
0.92282
0.925012
0.917967
0.918058
0.916028
0.911287
0.912978
0.906869
0.908787
0.904438
0.90181
0.903119
0.897939
0.899902
0.895529
0.897134
0.894154
0.895286
0.893934
0.871284
0.870878
0.871072
0.870512
0.87053
0.870246
0.869653
0.869779
0.86889
0.869119
0.868234
0.868441
0.86782
0.867553
0.867578
0.866934
0.867149
0.8666
0.866555
0.866529
0.866152
0.866294
0.865962
0.866052
0.865816
0.865875
0.86569
0.865757
0.865621
0.865497
0.865131
0.865308
0.865317
0.865315
0.865323
0.865323
0.865334
0.865327
0.865342
0.865338
0.865349
0.86535
0.865375
0.865386
0.86539
0.865394
0.86538
0.865373
0.865351
0.86535
0.865338
0.865341
0.865326
0.865331
0.865318
0.865319
0.865316
0.865307
0.865304
0.86512
0.865119
0.865297
0.86531
0.865314
0.865313
0.865321
0.865321
0.865333
0.865329
0.865345
0.865339
0.865357
0.865367
0.865384
0.865389
0.865396
0.865384
0.865375
0.865348
0.865345
0.865332
0.865334
0.86532
0.865327
0.865313
0.865316
0.865307
0.865309
0.865299
0.86512
0.865121
0.865295
0.865304
0.865316
0.86531
0.865326
0.865324
0.865337
0.865331
0.865347
0.86534
0.865357
0.865368
0.865386
0.865392
0.865396
0.865381
0.865374
0.865351
0.865349
0.865338
0.865341
0.865326
0.865331
0.86532
0.865319
0.865313
0.865307
0.865303
0.865121
0.86512
0.865301
0.865301
0.865318
0.86531
0.865327
0.865323
0.865335
0.865329
0.865344
0.865337
0.865355
0.865367
0.865386
0.865391
0.865396
0.865381
0.865374
0.865352
0.865349
0.865338
0.86534
0.865326
0.865331
0.86532
0.865319
0.865315
0.865307
0.865303
0.865121
0.865118
0.865296
0.865306
0.865313
0.86532
0.865319
0.865334
0.865328
0.865343
0.865339
0.86535
0.86535
0.865372
0.865378
0.865393
0.86539
0.865389
0.86537
0.865353
0.865343
0.865338
0.865338
0.865323
0.865328
0.865317
0.865314
0.865306
0.865306
0.865294
0.86512
0.865121
0.865301
0.865303
0.865318
0.865311
0.865328
0.865325
0.865337
0.865331
0.865346
0.865339
0.865356
0.865368
0.865386
0.865392
0.865397
0.865384
0.865375
0.86535
0.86535
0.865338
0.865341
0.865326
0.865331
0.865319
0.865319
0.865313
0.865307
0.865304
0.865121
0.865123
0.8653
0.865311
0.865315
0.865311
0.865323
0.865322
0.865335
0.865333
0.865347
0.865343
0.865359
0.865367
0.865388
0.865394
0.865394
0.865388
0.865369
0.865358
0.865339
0.865345
0.865331
0.865334
0.865322
0.865324
0.865309
0.865314
0.865305
0.865296
0.86512
0.86513
0.865311
0.865312
0.865328
0.865318
0.865336
0.865326
0.865341
0.865333
0.865346
0.865337
0.865353
0.86536
0.86538
0.86538
0.86539
0.865372
0.865369
0.865349
0.865347
0.865332
0.865333
0.865318
0.865324
0.86531
0.865313
0.865307
0.865304
0.865299
0.865115
0.282498
0.264124
0.466436
0.963729
1.28069
1.40009
1.42941
1.41534
1.38716
1.36827
1.36772
1.38129
1.38612
1.39807
1.50128
1.53569
1.48332
1.47482
1.4135
1.39419
1.38078
1.38083
1.39689
1.42756
1.44469
1.45337
1.50402
1.53072
1.54412
1.58865
1.60652
1.61498
1.59152
1.53903
1.47824
1.4291
1.37103
1.33761
1.29168
1.2794
1.23573
1.24122
1.21521
1.2225
1.22935
1.25469
1.27462
1.28262
1.29471
1.30109
1.31375
1.31691
1.32317
1.32104
1.3194
1.31446
1.3087
1.29958
1.28849
1.2718
1.23986
1.22672
1.17972
1.15429
1.13164
1.08946
1.08959
1.06888
1.06854
1.06758
1.06601
1.06835
1.06732
1.06681
1.03155
1.03343
1.02982
1.02413
1.01718
1.00942
1.00028
0.991087
0.984231
0.972753
0.968558
0.959227
0.953909
0.948479
0.941766
0.940696
0.932284
0.931769
0.926395
0.921827
0.921946
0.914981
0.916468
0.910271
0.910928
0.906905
0.90641
0.905319
0.903815
0.898996
0.880391
0.886373
0.885852
0.885851
0.884703
0.884414
0.88376
0.883322
0.882844
0.8823
0.882291
0.881613
0.882201
0.881798
0.882126
0.881603
0.881079
0.880732
0.879773
0.879849
0.879176
0.879244
0.878684
0.878697
0.878169
0.878208
0.877955
0.877886
0.877622
0.870076
0.869736
0.877341
0.877532
0.877765
0.877868
0.878118
0.878257
0.878526
0.87866
0.878962
0.879158
0.8795
0.879921
0.88031
0.880573
0.880502
0.88028
0.879843
0.879537
0.879246
0.879072
0.878775
0.878637
0.878362
0.878192
0.877938
0.877783
0.877619
0.877311
0.869869
0.869712
0.877369
0.877562
0.877794
0.877879
0.878067
0.878365
0.878534
0.878819
0.878989
0.879296
0.87947
0.879875
0.880206
0.880491
0.880525
0.880391
0.8799
0.879478
0.879086
0.878848
0.87853
0.878407
0.878155
0.878024
0.877787
0.877695
0.877494
0.877304
0.869725
0.869706
0.87741
0.87765
0.877814
0.878056
0.87819
0.878475
0.878612
0.878873
0.879014
0.879299
0.879473
0.8799
0.880262
0.880562
0.880533
0.880324
0.879871
0.879542
0.879242
0.879071
0.878777
0.878642
0.878368
0.878202
0.87795
0.877795
0.877623
0.877316
0.869871
0.869844
0.877225
0.877559
0.877719
0.87796
0.8781
0.878369
0.878502
0.878758
0.878896
0.879188
0.879401
0.879855
0.880259
0.880559
0.880523
0.880318
0.879882
0.879554
0.879253
0.879078
0.87878
0.87864
0.878363
0.878195
0.877945
0.877789
0.877618
0.877312
0.869874
0.869897
0.877309
0.877607
0.877863
0.878003
0.87826
0.878409
0.878672
0.87879
0.879054
0.879204
0.879485
0.879776
0.880223
0.880447
0.880576
0.880353
0.879952
0.879408
0.879098
0.878911
0.878606
0.878448
0.878185
0.878049
0.877806
0.877709
0.877487
0.877315
0.869713
0.869888
0.877267
0.877596
0.877759
0.877998
0.878134
0.878403
0.878541
0.878795
0.878926
0.879212
0.879411
0.87984
0.880229
0.880544
0.88054
0.880348
0.879912
0.879566
0.87926
0.879078
0.878774
0.878631
0.878354
0.878184
0.877929
0.877772
0.877614
0.877307
0.86987
0.869721
0.877397
0.877613
0.87773
0.877961
0.878106
0.878403
0.878559
0.878843
0.879004
0.879313
0.879503
0.879923
0.880273
0.880551
0.880552
0.880294
0.879913
0.879482
0.879286
0.878985
0.878831
0.878558
0.878412
0.878127
0.877997
0.877762
0.877633
0.877399
0.869721
0.869882
0.87729
0.877643
0.877808
0.878065
0.878198
0.878472
0.8786
0.878851
0.878963
0.879233
0.879411
0.879801
0.880168
0.880503
0.880544
0.880359
0.879936
0.879581
0.87928
0.8791
0.878792
0.878645
0.878359
0.878193
0.877934
0.877765
0.877617
0.877302
0.869865
0.357385
0.34855
0.529594
0.787871
1.00914
1.14421
1.25155
1.37701
1.45259
1.4598
1.50712
1.53177
1.52035
1.50798
1.51916
1.44239
1.40664
1.26105
0.916275
0.805134
0.736209
0.702517
0.694131
0.768456
0.816952
0.909093
1.13467
1.31377
1.4012
1.45304
1.52123
1.62453
1.67101
1.67003
1.63978
1.62357
1.57901
1.55983
1.48448
1.44247
1.35216
1.30624
1.24651
1.23994
1.32917
1.32543
1.31144
1.30728
1.29892
1.31051
1.32407
1.34743
1.36461
1.37628
1.38689
1.39521
1.40268
1.41029
1.41551
1.41069
1.41387
1.40546
1.38345
1.37742
1.37007
1.3299
1.33414
1.30594
1.29642
1.28178
1.26784
1.25225
1.24315
1.23403
1.18287
1.18114
1.17811
1.1763
1.17601
1.1725
1.1722
1.16683
1.16725
1.16013
1.15769
1.15672
1.14801
1.15024
1.1399
1.14294
1.13567
1.13456
1.13378
1.12766
1.12903
1.1234
1.12352
1.11917
1.11918
1.1155
1.11464
1.11326
1.1115
1.1183
1.09487
1.08615
1.08581
1.08472
1.08465
1.08387
1.08296
1.08261
1.08144
1.08113
1.08001
1.0793
1.07843
1.07701
1.07682
1.07613
1.07608
1.07647
1.07641
1.0767
1.0764
1.07663
1.07646
1.07669
1.07665
1.07682
1.0766
1.07683
1.07691
1.08665
1.08622
1.07654
1.07616
1.07592
1.07576
1.07556
1.07534
1.07513
1.07492
1.07466
1.07438
1.07406
1.07349
1.07306
1.07278
1.07279
1.07312
1.07358
1.07402
1.07429
1.07455
1.07479
1.075
1.07522
1.07547
1.07568
1.07588
1.07607
1.07639
1.0862
1.0862
1.07643
1.07609
1.07584
1.0758
1.07556
1.07528
1.07504
1.0748
1.07456
1.0743
1.07403
1.07361
1.07316
1.07287
1.07276
1.07298
1.07349
1.07406
1.07443
1.07476
1.07504
1.07524
1.07544
1.07564
1.07582
1.07596
1.07617
1.07655
1.08621
1.08619
1.07638
1.07607
1.0758
1.0756
1.0754
1.07516
1.07496
1.07476
1.07455
1.0743
1.07403
1.07358
1.07308
1.07278
1.07276
1.07308
1.07355
1.07403
1.0743
1.07455
1.0748
1.075
1.07522
1.07546
1.07566
1.07587
1.07607
1.07638
1.0862
1.0862
1.07651
1.07614
1.07588
1.0757
1.0755
1.07529
1.07508
1.07489
1.07467
1.07443
1.0741
1.07362
1.07308
1.07278
1.07277
1.07308
1.07354
1.07401
1.07428
1.07454
1.07479
1.07501
1.07522
1.07547
1.07567
1.07588
1.07607
1.07638
1.0862
1.08621
1.07642
1.07605
1.07578
1.07559
1.0754
1.07517
1.07498
1.07478
1.07458
1.07434
1.07409
1.07366
1.07319
1.07286
1.07276
1.07295
1.07349
1.0741
1.07448
1.07467
1.07497
1.07519
1.07541
1.07561
1.0758
1.07595
1.07617
1.07653
1.0862
1.0862
1.07643
1.07609
1.07584
1.07567
1.07547
1.07525
1.07504
1.07486
1.07465
1.0744
1.0741
1.07365
1.07312
1.0728
1.07275
1.07305
1.07351
1.07399
1.07427
1.07454
1.0748
1.07501
1.07523
1.07548
1.07569
1.0759
1.07608
1.07639
1.08621
1.0862
1.07639
1.07607
1.07594
1.07571
1.0755
1.07524
1.07501
1.07479
1.07455
1.07429
1.07399
1.07356
1.07309
1.07276
1.07277
1.07306
1.07357
1.07402
1.07431
1.07457
1.0748
1.07502
1.07523
1.07547
1.07566
1.07586
1.07606
1.07638
1.0862
1.08621
1.07644
1.07606
1.0758
1.07562
1.07542
1.0752
1.07499
1.07481
1.07461
1.07439
1.0741
1.0737
1.07319
1.07284
1.07272
1.07301
1.07346
1.07396
1.07423
1.0745
1.07476
1.07499
1.07522
1.07546
1.07567
1.0759
1.07606
1.07637
1.0862
0.369157
0.341718
0.355859
0.361044
0.399812
0.379483
0.461569
0.607584
0.876168
1.15063
1.43657
1.54894
1.57401
1.5957
1.4239
1.33024
1.03845
0.546123
0.199628
0.199817
0.200224
0.197058
0.19534
0.195216
0.192494
0.19089
0.342246
0.608179
0.893445
1.17814
1.31099
1.43223
1.55195
1.61093
1.61469
1.60799
1.59096
1.58792
1.56466
1.55402
1.49284
1.4341
1.34189
1.30545
1.30251
1.2315
1.17835
1.13063
1.11608
1.11446
1.14109
1.18725
1.23706
1.27799
1.30248
1.31912
1.33301
1.34464
1.35183
1.36928
1.37117
1.36847
1.37573
1.36405
1.36192
1.34396
1.32847
1.33077
1.31616
1.31838
1.31598
1.3147
1.31487
1.3172
1.15534
1.1524
1.15463
1.1573
1.15632
1.15926
1.1564
1.15872
1.15396
1.15639
1.14958
1.15176
1.14503
1.14414
1.14119
1.13574
1.13722
1.13007
1.13214
1.1262
1.12592
1.12346
1.11986
1.12096
1.11574
1.11791
1.11285
1.11512
1.11174
1.11438
1.08489
1.08437
1.08367
1.0843
1.08313
1.08336
1.08269
1.08202
1.08212
1.08111
1.08125
1.08017
1.0804
1.07932
1.07937
1.07894
1.07837
1.0786
1.07789
1.07814
1.07759
1.07766
1.07747
1.07729
1.0773
1.0771
1.07713
1.07695
1.07709
1.07866
1.07829
1.07659
1.0765
1.07649
1.07649
1.07647
1.07647
1.07644
1.07644
1.07642
1.07642
1.0764
1.0764
1.07638
1.07637
1.07638
1.07637
1.0764
1.0764
1.07642
1.07642
1.07644
1.07643
1.07645
1.07645
1.07647
1.07647
1.07648
1.07659
1.07824
1.07827
1.07657
1.07648
1.07647
1.07647
1.07646
1.07644
1.07645
1.07643
1.07643
1.07641
1.07641
1.07639
1.07639
1.07637
1.07637
1.07637
1.0764
1.0764
1.07642
1.07642
1.07644
1.07644
1.07646
1.07646
1.07647
1.07647
1.07649
1.07656
1.07827
1.07827
1.07657
1.07648
1.07648
1.07645
1.07646
1.07644
1.07644
1.07642
1.07643
1.07641
1.07641
1.07639
1.07639
1.07636
1.07637
1.07637
1.0764
1.0764
1.07642
1.07641
1.07644
1.07643
1.07645
1.07645
1.07647
1.07647
1.07648
1.07659
1.07824
1.07824
1.07658
1.07648
1.07648
1.07645
1.07646
1.07644
1.07644
1.07642
1.07643
1.07641
1.07641
1.07639
1.07638
1.07636
1.07637
1.07637
1.0764
1.0764
1.07642
1.07641
1.07644
1.07643
1.07645
1.07645
1.07647
1.07646
1.07648
1.07659
1.07824
1.07824
1.07658
1.07649
1.07647
1.07647
1.07645
1.07645
1.07643
1.07644
1.07642
1.07642
1.0764
1.0764
1.07638
1.07638
1.07636
1.07638
1.07639
1.07641
1.07642
1.07642
1.07644
1.07643
1.07646
1.07645
1.07647
1.07647
1.07649
1.07657
1.07827
1.07824
1.07659
1.07647
1.07647
1.07645
1.07646
1.07644
1.07645
1.07642
1.07643
1.07641
1.07642
1.07639
1.07639
1.07636
1.07637
1.07637
1.0764
1.0764
1.07642
1.07641
1.07644
1.07643
1.07645
1.07645
1.07647
1.07647
1.07648
1.07659
1.07824
1.07828
1.07658
1.07648
1.07648
1.07646
1.07647
1.07644
1.07645
1.07643
1.07643
1.07641
1.07641
1.07639
1.07639
1.07637
1.07637
1.07638
1.07639
1.07641
1.07641
1.07643
1.07642
1.07644
1.07644
1.07646
1.07646
1.07648
1.07647
1.07657
1.07827
1.07825
1.07659
1.07648
1.07648
1.07646
1.07647
1.07644
1.07645
1.07642
1.07643
1.07641
1.07641
1.07639
1.07639
1.07636
1.07637
1.07637
1.07639
1.07639
1.07641
1.0764
1.07643
1.07642
1.07644
1.07644
1.07646
1.07646
1.07647
1.07658
1.07823
0.274001
0.261167
0.238875
0.226803
0.241757
0.249993
0.251948
0.26482
0.279746
0.310369
0.814691
1.25164
1.53733
1.58395
1.34344
1.13669
0.508674
0.187993
0.197473
0.199573
0.19942
0.198463
0.194797
0.189761
0.187101
0.182532
0.181689
0.167918
0.236271
0.680268
1.09502
1.26074
1.37782
1.48731
1.54258
1.55715
1.55346
1.56503
1.54636
1.56562
1.52813
1.51544
1.4386
1.38896
1.22955
1.11569
1.04688
1.02337
1.01996
1.01089
1.00259
1.01565
1.06889
1.13326
1.18729
1.22669
1.24908
1.25952
1.28008
1.28945
1.29982
1.31823
1.32126
1.32574
1.32245
1.31635
1.30287
1.29501
1.29715
1.2841
1.29519
1.29635
1.29585
1.29535
1.10591
1.09896
1.10344
1.11087
1.11434
1.11557
1.12004
1.11781
1.12072
1.11687
1.11932
1.11334
1.11542
1.11025
1.10881
1.106
1.10264
1.10214
1.097
1.09795
1.09206
1.09437
1.08796
1.09073
1.0854
1.08649
1.08407
1.08412
1.08308
1.08281
1.05577
1.05507
1.05555
1.05416
1.05478
1.05364
1.0539
1.05319
1.05258
1.05273
1.05166
1.05191
1.05081
1.05114
1.05005
1.05045
1.0495
1.04967
1.04926
1.04906
1.04896
1.04868
1.04873
1.04843
1.04851
1.04831
1.04829
1.04821
1.04821
1.04834
1.0479
1.04777
1.04779
1.04772
1.04778
1.04771
1.04776
1.0477
1.04774
1.04769
1.04773
1.04769
1.04771
1.04772
1.04767
1.04772
1.04768
1.04772
1.04768
1.04773
1.04768
1.04773
1.04769
1.04773
1.04769
1.04773
1.0477
1.0477
1.04775
1.04784
1.04789
1.04772
1.04774
1.0477
1.04771
1.04774
1.04769
1.04774
1.04769
1.04773
1.04768
1.04773
1.04768
1.04772
1.04768
1.04772
1.04767
1.04772
1.04768
1.04772
1.04768
1.04773
1.04769
1.04774
1.0477
1.04774
1.0477
1.04775
1.04772
1.04789
1.04788
1.04773
1.04771
1.04774
1.04769
1.04774
1.04769
1.04774
1.04769
1.04773
1.04768
1.04773
1.04767
1.04772
1.04767
1.04771
1.04767
1.04772
1.04768
1.04773
1.04768
1.04773
1.04769
1.04773
1.04769
1.04773
1.04769
1.0477
1.04775
1.04784
1.04785
1.04775
1.0477
1.04774
1.04769
1.04774
1.04769
1.04774
1.04769
1.04773
1.04768
1.04773
1.04767
1.04772
1.04767
1.04771
1.04767
1.04772
1.04768
1.04773
1.04768
1.04773
1.04769
1.04773
1.04769
1.04773
1.04769
1.0477
1.04775
1.04785
1.04786
1.04775
1.04773
1.0477
1.04774
1.0477
1.04774
1.04769
1.04774
1.04769
1.04773
1.04768
1.04772
1.04767
1.04772
1.04767
1.04772
1.04767
1.04771
1.04769
1.04769
1.04773
1.04769
1.04774
1.04769
1.04774
1.0477
1.04775
1.04772
1.04789
1.04785
1.04775
1.04769
1.04774
1.04769
1.04774
1.04769
1.04774
1.04769
1.04773
1.04768
1.04773
1.04767
1.04772
1.04767
1.04771
1.04767
1.04772
1.04768
1.04773
1.04768
1.04773
1.04769
1.04773
1.04769
1.04773
1.0477
1.0477
1.04775
1.04785
1.0479
1.04773
1.04774
1.04773
1.0477
1.04774
1.04769
1.04774
1.04769
1.04773
1.04768
1.04773
1.04767
1.04771
1.04768
1.04768
1.04771
1.04767
1.04773
1.04768
1.04773
1.04769
1.04774
1.04769
1.04774
1.0477
1.04774
1.04773
1.04773
1.04789
1.04786
1.04776
1.0477
1.04775
1.0477
1.04774
1.04769
1.04774
1.04769
1.04774
1.04768
1.04773
1.04767
1.04771
1.04766
1.04771
1.04766
1.04771
1.04767
1.04772
1.04768
1.04772
1.04768
1.04773
1.04768
1.04773
1.04769
1.0477
1.04775
1.04785
0.210139
0.212555
0.207895
0.207272
0.206727
0.208805
0.208762
0.217937
0.228139
0.247604
0.274032
0.446345
1.25191
1.56304
1.34011
0.936552
0.194698
0.197442
0.201637
0.208292
0.211336
0.20594
0.197203
0.190829
0.186188
0.180959
0.180173
0.175062
0.189646
0.249237
0.645148
1.06071
1.22963
1.33092
1.41573
1.4639
1.49038
1.50504
1.50859
1.53189
1.51642
1.50342
1.49764
1.44082
1.14836
1.02682
1.01805
1.0461
1.05669
1.03844
0.997135
0.958599
0.94759
0.985223
1.05083
1.10901
1.14105
1.17213
1.18708
1.20293
1.23051
1.24255
1.25903
1.26678
1.27537
1.2668
1.27514
1.24777
1.26433
1.24871
1.25006
1.25503
1.26164
1.2726
1.04019
1.01951
1.02882
1.04075
1.05558
1.06377
1.06706
1.0737
1.07217
1.07643
1.07322
1.07608
1.07249
1.07397
1.0684
1.07114
1.0644
1.0662
1.06056
1.0627
1.05695
1.05911
1.05456
1.05554
1.05192
1.05312
1.05024
1.051
1.04996
1.05089
1.02259
1.02106
1.02094
1.02217
1.02113
1.02177
1.02066
1.02106
1.02041
1.01997
1.02
1.01925
1.01928
1.01855
1.01858
1.01792
1.01789
1.01744
1.01737
1.01694
1.01703
1.01664
1.01671
1.01641
1.01648
1.01625
1.0163
1.01613
1.01627
1.01778
1.01747
1.01579
1.01572
1.0157
1.01571
1.01569
1.0157
1.01567
1.01569
1.01566
1.01567
1.01565
1.01566
1.01565
1.01564
1.01566
1.01564
1.01566
1.01565
1.01567
1.01565
1.01567
1.01565
1.01568
1.01566
1.01567
1.01566
1.01566
1.01576
1.01739
1.01738
1.01576
1.01568
1.01566
1.01568
1.01568
1.01566
1.01567
1.01565
1.01567
1.01565
1.01567
1.01564
1.01566
1.01564
1.01566
1.01564
1.01566
1.01564
1.01566
1.01564
1.01567
1.01565
1.01568
1.01566
1.01568
1.01567
1.01569
1.01576
1.01739
1.01738
1.01576
1.01568
1.01568
1.01566
1.01568
1.01566
1.01568
1.01565
1.01567
1.01565
1.01566
1.01564
1.01565
1.01563
1.01565
1.01564
1.01566
1.01565
1.01567
1.01565
1.01567
1.01565
1.01567
1.01566
1.01567
1.01566
1.01566
1.01576
1.01739
1.01739
1.01577
1.01566
1.01568
1.01566
1.01568
1.01566
1.01567
1.01565
1.01567
1.01565
1.01566
1.01564
1.01565
1.01563
1.01565
1.01564
1.01566
1.01565
1.01567
1.01565
1.01567
1.01565
1.01568
1.01566
1.01567
1.01566
1.01566
1.01576
1.01739
1.0174
1.01577
1.01568
1.01566
1.01568
1.01566
1.01568
1.01566
1.01568
1.01565
1.01567
1.01565
1.01566
1.01564
1.01566
1.01564
1.01565
1.01564
1.01565
1.01565
1.01565
1.01567
1.01565
1.01568
1.01566
1.01568
1.01566
1.01569
1.01577
1.01738
1.0174
1.01576
1.01566
1.01567
1.01566
1.01568
1.01566
1.01567
1.01565
1.01567
1.01565
1.01566
1.01564
1.01565
1.01564
1.01565
1.01564
1.01566
1.01565
1.01567
1.01565
1.01567
1.01565
1.01567
1.01566
1.01567
1.01566
1.01566
1.01576
1.01739
1.01738
1.01577
1.01568
1.01568
1.01567
1.01568
1.01566
1.01568
1.01565
1.01567
1.01564
1.01567
1.01564
1.01565
1.01564
1.01564
1.01565
1.01563
1.01566
1.01564
1.01567
1.01565
1.01567
1.01566
1.01568
1.01566
1.01567
1.01568
1.01577
1.01738
1.0174
1.01577
1.01567
1.01568
1.01566
1.01568
1.01566
1.01568
1.01565
1.01567
1.01564
1.01566
1.01563
1.01564
1.01562
1.01564
1.01562
1.01564
1.01563
1.01566
1.01564
1.01566
1.01564
1.01567
1.01565
1.01567
1.01566
1.01566
1.01577
1.01739
0.203516
0.205083
0.204051
0.201187
0.197965
0.196561
0.19725
0.201138
0.206989
0.216845
0.227164
0.247574
0.83635
1.49237
1.29894
0.722374
0.198571
0.214249
0.225101
0.232432
0.232566
0.223108
0.206406
0.194457
0.18763
0.18285
0.178905
0.18178
0.174923
0.192571
0.181184
0.611106
1.05055
1.20973
1.27501
1.33476
1.38459
1.41494
1.44325
1.45898
1.47442
1.47164
1.48391
1.47227
1.07027
1.00588
1.05156
1.09825
1.11337
1.09828
1.04544
0.977916
0.919544
0.904449
0.934659
0.993617
1.04159
1.07509
1.09477
1.12116
1.13566
1.15863
1.17618
1.19053
1.20099
1.1946
1.20938
1.18872
1.1852
1.19815
1.18374
1.20014
1.21243
1.22416
0.963005
0.941121
0.940496
0.961236
0.977858
0.994506
1.00482
1.00807
1.01493
1.01339
1.01483
1.01471
1.01547
1.01143
1.01257
1.01035
1.00599
1.00866
1.00168
1.00515
0.998851
1.00095
0.996509
0.997581
0.994167
0.995157
0.992803
0.994081
0.993048
0.994223
0.963519
0.966376
0.966658
0.965991
0.966743
0.965856
0.966163
0.965304
0.965118
0.965038
0.964125
0.964437
0.963528
0.963708
0.962951
0.963064
0.962335
0.962493
0.961921
0.961928
0.961613
0.961646
0.961305
0.96143
0.961128
0.961218
0.961058
0.961016
0.961023
0.960462
0.9601
0.960649
0.960647
0.960603
0.960635
0.960599
0.960619
0.960593
0.960606
0.960584
0.960595
0.960585
0.960586
0.960586
0.96058
0.960589
0.960581
0.960589
0.960581
0.96059
0.960579
0.960589
0.960579
0.960589
0.960575
0.960583
0.960576
0.960578
0.960573
0.960086
0.96007
0.960576
0.960584
0.960575
0.960592
0.960593
0.960578
0.960595
0.960579
0.960592
0.960581
0.960592
0.960581
0.960588
0.960581
0.960586
0.960579
0.960586
0.960579
0.960583
0.960574
0.960587
0.96058
0.960591
0.96058
0.960587
0.960579
0.960591
0.96057
0.960079
0.960069
0.960582
0.960591
0.960583
0.960574
0.96059
0.960581
0.960593
0.960579
0.960591
0.960579
0.960588
0.960578
0.960585
0.960577
0.960583
0.960578
0.960587
0.96058
0.960589
0.960579
0.960589
0.960579
0.960588
0.960574
0.96058
0.960572
0.960578
0.960572
0.960085
0.960085
0.960573
0.960572
0.96058
0.960574
0.96059
0.96058
0.960592
0.960579
0.96059
0.960579
0.960588
0.960578
0.960583
0.960575
0.960582
0.960579
0.960587
0.96058
0.96059
0.960579
0.960589
0.960579
0.960589
0.960575
0.960582
0.960572
0.960577
0.960573
0.960086
0.960094
0.960581
0.960582
0.960572
0.960585
0.960581
0.960593
0.960583
0.960591
0.960582
0.960591
0.960581
0.960588
0.96058
0.960585
0.960577
0.960588
0.960576
0.960583
0.960582
0.960584
0.960586
0.960579
0.960591
0.960579
0.960588
0.960575
0.960592
0.960575
0.960071
0.960091
0.960576
0.960571
0.960579
0.960574
0.96059
0.960581
0.960594
0.96058
0.960591
0.96058
0.960588
0.960578
0.960585
0.960577
0.960583
0.96058
0.960588
0.96058
0.960589
0.960578
0.960587
0.960578
0.960588
0.960575
0.960582
0.960575
0.960577
0.960573
0.960086
0.96007
0.96058
0.960583
0.96059
0.960582
0.960592
0.960581
0.960593
0.960578
0.96059
0.960578
0.960589
0.960576
0.960583
0.960577
0.960579
0.960581
0.960577
0.960588
0.960578
0.96059
0.960577
0.960593
0.96058
0.960591
0.960579
0.960582
0.960589
0.960582
0.960072
0.960095
0.96058
0.960575
0.960585
0.960574
0.960592
0.960579
0.960593
0.960576
0.960591
0.960576
0.960587
0.960574
0.960582
0.960573
0.960579
0.960576
0.960586
0.960576
0.960588
0.960579
0.960591
0.960582
0.960596
0.960579
0.960592
0.960585
0.960587
0.960588
0.960099
0.200446
0.198255
0.192956
0.189623
0.190214
0.191489
0.192965
0.198001
0.200857
0.205647
0.22209
0.250347
0.929804
1.47814
1.09832
0.216664
0.219024
0.238969
0.249509
0.245859
0.238315
0.230103
0.218894
0.201082
0.192396
0.185297
0.182165
0.179959
0.1826
0.176229
0.199316
0.250783
0.623087
1.01251
1.15879
1.20524
1.25117
1.30064
1.34345
1.3709
1.40985
1.41724
1.48677
1.47665
1.03574
1.018
1.07356
1.11324
1.11671
1.09073
1.04761
0.983839
0.920731
0.875396
0.872146
0.903684
0.949361
0.985197
1.0116
1.02973
1.0491
1.07077
1.09155
1.10927
1.12096
1.13017
1.13507
1.13127
1.1214
1.1411
1.12516
1.15473
1.16087
1.18957
0.913692
0.890824
0.873413
0.87904
0.906253
0.924154
0.93828
0.94671
0.948608
0.955858
0.953191
0.959801
0.954639
0.957812
0.957521
0.952976
0.955692
0.95261
0.950018
0.951489
0.946869
0.949677
0.944625
0.94787
0.94311
0.946467
0.942503
0.94591
0.944339
0.946728
0.914786
0.912975
0.915566
0.916927
0.916469
0.917733
0.916731
0.917478
0.916236
0.916824
0.916161
0.915832
0.915771
0.915104
0.915344
0.914522
0.914792
0.914126
0.914115
0.913916
0.913594
0.91364
0.9133
0.913363
0.913141
0.913181
0.913054
0.913083
0.913039
0.912626
0.912341
0.912691
0.912668
0.912624
0.912583
0.912573
0.912553
0.912545
0.912537
0.912528
0.912522
0.91252
0.912521
0.912516
0.912519
0.912521
0.912518
0.91252
0.912517
0.912522
0.91252
0.912527
0.912522
0.912529
0.912532
0.912548
0.91257
0.912599
0.912621
0.912199
0.912181
0.912624
0.912601
0.912564
0.91256
0.912539
0.912525
0.912528
0.912521
0.912526
0.912518
0.912523
0.912519
0.912521
0.912519
0.912519
0.912517
0.912519
0.912512
0.912513
0.912511
0.91252
0.912519
0.91253
0.912535
0.91255
0.91257
0.912606
0.912624
0.912193
0.912184
0.912627
0.91261
0.91257
0.912545
0.912538
0.912525
0.912528
0.912521
0.912524
0.912516
0.912517
0.912514
0.912517
0.912515
0.912516
0.912515
0.912518
0.912515
0.91252
0.912518
0.912526
0.912521
0.912527
0.912529
0.912546
0.912564
0.912598
0.912621
0.912197
0.912195
0.912619
0.912598
0.912566
0.912544
0.912539
0.912527
0.91253
0.912522
0.912524
0.912515
0.912517
0.912515
0.912517
0.912515
0.912516
0.912515
0.912519
0.912515
0.91252
0.912519
0.912526
0.912522
0.912529
0.91253
0.912547
0.912566
0.912599
0.912621
0.912198
0.912206
0.912624
0.912601
0.912566
0.912549
0.912536
0.912532
0.912525
0.912529
0.912522
0.912523
0.912517
0.91252
0.912518
0.912518
0.912516
0.912517
0.912514
0.91251
0.912516
0.912516
0.912522
0.912519
0.912529
0.912533
0.91255
0.912567
0.912608
0.912628
0.912188
0.912202
0.912622
0.912596
0.912565
0.912544
0.912539
0.912525
0.912529
0.912523
0.912525
0.912516
0.912518
0.912515
0.912517
0.912515
0.912516
0.912515
0.912519
0.912515
0.91252
0.912517
0.912525
0.91252
0.912527
0.91253
0.912546
0.912569
0.912598
0.91262
0.912198
0.912182
0.912626
0.912598
0.912574
0.912551
0.912538
0.912523
0.912527
0.912518
0.912522
0.912515
0.912519
0.912513
0.912516
0.912514
0.912514
0.912515
0.912512
0.912516
0.912514
0.912521
0.912518
0.912525
0.912523
0.912536
0.912544
0.912564
0.912601
0.91263
0.912185
0.9122
0.912626
0.9126
0.912572
0.912546
0.91254
0.912523
0.912527
0.912516
0.912522
0.912514
0.912515
0.912507
0.912508
0.912503
0.912506
0.912508
0.912514
0.912509
0.912515
0.912511
0.91252
0.912518
0.912531
0.912537
0.912561
0.912599
0.912676
0.912794
0.912367
0.185824
0.1844
0.179578
0.180087
0.183658
0.186829
0.188518
0.190743
0.189521
0.194709
0.205209
0.229284
0.280132
1.02211
0.795269
0.606391
0.873095
0.238634
0.247693
0.269482
0.260301
0.238104
0.223963
0.219274
0.210848
0.201903
0.190743
0.187135
0.182162
0.179281
0.17931
0.181977
0.175238
0.192245
0.167575
0.43873
0.914913
1.10641
1.13823
1.1669
1.21347
1.26254
1.30947
1.32178
1.37665
1.33153
1.06653
1.13582
1.11757
1.09056
1.08102
1.09818
1.10511
1.068
1.01368
0.951981
0.901233
0.862777
0.841346
0.848242
0.87658
0.905349
0.933702
0.947148
0.965621
0.983611
1.00115
1.0179
1.03234
1.04074
1.04414
1.04009
1.04314
1.04965
1.04233
1.06141
1.06994
1.0867
1.01205
1.01366
0.946207
0.893034
0.845132
0.831299
0.841471
0.861548
0.871089
0.87655
0.88215
0.879874
0.886451
0.883715
0.883131
0.886203
0.882289
0.883311
0.881034
0.878671
0.880277
0.875444
0.876657
0.874223
0.872941
0.872378
0.870572
0.871108
0.86893
0.870923
0.869822
0.870942
0.855377
0.856945
0.843466
0.847635
0.846703
0.847518
0.847864
0.846404
0.847344
0.846353
0.846196
0.845853
0.845286
0.845629
0.844653
0.844749
0.844352
0.844018
0.843767
0.843731
0.84323
0.843395
0.842943
0.843033
0.842749
0.842783
0.84261
0.842683
0.842531
0.842598
0.842359
0.840373
0.838482
0.838538
0.840063
0.842177
0.84224
0.842207
0.842209
0.842162
0.842163
0.842133
0.842142
0.842125
0.842122
0.842122
0.842111
0.842114
0.842113
0.842113
0.842113
0.842113
0.842117
0.842117
0.842122
0.84212
0.842122
0.842124
0.842137
0.842149
0.842168
0.842164
0.842038
0.840002
0.83823
0.838229
0.839991
0.842039
0.842163
0.842164
0.842162
0.842137
0.842126
0.842122
0.842122
0.842122
0.84212
0.842115
0.842115
0.842112
0.842114
0.842111
0.842112
0.842109
0.842112
0.842111
0.842116
0.842115
0.842121
0.842124
0.842139
0.842151
0.842164
0.842167
0.842036
0.839996
0.83823
0.83823
0.839994
0.842042
0.842173
0.842163
0.842153
0.842137
0.842128
0.84212
0.842122
0.84212
0.842119
0.842113
0.842114
0.842111
0.842113
0.84211
0.842113
0.842112
0.842116
0.842117
0.842122
0.842119
0.842122
0.842124
0.842136
0.842148
0.842166
0.842163
0.842036
0.84
0.83823
0.838229
0.839998
0.842034
0.842162
0.842163
0.842152
0.842137
0.842127
0.842122
0.842122
0.84212
0.84212
0.842113
0.842115
0.842109
0.842113
0.84211
0.842113
0.842112
0.842116
0.842117
0.842123
0.84212
0.842123
0.842124
0.842136
0.842149
0.842167
0.842163
0.842037
0.840001
0.83823
0.83823
0.840005
0.842038
0.842162
0.842164
0.842151
0.842141
0.842126
0.842125
0.842121
0.842125
0.842118
0.842117
0.842112
0.842112
0.84211
0.84211
0.842112
0.842108
0.842109
0.842114
0.842119
0.842115
0.842119
0.842125
0.842136
0.842151
0.842163
0.842166
0.842039
0.839992
0.838229
0.83823
0.840003
0.842037
0.84216
0.842164
0.842153
0.842139
0.842126
0.842123
0.842122
0.842122
0.842119
0.842114
0.842114
0.842111
0.842113
0.84211
0.842113
0.842112
0.842115
0.842116
0.842121
0.842118
0.842121
0.842124
0.842136
0.842147
0.842168
0.842162
0.842035
0.84
0.83823
0.83823
0.839992
0.842042
0.842162
0.842169
0.842153
0.842136
0.842125
0.84212
0.84212
0.842119
0.842118
0.842113
0.842114
0.842109
0.842111
0.842111
0.842109
0.842112
0.842113
0.842118
0.842119
0.842121
0.84212
0.842126
0.842136
0.842152
0.84216
0.842163
0.84204
0.839992
0.838231
0.838232
0.84
0.842033
0.842161
0.842165
0.842153
0.842138
0.842125
0.842121
0.842124
0.842121
0.842124
0.842118
0.842118
0.842112
0.842113
0.842109
0.84211
0.842108
0.842112
0.842114
0.842119
0.842122
0.842128
0.842134
0.842145
0.842154
0.842173
0.842166
0.842044
0.840016
0.838336
0.839875
0.172587
0.172358
0.169451
0.170255
0.173972
0.179063
0.183237
0.182625
0.18393
0.18498
0.187151
0.192629
0.214823
0.326551
0.284108
0.24042
0.269942
0.261039
0.271795
0.265649
0.22965
0.204492
0.199668
0.19939
0.197555
0.19157
0.189287
0.183943
0.181153
0.176738
0.174435
0.176845
0.179412
0.171798
0.173448
0.176993
0.367882
0.826203
1.04455
1.07274
1.09327
1.13642
1.182
1.21728
1.24339
1.24638
1.23769
1.1803
1.16098
1.14563
1.12409
1.09742
1.05435
1.00491
0.950899
0.900913
0.867825
0.841035
0.823893
0.817344
0.82627
0.84833
0.860897
0.881594
0.893671
0.909221
0.92316
0.940843
0.952584
0.964153
0.970777
0.967032
0.970342
0.976426
0.961496
0.984094