/*--------------------------------*- C++ -*----------------------------------*\
| =========                 |                                                 |
| \\      /  F ield         | OpenFOAM: The Open Source CFD Toolbox           |
|  \\    /   O peration     | Version:  2.1.1                                 |
|   \\  /    A nd           | Web:      www.OpenFOAM.org                      |
|    \\/     M anipulation  |                                                 |
\*---------------------------------------------------------------------------*/
FoamFile
{
    version     2.0;
    format      ascii;
    class       volScalarField;
    location    "0.000250000";
    object      c;
}
// * * * * * * * * * * * * * * * * * * * * * * * * * * * * * * * * * * * * * //

dimensions      [0 0 0 0 0 0 0];

internalField   nonuniform List<scalar> 
12384
(
2.94e-05
2.04404e-05
1.2443e-06
1.41212e-08
1.67082e-10
1.60766e-12
1.07519e-14
6.49045e-17
3.10442e-19
1.25603e-21
4.49996e-24
1.43936e-26
4.4337e-29
1.38057e-31
3.99577e-48
1.18228e-49
1.06059e-51
7.85683e-54
5.13304e-56
2.99468e-58
1.55392e-60
7.04253e-63
2.80442e-65
9.99731e-68
3.20288e-70
9.47384e-73
2.62398e-75
6.80666e-78
1.65711e-80
3.79747e-83
8.23255e-86
1.69879e-88
3.35934e-91
6.40069e-94
1.1786e-96
2.09728e-99
3.60457e-102
5.98399e-105
9.59972e-108
1.49164e-110
2.25023e-113
3.30161e-116
4.71101e-119
6.12072e-122
3.31791e-134
6.82489e-135
2.35241e-137
5.39807e-140
1.01745e-142
1.70531e-145
2.64434e-148
3.86878e-151
5.41689e-154
7.31894e-157
9.55616e-160
1.2059e-162
1.46219e-165
1.88836e-169
5.03621e-173
3.03252e-176
2.58974e-179
2.20239e-182
1.70961e-185
1.13481e-188
6.22856e-192
2.77926e-195
1.02843e-198
3.2425e-202
8.85655e-206
2.19183e-209
5.05004e-213
1.10042e-216
2.26294e-220
7.94708e-225
3.91511e-247
6.75588e-245
7.80946e-248
4.94013e-251
2.36472e-254
9.58392e-258
3.47776e-261
1.12821e-264
3.32748e-268
8.99749e-272
2.21972e-275
5.04621e-279
1.06921e-282
2.1826e-286
4.35267e-290
8.32897e-294
1.51346e-297
2.66006e-301
4.59454e-305
7.7531e-309
1.27269e-312
1.97651e-316
2.86805e-320
0
0
0
0
0
0
0
0
0
0
0
0
0
0
0
0
0
0
0
0
0
0
0
0
0
0
0
0
0
0
0
0
0
0
0
0
0
0
0
0
0
0
0
0
0
0
0
0
0
0
0
0
0
0
0
0
0
0
0
0
0
0
0
0
0
0
0
0
0
0
0
0
0
0
0
0
0
0
0
0
0
0
0
0
0
0
0
0
0
0
0
0
0
0
0
0
0
0
0
0
0
0
0
0
0
0
0
0
0
0
0
0
0
0
0
0
0
0
0
0
0
0
0
0
0
0
0
0
0
0
0
0
0
0
0
0
0
0
0
0
0
0
0
0
0
0
0
0
0
0
0
0
0
0
0
0
0
0
0
0
0
0
0
0
0
0
0
0
0
0
0
0
0
0
0
0
0
0
0
0
0
0
0
0
0
0
0
0
0
0
0
0
0
0
0
0
0
0
0
0
0
0
0
0
0
0
0
0
0
0
0
0
0
0
0
0
0
0
0
0
0
0
0
0
0
0
0
0
0
0
0
0
0
0
0
0
0
0
0
0
0
0
0
0
0
0
0
0
0
0
0
0
0
0
0
0
0
0
0
0
0
0
0
0
0
0
0
0
0
0
0
0
0
0
0
0
0
0.0019562
0.00114546
5.90878e-05
6.49894e-07
5.75157e-09
4.25754e-11
2.69047e-13
1.45814e-15
6.93205e-18
2.97318e-20
1.15554e-22
4.12911e-25
1.33803e-27
3.98219e-30
1.25881e-45
2.51258e-47
1.78895e-49
1.19281e-51
7.56157e-54
4.53318e-56
2.52611e-58
1.25844e-60
5.46098e-63
2.12596e-65
7.5149e-68
2.41779e-70
7.09896e-73
1.92867e-75
4.89296e-78
1.164e-80
2.60793e-83
5.54116e-86
1.12656e-88
2.2095e-91
4.18797e-94
7.65882e-97
1.34926e-99
2.28986e-102
3.74456e-105
5.9216e-108
9.1005e-111
1.36236e-113
1.98049e-116
2.42394e-119
3.22065e-131
6.68604e-132
2.23909e-134
4.94701e-137
9.0435e-140
1.48617e-142
2.28078e-145
3.32282e-148
4.65368e-151
6.31778e-154
8.31254e-157
1.0593e-159
1.31591e-162
1.58999e-165
4.87238e-169
3.06293e-172
2.67777e-175
2.32649e-178
1.84091e-181
1.25982e-184
7.16795e-188
3.36466e-191
1.32694e-194
4.472e-198
1.30214e-201
3.38138e-205
8.09964e-209
1.82375e-212
3.87056e-216
2.31463e-220
1.98237e-242
1.2047e-240
1.3729e-243
8.59427e-247
4.05522e-250
1.61168e-253
5.67459e-257
1.78941e-260
5.14859e-264
1.37246e-267
3.38012e-271
7.70476e-275
1.65736e-278
3.42558e-282
6.88231e-286
1.3319e-289
2.45741e-293
4.36152e-297
7.56089e-301
1.28974e-304
2.14223e-308
3.40699e-312
5.14242e-316
7.3097e-320
0
0
0
0
0
0
0
0
0
0
0
0
0
0
0
0
0
0
0
0
0
0
0
0
0
0
0
0
0
0
0
0
0
0
0
0
0
0
0
0
0
0
0
0
0
0
0
0
0
0
0
0
0
0
0
0
0
0
0
0
0
0
0
0
0
0
0
0
0
0
0
0
0
0
0
0
0
0
0
0
0
0
0
0
0
0
0
0
0
0
0
0
0
0
0
0
0
0
0
0
0
0
0
0
0
0
0
0
0
0
0
0
0
0
0
0
0
0
0
0
0
0
0
0
0
0
0
0
0
0
0
0
0
0
0
0
0
0
0
0
0
0
0
0
0
0
0
0
0
0
0
0
0
0
0
0
0
0
0
0
0
0
0
0
0
0
0
0
0
0
0
0
0
0
0
0
0
0
0
0
0
0
0
0
0
0
0
0
0
0
0
0
0
0
0
0
0
0
0
0
0
0
0
0
0
0
0
0
0
0
0
0
0
0
0
0
0
0
0
0
0
0
0
0
0
0
0
0
0
0
0
0
0
0
0
0
0
0
0
0
0
0
0
0
0
0
0
0
0
0
0
0
0
0
0
0
0
0
0
0
0
0
0
0
0
0
0
0
0
0
0
0
0
0
0
0
0.0563647
0.0392757
0.00217207
3.24685e-06
4.88319e-09
1.64079e-11
4.14481e-14
9.04296e-17
1.35929e-19
1.80096e-22
2.37109e-25
8.34404e-28
6.50959e-30
2.71948e-32
3.67372e-43
4.83948e-45
1.94481e-47
9.3886e-50
4.77431e-52
2.60537e-54
1.4025e-56
7.43167e-59
3.07828e-61
1.31274e-63
6.9357e-66
3.47305e-68
1.30062e-70
3.71463e-73
9.37787e-76
2.18832e-78
4.81873e-81
1.01396e-83
2.06399e-86
4.11688e-89
7.95567e-92
1.48183e-94
2.67573e-97
4.68789e-100
7.92057e-103
1.29762e-105
2.07829e-108
3.24636e-111
4.80142e-114
9.80786e-118
3.05771e-128
6.00993e-129
1.85166e-131
3.74245e-134
6.34315e-137
9.82996e-140
1.44265e-142
2.02835e-145
2.76666e-148
3.6978e-151
4.83131e-154
6.15523e-157
7.74637e-160
9.63518e-163
1.17738e-165
1.19883e-168
1.18341e-171
1.0702e-174
8.56595e-178
5.8252e-181
3.29258e-184
1.55671e-187
6.28382e-191
2.20064e-194
6.74934e-198
1.84729e-201
4.6336e-205
1.08534e-208
2.37338e-212
1.32483e-216
8.73923e-238
1.22061e-236
1.25761e-239
7.31132e-243
3.18303e-246
1.1605e-249
3.7308e-253
1.08051e-256
2.87394e-260
7.14945e-264
1.67019e-267
3.65973e-271
7.66227e-275
1.55691e-278
3.07846e-282
5.8758e-286
1.07446e-289
1.89261e-293
3.25072e-297
5.51541e-301
9.15971e-305
1.46666e-308
2.26466e-312
3.37565e-316
4.787e-320
0
0
0
0
0
0
0
0
0
0
0
0
0
0
0
0
0
0
0
0
0
0
0
0
0
0
0
0
0
0
0
0
0
0
0
0
0
0
0
0
0
0
0
0
0
0
0
0
0
0
0
0
0
0
0
0
0
0
0
0
0
0
0
0
0
0
0
0
0
0
0
0
0
0
0
0
0
0
0
0
0
0
0
0
0
0
0
0
0
0
0
0
0
0
0
0
0
0
0
0
0
0
0
0
0
0
0
0
0
0
0
0
0
0
0
0
0
0
0
0
0
0
0
0
0
0
0
0
0
0
0
0
0
0
0
0
0
0
0
0
0
0
0
0
0
0
0
0
0
0
0
0
0
0
0
0
0
0
0
0
0
0
0
0
0
0
0
0
0
0
0
0
0
0
0
0
0
0
0
0
0
0
0
0
0
0
0
0
0
0
0
0
0
0
0
0
0
0
0
0
0
0
0
0
0
0
0
0
0
0
0
0
0
0
0
0
0
0
0
0
0
0
0
0
0
0
0
0
0
0
0
0
0
0
0
0
0
0
0
0
0
0
0
0
0
0
0
0
0
0
0
0
0
0
0
0
0
0
0
0
0
0
0
0
0
0
0
0
0
0
0
0
0
0
0
1
1
0.0933315
0.0033304
7.90854e-06
3.2014e-08
8.94597e-11
2.17618e-13
3.67442e-16
5.43423e-19
8.09059e-22
1.40273e-24
2.69365e-27
5.19095e-30
1.76514e-39
1.76105e-41
4.59477e-44
1.61512e-46
6.59552e-49
3.01284e-51
1.48412e-53
7.98621e-56
3.82278e-58
1.50277e-60
6.92671e-63
3.81728e-65
1.80055e-67
5.92068e-70
1.58751e-72
3.84284e-75
8.75262e-78
1.90741e-80
4.01615e-83
8.21395e-86
1.63135e-88
3.14254e-91
5.87813e-94
1.06823e-96
1.8849e-99
3.23718e-102
5.41843e-105
8.8126e-108
1.3587e-110
4.23227e-114
3.31389e-124
2.07344e-125
6.122e-128
1.21191e-130
2.02204e-133
3.08264e-136
4.46177e-139
6.24149e-142
8.51629e-145
1.14128e-147
1.5076e-150
1.96305e-153
2.51576e-156
3.16999e-159
3.91968e-162
4.73759e-165
4.79669e-168
4.56602e-171
3.70334e-174
2.48845e-177
1.37893e-180
6.47574e-184
2.63407e-187
9.42184e-191
3.00398e-194
8.65748e-198
2.2865e-201
5.60261e-205
1.27331e-208
1.16324e-212
4.31021e-233
9.68555e-233
9.19231e-236
4.99835e-239
2.03862e-242
6.92533e-246
2.06853e-249
5.60845e-253
1.40892e-256
3.3257e-260
7.45077e-264
1.5961e-267
3.28757e-271
6.53871e-275
1.25992e-278
2.35813e-282
4.29606e-286
7.63097e-290
1.32336e-293
2.24299e-297
3.71843e-301
6.03228e-305
9.57774e-309
1.48818e-312
2.26226e-316
3.34186e-320
0
0
0
0
0
0
0
0
0
0
0
0
0
0
0
0
0
0
0
0
0
0
0
0
0
0
0
0
0
0
0
0
0
0
0
0
0
0
0
0
0
0
0
0
0
0
0
0
0
0
0
0
0
0
0
0
0
0
0
0
0
0
0
0
0
0
0
0
0
0
0
0
0
0
0
0
0
0
0
0
0
0
0
0
0
0
0
0
0
0
0
0
0
0
0
0
0
0
0
0
0
0
0
0
0
0
0
0
0
0
0
0
0
0
0
0
0
0
0
0
0
0
0
0
0
0
0
0
0
0
0
0
0
0
0
0
0
0
0
0
0
0
0
0
0
0
0
0
0
0
0
0
0
0
0
0
0
0
0
0
0
0
0
0
0
0
0
0
0
0
0
0
0
0
0
0
0
0
0
0
0
0
0
0
0
0
0
0
0
0
0
0
0
0
0
0
0
0
0
0
0
0
0
0
0
0
0
0
0
0
0
0
0
0
0
0
0
0
0
0
0
0
0
0
0
0
0
0
0
0
0
0
0
0
0
0
0
0
0
0
0
0
0
0
0
0
0
0
0
0
0
0
0
0
0
0
0
0
0
0
0
0
0
0
0
0
0
0
0
0
0
0
0
0
1
1
1
0.101837
0.0068203
4.03075e-05
1.42551e-07
3.85502e-10
7.41557e-13
1.23627e-15
2.05171e-18
3.89158e-21
8.03555e-24
1.67096e-26
7.53487e-36
7.65631e-38
1.70843e-40
4.88624e-43
1.57969e-45
5.61348e-48
2.24966e-50
9.99826e-53
4.82294e-55
2.09321e-57
7.87305e-60
3.54097e-62
1.70688e-64
6.63213e-67
1.95453e-69
5.02294e-72
1.19398e-74
2.69087e-77
5.83739e-80
1.22663e-82
2.49742e-85
4.92147e-88
9.39922e-91
1.74127e-93
3.13089e-96
5.48719e-99
9.39007e-102
1.56129e-104
2.47801e-107
1.08732e-110
2.9763e-120
5.29899e-122
1.4204e-124
2.707e-127
4.45427e-130
6.78924e-133
9.90759e-136
1.4027e-138
1.94015e-141
2.63811e-144
3.53852e-147
4.68281e-150
6.10483e-153
7.8337e-156
9.87375e-159
1.21652e-161
1.45804e-164
1.52602e-167
1.21625e-170
7.85517e-174
4.03249e-177
1.73701e-180
6.53637e-184
2.18726e-187
6.56487e-191
1.78606e-194
4.45904e-198
1.03303e-201
2.2211e-205
2.04025e-209
2.12534e-228
5.69219e-229
4.46939e-232
2.08727e-235
7.46556e-239
2.25875e-242
6.08749e-246
1.50466e-249
3.47486e-253
7.59417e-257
1.58527e-260
3.18293e-264
6.17916e-268
1.16447e-271
2.13668e-275
3.82603e-279
6.69689e-283
1.14714e-286
1.92449e-290
3.16344e-294
5.09595e-298
8.04347e-302
1.24333e-305
1.88039e-309
2.77923e-313
4.01113e-317
5.43966e-321
0
0
0
0
0
0
0
0
0
0
0
0
0
0
0
0
0
0
0
0
0
0
0
0
0
0
0
0
0
0
0
0
0
0
0
0
0
0
0
0
0
0
0
0
0
0
0
0
0
0
0
0
0
0
0
0
0
0
0
0
0
0
0
0
0
0
0
0
0
0
0
0
0
0
0
0
0
0
0
0
0
0
0
0
0
0
0
0
0
0
0
0
0
0
0
0
0
0
0
0
0
0
0
0
0
0
0
0
0
0
0
0
0
0
0
0
0
0
0
0
0
0
0
0
0
0
0
0
0
0
0
0
0
0
0
0
0
0
0
0
0
0
0
0
0
0
0
0
0
0
0
0
0
0
0
0
0
0
0
0
0
0
0
0
0
0
0
0
0
0
0
0
0
0
0
0
0
0
0
0
0
0
0
0
0
0
0
0
0
0
0
0
0
0
0
0
0
0
0
0
0
0
0
0
0
0
0
0
0
0
0
0
0
0
0
0
0
0
0
0
0
0
0
0
0
0
0
0
0
0
0
0
0
0
0
0
0
0
0
0
0
0
0
0
0
0
0
0
0
0
0
0
0
0
0
0
0
0
0
0
0
0
0
0
0
0
0
0
0
0
0
0
0
1
1
1
1
0.1424
0.0157264
9.54696e-05
2.92902e-07
5.96084e-10
1.14315e-12
2.23888e-15
4.87748e-18
1.13569e-20
2.57244e-23
1.72487e-32
1.74894e-34
4.19072e-37
1.1338e-39
3.34291e-42
1.04511e-44
3.5185e-47
1.30852e-49
5.27976e-52
2.26145e-54
8.24178e-57
3.04797e-59
1.2985e-61
5.50715e-64
1.86137e-66
5.17906e-69
1.29888e-71
3.04028e-74
6.79422e-77
1.46539e-79
3.05915e-82
6.17996e-85
1.20939e-87
2.2935e-90
4.21651e-93
7.56633e-96
1.32937e-98
2.26743e-101
3.71461e-104
2.45303e-107
1.59581e-116
1.12231e-118
2.70878e-121
4.97613e-124
8.08611e-127
1.23363e-129
1.81712e-132
2.60171e-135
3.64167e-138
5.01427e-141
6.81807e-144
9.16215e-147
1.21488e-149
1.58869e-152
2.04382e-155
2.56945e-158
3.13653e-161
3.71435e-164
3.99311e-167
2.51849e-170
1.17664e-173
4.44054e-177
1.46634e-180
4.4084e-184
1.21057e-187
3.04722e-191
7.09237e-195
1.53705e-198
3.09771e-202
2.84986e-206
1.04068e-223
3.29745e-225
2.03764e-228
7.91532e-232
2.42095e-235
6.38934e-239
1.529e-242
3.39918e-246
7.13174e-250
1.42814e-253
2.753e-257
5.14223e-261
9.35273e-265
1.6625e-268
2.89602e-272
4.95242e-276
8.32099e-280
1.37384e-283
2.22836e-287
3.54898e-291
5.54648e-295
8.49882e-299
1.27519e-302
1.86956e-306
2.66937e-310
3.70617e-314
5.0079e-318
4.5454e-322
0
0
0
0
0
0
0
0
0
0
0
0
0
0
0
0
0
0
0
0
0
0
0
0
0
0
0
0
0
0
0
0
0
0
0
0
0
0
0
0
0
0
0
0
0
0
0
0
0
0
0
0
0
0
0
0
0
0
0
0
0
0
0
0
0
0
0
0
0
0
0
0
0
0
0
0
0
0
0
0
0
0
0
0
0
0
0
0
0
0
0
0
0
0
0
0
0
0
0
0
0
0
0
0
0
0
0
0
0
0
0
0
0
0
0
0
0
0
0
0
0
0
0
0
0
0
0
0
0
0
0
0
0
0
0
0
0
0
0
0
0
0
0
0
0
0
0
0
0
0
0
0
0
0
0
0
0
0
0
0
0
0
0
0
0
0
0
0
0
0
0
0
0
0
0
0
0
0
0
0
0
0
0
0
0
0
0
0
0
0
0
0
0
0
0
0
0
0
0
0
0
0
0
0
0
0
0
0
0
0
0
0
0
0
0
0
0
0
0
0
0
0
0
0
0
0
0
0
0
0
0
0
0
0
0
0
0
0
0
0
0
0
0
0
0
0
0
0
0
0
0
0
0
0
0
0
0
0
0
0
0
0
0
0
0
0
0
0
0
0
0
0
1
1
1
1
1
0.0960134
0.0028866
1.54728e-05
6.65636e-08
2.55204e-10
8.89355e-13
2.76225e-15
7.68836e-18
1.94106e-20
2.28128e-29
2.26724e-31
5.92081e-34
1.66001e-36
4.81287e-39
1.45692e-41
4.49932e-44
1.48443e-46
5.22705e-49
1.97172e-51
7.29639e-54
2.48295e-56
9.07597e-59
3.53445e-61
1.2892e-63
3.99231e-66
1.07189e-68
2.62375e-71
6.04859e-74
1.33844e-76
2.86632e-79
5.95167e-82
1.19937e-84
2.34488e-87
4.4426e-90
8.20412e-93
1.4821e-95
2.59788e-98
4.40494e-101
4.63848e-104
5.434e-113
1.89925e-115
4.09487e-118
7.26781e-121
1.17199e-123
1.79148e-126
2.65634e-129
3.83608e-132
5.42117e-135
7.548e-138
1.03981e-140
1.41924e-143
1.91533e-146
2.55457e-149
3.35742e-152
4.30857e-155
5.35504e-158
6.44489e-161
7.53918e-164
7.8972e-167
3.42887e-170
1.10738e-173
2.98552e-177
7.49186e-181
1.7842e-184
4.00284e-188
8.47567e-192
1.68931e-195
3.14327e-199
2.84023e-203
5.15412e-219
1.90013e-221
8.50342e-225
2.61776e-228
6.62057e-232
1.47866e-235
3.05901e-239
5.97958e-243
1.11537e-246
2.00714e-250
3.51493e-254
6.03072e-258
1.01813e-261
1.69667e-265
2.79693e-269
4.5608e-273
7.34245e-277
1.16431e-280
1.81491e-284
2.77648e-288
4.16465e-292
6.12094e-296
8.80498e-300
1.23527e-303
1.67219e-307
2.17409e-311
2.74153e-315
3.3675e-319
0
0
0
0
0
0
0
0
0
0
0
0
0
0
0
0
0
0
0
0
0
0
0
0
0
0
0
0
0
0
0
0
0
0
0
0
0
0
0
0
0
0
0
0
0
0
0
0
0
0
0
0
0
0
0
0
0
0
0
0
0
0
0
0
0
0
0
0
0
0
0
0
0
0
0
0
0
0
0
0
0
0
0
0
0
0
0
0
0
0
0
0
0
0
0
0
0
0
0
0
0
0
0
0
0
0
0
0
0
0
0
0
0
0
0
0
0
0
0
0
0
0
0
0
0
0
0
0
0
0
0
0
0
0
0
0
0
0
0
0
0
0
0
0
0
0
0
0
0
0
0
0
0
0
0
0
0
0
0
0
0
0
0
0
0
0
0
0
0
0
0
0
0
0
0
0
0
0
0
0
0
0
0
0
0
0
0
0
0
0
0
0
0
0
0
0
0
0
0
0
0
0
0
0
0
0
0
0
0
0
0
0
0
0
0
0
0
0
0
0
0
0
0
0
0
0
0
0
0
0
0
0
0
0
0
0
0
0
0
0
0
0
0
0
0
0
0
0
0
0
0
0
0
0
0
0
0
0
0
0
0
0
0
0
0
0
0
0
0
0
0
0
1
1
1
1
1
0.129453
0.00565077
4.82217e-05
3.30528e-07
2.03455e-09
1.13424e-11
5.79776e-14
2.57588e-16
1.00043e-18
1.42024e-26
1.20584e-28
3.45503e-31
1.04297e-33
3.17243e-36
9.67202e-39
2.94449e-41
9.12234e-44
2.95748e-46
1.01754e-48
3.63816e-51
1.22415e-53
4.09559e-56
1.45068e-58
5.1972e-61
1.72327e-63
5.01227e-66
1.30242e-68
3.13454e-71
7.17007e-74
1.58208e-76
3.38729e-79
7.05306e-82
1.42827e-84
2.80877e-87
5.37103e-90
9.99338e-93
1.80073e-95
3.14876e-98
4.55297e-101
9.29999e-110
2.08881e-112
3.95092e-115
6.68704e-118
1.06689e-120
1.63452e-123
2.4337e-126
3.53752e-129
5.04099e-132
7.0879e-135
9.87321e-138
1.36482e-140
1.86934e-143
2.53334e-146
3.38926e-149
4.43302e-152
5.61556e-155
6.88767e-158
8.20666e-161
9.52197e-164
9.66158e-167
2.71712e-170
5.45672e-174
1.0003e-177
1.85157e-181
3.46867e-185
6.38585e-189
1.11746e-192
1.84697e-196
1.63132e-200
2.54458e-214
1.12666e-217
3.15845e-221
7.00778e-225
1.37483e-228
2.46652e-232
4.15499e-236
6.66032e-240
1.0251e-243
1.54322e-247
2.3145e-251
3.50402e-255
5.37424e-259
8.34595e-263
1.31168e-266
2.05896e-270
3.15499e-274
4.65068e-278
6.57182e-282
8.88432e-286
1.1512e-289
1.44215e-293
1.76783e-297
2.1406e-301
2.55597e-305
3.01411e-309
3.52994e-313
4.0693e-317
4.43671e-321
0
0
0
0
0
0
0
0
0
0
0
0
0
0
0
0
0
0
0
0
0
0
0
0
0
0
0
0
0
0
0
0
0
0
0
0
0
0
0
0
0
0
0
0
0
0
0
0
0
0
0
0
0
0
0
0
0
0
0
0
0
0
0
0
0
0
0
0
0
0
0
0
0
0
0
0
0
0
0
0
0
0
0
0
0
0
0
0
0
0
0
0
0
0
0
0
0
0
0
0
0
0
0
0
0
0
0
0
0
0
0
0
0
0
0
0
0
0
0
0
0
0
0
0
0
0
0
0
0
0
0
0
0
0
0
0
0
0
0
0
0
0
0
0
0
0
0
0
0
0
0
0
0
0
0
0
0
0
0
0
0
0
0
0
0
0
0
0
0
0
0
0
0
0
0
0
0
0
0
0
0
0
0
0
0
0
0
0
0
0
0
0
0
0
0
0
0
0
0
0
0
0
0
0
0
0
0
0
0
0
0
0
0
0
0
0
0
0
0
0
0
0
0
0
0
0
0
0
0
0
0
0
0
0
0
0
0
0
0
0
0
0
0
0
0
0
0
0
0
0
0
0
0
0
0
0
0
0
0
0
0
0
0
0
0
0
0
0
0
0
0
1
1
1
1
1
0.175887
0.00988775
0.000134192
1.4585e-06
1.3741e-08
1.15785e-10
8.73832e-13
5.87767e-15
3.54044e-17
1.95525e-19
9.96513e-22
4.9653e-24
2.23847e-26
8.88246e-29
3.30922e-31
1.12141e-33
3.62351e-36
1.11787e-38
3.39373e-41
1.03537e-43
3.28377e-46
1.0841e-48
3.65411e-51
1.20544e-53
3.98228e-56
1.34402e-58
4.43871e-61
1.35977e-63
3.79934e-66
9.83013e-69
2.39425e-71
5.56159e-74
1.24299e-76
2.68653e-79
5.63005e-82
1.14532e-84
2.26265e-87
4.33907e-90
8.06568e-93
1.45239e-95
2.54214e-98
4.07684e-101
6.03765e-104
9.54464e-107
1.5855e-109
2.58943e-112
4.15993e-115
6.5572e-118
1.01146e-120
1.52586e-123
2.25351e-126
3.26462e-129
4.65237e-132
6.53956e-135
9.0871e-138
1.24979e-140
1.70062e-143
2.28703e-146
3.02521e-149
3.90971e-152
4.9262e-155
6.05093e-158
7.248e-161
8.4818e-164
8.24958e-167
1.19426e-170
1.52044e-174
2.04309e-178
2.99922e-182
4.5517e-186
6.70383e-190
9.26148e-194
1.19484e-197
8.98146e-202
2.99804e-206
3.91348e-210
6.73674e-214
1.06703e-217
1.6318e-221
2.42537e-225
3.48195e-229
4.81504e-233
6.43421e-237
8.36298e-241
1.06889e-244
1.3602e-248
1.74212e-252
2.26699e-256
3.01379e-260
4.11308e-264
5.70581e-268
7.84155e-272
1.05411e-275
1.3815e-279
1.75701e-283
2.16902e-287
2.60766e-291
3.07431e-295
3.57802e-299
4.12531e-303
4.71362e-307
5.30324e-311
5.79908e-315
6.09341e-319
0
0
0
0
0
0
0
0
0
0
0
0
0
0
0
0
0
0
0
0
0
0
0
0
0
0
0
0
0
0
0
0
0
0
0
0
0
0
0
0
0
0
0
0
0
0
0
0
0
0
0
0
0
0
0
0
0
0
0
0
0
0
0
0
0
0
0
0
0
0
0
0
0
0
0
0
0
0
0
0
0
0
0
0
0
0
0
0
0
0
0
0
0
0
0
0
0
0
0
0
0
0
0
0
0
0
0
0
0
0
0
0
0
0
0
0
0
0
0
0
0
0
0
0
0
0
0
0
0
0
0
0
0
0
0
0
0
0
0
0
0
0
0
0
0
0
0
0
0
0
0
0
0
0
0
0
0
0
0
0
0
0
0
0
0
0
0
0
0
0
0
0
0
0
0
0
0
0
0
0
0
0
0
0
0
0
0
0
0
0
0
0
0
0
0
0
0
0
0
0
0
0
0
0
0
0
0
0
0
0
0
0
0
0
0
0
0
0
0
0
0
0
0
0
0
0
0
0
0
0
0
0
0
0
0
0
0
0
0
0
0
0
0
0
0
0
0
0
0
0
0
0
0
0
0
0
0
0
0
0
0
0
0
0
0
0
0
0
0
0
0
0
0
0
0
0
0
0
0
0
0
0
0
0
0
0
0
0
0
0
0
1
1
1
1
1
0.206808
0.0130437
0.000195375
2.33127e-06
2.42636e-08
2.26397e-10
1.92003e-12
1.47128e-14
1.0269e-16
6.55593e-19
3.84259e-21
2.05712e-23
1.01312e-25
4.63704e-28
1.98263e-30
7.97091e-33
3.04666e-35
1.11625e-37
3.98687e-40
1.41548e-42
5.09215e-45
1.88292e-47
7.00737e-50
2.52311e-52
8.96345e-55
3.23095e-57
1.15078e-59
3.87589e-62
1.20475e-64
3.47481e-67
9.42281e-70
2.42871e-72
5.99737e-75
1.42599e-77
3.27547e-80
7.27961e-83
1.56634e-85
3.26426e-88
6.58938e-91
1.28942e-93
2.44129e-96
4.72044e-99
9.34519e-102
1.71935e-104
2.95102e-107
4.98061e-110
8.24017e-113
1.33602e-115
2.12099e-118
3.2962e-121
5.01376e-124
7.46937e-127
1.09184e-129
1.56862e-132
2.21903e-135
3.0952e-138
4.25801e-141
5.77849e-144
7.72784e-147
1.01536e-149
1.30729e-152
1.64679e-155
2.0276e-158
2.442e-161
2.87981e-164
1.73314e-167
1.35227e-171
1.33882e-175
1.69877e-179
2.29489e-183
2.99444e-187
3.67605e-191
4.12689e-195
6.17764e-199
1.18067e-202
1.71538e-206
1.81329e-210
2.02274e-214
2.31304e-218
2.69079e-222
3.14176e-226
3.65e-230
4.18429e-234
4.72217e-238
5.28407e-242
5.90683e-246
6.65967e-250
7.62145e-254
8.85384e-258
1.04763e-261
1.26166e-265
1.53031e-269
1.85265e-273
2.22256e-277
2.61971e-281
3.03604e-285
3.47555e-289
3.93987e-293
4.44015e-297
4.96637e-301
5.48956e-305
5.97316e-309
6.34144e-313
6.53476e-317
6.18076e-321
0
0
0
0
0
0
0
0
0
0
0
0
0
0
0
0
0
0
0
0
0
0
0
0
0
0
0
0
0
0
0
0
0
0
0
0
0
0
0
0
0
0
0
0
0
0
0
0
0
0
0
0
0
0
0
0
0
0
0
0
0
0
0
0
0
0
0
0
0
0
0
0
0
0
0
0
0
0
0
0
0
0
0
0
0
0
0
0
0
0
0
0
0
0
0
0
0
0
0
0
0
0
0
0
0
0
0
0
0
0
0
0
0
0
0
0
0
0
0
0
0
0
0
0
0
0
0
0
0
0
0
0
0
0
0
0
0
0
0
0
0
0
0
0
0
0
0
0
0
0
0
0
0
0
0
0
0
0
0
0
0
0
0
0
0
0
0
0
0
0
0
0
0
0
0
0
0
0
0
0
0
0
0
0
0
0
0
0
0
0
0
0
0
0
0
0
0
0
0
0
0
0
0
0
0
0
0
0
0
0
0
0
0
0
0
0
0
0
0
0
0
0
0
0
0
0
0
0
0
0
0
0
0
0
0
0
0
0
0
0
0
0
0
0
0
0
0
0
0
0
0
0
0
0
0
0
0
0
0
0
0
0
0
0
0
0
0
0
0
0
0
0
0
0
0
0
0
0
0
0
0
0
0
0
0
0
0
0
0
0
1
1
1
1
0.250872
0.0453143
0.00161328
1.79569e-05
1.98657e-07
1.9889e-09
1.73443e-11
1.33101e-13
9.18912e-16
5.85438e-18
3.50391e-20
1.93602e-22
9.78536e-25
4.56741e-27
2.01052e-29
8.25666e-32
3.21927e-34
1.1915e-36
4.24815e-39
1.4746e-41
5.10533e-44
1.80257e-46
6.64746e-49
2.52565e-51
9.36641e-54
3.39865e-56
1.24332e-58
4.50372e-61
1.55536e-63
5.00013e-66
1.49618e-68
4.20772e-71
1.12138e-73
2.85053e-76
6.9482e-79
1.63121e-81
3.69973e-84
8.12096e-87
1.72696e-89
3.56102e-92
7.12929e-95
1.38111e-97
2.66197e-100
5.12978e-103
9.43359e-106
1.66627e-108
2.89473e-111
4.92412e-114
8.19673e-117
1.33438e-119
2.12306e-122
3.30141e-125
5.02314e-128
7.48923e-131
1.09548e-133
1.57291e-136
2.21883e-139
3.07855e-142
4.20566e-145
5.65751e-148
7.48411e-151
9.73317e-154
1.24459e-156
1.56468e-159
1.93342e-162
2.33315e-165
3.47626e-169
4.88633e-173
6.44302e-177
7.91844e-181
9.08777e-185
9.8931e-189
1.04814e-192
1.07431e-196
1.32679e-200
2.01229e-204
2.68754e-208
3.16707e-212
3.96172e-216
5.04572e-220
6.49988e-224
8.41964e-228
1.08787e-231
1.39492e-235
1.77778e-239
2.25993e-243
2.86942e-247
3.6278e-251
4.57277e-255
5.77023e-259
7.32655e-263
9.35054e-267
1.18667e-270
1.49578e-274
1.87871e-278
2.35454e-282
2.94097e-286
3.64622e-290
4.49588e-294
5.53652e-298
6.81575e-302
8.33161e-306
1.00206e-309
1.17963e-313
1.3566e-317
1.14623e-321
0
0
0
0
0
0
0
0
0
0
0
0
0
0
0
0
0
0
0
0
0
0
0
0
0
0
0
0
0
0
0
0
0
0
0
0
0
0
0
0
0
0
0
0
0
0
0
0
0
0
0
0
0
0
0
0
0
0
0
0
0
0
0
0
0
0
0
0
0
0
0
0
0
0
0
0
0
0
0
0
0
0
0
0
0
0
0
0
0
0
0
0
0
0
0
0
0
0
0
0
0
0
0
0
0
0
0
0
0
0
0
0
0
0
0
0
0
0
0
0
0
0
0
0
0
0
0
0
0
0
0
0
0
0
0
0
0
0
0
0
0
0
0
0
0
0
0
0
0
0
0
0
0
0
0
0
0
0
0
0
0
0
0
0
0
0
0
0
0
0
0
0
0
0
0
0
0
0
0
0
0
0
0
0
0
0
0
0
0
0
0
0
0
0
0
0
0
0
0
0
0
0
0
0
0
0
0
0
0
0
0
0
0
0
0
0
0
0
0
0
0
0
0
0
0
0
0
0
0
0
0
0
0
0
0
0
0
0
0
0
0
0
0
0
0
0
0
0
0
0
0
0
0
0
0
0
0
0
0
0
0
0
0
0
0
0
0
0
0
0
0
0
0
0
0
0
0
0
0
0
0
0
0
0
0
0
0
0
0
0
1
1
1
0.198247
0.0203966
0.00150592
2.03622e-05
2.62591e-07
3.01612e-09
2.96826e-11
2.54986e-13
1.95789e-15
1.34285e-17
8.39742e-20
4.79435e-22
2.50809e-24
1.21351e-26
5.42784e-29
2.29238e-31
9.04505e-34
3.40082e-36
1.22125e-38
4.24323e-41
1.45927e-43
5.06034e-46
1.83306e-48
7.04994e-51
2.83388e-53
1.10931e-55
4.21055e-58
1.58807e-60
5.91697e-63
2.09242e-65
6.83304e-68
2.06145e-70
5.81133e-73
1.54571e-75
3.90963e-78
9.46672e-81
2.20533e-83
4.95932e-86
1.07931e-88
2.2782e-91
4.67316e-94
9.32846e-97
1.80372e-99
3.45529e-102
6.55636e-105
1.1926e-107
2.1044e-110
3.6484e-113
6.18173e-116
1.02308e-118
1.65369e-121
2.61041e-124
4.02494e-127
6.06516e-130
8.94062e-133
1.29072e-135
1.82699e-138
2.53865e-141
3.46705e-144
4.66343e-147
6.18778e-150
8.10133e-153
1.04682e-155
1.33448e-158
1.6767e-161
2.07319e-164
1.00796e-167
8.09844e-172
1.07239e-175
1.57586e-179
2.22855e-183
2.99758e-187
3.89145e-191
4.96725e-195
6.14438e-199
8.44787e-203
1.33327e-206
1.98194e-210
2.86292e-214
4.43288e-218
7.02767e-222
1.13021e-225
1.8325e-229
2.97421e-233
4.79273e-237
7.61535e-241
1.18789e-244
1.81621e-248
2.72172e-252
3.99855e-256
5.76269e-260
8.20107e-264
1.16095e-267
1.63918e-271
2.32298e-275
3.32278e-279
4.80021e-283
7.00958e-287
1.03281e-290
1.52514e-294
2.23759e-298
3.24119e-302
4.62576e-306
6.52132e-310
9.11801e-314
1.26544e-317
1.29445e-321
0
0
0
0
0
0
0
0
0
0
0
0
0
0
0
0
0
0
0
0
0
0
0
0
0
0
0
0
0
0
0
0
0
0
0
0
0
0
0
0
0
0
0
0
0
0
0
0
0
0
0
0
0
0
0
0
0
0
0
0
0
0
0
0
0
0
0
0
0
0
0
0
0
0
0
0
0
0
0
0
0
0
0
0
0
0
0
0
0
0
0
0
0
0
0
0
0
0
0
0
0
0
0
0
0
0
0
0
0
0
0
0
0
0
0
0
0
0
0
0
0
0
0
0
0
0
0
0
0
0
0
0
0
0
0
0
0
0
0
0
0
0
0
0
0
0
0
0
0
0
0
0
0
0
0
0
0
0
0
0
0
0
0
0
0
0
0
0
0
0
0
0
0
0
0
0
0
0
0
0
0
0
0
0
0
0
0
0
0
0
0
0
0
0
0
0
0
0
0
0
0
0
0
0
0
0
0
0
0
0
0
0
0
0
0
0
0
0
0
0
0
0
0
0
0
0
0
0
0
0
0
0
0
0
0
0
0
0
0
0
0
0
0
0
0
0
0
0
0
0
0
0
0
0
0
0
0
0
0
0
0
0
0
0
0
0
0
0
0
0
0
0
0
0
0
0
0
0
0
0
0
0
0
0
0
0
0
0
0
0
1
1
0.20095
0.0176074
0.000409453
1.46294e-05
2.34975e-07
3.09795e-09
3.42383e-11
3.24073e-13
2.64886e-15
1.91097e-17
1.23917e-19
7.27495e-22
3.9339e-24
1.94919e-26
8.98883e-29
3.84379e-31
1.55322e-33
5.90216e-36
2.14548e-38
7.4865e-41
2.56818e-43
8.77994e-46
3.12023e-48
1.16304e-50
4.67827e-53
1.97065e-55
8.18641e-58
3.24261e-60
1.24656e-62
4.65059e-65
1.63403e-67
5.26638e-70
1.56099e-72
4.32091e-75
1.12834e-77
2.79932e-80
6.64092e-83
1.51499e-85
3.33766e-88
7.12387e-91
1.47667e-93
2.97864e-96
5.86015e-99
1.11579e-101
2.10653e-104
3.9347e-107
7.04619e-110
1.23051e-112
2.11051e-115
3.5318e-118
5.76577e-121
9.1777e-124
1.42482e-126
2.15947e-129
3.19791e-132
4.63279e-135
6.57514e-138
9.14621e-141
1.24765e-143
1.67183e-146
2.20696e-149
2.87633e-152
3.70409e-155
4.71919e-158
5.95069e-161
7.41456e-164
7.53609e-167
9.97715e-171
1.23845e-174
1.67109e-178
2.48125e-182
3.83387e-186
5.88491e-190
8.84723e-194
1.31969e-197
1.90994e-201
2.97544e-205
5.18262e-209
8.71664e-213
1.47324e-216
2.66208e-220
4.90053e-224
9.11451e-228
1.68889e-231
3.08411e-235
5.51591e-239
9.60415e-243
1.62378e-246
2.66755e-250
4.24507e-254
6.52758e-258
9.74026e-262
1.42461e-265
2.06174e-269
2.96523e-273
4.27657e-277
6.25444e-281
9.31806e-285
1.40462e-288
2.12413e-292
3.21854e-296
4.88329e-300
7.40477e-304
1.12079e-307
1.68517e-311
2.50387e-315
3.67125e-319
0
0
0
0
0
0
0
0
0
0
0
0
0
0
0
0
0
0
0
0
0
0
0
0
0
0
0
0
0
0
0
0
0
0
0
0
0
0
0
0
0
0
0
0
0
0
0
0
0
0
0
0
0
0
0
0
0
0
0
0
0
0
0
0
0
0
0
0
0
0
0
0
0
0
0
0
0
0
0
0
0
0
0
0
0
0
0
0
0
0
0
0
0
0
0
0
0
0
0
0
0
0
0
0
0
0
0
0
0
0
0
0
0
0
0
0
0
0
0
0
0
0
0
0
0
0
0
0
0
0
0
0
0
0
0
0
0
0
0
0
0
0
0
0
0
0
0
0
0
0
0
0
0
0
0
0
0
0
0
0
0
0
0
0
0
0
0
0
0
0
0
0
0
0
0
0
0
0
0
0
0
0
0
0
0
0
0
0
0
0
0
0
0
0
0
0
0
0
0
0
0
0
0
0
0
0
0
0
0
0
0
0
0
0
0
0
0
0
0
0
0
0
0
0
0
0
0
0
0
0
0
0
0
0
0
0
0
0
0
0
0
0
0
0
0
0
0
0
0
0
0
0
0
0
0
0
0
0
0
0
0
0
0
0
0
0
0
0
0
0
0
0
0
0
0
0
0
0
0
0
0
0
0
0
0
0
0
0
0
0
0
0.11643
0.0994638
0.0208006
0.000517936
8.12346e-06
1.64754e-07
2.45518e-09
3.0459e-11
3.14603e-13
2.77106e-15
2.14216e-17
1.45945e-19
9.04413e-22
5.02895e-24
2.59278e-26
1.22374e-28
5.40883e-31
2.22214e-33
8.6539e-36
3.18297e-38
1.12783e-40
3.85917e-43
1.31763e-45
4.54569e-48
1.66011e-50
6.43447e-53
2.69705e-55
1.19294e-57
5.14383e-60
2.09742e-62
8.36679e-65
3.26432e-67
1.19224e-69
3.90193e-72
1.15637e-74
3.1972e-77
8.34454e-80
2.06531e-82
4.87464e-85
1.10358e-87
2.40708e-90
5.077e-93
1.039e-95
2.06997e-98
4.03269e-101
7.58048e-104
1.40941e-106
2.59671e-109
4.57472e-112
7.8736e-115
1.33504e-117
2.21018e-120
3.57858e-123
5.66591e-126
8.76902e-129
1.32573e-131
1.95679e-134
2.82185e-137
3.97801e-140
5.47721e-143
7.37493e-146
9.72896e-149
1.26037e-151
1.61164e-154
2.0465e-157
2.58816e-160
3.25246e-163
3.89757e-166
1.01647e-169
2.19605e-173
4.29581e-177
8.14582e-181
1.55598e-184
3.03162e-188
6.01008e-192
1.20711e-195
2.46805e-199
4.89764e-203
9.99841e-207
2.184e-210
4.47546e-214
8.94275e-218
1.83985e-221
3.72875e-225
7.53656e-229
1.52468e-232
3.0799e-236
6.16593e-240
1.21247e-243
2.33064e-247
4.35538e-251
7.81899e-255
1.34258e-258
2.2092e-262
3.49899e-266
5.43781e-270
8.53085e-274
1.37807e-277
2.29478e-281
3.9139e-285
6.74653e-289
1.15643e-292
1.96131e-296
3.28372e-300
5.39487e-304
8.66551e-308
1.36524e-311
2.13036e-315
3.3428e-319
0
0
0
0
0
0
0
0
0
0
0
0
0
0
0
0
0
0
0
0
0
0
0
0
0
0
0
0
0
0
0
0
0
0
0
0
0
0
0
0
0
0
0
0
0
0
0
0
0
0
0
0
0
0
0
0
0
0
0
0
0
0
0
0
0
0
0
0
0
0
0
0
0
0
0
0
0
0
0
0
0
0
0
0
0
0
0
0
0
0
0
0
0
0
0
0
0
0
0
0
0
0
0
0
0
0
0
0
0
0
0
0
0
0
0
0
0
0
0
0
0
0
0
0
0
0
0
0
0
0
0
0
0
0
0
0
0
0
0
0
0
0
0
0
0
0
0
0
0
0
0
0
0
0
0
0
0
0
0
0
0
0
0
0
0
0
0
0
0
0
0
0
0
0
0
0
0
0
0
0
0
0
0
0
0
0
0
0
0
0
0
0
0
0
0
0
0
0
0
0
0
0
0
0
0
0
0
0
0
0
0
0
0
0
0
0
0
0
0
0
0
0
0
0
0
0
0
0
0
0
0
0
0
0
0
0
0
0
0
0
0
0
0
0
0
0
0
0
0
0
0
0
0
0
0
0
0
0
0
0
0
0
0
0
0
0
0
0
0
0
0
0
0
0
0
0
0
0
0
0
0
0
0
0
0
0
0
0
0
0
0
0.00392141
0.00301553
0.000415459
8.23944e-06
1.24615e-07
1.8325e-09
2.3337e-11
2.60711e-13
2.47761e-15
2.06515e-17
1.50173e-19
9.77054e-22
5.76064e-24
3.07138e-26
1.51664e-28
6.89057e-31
2.93509e-33
1.16981e-35
4.41707e-38
1.58947e-40
5.53745e-43
1.88141e-45
6.46794e-48
2.27468e-50
8.57862e-53
3.45023e-55
1.50577e-57
6.89042e-60
3.02704e-62
1.28052e-64
5.33591e-67
2.16954e-69
8.09195e-72
2.64807e-74
7.78244e-77
2.11867e-79
5.42498e-82
1.31864e-84
3.06417e-87
6.84264e-90
1.47441e-92
3.0752e-95
6.22522e-98
1.22582e-100
2.35374e-103
4.38986e-106
8.03236e-109
1.43847e-111
2.50392e-114
4.27129e-117
7.12808e-120
1.16431e-122
1.86127e-125
2.91165e-128
4.45721e-131
6.67743e-134
9.79151e-137
1.40608e-139
1.97816e-142
2.72736e-145
3.68886e-148
4.89833e-151
6.39287e-154
8.21481e-157
1.0413e-159
1.3035e-162
1.5965e-165
4.88956e-169
1.33525e-172
3.25161e-176
7.32788e-180
1.59422e-183
3.45617e-187
7.57113e-191
1.67339e-194
3.70237e-198
8.14973e-202
1.76916e-205
3.81399e-209
8.171e-213
1.72848e-216
3.62751e-220
7.54681e-224
1.5568e-227
3.18587e-231
6.4686e-235
1.30238e-238
2.59672e-242
5.11783e-246
9.9537e-250
1.90715e-253
3.59432e-257
6.65995e-261
1.21335e-264
2.17533e-268
3.84414e-272
6.71014e-276
1.15928e-279
1.98514e-283
3.37269e-287
5.68667e-291
9.51395e-295
1.57889e-298
2.59799e-302
4.23627e-306
6.84282e-310
1.095e-313
1.73669e-317
2.38634e-321
0
0
0
0
0
0
0
0
0
0
0
0
0
0
0
0
0
0
0
0
0
0
0
0
0
0
0
0
0
0
0
0
0
0
0
0
0
0
0
0
0
0
0
0
0
0
0
0
0
0
0
0
0
0
0
0
0
0
0
0
0
0
0
0
0
0
0
0
0
0
0
0
0
0
0
0
0
0
0
0
0
0
0
0
0
0
0
0
0
0
0
0
0
0
0
0
0
0
0
0
0
0
0
0
0
0
0
0
0
0
0
0
0
0
0
0
0
0
0
0
0
0
0
0
0
0
0
0
0
0
0
0
0
0
0
0
0
0
0
0
0
0
0
0
0
0
0
0
0
0
0
0
0
0
0
0
0
0
0
0
0
0
0
0
0
0
0
0
0
0
0
0
0
0
0
0
0
0
0
0
0
0
0
0
0
0
0
0
0
0
0
0
0
0
0
0
0
0
0
0
0
0
0
0
0
0
0
0
0
0
0
0
0
0
0
0
0
0
0
0
0
0
0
0
0
0
0
0
0
0
0
0
0
0
0
0
0
0
0
0
0
0
0
0
0
0
0
0
0
0
0
0
0
0
0
0
0
0
0
0
0
0
0
0
0
0
0
0
0
0
0
0
0
0
0
0
0
0
0
0
0
0
0
0
0
0
0
0
0
0
0
6.25906e-05
5.29217e-05
6.73347e-06
1.16892e-07
1.59322e-09
1.91017e-11
2.08476e-13
2.04121e-15
1.78453e-17
1.37923e-19
9.50188e-22
5.86923e-24
3.31318e-26
1.69755e-28
8.08533e-31
3.55216e-33
1.47075e-35
5.70868e-38
2.11273e-40
7.48275e-43
2.58804e-45
8.81257e-48
3.07438e-50
1.10049e-52
4.26623e-55
1.73222e-57
7.53571e-60
3.30852e-62
1.3968e-64
5.7019e-67
2.26003e-69
8.50849e-72
2.88592e-74
8.73097e-77
2.42339e-79
6.29334e-82
1.54733e-84
3.63047e-87
8.17521e-90
1.77445e-92
3.72478e-95
7.58157e-98
1.49952e-100
2.887e-103
5.41994e-106
9.91309e-109
1.77317e-111
3.10403e-114
5.30404e-117
8.86948e-120
1.45203e-122
2.32723e-125
3.65121e-128
5.60777e-131
8.43328e-134
1.24215e-136
1.79245e-139
2.53507e-142
3.51576e-145
4.78361e-148
6.39026e-151
8.38711e-154
1.08239e-156
1.375e-159
1.72141e-162
2.10912e-165
2.77297e-169
6.95883e-173
1.73649e-176
4.00391e-180
8.8407e-184
1.9368e-187
4.28116e-191
9.54108e-195
2.12596e-198
4.70141e-202
1.0292e-205
2.21875e-209
4.74727e-213
1.00997e-216
2.1226e-220
4.42336e-224
9.13913e-228
1.87242e-231
3.80458e-235
7.66444e-239
1.52942e-242
3.01857e-246
5.88229e-250
1.13011e-253
2.13789e-257
3.97858e-261
7.28298e-265
1.31182e-268
2.32709e-272
4.07221e-276
7.04401e-280
1.20667e-283
2.04957e-287
3.45423e-291
5.7767e-295
9.58339e-299
1.5766e-302
2.57104e-306
4.15451e-310
6.65123e-314
1.05518e-317
1.29939e-321
0
0
0
0
0
0
0
0
0
0
0
0
0
0
0
0
0
0
0
0
0
0
0
0
0
0
0
0
0
0
0
0
0
0
0
0
0
0
0
0
0
0
0
0
0
0
0
0
0
0
0
0
0
0
0
0
0
0
0
0
0
0
0
0
0
0
0
0
0
0
0
0
0
0
0
0
0
0
0
0
0
0
0
0
0
0
0
0
0
0
0
0
0
0
0