/*--------------------------------*- C++ -*----------------------------------*\
| =========                 |                                                 |
| \\      /  F ield         | OpenFOAM: The Open Source CFD Toolbox           |
|  \\    /   O peration     | Version:  2.1.1                                 |
|   \\  /    A nd           | Web:      www.OpenFOAM.org                      |
|    \\/     M anipulation  |                                                 |
\*---------------------------------------------------------------------------*/
FoamFile
{
    version     2.0;
    format      ascii;
    class       volScalarField;
    location    "0.000250000";
    object      H2O2;
}
// * * * * * * * * * * * * * * * * * * * * * * * * * * * * * * * * * * * * * //

dimensions      [0 0 0 0 0 0 0];

internalField   nonuniform List<scalar> 
12384
(
4.99705e-12
3.47145e-12
2.11376e-13
2.39598e-15
2.83878e-17
2.72214e-19
1.83674e-21
1.11644e-23
5.3737e-26
2.18313e-28
7.80013e-31
2.47126e-33
7.5617e-36
2.33061e-38
6.65373e-55
2.02442e-56
1.81575e-58
1.34403e-60
8.78115e-63
5.12437e-65
2.65824e-67
1.20491e-69
4.7981e-72
1.71056e-74
5.48049e-77
1.6211e-79
4.48997e-82
1.1647e-84
2.83549e-87
6.49788e-90
1.40867e-92
2.90679e-95
5.74813e-98
1.09522e-100
2.0167e-103
3.58864e-106
6.16774e-109
1.02391e-111
1.64257e-114
2.55225e-117
3.85017e-120
5.649e-123
8.06027e-126
1.04704e-128
5.6758e-141
1.1677e-141
4.02493e-144
9.23617e-147
1.7409e-149
2.91788e-152
4.52467e-155
6.61984e-158
9.26883e-161
1.25234e-163
1.63515e-166
2.06341e-169
2.50194e-172
3.23118e-176
8.6175e-180
5.18897e-183
4.43131e-186
3.76851e-189
2.9253e-192
1.94176e-195
1.06577e-198
4.75559e-202
1.75973e-205
5.54817e-209
1.51541e-212
3.75031e-216
8.6407e-220
1.8828e-223
3.87177e-227
1.35947e-231
6.6974e-254
1.15589e-251
1.33618e-254
8.45263e-258
4.04613e-261
1.63986e-264
5.95071e-268
1.93047e-271
5.69364e-275
1.53956e-278
3.79815e-282
8.63453e-286
1.82952e-289
3.73466e-293
7.44788e-297
1.42517e-300
2.58968e-304
4.55161e-308
7.86167e-312
1.32663e-315
2.17769e-319
3.45846e-323
0
0
0
0
0
0
0
0
0
0
0
0
0
0
0
0
0
0
0
0
0
0
0
0
0
0
0
0
0
0
0
0
0
0
0
0
0
0
0
0
0
0
0
0
0
0
0
0
0
0
0
0
0
0
0
0
0
0
0
0
0
0
0
0
0
0
0
0
0
0
0
0
0
0
0
0
0
0
0
0
0
0
0
0
0
0
0
0
0
0
0
0
0
0
0
0
0
0
0
0
0
0
0
0
0
0
0
0
0
0
0
0
0
0
0
0
0
0
0
0
0
0
0
0
0
0
0
0
0
0
0
0
0
0
0
0
0
0
0
0
0
0
0
0
0
0
0
0
0
0
0
0
0
0
0
0
0
0
0
0
0
0
0
0
0
0
0
0
0
0
0
0
0
0
0
0
0
0
0
0
0
0
0
0
0
0
0
0
0
0
0
0
0
0
0
0
0
0
0
0
0
0
0
0
0
0
0
0
0
0
0
0
0
0
0
0
0
0
0
0
0
0
0
0
0
0
0
0
0
0
0
0
0
0
0
0
0
0
0
0
0
0
0
0
0
0
0
0
0
0
0
0
0
0
0
0
0
0
0
0
0
0
0
0
0
0
0
0
0
0
0
0
0
0
0
0
0
0
5.11524e-10
2.91759e-10
1.52422e-11
1.68243e-13
1.4914e-15
1.1036e-17
6.72731e-20
3.65287e-22
1.69649e-24
7.02849e-27
2.56653e-29
8.52211e-32
2.72866e-34
8.13945e-37
2.22713e-52
4.57599e-54
3.26586e-56
2.1778e-58
1.38156e-60
8.29812e-63
4.63891e-65
2.31342e-67
1.00498e-69
3.91547e-72
1.38459e-74
4.45441e-77
1.30814e-79
3.55504e-82
9.0217e-85
2.14628e-87
4.80803e-90
1.02151e-92
2.07688e-95
4.07381e-98
7.72109e-101
1.4115e-103
2.48462e-106
4.20987e-109
6.86918e-112
1.08388e-114
1.66164e-117
2.47967e-120
3.59185e-123
4.22378e-126
5.61205e-138
1.21259e-138
4.07544e-141
9.03266e-144
1.65531e-146
2.72629e-149
4.19318e-152
6.11887e-155
8.57665e-158
1.16477e-160
1.53264e-163
1.95288e-166
2.42584e-169
2.93131e-172
8.98439e-176
5.64787e-179
4.93675e-182
4.28883e-185
3.39382e-188
2.32283e-191
1.32151e-194
6.201e-198
2.44352e-201
8.22168e-205
2.3887e-208
6.18922e-212
1.4789e-215
3.31946e-219
7.01972e-223
4.03329e-227
3.45433e-249
2.18487e-247
2.49885e-250
1.56921e-253
7.42263e-257
2.95654e-260
1.04326e-263
3.29515e-267
9.48876e-271
2.53033e-274
6.23218e-278
1.42041e-281
3.0553e-285
6.31539e-289
1.26906e-292
2.45595e-296
4.53048e-300
8.04037e-304
1.39389e-307
2.37799e-311
3.9495e-315
6.27898e-319
9.38725e-323
0
0
0
0
0
0
0
0
0
0
0
0
0
0
0
0
0
0
0
0
0
0
0
0
0
0
0
0
0
0
0
0
0
0
0
0
0
0
0
0
0
0
0
0
0
0
0
0
0
0
0
0
0
0
0
0
0
0
0
0
0
0
0
0
0
0
0
0
0
0
0
0
0
0
0
0
0
0
0
0
0
0
0
0
0
0
0
0
0
0
0
0
0
0
0
0
0
0
0
0
0
0
0
0
0
0
0
0
0
0
0
0
0
0
0
0
0
0
0
0
0
0
0
0
0
0
0
0
0
0
0
0
0
0
0
0
0
0
0
0
0
0
0
0
0
0
0
0
0
0
0
0
0
0
0
0
0
0
0
0
0
0
0
0
0
0
0
0
0
0
0
0
0
0
0
0
0
0
0
0
0
0
0
0
0
0
0
0
0
0
0
0
0
0
0
0
0
0
0
0
0
0
0
0
0
0
0
0
0
0
0
0
0
0
0
0
0
0
0
0
0
0
0
0
0
0
0
0
0
0
0
0
0
0
0
0
0
0
0
0
0
0
0
0
0
0
0
0
0
0
0
0
0
0
0
0
0
0
0
0
0
0
0
0
0
0
0
0
0
0
0
0
0
0
0
0
0
4.56083e-11
4.66474e-11
1.67112e-12
2.46187e-15
3.26958e-18
1.05224e-20
2.62997e-23
5.83888e-26
8.52108e-29
1.11455e-31
1.34136e-34
4.57917e-37
4.15478e-39
1.98601e-41
1.35369e-52
2.23198e-54
8.8903e-57
4.46437e-59
2.27668e-61
1.2748e-63
6.88372e-66
3.69356e-68
1.52819e-70
6.53629e-73
3.45409e-75
1.72802e-77
6.47506e-80
1.85183e-82
4.6812e-85
1.09263e-87
2.40456e-90
5.05824e-93
1.02979e-95
2.05547e-98
3.97248e-101
7.39303e-104
1.33161e-106
2.31954e-109
3.88709e-112
6.31808e-115
1.00322e-117
1.54876e-120
2.25658e-123
3.59483e-127
1.12073e-137
2.82456e-138
8.83382e-141
1.80652e-143
3.08847e-146
4.82413e-149
7.13816e-152
1.00943e-154
1.38032e-157
1.84643e-160
2.4122e-163
3.07101e-166
3.86415e-169
4.80782e-172
5.8795e-175
5.98663e-178
5.90505e-181
5.33854e-184
4.27379e-187
2.90844e-190
1.64409e-193
7.76659e-197
3.1272e-200
1.08886e-203
3.31231e-207
8.99439e-211
2.2367e-214
5.1779e-218
1.11544e-221
4.85582e-226
3.20315e-247
5.73664e-246
5.99973e-249
3.52925e-252
1.54982e-255
5.69526e-259
1.84598e-262
5.37723e-266
1.43385e-269
3.56994e-273
8.339e-277
1.82594e-280
3.8222e-284
7.76875e-288
1.5373e-291
2.93422e-295
5.36142e-299
9.44099e-303
1.62188e-306
2.75376e-310
4.57375e-314
7.31729e-318
1.12647e-321
0
0
0
0
0
0
0
0
0
0
0
0
0
0
0
0
0
0
0
0
0
0
0
0
0
0
0
0
0
0
0
0
0
0
0
0
0
0
0
0
0
0
0
0
0
0
0
0
0
0
0
0
0
0
0
0
0
0
0
0
0
0
0
0
0
0
0
0
0
0
0
0
0
0
0
0
0
0
0
0
0
0
0
0
0
0
0
0
0
0
0
0
0
0
0
0
0
0
0
0
0
0
0
0
0
0
0
0
0
0
0
0
0
0
0
0
0
0
0
0
0
0
0
0
0
0
0
0
0
0
0
0
0
0
0
0
0
0
0
0
0
0
0
0
0
0
0
0
0
0
0
0
0
0
0
0
0
0
0
0
0
0
0
0
0
0
0
0
0
0
0
0
0
0
0
0
0
0
0
0
0
0
0
0
0
0
0
0
0
0
0
0
0
0
0
0
0
0
0
0
0
0
0
0
0
0
0
0
0
0
0
0
0
0
0
0
0
0
0
0
0
0
0
0
0
0
0
0
0
0
0
0
0
0
0
0
0
0
0
0
0
0
0
0
0
0
0
0
0
0
0
0
0
0
0
0
0
0
0
0
0
0
0
0
0
0
0
0
0
0
0
0
0
0
0
0
0
1.90701e-07
1.27547e-07
1.77841e-10
4.3396e-12
1.15792e-14
4.08879e-17
9.33565e-20
2.28831e-22
3.6977e-25
5.47048e-28
7.9887e-31
1.25223e-33
2.39404e-36
4.56556e-39
1.47093e-48
1.48511e-50
3.91542e-53
1.35408e-55
5.55695e-58
2.51982e-60
1.24488e-62
6.67744e-65
3.20454e-67
1.25873e-69
5.80733e-72
3.20255e-74
1.51109e-76
4.96894e-79
1.33232e-81
3.22512e-84
7.34562e-87
1.60075e-89
3.37039e-92
6.89319e-95
1.36906e-97
2.6374e-100
4.93364e-103
8.96706e-106
1.58248e-108
2.71813e-111
4.55016e-114
7.40131e-117
1.14095e-119
3.49241e-123
2.73457e-133
1.74115e-134
5.1416e-137
1.01771e-139
1.69783e-142
2.58806e-145
3.74533e-148
5.23861e-151
7.14738e-154
9.57788e-157
1.26519e-159
1.64741e-162
2.1113e-165
2.66042e-168
3.28961e-171
3.97604e-174
4.02562e-177
3.83194e-180
3.10788e-183
2.08832e-186
1.15723e-189
5.43482e-193
2.21083e-196
7.90896e-200
2.52201e-203
7.26935e-207
1.92011e-210
4.70539e-214
1.06925e-217
9.5989e-222
3.55672e-242
8.13334e-242
7.72021e-245
4.1974e-248
1.71174e-251
5.81423e-255
1.73638e-258
4.70729e-262
1.18245e-265
2.791e-269
6.25272e-273
1.33946e-276
2.75903e-280
5.48761e-284
1.0574e-287
1.97907e-291
3.60547e-295
6.40414e-299
1.11058e-302
1.88233e-306
3.12058e-310
5.06265e-314
8.03879e-318
1.24999e-321
0
0
0
0
0
0
0
0
0
0
0
0
0
0
0
0
0
0
0
0
0
0
0
0
0
0
0
0
0
0
0
0
0
0
0
0
0
0
0
0
0
0
0
0
0
0
0
0
0
0
0
0
0
0
0
0
0
0
0
0
0
0
0
0
0
0
0
0
0
0
0
0
0
0
0
0
0
0
0
0
0
0
0
0
0
0
0
0
0
0
0
0
0
0
0
0
0
0
0
0
0
0
0
0
0
0
0
0
0
0
0
0
0
0
0
0
0
0
0
0
0
0
0
0
0
0
0
0
0
0
0
0
0
0
0
0
0
0
0
0
0
0
0
0
0
0
0
0
0
0
0
0
0
0
0
0
0
0
0
0
0
0
0
0
0
0
0
0
0
0
0
0
0
0
0
0
0
0
0
0
0
0
0
0
0
0
0
0
0
0
0
0
0
0
0
0
0
0
0
0
0
0
0
0
0
0
0
0
0
0
0
0
0
0
0
0
0
0
0
0
0
0
0
0
0
0
0
0
0
0
0
0
0
0
0
0
0
0
0
0
0
0
0
0
0
0
0
0
0
0
0
0
0
0
0
0
0
0
0
0
0
0
0
0
0
0
0
0
0
0
0
0
0
0
0
0
2.28322e-07
2.17989e-07
2.4978e-07
9.75971e-10
5.51919e-11
3.52476e-13
9.18041e-16
2.41335e-18
4.54719e-21
7.51587e-24
1.23974e-26
2.34221e-29
4.72591e-32
9.72969e-35
4.26974e-44
4.3108e-46
9.46371e-49
2.74047e-51
8.74023e-54
3.12542e-56
1.24464e-58
5.54177e-61
2.66495e-63
1.15892e-65
4.3544e-68
1.95898e-70
9.44593e-73
3.67108e-75
1.08188e-77
2.78026e-80
6.60869e-83
1.48935e-85
3.23087e-88
6.78948e-91
1.38234e-93
2.7241e-96
5.20263e-99
9.63813e-102
1.7329e-104
3.03715e-107
5.19766e-110
8.64239e-113
1.3715e-115
6.01821e-119
1.64735e-128
2.93282e-130
7.86252e-133
1.4984e-135
2.46543e-138
3.75776e-141
5.48394e-144
7.76419e-147
1.0739e-149
1.46021e-152
1.95859e-155
2.59185e-158
3.37893e-161
4.33598e-164
5.46522e-167
6.73354e-170
8.07029e-173
8.44628e-176
6.73174e-179
4.34788e-182
2.23201e-185
9.61456e-189
3.61799e-192
1.21067e-195
3.63356e-199
9.88582e-203
2.46821e-206
5.71825e-210
1.22931e-213
1.12926e-217
1.17635e-236
3.15044e-237
2.47399e-240
1.15536e-243
4.13217e-247
1.25019e-250
3.36948e-254
8.32856e-258
1.92337e-261
4.20342e-265
8.77455e-269
1.76169e-272
3.42007e-276
6.44541e-280
1.18268e-283
2.11775e-287
3.70675e-291
6.34926e-295
1.06517e-298
1.75098e-302
2.82064e-306
4.45216e-310
6.88203e-314
1.04082e-317
1.53654e-321
0
0
0
0
0
0
0
0
0
0
0
0
0
0
0
0
0
0
0
0
0
0
0
0
0
0
0
0
0
0
0
0
0
0
0
0
0
0
0
0
0
0
0
0
0
0
0
0
0
0
0
0
0
0
0
0
0
0
0
0
0
0
0
0
0
0
0
0
0
0
0
0
0
0
0
0
0
0
0
0
0
0
0
0
0
0
0
0
0
0
0
0
0
0
0
0
0
0
0
0
0
0
0
0
0
0
0
0
0
0
0
0
0
0
0
0
0
0
0
0
0
0
0
0
0
0
0
0
0
0
0
0
0
0
0
0
0
0
0
0
0
0
0
0
0
0
0
0
0
0
0
0
0
0
0
0
0
0
0
0
0
0
0
0
0
0
0
0
0
0
0
0
0
0
0
0
0
0
0
0
0
0
0
0
0
0
0
0
0
0
0
0
0
0
0
0
0
0
0
0
0
0
0
0
0
0
0
0
0
0
0
0
0
0
0
0
0
0
0
0
0
0
0
0
0
0
0
0
0
0
0
0
0
0
0
0
0
0
0
0
0
0
0
0
0
0
0
0
0
0
0
0
0
0
0
0
0
0
0
0
0
0
0
0
0
0
0
0
0
0
0
0
0
0
0
1.97057e-07
1.96352e-07
2.13146e-07
2.56339e-07
4.75156e-09
5.96439e-10
2.60691e-12
7.82396e-15
1.53046e-17
2.88764e-20
5.58413e-23
1.19452e-25
2.78056e-28
6.27247e-31
3.94288e-40
3.95317e-42
9.58939e-45
2.50423e-47
7.46536e-50
2.2735e-52
7.71779e-55
2.84559e-57
1.1514e-59
4.9158e-62
1.79535e-64
6.63662e-67
2.82973e-69
1.2009e-71
4.0594e-74
1.12944e-76
2.83253e-79
6.62997e-82
1.48161e-84
3.19551e-87
6.6709e-90
1.34762e-92
2.63721e-95
5.00115e-98
9.19431e-101
1.64998e-103
2.8993e-106
4.94525e-109
8.09954e-112
5.27486e-115
3.43156e-124
2.44715e-126
5.90787e-129
1.08526e-131
1.76333e-134
2.68996e-137
3.96237e-140
5.6733e-143
7.94111e-146
1.09343e-148
1.48679e-151
1.99799e-154
2.64932e-157
3.46458e-160
4.45715e-163
5.60344e-166
6.84007e-169
8.10003e-172
8.70776e-175
5.49195e-178
2.56583e-181
9.68314e-185
3.19752e-188
9.61284e-192
2.6397e-195
6.64503e-199
1.54681e-202
3.35231e-206
6.75441e-210
6.12821e-214
2.23783e-231
7.18993e-233
4.44412e-236
1.72628e-239
5.27935e-243
1.39321e-246
3.33411e-250
7.41227e-254
1.55516e-257
3.11426e-261
6.00334e-265
1.12136e-268
2.03959e-272
3.62555e-276
6.31562e-280
1.08002e-283
1.81462e-287
2.99598e-291
4.85938e-295
7.73911e-299
1.20948e-302
1.85327e-306
2.78069e-310
4.07671e-314
5.82068e-318
8.10268e-322
0
0
0
0
0
0
0
0
0
0
0
0
0
0
0
0
0
0
0
0
0
0
0
0
0
0
0
0
0
0
0
0
0
0
0
0
0
0
0
0
0
0
0
0
0
0
0
0
0
0
0
0
0
0
0
0
0
0
0
0
0
0
0
0
0
0
0
0
0
0
0
0
0
0
0
0
0
0
0
0
0
0
0
0
0
0
0
0
0
0
0
0
0
0
0
0
0
0
0
0
0
0
0
0
0
0
0
0
0
0
0
0
0
0
0
0
0
0
0
0
0
0
0
0
0
0
0
0
0
0
0
0
0
0
0
0
0
0
0
0
0
0
0
0
0
0
0
0
0
0
0
0
0
0
0
0
0
0
0
0
0
0
0
0
0
0
0
0
0
0
0
0
0
0
0
0
0
0
0
0
0
0
0
0
0
0
0
0
0
0
0
0
0
0
0
0
0
0
0
0
0
0
0
0
0
0
0
0
0
0
0
0
0
0
0
0
0
0
0
0
0
0
0
0
0
0
0
0
0
0
0
0
0
0
0
0
0
0
0
0
0
0
0
0
0
0
0
0
0
0
0
0
0
0
0
0
0
0
0
0
0
0
0
0
0
0
0
0
0
0
0
0
0
0
1.98353e-07
1.97795e-07
1.96355e-07
2.15215e-07
2.48056e-07
1.65227e-08
3.91547e-10
2.02187e-12
8.57347e-15
3.26573e-17
1.13358e-19
3.50293e-22
9.80996e-25
2.47875e-27
2.80248e-36
2.78936e-38
7.12516e-41
2.00425e-43
5.72246e-46
1.74307e-48
5.30729e-51
1.76029e-53
6.16116e-56
2.32886e-58
8.60108e-61
2.92913e-63
1.07024e-65
4.16846e-68
1.5208e-70
4.70982e-73
1.26448e-75
3.09505e-78
7.13505e-81
1.57884e-83
3.38112e-86
7.02045e-89
1.41474e-91
2.76598e-94
5.24064e-97
9.67832e-100
1.74853e-102
3.06489e-105
5.197e-108
5.4891e-111
6.43051e-120
2.24076e-122
4.83098e-125
8.5743e-128
1.38259e-130
2.11329e-133
3.13338e-136
4.5249e-139
6.3947e-142
8.90368e-145
1.22658e-147
1.67417e-150
2.25934e-153
3.01339e-156
3.96052e-159
5.08253e-162
6.31687e-165
7.60245e-168
8.89338e-171
9.31568e-174
4.04472e-177
1.30624e-180
3.52161e-184
8.83729e-188
2.1047e-191
4.72211e-195
9.99929e-199
1.99299e-202
3.70847e-206
3.36109e-210
6.09931e-226
2.2418e-228
1.0032e-231
3.08834e-235
7.81022e-239
1.74428e-242
3.60837e-246
7.05328e-250
1.31566e-253
2.36764e-257
4.14628e-261
7.11397e-265
1.201e-268
2.00142e-272
3.29935e-276
5.38008e-280
8.66123e-284
1.37343e-287
2.14091e-291
3.27519e-295
4.91266e-299
7.22013e-303
1.0386e-306
1.45711e-310
1.97257e-314
2.56475e-318
3.21143e-322
0
0
0
0
0
0
0
0
0
0
0
0
0
0
0
0
0
0
0
0
0
0
0
0
0
0
0
0
0
0
0
0
0
0
0
0
0
0
0
0
0
0
0
0
0
0
0
0
0
0
0
0
0
0
0
0
0
0
0
0
0
0
0
0
0
0
0
0
0
0
0
0
0
0
0
0
0
0
0
0
0
0
0
0
0
0
0
0
0
0
0
0
0
0
0
0
0
0
0
0
0
0
0
0
0
0
0
0
0
0
0
0
0
0
0
0
0
0
0
0
0
0
0
0
0
0
0
0
0
0
0
0
0
0
0
0
0
0
0
0
0
0
0
0
0
0
0
0
0
0
0
0
0
0
0
0
0
0
0
0
0
0
0
0
0
0
0
0
0
0
0
0
0
0
0
0
0
0
0
0
0
0
0
0
0
0
0
0
0
0
0
0
0
0
0
0
0
0
0
0
0
0
0
0
0
0
0
0
0
0
0
0
0
0
0
0
0
0
0
0
0
0
0
0
0
0
0
0
0
0
0
0
0
0
0
0
0
0
0
0
0
0
0
0
0
0
0
0
0
0
0
0
0
0
0
0
0
0
0
0
0
0
0
0
0
0
0
0
0
0
0
0
0
2.0351e-07
1.9815e-07
1.98774e-07
2.15064e-07
2.21307e-07
3.25538e-08
1.42218e-09
1.23046e-11
8.37811e-14
5.16296e-16
2.84415e-18
1.46387e-20
6.47181e-23
2.51738e-25
3.58098e-33
2.9881e-35
8.48717e-38
2.53904e-40
7.68052e-43
2.32865e-45
7.07183e-48
2.18238e-50
7.06578e-53
2.43034e-55
8.68398e-58
2.92141e-60
9.77584e-63
3.46278e-65
1.24077e-67
4.11444e-70
1.19671e-72
3.10952e-75
7.48362e-78
1.71182e-80
3.77714e-83
8.08698e-86
1.68389e-88
3.40997e-91
6.70599e-94
1.28234e-96
2.38592e-99
4.29903e-102
7.51705e-105
1.08756e-107
2.22147e-116
4.98663e-119
9.43234e-122
1.59653e-124
2.54722e-127
3.90244e-130
5.81044e-133
8.44567e-136
1.20351e-138
1.69221e-141
2.3572e-144
3.25845e-147
4.46299e-150
6.0483e-153
8.09187e-156
1.05839e-158
1.34071e-161
1.64441e-164
1.95931e-167
2.27334e-170
2.30667e-173
6.48699e-177
1.30277e-180
2.3882e-184
4.42064e-188
8.28149e-192
1.52462e-195
2.66781e-199
4.40928e-203
3.89671e-207
6.0782e-221
2.68969e-224
7.54041e-228
1.67311e-231
3.28243e-235
5.88884e-239
9.91998e-243
1.59012e-246
2.44738e-250
3.68438e-254
5.5258e-258
8.36573e-262
1.28308e-265
1.99258e-269
3.13165e-273
4.91576e-277
7.53248e-281
1.11033e-284
1.569e-288
2.1211e-292
2.74845e-296
3.44308e-300
4.22063e-304
5.11066e-308
6.10242e-312
7.19622e-316
8.42777e-320
9.88131e-324
0
0
0
0
0
0
0
0
0
0
0
0
0
0
0
0
0
0
0
0
0
0
0
0
0
0
0
0
0
0
0
0
0
0
0
0
0
0
0
0
0
0
0
0
0
0
0
0
0
0
0
0
0
0
0
0
0
0
0
0
0
0
0
0
0
0
0
0
0
0
0
0
0
0
0
0
0
0
0
0
0
0
0
0
0
0
0
0
0
0
0
0
0
0
0
0
0
0
0
0
0
0
0
0
0
0
0
0
0
0
0
0
0
0
0
0
0
0
0
0
0
0
0
0
0
0
0
0
0
0
0
0
0
0
0
0
0
0
0
0
0
0
0
0
0
0
0
0
0
0
0
0
0
0
0
0
0
0
0
0
0
0
0
0
0
0
0
0
0
0
0
0
0
0
0
0
0
0
0
0
0
0
0
0
0
0
0
0
0
0
0
0
0
0
0
0
0
0
0
0
0
0
0
0
0
0
0
0
0
0
0
0
0
0
0
0
0
0
0
0
0
0
0
0
0
0
0
0
0
0
0
0
0
0
0
0
0
0
0
0
0
0
0
0
0
0
0
0
0
0
0
0
0
0
0
0
0
0
0
0
0
0
0
0
0
0
0
0
0
0
0
0
2.0503e-07
2.0507e-07
2.06502e-07
1.97506e-07
1.20666e-07
1.03363e-08
6.0848e-10
8.58005e-12
9.35797e-14
8.93767e-16
7.60019e-18
5.71358e-20
3.99347e-22
2.43024e-24
1.33574e-26
6.66535e-29
3.17104e-31
1.39977e-33
5.97248e-36
2.18009e-38
7.6748e-41
2.44544e-43
7.6568e-46
2.30865e-48
7.06885e-51
2.23608e-53
7.3933e-56
2.48936e-58
8.21521e-61
2.71428e-63
9.16221e-66
3.02604e-68
9.2697e-71
2.58986e-73
6.70071e-76
1.63207e-78
3.79115e-81
8.47307e-84
1.83127e-86
3.83781e-89
7.80774e-92
1.54264e-94
2.95869e-97
5.50008e-100
9.9024e-103
1.71462e-105
2.72077e-108
4.02936e-111
6.43768e-114
1.08099e-116
1.76576e-119
2.83654e-122
4.47059e-125
6.89522e-128
1.04012e-130
1.53611e-133
2.22539e-136
3.1714e-139
4.45781e-142
6.19422e-145
8.51912e-148
1.15925e-150
1.559e-153
2.0622e-156
2.66509e-159
3.35791e-162
4.12461e-165
4.94072e-168
5.78182e-171
5.62348e-174
8.14072e-178
1.03643e-181
1.39279e-185
2.04482e-189
3.10367e-193
4.57142e-197
6.31447e-201
8.05896e-205
5.99398e-209
2.00081e-213
2.63957e-217
4.59311e-221
7.27621e-225
1.11268e-228
1.65358e-232
2.37367e-236
3.28224e-240
4.3859e-244
5.70078e-248
7.28635e-252
9.27201e-256
1.18752e-259
1.54528e-263
2.05438e-267
2.80378e-271
3.8895e-275
5.34528e-279
7.18524e-283
9.417e-287
1.1977e-290
1.47856e-294
1.77756e-298
2.09561e-302
2.43901e-306
2.81225e-310
3.21367e-314
3.61613e-318
3.95253e-322
0
0
0
0
0
0
0
0
0
0
0
0
0
0
0
0
0
0
0
0
0
0
0
0
0
0
0
0
0
0
0
0
0
0
0
0
0
0
0
0
0
0
0
0
0
0
0
0
0
0
0
0
0
0
0
0
0
0
0
0
0
0
0
0
0
0
0
0
0
0
0
0
0
0
0
0
0
0
0
0
0
0
0
0
0
0
0
0
0
0
0
0
0
0
0
0
0
0
0
0
0
0
0
0
0
0
0
0
0
0
0
0
0
0
0
0
0
0
0
0
0
0
0
0
0
0
0
0
0
0
0
0
0
0
0
0
0
0
0
0
0
0
0
0
0
0
0
0
0
0
0
0
0
0
0
0
0
0
0
0
0
0
0
0
0
0
0
0
0
0
0
0
0
0
0
0
0
0
0
0
0
0
0
0
0
0
0
0
0
0
0
0
0
0
0
0
0
0
0
0
0
0
0
0
0
0
0
0
0
0
0
0
0
0
0
0
0
0
0
0
0
0
0
0
0
0
0
0
0
0
0
0
0
0
0
0
0
0
0
0
0
0
0
0
0
0
0
0
0
0
0
0
0
0
0
0
0
0
0
0
0
0
0
0
0
0
0
0
0
0
0
0
0
0
0
0
0
0
0
0
0
0
0
0
0
0
0
0
0
0
0
0
2.06273e-07
2.06936e-07
1.93779e-07
9.24032e-08
2.27418e-08
4.1265e-09
1.53352e-10
2.04659e-12
2.57866e-14
2.70741e-16
2.5136e-18
2.12596e-20
1.65898e-22
1.15748e-24
7.44856e-27
4.26127e-29
2.29117e-31
1.06947e-33
5.34031e-36
2.21379e-38
9.29616e-41
3.52918e-43
1.30478e-45
4.66675e-48
1.65602e-50
5.94877e-53
2.19909e-55
8.17795e-58
2.94414e-60
1.04577e-62
3.76929e-65
1.34246e-67
4.52136e-70
1.40536e-72
4.05339e-75
1.09917e-77
2.83306e-80
6.99585e-83
1.66339e-85
3.82087e-88
8.49226e-91
1.82742e-93
3.80862e-96
7.68881e-99
1.50451e-101
2.85123e-104
5.44788e-107
1.07853e-109
2.00806e-112
3.44325e-115
5.81163e-118
9.61433e-121
1.5587e-123
2.4743e-126
3.84505e-129
5.84843e-132
8.71292e-135
1.27361e-137
1.8298e-140
2.58851e-143
3.61058e-146
4.96712e-149
6.74089e-152
9.0149e-155
1.18445e-157
1.52496e-160
1.92098e-163
2.3652e-166
2.84856e-169
3.35926e-172
2.02167e-175
1.57743e-179
1.56184e-183
1.98191e-187
2.6776e-191
3.49406e-195
4.28921e-199
4.81988e-203
7.12961e-207
1.36261e-210
2.00342e-214
2.11575e-218
2.36023e-222
2.69877e-226
3.13929e-230
3.66512e-234
4.25776e-238
4.88087e-242
5.50835e-246
6.16379e-250
6.89032e-254
7.76854e-258
8.89048e-262
1.03283e-265
1.22211e-269
1.47178e-273
1.78516e-277
2.16114e-281
2.59263e-285
3.05589e-289
3.5415e-293
4.05418e-297
4.59576e-301
5.17948e-305
5.79367e-309
6.40455e-313
6.96927e-317
7.4011e-321
0
0
0
0
0
0
0
0
0
0
0
0
0
0
0
0
0
0
0
0
0
0
0
0
0
0
0
0
0
0
0
0
0
0
0
0
0
0
0
0
0
0
0
0
0
0
0
0
0
0
0
0
0
0
0
0
0
0
0
0
0
0
0
0
0
0
0
0
0
0
0
0
0
0
0
0
0
0
0
0
0
0
0
0
0
0
0
0
0
0
0
0
0
0
0
0
0
0
0
0
0
0
0
0
0
0
0
0
0
0
0
0
0
0
0
0
0
0
0
0
0
0
0
0
0
0
0
0
0
0
0
0
0
0
0
0
0
0
0
0
0
0
0
0
0
0
0
0
0
0
0
0
0
0
0
0
0
0
0
0
0
0
0
0
0
0
0
0
0
0
0
0
0
0
0
0
0
0
0
0
0
0
0
0
0
0
0
0
0
0
0
0
0
0
0
0
0
0
0
0
0
0
0
0
0
0
0
0
0
0
0
0
0
0
0
0
0
0
0
0
0
0
0
0
0
0
0
0
0
0
0
0
0
0
0
0
0
0
0
0
0
0
0
0
0
0
0
0
0
0
0
0
0
0
0
0
0
0
0
0
0
0
0
0
0
0
0
0
0
0
0
0
0
0
0
0
0
0
0
0
0
0
0
0
0
0
0
0
0
0
0
0
2.09249e-07
1.97856e-07
6.27357e-08
1.18401e-09
2.80779e-10
1.0321e-10
2.23308e-12
2.27177e-14
2.5504e-16
2.51343e-18
2.15734e-20
1.62853e-22
1.12674e-24
7.12794e-27
4.26819e-29
2.35078e-31
1.19019e-33
5.46786e-36
2.49538e-38
1.0135e-40
4.04943e-43
1.49471e-45
5.36976e-48
1.85323e-50
6.44821e-53
2.25995e-55
8.34824e-58
3.17166e-60
1.17537e-62
4.26694e-65
1.56114e-67
5.65546e-70
1.95318e-72
6.27913e-75
1.87891e-77
5.28399e-80
1.4082e-82
3.57959e-85
8.72531e-88
2.04844e-90
4.64575e-93
1.01965e-95
2.16814e-98
4.46991e-101
8.94701e-104
1.73234e-106
3.35393e-109
6.46323e-112
1.18326e-114
2.09111e-117
3.63355e-120
6.18206e-123
1.02916e-125
1.67559e-128
2.66609e-131
4.14581e-134
6.30785e-137
9.40477e-140
1.37568e-142
1.97527e-145
2.78637e-148
3.86584e-151
5.28102e-154
7.1041e-157
9.39806e-160
1.22228e-162
1.56297e-165
1.9649e-168
2.42794e-171
2.92988e-174
4.36538e-178
6.13614e-182
8.0905e-186
9.94221e-190
1.14094e-193
1.24181e-197
1.31538e-201
1.34752e-205
1.67168e-209
2.53538e-213
3.371e-217
3.97457e-221
4.97287e-225
6.33473e-229
8.1611e-233
1.05725e-236
1.36613e-240
1.75169e-244
2.23247e-248
2.83796e-252
3.60337e-256
4.55581e-260
5.74241e-264
7.24588e-268
9.1999e-272
1.17414e-275
1.49015e-279
1.87838e-283
2.3593e-287
2.9568e-291
3.69319e-295
4.57878e-299
5.64578e-303
6.95263e-307
8.55853e-311
1.0461e-314
1.25805e-318
1.4822e-322
0
0
0
0
0
0
0
0
0
0
0
0
0
0
0
0
0
0
0
0
0
0
0
0
0
0
0
0
0
0
0
0
0
0
0
0
0
0
0
0
0
0
0
0
0
0
0
0
0
0
0
0
0
0
0
0
0
0
0
0
0
0
0
0
0
0
0
0
0
0
0
0
0
0
0
0
0
0
0
0
0
0
0
0
0
0
0
0
0
0
0
0
0
0
0
0
0
0
0
0
0
0
0
0
0
0
0
0
0
0
0
0
0
0
0
0
0
0
0
0
0
0
0
0
0
0
0
0
0
0
0
0
0
0
0
0
0
0
0
0
0
0
0
0
0
0
0
0
0
0
0
0
0
0
0
0
0
0
0
0
0
0
0
0
0
0
0
0
0
0
0
0
0
0
0
0
0
0
0
0
0
0
0
0
0
0
0
0
0
0
0
0
0
0
0
0
0
0
0
0
0
0
0
0
0
0
0
0
0
0
0
0
0
0
0
0
0
0
0
0
0
0
0
0
0
0
0
0
0
0
0
0
0
0
0
0
0
0
0
0
0
0
0
0
0
0
0
0
0
0
0
0
0
0
0
0
0
0
0
0
0
0
0
0
0
0
0
0
0
0
0
0
0
0
0
0
0
0
0
0
0
0
0
0
0
0
0
0
0
0
0
0
1.34318e-07
6.43273e-08
2.99382e-10
5.04052e-11
8.61896e-12
6.87828e-13
7.13897e-15
8.84504e-17
9.87992e-19
9.52829e-21
8.08083e-23
6.13354e-25
4.17918e-27
2.60625e-29
1.50293e-31
7.75454e-34
3.80839e-36
1.67776e-38
7.31511e-41
2.83459e-43
1.09358e-45
3.91001e-48
1.36349e-50
4.69092e-53
1.61936e-55
5.8538e-58
2.24533e-60
9.03095e-63
3.53189e-65
1.34092e-67
5.0568e-70
1.88412e-72
6.66312e-75
2.17599e-77
6.56485e-80
1.8507e-82
4.92264e-85
1.2451e-87
3.0148e-90
7.02284e-93
1.57922e-95
3.4366e-98
7.25338e-101
1.48766e-103
2.96927e-106
5.74042e-109
1.10065e-111
2.08848e-114
3.79549e-117
6.69837e-120
1.16144e-122
1.96815e-125
3.25759e-128
5.26589e-131
8.31286e-134
1.2818e-136
1.93158e-139
2.84734e-142
4.11047e-145
5.81812e-148
8.08422e-151
1.10404e-153
1.48497e-156
1.97036e-159
2.57976e-162
3.33355e-165
4.24971e-168
5.33968e-171
6.60254e-174
3.21006e-177
2.57907e-181
3.41504e-185
5.01806e-189
7.0959e-193
9.54374e-197
1.23881e-200
1.58109e-204
1.95548e-208
2.69101e-212
4.24704e-216
6.30762e-220
9.11277e-224
1.41117e-227
2.23748e-231
3.5987e-235
5.8353e-239
9.47136e-243
1.52632e-246
2.42528e-250
3.78309e-254
5.78397e-258
8.66742e-262
1.27332e-265
1.83505e-269
2.61145e-273
3.6968e-277
5.21975e-281
7.39744e-285
1.05815e-288
1.52869e-292
2.23236e-296
3.28922e-300
4.85702e-304
7.1256e-308
1.0321e-311
1.47288e-315
2.07626e-319
2.96439e-323
0
0
0
0
0
0
0
0
0
0
0
0
0
0
0
0
0
0
0
0
0
0
0
0
0
0
0
0
0
0
0
0
0
0
0
0
0
0
0
0
0
0
0
0
0
0
0
0
0
0
0
0
0
0
0
0
0
0
0
0
0
0
0
0
0
0
0
0
0
0
0
0
0
0
0
0
0
0
0
0
0
0
0
0
0
0
0
0
0
0
0
0
0
0
0
0
0
0
0
0
0
0
0
0
0
0
0
0
0
0
0
0
0
0
0
0
0
0
0
0
0
0
0
0
0
0
0
0
0
0
0
0
0
0
0
0
0
0
0
0
0
0
0
0
0
0
0
0
0
0
0
0
0
0
0
0
0
0
0
0
0
0
0
0
0
0
0
0
0
0
0
0
0
0
0
0
0
0
0
0
0
0
0
0
0
0
0
0
0
0
0
0
0
0
0
0
0
0
0
0
0
0
0
0
0
0
0
0
0
0
0
0
0
0
0
0
0
0
0
0
0
0
0
0
0
0
0
0
0
0
0
0
0
0
0
0
0
0
0
0
0
0
0
0
0
0
0
0
0
0
0
0
0
0
0
0
0
0
0
0
0
0
0
0
0
0
0
0
0
0
0
0
0
0
0
0
0
0
0
0
0
0
0
0
0
0
0
0
0
0
0
0
4.24443e-09
9.62744e-10
1.11474e-11
1.22837e-12
3.05645e-14
1.22477e-15
1.76007e-17
2.16597e-19
2.3344e-21
2.16643e-23
1.73274e-25
1.23467e-27
7.98292e-30
4.62237e-32
2.50818e-34
1.24977e-36
5.72262e-39
2.47983e-41
9.99233e-44
3.83823e-46
1.39595e-48
4.88381e-51
1.67934e-53
5.69475e-56
2.03943e-58
7.45843e-61
3.03252e-63
1.26734e-65
5.28017e-68
2.0891e-70
8.0351e-73
2.99761e-75
1.0533e-77
3.39476e-80
1.0062e-82
2.78516e-85
7.27295e-88
1.80436e-90
4.28066e-93
9.76547e-96
2.15144e-98
4.59196e-101
9.51839e-104
1.91999e-106
3.778e-109
7.18961e-112
1.35845e-114
2.53739e-117
4.54022e-120
7.93304e-123
1.36041e-125
2.27654e-128
3.71655e-131
5.91588e-134
9.18425e-137
1.39197e-139
2.06129e-142
2.98615e-145
4.23814e-148
5.89546e-151
8.04233e-154
1.0777e-156
1.42276e-159
1.85428e-162
2.38775e-165
3.04198e-168
3.83569e-171
4.77921e-174
4.85752e-177
6.43103e-181
7.9829e-185
1.07717e-188
1.59939e-192
2.47127e-196
3.79331e-200
5.70282e-204
8.50792e-208
1.23067e-211
1.91878e-215
3.34214e-219
5.61657e-223
9.49786e-227
1.71594e-230
3.1588e-234
5.87511e-238
1.08865e-241
1.98799e-245
3.5555e-249
6.19061e-253
1.04664e-256
1.71943e-260
2.73629e-264
4.20767e-268
6.27883e-272
9.18404e-276
1.32914e-279
1.91147e-283
2.75667e-287
4.03148e-291
6.00615e-295
9.05375e-299
1.36916e-302
2.07464e-306
3.14773e-310
4.77306e-314
7.22451e-318
1.08694e-321
0
0
0
0
0
0
0
0
0
0
0
0
0
0
0
0
0
0
0
0
0
0
0
0
0
0
0
0
0
0
0
0
0
0
0
0
0
0
0
0
0
0
0
0
0
0
0
0
0
0
0
0
0
0
0
0
0
0
0
0
0
0
0
0
0
0
0
0
0
0
0
0
0
0
0
0
0
0
0
0
0
0
0
0
0
0
0
0
0
0
0
0
0
0
0
0
0
0
0
0
0
0
0
0
0
0
0
0
0
0
0
0
0
0
0
0
0
0
0
0
0
0
0
0
0
0
0
0
0
0
0
0
0
0
0
0
0
0
0
0
0
0
0
0
0
0
0
0
0
0
0
0
0
0
0
0
0
0
0
0
0
0
0
0
0
0
0
0
0
0
0
0
0
0
0
0
0
0
0
0
0
0
0
0
0
0
0
0
0
0
0
0
0
0
0
0
0
0
0
0
0
0
0
0
0
0
0
0
0
0
0
0
0
0
0
0
0
0
0
0
0
0
0
0
0
0
0
0
0
0
0
0
0
0
0
0
0
0
0
0
0
0
0
0
0
0
0
0
0
0
0
0
0
0
0
0
0
0
0
0
0
0
0
0
0
0
0
0
0
0
0
0
0
0
0
0
0
0
0
0
0
0
0
0
0
0
0
0
0
0
0
0
0
3.29491e-12
2.68958e-12
6.45029e-13
1.83097e-14
2.85698e-16
5.85532e-18
8.43153e-20
1.04235e-21
1.07089e-23
9.36484e-26
7.23341e-28
4.89229e-30
3.03602e-32
1.67933e-34
8.65172e-37
4.09837e-39
1.80922e-41
7.46913e-44
2.90264e-46
1.07547e-48
3.80002e-51
1.30337e-53
4.42732e-56
1.52767e-58
5.54743e-61
2.12661e-63
8.96423e-66
3.94012e-68
1.70362e-70
6.93641e-73
2.76856e-75
1.08015e-77
3.9453e-80
1.29125e-82
3.82676e-85
1.05804e-87
2.76139e-90
6.83456e-93
1.61312e-95
3.65202e-98
7.96566e-101
1.68016e-103
3.43848e-106
6.85071e-109
1.3347e-111
2.50873e-114
4.66498e-117
8.59477e-120
1.51398e-122
2.60593e-125
4.41838e-128
7.31444e-131
1.18428e-133
1.875e-136
2.90188e-139
4.38713e-142
6.47541e-145
9.3381e-148
1.31642e-150
1.81255e-153
2.44056e-156
3.21956e-159
4.17086e-162
5.3333e-165
6.77237e-168
8.5649e-171
1.07632e-173
1.2898e-176
3.3637e-180
7.26716e-184
1.42158e-187
2.69565e-191
5.14915e-195
1.00327e-198
1.98899e-202
3.995e-206
8.16851e-210
1.62085e-213
3.30934e-217
7.22877e-221
1.48113e-224
2.95978e-228
6.08908e-232
1.23401e-235
2.49411e-239
5.04557e-243
1.01922e-246
2.04044e-250
4.01232e-254
7.71258e-258
1.4413e-261
2.5875e-265
4.44295e-269
7.31079e-273
1.1579e-276
1.79951e-280
2.82307e-284
4.5604e-288
7.59401e-292
1.2952e-295
2.23257e-299
3.82685e-303
6.4904e-307
1.08666e-310
1.78531e-314
2.86772e-318
4.496e-322
0
0
0
0
0
0
0
0
0
0
0
0
0
0
0
0
0
0
0
0
0
0
0
0
0
0
0
0
0
0
0
0
0
0
0
0
0
0
0
0
0
0
0
0
0
0
0
0
0
0
0
0
0
0
0
0
0
0
0
0
0
0
0
0
0
0
0
0
0
0
0
0
0
0
0
0
0
0
0
0
0
0
0
0
0
0
0
0
0
0
0
0
0
0
0
0
0
0
0
0
0
0
0
0
0
0
0
0
0
0
0
0
0
0
0
0
0
0
0
0
0
0
0
0
0
0
0
0
0
0
0
0
0
0
0
0
0
0
0
0
0
0
0
0
0
0
0
0
0
0
0
0
0
0
0
0
0
0
0
0
0
0
0
0
0
0
0
0
0
0
0
0
0
0
0
0
0
0
0
0
0
0
0
0
0
0
0
0
0
0
0
0
0
0
0
0
0
0
0
0
0
0
0
0
0
0
0
0
0
0
0
0
0
0
0
0
0
0
0
0
0
0
0
0
0
0
0
0
0
0
0
0
0
0
0
0
0
0
0
0
0
0
0
0
0
0
0
0
0
0
0
0
0
0
0
0
0
0
0
0
0
0
0
0
0
0
0
0
0
0
0
0
0
0
0
0
0
0
0
0
0
0
0
0
0
0
0
0
0
0
0
0
0
1.18483e-13
9.24243e-14
1.31606e-14
2.60691e-16
3.93303e-18
5.76288e-20
7.34435e-22
8.17322e-24
7.74835e-26
6.43704e-28
4.66123e-30
3.02171e-32
1.77874e-34
9.47182e-37
4.66921e-39
2.12543e-41
9.06476e-44
3.61849e-46
1.36884e-48
4.9373e-51
1.72089e-53
5.84541e-56
2.00204e-58
7.02836e-61
2.62824e-63
1.04806e-65
4.58943e-68
2.08682e-70
9.18368e-73
3.88301e-75
1.61775e-77
6.57847e-80
2.45378e-82
8.03029e-85
2.36005e-87
6.42491e-90
1.64513e-92
3.99875e-95
9.29203e-98
2.07501e-100
4.47111e-103
9.32542e-106
1.88779e-108
3.71729e-111
7.13771e-114
1.33122e-116
2.43582e-119
4.36217e-122
7.5931e-125
1.29527e-127
2.16158e-130
3.53074e-133
5.64424e-136
8.82948e-139
1.35164e-141
2.02492e-144
2.96927e-147
4.26393e-150
5.99877e-153
8.27071e-156
1.11864e-158
1.4854e-161
1.93861e-164
2.49111e-167
3.15772e-170
3.95285e-173
4.84137e-176
1.48276e-179
4.04914e-183
9.86049e-187
2.22217e-190
4.83443e-194
1.04807e-197
2.29592e-201
5.07452e-205
1.12274e-208
2.4714e-212
5.36497e-216
1.15659e-219
2.47786e-223
5.24161e-227
1.10004e-230
2.28856e-234
4.72096e-238
9.66105e-242
1.96158e-245
3.94943e-249
7.8745e-253
1.55198e-256
3.01846e-260
5.78345e-264
1.08998e-267
2.01962e-271
3.67945e-275
6.5966e-279
1.16572e-282
2.03483e-286
3.51548e-290
6.01992e-294
1.02277e-297
1.72448e-301
2.8851e-305
4.78797e-309
7.87834e-313
1.28464e-316
2.07508e-320
4.94066e-324
0
0
0
0
0
0
0
0
0
0
0
0
0
0
0
0
0
0
0
0
0
0
0
0
0
0
0
0
0
0
0
0
0
0
0
0
0
0
0
0
0
0
0
0
0
0
0
0
0
0
0
0
0
0
0
0
0
0
0
0
0
0
0
0
0
0
0
0
0
0
0
0
0
0
0
0
0
0
0
0
0
0
0
0
0
0
0
0
0
0
0
0
0
0
0
0
0
0
0
0
0
0
0
0
0
0
0
0
0
0
0
0
0
0
0
0
0
0
0
0
0
0
0
0
0
0
0
0
0
0
0
0
0
0
0
0
0
0
0
0
0
0
0
0
0
0
0
0
0
0
0
0
0
0
0
0
0
0
0
0
0
0
0
0
0
0
0
0
0
0
0
0
0
0
0
0
0
0
0
0
0
0
0
0
0
0
0
0
0
0
0
0
0
0
0
0
0
0
0
0
0
0
0
0
0
0
0
0
0
0
0
0
0
0
0
0
0
0
0
0
0
0
0
0
0
0
0
0
0
0
0
0
0
0
0
0
0
0
0
0
0
0
0
0
0
0
0
0
0
0
0
0
0
0
0
0
0
0
0
0
0
0
0
0
0
0
0
0
0
0
0
0
0
0
0
0
0
0
0
0
0
0
0
0
0
0
0
0
0
0
0
0
0
1.97452e-15
1.66944e-15
2.12372e-16
3.68535e-18
5.0169e-20
6.02244e-22
6.54219e-24
6.41253e-26
5.54868e-28
4.3073e-30
2.93741e-32
1.81328e-34
1.02405e-36
5.22856e-39
2.49566e-41
1.09425e-43
4.54715e-46
1.76296e-48
6.55067e-51
2.32077e-53
8.04065e-56
2.73183e-58
9.54451e-61
3.38078e-63
1.3116e-65
5.24828e-68
2.2967e-70
9.99654e-73
4.23685e-75
1.725e-77
6.8445e-80
2.57577e-82
8.73777e-85
2.64361e-87
7.33772e-90
1.90554e-92
4.68508e-95
1.09925e-97
2.4753e-100
5.3727e-103
1.12779e-105
2.29555e-108
4.54021e-111
8.74121e-114
1.64103e-116
3.00147e-119
5.36876e-122
9.39833e-125
1.60595e-127
2.68548e-130
4.39642e-133
7.04635e-136
1.10551e-138
1.69792e-141
2.55344e-144
3.76103e-147
5.42724e-150
7.6758e-153
1.06452e-155
1.4484e-158
1.93486e-161
2.53946e-164
3.27726e-167
4.16322e-170
5.21211e-173
6.38604e-176
8.39609e-180
2.10703e-183
5.25783e-187
1.21232e-190
2.67681e-194
5.86427e-198
1.29625e-201
2.88884e-205
6.43696e-209
1.42348e-212
3.1162e-216
6.71789e-220
1.43737e-223
3.05797e-227
6.42678e-231
1.3393e-234
2.76713e-238
5.66927e-242
1.15195e-245
2.32064e-249
4.63079e-253
9.13971e-257
1.78107e-260
3.42181e-264
6.47321e-268
1.20465e-271
2.20516e-275
3.97196e-279
7.04598e-283
1.23299e-286
2.1328e-290
3.65357e-294
6.20576e-298
1.04589e-301
1.7491e-305
2.9017e-309
4.77367e-313
7.78462e-317
1.25789e-320
0
0
0
0
0
0
0
0
0
0
0
0
0
0
0
0