/*--------------------------------*- C++ -*----------------------------------*\
| =========                 |                                                 |
| \\      /  F ield         | OpenFOAM: The Open Source CFD Toolbox           |
|  \\    /   O peration     | Version:  2.1.1                                 |
|   \\  /    A nd           | Web:      www.OpenFOAM.org                      |
|    \\/     M anipulation  |                                                 |
\*---------------------------------------------------------------------------*/
FoamFile
{
    version     2.0;
    format      ascii;
    class       volScalarField;
    location    "0.000250000";
    object      mut;
}
// * * * * * * * * * * * * * * * * * * * * * * * * * * * * * * * * * * * * * //

dimensions      [1 -1 -1 0 0 0 0];

internalField   nonuniform List<scalar> 
12384
(
1.67899e-05
9.13182e-06
6.26222e-06
4.73462e-06
4.05945e-06
3.75792e-06
4.44755e-06
7.59613e-06
1.57038e-05
2.7373e-05
4.19206e-05
2.52269e-05
1.98088e-05
2.51859e-05
0.00013842
0.0001386
0.000138579
0.000138462
0.000138475
0.000138498
0.00013846
0.000138478
0.000138478
0.000138488
0.000138496
0.000138498
0.000138498
0.000138496
0.000138496
0.000138495
0.000138495
0.000138495
0.000138494
0.000138494
0.000138494
0.000138495
0.000138495
0.000138494
0.000138494
0.000138493
0.000138492
0.000138492
0.000138491
0.000138489
0.000138489
0.000138491
0.000138492
0.000138492
0.000138493
0.000138494
0.000138494
0.000138495
0.000138495
0.000138494
0.000138494
0.000138494
0.000138494
0.000138495
0.000138495
0.000138495
0.000138495
0.000138494
0.000138494
0.000138494
0.000138494
0.000138495
0.000138495
0.000138494
0.000138494
0.000138493
0.000138492
0.000138492
0.000138491
0.000138489
0.000138489
0.000138491
0.000138492
0.000138492
0.000138493
0.000138494
0.000138494
0.000138495
0.000138495
0.000138494
0.000138494
0.000138494
0.000138494
0.000138495
0.000138495
0.000138495
0.000138495
0.000138494
0.000138494
0.000138494
0.000138494
0.000138495
0.000138495
0.000138494
0.000138494
0.000138493
0.000138492
0.000138492
0.000138491
0.000138489
0.000138489
0.000138491
0.000138492
0.000138492
0.000138493
0.000138494
0.000138494
0.000138495
0.000138495
0.000138494
0.000138494
0.000138494
0.000138494
0.000138495
0.000138495
0.000138495
0.000138495
0.000138494
0.000138494
0.000138494
0.000138494
0.000138495
0.000138495
0.000138494
0.000138494
0.000138493
0.000138492
0.000138492
0.000138491
0.000138489
0.000138489
0.000138491
0.000138492
0.000138492
0.000138493
0.000138494
0.000138494
0.000138495
0.000138495
0.000138494
0.000138494
0.000138494
0.000138494
0.000138495
0.000138495
0.000138495
0.000138495
0.000138494
0.000138494
0.000138494
0.000138494
0.000138495
0.000138495
0.000138494
0.000138494
0.000138493
0.000138492
0.000138492
0.000138491
0.000138489
0.000138489
0.000138491
0.000138492
0.000138492
0.000138493
0.000138494
0.000138494
0.000138495
0.000138495
0.000138494
0.000138494
0.000138494
0.000138494
0.000138495
0.000138495
0.000138495
0.000138495
0.000138494
0.000138494
0.000138494
0.000138494
0.000138495
0.000138495
0.000138494
0.000138494
0.000138493
0.000138492
0.000138492
0.000138491
0.000138489
0.000138489
0.000138491
0.000138492
0.000138492
0.000138493
0.000138494
0.000138494
0.000138495
0.000138495
0.000138494
0.000138494
0.000138494
0.000138494
0.000138495
0.000138495
0.000138495
0.000138495
0.000138494
0.000138494
0.000138494
0.000138494
0.000138495
0.000138495
0.000138494
0.000138494
0.000138493
0.000138492
0.000138492
0.000138491
0.000138489
0.000138489
0.000138491
0.000138492
0.000138492
0.000138493
0.000138494
0.000138494
0.000138495
0.000138495
0.000138494
0.000138494
0.000138494
0.000138494
0.000138495
0.000138495
0.000138495
0.000138495
0.000138494
0.000138494
0.000138494
0.000138494
0.000138495
0.000138495
0.000138494
0.000138494
0.000138493
0.000138492
0.000138492
0.000138491
0.000138489
0.000138489
0.000138491
0.000138492
0.000138492
0.000138493
0.000138494
0.000138494
0.000138495
0.000138495
0.000138494
0.000138494
0.000138494
0.000138494
0.000138495
0.000138495
0.000138495
0.000138495
0.000138494
0.000138494
0.000138494
0.000138494
0.000138495
0.000138495
0.000138494
0.000138494
0.000138493
0.000138492
0.000138492
0.000138491
0.000138489
0.000138489
0.000138491
0.000138492
0.000138492
0.000138493
0.000138494
0.000138494
0.000138495
0.000138495
0.000138494
0.000138494
0.000138494
0.000138494
0.000138495
0.000138495
0.000138495
0.000138495
0.000138494
0.000138494
0.000138494
0.000138494
0.000138495
0.000138495
0.000138494
0.000138494
0.000138493
0.000138492
0.000138492
0.000138491
0.000138489
0.000138489
0.000138491
0.000138492
0.000138492
0.000138493
0.000138494
0.000138494
0.000138495
0.000138495
0.000138494
0.000138494
0.000138494
0.000138494
0.000138495
0.000138495
0.000138495
0.000138495
0.000138494
0.000138494
0.000138494
0.000138494
0.000138495
0.000138495
0.000138494
0.000138494
0.000138493
0.000138492
0.000138492
0.000138491
0.000138489
0.000138489
0.000138491
0.000138492
0.000138492
0.000138493
0.000138494
0.000138494
0.000138495
0.000138494
0.000138494
0.000138494
0.000138494
0.000138494
0.000138495
0.000138495
0.000138496
0.000138495
0.000138495
0.000138495
0.000138495
0.000138495
0.000138495
0.000138495
0.000138494
0.000138494
0.000138493
0.000138493
0.000138492
0.000138491
0.000138489
2.22195e-05
1.3301e-05
8.35958e-06
6.07539e-06
5.10236e-06
4.7867e-06
5.54623e-06
7.90405e-06
1.25714e-05
1.80488e-05
2.02341e-05
1.45015e-05
1.45346e-05
1.99952e-05
5.4285e-05
5.56529e-05
7.12766e-05
0.000110046
0.000184097
0.000312989
0.000710506
0.00139401
0.00139452
0.00139468
0.00122444
0.000873728
0.000829773
0.000847794
0.000900194
0.000931555
0.000947257
0.000946681
0.000948114
0.000946276
0.000946722
0.000932479
0.000904361
0.000868367
0.00082932
0.000805408
0.000791183
0.000782528
0.000772045
0.000138615
0.000138615
0.000772045
0.000782536
0.000791164
0.000805398
0.000829224
0.000868124
0.000903662
0.00093129
0.000946446
0.000948658
0.000951549
0.000944961
0.000942849
0.000947767
0.00094778
0.000942851
0.000944951
0.00095156
0.000948647
0.000946457
0.000931236
0.000903596
0.000868088
0.000829307
0.000805399
0.000791132
0.000782497
0.000772021
0.000138615
0.000138615
0.000772031
0.000782521
0.000791138
0.000805396
0.000829295
0.000868071
0.000903627
0.000931249
0.000946473
0.000948652
0.000951555
0.000944968
0.000942854
0.00094776
0.000947755
0.000942846
0.000944985
0.000951572
0.000948578
0.000946532
0.000931067
0.000903584
0.000868307
0.00082928
0.000805485
0.000791037
0.000782394
0.000771956
0.000138615
0.000138615
0.000772028
0.000782521
0.000791136
0.000805397
0.000829305
0.000868084
0.000903667
0.000931214
0.000946528
0.000948615
0.000951554
0.00094495
0.000942861
0.000947804
0.000947817
0.000942864
0.000944937
0.000951532
0.000948584
0.000946562
0.000931137
0.000903641
0.000868069
0.00082934
0.000805435
0.000791084
0.000782483
0.000771997
0.000138615
0.000138615
0.000772044
0.000782531
0.000791165
0.000805395
0.000829239
0.000868117
0.000903654
0.000931278
0.000946461
0.000948624
0.000951537
0.000944946
0.00094285
0.000947789
0.000947771
0.000942843
0.000944979
0.000951565
0.000948641
0.000946478
0.00093119
0.000903584
0.000868093
0.000829327
0.000805417
0.000791107
0.000782472
0.000772004
0.000138615
0.000138615
0.000771971
0.000782453
0.000791044
0.000805482
0.000829319
0.000868124
0.000903639
0.000931083
0.000946585
0.000948556
0.000951526
0.000944941
0.000942872
0.000947806
0.000947786
0.000942853
0.000944959
0.000951562
0.000948635
0.000946453
0.000931286
0.000903666
0.000868127
0.000829217
0.000805398
0.000791167
0.000782535
0.000772046
0.000138615
0.000138615
0.000771882
0.00078235
0.000790891
0.000805464
0.000829329
0.000868736
0.000903643
0.000930864
0.000946682
0.000948442
0.000951526
0.000944969
0.000942869
0.000947784
0.000947774
0.000942825
0.000944978
0.000951585
0.000948615
0.000946492
0.000931121
0.000903567
0.000868188
0.000829295
0.00080547
0.000791059
0.000782421
0.000771973
0.000138615
0.000138615
0.000771936
0.000782415
0.000790992
0.000805523
0.000829285
0.000868288
0.000903639
0.000931
0.000946617
0.000948516
0.00095152
0.000944953
0.000942868
0.000947791
0.000947769
0.000942841
0.000944991
0.000951563
0.000948589
0.000946507
0.00093106
0.000903552
0.000868358
0.00082927
0.000805484
0.000791019
0.000782382
0.00077195
0.000138615
0.000138615
0.00077192
0.000782333
0.000790975
0.000805454
0.000829292
0.000868663
0.000903611
0.000930961
0.000946595
0.000948491
0.000951523
0.000944976
0.000942847
0.00094778
0.000947785
0.000942843
0.000944942
0.000951527
0.000948618
0.000946462
0.00093128
0.000903665
0.000868123
0.000829222
0.000805399
0.000791165
0.000782533
0.000772046
0.000138615
0.000138615
0.000771868
0.000782335
0.00079086
0.000805423
0.000829358
0.000868851
0.000903618
0.000930838
0.000946678
0.000948439
0.000951524
0.000944979
0.000942862
0.000947771
0.000947761
0.000942844
0.000944974
0.000951555
0.000948648
0.000946475
0.000931224
0.000903605
0.000868089
0.000829317
0.000805399
0.000791128
0.000782494
0.000772018
0.000138615
0.000138615
0.000771903
0.000782374
0.000790935
0.000805497
0.000829285
0.000868509
0.000903624
0.000930934
0.000946634
0.0009485
0.000951541
0.000944991
0.000942856
0.000947767
0.000947767
0.000942839
0.000944972
0.000951597
0.000948567
0.000946558
0.000930983
0.000903571
0.000868373
0.000829274
0.000805494
0.000790958
0.000782392
0.000771917
0.000138615
0.000138615
0.000771819
0.00078228
0.000790818
0.000805531
0.000829838
0.000869206
0.000902041
0.000927576
0.000943338
0.000948369
0.000951891
0.000941945
0.000930551
0.000931458
0.000939148
0.000943983
0.000941787
0.000955202
0.000969199
0.000961546
0.000945566
0.000919136
0.000881828
0.000836291
0.000807984
0.00079421
0.00078518
0.000773727
0.000138614
2.94735e-05
3.66214e-05
4.03898e-05
2.48981e-05
1.64e-05
1.17902e-05
1.19858e-05
1.37204e-05
1.64114e-05
1.83633e-05
1.9939e-05
1.8615e-05
1.77862e-05
2.27422e-05
3.29342e-05
3.66943e-05
4.57438e-05
6.50161e-05
0.000111639
0.000215956
0.00049449
0.00119067
0.0012061
0.000984265
0.00114385
0.0013464
0.00111577
0.0010936
0.00112531
0.00115953
0.00116318
0.00115281
0.00114614
0.00116306
0.00115294
0.00112512
0.00109844
0.00105915
0.000994897
0.00093401
0.000892609
0.000862007
0.00083915
0.000180565
0.000180565
0.000839167
0.000861995
0.000892468
0.00093381
0.000994723
0.00105916
0.00109896
0.00112675
0.00115393
0.00115933
0.00113956
0.00114299
0.0011618
0.0011846
0.00118461
0.00116177
0.001143
0.00113955
0.00115937
0.001154
0.00112668
0.00109905
0.00105906
0.000994803
0.000933823
0.000892448
0.000861959
0.000839172
0.000180565
0.000180565
0.00083918
0.000861958
0.000892444
0.000933826
0.000994727
0.00105917
0.00109894
0.00112676
0.00115396
0.00115932
0.00113956
0.001143
0.0011618
0.0011846
0.00118461
0.00116179
0.00114302
0.0011397
0.00115939
0.00115429
0.0011268
0.00109914
0.00105892
0.00099531
0.000933903
0.000892355
0.000861847
0.000839191
0.000180565
0.000180565
0.000839171
0.000861984
0.000892457
0.000933808
0.000994713
0.0010592
0.00109897
0.00112679
0.00115399
0.00115933
0.00113954
0.00114303
0.00116178
0.00118462
0.00118461
0.00116176
0.00114306
0.00113956
0.00115936
0.00115406
0.00112686
0.00109896
0.00105918
0.000994783
0.000933849
0.000892427
0.000861919
0.000839188
0.000180565
0.000180565
0.000839165
0.000862006
0.000892473
0.000933801
0.000994732
0.00105916
0.00109898
0.00112672
0.00115393
0.00115934
0.00113954
0.00114301
0.00116177
0.0011846
0.0011846
0.0011618
0.00114299
0.00113962
0.00115937
0.00115406
0.00112669
0.00109909
0.001059
0.000994858
0.000933838
0.000892435
0.000861931
0.000839175
0.000180565
0.000180565
0.0008392
0.000861871
0.000892392
0.000933881
0.000994924
0.0010592
0.00109895
0.00112694
0.00115412
0.00115937
0.0011396
0.00114307
0.00116176
0.0011846
0.00118461
0.00116179
0.00114299
0.00113954
0.00115933
0.00115393
0.00112673
0.00109897
0.00105916
0.000994725
0.000933802
0.000892471
0.000862001
0.000839172
0.000180565
0.000180565
0.000839251
0.000861693
0.000892227
0.000934108
0.000996049
0.00105948
0.0010985
0.0011273
0.00115447
0.00115939
0.00113971
0.00114306
0.00116174
0.00118459
0.0011846
0.00116177
0.001143
0.00113968
0.00115941
0.00115418
0.00112672
0.00109915
0.00105891
0.000995103
0.000933876
0.000892384
0.000861867
0.000839186
0.000180565
0.000180565
0.000839228
0.000861805
0.000892324
0.00093394
0.00099527
0.00105927
0.00109885
0.00112706
0.00115424
0.00115937
0.00113965
0.00114307
0.00116175
0.00118458
0.00118457
0.00116179
0.001143
0.00113971
0.00115941
0.00115429
0.00112678
0.0010991
0.00105888
0.000995478
0.000933936
0.000892325
0.000861801
0.000839203
0.000180565
0.000180565
0.000839205
0.000861775
0.000892277
0.000934001
0.000995931
0.00105901
0.00109897
0.00112697
0.00115456
0.00115938
0.00113976
0.00114302
0.00116177
0.00118456
0.00118458
0.00116177
0.00114302
0.00113953
0.00115934
0.00115392
0.00112673
0.00109896
0.00105915
0.000994722
0.000933807
0.000892468
0.000861997
0.000839173
0.000180565
0.000180565
0.000839262
0.000861639
0.00089219
0.000934189
0.000996304
0.00105951
0.00109838
0.00112733
0.00115451
0.0011594
0.00113972
0.00114305
0.00116175
0.00118459
0.00118457
0.00116179
0.00114299
0.0011396
0.00115935
0.00115402
0.00112669
0.00109906
0.00105906
0.000994803
0.000933824
0.000892446
0.000861956
0.000839172
0.000180565
0.000180565
0.000839241
0.000861742
0.000892266
0.000934019
0.00099569
0.00105939
0.00109866
0.00112715
0.00115434
0.00115939
0.00113971
0.00114303
0.00116178
0.00118461
0.00118458
0.00116178
0.001143
0.00113968
0.0011594
0.00115423
0.00112699
0.0010987
0.00105928
0.000995541
0.00093401
0.00089227
0.000861735
0.000839239
0.000180565
0.000180565
0.000839296
0.00086157
0.000892179
0.000934338
0.000996528
0.00105884
0.0010984
0.00113108
0.00116054
0.00116038
0.00113472
0.00112981
0.00114393
0.00116948
0.00117945
0.00116294
0.0011449
0.00114076
0.00115765
0.0011678
0.00114293
0.00110557
0.00106193
0.000999115
0.000936419
0.000896945
0.000869812
0.000845573
0.000180565
1.66534e-06
4.08933e-06
5.46772e-05
3.36235e-05
3.947e-05
3.06158e-05
2.65962e-05
2.63553e-05
2.66051e-05
2.26817e-05
1.60669e-05
1.20905e-05
1.32248e-05
2.17687e-05
2.0274e-05
2.16722e-05
2.60821e-05
3.28656e-05
4.91907e-05
9.14541e-05
0.000198959
0.000550639
0.00163338
0.000904777
0.000815702
0.00107572
0.00175134
0.0017514
0.00175141
0.0017514
0.0017514
0.0017514
0.0017514
0.0017514
0.0017514
0.0017514
0.00175139
0.00175139
0.00175138
0.00175137
0.00175137
0.00175134
0.00172818
0.000178632
0.000178632
0.00172818
0.00175134
0.00175137
0.00175137
0.00175138
0.00175139
0.00175139
0.0017514
0.0017514
0.0017514
0.0017514
0.0017514
0.0017514
0.0017514
0.0017514
0.0017514
0.0017514
0.0017514
0.0017514
0.0017514
0.0017514
0.00175139
0.00175139
0.00175138
0.00175137
0.00175137
0.00175134
0.00172818
0.000178632
0.000178632
0.00172818
0.00175134
0.00175137
0.00175137
0.00175138
0.00175139
0.00175139
0.0017514
0.0017514
0.0017514
0.0017514
0.0017514
0.0017514
0.0017514
0.0017514
0.0017514
0.0017514
0.0017514
0.0017514
0.0017514
0.0017514
0.00175139
0.00175139
0.00175138
0.00175137
0.00175137
0.00175134
0.00172818
0.000178632
0.000178632
0.00172818
0.00175134
0.00175137
0.00175137
0.00175138
0.00175139
0.00175139
0.0017514
0.0017514
0.0017514
0.0017514
0.0017514
0.0017514
0.0017514
0.0017514
0.0017514
0.0017514
0.0017514
0.0017514
0.0017514
0.0017514
0.00175139
0.00175139
0.00175138
0.00175137
0.00175137
0.00175134
0.00172818
0.000178632
0.000178632
0.00172818
0.00175134
0.00175137
0.00175137
0.00175138
0.00175139
0.00175139
0.0017514
0.0017514
0.0017514
0.0017514
0.0017514
0.0017514
0.0017514
0.0017514
0.0017514
0.0017514
0.0017514
0.0017514
0.0017514
0.0017514
0.00175139
0.00175139
0.00175138
0.00175137
0.00175137
0.00175134
0.00172818
0.000178632
0.000178632
0.00172818
0.00175134
0.00175137
0.00175137
0.00175138
0.00175139
0.00175139
0.0017514
0.0017514
0.0017514
0.0017514
0.0017514
0.0017514
0.0017514
0.0017514
0.0017514
0.0017514
0.0017514
0.0017514
0.0017514
0.0017514
0.00175139
0.00175139
0.00175138
0.00175137
0.00175137
0.00175134
0.00172818
0.000178632
0.000178632
0.00172818
0.00175134
0.00175137
0.00175137
0.00175138
0.00175138
0.00175139
0.0017514
0.0017514
0.0017514
0.0017514
0.0017514
0.0017514
0.0017514
0.0017514
0.0017514
0.0017514
0.0017514
0.0017514
0.0017514
0.0017514
0.00175139
0.00175139
0.00175138
0.00175137
0.00175137
0.00175134
0.00172818
0.000178632
0.000178632
0.00172818
0.00175134
0.00175137
0.00175137
0.00175138
0.00175138
0.00175139
0.0017514
0.0017514
0.0017514
0.0017514
0.0017514
0.0017514
0.0017514
0.0017514
0.0017514
0.0017514
0.0017514
0.0017514
0.0017514
0.0017514
0.00175139
0.00175139
0.00175138
0.00175137
0.00175137
0.00175134
0.00172818
0.000178632
0.000178632
0.00172818
0.00175134
0.00175137
0.00175137
0.00175138
0.00175139
0.00175139
0.0017514
0.0017514
0.0017514
0.0017514
0.0017514
0.0017514
0.0017514
0.0017514
0.0017514
0.0017514
0.0017514
0.0017514
0.0017514
0.0017514
0.00175139
0.00175139
0.00175138
0.00175137
0.00175137
0.00175134
0.00172818
0.000178632
0.000178632
0.00172818
0.00175134
0.00175137
0.00175137
0.00175138
0.00175138
0.00175139
0.0017514
0.0017514
0.0017514
0.0017514
0.0017514
0.0017514
0.0017514
0.0017514
0.0017514
0.0017514
0.0017514
0.0017514
0.0017514
0.0017514
0.00175139
0.00175139
0.00175138
0.00175137
0.00175137
0.00175134
0.00172818
0.000178632
0.000178632
0.00172818
0.00175134
0.00175137
0.00175137
0.00175138
0.00175138
0.00175139
0.0017514
0.0017514
0.0017514
0.0017514
0.0017514
0.0017514
0.0017514
0.0017514
0.0017514
0.0017514
0.0017514
0.0017514
0.0017514
0.0017514
0.00175139
0.00175138
0.00175138
0.00175137
0.00175137
0.00175134
0.00172818
0.000178632
0.000178632
0.00172818
0.00175134
0.00175137
0.00175137
0.00175138
0.00175138
0.00175139
0.0017514
0.0017514
0.0017514
0.0017514
0.0017514
0.0017514
0.0017514
0.0017514
0.0017514
0.0017514
0.0017514
0.0017514
0.0017514
0.0017514
0.00175139
0.00175139
0.00175138
0.00175137
0.00175137
0.00175134
0.00172812
0.000178631
2.09843e-06
2.29414e-06
3.75677e-06
3.96472e-05
6.27835e-05
6.21611e-05
4.80209e-05
4.50728e-05
4.14523e-05
3.15778e-05
1.32542e-05
9.06609e-06
1.07569e-05
1.681e-05
1.34636e-05
1.40399e-05
1.68234e-05
1.93883e-05
2.65091e-05
4.23339e-05
8.15693e-05
0.000185733
0.000564923
0.00128553
0.000906068
0.000953093
0.00164348
0.00170218
0.00170221
0.0017022
0.00170219
0.00170219
0.0017022
0.0017022
0.00170219
0.00170219
0.00170218
0.00170218
0.00170218
0.00170218
0.00170218
0.00170215
0.0016795
0.000172907
0.000172907
0.0016795
0.00170215
0.00170218
0.00170218
0.00170218
0.00170218
0.00170218
0.00170219
0.00170219
0.0017022
0.0017022
0.0017022
0.00170219
0.00170219
0.00170219
0.00170219
0.0017022
0.0017022
0.0017022
0.00170219
0.00170219
0.00170218
0.00170218
0.00170218
0.00170218
0.00170218
0.00170215
0.0016795
0.000172907
0.000172907
0.0016795
0.00170215
0.00170218
0.00170218
0.00170218
0.00170218
0.00170218
0.00170219
0.00170219
0.0017022
0.0017022
0.0017022
0.00170219
0.00170219
0.00170219
0.00170219
0.0017022
0.0017022
0.0017022
0.00170219
0.00170219
0.00170218
0.00170218
0.00170218
0.00170218
0.00170218
0.00170215
0.0016795
0.000172907
0.000172907
0.0016795
0.00170215
0.00170218
0.00170218
0.00170218
0.00170218
0.00170218
0.00170219
0.00170219
0.0017022
0.0017022
0.0017022
0.00170219
0.00170219
0.00170219
0.00170219
0.0017022
0.0017022
0.0017022
0.00170219
0.00170219
0.00170218
0.00170218
0.00170218
0.00170218
0.00170218
0.00170215
0.0016795
0.000172907
0.000172907
0.0016795
0.00170215
0.00170218
0.00170218
0.00170218
0.00170218
0.00170218
0.00170219
0.00170219
0.0017022
0.0017022
0.0017022
0.00170219
0.00170219
0.00170219
0.00170219
0.0017022
0.0017022
0.0017022
0.00170219
0.00170219
0.00170218
0.00170218
0.00170218
0.00170218
0.00170218
0.00170215
0.0016795
0.000172907
0.000172907
0.0016795
0.00170215
0.00170218
0.00170218
0.00170218
0.00170218
0.00170218
0.00170219
0.00170219
0.0017022
0.0017022
0.0017022
0.00170219
0.00170219
0.00170219
0.00170219
0.0017022
0.0017022
0.0017022
0.00170219
0.00170219
0.00170218
0.00170218
0.00170218
0.00170218
0.00170218
0.00170215
0.0016795
0.000172907
0.000172907
0.0016795
0.00170215
0.00170218
0.00170218
0.00170218
0.00170218
0.00170219
0.00170219
0.00170219
0.0017022
0.0017022
0.0017022
0.00170219
0.00170219
0.00170219
0.00170219
0.0017022
0.0017022
0.0017022
0.00170219
0.00170219
0.00170218
0.00170218
0.00170218
0.00170218
0.00170218
0.00170215
0.0016795
0.000172907
0.000172907
0.0016795
0.00170215
0.00170218
0.00170218
0.00170218
0.00170218
0.00170218
0.00170219
0.00170219
0.0017022
0.0017022
0.0017022
0.00170219
0.00170219
0.00170219
0.00170219
0.0017022
0.0017022
0.0017022
0.00170219
0.00170219
0.00170218
0.00170218
0.00170218
0.00170218
0.00170218
0.00170215
0.0016795
0.000172907
0.000172907
0.0016795
0.00170215
0.00170218
0.00170218
0.00170218
0.00170218
0.00170218
0.00170219
0.00170219
0.0017022
0.0017022
0.0017022
0.00170219
0.00170219
0.00170219
0.00170219
0.0017022
0.0017022
0.0017022
0.00170219
0.00170219
0.00170218
0.00170218
0.00170218
0.00170218
0.00170218
0.00170215
0.0016795
0.000172907
0.000172907
0.0016795
0.00170215
0.00170218
0.00170218
0.00170218
0.00170218
0.00170219
0.00170219
0.00170219
0.0017022
0.0017022
0.0017022
0.00170219
0.00170219
0.00170219
0.00170219
0.0017022
0.0017022
0.0017022
0.00170219
0.00170219
0.00170218
0.00170218
0.00170218
0.00170218
0.00170218
0.00170215
0.0016795
0.000172907
0.000172907
0.0016795
0.00170215
0.00170218
0.00170218
0.00170218
0.00170218
0.00170218
0.00170219
0.00170219
0.0017022
0.0017022
0.0017022
0.00170219
0.00170219
0.00170219
0.00170219
0.0017022
0.0017022
0.0017022
0.00170219
0.00170219
0.00170218
0.00170218
0.00170218
0.00170218
0.00170218
0.00170215
0.0016795
0.000172907
0.000172907
0.0016795
0.00170215
0.00170218
0.00170218
0.00170218
0.00170218
0.00170218
0.00170219
0.00170219
0.0017022
0.0017022
0.0017022
0.0017022
0.0017022
0.00170219
0.00170219
0.0017022
0.0017022
0.0017022
0.0017022
0.00170219
0.00170219
0.00170219
0.00170218
0.00170218
0.00170218
0.00170215
0.00167948
0.000172906
2.04937e-06
1.23609e-06
2.56718e-06
3.73638e-06
3.49612e-05
4.94501e-05
8.56577e-05
7.31482e-05
5.87641e-05
2.79009e-05
1.20067e-05
7.06887e-06
8.51009e-06
1.00165e-05
8.78083e-06
9.30046e-06
1.09292e-05
1.3087e-05
1.68483e-05
2.4155e-05
4.11582e-05
8.2464e-05
0.000221128
0.000802489
0.000833844
0.000708479
0.000863327
0.00163746
0.00165254
0.00165255
0.00165254
0.00165254
0.00165254
0.00165254
0.00165254
0.00165253
0.00165253
0.00165253
0.00165253
0.00165252
0.00165252
0.00165249
0.00163134
0.000167254
0.000167254
0.00163134
0.00165249
0.00165252
0.00165252
0.00165253
0.00165253
0.00165253
0.00165253
0.00165254
0.00165254
0.00165254
0.00165254
0.00165253
0.00165253
0.00165253
0.00165253
0.00165254
0.00165254
0.00165254
0.00165254
0.00165253
0.00165253
0.00165253
0.00165253
0.00165252
0.00165252
0.00165249
0.00163134
0.000167254
0.000167254
0.00163134
0.00165249
0.00165252
0.00165252
0.00165253
0.00165253
0.00165253
0.00165253
0.00165254
0.00165254
0.00165254
0.00165254
0.00165253
0.00165253
0.00165253
0.00165253
0.00165254
0.00165254
0.00165254
0.00165254
0.00165253
0.00165253
0.00165253
0.00165253
0.00165252
0.00165252
0.00165249
0.00163134
0.000167254
0.000167254
0.00163134
0.00165249
0.00165252
0.00165252
0.00165253
0.00165253
0.00165253
0.00165253
0.00165254
0.00165254
0.00165254
0.00165254
0.00165253
0.00165253
0.00165253
0.00165253
0.00165254
0.00165254
0.00165254
0.00165254
0.00165253
0.00165253
0.00165253
0.00165253
0.00165252
0.00165252
0.00165249
0.00163134
0.000167254
0.000167254
0.00163134
0.00165249
0.00165252
0.00165252
0.00165253
0.00165253
0.00165253
0.00165253
0.00165254
0.00165254
0.00165254
0.00165254
0.00165253
0.00165253
0.00165253
0.00165253
0.00165254
0.00165254
0.00165254
0.00165254
0.00165253
0.00165253
0.00165253
0.00165253
0.00165252
0.00165252
0.00165249
0.00163134
0.000167254
0.000167254
0.00163134
0.00165249
0.00165252
0.00165252
0.00165253
0.00165253
0.00165253
0.00165253
0.00165254
0.00165254
0.00165254
0.00165254
0.00165253
0.00165253
0.00165253
0.00165253
0.00165254
0.00165254
0.00165254
0.00165254
0.00165253
0.00165253
0.00165253
0.00165253
0.00165252
0.00165252
0.00165249
0.00163134
0.000167254
0.000167254
0.00163134
0.00165249
0.00165252
0.00165252
0.00165253
0.00165253
0.00165253
0.00165253
0.00165254
0.00165254
0.00165254
0.00165254
0.00165253
0.00165253
0.00165253
0.00165253
0.00165254
0.00165254
0.00165254
0.00165254
0.00165253
0.00165253
0.00165253
0.00165253
0.00165252
0.00165252
0.00165249
0.00163134
0.000167254
0.000167254
0.00163134
0.00165249
0.00165252
0.00165252
0.00165253
0.00165253
0.00165253
0.00165253
0.00165254
0.00165254
0.00165254
0.00165254
0.00165253
0.00165253
0.00165253
0.00165253
0.00165254
0.00165254
0.00165254
0.00165254
0.00165253
0.00165253
0.00165253
0.00165253
0.00165252
0.00165252
0.00165249
0.00163134
0.000167254
0.000167254
0.00163134
0.00165249
0.00165252
0.00165252
0.00165253
0.00165253
0.00165253
0.00165253
0.00165254
0.00165254
0.00165254
0.00165254
0.00165253
0.00165253
0.00165253
0.00165253
0.00165254
0.00165254
0.00165254
0.00165254
0.00165253
0.00165253
0.00165253
0.00165253
0.00165252
0.00165252
0.00165249
0.00163134
0.000167254
0.000167254
0.00163134
0.00165249
0.00165252
0.00165252
0.00165253
0.00165253
0.00165253
0.00165253
0.00165254
0.00165254
0.00165254
0.00165254
0.00165253
0.00165253
0.00165253
0.00165253
0.00165254
0.00165254
0.00165254
0.00165254
0.00165253
0.00165253
0.00165253
0.00165253
0.00165252
0.00165252
0.00165249
0.00163134
0.000167254
0.000167254
0.00163134
0.00165249
0.00165252
0.00165252
0.00165253
0.00165253
0.00165253
0.00165253
0.00165254
0.00165254
0.00165254
0.00165254
0.00165253
0.00165253
0.00165253
0.00165253
0.00165254
0.00165254
0.00165254
0.00165254
0.00165253
0.00165253
0.00165253
0.00165253
0.00165252
0.00165252
0.00165249
0.00163134
0.000167254
0.000167254
0.00163134
0.00165249
0.00165252
0.00165252
0.00165253
0.00165253
0.00165253
0.00165253
0.00165254
0.00165254
0.00165254
0.00165254
0.00165254
0.00165253
0.00165253
0.00165253
0.00165254
0.00165254
0.00165254
0.00165254
0.00165254
0.00165253
0.00165253
0.00165252
0.00165252
0.00165252
0.00165249
0.00163137
0.000167253
1.03665e-06
9.04822e-07
2.59791e-06
2.44309e-06
3.3816e-06
2.61105e-05
6.89757e-05
9.02857e-05
6.97263e-05
2.88134e-05
1.19637e-05
5.73742e-06
5.67248e-06
6.88333e-06
5.73959e-06
6.17151e-06
7.18123e-06
8.56466e-06
1.08297e-05
1.49401e-05
2.34167e-05
4.34123e-05
9.78332e-05
0.000333942
0.000746145
0.000663698
0.000649067
0.000926833
0.00155956
0.0015596
0.0015596
0.0015596
0.00155959
0.00155959
0.00155959
0.00155959
0.00155958
0.00155958
0.00155958
0.00155957
0.00155957
0.00155954
0.00153908
0.000156398
0.000156398
0.00153908
0.00155954
0.00155957
0.00155821
0.00155474
0.00155958
0.00155958
0.00155959
0.00155959
0.00155959
0.00155959
0.00155959
0.00155959
0.00155959
0.00155959
0.00155959
0.00155959
0.00155959
0.00155959
0.00155959
0.00155959
0.00155958
0.00155958
0.00155496
0.00155825
0.00155957
0.00155954
0.00153908
0.000156398
0.000156398
0.00153908
0.00155954
0.00155957
0.00155823
0.00155476
0.00155958
0.00155958
0.00155959
0.00155959
0.00155959
0.00155959
0.00155959
0.00155959
0.00155959
0.00155959
0.00155959
0.00155959
0.00155959
0.00155959
0.00155959
0.00155959
0.00155958
0.00155958
0.00155569
0.00155838
0.00155957
0.00155954
0.00153908
0.000156398
0.000156398
0.00153908
0.00155954
0.00155957
0.00155823
0.00155489
0.00155958
0.00155958
0.00155959
0.00155959
0.00155959
0.00155959
0.00155959
0.00155959
0.00155959
0.00155959
0.00155959
0.00155959
0.00155959
0.00155959
0.00155959
0.00155959
0.00155958
0.00155958
0.00155523
0.00155846
0.00155957
0.00155954
0.00153908
0.000156398
0.000156398
0.00153908
0.00155954
0.00155957
0.00155817
0.00155473
0.00155958
0.00155958
0.00155959
0.00155959
0.00155959
0.00155959
0.00155959
0.00155959
0.00155959
0.00155959
0.00155959
0.00155959
0.00155959
0.00155959
0.00155959
0.00155959
0.00155958
0.00155958
0.00155522
0.00155827
0.00155957
0.00155954
0.00153908
0.000156398
0.000156398
0.00153908
0.00155954
0.00155957
0.0015585
0.00155541
0.00155958
0.00155958
0.00155959
0.00155959
0.00155959
0.00155959
0.00155959
0.00155959
0.00155959
0.00155959
0.00155959
0.00155959
0.00155959
0.00155959
0.00155959
0.00155959
0.00155958
0.00155958
0.0015547
0.00155811
0.00155957
0.00155954
0.00153908
0.000156398
0.000156398
0.00153908
0.00155954
0.00155957
0.00155905
0.00155614
0.00155958
0.00155958
0.00155959
0.00155959
0.00155959
0.00155959
0.00155959
0.00155959
0.00155959
0.00155959
0.00155959
0.00155959
0.00155959
0.00155959
0.00155959
0.00155959
0.00155958
0.00155958
0.00155556
0.00155834
0.00155957
0.00155954
0.00153908
0.000156398
0.000156398
0.00153908
0.00155954
0.00155957
0.00155863
0.00155559
0.00155958
0.00155958
0.00155959
0.00155959
0.00155959
0.00155959
0.00155959
0.00155959
0.00155959
0.00155959
0.00155959
0.00155959
0.00155959
0.00155959
0.00155959
0.00155959
0.00155958
0.00155958
0.00155576
0.00155848
0.00155957
0.00155954
0.00153908
0.000156398
0.000156398
0.00153908
0.00155954
0.00155957
0.00155866
0.00155616
0.00155958
0.00155958
0.00155959
0.00155959
0.00155959
0.00155959
0.00155959
0.00155959
0.00155959
0.00155959
0.00155959
0.00155959
0.00155959
0.00155959
0.00155959
0.00155959
0.00155958
0.00155958
0.00155471
0.0015582
0.00155957
0.00155954
0.00153908
0.000156398
0.000156398
0.00153908
0.00155954
0.00155957
0.00155925
0.00155632
0.00155958
0.00155958
0.00155959
0.00155959
0.00155959
0.00155959
0.00155959
0.00155959
0.00155959
0.00155959
0.00155959
0.00155959
0.00155959
0.00155959
0.00155959
0.00155959
0.00155958
0.00155958
0.00155503
0.00155825
0.00155957
0.00155954
0.00153908
0.000156398
0.000156398
0.00153908
0.00155954
0.00155957
0.0015588
0.00155585
0.00155958
0.00155958
0.00155959
0.00155959
0.00155959
0.00155959
0.00155959
0.00155959
0.00155959
0.00155959
0.00155959
0.00155959
0.00155959
0.00155959
0.00155959
0.00155959
0.00155958
0.00155958