/*--------------------------------*- C++ -*----------------------------------*\
| =========                 |                                                 |
| \\      /  F ield         | OpenFOAM: The Open Source CFD Toolbox           |
|  \\    /   O peration     | Version:  2.1.1                                 |
|   \\  /    A nd           | Web:      www.OpenFOAM.org                      |
|    \\/     M anipulation  |                                                 |
\*---------------------------------------------------------------------------*/
FoamFile
{
    version     2.0;
    format      ascii;
    class       volScalarField;
    location    "0.003250000";
    object      rho;
}
// * * * * * * * * * * * * * * * * * * * * * * * * * * * * * * * * * * * * * //

dimensions      [1 -3 0 0 0 0 0];

internalField   nonuniform List<scalar> 
12384
(
0.654379
0.662469
0.670605
0.689542
0.704392
0.71957
0.728453
0.735548
0.72907
0.726541
0.689429
0.685742
0.669146
0.685586
0.936478
0.935053
0.906711
0.87839
0.853061
0.836231
0.837835
0.833259
0.827234
0.811762
0.750581
0.754474
0.723289
0.638933
0.667658
0.619709
0.638325
0.647032
0.659791
0.679724
0.699842
0.71696
0.723644
0.724401
0.715732
0.659655
0.610884
0.538661
0.54571
0.552145
0.633339
0.587313
0.570848
0.570922
0.567407
0.565844
0.552482
0.561636
0.526056
0.577248
0.549022
0.608295
0.600701
0.625634
0.626873
0.647512
0.669822
0.731106
0.749148
0.758658
0.763036
0.753032
0.755561
0.779443
0.831978
0.8795
0.872427
0.852852
0.798573
0.762706
0.686359
0.684134
0.701457
0.708953
0.701409
0.696483
0.696099
0.702975
0.704442
0.711346
0.719651
0.701947
0.699407
0.680245
0.699138
0.676056
0.689673
0.674689
0.668698
0.645475
0.622253
0.596602
0.574795
0.572097
0.544881
0.56096
0.574751
0.65556
0.630345
0.584438
0.617877
0.59778
0.584473
0.580276
0.573854
0.565723
0.560624
0.538167
0.542888
0.528931
0.507546
0.497664
0.514142
0.547412
0.530511
0.52472
0.574136
0.661175
0.802611
0.858564
0.913974
0.88351
0.869802
0.810219
0.875081
0.90494
0.917232
0.842774
0.801966
0.823598
0.806381
0.862566
0.820061
0.873492
0.846747
0.879779
0.878405
0.91797
0.957293
0.996396
0.98807
0.95519
0.955642
0.880085
0.86078
0.905686
0.848035
0.872064
0.824114
0.843761
0.805717
0.772217
0.788406
0.72788
0.81871
0.729576
0.997695
0.982996
0.94154
0.860235
0.861491
0.839913
0.773913
0.645684
0.761208
0.715635
0.928223
0.944863
1.00599
1.11312
1.10133
1.17949
1.20781
1.22569
1.20591
1.28085
1.34057
1.47011
1.46271
1.49444
1.49431
1.51418
1.80942
3.15313
3.41005
4.23216
4.02259
2.58556
2.54994
7.30117
1.05754
1.00252
0.971978
0.903568
0.885635
0.836154
0.812204
0.833687
0.834155
0.856772
0.899941
0.910767
0.918287
0.908607
0.942871
1.0437
1.21603
1.37096
1.48062
1.58876
1.68311
1.75923
1.74858
1.61892
1.0806
0.755941
0.724015
0.676043
0.662961
0.64762
0.557893
0.551419
0.785859
1.05412
1.02509
1.03679
1.03606
0.97257
0.964796
0.975946
1.0152
0.978721
0.976699
0.973198
0.959082
0.999655
0.972107
0.956893
1.03858
0.97324
1.02026
1.03197
0.968634
0.953498
0.857221
0.859438
0.77254
0.654804
0.605368
0.587655
0.959452
0.964554
0.937473
0.980589
0.966385
1.05038
1.04986
1.10669
1.1499
1.16581
1.2438
1.26302
1.27665
1.27931
1.28549
1.25482
1.25399
1.16241
1.19755
1.54759
1.74192
1.74419
1.54123
1.39216
1.15041
1.24793
1.12073
1.17965
1.13796
1.16584
5.31016
2.6279
2.73259
3.02413
2.93674
3.12159
3.19122
3.43797
3.47597
3.66508
3.60291
3.70415
3.39578
3.16228
2.46815
1.79701
1.1839
0.902535
0.865074
0.866395
0.865777
0.865939
0.865947
0.86594
0.865917
0.865905
0.865893
0.865879
0.865836
0.865222
0.86522
0.865836
0.86588
0.865894
0.865896
0.865918
0.865928
0.865947
0.865959
0.865981
0.865988
0.866011
0.866033
0.866063
0.866077
0.866077
0.866062
0.866035
0.866009
0.865986
0.865981
0.865959
0.865953
0.865931
0.865924
0.865904
0.865898
0.86588
0.865839
0.86522
0.865217
0.865834
0.865873
0.865896
0.865898
0.865925
0.865927
0.865952
0.865953
0.865976
0.865982
0.866007
0.866027
0.86606
0.86607
0.866081
0.866061
0.866045
0.866013
0.866003
0.865978
0.86597
0.865946
0.86594
0.865916
0.865907
0.86589
0.865884
0.865835
0.86522
0.644909
0.641339
0.610167
0.600769
0.60377
0.613211
0.645654
0.680147
0.717802
0.736103
0.733329
0.687235
0.660594
0.685748
0.965719
0.896889
0.807371
0.764112
0.754961
0.760114
0.754679
0.756525
0.724373
0.697605
0.680327
0.60929
0.632867
0.56608
0.555447
0.575613
0.578792
0.609933
0.628052
0.652494
0.686413
0.714338
0.730655
0.72749
0.708812
0.651981
0.597196
0.530696
0.545162
0.546555
0.620387
0.58024
0.574781
0.578818
0.584864
0.580326
0.572595
0.572857
0.543916
0.575221
0.564583
0.581733
0.60801
0.612493
0.628569
0.651712
0.683682
0.682564
0.714134
0.727643
0.732903
0.731488
0.721032
0.75822
0.831986
0.864104
0.856933
0.811519
0.763306
0.764762
0.684498
0.68532
0.701436
0.690453
0.68687
0.690744
0.707852
0.729688
0.750652
0.752537
0.760479
0.749485
0.746788
0.703681
0.726829
0.697361
0.693882
0.689763
0.674211
0.66314
0.629713
0.614627
0.575014
0.580253
0.546863
0.55976
0.574269
0.652265
0.636698
0.584308
0.619817
0.596985
0.585652
0.574398
0.570603
0.556017
0.54907
0.529129
0.519893
0.492942
0.524806
0.553283
0.556266
0.546765
0.595276
0.700753
0.831619
0.912659
0.942972
0.948583
0.918503
0.899176
0.851081
0.853785
0.875185
0.940079
0.921279
0.846108
0.809812
0.789604
0.801499
0.864806
0.801222
0.792538
0.793147
0.799001
0.849463
0.911185
0.979388
1.07119
1.08211
1.04554
1.00197
0.922299
0.898628
0.835614
0.81866
0.760325
0.765541
0.743705
0.762514
0.783764
0.773214
0.752447
0.83133
0.863094
0.903445
1.00426
0.928842
0.89831
0.81407
0.771285
0.697034
0.659874
0.682597
0.692643
0.854492
0.906608
1.00322
1.02308
1.07893
1.05938
1.11575
1.13273
1.19621
1.22819
1.40284
1.46701
1.4918
1.45721
1.43095
1.42973
1.49602
1.57252
1.67871
1.98001
2.21619
2.5682
2.86286
2.80102
1.03065
0.98752
0.889143
0.82359
0.758448
0.760191
0.748417
0.763185
0.811484
0.83991
0.877913
0.917177
0.90965
0.934648
0.957743
1.05178
1.19582
1.32903
1.37262
1.397
1.45404
1.4964
1.55114
1.38821
1.2825
0.883464
0.773542
0.637298
0.664447
0.658651
0.548665
0.602333
0.983475
0.981905
1.08325
1.10212
1.02129
1.06229
1.06825
1.10269
1.0797
1.10303
1.10661
1.10448
1.16206
1.13908
1.12209
1.19087
1.10931
1.12986
1.0918
1.06006
1.0926
1.04431
1.00915
0.925281
0.869044
0.83339
0.896563
0.889429
1.17866
1.09548
1.07748
1.07993
1.16883
1.17889
1.18533
1.19737
1.22085
1.29279
1.3161
1.42856
1.4781
1.53513
1.57229
1.61185
1.60486
1.5929
1.62215
1.77033
2.16437
2.11745
1.86566
1.62064
1.42638
1.41348
1.29994
1.29158
1.25189
1.26972
1.82627
1.60839
1.72497
1.79968
1.83253
1.89471
1.97362
1.97363
1.93511
1.82975
1.73021
1.63931
1.54764
1.61145
1.94232
2.13856
2.07879
1.6839
1.14381
0.89501
0.889064
0.888474
0.888866
0.888637
0.888522
0.888296
0.888179
0.888002
0.887182
0.875011
0.87455
0.887253
0.888047
0.888135
0.888368
0.888448
0.888706
0.888811
0.889068
0.889186
0.889453
0.889585
0.889941
0.890201
0.890419
0.890423
0.890216
0.889935
0.889569
0.889432
0.88917
0.889065
0.888818
0.888722
0.888473
0.888399
0.888162
0.888069
0.887277
0.874563
0.874993
0.887176
0.888082
0.888181
0.888419
0.888501
0.888766
0.888839
0.889086
0.889152
0.889405
0.889515
0.889851
0.890116
0.890406
0.890406
0.890275
0.889916
0.889659
0.889394
0.889279
0.88901
0.88891
0.888649
0.888547
0.88831
0.88819
0.888006
0.887177
0.874989
0.577558
0.547751
0.505475
0.494724
0.497025
0.495013
0.506091
0.537537
0.594622
0.700678
0.75731
0.757459
0.729371
0.760232
0.946326
0.832286
0.761852
0.761795
0.77417
0.787172
0.803424
0.795499
0.774037
0.755658
0.684108
0.618349
0.608659
0.546193
0.534638
0.531496
0.526107
0.547717
0.574631
0.6131
0.669831
0.712855
0.734781
0.729944
0.704172
0.652918
0.595515
0.54039
0.545009
0.561686
0.612855
0.580953
0.585912
0.59587
0.594784
0.59622
0.590059
0.593471
0.576702
0.596042
0.587748
0.61292
0.616232
0.633882
0.648633
0.658871
0.662929
0.665499
0.648515
0.671825
0.697884
0.710603
0.714613
0.753388
0.813134
0.857631
0.83149
0.77175
0.750772
0.755319
0.707857
0.701199
0.699714
0.686106
0.686363
0.711825
0.746507
0.776419
0.799157
0.806641
0.783439
0.783762
0.761144
0.731219
0.724362
0.713716
0.708619
0.692881
0.681933
0.669388
0.652012
0.634749
0.594434
0.587513
0.551515
0.565302
0.584714
0.654626
0.636599
0.58417
0.615863
0.603661
0.58851
0.574203
0.563195
0.550773
0.54535
0.551749
0.53161
0.579081
0.624538
0.6849
0.757321
0.815945
0.891874
0.93668
0.97452
1.00768
0.993768
0.976859
0.959436
0.931119
0.899576
0.88895
0.904054
0.932982
0.882899
0.844983
0.798202
0.824637
0.809713
0.839961
0.761484
0.720338
0.740681
0.774542
0.842082
0.935779
1.08283
1.19142
1.20812
1.08367
0.90164
0.752086
0.624636
0.594063
0.554041
0.543963
0.525983
0.522701
0.545617
0.551437
0.617433
0.723018
0.752208
0.990718
0.926929
1.02471
0.972909
1.03784
0.805376
0.724002
0.633983
0.678485
0.656742
0.683503
0.885028
0.935303
1.03547
1.04113
1.01382
1.04737
1.02085
1.11267
1.09576
1.24849
1.33413
1.37494
1.31927
1.22516
1.17631
1.17541
1.19938
1.2498
1.32773
1.46405
1.80672
2.22102
2.36211
2.98529
1.04422
0.958534
0.837952
0.753908
0.754599
0.733359
0.763393
0.77598
0.811656
0.87466
0.886883
0.920924
0.919051
0.921895
1.01217
1.09191
1.17405
1.19778
1.20804
1.20684
1.21113
1.27429
1.25459
1.37806
1.31226
1.1066
0.858559
0.605836
0.678283
0.658483
0.49172
0.755161
0.875502
1.11744
1.13197
1.00011
1.05225
1.01851
1.04677
1.05297
1.08537
1.08892
1.10068
1.17897
1.21995
1.23667
1.3892
1.34607
1.44213
1.41846
1.38078
1.39006
1.35465
1.34337
1.38284
1.30479
1.23975
1.09119
0.88918
0.817324
1.35538
1.25373
1.21263
1.18921
1.05405
0.945481
0.780556
0.799776
0.785453
0.818336
0.922834
1.00052
1.14045
1.28041
1.39691
1.49129
1.59189
1.62558
1.66028
1.73366
2.29077
2.83543
2.61744
2.28444
1.98275
1.87996
1.76008
1.72111
1.59238
1.53435
1.18105
1.06865
1.12654
1.08431
1.05611
1.10495
1.09806
1.09105
1.06704
1.09539
1.10864
1.16146
1.18321
1.27097
1.36754
1.61955
1.92112
2.02231
2.03359
1.67304
1.17348
1.06479
1.06247
1.06453
1.06483
1.06498
1.06519
1.06534
1.0663
1.08259
1.08257
1.06632
1.06535
1.06519
1.06503
1.06482
1.06462
1.0644
1.06423
1.064
1.06381
1.06354
1.06321
1.06281
1.06256
1.06257
1.06279
1.06322
1.06356
1.06383
1.06402
1.06424
1.0644
1.06461
1.06479
1.06498
1.06514
1.06536
1.0663
1.08257
1.08257
1.0663
1.06531
1.06505
1.06492
1.06474
1.06459
1.06439
1.06426
1.06406
1.06389
1.06363
1.06333
1.0629
1.06263
1.06252
1.06277
1.06311
1.06353
1.06375
1.06399
1.06419
1.06441
1.06458
1.06481
1.06497
1.06519
1.06533
1.06629
1.08259
0.468827
0.458434
0.443813
0.442171
0.43957
0.44717
0.465151
0.473438
0.513541
0.576642
0.716209
0.77924
0.760181
0.766774
0.875908
0.793231
0.771553
0.768952
0.768056
0.767015
0.778791
0.79146
0.818076
0.779377
0.771892
0.696534
0.604325
0.604063
0.529726
0.538592
0.507203
0.51698
0.52713
0.575592
0.647827
0.707417
0.733222
0.741765
0.721369
0.683021
0.615568
0.552431
0.555178
0.560778
0.60019
0.578232
0.595684
0.599632
0.602139
0.59697
0.588641
0.59573
0.595701
0.609462
0.616234
0.647016
0.649444
0.665587
0.66819
0.662639
0.652288
0.638742
0.639086
0.630894
0.655645
0.678675
0.684667
0.720621
0.810358
0.854257
0.816384
0.764743
0.730883
0.751159
0.712884
0.703698
0.697385
0.686584
0.70487
0.753845
0.793987
0.832381
0.853815
0.837813
0.806252
0.74773
0.739106
0.722747
0.706494
0.71577
0.705195
0.695465
0.681508
0.672847
0.669693
0.65109
0.622243
0.593724
0.56764
0.56827
0.617248
0.659466
0.628348
0.574226
0.624172
0.614804
0.600433
0.576313
0.556554
0.55435
0.557559
0.537053
0.610919
0.697769
0.801561
0.854167
0.851031
0.866795
0.862555
0.906459
0.93607
0.927165
0.918858
0.921855
0.936742
0.935336
0.918301
0.919372
0.915802
0.887162
0.861514
0.818175
0.819897
0.829681
0.803997
0.798917
0.713622
0.693313
0.728264
0.780246
0.867848
1.01582
1.19925
1.25946
1.113
0.786963
0.626765
0.521321
0.515235
0.499205
0.495316
0.480407
0.461649
0.464673
0.44431
0.469097
0.484129
0.538592
0.615546
0.728809
1.02495
1.02619
1.02669
1.02081
0.744122
0.67634
0.625598
0.681588
0.668912
0.800058
0.89264
1.02583
1.04958
1.02958
1.00695
0.99969
1.04509
0.988277
1.14719
1.13683
1.22925
1.17042
1.07165
1.07875
1.08861
1.11229
1.14596
1.14731
1.15812
1.20155
1.35647
1.67521
2.08367
2.01019
1.04815
0.952508
0.791991
0.773791
0.751985
0.780334
0.768282
0.81947
0.871187
0.911967
0.937323
0.91912
0.971498
0.965054
1.00094
1.11547
1.11346
1.06679
1.02061
1.01148
1.03798
1.04261
1.17601
1.24037
1.31654
1.26109
0.991433
0.760724
0.663623
0.674167
0.601879
0.822687
1.06408
1.04671
0.96626
0.960121
0.890561
0.897323
0.869932
0.877891
0.882754
0.919722
0.96398
1.02984
1.05772
1.24793
1.26586
1.40768
1.45453
1.50532
1.56852
1.53436
1.53276
1.52439
1.46291
1.44926
1.37529
1.36378
1.28056
1.26266
1.46362
1.31697
1.18505
0.954817
0.732809
0.671923
0.659915
0.622901
0.686038
0.694493
0.741404
0.777822
0.820733
0.854371
0.932382
1.05482
1.20871
1.32884
1.43616
1.45976
1.81129
2.59788
2.94524
2.83508
2.45811
2.24043
2.03698
1.95785
1.90651
1.77579
0.696014
0.610471
0.588681
0.557963
0.563794
0.583302
0.622603
0.655743
0.721222
0.769085
0.823967
0.845325
0.950576
1.00679
1.05308
1.14649
1.24016
1.44704
1.6957
1.89433
1.79535
1.35555
1.08644
1.07098
1.07448
1.07462
1.07465
1.07467
1.07492
1.07783
1.07788
1.07491
1.07467
1.07464
1.07463
1.07461
1.07459
1.07458
1.07457
1.07455
1.07453
1.07451
1.07448
1.07445
1.07444
1.07444
1.07445
1.07449
1.07452
1.07453
1.07455
1.07457
1.07458
1.07459
1.07461
1.07462
1.07464
1.07467
1.07491
1.07788
1.07782
1.07491
1.07466
1.07463
1.07462
1.07461
1.07459
1.07458
1.07456
1.07455
1.07454
1.07452
1.0745
1.07446
1.07444
1.07443
1.07446
1.07449
1.07452
1.07453
1.07455
1.07456
1.07458
1.07459
1.07461
1.07463
1.07464
1.07467
1.07492
1.07783
0.418984
0.420137
0.423596
0.423179
0.433194
0.447039
0.450568
0.468392
0.494426
0.531778
0.608154
0.758202
0.796534
0.809681
0.792498
0.762014
0.744083
0.737518
0.735041
0.746373
0.73298
0.757472
0.778461
0.777262
0.77636
0.769675
0.667101
0.668796
0.579225
0.546169
0.509141
0.501457
0.506232
0.545082
0.629754
0.694784
0.734081
0.760253
0.774174
0.743335
0.676633
0.601023
0.5599
0.583159
0.599721
0.595654
0.620842
0.619918
0.603753
0.585717
0.580122
0.582696
0.593365
0.608034
0.627234
0.661743
0.66981
0.680779
0.674734
0.660735
0.644293
0.630605
0.623286
0.625521
0.652421
0.688748
0.690063
0.720899
0.799939
0.856615
0.85836
0.801542
0.752373
0.726438
0.729182
0.709497
0.696431
0.698328
0.740843
0.797845
0.852505
0.895604
0.891249
0.830628
0.782387
0.70748
0.715038
0.674852
0.707143
0.696533
0.695312
0.683196
0.677502
0.682351
0.69779
0.669452
0.652521
0.615401
0.606124
0.607232
0.65774
0.66301
0.630985
0.592037
0.624897
0.621968
0.622279
0.57868
0.57318
0.557026
0.5531
0.639345
0.734842
0.815155
0.832568
0.81513
0.810958
0.836059
0.86919
0.868023
0.853409
0.840243
0.830034
0.861122
0.904385
0.915468
0.918589
0.922288
0.914485
0.882933
0.836789
0.852315
0.844877
0.839474
0.869207
0.760892
0.687418
0.691566
0.729597
0.8001
0.908481
1.09528
1.2383
1.13091
0.810551
0.587639
0.53457
0.483143
0.500205
0.500321
0.504292
0.504426
0.474833
0.461806
0.43878
0.427621
0.448601
0.469621
0.534243
0.611035
0.795393
1.07636
0.969015
1.06454
0.714273
0.632907
0.674381
0.649208
0.779762
0.807841
0.947826
1.04405
1.05813
1.01789
1.0125
0.965508
0.984611
1.0383
0.966797
1.0633
0.953962
0.995339
1.06387
1.06525
1.09694
1.0969
1.08033
1.07071
1.03564
1.01439
1.0457
1.16242
1.58955
1.94315
1.08694
0.902656
0.794572
0.781079
0.805444
0.813924
0.885441
0.909701
0.932763
0.947287
0.961574
0.996428
0.934822
0.986018
0.992027
0.963345
0.892346
0.840058
0.86944
0.871253
0.874349
0.929541
1.01418
1.12602
1.23564
1.29034
1.11728
1.00192
0.672788
0.676685
0.681667
0.951955
1.01553
0.968169
0.975157
0.935686
0.936362
0.855684
0.865128
0.806996
0.812988
0.801326
0.815526
0.792147
0.93008
0.946589
1.04428
1.15248
1.19934
1.30581
1.40878
1.4854
1.54957
1.56549
1.61664
1.65004
1.71129
1.69767
1.57738
1.42697
1.3995
1.22031
0.918106
0.806748
0.648306
0.671794
0.574858
0.622513
0.609942
0.625221
0.711486
0.710694
0.75763
0.801927
0.831981
0.89215
0.921299
0.992518
1.06124
1.19954
1.33717
1.85958
2.47954
2.74334
2.58924
2.41331
2.12441
2.04092
1.93114
1.87777
0.508222
0.426444
0.442559
0.514035
0.507609
0.560458
0.545869
0.602306
0.616412
0.685045
0.699378
0.776539
0.797543
0.873911
0.919505
1.0001
1.04972
1.14593
1.22038
1.38008
1.55007
1.696
1.48052
1.07058
1.04349
1.04758
1.04746
1.04753
1.04757
1.04785
1.04788
1.04752
1.04753
1.04752
1.04745
1.04751
1.04745
1.04752
1.04746
1.04752
1.04746
1.04752
1.04745
1.04751
1.04747
1.04746
1.0475
1.04745
1.04751
1.04745
1.04752
1.04746
1.04752
1.04745
1.04752
1.04745
1.04752
1.0475
1.04754
1.04788
1.04784
1.04755
1.04746
1.04752
1.04746
1.04752
1.04746
1.04752
1.04746
1.04752
1.04746
1.04752
1.04746
1.04751
1.04745
1.04751
1.04745
1.04751
1.04746
1.04752
1.04746
1.04752
1.04746
1.04752
1.04745
1.04752
1.04746
1.04753
1.04758
1.04785
0.400289
0.40344
0.412588
0.427555
0.437017
0.444869
0.455265
0.481822
0.510168
0.520637
0.568318
0.660732
0.777562
0.823078
0.772869
0.765522
0.743872
0.734247
0.731718
0.735497
0.76472
0.750923
0.757599
0.777019
0.735068
0.781315
0.696647
0.724825
0.633447
0.579202
0.50881
0.497532
0.493098
0.52891
0.611388
0.687447
0.746159
0.798367
0.844879
0.855163
0.779453
0.665124
0.578878
0.602664
0.583919
0.594801
0.613679
0.627243
0.596174
0.58273
0.559905
0.571129
0.566922
0.615169
0.600906
0.658259
0.664
0.672551
0.666599
0.65905
0.648692
0.643522
0.644825
0.654146
0.68123
0.665981
0.676529
0.733502
0.832956
0.862299
0.836489
0.769015
0.711207
0.689315
0.73829
0.711627
0.700492
0.720883
0.785454
0.845748
0.904393
0.918023
0.882838
0.827985
0.788851
0.717437
0.717328
0.683633
0.680273
0.685085
0.68509
0.700542
0.72234
0.738187
0.739704
0.718808
0.707874
0.661254
0.67461
0.65359
0.671425
0.661754
0.606816
0.5742
0.633219
0.665884
0.635405
0.613577
0.562408
0.577059
0.660303
0.742663
0.80353
0.819841
0.794377
0.809557
0.862908
0.909437
0.904553
0.903335
0.865079
0.808699
0.802479
0.832569
0.869429
0.902583
0.909414
0.91151
0.889356
0.888821
0.875953
0.855898
0.858667
0.842824
0.802564
0.713063
0.674503
0.697989
0.744326
0.827367
0.970638
1.15169
1.17359
0.869875
0.665263
0.491576
0.52598
0.498784
0.518267
0.542807
0.550655
0.552804
0.527506
0.501876
0.450351
0.434202
0.426072
0.456559
0.485986
0.549436
0.689832
0.87983
1.05886
1.07369
0.677186
0.644267
0.667902
0.673605
0.809934
0.865362
0.975345
1.06223
1.05018
1.03097
0.964722
0.974072
0.909809
0.937114
0.93586
0.876787
0.96691
0.911672
0.936427
1.04641
1.09034
1.05955
1.00909
0.969289
0.94333
0.905164
0.868717
0.921495
0.991502
1.65609
1.10367
0.859141
0.811889
0.827492
0.878226
0.959008
0.959622
0.973058
1.00335
0.97293
1.02422
0.957013
0.969792
0.877526
0.877994
0.763406
0.75342
0.75139
0.75375
0.74514
0.81127
0.870305
0.923683
0.981598
1.09968
1.23684
1.25176
1.18006
0.853114
0.656846
0.764913
1.00174
0.963399
0.967696
0.949008
0.939972
0.894787
0.888117
0.802413
0.827417
0.769837
0.804776
0.784125
0.882844
0.862218
0.930734
0.913248
0.937054
0.963902
0.986491
1.05524
1.18368
1.2847
1.40492
1.50034
1.64676
1.7523
1.87092
1.84815
1.75696
1.28165
0.955976
0.812076
0.725449
0.650957
0.609577
0.590875
0.536464
0.568619
0.581751
0.666772
0.703156
0.719527
0.784976
0.787538
0.833474
0.854982
0.906309
0.912362
0.999607
1.02654
1.34414
1.81738
2.21703
2.32444
2.28122
2.10444
2.05082
1.84347
1.8848
0.434876
0.363597
0.457956
0.498772
0.537505
0.542488
0.584306
0.580435
0.628225
0.627746
0.685285
0.691672
0.75766
0.769827
0.839118
0.867846
0.916126
0.986613
1.01662
1.10627
1.22544
1.30469
1.48182
1.47529
1.03596
1.0096
1.01453
1.01449
1.01468
1.01702
1.01699
1.01465
1.01451
1.01448
1.01444
1.01447
1.01444
1.01447
1.01444
1.01447
1.01444
1.01447
1.01444
1.01447
1.01446
1.01446
1.01446
1.01444
1.01447
1.01444
1.01447
1.01444
1.01446
1.01444
1.01446
1.01443
1.01447
1.01449
1.01466
1.01699
1.01702
1.01465
1.01445
1.01447
1.01444
1.01447
1.01444
1.01447
1.01445
1.01448
1.01445
1.01447
1.01444
1.01447
1.01444
1.01447
1.01444
1.01447
1.01444
1.01447
1.01444
1.01447
1.01444
1.01446
1.01443
1.01447
1.01445
1.0145
1.01469
1.01703
0.401575
0.418187
0.440513
0.455109
0.448539
0.465213
0.460769
0.514285
0.523975
0.542243
0.575708
0.616116
0.744084
0.823017
0.770279
0.751043
0.745274
0.756073
0.779123
0.79069
0.789137
0.804536
0.770593
0.747469
0.726006
0.760556
0.702524
0.746987
0.673751
0.588971
0.507775
0.4889
0.488732
0.527827
0.615506
0.708954
0.788142
0.887609
0.944475
0.939545
0.881648
0.754167
0.615235
0.619016
0.601521
0.610659
0.629684
0.636274
0.599592
0.576509
0.541096
0.580095
0.557588
0.618982
0.600593
0.650452
0.656688
0.6685
0.673308
0.676235
0.679349
0.684126
0.69452
0.70034
0.684949
0.693141
0.728438
0.817007
0.857538
0.831559
0.787604
0.74001
0.710963
0.696771
0.733937
0.703655
0.709824
0.756876
0.8216
0.883719
0.914715
0.910736
0.875888
0.84255
0.810321
0.761344
0.746046
0.715933
0.726544
0.734456
0.751258
0.754078
0.757816
0.740434
0.718043
0.683953
0.695376
0.665275
0.686922
0.690587
0.707415
0.683351
0.638584
0.616331
0.6708
0.671232
0.682305
0.589444
0.600995
0.665706
0.734809
0.784382
0.804659
0.784262
0.806618
0.881169
0.931305
0.933554
0.92589
0.865039
0.851122
0.822745
0.811204
0.825568
0.867409
0.882643
0.890279
0.921993
0.898242
0.906239
0.853711
0.837445
0.802455
0.79171
0.844668
0.710105
0.702577
0.727824
0.758685
0.857608
1.02069
1.14769
1.01881
0.719485
0.592342
0.493135
0.520745
0.515292
0.542194
0.558216
0.587581
0.58939
0.58651
0.540012
0.493304
0.441723
0.438831
0.438195
0.474503
0.510758
0.588661
0.826376
0.919427
1.17855
0.660213
0.649526
0.683699
0.676635
0.84017
0.835745
1.00496
1.0001
1.03375
0.950342
0.942014
0.876376
0.909373
0.851444
0.874865
0.883239
0.848671
0.92274
0.929748
0.898855
0.921249
0.946015
0.979131
0.953282
0.898321
0.881054
0.875413
0.859279
1.0348
1.18389
1.07779
0.855496
0.834148
0.881904
0.998246
1.00074
1.02296
1.01558
0.992471
0.99777
0.967693
0.900089
0.852015
0.784015
0.691753
0.676738
0.677378
0.638063
0.680732
0.662657
0.728452
0.753387
0.850415
0.903223
0.965469
1.0858
1.20475
1.18853
1.19563
0.763026
0.859439
0.956904
0.967571
0.951764
0.920143
0.891265
0.880218
0.850086
0.807057
0.795722
0.767045
0.752161
0.842822
0.828605
0.884875
0.879843
0.910702
0.92258
0.954915
0.979408
0.978117
0.974851
0.99109
1.07293
1.26331
1.45306
1.67371
1.7896
1.88064
1.83047
1.16168
0.854644
0.747432
0.67567
0.665858
0.531388
0.5674
0.539708
0.520315
0.56498
0.588001
0.727309
0.706977
0.781576
0.782243
0.814438
0.812098
0.858864
0.855067
0.938227
0.958214
1.11861
1.41328
1.78393
1.95666
1.96233
1.93931
1.88924
1.7658
1.69389
0.407131
0.367531
0.481628
0.497907
0.568823
0.570695
0.570239
0.60518
0.602105
0.6526
0.651131
0.703835
0.702517
0.757391
0.758904
0.814135
0.810552
0.883204
0.875756
0.984731
0.977901
1.13266
1.10771
1.33919
1.33117
0.984288
0.956391
0.961052
0.960905
0.960306
0.960235
0.960884
0.960937
0.960905
0.960866
0.960888
0.960866
0.960893
0.96087
0.960896
0.960875
0.960904
0.960882
0.960909
0.960912
0.960907
0.960906
0.960883
0.960905
0.960876
0.9609
0.960869
0.960892
0.960864
0.960885
0.960858
0.960893
0.960924
0.960901
0.960237
0.960303
0.960874
0.960876
0.960891
0.960863
0.960894
0.960866
0.9609
0.960871
0.960906
0.960882
0.960912
0.960887
0.96091
0.960891
0.960913
0.960896
0.960916
0.960888
0.96091
0.960883
0.960903
0.960871
0.960896
0.960862
0.960891
0.960879
0.960921
0.960933
0.960333
0.406074
0.440008
0.469369
0.473767
0.479725
0.465256
0.500119
0.539267
0.574488
0.605639
0.59905
0.655139
0.740359
0.730036
0.796538
0.765837
0.764713
0.793123
0.825703
0.846124
0.835313
0.810736
0.804129
0.727774
0.723484
0.746395
0.706495
0.742635
0.651779
0.56987
0.49329
0.489925
0.486521
0.549988
0.64756
0.773854
0.873785
0.932431
0.943136
0.931161
0.890519
0.809221
0.667753
0.615163
0.589809
0.62564
0.628733
0.627911
0.588215
0.564165
0.551986
0.568492
0.571139
0.602959
0.610376
0.653645
0.671774
0.695754
0.717478
0.732676
0.748004
0.751137
0.75678
0.742988
0.766876
0.782088
0.853789
0.865166
0.84246
0.731177
0.700818
0.651212
0.648271
0.632033
0.706088
0.696176
0.722813
0.78843
0.851278
0.892331
0.901906
0.867711
0.826205
0.794769
0.776356
0.729723
0.730914
0.684931
0.682018
0.656518
0.643082
0.639701
0.634939
0.625605
0.626696
0.600789
0.631142
0.612848
0.664384
0.682477
0.69401
0.693329
0.648297
0.638256
0.699704
0.739672
0.667656
0.65218
0.677077
0.720568
0.770935
0.796971
0.776083
0.778597
0.844558
0.91066
0.926587
0.933336
0.916543
0.88655
0.833336
0.819683
0.814933
0.839951
0.854328
0.867601
0.87598
0.905555
0.871115
0.818356
0.767571
0.734517
0.694724
0.682719
0.82743
0.758622
0.719935
0.747052
0.796249
0.882536
1.0527
1.09156
0.839454
0.654841
0.567201
0.495579
0.535343
0.535522
0.543411
0.572601
0.606553
0.648916
0.659145
0.601018
0.543927
0.48669
0.442497
0.449628
0.460388
0.501286
0.544155
0.69082
0.935923
0.964306
0.661958
0.628031
0.675911
0.70146
0.738472
0.864446
0.86643
0.962257
0.884066
0.926532
0.835029
0.873953
0.823568
0.851018
0.823006
0.83568
0.849492
0.818889
0.848631
0.906147
0.924263
0.943753
0.914306
0.916642
0.917746
0.890021
0.876419
0.893236
0.887514
1.10195
1.04272
0.847393
0.863836
0.982737
1.01334
1.03641
1.02781
0.982756
0.999832
0.954524
0.883649
0.787266
0.714456
0.660246
0.657138
0.595383
0.635719
0.602216
0.647525
0.666015
0.689632
0.706273
0.725506
0.847115
0.846513
0.938102
1.08351
1.25617
1.17308
1.13224
1.04691
0.951889
0.957889
0.938738
0.906782
0.867024
0.841854
0.831294
0.769022
0.801146
0.74893
0.806808
0.772189
0.850812
0.85534
0.850941
0.895513
0.900136
0.932554
0.951461
0.964886
0.960029
0.956415
0.98824
1.00119
1.1236
1.30952
1.56445
1.75221
1.8595
1.10479
0.836999
0.72098
0.635431
0.636057
0.488116
0.556592
0.466324
0.50921
0.512057
0.576819
0.703142
0.751057
0.775156
0.807487
0.799446
0.814196
0.825864
0.833361
0.887802
0.923134
1.04037
1.20051
1.52976
1.72541
1.7287
1.70393
1.68021
1.61731
1.49868
0.337011
0.457854
0.415807
0.571585
0.550327
0.595101
0.593294
0.582206
0.621966
0.619959
0.670544
0.6711
0.71998
0.721802
0.766755
0.767408
0.808257
0.80199
0.857481
0.841422
0.947136
0.929904
1.07102
1.03358
1.30412
1.08555
0.924052
0.909013
0.911407
0.910661
0.910602
0.911407
0.911456
0.91141
0.91137
0.911364
0.911344
0.911352
0.911342
0.911354
0.911344
0.911355
0.911348
0.911359
0.911366
0.911362
0.911359
0.911347
0.911355
0.911344
0.911355
0.911344
0.911352
0.911341
0.911358
0.911359
0.911395
0.911448
0.911422
0.910605
0.910648
0.911398
0.911419
0.9114
0.911365
0.911365
0.911343
0.911356
0.911345
0.911358
0.91135
0.911358
0.911348
0.911356
0.911346
0.911356
0.911352
0.911359
0.911348
0.911355
0.911343
0.911353
0.911339
0.911356
0.911349
0.911386
0.911417
0.911508
0.911594
0.910841
0.417905
0.464489
0.502857
0.514216
0.493466
0.502128
0.57078
0.607618
0.685821
0.685687
0.66183
0.716607
0.777831
0.727831
0.693353
0.676774
0.736835
0.747348
0.775477
0.816015
0.851088
0.84194
0.814419
0.796608
0.745164
0.771278
0.689451
0.745116
0.692149
0.683952
0.579547
0.524909
0.486492
0.491288
0.511173
0.612343
0.761031
0.858298
0.889591
0.858137
0.816256
0.805793
0.813996
0.792839
0.7015
0.63152
0.615996
0.649349
0.660653
0.671853
0.633768
0.622298
0.575673
0.591443
0.561518
0.600787
0.589797
0.628539
0.666885
0.703766
0.751373
0.771545
0.793515
0.815859
0.826331
0.838796
0.83941
0.860702
0.865443
0.891905
0.881699
0.814551
0.751062
0.63311
0.621054
0.576236
0.57569
0.594039
0.54266
0.496648
0.632855
0.671832
0.72804
0.798354
0.847549
0.873227
0.838454
0.777908
0.720024
0.688563
0.658711
0.644115
0.629139
0.608463
0.603584
0.612001
0.623637
0.638001
0.657337
0.672084
0.675096
0.640095
0.626804
0.605516
0.634057
0.655943
0.700542
0.699969
0.680949
0.67546
0.720213
0.716633
0.765119
0.736119
0.717626
0.694571
0.721069
0.752305
0.787375
0.777548
0.760525
0.7733
0.816321
0.856258
0.898555
0.924924
0.919749
0.894169
0.838871
0.833194
0.828185
0.828528
0.830752
0.861072
0.823036
0.803215
0.718015
0.674839
0.683559
0.684615
0.69822
0.673517
0.72507
0.74027
0.809796
0.804646
0.837991
0.804714
0.816123
0.93538
1.04072
1.00041
0.735257
0.620396
0.563213
0.51748
0.534541
0.53042
0.545073
0.565475
0.609191
0.65626
0.690167
0.660228
0.599193
0.552658
0.489281
0.458601
0.468503
0.485717
0.537728
0.590769
0.825513
0.939461
0.671735
0.572794
0.623703
0.611317
0.625514
0.701095
0.700924
0.730648
0.82967
0.791758
0.863389
0.773298
0.820292
0.771029
0.820968
0.789467
0.813831
0.789153
0.795137
0.815051
0.779763
0.778924
0.823098
0.849846
0.891695
0.894759
0.849168
0.804736
0.795099
0.850639
0.891606
0.817386
0.862748
0.733583
0.879541
0.844569
0.894145
1.01504
1.03311
1.03992
0.974065
0.970148
0.902109
0.861153
0.782222
0.749894
0.700418
0.648456
0.61506
0.598221
0.601523
0.62341
0.658594
0.689635
0.687354
0.735916
0.720649
0.702317
0.903747
0.921796
1.03109
1.04463
1.32385
1.29387
1.18603
0.949616
0.89035
1.02644
1.00754
0.993366
0.911717
0.866927
0.816655
0.807272
0.77951
0.77252
0.806005
0.79017
0.807393
0.868942
0.873421
0.856644
0.858927
0.881583
0.882256
0.901656
0.904301
0.929081
0.952473
0.960771
1.00087
1.0141
1.07527
1.26019
1.4925
1.62205
1.41036
1.11973
1.04548
0.896187
0.731742
0.638959
0.638701
0.455441
0.554892
0.531811
0.469652
0.614063
0.5726
0.761638
0.753056
0.820195
0.798177
0.818747
0.801486
0.837424
0.810808
0.904759
0.859258
1.0361
1.05725
1.31767
1.56244
1.63589
1.57479
1.4923
1.40114
1.19622
0.363957
0.346692
0.376691
0.382983
0.580723
0.544067
0.621898
0.590829
0.590501
0.600798
0.591982
0.639252
0.63617
0.68555
0.682318
0.731803
0.729976
0.778248
0.77126
0.822037
0.806261
0.880338
0.858101
0.967713
0.920095
1.10884
0.981302
1.09704
0.847252
0.847215
0.84223
0.839623
0.836524
0.836526
0.839572
0.842734
0.843061
0.843048
0.843016
0.843
0.842978
0.842976
0.842972
0.842975
0.842969
0.842972
0.842965
0.842972
0.842981
0.842976
0.842972
0.842965
0.842973
0.842969
0.84298
0.842972
0.842977
0.842975
0.842996
0.843004
0.843032
0.84305
0.842746
0.839572
0.836528
0.836528
0.839594
0.842715
0.843022
0.843036
0.843012
0.843003
0.842978
0.842984
0.842977
0.842987
0.842982
0.842988