/*--------------------------------*- C++ -*----------------------------------*\
| =========                 |                                                 |
| \\      /  F ield         | OpenFOAM: The Open Source CFD Toolbox           |
|  \\    /   O peration     | Version:  2.1.1                                 |
|   \\  /    A nd           | Web:      www.OpenFOAM.org                      |
|    \\/     M anipulation  |                                                 |
\*---------------------------------------------------------------------------*/
FoamFile
{
    version     2.0;
    format      ascii;
    class       volScalarField;
    location    "0.003250000";
    object      rhoEu;
}
// * * * * * * * * * * * * * * * * * * * * * * * * * * * * * * * * * * * * * //

dimensions      [1 -1 -2 0 0 0 0];

internalField   nonuniform List<scalar> 
12384
(
419746
411191
402460
385573
358236
311836
242881
150687
2186.08
-118759
-281817
-411335
-489015
-498616
-245470
-216261
-154550
-93668.6
-30988.6
-656.411
30737.9
46265.6
57171.5
48874.9
3011.11
6083.5
-12262.4
-54143.1
-15197.7
-36925
-7205.54
8049
6928.23
-14242.1
-56313.3
-106100
-151958
-221253
-300799
-372977
-384064
-389839
-455108
-557418
-260742
-150655
-105356
-98032.7
-94534.7
-82787.4
-78326.5
-53700.2
-65016.9
-7887.04
-14194
48560
45948.5
67565
56294.1
57996.2
63687.2
123183
119746
104004
76208.2
-19535.1
-115291
-212915
-249117
-244261
-243501
-246881
-262950
-383068
-268348
-267691
-314059
-310847
-298412
-265132
-245141
-233194
-242746
-243750
-233496
-224866
-213768
-221585
-234377
-258094
-272082
-293387
-305598
-321401
-335609
-347672
-360654
-372884
-390517
-389775
-384311
-361233
-338310
-359697
-454205
-465174
-448676
-458012
-482634
-502132
-506524
-501496
-497863
-490744
-483501
-478120
-473838
-465456
-463266
-459843
-451840
-441319
-376501
-373738
-371256
-393880
-409101
-392690
-372825
-367183
-327189
-376871
-508903
-547017
-573738
-565320
-574557
-549126
-539416
-510914
-506139
-514034
-559149
-637673
-664336
-599161
-445206
-372937
-350937
-337623
-372575
-386746
-413694
-427928
-444161
-454276
-464349
-476643
-479959
-526479
-418500
-313423
-340638
-475961
-680489
-637896
-548428
-458130
-367077
-357743
-202373
-170451
-134003
-43980.7
-60362.4
10174.5
-57822.9
-207820
-376478
-361682
-233843
-135645
-179635
-217429
-312284
-422092
-434150
362576
447505
842257
768733
-344758
-407097
2.95725e+06
-740706
-671067
-559918
-469344
-406026
-361611
-316100
-273726
-258076
-264905
-252363
-291549
-351557
-462220
-543285
-540481
-526520
-536773
-493481
-355580
-181955
17043.5
121940
132297
-183331
-279706
-251475
-236247
-219887
-215095
-314852
-300400
-145542
76638.7
80420
98876.4
62525.2
11613.2
-2778.96
-6254.71
8451.13
-22293
-21448.8
-24414.4
-40317.6
-21404.3
-38175.5
-34551
34453.5
21690.7
75496.3
96708.6
40318.7
8742.97
-82897.5
-114847
-183387
-283061
-316568
-352872
-468117
-331069
-238652
-205340
-178470
-148781
-117016
-110539
-60366
-79944.9
-7785.68
-16440.8
6765.57
10587.2
29059.8
31232.7
47038.5
20911.1
36682.7
442237
791012
888940
775193
548475
194004
305973
119160
144176
94660.5
110029
2.2927e+06
348973
439739
750490
555134
796200
923607
1.32403e+06
1.34269e+06
1.66981e+06
1.79884e+06
1.9674e+06
1.78928e+06
1.52906e+06
862508
346722
-1105.41
-102735
-107480
-107490
-107486
-107487
-107487
-107488
-107488
-107486
-107488
-107487
-107488
-107488
-107488
-107487
-107487
-107488
-107485
-107488
-107488
-107487
-107487
-107487
-107486
-107487
-107487
-107488
-107488
-107487
-107488
-107488
-107486
-107486
-107488
-107487
-107487
-107487
-107488
-107486
-107488
-107488
-107488
-107488
-107488
-107489
-107487
-107488
-107486
-107488
-107487
-107488
-107487
-107487
-107487
-107487
-107488
-107488
-107486
-107487
-107486
-107487
-107488
-107488
-107488
-107488
-107487
-107488
-107487
-107486
-107487
-107487
-107487
-107487
451787
452031
462112
419653
397127
369850
339572
277405
148324
-22626.6
-171758
-336747
-447278
-525151
-223946
-82959.9
46246
103117
115041
127054
148579
176991
185785
188525
176667
105505
120496
44112.9
43314
34522.8
28947.4
46471
44286.4
19406.1
-29330.8
-89183.2
-147684
-225069
-308187
-376112
-385728
-384807
-442347
-538889
-241955
-133102
-98739.6
-89254.8
-74416.3
-59592.6
-43632.9
-13611.8
-9104.19
54400.1
67385.8
115567
163377
186344
206978
224567
253992
235403
242509
200036
133106
48086.8
-68571.6
-173283
-226325
-247260
-248626
-253225
-301799
-426428
-270143
-266902
-290651
-239926
-192202
-166878
-220969
-274004
-285938
-271599
-235121
-202815
-187889
-188679
-193564
-218631
-239967
-259579
-287488
-313910
-344799
-358534
-373055
-379073
-390198
-387165
-380351
-357444
-335901
-355241
-456850
-474903
-453383
-453346
-463490
-474436
-470012
-458849
-445887
-451431
-451755
-448913
-444516
-447148
-416691
-383274
-296836
-247298
-227363
-252897
-295069
-312459
-350629
-326425
-359467
-346265
-307971
-322665
-403893
-447166
-564684
-543724
-515550
-465273
-426656
-410910
-451300
-546377
-568455
-470065
-387058
-333079
-331290
-342796
-375760
-403133
-415947
-430734
-436970
-457776
-467554
-483916
-483558
-489805
-479356
-487725
-416849
-331662
-352373
-436327
-578175
-561038
-470147
-390656
-342066
-317503
-201803
-153485
-93015.2
-48547.7
22885
7243.77
-22922.8
-181466
-297190
-283356
-137119
-71292.4
-69555.8
-117370
-162311
-212459
-260835
-285860
-338376
-349618
-197377
163581
239268
-58967.7
-661572
-565291
-460171
-405115
-379025
-342686
-321935
-304414
-281373
-276707
-287995
-306069
-377611
-455915
-521028
-522354
-542186
-564121
-583836
-512671
-418339
-278897
-65409.5
-1602.51
-9242.66
-193471
-209751
-232834
-213108
-209166
-311159
-281711
-49789.5
73782.9
115005
95994.7
52158.8
71836.3
69725.5
93428.6
70978.2
78381
72509.2
72097.9
97564.7
92793.5
92215.2
151345
115451
154305
145689
124566
124984
38825.9
-33692.7
-105947
-169255
-182754
-181079
-195909
-371942
-212947
-145038
-126206
-84731.1
-70060.9
-66737.6
-56554.1
-49849.5
-1940.87
3448.78
77714
107062
147585
178463
222206
228042
246598
300614
425482
930278
1.10933e+06
901654
608008
338917
286994
161919
119905
84822.1
56734.5
182689
187393
240530
362993
364902
408305
507790
552514
484487
395326
303456
266830
199048
295799
642471
783400
648603
276610
-36976.4
-107279
-107487
-107489
-107485
-107493
-107485
-107492
-107485
-107490
-107488
-107486
-107489
-107487
-107488
-107492
-107485
-107492
-107485
-107492
-107485
-107492
-107485
-107492
-107486
-107491
-107486
-107486
-107492
-107486
-107493
-107485
-107492
-107485
-107492
-107485
-107492
-107484
-107491
-107486
-107488
-107488
-107486
-107490
-107484
-107492
-107484
-107493
-107484
-107493
-107484
-107493
-107484
-107493
-107485
-107493
-107485
-107492
-107485
-107492
-107485
-107492
-107485
-107492
-107485
-107493
-107485
-107492
-107485
-107491
-107488
-107486
487143
466574
438762
435787
414201
391035
347209
318043
242368
146675
-29756.3
-211777
-392114
-510813
-121908
34588.1
76484.4
57656.6
41606
34000.2
52237.3
60937.1
86469.8
118434
129891
99140.1
117843
55828.9
73318
75865
73604.7
89351.9
88136
54507.3
-8464.39
-75879.1
-141356
-223113
-311724
-382684
-394973
-384217
-412554
-491248
-227534
-120324
-101040
-95887.9
-91510.7
-79326.1
-63399.2
-36013.7
-17827.1
37120.8
72841.8
151051
191588
245915
284482
310142
318721
319266
271946
231572
135969
36431
-52607.6
-149784
-224504
-259610
-268380
-272572
-324355
-452386
-258292
-247461
-239866
-161086
-141490
-228128
-313253
-309670
-274452
-226018
-193052
-154807
-163014
-166201
-192720
-205688
-218912
-236745
-262185
-296005
-336951
-369595
-391372
-392470
-392367
-379619
-368516
-350080
-331150
-351812
-456210
-488731
-468761
-450191
-445743
-441433
-434465
-424690
-431400
-434896
-436691
-422404
-375517
-331337
-266905
-218727
-178206
-180968
-200823
-233645
-245931
-274013
-259714
-315183
-343580
-335394
-299423
-280229
-292598
-318114
-553386
-517826
-472079
-400789
-344940
-367121
-476970
-562721
-455973
-338397
-310528
-348109
-369915
-358957
-303373
-223873
-175460
-135118
-162096
-187613
-268259
-337945
-389516
-422205
-447868
-412380
-427305
-333655
-329983
-446407
-517335
-484562
-407548
-342198
-334455
-337323
-262583
-261396
-165438
-84202.4
-36003.3
-12613.3
-127328
-229693
-282204
-168648
-44429.2
-14775.3
-74434.9
-136731
-167205
-175670
-187965
-204965
-221346
-222103
-118618
188786
279740
368337
-555295
-458659
-416089
-386041
-364447
-368794
-366380
-356598
-328819
-301403
-320171
-343807
-402461
-456798
-492112
-514785
-579368
-661669
-715748
-720885
-667531
-560611
-356194
-75914.8
44915.7
5780.49
-136154
-218152
-191812
-201684
-331350
-230963
-54867.4
70410.5
73089.6
-31571.9
-46561.6
-45179.6
-23140
-11567.3
32009
50377.6
75782.8
139301
179481
197921
306887
271101
347280
323474
291294
307940
262605
208763
223627
125513
71717.3
-42666
-136862
-185159
-254026
-105711
-56979.9
-58002.1
-103553
-143272
-198345
-211168
-191680
-194711
-151865
-109257
-27882.9
52351.9
124123
175588
246722
273024
308674
340568
822577
1.39754e+06
1.33978e+06
930947
574810
465617
314645
287501
196688
127775
2604.81
94983.5
158885
94830.6
13009.2
13087.1
-35826.4
-47703
-39187
-31239.2
-12020.2
-4374.46
29287.2
79007.3
145913
382034
652224
694584
589006
173478
-84292.7
-107520
-107499
-107509
-107511
-107508
-107511
-107509
-107510
-107511
-107512
-107511
-107510
-107509
-107510
-107510
-107510
-107508
-107510
-107509
-107510
-107509
-107510
-107510
-107510
-107510
-107510
-107511
-107509
-107510
-107509
-107510
-107509
-107510
-107510
-107510
-107509
-107511
-107510
-107511
-107511
-107509
-107510
-107509
-107510
-107509
-107511
-107509
-107510
-107509
-107509
-107509
-107510
-107509
-107509
-107508
-107509
-107508
-107510
-107509
-107510
-107509
-107510
-107509
-107511
-107508
-107509
-107509
-107510
-107511
472277
453315
420022
399661
370455
355977
367401
348114
341382
252263
142365
-59251.5
-274730
-490243
37326.5
67522.5
36447.6
3556.41
2455.93
3912.01
14300.9
19728.1
37752.6
18169.2
55377.2
24585
18368.3
39795.4
23003.1
80505.7
94698.3
132557
125140
78595.5
7662.21
-63451.1
-132165
-218989
-311995
-385908
-410597
-391060
-408313
-459042
-213583
-125393
-134991
-147636
-141876
-129193
-111044
-80223.1
-47708.2
-8629.39
41562.4
123044
180390
249721
299471
323564
329973
313889
294400
207555
90404.1
-6118.16
-75908.9
-149962
-217946
-275399
-288776
-283472
-325336
-445066
-256257
-228388
-185555
-128605
-181797
-331682
-324309
-263957
-218689
-181175
-167254
-161121
-165617
-177883
-206278
-217724
-229409
-235878
-251637
-281049
-337087
-385768
-398678
-390074
-382271
-362810
-354272
-339032
-326954
-351450
-451921
-499844
-488558
-457960
-435173
-421241
-407123
-419117
-418367
-412602
-366535
-324888
-268995
-227891
-190143
-183291
-175873
-218380
-255524
-290036
-284374
-256983
-271179
-311338
-350356
-332153
-295582
-283795
-268782
-242609
-536244
-495602
-419144
-348769
-335336
-403479
-535398
-513332
-391136
-340652
-337752
-283892
-168842
-49357.6
29835.8
38891
52246.4
39990
35233.5
39038.6
10039.9
-46885.3
-145861
-263095
-334493
-401479
-373059
-335237
-276242
-427901
-450625
-400969
-354666
-318456
-362231
-371392
-391433
-249049
-104473
-46847.6
-70539.3
-160206
-210827
-258739
-130176
-53062.6
-7697.38
-71678.6
-191386
-248313
-262946
-243047
-201254
-179955
-167100
-143478
-87396.4
30538.2
198385
3793.82
-479740
-433975
-410974
-388204
-402737
-405827
-401374
-367886
-329933
-315296
-329625
-369474
-415316
-451348
-507793
-578743
-698968
-807775
-858148
-871780
-859950
-771488
-601291
-307196
-36696.7
110344
-16863.2
-133059
-172236
-179013
-303430
-178248
23257.5
-3820.63
-153534
-220433
-267347
-280868
-261772
-236546
-190685
-128583
-62294.5
22948.6
85124.8
253685
272625
381277
412206
432364
453616
413798
398818
370032
284822
225956
128808
156461
122579
130365
-61333.2
9151.01
-31732.3
-140582
-191356
-173804
-183702
-172243
-147186
-151145
-130139
-144005
-119220
-131194
-110548
-29550.1
72561.8
148339
224196
230874
465287
1.17982e+06
1.57224e+06
1.35378e+06
929300
680767
505926
414253
380074
304831
-238487
-240128
-215380
-214388
-238021
-225341
-234274
-212379
-195020
-157368
-140661
-120878
-79779.2
-45659.9
-18439.7
25236.2
94096.6
262515
468593
639842
409965
-3702.53
-107113
-107492
-107507
-107510
-107508
-107510
-107508
-107509
-107509
-107508
-107508
-107510
-107507
-107511
-107507
-107511
-107507
-107510
-107507
-107510
-107507
-107510
-107507
-107507
-107510
-107507
-107510
-107507
-107510
-107507
-107511
-107507
-107511
-107507
-107510
-107508
-107508
-107510
-107509
-107509
-107507
-107510
-107507
-107511
-107507
-107510
-107507
-107511
-107507
-107511
-107508
-107511
-107508
-107511
-107508
-107511
-107508
-107511
-107507
-107510
-107507
-107511
-107508
-107511
-107506
-107510
-107509
-107510
428588
405669
372153
328772
323240
325549
316306
344067
366296
363307
272179
119743
-162768
-449399
108865
37484.4
-6922.35
1469.25
23000.4
38761.4
32002.9
30982.5
27632.3
482.827
-3840.55
-6165.61
-47979.6
-16064.3
-26841.5
31739.9
86891.4
152486
154971
89502.1
18619
-53054.5
-130435
-213298
-305445
-371960
-406119
-396549
-391110
-438502
-195300
-149191
-192308
-196896
-181859
-160031
-135422
-110931
-75880.3
-37544.3
21157.8
99685
170079
252426
306279
324543
316581
282903
224893
128376
26761.4
-29981
-83874.7
-162697
-233579
-283423
-288150
-276683
-272193
-403506
-246477
-190783
-140301
-151316
-296061
-346744
-261058
-215887
-208895
-179741
-180993
-166037
-177000
-203401
-218998
-239535
-238301
-238129
-254421
-316146
-374722
-387425
-383687
-359640
-346755
-336988
-333369
-326949
-318868
-343604
-439996
-502904
-507048
-465747
-431711
-404144
-403534
-393650
-382087
-337347
-275471
-218741
-176906
-165403
-166544
-193395
-226076
-254411
-299273
-330231
-321255
-291014
-289324
-341260
-360192
-349517
-333570
-300160
-268052
-249718
-514038
-472257
-374390
-341373
-364310
-469752
-536389
-470866
-390764
-340766
-232429
-29189.3
92169.8
64881.7
73757.4
56124.9
33846.3
20232
4696.09
38339.4
62892.6
59482
28115.9
-62664.9
-185367
-290064
-384694
-347912
-278076
-263311
-419980
-363593
-332519
-362899
-411801
-453956
-362087
-180880
-67231.4
-63479.3
-109723
-138588
-134821
-52513.1
-78521.9
-54172
-194512
-309554
-392201
-424732
-397217
-345568
-279923
-194618
-142939
-119205
-76473.9
-69318.2
15548.8
95688.5
-452471
-438473
-403417
-414290
-423204
-406584
-364547
-342671
-325265
-342653
-367779
-392683
-442318
-509047
-574100
-680734
-776155
-805528
-816725
-819063
-849443
-850690
-778097
-589579
-268407
42362.5
45021.2
6106.81
-158110
-154310
-279806
-68103.2
-80356.6
-220849
-331899
-407167
-448377
-450015
-433895
-409006
-378861
-332777
-271466
-221773
-135809
-88937.9
-3527.81
108305
179999
291271
379289
410143
415738
391306
400906
402976
437390
385531
346563
275336
-47257.4
11222.3
-123477
-119913
-149786
-126254
-169988
-135253
-139662
-141213
-68717.6
-95068.8
-34929.2
-33095.1
-39065.8
-30744.7
-42468.3
-14626.1
23354.8
128385
194776
658007
1.27373e+06
1.42107e+06
1.17328e+06
926644
633654
553930
476215
439271
-299305
-260736
-195711
-196751
-198210
-222989
-238225
-241632
-234921
-221976
-208208
-181040
-158485
-126961
-94987.6
-50732.2
-29164.5
42404.9
105514
246498
399269
481119
128540
-105779
-107485
-107505
-107506
-107505
-107506
-107506
-107505
-107506
-107506
-107505
-107506
-107505
-107507
-107505
-107507
-107504
-107507
-107505
-107506
-107505
-107507
-107507
-107505
-107506
-107505
-107506
-107504
-107507
-107506
-107507
-107505
-107507
-107505
-107507
-107506
-107506
-107507
-107505
-107507
-107505
-107507
-107504
-107508
-107505
-107508
-107505
-107507
-107505
-107508
-107505
-107507
-107505
-107506
-107504
-107507
-107505
-107506
-107504
-107508
-107505
-107507
-107505
-107507
-107505
-107507
-107507
304644
293946
264547
266419
273695
284876
296927
336828
389605
394363
375562
230181
-22965
-385953
111473
19101.2
25565
40469
50177.5
41079.2
59768.3
24149.3
24000.8
6363.39
-28780.4
-7731.35
-52471.9
-33878.6
-49483.1
-9243.21
65178.4
161395
158863
92795.4
23569.4
-49401
-131365
-219536
-287973
-336452
-380925
-388211
-391868
-440743
-198240
-186790
-224278
-219930
-193460
-140815
-107647
-77509.6
-65209.8
-8363.96
20496.3
122996
200754
273616
309031
300825
246188
172964
94974
13117.3
-29582.4
-67127.5
-103781
-157413
-231423
-277443
-295614
-288769
-281836
-341458
-236698
-158305
-141424
-245730
-356649
-274782
-225208
-241707
-234427
-207044
-206253
-195804
-208113
-211048
-220073
-227357
-249096
-279012
-326116
-359166
-365293
-344796
-337533
-322545
-312705
-313853
-318053
-316242
-316533
-343878
-426146
-503476
-513165
-474113
-419060
-394698
-365948
-360183
-318442
-244649
-164531
-124437
-127698
-149533
-195541
-219971
-239154
-269703
-311185
-342832
-340221
-308888
-323079
-356540
-387239
-375622
-350857
-310788
-275697
-265929
-500305
-433138
-357872
-356577
-430657
-523024
-521574
-450860
-391513
-237575
-4336.26
87183.3
110853
60994.4
52093.2
20754.4
-37620.7
-91721.3
-114713
-72503.1
686.023
75148.4
75719.5
55360.2
-40916.1
-179462
-313229
-386064
-293753
-256608
-381093
-341459
-323075
-407801
-415192
-402470
-300098
-191261
-102326
-53661.6
-31101.3
-4872.51
-7744.03
-13883.3
-96920
-244637
-382664
-499725
-558450
-562761
-543517
-498052
-405600
-298584
-203939
-156915
-160436
-110122
-130427
23696.2
-427565
-425126
-396139
-418924
-385578
-337165
-335421
-332595
-348449
-375565
-440078
-474628
-522639
-564714
-645594
-689425
-702079
-636875
-609609
-607088
-696465
-799887
-823030
-772610
-547710
-241019
18308.5
132930
-73503.9
-145070
-227400
-117084
-237677
-382959
-461700
-488850
-501488
-506768
-494962
-479187
-453470
-410275
-381692
-329514
-319746
-306025
-299393
-267030
-222968
-157084
-37390.4
125670
244881
338723
350520
425242
472535
517550
487443
479835
-20904.2
-107532
-119082
-121372
-120607
-146092
-142472
-162807
-151334
-151088
-102630
-71557.4
-49886.1
26797.8
22237.7
63149.3
34562.5
45252.1
-3169.76
45311.8
66044.8
272433
811341
1.2197e+06
1.19157e+06
1.02398e+06
786526
696115
476549
551402
-303784
-229290
-205269
-172253
-174166
-208572
-226452
-245454
-243476
-246036
-230088
-223851
-197433
-187181
-150786
-128307
-94318.7
-46870.3
-15596.6
40893.9
140979
256262
361823
201409
-105939
-107479
-107503
-107503
-107503
-107503
-107504
-107503
-107503
-107503
-107503
-107503
-107502
-107503
-107502
-107503
-107502
-107504
-107503
-107503
-107503
-107503
-107503
-107502
-107503
-107502
-107503
-107502
-107502
-107503
-107503
-107502
-107503
-107503
-107503
-107504
-107503
-107502
-107502
-107503
-107503
-107503
-107502
-107503
-107503
-107503
-107502
-107504
-107503
-107503
-107503
-107504
-107503
-107503
-107502
-107503
-107502
-107503
-107502
-107504
-107503
-107504
-107502
-107504
-107504
-107504
275615
244934
221769
225597
233686
288828
282517
353782
355250
387070
407941
284866
19026.3
-332241
91015.4
31485.9
52250.3
72826.7
71432.1
49012.7
37367.1
40103.4
21488.1
-4132.09
-3949.28
7255.85
-35814.5
-24172
-54959.1
-22758.3
63868.4
162126
153980
86294.9
18517.5
-59287.9
-151625
-221608
-264641
-294101
-324528
-356086
-371981
-437351
-212135
-220350
-246111
-227792
-180578
-112440
-76037.6
-22043.6
-27388
42678.5
67828.9
178842
235910
268003
233816
167646
96178.3
32083.1
-9565.83
-41761.5
-57493.5
-71833
-121862
-190160
-244439
-272057
-270428
-265486
-255517
-290676
-202468
-134959
-197975
-322091
-307068
-235442
-257154
-276220
-263574
-257277
-249479
-236906
-247647
-254447
-269455
-290546
-311632
-331461
-338351
-337549
-335723
-333273
-328837
-322489
-314869
-311499
-309906
-306751
-309649
-332826
-409979
-497118
-512888
-464022
-406754
-355776
-340756
-316940
-231628
-126948
-84885.2
-97851.6
-124703
-177708
-226128
-265191
-268978
-280890
-320692
-342432
-333381
-326503
-338275
-373502
-388655
-372993
-339218
-293463
-279492
-292111
-459463
-374120
-355087
-407065
-486812
-522217
-501015
-443747
-333000
-68079.6
92521.5
74772.3
74684.1
52682.8
50045.2
9508.72
-69331.9
-163355
-200393
-176627
-71885
37765.4
103706
88138.7
48306
-68720.7
-241321
-348569
-361227
-291202
-360050
-333055
-350896
-408486
-377013
-338621
-246727
-188495
-101702
-8031.8
30614.6
32098.4
2448.21
-99592.3
-225478
-347102
-471191
-544402
-579573
-611383
-625423
-621119
-540990
-399940
-260537
-183730
-163466
-164272
-79397.8
-108881
-397804
-388084
-389230
-395544
-312236
-315456
-337134
-381718
-424654
-458841
-516699
-550338
-585913
-612641
-612047
-564633
-506040
-398486
-357369
-334777
-350742
-477945
-639212
-760357
-730512
-571064
-207917
17675.2
152306
-74251
-198405
-174664
-354888
-492543
-521907
-511375
-499058
-492046
-483850
-455585
-437645
-408417
-376541
-362667
-367245
-377747
-379424
-392384
-393318
-370406
-325722
-260739
-178559
10651.1
210901
315069
428887
451652
491403
465053
-44651.3
-115049
-100364
-101579
-76723.1
-162760
-116473
-112825
-109593
-95566.5
-118130
10528.3
-38691.2
52287.7
74119.9
124583
100425
120921
64107.5
104216
97608.5
183928
493487
954484
1.1186e+06
1.02697e+06
883630
754029
542620
492064
-295988
-235625
-201819
-149162
-148526
-184047
-217594
-228047
-244896
-233284
-238754
-218526
-220410
-194631
-193532
-164931
-158347
-118782
-99109.1
-31984.4
-12521.6
97148.4
132552
284759
150584
-106531
-107473
-107498
-107497
-107497
-107496
-107497
-107496
-107496
-107497
-107496
-107498
-107496
-107497
-107496
-107497
-107497
-107498
-107497
-107497
-107498
-107497
-107498
-107496
-107498
-107496
-107497
-107496
-107498
-107497
-107498
-107496
-107497
-107497
-107497
-107497
-107497
-107498
-107496
-107498
-107496
-107498
-107496
-107497
-107496
-107498
-107496
-107498
-107496
-107497
-107496
-107497
-107496
-107497
-107496
-107498
-107496
-107498
-107496
-107498
-107497
-107498
-107497
-107497
-107498
240046
198407
170907
178080
224418
232969
273850
281650
297415
366886
378168
212648
-57057.5
-239084
97367.3
67522
87916.8
86666.1
75558.7
70154
71302
50078.9
85685.1
13887.7
35415.9
30189.3
-15793.8
-18216.7
-47429.2
-10786.7
92039.2
174360
142965
71101
-8607.82
-99313.6
-181579
-235688
-255329
-265458
-289261
-317280
-353726
-432532
-204439
-227942
-246167
-211978
-142578
-80027.2
-13199.4
25237.4
52370.3
100797
137806
185471
168003
114248
70467
25265.2
-14480.1
-46487.9
-65181.4
-85875.8
-99591.3
-134595
-190831
-234110
-248867
-262559
-260753
-272935
-276180
-284175
-178267
-143894
-265693
-320875
-249312
-244762
-294359
-305227
-296613
-284333
-275502
-268357
-269882
-277550
-285660
-296460
-304313
-310410
-321274
-332527
-343817
-346549
-353313
-345743
-338571
-327096
-315538
-309447
-303202
-322608
-387450
-498515
-505765
-439475
-351963
-325723
-316241
-241290
-119763
-55697
-64220.1
-90471.8
-135263
-184297
-233073
-265326
-286321
-300652
-320912
-328240
-331184
-330401
-353017
-368199
-372455
-347332
-309670
-293474
-304803
-336563
-405906
-332543
-388525
-466445
-511819
-509529
-481095
-427823
-240297
54789.9
80999.3
43803.5
53595.7
56525.8
66611.9
27362.1
-70340.7
-169187
-215081
-226861
-173361
-34511.3
77207
109579
83979.1
12822.2
-134109
-293494
-345918
-372336
-331989
-334356
-353491
-359209
-295606
-195103
-144279
-79469.9
-60396
-33135.4
-40715.6
-70485.2
-119810
-210017
-289793
-377524
-423622
-460598
-468909
-474501
-515765
-570913
-598491
-510075
-361212
-235360
-222338
-220554
-174171
-87140.3
-347749
-349603
-382974
-339310
-304938
-326278
-401902
-461352
-511409
-550192
-581003
-590500
-590070
-546361
-503787
-393373
-364832
-321689
-334954
-292281
-271320
-241144
-296603
-444971
-608963
-657396
-535152
-216758
42038.8
81919.9
-156292
-233487
-417788
-547171
-557892
-517171
-480827
-450010
-419621
-396462
-354323
-326010
-307523
-305877
-311571
-334320
-336985
-373590
-419519
-446552
-443897
-435588
-382628
-269573
-152400
33979.3
203134
337978
402075
480575
-39802.4
-122825
-87768.7
-63631.2
-31067
-75084.4
-4332.31
-11807.9
10022.4
23387.7
15970.4
114824
111642
114135
155003
151027
176251
181471
144148
166391
169825
236745
353692
769487
1.04152e+06
1.01794e+06
895120
805479
644015
454504
-234419
-223628
-160606
-125245
-141733
-166863
-197714
-222432
-216471
-226298
-207534
-213101
-189554
-191646
-170584
-170814
-148289
-149382
-113389
-110996
-35254.9
-35354.9
80904
134517
278398
-1635.88
-107260
-107477
-107492
-107492
-107492
-107492
-107492
-107492
-107492
-107493
-107492
-107493
-107492
-107493
-107492
-107493
-107493
-107493
-107493
-107493
-107493
-107493
-107493
-107492
-107492
-107492
-107493
-107492
-107493
-107493
-107492
-107492
-107492
-107492
-107492
-107492
-107492
-107492
-107492
-107492
-107492
-107493
-107492
-107492
-107492
-107493
-107492
-107493
-107492
-107492
-107492
-107493
-107492
-107492
-107492
-107493
-107492
-107493
-107492
-107492
-107492
-107493
-107492
-107492
226203
164800
149707
170544
172796
167269
206138
197234
277656
337353
331224
140815
-16275
4667.08
38206.7
47121.2
95703.3
89571.9
100452
97846.9
103641
119644
157477
151926
116292
117142
30502.2
51429.2
-7596.12
-10519.2
-16483
56777
136476
170346
105848
23199.4
-65744
-163633
-223013
-242263
-228439
-234595
-252655
-290229
-328026
-419525
-410440
-384614
-328881
-306692
-261055
-196871
-147758
-95396.5
-42117.7
6971.38
37036.2
38387.1
56883.3
4469.36
13928.8
-11780.1
-42294.4
-84730.7
-137687
-167793
-189265
-189318
-193478
-204070
-229012
-236715
-234281
-257498
-256767
-274190
-281047
-281302
-261691
-196400
-134221
-195553
-299052
-281630
-227990
-272417
-314651
-318691
-296931
-271886
-248834
-218421
-216967
-216477
-225181
-244315
-274316
-309033
-339582
-361801
-373937
-377063
-377818
-372134
-369548
-361078
-347440
-323641
-310157
-314577
-315838
-320905
-396529
-490698
-467235
-371156
-319206
-314465
-272192
-153396
-46079.9
-27503.6
-50821.1
-75350
-110552
-159762
-208123
-244661
-268701
-280655
-300015
-310643
-311960
-327853
-344632
-353728
-342843
-325468
-302248
-303942
-326369
-340373
-330974
-328573
-350141
-337829
-427427
-503090
-504459
-488642
-463346
-389104
-119239
80648.3
67179.6
972.747
15227.8
47565.4
70370.5
51510.4
-44407.4
-145515
-196259
-218468
-230071
-192592
-26776
80159.7
95071.4
52772.1
-35467.9
-198867
-312815
-360587
-345819
-347965
-336707
-348110
-365741
-328435
-237314
-117994
321.254
3531.68
20162
-35534.6
-72577.3
-118290
-171704
-209385
-258824
-285822
-302479
-281428
-294339
-324609
-360116
-441627
-533252
-565977
-487431
-365039
-297125
-308390
-337255
-345056
-352716
-403372
-344899
-352848
-398192
-336403
-324134
-391149
-478059
-531287
-564808
-578068
-579632
-558194
-522979
-448881
-377788
-355163
-365142
-391695
-425144
-418341
-397120
-310442
-227094
-227932
-223081
-390308
-545975
-498367
-127901
135812
-57667.4
-389347
-341347
-230840
-313404
-579392
-613890
-553165
-499430
-468933
-429253
-411459
-358740
-316846
-301109
-300200
-303606
-307319
-291804
-264620
-303389
-378547
-398290
-479071
-482455
-451615
-351169
-209785
-42636
155779
285214
319599
422004
455257
252921
13067.2
-79386.4
-25207.2
26798.9
36529
157575
153127
161711
209834
193528
272609
233909
250809
203105
215271
198791
260961
203235
302148
193633
356610
349092
616719
968070
1.0765e+06
942659
814848
681351
541811
28426.4
-163675
-192958
-128866
-75486.2
-84930
-102868
-154744
-194374
-199680
-208160
-190636
-193084
-171245
-171020
-146681
-145932
-123281
-123942
-94765
-92151.7
-41924.7
-39758
35678.5
49476.9
164626
163241
94221.4
-106039
-107494
-107482
-107484
-107483
-107484
-107484
-107485
-107485
-107484
-107485
-107485
-107485
-107484
-107486
-107484
-107485
-107485
-107486
-107485
-107486
-107485
-107485
-107486
-107485
-107486
-107485
-107485
-107484
-107485
-107485
-107485
-107484
-107485
-107485
-107484
-107484
-107484
-107484
-107485
-107485
-107484
-107485
-107484
-107485
-107484
-107486
-107484
-107485
-107485
-107486
-107485
-107485
-107484
-107485
-107485
-107486
-107485
-107485
-107484
-107485
-107485
-107486
-107484
-107485
-107485
-107485
-107484
-107485
-107484
214525
161351
158701
147906
135198
119606
138264
216689
232855
300512
335142
215524
-4034.85
-16753.5
77928.9
99738.2
116464
122274
127872
129134
155469
232529
267732
245156
151531
131146
48165.9
55931.7
21523.8
34172.1
81192.2
153878
163101
127864
35993.2
-56565.1
-147884
-201729
-198137
-169776
-178808
-196397
-217594
-247434
-291276
-378566
-390981
-347602
-297610
-245629
-216147
-202235
-183943
-171037
-141957
-136092
-128171
-128928
-98988.9
-82963.5
-82413.2
-115198
-179697
-219956
-231123
-229836
-211367
-199961
-188587
-192766
-198321
-229953
-225099
-207988
-191744
-188898
-190614
-183166
-161741
-147445
-157966
-261768
-288849
-235889
-231636
-288319
-320631
-315680
-251231
-193299
-151203
-140011
-156795
-173819
-212361
-250675
-288310
-317507
-336662
-355356
-367926
-372621
-373819
-375058
-374989
-381301
-373934
-350273
-328106
-318535
-322355
-353796
-420495
-464247
-392971
-332456
-312648
-297007
-224066
-92984.7
-7163.73
4171.19
-18409.7
-49407.1
-83465.2
-122805
-169376
-201031
-225030
-244952
-265267
-278122
-299386
-318349
-334339
-324001
-308657
-304841
-325471
-357373
-385552
-408965
-401037
-407662
-388620
-411963
-481746
-505763
-491745
-474808
-449690
-312501
-42616.3
73576.9
49320.9
-34545.7
-2361.45
19611.2
58927.6
62633.6
-19264
-126749
-170848
-194064
-207772
-237843
-237125
-69311
38388.4
62511.6
7094.13
-128052
-271726
-332299
-335357
-364158
-346321
-357710
-362644
-337325
-224547
-92535.8
-3930.69
95099.2
58604.7
73498.6
6877.67
-18568.1
-80154.2
-113959
-142380
-173294
-193417
-225219
-204579
-234562
-274359
-315265
-381064
-499587
-550851
-478258
-378922
-368342
-408288
-422160
-437920
-387887
-367429
-416109
-443956
-385980
-404828
-477338
-544336
-565435
-567833
-551761
-516315
-464506
-402208
-355081
-361751
-368026
-421965
-465678
-504373
-519725
-496113
-447722
-265770
-61841.5
20306
107961
24830.9
-204289
-315738
-91574.1
30949.2
-66627.8
-389231
-425830
-248866
-446755
-667921
-657176
-569848
-555852
-533409
-505506
-427101
-396345
-353978
-372566
-366683
-347047
-314949
-266467
-212949
-217886
-229243
-306031
-400469
-467653
-477584
-424774
-282083
-62829.4
85357.2
267374
398245
490506
467958
391105
306330
221395