/*--------------------------------*- C++ -*----------------------------------*\
| =========                 |                                                 |
| \\      /  F ield         | OpenFOAM: The Open Source CFD Toolbox           |
|  \\    /   O peration     | Version:  2.1.1                                 |
|   \\  /    A nd           | Web:      www.OpenFOAM.org                      |
|    \\/     M anipulation  |                                                 |
\*---------------------------------------------------------------------------*/
FoamFile
{
    version     2.0;
    format      ascii;
    class       volScalarField;
    location    "0.006350000";
    object      H2;
}
// * * * * * * * * * * * * * * * * * * * * * * * * * * * * * * * * * * * * * //

dimensions      [0 0 0 0 0 0 0];

internalField   nonuniform List<scalar> 
12384
(
0.00177383
0.00156655
0.00152994
0.00158158
0.00167965
0.0017972
0.00188313
0.00197472
0.00203023
0.00205943
0.00207899
0.00204786
0.00218743
0.00326864
0.000205072
0.000331228
0.000346471
0.000384963
0.000386451
0.000377424
0.00035147
0.000334567
0.000324507
0.000323444
0.000326426
0.000332771
0.00034272
0.000353084
0.000366733
0.000376962
0.000369171
0.000372444
0.000381998
0.000371329
0.000388793
0.00037478
0.000374105
0.000366535
0.000362226
0.000351906
0.000347857
0.00031795
0.000158721
0.000131587
0.00055459
0.000666892
0.000878254
0.00105781
0.0011678
0.00127653
0.00135275
0.00151319
0.00165159
0.00180004
0.00196041
0.00212078
0.00228478
0.0024094
0.00248504
0.00248781
0.0024563
0.0024084
0.00233165
0.00227004
0.0021608
0.00212217
0.00200756
0.0019792
0.00191018
0.00172425
0.00138275
0.00107867
0.00103497
0.0012467
0.00218198
0.00217406
0.00228853
0.00230094
0.00230412
0.00229848
0.00227857
0.00228357
0.0022926
0.00230194
0.00230478
0.00229811
0.00227885
0.00225336
0.00223624
0.00220814
0.00219582
0.00210904
0.00212725
0.00204834
0.00204158
0.00204266
0.00206707
0.00215242
0.00224916
0.00219526
0.00203738
0.00229143
0.00241851
0.00248441
0.00501492
0.00483937
0.00448162
0.00418043
0.00394711
0.00374635
0.00351185
0.003439
0.00329491
0.00334952
0.00314312
0.00327257
0.00320108
0.00315696
0.00306241
0.0032607
0.00316714
0.00330688
0.00352404
0.00429483
0.0036999
0.00229694
0.00223242
0.00257172
0.00268427
0.00277989
0.00281904
0.00282115
0.00268831
0.00253394
0.00807685
0.0089173
0.00855093
0.0078456
0.00730805
0.00694725
0.00682192
0.00687563
0.00695441
0.0070374
0.00709279
0.00710853
0.00711705
0.00710668
0.00708408
0.00706272
0.00703285
0.00700091
0.00695435
0.00690403
0.00684854
0.00683166
0.00681353
0.00679598
0.00674308
0.00667133
0.0067218
0.0063125
0.00599394
0.00629616
0.00285655
0.00246505
0.00228783
0.00282374
0.00320857
0.00338769
0.00351669
0.00340005
0.00356468
0.00335484
0.00352729
0.00325378
0.00331681
0.00315699
0.00314925
0.00318184
0.00309781
0.00308229
0.00308391
0.00310845
0.00321256
0.00338313
0.00357051
0.00242335
0.000380027
0.000279023
0.000261733
0.000246479
0.000247788
0.000246637
0.00277595
0.00473611
0.00656038
0.00764153
0.00791135
0.00800285
0.00802568
0.00802062
0.0080123
0.00796158
0.00791766
0.00791257
0.00794869
0.00792919
0.00793758
0.00789088
0.00783672
0.00780997
0.00774717
0.00772365
0.0077686
0.00692402
0.00535182
0.00523446
0.00537062
0.00553149
0.00568187
0.00576719
0.00572815
0.0056203
0.00460004
0.00558334
0.00582262
0.00573647
0.0055821
0.00544244
0.0053159
0.0052229
0.00512747
0.0050806
0.00497482
0.00495172
0.00489565
0.00485695
0.00487032
0.00485967
0.00488116
0.00500092
0.00591293
0.011115
0.0137392
0.013042
0.0118092
0.0113879
0.0111718
0.0111719
0.0114072
0.0119804
0.0130389
0.0138971
0.00411812
0.00637442
0.00716881
0.00738789
0.00730015
0.00702323
0.00667483
0.00631451
0.00606111
0.0058739
0.00572386
0.00571876
0.00557739
0.00559754
0.00562965
0.00566592
0.00579792
0.00591758
0.00606228
0.00612102
0.00616706
0.00674898
0.00841699
0.00889839
0.00892434
0.00885662
0.00879725
0.00878585
0.00887142
0.00896049
0.00847374
0.00877406
0.00886807
0.00897793
0.00895507
0.00885989
0.00872891
0.00859231
0.0084979
0.00836275
0.00836901
0.00828984
0.00828666
0.00823087
0.00822075
0.00824057
0.00829753
0.00832408
0.00827482
0.00900687
0.0104616
0.0110054
0.0112969
0.0116195
0.0118129
0.0118322
0.011764
0.0116507
0.0114897
0.0111752
0.00681091
0.00609095
0.00599215
0.0071704
0.00903218
0.00732096
0.00631009
0.00647791
0.00686541
0.00722074
0.00751857
0.00767724
0.00786553
0.00784975
0.00787667
0.00770181
0.00750929
0.00725336
0.00701327
0.00682935
0.00676371
0.00680503
0.0068804
0.00700736
0.00707104
0.00710801
0.00711846
0.00716109
0.007678
0.00821546
0.00833274
0.00856306
0.00696769
0.00333698
0.000230611
1.72627e-05
0.000119109
0.020902
0.02824
0.026744
0.0248625
0.0238729
0.0232576
0.022748
0.0222488
0.0217292
0.0210823
0.0202854
0.0194133
0.0184308
0.0176272
0.0174609
0.0181476
0.0209986
0.0246239
0.02781
0.029813
0.0300046
0.0291061
0.0145147
0.000922279
0.00100439
0.00120855
0.00139011
0.00148188
0.00160001
0.00175268
0.00195376
0.00219331
0.00245715
0.00250038
0.00233842
0.0022697
0.00311023
0.000207075
0.000345906
0.00038531
0.000400282
0.000402865
0.000341394
0.000301042
0.000299111
0.000317429
0.000343639
0.000376768
0.00040761
0.000476246
0.000551339
0.000640877
0.000744936
0.000816354
0.000838863
0.000827828
0.000785254
0.000723742
0.000635596
0.000568909
0.000505282
0.000441712
0.00040122
0.000369647
0.000342215
0.000241396
0.000175022
0.000567426
0.000728567
0.00100339
0.00119026
0.00128558
0.00132922
0.00136137
0.00143041
0.00157871
0.00185388
0.00228319
0.00276892
0.00311959
0.00328491
0.00332454
0.00329914
0.00319223
0.00302816
0.0028456
0.00265756
0.00249199
0.00235786
0.00225059
0.00216283
0.0020834
0.00194678
0.00166048
0.0012574
0.00102794
0.00108769
0.00219132
0.00222574
0.00231378
0.00229609
0.00225152
0.00224478
0.00227152
0.00232776
0.00238113
0.00241525
0.00242395
0.00239099
0.00230482
0.00220164
0.00206558
0.00195264
0.00183081
0.00172377
0.00165171
0.00161142
0.00162508
0.00168597
0.00179558
0.00193075
0.0021194
0.00219064
0.00208999
0.0020554
0.00250501
0.00264924
0.00521575
0.00479464
0.00422825
0.00373185
0.00330138
0.00301566
0.00276841
0.00258351
0.00244913
0.00234102
0.00230419
0.00228596
0.00229566
0.00229255
0.0023698
0.00247536
0.00261433
0.00276223
0.00307858
0.00373629
0.00409957
0.00319922
0.00238826
0.0028093
0.00318208
0.00327558
0.00336252
0.00359739
0.00367466
0.00330876
0.0081217
0.00884069
0.00802019
0.00705368
0.00659745
0.00672108
0.00710881
0.00738006
0.00750734
0.00753963
0.00751819
0.00749264
0.00746475
0.00744815
0.00743498
0.00741838
0.00739775
0.00735854
0.00729702
0.0072099
0.00710858
0.0070135
0.00694167
0.00687557
0.00680471
0.00671083
0.00670309
0.00665672
0.00658515
0.00702959
0.00282561
0.00262384
0.00386372
0.00415647
0.00382243
0.00353341
0.00374104
0.00406094
0.00421473
0.00425403
0.00414137
0.00398895
0.00378272
0.00356542
0.00327904
0.00309768
0.00287097
0.00275044
0.00264304
0.0026297
0.00275177
0.00298008
0.00333162
0.00315144
0.00110112
0.000264609
0.000227618
0.000251557
0.000299017
0.000247254
0.00545908
0.00779509
0.00835568
0.00825365
0.00811695
0.00806429
0.00807756
0.00811989
0.0081574
0.00818693
0.00823667
0.00828374
0.00832075
0.00834381
0.00829423
0.00820722
0.0080924
0.00797743
0.00786575
0.00778503
0.00779132
0.00755823
0.0060681
0.00528198
0.00559646
0.00600417
0.00637957
0.00677373
0.00696768
0.00670253
0.00540429
0.00577461
0.0055608
0.0052548
0.00499213
0.00476913
0.00459502
0.00444161
0.00432975
0.00423361
0.00414992
0.00410345
0.00411343
0.00420164
0.00432221
0.0044407
0.00454912
0.00472937
0.00517137
0.00779701
0.0127011
0.0118534
0.00981951
0.00953553
0.00975332
0.00981381
0.0095889
0.00935587
0.00951288
0.0104211
0.00379512
0.00631602
0.00734514
0.00726187
0.00655852
0.00570989
0.00502476
0.00450264
0.00409572
0.00378273
0.00357615
0.00340184
0.00330193
0.00333816
0.00334712
0.00363336
0.00400688
0.00457375
0.00513522
0.00557644
0.00589077
0.00618037
0.00712578
0.00853011
0.00889523
0.00862687
0.00836116
0.00826644
0.00843514
0.00875083
0.00832514
0.0088084
0.00908448
0.00901626
0.00870167
0.00828902
0.00786145
0.00745182
0.00709069
0.00684655
0.0066482
0.0065898
0.00667952
0.00685858
0.00710497
0.00742796
0.00777693
0.00803841
0.00816916
0.0084407
0.00980499
0.0114902
0.0124019
0.012666
0.0125338
0.0121622
0.011758
0.0115394
0.0117116
0.0119687
0.00863407
0.00788501
0.00775007
0.00863314
0.00796581
0.00683554
0.00684799
0.00767688
0.00852335
0.00918293
0.00958362
0.00975853
0.00977258
0.00979532
0.00971022
0.00961835
0.00939352
0.00902169
0.00846746
0.00795827
0.00758919
0.00749942
0.0076928
0.00801628
0.00828173
0.0082858
0.0079991
0.00758455
0.00770367
0.00821855
0.0156681
0.0160297
0.0158844
0.0118004
0.00035017
0.000128344
0.0132691
0.0260194
0.0272925
0.0253913
0.0243953
0.0239845
0.0238241
0.023752
0.023669
0.0235205
0.0232188
0.0227078
0.0217285
0.019982
0.0171814
0.0145359
0.0131992
0.0148376
0.0210809
0.0263742
0.0294487
0.0298818
0.0285595
0.0117135
0.000910368
0.00106633
0.00108092
0.000958177
0.000923914
0.000974861
0.00107398
0.00121079
0.00147302
0.00190534
0.00243395
0.00261803
0.00243707
0.0030318
0.000210841
0.000354342
0.000436435
0.000429058
0.00036905
0.000291723
0.000278781
0.000304218
0.000336942
0.000369326
0.000413157
0.000499676
0.0006267
0.000830035
0.0011102
0.00126206
0.00129212
0.0012704
0.00118265
0.00105709
0.00093414
0.000821139
0.000735012
0.000624771
0.00056353
0.000469235
0.000410098
0.000367141
0.000311838
0.000216104
0.00058021
0.000785097
0.00108991
0.00119369
0.0011795
0.00110883
0.00105001
0.00111329
0.00125366
0.00169239
0.00245953
0.00317116
0.00347559
0.00347675
0.0033352
0.00304719
0.00276192
0.0024887
0.00225438
0.00204644
0.00188835
0.00178929
0.00179691
0.00189044
0.00200877
0.00203857
0.00188033
0.00146657
0.00111419
0.00103957
0.00220412
0.0022631
0.00229946
0.00223646
0.00220623
0.00226862
0.00240146
0.00251456
0.00256226
0.0025761
0.00257215
0.00250193
0.0023129
0.00207363
0.00181422
0.00157255
0.00138955
0.00126346
0.00121027
0.00118986
0.00120363
0.00125175
0.0014075
0.0016214
0.00188167
0.00209592
0.00211553
0.00202363
0.00225179
0.00259469
0.00515307
0.00445295
0.00387325
0.00335557
0.00295309
0.00261524
0.00233978
0.00214568
0.00203617
0.00198114
0.00196464
0.00187461
0.00185476
0.00187131
0.00190345
0.00193716
0.00212163
0.0022601
0.00257827
0.00311793
0.00391886
0.00382447
0.00280092
0.00285751
0.00328241
0.00319198
0.00314945
0.00346859
0.00426466
0.00430044
0.00817398
0.00859101
0.00736143
0.00655714
0.006728
0.00743345
0.00778827
0.00779554
0.0077009
0.00756856
0.00747462
0.00743058
0.00742494
0.00744591
0.00748052
0.00752155
0.00755561
0.00758028
0.00759594
0.00756021
0.00746655
0.00731316
0.0071486
0.00699472
0.00687539
0.00677121
0.00670474
0.00672001
0.00680991
0.00718699
0.00283509
0.00374168
0.00470203
0.00364827
0.00368373
0.00483348
0.00562696
0.00571401
0.00545987
0.00513376
0.0047759
0.0045842
0.00431969
0.00426382
0.00411581
0.00399025
0.0036764
0.00324967
0.0029185
0.00261156
0.00249917
0.00262334
0.00296313
0.003247
0.00255208
0.000694661
0.000271216
0.000355595
0.000490666
0.000343906
0.00873644
0.00881007
0.00828002
0.00803864
0.00806384
0.0081674
0.00828844
0.00840846
0.00849878
0.00857607
0.00864824
0.00871146
0.00875915
0.008796
0.00876017
0.00866172
0.00852601
0.00834769
0.00814019
0.00794858
0.00784263
0.00779439
0.00704627
0.00558425
0.00538648
0.00568997
0.00612023
0.00686196
0.00750192
0.0075785
0.00588925
0.00544053
0.00505081
0.00474404
0.00445714
0.00417046
0.00387786
0.00362012
0.00339193
0.00326629
0.00320583
0.00320067
0.00328382
0.00340746
0.00365516
0.00388665
0.00410605
0.00436517
0.00468428
0.00577831
0.00963904
0.0117059
0.00980597
0.00960053
0.0101573
0.0103326
0.00996414
0.00920144
0.00876875
0.00893126
0.00361709
0.00651709
0.00727515
0.00646896
0.00535198
0.00452939
0.00396699
0.0034436
0.00311313
0.00281516
0.00257358
0.00235714
0.00226872
0.00217153
0.00216442
0.00229145
0.00257695
0.00302992
0.0037352
0.00453385
0.0052393
0.00572819
0.00627177
0.0075378
0.00869472
0.00872525
0.00838636
0.00813329
0.00827176
0.00860442
0.00823578
0.00894268
0.00908299
0.00869382
0.0080739
0.00737554
0.00662734
0.00591088
0.00526429
0.00481368
0.00448412
0.00436377
0.00447797
0.00479891
0.00532719
0.00598059
0.00672402
0.00737835
0.00782944
0.00808378
0.00878913
0.0107421
0.0124288
0.0128154
0.0127265
0.0120901
0.0112429
0.0107118
0.0109279
0.0118225
0.00921375
0.00895711
0.00884718
0.0082902
0.00725273
0.00715901
0.00807228
0.00911764
0.00974284
0.0100109
0.0100073
0.00991892
0.00984098
0.00983998
0.00987936
0.00995599
0.0099396
0.00976343
0.00934034
0.00864188
0.00805124
0.00780803
0.00800203
0.0084128
0.00879651
0.00892289
0.0087134
0.00814209
0.00787934
0.00822459
0.0130785
0.0145233
0.0142405
0.00807648
0.000828889
0.00974396
0.0242944
0.0272583
0.0260167
0.024831
0.0244213
0.0241979
0.0240135
0.0238745
0.0237529
0.0238366
0.0239866
0.0241959
0.0242507
0.0240489
0.0225105
0.0190028
0.0143489
0.0123396
0.0166402
0.0238166
0.0282428
0.0285668
0.0249087
0.00594376
0.000911412
0.000825461
0.000619681
0.000617181
0.000720084
0.000833878
0.000943476
0.00100604
0.00109578
0.00130454
0.00191757
0.00256829
0.00258225
0.00303184
0.000216871
0.000387556
0.000488057
0.000452437
0.000327153
0.000263093
0.000265672
0.000283093
0.000293012
0.000311404
0.000351578
0.000440216
0.000608467
0.00092746
0.00130642
0.00135803
0.00125598
0.00106777
0.000884358
0.000814081
0.000758127
0.000711662
0.000671112
0.000623418
0.000601987
0.000541362
0.000436304
0.00039229
0.000346017
0.000234138
0.000601615
0.000820195
0.0011063
0.00113514
0.00100748
0.00089273
0.000874408
0.00105004
0.00130814
0.00192575
0.002849
0.00344785
0.00344691
0.00312582
0.00262142
0.0021533
0.00178081
0.00152356
0.00137816
0.00130299
0.00126303
0.00122284
0.00123009
0.00131909
0.00159238
0.00190795
0.00194391
0.00168973
0.00121818
0.00103455
0.00221987
0.00225944
0.00227249
0.00219817
0.00222747
0.00244801
0.0027063
0.00280743
0.00276396
0.00272098
0.00272543
0.00261567
0.00232869
0.0019547
0.00155406
0.0012641
0.00113821
0.0010287
0.00099653
0.000954233
0.00098197
0.00104299
0.00113844
0.00129326
0.00161661
0.0019435
0.0020848
0.0020369
0.00211676
0.00245521
0.00447105
0.004106
0.00370222
0.00317573
0.00271131
0.00234969
0.00210504
0.00197972
0.00191282
0.00190834
0.00186247
0.0019125
0.00189438
0.0018793
0.0018832
0.00184909
0.00186888
0.00192881
0.0021669
0.00266518
0.00347482
0.00405549
0.00322509
0.00288834
0.00321059
0.00301222
0.00266321
0.00290119
0.00429118
0.00499319
0.00820645
0.0082157
0.00689058
0.00658532
0.00744396
0.00802152
0.00797119
0.00775599
0.00752137
0.00733943
0.00727307
0.00727525
0.00731353
0.00737689
0.00746422
0.00756324
0.00765298
0.00772456
0.00777843
0.00780566
0.0077544
0.00762129
0.00741213
0.00717491
0.00697294
0.00683816
0.00674183
0.00671645
0.00683971
0.00719584
0.0031106
0.00474293
0.00355239
0.00386634
0.00620082
0.00704062
0.00657123
0.00555971
0.00472913
0.00420435
0.0040554
0.00405516
0.00411787
0.00418787
0.0041983
0.00421411
0.00413103
0.00390837
0.00343839
0.00295642
0.00256619
0.00244266
0.00262913
0.00303534
0.00313178
0.00189503
0.000528914
0.000489856
0.000850604
0.000446852
0.00968011
0.00868166
0.00809681
0.0081052
0.00823893
0.00839697
0.00851812
0.00863733
0.00877858
0.00892018
0.00904363
0.00913205
0.00917851
0.00920525
0.00914427
0.0090509
0.00892497
0.0087427
0.00848971
0.0082059
0.00797189
0.0078916
0.00759836
0.00636861
0.00545497
0.00530158
0.00566266
0.00662195
0.00753014
0.00789718
0.00524817
0.00498863
0.00470827
0.00434117
0.00387356
0.00333581
0.00289842
0.00255487
0.00227654
0.00212131
0.00203119
0.00208504
0.00224031
0.00253604
0.00286431
0.0032158
0.00359394
0.00394728
0.00432191
0.00487247
0.00706654
0.0106558
0.0103121
0.00960858
0.0100245
0.0104253
0.010012
0.00915727
0.00860842
0.00855928
0.00364435
0.00688294
0.00677051
0.00552122
0.00459779
0.00400661
0.00350919
0.00303593
0.00260404
0.00219914
0.00184397
0.00158856
0.0014271
0.00135211
0.00129295
0.00141695
0.00164837
0.00203368
0.00259849
0.0033604
0.00434067
0.00516107
0.00575875
0.00665915
0.00796853
0.00875017
0.00867805
0.00824038
0.00847291
0.00879532
0.00845449
0.00921364
0.00888379
0.0082059
0.00732646
0.00629704
0.00528358
0.0043001
0.00334113
0.00274067
0.002307
0.00216736
0.00225749
0.00261571
0.00320491
0.00420125
0.00529897
0.00632478
0.00719732
0.00774201
0.00813966
0.00947873
0.0116786
0.0127116
0.0128169
0.0121164
0.0108801
0.0103054
0.0104804
0.0112363
0.00964946
0.00958205
0.00891192
0.00772557
0.00718629
0.00794707
0.00915227
0.00983419
0.00995387
0.00976174
0.00948687
0.00934159
0.0092899
0.00929893
0.00936545
0.00954928
0.00980784
0.00992183
0.00967522
0.00881023
0.0080574
0.00771678
0.00771496
0.00786883
0.00823902
0.00860311
0.00872477
0.00836414
0.00803397
0.00827912
0.0108572
0.0120814
0.00752891
0.00351837
0.00733577
0.0218858
0.0275428
0.0266172
0.0251547
0.0242974
0.0236108
0.0228181
0.0220812
0.0216655
0.0215732
0.021927
0.0223948
0.0229607
0.0235593
0.0241773
0.0245212
0.0236225
0.0193496
0.0128637
0.0118423
0.0175499
0.0225706
0.0234225
0.0169356
0.00121431
0.000726132
0.000508682
0.00048175
0.000667336
0.00102231
0.00129943
0.0013262
0.0012289
0.00112388
0.00115251
0.0015335
0.00232779
0.00266665
0.00305898
0.000223151
0.00042881
0.000537711
0.000453464
0.000298302
0.00025476
0.000245492
0.000237216
0.000231486
0.00023652
0.000260927
0.000339419
0.000517646
0.000919014
0.00130998
0.00115862
0.0008688
0.000693964
0.000623952
0.000599538
0.000599633
0.000601283
0.000613987
0.000613974
0.000613806
0.000578381
0.000484166
0.000417217
0.000362789
0.000254958
0.000602178
0.000836387
0.0010756
0.00104357
0.000886015
0.000858243
0.000951536
0.00134103
0.00174954
0.00226872
0.00315689
0.00347163
0.00314558
0.00244314
0.00177837
0.00134257
0.00117032
0.0010752
0.00102548
0.00100008
0.000975645
0.000966834
0.00096664
0.00103716
0.00123105
0.0016071
0.00190017
0.00177446
0.00130087
0.00104303
0.00223189
0.0022549
0.00224362
0.00218032
0.00234323
0.00278671
0.00316908
0.00316633
0.00298234
0.00288409
0.00288644
0.00278651
0.00239462
0.00186698
0.00135574
0.00113069
0.000990461
0.000917432
0.00086688
0.000844515
0.000854018
0.000911546
0.00100294
0.00114729
0.001397
0.00177704
0.00202561
0.00202971
0.00204884
0.00235748
0.00422334
0.00403219
0.00350601
0.0029771
0.00249913
0.00219176
0.00205018
0.00198595
0.00192536
0.00194916
0.0019751
0.00201902
0.00203267
0.00203898
0.00199401
0.00193452
0.00186757
0.00182585
0.00193462
0.00231955
0.00315621
0.00405403
0.00367377
0.00301131
0.00311572
0.00304465
0.00250517
0.00246947
0.00389649
0.00537502
0.00818334
0.00788168
0.00668529
0.00705148
0.00803683
0.00819733
0.00796215
0.00764866
0.00735094
0.00715951
0.0071256
0.00716131
0.0072397
0.00736988
0.00755506
0.00774364
0.00789864
0.00797415
0.00798355
0.00797073
0.00793527
0.00784275
0.00765244
0.00737573
0.00709979
0.00690655
0.00678292
0.00669491
0.00676732
0.00721286
0.00363687
0.00452179
0.00331007
0.00688571
0.00806195
0.00714841
0.00547171
0.00421994
0.00371031
0.0037103
0.00402269
0.00429447
0.00458764
0.00473502
0.00481666
0.00473689
0.00462776
0.00441928
0.00403297
0.0034245
0.00283866
0.00245033
0.00243616
0.00278292
0.00311779
0.00267786
0.00118583
0.000912073
0.00117923
0.000637686
0.00910224
0.00822552
0.00809329
0.00821377
0.00838427
0.00852096
0.00864967
0.00885491
0.00911844
0.00935453
0.00956615
0.00968585
0.00974471
0.00971975
0.00965303
0.00948224
0.00930773
0.00910086
0.00882966
0.00849582
0.00816022
0.00796627
0.00781334
0.00708891
0.0060294
0.00561312
0.0059514
0.00671015
0.00734597
0.00789912
0.00506222
0.00483192
0.00446203
0.0038636
0.00315379
0.00253183
0.00198811
0.00155753
0.00123302
0.0010999
0.00106706
0.00108915
0.00122975
0.001559
0.00204206
0.00256593
0.00304274
0.00345479
0.00397949
0.00441721
0.00558334
0.00885047
0.0104092
0.010025
0.010191
0.0103902
0.00967789
0.00884807
0.00831287
0.00836346
0.00401388
0.00704067
0.00602084
0.00500695
0.0043407
0.00379909
0.00322328
0.00268767
0.00214269
0.00163642
0.00126879
0.00105083
0.000979958
0.0009418
0.000959444
0.000982977
0.00108092
0.00132303
0.00184847
0.00256418
0.0034469
0.00452563
0.00532505
0.00603767
0.00716357
0.00831301
0.00859396
0.00821786
0.00875372
0.00915909
0.00891537
0.0090705
0.00857932
0.00764844
0.00651807
0.00529883
0.00403722
0.00284544
0.00194838
0.00121346
0.000899492
0.000772434
0.000788436
0.000963966
0.00152014
0.00251221
0.00379553
0.00515455
0.0063389
0.00727271
0.00775435
0.00852542
0.0104819
0.0121135
0.01249
0.0116628
0.0103298
0.0100251
0.0102582
0.010864
0.00991552
0.00979738
0.00854615
0.00741359
0.00750126
0.00873632
0.00971494
0.00993218
0.00964933
0.00928283
0.00910523
0.00908552
0.00911572
0.00911713
0.00908211
0.00913393
0.00945822
0.00986054
0.00979032
0.00864696
0.00777271
0.00731315
0.00668733
0.00608517
0.00626172
0.00722481
0.00816685
0.00828207
0.00809458
0.00837384
0.01006
0.00995859
0.00477163
0.00614043
0.0166837
0.0265545
0.0273686
0.0257062
0.0243026
0.0231086
0.0217582
0.0204085
0.0194612
0.0190185
0.0192521
0.0200347
0.021001
0.0219394
0.0226077
0.0231028
0.0238479
0.0247099
0.0242407
0.0175727
0.0102186
0.0126134
0.0150727
0.0151201
0.00846913
0.000163512
0.000543262
0.000369917
0.00053288
0.00109947
0.00169012
0.00184013
0.0016758
0.00141853
0.00120135
0.00111227
0.00130627
0.00208537
0.00269304
0.00310775
0.000229217
0.00046713
0.000594859
0.000440417
0.00028908
0.000238872
0.000219274
0.00020585
0.000197435
0.000198428
0.000215
0.000272366
0.000446684
0.00088442
0.00117743
0.000839825
0.000613618
0.000545831
0.000541956
0.000573435
0.000611943
0.000644526
0.000660774
0.000652613
0.000641743
0.000608055
0.000520226
0.000433245
0.000370631
0.00026379
0.000626041
0.000832339
0.00105277
0.000982492
0.000887783
0.000867001
0.00131217
0.00215542
0.0022956
0.00249533
0.00331741
0.00335532
0.0027039
0.00181889
0.00126811
0.00105425
0.000957829
0.00093215
0.000923343
0.000909988
0.000897525
0.000887395
0.000866792
0.000894543
0.00103875
0.0013243
0.0017645
0.00177796
0.001352
0.00105301
0.00224133
0.00224331
0.00221596
0.00216822
0.00252852
0.00320976
0.003693
0.00350689
0.00319773
0.0030258
0.0030411
0.00297535
0.00253823
0.00185295
0.00127859
0.00105499
0.000932663
0.000851665
0.00079965
0.000760586
0.000778317
0.00081787
0.000905267
0.00104278
0.00124668
0.00165089
0.0019678
0.0020114
0.00200331
0.00230748
0.00418303
0.00395241
0.0033996
0.00280902
0.00238407
0.00220594
0.00212899
0.00205599
0.00196724
0.00196167
0.00199574
0.00204887
0.00209333
0.00211259
0.00208897
0.00202495
0.00192709
0.00181337
0.00182253
0.00213105
0.00291537
0.0040133
0.00398414
0.00319289
0.00303485
0.0030233
0.00254955
0.0023273
0.00338258
0.00552837
0.00812771
0.00754599
0.00669505
0.00762476
0.00831598
0.00825075
0.00797564
0.00758423
0.00723798
0.00705661
0.00702615
0.00709315
0.00721772
0.00745106
0.00777187
0.00809294
0.00830438
0.00837684
0.00831338
0.00819132
0.00809546
0.00799887
0.00782289
0.00753469
0.00721577
0.00696682
0.00681001
0.00671115
0.00676455
0.00715552
0.00397123
0.00397232
0.00556851
0.00877827
0.00822289
0.0062697
0.00450607
0.00362562
0.00356037
0.00397155
0.00450526
0.005065
0.00547454
0.00567533
0.00576309
0.00558243
0.00531353
0.00498944
0.0045377
0.00392528
0.00317825
0.00261191
0.00238099
0.00259488
0.00301955
0.00298144
0.00204533
0.00161266
0.00159479
0.0010162
0.00851559
0.00814161
0.00812616
0.00831153
0.00847647
0.0085963
0.00881002
0.00917762
0.00957651
0.00995238
0.0102813
0.0105071
0.0105723
0.0104683
0.0102339
0.00997765
0.00970912
0.00942223
0.00912357
0.0087623
0.0083688
0.00807866
0.00792821
0.00755993
0.00683684
0.00643597
0.00673343
0.00708811
0.00714883
0.00764565
0.00495142
0.00473406
0.004214
0.00335677
0.0025998
0.00190149
0.00131324
0.0010325
0.000854598
0.000775434
0.000710621
0.000714868
0.000786402
0.000981118
0.00132119
0.00194825
0.00256223
0.00309766
0.00365503
0.0041335
0.00486163
0.00726804
0.00987554
0.0101649
0.0102779
0.00994125
0.0090584
0.00840951
0.00799416
0.00816467
0.00482061
0.00690878
0.00560968
0.00489501
0.00424767
0.00365795
0.0030443
0.00240477
0.00178568
0.00126763
0.00101509
0.000926667
0.000894649
0.000888839
0.000860546
0.000870372
0.000906331
0.00101547
0.00132206
0.00198351
0.00287774
0.00395743
0.00489924
0.00561563
0.00654433
0.00771024
0.00811744
0.00805456
0.0090259
0.0095155
0.00921754
0.00894489
0.00827541
0.00709863
0.00581633
0.00447574
0.00303234
0.0018684
0.00103279
0.000588979
0.000480424
0.000407104
0.000403327
0.000462719
0.000645627
0.00115856
0.00246449
0.00395945
0.00545602
0.00669853
0.00744578
0.00798079
0.00944643
0.0112175
0.01187
0.0110563
0.00994124
0.00982681
0.0101246
0.0106253
0.010079
0.0096963
0.00815293
0.00731537
0.00792919
0.00921572
0.00990044
0.00974676
0.00926223
0.00896012
0.00885037
0.00887678
0.00902
0.00917885
0.00909723
0.00894752
0.00917159
0.00977817
0.00985664
0.00838024
0.00749269
0.00678085
0.00516525
0.00399091
0.00409243
0.00592693
0.00763974
0.00802107
0.00811582
0.00849592
0.00982396
0.00983233
0.00595421
0.011644
0.0230408
0.027631
0.0266885
0.0247947
0.0231893
0.0213656
0.019406
0.0175979
0.0163859
0.0160015
0.0163845
0.0177841
0.0195233
0.021209
0.0223923
0.022794
0.0229985
0.0238413
0.0253176
0.0234788
0.0114817
0.00874087
0.0106616
0.0081387
0.0023463
4.31851e-05
0.000403815
0.000341185
0.000799723
0.00176421
0.00213287
0.00205366
0.00185997
0.00153708
0.00124682
0.00109969
0.00127051
0.00201592
0.00272874
0.00314767
0.000230117
0.000496886
0.000669312
0.000512932
0.000310603
0.00023656
0.000210055
0.000196615
0.000190795
0.000198583
0.000224262
0.000264334
0.000416805
0.000841356
0.000992082
0.000606533
0.000507188
0.000507326
0.000563825
0.000636574
0.000710475
0.000776082
0.000803759
0.000769325
0.000712396
0.000647009
0.000538099
0.000437699
0.000369918
0.00026425
0.000618285
0.000821618
0.00100848
0.000936707
0.000888315
0.00105583
0.00215876
0.00297737
0.0027368
0.00261783
0.0033446
0.00322672
0.00227214
0.00136949
0.0010564
0.000925824
0.000919204
0.000939644
0.000948643
0.000957838
0.000927361
0.000896932
0.000861319
0.00085322
0.000927746
0.00120471
0.00161652
0.00175554
0.00136224
0.00105802
0.00225478
0.00223674
0.00220398
0.00218603
0.0026867
0.0035889
0.00400998
0.00376302
0.00331002
0.00314309
0.00314864
0.00317383
0.00273667
0.00196517
0.00126746
0.00106018
0.000909477
0.000837429
0.000778863
0.000753793
0.000759814
0.00080248
0.000875602
0.00100309
0.00121008
0.00159806
0.00193649
0.00198336
0.00196759
0.00229538
0.00413928
0.0038286
0.0033191
0.00274681
0.00239356
0.00231241
0.00228105
0.00217454
0.00198659
0.00193574
0.00193274
0.00201147
0.00209269
0.00211745
0.00211746
0.00204187
0.00195832
0.00180621
0.00177422
0.00203894
0.00282104
0.00397352
0.00423196
0.00342559
0.00298201
0.00289754
0.00248844
0.00227913
0.00315811
0.00548232
0.00807516
0.007327
0.00687811
0.00802709
0.00843916
0.00832962
0.00802623
0.00758575
0.00720098
0.00700013
0.00695847
0.00703094
0.00720146
0.00751766
0.00795118
0.00836496
0.00856805
0.0085864
0.00853913
0.00840438
0.00825261
0.00811659
0.00792742
0.00762886
0.00727742
0.00700967
0.00683171
0.00666255
0.00668973
0.00723772
0.00409316
0.00420429
0.00786237
0.00928265
0.00803067
0.00593427
0.00417181
0.00339098
0.00360288
0.00420195
0.00489149
0.00559216
0.00599796
0.00627664
0.00631753
0.00618106
0.0058582
0.00546889
0.00495239
0.00428996
0.00341964
0.00276527
0.00243037
0.00252229
0.00296856
0.00304735
0.00246916
0.00218885
0.00209987
0.0024709
0.00840321
0.00819091
0.00816559
0.00836877
0.00852379
0.0086685
0.00899696
0.00947841
0.0099953
0.010521
0.010934
0.0112046
0.0113019
0.0111327
0.0107756
0.0103845
0.0100314
0.00968052
0.00935374
0.00897591
0.00854123
0.00816385
0.00799095
0.0078238
0.0074368
0.00721955
0.00724335
0.00693015
0.00669767
0.00727915
0.00496906
0.0047168
0.00403509
0.00307688
0.00226397
0.00153097
0.00107508
0.00085591
0.000701792
0.000607761
0.000578215
0.000573505
0.000587608
0.000723147
0.000971128
0.00146376
0.00215391
0.00280239
0.00335142
0.0039416
0.00451213
0.00620279
0.00875995
0.00956487
0.00946864
0.0089186
0.00831907
0.00799926
0.007833
0.00800585
0.00571106
0.00657035
0.00559832
0.00493085
0.00420809
0.00359868
0.00295751
0.00223852
0.00160207
0.0010794
0.000963994
0.000889102
0.000860287
0.00085492
0.000873307
0.000852452
0.000860923
0.00092246
0.00108763
0.00161574
0.00249193
0.003442
0.00456085
0.00530523
0.00609632
0.00718415
0.00747401
0.00818408
0.00939334
0.00978161
0.0093149
0.00900174
0.00800746
0.0067123
0.00534325
0.00389023
0.00241971
0.00126126
0.00063838
0.00043211
0.000314994
0.000286515
0.000282481
0.000306181
0.000421673
0.000682148
0.00150151
0.00297204
0.00465253
0.00615085
0.00715022
0.00768078
0.00879024
0.0105071
0.0113886
0.0106441
0.00976604
0.00966852
0.0100238
0.0103877
0.0101215
0.00936435
0.0078065
0.00730544
0.00825499
0.00948038
0.00993598
0.00952368
0.0089747
0.00861439
0.00839076
0.00836707
0.00867569
0.0091555
0.00918682
0.0089217
0.00899422
0.00970407
0.0099245
0.00811848
0.00736815
0.00628823
0.00405732
0.0031038
0.00374563
0.00589372
0.00738677
0.00787606
0.0082863
0.00864894
0.00982721
0.0115142
0.00957918
0.0174355
0.02592
0.0275836
0.0258961
0.0238804
0.0218934
0.0194878
0.0170371
0.0147045
0.0131805
0.012699
0.0135693
0.0155182
0.0180318
0.0203464
0.022254
0.0229467
0.0228403
0.0230857
0.0245925
0.0261451
0.0163408
0.00503321
0.00783477
0.00396141
0.000182146
1.4741e-05
0.000366312
0.000387656
0.00124155
0.00216239
0.00221342
0.00201849
0.00193551
0.00173285
0.0013619
0.0011469
0.00128924
0.00205823
0.00278356
0.00321441
0.000227975
0.000502046
0.000729358
0.000664141
0.000413537
0.000269117
0.000233814
0.000223321
0.000240331
0.000280802
0.000326975
0.000335982
0.000426328
0.000821984
0.000841656
0.000525073
0.000489802
0.000516866
0.000595108
0.000695804
0.000804668
0.000894611
0.000947753
0.000894062
0.000792374
0.000674542
0.00053222
0.000428994
0.000361406
0.000260627
0.000635835
0.000793425
0.000988554
0.000943668