/*--------------------------------*- C++ -*----------------------------------*\
| =========                 |                                                 |
| \\      /  F ield         | OpenFOAM: The Open Source CFD Toolbox           |
|  \\    /   O peration     | Version:  2.1.1                                 |
|   \\  /    A nd           | Web:      www.OpenFOAM.org                      |
|    \\/     M anipulation  |                                                 |
\*---------------------------------------------------------------------------*/
FoamFile
{
    version     2.0;
    format      ascii;
    class       volScalarField;
    location    "0.006350000";
    object      O2;
}
// * * * * * * * * * * * * * * * * * * * * * * * * * * * * * * * * * * * * * //

dimensions      [0 0 0 0 0 0 0];

internalField   nonuniform List<scalar> 
12384
(
0.0121349
0.0133755
0.0139019
0.0131687
0.0124174
0.0116868
0.0110239
0.0105812
0.0101868
0.0102397
0.0101354
0.0104729
0.00966603
0.00681114
0.0346234
0.0278702
0.0268602
0.0274019
0.0280923
0.0293323
0.0307305
0.0316678
0.0321171
0.032123
0.0318379
0.0312728
0.03055
0.0297365
0.0287957
0.0279081
0.0268775
0.0265543
0.0263024
0.0266256
0.0273595
0.0282018
0.0289726
0.0297073
0.0306125
0.0314612
0.031859
0.0319659
0.0411324
0.0438589
0.0152636
0.0141436
0.00978687
0.0079656
0.00662092
0.00547303
0.00436779
0.00386259
0.0034774
0.00318216
0.00285691
0.00255836
0.00226009
0.00203054
0.00189088
0.00187765
0.00193371
0.00202226
0.00214911
0.00228353
0.00247931
0.00257146
0.00277995
0.0028723
0.00303253
0.00344099
0.00462491
0.00809045
0.00816567
0.00610935
0.00238646
0.00233804
0.00219429
0.00216571
0.00225914
0.00234284
0.00233513
0.00239309
0.00242556
0.00244459
0.00245901
0.00246695
0.00244618
0.00241684
0.00243695
0.00246094
0.00234043
0.00253318
0.00233868
0.00252453
0.0024933
0.00254157
0.00250995
0.00248694
0.00230831
0.00238215
0.00232886
0.00186553
0.00174711
0.00166294
0.000259748
0.000323496
0.000473055
0.00052688
0.000584255
0.000640532
0.000255252
0.000450391
0.000646629
0.000532942
0.000785577
0.000525282
0.000694482
0.000758012
0.000923047
0.000705047
0.000837832
0.000759857
0.000301134
0.000501509
0.000576901
0.00235157
0.00242678
0.00178086
0.00155076
0.00141514
0.00134882
0.00140881
0.00168596
0.00199699
3.68353e-05
2.54408e-05
2.91397e-05
4.29756e-05
6.24887e-05
7.96081e-05
7.79633e-05
7.92452e-05
7.26609e-05
7.08085e-05
7.18956e-05
7.34705e-05
7.49777e-05
7.50149e-05
7.29711e-05
6.87758e-05
7.17286e-05
6.75503e-05
7.0496e-05
6.87587e-05
7.05305e-05
7.25496e-05
6.93568e-05
7.20129e-05
7.54179e-05
8.12573e-05
8.47644e-05
-6.15544e-06
3.34251e-05
4.75314e-05
0.00060329
0.00103403
0.00115103
0.000618807
4.89527e-05
-0.000145824
0.00026028
-0.000203957
0.000256089
-1.83601e-05
0.000234783
0.00010595
4.39701e-05
9.53331e-05
0.000113273
0.000171077
0.000282377
0.000298459
0.000345367
0.000173748
9.48523e-05
-5.08132e-05
0.000229884
0.00108157
0.0124584
0.0160311
0.0165403
0.0169296
0.0169611
0.0169369
0.00071895
0.000178892
6.62217e-05
4.87789e-05
4.90008e-05
4.01972e-05
3.99366e-05
3.91793e-05
4.7453e-05
4.50943e-05
4.25959e-05
4.37759e-05
4.13351e-05
4.10779e-05
4.26694e-05
4.75228e-05
4.30487e-05
4.89729e-05
5.3779e-05
5.60044e-05
5.60833e-05
7.41054e-05
0.000140055
0.000135362
0.000147847
0.000122632
0.000103117
9.69851e-05
0.000105406
0.000120299
0.00025401
0.000122424
9.92169e-05
0.000102854
0.000103974
0.000151064
0.000138365
0.000168815
0.00015627
0.000175717
0.000182038
0.000167163
0.000177908
0.000193418
0.00020361
0.00019337
0.000205327
0.000174877
6.15455e-05
1.23041e-05
4.03729e-06
5.11376e-06
6.74481e-06
8.8759e-06
1.01515e-05
1.02412e-05
9.01712e-06
5.95453e-06
5.19218e-06
3.93895e-06
0.000290381
-4.208e-05
6.90873e-05
6.32965e-05
6.60806e-05
7.03227e-05
8.07219e-05
-2.05557e-05
4.46834e-05
3.54727e-05
8.70446e-05
5.58927e-05
8.09323e-05
9.15772e-05
9.69224e-05
7.66792e-05
3.85785e-05
3.07553e-05
1.54908e-05
1.92587e-05
1.95325e-05
7.35549e-05
2.55453e-05
1.35524e-05
2.0982e-05
1.00748e-05
1.42333e-05
1.55854e-05
1.23882e-05
8.16351e-06
2.32111e-05
1.1794e-05
1.56553e-05
1.55467e-05
1.43599e-05
1.31798e-05
2.27763e-05
1.98527e-05
2.43212e-05
2.53258e-05
2.4306e-05
1.98791e-05
2.51527e-05
2.06571e-05
2.33891e-05
2.9271e-05
2.3888e-05
2.5829e-05
2.73579e-05
1.48501e-05
1.13445e-05
9.9918e-06
8.78777e-06
7.65315e-06
4.68443e-06
5.11574e-06
5.72987e-06
6.04353e-06
6.08796e-06
9.05897e-06
2.93912e-05
2.21639e-05
2.8047e-05
2.59242e-05
2.68721e-06
2.43778e-05
6.94743e-06
3.19955e-05
2.58464e-05
2.38912e-05
2.39008e-05
2.29511e-05
2.04592e-05
1.94437e-05
2.33492e-05
2.36367e-05
2.74097e-05
2.87673e-05
3.09635e-05
3.21843e-05
3.36349e-05
3.26946e-05
3.49059e-05
3.3199e-05
3.06357e-05
3.15019e-05
3.30252e-05
3.4097e-05
2.3559e-05
1.69071e-05
1.45285e-05
1.23777e-05
2.7174e-05
-2.80126e-05
0.0167111
0.0600808
0.0282088
6.50909e-07
6.58707e-08
2.03295e-07
2.67596e-07
2.5512e-07
3.04612e-07
3.28466e-07
4.21357e-07
4.54115e-07
5.91427e-07
7.32683e-07
7.92154e-07
1.07854e-06
1.3801e-06
1.48137e-06
1.32358e-06
7.022e-07
3.2118e-07
8.07065e-08
1.20962e-07
1.23023e-07
1.41275e-07
2.15162e-06
0.0216978
0.0202141
0.0170333
0.014636
0.0128137
0.0117491
0.0105251
0.00930691
0.00815287
0.00785713
0.00809404
0.00877232
0.00918318
0.00721668
0.0344708
0.0272216
0.0261817
0.0269661
0.0291779
0.0322107
0.0338247
0.0336771
0.0322096
0.0302832
0.0278943
0.0250461
0.022036
0.0186465
0.0154812
0.0129048
0.0111963
0.0105293
0.0108642
0.0118522
0.01356
0.0157286
0.0185722
0.0219065
0.0252653
0.0286099
0.0308697
0.0316626
0.0349597
0.0399117
0.0151959
0.0129919
0.00859515
0.00659252
0.00529494
0.00463935
0.00405305
0.00389665
0.00351096
0.00300185
0.0021905
0.0013107
0.000685085
0.000421394
0.0003699
0.000434652
0.00064265
0.000940599
0.00128215
0.00161459
0.00191098
0.00211798
0.00227238
0.00239489
0.00254642
0.00287093
0.00360603
0.0060634
0.00850805
0.00777208
0.00237853
0.00227104
0.00214975
0.00233975
0.00242014
0.0024982
0.00246937
0.00238978
0.00230919
0.00224914
0.0022128
0.00221912
0.00229194
0.00250465
0.00263037
0.00278217
0.00285607
0.00303622
0.00298939
0.00305459
0.00306572
0.00298364
0.00286885
0.00266838
0.00246059
0.00239219
0.00241759
0.00230746
0.00151414
0.00136225
0.000222678
0.000362435
0.000507407
0.000622067
0.000685764
0.00115636
0.00154448
0.00193717
0.00212059
0.00221804
0.00236581
0.00233831
0.00231945
0.0023348
0.00221132
0.00214035
0.00191369
0.00168673
0.00117555
0.000682461
0.000519131
0.000737714
0.00216786
0.00129669
0.000729665
0.000404777
0.000295131
0.000601402
0.000594762
0.000526452
3.79953e-05
2.66798e-05
4.30083e-05
6.76439e-05
8.07242e-05
7.51778e-05
6.42001e-05
5.57328e-05
5.49884e-05
6.22629e-05
6.14172e-05
7.03458e-05
6.70628e-05
7.13741e-05
7.15734e-05
6.90059e-05
7.35765e-05
6.7703e-05
7.02059e-05
6.77154e-05
6.43055e-05
6.40025e-05
7.0233e-05
7.16519e-05
6.93781e-05
7.5578e-05
8.37461e-05
8.63581e-05
8.99577e-05
7.39006e-05
0.000593442
0.00084554
0.000248778
0.000227989
0.00023849
0.000247202
0.000227913
0.000198767
0.000182287
0.000197642
0.000199246
0.000192552
0.000216391
0.00021288
-2.56007e-05
0.000286256
0.00048676
0.000602145
0.000701775
0.000749154
0.00065852
0.000309025
-5.27408e-06
0.000269531
0.00248097
0.0162804
0.0191422
0.0172067
0.0149401
0.0165477
8.18639e-05
4.1019e-05
3.08584e-05
3.8139e-05
4.17507e-05
4.12985e-05
3.84717e-05
4.41031e-05
3.87265e-05
3.54899e-05
3.46243e-05
3.02075e-05
3.62513e-05
2.73509e-05
3.02193e-05
3.46002e-05
4.06234e-05
4.67767e-05
4.4255e-05
5.04251e-05
5.4349e-05
6.10705e-05
4.13277e-05
0.000164474
9.44229e-05
3.49946e-05
-7.48937e-06
6.9785e-05
6.86088e-05
7.29679e-05
0.00013317
0.000101844
0.00012044
0.000143184
0.000199999
0.000202373
0.000242252
0.000231098
0.000246541
0.000239364
0.000240437
0.000241989
0.000257869
0.000235219
0.000233506
0.000237456
0.000212992
0.000219439
0.000157502
5.11254e-05
2.78365e-06
6.61419e-06
1.75346e-05
7.07486e-06
1.78954e-05
1.79585e-05
1.93762e-05
1.23851e-05
6.36354e-06
1.39751e-05
0.000333563
-4.56726e-05
6.09638e-05
6.9724e-05
8.15693e-05
6.78115e-05
0.000174816
0.000201207
0.000245955
0.000260743
0.000262532
2.32236e-05
7.17614e-05
7.92267e-05
5.70645e-05
0.00026853
0.000240321
0.000198837
0.000167176
0.000102121
3.6172e-05
-8.88633e-06
6.18711e-05
2.65996e-05
1.0067e-05
2.4603e-05
3.40528e-05
3.7547e-05
3.37454e-05
2.38692e-05
2.23161e-05
9.3386e-06
1.46529e-05
1.6053e-05
1.92563e-05
2.22679e-05
3.50451e-05
4.50556e-05
4.53322e-05
4.69291e-05
4.95262e-05
4.78257e-05
4.71195e-05
4.24145e-05
4.16952e-05
3.99858e-05
3.24017e-05
3.47898e-05
2.85285e-05
2.0898e-05
1.57271e-05
6.10025e-06
1.89454e-06
1.74985e-06
3.2871e-06
5.40768e-06
7.51225e-06
8.37134e-06
6.73783e-06
4.08738e-06
1.23575e-05
1.92947e-05
2.0551e-05
1.22714e-05
1.84205e-05
2.87512e-05
2.86233e-05
2.24515e-05
1.50477e-05
7.27691e-06
1.3745e-05
1.40918e-05
1.41209e-05
1.48538e-05
1.43815e-05
1.51445e-05
3.52658e-06
4.97043e-06
1.69767e-05
2.02957e-05
2.37254e-05
2.86135e-05
2.21883e-05
2.05648e-05
1.8814e-05
2.02858e-05
1.88241e-05
3.08731e-05
2.34999e-05
1.73373e-05
9.87469e-07
5.49669e-07
6.16006e-07
4.18379e-06
0.0124774
0.0267024
3.04264e-06
2.67124e-07
1.38038e-07
2.96067e-07
3.57987e-07
2.36421e-07
2.88619e-07
3.4045e-07
3.59384e-07
3.78171e-07
4.46585e-07
4.77097e-07
5.96191e-07
4.49924e-07
1.6685e-06
3.14022e-06
4.3631e-06
2.51062e-06
7.2757e-07
1.88914e-07
1.37355e-07
1.2629e-07
1.53207e-07
3.81658e-06
0.0218526
0.0187753
0.0180227
0.0186612
0.0183254
0.0172856
0.0156954
0.0138304
0.0111737
0.00882026
0.00757645
0.00781387
0.00863402
0.00736784
0.0342
0.0262064
0.0253042
0.026902
0.0311656
0.0343176
0.0343343
0.0324047
0.0296867
0.0271852
0.0240367
0.0201255
0.0154685
0.0107569
0.00719183
0.00564419
0.00532128
0.00546557
0.00635321
0.00758046
0.00898145
0.0111003
0.0137091
0.0165718
0.0204628
0.0247417
0.028872
0.0310252
0.0324386
0.036959
0.0149291
0.0119496
0.0078102
0.00660007
0.00649957
0.00714738
0.0074701
0.00678413
0.00511271
0.00341209
0.00194119
0.000653471
0.000130055
0.000194299
0.000523653
0.000937717
0.00150652
0.0020646
0.00252604
0.00296054
0.0032199
0.00338849
0.00333527
0.00304098
0.00269894
0.00268039
0.00300236
0.00411512
0.00758836
0.00835185
0.00233791
0.00225318
0.00226759
0.00244745
0.00256885
0.00247194
0.00221742
0.00200522
0.0019097
0.00187675
0.00183303
0.00199932
0.0022554
0.00261991
0.00302249
0.00331388
0.00357905
0.00385319
0.0041591
0.0042768
0.00405148
0.00358937
0.00339872
0.00312192
0.00279081
0.00243621
0.00237565
0.00241025
0.00193846
0.00146861
0.000270239
0.000476234
0.000596551
0.000505574
0.00120692
0.00182622
0.00233167
0.0027158
0.00295384
0.00311388
0.00316092
0.00331233
0.00332325
0.00328912
0.0032193
0.00327977
0.00287636
0.0026998
0.0021349
0.00112926
0.000603773
0.000592955
0.00140745
0.00134031
0.000497112
0.000715706
0.000690798
0.000163286
0.000460661
0.000460788
3.41123e-05
3.29057e-05
6.05848e-05
8.27123e-05
7.15303e-05
5.47927e-05
4.50228e-05
4.70168e-05
5.95861e-05
6.84387e-05
7.41649e-05
7.66031e-05
8.72392e-05
9.28303e-05
9.46607e-05
9.19828e-05
8.66912e-05
7.86536e-05
8.13798e-05
7.10349e-05
7.36183e-05
6.51753e-05
6.71728e-05
6.47e-05
7.17108e-05
6.99767e-05
7.90859e-05
8.25354e-05
8.81565e-05
7.65697e-05
0.000676489
0.000251859
0.000156754
0.000235943
0.000236385
0.00013895
5.13085e-05
5.30672e-05
7.39284e-05
0.000132243
0.000157396
0.000158308
0.000195023
0.000183286
0.000190127
0.000198039
0.000215087
3.72642e-05
0.000507426
0.00077752
0.000889396
0.000783149
0.000476305
9.29103e-05
0.000892482
0.00613381
0.0158712
0.0130797
0.00855624
0.0131965
2.69382e-05
2.92785e-05
3.65636e-05
4.00751e-05
4.59297e-05
4.18601e-05
3.67435e-05
3.09049e-05
2.79858e-05
2.7482e-05
2.16776e-05
2.66672e-05
2.7193e-05
1.78788e-05
1.96402e-05
2.3178e-05
2.82772e-05
3.50288e-05
4.24132e-05
4.04212e-05
4.73118e-05
5.25391e-05
7.14237e-05
8.52259e-05
0.000120425
7.38242e-05
2.62481e-05
6.69669e-05
5.64995e-05
5.533e-05
8.22009e-05
0.000128556
0.000204983
0.000226794
0.0002505
0.000306306
0.000325982
0.000345891
0.000159192
0.000274048
0.000319138
0.000418646
0.000308184
0.000151286
0.000302821
0.000283625
0.000269111
0.000257418
0.000227135
6.13722e-05
1.95894e-05
7.54927e-06
1.76031e-05
1.88056e-05
1.5997e-05
1.57547e-05
1.75847e-05
1.36537e-05
1.62564e-05
1.71496e-05
0.000371645
7.48854e-05
7.03472e-05
8.93191e-05
0.000108349
0.00022183
0.000280259
7.26057e-06
0.000324781
0.000723946
0.000998987
0.001228
0.00135004
0.00138517
0.00138981
0.00130166
0.000971288
0.000501613
0.000302652
0.000221068
0.000131737
9.92686e-05
-4.06103e-05
5.6848e-05
2.79382e-05
1.8103e-05
2.75237e-05
3.82489e-05
4.00872e-05
3.20955e-05
2.3073e-05
1.26531e-05
8.50928e-07
2.09982e-05
2.99376e-05
4.83189e-05
6.15199e-05
3.71911e-05
9.16803e-05
0.000135476
0.000172994
0.000173418
0.00015813
0.000128108
9.46174e-05
6.12161e-06
4.86344e-05
3.65927e-05
3.5601e-05
2.60131e-05
1.96132e-05
1.05393e-05
1.95931e-06
1.37701e-06
2.68964e-06
5.82587e-06
9.66734e-06
1.1749e-05
1.05365e-05
5.85573e-06
7.06577e-06
9.33586e-06
1.02791e-05
1.53963e-05
2.49858e-05
2.25935e-05
1.60022e-05
6.62752e-06
1.46198e-05
1.48694e-05
1.54751e-05
1.59831e-05
1.7076e-05
1.67358e-05
1.57474e-05
1.57392e-05
1.48197e-05
1.37278e-05
2.66704e-06
1.50954e-05
1.96662e-05
2.1694e-05
1.86765e-05
1.61756e-05
6.43868e-06
5.36636e-06
1.15464e-05
1.93394e-05
2.16277e-05
1.66033e-05
3.65802e-06
2.51158e-06
2.56825e-06
1.33651e-05
0.00432931
8.04238e-06
3.23491e-07
1.76167e-07
2.44458e-07
3.54224e-07
4.13832e-07
4.6374e-07
3.64007e-07
3.80176e-07
4.447e-07
3.91025e-07
3.90738e-07
4.76809e-07
4.71929e-07
2.07019e-07
5.50905e-07
8.14535e-07
3.26089e-06
3.0686e-06
1.9186e-06
2.09717e-07
7.76576e-08
1.54596e-07
2.97133e-07
2.75486e-05
0.0218461
0.0231051
0.0260306
0.0251705
0.0222607
0.0190109
0.017525
0.0165778
0.0150752
0.0120655
0.00861417
0.00751968
0.00816955
0.00735338
0.0338125
0.025297
0.0243923
0.0273275
0.032918
0.0352973
0.0344525
0.033057
0.0319711
0.030465
0.0272157
0.0223273
0.0157402
0.00897389
0.00525721
0.00467487
0.00572007
0.00773201
0.00974113
0.0120965
0.0137123
0.0149474
0.016064
0.0172684
0.0194699
0.0225563
0.0266921
0.0301792
0.0314731
0.0352245
0.0146893
0.0112478
0.00781101
0.00741533
0.00860575
0.00970386
0.00955047
0.00747605
0.00460132
0.00295705
0.00120408
0.000151415
0.000236881
0.000931989
0.00181227
0.0027905
0.00359178
0.00410751
0.00470439
0.005353
0.00580004
0.00605256
0.00585343
0.00478055
0.00361789
0.00285859
0.00285952
0.00351216
0.00642535
0.00845773
0.00232872
0.00217431
0.00238598
0.00255287
0.00253129
0.0021002
0.00159768
0.00140005
0.00148287
0.00154144
0.00160586
0.00170257
0.00216215
0.00281394
0.00335433
0.00425007
0.00526512
0.00592772
0.00632513
0.00647281
0.00625452
0.00560632
0.00470973
0.00353696
0.00308943
0.00266137
0.00239427
0.00245726
0.00217877
0.00168018
0.000439457
0.000552638
0.000609159
0.000771314
0.00160842
0.00231128
0.00283227
0.00318536
0.00340872
0.00359058
0.00363198
0.00365444
0.00366659
0.00361229
0.00365712
0.00366129
0.00353964
0.00344064
0.0029408
0.00202892
0.000355063
0.000556362
0.000621149
0.00126618
0.000595423
0.00101709
0.00159804
0.0012354
0.000452751
0.000297232
3.7253e-05
3.22593e-05
6.68393e-05
7.53163e-05
4.70033e-05
4.10353e-05
4.50993e-05
4.97818e-05
6.50514e-05
7.67051e-05
9.09944e-05
9.41527e-05
0.000103667
9.89054e-05
0.000101108
0.000100656
9.6633e-05
9.07947e-05
8.26515e-05
8.67421e-05
7.39334e-05
7.24229e-05
7.05525e-05
6.99465e-05
6.67998e-05
6.91082e-05
7.3579e-05
8.12166e-05
8.29306e-05
7.62383e-05
0.000341255
0.000155465
0.000249806
0.000216934
-1.49253e-05
5.2339e-05
6.17171e-05
8.74795e-05
0.000156919
0.000228847
0.000234337
0.000225906
0.000213167
0.00020399
0.000208059
0.000203997
0.000192664
0.000201102
-9.59487e-05
0.000349822
0.000840631
0.000956079
0.000783967
0.000242959
0.00021189
0.00156333
0.00764008
0.00807907
0.00462694
0.00970865
2.18854e-05
2.29505e-05
4.45528e-05
4.24067e-05
3.76393e-05
3.211e-05
2.7762e-05
2.68103e-05
2.56816e-05
1.69187e-05
2.10833e-05
2.10924e-05
1.98603e-05
1.9226e-05
1.15472e-05
1.55781e-05
1.9211e-05
2.48991e-05
3.23022e-05
4.07642e-05
3.94162e-05
4.59735e-05
5.63487e-05
-1.76047e-05
0.0001284
0.000133456
9.72289e-05
7.24653e-05
5.59186e-05
4.89911e-05
0.000144431
0.000204009
0.000223039
0.000267208
0.000333511
0.000258438
0.000834403
0.00130446
0.00168716
0.00191035
0.00192972
0.00186748
0.00171483
0.00132528
0.000750046
0.000293623
0.000319875
0.000284302
0.000264504
0.000208077
6.44782e-05
1.39682e-05
1.48818e-05
1.86737e-05
1.64936e-05
1.4459e-05
1.7206e-05
1.31099e-05
2.43428e-05
2.70364e-05
0.000365838
7.81076e-05
7.78662e-05
8.07181e-05
0.000213817
0.00027887
0.000293066
0.000419535
0.000984735
0.00142061
0.00182835
0.00210754
0.00227189
0.00240457
0.00231866
0.0023128
0.00206992
0.00164831
0.00102743
1.82079e-05
0.000234998
0.000146909
9.02384e-05
8.05451e-05
4.57462e-05
1.55789e-05
2.86565e-05
2.98292e-05
3.57085e-05
1.39813e-05
2.11601e-05
-2.1589e-06
1.95715e-05
3.054e-05
5.32105e-05
-4.08768e-05
0.000117848
0.000206165
7.49403e-05
0.000818505
0.0012634
0.00149875
0.00137829
0.000925184
0.000162123
0.000195289
6.99317e-05
-2.48948e-05
4.41342e-05
3.54797e-05
3.13184e-05
1.74226e-06
5.74694e-06
9.67603e-07
1.39697e-06
5.04971e-06
1.01546e-05
1.20003e-05
1.1318e-05
8.40626e-06
8.33702e-06
8.49591e-06
9.69849e-06
2.05734e-05
2.5572e-05
1.67821e-05
7.60779e-06
1.43548e-05
1.60383e-05
2.02957e-05
1.14932e-05
5.72582e-06
2.69679e-06
1.31367e-05
6.92665e-06
1.88055e-05
1.59863e-05
1.36172e-05
1.39003e-05
1.36349e-05
1.79606e-05
2.24913e-05
2.44931e-05
2.31338e-05
1.56127e-05
1.25136e-05
1.21664e-05
1.78861e-05
2.07262e-05
1.50869e-05
7.52457e-06
2.28746e-06
1.9389e-05
0.000174166
2.37704e-05
4.04716e-07
1.725e-07
2.45121e-07
3.75157e-07
4.66345e-07
3.09745e-07
5.69886e-07
7.85523e-07
9.7191e-07
9.66078e-07
8.5302e-07
6.84001e-07
4.63507e-07
2.57262e-07
3.45573e-07
4.50146e-07
2.29475e-07
6.40396e-07
3.34231e-07
4.35987e-06
1.40596e-06
3.95613e-07
2.38068e-07
1.53395e-06
0.00211993
0.0254633
0.0309764
0.0302835
0.0237526
0.0172532
0.0146156
0.0146491
0.0155319
0.0159276
0.0146547
0.0108033
0.00771876
0.00783892
0.00728138
0.0333594
0.0242307
0.0233531
0.0276175
0.034
0.0363311
0.036571
0.0368815
0.0370873
0.0363182
0.0333316
0.0276189
0.0186814
0.0090164
0.00520962
0.0068168
0.0108276
0.015537
0.0187784
0.0207699
0.0215811
0.0217475
0.0213999
0.021012
0.0209291
0.0223119
0.0256273
0.0294581
0.0310899
0.034388
0.0144767
0.0110627
0.00818393
0.00853188
0.0100875
0.0112308
0.00878939
0.00453705
0.00331141
0.00227122
0.000634752
0.000110747
0.000840374
0.00215348
0.00356747
0.00507384
0.00683521
0.00773708
0.00818143
0.00844751
0.00859371
0.00869198
0.00855339
0.00772824
0.00557775
0.00351997
0.00292534
0.00323688
0.00544139
0.00838217
0.00231439
0.00221017
0.00245809
0.0026004
0.00228685
0.0014079
0.000831289
0.000685206
0.00104261
0.001343
0.00126201
0.00135313
0.00196773
0.0028472
0.00368508
0.00545303
0.00644448
0.00713755
0.00763472
0.00772596
0.00749595
0.00693659
0.0060154
0.00470517
0.0033983
0.00283327
0.00249027
0.00245999
0.00230101
0.00182471
0.000519491
0.000534804
0.000124493
0.00121861
0.00206763
0.00259942
0.00297641
0.00330868
0.00349365
0.00365921
0.00373383
0.00377562
0.00369476
0.00375271
0.00368717
0.00378391
0.00380992
0.00378309
0.00350042
0.00267389
0.000986129
0.000556859
0.00057969
0.00106188
0.000758122
0.000921734
0.00188039
0.00203281
0.000530113
0.000202428
3.55235e-05
4.29034e-05
7.26399e-05
6.12879e-05
3.40742e-05
4.04069e-05
4.17401e-05
5.70016e-05
7.4484e-05
8.04037e-05
9.53422e-05
9.80446e-05
9.739e-05
0.000105275
0.000108963
9.55325e-05
9.6538e-05
9.03887e-05
8.70621e-05
9.33311e-05
8.22328e-05
8.27303e-05
7.55147e-05
7.29561e-05
7.40215e-05
6.9287e-05
7.19907e-05
8.31565e-05
8.7557e-05
8.2455e-05
0.000247506
0.000180389
-8.78709e-05
5.24427e-05
3.69694e-05
5.44802e-05
9.74838e-05
0.000210212
0.000271716
0.000270634
0.000251358
0.000226919
0.00018589
0.000193199
0.000156201
0.000172203
0.00017222
0.000192568
0.000209597
-3.43168e-06
0.000498544
0.000950132
0.00096282
0.000639016
0.000185814
0.000704146
0.00232346
0.00392028
0.00238902
0.00647458
1.25414e-05
3.30396e-05
4.08727e-05
3.5523e-05
3.11916e-05
2.82638e-05
2.64745e-05
2.2751e-05
2.15015e-05
1.50714e-05
2.0278e-05
1.93154e-05
1.96186e-05
1.92743e-05
1.96295e-05
3.98169e-06
1.02068e-05
1.73002e-05
2.32491e-05
3.29694e-05
4.21376e-05
4.0207e-05
4.88238e-05
6.77535e-05
1.78613e-05
0.000117372
7.28478e-05
7.47392e-05
5.59844e-05
5.0209e-05
0.000183446
0.000191474
0.000273746
0.000336457
0.000540796
0.00143454
0.0021904
0.0028031
0.00316463
0.00396707
0.0043845
0.0041288
0.00313721
0.00264086
0.0019331
0.00117036
0.000518367
-4.24899e-05
0.000282741
0.000238864
0.00011443
1.63982e-05
1.44672e-05
1.6308e-05
1.51676e-05
1.38148e-05
1.90116e-05
3.07833e-05
3.90628e-05
2.95442e-05
0.000306736
8.39647e-05
2.87333e-05
0.000176476
0.000248058
0.000267857
0.000185291
0.00088938
0.00149302
0.00203849
0.00250185
0.00308948
0.00368333
0.0039527
0.00413726
0.00371571
0.00296097
0.00246459
0.0019597
0.00109229
-9.22126e-05
0.000215646
0.000129218
3.75685e-05
6.33518e-05
3.57256e-05
3.05804e-05
4.03513e-05
2.65421e-05
6.46302e-06
9.36493e-06
1.6921e-05
2.60796e-05
4.18254e-05
6.76209e-05
8.46917e-05
0.00025808
0.000637565
0.00184795
0.00277754
0.004945
0.006214
0.00587961
0.00411845
0.0022015
0.00100373
0.000229969
0.000114727
-2.92849e-05
4.31115e-05
3.4534e-05
2.13298e-05
1.16598e-05
3.72179e-06
2.58127e-06
6.46209e-06
1.29652e-05
1.27273e-05
1.22139e-05
9.5791e-06
7.06232e-06
7.9475e-06
8.08631e-06
2.34082e-05
2.37886e-05
9.31203e-06
1.53301e-05
1.69107e-05
2.18284e-05
1.42153e-05
1.2302e-05
1.75317e-05
1.9979e-05
1.97061e-05
1.07462e-05
7.3681e-06
2.34755e-06
1.36571e-05
1.32086e-05
1.26155e-05
2.10778e-05
2.70064e-05
3.98863e-05
-1.58392e-07
-7.56165e-06
3.47232e-05
2.19438e-05
1.89464e-05
2.02083e-05
1.33898e-05
9.18423e-06
8.91619e-06
9.79703e-05
1.51795e-05
1.27398e-06
2.11628e-07
2.23381e-07
3.48121e-07
4.7269e-07
5.06686e-07
9.97484e-07
1.41158e-06
1.61501e-06
1.93188e-06
1.82214e-06
1.06713e-06
1.25052e-06
8.83981e-07
5.75886e-07
5.60347e-07
3.52554e-07
4.28247e-07
4.00427e-07
1.40205e-06
9.62063e-06
2.11016e-06
2.51288e-06
2.05275e-06
1.41148e-05
0.0231277
0.0310881
0.0353229
0.028109
0.0166305
0.0118207
0.0114155
0.0127193
0.0151304
0.0166564
0.0160975
0.0124768
0.00820894
0.00769302
0.00717235
0.0329627
0.0231739
0.0219356
0.0269107
0.034321
0.037589
0.0389953
0.0401508
0.0406272
0.0403066
0.0382644
0.0323282
0.0216365
0.00933032
0.00660813
0.0115143
0.0187802
0.0233688
0.0249248
0.0250288
0.0245667
0.0239887
0.0235409
0.0230163
0.02242
0.022793
0.025296
0.0290499
0.03091
0.0340036
0.0142834
0.0112175
0.00867018
0.00940091
0.01106
0.0101503
0.00512698
0.00260374
0.00225663
0.00184922
0.000516549
0.000354512
0.00168558
0.00343207
0.00574106
0.00792389
0.00883634
0.00907809
0.00914581
0.00917378
0.00933555
0.00946967
0.00963182
0.00928764
0.00760842
0.00441971
0.00312752
0.00317981
0.00484299
0.00824274
0.00232946
0.00223466
0.0025132
0.00260178
0.0019115
0.000717703
0.000563352
0.000197121
0.000785195
0.00107614
0.000989977
0.000965183
0.00176068
0.00280198
0.00405416
0.00585132
0.00707304
0.00774631
0.00821663
0.00842326
0.00821007
0.00776291
0.00681537
0.00544444
0.00365109
0.00295439
0.00252605
0.00246093
0.00235165
0.00189399
0.000508091
0.000540732
0.000471718
0.00145558
0.00222414
0.00263492
0.00279796
0.00313134
0.0034652
0.00374788
0.00379613
0.00384795
0.00378704
0.00373178
0.0037105
0.00377326
0.00381846
0.00387552
0.00374771
0.00307892
0.00140969
0.000560829
0.000503709
0.000717835
0.000902915
0.00091747
0.00188427
0.00229368
0.00031693
0.00015763
4.22488e-05
5.154e-05
7.45444e-05
4.50133e-05
3.06928e-05
3.96824e-05
4.6926e-05
6.36317e-05
7.26536e-05
8.1018e-05
9.39491e-05
9.92348e-05
0.000108047
0.000104581
9.75795e-05
8.70193e-05
8.51416e-05
8.83491e-05
8.23131e-05
9.53064e-05
8.56048e-05
8.30311e-05
8.13439e-05
7.86511e-05
7.15803e-05
7.31907e-05
7.60472e-05
8.11483e-05
8.32206e-05
8.02648e-05
0.00022266
0.000219023
6.37093e-05
2.24254e-05
3.48853e-05
2.21196e-05
0.000178746
0.000275148
0.00027388
0.000245809
0.000194932
0.000170271
0.00013428
8.49722e-05
0.00010127
0.000109476
0.000110528
0.000157756
0.000186606
0.000213993
0.000250096
0.000862021
0.00101403
0.000808467
0.00026085
0.000358622
0.00147704
0.00191534
0.00196093
0.00280217
2.86769e-05
4.09606e-05
3.80974e-05
3.15282e-05
2.73876e-05
2.60853e-05
1.98894e-05
1.99904e-05
2.00134e-05
1.8051e-05
1.57674e-05
1.31366e-05
1.27772e-05
1.46765e-05
1.66738e-05
1.83824e-05
2.00565e-05
1.14188e-05
1.61515e-05
2.65331e-05
3.6515e-05
4.53462e-05
4.39975e-05
5.59182e-05
7.22086e-05
8.00322e-05
7.07388e-05
6.46786e-05
6.73057e-05
6.01765e-05
0.000173392
0.000225969
0.000300373
0.000230587
0.00132434
0.00235579
0.0030947
0.00490507
0.00647813
0.00737911
0.00793199
0.00781692
0.00702476
0.00519071
0.00301832
0.00212075
0.00119675
0.000433248
0.000305933
0.000273265
0.000196804
5.55992e-05
1.75572e-05
1.54728e-05
1.44707e-05
1.50916e-05
1.57208e-05
3.62642e-05
5.86241e-05
4.19205e-05
0.000182412
7.36067e-05
0.00011024
0.000179673
0.000241136
0.000277494
0.000463488
0.00116238
0.00186223
0.00252017
0.00350347
0.00438628
0.00483107
0.00491067
0.00474579
0.00482646
0.00446781
0.00361166
0.00248012
0.0017906
0.000744276
0.000286147
0.000181665
9.01411e-05
7.96676e-05
4.75208e-05
3.84344e-05
3.44101e-05
2.05658e-05
-7.03228e-06
-2.91111e-06
5.09663e-06
3.22405e-05
5.29431e-05
3.22143e-05
0.00021731
0.000361474
0.00188808
0.00423027
0.00811567
0.0115998
0.0137203
0.0137135
0.0115845
0.00732541
0.00263181
0.00103079
0.000213991
8.53659e-05
4.64598e-05
4.13907e-05
2.98998e-05
5.76303e-07
8.15421e-06
5.47045e-06
8.87646e-06
1.34244e-05
1.22529e-05
1.13679e-05
1.15859e-05
7.07721e-06
8.25834e-06
1.24343e-05
2.12688e-05
1.90167e-05
2.96365e-06
1.69032e-05
2.02593e-05
6.61543e-06
3.19645e-05
2.84535e-05
2.9913e-05
2.52728e-05
8.86428e-06
2.18135e-05
1.67307e-05
8.37686e-06
1.48455e-05
1.2695e-05
1.28985e-05
2.78908e-05
3.65054e-05
6.96304e-05
0.000186908
0.000176025
3.06305e-05
3.08881e-05
2.32684e-05
1.77502e-05
1.0713e-05
1.03246e-05
8.97604e-06
2.56643e-05
3.64995e-06
4.03593e-07
1.00696e-07
2.35865e-07
4.11817e-07
5.80627e-07
1.11344e-06
1.18863e-06
3.36146e-06
1.70008e-06
3.25496e-06
1.85442e-06
3.09523e-06
1.67459e-06
1.24564e-06
7.59689e-07
6.56275e-07
4.85903e-07
2.64783e-07
3.69209e-07
2.89779e-07
5.3965e-06
1.44692e-05
7.77771e-06
1.79663e-05
0.000976269
0.0447562
0.0355821
0.0362341
0.0216053
0.011408
0.00976882
0.0103567
0.0117763
0.0146182
0.0172328
0.0172033
0.0138727
0.00885402
0.00767844
0.00708291
0.0328098
0.022214
0.020073
0.0250744
0.033288
0.0378519
0.0398867
0.0409894
0.0413787
0.0408098
0.038573
0.0337726
0.0231052
0.00979218
0.00861122
0.0175929
0.0248656
0.0265128
0.0259908
0.0247969
0.0235608
0.022475
0.0221094
0.022266
0.0225443
0.0231134
0.0254442
0.0291462
0.0309265
0.0339076
0.0141596
0.0115172
0.00906522
0.00995774
0.0110229
0.00816392
0.00270253
0.00103123
0.00141335
0.00162451
0.000473728
0.000596868
0.00245094
0.00472308
0.00786396
0.00911127
0.00920904
0.00899321
0.00879242
0.00880146
0.00895763
0.0092086
0.00956692
0.00973585
0.0087261
0.00577818
0.00343783
0.0032527
0.00462718
0.00826362
0.00233352
0.00225244
0.00253167
0.00258334
0.00169423
0.000571597
0.000479396
0.000550589
0.000581754
0.000885703
0.000780053
0.000602408
0.00140681
0.00259926
0.00389793
0.00583797
0.00712494
0.00779191
0.0084571
0.00859895
0.00841385
0.00794766
0.00720104
0.00575705
0.00396913
0.00304183
0.00250006
0.00245282
0.0024354
0.0018805
0.000489752
0.000539825
0.000523771
0.00148102
0.00208179
0.00236349
0.00249519
0.0029124
0.00336796
0.00373077
0.00379437
0.00381895
0.00368914
0.00367954
0.00373872
0.0036708
0.00382712
0.00388664
0.00387095
0.00320657
0.0016058
0.000551005
0.000447168
0.000298803
0.00101759
0.00117324
0.00200419
0.00236521
0.000693763
0.00015816
4.25582e-05
5.89564e-05
6.96886e-05
3.53428e-05
3.19293e-05
3.87377e-05
4.44412e-05
6.00905e-05
6.66623e-05
8.44323e-05
9.21372e-05
0.000102001
0.000105543
0.000100837
9.77601e-05
9.08496e-05
9.23339e-05
8.32127e-05
9.09699e-05
8.5862e-05
9.4351e-05
8.45752e-05
8.35315e-05
8.50819e-05
8.18073e-05
7.45942e-05
7.68947e-05
8.38803e-05
8.98319e-05
7.88146e-05
0.000208153
0.000193843
3.83445e-05
1.42338e-05
3.7963e-05
4.60044e-05
0.00022347
-9.69723e-05
0.000270418
0.000224715
0.000163252
0.000101757
6.8061e-05
2.87765e-05
2.75715e-05
3.1392e-05
5.00989e-05
0.000113552
0.000160412
0.000200979
-0.000143128
0.000618702
0.000991479
0.000884042
0.000468045
0.000276689
0.000924878
0.00124495
0.00135956
0.00105243
3.04997e-05
3.8021e-05
3.43088e-05
2.94484e-05
2.57808e-05
2.01151e-05
2.26903e-05
3.65376e-06
1.81212e-05
1.4478e-05
1.08996e-05
1.10115e-05
1.0542e-05
1.07918e-05
1.2909e-05
1.65952e-05
1.77816e-05
2.12778e-05
1.1228e-05
2.20842e-05
3.21353e-05
4.3705e-05
4.15884e-05
4.95094e-05
5.94579e-05
6.33425e-05
6.15221e-05
7.56489e-05
8.62164e-05
6.5098e-05
0.000196613
0.000219493
0.000305799
0.000589356
0.00181566
0.00281419
0.00431978
0.00673069
0.00805919
0.00925363
0.00989721
0.00995369
0.00887214
0.0075321
0.00516405
0.00280356
0.0017674
0.000857755
6.26462e-05
0.000287427
0.00022632
2.48262e-05
1.67377e-05
1.88174e-05
7.59022e-06
1.93255e-05
4.04339e-05
5.93623e-05
6.88961e-05
4.40314e-05
5.32106e-05
7.74052e-05
7.71362e-05
0.000181197
0.000220424
0.000254632
0.00048466
0.00129479
0.00213455
0.00283303
0.004059
0.00475976
0.00488141
0.00484645
0.00496627
0.0049359
0.00486089
0.00436828
0.00295301
0.00210929
0.00117262
-0.000133795
0.000212686
0.000142141
4.80292e-06
6.20504e-05
5.14382e-05
4.20916e-05
9.0646e-06
2.6457e-05
-5.26212e-07
5.60397e-06
3.73609e-05
6.71131e-05
8.35127e-05
0.000271989
0.00127711
0.00277978
0.00796052
0.0129782
0.0167992
0.0189827
0.0191587
0.0173579
0.0132158
0.0070648
0.00221106
0.000408358
0.000153525
2.50926e-05
4.29451e-05
3.28487e-05
1.37986e-05
1.20413e-05
7.92067e-06
1.02572e-05
1.3323e-05
1.29967e-05
1.1489e-05
1.02236e-05
7.53033e-06