/*--------------------------------*- C++ -*----------------------------------*\
| =========                 |                                                 |
| \\      /  F ield         | OpenFOAM: The Open Source CFD Toolbox           |
|  \\    /   O peration     | Version:  2.1.1                                 |
|   \\  /    A nd           | Web:      www.OpenFOAM.org                      |
|    \\/     M anipulation  |                                                 |
\*---------------------------------------------------------------------------*/
FoamFile
{
    version     2.0;
    format      ascii;
    class       volScalarField;
    location    "0.006350000";
    object      sL;
}
// * * * * * * * * * * * * * * * * * * * * * * * * * * * * * * * * * * * * * //

dimensions      [0 1 -1 0 0 0 0];

internalField   nonuniform List<scalar> 
12384
(
8.63418
8.29311
8.1607
8.26592
8.34574
8.53368
8.59959
8.81426
8.87278
9.05141
9.08889
9.11891
9.37294
11.12
2.81836
3.26846
3.54065
3.73644
3.87201
3.94553
3.89258
3.86447
3.82783
3.81555
3.79947
3.78351
3.77556
3.75444
3.75117
3.71342
3.71088
3.66715
3.69726
3.67101
3.75592
3.73459
3.86985
3.87527
3.99202
4.02445
4.04196
3.73959
2.75282
2.63575
2.87928
3.27476
3.46773
3.43919
3.31063
3.27882
3.12344
3.10873
3.02278
3.031
3.0292
3.04814
3.07151
3.08557
3.09292
3.08588
3.08073
3.07612
3.05521
3.06745
3.05088
3.06461
3.04902
3.07766
3.09525
3.16996
3.37803
3.59888
3.45493
3.4426
3.03164
2.90342
2.95966
3.04223
3.12142
3.17963
3.22825
3.28699
3.33193
3.36662
3.38531
3.38042
3.32658
3.25406
3.14559
3.11887
2.8937
2.92601
2.69543
2.74139
2.7001
2.74497
2.83116
2.94532
3.03135
2.92763
2.51262
2.48242
2.56248
2.58174
3.2407
3.60654
3.75991
3.78715
3.75373
3.66684
3.55563
3.40945
3.33129
3.13205
3.17528
2.98501
3.02251
3.17413
2.99997
3.49233
3.43002
3.81319
3.81388
3.83435
3.48875
3.2953
3.2492
3.29705
3.29706
3.35184
3.36302
3.42143
3.42767
3.42424
2.77728
2.78094
2.6881
2.78063
2.83693
2.94036
2.858
2.90908
2.95672
2.9727
3.01694
3.04778
3.07319
3.06748
3.0253
2.95272
2.86425
2.78197
2.71091
2.65855
2.66461
2.69081
2.72138
2.7523
2.77792
2.83057
2.98786
2.97501
2.90828
2.92376
1.87495
1.68173
1.59309
1.73004
1.83087
1.87464
1.88028
1.83573
1.82348
1.76253
1.70821
1.58149
1.60027
1.46601
1.47924
1.40302
1.41892
1.41553
1.45779
1.48265
1.52203
1.57344
1.63494
1.52972
1.20569
1.21366
1.19905
1.17552
1.17126
1.15872
1.82956
2.09278
2.40615
2.64325
2.76007
2.79729
2.80186
2.78645
2.76125
2.6949
2.63985
2.65841
2.63124
2.61898
2.65022
2.71564
2.76924
2.8504
2.89762
2.92206
2.9436
2.84075
2.69744
2.61223
2.5715
2.56691
2.57784
2.6033
2.61318
2.60847
2.67901
2.98418
3.05646
3.01197
2.9145
2.80279
2.67511
2.56457
2.45825
2.35714
2.32733
2.25043
2.26664
2.31021
2.35993
2.44589
2.5042
2.60575
2.74403
2.61069
2.45992
2.47113
2.48559
2.4845
2.49611
2.50265
2.50271
2.49492
2.48827
2.48729
2.54531
2.70472
2.91403
3.04842
3.04461
2.97306
2.86002
2.72909
2.59429
2.44536
2.37059
2.23134
2.26189
2.1372
2.36135
2.29208
2.63833
2.67808
2.95253
3.00158
3.03974
2.90854
2.81701
2.84428
2.97317
3.00522
3.03649
3.0514
3.04716
3.02945
2.64582
2.79277
2.89001
2.93203
2.90064
2.83793
2.72168
2.61099
2.45664
2.42198
2.22875
2.28823
2.21515
2.27757
2.32393
2.44204
2.54519
2.58758
2.59355
2.48731
2.3879
2.34123
2.34495
2.3632
2.40113
2.43341
2.45018
2.43438
2.38696
2.32608
1.41641
1.39373
1.39041
1.42524
1.47637
1.42793
1.3974
1.40234
1.42519
1.47927
1.57027
1.59142
1.7133
1.68217
1.78898
1.73851
1.76991
1.71906
1.69595
1.66535
1.67997
1.67069
1.74981
1.75003
1.81862
1.85041
1.88838
1.92767
2.02625
2.08614
1.44432
1.4496
1.41402
1.28769
1.02634
0.703142
0.940924
2.6873
3.22733
3.10182
2.94877
2.89375
2.83258
2.76031
2.7745
2.71109
2.75027
2.67755
2.67585
2.60563
2.58249
2.5978
2.67077
2.86928
3.05223
3.19065
3.25811
3.29777
3.26941
2.19013
6.8796
7.07393
7.41318
7.64028
7.61648
7.64543
7.73104
8.06912
8.49494
9.09277
9.44088
9.49143
9.51603
10.8571
2.81989
3.33941
3.75
4.06379
4.1737
4.03273
3.85986
3.81407
3.76749
3.74193
3.71447
3.65944
3.6238
3.56801
3.51127
3.44997
3.42447
3.37458
3.4008
3.40523
3.47971
3.53874
3.70865
3.82678
4.00924
4.08519
4.10601
3.95414
3.35142
2.86991
2.94523
3.34327
3.47747
3.39262
3.23308
3.14447
3.01019
3.00695
2.93672
2.97284
3.00485
3.06611
3.11577
3.16469
3.18563
3.19818
3.19761
3.17766
3.16635
3.13566
3.11553
3.0688
3.02361
2.98283
2.97955
3.02233
3.19182
3.47036
3.56827
3.50438
3.04186
2.92693
3.04989
3.17218
3.2469
3.29926
3.32119
3.35382
3.38192
3.39353
3.38088
3.33093
3.2426
3.15738
3.03138
2.89991
2.76102
2.69384
2.53871
2.53195
2.56238
2.58303
2.65066
2.7523
2.87237
2.92613
2.72414
2.51652
2.59286
2.67256
3.25699
3.68057
3.7696
3.68295
3.5682
3.46535
3.35651
3.24738
3.1703
3.05763
3.02807
2.97094
2.96976
2.97876
3.09604
3.22788
3.38461
3.59439
3.74211
3.86626
3.72945
3.48645
3.30058
3.29849
3.30842
3.34873
3.40867
3.5002
3.54069
3.51682
2.81646
2.77007
2.69625
2.80217
2.79449
2.77433
2.67841
2.7829
2.82878
2.95798
3.06806
3.18162
3.26102
3.30498
3.2964
3.25005
3.16232
3.05752
2.94454
2.86731
2.77028
2.72657
2.69856
2.69433
2.71667
2.76522
2.88078
2.9773
2.99162
2.97889
1.83246
1.69687
1.99505
2.0508
1.93626
1.83751
1.85602
1.88598
1.88828
1.87004
1.82492
1.71918
1.66852
1.55658
1.48817
1.41738
1.36727
1.35186
1.33341
1.36179
1.40254
1.46528
1.55865
1.59996
1.32642
1.15499
1.11575
1.12203
1.13095
1.08991
2.2015
2.5785
2.80889
2.87366
2.86825
2.83769
2.79998
2.75037
2.6715
2.62718
2.63401
2.57711
2.53834
2.55307
2.58224
2.62151
2.6774
2.73528
2.80501
2.86473
2.92801
2.92661
2.77158
2.58463
2.49697
2.50014
2.54836
2.62319
2.68529
2.72599
2.90515
3.03297
2.95983
2.84232
2.71044
2.58147
2.49326
2.35897
2.24707
2.16432
2.12417
2.10661
2.09158
2.13177
2.18969
2.27011
2.34911
2.47364
2.64547
2.74201
2.52038
2.49101
2.51497
2.50223
2.51656
2.5412
2.55622
2.53267
2.4845
2.49349
2.50211
2.65542
2.99679
3.07575
2.91137
2.69289
2.51473
2.31987
2.1604
1.97689
1.88358
1.81169
1.73487
1.78737
1.77437
1.93728
2.08917
2.35365
2.55244
2.74651
2.92037
2.95157
2.92703
2.88289
3.01927
3.09924
3.10946
3.11473
3.14044
3.14912
2.57013
2.77089
2.96738
2.95572
2.86475
2.72729
2.57145
2.43478
2.29111
2.12063
2.09645
1.96334
1.98083
2.03509
2.11421
2.20351
2.32649
2.4662
2.56982
2.55658
2.44412
2.38949
2.41335
2.48478
2.5387
2.55361
2.55707
2.54115
2.4944
2.41258
1.45707
1.44363
1.44036
1.45617
1.43974
1.41341
1.41366
1.5767
1.78195
1.99975
2.154
2.22921
2.33026
2.29686
2.33212
2.27093
2.21855
2.11573
1.98358
1.88922
1.83977
1.79827
1.8451
1.91582
1.97089
2.00502
2.03761
2.00372
2.03342
2.09557
2.23512
2.23317
2.21165
1.83901
1.06202
0.951574
1.86468
3.14719
3.22558
3.11334
3.10271
3.10471
3.12428
3.16368
3.16596
3.15608
3.16913
3.09763
3.02475
2.83957
2.6291
2.39516
2.31084
2.49768
2.91501
3.18223
3.29685
3.29803
3.25583
1.94973
6.83008
7.19183
7.00468
6.49952
6.15376
6.11701
6.17248
6.36703
6.77454
7.60857
8.77145
9.63048
9.69657
10.7144
2.82462
3.44462
4.00211
4.31182
4.15287
3.84263
3.68477
3.6522
3.58974
3.55243
3.48959
3.4637
3.42324
3.39208
3.35213
3.3197
3.30586
3.2701
3.29072
3.28955
3.37523
3.42167
3.59663
3.72181
3.99504
4.1348
4.19599
4.10663
3.75038
3.13384
2.95377
3.4107
3.49969
3.40874
3.30849
3.30011
3.18563
3.16886
3.04178
3.04174
3.07961
3.1677
3.22592
3.28321
3.33043
3.3453
3.32927
3.32503
3.30593
3.31148
3.25417
3.22728
3.14938
3.06353
2.97881
2.94316
3.01946
3.26956
3.53394
3.5519
3.0283
2.96981
3.12
3.24466
3.28974
3.31668
3.3326
3.35254
3.35721
3.35775
3.31767
3.23426
3.13533
3.04453
2.88897
2.74662
2.67682
2.55911
2.45848
2.42649
2.38652
2.44546
2.51687
2.60338
2.71471
2.81343
2.79712
2.62166
2.57238
2.68093
3.52119
3.74245
3.64208
3.50815
3.40377
3.33452
3.2722
3.24289
3.23782
3.2582
3.26279
3.16762
3.14331
3.21221
3.14535
3.34287
3.32156
3.52813
3.63799
3.78601
3.80368
3.62774
3.36667
3.28497
3.27379
3.31042
3.37194
3.47715
3.60645
3.63423
2.77874
2.76966
2.7183
2.8086
2.63231
2.66318
2.64872
2.83232
2.98191
3.18357
3.35007
3.50214
3.62251
3.69608
3.7313
3.71428
3.66247
3.57401
3.47217
3.31942
3.17931
2.99288
2.83089
2.72924
2.69481
2.71071
2.81655
2.96074
3.0774
3.09573
1.78275
1.94872
2.14456
1.84492
1.79689
2.00999
2.20478
2.25094
2.20021
2.10677
2.03877
1.9392
1.87033
1.78525
1.75134
1.65279
1.60448
1.50004
1.42671
1.36251
1.35234
1.38256
1.45006
1.55111
1.50414
1.24694
1.12111
1.15593
1.20212
1.10037
2.54996
2.79592
2.86009
2.80732
2.75968
2.73481
2.69778
2.64589
2.63235
2.65623
2.5843
2.51264
2.5429
2.58151
2.5965
2.6169
2.64903
2.69165
2.73136
2.7831
2.84198
2.90045
2.8536
2.6408
2.47743
2.47183
2.53189
2.61445
2.7114
2.84748
3.03617
2.91003
2.76671
2.65809
2.56738
2.49324
2.39624
2.26123
2.21583
2.14682
2.10709
2.0242
2.03347
2.04962
2.10929
2.15816
2.21903
2.31145
2.47488
2.66224
2.64942
2.50102
2.51339
2.52098
2.52904
2.57169
2.6514
2.69875
2.56445
2.45151
2.46006
2.71082
3.0884
2.89774
2.62603
2.41509
2.23342
2.03888
1.91148
1.75721
1.72282
1.56842
1.58018
1.50421
1.5934
1.65931
1.82094
1.96065
2.20137
2.41881
2.65275
2.83104
2.9039
2.90973
2.97584
3.05299
3.03003
3.06363
3.15182
3.19496
2.54595
2.87578
3.0011
2.8901
2.75283
2.59242
2.40404
2.3209
2.01865
1.98272
1.86742
1.80992
1.79284
1.80553
1.90202
2.00358
2.10965
2.24565
2.40396
2.49139
2.48547
2.42402
2.42502
2.50818
2.56135
2.55586
2.52579
2.48553
2.48001
2.47502
1.4706
1.46407
1.46094
1.4476
1.42588
1.42655
1.66077
1.95999
2.25751
2.4382
2.5783
2.57489
2.61338
2.59738
2.56227
2.48992
2.43436
2.31579
2.18641
2.00301
1.90163
1.87033
1.866
1.95443
2.07706
2.10047
2.15046
2.09911
2.05825
2.08193
2.0498
2.12864
2.07401
1.47058
1.14247
1.47594
3.00021
3.30424
3.23821
3.27252
3.33049
3.40151
3.45175
3.43459
3.46939
3.43732
3.4735
3.43312
3.4357
3.32679
3.13891
2.78128
2.37312
2.25479
2.63573
3.05413
3.25713
3.26431
3.03872
1.38328
6.83776
6.51809
5.68693
5.44847
5.54457
5.8351
6.01206
6.07019
6.10119
6.44284
7.56502
9.17225
9.79642
10.7024
2.83992
3.55993
4.22505
4.39719
4.00157
3.66876
3.55682
3.51664
3.45207
3.41775
3.39275
3.38222
3.38016
3.35341
3.34019
3.30254
3.32439
3.39709
3.49964
3.62497
3.71876
3.78713
3.86884
3.92613
4.1028
4.25019
4.3167
4.23378
3.96464
3.31226
3.02698
3.43548
3.56831
3.52149
3.50051
3.49762
3.34538
3.20875
3.05074
3.04625
3.09749
3.19391
3.2669
3.32658
3.34149
3.34827
3.36927
3.38038
3.38598
3.34823
3.37736
3.31643
3.26408
3.17642
3.04769
2.9453
2.94194
3.12119
3.4611
3.57567
3.04734
2.98558
3.17332
3.26416
3.29415
3.31261
3.33777
3.34665
3.34433
3.32205
3.267
3.16764
3.08105
2.93969
2.75187
2.73705
2.636
2.43968
2.4758
2.3482
2.37618
2.36099
2.3864
2.45902
2.56614
2.69645
2.76198
2.67413
2.56902
2.65043
3.77655
3.69422
3.54853
3.42132
3.31971
3.27606
3.2733
3.33432
3.37919
3.56618
3.49236
3.60397
3.57603
3.5029
3.561
3.52465
3.47076
3.53121
3.55362
3.71662
3.77936
3.69356
3.42639
3.26601
3.23397
3.26438
3.29551
3.40098
3.60106
3.68967
2.84417
2.77233
2.71718
2.71392
2.53352
2.67363
2.71631
3.00761
3.1062
3.31146
3.46186
3.62264
3.75318
3.85848
3.92417
3.96734
3.96538
3.9345
3.87102
3.7773
3.59768
3.36479
3.11081
2.88354
2.75085
2.72887
2.75081
2.85038
3.01876
3.09173
1.80314
2.15836
1.79409
1.79333
2.23783
2.48344
2.43875
2.30339
2.14282
2.05428
2.00013
1.95817
1.9314
1.92528
1.85448
1.84674
1.75701
1.69972
1.57416
1.46015
1.36817
1.3521
1.38731
1.4624
1.53053
1.39365
1.17697
1.18864
1.2798
1.12547
2.79173
2.82696
2.74806
2.71703
2.69292
2.66336
2.63738
2.6696
2.70984
2.61407
2.53715
2.57354
2.56881
2.56716
2.61487
2.64699
2.65877
2.68272
2.70551
2.73146
2.76889
2.84273
2.87048
2.73615
2.54459
2.47821
2.54454
2.60241
2.71364
2.89182
2.8392
2.72444
2.62286
2.55596
2.5052
2.40928
2.30078
2.23269
2.17943
2.07394
1.97063
1.98807
1.96593
1.99532
2.03539
2.09953
2.14523
2.19438
2.31436
2.5065
2.65028
2.56236
2.50773
2.51364
2.51507
2.51922
2.64389
2.88419
2.81616
2.4815
2.45069
3.00933
2.95327
2.6239
2.42159
2.24879
2.04493
1.90207
1.74623
1.65966
1.53636
1.50191
1.46823
1.50312
1.37246
1.49761
1.59008
1.75004
1.89447
2.1243
2.36272
2.66222
2.81767
2.8693
2.92223
3.03002
2.97958
2.9956
3.18426
3.25986
2.60106
3.01834
2.95325
2.82132
2.65499
2.45093
2.31407
2.14392
1.81533
1.91059
1.65835
1.70362
1.70262
1.72158
1.7326
1.83483
1.94019
2.03892
2.1986
2.36548
2.43871
2.42852
2.4231
2.44915
2.50767
2.51531
2.44052
2.37327
2.38632
2.4455
1.47748
1.47674
1.46255
1.43788
1.42382
1.64363
1.9916
2.3524
2.58567
2.75552
2.80583
2.8856
2.81564
2.76385
2.69529
2.54398
2.46028
2.35712
2.20961
2.03011
1.86511
1.85337
1.89535
1.91693
2.04983
2.12268
2.1624
2.14806
2.08794
2.07038
1.87264
1.93868
1.46547
1.29371
1.42411
2.69355
3.34605
3.34509
3.37812
3.42633
3.55037
3.57724
3.58092
3.63645
3.60984
3.60172
3.57533
3.52931
3.50307
3.47701
3.43683
3.26071
2.78262
2.22191
2.1962
2.71102
2.99449
3.00465
2.41295
1.17618
6.38734
5.48607
5.09802
5.49612
6.39114
7.11103
7.28583
7.02011
6.55056
6.29915
6.87748
8.56871
9.80573
10.7353
2.84735
3.68287
4.40254
4.40938
3.8617
3.56982
3.45356
3.41579
3.34808
3.3227
3.29468
3.3102
3.32236
3.33775
3.33389
3.38766
3.61158
3.84611
4.12701
4.32405
4.48489
4.53599
4.56647
4.47646
4.46234
4.48861
4.4851
4.35042
4.07078
3.41453
2.97408
3.49002
3.5971
3.6134
3.64091
3.63972
3.34293
3.15603
3.04425
3.03717
3.12172
3.19529
3.27799
3.31818
3.34588
3.3967
3.43321
3.41821
3.39884
3.42326
3.3671
3.3727
3.31312
3.25776
3.14752
2.99271
2.92613
3.0365
3.38468
3.57783
3.05479
3.0078
3.18425
3.27417
3.28852
3.31567
3.33551
3.36071
3.34686
3.30113
3.23644
3.15087
3.02037
2.82221
2.71469
2.68607
2.49914
2.47943
2.47415
2.42039
2.36481
2.37427
2.3646
2.42374
2.49646
2.58967
2.67404
2.6607
2.56728
2.62404
3.69006
3.58829
3.44066
3.31658
3.23311
3.23755
3.2869
3.4351
3.50887
3.72851
3.81697
3.92464
3.87619
3.95093
3.80995
3.81058
3.67165
3.60602
3.5899
3.61695
3.72919
3.68643
3.47418
3.29134
3.2103
3.23281
3.258
3.32182
3.51593
3.70187
2.8055
2.79657
2.71613
2.60457
2.56086
2.73621
2.80808
3.05417
3.15881
3.26703
3.44164
3.60446
3.76663
3.91857
4.05515
4.16113
4.25528
4.21478
4.1842
4.07538
3.9459
3.74818
3.41951
3.12887
2.91568
2.76081
2.74806
2.8775
3.05556
3.19479
1.87919
2.02568
1.66644
2.32094
2.64423
2.55919
2.2974
2.08958
1.99395
1.98081
2.04955
2.06747
2.15305
2.13209
2.14741
2.04216
1.99444
1.88271
1.78877
1.63781
1.46325
1.34807
1.35017
1.41176
1.49563
1.47555
1.27935
1.25464
1.31973
1.16102
2.85031
2.78017
2.68452
2.64484
2.6421
2.64688
2.66887
2.68886
2.57664
2.54592
2.63878
2.62564
2.59213
2.56151
2.56076
2.62447
2.661
2.70062
2.69056
2.71992
2.73537
2.7776
2.85066
2.8166
2.66296
2.59231
2.61351
2.67633
2.75589
2.91132
2.68929
2.5821
2.53922
2.50853
2.40334
2.317
2.22027
2.1537
2.00028
1.91112
1.9483
1.9339
1.97258
1.97218
1.99009
2.01257
2.07008
2.12282
2.20464
2.3665
2.55119
2.59211
2.51201
2.5017
2.48547
2.46771
2.62991
3.0181
3.0811
2.61045
2.43569
3.15736
2.73209
2.50631
2.29769
2.09449
1.92607
1.75928
1.65868
1.5471
1.49527
1.43809
1.38438
1.33595
1.4814
1.41396
1.51326
1.55766
1.72396
1.90849
2.13934
2.39283
2.69744
2.79583
2.83601
2.92213
2.97253
2.95374
3.18256
3.33694
2.81375
2.99345
2.91787
2.75526
2.54806
2.36912
2.21065
1.88022
1.82809
1.73738
1.57461
1.56352
1.49547
1.50835
1.56778
1.66963
1.80259
1.91581
2.02684
2.20601
2.35166
2.40913
2.40642
2.43278
2.47959
2.45926
2.33387
2.22534
2.26025
2.39813
1.48841
1.53938
1.46937
1.42937
1.55642
1.88761
2.29416
2.6251
2.87718
2.97795
3.09724
3.16258
3.22128
2.99739
2.85726
2.60712
2.43201
2.33767
2.19607
1.94908
1.84129
1.80726
1.86353
1.85276
1.90108
2.05648
2.14827
2.13516
2.09817
2.07062
1.79862
1.75093
1.34201
1.3888
2.21171
3.2632
3.42858
3.41477
3.53562
3.5931
3.67781
3.69592
3.76733
3.74487
3.77588
3.74692
3.7072
3.63059
3.54145
3.44242
3.41528
3.42119
3.27531
2.58106
1.9625
2.26902
2.39907
2.31576
1.60199
0.978506
5.81936
4.91897
5.20471
6.63658
8.09736
8.59757
8.48542
7.98032
7.25526
6.53938
6.65957
8.1392
9.77406
10.8121
2.86152
3.78537
4.54951
4.43137
3.81393
3.4957
3.38508
3.3379
3.28414
3.25644
3.24293
3.2698
3.29784
3.3272
3.37946
3.62692
4.03955
4.44824
4.77879
5.06221
5.25351
5.37252
5.395
5.20925
4.99685
4.82819
4.69602
4.44943
4.12424
3.45285
3.07681
3.50983
3.72875
3.74729
3.77885
3.59633
3.28154
3.11616
3.06455
3.05628
3.12124
3.20956
3.2574
3.30158
3.37
3.40868
3.39063
3.38387
3.37538
3.32902
3.34869
3.36646
3.37277
3.32391
3.20263
3.04318
2.93165
2.99574
3.34247
3.55828
3.08359
3.0093
3.18623
3.25344
3.29564
3.30607
3.36165
3.35375
3.34371
3.30558
3.25936
3.12648
2.96626
2.75882
2.71483
2.52434
2.51796
2.45392
2.42872
2.33545
2.3219
2.30791
2.28114
2.28922
2.39101
2.50226
2.61737
2.6333
2.53949
2.60535
3.62396
3.54416
3.38386
3.23356
3.16985
3.20603
3.26388
3.4653
3.55006
3.81728
3.89406
4.09121
4.1165
4.11357
4.05675
3.94985
3.82385
3.68913
3.57877
3.60626
3.63912
3.66141
3.48871
3.29084
3.19345
3.18722
3.22288
3.2913
3.44536
3.6834
2.88762
2.77917
2.668
2.57864
2.62178
2.74335
2.89495
2.98404
3.07935
3.22537
3.37136
3.58118
3.74556
3.94958
4.20062
4.44397
4.54423
4.61704
4.51717
4.38515
4.23155
3.97595
3.7226
3.40885
3.03774
2.84499
2.82284
2.85272
2.99299
3.13371
1.93604
1.84567
2.04704
2.70078
2.6736
2.4124
2.11582
1.96888
1.92581
2.08439
2.14783
2.33407
2.39865
2.4852
2.40743
2.34712
2.20927
2.10356
1.90593
1.75734
1.59772
1.42428
1.33661
1.37204
1.45906
1.49814
1.39569
1.34477
1.36156
1.2373
2.83716
2.70485
2.65134
2.6167
2.61326
2.63864
2.61953
2.56978
2.5616
2.6458
2.52309
2.42637
2.42524
2.51297
2.56583
2.59096
2.60912
2.73426
2.6896
2.72061
2.72747
2.7556
2.82818
2.84686
2.77288
2.71284
2.70722
2.77169
2.83724
2.95049
2.58669
2.51229
2.49378
2.41219
2.31605
2.24419
2.07248
2.02188
1.92808
1.97005
1.92757
1.89872
1.86893
1.9235
1.98655
2.0305
2.03035
2.06923
2.12311
2.24578
2.45508
2.58616
2.52863
2.49437
2.46903
2.39915
2.66414
3.08128
3.19925
2.72613
2.41913
2.95024
2.59227
2.45223
2.22014
1.99276
1.79752
1.67041
1.5665
1.50308
1.45122
1.43479
1.47811
1.48843
1.31147
1.38588
1.39735
1.50635
1.56964
1.72895
1.99047
2.25352
2.47453
2.7319
2.80451
2.83948
2.87657
2.9721
3.22445
3.33027
3.00734
2.99505
2.87593
2.67951
2.46149
2.28485
2.02494
1.76831
1.84084
1.58967
1.61048
1.57328
1.54384
1.51586
1.48819
1.50054
1.63553
1.80687
1.92004
2.05474
2.23597
2.34898
2.39257
2.4238
2.46399
2.4175
2.24744
2.13541
2.16396
2.3285
1.52924
1.54187
1.46325
1.44021
1.6889
2.12043
2.52469
2.83248
3.0916
3.30755
3.4128
3.44405
3.46146
3.33365
3.02593
2.6813
2.42732
2.29734
2.17928
1.86284
1.77089
1.82331
1.74726
1.74095
1.73975
1.92341
2.13526
2.12315
2.05489
2.06149
1.83364
1.72374
1.38162
1.75593
2.91672
3.43121
3.52066
3.50823
3.67326
3.67909
3.85332
3.81107
3.89612
3.93554
3.91261
3.92435
3.80357
3.75067
3.6362
3.46169
3.35505
3.33552
3.3966
3.06649
1.99984
1.84205
1.95017
1.60004
1.23823
0.817339
5.34841
4.7699
5.99032
8.23505
9.14781
9.07275
8.88389
8.46426
7.72582
6.84282
6.72658
8.1396
9.87796
10.8745
2.84752
3.835
4.70261
4.59188
3.87522
3.49574
3.36615
3.31063
3.2795
3.31437
3.40073
3.41139
3.33154
3.34266
3.47489
3.91653
4.47132
4.87187
5.21338
5.50562
5.77592
5.99925
6.12604
5.91663
5.56052
5.19615
4.88433
4.51584
4.11814
3.44186
2.99925
3.52909
3.71022
3.7939
3.77042
3.51916
3.19777
3.15163
3.08066
3.06916
3.12722
3.20004
3.27004
3.35692
3.39365
3.39103
3.40407
3.37548
3.32517
3.36911
3.30754
3.28514
3.29422
3.33777
3.22346
3.12353
2.93999
3.01996
3.29133
3.59071
3.10872
3.01563
3.18404
3.27291
3.26844
3.3126
3.33977
3.37313
3.35508
3.33901
3.2528
3.14031
2.97578
2.76512
2.59475
2.54343
2.43645
2.41295
2.43759
2.39465
2.3431
2.31897
2.31838
2.25359
2.371
2.45143
2.54778
2.58321
2.48392
2.57109
3.54028
3.44752
3.28684
3.15063
3.05897
3.15242
3.18209
3.42156
3.44226
3.75655
3.77462
3.93692
4.03303
4.07577
4.14004
3.88338
3.88798
3.67477
3.58804
3.5375
3.63079
3.59653
3.51333
3.31521
3.19805
3.1946
3.21989
3.26269
3.36919
3.64559
2.86793
2.79528
2.67094
2.57823
2.69599
2.76045
2.87993
2.93191
2.97837
3.13071
3.31547
3.47242
3.70611
3.94194
4.30292
4.64212
4.77034
4.90959
4.73424
4.60428
4.4113
4.23677
3.96377
3.53514
3.21135
2.9943
2.84705
2.87785
3.05607
3.28087
1.9336
1.83754
2.44792
2.76951
2.64125
2.32985
2.02196
1.88124
1.93117
2.11364
2.21638
2.50556
2.60331
2.59565
2.61514
2.54951
2.44463
2.30561
2.09666
1.85878
1.67681
1.48609
1.36217
1.36453
1.44411
1.49754
1.44645
1.42539
1.42486
1.54179
2.81504
2.67542
2.60179
2.60432
2.60488
2.56376
2.55065
2.61583
2.58157
2.51654
2.42392
2.5217
2.52333
2.48404
2.50095
2.61356
2.56785
2.74082
2.69965
2.73369
2.72444
2.76487
2.81048
2.86779
2.84811
2.81138
2.79348
2.86544
2.91938
2.98283
2.53468
2.47494
2.40707
2.33346
2.27867
2.12897
1.95859
2.04476
1.94576
1.85934
1.80119
1.77982
1.80616
1.81676
1.86873
1.9894
1.99176
2.05339
2.07726
2.20123
2.36929
2.55748
2.55899
2.50494
2.4792
2.47756
2.92704
3.213
3.27988
2.84367
2.42425
2.67342
2.44621
2.3307
2.11411
1.86627
1.71395
1.59168
1.53731
1.4431
1.46112
1.4231
1.35741
1.32022
1.44156
1.35195
1.36309
1.42365
1.53709
1.58274
1.89006
2.09212
2.40339
2.55535
2.71198
2.82727
2.7956
2.95705
3.22835
3.37059
3.08206
3.02486
2.83331
2.62292
2.38833
2.18918
1.91209
1.79566
1.71919
1.58613
1.61891
1.5738
1.55463
1.53192
1.56154
1.53405
1.50698
1.68014
1.85628
1.96583
2.15559
2.29206
2.37582
2.43756
2.4634
2.37199
2.18779
2.06139
2.04807
2.16155
1.58227
1.56264
1.4724
1.51604
1.80463
2.27469
2.71831
2.97164
3.24095
3.48135
3.62522
3.6091
3.63358
3.41656
3.21648
2.72664
2.39373
2.26759
2.14836
1.81945
1.73893
1.78634
1.6734
1.65418
1.75746
1.92759
2.0718
2.10576
2.04137
2.03044
1.83848
1.91145
1.58575
2.37786
3.27706
3.5521
3.52226
3.6593
3.7188
3.80065
3.93259
3.99523
4.05475
3.99391
3.96847
3.99964
3.87603
3.78338
3.69591
3.50275
3.31268
3.26598
3.33258
3.34764
2.37711
1.35388
1.65036
1.31294
0.990807
0.73667
5.13667
4.91274
7.10022
9.14142
9.30686
8.72277
8.77328
8.86996
8.21154
7.24197
7.02589
8.47713
10.0869
11.0082
2.83432
3.79222
4.81719
4.91425
4.24744
3.69242
3.47223
3.41708
3.53496
3.79426
3.95334
3.80262
3.44578
3.38379
3.61383
4.19825
4.73729
5.0691
5.39409
5.76996
6.16783
6.46446
6.69979
6.46121
6.02252
5.46293
5.00474
4.50395
4.06686
3.41987
3.06305
3.53438
3.8283
3.84028
3.81183
3.43234
3.23181
3.18458
3.1551
3.06398
3.14362
3.21865
3.27797
3.34835
3.3651
3.43746
3.36923
3.32018
3.29889
3.24458
3.24081
3.29904
3.28317
3.30863
3.24382
3.12973
3.0255
3.03399
3.34248
3.5615
3.13677
3.02785
3.12476
3.22514
3.28366
3.32693
3.37298
3.36865
3.35946
3.32439
3.29092
3.17031
3.03138
2.75508
2.60194
2.45725
2.43815
2.37439
2.36862
2.3097
2.27975
2.2354
2.24649
2.2332
2.29963
2.4337
2.49814
2.49712
2.46798
2.56026
3.48702
3.38074
3.23028
3.06591
2.98524
3.0118
3.11643
3.25449
3.34504
3.57547
3.56644
3.75245
3.83091
3.83515
3.95467
3.7367
3.82098
3.56038
3.55508
3.50433
3.5962
3.57876
3.49827
3.33402
3.20599
3.16456
3.1973
3.26272
3.38453
3.66427
2.97353
2.78167
2.61794
2.61995
2.70647
2.75802
2.82651
2.86801
2.93022
3.01647
3.18983
3.38389
3.57635
3.87305
4.2698
4.6122
4.84749
4.97373
4.87657
4.72655
4.55417
4.29807
4.03732
3.71102
3.33042
3.01676
2.88858
2.92164
3.07131
3.23265
1.90536
2.05682
2.70736
2.82819
2.66374
2.31916
1.97141
1.83593
1.88434
2.0387
2.25368
2.60725
2.57418
2.72282
2.74839
2.66294
2.5693
2.38884
2.20013
1.94002
1.72445
1.54126
1.3809
1.36669
1.43117
1.49456
1.47631
1.46308
1.86712
2.17581
2.88415
2.72797
2.63694
2.58461
2.56036
2.5349
2.54896
2.56498
2.47458
2.51873
2.45751
2.44555
2.41444
2.46919
2.43431
2.59615
2.58015
2.73344
2.74618
2.73734
2.75538
2.77499
2.82528
2.87292
2.87738
2.80506
2.89854
2.85652
2.86215
2.95199
2.4739
2.44128
2.39775
2.26593
2.2429
2.03878
1.96672
2.03389
1.83987
1.84382
1.81405
1.83663
1.81223
1.86556
1.85651
1.96281
2.00512
2.01034
2.0782
2.16214
2.34056
2.51883
2.5864
2.53659
2.46309
2.72005
3.0778
3.09753
2.92571
2.60483
2.55108
2.64577
2.57324
2.37361
2.04569
1.80513
1.6489
1.54953
1.42737
1.43632
1.37807
1.32812
1.28895
1.26536
1.24857
1.28948
1.25477
1.41227
1.41855
1.5496
1.77738
2.03687
2.23451
2.51643
2.60211
2.72179
2.83225
3.12829
3.18347
3.08623
3.16331
3.10662
2.84323
2.58785
2.3272
2.10819
1.91358
1.72498
1.65615
1.67593
1.56272
1.57752
1.51183
1.49988
1.4879
1.55947
1.55008
1.55785
1.83055
1.92876
2.08527
2.25432
2.36845
2.43377
2.46287
2.36539
2.16797
1.99578
1.93405
1.93713
1.61451
1.55861
1.47022
1.55147
1.94534
2.38893
2.7822
3.11185
3.34599
3.50638
3.64228
3.66222
3.68816
3.47724
3.23762
2.76355
2.33898
2.24269
2.11661
1.76892
1.75254
1.78233
1.68686
1.70159
1.80823
1.97633
2.02625
2.0507
2.0794
2.06226
1.92005
2.17553
2.09872
2.82306
3.4866
3.59237
3.62606
3.65239
3.86279
3.88648
3.9709
4.01857
4.06217
4.04562
3.94035
4.03327
3.88358
3.83696
3.65664
3.51436
3.26603
3.18622
3.26563
3.39847
2.88461
1.30283
1.29737
1.13572
0.786552
0.701124
5.04235
5.28981
8.09467
9.37001
8.51967
7.47349
8.06857
9.14533
8.77044
7.79874
7.71584
9.09746
10.3605
10.8479
7.37935
4.13004
2.85357
3.75859
4.87377
5.3092
4.89527
4.35005
4.05086
4.17333
4.46498
4.86112
4.97907
4.48683
3.65858
3.41659
3.72236
4.34792
4.78442
5.07145
5.44326
5.98164
6.52065
6.80436
6.92079
6.75359
6.24253
5.57871
4.95734
4.43306
3.98169
3.35523
2.9456
3.02621
3.07305
3.51645
3.79265
3.90214
3.73799
3.41577
3.22127
3.26305
3.16866
3.1234
3.13562
3.24214
3.27095
3.37897
3.39673
3.37631
3.29617
3.19397
3.15898
3.16652
3.20388
3.23864
3.23146
3.31722
3.20579
3.18339
3.02143
3.12017
3.34808
3.66379
3.70439
3.67677
3.29785
3.0874
3.13679
3.23238
3.2483
3.28664
3.33221
3.32104
3.29299
3.32165
3.3258
3.24137
3.06158
2.85869
2.55074
2.52686
2.35035
2.43492
2.28442
2.32946
2.23365
2.24765
2.20109
2.22646
2.29452
2.38906
2.47098
2.45978
2.5368
2.91904
3.17356
3.15718
3.17509
3.14824
3.09862
2.97555
2.8792
2.92908
2.98172
3.10775
3.18231
3.42343
3.4425
3.58016
3.59762
3.72527
3.74598
3.60319
3.65137
3.48489
3.52236
3.50281
3.5964
3.55386
3.49528
3.33369
3.22723
3.21206
3.22587
3.26075
3.34869
3.43028
3.34999
3.44703
3.11654
2.93228
2.71444
2.62916
2.73436
2.75344
2.80824
2.80813
2.85576
2.93487
3.05578
3.24791
3.42155
3.72239
4.03535
4.39692
4.69497
4.82358
4.72742
4.63242
4.51785
4.36167
4.11504
3.69958
3.30004
3.05407
2.96289
2.97292
3.11447
3.3399
2.84275
2.10942
1.92104
2.35513
2.79546
2.86259
2.73902
2.37437
1.97434
1.78761
1.77203
1.95963
2.21754
2.48076
2.57654
2.77497
2.71609
2.76608
2.55684
2.43345
2.19608
1.97306
1.72251
1.54258
1.40292
1.38371
1.45326
1.51583
1.5794
2.22011
2.8584
2.80541
2.70262
2.62255
2.6462
2.57983
2.52224
2.51409
2.49532
2.49025
2.51592
2.50646
2.49748
2.49687
2.4719
2.48979
2.37836
2.52869
2.49381
2.65008
2.58942
2.75858
2.78566
2.77229
2.78532
2.81068
2.85821
2.91179
2.94482
2.95035
2.88317
2.69994
2.63314
2.6231
2.59133
2.70383
2.46684
2.44356
2.39018
2.26369
2.19311
2.06406
1.95143
1.96786
1.8868
1.83211
1.84084
1.83845
1.81125
1.89839
1.90244
1.97142
2.02146
2.01752
2.06822
2.1638
2.33702
2.5071
2.59637
2.57243
2.50797
3.12396
3.08156
2.80941
2.57023
2.39238
2.35178
2.31939
2.35245
2.50185
2.43532
2.24276
1.9547
1.77491
1.61656
1.47154
1.43003
1.40293
1.33678
1.30064
1.27555
1.24499
1.20476
1.31347
1.2262
1.25533
1.47791
1.47256
1.67876
2.02792
2.18798
2.35467
2.60543
2.65461
2.88565
3.25062
3.02183
2.94818
2.95917
3.01324
3.10374
3.01696
2.77807
2.52268
2.29987
2.07679
1.86687
1.71075
1.6519
1.61895
1.50498
1.52039
1.4644
1.51336
1.44029
1.49504
1.60523
1.55239
1.75085
1.93529
2.06217
2.2117
2.35871
2.44705
2.46922
2.35475
2.16223
2.01366
1.90487
1.83357
1.72156
1.67192
1.60959
1.55081
1.49359
1.57189
1.9596
2.47619
2.86259
3.08657
3.37663
3.56858
3.63431
3.61169
3.63687
3.44669
3.21848
2.69388
2.28997
2.20459
2.10518
1.73323
1.74635
1.80407
1.73939
1.80672
1.8594
1.95595
1.97184
1.94501
1.96623
2.12947
2.5954
2.75821
2.52546
2.57312
2.56175
3.1728
3.54964
3.67959
3.65282
3.75067
3.83511
3.98962
3.93498
4.12884
4.05858
4.05378
3.93457
3.98628
3.87589
3.80797
3.63443
3.43936
3.21139
3.11998
3.20088
3.32945
3.11593
1.33416
1.03402
0.922818
0.896384
1.48905
3.84415
3.96367
5.09924
5.76555
8.54764
8.91614
7.0113
5.87304
6.90428
9.11264
9.54774
8.68221
8.69723
9.84615
10.6409
10.7195
7.62425
4.14358
2.95512
3.76924
4.88028
5.60277
5.70826
5.516
5.45292
5.65005
5.92088
6.1504
6.03456
5.28711
3.96105
3.4808
3.83249
4.42523
4.79952
5.06771
5.49835
6.13314
6.6791
6.9046
6.94214
6.71541
6.13145
5.45196
4.82812
4.26175
3.74959
3.19867
2.95061
3.02093
3.17974
3.49351
3.78171
3.82458
3.73923
3.40254
3.3142
3.2628
3.25266
3.13249
3.16379
3.23146
3.30838
3.38035
3.40893
3.35883
3.274
3.17269
3.12082
3.11702
3.14884
3.17885
3.24921
3.23121
3.25848
3.1276
3.11642
3.16143
3.46194
3.67439
3.77831
3.73136
3.62802
3.26346
3.14676
3.19804
3.26661
3.36448
3.39206
3.35971
3.317
3.33282
3.33983
3.30864
3.19299
2.92948
2.65932
2.52481
2.40166
2.36391
2.31023
2.23084
2.22169
2.19259
2.20778
2.22488
2.32774
2.35399
2.40695
2.40398
2.50337
2.86783
3.1053
3.02432
3.00299
3.08744
3.08754
2.91723
2.84408
2.83714
2.846
2.99561
3.09497
3.16007
3.2702
3.39195
3.49146
3.40739
3.45947
3.42896
3.57537
3.38855
3.56947
3.50057
3.58876
3.52772
3.46052
3.32263
3.24059
3.21639
3.23084
3.3232
3.42384
3.50632
3.40824
3.46519
3.11178
3.01938
2.67121
2.69014
2.73238
2.77553
2.84503
2.78928
2.81131
2.83869
2.95459
3.08625
3.27667
3.48967
3.75708
4.10507
4.35488
4.53024
4.60608
4.59694
4.50083
4.24525
3.87667
3.51747
3.24825
3.05967
2.95747
2.99345
3.18346
3.30317
2.64326
1.9837
2.04109
2.56512
2.85973
2.93854
2.84589
2.517
2.05078
1.72708
1.70881
1.8802
2.05081
2.26428
2.48696
2.63047
2.63079
2.59846
2.52796
2.31134
2.13018
1.90142
1.69325
1.50166
1.42647
1.41313
1.46189
1.50355
1.82845
2.65068
2.97406
2.9467
2.91253
2.84468
2.79957
2.64699
2.54196
2.4937
2.48091
2.46912
2.48532
2.50148
2.51864
2.51244
2.4977
2.43242
2.5439
2.48112
2.55498
2.57624
2.80046
2.79375
2.82628
2.80593
2.85389
2.84192
2.87879
2.90238
2.94651
3.00601
2.94654
2.82471
2.76409
2.71576
2.6693
2.64989
2.46068
2.42428
2.38568
2.26317
2.16497
2.09955
1.96306
1.95948
1.93701
1.84472
1.80543
1.85148
1.92031
1.92329
1.88262
1.99368
2.02025
2.05022
2.0898
2.19351
2.35461
2.51105
2.58079
2.55381
2.7868
3.18499
2.7974
2.66969
2.55536
2.47857
2.46573
2.44821
2.62067
2.59505
2.41065
2.2828
2.05561
1.76238
1.56403
1.45436
1.43769
1.32084
1.33911
1.23336
1.22759
1.17411
1.17405
1.25577
1.24337
1.21604
1.52157
1.46141
1.7038
1.92793
2.21262