/*--------------------------------*- C++ -*----------------------------------*\
| =========                 |                                                 |
| \\      /  F ield         | OpenFOAM: The Open Source CFD Toolbox           |
|  \\    /   O peration     | Version:  2.1.1                                 |
|   \\  /    A nd           | Web:      www.OpenFOAM.org                      |
|    \\/     M anipulation  |                                                 |
\*---------------------------------------------------------------------------*/
FoamFile
{
    version     2.0;
    format      ascii;
    class       volScalarField;
    location    "0.006350000";
    object      Xi;
}
// * * * * * * * * * * * * * * * * * * * * * * * * * * * * * * * * * * * * * //

dimensions      [0 0 0 0 0 0 0];

internalField   nonuniform List<scalar> 
12384
(
7.52947
10.3914
11.7065
12.608
13.3799
13.8898
14.1817
14.012
13.6416
12.9832
12.1173
10.8604
8.78475
5.66662
22.3488
24.4786
25.4317
25.7023
25.6451
25.5682
25.9029
26.3824
27.3507
28.8187
30.7631
32.9888
35.4546
38.1082
40.7727
43.632
46.0618
48.348
49.3888
49.8748
47.9295
46.1548
43.4115
41.622
39.047
36.3046
32.2531
26.8011
20.518
17.0072
29.0932
29.9573
31.3281
32.9727
34.6786
35.374
36.5682
36.9969
38.2016
39.759
42.6427
46.049
49.4194
52.9875
56.245
59.3703
61.6389
63.3812
63.7588
63.2136
62.1955
61.2524
60.2154
58.2699
55.6786
51.3403
44.0041
33.5465
22.5877
20.8994
31.2986
36.2771
37.8765
38.1526
38.4632
39.5785
41.6899
44.2207
47.4096
50.963
55.5899
60.5633
66.2736
72.2669
78.3827
82.6936
89.0116
89.1977
91.3493
86.5444
84.0361
80.1505
75.1478
68.4241
59.6015
48.9194
39.5993
33.8694
32.5872
35.3781
31.2642
40.514
51.4074
59.9247
67.1641
73.8956
80.0884
85.6931
89.0447
92.9363
89.7381
89.5305
83.3726
77.0217
76.411
67.3847
65.4378
58.721
54.9696
50.3128
47.3715
42.9119
37.653
32.9526
29.7931
28.5536
29.637
30.0794
29.2911
26.7269
24.3125
28.8121
32.6319
33.8346
34.357
33.9413
34.7851
35.6387
37.878
41.7773
46.1149
50.8959
55.4115
59.7722
63.1011
66.0904
66.4947
66.109
65.1123
65.0363
64.5136
63.7095
62.4543
60.4909
57.5136
52.9823
46.0973
39.5019
33.0506
31.0967
27.5185
32.3636
36.3601
36.8672
39.8274
45.7183
53.2073
61.7645
69.744
78.2482
86.0181
95.1187
97.8618
104.725
103.432
105.911
104.116
102.901
99.5029
96.4128
91.8633
85.5998
76.9702
69.0567
63.589
56.6179
54.4336
51.9137
50.089
51.8552
30.1234
27.8775
32.0719
39.9924
48.6269
56.8662
64.4972
71.4557
76.9721
82.5056
85.6609
86.1767
85.5445
83.9562
82.0264
79.1809
76.1794
72.1816
68.0046
63.2704
57.5339
51.2794
44.0575
37.6228
34.4234
33.2217
32.7638
32.6444
32.7699
32.4429
29.2889
35.2597
44.3903
53.7137
62.8878
71.4699
79.4965
86.539
91.8829
96.0542
95.8688
95.6863
93.0433
89.9704
86.4199
81.8346
77.0974
70.3812
61.7622
54.2756
46.5825
39.0645
34.6672
32.6841
31.6653
31.3399
30.6058
29.1924
27.383
25.998
30.3982
33.7452
36.3545
39.7545
47.0969
56.3015
66.4235
76.6358
86.5627
96.0293
102.3
108.85
107.414
107.873
98.9314
98.3816
88.5746
85.2049
77.2501
71.9144
64.9625
56.39
43.2894
35.8571
33.6718
33.1038
32.7641
32.5991
32.5426
33.0188
30.7965
35.6923
40.0234
45.3478
53.9081
63.9481
74.8207
85.0681
95.1325
101.324
109.304
107.989
109.069
105.078
101.801
96.6716
91.6323
86.8006
81.1268
74.8233
65.4676
52.5739
43.4156
40.6547
40.0895
40.3442
40.6616
40.9342
41.1252
40.3647
35.0003
37.1982
44.1994
48.9786
51.9278
56.4293
60.2211
62.5121
63.8607
64.0452
64.1206
68.2429
72.0811
75.342
72.2552
70.578
66.0114
63.6015
62.4123
63.7654
65.6914
68.9549
69.8616
71.6686
69.987
67.8921
64.7549
60.3896
52.0422
38.0305
17.9435
22.1792
21.2882
20.608
23.8646
44.3279
65.2018
44.6557
44.4533
49.5461
54.2082
57.0069
59.3963
61.8388
63.637
65.8274
64.1794
62.1232
57.4584
52.3137
45.6829
38.3414
31.8877
26.8349
22.5623
18.2633
13.9441
9.76953
6.10385
4.09807
11.3321
8.7493
9.43477
10.5576
11.8662
13.019
13.8702
14.1517
13.9597
13.2534
12.3411
11.2592
9.72639
9.55774
23.0688
18.9527
19.0762
18.5726
18.1616
18.2495
18.7077
19.2602
20.1148
21.1684
22.48
24.3102
26.7405
30.0527
34.1746
38.9356
43.7677
48.667
52.4468
55.5865
57.1426
57.7008
56.0999
53.9533
50.3584
46.2137
40.5577
33.3882
25.7477
25.7489
30.9505
24.0257
25.8782
27.7959
29.0961
29.1989
28.8863
28.2214
29.1023
31.313
35.0208
39.4009
44.4081
49.8622
55.7146
61.3699
66.5207
70.9761
74.3332
76.8044
77.8914
78.1515
77.1901
75.0483
70.9607
64.5488
54.7024
42.5076
30.9985
30.291
33.1095
30.0051
31.547
32.2589
32.848
33.3402
33.9785
34.7926
36.2909
38.8805
43.2157
49.0651
56.4329
64.8256
74.3737
84.3339
94.1453
101.552
109.381
111.648
110.303
107.103
100.956
92.1133
80.326
66.4049
52.2856
33.7993
22.623
39.2313
30.6935
32.6526
43.2377
54.0373
64.5417
74.9039
85.6202
96.3969
106.237
115.958
122.585
128.092
130.2
129.68
124.376
117.149
107.731
95.9392
82.8466
67.3623
52.2851
38.5083
29.8663
27.5847
27.8649
27.7208
26.7133
25.7325
24.728
30.2837
28.1897
19.9342
21.2788
20.9457
20.8277
21.7512
25.287
30.2206
36.5045
42.5703
48.7547
54.7654
60.7574
66.5347
72.1777
77.3842
82.0785
85.792
88.1742
88.7087
88.1363
85.2309
80.5949
74.1714
65.807
55.701
44.2671
33.4227
24.9176
36.0016
30.6129
19.885
19.854
25.2152
35.1767
46.2893
56.3853
66.4964
77.2722
88.2255
99.5616
112.014
121.316
131.625
137.906
142.111
142.978
139.438
134.027
124.079
111.966
97.4669
80.8171
65.4435
56.8691
45.3257
35.466
33.3353
37.9002
60.9351
32.9234
20.5411
28.2822
38.9128
49.4996
59.7667
69.852
79.7884
89.7875
98.251
104.298
110.082
113.551
113.545
111.191
106.781
100.476
92.6892
83.2094
72.1493
59.5965
47.3749
37.1754
30.2101
28.4504
28.1876
27.1117
26.2898
26.5871
34.1053
34.0458
31.1003
41.8278
53.2688
64.9746
76.6226
87.5004
98.9638
109.254
117.419
122.448
124.301
123.757
119.136
112.098
102.965
92.5111
79.4537
64.5522
50.5619
39.3944
31.4729
29.5085
30.2124
29.6935
27.9483
25.7539
23.3382
21.6832
30.7443
31.9582
19.2154
19.8239
28.2683
40.6358
54.594
69.0053
84.6708
100.852
118.764
133.82
146.924
158.441
159.95
161.566
151.113
139.477
122.845
107.963
91.8682
74.7929
59.0422
44.092
30.952
23.3676
22.9125
22.732
22.6517
23.0225
33.5362
31.9196
19.7543
23.4944
34.4824
48.0334
61.9212
76.0567
89.9465
103.943
118.517
126.999
137.195
138.212
134.816
127.871
118.566
106.612
92.6088
78.5555
66.2772
55.3645
46.3872
40.5664
38.2396
36.9053
35.4107
33.4508
31.7821
30.5676
41.3725
42.6141
24.2711
29.5622
39.6997
53.6619
69.1524
82.8159
87.8855
88.5903
86.7884
84.7006
82.429
77.8556
74.1318
67.7764
62.1449
55.9231
50.5402
46.3941
44.9642
46.5538
50.7364
54.1684
56.662
58.1419
58.2744
56.5836
53.7204
47.0987
52.9952
20.7072
19.2516
18.2626
20.609
33.5889
48.234
47.1729
44.1578
53.6109
64.1789
71.2287
75.4281
77.1323
76.7146
75.1707
72.1781
67.3814
62.3534
56.4421
50.9701
44.9786
37.9605
28.8868
20.0393
15.1209
12.9243
10.6916
8.0618
5.3286
5.50402
13.306
10.0097
11.2753
13.1778
14.8008
15.7824
16.3761
16.5202
16.1116
14.9849
13.3811
11.9498
10.8082
11.2262
24.4064
19.0786
17.8574
17.0931
17.6469
19.0925
20.7154
22.0957
23.368
24.3987
25.6089
27.1013
29.4406
32.6483
36.4287
40.3292
44.0565
47.7761
50.7179
53.2775
54.4257
55.1584
53.9347
52.5705
49.6173
46.8939
43.1256
37.6559
30.4395
31.866
32.3992
24.7007
25.3701
26.0871
26.3339
26.0207
26.7024
28.3463
32.1519
36.9181
41.4224
45.0662
48.3698
51.4319
54.6191
58.1338
61.8657
65.0546
67.8877
69.6348
71.3376
71.6352
71.8303
71.4569
70.4306
67.5706
61.3009
50.7613
38.5977
38.2164
34.7135
30.9547
30.8963
31.5667
33.1574
34.998
37.1073
39.7128
42.8319
46.309
50.7559
56.1043
61.9327
68.0475
75.4536
83.2596
89.8646
97.0218
102.954
106.029
107.446
104.932
101.148
95.9922
88.2335
77.2252
63.8488
47.7422
29.2943
40.4331
35.9583
40.9373
53.987
65.4861
74.6163
81.8721
88.5002
94.5029
99.9936
104.519
108.814
114.059
116.904
116.132
116.307
109.979
106.5
97.9527
89.0134
76.5608
62.358
48.1154
36.0634
28.7857
26.0505
24.9141
25.6489
27.2837
27.0026
31.6456
31.1594
20.1623
20.5736
20.1723
21.6646
24.521
30.0802
35.3512
40.3883
44.6659
48.9544
53.1389
57.293
61.3961
65.365
69.1696
72.6725
75.741
77.9513
79.7007
80.1362
80.3616
79.3347
76.3335
70.8485
62.8265
52.1047
40.3009
29.9801
40.0146
33.9016
19.1895
21.7523
33.0525
43.9033
50.3388
56.4876
64.3497
73.5666
83.3811
92.5727
101.976
109.98
117.226
121.178
125.7
126.354
127.995
126.856
124.201
117.553
107.399
93.8164
77.7504
65.0024
56.2646
43.0977
32.5521
35.429
63.5323
33.3507
25.3566
36.3868
48.5774
59.2135
68.1536
76.4023
84.294
91.0077
96.1716
102.632
108.131
109.847
109.699
108.511
105.849
101.678
96.2291
89.613
81.0974
70.3365
57.9581
46.3682
36.7687
29.0518
24.419
23.2207
25.4227
27.5271
34.3252
39.338
42.7657
55.5502
67.306
77.5689
86.3883
95.0859
104.325
110.797
116.957
121.195
125.202
124.186
121.188
115.461
109.09
101.485
91.4977
78.0643
63.0459
50.0242
38.3581
29.9246
26.2956
25.3799
25.5627
25.8527
24.4157
22.8105
32.9852
34.5791
19.1002
23.543
37.3508
54.061
70.503
86.041
101.717
115.71
131.103
141.454
157.506
163.064
172.26
168.171
162.768
150.579
139.069
123.378
108.08
91.1142
73.964
57.8246
42.8533
28.9544
20.9111
21.083
23.3975
24.4695
34.1045
34.8164
21.6006
30.012
45.9064
62.5539
77.898
92.3133
103.337
120.36
128.577
139.04
145.715
148.008
146.546
139.229
130.658
120.89
108.826
94.4874
80.367
66.8961
54.0858
43.8766
36.423
32.9504
32.8344
34.7686
36.5781
35.2848
42.2837
46.7243
27.8616
36.7314
50.8182
66.8557
81.4072
85.1331
84.4872
82.3637
81.4106
79.934
79.6381
77.0054
74.0371
70.5559
67.0005
62.5621
58.4184
54.1582
52.6728
53.276
54.774
55.665
54.5463
53.0545
52.9978
52.2117
51.8486
49.2699
59.0159
26.9828
21.5381
18.7527
28.1723
46.7612
56.7607
47.2994
54.4968
64.2803
70.7768
74.4035
75.9255
76.4007
76.5609
74.8002
72.3941
68.1516
63.8903
58.5217
53.4305
48.197
43.2064
36.7557
25.7398
13.6491
8.18164
6.65574
5.40875
4.13202
5.41728
14.467
11.9258
14.3165
16.0302
16.6924
16.5821
16.4665
16.5065
16.6308
16.2828
14.8602
13.0527
12.0126
12.3856
26.1889
20.4179
17.7876
16.8204
18.1484
20.4709
22.6082
24.3035
25.7246
26.9235
28.3341
30.3364
33.1614
36.8877
40.2905
43.0548
44.6011
45.3836
45.8943
46.172
46.5806
46.9962
47.0903
47.2611
46.5712
45.6921
43.9429
40.3584
34.1512
35.4379
33.465
26.7845
25.5413
24.5322
23.492
23.2554
25.2988
29.5644
35.7064
41.9048
46.7858
49.9102
51.835
52.9946
54.3714
55.9635
57.7108
59.6294
61.4863
63.2727
63.8557
64.7586
65.2079
65.8743
67.0285
67.3899
64.9055
57.3393
45.4315
43.3066
36.5084
34.1286
31.7352
31.6872
33.3212
35.9191
39.3227
43.7171
48.4446
53.1514
58.092
63.4556
67.9969
72.4607
77.2046
79.0624
82.6745
88.6688
90.2426
95.235
96.1649
97.5141
97.5925
96.1794
92.2553
84.1416
72.0933
56.8567
38.1284
41.6795
44.7784
49.0934
62.2981
72.8473
79.8725
83.6489
85.6096
86.4168
87.7694
87.427
91.0879
91.9631
94.6058
97.2402
96.867
97.2618
97.0577
94.3482
90.4324
81.5262
70.0028
56.9418
44.9956
35.0703
27.5113
22.2421
23.9309
28.4228
28.6349
32.3687
33.0666
21.471
20.9874
20.844
23.4777
27.6786
34.026
38.3839
43.316
46.9396
50.5144
53.4136
55.9841
58.227
60.4376
62.4983
64.7129
66.6695
68.372
69.4966
70.7958
72.1397
73.366
73.8313
71.9145
66.5605
58.4258
47.3893
35.7005
43.4887
36.1222
19.8404
28.7519
39.6599
43.9167
49.9709
58.9757
68.4305
77.681
84.8612
90.8076
96.1434
100.706
103.947
108.466
109.44
112.032
112.276
114.437
115.819
115.983
111.479
102.442
89.2715
74.3549
63.4978
52.6739
38.0677
34.3349
63.681
33.4781
30.6612
44.3856
56.4623
65.859
73.0864
78.8079
82.5637
85.6359
90.9515
95.8028
97.5579
99.7565
101.069
100.268
98.9712
97.3825
94.7513
91.2611
86.1599
78.481
67.6668
55.7507
45.0729
35.2535
26.6014
22.7429
25.7986
28.0944
34.5143
47.0174
55.098
67.6027
77.5574
84.8731
91.298
97.2031
101.72
105.758
111.137
116.484
117.015
118.009
116.137
113.158
108.974
104.855
99.3658
89.5917
75.6393
60.9824
48.6209
36.8376
28.2733
23.1644
24.1645
26.7648
25.0425
22.3897
33.6602
36.6093
19.5648
29.3276
47.3627
66.1377
83.6185
99.8142
112.401
124.238
132.771
143.534
149.822
156.069
157.381
168.832
161.035
154.532
143.941
133.956
120.09
104.794
86.6566
70.2375
54.6652
39.688
26.307
20.7694
24.2486
25.2226
34.0255
37.5666
24.7435
38.1927
57.1698
75.756
91.8868
103.418
113.768
129.362
128.414
142.275
142.422
144.216
143.868
142.651
136.309
129.417
121.78
109.76
95.1347
80.5001
65.8743
51.9461
40.7698
33.09
31.7546
36.794
41.9606
40.2612
43.6745
50.8559
33.8392
46.2577
62.3563
78.0499
83.445
82.4018
79.7117
78.3234
76.8414
76.275
74.3216
73.8981
73.0532
72.2673
72.3211
70.1737
66.8208
63.03
61.137
62.0879
61.2231
57.8773
53.6214
48.786
47.5763
48.9371
51.0924
51.9996
62.6343
32.1653
23.4369
27.5151
43.1649
57.8576
50.3547
54.0124
62.9838
69.5396
73.259
74.0615
74.7474
74.8368
73.5265
72.2735
70.0409
67.6648
65.0083
61.5295
56.9385
51.1
44.7295
38.9521
31.4529
17.5459
7.51216
5.11577
4.43412
4.1845
5.48899
15.7321
14.362
16.5184
16.8813
15.7903
14.645
14.0442
14.0568
14.7531
15.6941
15.712
14.3324
13.3217
13.3105
28.186
22.1449
18.2144
16.9029
18.635
21.2681
23.6618
25.4349
27.0455
28.6432
30.8741
33.7365
37.4782
41.6406
44.7681
45.4423
43.2524
40.6357
38.1598
36.7379
36.0705
36.473
37.4734
39.5098
41.5398
43.2063
43.7321
42.1385
37.3544
37.6574
35.2823
29.128
26.3045
23.4724
21.3728
21.3866
25.2426
31.4344
38.8068
45.7415
50.5969
53.6077
54.5055
54.438
54.0054
53.4886
53.571
54.5004
55.7719
56.5693
58.0489
58.5782
59.6359
60.7244
62.8967
65.8291
66.7521
62.5543
51.9973
46.8254
38.6488
38.0582
33.4307
31.8882
33.0716
36.0409
40.6428
46.4165
52.5989
58.5454
64.1651
69.6947
74.4268
78.2782
78.7725
76.3304
76.3546
74.6133
74.6824
77.6152
82.0019
85.5562
89.6659
92.0658
92.5113
88.3438
78.173
63.1619
44.4509
43.1986
55.4289
55.8865
68.3708
77.7482
82.5377
82.8091
80.5443
76.6445
74.3454
71.4691
71.1669
71.5087
74.2296
75.9926
79.7928
81.8421
85.2172
87.3281
87.3763
83.8566
74.8778
63.6992
52.5008
42.4096
32.7975
23.3742
22.8395
29.1917
29.7348
33.1326
35.4316
23.0429
21.8126
22.1414
25.2264
30.3939
36.9146
41.4784
46.3912
50.7194
53.6129
55.3609
55.9542
55.6776
55.0816
54.7241
54.7732
56.1599
57.8021
59.7236
61.5639
63.4123
66.2926
68.6581
69.4858
68.0391
62.1512
51.9024
40.152
44.9224
37.4388
22.8837
34.9207
38.3442
44.6214
55.1718
67.6179
77.7965
83.6252
85.5389
84.4916
84.5834
83.5183
85.3128
86.6206
90.5799
92.83
96.1844
98.5677
102.709
108.236
111.365
107.004
96.7405
82.4177
68.9316
57.8422
42.9519
35.0945
62.8216
34.6091
35.5739
50.4404
62.3938
70.4595
75.3003
77.7527
78.8087
81.4267
82.5386
81.5855
83.0246
85.1133
87.431
89.2093
89.4913
89.8824
89.7151
89.7486
87.6348
83.2707
75.092
63.4847
51.6138
40.8026
30.9811
25.9944
27.3018
28.0365
34.8411
54.7223
65.7981
76.4655
83.7409
89.4808
92.4927
94.5679
95.5146
99.2122
101.907
101.521
103.2
103.556
105.007
105.699
106.025
104.886
102.888
97.3407
85.9646
71.2174
57.3611
44.8613
33.5947
25.7898
25.2989
28.1837
25.4901
21.689
33.2537
38.6262
20.9298
35.5787
55.1254
76.0291
95.4193
110.154
121.181
126.556
130.901
132.347
135.053
139.144
144.532
139.206
146.643
143.71
143.263
135.538
126.388
113.917
98.4075
80.0695
64.1829
48.7774
34.0844
24.2735
25.5241
25.6296
33.7294
39.6956
28.8765
45.9847
67.352
87.3904
101.904
111.169
123.41
123.73
125.623
131.468
131.969
137.195
139.362
139.159
136.692
132.379
128.173
121.351
108.464
93.0354
77.1272
61.2059
46.7488
36.3991
33.8147
40.6072
48.3147
45.5433
45.6216
54.6597
39.6578
55.0322
71.9677
81.833
82.2533
79.033
76.0586
73.0652
71.161
68.3907
66.2939
65.0184
68.2943
71.2299
75.471
76.9986
74.4595
70.7492
70.2469
69.5951
67.1517
60.024
51.6556
43.7667
41.7228
46.164
51.7989
54.7839
64.385
35.4194
26.2916
38.2069
54.5457
54.3032
52.5154
60.3169
67.7962
70.9987
72.4077
71.8519
70.9936
68.9524
67.4665
65.3374
64.1076
63.4125
63.0313
62.283
60.251
55.4098
47.721
38.913
32.2177
22.1652
8.94294
5.44768
4.80712
5.30768
6.13267
16.9944
16.2145
17.1681
15.5927
13.8213
12.7551
11.989
11.6593
12.3601
14.2845
15.8938
15.514
14.5994
14.017
30.0216
23.9765
18.9069
17.011
18.6716
21.4716
23.8796
25.7138
27.4726
29.6234
32.6647
36.4659
41.0464
45.7311
48.1319
45.9474
40.8008
35.7801
31.7462
28.6339
26.8101
26.7997
28.6493
32.0813
36.2929
40.4368
43.1215
43.4761
40.0425
38.6633
36.0627
31.5522
26.8446
22.6034
19.6803
20.558
25.6298
32.9501
40.8103
48.1065
53.3105
56.0437
56.6802
55.6184
53.6069
51.892
51.0196
50.3862
50.2593
50.8606
51.4764
52.4972
53.8969
56.0894
59.6029
64.2468
67.9857
66.8165
57.9863
49.1121
40.3983
42.1988
35.4834
32.1528
32.1972
35.3567
40.6408
47.9026
55.1915
61.9505
68.0814
74.7392
80.2345
83.8626
81.3596
77.925
69.1031
61.5004
57.5549
60.5698
67.124
74.8871
82.968
89.9971
92.8823
90.9485
81.9533
67.3161
48.5302
43.9003
63.9196
59.8727
71.7556
80.6164
83.5921
81.1496
75.9888
68.3977
62.6252
56.5852
54.1306
52.957
55.1962
59.0675
63.6356
68.8014
74.1654
79.4908
83.5561
82.9427
77.6971
67.9526
57.8455
48.3767
38.6073
28.1439
24.5192
29.7138
30.0858
34.0246
36.9413
24.9954
23.1089
23.3564
26.9094
32.9497
38.9357
44.9123
50.3343
54.5721
57.5111
57.9256
56.9292
53.9571
49.8024
45.7552
43.4639
42.7893
45.056
48.3909
52.0749
55.829
59.1636
62.7
66.6495
67.3989
63.4376
55.7617
44.6643
46.4457
39.018
27.3813
34.7512
38.7135
49.316
63.4123
77.4994
85.7176
87.9293
82.2277
77.6961
70.6917
66.7518
63.7899
64.8853
67.755
73.2386
78.4527
85.7378
91.8125
98.317
105.664
108.175
101.27
87.9315
72.9579
59.1935
44.6476
35.8872
60.3291
36.9369
39.863
54.9184
66.6782
74.0272
77.0071
78.0333
77.5095
74.9166
70.551
69.7655
69.7405
69.7802
70.582
73.4647
77.4417
81.3543
82.7673
86.3178
87.0111
85.4424
79.5238
68.826
56.103
43.864
33.7971
28.8697
28.6833
27.6004
35.2304
62.2445
72.9951
82.2978
88.8473
92.0408
91.7172
92.1251
88.743
86.4828
82.1111
81.7995
83.6214
87.9815
91.1374
94.1209
97.541
101.587
103.458
101.893
93.7059
79.2435
64.1566
51.1099
38.661
29.5271
28.2845
29.3207
25.7038
21.3103
33.0569
41.2178
24.2387
40.7494
60.9301
83.8644
104.792
119.735
126.834
127.956
124.32
119.204
113.743
108.212
107.589
120.493
123.604
130.546
131.47
133.599
129.006
118.125
104.59
89.1522
70.9834
55.0153
39.85
28.7627
26.9763
25.7026
34.2255
41.9893
32.7735
52.9413
76.2851
96.8715
109.696
119.286
125.233
115.26
118.05
110.591
108.569
110.431
116.7
125.349
133.12
133.428
130.878
127.905
119.391
104.124
87.0602
69.2604
52.3995
39.9782
37.129
45.9458
54.9446
51.5639
49.2031
57.3309
46.3361
62.7324
78.7044
83.0476
79.8367
75.9001
71.9842
67.1169
61.771
57.7056
55.6756
56.3532
60.7664
68.4149
76.5919
81.4572
80.5105
76.2746
77.6805
76.186
69.8263
62.4345
49.4021
36.9229
37.7379
46.0644
53.7892
57.7105
64.3488
36.8915
29.5828
46.9497
56.5458
52.0033
56.467
63.8285
69.3963
70.017
69.9672
66.5195
64.1722
60.1748
56.9243
55.5627
55.5017
57.554
59.2363
60.7538
61.2974
58.6907
51.8245
41.0611
31.1296
24.6466
11.66
6.51655
6.2096
6.70792
7.21303
17.9706
17.0227
16.2226
13.8998
12.7869
11.9802
10.9069
10.0489
10.5542
13.0368
15.8038
16.2387
15.5678
14.4793
31.9241
25.8405
19.6842
16.7996
17.9913
20.7289
23.1384
25.0823
27.0381
29.4107
32.5762
37.1464
43.1481
48.4414
49.8741
45.2154
38.4273
32.7743
27.7852
23.2728
19.6234
18.9707
21.8677
26.6626
32.4377
38.3867
42.7727
44.5217
42.1315
38.2321
37.6308
33.7114
28.1646
22.4147
18.7783
20.0155
25.9613
33.4268
41.8575
49.3638
54.8052
57.7124
57.8619
55.8884
53.5238
51.2574
48.7503
46.4021
44.4388
42.5136
43.0897
45.5555
48.9527
52.26
57.2478
62.6913
69.0449
69.7283
63.3832
49.4175
42.0837
45.9006
37.8086
32.2199
31.0719
33.7342
39.7729
47.6553
55.9028
63.1227
70.3442
77.493
83.666
87.8082
87.1676
79.5796
68.69
53.3547
41.5597
43.4625
54.1045
65.4703
76.1405
87.3374
92.1248
92.5741
84.9931
70.0137
50.7555
43.9717
69.5479
61.9888
73.9747
82.5471
85.2755
80.5618
73.899
63.6066
55.3386
45.2546
39.5515
37.4252
40.2997
45.7161
51.2293
59.3851
65.3426
73.32
79.03
81.4208
77.3876
70.1525
60.5174
51.9121
42.7276
32.6694
27.9664
30.5912
30.0867
34.562
39.243
26.9875
24.4298
24.5738
28.1786
34.6673
40.9515
47.5583
54.0201
58.635
61.2648
61.7331
59.0972
54.2207
47.0309
39.5314
33.5166
29.7384
32.0717
37.4479
43.5128
48.3939
53.1198
58.6047
62.9903
65.2627
64.4401
58.1181
47.3046
44.7767
41.639
31.0108
34.31
41.6172
54.1733
70.2834
85.4989
93.1875
91.281
82.7415
74.8132
63.2271
55.2465
49.2276
45.0833
46.9464
53.9195
62.5308
72.3528
82.5226
91.4514
100.709
106.494
102.901
90.7222
75.0703
59.1882
43.8686
35.5757
52.6956
41.982
44.0627
59.2003
70.4517
77.4884
80.7292
80.1859
75.5473
70.6612
65.131
59.2163
51.6895
47.7308
50.2629
57.343
64.0353
72.419
76.3437
82.3875
85.4224
86.1763
81.5396
71.8079
58.1816
44.7126
34.3549
29.4382
28.6932
27.2512
36.8742
69.7407
77.2069
87.4457
92.8858
93.5136
92.8459
90.3704
79.9344
73.0762
66.6549
61.9424
62.3263
68.6412
77.6902
85.3438
90.485
97.62
101.714
103.713
97.517
84.9552
68.9064
54.7397
41.9435
32.1703
29.7423
28.2225
24.8358
20.9927
33.8456
43.9315
29.1821
46.3419
66.8023
91.0598
113.925
127.073
132.331
127.692
121.051
106.722
95.1303
86.5055
82.8791
83.849
99.2114
111.609
120.506
124.647
129.226
118.956
109.348
92.848
76.907
59.233
42.5341
31.5586
27.968
25.9076
35.7994
44.5478
36.8771
59.0249
83.5363
104.508
116.637
124.6
121.427
112.95
105.801
92.1256
84.5104
82.8742
91.0464
102.714
117.674
131.719
133.191
131.052
126.441
112.352
94.9055
75.5244
56.7038
42.8707
40.4216
51.8149
62.208
60.0443
57.7051
59.2492
52.2677
68.4642
81.0183
82.7187
77.8501
72.4502
67.9809
61.0695
53.3155
46.7924
44.3062
46.9535
55.2828
64.5384
76.6678
84.4947
84.0374
79.4818
81.3967
79.2069
71.6167
63.2531
48.7525
36.9493
42.6851
51.3268
56.5624
58.6451
63.3314
38.153
31.1035
50.1785
52.2459
52.5127
58.7619
65.9678
68.1637
68.1597
65.4233
60.3947
54.8241
48.7905
44.5791
44.02
46.7048
51.7313
56.3151
59.3421
61.3416
60.668
54.7216
43.8521
31.1293
23.6725
16.4085
8.46966
8.36087
9.54103
10.1177
18.3372
16.8578
14.7916
13.0473
12.4848
11.9608
10.6063
9.33566
9.64439
12.2359
15.5836
16.5031
16.1581
14.8854
33.767
27.8062
20.7189
16.3622
16.1659
18.7675
21.3725
23.4151
25.0044
26.7764
29.9414
35.4805
43.4579
49.5942
49.9433
43.933
37.1275
31.5286
26.145
20.666
15.6829
14.1863
18.0173
23.9689
30.7257
37.759
42.8985
45.4781
43.609
37.182
38.4992
35.5523
29.0624
22.6651
17.9606
19.4063
25.3446
33.1298
41.4403
49.6401
55.0737
58.1516
58.4702
56.5801
54.2417
50.8686
47.9262
43.8812
39.0567
34.7922
33.0593
36.5795
43.3421
49.351
55.6226
62.486
69.0145
72.0406
66.5984
48.3269
43.6933
48.6196
41.0088
33.0238
29.3704
31.1941
37.3476
46.1243
54.972
62.8493
69.9135
77.7665
84.4544
90.6701
90.4526
85.4529
73.4766
58.8639
44.4871
41.7196
51.3083
64.0286
75.95
87.2964
93.9587
93.3801
86.5092
71.6282
51.3836
46.0366
71.9105
62.1308
74.7408
84.0597
86.6913
82.4953
74.1058
64.3185
54.1681
42.64
33.2678
28.3613
31.4012
38.1126
44.5129
53.5139
60.029
69.4688
75.287
78.5031
75.6172
69.5025
61.061
52.9518
44.39
35.4505
31.1358
32.002
30.1208
35.0454
40.882
29.0357
25.8241
25.1369
29.1332
35.6239
42.3594
49.4195
56.2793
62.2011
65.3386
65.4446
62.9787
56.9183
48.551
39.6699
30.8116
23.1092
22.4729
29.6223
37.2567
43.9147
49.5438
54.8348
60.3267
64.5023
64.4743
59.0786
49.141
43.6172
46.236
32.9732
35.3839
44.2819
57.5805
74.706
91.5694
99.4082
96.9843
87.9128
76.2972
62.5611
54.2758
43.1998
34.1351
31.5313
40.5102
53.0717
64.9551
76.9016
87.8486
97.5356
105.464
103.29
91.6253
74.8218
57.2335
42.3019
31.5591
45.1795
51.4836
48.8694
63.0859
74.7879
82.0905
84.7849
83.1736
78.495
73.3872
64.4296
55.2852
44.9978
34.4984
31.3995
43.7141
54.2142
65.1432
72.0122
79.018
84.3386
85.7263
82.2143
72.4158
58.2403
43.7191
32.8032
27.5967
31.3702
33.3413
43.8568
79.1884
79.8679
90.0641
96.7712
96.0443
95.9409
89.4827
77.9886
70.3538
57.498
44.7795
38.0625
50.6725
63.996
76.6046
85.1358
93.3155
100.934
103.198
99.4611
87.3982
71.4788
55.9999
42.6978
33.1278
28.0721
26.6317
24.8592
24.3233
40.9349
47.6092
34.6679
49.0504
69.6456
96.1645
119.448
133.269
137.062
134.859
120.814
106.853
90.5192
71.6665
56.1287
62.185
79.8418
99.9531
108.775
121.646
124.818
119.801
109.511
96.9713
78.4389
61.2621
43.2739
30.7625
26.715
27.1948
42.2353
48.6852
42.103
64.1834
89.119
110.508
122.746
126.365
124.137
113.17
97.3347
84.0033
67.5344
59.0987
68.6742
89.5871
106.154
123.346
136.442
132.195
130.305
118.672
100.456
80.205
60.4908
45.6036
43.3941
56.2292
68.3495
68.9383
71.8067
61.1445
57.4222
72.4166
82.3378
80.0986
75.393
70.2971
63.8587
55.9705
46.8958
37.6737
33.0504
38.2995
50.4293
62.5702
75.7769
86.0601
84.9896
79.8907
82.149
77.9449
70.7712
62.9868
52.2587
48.138
52.3678
57.4347
58.6051
55.9581
59.2741
38.5197
30.6204
45.497
49.6334
52.7816
59.8137
65.0658
67.0046
64.091
60.4296
54.0656
46.3008
37.3946
30.0354
32.9175
40.1431
48.4874
54.6727
59.5499
61.6653
62.0112
56.6737
45.7219
32.103
21.9351
19.5199
12.8846
13.4159
17.3886
20.324
18.2846
15.9499
13.5787
12.697
12.9467
12.962
11.2226
9.57299
9.8626
12.2576
15.2782
16.3614
16.3907
16.1849
23.8496
33.5972
35.1437
28.8823
21.7711
16.3573
14.3757
15.8677
18.1342
19.538
20.7451
22.3752
25.6202
31.8849
41.8945
49.4754
49.2061
42.9876
37.0014
31.8267
26.5624
21.1201
16.6159
15.5744
19.085
24.6816
31.353
38.2623
43.6121
46.0282
44.0703
39.0053
42.8805
44.1853
41.0901
36.4794
30.2156
23.3287
18.159
18.6308
24.4231
31.7905
40.4864
48.2183
54.4226
57.5265
58.6362
56.7922
54.8058
52.3183
49.0842
44.4335
37.8916
30.8772
27.246
31.7128
40.7026
47.9923
55.8195
62.3094
69.867
71.967
68.0606
50.7875
44.9215
46.0002
47.2679
50.7549
44.4002
34.9268
28.8709
28.8446
34.572
43.6302
52.9855
60.4811
67.2682
75.0181
83.2512
89.4973
93.9187
88.7346
82.6536
69.3958
60.7131
54.7617
60.2204
69.0586
80.5057
89.8902
95.3116
94.6026
86.6231
71.6539
52.3584
43.4397
54.6498
62.5769
52.0607
64.4029
76.0775
85.2203
88.7301
84.6308
77.6767
68.7284
59.8254
49.3848
41.032
34.8165
34.826
38.4714
44.1274
51.9679
58.4999
66.8565
71.9942
74.7142
72.1846
67.0305
59.2744
51.819
43.7075
36.1918
33.7656
34.6537
33.326
30.6293
40.493
44.0713
38.2674
31.7991
27.9275
26.8166
29.6949
35.5803
42.1961
49.7769
57.2654
64.0112
68.5594
69.3083
67.4822
61.6484
54.2156
45.6401
37.2495
30.1172
27.1708
30.9805
36.9441
42.6072
47.9941
53.9863
59.8229
63.3835
63.1052
58.113
48.7342
38.6655
46.123
60.2707
49.0687
39.1524
39.039
46.3722
58.5815
75.9012
94.5568
104.935
105.115
94.8351
82.1829
70.0717
60.6406
49.9678
42.3314
37.7968
44.4307
54.3779
66.2032
77.2045
88.9756
98.4108
105
102.411
89.9968
72.7706
53.6457
35.1991
37.8165
46.9741
58.7665
65.4177
55.9166
60.7676
70.777
80.4458
87.4968
89.9718
88.2212
84.2323
78.3296
70.9512
62.2466
52.7499
43.8609
37.617
44.4406
53.0237
64.2153
71.0421
78.0823
83.5576
85.0423
81.5052
71.6389
57.3484
42.9769
34.6226
39.7433
50.5535
56.5351
58.3552
65.1275
70.2145
66.3645
80.9663
91.7504
99.0905
99.993
98.5705
94.1105
84.57
75.6693
65.3817
52.2325
43.0722
50.7413
61.8796
73.8913
83.4651
91.7299
99.7845
102.67
98.9334
87.3232
71.4897
55.3158
41.1112
30.4501
23.4493
26.0121
29.9327
37.8679
47.7442
62.4483
63.7393
51.244
46.2355
55.562
74.532
100.238
122.075
137.149
144.409
138.797
127.956
116.022
100.34
81.9382
64.9938
62.833
74.4929
95.7125
111.401
114.452
124.94
120.896
107.606
96.6281
80.1362
59.2739
40.8403
26.8639
27.0423
34.9548
44.1258
54.4605
55.0387
41.2955
49.5767
69.7286
94.1002
114.211
126.725
131.214
128.474
118.297
105.171
92.9773
75.3581
61.6902
64.4267
87.7669
106.631
119.751
136.561
136.326
131.357
121.908
104.708
83.724
63.5388
48.3492
45.2903
56.6724
68.4197
70.8448
62.7384
58.9203
58.3428
56.7161
62.0638
74.0034
82.0692
78.9503
72.4214
67.4534
62.1218
53.0619
43.0466
33.1393
28.0844
35.5691
49.2394
61.6447
75.6595
85.736
83.6925
77.1392
79.3182
74.5669
68.2358
63.4542
58.3756
59.8496
62.6971
64.4881
63.3976
58.4026
50.0343
36.3906
35.8469
32.0318
34.5324
43.333
47.424
52.6682
58.6062
63.3502
63.672
61.2807
55.5803
49.3052
39.367
29.6238
21.8348
30.4428
40.2743
49.1269
55.6341
60.465
62.9532
62.8544
57.4742
46.5806
33.2757
21.5905
21.3369
20.3097
23.3598
25.1621
18.6302
7.48552
3.77346
17.7618
14.7035
12.8497
12.8237
14.3535
14.9835
12.5757
10.0184
9.84154
11.8655
14.4285
15.666
16.0971
15.7688
14.1653
20.3083
32.6171
28.642
22.3582
16.7111
13.1613
12.8666
14.0015
15.1811
16.5401
18.531
21.9093
27.8954
38.755
47.7485
47.5649
42.1428
37.2225
32.9626
28.4782
24.0005
20.8818
20.6206
23.219
27.7301
33.6951
39.9104
44.5999
46.6339
44.4251
38.7594
29.7196
29.8683
38.7373
35.7281
30.4339
24.4628
18.8398
18.1494
22.7312
30.1479
37.9892
46.1051
52.168
56.1595
57.6218
57.035
55.7189
54.257
51.8088
47.9518
42.2502
36.3121
33.6611
37.053
43.373
50.4833
56.5065
63.4405
68.2475
69.8216
64.1281
55.5594
36.8204
33.7462
45.8832
52.0004
48.5947
38.8924
29.9037
26.8398
31.1001
39.6437
48.9721
56.3582
62.8261
69.8399
77.8627
86.5027
92.4048
92.5223
89.2406
82.5812
76.315
73.4691
74.3939
80.1857
87.034
93.6888
95.7087
94.699
86.037
70.634
52.4097
40.1752
33.901
38.3396
51.4759
63.5915
74.424
84.6929
88.9353
87.2592
82.5257
74.5772
67.3379
60.7725
54.2964
49.3398
47.0411
48.6951
51.2308
55.7795
59.3302
66.1812
68.3538
70.73
67.96
63.14
55.9548
48.4355
40.2852
33.4401
31.4074
31.7563
29.9731
28.5803
30.8953
32.4244
37.2121
33.3631
30.3963
27.613
29.3604
34.1633
40.2044
48.045
55.951
63.9469
69.5675
72.3175
71.3286
67.4674
61.4794
54.1709
47.6998
42.399
39.3546
39.499
41.9891
46.0073
51.0596
56.0778
60.0801
62.19
61.1029
55.017
45.2001
39.5074
39.7127
51.9276
51.2689
40.0841
39.3561
45.3812
56.5787
72.763
92.8806
109.248
111.099
102.274
92.771
82.3905
72.5115
64.9369
60.2937
58.6202
60.9582
67.757
75.5723
84.8922
94.3134
102.93
105.189
100.679
88.3577
72.2163
50.917
38.4327
42.7818
50.0322
53.5172
53.3894
53.5013
61.0142
72.2356
82.9951
90.6639
94.3554
93.7659
90.4853
85.7357
80.4342
74.2123
69.0832
61.4448
59.6164
60.2565
64.6041
67.6919
74.2938
79.5003
83.756
83.705
80.2596
70.7129
57.7753
44.7328
36.0198
37.0215
43.5226
48.0993
49.363
49.3465
52.3361
67.8457
81.4512
92.6293
101.208
104.361
102.923
101.427
94.7544
87.6677
82.3699
75.5241
69.6682
69.31
74.1083
82.1733
87.3449
94.0969
99.4748
101.318
96.5447
85.0954
69.5901
53.6471
39.0202
26.4445
24.6755
31.6587
37.2106
42.8863
47.7845
50.2119
50.1265
45.0166
42.7606
54.6308
72.224
95.271
121.197
140.587
148.573
144.382
142.094
129.083
122.106
108.564
99.777
94.6737
95.5391
105.572
118.801
113.968
124.805
117.932
108.449
93.4808
78.4003
57.8916
37.5828
26.356
30.0365
34.948