/*--------------------------------*- C++ -*----------------------------------*\
| =========                 |                                                 |
| \\      /  F ield         | OpenFOAM: The Open Source CFD Toolbox           |
|  \\    /   O peration     | Version:  2.1.1                                 |
|   \\  /    A nd           | Web:      www.OpenFOAM.org                      |
|    \\/     M anipulation  |                                                 |
\*---------------------------------------------------------------------------*/
FoamFile
{
    version     2.0;
    format      ascii;
    class       volScalarField;
    location    "0.006000000";
    object      H2;
}
// * * * * * * * * * * * * * * * * * * * * * * * * * * * * * * * * * * * * * //

dimensions      [0 0 0 0 0 0 0];

internalField   nonuniform List<scalar> 
12384
(
0.0021142
0.00185652
0.00170781
0.00173891
0.00184125
0.00195809
0.00205349
0.00210509
0.00211126
0.00209995
0.00206475
0.00207814
0.00288143
0.00379114
0.000161057
0.000257035
0.00033878
0.000364438
0.000374891
0.000391961
0.000406101
0.000404591
0.000393222
0.000374893
0.000357661
0.000348611
0.000334178
0.000337486
0.000322227
0.000328765
0.000323821
0.000317022
0.000317766
0.000318906
0.00031079
0.000315275
0.000312638
0.000318702
0.000326168
0.000340538
0.000331662
0.000200005
0.000124614
0.000110317
0.000779564
0.00049749
0.000555263
0.00072513
0.000845488
0.000938985
0.000998875
0.00109878
0.00118235
0.00124352
0.00129146
0.00132126
0.00133484
0.00133353
0.00134554
0.0013011
0.00128815
0.00122121
0.00122106
0.00109897
0.00110112
0.00101014
0.00101397
0.000958532
0.000929271
0.000855064
0.000838838
0.000799682
0.000906997
0.00125322
0.00252415
0.00210634
0.00194978
0.00203691
0.00209078
0.00216119
0.00220438
0.00222915
0.00225253
0.00226014
0.0022517
0.00224011
0.0022418
0.00222177
0.00220901
0.00219214
0.00214637
0.00218948
0.00214214
0.0021687
0.00211434
0.00220852
0.00219573
0.00217417
0.00196274
0.00143031
0.0016412
0.00203148
0.00220141
0.0022168
0.00475775
0.00483902
0.00499082
0.00515039
0.00510055
0.005284
0.00505391
0.00507166
0.00492431
0.00490306
0.00462121
0.00458748
0.00433853
0.00423243
0.00405989
0.00384462
0.00365551
0.00342755
0.00328835
0.00306321
0.00254222
0.00148658
0.00127844
0.00171785
0.00204842
0.00223606
0.00233554
0.00227915
0.00214675
0.00204071
0.00729818
0.00909376
0.00920059
0.00875716
0.00826489
0.00779822
0.00736005
0.00704281
0.00682995
0.00672568
0.00666865
0.00664664
0.00664656
0.00665251
0.00664933
0.00666704
0.00662687
0.00661048
0.00662241
0.00663045
0.00664139
0.00662975
0.00666492
0.00665323
0.0066875
0.00683273
0.00726995
0.00714993
0.00554659
0.0054361
0.00293102
0.00255228
0.00180974
0.00196275
0.00280701
0.00363591
0.00411896
0.00427143
0.00425841
0.00413894
0.0040465
0.00389055
0.00383911
0.00370557
0.00370823
0.00364074
0.0036637
0.00363031
0.00366953
0.00366578
0.00369726
0.0037818
0.00384035
0.0035622
0.000804718
0.000274728
0.000300872
0.000327372
0.000341192
0.000362047
0.00213882
0.00351723
0.00627485
0.0077295
0.00811415
0.008136
0.00800975
0.00793835
0.00787651
0.00784631
0.00782804
0.00783229
0.00784275
0.00787183
0.00788539
0.00794336
0.00798817
0.00806255
0.00814892
0.0082879
0.00853561
0.00874605
0.00794725
0.00564561
0.00520885
0.00516011
0.00518032
0.00521899
0.00521882
0.00519431
0.00392708
0.00492331
0.00560578
0.00592944
0.0059205
0.00584062
0.00575752
0.00562463
0.00562536
0.00551781
0.00555674
0.00555145
0.0054947
0.00562948
0.00559435
0.0057006
0.00573787
0.00579293
0.00575198
0.00573017
0.00858189
0.0149733
0.0156554
0.0146998
0.0137135
0.0129109
0.0126918
0.0133445
0.014479
0.0153485
0.00254348
0.00497341
0.00644885
0.00716009
0.00732249
0.00725459
0.00709607
0.00691846
0.00666458
0.00658846
0.00623494
0.00633142
0.00609649
0.0061357
0.00608517
0.00597405
0.00599265
0.00597831
0.00599879
0.00604012
0.00602888
0.00612604
0.00786014
0.00854424
0.00872853
0.00883723
0.00892123
0.0089616
0.00898347
0.00898931
0.00811207
0.00879875
0.00876321
0.0086549
0.00862917
0.00858114
0.00850085
0.00842653
0.00831483
0.00822041
0.00810165
0.00798398
0.00784986
0.0077653
0.00769887
0.00769769
0.00766626
0.00773976
0.00775953
0.00785899
0.00797866
0.00858727
0.0102486
0.0105732
0.0105786
0.0105712
0.010643
0.0107279
0.010607
0.010375
0.00576169
0.00536115
0.00584213
0.00724544
0.00967271
0.0110436
0.0101007
0.00879453
0.00781165
0.00711461
0.00661009
0.00629091
0.00611054
0.00608666
0.00606509
0.00604748
0.00606633
0.0061336
0.00625957
0.0064955
0.00673604
0.00699878
0.00726355
0.00752823
0.0078162
0.00818266
0.00867084
0.00952249
0.0106053
0.00643525
0.000387647
0.000438269
0.00016174
3.6426e-05
7.89613e-06
4.34897e-06
4.67752e-05
0.0184337
0.0281947
0.0294903
0.0297369
0.0298015
0.0298289
0.0297816
0.0297474
0.0296219
0.0294942
0.0291812
0.0287888
0.0283033
0.0279323
0.0278732
0.028477
0.0297846
0.0301477
0.0300867
0.0296244
0.0284993
0.0233024
0.00195065
0.000886698
0.00100437
0.00141532
0.00193287
0.00227647
0.00255481
0.00272509
0.00285894
0.00294001
0.00288661
0.00262656
0.00225613
0.00266407
0.00368186
0.000170715
0.000292897
0.000364683
0.000399123
0.000423237
0.000440717
0.000449474
0.000396997
0.000343035
0.000318115
0.000312441
0.00032015
0.000331809
0.000350885
0.000360051
0.000384661
0.000385059
0.000403007
0.000392119
0.00039071
0.000363523
0.000341788
0.000322373
0.000310366
0.000313805
0.000326427
0.000337978
0.000286357
0.000183514
0.000118551
0.000749769
0.000528525
0.000705314
0.000930629
0.00104888
0.0011848
0.0013209
0.00142324
0.0015003
0.00161879
0.0017838
0.00193889
0.00204588
0.00207635
0.00203605
0.00195964
0.00185029
0.00174003
0.00160968
0.00147292
0.00134088
0.00125349
0.00116189
0.00107682
0.000990359
0.000904449
0.000848065
0.000813991
0.00086649
0.00143018
0.0024974
0.00205669
0.00198614
0.00213512
0.00226561
0.00231753
0.00233883
0.00235356
0.00235789
0.00234253
0.00230045
0.0022382
0.00215847
0.00208465
0.00200525
0.00194302
0.00191806
0.00190761
0.00191954
0.00195304
0.00196484
0.00205523
0.00210388
0.00215419
0.0020725
0.00173985
0.0015916
0.00231954
0.00274612
0.00267106
0.00533407
0.00591522
0.00605432
0.00595785
0.00581633
0.00573415
0.00573996
0.00566106
0.00572622
0.00567935
0.00569888
0.00554264
0.00536333
0.00511143
0.00478781
0.00441906
0.00405174
0.00371148
0.00339172
0.00316762
0.00283622
0.00184669
0.00144274
0.00225103
0.00292234
0.00320223
0.00321951
0.00305801
0.00278533
0.00253169
0.00758622
0.00907749
0.00877246
0.00786405
0.0071504
0.00671001
0.00635957
0.00623393
0.00632458
0.00655724
0.006701
0.00678741
0.00683065
0.00684194
0.00683183
0.00680313
0.00675949
0.00670262
0.00665792
0.0066028
0.00654389
0.00650498
0.00646924
0.006463
0.00648513
0.00658136
0.00691946
0.00728444
0.00693955
0.00683208
0.00292408
0.00236429
0.00224533
0.00433455
0.00525829
0.00516481
0.00452147
0.00369943
0.00302448
0.00263439
0.00240518
0.0022949
0.00227896
0.00226008
0.00230708
0.00233819
0.0023829
0.00244646
0.00254868
0.0027163
0.00289715
0.0031698
0.00350865
0.00364091
0.00243327
0.000503944
0.000234169
0.000213665
0.000235327
0.0002584
0.00529978
0.00851912
0.00945792
0.00880844
0.00797201
0.00754155
0.00740956
0.00744183
0.00752626
0.00764782
0.00772652
0.00778203
0.00781976
0.00783684
0.00779482
0.00780374
0.00780267
0.0078524
0.00790907
0.00801615
0.00823103
0.00856832
0.00849022
0.00709288
0.00522104
0.00510372
0.00525636
0.00551952
0.0056134
0.00543251
0.0052974
0.0066142
0.00637679
0.00579751
0.00516505
0.00467612
0.00430001
0.00410125
0.00392342
0.00382905
0.00381002
0.00383839
0.003911
0.00411993
0.00437578
0.00468167
0.00499175
0.00529902
0.0055366
0.00558173
0.00627118
0.0104263
0.0147386
0.0115815
0.00941104
0.00902857
0.0092379
0.0094738
0.0100327
0.0117194
0.00260049
0.00571053
0.00728698
0.00760826
0.00733446
0.00681893
0.00622627
0.0056872
0.00525846
0.00485911
0.00464038
0.00438883
0.00426321
0.00419473
0.00420243
0.00430254
0.00452313
0.00480126
0.00513607
0.00548237
0.00573224
0.0058845
0.00684844
0.00832932
0.00888846
0.00903959
0.00901835
0.00894321
0.00898081
0.00911601
0.0080007
0.00892404
0.00882292
0.00887019
0.00882979
0.00860857
0.00827765
0.00791084
0.00758922
0.00730192
0.00704614
0.00680732
0.00659134
0.00637978
0.00627661
0.00633881
0.0064875
0.00678222
0.00708155
0.00735544
0.00761589
0.00801984
0.00906192
0.0103743
0.0112885
0.0116986
0.012141
0.0123169
0.0120525
0.0116661
0.0084097
0.00824496
0.00818898
0.00941872
0.0105151
0.00988933
0.00795808
0.00642163
0.00552213
0.00526173
0.00535314
0.00573075
0.00620106
0.00639804
0.00653069
0.00639278
0.00620588
0.00599621
0.00594896
0.00615734
0.00675099
0.00722865
0.00752105
0.00763335
0.00767206
0.00782656
0.00821089
0.00900945
0.010364
0.00758987
0.0153901
0.0155879
0.0128333
0.00455543
5.22092e-05
2.15826e-05
0.00779855
0.0252073
0.0288433
0.0291821
0.0289571
0.0285735
0.0282186
0.0279669
0.0279056
0.0279113
0.0278344
0.0275285
0.0267555
0.0253164
0.0228513
0.0203262
0.0197106
0.0233945
0.0268733
0.0295532
0.0296293
0.0283761
0.0224774
0.00130733
0.000907682
0.00133999
0.00192749
0.00218359
0.00212091
0.00203348
0.00205997
0.00225961
0.00259601
0.00295087
0.00310171
0.00276203
0.00270483
0.00350498
0.000184641
0.000337474
0.000436887
0.000481574
0.000529384
0.000517736
0.000434633
0.000331548
0.000294841
0.000310071
0.00034969
0.000394178
0.000434168
0.000454402
0.00048985
0.000522513
0.000538244
0.000568778
0.000589122
0.000592805
0.000556311
0.00050831
0.000424932
0.000360642
0.000321201
0.000316675
0.000329598
0.000325569
0.000242469
0.000141511
0.000724681
0.00053579
0.000842581
0.00101963
0.00112914
0.00124138
0.00134364
0.00140311
0.00147721
0.00175252
0.0021188
0.00238463
0.002493
0.0025113
0.00241705
0.00222386
0.00199877
0.00178863
0.00159182
0.00138608
0.0012971
0.00120447
0.00112681
0.00106539
0.00101379
0.000946842
0.000854324
0.000820509
0.000828032
0.00131717
0.00247899
0.00203153
0.00207428
0.00224287
0.00232963
0.00234705
0.00234836
0.00234013
0.0023115
0.00225522
0.00216054
0.00200304
0.00182398
0.00164538
0.00149613
0.00138323
0.00130038
0.00132423
0.00130258
0.00135041
0.00147756
0.00172416
0.00192681
0.00206081
0.00209237
0.00193093
0.00169703
0.00199037
0.00275908
0.0027793
0.00672794
0.00597714
0.00506412
0.00433309
0.00381821
0.0036365
0.00346673
0.00370519
0.00382813
0.00424682
0.00453989
0.00491478
0.0050954
0.00516842
0.00505608
0.0048397
0.00447917
0.00403907
0.00363065
0.00328314
0.00301636
0.00239745
0.00159784
0.00236223
0.00326081
0.0035169
0.0034677
0.00329253
0.00306746
0.00277016
0.00782036
0.00895413
0.0080984
0.00705275
0.00656491
0.00628749
0.00627728
0.0066841
0.00704779
0.00724554
0.00726156
0.00717194
0.00707411
0.00700167
0.00696268
0.0069407
0.00693207
0.00693241
0.00694667
0.00693619
0.00693141
0.00680986
0.00667584
0.00654265
0.00644048
0.0064315
0.00660866
0.00705113
0.00743281
0.00743461
0.00279672
0.00255095
0.00472328
0.00593016
0.00501428
0.00333246
0.00216531
0.00160272
0.00144634
0.00152718
0.00169617
0.00190039
0.0021377
0.00230403
0.00247646
0.00252525
0.00256796
0.00256429
0.00246908
0.00246478
0.00242235
0.0026168
0.00295272
0.00331664
0.00324627
0.0018144
0.000492452
0.000293185
0.000261447
0.000243405
0.0082045
0.00976192
0.00825681
0.00730476
0.00709018
0.00725045
0.00754943
0.00790978
0.00824255
0.00848288
0.00867957
0.00880438
0.00886861
0.00886631
0.00876218
0.00859937
0.00839551
0.00817512
0.00800418
0.00792432
0.00799515
0.00827794
0.0085695
0.00803025
0.00618491
0.00507121
0.00519608
0.00575797
0.00613654
0.0058577
0.00738323
0.0066009
0.00533139
0.00436396
0.00375784
0.00338476
0.00317959
0.00306633
0.0028993
0.00280023
0.00271274
0.00267283
0.002662
0.00277768
0.00300039
0.00329129
0.00379575
0.00435855
0.00491464
0.00528876
0.00550043
0.00708201
0.0122657
0.0113405
0.00887275
0.00885548
0.0096838
0.00937387
0.00881806
0.00944611
0.00295289
0.00665734
0.00773472
0.00738284
0.00672288
0.00594948
0.00522767
0.00457684
0.00406404
0.00359053
0.00328643
0.0030211
0.00289576
0.00283324
0.00281906
0.00292399
0.0031352
0.00342903
0.003951
0.00451214
0.00509292
0.00552675
0.00608302
0.0074046
0.0086794
0.00902928
0.00885796
0.00852786
0.00842398
0.00887138
0.00808447
0.00885994
0.00908613
0.00911407
0.00878399
0.00819836
0.00761554
0.00709783
0.00665195
0.00618129
0.00573561
0.00536207
0.00503973
0.00484041
0.00476886
0.00479705
0.00491029
0.00521148
0.00575162
0.00637053
0.006946
0.00746006
0.00819674
0.00949569
0.0113394
0.0125682
0.013095
0.0130402
0.0127819
0.0125821
0.00909202
0.00931573
0.00983554
0.0102959
0.00963412
0.00781066
0.00609662
0.00554472
0.00583467
0.00679276
0.007884
0.00871476
0.00919924
0.00937213
0.00935882
0.00909354
0.00857297
0.00769828
0.0068521
0.00657197
0.00746685
0.00817854
0.00828579
0.00798808
0.00761391
0.00745794
0.00770791
0.00847256
0.0100389
0.00841125
0.0171172
0.0171018
0.0135538
0.00317263
0.000191408
0.00458411
0.0209292
0.0279116
0.0286004
0.0280502
0.0272742
0.0265943
0.0261175
0.0259221
0.0259506
0.0261942
0.0266075
0.0270238
0.0271501
0.0266175
0.023645
0.0184143
0.0143682
0.014168
0.0180811
0.0244991
0.0265474
0.0247575
0.0179525
0.000448289
0.00100809
0.00142175
0.00148537
0.00127089
0.0011706
0.0011914
0.00125627
0.00132876
0.00157051
0.00212149
0.00290128
0.00301918
0.00282023
0.00341886
0.000199503
0.000379434
0.000525141
0.000613803
0.000665167
0.000527354
0.000363148
0.000285653
0.000296321
0.000354577
0.000411699
0.000453761
0.00051683
0.000547932
0.000571955
0.000571523
0.000585599
0.000633198
0.000702115
0.000785867
0.000805331
0.000744906
0.000612639
0.000477813
0.000374125
0.000323273
0.000323103
0.000334081
0.000288261
0.000161292
0.000712382
0.00058555
0.000925174
0.00106774
0.00111208
0.00116899
0.00120207
0.00124259
0.0014204
0.00198554
0.00254763
0.00278155
0.00277507
0.00257854
0.00226905
0.00193192
0.00162935
0.00136607
0.00122975
0.00115299
0.00108023
0.00103812
0.00101623
0.00100792
0.000988856
0.000971026
0.000894878
0.000835801
0.000832079
0.00125406
0.00245655
0.00202065
0.00215277
0.00228313
0.00230931
0.00230105
0.00229379
0.00228862
0.00226196
0.0021963
0.00203692
0.00176976
0.00148033
0.00124662
0.00113343
0.00105893
0.00103091
0.000985146
0.00103067
0.00104942
0.00114512
0.00128972
0.00154806
0.00186617
0.00202359
0.00199555
0.00179628
0.00185545
0.00252162
0.00277825
0.0055465
0.00418311
0.00306766
0.00249254
0.00218256
0.00197758
0.00204032
0.00193256
0.00213462
0.00223403
0.00262024
0.00313214
0.00368551
0.00425272
0.0046025
0.00469294
0.00455099
0.00419074
0.00377691
0.00338
0.00310295
0.00275884
0.00190724
0.00208654
0.00314717
0.00339506
0.00332376
0.00327869
0.00332778
0.00310786
0.00799864
0.00866482
0.00744078
0.00661687
0.00633598
0.00633518
0.00692802
0.00743883
0.00754281
0.00732885
0.00704927
0.00686492
0.00680251
0.00683091
0.00691374
0.00700363
0.00708024
0.00712824
0.00716542
0.00716739
0.00716037
0.00710087
0.00697686
0.00677873
0.00655679
0.00638258
0.00643437
0.00680054
0.00738085
0.00763178
0.00276531
0.00387581
0.00644942
0.00516035
0.00280998
0.0014738
0.00113091
0.00122714
0.00157951
0.00196132
0.0023658
0.00275387
0.00313931
0.00350661
0.00378836
0.00394077
0.00393176
0.00374673
0.00337451
0.00303093
0.00266932
0.00252751
0.00256318
0.00294627
0.00323607
0.00278526
0.0012297
0.000569551
0.000449603
0.000263776
0.00999499
0.00852362
0.00717798
0.00710488
0.00739011
0.00782049
0.00828379
0.00868515
0.00901926
0.00930889
0.00952058
0.00971451
0.00982738
0.00989031
0.00984457
0.00965944
0.00932337
0.00890679
0.00848291
0.00812966
0.00795655
0.00806602
0.00842568
0.00845847
0.0073455
0.00560238
0.00509746
0.00582437
0.00661281
0.00639862
0.0067523
0.00540449
0.00432872
0.00373627
0.00338628
0.00323392
0.00305688
0.00285817
0.00265255
0.00243238
0.00226848
0.00212679
0.0020917
0.00212623
0.00226672
0.00246067
0.00276387
0.00326018
0.00404325
0.00474988
0.00513806
0.0057794
0.00929769
0.0115429
0.00928613
0.00937727
0.0103859
0.00999216
0.00880652
0.00879573
0.003699
0.00737832
0.00749784
0.00693417
0.00613746
0.00526579
0.00445039
0.00371516
0.00312778
0.00268782
0.002385
0.00213271
0.00194473
0.00188557
0.00189623
0.0020217
0.00222261
0.00252939
0.00292323
0.00352248
0.00428872
0.00499283
0.0055657
0.00651203
0.00795757
0.0089258
0.00890472
0.00833405
0.00794076
0.00860738
0.00854344
0.00901506
0.00935967
0.00903867
0.00828151
0.00752052
0.00690595
0.00628742
0.00559948
0.00488932
0.0041465
0.00356946
0.00316413
0.00296761
0.00290156
0.00309232
0.0032557
0.00369077
0.00429597
0.00513967
0.00601921
0.00679552
0.00757079
0.00874436
0.0106835
0.0127952
0.0133665
0.0129829
0.0125142
0.0123948
0.00957508
0.0101391
0.0103563
0.00967831
0.00805197
0.00630139
0.00567244
0.00625723
0.00762936
0.00897887
0.00978196
0.0101738
0.0103257
0.0104269
0.0104047
0.0102527
0.00987327
0.00897749
0.00758375
0.00666297
0.00755276
0.00870268
0.00858283
0.00772879
0.00665365
0.00615514
0.00662543
0.00778111
0.00971102
0.00887121
0.0154258
0.0160154
0.00914179
0.00282921
0.00608005
0.0180296
0.0267373
0.0281827
0.0275503
0.0263985
0.0252213
0.0242614
0.0235486
0.0230961
0.0230553
0.0233694
0.0241225
0.0251349
0.0263003
0.0271571
0.0270296
0.023129
0.0153915
0.0106225
0.0112784
0.0154
0.0190321
0.0185493
0.0124768
0.000127975
0.000958646
0.00104091
0.000837361
0.000801162
0.000909511
0.0010537
0.00111889
0.00115465
0.00121875
0.00151373
0.00235523
0.00301311
0.00291864
0.00338453
0.000203776
0.000450196
0.000640694
0.000762804
0.00076321
0.000487243
0.000308589
0.00026777
0.000308756
0.000363164
0.000394977
0.000471407
0.00054832
0.000568944
0.000584951
0.000562335
0.000558168
0.000599814
0.000743004
0.000882987
0.000932483
0.000920336
0.000817176
0.000619881
0.000454191
0.000352363
0.00032453
0.000335484
0.000305265
0.000175793
0.000708686
0.000620209
0.000940212
0.00108602
0.00106796
0.00104838
0.00103697
0.00107825
0.00138875
0.00223665
0.00283293
0.00288253
0.00252007
0.00200001
0.0015332
0.00129856
0.00114221
0.00103009
0.000986894
0.000933862
0.00091436
0.000929703
0.000935801
0.00095307
0.000982927
0.000972061
0.000923326
0.000844299
0.000832543
0.00122526
0.00241926
0.00205224
0.00219395
0.00227688
0.00225136
0.00221769
0.00221392
0.00224064
0.00224134
0.00216853
0.00194221
0.00159055
0.00125014
0.0010926
0.000994972
0.000934511
0.000892875
0.00087609
0.000879637
0.000900566
0.000968687
0.00108674
0.00129465
0.00162756
0.0019034
0.00200867
0.00186017
0.0018357
0.00235016
0.00275696
0.00415656
0.00300286
0.00232081
0.001904
0.00176712
0.00159368
0.00170843
0.00153965
0.00171075
0.00165495
0.00182158
0.00203581
0.00246546
0.00303017
0.00360147
0.00401678
0.00419776
0.00406268
0.00375327
0.00339878
0.00313894
0.00292141
0.00227235
0.0018529
0.0027147
0.00301732
0.00298179
0.00311904
0.00364134
0.00357337
0.00810649
0.00829744
0.00693766
0.00636758
0.00636848
0.00689355
0.00766342
0.00781487
0.00738653
0.00696574
0.00675028
0.006763
0.00692428
0.0071394
0.00734775
0.00751444
0.00764774
0.007738
0.00775735
0.00773782
0.00762349
0.007483
0.00731171
0.00706215
0.00674975
0.00647166
0.00635793
0.00663704
0.0072884
0.00771695
0.00311712
0.00551038
0.00618041
0.00314043
0.00142962
0.00102716
0.00126608
0.00181624
0.00224544
0.0026278
0.00304973
0.00356717
0.00413958
0.00464009
0.00502322
0.00520935
0.00520392
0.00501916
0.00464028
0.00407753
0.00334354
0.00281723
0.00252059
0.00266253
0.00306706
0.00308244
0.00219513
0.00113948
0.000775057
0.000298483
0.0103712
0.00742591
0.00715293
0.00744915
0.00781302
0.00828233
0.00874047
0.0091429
0.00950891
0.00983264
0.0101133
0.0103581
0.0105392
0.0106553
0.0106649
0.0105328
0.0102169
0.00970824
0.00911638
0.00854821
0.00811934
0.00799178
0.00825671
0.00857603
0.00805553
0.00658476
0.00556414
0.00604207
0.00701851
0.00701567
0.00562521
0.00474376
0.00400626
0.00365119
0.00341002
0.00322235
0.0029049
0.00251708
0.00211711
0.00175331
0.00150063
0.00136965
0.00130472
0.00140949
0.0015738
0.00181204
0.00210163
0.00254346
0.00320169
0.00408796
0.00477373
0.00522642
0.00735045
0.010737
0.0105732
0.0101223
0.0104955
0.00985496
0.0088073
0.00856565
0.00487547
0.00778315
0.0073032
0.00659254
0.00564848
0.00465031
0.00375017
0.00299829
0.00244449
0.00195676
0.00162892
0.00139637
0.00123479
0.00117535
0.00118976
0.00129635
0.0015122
0.00183874
0.00224269
0.00276962
0.00349694
0.00439548
0.00511335
0.0058641
0.00714195
0.00853957
0.00887728
0.00816869
0.00787346
0.00856615
0.0090002
0.00949215
0.00937322
0.00859063
0.00767353
0.00698092
0.00637275
0.0054419
0.00444284
0.003242
0.00234958
0.00172012
0.00128831
0.00104431
0.00110608
0.00126803
0.00170748
0.00219872
0.00290264
0.00380767
0.00494562
0.00600351
0.00699567
0.00813188
0.0101267
0.0126465
0.0133721
0.0127088
0.012117
0.0118812
0.00992585
0.0104006
0.0100277
0.00856951
0.00682261
0.00589602
0.00628801
0.00769618
0.00914477
0.00990287
0.0101189
0.0101006
0.0100924
0.0101966
0.0103878
0.0105596
0.0105028
0.0100302
0.00864929
0.00707211
0.00732434
0.00903058
0.00871554
0.0073003
0.00531019
0.00430184
0.00502024
0.00690451
0.00943141
0.0091086
0.0125764
0.0147237
0.00859543
0.00852472
0.0161921
0.024979
0.0279371
0.0275434
0.0261234
0.0245065
0.0229451
0.0215825
0.0204984
0.0198551
0.0197334
0.0201822
0.021169
0.0225341
0.024067
0.0258004
0.0271862
0.0270909
0.0214865
0.0118946
0.00951554
0.0115127
0.0136874
0.0130922
0.00703401
6.27168e-05
0.000809886
0.000676244
0.000574991
0.00074938
0.00105312
0.00119089
0.00116391
0.00111833
0.00113047
0.00129284
0.00200753
0.0029249
0.00296499
0.00337568
0.000222829
0.000524646
0.000790902
0.000978299
0.000793092
0.000449972
0.000282057
0.000257324
0.000285918
0.000321758
0.000369375
0.000459029
0.000566594
0.000693486
0.000703895
0.000582089
0.000545835
0.000583048
0.00077675
0.000917394
0.00102924
0.000998955
0.000917393
0.000733657
0.000503981
0.000383504
0.000331054
0.000336111
0.000316844
0.000184466
0.000710942
0.000636264
0.00104064
0.00111261
0.0010014
0.000984221
0.000957188
0.000947147
0.00132445
0.00229316
0.00289882
0.00270258
0.00199727
0.00136236
0.00113632
0.000999912
0.00092293
0.00091209
0.000879679
0.000874441
0.000889153
0.000893655
0.000916142
0.000957137
0.000979922
0.000987267
0.000932478
0.000849463
0.000821812
0.00123558
0.00243708
0.00206763
0.00220459
0.00222714
0.00215394
0.00210329
0.00212805
0.00218491
0.00223141
0.00217361
0.00188882
0.00147727
0.00117951
0.00102775
0.000966545
0.000888249
0.000846994
0.000802672
0.000802891
0.000807636
0.000886468
0.000957034
0.00118438
0.00144407
0.00178906
0.0019811
0.00189157
0.00186898
0.00229526
0.0027741
0.0038494
0.00274986
0.00207208
0.00178548
0.00170763
0.00166267
0.00174913
0.00168999
0.00178588
0.00168707
0.00175891
0.00175431
0.00191535
0.00225128
0.00272742
0.00316663
0.00353625
0.00361587
0.00355121
0.0033339
0.00312369
0.00295279
0.00251675
0.00179714
0.00213198
0.00240277
0.00261757
0.00307302
0.00407455
0.00411492
0.00813168
0.00785646
0.0065817
0.00632702
0.00676671
0.00758625
0.00806797
0.00764856
0.00712657
0.00687209
0.00685413
0.00705324
0.00736411
0.00765031
0.00785857
0.00801964
0.00812821
0.00821156
0.00826009
0.00822234
0.00812316
0.00792419
0.00767065
0.00735145
0.00696368
0.00657584
0.00635418
0.00656736
0.00724304
0.00777682
0.00377641
0.00628106
0.00469306
0.00188941
0.00120306
0.00145789
0.00203801
0.00241309
0.00264449
0.00298572
0.00353842
0.0042429
0.00500911
0.0056341
0.00607376
0.0062798
0.00627499
0.00604152
0.00562035
0.00500915
0.00417031
0.00327339
0.00271339
0.00257306
0.00287586
0.00309256
0.00261674
0.00180845
0.0010335
0.000336922
0.00969039
0.00727247
0.00764047
0.00775536
0.00805934
0.00857059
0.00904176
0.00941063
0.00980713
0.0101103
0.0104488
0.0107325
0.0109715
0.0112188
0.0113462
0.011269
0.0109801
0.0104297
0.00970666
0.00898372
0.00837889
0.00804374
0.00814522
0.00853239
0.00841676
0.00741164
0.00643766
0.00671312
0.0075506
0.00761961
0.00547165
0.00454089
0.00391021
0.00368015
0.00342582
0.0030865
0.00251429
0.00195789
0.00139597
0.0010836
0.000937662
0.000838749
0.000861677
0.000937026
0.00103763
0.00121441
0.00154235
0.00201507
0.00265833
0.0034489
0.00438711
0.00494388
0.0061965
0.00929687
0.0105441
0.0106024
0.0103281
0.00922091
0.00838014
0.00836513
0.00609803
0.00767542
0.00712619
0.00628927
0.00521224
0.00412011
0.00315558
0.00245175
0.00187398
0.00138942
0.00109433
0.000984977
0.000931358
0.000908088
0.000915824
0.000962123
0.00105432
0.00134232
0.00173531
0.00222859
0.00289981
0.00383211
0.00469342
0.0054165
0.00645506
0.00792684
0.00861201
0.00792804
0.00826345
0.00884534
0.00920138
0.00983813
0.00914303
0.00802133
0.00726122
0.0066818
0.00578247
0.00450225
0.00314246
0.00179805
0.000925207
0.000584675
0.000427483
0.000393852
0.000395169
0.000454831
0.000628483
0.000951156
0.0016037
0.00262701
0.00386442
0.00523121
0.00648889
0.00773763
0.00950742
0.0121617
0.0133045
0.0124836
0.011686
0.0114471
0.0101153
0.0104622
0.00945806
0.00769726
0.00630051
0.00614941
0.00726136
0.00880991
0.00983444
0.00997841
0.00970664
0.00941095
0.00934632
0.00943994
0.00973538
0.010112
0.0105091
0.0105928
0.00978472
0.00769152
0.0070884
0.00913515
0.00890166
0.00688763
0.00391107
0.00248283
0.00341459
0.00612551
0.0092909
0.00922388
0.00931261
0.0144303
0.0129714
0.0159381
0.0227994
0.0272424
0.027632
0.0265181
0.0246821
0.022673
0.0206753
0.0188161
0.0172454
0.0162616
0.0162064
0.0168521
0.0184304
0.0203089
0.0221475
0.0240346
0.0259917
0.0276557
0.0266855
0.0164749
0.00928733
0.0106119
0.0115174
0.00958636
0.0028515
2.7814e-05
0.000644406
0.000453833
0.000514719
0.000931601
0.00133535
0.00135455
0.0012505
0.00116269
0.00114216
0.00128261
0.0018808
0.00284583
0.0029737
0.0033683
0.000237162
0.000602824
0.000977106
0.00117771
0.000895842
0.000469858
0.000272723
0.000256534
0.00026009
0.000260875
0.000313046
0.000408899
0.000595156
0.000812872
0.000831657
0.00069292
0.000553075
0.000571647
0.000765837
0.000893667
0.000998431
0.000977531
0.000916956
0.000757952
0.000532489
0.000401261
0.000340366
0.000338179
0.00032197
0.000186741
0.000701778
0.000662022
0.00109073
0.00118725
0.00103392
0.000963466
0.000928527
0.000930169
0.00119744
0.00214425
0.0028622
0.00259289
0.00174783
0.00121654
0.00100155
0.000913593
0.000895831
0.000872069
0.000873357
0.000902483
0.000905919
0.000937729
0.000963407
0.000981505
0.00100735
0.000990303
0.000940644
0.000817064
0.000825024
0.00128629
0.00241342
0.00210681
0.00218395
0.00213828
0.00203745
0.00200704
0.00204332
0.00213032
0.00221883
0.00219685
0.00191878
0.0014893
0.00117801
0.00104365
0.000972948
0.000879476
0.000801223
0.000743011
0.000749547
0.000740679
0.000832169
0.000886907
0.0011281
0.00134315
0.00173554
0.00195802
0.00192312
0.00192597
0.00237064
0.00295489
0.00405625
0.00273621
0.00200814
0.00176345
0.00172344
0.00178401
0.00186298
0.0019109
0.0019448
0.00191598
0.00188193
0.00181811
0.00182524
0.00194832
0.00220384
0.00256679
0.00291003
0.00310681
0.00318618
0.00316724
0.00305247
0.00293607
0.00263139
0.00188297
0.00180673
0.00199139
0.00242557
0.0033906
0.00478332
0.00478337
0.00811781
0.00736873
0.00635901
0.00652678
0.00732973
0.00806612
0.00813741
0.00761269
0.00713919
0.00694346
0.00707601
0.00739514
0.00774483
0.00796742
0.00809664
0.0082009
0.00831351
0.00841603
0.00845964
0.00849053
0.0084206
0.00826027
0.00796328
0.00757775
0.00711949
0.00664971
0.0063702
0.00656734
0.0073094
0.00783444
0.00445104
0.00629136
0.00333682
0.00167477
0.00163589
0.00227993
0.00272853
0.00283521
0.00292726
0.00327704
0.00395
0.00478768
0.00558649
0.00624964
0.00663839
0.00687579
0.00693814
0.0067264
0.00625625
0.00565349
0.00478734
0.00379468
0.00296592
0.00263855
0.00279042
0.00305034
0.00275837
0.00221892
0.001345
0.000407244
0.00883948
0.00766436
0.00797305
0.00787877
0.00819198
0.00873159
0.00916608
0.00951405
0.00990352
0.0102021
0.0105848
0.010867
0.0112405
0.0115928
0.0117892
0.011781
0.0114983
0.0109132
0.0101311
0.00926426
0.0085822
0.00813108
0.00810007
0.0084629
0.00858749
0.00794136
0.00725084
0.00738387
0.0080188
0.00804754
0.00544976
0.00438952
0.00392109
0.00374243
0.00338154
0.00291434
0.00211329
0.00149252
0.000997313
0.000815587
0.000673249
0.000616624
0.000607067
0.000664329
0.000763174
0.000968834
0.00117083
0.00162692
0.00227282
0.00308196
0.00408636
0.00475264
0.00565151
0.00801659
0.00969161
0.0105368
0.00960039
0.00828322
0.00785159
0.00816721
0.00701938
0.00747701
0.00698768
0.00604362
0.00487693
0.00371311
0.00282046
0.00209082
0.001515
0.00105132
0.000956951
0.000863343
0.000867981
0.000841476
0.000864499
0.000881203
0.000940377
0.00104209
0.00138342
0.0018519
0.00250333
0.00332889
0.00435199
0.0051145
0.00604672
0.00743706
0.00818245
0.00809135
0.00915791
0.00946225
0.00939062
0.00984335
0.00872821
0.00769029
0.00709715
0.00641773
0.00529936
0.0036669
0.00230625
0.000885536
0.00047956
0.000301532
0.000232744
0.000214436
0.00022451
0.000243194
0.000349709
0.000461435
0.000873626
0.00168323
0.00303213
0.00456065
0.00605803
0.00742902
0.00917968
0.0118022
0.0131909
0.012334
0.0113631
0.0110659
0.0101891
0.0104804
0.00905958
0.00719503
0.00624925
0.00660493
0.00803612
0.00937865
0.00992678
0.00958755
0.00902052
0.00865008
0.00858167
0.00882242
0.00916855
0.00959047
0.0100873
0.0105858
0.0105557
0.00856339
0.00678221
0.00903897
0.00917502
0.00676741
0.00310055
0.00171105
0.00274538
0.00590424
0.00940123
0.00922507
0.00510093
0.0129326
0.0164668
0.0210576
0.0254385
0.0274209
0.0270409
0.0255307
0.023411
0.0210533
0.0185821
0.016159
0.0140115
0.0125241
0.0123737
0.0135218
0.0156345
0.018438
0.0207182
0.0228138
0.0245141
0.0267187
0.0283273
0.0227091
0.0102648
0.00847828
0.00971771
0.00654221
0.000363789
1.3856e-05
0.000514026
0.000364714
0.000568547
0.00129657
0.00164
0.00155802
0.00149862
0.00141677
0.00139854
0.00151531
0.00207584
0.00288938
0.0029965
0.00340566
0.000242869
0.000616648
0.0010812
0.00138186
0.00111022
0.000551738
0.000285944
0.000244217
0.000228182
0.000230167
0.000237997
0.000350758
0.000556652
0.000896901
0.0010772
0.000837797
0.000576738
0.000555345
0.00070131
0.000836932
0.000895264
0.000891517
0.000836652
0.000695908
0.000509162
0.000399245
0.000343446
0.000342589
0.000319562