/*--------------------------------*- C++ -*----------------------------------*\
| =========                 |                                                 |
| \\      /  F ield         | OpenFOAM: The Open Source CFD Toolbox           |
|  \\    /   O peration     | Version:  2.1.1                                 |
|   \\  /    A nd           | Web:      www.OpenFOAM.org                      |
|    \\/     M anipulation  |                                                 |
\*---------------------------------------------------------------------------*/
FoamFile
{
    version     2.0;
    format      ascii;
    class       volScalarField;
    location    "0.006000000";
    object      H2O;
}
// * * * * * * * * * * * * * * * * * * * * * * * * * * * * * * * * * * * * * //

dimensions      [0 0 0 0 0 0 0];

internalField   nonuniform List<scalar> 
12384
(
0.230148
0.228674
0.227861
0.228211
0.228935
0.229782
0.230425
0.230706
0.230677
0.230567
0.230341
0.230464
0.233528
0.235113
0.205127
0.214639
0.217963
0.218316
0.218234
0.217999
0.217535
0.216649
0.215497
0.214364
0.21358
0.213041
0.2128
0.212476
0.212634
0.212522
0.212683
0.212972
0.213111
0.213295
0.21364
0.213895
0.214146
0.214584
0.215224
0.215869
0.215871
0.211252
0.204123
0.201771
0.235393
0.226474
0.228188
0.230796
0.23247
0.233991
0.235785
0.236941
0.23796
0.238778
0.239429
0.240018
0.240559
0.240805
0.240978
0.240929
0.241024
0.240365
0.240455
0.239662
0.239516
0.238921
0.238722
0.238217
0.237712
0.236865
0.23549
0.236794
0.239065
0.242879
0.248399
0.247586
0.247689
0.247946
0.248067
0.248072
0.248094
0.248177
0.248145
0.248118
0.248119
0.248187
0.248185
0.248323
0.248324
0.248325
0.248368
0.248218
0.248407
0.247755
0.247795
0.24739
0.247245
0.246779
0.246157
0.245075
0.245828
0.24662
0.247131
0.247103
0.251165
0.25107
0.251078
0.251103
0.251227
0.25135
0.251539
0.251455
0.251667
0.251592
0.251742
0.251672
0.251716
0.251703
0.251689
0.251547
0.251473
0.251685
0.251203
0.250763
0.249314
0.247264
0.24691
0.247957
0.248655
0.249029
0.2493
0.249157
0.248871
0.248665
0.251629
0.25155
0.251588
0.251624
0.251609
0.251612
0.251552
0.251523
0.251522
0.251541
0.251575
0.251608
0.251637
0.251656
0.251642
0.251638
0.251659
0.251653
0.251596
0.251628
0.251543
0.251552
0.251419
0.251416
0.251326
0.251297
0.251187
0.251256
0.251249
0.251189
0.251271
0.250894
0.249955
0.250118
0.25139
0.251775
0.251851
0.25185
0.251888
0.25193
0.251988
0.252003
0.252125
0.252111
0.252175
0.252205
0.252166
0.252188
0.252172
0.252091
0.252073
0.251992
0.251954
0.251847
0.245398
0.232812
0.233208
0.233826
0.234184
0.234749
0.249392
0.251523
0.252069
0.251637
0.251612
0.251594
0.251607
0.251623
0.251603
0.251662
0.251699
0.251671
0.251686
0.251663
0.251704
0.251588
0.251624
0.251578
0.251511
0.251486
0.25147
0.251457
0.251453
0.251347
0.251112
0.251238
0.251276
0.251303
0.251264
0.251239
0.251504
0.251497
0.251617
0.251627
0.251611
0.251612
0.251671
0.251667
0.251665
0.251597
0.251725
0.251687
0.251668
0.251629
0.251663
0.251539
0.251426
0.251402
0.251408
0.251533
0.251595
0.250586
0.250445
0.250623
0.250783
0.250917
0.251004
0.250838
0.250639
0.250487
0.249966
0.251793
0.251872
0.251749
0.251675
0.25167
0.251715
0.251787
0.251848
0.251922
0.252113
0.252236
0.252157
0.25218
0.252224
0.252191
0.252131
0.252171
0.25207
0.252027
0.252024
0.252088
0.251932
0.25192
0.2519
0.251892
0.251873
0.251825
0.251822
0.251857
0.252049
0.251961
0.251967
0.252002
0.251982
0.251977
0.251982
0.251992
0.252013
0.252035
0.252064
0.252083
0.25208
0.252094
0.2521
0.252074
0.252068
0.251966
0.251915
0.251884
0.25182
0.251777
0.251541
0.251509
0.251512
0.251514
0.251508
0.25149
0.251514
0.251559
0.25244
0.252427
0.252433
0.252168
0.251725
0.251458
0.251625
0.251948
0.252006
0.25218
0.252223
0.252428
0.252463
0.252458
0.252477
0.252492
0.252486
0.252509
0.252498
0.252303
0.252256
0.252226
0.252186
0.252144
0.252107
0.252049
0.251971
0.2519
0.251587
0.252305
0.238991
0.240921
0.226129
0.199493
0.174128
0.165581
0.20504
0.249822
0.247491
0.247152
0.247091
0.247075
0.247069
0.247079
0.247089
0.247116
0.247149
0.247224
0.247321
0.247451
0.24754
0.247555
0.247397
0.247078
0.24699
0.247005
0.247119
0.247392
0.248686
0.250553
0.217855
0.219894
0.225453
0.230338
0.2329
0.233923
0.234525
0.234752
0.234398
0.233789
0.232804
0.231522
0.233005
0.235055
0.206211
0.216415
0.219654
0.219779
0.219319
0.218389
0.216338
0.213652
0.211257
0.210248
0.210061
0.210378
0.21086
0.211747
0.212239
0.212891
0.213197
0.213463
0.213368
0.213075
0.212783
0.212473
0.212276
0.212728
0.213682
0.214858
0.215609
0.214417
0.209474
0.202951
0.234789
0.227098
0.230681
0.234047
0.236121
0.237727
0.239587
0.241221
0.242493
0.243569
0.244564
0.245489
0.245994
0.24629
0.246328
0.246153
0.24567
0.245453
0.244909
0.244515
0.243327
0.242254
0.241086
0.239946
0.238924
0.237699
0.236126
0.235935
0.238495
0.244609
0.248373
0.247596
0.24794
0.248316
0.248424
0.248336
0.248406
0.248264
0.248106
0.247987
0.247906
0.247877
0.247893
0.247779
0.247793
0.247758
0.247659
0.247607
0.247573
0.247387
0.247341
0.247316
0.247138
0.246948
0.246493
0.245505
0.245433
0.24733
0.248312
0.248115
0.25101
0.251192
0.251289
0.251346
0.25133
0.251288
0.251435
0.251463
0.251577
0.251765
0.251727
0.251885
0.25177
0.251775
0.251741
0.251635
0.251561
0.251412
0.251548
0.250962
0.249938
0.247838
0.247273
0.249046
0.250602
0.251315
0.25141
0.251044
0.250375
0.249767
0.251608
0.251594
0.251618
0.251656
0.251629
0.251546
0.251703
0.251767
0.251964
0.251699
0.251727
0.251741
0.251753
0.251759
0.251768
0.25177
0.251752
0.251757
0.251734
0.251702
0.251662
0.251631
0.251576
0.251538
0.25143
0.25136
0.251249
0.251206
0.251249
0.251275
0.25133
0.250485
0.250292
0.251718
0.251862
0.251921
0.251874
0.251874
0.2518
0.251128
0.250992
0.250921
0.250717
0.250641
0.250728
0.250729
0.250811
0.250894
0.251077
0.251342
0.251795
0.25214
0.25202
0.25191
0.250618
0.240932
0.229411
0.227607
0.229045
0.230225
0.251735
0.251613
0.251529
0.251488
0.251504
0.251544
0.251576
0.25163
0.251656
0.251671
0.251688
0.251721
0.251695
0.251701
0.251673
0.251686
0.251603
0.251588
0.251556
0.251554
0.251489
0.251475
0.251468
0.251428
0.251226
0.251301
0.251453
0.251509
0.251491
0.251352
0.251597
0.251531
0.251838
0.251586
0.251513
0.2514
0.251408
0.25143
0.251408
0.251453
0.251436
0.251421
0.251453
0.251432
0.251342
0.25138
0.251357
0.251402
0.251446
0.251411
0.251681
0.251347
0.25061
0.251142
0.25154
0.251532
0.251548
0.251561
0.25135
0.251113
0.250007
0.25197
0.251772
0.251629
0.25164
0.251709
0.251988
0.251944
0.25198
0.251999
0.252056
0.25214
0.25207
0.252132
0.252119
0.252128
0.25206
0.25208
0.252037
0.251994
0.252078
0.252048
0.251975
0.251911
0.251834
0.251791
0.251781
0.25179
0.251801
0.251828
0.252061
0.251944
0.251982
0.251929
0.251921
0.251957
0.252023
0.25209
0.252119
0.252153
0.252185
0.252213
0.252242
0.252322
0.252326
0.252341
0.252262
0.252149
0.252063
0.251981
0.25192
0.251824
0.251793
0.25151
0.251394
0.25133
0.251254
0.251221
0.251264
0.251337
0.252014
0.25202
0.251997
0.251865
0.251558
0.251661
0.252027
0.252227
0.252394
0.252359
0.252369
0.25238
0.25239
0.252423
0.252253
0.252467
0.252507
0.252512
0.252398
0.25252
0.252265
0.252178
0.252126
0.252104
0.252094
0.252083
0.252027
0.251969
0.251636
0.252149
0.250562
0.250517
0.251161
0.252303
0.206588
0.192633
0.252116
0.2482
0.247308
0.247225
0.247276
0.247367
0.247482
0.247539
0.247552
0.247551
0.247567
0.247644
0.247811
0.248167
0.248779
0.249342
0.249495
0.248648
0.247792
0.247134
0.247116
0.247435
0.248847
0.249479
0.218394
0.224775
0.230408
0.233231
0.234028
0.234531
0.235246
0.235667
0.235509
0.23511
0.234209
0.233102
0.233044
0.234713
0.20771
0.218354
0.221262
0.221104
0.220515
0.218792
0.214584
0.210554
0.20927
0.210097
0.211994
0.214398
0.216622
0.218502
0.21944
0.2197
0.219713
0.219183
0.219045
0.218554
0.217574
0.215864
0.214168
0.212817
0.21254
0.213375
0.214692
0.215233
0.212814
0.205331
0.234301
0.228569
0.233029
0.236079
0.237106
0.238667
0.240154
0.24125
0.242885
0.244818
0.246694
0.247709
0.24823
0.248335
0.247912
0.247369
0.246727
0.245952
0.245156
0.244655
0.243008
0.242193
0.241108
0.240228
0.239345
0.238581
0.237249
0.235899
0.237648
0.243677
0.248304
0.247776
0.248087
0.248478
0.248442
0.248331
0.248248
0.247989
0.247941
0.247737
0.247441
0.247231
0.24697
0.246763
0.246654
0.246484
0.246374
0.246268
0.246276
0.246017
0.246214
0.246399
0.246843
0.246921
0.246713
0.246052
0.245496
0.24646
0.248192
0.248199
0.251018
0.25119
0.250617
0.250357
0.250218
0.250272
0.250762
0.250697
0.250798
0.251242
0.251274
0.251636
0.251645
0.251709
0.251747
0.251676
0.251616
0.251521
0.251358
0.251106
0.250427
0.248945
0.247432
0.249232
0.251404
0.251432
0.251723
0.251647
0.251066
0.250313
0.25162
0.251548
0.251656
0.251665
0.251583
0.251771
0.251812
0.251755
0.251758
0.251743
0.251728
0.251718
0.251705
0.251703
0.251694
0.25168
0.251651
0.25164
0.251648
0.251641
0.251615
0.251615
0.251582
0.251572
0.251526
0.251443
0.251314
0.251228
0.25123
0.251312
0.251151
0.250969
0.251831
0.251891
0.251846
0.252308
0.250534
0.249633
0.24957
0.24962
0.249963
0.250135
0.250553
0.250706
0.250952
0.251013
0.25107
0.251064
0.250952
0.250941
0.250912
0.251366
0.251769
0.25235
0.251981
0.24958
0.240589
0.233511
0.231323
0.229913
0.251638
0.251396
0.25155
0.251521
0.25157
0.251609
0.251648
0.251643
0.25165
0.251641
0.251668
0.251665
0.25167
0.251631
0.251622
0.251611
0.251624
0.251579
0.251579
0.251548
0.251507
0.251513
0.251506
0.25147
0.251717
0.251337
0.251495
0.251668
0.251754
0.251541
0.251453
0.251526
0.251551
0.251362
0.251335
0.251554
0.2512
0.251055
0.250845
0.250564
0.250486
0.250398
0.250245
0.250392
0.250699
0.251299
0.251159
0.251175
0.251288
0.251295
0.251438
0.251545
0.25112
0.251175
0.25153
0.251543
0.251402
0.25151
0.251521
0.251495
0.250867
0.25187
0.251541
0.251569
0.251709
0.251984
0.25191
0.251927
0.251836
0.251871
0.252084
0.251848
0.251628
0.251528
0.251444
0.251597
0.251846
0.252511
0.25198
0.252041
0.252039
0.251995
0.252162
0.251939
0.251847
0.251775
0.251772
0.251815
0.251828
0.251801
0.252056
0.251977
0.251911
0.251895
0.251918
0.252042
0.252117
0.252181
0.252237
0.252316
0.252286
0.252258
0.252235
0.252234
0.252227
0.252238
0.252257
0.252293
0.252326
0.252262
0.252021
0.251942
0.251806
0.251768
0.251365
0.251167
0.251019
0.251024
0.251112
0.251165
0.251889
0.251895
0.251684
0.251599
0.251704
0.25203
0.252355
0.252331
0.252304
0.252122
0.251924
0.251838
0.251792
0.251786
0.25182
0.251855
0.251919
0.252076
0.252234
0.25229
0.252145
0.252056
0.25201
0.252023
0.252074
0.252104
0.252101
0.252027
0.251704
0.252014
0.250148
0.250158
0.250952
0.252359
0.228715
0.252342
0.249239
0.247553
0.247365
0.247522
0.247696
0.247845
0.247956
0.247999
0.247989
0.247933
0.247838
0.247742
0.247718
0.247856
0.248589
0.249797
0.25067
0.250701
0.249846
0.248348
0.247872
0.248285
0.249923
0.240803
0.220193
0.225824
0.228267
0.228093
0.22857
0.229542
0.230494
0.231702
0.232884
0.234295
0.234127
0.233797
0.233352
0.234637
0.209252
0.220572
0.223223
0.223443
0.222526
0.218385
0.211864
0.209018
0.209912
0.213225
0.21688
0.220431
0.222985
0.224616
0.224782
0.223896
0.222284
0.221179
0.221368
0.221397
0.221271
0.220183
0.218083
0.215421
0.213247
0.212655
0.213652
0.214971
0.214363
0.207141
0.234198
0.229631
0.23493
0.236683
0.237016
0.237681
0.238266
0.239265
0.242676
0.246139
0.248302
0.248913
0.249022
0.248472
0.247493
0.246565
0.245261
0.244118
0.242576
0.241308
0.240667
0.240195
0.239779
0.239559
0.239372
0.238896
0.237997
0.236285
0.236899
0.242852
0.248328
0.247916
0.248227
0.248545
0.248338
0.248297
0.247986
0.247733
0.247704
0.24755
0.247158
0.246803
0.246282
0.245662
0.244726
0.243997
0.243504
0.243095
0.243219
0.24349
0.24401
0.245147
0.245979
0.24639
0.24665
0.246417
0.245662
0.245868
0.247458
0.248298
0.250878
0.250048
0.248959
0.247288
0.246369
0.245994
0.246279
0.246533
0.247115
0.248018
0.249088
0.250504
0.251186
0.251464
0.251607
0.251633
0.251636
0.251535
0.251395
0.25135
0.250763
0.249717
0.247999
0.248645
0.251121
0.251807
0.251678
0.251622
0.251607
0.250982
0.25161
0.251588
0.251671
0.25165
0.251868
0.251901
0.251777
0.251734
0.251724
0.251692
0.251679
0.251669
0.251651
0.251656
0.251597
0.251551
0.251515
0.251506
0.251477
0.251451
0.251474
0.251486
0.251535
0.251523
0.251548
0.251765
0.251415
0.251267
0.251229
0.251303
0.251138
0.251733
0.251764
0.251862
0.251323
0.249454
0.249069
0.249215
0.249505
0.25009
0.250637
0.251327
0.251872
0.251972
0.251988
0.251988
0.252006
0.252015
0.252315
0.251883
0.251434
0.251067
0.251254
0.251715
0.252089
0.251219
0.248721
0.242491
0.238965
0.23186
0.251419
0.251497
0.25152
0.251559
0.251605
0.251596
0.251621
0.251616
0.2516
0.251586
0.25159
0.2515
0.251475
0.251493
0.251484
0.251504
0.251556
0.251571
0.251561
0.25158
0.251547
0.251507
0.251532
0.251528
0.251476
0.2515
0.25137
0.251741
0.251573
0.25176
0.2515
0.251544
0.251378
0.251371
0.251604
0.251285
0.250984
0.250526
0.250052
0.249617
0.249397
0.249114
0.248992
0.24892
0.249236
0.249589
0.250109
0.251133
0.251106
0.2512
0.251256
0.251499
0.25156
0.25118
0.251562
0.25155
0.251297
0.25135
0.251541
0.251547
0.251403
0.251733
0.251546
0.251659
0.251966
0.251896
0.25185
0.251771
0.251688
0.251061
0.250385
0.250031
0.249821
0.249813
0.249864
0.249982
0.250356
0.250853
0.251706
0.25199
0.251999
0.252063
0.252021
0.251998
0.251906
0.2518
0.251784
0.251829
0.251862
0.251815
0.251996
0.251894
0.251839
0.251913
0.252031
0.25213
0.252206
0.252329
0.252281
0.252231
0.25218
0.252145
0.251964
0.251644
0.251551
0.251883
0.252143
0.25218
0.252166
0.252166
0.252201
0.252017
0.251901
0.251807
0.251447
0.251111
0.25096
0.251028
0.251168
0.251171
0.251761
0.251627
0.251589
0.251696
0.251985
0.252328
0.252258
0.252318
0.25192
0.251692
0.251497
0.251409
0.251376
0.251376
0.251432
0.251481
0.251615
0.2519
0.252097
0.252275
0.252128
0.251963
0.251938
0.252033
0.252144
0.25236
0.252193
0.252092
0.25177
0.251944
0.25056
0.250448
0.251889
0.251824
0.252489
0.249943
0.247823
0.247476
0.247616
0.247894
0.248159
0.248378
0.248558
0.248643
0.248652
0.248596
0.248428
0.248167
0.247898
0.247706
0.247754
0.248708
0.250475
0.25139
0.251285
0.250445
0.249647
0.249768
0.25114
0.222353
0.219648
0.222774
0.2213
0.222741
0.225924
0.227509
0.228011
0.228625
0.229266
0.231
0.233149
0.233534
0.233407
0.234523
0.210831
0.222554
0.225761
0.226589
0.224027
0.216399
0.209974
0.208862
0.211342
0.215177
0.21919
0.223045
0.226567
0.229065
0.228664
0.22608
0.222114
0.220698
0.221119
0.222397
0.223391
0.222912
0.220999
0.218317
0.215055
0.21292
0.213048
0.214427
0.214658
0.20815
0.23412
0.230571
0.236349
0.236978
0.236329
0.236026
0.23592
0.237347
0.242723
0.247095
0.249207
0.249196
0.247967
0.246338
0.244765
0.242417
0.240573
0.239487
0.23865
0.238552
0.238668
0.238617
0.239053
0.239283
0.239364
0.239234
0.238349
0.236752
0.236605
0.242554
0.24842
0.248077
0.248306
0.248447
0.248171
0.247964
0.247673
0.247596
0.247644
0.247517
0.247029
0.246412
0.245505
0.244095
0.243043
0.242342
0.241744
0.241452
0.241414
0.241442
0.241968
0.243162
0.244704
0.245946
0.246412
0.246396
0.245885
0.245706
0.247005
0.248163
0.250062
0.248586
0.246538
0.245264
0.244712
0.244587
0.244655
0.244857
0.245281
0.245701
0.246243
0.247404
0.248759
0.250341
0.251206
0.251398
0.251466
0.251488
0.251331
0.251443
0.250939
0.250087
0.248743
0.247979
0.249967
0.250774
0.250821
0.251168
0.251417
0.251317
0.251584
0.25162
0.251663
0.251951
0.251905
0.25179
0.251743
0.251725
0.251698
0.251697
0.251691
0.251652
0.25161
0.251491
0.251427
0.251347
0.251244
0.251259
0.251212
0.251238
0.25124
0.251273
0.251398
0.251435
0.251473
0.251519
0.251625
0.251295
0.25122
0.251323
0.251733
0.251882
0.251981
0.252043
0.249407
0.248951
0.249186
0.249843
0.250459
0.251036
0.251538
0.251898
0.251897
0.251993
0.251941
0.252011
0.251996
0.251995
0.251962
0.251977
0.252126
0.251631
0.251188
0.251376
0.251788
0.251819
0.250251
0.248472
0.244647
0.234186
0.251336
0.251545
0.251526
0.251594
0.251599
0.251617
0.251606
0.251605
0.251592
0.25148
0.251423
0.251439
0.251428
0.251361
0.251373
0.25139
0.251409
0.25146
0.251556
0.251563
0.251598
0.251562
0.251515
0.251564
0.251544
0.251527
0.251573
0.251813
0.251562
0.251437
0.251543
0.25149
0.251395
0.251365
0.251654
0.251191
0.250483
0.2497
0.248816
0.247996
0.247461
0.247205
0.247172
0.247357
0.247681
0.248018
0.248679
0.249461
0.250947
0.251069
0.251183
0.251325
0.251536
0.251302
0.251278
0.251326
0.2513
0.25135
0.251512
0.251547
0.251726
0.251506
0.251555
0.25175
0.251968
0.251789
0.251739
0.251229
0.250308
0.249604
0.248976
0.248715
0.248564
0.248451
0.248574
0.248758
0.249177
0.249687
0.250416
0.251274
0.252027
0.25202
0.252045
0.252052
0.251949
0.25184
0.251819
0.251852
0.251881
0.251837
0.251918
0.251829
0.251793
0.251943
0.252119
0.252198
0.252338
0.252272
0.25221
0.252068
0.25071
0.249703
0.249018
0.248578
0.248792
0.249036
0.249861
0.250529
0.251564
0.252083
0.252084
0.252249
0.251986
0.251811
0.251536
0.251137
0.250946
0.251108
0.251201
0.251266
0.251685
0.251575
0.251639
0.251917
0.252128
0.252366
0.252255
0.251883
0.251637
0.251369
0.251318
0.251315
0.251309
0.251312
0.25132
0.251347
0.251407
0.251587
0.25192
0.2522
0.252173
0.251918
0.251928
0.252082
0.252287
0.252171
0.252272
0.252182
0.251892
0.251914
0.251206
0.250701
0.251951
0.251993
0.25039
0.248259
0.24754
0.247621
0.247962
0.248328
0.248678
0.248975
0.249208
0.249372
0.249408
0.249272
0.24906
0.248752
0.248441
0.24801
0.247694
0.247741
0.249091
0.251194
0.251682
0.251237
0.250804
0.250946
0.252021
0.206758
0.217078
0.216283
0.216944
0.222059
0.226573
0.226724
0.225587
0.225134
0.225683
0.227019
0.230635
0.233076
0.233446
0.234505
0.211999
0.224573
0.2287
0.229056
0.22518
0.215166
0.209331
0.208734
0.210909
0.213796
0.217658
0.223214
0.229085
0.232719
0.232779
0.228966
0.222713
0.220071
0.220951
0.223551
0.224037
0.223895
0.222485
0.219963
0.216689
0.213593
0.212868
0.214063
0.214745
0.208861
0.234897
0.231518
0.237793
0.237605
0.235946
0.23449
0.234078
0.23595
0.24196
0.247212
0.249227
0.248441
0.246131
0.243287
0.240043
0.238417
0.237721
0.237472
0.237624
0.238002
0.238241
0.23872
0.2391
0.239446
0.239692
0.239421
0.238695
0.236893
0.236702
0.242667
0.248436
0.248038
0.248329
0.248282
0.247864
0.247624
0.247396
0.247577
0.247664
0.24745
0.246977
0.246248
0.244792
0.24347
0.242326
0.241683
0.240838
0.240171
0.240192
0.240282
0.240734
0.241903
0.243328
0.245452
0.246145
0.246385
0.245978
0.245794
0.246789
0.248141
0.249856
0.247753
0.245802
0.244709
0.244442
0.24452
0.244408
0.244887
0.244795
0.245231
0.245339
0.245889
0.246627
0.248084
0.249524
0.250814
0.2512
0.251286
0.25125
0.251258
0.250849
0.250261
0.249312
0.247799
0.248803
0.249359
0.249876
0.251017
0.251433
0.251364
0.25158
0.25165
0.251698
0.251893
0.251799
0.251779
0.251698
0.25172
0.25174
0.251726
0.251676
0.251598
0.251476
0.251347
0.251235
0.251076
0.251048
0.251018
0.250998
0.250998
0.250994
0.251072
0.251209
0.251289
0.251397
0.251483
0.251668
0.251302
0.251241
0.251323
0.251758
0.252065
0.251894
0.249973
0.249164
0.249524
0.2503
0.250785
0.251071
0.251562
0.251835
0.251962
0.251926
0.251952
0.252097
0.252078
0.252112
0.252004
0.25196
0.251966
0.251915
0.252101
0.251406
0.251321
0.251587
0.251952
0.25096
0.249574
0.247817
0.23585
0.251406
0.251543
0.251534
0.251623
0.251615
0.251625
0.251599
0.251611
0.251467
0.251458
0.251414
0.251391
0.251354
0.251311
0.251279
0.25127
0.251324
0.25139
0.251475
0.251551
0.25158
0.251595
0.251561
0.251511
0.251499
0.251571
0.251553
0.251559
0.251576
0.251449
0.251529
0.251412
0.251416
0.251358
0.251606
0.251037
0.24965
0.248401
0.247224
0.245139
0.243709
0.242593
0.242672
0.243537
0.244863
0.246694
0.247418
0.24837
0.249767
0.25144
0.251193
0.251235
0.251838
0.251595
0.251324
0.251299
0.251316
0.251463
0.251385
0.251578
0.252048
0.251348
0.251605
0.252056
0.251899
0.251692
0.251652
0.250349
0.249339
0.248515
0.248171
0.246763
0.246352
0.246125
0.246207
0.246742
0.248006
0.248847
0.249543
0.250467
0.2515
0.252041
0.252059
0.252061
0.25202
0.251884
0.251826
0.251892
0.25183
0.251762
0.251836
0.251644
0.251843
0.252048
0.252166
0.252239
0.252299
0.252215
0.251939
0.249847
0.247155
0.24309
0.239611
0.238282
0.238311
0.240663
0.243561
0.247365
0.249459
0.251153
0.251985
0.252152
0.252028
0.251852
0.251742
0.251212
0.250948
0.251132
0.251255
0.25133
0.251643
0.251562
0.25181
0.25202
0.252411
0.252265
0.251909
0.251631
0.251377
0.251261
0.251304
0.251409
0.251399
0.251425
0.25136
0.251351
0.251359
0.251423
0.251667
0.252092
0.252211
0.251917
0.251909
0.252159
0.252137
0.250997
0.252529
0.252344
0.251906
0.251894
0.251833
0.250762
0.251075
0.250443
0.248794
0.247696
0.247607
0.247862
0.248289
0.248738
0.249167
0.249575
0.249875
0.250096
0.250049
0.249903
0.249635
0.249217
0.248841
0.248445
0.247966
0.247586
0.247822
0.250238
0.251711
0.25137
0.251242
0.251626
0.251757
0.190812
0.213477
0.210432
0.215336
0.225358
0.228029
0.226339
0.224263
0.223073
0.223031
0.224265
0.228436
0.232398
0.233339
0.234404
0.212988
0.226741
0.231272
0.231517
0.226437
0.215997
0.209211
0.207705
0.208509
0.210294
0.213957
0.221281
0.230109
0.236055
0.237614
0.232549
0.22435
0.219935
0.220986
0.223631
0.224058
0.223922
0.222622
0.220387
0.217237
0.214017
0.212916
0.213885
0.214646
0.208902
0.234753
0.232619
0.238815
0.238813
0.236402
0.234394
0.233683
0.23469
0.24056
0.246836
0.249076
0.248079
0.245295
0.241033
0.238448
0.237453
0.237064
0.23735
0.237775
0.238174
0.238954
0.239379
0.23975
0.240141
0.240042
0.239764
0.23876
0.2373
0.236857
0.243509
0.248396
0.24814
0.248373
0.248071
0.247621
0.247322
0.247217
0.247386
0.247598
0.247536
0.24708
0.246301
0.244908
0.243489
0.242419
0.241427
0.240283
0.239672
0.239305
0.239558
0.239933
0.241045
0.24278
0.245228
0.246082
0.2465
0.246068
0.245918
0.24704
0.248663
0.249905
0.247805
0.245612
0.244568
0.244592
0.244634
0.244567
0.245201
0.244854
0.245313
0.245115
0.245381
0.245688
0.246459
0.247715
0.249079
0.250098
0.250726
0.251091
0.250979
0.250637
0.250133
0.249403
0.24782
0.247875
0.24834
0.249363
0.251497
0.251538
0.251548
0.251628
0.251666
0.251883
0.251774
0.251814
0.251772
0.251712
0.25172
0.251764
0.251742
0.251623
0.251526
0.251364
0.251221
0.251098
0.250973
0.250966
0.250901
0.250824
0.250837
0.250903
0.250944
0.25105
0.251206
0.251338
0.251451
0.251629
0.25131
0.251216
0.251327
0.25177
0.251965
0.252336
0.249754
0.249793
0.250607
0.251319
0.251417
0.251585
0.251906
0.251903
0.251917
0.252034
0.25203
0.251897
0.251812
0.251807
0.251864
0.251993
0.251958
0.251936
0.251995
0.251684
0.251237
0.251504
0.251912
0.25125
0.250206
0.248744
0.238437
0.251489
0.251521
0.251544
0.251596
0.251636
0.251629
0.251602
0.251623
0.251471
0.25146
0.251408
0.251384
0.251331
0.251273
0.251251
0.251228
0.251273
0.25131
0.251423
0.251552
0.251615
0.251618
0.251585
0.251554
0.251531
0.251569
0.251575
0.25156
0.251531
0.251411
0.251526
0.251389
0.251422
0.25139
0.251691
0.250558
0.248689
0.247294
0.244147
0.242323
0.240728
0.239741
0.239452
0.240403
0.241673
0.243658
0.246027
0.247628
0.248928
0.250692
0.251069
0.251265
0.251595
0.251613
0.251457
0.251348
0.251327
0.251219
0.251213
0.251476
0.251699
0.251344
0.251654
0.251982
0.251774
0.251624
0.250915
0.249543
0.248595
0.247609
0.246237
0.245534
0.245329
0.245297
0.245403
0.245722
0.246463
0.247996
0.248927
0.249761
0.250889
0.252421
0.251988
0.251965
0.252174
0.25192
0.251859
0.251835
0.251692
0.251675
0.251788
0.25163
0.251906
0.252079
0.252184
0.252276
0.252275
0.252162
0.250659
0.246705
0.241612
0.234731
0.231146
0.229025
0.22936
0.231091
0.235282
0.240165
0.245881
0.24954
0.251669
0.252072
0.252135
0.251886
0.251748
0.25127
0.250969
0.251146
0.251292
0.251377
0.251633
0.251552
0.251851
0.252066
0.252342
0.252035
0.251744
0.251508
0.251269
0.251245
0.251369
0.251357
0.251326
0.251353
0.2514
0.251394
0.251401
0.251391
0.25147
0.251968
0.252264
0.251946
0.251894
0.25218
0.252147
0.249835
0.251441
0.252333
0.251897
0.251891
0.252393
0.251088
0.250283
0.249215
0.248149
0.247666
0.247747
0.248086
0.248586
0.249085
0.249626
0.250103
0.250403
0.250684
0.250712
0.250424
0.250173
0.249616
0.249133
0.248699
0.248302
0.247801
0.24744
0.248807
0.251489
0.251767
0.251554
0.252041
0.236763
0.178057
0.209604
0.206837
0.217684
0.228143
0.229019
0.227463
0.225775
0.224314
0.223585
0.224459
0.228353
0.232305
0.23345
0.234602
0.213432
0.22813
0.234005
0.234308
0.229102
0.21899
0.209993
0.206799
0.206123
0.206298
0.209446
0.217191
0.229282
0.238255
0.240965
0.236854
0.227279
0.220361
0.220415
0.222319
0.222986
0.222572
0.221533
0.219503
0.216981
0.213952
0.213019
0.213878
0.214594
0.208421
0.236124
0.232916
0.240765
0.241819
0.239107
0.23722
0.235731
0.235796
0.239298
0.245963
0.249037
0.248621
0.245628
0.242062
0.239021
0.237478
0.23714
0.237349
0.23789
0.23899
0.240128
0.240569
0.240847
0.240714
0.24047
0.239859
0.23867
0.236781
0.237574
0.244461
0.248546
0.248193
0.248231
0.247828
0.247423
0.247273
0.247177
0.247263
0.247485
0.247598
0.247311
0.246568
0.245585
0.243969
0.242929
0.241515
0.240245
0.239362
0.239003
0.239275
0.239859
0.240991
0.243037
0.245361
0.246086
0.246591
0.246023
0.245952
0.248661
0.249811
0.250215
0.248014
0.245549
0.244557
0.24462
0.244739
0.244688
0.24518
0.244968
0.245309
0.245098
0.245182
0.245255
0.245772
0.246666
0.247641
0.24867
0.249602
0.2501
0.250376
0.250273
0.250038
0.249386
0.247946
0.247508
0.248302
0.249943
0.251487
0.251808
0.251692
0.251631
0.25171
0.251986
0.251807
0.251804
0.251726
0.25173
0.251754
0.251754
0.251718
0.251606
0.25146
0.251303
0.251134
0.251036
0.250952
0.25086
0.25085
0.250799
0.250775
0.2508
0.250887
0.25099
0.251164
0.251282
0.251415
0.251612
0.25128
0.251241
0.251338
0.25185
0.251947
0.251413
0.250196
0.250867
0.252041
0.251973
0.252292
0.252193
0.25187
0.251923
0.251894
0.251986
0.251938
0.251886
0.251748
0.251794
0.251827
0.252035
0.25201
0.251937
0.251938
0.25189
0.251538
0.251505
0.251883
0.251321
0.250662
0.249145
0.249123
0.251477
0.251469
0.251542
0.251607
0.251655
0.251636
0.25163
0.251629
0.251481
0.251462
0.251424
0.251377
0.251317
0.251216
0.251192
0.251174
0.25123
0.251283
0.251426
0.251577
0.251621
0.251625
0.251616
0.25156
0.251546
0.251529
0.251551
0.251545
0.251465
0.251387
0.251532
0.251343
0.251404
0.251377
0.251629
0.250212
0.248232
0.246707
0.242445
0.240793
0.238779
0.238036
0.237568
0.237966
0.239342
0.241953
0.244313
0.247189
0.248432
0.250197
0.251106
0.251269
0.251518
0.25163
0.251649
0.251406
0.251161
0.251021
0.251168
0.251414
0.251571
0.251379
0.251616
0.25187
0.251717
0.25154
0.250542
0.249321
0.248241
0.246687
0.245592
0.245263
0.245429
0.24541
0.245504
0.245435
0.245882
0.246932
0.248543
0.249365
0.250453
0.251938
0.251965
0.252007
0.252105
0.251919
0.251892
0.251682
0.251429
0.251505
0.251612
0.25166
0.251915
0.252058
0.252161
0.252409
0.252253
0.252137
0.249898
0.244129
0.237034
0.229167
0.226047
0.224322
0.224226
0.225965
0.229893
0.234969
0.242143
0.248363
0.250717
0.251948
0.252106
0.251889
0.251734
0.251319
0.251012
0.251185
0.251348
0.251406
0.251608
0.251534
0.251851
0.252062
0.252322
0.251938
0.251661
0.251359
0.251257
0.25131
0.251279
0.251153
0.251196
0.251269
0.251322
0.251465
0.251424
0.251421
0.251389
0.251731
0.252303
0.251966
0.251862
0.252129
0.25218
0.250404
0.251974
0.252228
0.251788
0.251873
0.250154
0.251849
0.25003
0.248704
0.247971
0.247732
0.247863
0.248242
0.248766
0.249345
0.249868
0.25038
0.250741
0.250762
0.250771
0.250677
0.250446
0.24984
0.249373
0.248822
0.248499
0.248034
0.247511
0.247693
0.250916
0.252078
0.252202
0.250577
0.206454
0.17192
0.206839
0.204986
0.221753
0.230583
0.230259
0.229793
0.229626
0.228577
0.227812
0.228033
0.230443
0.232479
0.233441
0.234499
0.233153
0.22387
0.214931
0.224482
0.23491
0.236103
0.231491
0.223162
0.213171
0.207082
0.204918
0.204028
0.205264
0.212009
0.225864
0.238713
0.243524
0.240829
0.231288
0.221343
0.219726
0.221035
0.221486
0.221008
0.219864
0.218259
0.215735
0.213852
0.213429
0.214225
0.212923
0.208108
0.21311
0.225296
0.234916
0.234641
0.241093
0.244387
0.244214
0.243695
0.24216
0.239228
0.238916
0.244983
0.249275
0.249588
0.247214
0.244533
0.240848
0.238301
0.237261
0.237198
0.238235
0.239275
0.240564
0.241112
0.241308
0.240991
0.240459
0.239566
0.238232
0.236563
0.238384
0.245106
0.247034
0.248528
0.248645
0.248251
0.248139
0.247608
0.24746
0.247789
0.247677
0.247298
0.247361
0.247665
0.247598
0.246988
0.24629
0.244984
0.243844
0.242574
0.240996
0.240017
0.239612
0.239803
0.240485
0.241961
0.244297
0.245881
0.246326
0.246211
0.246262
0.24911
0.250495
0.250641
0.250729
0.250259
0.249921
0.247722
0.245698
0.244567
0.244451
0.244822
0.244675
0.244736
0.245097
0.24461
0.244983
0.244788
0.244923
0.245194
0.245835
0.246655
0.247799
0.248609
0.249416
0.249942
0.24998
0.249615
0.249077
0.24802
0.24769
0.249079
0.251288
0.251822
0.251682
0.251678
0.251666
0.251687
0.251687
0.251741
0.251775
0.251836
0.251791
0.251755
0.251735
0.251754
0.251752
0.251718
0.251618
0.251489
0.25131
0.251175
0.251125
0.250975
0.250938
0.250892
0.250839
0.250833
0.250827
0.250878
0.250997
0.251177
0.251307
0.251409
0.251349
0.251218
0.25127
0.251446
0.251866
0.251869
0.251909
0.251905
0.251487
0.251511
0.252352
0.252021
0.252035
0.252018
0.251973
0.251874
0.251942
0.251911
0.251955
0.251984
0.251901
0.251829
0.251834
0.251855
0.251994
0.252018
0.251905
0.251957
0.251966
0.251606
0.251574
0.251777
0.251166
0.250325
0.251693
0.251513
0.251471
0.251519
0.251475
0.251533
0.251593
0.251644
0.251679
0.251656
0.251597
0.25163
0.251515
0.251492
0.25147
0.251406
0.251321
0.251228
0.251215
0.251229
0.251277
0.251336
0.251467
0.251593
0.251628
0.251618
0.251629
0.251569
0.251542
0.251527
0.251522
0.251433
0.251366
0.251416
0.25166
0.251503
0.251489
0.251363
0.251424
0.251374
0.251256
0.250196
0.248289
0.246421
0.242498
0.240206
0.238365
0.237223
0.236781
0.237443
0.238811
0.241503
0.243974
0.247032
0.248372
0.25022
0.251127
0.251292
0.251506
0.251654
0.251577
0.25121
0.25089
0.251053
0.251217
0.251313
0.251437
0.251499
0.251509
0.251496
0.251587
0.251856
0.251698
0.251546
0.250544
0.249281
0.24817
0.246177
0.245387