/*--------------------------------*- C++ -*----------------------------------*\
| =========                 |                                                 |
| \\      /  F ield         | OpenFOAM: The Open Source CFD Toolbox           |
|  \\    /   O peration     | Version:  2.1.1                                 |
|   \\  /    A nd           | Web:      www.OpenFOAM.org                      |
|    \\/     M anipulation  |                                                 |
\*---------------------------------------------------------------------------*/
FoamFile
{
    version     2.0;
    format      ascii;
    class       volScalarField;
    location    "0.006000000";
    object      H2O2;
}
// * * * * * * * * * * * * * * * * * * * * * * * * * * * * * * * * * * * * * //

dimensions      [0 0 0 0 0 0 0];

internalField   nonuniform List<scalar> 
12384
(
1.54372e-06
1.56484e-06
1.58404e-06
1.57417e-06
1.55665e-06
1.53484e-06
1.51934e-06
1.51347e-06
1.51481e-06
1.51776e-06
1.52361e-06
1.5195e-06
1.35923e-06
1.33587e-06
1.1561e-06
1.21358e-06
1.26692e-06
1.29759e-06
1.31221e-06
1.34282e-06
1.37302e-06
1.38748e-06
1.40244e-06
1.40321e-06
1.39404e-06
1.39243e-06
1.35609e-06
1.38295e-06
1.32874e-06
1.3439e-06
1.32539e-06
1.28853e-06
1.28725e-06
1.28347e-06
1.2489e-06
1.25331e-06
1.24131e-06
1.24176e-06
1.23578e-06
1.24119e-06
1.227e-06
1.11674e-06
9.93683e-07
9.88759e-07
1.05218e-06
1.20452e-06
1.21457e-06
1.20039e-06
1.20101e-06
1.18581e-06
1.09609e-06
1.06656e-06
1.04026e-06
1.01729e-06
9.87055e-07
9.66756e-07
9.42573e-07
9.17008e-07
9.10987e-07
8.96729e-07
8.74835e-07
8.86915e-07
8.82387e-07
8.72871e-07
8.93673e-07
8.83754e-07
8.96436e-07
9.03031e-07
9.20629e-07
9.40248e-07
1.01852e-06
9.50375e-07
8.44997e-07
7.38698e-07
4.2522e-07
4.59097e-07
4.4759e-07
4.37371e-07
4.30971e-07
4.32668e-07
4.31628e-07
4.38476e-07
4.40308e-07
4.41325e-07
4.40055e-07
4.34436e-07
4.22208e-07
4.12642e-07
4.00814e-07
3.99852e-07
3.95732e-07
4.16087e-07
3.94019e-07
4.5777e-07
4.41481e-07
5.08427e-07
5.11874e-07
5.56655e-07
5.86725e-07
6.36263e-07
6.01491e-07
5.66128e-07
5.54842e-07
5.57015e-07
1.48378e-07
1.56087e-07
1.52024e-07
1.47575e-07
1.34911e-07
1.29862e-07
1.12302e-07
1.17286e-07
9.9795e-08
1.04876e-07
9.67543e-08
1.01683e-07
9.96189e-08
1.04548e-07
1.07324e-07
1.18311e-07
1.24456e-07
1.97278e-07
2.21073e-07
2.51864e-07
3.26205e-07
4.33474e-07
4.53305e-07
3.99986e-07
3.56638e-07
3.37762e-07
3.23662e-07
3.31116e-07
3.45647e-07
3.56054e-07
5.57814e-08
3.83199e-08
3.45878e-08
3.81968e-08
4.44779e-08
5.08596e-08
5.84163e-08
6.32299e-08
6.57045e-08
6.60318e-08
6.5232e-08
6.39976e-08
6.27028e-08
6.17358e-08
6.08119e-08
6.07884e-08
6.18019e-08
6.07244e-08
6.47218e-08
6.31464e-08
6.9042e-08
6.86661e-08
7.45829e-08
7.47133e-08
8.05115e-08
8.16758e-08
8.12288e-08
7.99852e-08
1.37336e-07
1.41988e-07
2.4608e-07
2.61334e-07
3.08022e-07
2.98414e-07
2.34791e-07
1.15565e-07
1.07359e-07
1.05087e-07
9.96045e-08
9.90416e-08
9.40847e-08
9.56311e-08
8.72181e-08
8.99389e-08
8.38327e-08
8.55334e-08
8.45095e-08
8.65011e-08
8.44616e-08
9.1311e-08
9.16257e-08
9.71923e-08
9.80286e-08
1.10576e-07
5.26098e-07
7.69542e-07
7.82785e-07
7.8522e-07
7.84389e-07
7.81036e-07
3.35535e-07
1.34122e-07
6.85602e-08
4.98887e-08
4.77347e-08
4.80957e-08
4.8778e-08
4.88152e-08
4.88697e-08
4.63362e-08
4.48345e-08
4.60035e-08
4.43026e-08
4.60267e-08
4.39261e-08
4.87678e-08
4.80219e-08
4.93839e-08
5.34467e-08
5.30552e-08
5.09081e-08
4.93754e-08
5.90711e-08
1.26348e-07
1.45577e-07
1.40279e-07
1.38512e-07
1.3682e-07
1.3913e-07
1.40798e-07
1.27771e-07
1.15923e-07
1.02791e-07
9.73551e-08
9.81587e-08
9.91243e-08
9.67523e-08
9.87566e-08
9.46026e-08
9.98939e-08
9.2108e-08
9.43758e-08
9.60725e-08
1.00547e-07
9.86432e-08
1.08596e-07
1.14017e-07
1.14318e-07
1.19892e-07
1.14233e-07
4.39551e-08
9.82096e-09
8.92864e-09
1.09188e-08
1.34934e-08
1.5482e-08
1.82323e-08
1.46221e-08
1.20914e-08
1.01559e-08
3.2043e-07
9.98002e-08
5.41132e-08
5.21024e-08
5.32516e-08
5.42052e-08
5.41104e-08
5.2951e-08
5.21541e-08
4.82521e-08
6.04884e-08
4.89487e-08
5.70768e-08
5.29133e-08
5.36098e-08
5.69896e-08
6.01382e-08
6.098e-08
6.6344e-08
6.80302e-08
6.82149e-08
6.328e-08
3.32964e-08
2.64228e-08
2.51744e-08
2.42138e-08
2.40304e-08
2.44646e-08
2.44109e-08
2.29726e-08
2.3947e-08
2.04315e-08
2.06189e-08
2.0433e-08
2.15721e-08
2.22821e-08
2.29773e-08
2.33694e-08
2.36761e-08
2.37501e-08
2.37333e-08
2.4198e-08
2.52796e-08
2.61989e-08
2.60572e-08
2.87514e-08
2.83864e-08
3.25403e-08
3.57799e-08
3.71571e-08
3.89218e-08
3.41191e-08
2.00282e-08
1.83559e-08
1.82391e-08
1.82489e-08
1.7838e-08
1.77019e-08
1.79581e-08
1.84237e-08
5.33451e-08
5.94456e-08
5.25054e-08
3.25271e-08
1.93894e-08
1.67827e-08
1.89715e-08
2.5402e-08
3.22169e-08
3.27351e-08
3.52342e-08
4.43952e-08
4.48178e-08
4.55413e-08
4.48248e-08
4.42834e-08
4.43819e-08
4.21524e-08
4.10454e-08
3.30537e-08
3.24401e-08
3.0822e-08
2.96058e-08
2.84973e-08
2.69055e-08
2.53981e-08
2.34038e-08
1.79354e-08
1.50432e-08
3.27078e-08
6.9452e-07
6.74746e-07
7.77159e-07
6.32126e-07
4.16785e-07
3.26193e-07
6.82094e-07
5.57944e-09
1.62862e-09
1.45184e-09
1.42635e-09
1.4247e-09
1.41132e-09
1.45147e-09
1.42326e-09
1.5067e-09
1.50646e-09
1.57461e-09
1.60746e-09
1.82926e-09
1.92127e-09
1.92377e-09
1.62435e-09
1.47695e-09
1.42774e-09
1.42102e-09
1.43551e-09
1.6131e-09
3.1127e-09
2.87498e-07
1.74077e-06
1.73486e-06
1.65147e-06
1.49967e-06
1.35922e-06
1.3177e-06
1.2927e-06
1.29597e-06
1.30897e-06
1.34876e-06
1.37455e-06
1.50696e-06
1.38055e-06
1.33829e-06
1.1617e-06
1.22874e-06
1.29769e-06
1.33137e-06
1.37123e-06
1.4191e-06
1.45256e-06
1.45182e-06
1.44311e-06
1.43427e-06
1.42589e-06
1.42343e-06
1.41771e-06
1.41323e-06
1.39863e-06
1.41404e-06
1.3874e-06
1.40539e-06
1.37827e-06
1.38968e-06
1.34554e-06
1.31989e-06
1.30431e-06
1.2702e-06
1.24957e-06
1.24072e-06
1.24075e-06
1.19139e-06
1.07206e-06
9.94102e-07
1.05734e-06
1.21908e-06
1.19401e-06
1.17344e-06
1.08072e-06
1.03821e-06
9.75588e-07
9.27865e-07
8.80805e-07
7.41825e-07
6.85513e-07
6.29385e-07
5.93762e-07
5.77763e-07
5.58283e-07
5.7605e-07
5.97224e-07
5.87922e-07
6.23125e-07
6.35586e-07
7.55022e-07
7.80308e-07
8.10644e-07
8.52613e-07
8.77741e-07
9.15486e-07
9.95336e-07
9.88447e-07
8.69473e-07
6.11294e-07
4.26915e-07
4.49788e-07
4.36409e-07
4.18336e-07
4.12342e-07
4.18012e-07
4.24566e-07
4.31747e-07
4.39498e-07
4.44651e-07
4.47201e-07
4.46827e-07
4.43273e-07
4.37252e-07
4.3434e-07
4.35283e-07
4.31156e-07
4.33836e-07
4.45584e-07
4.60236e-07
4.73596e-07
4.95143e-07
5.06393e-07
5.34895e-07
5.70337e-07
6.24952e-07
6.19628e-07
5.29886e-07
4.95748e-07
5.05703e-07
1.59858e-07
1.40547e-07
1.3209e-07
1.29539e-07
1.25658e-07
1.24208e-07
1.09702e-07
1.0588e-07
9.4555e-08
8.51861e-08
8.44854e-08
7.80397e-08
8.45101e-08
8.76509e-08
9.414e-08
1.05291e-07
1.14308e-07
1.30022e-07
2.04269e-07
2.43311e-07
2.94179e-07
4.03317e-07
4.34441e-07
3.36869e-07
2.57172e-07
2.20823e-07
2.16395e-07
2.34872e-07
2.68783e-07
2.99343e-07
5.33159e-08
3.66134e-08
3.82468e-08
4.70021e-08
5.75115e-08
6.60414e-08
8.61174e-08
8.50599e-08
7.40253e-08
6.01032e-08
5.72652e-08
5.56203e-08
5.44838e-08
5.40592e-08
5.36434e-08
5.38044e-08
5.39392e-08
5.55431e-08
5.70894e-08
5.91897e-08
6.17294e-08
6.51896e-08
6.81262e-08
7.18899e-08
7.65493e-08
8.03131e-08
8.29725e-08
8.03732e-08
8.30836e-08
8.34927e-08
2.43808e-07
2.75209e-07
2.86057e-07
1.11285e-07
9.33641e-08
9.16013e-08
1.00201e-07
1.09026e-07
1.99249e-07
2.26383e-07
2.33518e-07
2.36574e-07
2.37241e-07
2.36989e-07
2.33579e-07
2.29098e-07
2.25837e-07
2.19899e-07
2.12257e-07
1.98319e-07
1.85441e-07
1.65132e-07
9.98565e-08
1.06262e-07
2.57135e-07
6.76913e-07
7.86919e-07
7.98692e-07
8.01653e-07
8.09848e-07
9.68087e-08
4.18355e-08
3.54907e-08
4.46952e-08
5.35885e-08
5.67948e-08
5.68816e-08
5.40448e-08
5.02927e-08
4.821e-08
4.64595e-08
4.33573e-08
4.41749e-08
4.36297e-08
4.6408e-08
4.57083e-08
4.9635e-08
5.13351e-08
5.22257e-08
5.30694e-08
5.36677e-08
5.04718e-08
5.19506e-08
7.18675e-08
1.39128e-07
1.33846e-07
1.24183e-07
1.17576e-07
1.17056e-07
1.26808e-07
1.08149e-07
6.97262e-08
8.26864e-08
1.01233e-07
1.14522e-07
1.23928e-07
1.28749e-07
1.30544e-07
1.30666e-07
1.29351e-07
1.30633e-07
1.30735e-07
1.27737e-07
1.29487e-07
1.30392e-07
1.28273e-07
1.24965e-07
1.22682e-07
1.21481e-07
1.22758e-07
9.52878e-08
2.65016e-08
1.08151e-08
2.32428e-08
3.84509e-08
4.34155e-08
4.03949e-08
3.71688e-08
3.10909e-08
2.32293e-08
3.18991e-07
8.03229e-08
4.96795e-08
5.30991e-08
5.58563e-08
5.75216e-08
7.11324e-08
7.8077e-08
8.24043e-08
8.36396e-08
8.38025e-08
7.99634e-08
8.56672e-08
8.10783e-08
8.16847e-08
8.20137e-08
8.26401e-08
8.02112e-08
7.78743e-08
7.53253e-08
6.98863e-08
6.89237e-08
4.32473e-08
2.90652e-08
2.60745e-08
2.5985e-08
2.65399e-08
2.69358e-08
2.60677e-08
2.34973e-08
2.45086e-08
1.97878e-08
1.94085e-08
2.10482e-08
2.17978e-08
2.27711e-08
2.3638e-08
2.48261e-08
2.66367e-08
2.80988e-08
2.94017e-08
3.06172e-08
3.17251e-08
3.9984e-08
4.17647e-08
4.084e-08
3.29762e-08
3.56611e-08
3.58122e-08
3.76642e-08
3.85341e-08
3.84384e-08
2.88845e-08
1.99849e-08
1.61001e-08
1.47132e-08
1.34717e-08
1.30526e-08
1.3899e-08
1.4782e-08
2.63064e-08
2.77813e-08
2.91016e-08
2.25444e-08
1.80706e-08
1.95978e-08
3.1347e-08
3.83501e-08
5.95823e-08
6.20757e-08
6.00158e-08
5.41346e-08
4.71512e-08
4.26821e-08
3.46856e-08
4.07195e-08
4.13038e-08
4.40003e-08
4.79123e-08
4.12224e-08
3.18412e-08
3.0315e-08
2.92624e-08
2.89016e-08
2.88566e-08
2.76376e-08
2.59186e-08
2.06426e-08
1.54817e-08
2.76781e-08
7.46626e-09
7.33254e-09
1.11104e-08
7.48191e-08
6.8657e-07
5.7102e-07
2.85371e-08
2.29231e-09
1.54784e-09
1.52211e-09
1.61839e-09
1.70178e-09
1.9151e-09
2.02447e-09
2.076e-09
2.06269e-09
2.1605e-09
2.12474e-09
2.35736e-09
2.58042e-09
3.60376e-09
4.6647e-09
5.84408e-09
3.48263e-09
2.20288e-09
1.50353e-09
1.49531e-09
1.76685e-09
3.61813e-09
3.45668e-07
1.7334e-06
1.65521e-06
1.49394e-06
1.40048e-06
1.35778e-06
1.32153e-06
1.29629e-06
1.19501e-06
1.22623e-06
1.28012e-06
1.32909e-06
1.37545e-06
1.37829e-06
1.33719e-06
1.1704e-06
1.25652e-06
1.30697e-06
1.36263e-06
1.42899e-06
1.47815e-06
1.4796e-06
1.44576e-06
1.43123e-06
1.42554e-06
1.41133e-06
1.40592e-06
1.39686e-06
1.38977e-06
1.37655e-06
1.40069e-06
1.38842e-06
1.43317e-06
1.44376e-06
1.45271e-06
1.45357e-06
1.44479e-06
1.38247e-06
1.33857e-06
1.29194e-06
1.26348e-06
1.24595e-06
1.23102e-06
1.15538e-06
1.02726e-06
1.06071e-06
1.18923e-06
1.16492e-06
1.07454e-06
1.05032e-06
1.00651e-06
9.54161e-07
9.12239e-07
8.62805e-07
6.61345e-07
5.62961e-07
5.03802e-07
4.77964e-07
4.55938e-07
4.75936e-07
4.97636e-07
5.23372e-07
5.67258e-07
6.02327e-07
6.18086e-07
7.6483e-07
7.65889e-07
8.03368e-07
8.26863e-07
8.55944e-07
8.83015e-07
9.23652e-07
9.89569e-07
8.96209e-07
7.17691e-07
4.19542e-07
4.41537e-07
4.19562e-07
4.09154e-07
4.10356e-07
4.16718e-07
4.30746e-07
4.43422e-07
4.55473e-07
4.64865e-07
4.68103e-07
4.77047e-07
4.78617e-07
4.87464e-07
4.90324e-07
4.89847e-07
4.93554e-07
5.02014e-07
4.99238e-07
5.28358e-07
5.17255e-07
5.26629e-07
5.17248e-07
5.33701e-07
5.46365e-07
5.95244e-07
6.26805e-07
5.83716e-07
5.0012e-07
5.00398e-07
1.01824e-07
1.44521e-07
1.81283e-07
2.04582e-07
2.18026e-07
2.10966e-07
2.85048e-07
1.75515e-07
1.69134e-07
1.30969e-07
1.26257e-07
9.87261e-08
9.66136e-08
8.98867e-08
8.96213e-08
9.69734e-08
1.05346e-07
1.19564e-07
1.3393e-07
2.27944e-07
2.70037e-07
3.45517e-07
4.25608e-07
3.2735e-07
2.15879e-07
1.33007e-07
1.90528e-07
2.04498e-07
2.33506e-07
2.71423e-07
4.99843e-08
3.8875e-08
4.42431e-08
5.71255e-08
6.60885e-08
8.3659e-08
7.91872e-08
5.64868e-08
5.22026e-08
5.05427e-08
5.08549e-08
5.21246e-08
5.36089e-08
5.43717e-08
5.49858e-08
5.57628e-08
5.70672e-08
5.74572e-08
5.85105e-08
5.89436e-08
6.04516e-08
6.20204e-08
6.5338e-08
6.74505e-08
7.29063e-08
7.66695e-08
8.22051e-08
8.22431e-08
7.76628e-08
7.43675e-08
2.46071e-07
2.58387e-07
1.03116e-07
8.18864e-08
9.47421e-08
1.83539e-07
2.72612e-07
3.13875e-07
3.15954e-07
3.1161e-07
2.90192e-07
2.69301e-07
2.53138e-07
2.33185e-07
2.17806e-07
2.13136e-07
2.09182e-07
2.09457e-07
2.18868e-07
2.19082e-07
2.24104e-07
2.08591e-07
1.86987e-07
1.63492e-07
1.82798e-07
3.14945e-07
6.79516e-07
7.62266e-07
7.89903e-07
7.94055e-07
4.43601e-08
3.01753e-08
4.98435e-08
6.05113e-08
6.08922e-08
5.73735e-08
5.20811e-08
4.65944e-08
4.2279e-08
3.9874e-08
3.54052e-08
3.40772e-08
3.30894e-08
3.49604e-08
3.65323e-08
3.97995e-08
4.15247e-08
4.62818e-08
4.99476e-08
5.24167e-08
5.3626e-08
5.19904e-08
4.90364e-08
5.7125e-08
9.91817e-08
1.31895e-07
1.22851e-07
1.05715e-07
9.55768e-08
1.10264e-07
6.39224e-08
7.01296e-08
1.10134e-07
1.31018e-07
1.4147e-07
2.22506e-07
2.39173e-07
2.45623e-07
2.53379e-07
2.68362e-07
2.70555e-07
2.75432e-07
2.8341e-07
2.77146e-07
2.6078e-07
2.42196e-07
1.53014e-07
1.44524e-07
1.34753e-07
1.28765e-07
1.23093e-07
6.51517e-08
1.78906e-08
2.42256e-08
4.51068e-08
4.48533e-08
3.23494e-08
3.89543e-08
4.49452e-08
3.88028e-08
2.76316e-07
5.18973e-08
5.54572e-08
5.82345e-08
5.86372e-08
7.57061e-08
8.70388e-08
9.49869e-08
1.03936e-07
1.05296e-07
1.72741e-07
1.82777e-07
1.96019e-07
1.91085e-07
1.9683e-07
1.88956e-07
1.76021e-07
1.50426e-07
9.49721e-08
8.65891e-08
7.84997e-08
7.43212e-08
5.99242e-08
3.77001e-08
2.77656e-08
2.67167e-08
2.85882e-08
3.0314e-08
3.08766e-08
2.72224e-08
2.41047e-08
1.93995e-08
2.00947e-08
2.03442e-08
2.25338e-08
2.36983e-08
2.65078e-08
2.91493e-08
3.14266e-08
4.32869e-08
5.05539e-08
5.66185e-08
6.18636e-08
6.52246e-08
6.63746e-08
6.59913e-08
6.42376e-08
6.10611e-08
5.42824e-08
4.93794e-08
4.05325e-08
3.93333e-08
3.73435e-08
2.51466e-08
1.66363e-08
1.27452e-08
1.07116e-08
1.09633e-08
1.26945e-08
1.26737e-08
2.38654e-08
2.25083e-08
1.9389e-08
1.85655e-08
2.0357e-08
3.28615e-08
5.35892e-08
6.22818e-08
5.90354e-08
3.92971e-08
3.53551e-08
3.10046e-08
2.74111e-08
2.58425e-08
2.45449e-08
2.51297e-08
2.70129e-08
2.9509e-08
3.20765e-08
3.27604e-08
2.91146e-08
2.59649e-08
2.64395e-08
2.89763e-08
3.08566e-08
3.13793e-08
2.89707e-08
2.39569e-08
1.5975e-08
2.44324e-08
5.4888e-09
5.36939e-09
9.59079e-09
1.72134e-07
7.73826e-07
7.04828e-08
3.64044e-09
1.77052e-09
1.6185e-09
1.92331e-09
2.29674e-09
2.69682e-09
2.82052e-09
2.95378e-09
3.04745e-09
2.96466e-09
2.81916e-09
2.69665e-09
2.55505e-09
2.4236e-09
3.42703e-09
6.58563e-09
1.25199e-08
1.3044e-08
7.33585e-09
2.73858e-09
2.26232e-09
2.69552e-09
6.41477e-09
7.0189e-07
1.72539e-06
1.63806e-06
1.56492e-06
1.49736e-06
1.45089e-06
1.41376e-06
1.40064e-06
1.33252e-06
1.31855e-06
1.34614e-06
1.31673e-06
1.34271e-06
1.36214e-06
1.3375e-06
1.18046e-06
1.27158e-06
1.32706e-06
1.39404e-06
1.46271e-06
1.49124e-06
1.45036e-06
1.41093e-06
1.40115e-06
1.39267e-06
1.3725e-06
1.33644e-06
1.30219e-06
1.27153e-06
1.28253e-06
1.29683e-06
1.34586e-06
1.41504e-06
1.43466e-06
1.49615e-06
1.49838e-06
1.49161e-06
1.47517e-06
1.4115e-06
1.3393e-06
1.28875e-06
1.26248e-06
1.24494e-06
1.19434e-06
1.05048e-06
1.05548e-06
1.157e-06
1.12592e-06
1.0536e-06
1.04656e-06
1.03135e-06
1.0035e-06
9.7635e-07
8.49439e-07
5.86224e-07
4.74584e-07
4.32665e-07
4.23037e-07
4.60752e-07
5.04322e-07
5.42127e-07
6.0324e-07
7.33705e-07
7.64886e-07
8.11934e-07
8.17674e-07
8.26798e-07
8.38821e-07
8.457e-07
8.46405e-07
8.65116e-07
8.96865e-07
9.83051e-07
9.58222e-07
7.41627e-07
4.18938e-07
4.34412e-07
4.12182e-07
4.03709e-07
4.1521e-07
4.26755e-07
4.41608e-07
4.54233e-07
4.65475e-07
4.72132e-07
4.80798e-07
4.96911e-07
5.12733e-07
6.10254e-07
6.17524e-07
6.31936e-07
6.48272e-07
6.52707e-07
6.70971e-07
6.60855e-07
6.73803e-07
6.60407e-07
5.55686e-07
5.45071e-07
5.48651e-07
5.75221e-07
6.16377e-07
6.10838e-07
5.33788e-07
5.07194e-07
1.67509e-07
2.30953e-07
4.26645e-07
4.99664e-07
5.38638e-07
5.3563e-07
5.19381e-07
4.779e-07
4.61915e-07
3.91273e-07
3.43332e-07
2.51619e-07
1.41851e-07
1.16962e-07
1.05468e-07
1.00604e-07
1.0567e-07
1.16346e-07
1.29985e-07
2.16051e-07
2.53733e-07
3.05976e-07
3.95124e-07
3.5713e-07
2.30499e-07
1.95457e-07
2.02874e-07
2.05568e-07
2.05669e-07
2.36521e-07
4.83363e-08
4.04519e-08
5.09961e-08
6.26123e-08
7.79424e-08
7.38331e-08
5.16925e-08
4.78077e-08
4.791e-08
5.1533e-08
5.51324e-08
5.74709e-08
5.87456e-08
5.93243e-08
6.06719e-08
6.13177e-08
6.1752e-08
6.32212e-08
6.40741e-08
6.55362e-08
6.47632e-08
6.5449e-08
6.5109e-08
6.65064e-08
7.03534e-08
8.84078e-08
7.975e-08
8.37235e-08
7.81478e-08
7.22109e-08
2.47483e-07
1.17333e-07
6.00795e-08
9.18864e-08
2.28714e-07
3.25563e-07
3.47235e-07
3.36149e-07
3.16938e-07
2.79805e-07
2.55626e-07
2.13442e-07
1.81668e-07
9.96709e-08
9.46459e-08
9.2265e-08
9.13266e-08
9.38153e-08
1.45388e-07
1.72255e-07
2.01353e-07
2.14927e-07
2.15495e-07
1.89291e-07
1.78031e-07
2.24542e-07
3.62772e-07
6.08462e-07
7.01103e-07
7.80566e-07
2.66953e-08
4.73455e-08
6.19095e-08
6.11588e-08
5.59095e-08
4.98338e-08
4.32494e-08
3.86288e-08
3.53023e-08
3.17159e-08
2.89711e-08
2.55867e-08
2.47636e-08
2.35378e-08
2.42913e-08
2.60019e-08
3.36375e-08
3.78507e-08
4.33651e-08
4.83229e-08
5.20733e-08
5.27743e-08
4.93817e-08
4.92828e-08
6.47758e-08
1.15007e-07
1.25851e-07
1.00206e-07
6.97572e-08
9.01733e-08
6.94671e-08
1.09476e-07
1.3079e-07
1.40199e-07
2.20304e-07
2.35898e-07
2.47689e-07
2.69961e-07
2.92173e-07
3.12958e-07
3.22619e-07
3.36344e-07
3.44438e-07
3.49603e-07
3.43025e-07
3.27464e-07
3.01747e-07
2.63537e-07
1.52583e-07
1.42071e-07
1.33085e-07
1.11822e-07
3.71414e-08
2.22448e-08
3.86697e-08
3.82628e-08
2.86764e-08
3.03833e-08
4.408e-08
4.40475e-08
1.38008e-07
5.03009e-08
5.94843e-08
5.98117e-08
7.40216e-08
8.73616e-08
1.0112e-07
1.15191e-07
2.03646e-07
2.33951e-07
2.61254e-07
2.78573e-07
2.81576e-07
2.89701e-07
2.87022e-07
2.74293e-07
2.55155e-07
2.29505e-07
1.93601e-07
1.00437e-07
8.94733e-08
7.85256e-08
7.21925e-08
4.48058e-08
3.30219e-08
2.68994e-08
2.7663e-08
3.18861e-08
3.46653e-08
2.94661e-08
2.17477e-08
2.09678e-08
1.97514e-08
2.04832e-08
2.32608e-08
2.69973e-08
3.01338e-08
4.1605e-08
5.28078e-08
6.43748e-08
7.64713e-08
8.59208e-08
1.57759e-07
1.737e-07
1.79648e-07
1.65025e-07
1.51542e-07
8.68759e-08
7.95905e-08
7.11276e-08
5.73881e-08
4.23867e-08
4.0048e-08
3.19569e-08
1.94329e-08
1.26534e-08
1.06538e-08
1.14438e-08
1.34336e-08
1.40005e-08
1.90484e-08
1.8718e-08
1.84035e-08
2.02643e-08
3.21045e-08
5.21204e-08
6.39782e-08
5.48682e-08
3.95188e-08
3.47934e-08
2.68189e-08
2.62786e-08
2.60931e-08
2.51744e-08
2.34441e-08
2.24868e-08
2.09214e-08
2.45992e-08
2.97841e-08
3.23066e-08
2.88644e-08
2.3901e-08
2.5968e-08
3.11363e-08
3.80412e-08
4.95663e-08
3.65798e-08
2.85561e-08
1.6537e-08
2.23946e-08
7.44401e-09
6.43336e-09
2.26654e-08
2.00942e-07
4.49904e-08
5.15608e-09
2.01647e-09
1.85447e-09
2.16318e-09
2.66253e-09
3.19838e-09
3.57421e-09
4.42403e-09
4.75287e-09
4.79972e-09
4.58979e-09
4.12455e-09
3.46707e-09
3.01259e-09
2.61314e-09
2.43384e-09
3.61833e-09
1.06159e-08
2.40831e-08
2.23736e-08
1.12295e-08
6.30761e-09
6.4048e-09
1.54663e-08
8.37145e-07
1.71172e-06
1.62579e-06
1.58113e-06
1.51929e-06
1.44158e-06
1.43886e-06
1.43996e-06
1.42781e-06
1.43468e-06
1.39156e-06
1.34489e-06
1.36794e-06
1.35935e-06
1.34301e-06
1.20989e-06
1.28286e-06
1.34442e-06
1.39273e-06
1.48437e-06
1.49006e-06
1.4166e-06
1.39111e-06
1.37038e-06
1.35043e-06
1.32195e-06
1.2593e-06
1.22225e-06
1.15373e-06
1.1738e-06
1.21847e-06
1.34029e-06
1.39235e-06
1.47483e-06
1.51576e-06
1.49258e-06
1.50976e-06
1.5079e-06
1.4665e-06
1.39041e-06
1.31502e-06
1.27556e-06
1.26324e-06
1.2101e-06
1.0743e-06
1.05665e-06
1.13978e-06
1.03739e-06
1.03028e-06
1.06749e-06
1.0764e-06
1.08401e-06
1.0233e-06
8.38333e-07
5.40478e-07
4.28525e-07
4.12938e-07
4.83546e-07
5.69089e-07
6.37725e-07
8.16666e-07
8.58786e-07
8.75627e-07
9.04209e-07
8.91418e-07
8.66443e-07
8.74344e-07
8.5186e-07
8.42506e-07
8.46322e-07
8.47089e-07
8.77748e-07
9.68521e-07
9.70786e-07
7.47475e-07
4.13738e-07
4.26229e-07
4.06936e-07
4.07959e-07
4.22307e-07
4.41631e-07
4.55876e-07
4.5909e-07
4.67088e-07
4.72691e-07
4.85973e-07
5.06976e-07
6.20144e-07
6.45883e-07
6.61249e-07
6.8241e-07
6.97636e-07
7.064e-07
7.12053e-07
7.16876e-07
7.26808e-07
6.99297e-07
6.94307e-07
5.61193e-07
5.58238e-07
5.63346e-07
6.0345e-07
6.1626e-07
5.67182e-07
5.11746e-07
2.30944e-07
4.47024e-07
5.51054e-07
6.02632e-07
6.25386e-07
6.04623e-07
6.0431e-07
5.69391e-07
5.51169e-07
5.14686e-07
4.84373e-07
4.1683e-07
3.45242e-07
2.60389e-07
1.39487e-07
1.24358e-07
1.19282e-07
1.20275e-07
1.33689e-07
2.10938e-07
2.45348e-07
2.88087e-07
3.6464e-07
3.9838e-07
2.89547e-07
2.48317e-07
2.45678e-07
2.28915e-07
1.31558e-07
1.37436e-07
4.67578e-08
4.32304e-08
5.69804e-08
7.29982e-08
7.28986e-08
5.15075e-08
4.4926e-08
4.46584e-08
5.0599e-08
5.53482e-08
5.79165e-08
5.92125e-08
6.01565e-08
6.23946e-08
6.38668e-08
6.63294e-08
6.90251e-08
6.8144e-08
7.01234e-08
6.93444e-08
7.13734e-08
7.07766e-08
6.77168e-08
6.83702e-08
7.11202e-08
7.25526e-08
9.59694e-08
8.2544e-08
7.96166e-08
7.00609e-08
2.14831e-07
8.87497e-08
7.36216e-08
1.99321e-07
3.28809e-07
3.54546e-07
3.38739e-07
2.97299e-07
2.68352e-07
2.32523e-07
2.02551e-07
1.02986e-07
9.70039e-08
8.36466e-08
8.0729e-08
7.38041e-08
7.47743e-08
7.73861e-08
8.5308e-08
9.0722e-08
1.57674e-07
1.88825e-07
2.17903e-07
2.08039e-07
1.85259e-07
1.92163e-07
2.77916e-07
3.75592e-07
5.554e-07
7.44079e-07
2.67233e-08
5.95626e-08
6.18613e-08
5.55514e-08
4.97793e-08
4.3502e-08
3.84369e-08
3.35857e-08
2.96368e-08
2.4499e-08
2.39487e-08
2.1272e-08
2.00046e-08
2.13336e-08
2.08265e-08
2.14017e-08
2.35605e-08
2.72213e-08
3.60306e-08
4.25047e-08
4.76033e-08
5.09393e-08
5.01191e-08
4.60872e-08
5.31716e-08
7.14501e-08
1.11938e-07
9.27348e-08
6.53155e-08
7.06462e-08
1.06145e-07
1.22559e-07
1.35094e-07
1.38509e-07
2.16588e-07
2.38583e-07
2.70261e-07
3.18977e-07
3.50947e-07
3.93506e-07
4.19297e-07
4.40485e-07
4.33442e-07
4.26249e-07
4.18006e-07
4.05509e-07
3.72307e-07
3.36331e-07
2.71829e-07
1.54057e-07
1.42573e-07
1.2839e-07
6.04626e-08
2.52162e-08
2.75141e-08
2.98932e-08
2.74965e-08
3.23785e-08
4.66257e-08
4.6588e-08
1.04908e-07
5.80029e-08
6.17314e-08
5.85886e-08
8.13696e-08
1.01722e-07
1.1643e-07
2.28142e-07
2.75504e-07
3.0152e-07
3.42235e-07
3.46899e-07
3.53951e-07
3.59789e-07
3.53502e-07
3.44376e-07
3.23525e-07
2.90899e-07
2.53215e-07
2.08222e-07
9.89845e-08
8.68424e-08
7.75578e-08
6.63645e-08
4.00583e-08
2.94867e-08
2.66074e-08
3.28728e-08
3.56028e-08
2.97822e-08
2.04372e-08
1.97154e-08
2.15345e-08
2.36929e-08
2.6343e-08
2.97581e-08
4.02388e-08
5.53884e-08
7.17325e-08
1.50546e-07
2.26713e-07
2.78496e-07
3.14233e-07
3.95313e-07
3.318e-07
3.17896e-07
2.84325e-07
2.41496e-07
1.96006e-07
9.28662e-08
7.80562e-08
5.76981e-08
4.27638e-08
3.79049e-08
2.18162e-08
1.30447e-08
1.09828e-08
1.37686e-08
1.5767e-08
1.57039e-08
1.85885e-08
1.84567e-08
1.95393e-08
2.93198e-08
3.94472e-08
5.82587e-08
5.74817e-08
4.15591e-08
3.55767e-08
3.07747e-08
3.02646e-08
3.13413e-08
3.16207e-08
2.96922e-08
2.7829e-08
2.49028e-08
2.26736e-08
2.04895e-08
2.60304e-08
3.10286e-08
2.9358e-08
2.21642e-08
2.4894e-08
3.36848e-08
6.47443e-08
8.45529e-08
6.96984e-08
3.41641e-08
1.8999e-08
2.10714e-08
1.17539e-08
8.27873e-09
2.59561e-08
2.52503e-08
6.68818e-09
2.26229e-09
1.82829e-09
2.10416e-09
2.6419e-09
3.32403e-09
4.80231e-09
5.84322e-09
6.71894e-09
8.57477e-09
8.36491e-09
7.29298e-09
6.49901e-09
5.75051e-09
4.14457e-09
3.26955e-09
2.67592e-09
2.39771e-09
4.19092e-09
1.96373e-08
3.14273e-08
2.1953e-08
1.36307e-08
1.37493e-08
4.18905e-08
7.58167e-07
1.70911e-06
1.64974e-06
1.54705e-06
1.50378e-06
1.48026e-06
1.52702e-06
1.55391e-06
1.55859e-06
1.54592e-06
1.54745e-06
1.48432e-06
1.38038e-06
1.35246e-06
1.32273e-06
1.21361e-06
1.28377e-06
1.31128e-06
1.38168e-06
1.45255e-06
1.47552e-06
1.3972e-06
1.36397e-06
1.35028e-06
1.31742e-06
1.2913e-06
1.237e-06
1.14876e-06
1.07522e-06
1.07372e-06
1.14716e-06
1.30226e-06
1.39479e-06
1.50603e-06
1.47292e-06
1.49811e-06
1.48624e-06
1.5129e-06
1.4855e-06
1.42461e-06
1.33874e-06
1.29187e-06
1.26953e-06
1.22814e-06
1.0853e-06
1.01493e-06
1.10761e-06
9.77549e-07
1.00268e-06
1.0631e-06
1.1618e-06
1.16684e-06
1.05447e-06
8.57832e-07
5.18446e-07
4.08973e-07
4.59747e-07
5.77804e-07
7.81606e-07
8.9811e-07
9.35183e-07
9.42202e-07
9.51932e-07
9.21137e-07
8.90273e-07
8.8155e-07
8.58982e-07
8.35969e-07
8.38039e-07
8.19896e-07
8.42302e-07
8.61716e-07
9.66379e-07
9.56959e-07
7.44488e-07
4.02669e-07
4.18108e-07
4.04322e-07
4.1498e-07
4.36537e-07
4.56432e-07
4.68789e-07
4.69134e-07
4.64488e-07
4.6501e-07
4.87969e-07
5.14911e-07
6.37092e-07
6.5047e-07
6.93583e-07
6.96846e-07
7.25463e-07
7.43772e-07
7.45842e-07
7.42389e-07
7.6209e-07
7.21569e-07
7.33286e-07
5.83705e-07
5.57613e-07
5.63223e-07
5.98435e-07
6.09299e-07
5.75337e-07
5.12018e-07
2.45179e-07
4.8542e-07
5.83393e-07
6.28039e-07
6.34481e-07
6.04906e-07
6.22747e-07
5.62133e-07
5.80554e-07
5.37731e-07
5.3812e-07
4.92133e-07
4.61655e-07
3.83527e-07
3.1082e-07
2.39705e-07
1.42092e-07
1.36848e-07
1.40604e-07
2.2004e-07
2.51138e-07
2.7927e-07
3.35181e-07
4.05812e-07
3.56732e-07
3.20488e-07
2.94705e-07
2.35832e-07
1.24707e-07
1.27264e-07
4.67118e-08
4.68966e-08
5.93444e-08
7.35413e-08
5.23335e-08
4.42104e-08
4.21054e-08
4.66527e-08
5.16762e-08
5.51219e-08
5.71897e-08
5.92098e-08
6.19697e-08
6.48557e-08
6.77806e-08
7.20994e-08
7.35928e-08
7.52504e-08
7.54541e-08
7.62974e-08
7.66289e-08
7.65455e-08
7.21588e-08
7.23322e-08
7.13911e-08
7.27512e-08
9.33187e-08
8.30847e-08
7.90731e-08
6.9329e-08
1.17642e-07
7.05369e-08
9.72769e-08
2.96321e-07
3.43025e-07
3.20809e-07
2.82507e-07
2.51337e-07
2.32671e-07
2.01917e-07
1.10098e-07
9.18128e-08
8.20598e-08
7.3353e-08
5.81724e-08
5.58411e-08
5.39752e-08
6.1191e-08
7.01566e-08
7.91256e-08
9.28939e-08
1.58796e-07
2.03521e-07
2.10324e-07
1.96599e-07
1.85041e-07
2.38985e-07
3.14681e-07
4.68234e-07
7.13447e-07
3.02924e-08
6.13406e-08
5.58291e-08
5.07073e-08
4.62137e-08
3.9686e-08
3.50972e-08
3.00046e-08
2.58966e-08
2.27975e-08
2.12705e-08
1.92338e-08
1.88135e-08
1.77239e-08
1.80981e-08
1.90823e-08
1.97492e-08
2.29967e-08
2.66268e-08
3.78266e-08
4.37441e-08
4.86717e-08
4.92259e-08
4.72254e-08
4.92124e-08
5.95517e-08
6.99522e-08
6.67457e-08
5.80512e-08
6.24678e-08
1.09523e-07
1.2617e-07
1.35635e-07
1.38443e-07
2.17423e-07
2.54131e-07
3.19085e-07
3.82309e-07
4.3745e-07
5.73659e-07
6.02759e-07
6.30255e-07
6.34537e-07
6.12669e-07
5.74607e-07
4.70058e-07
4.33851e-07
3.89609e-07
3.29812e-07
2.47187e-07
1.47285e-07
1.37411e-07
8.81336e-08
3.5562e-08
2.61442e-08
2.65454e-08
2.83955e-08
4.4579e-08
5.80724e-08
4.8967e-08
7.39358e-08
6.75149e-08
6.00145e-08
7.03493e-08
9.12627e-08
1.14168e-07
2.16086e-07
2.82391e-07
3.25236e-07
3.66658e-07
3.76994e-07
4.77233e-07
4.81233e-07
4.83565e-07
4.81291e-07
4.69424e-07
4.35427e-07
3.34482e-07
2.99262e-07
2.51258e-07
1.96781e-07
9.36594e-08
8.29843e-08
7.21518e-08
4.44406e-08
3.4291e-08
2.93047e-08
3.37766e-08
3.34929e-08
3.01666e-08
2.18337e-08
1.90496e-08
2.2175e-08
2.55906e-08
2.83373e-08
3.13012e-08
4.98777e-08
7.07719e-08
1.59952e-07
2.72834e-07
4.30476e-07
5.31222e-07
6.18716e-07
6.28741e-07
6.26775e-07
6.08731e-07
5.36415e-07
4.44665e-07
3.07313e-07
2.27992e-07
9.74179e-08
7.35051e-08
4.52606e-08
4.05899e-08
2.62744e-08
1.51298e-08
1.13833e-08
1.48406e-08
1.76308e-08
1.72709e-08
1.83396e-08
1.83397e-08
2.41116e-08
3.44353e-08
5.02835e-08
5.93711e-08
4.42958e-08
4.00203e-08
3.19231e-08
3.43489e-08
3.59459e-08
4.44148e-08
4.40671e-08
4.20718e-08
3.28992e-08
2.91502e-08
2.49177e-08
2.13835e-08
1.96817e-08
2.87423e-08
3.0357e-08
2.10753e-08
2.37003e-08
3.50106e-08
8.93189e-08
2.41191e-07
1.57704e-07
4.89031e-08
1.99125e-08
2.06142e-08
2.28346e-08
8.639e-09
1.02481e-08
6.99745e-09
3.02906e-09
1.95894e-09
1.98665e-09
2.41889e-09
3.21602e-09
4.98456e-09
6.64396e-09
9.98831e-09
1.23368e-08
1.54496e-08
1.74193e-08
1.46325e-08
1.09618e-08
7.76996e-09
5.92492e-09
4.26735e-09
3.19567e-09
2.48418e-09
2.46415e-09
7.80038e-09
3.21193e-08
2.4826e-08
2.12107e-08
2.4331e-08
2.29427e-07
6.20406e-07
1.68177e-06
1.56757e-06
1.50264e-06
1.466e-06
1.50376e-06
1.57989e-06
1.62364e-06
1.64643e-06
1.64444e-06
1.64985e-06
1.56393e-06
1.40727e-06
1.37207e-06
1.32895e-06
1.21134e-06
1.28692e-06
1.29201e-06
1.3631e-06
1.44982e-06
1.47542e-06
1.38798e-06
1.32191e-06
1.31335e-06
1.31061e-06
1.29884e-06
1.24353e-06
1.12304e-06
1.00904e-06
9.14504e-07
1.06581e-06
1.25377e-06
1.39528e-06
1.49204e-06
1.46333e-06
1.4906e-06
1.47566e-06
1.50714e-06
1.48114e-06
1.43541e-06
1.3485e-06
1.3028e-06
1.27425e-06
1.23794e-06
1.09041e-06
1.01671e-06
1.07246e-06
9.35043e-07
9.65903e-07
1.04036e-06
1.15556e-06
1.16981e-06
1.1364e-06
8.90754e-07
5.31335e-07
4.27821e-07
4.71906e-07
6.11438e-07
8.60091e-07
9.34865e-07
9.54506e-07
9.6815e-07
9.33691e-07
9.11192e-07
8.90204e-07
8.40404e-07
8.28758e-07
8.17434e-07
8.00662e-07
8.1102e-07
8.16666e-07
8.60768e-07
9.01195e-07
9.53531e-07
7.14993e-07
4.05575e-07
4.12852e-07
4.10838e-07
4.24014e-07
4.57142e-07
4.70471e-07
4.7639e-07
4.78163e-07
4.67448e-07
4.60287e-07
4.82758e-07
5.12399e-07
6.30532e-07
6.60334e-07
6.89044e-07
7.0547e-07
7.37302e-07
7.49425e-07
7.82005e-07
7.56643e-07
7.87134e-07
7.41967e-07
7.45278e-07
5.92322e-07
5.71567e-07
5.546e-07
5.93891e-07
6.01727e-07
5.60299e-07
4.85615e-07
2.38062e-07
4.80261e-07
5.92441e-07
6.35169e-07
6.23702e-07
6.09101e-07
6.12355e-07
5.52798e-07
5.82801e-07
5.29904e-07
5.5208e-07
5.26776e-07
5.09175e-07
4.68133e-07
4.04621e-07
3.32545e-07
2.7977e-07
2.51286e-07
2.35485e-07
2.43626e-07
2.61777e-07
2.87332e-07
3.32335e-07
4.13248e-07
4.03631e-07
3.81064e-07
3.20624e-07
2.11585e-07
1.08863e-07
1.10804e-07
4.45569e-08
5.16942e-08
7.336e-08
5.5827e-08
4.54721e-08
3.89163e-08
4.05461e-08
4.61574e-08
5.05908e-08
5.35428e-08
5.67134e-08
5.96126e-08
6.30768e-08
6.70384e-08
7.2064e-08
7.57157e-08
7.53954e-08
7.68818e-08
8.01277e-08
7.90409e-08
7.93998e-08
7.86345e-08
7.69666e-08
7.38179e-08
7.33829e-08
7.30165e-08
9.49135e-08
8.24674e-08
7.92797e-08
6.67965e-08
1.07041e-07
7.27589e-08
1.83353e-07
3.09358e-07
3.07116e-07
2.58433e-07
2.24651e-07
2.15986e-07
2.03152e-07
1.82685e-07
1.00114e-07
8.59371e-08
6.95146e-08
6.18051e-08
4.63407e-08
4.8219e-08
4.78282e-08
4.68191e-08
6.10862e-08
6.94885e-08
8.46482e-08
9.42652e-08
1.86128e-07
2.05508e-07
2.00997e-07
1.87378e-07
2.22919e-07
2.79459e-07
3.59443e-07
6.8497e-07
4.38733e-08
5.76159e-08
5.15292e-08
4.91225e-08
4.37513e-08
3.75418e-08
3.33761e-08
2.81433e-08
2.47794e-08
2.19549e-08