/*--------------------------------*- C++ -*----------------------------------*\
| =========                 |                                                 |
| \\      /  F ield         | OpenFOAM: The Open Source CFD Toolbox           |
|  \\    /   O peration     | Version:  2.1.1                                 |
|   \\  /    A nd           | Web:      www.OpenFOAM.org                      |
|    \\/     M anipulation  |                                                 |
\*---------------------------------------------------------------------------*/
FoamFile
{
    version     2.0;
    format      ascii;
    class       volScalarField;
    location    "0.006000000";
    object      O;
}
// * * * * * * * * * * * * * * * * * * * * * * * * * * * * * * * * * * * * * //

dimensions      [0 0 0 0 0 0 0];

internalField   nonuniform List<scalar> 
12384
(
0.0010546
0.00106464
0.00106257
0.00105103
0.00104154
0.00102939
0.00102265
0.00102339
0.00102768
0.00103074
0.00103248
0.00102932
0.000975813
0.000967752
0.000324413
0.000377765
0.000442668
0.000466764
0.000485282
0.000505839
0.000526682
0.000543764
0.000540911
0.000537834
0.000528422
0.000526426
0.000515166
0.000521716
0.000499551
0.000512548
0.000501033
0.000489551
0.00048787
0.000485884
0.000471855
0.000474086
0.000464882
0.000466073
0.000465556
0.000476105
0.000461721
0.000346188
0.000264248
0.000255564
0.000384787
0.000438081
0.000470246
0.000480054
0.000486773
0.000488645
0.000475881
0.000452785
0.000431148
0.000412155
0.00040314
0.000386099
0.00036667
0.000362588
0.000358613
0.000348747
0.000347258
0.000356244
0.000352572
0.000356968
0.000359019
0.000363167
0.000371914
0.000377443
0.000389641
0.0004037
0.000407571
0.000364155
0.000338586
0.000283661
0.000134553
0.000158627
0.000152432
0.000144376
0.000140919
0.000142642
0.000142896
0.000137618
0.00013966
0.000141023
0.000140732
0.0001375
0.000140189
0.000134014
0.000135675
0.000135214
0.000132398
0.000137384
0.000130766
0.000153492
0.000152533
0.000164903
0.000170822
0.000187953
0.000208031
0.000239569
0.000213841
0.000192628
0.000173019
0.000174942
4.76076e-05
4.92368e-05
4.80127e-05
4.60048e-05
4.29845e-05
3.48702e-05
3.28252e-05
3.59855e-05
3.20453e-05
3.48069e-05
3.22386e-05
3.48941e-05
3.55458e-05
3.59383e-05
3.74564e-05
4.36632e-05
4.73525e-05
3.78831e-05
5.29983e-05
6.28234e-05
0.000106601
0.000161847
0.000170851
0.000140546
0.000122867
0.000112746
0.000104662
0.000108859
0.000116806
0.000122335
1.74007e-05
7.9977e-06
7.19532e-06
8.97564e-06
1.25011e-05
1.46273e-05
1.92638e-05
2.21622e-05
2.35951e-05
2.37009e-05
2.30981e-05
2.22511e-05
2.14135e-05
2.08088e-05
2.17039e-05
2.1714e-05
2.09023e-05
2.16561e-05
2.27613e-05
2.17836e-05
2.37816e-05
2.35941e-05
2.74917e-05
2.76851e-05
2.96699e-05
2.85649e-05
2.8966e-05
2.75485e-05
3.51229e-05
3.8318e-05
4.58466e-05
5.54985e-05
7.89621e-05
7.55402e-05
4.21828e-05
3.80054e-05
3.17463e-05
3.08432e-05
3.05566e-05
2.99197e-05
2.93647e-05
2.98345e-05
2.71576e-05
2.83277e-05
2.68177e-05
2.58998e-05
2.73107e-05
2.64668e-05
2.71171e-05
2.91567e-05
2.95008e-05
3.08311e-05
3.16137e-05
3.60654e-05
0.000141512
0.000199791
0.000206435
0.000210035
0.000211204
0.000212466
9.91284e-05
4.58453e-05
7.41238e-06
1.50768e-05
1.25898e-05
1.2972e-05
1.33948e-05
1.34116e-05
1.50975e-05
1.36409e-05
1.27281e-05
1.34711e-05
1.38057e-05
1.34679e-05
1.22295e-05
1.5091e-05
1.30425e-05
1.39245e-05
1.45551e-05
1.44181e-05
1.32405e-05
1.22156e-05
1.77541e-05
3.29339e-05
4.52852e-05
4.03042e-05
3.85962e-05
3.72723e-05
3.89016e-05
4.01065e-05
4.39801e-05
3.66943e-05
2.65199e-05
2.41455e-05
2.48023e-05
2.52669e-05
2.34964e-05
2.44435e-05
2.61708e-05
2.92854e-05
2.44214e-05
2.58363e-05
2.68972e-05
2.58666e-05
2.47858e-05
2.68913e-05
3.11476e-05
3.1741e-05
2.97034e-05
2.46101e-05
1.00379e-05
1.91382e-06
1.53684e-06
2.04988e-06
3.26812e-06
4.20097e-06
2.96371e-06
3.78738e-06
2.60271e-06
1.69557e-06
8.22382e-05
2.73831e-05
1.72922e-05
1.55548e-05
1.65763e-05
1.71462e-05
1.68917e-05
1.60221e-05
1.66204e-05
1.55445e-05
9.91177e-06
6.71317e-06
1.07126e-05
1.11175e-05
8.60003e-06
1.03384e-05
1.21678e-05
9.44059e-06
1.28196e-05
1.40507e-05
1.42086e-05
1.14093e-05
8.59022e-06
5.17075e-06
4.65719e-06
4.25541e-06
4.23963e-06
5.49648e-06
5.45644e-06
4.70417e-06
6.02351e-06
4.59623e-06
4.64596e-06
3.83303e-06
4.40676e-06
4.74927e-06
5.04607e-06
5.20412e-06
5.29875e-06
5.30505e-06
5.25047e-06
5.43825e-06
6.61187e-06
6.29841e-06
6.90511e-06
6.68181e-06
7.33417e-06
8.67452e-06
9.54524e-06
9.31412e-06
1.03739e-05
8.00198e-06
5.07648e-06
4.26454e-06
4.18521e-06
4.18675e-06
3.99071e-06
3.93734e-06
4.0368e-06
4.22679e-06
6.8939e-06
9.57326e-06
6.64765e-06
6.9525e-06
4.63584e-06
3.17376e-06
4.60316e-06
3.26472e-06
7.47394e-06
7.3897e-06
9.31066e-06
4.19012e-06
4.1606e-06
4.44471e-06
4.0149e-06
3.65697e-06
3.73641e-06
2.64834e-06
2.27912e-06
8.1697e-06
7.98689e-06
7.32058e-06
6.85792e-06
6.44197e-06
5.80019e-06
5.22829e-06
4.47502e-06
1.1254e-06
3.3585e-06
8.72559e-06
0.000164272
0.000161861
0.000160948
8.86983e-05
3.30506e-05
2.11192e-05
9.95098e-05
1.03874e-06
9.07531e-08
2.35275e-07
2.28582e-07
2.28186e-07
2.23883e-07
2.37091e-07
2.27503e-07
2.14745e-07
2.52803e-07
2.7232e-07
2.79258e-07
1.60751e-07
1.91507e-07
1.91227e-07
2.83156e-07
2.42992e-07
2.28553e-07
2.26659e-07
2.28813e-07
2.81814e-07
2.92434e-07
6.2988e-05
0.000994396
0.00102561
0.00104034
0.000991545
0.000950741
0.000911801
0.000889831
0.000884174
0.00092342
0.000955892
0.00100156
0.00101554
0.000984416
0.000954026
0.000332651
0.000404952
0.000456948
0.000487386
0.00052291
0.000566311
0.000599679
0.000581521
0.000553912
0.000538818
0.00053432
0.000538868
0.000545683
0.000554453
0.000557077
0.00058037
0.000573547
0.000595651
0.000580607
0.0005855
0.00055612
0.000534487
0.0005076
0.0004839
0.000475892
0.000473182
0.00047709
0.000423372
0.000336514
0.000262337
0.000385598
0.000445471
0.000472071
0.000481613
0.000474929
0.000442021
0.000404334
0.000362462
0.000337127
0.000305342
0.000268453
0.000234741
0.000218893
0.00020647
0.000205548
0.000207979
0.000225782
0.000233668
0.000250967
0.000263498
0.000282423
0.000301118
0.000322364
0.000340259
0.00035802
0.000383817
0.000402958
0.000388542
0.000346672
0.000259918
0.000134799
0.000159035
0.000143222
0.000132021
0.000131147
0.000136127
0.00013129
0.000137691
0.000144452
0.000148953
0.000151066
0.000150433
0.000147326
0.000152364
0.000149618
0.000149339
0.000154711
0.00015652
0.000156222
0.000164742
0.000164692
0.000165958
0.000175311
0.000182432
0.000196977
0.000229093
0.000229467
0.000171416
0.00014063
0.000146695
4.3765e-05
3.22507e-05
2.71187e-05
2.51926e-05
3.0003e-05
3.48232e-05
3.07364e-05
3.20352e-05
2.87162e-05
2.22014e-05
2.51395e-05
2.05024e-05
2.68413e-05
2.81678e-05
3.12867e-05
3.71751e-05
4.19257e-05
4.84931e-05
4.2268e-05
5.75176e-05
8.92306e-05
0.000147737
0.000160589
0.000112422
6.80415e-05
4.71789e-05
4.40127e-05
5.43599e-05
7.37285e-05
9.12349e-05
1.61321e-05
6.81077e-06
9.05402e-06
1.37104e-05
1.83552e-05
2.36684e-05
1.85955e-05
1.69031e-05
8.75373e-06
2.07054e-05
1.90373e-05
1.81117e-05
1.74947e-05
1.72735e-05
1.70775e-05
1.71898e-05
1.8529e-05
1.81989e-05
1.91135e-05
2.03359e-05
2.18225e-05
2.25244e-05
2.43747e-05
2.51744e-05
2.83856e-05
2.92952e-05
2.95179e-05
2.82168e-05
2.93405e-05
2.92702e-05
4.36444e-05
6.84987e-05
7.33929e-05
3.50484e-05
2.32182e-05
2.16898e-05
2.85229e-05
3.43851e-05
3.33258e-05
5.17576e-05
5.36033e-05
5.46724e-05
6.2195e-05
6.43041e-05
6.2087e-05
6.22903e-05
6.01944e-05
5.81923e-05
5.35392e-05
4.69656e-05
3.32951e-05
2.52624e-05
3.16217e-05
3.3553e-05
6.48143e-05
0.000183515
0.000195584
0.00019463
0.000201329
0.000205404
2.73916e-05
1.07879e-05
6.24161e-06
1.17014e-05
1.66665e-05
1.83145e-05
1.82316e-05
1.64438e-05
1.58297e-05
1.46524e-05
1.36699e-05
1.32347e-05
1.37009e-05
1.34381e-05
1.36648e-05
1.32582e-05
1.55572e-05
1.49749e-05
1.55599e-05
1.41309e-05
1.46878e-05
1.28426e-05
1.36142e-05
2.34271e-05
4.04542e-05
4.00629e-05
3.3109e-05
2.92436e-05
2.93609e-05
3.59871e-05
2.91597e-05
2.4339e-05
1.08771e-05
2.65249e-05
3.31849e-05
4.17698e-05
4.38624e-05
4.43658e-05
4.73683e-05
4.63362e-05
4.70744e-05
4.74324e-05
4.58299e-05
4.41514e-05
4.57883e-05
4.12648e-05
4.02461e-05
3.48188e-05
2.93776e-05
3.05829e-05
1.77542e-05
7.09858e-06
2.3892e-06
5.63463e-06
5.13044e-06
7.97279e-06
6.05529e-06
4.04563e-06
8.73655e-06
5.56459e-06
8.19039e-05
1.66016e-05
1.41149e-05
1.53829e-05
1.68463e-05
1.87975e-05
1.28009e-05
1.90575e-05
2.03808e-05
2.33237e-05
2.27916e-05
2.27293e-05
2.5614e-05
2.48698e-05
2.5237e-05
2.36098e-05
2.43558e-05
2.10432e-05
2.04098e-05
1.97106e-05
1.41492e-05
1.42577e-05
1.26353e-05
6.55635e-06
5.34556e-06
5.53223e-06
5.88841e-06
6.07161e-06
5.60303e-06
4.24011e-06
6.29291e-06
4.34635e-06
3.4391e-06
4.3458e-06
4.70681e-06
5.04032e-06
5.26426e-06
5.65551e-06
7.05243e-06
7.68842e-06
8.2496e-06
8.77754e-06
9.21661e-06
7.54894e-06
8.01567e-06
7.26154e-06
9.03705e-06
9.71533e-06
9.97978e-06
1.01855e-05
9.7635e-06
1.00439e-05
3.75566e-06
5.08664e-06
3.25623e-06
2.64228e-06
2.11869e-06
1.95168e-06
2.31428e-06
2.66644e-06
4.29664e-06
5.01599e-06
5.75444e-06
1.85984e-06
3.67015e-06
4.84143e-06
5.91208e-06
9.88119e-06
8.31812e-06
1.21481e-05
1.13136e-05
8.80277e-06
5.81376e-06
3.71444e-06
9.05703e-06
2.42193e-06
2.31807e-06
3.36837e-06
7.93559e-06
2.19409e-06
7.70476e-06
7.21012e-06
6.87071e-06
6.78731e-06
6.79158e-06
6.26195e-06
5.55956e-06
2.26842e-06
3.50811e-06
6.03278e-06
1.23963e-06
1.19254e-06
8.20219e-07
1.78577e-05
0.000105719
6.39646e-05
5.2749e-06
3.73945e-07
2.65365e-07
2.59932e-07
2.55813e-07
2.85037e-07
1.27912e-07
1.70472e-07
1.89994e-07
1.81857e-07
2.15953e-07
1.87718e-07
3.54672e-07
4.10045e-07
4.813e-07
9.7944e-07
8.37444e-07
4.60084e-07
2.93187e-07
2.52363e-07
2.50045e-07
1.47542e-07
6.16529e-07
9.02576e-05
0.000992002
0.00102886
0.000985107
0.000907852
0.000845623
0.000794222
0.000760491
0.000771856
0.000812083
0.000869779
0.00095508
0.000991558
0.00098751
0.000963203
0.000345349
0.000433282
0.000490975
0.000532735
0.000589225
0.000627676
0.000608741
0.000552748
0.000525575
0.000529674
0.000552314
0.000567799
0.000580264
0.000577252
0.000586169
0.00060777
0.000623868
0.000668266
0.000688949
0.000709726
0.000705248
0.000680131
0.00061336
0.000550737
0.0004999
0.000480647
0.000481569
0.000464411
0.000385942
0.00028641
0.000385655
0.000445841
0.000473545
0.000468632
0.000453855
0.00041637
0.000386343
0.000362696
0.000314767
0.000258382
0.000189624
0.000156997
0.000137882
0.000137141
0.000152303
0.00016934
0.000189539
0.000213451
0.000241577
0.000256378
0.000283594
0.000296948
0.000312832
0.000330722
0.000351196
0.000360287
0.000388557
0.000393526
0.000369033
0.000270107
0.000139679
0.000151083
0.000141783
0.000128348
0.000132119
0.000137094
0.000138198
0.000148799
0.000147328
0.000154311
0.000166341
0.000170429
0.000178159
0.000181708
0.000182068
0.000187962
0.000190278
0.000195016
0.00019418
0.000204032
0.000199469
0.000197015
0.000182133
0.000180364
0.000190601
0.000211619
0.000227799
0.000195314
0.000146657
0.00014717
3.71719e-05
2.8776e-05
6.26919e-05
7.85974e-05
8.78173e-05
8.82636e-05
6.61832e-05
7.2606e-05
6.78436e-05
5.0214e-05
4.72163e-05
3.31328e-05
3.17202e-05
3.00739e-05
2.94442e-05
3.32222e-05
3.74618e-05
4.26088e-05
5.08702e-05
5.65222e-05
7.45697e-05
0.000117502
0.000157847
0.00010775
4.50533e-05
4.89958e-05
3.8327e-05
3.6649e-05
5.3729e-05
7.57429e-05
1.42672e-05
9.8428e-06
1.22241e-05
1.79534e-05
2.35237e-05
1.64331e-05
1.67022e-05
1.83759e-05
1.5997e-05
1.51894e-05
1.55035e-05
1.63393e-05
1.72943e-05
1.78116e-05
1.82898e-05
1.88164e-05
1.96863e-05
1.99878e-05
1.91347e-05
1.94011e-05
2.01874e-05
2.09912e-05
2.28258e-05
2.40119e-05
2.56996e-05
2.83544e-05
3.06277e-05
2.9226e-05
2.63072e-05
2.35668e-05
5.02675e-05
5.29032e-05
2.76001e-05
1.8047e-05
2.65208e-05
1.84043e-05
6.42856e-05
8.82906e-05
8.85785e-05
8.78459e-05
7.87185e-05
7.66044e-05
6.46608e-05
6.2694e-05
5.67138e-05
5.52606e-05
5.38891e-05
5.40558e-05
5.66663e-05
5.69428e-05
5.74844e-05
4.39469e-05
3.47222e-05
1.87573e-05
3.01013e-05
9.12864e-05
0.000183113
0.00019762
0.000202776
0.000199787
1.20689e-05
9.41493e-06
1.26044e-05
2.05342e-05
2.04976e-05
1.83081e-05
1.52033e-05
1.37798e-05
1.15013e-05
1.02329e-05
9.26379e-06
8.59571e-06
8.09351e-06
9.1192e-06
9.97353e-06
1.03401e-05
1.12386e-05
1.38776e-05
1.42659e-05
1.56804e-05
1.64433e-05
1.36276e-05
1.18818e-05
1.66677e-05
1.4299e-05
3.88428e-05
3.18274e-05
2.14902e-05
1.57218e-05
2.5874e-05
2.15555e-05
2.45893e-05
3.07165e-05
4.51359e-05
4.99582e-05
4.21874e-05
5.12127e-05
5.43088e-05
5.86902e-05
6.71746e-05
6.82545e-05
7.07558e-05
7.62268e-05
7.31172e-05
6.61761e-05
4.75265e-05
5.51525e-05
5.11089e-05
4.17488e-05
3.91304e-05
2.99546e-05
2.07839e-05
2.66098e-06
6.1602e-06
9.09717e-06
8.81048e-06
9.42437e-06
7.38358e-06
1.06657e-05
7.33351e-06
5.68324e-05
1.60942e-05
1.71532e-05
1.86209e-05
1.94129e-05
1.46213e-05
2.3004e-05
2.63207e-05
3.33893e-05
3.56384e-05
2.71329e-05
3.14976e-05
3.7188e-05
4.10138e-05
4.35591e-05
3.98371e-05
3.41769e-05
1.48111e-05
3.0182e-05
2.404e-05
2.06094e-05
1.94144e-05
9.11603e-06
1.08677e-05
6.16515e-06
5.95727e-06
6.9542e-06
7.72935e-06
7.98084e-06
6.19801e-06
6.00804e-06
3.36091e-06
3.11621e-06
3.30345e-06
5.00679e-06
5.24553e-06
6.97185e-06
8.08768e-06
9.03857e-06
8.83759e-06
1.22045e-05
1.51092e-05
1.7579e-05
1.87321e-05
1.93258e-05
1.88704e-05
1.77209e-05
1.42812e-05
8.99294e-06
7.22652e-06
1.14528e-05
1.00797e-05
9.49523e-06
1.81386e-06
3.55358e-06
1.84024e-06
2.5909e-06
2.70161e-06
1.88992e-06
1.81046e-06
3.46464e-06
1.70161e-06
4.67829e-06
3.86113e-06
5.14614e-06
6.64213e-06
6.06751e-06
1.00688e-05
9.161e-06
9.94098e-06
8.71303e-06
5.69554e-06
4.12451e-06
3.29787e-06
2.44144e-06
3.80348e-06
5.46001e-06
7.06306e-06
7.87224e-06
8.07174e-06
6.72939e-06
4.61813e-06
5.03074e-06
6.25218e-06
7.07186e-06
7.23626e-06
6.04557e-06
3.7643e-06
3.67866e-06
4.84198e-06
1.0801e-06
1.02619e-06
2.01976e-06
2.02371e-05
0.00016683
1.72435e-05
6.80125e-07
1.50454e-07
2.91268e-07
1.30664e-07
2.80832e-07
4.40981e-07
4.88753e-07
5.41495e-07
5.80053e-07
5.47398e-07
4.91023e-07
4.39853e-07
3.74111e-07
2.91498e-07
4.42296e-07
1.07497e-06
2.5543e-06
2.81389e-06
1.44984e-06
5.32512e-07
3.11396e-07
5.21829e-07
1.19445e-06
0.000161444
0.00101596
0.00102409
0.000944853
0.000851736
0.000775966
0.000753429
0.000750424
0.000741547
0.000748629
0.000829476
0.000938896
0.000975305
0.000980511
0.000955328
0.000359619
0.000451521
0.000525384
0.000595558
0.000659026
0.000651199
0.000571152
0.000518847
0.000515238
0.000531698
0.00055006
0.000522816
0.000523135
0.000510861
0.000531698
0.00054663
0.000600853
0.000669929
0.000727421
0.000794607
0.000819616
0.000797068
0.000742435
0.000655646
0.000562309
0.000500691
0.000485232
0.000483331
0.000427465
0.000311537
0.000381486
0.000443814
0.000457548
0.000455402
0.000453075
0.000439622
0.000428355
0.000396761
0.000315524
0.000209784
0.000136644
0.000121183
0.000116202
0.000130222
0.000162453
0.000191497
0.000238259
0.00026622
0.0002892
0.000311879
0.000317893
0.000325216
0.000335434
0.000341675
0.000343947
0.00035748
0.000369769
0.000390782
0.000380441
0.000284899
0.000138025
0.000145119
0.000138189
0.000126679
0.000135809
0.000134707
0.000147494
0.000157973
0.000155956
0.0001604
0.000174492
0.000181345
0.000196763
0.00020108
0.00021143
0.000218167
0.000227743
0.000230591
0.000232841
0.000228105
0.000227899
0.000222615
0.000206833
0.000199741
0.000190958
0.000197405
0.000224136
0.000217092
0.000170861
0.000138535
4.55122e-05
9.13349e-05
0.000123411
0.000177011
0.000206763
0.000218089
0.000207728
0.00019724
0.000176862
0.000146345
0.000113413
7.39619e-05
5.58282e-05
4.32789e-05
3.609e-05
3.5561e-05
3.5394e-05
4.11736e-05
4.86754e-05
4.94247e-05
6.36956e-05
9.5965e-05
0.000142945
0.000124028
5.32847e-05
3.2762e-05
3.61319e-05
3.72829e-05
3.88264e-05
5.76429e-05
1.33774e-05
1.05453e-05
1.59486e-05
2.12175e-05
1.23945e-05
1.31137e-05
1.68858e-05
1.4968e-05
1.38497e-05
1.60642e-05
1.81871e-05
1.96068e-05
2.05007e-05
1.96487e-05
2.08399e-05
2.16025e-05
2.21485e-05
2.15982e-05
2.2249e-05
2.30597e-05
2.23813e-05
2.24399e-05
2.17564e-05
2.38936e-05
2.42382e-05
1.37397e-05
2.85303e-05
2.97837e-05
2.67367e-05
2.23881e-05
5.0253e-05
3.72708e-05
1.95999e-05
2.51199e-05
4.64265e-05
9.26296e-05
0.000101183
9.75344e-05
9.20689e-05
7.75029e-05
6.32947e-05
4.53418e-05
3.22308e-05
3.30562e-05
3.09218e-05
3.00002e-05
2.95199e-05
3.03458e-05
2.17773e-05
3.18544e-05
4.22932e-05
5.36863e-05
4.69366e-05
3.63938e-05
2.63727e-05
4.94364e-05
0.000112246
0.000173369
0.000188159
0.000198847
8.07945e-06
1.3273e-05
2.13899e-05
2.0722e-05
1.75074e-05
1.56266e-05
1.20446e-05
9.64023e-06
7.99678e-06
7.6488e-06
6.28029e-06
7.74163e-06
7.83022e-06
7.22818e-06
7.59397e-06
7.93606e-06
7.31562e-06
9.50654e-06
1.24309e-05
1.34067e-05
1.55128e-05
1.59817e-05
1.20436e-05
1.19326e-05
2.11119e-05
2.90702e-05
3.91394e-05
1.81529e-05
2.30903e-05
1.38395e-05
2.43677e-05
3.05408e-05
4.47648e-05
4.8794e-05
4.03552e-05
4.91512e-05
5.67402e-05
6.97216e-05
8.31997e-05
9.49173e-05
9.97858e-05
0.000107419
0.000111298
0.000114701
0.000103859
9.46428e-05
8.13663e-05
5.07928e-05
5.56789e-05
4.62219e-05
4.16011e-05
2.80224e-05
6.39933e-06
5.03114e-06
5.28952e-06
5.03752e-06
8.38648e-06
9.2298e-06
1.01542e-05
1.00681e-05
4.89537e-05
1.46312e-05
1.79136e-05
1.89118e-05
1.41107e-05
2.32533e-05
2.97448e-05
3.68691e-05
3.65088e-05
5.14923e-05
7.18178e-05
8.02613e-05
8.57521e-05
8.43112e-05
8.27342e-05
8.14807e-05
7.17651e-05
5.92521e-05
3.49826e-05
3.24181e-05
2.75979e-05
2.04397e-05
1.83182e-05
1.42938e-05
8.65257e-06
5.93792e-06
6.41642e-06
8.42862e-06
9.77825e-06
7.29678e-06
5.08621e-06
4.37915e-06
3.22133e-06
3.31891e-06
5.06998e-06
7.15591e-06
8.47661e-06
7.88161e-06
1.31244e-05
1.8529e-05
2.41897e-05
2.84202e-05
3.19003e-05
3.99076e-05
4.21552e-05
3.37437e-05
2.72612e-05
2.63579e-05
2.33089e-05
1.74865e-05
1.11816e-05
1.23592e-05
1.05589e-05
5.29083e-06
4.87911e-06
1.86583e-06
2.35785e-06
2.70563e-06
1.61268e-06
2.49774e-06
4.40875e-06
4.42494e-06
3.79571e-06
5.10844e-06
6.38784e-06
5.64901e-06
1.1524e-05
4.66191e-06
9.7716e-06
6.92072e-06
7.54721e-06
7.46484e-06
7.41657e-06
6.91277e-06
5.8659e-06
5.85378e-06
5.35733e-06
3.38348e-06
7.16794e-06
7.92384e-06
6.66906e-06
3.90958e-06
5.0256e-06
7.34648e-06
1.04271e-05
5.55364e-06
9.57018e-06
5.87318e-06
3.88852e-06
4.06591e-06
9.54482e-07
5.22645e-07
3.22915e-06
3.3515e-05
3.57827e-06
8.33163e-07
3.00964e-07
1.96869e-07
3.16762e-07
4.25304e-07
6.37653e-07
7.84021e-07
4.64857e-07
8.38788e-07
8.56181e-07
5.34564e-07
3.23741e-07
6.48839e-07
4.65201e-07
2.95073e-07
3.09829e-07
5.06207e-07
1.70739e-06
5.72673e-06
4.14597e-06
2.09885e-06
1.02434e-06
1.02952e-06
2.27651e-06
0.000162909
0.00098867
0.000957977
0.000841125
0.000760497
0.000748247
0.000760388
0.000778045
0.000772331
0.000773371
0.000831369
0.000942803
0.000987926
0.000990989
0.00095908
0.000357773
0.000470963
0.000565684
0.000638171
0.000699942
0.000645624
0.000533384
0.000493904
0.000506393
0.000509483
0.000499297
0.000480425
0.000480027
0.000449169
0.000472112
0.000496566
0.000577036
0.000650751
0.000770096
0.000846033
0.000867135
0.000882705
0.000831448
0.000741619
0.000638329
0.000541648
0.000500005
0.000489073
0.000449569
0.000326887
0.00038167
0.000434417
0.000438889
0.000451704
0.000471039
0.000478941
0.000480465
0.000433905
0.000305375
0.000175904
0.00010677
0.000112236
0.000150363
0.000201114
0.000254586
0.000300708
0.000332615
0.000346301
0.000367892
0.000358156
0.000352002
0.00035778
0.000342816
0.000338423
0.000342811
0.000344989
0.000366229
0.000381509
0.000379012
0.000288731
0.000133011
0.000139407
0.000136045
0.000130474
0.000140977
0.000146129
0.00015824
0.000162263
0.000157855
0.000160895
0.000177035
0.000194474
0.000207163
0.000217874
0.000234546
0.000239883
0.000250241
0.000256103
0.00025824
0.000262119
0.000256726
0.000243307
0.000233613
0.000210986
0.000197245
0.000201646
0.000216461
0.000223745
0.000180994
0.000143963
9.08581e-05
0.000138037
0.000201471
0.000243479
0.000263622
0.000264769
0.000266288
0.000252774
0.000240099
0.000221915
0.000205975
0.000165857
0.000124409
7.79834e-05
5.63728e-05
4.70829e-05
4.35806e-05
4.36285e-05
5.10887e-05
4.63072e-05
5.78037e-05
8.54218e-05
0.000120607
0.000142558
8.74895e-05
6.35773e-05
6.10969e-05
5.09639e-05
4.87408e-05
5.26915e-05
1.41674e-05
1.19799e-05
1.93112e-05
8.98117e-06
1.27553e-05
1.67519e-05
1.34003e-05
1.21007e-05
1.55346e-05
1.81931e-05
1.97133e-05
2.07241e-05
2.03931e-05
2.24684e-05
2.25803e-05
2.30204e-05
2.54924e-05
2.31201e-05
2.45296e-05
2.38022e-05
2.45777e-05
2.57203e-05
2.28018e-05
2.43028e-05
2.52567e-05
2.56936e-05
1.94072e-05
3.10531e-05
2.77048e-05
2.10851e-05
3.50322e-05
2.09582e-05
1.3337e-05
2.46848e-05
9.36554e-05
0.00010383
9.88935e-05
8.38531e-05
6.77176e-05
5.34489e-05
4.22134e-05
3.49577e-05
3.09386e-05
2.47715e-05
2.41387e-05
2.07489e-05
2.12796e-05
2.24038e-05
2.57708e-05
2.95299e-05
2.7491e-05
3.76045e-05
4.85677e-05
4.41021e-05
3.53743e-05
3.33599e-05
7.39273e-05
0.00011934
0.000156087
0.000187991
7.6083e-06
1.83872e-05
2.13569e-05
1.74426e-05
1.56031e-05
1.21647e-05
9.5696e-06
7.08261e-06
5.14143e-06
7.71707e-06
7.51873e-06
6.17094e-06
5.56561e-06
6.26303e-06
6.01194e-06
6.27423e-06
7.31028e-06
8.61402e-06
8.60871e-06
1.19857e-05
1.29571e-05
1.48546e-05
1.44978e-05
1.00094e-05
1.41667e-05
2.46861e-05
2.6409e-05
1.39671e-05
2.06709e-05
2.45904e-05
2.92537e-05
3.66533e-05
4.62044e-05
5.05887e-05
3.89525e-05
5.23673e-05
7.22655e-05
9.15775e-05
0.000118328
0.000141487
0.000156282
0.000161614
0.000163081
0.000158326
0.000147978
0.0001403
0.000121449
0.000101261
5.66795e-05
5.68315e-05
4.67672e-05
3.83326e-05
1.98103e-05
6.50029e-06
7.83358e-06
9.09731e-06
7.75757e-06
9.66129e-06
1.00973e-05
1.15436e-05
3.03532e-05
1.72145e-05
1.89625e-05
1.90965e-05
1.7044e-05
3.06511e-05
3.77592e-05
5.0413e-05
7.38304e-05
9.21891e-05
0.00010746
0.0001144
0.000117292
0.000120282
0.00011638
0.000111647
0.000100576
8.89105e-05
7.00687e-05
4.84755e-05
3.14782e-05
2.63184e-05
2.02773e-05
1.5519e-05
1.2041e-05
7.0869e-06
5.74641e-06
8.79838e-06
9.21132e-06
6.38725e-06
3.93026e-06
2.21411e-06
4.08692e-06
5.43674e-06
6.21371e-06
8.28499e-06
7.15705e-06
1.42793e-05
2.16557e-05
2.94016e-05
6.29242e-05
8.80259e-05
0.000105086
0.000112444
0.000110419
0.000104396
8.19747e-05
6.71576e-05
4.07064e-05
2.79131e-05
2.11182e-05
8.3665e-06
1.16029e-05
9.74565e-06
5.41975e-06
2.03464e-06
2.51268e-06
1.84319e-06
2.74966e-06
2.61461e-06
4.28876e-06
3.83972e-06
4.30568e-06
5.19781e-06
9.66471e-06
5.29202e-06
6.49604e-06
9.57346e-06
6.2033e-06
9.28936e-06
9.28169e-06
9.14051e-06
9.32101e-06
9.01227e-06
7.87978e-06
6.86387e-06
6.09596e-06
5.19013e-06
5.06559e-06
7.51711e-06
6.82317e-06
3.20647e-06
4.57072e-06
8.48032e-06
1.28159e-05
2.23305e-05
1.49847e-05
8.40771e-06
1.73105e-06
3.53726e-06
1.12945e-06
1.55218e-06
4.68867e-06
4.18684e-06
6.83184e-07
4.19177e-07
1.83755e-07
2.94097e-07
4.14952e-07
6.84665e-07
8.64311e-07
1.32453e-06
1.71253e-06
1.25382e-06
1.13511e-06
1.79807e-06
1.42732e-06
1.07799e-06
3.25301e-07
5.67454e-07
3.262e-07
2.94267e-07
6.90024e-07
3.61222e-06
2.64188e-06
3.9796e-06
3.04885e-06
3.37147e-06
1.104e-05
0.000125435
0.000957474
0.000863244
0.00074405
0.000743089
0.000796377
0.000858914
0.000899203
0.00089297
0.000872907
0.00089875
0.000999728
0.00101114
0.00099497
0.000966266
0.000368301
0.000496515
0.00058041
0.000661028
0.000712427
0.000618146
0.000505879
0.000481069
0.000479177
0.000480129
0.000487655
0.000469561
0.000449895
0.000409252
0.000413589
0.000460292
0.000553824
0.000653864
0.000801701
0.000853587
0.000896605
0.000884441
0.000878746
0.000793531
0.000682614
0.000569296
0.00050851
0.000497596
0.000459889
0.000338215
0.000367483
0.000413529
0.000409281
0.000432144
0.000469359
0.00049797
0.00049646
0.000457827
0.000319222
0.00017566
0.000111439
0.000135912
0.000210509
0.000289379
0.000347125
0.000376849
0.00038468
0.000391835
0.000380466
0.000367209
0.000361848
0.000344896
0.000339478
0.000333277
0.000333435
0.000341701
0.000355447
0.000380253
0.000380131
0.000287105
0.000135202
0.0001435
0.000135386
0.000135807
0.000150809
0.000156923
0.000167255
0.000158835
0.000156644
0.000166343
0.000177605
0.000198053
0.000214684
0.000228161
0.000247855
0.000251192
0.000269899
0.000281927
0.000281307
0.000279373
0.000279814
0.000256214
0.000256003
0.000226226
0.000207813
0.000201146
0.000213448
0.000221005
0.000188802
0.000145759
0.000102016
0.000166104
0.000225413
0.000264566
0.000273763
0.000270607
0.000277035
0.000256655
0.000262804
0.000241406
0.00023919
0.000218684
0.000192647
0.000144084
0.000100759
6.29924e-05
5.70142e-05
5.34878e-05
5.51786e-05
5.19098e-05
6.08746e-05
7.94893e-05
0.00010416
0.000148163
0.000117314
0.000103815
8.892e-05
5.56616e-05
4.55321e-05
4.76977e-05
1.4128e-05
1.39086e-05
2.05859e-05
1.34635e-05
1.72651e-05
1.29154e-05
1.21498e-05
1.32835e-05
1.60146e-05
1.79982e-05
1.94708e-05
1.98897e-05
2.09443e-05
2.20814e-05
2.30267e-05
2.71062e-05
2.64954e-05
2.53351e-05
2.57528e-05
2.6058e-05
2.84689e-05
2.72133e-05
2.52639e-05
2.61479e-05
2.61566e-05
2.61238e-05
1.77178e-05
3.13135e-05
2.73736e-05
2.0637e-05
3.70067e-05
7.53088e-06
2.68277e-05
8.05616e-05
9.89491e-05
9.0198e-05
7.03788e-05
5.90561e-05
5.25179e-05
4.05885e-05
3.65833e-05
2.81875e-05
2.47172e-05
1.89836e-05
1.12787e-05
1.06849e-05
9.55459e-06
1.59251e-05
1.98932e-05
2.34132e-05
3.08305e-05
2.7517e-05
4.36777e-05
4.48865e-05
3.96943e-05
2.90553e-05
5.58415e-05
9.14004e-05
0.000121776
0.000183515
9.55038e-06
1.95e-05
1.79534e-05
1.45787e-05
1.35969e-05
1.0128e-05
7.89403e-06
5.24538e-06
7.97641e-06
6.90026e-06
6.21012e-06
5.63594e-06
5.01426e-06
4.97353e-06
4.71962e-06
5.22199e-06
5.50915e-06
6.54044e-06
8.30774e-06
9.57281e-06
1.2577e-05
1.35349e-05
1.38799e-05
1.2808e-05
1.39247e-05
1.7698e-05
2.52493e-05
2.32765e-05
1.66053e-05
2.01046e-05
3.07174e-05
4.22191e-05
4.60726e-05
5.06585e-05
4.10395e-05
5.31026e-05
9.34024e-05
0.00012886
0.00016146
0.000191764
0.000204198
0.000217193
0.000219792
0.000209439
0.000190239
0.00017772
0.000157261
0.000131305
8.98803e-05
4.32563e-05
4.87784e-05
4.3659e-05
1.20195e-05
5.36344e-06
6.99622e-06
7.24016e-06
8.25982e-06
7.21249e-06
1.57401e-05
1.10315e-05
9.3123e-06
2.19417e-05
1.92216e-05
7.81571e-06
2.21575e-05
3.71708e-05
3.5978e-05
7.04962e-05
9.86482e-05
0.000119769
0.000128541
0.000140535
0.000140873
0.000142336
0.000141645
0.000136433
0.000120568
0.000110259
9.23729e-05
6.82962e-05
4.2684e-05
2.90338e-05
2.23693e-05
1.79311e-05
1.40796e-05
9.35531e-06
7.01416e-06
9.15357e-06
8.32942e-06
6.81834e-06
4.06447e-06
5.25504e-06
4.21433e-06
6.0209e-06
7.63911e-06
8.85453e-06
1.15717e-05
2.11808e-05
3.24572e-05
8.43556e-05
0.000125616
0.000163195
0.000177595
0.000179983
0.000180287
0.000176117
0.000157912
0.0001214
9.36763e-05
4.95471e-05
3.05436e-05
1.61472e-05
1.37517e-05
1.09208e-05
2.4428e-06
2.36161e-06
2.69644e-06
2.38323e-06
3.66483e-06
3.35486e-06
4.23422e-06
3.82044e-06
2.94175e-06
7.48051e-06
1.40102e-06
7.00875e-06
1.221e-05
8.48837e-06
9.19009e-06
1.09707e-05
1.11369e-05
7.64094e-06
9.91798e-06
8.49036e-06
1.00688e-05
8.62011e-06
6.86272e-06
5.4152e-06
5.1351e-06
6.75036e-06
7.19445e-06
2.69563e-06
4.03526e-06
8.95719e-06
2.64413e-05
5.43665e-05
1.56658e-05
7.59096e-06
2.14963e-06
3.37276e-06
3.5191e-06
1.69667e-06
2.27689e-06
8.10099e-07
4.98472e-07
2.93831e-07
2.46914e-07
4.10746e-07
6.40595e-07
9.46117e-07
1.68532e-06
1.99963e-06
3.22917e-06
2.47923e-06
3.68394e-06
4.04598e-06
2.52224e-06
2.02977e-06
1.15918e-06
3.73248e-07
5.35795e-07
2.46148e-07
3.97373e-07
1.72635e-06
4.5829e-06
6.18722e-06
4.43972e-06
6.14338e-06
3.28973e-05
8.44648e-05
0.000898718
0.000728176
0.000704603
0.000782401
0.000885396
0.000963658
0.00100762
0.00101471
0.00100373
0.00101974
0.00108955
0.00105346
0.000997509
0.000973242
0.000374314
0.000510146
0.00058591
0.00066744
0.000717077
0.000628405
0.000493765
0.000473342
0.000468286
0.000454891
0.000462826
0.000464964
0.00043408
0.000384242
0.000371306
0.000414348
0.000523639
0.000646394
0.000789004
0.000834797
0.000876215
0.000869667
0.00087293
0.000803086
0.000691825
0.000587842
0.00052243
0.0005046
0.000470128
0.00034289
0.000366255
0.000399949
0.000384496
0.000400872
0.000462078
0.000488939
0.00049334
0.00046886
0.000342347
0.000186988
0.000113536
0.00014797
0.000238842
0.000333683
0.000376042
0.000392995
0.000403987
0.00038921
0.000372981
0.000367721
0.000342331
0.000334552
0.000327209
0.000317246
0.000327317
0.000333307
0.000355043
0.000379384
0.000377457
0.000268576
0.000136166
0.000140443
0.000130966
0.000141946
0.000155086
0.000166713
0.000172211
0.000165277
0.000159056
0.000163447
0.000174193
0.000196266
0.000210448
0.000226791
0.000246208
0.000257694
0.000277838
0.000284804
0.000296803
0.000288082
0.000294567
0.000269262
0.000261984
0.000232515
0.000205899
0.000195269
0.000210557
0.000217574
0.000180207
0.000128931
9.85891e-05
0.000163147
0.0002316
0.000270321
0.000267307
0.00026783
0.000274511
0.000249056
0.00026432
0.000245759
0.000251805
0.00023938
0.00022808
0.000200685
0.000157792
0.000114354
8.46908e-05
6.51291e-05
5.30254e-05
5.69005e-05
6.74058e-05
8.39954e-05
0.000103367
0.000147486
0.000145529
0.000131846
0.000104138
4.42121e-05
3.74473e-05
3.57369e-05
1.28749e-05
1.65185e-05
1.36229e-05
1.93594e-05
1.35244e-05
1.02265e-05
1.13568e-05
1.43021e-05
1.52664e-05
1.70915e-05
1.95679e-05
1.91696e-05
2.08461e-05
2.26681e-05
2.49621e-05
2.86124e-05
2.65769e-05
2.83469e-05
3.10503e-05
3.02651e-05
2.6446e-05
2.79233e-05
2.76811e-05
2.60412e-05
2.61777e-05
2.66166e-05
1.91893e-05
3.10342e-05
2.768e-05
2.14961e-05
3.25327e-05
1.32038e-05
1.75171e-05
8.52477e-05
8.35623e-05
6.45668e-05
4.54342e-05
4.35227e-05
3.90885e-05
3.293e-05
3.18907e-05
2.63615e-05
1.64159e-05
1.10652e-05
1.57878e-05
1.62413e-05
1.60194e-05
1.61512e-05
1.37987e-05
1.9776e-05
2.57504e-05
3.06536e-05
3.7538e-05
4.94713e-05
4.14034e-05
2.98543e-05
4.80359e-05
7.57391e-05
0.000112952
0.000179262
1.14477e-05
1.75123e-05
1.54899e-05
1.52712e-05
1.22042e-05
9.00681e-06
7.02606e-06
4.2537e-06
7.41808e-06
6.47032e-06
5.94821e-06
4.93315e-06