/*--------------------------------*- C++ -*----------------------------------*\
| =========                 |                                                 |
| \\      /  F ield         | OpenFOAM: The Open Source CFD Toolbox           |
|  \\    /   O peration     | Version:  2.1.1                                 |
|   \\  /    A nd           | Web:      www.OpenFOAM.org                      |
|    \\/     M anipulation  |                                                 |
\*---------------------------------------------------------------------------*/
FoamFile
{
    version     2.0;
    format      ascii;
    class       volScalarField;
    location    "0.006000000";
    object      Tu;
}
// * * * * * * * * * * * * * * * * * * * * * * * * * * * * * * * * * * * * * //

dimensions      [0 0 0 1 0 0 0];

internalField   nonuniform List<scalar> 
12384
(
915.292
900.527
891.789
890.493
893.88
897.202
900.907
904.058
905.565
905.781
904.289
904.106
940.036
999.694
537.603
535.01
562.314
576.835
587.281
601.476
616.342
627.915
633.27
635.886
633.343
634.118
624.919
632.869
615.298
624.334
614.29
604.002
603.737
600.284
588.133
588.942
582.244
581.33
577.987
581.206
572.772
516.083
481.988
488.697
521.586
543.699
566.914
583.107
596.154
601.861
600.846
598.016
594.85
590.842
586.264
579.663
569.985
563.268
561.489
549.708
543.809
542.177
538.871
524.793
530.77
519.266
525.465
522.75
527.631
528.601
532.526
496.521
488.481
484.455
451.823
437.996
416.594
415.736
416.066
422.969
425.734
430.984
434.291
435.72
434.421
430.138
423.597
415.754
407.909
406.286
399.679
416.318
398.052
439.958
426.723
470.61
473.232
494.806
495.519
481.563
476.098
486.44
490.695
493.239
426.914
442.39
444.676
446.358
425.814
430.891
390.332
397.884
358.989
365.934
338.312
345.076
330.11
335.659
333.451
343.543
346.623
358.053
366.161
374.1
386.377
377.001
373.536
370.175
365.871
366.661
364.005
365.087
365.426
364.688
393.698
397.809
382.311
380.117
385.293
394.519
403.563
408.124
408.863
406.552
402.313
397.938
393.976
391.246
388.956
389.363
390.868
387.506
399.633
395.065
412.382
410.875
428.583
428.578
444.058
451.312
464.855
457.833
455.815
456.386
338.039
315.148
291.74
296.212
314.063
328.416
333.151
335.465
323.807
318.519
304.69
301.031
282.024
282.526
270
270.397
270
272.3
270
284.093
286.353
300.378
304.438
316.55
291.09
302.864
315.068
321.236
323.368
325.989
347.316
353.372
371.143
386.576
395.205
396.929
395.278
393.32
387.701
378.529
374.71
377.194
369.036
378.916
372.705
389.145
393.752
398.087
416.359
421.264
422.198
424.191
426.466
442.241
446.655
437.647
436.216
435.656
438.517
439.59
360.566
385.719
400.009
406.398
407.195
405.111
398.204
395.323
384.253
387.362
377.771
381.138
379.844
398.762
394.374
416.526
427.509
429.508
438.952
430.922
398.089
378.589
382.296
390.267
397.541
402.171
404.125
402.059
398.506
395.845
372.042
359.006
360.215
375.734
384.611
385.611
380.283
370.889
359.827
343.992
339.898
315.032
320.716
305.893
312.964
315.461
322.108
330.091
340.213
345
344.842
340.354
319.61
310.682
310.904
310.156
311.769
308.034
308.323
301.653
270
270
270
272.304
277.542
279.8
280.989
280.839
279.134
276.648
273.246
272.304
270
275.746
270
290.165
284.292
308.541
327.021
338.481
349.052
348.949
341.546
336.492
335.538
335.685
334.165
335.281
334.164
332.445
280.924
278.456
282.27
292.86
320.802
334.821
327.578
312.698
308.562
289.966
288.266
282.636
277.064
277.537
274.988
273.38
274.253
272.243
274.701
272.786
276.706
275.856
277.754
279.509
279.811
282.848
286.912
292.783
303.072
270
270
270
270
276.435
294.694
289.771
270
389.82
452.374
463.024
464.398
465.011
464.146
467.221
464.214
471.054
467.908
469.13
466.709
463.384
462.043
461.223
463.81
469.297
469.925
468.106
463.568
463.458
431.284
277.526
834.325
843.077
865.391
882.239
892.588
897.832
901.235
910.82
925.919
935.13
929.278
913.562
930.022
990.435
537.058
543.975
574.662
594.17
616.308
641.987
659.934
661.551
657.843
654.174
652.176
652.612
652.806
652.236
650.791
658.459
651.617
661.143
652.788
656.715
639.96
629.043
616.522
599.836
589.869
583.316
582.445
554.755
508.846
487.37
520.061
550.596
577.47
596.613
602.728
597.933
587.425
575.166
564.579
552.103
535.425
518.077
508.782
499.964
489.403
493.1
495.88
487.225
496.717
493.94
498.469
500.92
504.974
511.836
513.939
521.65
526.421
516.182
492.977
481.73
450.438
428.37
411.142
410.85
418.091
426.28
432.018
438.289
444.125
446.682
445.181
439.936
431.119
422.798
414.381
409.602
406.461
407.561
415.026
426.849
434.947
451.745
463.586
482.193
494.302
498.243
484.634
488.484
502.143
501.747
474.598
480.236
477.658
470.364
455.147
444.926
421.775
408.449
389.342
373.634
367.056
350.221
347.874
343.011
340.784
344.94
345.243
357.279
360.875
375.961
387.195
384.992
373.335
367.39
360.898
355.862
353.681
354.758
358.614
361.568
395.362
392.136
380.859
381.292
394.169
406.027
409.222
401.992
389.967
383.232
378.375
375.72
373.461
372.398
370.821
370.475
369.756
373.197
376.895
382.066
388.475
397.136
404.845
414.301
428.275
439.989
457.371
463.305
458.32
455.647
335.195
310.083
309.614
349.094
360.066
353.13
337.393
318.749
299.487
289.054
276.941
271.51
270
270
270
270
270
270
270
270
275.019
280.034
294.001
311.947
303.762
298.289
300.648
305.267
309.357
313.306
368.104
384.821
400.989
408.267
408.588
404.871
400.888
392.716
381.988
379.923
374.973
363.561
367.941
366.465
378.058
375.942
387.215
398.191
402.526
411.26
420.164
422.154
423.264
434.693
439.193
423.659
417.436
420.295
423.702
428.783
394.368
413.417
412.764
406.211
397.388
387.336
378.881
373.001
365.6
359.803
361.313
362.906
361.532
371.521
384.998
396.467
405.399
417.797
431.446
435.073
424.074
394.928
386.006
405.376
415.073
416.637
414.817
413.328
412.192
408.77
375.479
358.035
371.697
395.393
394.853
382.847
364.902
347.721
337.65
319.056
310.314
291.056
296.832
282.574
284.788
290.869
300.778
310.64
319.655
328.908
335.353
340.229
331.862
315.641
319.759
323.739
325.905
325.129
322.33
315.467
270
270
272.087
282.059
284.703
283.175
277.835
273.105
270
270
270
270
270
270
270
270
273.2
295.056
305.077
322.588
336.349
348.392
350.144
344.411
336.351
335.591
336.967
338.126
338.215
335.385
298.371
300.391
305.001
318.846
331.821
328.035
312.287
296.343
291.83
280.738
280.628
282.554
285.6
283.622
282.281
279.216
273.24
270.772
270
271.133
274.006
280.413
283.3
284.927
285.79
283.954
286.354
290.162
301.418
277.02
345.242
347.295
335.121
281.272
270
270
291.138
434.721
462.725
465.121
470.763
472.109
473.889
474.444
476.544
475.109
478.144
472.065
464.811
453.175
438.094
426.312
428.108
444.031
459.221
468.541
468.561
461.84
428.335
278.223
833.135
858.836
879.789
869.893
845.385
821.217
812.367
826.484
864.789
911.965
946.704
937.242
933.081
978.666
537.125
555.151
590.037
618.262
652.819
675.551
672.955
659.865
652.03
650.236
649.952
647.202
643.896
641.762
643.621
655.478
660.486
684.589
693.705
702.517
701.737
690.035
662.509
637.116
610.859
595.441
588.216
576.819
536.775
494.605
518.629
551.392
584.312
596.581
598.426
589.822
579.513
569.277
551.033
521.464
493.18
480.066
471.249
462.09
468.649
466.252
467.301
477.293
482.88
479.359
495.981
488.787
496.293
500.585
508.705
510.986
519.514
519.014
502.749
482.032
444.546
419.856
408.025
413.946
422.925
428.612
437.723
446.234
450.843
452.413
448.433
441.068
429.606
420.964
410.335
403.88
400.273
407.547
404.616
423.232
427.158
449.274
455.855
473.674
484.205
496.923
494.934
491.917
506.733
508.674
491.819
492.461
487.419
480.378
472.071
457.768
440.972
422.102
417.265
382.57
387.175
357.895
361.706
349.097
344.243
347.842
347.425
354.038
360.102
370.069
383.755
388.51
380.087
369.075
357.092
353.125
349.242
350.335
354.566
359.67
392.808
388.873
379.413
389.949
401.807
402.525
387.773
375.171
372.513
373.229
374.807
376.406
378.31
378.446
379.654
381.488
385.542
386.953
391.264
392.111
396.709
397.106
403.191
405.027
416.52
426.819
445.89
460.037
461.694
453.72
323.214
312.181
353.274
369.898
348.265
315.233
291.472
282.16
272.336
275.769
270.122
270
275.103
270
270
270
270
270
270
270
270
273.453
280.896
294.931
305.887
302.557
297.147
301.998
303.943
304.802
383.186
400.442
410.656
408.472
402.931
397.257
390.209
381.642
378.76
377.126
362.677
363.452
361.102
367.29
368.733
381.542
381.031
388.552
398.486
403.651
409.164
416.993
418.091
423.017
432.334
419.916
412.836
414.766
418.152
425.744
422.114
414.078
398.392
384.554
374.393
367.809
363.815
359.518
353.024
356.609
350.534
350.605
356.785
361.785
367.495
379.571
392.539
404.986
417.157
425.884
431.36
414.93
391.121
405.167
416.309
415.119
410.067
407.857
408.302
409.667
372.364
358.688
406.493
403.441
383.591
360.704
343.892
331.047
324.775
308.586
302.647
291.089
290.372
278.619
282.456
283.298
288.053
294.26
302.835
310.545
319.134
329.031
332.804
324.802
320.592
326.8
329.771
327.109
326.749
324.195
270
273.041
291.256
293.262
287.14
275.785
270
270
270
270
270
270
270
270
270
270
270
278.729
292.314
306.771
322.528
334.702
349.459
350.109
341.911
341.435
346.398
349.166
346.863
341.769
307.341
315.473
324.781
330.283
328.429
314.346
302.849
298.492
302.986
311.615
328.621
339.592
340.875
340.364
334.359
320.903
307.367
290.068
278.321
273.411
281.21
290.57
296.178
299.224
296.907
294.697
290.69
289.828
298.212
284.523
360.182
356.699
338.423
270
270
270
400.409
455.014
465.351
472.075
475.673
482.15
480.424
482.515
486.711
487.718
487.579
488.523
484.44
470.312
446.511
416.539
400.272
401.7
424.195
448.33
457.178
449.849
401.1
278.009
839.419
860.431
835.993
788.425
754.662
744.055
745.947
750.699
771.256
840.275
927.21
946.805
937.186
971.561
537.968
566.417
607.73
647.999
684.031
685.885
663.038
646.421
641
635.668
627.523
610.471
603.468
592.457
603.372
612.439
644.643
680.974
706.111
739.422
746.66
739.186
718.12
678.02
640.257
610.442
596.39
588.036
557.383
503.403
515.183
548.547
578.311
593.348
595.92
594.47
588.442
576.684
540.849
498.12
475.205
467.694
462.762
471.042
472.015
471
486.715
488.091
489.64
500.677
494.671
495.941
499.257
502.057
501.007
508.163
511.531
517.945
507.974
485.7
442.052
413.879
409.573
414.376
424.511
431.485
441.455
449.772
453.991
452.897
446.815
434.889
424.511
414.86
405.636
403.143
407.647
404.199
416.129
414.899
429.926
443.777
450.677
467.594
480.082
490.684
497.537
498.171
508.242
511.435
496.846
500.578
499.525
498.291
497.583
482.683
478.678
448.258
451.601
415.373
412.104
385.15
374.596
359.632
355.359
348.417
353.155
355.443
359.7
368.516
378.5
389.151
383.895
369.411
358.873
352.28
351.678
350.087
354.717
361.052
393.446
384.838
381.415
392.738
396.574
382.451
366.492
368.222
373.944
379.237
382.471
384.501
386.752
389.894
396.827
401.928
405.702
412.335
415.983
420.151
417.754
417.414
412.492
409.879
413.008
420.545
433.715
455.172
461.216
455.044
321.384
340.434
379.632
349.243
306.453
281.917
273.425
272.616
284.836
283.927
297.83
294.038
298.911
294.755
296.907
297.18
295.887
293.314
281.946
276.934
272.599
270
275.088
282.341
300.466
304.42
295.623
297.309
300.443
297.543
384.766
407.216
408.577
404.114
397.197
389.161
382.361
380.373
379.23
368.506
367.725
370.681
367.797
361.256
365.257
370.682
383.737
385.008
388.906
397.447
403.647
408.911
414.587
415.179
422.357
421.145
410.068
410.511
412.88
423.049
417.309
400.622
382.71
371.586
365.954
365.476
360.886
362.979
363.523
361.187
356.438
355.348
357.138
364.077
370.948
375.072
380.275
395.469
402.626
419.521
424.936
424.326
400.074
398.584
411.836
413.452
406.977
407.05
405.432
405.03
367.588
376.636
413.076
394.35
365.647
346.025
336.567
330.359
319.538
310.011
307.221
301.121
288.957
292.067
290.147
288.597
286.957
287.701
290.54
296.615
305.128
315.169
326.851
328.209
321.393
324.671
327.343
327.423
327.455
326.076
270
285.831
298.086
291.777
275.9
270
270
270
270
270
270
270
270
270
270
270
270
275.116
283.02
301.62
309.128
325.658
340.958
351.287
347.731
347.203
351.903
354.538
353.377
347.61
315.231
326.403
330.503
328.705
318.503
307.936
307.118
319.55
340.227
368.53
378.738
386.017
389.23
385.012
373.275
361.301
339.145
315.144
287.962
274.014
282.243
296.66
302.773
301.462
301.818
297.698
294.169
290.901
295.783
287.538
351.298
350.384
303.898
270
275.855
371.846
443.398
463.379
468.417
477.285
482.503
483.028
490.391
484.721
484.193
490.473
494.191
493.524
493.857
492.227
477.33
443.399
401.269
382.067
391.399
408.711
423.758
416.093
366.265
293.843
830.245
818.858
765.541
730.651
726.811
740.495
749.576
748.71
755.4
797.609
894.227
953.261
945.342
970.706
538.423
576.811
626.88
675.24
702.523
681.531
649.648
634.954
628
614.015
597.864
577.448
567.622
550.454
563.611
576.525
633.74
671.515
727.876
758.343
770.439
775.659
753.592
716.772
669.995
629.418
606.185
595.439
568.874
510.231
514.675
544.848
571.234
588.763
600.851
603.413
604.04
580.828
532.448
490.559
469.194
466.108
481.779
489.409
496.306
515.292
516.3
514.309
523.185
508.874
500.415
505.58
494.943
493.838
499.851
499.633
508.61
512.318
510.622
485.168
434.661
410.576
409.452
417.396
425.042
435.015
445.143
449.813
453.448
451.069
442.406
429.702
420.774
410.847
409.747
410.171
412.529
416.187
417.767
423.839
434.001
435.043
458.307
460.074
475.642
487.851
495.982
500.454
511.937
513.298
499.261
506.409
512.594
511.201
514.201
494.342
504.646
472.924
476.568
451.467
445.755
417.924
401.766
383.027
368.814
361.184
361.196
356.111
364.48
366.6
374.559
389.16
392.003
380.792
368.92
361.969
357.051
355.03
356.21
362.896
388.417
382.617
385.133
391.098
382.324
364.84
365.272
372.008
377.885
380.551
382.315
387.06
395.504
409.48
421.236
435.609
447.589
451.009
456.063
453.22
453.865
446.324
432.452
423.628
422.018
416.86
429.359
447.742
461.604
452.768
323.47
363.139
366.809
311.942
280.839
271.633
277.571
286.577
297.356
299.531
308.576
303.84
315.468
311.647
321.961
316.151
317.426
314.915
314.554
300.219
289.539
273.712
273.838
276.641
288.489
300.28
301.874
299.632
303.464
291.382
395.458
411.12
407.912
397.886
388.872
383.101
381.018
377.804
375.734
366.945
369.427
355.524
351.969
364.822
362.549
362.78
368.184
381.09
385.409
388.324
394.716
401.132
406.925
410.431
413.243
416.474
415.055
410.664
413.533
428.536
405.675
390.424
375.244
366.513
365.496
367.472
367.661
373.894
366.048
369.367
368.82
370.787
364.152
365.682
369.716
379.574
379.177
387.164
397.124
406.405
421.345
422.497
408.948
395.384
405.114
407.639
402.855
414.971
418.797
405.395
362.595
417.831
412.605
379.137
357.352
345.268
333.977
330.114
323.167
307.402
314.964
300.351
295.926
295.184
290.866
291.638
290.854
288.552
286.205
287.221
292.592
304.271
318.34
328.198
326.854
323.474
321.591
327.557
333.402
331.381
282.461
310.751
306.543
287.428
273.839
270
270
270
270
270
270
270
270
270
270
270
271.353
270
285.638
292.428
307.667
316.452
333.87
349.575
353.185
346.005
356.226
360.5
360.049
353.557
319.907
332.047
331.278
322.218
312.963
311.585
325.909
352.458
383.257
406.482
409.463
416.044
416.304
408.108
402.103
387.027
369.236
339.494
305.32
279.303
278.148
298.419
301.845
300.675
294.482
294.053
292.766
290.982
295.376
287.862
333.638
343.264
302.906
297.565
357.598
428.414
458.417
465.152
472.628
476.537
482.595
484.444
485.089
497.728
494.566
493.581
492.344
501.036
493.638
495.862
495.077
476.622
432.172
385.427
379.711
394.861
397.948
385.944
329.674
307.56
818.714
781.369
727.52
721.476
756.799
790.017
801.973
798.584
792.323
810.003
887.436
953.186
948.19
967.187
539.78
586.954
644.506
696.797
709.249
673.792
638.765
625.586
615.772
601.223
587.37
567.716
548.239
530.48
532.316
555.19
616.738
674.19
742.451
761.976
785.332
777.755
769.254
737.186
688.859
641.892
613.368
601.203
576.233
514.546
500.375
531.912
559.237
580.318
592.86
605.022
603.131
581.955
534.233
483.773
465.734
482.235
495.435
509.585
531.726
533.222
530.794
533.922
517.654
506.698
504.157
492.207
488.3
491.47
489.618
499.064
502.237
511.821
506.669
485.021
429.707
407.968
409.208
418.271
427.572
436.097
446.575
450.725
451.463
448.276
439.413
425.584
418.629
407.727
420.834
412.055
422.695
426.348
427.982
424.94
442.376
429.979
461.646
460.884
469.771
484.627
496.195
500.081
512.531
515.519
500.57
509.431
511.723
517.45
515.505
502.708
517.156
484.441
501.738
470.209
475.467
448.946
439.179
412.759
396.857
377.639
369.916
364.356
367.935
367.98
377.293
385.079
391.431
382.474
372.98
367.009
364.706
356.961
363.331
369.457
388.956
381.096
382.016
381.713
363.776
359.737
367.318
373.51
373.762
376.914
383.266
396.814
416.471
435.87
453.66
469.545
479.206
490.002
492.422
492.749
486.001
479.482
457.751
444.685
430.044
420.916
425.623
446.926
458.883
452.92
336.607
373.865
338.982
289.183
275.289
276.683
290.632
295.764
300.119
303.411
314.403
309.874
324.741
338.39
330.093
336.019
332.484
327.769
326.483
318.044
308.048
284.96
277.609
271.701
283.194
294.902
302.721
302.149
297.643
284.881
399.289
411.205
404.85
392.971
384.918
379.48
379.539
374.549
374.969
361.246
357.956
349.771
354.494
347.913
357.486
364.677
362.073
371.618
377.016
386.993
387.019
396.041
400.73
406.669
409.532
410.58
409.112
408.139
410.509
425.085
403.607
384.873
372.141
367.621
368.006
371.99
374.711
375.379
372.051
377.703
370.73
370.653
376.611
377.454
371.388
378.34
379.337
383.343
393.29
400.175
410.345
421.939
411.296
395.131
395.889
400.092
404.176
433.353
440.745
410.728
370.998
442.724
400.772
373.852
354.598
345.449
335.793
331.102
319.238
314.699
303.635
304.831
297.415
295.989
296.416
296.652
291.618
288.261
287.566
283.179
287.214
295.286
311.473
320.56
325.217
326.645
325.273
323.792
337.649
342.09
302.756
323.278
302.659
280.015
270
270.04
270
270
270
270
270
270
270
270
270
270
275.354
276.732
282.846
294.179
303.877
314.587
328.686
348.115
354.588
356.089
360.381
362.757
362.637
353.856
322.587
332.663
326.805
317.908
313.07
323.676
347.431
387.347
411.312
428.516
430.851
438.937
429.35
426.733
414.228
402.733
385.544
362.208
326.823
285.943
276.382
296.283
301.626
294.78
288.356
286.929
286.979
286.819
295.12
289.114
309.652
342.889
336.178
356.41
409.227
448.171
460.777
464.777
474.842
483.516
487.843
495.263
493.713
495.628
507.361
512.756
499.451
504.815
498.328
495.553
495.862
495.142
469.047
401.171
367.386
386.887
386.185
356.909
301.118
328.827
795.695
737.898
707.01
742.11
802.728
834.489
844.124
843.191
839.054
852.664
907.218
959.37
952.892
968.885
538.78
593.48
657.963
710.804
718.14
674.919
633.302
618.473
611.063
601.751
590.896
567.752
540.347
517.508
507.417
530.939
595.896
671.537
736.158
754.882
776.415
771.578
767.084
740.035
694.346
648.669
620.446
605.273
582.366
517.876
500.193
521.848
546.375
570.421
589.386
598.969
600.404
585.417
533.976
482.518
475.284
480.719
498.631
526.966
533.195
535.123
539.44
522.796
514.326
508.936
488.593
487.881
484.377
479.06
488.375
490.116
502.904
506.267
505.153
477.046
429.423
407.206
411.542
417.675
430.483
438.173
444.767
451.862
452.675
447.134
438.478
424.541
415.352
412.992
419.225
415.871
423.66
421.592
436.264
424.364
446.917
432.349
460.039
457.914
471.633
477.716
495.428
501.347
510.83
515.139
503.445
505.609
512.317
519.188
511.444
513.847
521.449
497.512
515.716
487.29
495.749
476.427
465.184
447.457
423.477
399.554
384.274
378.709
372.072
375.588
379.563
389.044
398.744
393.311
381.058
379.257
369.121
364.642
367.524
373.327
381.412
381.281
383.042
369.547
357.132
356.214
363.921
367.642
370.26
373.95
389.097
410.766
434.221
455.587
475.692
486.862
494.779
501.505
509.771
508.584
510.454
498.966
481.772
457.903
440.518
423.897
428.77
445.303
461.538
446.056
346.191
370.092
314.676
283.174
278.436
287.89
297.786
299.928
298.282
310.791
312.17
321.893
331.416
352.604
338.753
354.702
354.221
343.677
343.448
327.014
318.924
295.58
283.414
270
279.828
293.635
300.632
305.383
303.129
283.519
406.828
413.399
402.394
388.844
380.963
377.621
377.763
371.514
370.459
356.7
349.946
350.769
341.119
342.663
339.279
353.323
354.452
367.576
368.469
384.486
380.14
391.879
397.541
401.15
403.826
410.351
410.601
405.231
415.294
437.002
403.65
383.837
371.95
370.319
372.007
375.372
376.903
379.142
377.355
372.017
370.17
368.908
367.948
378.397
373.982
383.509
382.714
378.134
390.457
395.844
406.572
414.534
414.623
397.158
392.528
391.265
424.002
464.24
463.613
422.968
384.73
442.994
395.662
374.907
359.027
344.246
339.356
328.931
322.691
303.648
312.472
298.404
306.271
296.62
302.077
298.213
298.095
287.581
288.21
287.312
285.637
291.406
306.934
326.634
331.127
326.927
326.48
339.03
349.377
349.026
320.324
328.024
300.458
282.378
274.788
271.855
270
270
270
270
270
270
270
272.984
283.175
278.055
296.65
279.812
295.648
291.433
304.754
311.728
328.982
346.255
356.67
356.034
361.073
365.147
365.845
356.956
321.746
334.319
325.879
317.762
318.187
334.998
369.847
409.811
427.757
443.915
451.018
449.569
453.957
443.168
429.782
411.617
393.225
376.095
347.219
298.475
272.661
293.307
299.168
293.69
280.872
282.348
286.707
286.259
294.611
289.576
275.227
334.064
363.606
395.715
430.575
454.87
460.018
469.626
477.785
486.308
491.411
497.252
511.43
515.401
510.888
520.888
512.536
511.085
503.616
498.51
497.399
495.306
491.353
440.336
365.314
367.093
375.424
338.919
297.849
339.643
783.986
721.399
712.552
791.532
856.15
872.074
876.99
882.082
890.334
901.36
939.475
964.833
952.368
967.757
537.898
593.23
655.543
710.305
731.852
685.75
631.17
616.324
607.839
608.299
593.272
576.731
539.459
511.312
488.46
511.514
567.521
657
719.057
743.131
753.254
757.739
752.334
729.292
685.98
648.325
620.685
609.253
580.918
517.791
485.441
506.749
522.846
541.564
560.456
568.292
568.611
562.668
529.224
492.864
468.494
476.636
503.555
516.778
528.335
538.537
527.681
522.959
518.471
498.58
491.041
488.224
475.919
480.862
482.549
491.028
500.658
505.864
497.772
473.536
425.732
405.138
414.611
420.255
433.898
438.552
444.915
450.632
454.293
448.913
440.601
425.074
413.991
415.205
413.86
420.31
419.191
423.813
437.641
427.057
445.566
437.179
461.853
454.239
476.234
476.253
489.152
504.265
512.67
514.556
484.003
500.638
515.41
519.415
513.325
518.851
532.026
515.06
526.802
511.737
513.711
497.312
486.899
466.387
441.868
423.762
406.706
391.414
382.446
382.493
385.404
391.622
400.602
399.165
388.051
381.547
375.703
370.034
375.635
378.909
382.477
376.832
373.815
361.335
354.179
360.989
361.401
361.117
364.32
375.362
394.788
417.47
441.336
464.738
480.679
488.812
505.847
513.791
518.649
521.376
519.296
511.639
496.173
461.659
445.984
428.635
429.612
452.357
459.329
445.083
353.723
366.183
306.878
286.497
286.374
296.767
300.851
303.701
298.391
312.297
307.65
334.971
326.777
362.515
339.835
363.465
353.718
347.561
340.822
335.137
322.223
303.833
286.076
270.65
280.098
291.481
299.84
304.556
297.006
288.103
418.868
419.658
402.338
386.871
377.876
376.195
373.196
370.741
363.827
357.834
348.871
346.725
339.88
343.735
339.318
346.938
347.121
368.135
363.957
379.81
378.268
390.799
392.866
400.301
401.714
405.61
404.444
405.202
422.438
437.495
410.234
388.128
375.368
372.76
374.069
378.666
378.324
379.26
375.911
375.766
369.371
369.354
366.787
374.86
376.414
380.034
390.007
376.423
383.372
399.108
399.452
411.963
412.968
397.592
390.584
401.335
469.768
488.368
474.655
436.618
405.547
440.331
401.298
380.872
360.221
349.304
341.125
330.274
320.398
304.947
309.601
309.117
300.689
306.05
295.881
301.641
292.183
292.451
289.74
292.415
285.011
295.207
307.28
319.822
334.432
338.92
334.853
360.885
368.765
356.652
343.758
333.31
304.306
288.415
281.239
274.967
270
270
270
270
270
270
277.834
279.855
283.508
288.505
301.822
295.705
300.763
298.768
304.543
317.986
327.814
347.273
361.428
360.172
363.554
368.111
365.489
349.13
325.42
332.937
326.053
319.404
321.193
346.78
384.307
420.806
437.166
458.919
456.373
469.027
463.178
457.356
446.797
421.765
399.156
378.663
361.126
315.827
271.907
288.369
299.818
292.534
282.361
278.69
283.675
287.211
295.111
289.486
270
309.721
372.902
413.556
439.706
454.822
462.099
468.107
475.95
482.739
488.738
498.473
512.149
525.67
526.076
527.778
518.59
515.522
510.727
501.739
497.947
496.13
497.118
475.513
376.575
330.662
336.365
309.362
322.589
349.699
763.208
702.711
723.676
833.005
885.18
884.95
881.701
896.51
919.388
939.929
956.914
967.697
954.958
965.509
880.841
685.504
550.164
567.894
640.616
707.996
750.525
711.87
644.842
615.465
607.076
608.102
596.44
588.894
544.109
511.713
478.479
493.128
534.914
636.879
693.878
728.675
731.056
727.742
726.353
703.578
674.049
641.656
625.086
612.293
574.711
514.394
495.19
476.434
478.962
487.307
504.855
518.886
529.37
530.572
534.63
538.069
533.869
491.421
465.553
478.529
490.007
505.338
524.659
527.06
526.415
528.362
509.862
507.888
491.606
487.025
478.784
480.147
486.238
493.287
500.568
503.408
491.977
470.008
460.942
430.749
419.907
403.374
414.308
423.584
435.157
437.157
441.649
450.523
454.746
454.021
443.19
433.302
415.761
413.142
410.178
416.444
423.855
422.659
426.997
428.197
447.46
435.644
459.722
452.461
471.062
480.893
490.434
502.672
518.045
519.466
529.883
548.031
514.528
523.134
516.931
525.917
520.15
515.384
539.891
539.721
528.375
549.929
526.665
527.636
508.342
494.833
473.763
448.363
418.321
402.534
394.878
391.567
391.594
399.651
405.657
404.931
400.213
389.486
375.88
379.998
378.423
381.568
382.558
372.479
375.064
374.627
368.926
352.316
352.122
354.571
358.453
358.827
363.062
374.47
392.387
414.247
440.715
459.463
471.708
487.277
496.987
502.165
515.195
516.125
516.315
513.519
487.445
460.014
443.418
428.744
439.554
459.248
457.251
426.35
370.71
363.939
356.477
333.556
300.916
292.612
293.987
304.452
306.621
312.374
301.942
309.608
305.525
331.84
328.149
355.609
340.367
354.211
349.144
346.937
342.085
332.896
325.171
302.866
287.228
273.042
281.765
292.849
301.537
306.955
335.508
405.662
417.585
411.392
417.157
409.859
394.454
381.419
374.802
373.567
369.632
371.326
360.773
357.681
346.356
347.088
343.889
343.191
337.308
350.293
345.606
364.68
363.389
379.032
377.07
392.009
391.035
398.724
401.97
405.546
407.182
433.839
439.784
433.227
426.818
428.495
404.618
390.119
376.571
374.826
374.61
382.622
379.18
379.041
375.858
376.801
371.294
366.132
371.517
375.121
377.258
382.634
381.938
378.893
381.465
397.154
397.442
410.715
410.45
396.601
389.639
464.933
511.458
485.602
462.423
447.34
433.344
419.457
419.313
420.71
404.673
382.407
361.793
349.306
345.111
332.494
319.976
312.469
312.501
314.447
317.561
310.041
313.634
305.589
309.85
303.411
303.938
299.52
296.815
300.812
313.602
330.824
338.096
346.05
367.768
374.593
363.013
361.225
356.015
343.469
335.888
321.98
303.251
288.881
283.864
277.302
270
270
270
270
272.96
271.364
281.998
277.73
292.96
286.425
305.491
302.405
310.424
296.812
312.636
313.846
332.635
350.198
360.708
361.984
366.938
372.636
371.259
361.96
366.553
355.559
339.42
333.885
329.854
319.161
325.386
352.716
389.332
421.779
445.116
460.343
464.114
473.092
469.559
461.053
453.986
428.313
402.899
379.765
366.146
331.924
273.757
281.179
299.572
296.818
286.425
281.498
284.28
290.888
297.344
289.031
270
270
270
293.934
352.798
418.359
442.692
451.076
456.247
466.032
474.123
483.502
488.939
502.936
512.087
523.299
524.059
531.03
520.601
517.062
511.049
504.839
498.54
496.257
498.477
490.452
410.41
313.238
310.376
320.614
337.792
295.984
533.684
564.921
761.925
705.826
754.546
874.393
907.892
888.883
865.392
874.539
914.479
947.634
962.429
962.997
954.928
950.208
822.228
638.487
550.128
573.169
640.846
706.196
768.46
759.693
682.979
631.529
607.273
603.884
599.546
593.818
556.42
517.985
475.923
479.685
504.647
603.009
670.416
710.28
709.096
699.49
693.94
679.179
657.222
641.683
626.991
614.74
570.99
521.843
506.229
487.792
482.841
479.18
482.447
492.267
490.239
488.698
489.225
501.097
515.668
491.768
469.765
466.753
480.176
499.298
508.001
523.494
528.486
523.99
512.404
516.699
493.468
497.591
485.354
486.267
489.922
499.144
501.368
500.538
485.832
474.551
459.261
429.53
417.319
404.213
417.487
429.032
437.806
434.272
436.481
445.448
456.705
459.07
453.044
439.938
427.174
416.797
412.524
414.261
418.663
422.438
434.372
427.554
442.374
433.86
456.036
449.436
472.094
485.103
500.501
515.608
523.291
530.931
529.8
543.564
520.391
521.931
516.917
516.63
523.69
522.16
529.572
554.917
536.953
550.083
545.626
527.941
527.165
501.407
474.725
451.178
430.925
416.469
404.841
400.172
402.017
409.987
416.736
410.805
400.356
382.978
387.613
385.587
386.367
383.177
383.345
372.852
369.975
364.46
350.394
346.775
348.329
352.903
351.367
353.272
357.367
368.406
385.555
409.022
428.801
443.807
462.876
474.213
481.643
490.361
503.467
499.262
503.99
488.128
467.969
450.868
438.136
437.811
451.829
458.846
436.229
395.021
376.286
369.005
355.275
337.317
319.578
308.434
304.324
312.906
315.079
322.11
308.839
309.145
299.244
320.158
321.912
344.117
335.473
348.979
343.875
335.034
339.551
324.77
320.683
295.691
284.185
277.603
284.181
293.597
302.867
321.041
383.459
420.759
423.8
424.806
429.442
418.666
399.448
383.16
374.424
371.4
369.858
370.067
360.877
359.886
346.898
343.525
339.363
339.43
345.219
345.492
349.677
367.486
365.201
376.858
382.193
391.471
391.164
398.43
401.437
401.932
413.83
438.575
434.312
430.618
428.565
424.906
413.71
396.203
380.421
376.774
377.8
382.424
381.965
384.663
376.353
380.726
377.844
379.585
373.794
381.346
376.398
384.78
376.863
378.967
385.31
396.286
399.643
409.264
405.35
393.426
430.848
524.006
507.897
479.319
463.579
454.675
447.308
442.869
444.024
436.905
413.168
394.267
376.716
363.89
351.768
336.553
324.854
317.236
309.595
315.761
312.336
322.869
309.28
317.78
310.078
313.644
304.429
299.568
297.905
305.742
321.603
341.049
353.394
361.662
386.936
391.458
380.329
373.716
375.004
367.085
359.059
346.021
313.726
295.015
288.097
283.036
272.982
270
270
270
270
270
277.641
281.987
291.458
282.558
313.123
296.046
305.737
307.942
312.164
321.404
336.085
353.491
363.383
364.608
365.49
368.064
369.763
363.866
368.163
357.482
357.128
344.684
333.334
323.225
326.671
349.344
384.199
419.198
441.019
459.388
462.215
474.399
472.227
468.583
453.686
426.869
402.247
376.721
366.825
346.626
277.783
273.038
295.784
299.683