/*--------------------------------*- C++ -*----------------------------------*\
| =========                 |                                                 |
| \\      /  F ield         | OpenFOAM: The Open Source CFD Toolbox           |
|  \\    /   O peration     | Version:  2.1.1                                 |
|   \\  /    A nd           | Web:      www.OpenFOAM.org                      |
|    \\/     M anipulation  |                                                 |
\*---------------------------------------------------------------------------*/
FoamFile
{
    version     2.0;
    format      ascii;
    class       volScalarField;
    location    "0.003850000";
    object      G;
}
// * * * * * * * * * * * * * * * * * * * * * * * * * * * * * * * * * * * * * //

dimensions      [0 0 0 0 0 0 0];

internalField   nonuniform List<scalar> 
12384
(
1
1
1
1
1
1
1
1
1
1
1
1
1
1
1
0.996451
0.987616
0.995918
0.998069
0.998793
0.999339
0.999491
0.999758
0.99995
0.999968
0.999997
0.999997
1
1
1
1
1
1
1
1
1
1
1
1
1
1
1
1
1
1
1
0.999999
0.999972
0.999753
0.999225
0.99897
0.998645
0.998004
0.995726
0.99139
0.979933
0.977251
0.958678
0.962534
0.998926
0.999999
1
1
1
1
1
1
1
1
1
1
1
1
1
0.999989
0.998716
0.991368
0.968136
0.925383
0.858052
0.790972
0.697069
0.619838
0.531144
0.473258
0.37963
0.371429
0.319458
0.314742
0.333221
0.354664
0.390131
0.416083
0.439203
0.477084
0.549482
0.668082
0.784791
0.926183
0.997413
0.999919
0.999987
1
1
1
1
0.999999
0.999993
0.999964
0.999821
0.999246
0.997531
0.992382
0.982411
0.954561
0.884823
0.850872
0.770507
0.74038
0.696954
0.772586
0.706004
0.726105
0.784438
0.755073
0.885566
0.896429
0.944036
0.927209
0.993402
0.998506
0.999785
0.999996
1
0.999999
0.999655
0.998457
0.997704
0.995363
0.985026
0.957412
0.923209
0.887591
0.857338
0.822851
0.778695
0.712818
0.632491
0.596554
0.639525
0.624417
0.555349
0.433385
0.287308
0.302799
0.355682
0.395175
0.437543
0.813899
0.976154
0.999952
1
1
1
1
0.999994
0.999957
0.999865
0.993695
0.848132
0.898976
0.96003
0.998045
0.999625
0.999895
0.999938
0.999903
0.999845
0.999092
0.992826
0.976557
0.94451
0.931711
0.922744
0.914899
0.923135
0.935438
0.957555
0.975182
0.987258
0.990286
0.970129
0.976384
0.999994
1
0.999967
0.999689
0.999874
0.999947
0.99999
0.999996
1
1
1
1
0.999983
0.999717
0.998926
0.998747
0.999116
0.999408
0.999725
0.99985
0.999897
0.999927
0.999926
0.999929
0.999939
0.999983
0.999996
1
1
1
1
1
1
1
1
1
1
1
1
1
0.999999
0.999989
0.999779
0.995198
0.97395
0.901284
0.872435
0.865417
0.903818
0.952191
0.985981
0.998731
0.999994
1
1
1
1
1
1
1
1
1
1
1
1
1
1
1
1
1
1
1
1
1
1
1
1
0.999998
0.982302
0.770953
0.637786
0.496309
0.427536
0.342522
0.314074
0.316687
0.369653
0.590345
0.898021
0.999137
1
1
1
1
1
1
1
1
1
1
1
1
1
1
1
1
1
1
1
1
1
1
1
1
1
1
1
1
1
1
1
1
1
1
1
1
1
1
1
1
1
1
1
1
1
1
1
1
1
1
1
1
1
1
1
1
1
1
1
1
1
1
1
1
1
1
1
1
1
1
1
1
1
1
1
1
1
1
1
1
1
1
1
1
1
1
1
1
1
1
1
1
1
1
1
1
1
1
1
1
1
1
1
1
1
0.999781
0.358159
0.782313
0.914951
0.908734
0.850762
0.730495
0.599285
0.551698
0.474149
0.557358
0.693709
0.759103
0.927328
0.957348
0.990055
0.996881
0.996488
0.991688
0.973462
0.96534
0.971453
0.989906
0.997008
0.997603
0.987822
0.930518
0.937679
0.999972
1
1
0.988984
0.875525
0.63582
0.385573
0.28062
0.24483
0.26403
0.288695
0.317483
0.285515
0.232785
0.149055
0.101405
0.0497569
0.116713
0.443191
0.968394
0.998149
0.999993
0.999999
1
1
1
0.999999
0.999965
0.988008
0.91484
0.910304
0.999998
0.999682
0.710645
0.352995
0.134264
0.0431573
0.0130064
0.00397621
0.00129353
0.000443989
0.000159652
6.20297e-05
3.02958e-05
1.42204e-05
9.75584e-06
7.02582e-06
5.95518e-06
6.39104e-06
8.98143e-06
1.72483e-05
4.50075e-05
0.00015733
0.000664792
0.00364046
0.0194433
0.0666799
0.207923
0.599152
0.910864
0.981941
0.999999
1
0.999816
0.998282
0.991719
0.9689
0.914682
0.810978
0.663361
0.506258
0.351936
0.250121
0.175391
0.0928158
0.0741701
0.0688965
0.0435449
0.0372235
0.0493363
0.0192498
0.0188483
0.0154341
0.00946102
0.020564
0.0221034
0.0216513
0.101985
0.363525
0.597446
0.765544
0.999046
0.995199
0.681486
0.603042
0.571068
0.501616
0.416143
0.377991
0.375832
0.377505
0.348121
0.249295
0.136285
0.097256
0.0827043
0.0713773
0.0563486
0.0452259
0.0274875
0.0116891
0.00388767
0.000965237
0.000544582
0.000325835
0.00272782
0.0106212
0.0786977
0.498289
0.966832
0.998667
0.999997
0.999999
0.976091
0.871704
0.712849
0.145052
0.0430993
0.144864
0.565877
0.763133
0.822835
0.851503
0.851562
0.834181
0.793979
0.678304
0.378718
0.379513
0.290115
0.23682
0.169777
0.151326
0.14731
0.176546
0.216362
0.273619
0.32672
0.320897
0.122317
0.0291291
0.938304
0.999147
0.549986
0.487272
0.46765
0.349373
0.206511
0.301653
0.744497
0.411131
0.391111
0.161788
0.359892
0.42166
0.545138
0.62908
0.740519
0.846358
0.91944
0.95363
0.974401
0.983814
0.985959
0.984689
0.988252
0.992143
0.995353
0.996852
0.998691
0.999999
1
1
1
0.99999
0.665301
0.0297126
0.0149317
0.0525455
0.0773431
0.0298825
0.00928496
0.0034428
0.00202875
0.00175257
0.00202701
0.00315027
0.00581017
0.0109438
0.0428464
0.126488
0.190254
0.355076
0.430693
0.757612
0.990416
1
1
1
1
1
1
1
1
1
1
1
0.999957
0.903537
0.658176
0.627847
0.753585
0.885516
0.928749
0.802195
0.141511
0.0384337
0.001615
0.00132054
4.11187e-05
4.35984e-05
6.21546e-05
0.00010746
0.000211133
0.000391205
0.000670591
0.00115236
0.00239909
0.00611126
0.0222086
0.0933868
0.9895
1
1
1
1
1
0.999997
0.98033
0.764262
0.413462
0.177782
0.616506
0.683987
0.419878
0.250918
0.195351
0.152202
0.155078
0.710563
0.996985
1
1
1
0.999993
0.997451
0.873174
0.265292
0.118965
0.713894
0.999523
1
1
1
1
1
0.999767
0.993183
0.984166
0.982179
0.986005
0.981555
0.971286
0.962393
0.962674
0.950719
0.952863
0.947955
0.969088
0.987797
0.998072
0.999926
1
1
1
1
1
1
1
1
1
1
1
1
1
1
1
0.999995
0.999971
0.999906
0.999608
0.999474
0.999924
0.999988
1
1
1
1
1
1
1
1
1
1
1
1
1
1
1
1
1
1
1
1
1
1
1
1
1
1
1
1
1
1
1
1
0.99245
0.89113
0.953445
0.941861
0.864702
0.733539
0.519481
0.317427
0.224278
0.152598
0.216131
0.34381
0.52331
0.908302
0.976208
0.998158
0.999842
0.999907
0.999512
0.994261
0.969263
0.964559
0.981985
0.997534
0.999208
0.997786
0.964946
0.928233
0.999536
1
0.999995
0.671529
0.444871
0.327295
0.294275
0.206838
0.151457
0.11165
0.105109
0.0884425
0.101269
0.0811465
0.0778051
0.0537566
0.0369385
0.021301
0.0376671
0.480409
0.952578
0.999853
0.999998
1
1
1
1
0.999998
0.999021
0.779358
0.637722
0.999928
0.999059
0.387409
0.162571
0.0719744
0.0303567
0.0117326
0.00426419
0.00140995
0.000480766
0.000151945
5.36139e-05
1.97416e-05
8.8958e-06
4.62098e-06
3.12374e-06
2.41688e-06
2.3288e-06
2.81573e-06
4.45761e-06
1.03303e-05
3.6497e-05
0.000179129
0.000920069
0.00423152
0.0168173
0.0522726
0.177169
0.561663
0.891145
0.999899
1
0.995646
0.980387
0.964061
0.950302
0.921592
0.864327
0.76898
0.639206
0.516827
0.428521
0.322402
0.273992
0.244605
0.168965
0.134624
0.134504
0.0940405
0.0523605
0.050444
0.0146132
0.00987255
0.00499436
0.00393762
0.00477734
0.0133351
0.13238
0.397295
0.601363
0.982282
0.953604
0.436794
0.409429
0.354664
0.279297
0.248261
0.239788
0.23646
0.211122
0.153084
0.0830751
0.0691252
0.0402523
0.0337669
0.0456287
0.0756744
0.105878
0.104137
0.0722839
0.0379649
0.0177549
0.013473
0.00536494
0.0282332
0.0280504
0.0651382
0.281236
0.829492
0.993982
0.99998
0.999985
0.948929
0.794787
0.288887
0.0720971
0.0878438
0.474586
0.650271
0.734337
0.693406
0.670036
0.608511
0.503654
0.346224
0.1779
0.0371183
0.0289756
0.0142881
0.0180517
0.0221708
0.0459006
0.0986904
0.191754
0.27896
0.320828
0.346165
0.341715
0.118606
0.00694096
0.731672
0.965769
0.280591
0.32338
0.283533
0.135024
0.0679948
0.464612
0.414058
0.176727
0.155492
0.260118
0.295645
0.402127
0.517948
0.588792
0.695747
0.776712
0.830323
0.858909
0.870592
0.894173
0.899862
0.903549
0.955563
0.992557
0.999475
0.99961
0.999031
0.999992
1
1
1
0.970665
0.0979108
0.00632981
0.017293
0.0763523
0.0406556
0.0107074
0.0034857
0.00193415
0.00152735
0.00157389
0.00182791
0.00252418
0.00346123
0.00561702
0.0111784
0.0331119
0.0494476
0.0642829
0.061184
0.213544
0.571353
0.937346
0.999984
1
1
1
1
1
1
1
1
1
0.985973
0.631349
0.352953
0.432289
0.714623
0.912057
0.927255
0.766168
0.141375
0.115764
0.00947171
0.0169852
0.000816611
0.00133397
0.000253398
9.52222e-05
5.84722e-05
6.18036e-05
6.49768e-05
9.58831e-05
0.000348094
0.00284479
0.0179244
0.0238869
0.979872
1
1
1
1
1
0.999943
0.959064
0.795396
0.539421
0.276061
0.487105
0.479612
0.387058
0.262023
0.169616
0.169302
0.429023
0.930946
0.999743
0.999995
0.999977
0.998644
0.967491
0.585248
0.0341341
6.55848e-05
2.81142e-07
0.000244775
0.580077
1
1
1
1
1
0.999821
0.998046
0.997319
0.98298
0.920736
0.873968
0.82842
0.822591
0.833625
0.845017
0.763555
0.797053
0.831814
0.911174
0.963638
0.9896
0.99829
0.999967
1
1
1
1
1
1
1
1
1
1
1
1
1
0.999999
1
1
1
1
1
1
1
1
1
1
1
1
1
1
1
1
1
1
1
1
1
1
1
1
1
1
1
1
1
1
1
1
1
1
1
1
1
1
1
0.991596
0.957629
0.876331
0.746319
0.547654
0.316941
0.215985
0.165605
0.123027
0.23864
0.231768
0.60666
0.890449
0.991432
0.999839
0.999993
0.999998
0.999982
0.99851
0.984274
0.962627
0.985757
0.998076
0.999812
0.999061
0.968527
0.892316
0.998411
1
0.999759
0.428182
0.384448
0.396372
0.340233
0.339023
0.316083
0.227375
0.137685
0.110655
0.0665118
0.0736819
0.0518593
0.0683228
0.0263816
0.0163121
0.0117879
0.14551
0.837103
0.999147
0.99998
0.999999
1
1
1
0.999999
0.999833
0.739626
0.248751
0.999081
0.99436
0.143687
0.0544789
0.0294975
0.0168171
0.00919516
0.00484352
0.0021973
0.000877723
0.000332195
0.000116619
4.76356e-05
2.06524e-05
1.30233e-05
8.47013e-06
6.3447e-06
5.67024e-06
5.75428e-06
6.95448e-06
1.02107e-05
2.34048e-05
9.15093e-05
0.000439878
0.00199137
0.00739025
0.0220272
0.0567972
0.218581
0.640494
0.997957
1
0.955022
0.946796
0.950549
0.939657
0.914024
0.88568
0.839851
0.772895
0.695574
0.581697
0.53572
0.532083
0.453355
0.449549
0.442627
0.342651
0.338966
0.286845
0.131182
0.0765431
0.0148613
0.0032165
0.00155329
0.00105432
0.0028514
0.0534443
0.260523
0.459248
0.945866
0.8674
0.261211
0.242096
0.187321
0.162612
0.170843
0.186622
0.177684
0.12944
0.0751253
0.0279198
0.00876003
0.00715479
0.00885986
0.0349735
0.152486
0.233276
0.246055
0.222926
0.182235
0.137677
0.117257
0.0835085
0.118767
0.101108
0.130965
0.243871
0.760075
0.980417
0.999988
0.999906
0.902672
0.570398
0.149557
0.0711807
0.233732
0.471085
0.645291
0.660733
0.621601
0.484769
0.410443
0.305901
0.145444
0.073702
0.00862603
0.00927805
0.00179568
0.00302684
0.00961668
0.0413669
0.150602
0.312632
0.404626
0.405356
0.383256
0.354807
0.112197
0.00194265
0.477926
0.863428
0.188592
0.238915
0.195143
0.0593896
0.0742747
0.38643
0.325481
0.217175
0.156306
0.210968
0.332791
0.338796
0.426893
0.562477
0.675623
0.739477
0.763116
0.774645
0.756472
0.745037
0.756223
0.777101
0.878107
0.97369
0.99649
0.999422
0.999006
0.999857
1
1
0.979296
0.498142
0.0172895
0.0051526
0.0502222
0.0612902
0.02087
0.00600639
0.00308639
0.00237038
0.00228563
0.00246764
0.00297572
0.00339277
0.00371937
0.00361908
0.00331598
0.00310797
0.00333767
0.00434317
0.0167558
0.0448468
0.21437
0.574574
0.952706
0.999995
1
1
1
1
1
1
1
0.999973
0.860056
0.343083
0.122549
0.143052
0.514495
0.890344
0.928453
0.807832
0.203606
0.259986
0.041617
0.0467809
0.00463832
0.00157201
0.000854634
0.00033157
4.50319e-05
2.61765e-05
1.77436e-05
1.979e-05
9.06629e-05
0.001181
0.012064
0.00996121
0.996318
1
1
1
1
0.999999
0.980781
0.80138
0.752477
0.65917
0.40117
0.697033
0.252115
0.405252
0.564014
0.536518
0.44886
0.638622
0.94229
0.993433
0.998704
0.996949
0.963363
0.77461
0.324814
0.00359671
1.65827e-07
1.69156e-08
2.22384e-06
0.00235609
0.99994
1
1
1
0.999998
0.999373
0.997547
0.980941
0.906553
0.810227
0.721942
0.749499
0.660055
0.614738
0.417813
0.490632
0.391554
0.488523
0.644263
0.795634
0.925383
0.977994
0.995654
0.99992
1
1
1
1
1
1
1
1
1
0.999996
0.999999
1
1
1
1
0.999999
0.999997
0.999993
0.999997
1
1
1
1
1
1
1
1
1
1
1
1
1
1
1
1
1
1
1
1
1
1
1
1
1
1
1
1
1
1
1
0.999994
1
0.97519
0.878987
0.754726
0.612338
0.516097
0.460378
0.483087
0.544407
0.565895
0.751716
0.760564
0.951707
0.992766
0.999813
0.999999
1
1
0.999997
0.999023
0.983278
0.978528
0.993355
0.999807
0.999964
0.999364
0.937095
0.779086
0.981729
1
0.999145
0.386047
0.376989
0.397895
0.538243
0.553079
0.505406
0.429126
0.301379
0.181167
0.151927
0.111641
0.107743
0.0726332
0.030611
0.0218575
0.0120077
0.26718
0.941162
0.999454
0.999974
0.999992
0.999984
0.999966
0.999963
0.999947
0.999249
0.754023
0.0711961
0.986974
0.940113
0.0265261
0.0112558
0.00919515
0.00853648
0.00766937
0.00585718
0.00394347
0.00193492
0.000931104
0.000423645
0.000187112
0.000112371
6.73301e-05
5.56679e-05
4.79859e-05
4.28253e-05
4.02041e-05
3.69204e-05
3.55693e-05
4.73347e-05
9.83689e-05
0.000350721
0.0014296
0.00467124
0.0125376
0.0263358
0.0914456
0.367813
0.989321
0.99999
0.904384
0.947482
0.935646
0.872843
0.803921
0.794184
0.833988
0.848464
0.795281
0.756635
0.768561
0.730132
0.756387
0.792782
0.762919
0.806028
0.74079
0.600817
0.439102
0.107837
0.0220507
0.00254267
0.000439637
0.000434217
0.00111788
0.0285891
0.181902
0.338029
0.890252
0.762806
0.137954
0.120441
0.0965857
0.107454
0.142112
0.166471
0.138611
0.0824512
0.0390245
0.0100665
0.00184687
0.000894797
0.00410281
0.0532931
0.188597
0.288228
0.355629
0.473437
0.614571
0.595149
0.576277
0.46087
0.244827
0.365572
0.258754
0.378918
0.748504
0.975066
0.999982
0.999221
0.833792
0.250414
0.0629859
0.0725581
0.264072
0.485212
0.570971
0.584277
0.460986
0.342842
0.30529
0.212045
0.0848718
0.027228
0.00479254
0.00219769
0.000296541
0.000554841
0.00198143
0.0115204
0.0727813
0.253313
0.403276
0.427905
0.400108
0.315778
0.0486182
0.000521074
0.337459
0.760548
0.130583
0.16742
0.14779
0.0404359
0.0402509
0.244564
0.317086
0.265559
0.20906
0.21086
0.25318
0.381929
0.455577
0.479803
0.538083
0.590096
0.652458
0.657194
0.646763
0.603865
0.585762
0.567038
0.710848
0.858471
0.946193
0.980582
0.985644
0.963176
0.999994
1
0.600207
0.0521419
0.0013544
0.00937216
0.05712
0.0444875
0.0130726
0.00554151
0.00398413
0.00423515
0.00523615
0.00686594
0.00821733
0.00871135
0.0070514
0.00496626
0.00309397
0.00215154
0.00195683
0.00241941
0.00335515
0.0116076
0.0972418
0.375493
0.778898
0.985438
0.999999
1
1
1
1
1
1
0.998477
0.796293
0.200041
0.0443581
0.0322653
0.241328
0.806579
0.926817
0.854376
0.338259
0.370039
0.109861
0.140166
0.0344143
0.0215918
0.00306255
0.000242391
7.14812e-05
2.69867e-05
1.32835e-05
1.04575e-05
3.22143e-05
0.000436667
0.0047965
0.00610402
0.998495
1
1
1
0.999982
0.943289
0.752537
0.65955
0.73831
0.83464
0.773401
0.506013
0.621737
0.501167
0.709779
0.799263
0.776918
0.813718
0.8844
0.973664
0.973465
0.971925
0.766114
0.474558
0.0689578
0.000399545
4.2233e-09
2.75076e-11
1.08604e-05
0.00197614
0.986085
1
1
1
0.999908
0.997648
0.987998
0.934466
0.833276
0.730067
0.74715
0.562677
0.606268
0.450265
0.535024
0.415943
0.463867
0.403087
0.435421
0.587453
0.736848
0.896346
0.967747
0.994573
0.999996
1
1
1
1
1
1
1
0.999222
0.999875
0.999998
1
1
0.999999
0.999978
0.999849
0.999408
0.999596
0.999851
0.999995
1
1
1
1
1
1
1
1
1
1
1
1
1
1
1
1
1
1
1
1
1
1
1
1
1
1
1
1
1
1
0.999981
0.999689
0.902571
0.793754
0.720398
0.696818
0.650371
0.740262
0.8437
0.909035
0.981661
0.995707
0.999673
0.999969
0.999998
1
1
1
1
0.999969
0.997064
0.984692
0.995318
0.999835
0.999991
0.99996
0.988298
0.560145
0.372781
0.936458
1
0.993435
0.365423
0.427612
0.515262
0.63627
0.700571
0.62368
0.515821
0.417543
0.357365
0.334739
0.310374
0.193314
0.0866507
0.0441084
0.0279277
0.170903
0.863719
0.997704
0.999942
0.999847
0.997935
0.983604
0.978511
0.9923
0.997435
0.991585
0.615111
0.0130423
0.954242
0.652379
0.00410312
0.00345606
0.00459816
0.00635893
0.00724297
0.00734822
0.00629539
0.00489672
0.00325061
0.00258611
0.00178678
0.00155355
0.00149254
0.00144155
0.00128135
0.000992495
0.000638378
0.000424437
0.000259346
0.000185334
0.000216355
0.000487517
0.00156683
0.00430802
0.00960479
0.0169983
0.0446825
0.184432
0.965536
0.999613
0.923799
0.959058
0.849851
0.685239
0.615931
0.708401
0.841489
0.908295
0.92998
0.925243
0.890578
0.911425
0.938129
0.949761
0.976201
0.974226
0.92433
0.773181
0.252296
0.0495192
0.00657041
0.00060041
0.000259508
0.000254685
0.0010742
0.0257407
0.154351
0.232279
0.834358
0.666873
0.0636582
0.0535573
0.0543369
0.0813508
0.134053
0.157151
0.112671
0.0585854
0.0241152
0.00486499
0.000773594
0.00043208
0.00166466
0.0380326
0.128488
0.209295
0.319138
0.541733
0.822478
0.963558
0.976294
0.815056
0.633135
0.709064
0.512363
0.593832
0.892504
0.988292
1
0.996495
0.59942
0.140638
0.0425498
0.064397
0.242321
0.393261
0.500257
0.401684
0.368424
0.277933
0.272096
0.119496
0.0333189
0.013243
0.00154082
0.000104607
9.21273e-05
0.000144168
0.000303938
0.00107259
0.00572618
0.0410805
0.183101
0.337562
0.359163
0.244004
0.022145
0.000163422
0.186666
0.611605
0.114375
0.110337
0.0927034
0.0281781
0.0221081
0.150104
0.270394
0.28291
0.27796
0.279853
0.307547
0.339891
0.457924
0.466751
0.32128
0.280396
0.350586
0.378564
0.405654
0.385853
0.334542
0.28472
0.305744
0.518073
0.796673
0.963866
0.972233
0.789808
0.999639
0.999939
0.126916
0.0084993
0.00115529
0.0196127
0.0631219
0.0328855
0.0118669
0.00638423
0.00650516
0.00924029
0.0158107
0.0254603
0.0336947
0.0305383
0.019423
0.00937512
0.00432334
0.00227714
0.00167067
0.0018569
0.0028214
0.00437889
0.043233
0.291776
0.692121
0.956078
0.998316
1
1
1
1
1
0.999999
0.995934
0.870861
0.372091
0.0499272
0.0166951
0.0864664
0.621693
0.909007
0.885595
0.509956
0.427824
0.20147
0.270451
0.0997477
0.100167
0.028541
0.00434977
0.000286238
6.91335e-05
2.66134e-05
1.75578e-05
2.83869e-05
0.000169021
0.00167164
0.00401006
0.991871
1
0.999998
0.993153
0.863061
0.6096
0.500267
0.554908
0.798329
0.893368
0.921877
0.908855
0.64544
0.792868
0.821255
0.833103
0.878181
0.852126
0.883774
0.877873
0.929457
0.816456
0.613885
0.194223
0.040364
8.43031e-05
1.82809e-11
6.20959e-12
5.01858e-05
0.00118835
0.998163
1
0.999467
0.999978
0.999727
0.998116
0.970426
0.879604
0.733326
0.734457
0.644324
0.670027
0.507185
0.648857
0.53279
0.564959
0.502494
0.391194
0.30109
0.351475
0.575322
0.755559
0.871092
0.953332
0.998787
1
1
1
1
1
1
1
0.990528
0.999872
1
1
0.999998
0.999917
0.999581
0.997666
0.997183
0.998051
0.999279
0.9999
0.999995
1
1
1
1
1
1
1
1
1
1
1
1
1
1
1
1
1
1
1
1
1
1
1
1
1
1
1
1
1
0.999992
0.993724
0.711142
0.589026
0.469839
0.578741
0.737067
0.794132
0.904132
0.953252
0.994859
0.999333
0.999998
1
1
1
1
1
0.999959
0.998587
0.996997
0.999351
0.999972
0.999988
0.999915
0.986219
0.574819
0.119062
0.212742
0.841283
1
0.97909
0.35407
0.377986
0.467611
0.555464
0.571216
0.505343
0.477934
0.608424
0.703385
0.653303
0.446461
0.192242
0.0854709
0.0766512
0.310812
0.874041
0.991486
0.982838
0.78428
0.364789
0.319454
0.253445
0.163541
0.472289
0.841702
0.869276
0.297169
0.00323044
0.893216
0.31835
0.00180607
0.00218268
0.00344404
0.0048191
0.00609231
0.00728525
0.00791088
0.00890747
0.00927913
0.0118893
0.0146418
0.021892
0.03305
0.0456319
0.0479199
0.0335628
0.0153658
0.0058988
0.00209983
0.00089996
0.000678223
0.0010304
0.00240353
0.00497405
0.00891331
0.0134573
0.027433
0.0950698
0.925127
0.997913
0.963013
0.942042
0.7174
0.456607
0.481285
0.672633
0.844973
0.944288
0.969668
0.952018
0.967949
0.979096
0.985333
0.995222
0.995578
0.963794
0.682161
0.111351
0.033918
0.00336192
0.000486596
0.00019251
0.000143353
0.000307546
0.00395258
0.0395074
0.137255
0.157072
0.760642
0.589544
0.0265372
0.024538
0.0337961
0.0690019
0.135927
0.154513
0.100535
0.048289
0.0184394
0.00384777
0.000490651
0.000219609
0.000599849
0.00981796
0.0564102
0.116776
0.209032
0.316109
0.673033
0.880353
0.91822
0.907813
0.914875
0.842924
0.830944
0.914889
0.971225
0.994872
1
0.986383
0.292319
0.0657249
0.0291402
0.0519999
0.132005
0.239288
0.292526
0.286804
0.202642
0.228316
0.183421
0.0762817
0.0265441
0.00325704
0.000272337
0.000179779
0.00012764
0.000159879
0.000271781
0.000432226
0.000808057
0.00204583
0.00834397
0.0455367
0.112139
0.0824499
0.00644057
8.06919e-05
0.0856091
0.451463
0.103538
0.0671309
0.0437458
0.01659
0.00971445
0.0860957
0.108892
0.302386
0.27934
0.391783
0.435032
0.533262
0.52856
0.492742
0.291939
0.123241
0.118619
0.265805
0.307978
0.241502
0.172366
0.125905
0.202427
0.465826
0.675398
0.777907
0.677054
0.296336
0.919867
0.948442
0.00783869
0.000242685
0.000792653
0.0288002
0.0562185
0.0293129
0.0123152
0.00852658
0.0103778
0.0199767
0.0442399
0.0895459
0.120671
0.104633
0.0534072
0.0207693
0.00726726
0.00316471
0.00175793
0.00171376
0.00290483
0.00396323
0.0175749
0.196561
0.434514
0.807412
0.994305
0.999039
1
1
1
1
0.999913
0.993111
0.945717
0.762036
0.232257
0.0340633
0.0357625
0.352632
0.81052
0.889443
0.691374
0.527486
0.376132
0.388056
0.315925
0.41791
0.253407
0.0722732
0.00248692
0.000365693
9.8935e-05
5.75323e-05
6.34254e-05
0.000108419
0.000714717
0.00344231
0.799556
1
0.16921
0.30603
0.293523
0.198034
0.234031
0.417646
0.753428
0.913386
0.954887
0.930811
0.953886
0.803873
0.867305
0.812896
0.784636
0.820704
0.808913
0.843932
0.865862
0.801854
0.254491
0.0239122
0.000304941
2.55123e-05
1.28052e-09
7.56204e-13
1.48599e-06
0.0596077
0.995105
1
0.821538
0.998328
0.999003
0.991715
0.948673
0.796008
0.768124
0.815703
0.767453
0.694495
0.896502
0.873968
0.909867
0.753814
0.654845
0.523185
0.350308
0.297038
0.372178
0.66384
0.815541
0.87375
0.9775
0.999983
1
1
1
1
1
1
0.95947
0.999865
1
0.999998
0.999908
0.999264
0.994858
0.991193
0.99305
0.995888
0.998076
0.999297
0.999644
0.999894
0.999992
1
1
1
1
1
1
1
1
1
1
1
1
1
1
1
1
1
1
1
1
1
1
1
1
1
1
1
0.999998
0.977774
0.593533
0.305477
0.235409
0.286227
0.527747
0.7735
0.848079
0.915493
0.969822
0.990576
0.999513
0.999948
0.999985
0.99999
0.999866
0.99963
0.999335
0.999802
0.999931
0.999952
0.999491
0.990046
0.764405
0.422936
0.155626
0.146458
0.321289
0.877638
0.999981
0.963093
0.387035
0.343821
0.30435
0.304314
0.363622
0.495256
0.701628
0.842878
0.857797
0.652675
0.315657
0.171474
0.173808
0.460437
0.773572
0.851949
0.463919
0.101219
0.0534892
0.0362386
0.0286972
0.0302606
0.0263322
0.0185313
0.134994
0.257118
0.0375195
0.000972738
0.787131
0.147414
0.00137094
0.00182519
0.00289851
0.00454205
0.00648637
0.00978847
0.00950893
0.011064
0.0112294
0.0147784
0.0227501
0.0390864
0.0644783
0.0892971
0.108313
0.0900142
0.0507388
0.0220777
0.00732938
0.00314398
0.00220357
0.0026228
0.00408639
0.00656759
0.00984134
0.0128821
0.0209297
0.0507933
0.842758
0.997097
0.985432
0.907284
0.554637
0.318419
0.417028
0.669065
0.760333
0.869756
0.935034
0.961411
0.977716
0.985697
0.994609
0.982601
0.729659
0.178783
0.0083097
0.00200871
0.000385931
0.000125452
7.82914e-05
7.2426e-05
0.000190485
0.0020948
0.0116897
0.06941
0.117825
0.0849849
0.632334
0.499633
0.0104485
0.013078
0.0246841
0.0657578
0.146511
0.16531
0.100359
0.0460152
0.0185475
0.00474351
0.000561022
0.000144603
0.00017157
0.00218352
0.0164165
0.0558574
0.0700239
0.189529
0.253386
0.414576
0.785739
0.86847
0.898866
0.926676
0.957936
0.977336
0.990192
0.996095
0.999997
0.97036
0.0895254
0.0265302
0.037648
0.0285297
0.0915647
0.10173
0.117272
0.16135
0.245163
0.186865
0.139368
0.0604584
0.0110062
0.00103931
0.000377679
0.000264275
0.000306679
0.000544492
0.000810129
0.00136397
0.00180509
0.00251506
0.00347361
0.00453862
0.00655445
0.0058796
0.000820943
2.07583e-05
0.0323673
0.275153
0.0664397
0.0365433
0.0165271
0.00744194
0.00408335
0.030184
0.0258656
0.241061
0.357791
0.382919
0.609093
0.726669
0.822246
0.535862
0.0728735
0.0169074
0.0280329
0.0275112
0.0588645
0.103355
0.0720848
0.0784314
0.0333002
0.0440963
0.0758864
0.195423
0.479118
0.481538
0.884115
0.577442
0.000539252
1.6128e-05
0.00123367
0.035146
0.0538979
0.0295356
0.0150119
0.011322
0.0157813
0.0320719
0.0794407
0.163673
0.218855
0.184679
0.0975555
0.033432
0.0110496
0.00423769
0.00216555
0.0017653
0.00284686
0.00561204
0.0112665
0.10945
0.370454
0.206591
0.966815
0.984185
1
0.999485
0.967832
0.993587
0.991614
0.972104
0.974816
0.958977
0.784906
0.219026
0.054173
0.1411
0.558126
0.799858
0.802132
0.674924
0.504655
0.530873
0.430043
0.59989
0.632512
0.443079
0.0834014
0.00292224
0.000621193
0.000306166
0.000344137
0.000633014
0.000763478
0.00868858
0.39543
0.983425
0.00141601
0.0116258
0.0311361
0.0444351
0.0618289
0.197561
0.609508
0.875191
0.944693
0.912311
0.924109
0.83725
0.72962
0.740317
0.735896
0.797002
0.756625
0.85407
0.922158
0.751558
0.241658
0.014654
0.00508042
0.000247753
9.98791e-08
1.09052e-11
1.04835e-10
0.00218652
0.941634
0.876468
0.112771
0.977281
0.998432
0.994196
0.919631
0.847594
0.835818
0.891735
0.827627
0.945028
0.973349
0.995989
0.984897
0.950701
0.764716
0.531641
0.302733
0.234076
0.356254
0.540974
0.697911
0.756431
0.916147
0.997488
0.999997
1
1
1
1
0.999572
0.909519
0.99989
0.999998
0.999951
0.998889
0.995405
0.978684
0.982506
0.990077
0.994625
0.996527
0.994702
0.993864
0.994337
0.999136
0.999997
1
1
1
1
1
1
1
1
1
1
1
1
1
1
1
1
0.999999
1
1
1
1
1
1
1
1
1
0.999949
0.999799
0.999348
0.806398
0.236599
0.0391221
0.00912753
0.0276412
0.057607
0.407835
0.756463
0.90609
0.93395
0.983181
0.984398
0.997057
0.996198
0.998698
0.998962
0.999461
0.999691
0.999032
0.988582
0.903241
0.682299
0.54936
0.471233
0.293388
0.240286
0.37652
0.737799
0.923178
0.974617
0.999399
0.994736
0.602525
0.408382
0.332397
0.350835
0.419444
0.579699
0.750954
0.815892
0.766988
0.641864
0.426729
0.283804
0.325489
0.509562
0.70713
0.572655
0.198803
0.0167596
0.00474695
0.00207085
0.00112404
0.000996251
0.00143019
0.00209471
0.00210853
0.00149654
0.00225431
0.00046249
7.6957e-05
0.00121688
0.100265
0.0746158
0.00235586
0.00144403
0.00200926
0.00386059
0.00836601
0.0113703
0.0143236
0.0114169
0.010601
0.00751029
0.00807376
0.0100307
0.0152792
0.0243138
0.0334295
0.0387895
0.0384946
0.0278381
0.0171195
0.0101324
0.00637206
0.0054378
0.00576701
0.00716053
0.0095659
0.0115218
0.0118878
0.0123549
0.0542813
0.261011
0.907694
0.932174
0.935326
0.972287
0.813402
0.414329
0.239934
0.315583
0.533486
0.624069
0.743413
0.83369
0.931867
0.937665
0.94292
0.660076
0.123459
0.00473951
0.000645541
0.000363074
0.000189259
0.000121421
0.000117318
0.000177002
0.000452499
0.00171962
0.00785671
0.0294563
0.0648961
0.0669008
0.0414608
0.0400779
0.289571
0.283418
0.00494534
0.00460528
0.00808796
0.0210606
0.0686052
0.163965
0.234685
0.197515
0.0781044
0.0228219
0.00834673
0.00147224
0.000239178
0.000124632
0.000295436
0.00212249
0.0101755
0.0520955
0.0765039
0.128285
0.350237
0.439688
0.632428
0.838615
0.931135
0.965284
0.982533
0.992721
0.991635
0.973822
0.998418
0.995944
0.28056
0.0388087
0.00907162
0.0305685
0.0210663
0.0365263
0.0464998
0.0529287
0.0940759
0.127031
0.136326
0.161142
0.0737358
0.0138039
0.00450797
0.00156228
0.00113671
0.00159365
0.0019422
0.00243554
0.00292305
0.00449243
0.00753921
0.0104424
0.0106697
0.00540706
0.0015585
0.000218783
9.55942e-06
4.7068e-06
0.00412743
0.0189936
0.00253205
0.00797601
0.00976974
0.00482784
0.00263528
0.0013967
0.00758796
0.022452
0.151344
0.316442
0.394952
0.543724
0.746727
0.77911
0.564177
0.034443
0.0058616
0.00528835
0.0191914
0.103703
0.138304
0.100882
0.0318636
0.0267656
0.0196286
0.0200611
0.00993393
0.00468624
0.0387346
0.143862
0.769282
0.865485
0.0001347
2.52217e-05
6.39877e-06
0.00140939
0.0410436
0.0541804
0.0320009
0.0183236
0.015166
0.0195692
0.0341554
0.0670979
0.114062
0.134801
0.111685
0.0657744
0.0275406
0.010741
0.00453591
0.0024826
0.00202061
0.00306803
0.00714038
0.0125305
0.0591485
0.387751
0.172988
0.406747
0.93549
0.344562
0.996505
0.999819
0.224088
0.431013
0.547267
0.791961
0.821909
0.869895
0.971861
0.975503
0.806988
0.270861
0.122929
0.232682
0.506886
0.781588
0.658913
0.606066
0.591088
0.471418
0.667718
0.753565
0.78958
0.35853
0.0542239
0.00395833
0.00133782
0.00344209
0.00487472
0.00684675
0.00458084
0.00278045
0.043051
0.012816
1.08165e-06
5.97148e-06
0.000124226
0.000914669
0.0032137
0.0060827
0.0318857
0.156622
0.763055
0.873614
0.911709
0.886854
0.717427
0.697288
0.656436
0.651846
0.766852
0.789732
0.855903
0.960241
0.82799
0.228845
0.0316365
0.00224393
0.00524667
0.000187286
1.98782e-08
3.30342e-13
1.87591e-10
6.27835e-05
0.000397261
6.77642e-06
8.05523e-10
0.00255056
0.748369
0.993325
0.98856
0.950539
0.903967
0.933178
0.954443
0.959366
0.987312
0.998387
0.998221
0.987576
0.95018
0.632011
0.472223
0.296024
0.189107
0.331931
0.581723
0.638784
0.695678
0.830447
0.889452
0.969041
0.999784
0.999999
1
0.986717
0.999987
0.722578
0.00572133
0.861185
0.99985
0.999975
0.999597
0.997449
0.985096
0.974122
0.986756
0.993273
0.997016
0.996625
0.997164
0.985044
0.970956
0.984565
0.999502
1
1
1
1
1
1
1
1
1
1
1
1
1
1
1
1
1
1
0.999998
0.999999
0.999999
0.999997
1
1
1
1
1
0.999994
0.999249
0.993195
0.978864
0.505538
0.0462126
0.0132533
0.0075861
0.00449038
0.00378983
0.00696754
0.171605
0.666802
0.867783
0.966473
0.969682
0.990123
0.989221
0.992226
0.988468
0.964632
0.840196
0.660916
0.547177
0.603913
0.609976
0.593391
0.433665
0.284257
0.369433
0.70984
0.843745
0.847182
0.844747
0.815912
0.679899
0.461461
0.446418
0.517302
0.591332
0.692294
0.750429
0.740437
0.689511
0.611024
0.450553
0.45511
0.491199
0.591572
0.653648
0.468456
0.148706
0.0227353
0.00457966
0.00118075
0.000374147
0.000179293
0.000106239
0.000101997
0.000143503
0.000163731
0.000110333
4.39908e-05
3.18378e-05
9.63911e-05
0.000464863
0.00579487
0.00392197
0.00218852
0.00205484
0.00439284
0.00838703
0.0137837
0.0142773
0.012755
0.00998245
0.00779052
0.00532531
0.00416564
0.00381625
0.00443453
0.00610683
0.00845863
0.0108706
0.0117876
0.011248
0.00988578
0.00900662
0.00848965
0.00897888
0.0100562
0.011905
0.0140024
0.0140803
0.0110654
0.00915171
0.021506
0.206416
0.599586
0.86164
0.973202
0.969657
0.762315
0.362271
0.125489
0.148993
0.295071
0.438266
0.497523
0.58849
0.519541
0.336055
0.0487915
0.00102965
0.000182933
0.00017326
0.000170507
0.00015408
0.00014021
0.000162057
0.000229867
0.000450103
0.00101103
0.00278374
0.00758565
0.017834
0.0298139
0.0364354
0.0321051
0.0213319
0.0535754
0.0132557
0.00185244
0.00354838
0.00702913
0.0208572
0.0748263
0.40005
0.823506
0.63271
0.35575
0.0683068
0.0173086
0.00589717
0.00112147
0.000286937
0.000384807
0.00216164
0.00943475
0.0092681
0.0227352
0.0917569
0.0772689
0.26489
0.452567
0.716961
0.820434