/*--------------------------------*- C++ -*----------------------------------*\
| =========                 |                                                 |
| \\      /  F ield         | OpenFOAM: The Open Source CFD Toolbox           |
|  \\    /   O peration     | Version:  2.1.1                                 |
|   \\  /    A nd           | Web:      www.OpenFOAM.org                      |
|    \\/     M anipulation  |                                                 |
\*---------------------------------------------------------------------------*/
FoamFile
{
    version     2.0;
    format      ascii;
    class       volScalarField;
    location    "0.003850000";
    object      H;
}
// * * * * * * * * * * * * * * * * * * * * * * * * * * * * * * * * * * * * * //

dimensions      [0 0 0 0 0 0 0];

internalField   nonuniform List<scalar> 
12384
(
0.000552792
0.000700297
0.000734761
0.00073205
0.000744283
0.000735584
0.000646864
0.000434917
0.000225585
8.13547e-05
2.0229e-05
3.91073e-06
9.16422e-06
1.60941e-05
2.62246e-07
5.86288e-07
2.15238e-06
6.45012e-06
1.30446e-05
1.9083e-05
2.72934e-05
3.2574e-05
3.87798e-05
4.55603e-05
4.72627e-05
5.80535e-05
5.55789e-05
6.26485e-05
6.3992e-05
5.15022e-05
4.45166e-05
2.82785e-05
1.848e-05
1.43349e-05
1.14636e-05
1.23045e-05
1.0359e-05
7.52527e-06
3.01238e-06
1.31292e-06
5.39924e-07
1.00614e-06
7.68032e-06
3.41267e-05
2.96282e-05
2.64428e-05
2.09185e-05
1.71191e-05
1.51887e-05
1.37748e-05
1.3612e-05
1.29664e-05
1.18328e-05
1.09018e-05
8.7464e-06
6.5482e-06
5.47635e-06
4.32244e-06
4.23126e-06
9.18986e-06
3.51326e-05
7.73179e-05
0.000103159
0.000112784
0.000107791
0.00010869
9.60556e-05
8.76739e-05
7.31846e-05
5.14544e-05
3.53944e-05
1.62087e-05
2.98153e-06
1.26677e-06
3.71172e-05
4.18223e-05
4.6993e-05
5.03358e-05
5.28991e-05
5.37203e-05
5.46467e-05
5.45841e-05
5.34874e-05
5.39738e-05
5.32446e-05
5.07631e-05
5.2532e-05
4.98541e-05
5.10897e-05
4.86774e-05
4.72749e-05
4.69278e-05
4.73586e-05
4.73613e-05
4.78685e-05
4.86998e-05
4.93242e-05
3.64953e-05
1.95589e-05
2.85245e-05
2.40777e-05
1.2159e-05
8.47874e-06
6.59344e-06
5.40503e-05
7.42724e-05
9.21719e-05
0.00010074
0.000103844
0.000102416
9.9079e-05
9.28237e-05
8.56567e-05
7.89931e-05
6.92123e-05
6.0031e-05
5.53811e-05
4.89695e-05
4.64772e-05
4.46246e-05
4.516e-05
3.9589e-05
3.52431e-05
3.03421e-05
2.48307e-05
2.22086e-05
1.77469e-05
1.54563e-05
2.15676e-05
4.21722e-05
2.52093e-05
1.01477e-05
5.69523e-06
5.03935e-06
2.25871e-06
4.33912e-06
1.31326e-05
3.59681e-05
6.03286e-05
6.28014e-05
6.128e-05
6.05128e-05
6.11778e-05
6.08109e-05
6.18104e-05
6.11712e-05
6.12327e-05
6.08667e-05
6.13676e-05
6.56216e-05
6.82455e-05
6.81926e-05
6.60778e-05
6.09751e-05
6.21536e-05
6.27151e-05
6.18252e-05
6.13106e-05
7.26644e-05
8.64743e-05
0.00012551
0.000149093
2.38616e-05
4.88656e-06
3.42562e-05
2.05029e-05
4.34028e-05
6.62526e-05
4.87837e-05
5.35332e-06
3.43222e-06
1.19158e-05
5.55834e-05
8.0665e-05
8.9889e-05
9.24462e-05
8.81574e-05
8.73149e-05
7.60778e-05
6.76631e-05
6.14149e-05
6.07176e-05
6.00966e-05
6.22784e-05
6.07134e-05
6.10514e-05
6.1182e-05
5.96661e-05
5.79747e-05
5.43655e-05
1.76842e-05
8.33923e-07
6.73042e-08
8.83336e-08
6.46014e-07
1.00964e-06
1.87419e-06
3.0047e-06
3.90609e-06
2.92375e-06
1.31761e-06
1.11103e-05
5.41752e-05
3.95767e-05
4.92112e-05
5.70281e-05
6.39361e-05
7.37013e-05
8.78228e-05
0.000102834
0.000115286
0.000127511
0.000136037
0.00013905
0.000141249
0.000137586
0.000127662
0.000120071
0.000114304
0.000102469
9.86366e-05
8.00442e-05
8.22286e-05
6.92188e-05
1.07391e-07
6.62484e-08
1.12069e-07
1.4205e-07
2.4743e-07
3.867e-07
2.14036e-06
3.63346e-05
6.49876e-05
6.03215e-05
5.2338e-05
4.59741e-05
3.99268e-05
3.85584e-05
3.48336e-05
3.35994e-05
3.10119e-05
2.93994e-05
2.85722e-05
2.85099e-05
3.30613e-05
3.87824e-05
5.10705e-05
5.44844e-05
4.8738e-06
3.47228e-07
1.66938e-07
1.20369e-07
2.20994e-07
1.90958e-06
1.5151e-06
1.49784e-06
2.73708e-06
4.73845e-06
4.28016e-06
1.32436e-06
3.08738e-07
2.01683e-07
3.69591e-07
8.26905e-07
2.98052e-06
2.952e-05
0.000117698
9.67506e-05
8.63934e-05
6.68836e-05
7.22389e-05
6.35131e-05
6.30484e-05
6.3664e-05
6.30196e-05
6.35742e-05
6.30312e-05
6.36686e-05
6.41736e-05
6.50135e-05
6.57229e-05
6.6021e-05
6.64878e-05
6.10695e-05
2.56683e-08
3.1711e-08
4.85377e-08
1.14661e-07
2.76853e-07
3.31988e-07
2.5665e-07
1.39689e-07
8.72871e-08
9.7246e-08
8.37037e-08
2.49085e-07
2.53568e-07
3.40992e-07
4.15115e-07
3.43302e-07
3.12229e-07
2.86357e-07
3.6852e-07
1.2419e-06
3.48178e-06
2.53187e-05
4.96682e-05
6.79949e-05
6.06334e-05
4.01122e-05
2.6123e-05
9.75667e-06
2.98488e-06
1.36321e-06
4.95396e-08
1.1767e-07
4.9624e-07
6.25095e-07
5.26888e-07
4.97531e-07
7.0613e-07
1.43914e-06
2.19479e-06
8.14355e-06
2.02884e-05
7.37729e-05
9.67919e-05
0.00011507
0.000124472
0.000118837
0.000117613
0.000114006
9.69032e-05
6.52419e-05
2.54817e-05
6.66326e-06
1.92842e-06
5.63081e-07
3.4247e-07
2.51192e-07
2.19737e-07
2.14994e-07
3.68474e-07
8.4452e-07
2.12372e-08
3.69677e-08
1.93406e-07
2.95003e-07
4.59457e-07
4.80535e-07
5.15602e-07
3.81163e-07
2.95295e-07
1.43702e-07
1.60395e-07
1.0274e-07
1.17988e-07
7.10686e-08
8.58842e-08
5.74166e-08
5.87585e-08
4.55102e-08
4.09469e-08
3.93292e-08
5.28233e-08
4.21011e-08
6.27594e-08
6.72088e-08
1.03248e-07
1.30416e-07
1.6512e-07
2.06803e-07
3.85509e-07
4.3719e-07
0.00078444
0.000656428
0.000559197
0.000482946
0.00053266
0.000651056
0.000787129
0.000920549
0.00085719
0.000579418
0.000118439
1.47847e-05
3.57092e-06
9.20132e-06
2.63903e-07
7.03564e-07
5.74137e-06
1.93333e-05
3.19619e-05
3.82036e-05
3.82095e-05
3.69698e-05
3.88264e-05
4.01022e-05
5.065e-05
6.67318e-05
8.16872e-05
0.000114093
0.000118991
0.000133739
0.000119873
8.07576e-05
4.11705e-05
1.92735e-05
1.38019e-05
1.09254e-05
1.22053e-05
1.13914e-05
7.79584e-06
3.03547e-06
9.46081e-07
7.4694e-07
4.65534e-06
3.369e-05
1.95303e-05
1.41639e-05
1.11421e-05
9.12542e-06
7.54666e-06
7.43772e-06
7.14177e-06
7.38169e-06
7.64944e-06
7.74771e-06
7.05762e-06
6.07891e-06
4.9035e-06
4.12482e-06
3.47307e-06
4.49858e-06
1.05362e-05
3.1474e-05
6.58652e-05
0.00010928
0.000127521
0.00014667
0.000156036
0.000142997
0.000129004
9.54097e-05
4.82158e-05
1.46147e-05
2.82763e-06
1.25789e-06
4.9294e-05
5.9788e-05
6.08293e-05
6.13333e-05
6.10022e-05
6.10134e-05
5.72859e-05
5.57472e-05
5.10986e-05
4.69669e-05
4.25641e-05
3.86646e-05
3.21221e-05
2.78126e-05
2.39547e-05
2.09539e-05
2.02287e-05
2.08065e-05
2.37518e-05
2.87692e-05
3.54026e-05
4.14829e-05
4.69632e-05
4.54862e-05
3.05777e-05
2.1684e-05
2.84268e-05
2.99804e-05
2.13441e-05
1.16517e-05
9.67537e-05
0.000120748
0.000124481
0.000123546
0.000121228
0.000120419
0.000117768
0.000114602
0.000110342
0.000103427
9.68747e-05
8.98895e-05
8.04189e-05
7.14702e-05
5.85497e-05
4.70346e-05
3.60544e-05
3.05036e-05
2.09142e-05
1.60231e-05
1.16953e-05
8.90635e-06
9.24471e-06
8.95479e-06
1.2683e-05
3.35064e-05
4.00748e-05
2.92383e-05
1.10956e-05
5.44983e-06
2.70201e-06
6.6686e-06
2.6094e-05
5.90314e-05
6.31237e-05
6.07731e-05
6.10288e-05
6.19924e-05
6.36397e-05
6.17789e-05
5.98626e-05
5.69637e-05
4.75698e-05
4.31329e-05
4.45731e-05
5.22723e-05
6.44852e-05
7.56573e-05
7.49518e-05
7.29657e-05
6.89801e-05
6.7707e-05
6.59555e-05
7.29156e-05
7.79842e-05
8.55925e-05
0.000107576
0.000144782
0.000128738
2.61423e-05
7.35955e-05
5.18105e-05
6.0971e-05
6.39174e-05
3.32592e-05
1.04558e-05
4.28181e-05
7.47213e-05
7.57007e-05
7.37086e-05
7.23297e-05
7.23379e-05
7.06305e-05
7.09033e-05
6.44789e-05
5.41828e-05
4.60287e-05
3.31929e-05
2.70974e-05
2.56216e-05
3.40405e-05
4.44333e-05
5.66239e-05
6.01176e-05
5.97131e-05
5.9861e-05
4.33755e-05
2.72461e-06
1.11509e-07
7.98199e-08
6.90614e-07
1.66189e-06
3.97812e-06
5.21641e-06
3.70307e-06
1.66634e-06
3.84914e-06
6.20443e-05
4.3304e-05
5.03852e-05
5.3901e-05
7.23154e-05
8.51294e-05
9.89903e-05
0.000105866
0.000116462
0.000125829
0.000137416
0.000142901
0.000151395
0.000161002
0.000156281
0.000137562
0.000113161
0.000128219
0.000137249
0.000121506
8.76773e-05
8.31256e-05
7.63263e-05
1.77844e-07
1.56823e-07
1.53479e-07
2.06092e-07
2.4209e-07
1.00067e-06
1.85535e-05
6.41125e-05
5.03207e-05
3.72556e-05
3.0826e-05
2.83258e-05
2.75962e-05
2.68444e-05
2.59934e-05
2.43587e-05
2.27003e-05
2.27889e-05
2.22582e-05
1.87423e-05
1.74596e-05
1.4566e-05
1.43478e-05
1.71965e-05
2.62745e-05
5.23493e-05
4.18588e-05
7.62653e-07
6.02403e-08
5.25907e-07
1.40648e-06
1.68062e-06
3.10613e-06
3.93818e-06
1.84577e-06
4.56828e-07
1.52929e-07
1.65203e-07
3.61326e-07
1.28422e-06
7.31291e-06
6.63836e-05
0.000111409
8.40279e-05
8.21937e-05
7.08347e-05
7.47333e-05
6.34586e-05
6.35184e-05
6.27155e-05
6.24409e-05
6.25605e-05
6.3478e-05
6.42228e-05
6.39748e-05
6.42981e-05
6.36138e-05
6.37176e-05
6.74921e-05
6.12328e-05
2.60214e-08
3.67439e-08
6.42811e-08
1.51571e-07
2.97673e-07
3.00292e-07
2.23179e-07
1.4366e-07
8.52102e-08
6.53193e-08
8.34135e-08
1.03511e-07
5.79111e-08
4.62533e-08
3.55394e-08
3.04409e-08
3.9556e-08
3.66393e-07
9.84833e-06
0.000104629
0.000165042
0.000175454
0.000161802
0.000127096
6.28955e-05
1.14232e-05
5.4698e-06
2.5573e-05
2.14145e-05
2.10654e-06
5.54048e-08
2.14731e-07
6.12869e-07
6.82329e-07
6.76541e-07
1.20564e-06
5.21704e-06
5.06942e-05
0.000106115
0.000106228
0.000105378
0.000110454
0.000120861
0.000120068
0.000124239
0.000112331
0.000109665
0.00010271
0.000101045
9.85539e-05
9.76901e-05
0.000102994
0.000115469
0.000130312
0.000110093
9.32941e-06
7.13003e-07
1.29775e-07
3.83108e-08
6.44958e-08
2.662e-08
9.17782e-08
2.6398e-07
4.42605e-07
5.48604e-07
7.87902e-07
1.0796e-06
1.31362e-06
1.3053e-06
1.43383e-06
2.0658e-06
2.64834e-06
4.50359e-06
4.04986e-06
4.29768e-06
3.3032e-06
3.40571e-06
4.24699e-06
4.01467e-06
2.8724e-06
1.6073e-06
1.75159e-06
1.73347e-06
2.21633e-06
1.42854e-06
5.34569e-07
2.75473e-07
1.44823e-07
1.16008e-07
2.08034e-07
0.000536355
0.000361658
0.000183491
0.000129831
0.000128186
0.000152926
0.000382029
0.000653167
0.000826053
0.000915803
0.000625468
0.000115267
7.21112e-06
4.59475e-06
6.23187e-07
5.7736e-06
2.15384e-05
3.10225e-05
2.87363e-05
2.32118e-05
1.67282e-05
1.26174e-05
1.08944e-05
9.90454e-06
1.28175e-05
1.92397e-05
3.20236e-05
7.64653e-05
0.000124552
0.000183234
0.000223725
0.000189757
0.000109752
4.04123e-05
1.82026e-05
1.23625e-05
1.21752e-05
1.61881e-05
1.37562e-05
6.18804e-06
1.52122e-06
7.63771e-07
3.70399e-06
3.14875e-05
1.06944e-05
1.05168e-05
1.03298e-05
9.92201e-06
9.31689e-06
7.56823e-06
6.43201e-06
5.27389e-06
4.81306e-06
4.4847e-06
4.59367e-06
4.25546e-06
3.94671e-06
3.36301e-06
2.99353e-06
2.87095e-06
4.03023e-06
9.85919e-06
2.9879e-05
7.22825e-05
0.000111429
0.000148629
0.00017377
0.000190358
0.000185918
0.000145387
8.29853e-05
2.18392e-05
3.2272e-06
1.33088e-06
6.17864e-05
6.18401e-05
6.09826e-05
5.77901e-05
5.0532e-05
4.43759e-05
3.94894e-05
3.44193e-05
2.80597e-05
2.12808e-05
1.7347e-05
1.34198e-05
1.04596e-05
8.84656e-06
7.43651e-06
6.38959e-06
6.13464e-06
6.19419e-06
6.90687e-06
8.82651e-06
1.35089e-05
2.45081e-05
3.93326e-05
4.59681e-05
4.10015e-05
2.73584e-05
2.35138e-05
3.02499e-05
3.12518e-05
1.8367e-05
0.000140557
0.000119809
0.000101138
9.57016e-05
0.000106749
0.000115423
0.000118633
0.000116987
0.000108682
0.000104799
0.000101638
9.52032e-05
9.12081e-05
8.83093e-05
7.20745e-05
5.62624e-05
4.21002e-05
2.77312e-05
1.78195e-05
1.21321e-05
7.02122e-06
4.86446e-06
3.97575e-06
4.25492e-06
6.4454e-06
1.79587e-05
4.03489e-05
4.24984e-05
2.3995e-05
6.60812e-06
3.58957e-06
1.30519e-05
4.9761e-05
6.3856e-05
6.14088e-05
6.11042e-05
6.29927e-05
6.377e-05
6.2605e-05
5.99408e-05
5.53834e-05
3.85704e-05
2.33424e-05
2.21445e-05
3.63192e-05
6.20287e-05
7.99284e-05
8.68856e-05
8.68673e-05
8.35118e-05
7.99054e-05
7.93449e-05
7.51023e-05
8.57726e-05
8.38436e-05
8.77765e-05
0.000100521
0.000133108
0.000150806
7.23496e-05
6.7836e-05
7.42078e-05
6.81643e-05
5.64833e-05
3.41593e-05
5.31821e-05
6.91373e-05
6.61943e-05
6.70439e-05
6.2839e-05
6.39226e-05
6.58153e-05
6.67108e-05
5.90873e-05
3.40211e-05
7.98115e-06
4.44547e-06
2.17429e-06
2.06725e-06
2.54994e-06
4.95821e-06
1.38502e-05
4.13483e-05
5.87367e-05
5.89864e-05
5.83413e-05
5.78191e-05
5.91731e-06
1.49437e-07
7.63042e-08
1.04899e-06
2.88239e-06
6.67772e-06
6.96273e-06
2.9855e-06
1.67232e-06
4.49287e-05
4.7662e-05
4.19648e-05
4.94046e-05
6.27329e-05
7.1603e-05
8.4721e-05
9.77066e-05
0.000105882
0.000114435
0.000121652
0.000127477
0.000129466
0.00013006
0.000146753
0.000154011
0.000134387
0.000129334
0.000140933
0.000130914
9.6493e-05
6.88808e-05
7.38403e-05
3.8883e-05
1.95937e-07
2.24956e-07
2.82065e-07
2.04901e-07
3.58103e-07
3.92954e-06
6.05588e-05
5.32455e-05
3.56652e-05
2.92433e-05
2.87284e-05
3.0382e-05
3.10854e-05
3.24154e-05
3.16872e-05
3.10382e-05
2.8448e-05
2.78056e-05
2.63619e-05
2.15984e-05
1.72039e-05
1.29134e-05
1.24892e-05
1.2881e-05
1.31008e-05
1.66951e-05
3.34269e-05
6.34893e-05
1.06223e-06
5.85035e-08
1.2787e-06
1.54922e-06
2.4902e-06
1.99133e-06
5.82199e-07
1.73508e-07
8.40182e-08
9.18432e-08
2.95585e-07
1.63872e-06
1.58272e-05
0.000102846
0.000115064
8.75705e-05
9.78661e-05
8.47095e-05
9.5289e-05
7.70425e-05
7.95406e-05
7.00623e-05
6.47633e-05
6.24495e-05
6.32175e-05
6.5284e-05
6.54696e-05
6.614e-05
6.5279e-05
6.34275e-05
6.71961e-05
5.86507e-05
2.42288e-08
3.2407e-08
6.72881e-08
1.62454e-07
2.67896e-07
2.73147e-07
2.44074e-07
2.47869e-07
1.91448e-07
1.53593e-07
1.12975e-07
9.7107e-08
8.46485e-08
6.37764e-08
6.78376e-08
9.26446e-08
4.08e-07
9.1103e-06
0.000113306
0.000166932
0.000172426
0.000155323
0.000145852
0.000102355
1.9933e-05
1.18964e-06
2.05844e-07
1.10815e-06
2.24315e-05
2.35245e-06
7.23352e-08
3.35791e-07
7.88123e-07
9.53428e-07
2.0133e-06
1.01902e-05
0.000102154
0.000104945
9.07723e-05
0.000103261
0.000118234
0.000144132
0.00017139
0.000192104
0.000173996
0.000167605
0.000159502
0.000154844
0.000142275
0.00012311
0.000100909
8.31352e-05
7.68482e-05
7.57768e-05
8.27162e-05
0.000103641
0.000128313
4.64692e-05
1.84539e-07
1.61465e-08
3.00298e-08
1.56235e-07
4.45538e-07
8.11733e-07
2.13328e-06
4.6421e-06
1.40525e-05
2.92914e-05
7.84301e-05
0.000114446
0.000130834
0.00011456
0.000111934
9.64309e-05
9.69789e-05
9.21313e-05
8.60127e-05
8.44481e-05
8.22438e-05
8.45795e-05
8.87571e-05
8.69886e-05
9.27841e-05
0.00010565
0.000118252
0.000112064
3.52179e-05
7.32105e-07
9.5223e-08
9.50293e-08
0.000471099
0.000346438
0.000219281
0.00018193
0.000124275
9.9509e-05
0.000134613
0.000378659
0.00069645
0.000836177
0.000884473
0.00049247
4.17055e-05
3.78397e-06
1.77612e-05
2.73162e-05
2.78068e-05
2.22078e-05
1.62313e-05
1.10627e-05
7.19078e-06
5.61214e-06
5.16513e-06
4.86791e-06
6.97748e-06
7.79915e-06
1.90676e-05
4.51379e-05
0.000111502
0.000221593
0.000307001
0.000299067
0.000183314
6.10835e-05
2.30606e-05
1.36317e-05
1.47865e-05
1.99375e-05
2.18685e-05
8.95216e-06
1.61663e-06
6.97796e-07
4.15575e-06
2.97308e-05
1.2162e-05
1.35412e-05
1.43991e-05
1.4469e-05
1.29568e-05
1.14071e-05
9.19962e-06
6.23962e-06
4.96413e-06
4.06431e-06
3.41269e-06
3.3923e-06
3.07889e-06
3.10826e-06
2.57391e-06
2.49991e-06
2.80692e-06
5.77884e-06
1.83069e-05
5.03648e-05
8.20355e-05
0.000126678
0.000167693
0.000204009
0.000215403
0.000199101
0.000127188
2.65319e-05
2.942e-06
1.37433e-06
6.15533e-05
5.79647e-05
4.62243e-05
3.63013e-05
2.60811e-05
2.00105e-05
1.73109e-05
1.5387e-05
1.31514e-05
1.1238e-05
9.61966e-06
8.1143e-06
6.5127e-06
5.94437e-06
5.40976e-06
4.76121e-06
4.39095e-06
4.13843e-06
4.17093e-06
4.7234e-06
6.26933e-06
1.19105e-05
2.75275e-05
4.33249e-05
4.5882e-05
3.658e-05
2.33495e-05
2.49079e-05
3.04343e-05
2.06254e-05
0.000133477
8.01351e-05
8.12186e-05
0.0001108
0.000125975
0.000130319
0.000130126
0.000125393
0.000121323
0.000112463
0.00010246
0.000100262
9.72409e-05
8.8106e-05
7.953e-05
6.65779e-05
4.84239e-05
3.55974e-05
2.36602e-05
1.30163e-05
7.11148e-06
3.33479e-06
2.13469e-06
2.13227e-06
3.22435e-06
9.27148e-06
3.1919e-05
4.35877e-05
3.15829e-05
8.03245e-06
5.43823e-06
2.90017e-05
6.2255e-05
6.14569e-05
6.09135e-05
6.20869e-05
6.36702e-05
6.32216e-05
6.30183e-05
5.9357e-05
4.54067e-05
2.03589e-05
1.26045e-05
1.76818e-05
4.84643e-05
7.90463e-05
8.74692e-05
8.95667e-05
8.91297e-05
8.73646e-05
8.57489e-05
8.55947e-05
8.4145e-05
9.03634e-05
9.01222e-05
9.31929e-05
9.98955e-05
0.000131964
0.000154001
0.00010998
5.81906e-05
7.53667e-05
6.82722e-05
5.8333e-05
5.47835e-05
6.35227e-05
6.06886e-05
6.44014e-05
6.48788e-05
6.26556e-05
6.02065e-05
6.50985e-05
6.64656e-05
4.15429e-05
1.1619e-05
3.29634e-06
1.86901e-06
1.11788e-06
1.12102e-06
1.98461e-06
5.18351e-06
2.00638e-05
5.40406e-05
6.11887e-05
5.74215e-05
5.79146e-05
6.07285e-05
9.85242e-06
1.61659e-07
7.95748e-08
1.36169e-06
4.03583e-06
8.05639e-06
7.51292e-06
2.58849e-06
4.63152e-06
6.26239e-05
4.39774e-05
4.70283e-05
5.2342e-05
6.11201e-05
7.60715e-05
8.1093e-05
8.80781e-05
0.000103245
0.000116948
0.000130181
0.000133557
0.000135213
0.000132204
0.000131131
0.000149422
0.000146767
0.00014826
0.000133795
9.53254e-05
7.45656e-05
6.83451e-05
8.55413e-05
2.01439e-05
2.4308e-07
2.56082e-07
3.04854e-07
2.39232e-07
1.0176e-06
2.82954e-05
6.16185e-05
4.06628e-05
3.13275e-05
2.9648e-05
3.2074e-05
3.43002e-05
3.57829e-05
3.59744e-05
3.62167e-05
3.48529e-05
3.40131e-05
3.06365e-05
2.77796e-05
2.316e-05
1.71396e-05
1.25217e-05
1.16988e-05
1.33265e-05
1.29612e-05
1.23275e-05
1.53423e-05
3.02332e-05
5.17728e-05
6.66664e-08
1.06164e-06
1.25823e-06
1.861e-06
1.095e-06
4.14767e-07
1.42564e-07
7.20806e-08
7.24395e-08
1.68073e-07
1.49738e-06
2.09815e-05
0.000112223
0.000124981
9.51977e-05
0.000114141
9.84975e-05
0.000104545
8.75786e-05
7.97519e-05
7.49483e-05
6.92919e-05
6.26241e-05
6.33035e-05
6.54217e-05
6.67562e-05
6.77029e-05
6.70669e-05
6.51564e-05
6.74859e-05
4.91955e-05
2.51258e-08
3.93636e-08
7.82401e-08
1.50716e-07
2.32093e-07
2.6923e-07
3.26457e-07
7.0345e-07
1.15546e-06
9.73865e-07
7.16093e-07
2.86215e-07
3.69951e-07
9.54174e-07
1.81651e-06
3.23725e-06
1.32892e-05
8.86002e-05
0.000150345
0.000175082
0.000167664
0.000155005
0.000152848
0.000129443
2.06627e-05
1.22765e-06
3.55214e-07
4.40853e-07
1.52232e-05
2.05209e-06
7.6863e-08
4.24427e-07
1.03939e-06
2.32151e-06
1.12705e-05
0.000102125
0.000107044
9.50375e-05
0.00010051
0.000119324
0.0001593
0.00016733
0.000164278
0.000135914
0.000144995
0.000127315
0.000133676
0.00014782
0.000156231
0.000155761
0.000136681
0.000104247
7.74113e-05
6.79033e-05
6.35858e-05
6.53591e-05
7.52602e-05
0.000114451
7.53002e-06
2.55067e-08
4.98416e-08
2.69707e-07
8.9953e-07
3.48881e-06
1.73136e-05
7.48133e-05
0.000171997
0.000175635
0.000141695
0.000116758
9.10124e-05
7.33729e-05
7.02935e-05
6.15206e-05
6.16805e-05
6.20331e-05
6.11939e-05
6.10245e-05
5.59874e-05
5.14932e-05
5.32663e-05
5.84317e-05
5.93425e-05
7.1963e-05
8.79055e-05
0.000108892
0.000122775
3.74161e-05
2.86243e-07
4.56095e-08
0.000556133
0.000480381
0.000415548
0.000377903
0.000250524
0.000126681
0.000115982
0.000228504
0.000599013
0.000753455
0.000865509
0.000781069
0.000167204
4.33347e-06
3.22149e-05
2.37011e-05
1.75641e-05
1.33712e-05
9.9956e-06
7.87954e-06
6.39309e-06
5.94602e-06
6.37309e-06
7.14636e-06
1.11753e-05
1.39894e-05
3.10477e-05
6.61519e-05
0.000158003
0.000306862
0.000359556
0.000318497
0.000200179
5.83231e-05
1.99714e-05
1.51792e-05
1.86599e-05
2.98821e-05
2.9509e-05
8.91824e-06
1.07933e-06
4.44433e-07
2.59799e-06
3.17979e-05
1.55755e-05
1.70222e-05
1.7839e-05
1.73137e-05
1.71115e-05
1.40652e-05
1.16743e-05
8.58771e-06
5.9316e-06
4.22093e-06
3.64691e-06
3.36527e-06
3.40729e-06
3.14536e-06
2.70687e-06
2.78201e-06
3.11629e-06
7.62585e-06
2.29532e-05
4.97411e-05
8.36331e-05
0.000123741
0.000154621
0.000172477
0.000194032
0.00019717
0.000150419
4.62415e-05
3.6011e-06
1.46229e-06
4.41485e-05
2.5863e-05
1.60998e-05
1.14286e-05
9.42276e-06
8.46406e-06
7.62406e-06
7.34919e-06
6.41816e-06
6.17672e-06
5.79297e-06
5.26926e-06
5.00696e-06
4.63052e-06
4.47864e-06
4.19705e-06
4.05399e-06
3.8614e-06
3.91702e-06
4.03491e-06
4.99117e-06
8.32156e-06
1.88055e-05
3.89365e-05
4.6611e-05
4.08474e-05
2.5939e-05
2.21732e-05
2.5801e-05
2.05473e-05
0.000115944
6.72291e-05
0.000110443
0.000139018
0.000144259
0.000139848
0.000135978
0.000134861
0.000133578
0.000118335
0.000109104
0.00010359
9.54252e-05
9.07282e-05
8.62817e-05
7.53421e-05
6.65513e-05
5.07566e-05
3.04536e-05
1.47415e-05
5.21583e-06
2.23948e-06
1.22735e-06
1.11817e-06
1.88844e-06
5.57771e-06
2.27235e-05
4.20104e-05
3.59223e-05
8.45282e-06
8.90394e-06
4.99402e-05
6.31058e-05
6.00964e-05
6.12513e-05
6.30304e-05
6.36758e-05
6.32508e-05
6.24481e-05
5.82724e-05
3.58563e-05
1.16499e-05
8.76694e-06
2.01552e-05
6.50103e-05
8.56289e-05
9.014e-05
9.07442e-05
9.13591e-05
9.3496e-05
8.9611e-05
9.1843e-05
9.22855e-05
8.67041e-05
0.000101143
9.85995e-05
0.000108181
0.000134554
0.000161326
0.000111875
5.26721e-05
7.46585e-05
6.4013e-05
5.6058e-05
5.89519e-05
5.88563e-05
5.95453e-05
6.42452e-05
6.39812e-05
5.80623e-05
5.79212e-05
6.67496e-05
6.47527e-05
2.48358e-05
7.21257e-06
2.21813e-06
1.43201e-06
8.21735e-07
8.38372e-07
1.4302e-06
3.24095e-06
1.36485e-05
4.85458e-05
6.20189e-05
5.87717e-05
5.79785e-05
5.85038e-05
5.16149e-06
1.43141e-07
8.21172e-08
2.09745e-06
3.87561e-06
6.34921e-06
8.02174e-06
2.99747e-06
5.31797e-06
5.80704e-05
4.57206e-05
5.1741e-05
5.62764e-05
6.12375e-05
6.63202e-05
7.6027e-05
7.91287e-05
7.96858e-05
8.91501e-05
0.000106014
0.000128156
0.000138871
0.000133783
0.00012755
0.00013932
0.000137194
0.000136879
0.000114997
8.07701e-05
6.21844e-05
6.95649e-05
7.88946e-05
1.89312e-06
2.2761e-07
2.97216e-07
2.35999e-07
2.98782e-07
3.19398e-06
5.5561e-05
5.20517e-05
3.64757e-05
3.06269e-05
3.17408e-05
3.45507e-05
3.70657e-05
3.82345e-05
3.94653e-05
3.90939e-05
3.93036e-05
3.75276e-05
3.61742e-05
3.33207e-05
2.99239e-05
2.30261e-05
1.45487e-05
1.07531e-05
1.57711e-05
2.06252e-05
1.73831e-05
1.34109e-05
1.57138e-05
4.29523e-05
3.48435e-07
8.57534e-07
8.53991e-07
1.1029e-06
9.61938e-07
4.77222e-07
2.06446e-07
8.30343e-08
6.03836e-08
9.28981e-08
9.03531e-07
1.83011e-05
0.000116649
0.000135541
0.000106435
0.000119055
0.000105082
0.000107179
9.14915e-05
8.77899e-05
7.83351e-05
6.73507e-05
6.38543e-05
6.31121e-05
6.48933e-05
6.76834e-05
6.79379e-05
6.81022e-05
6.81428e-05
6.6633e-05
4.09152e-05
2.23965e-08
2.60488e-08
5.38502e-08
1.12736e-07
1.56407e-07
2.71566e-07
6.49768e-07
2.48259e-06
1.09367e-05
1.42474e-05
6.83701e-06
3.50548e-06
4.51111e-06
1.65148e-05
4.90014e-05
7.3168e-05
9.71209e-05
0.000126925
0.000161548
0.000150588
0.00015137
0.000142059
0.000146105
0.000116807
3.07132e-05
1.51191e-06
4.71404e-07
2.88376e-06
4.41835e-05
1.22066e-06
7.51558e-08
4.63639e-07
1.91083e-06
6.85275e-06
7.12305e-05
0.000108175
9.60987e-05
9.71444e-05
0.000114465
0.000158353
0.000146776
0.000149578
0.0001324
0.000145483
0.000133123
0.000137248
0.000124659
0.000123498
0.000140643
0.000146352
0.000143619
0.000120953
8.69986e-05
6.54627e-05
6.3431e-05
5.93183e-05
5.90783e-05
7.07692e-05
0.000133165
9.02895e-08
6.31755e-08
4.36418e-07
2.50837e-06
2.30005e-05
0.000146759
0.000184122
0.000159381
0.000117284
9.35644e-05
7.3627e-05
6.8431e-05
6.09313e-05
5.99238e-05
5.50418e-05
5.63928e-05
5.2956e-05
5.49574e-05
5.14203e-05
5.20954e-05
5.27942e-05
5.07689e-05
5.10765e-05
5.76784e-05
6.7242e-05
9.35093e-05
0.000119078
0.000125055
0.000131919
6.24844e-06
5.07741e-08
0.00059235
0.000527781
0.000488778
0.000388128
0.000209014
9.56742e-05
8.76449e-05
0.000164562
0.000507958
0.000715191
0.000839266
0.000845706
0.000390753
7.55301e-06
1.37978e-05
1.40616e-05
1.21717e-05
1.06691e-05
9.76537e-06
8.54584e-06
8.48547e-06
8.82083e-06
9.73442e-06
1.62628e-05
2.78101e-05
5.8667e-05
0.00010608
0.000179551
0.000305031
0.000353758
0.000348941
0.000255119
0.000106689
3.32655e-05
1.62665e-05
1.99168e-05
3.63406e-05
4.45781e-05
2.17873e-05
2.49125e-06
1.99713e-07
1.17379e-07
1.65834e-06
2.45094e-05
1.81662e-05
2.08453e-05
2.24908e-05
2.18023e-05
1.97605e-05
1.69487e-05
1.24425e-05
9.40359e-06
6.95104e-06
5.95098e-06
5.58863e-06
6.15329e-06
5.30402e-06
4.27603e-06
3.81063e-06
4.05445e-06
7.56943e-06
2.18756e-05
5.42832e-05
9.48486e-05
0.000110295
0.000106498
9.87744e-05
0.000107105
0.000134399
0.000165392
0.000143411
4.32465e-05
3.0636e-06
1.60517e-06
1.7681e-05
8.77394e-06
6.63532e-06
5.89538e-06
5.55453e-06
5.25776e-06
5.0971e-06
4.94163e-06
5.0237e-06
4.89544e-06
5.13385e-06
4.92247e-06
4.96785e-06
4.8902e-06
4.67768e-06
4.49954e-06
4.31356e-06
4.25936e-06
4.31802e-06
4.45747e-06
5.10873e-06
7.69265e-06
1.70181e-05
3.77614e-05
4.72902e-05
4.33504e-05
2.87136e-05
2.02288e-05
2.07715e-05
1.9122e-05
8.43126e-05
8.43895e-05
0.000140099
0.000142797
0.000143074
0.000135821
0.00013538
0.000134692
0.000130451
0.000125406
0.00011874
0.000103819
0.000102854
9.88931e-05
9.34612e-05
9.41115e-05
8.21686e-05
5.07762e-05
1.73919e-05
4.25664e-06
1.6419e-06
9.42782e-07
6.90653e-07
8.15352e-07
1.50116e-06
4.58195e-06
1.88483e-05
4.07013e-05
3.0961e-05
7.46606e-06
1.52185e-05
6.11354e-05
6.14925e-05
5.96196e-05
6.21028e-05
6.31265e-05
6.39765e-05
6.27757e-05
6.20029e-05
5.78903e-05
3.07965e-05
9.82908e-06
7.92698e-06
2.00756e-05
6.53309e-05
8.46264e-05
8.79227e-05
8.96637e-05
9.16289e-05
9.27875e-05
9.47939e-05
0.000103622
9.49087e-05
9.68683e-05
0.00011627
0.000112107
0.000123685
0.000160328
0.000181895
0.000115189
4.83068e-05
7.06593e-05
6.46708e-05
5.98203e-05
5.53137e-05
5.58775e-05
5.94406e-05
6.24108e-05
5.77435e-05
5.64758e-05
5.70374e-05
6.86159e-05
6.23068e-05
2.12005e-05
5.58672e-06
2.07814e-06
1.15447e-06
8.87482e-07
9.05824e-07
9.81419e-07
1.42858e-06
2.79057e-06
9.33246e-06
3.66885e-05
5.86226e-05
5.9881e-05
4.6736e-05
2.9417e-06
1.28304e-07
7.99692e-08
3.20055e-06
4.02407e-06
4.85351e-06
6.30232e-06
3.53211e-06
5.91584e-06
5.86179e-05
4.73436e-05
5.35387e-05
5.79639e-05
6.13556e-05
6.19076e-05
5.93922e-05
6.13675e-05
5.96023e-05
5.61192e-05
6.79684e-05
9.52226e-05
0.000118871
0.000121851
0.000113435
0.000118169
0.000120203
0.000112378
0.000105466
8.9068e-05
8.48544e-05
8.59639e-05
4.76847e-05
2.03372e-06
2.70425e-07
2.62013e-07
2.59501e-07
6.81016e-07
1.20287e-05
6.25495e-05
4.62914e-05
3.43665e-05
3.15285e-05
3.25223e-05
3.65242e-05
3.8184e-05
4.07698e-05
4.13866e-05
4.26273e-05
4.16423e-05
4.10246e-05
3.87084e-05
3.59985e-05
3.27049e-05
3.04712e-05
2.10575e-05
1.07053e-05
1.49524e-05
3.39219e-05
4.52956e-05
2.81623e-05
1.6362e-05
2.38253e-05
6.79527e-06
7.43852e-07
4.74376e-07
6.05976e-07
7.02488e-07
6.77162e-07
4.73184e-07
2.18466e-07
7.64214e-08
7.71779e-08
4.67794e-07
1.03892e-05
0.000107445
0.000139261
0.000115416
0.000115113
0.000105158
0.000105157
8.86719e-05
8.66528e-05
7.89893e-05
7.37961e-05
6.39775e-05
6.19701e-05
6.30358e-05
6.56314e-05
6.47473e-05
6.451e-05
6.54379e-05
5.99267e-05
2.78992e-05
2.20593e-08
2.50821e-08
4.5953e-08
6.80152e-08
1.20821e-07
2.57311e-07
9.56401e-07
8.34831e-06
4.8986e-05
6.26884e-05
6.54542e-05
5.36086e-05
6.65954e-05
7.77053e-05
8.4289e-05
0.000104098
0.000119287
0.00013775
0.000134944
0.000130865
0.000121839
0.000143525
0.000133051
0.000118362
5.32862e-05
1.59625e-06
5.00364e-07
9.64891e-06
5.25993e-05
2.31536e-06
6.45249e-08
4.81434e-07
3.07275e-06
2.76204e-05
0.000115143
9.69342e-05
8.97247e-05
9.44884e-05
0.000136099
0.000144235
0.000140174
0.000122319
0.000137164
0.000134357
0.000134067
0.000134103
0.000124901
0.000111433
0.000114644
0.000136614
0.0001345
0.000114057
8.6905e-05
7.10749e-05
6.6394e-05
6.46206e-05
6.22371e-05
6.58309e-05
0.000112619
7.14116e-07
8.3929e-08
7.96505e-07
9.64798e-06
0.00013415
0.000170767
0.000141289
9.91849e-05
8.79372e-05
7.42665e-05
7.4774e-05
7.95252e-05
8.18644e-05
8.54166e-05
8.52489e-05
7.64647e-05
7.09829e-05
6.00689e-05
6.17818e-05
6.18567e-05
5.93254e-05
5.79478e-05
5.66155e-05
5.52134e-05
6.9351e-05
0.000106088
0.000154212
0.000153349
0.000139431
3.76836e-05
1.04501e-07
0.000592591
0.000488133
0.000412516
0.000214663
7.33601e-05
4.59861e-05
5.59029e-05
0.000101813
0.000345948
0.000644445
0.000786556
0.000829029
0.000519076
1.6166e-05
8.80709e-06
8.16619e-06
8.06561e-06
7.10744e-06
8.11631e-06
9.44061e-06
9.7432e-06
1.06664e-05
1.22061e-05
2.09853e-05
3.91188e-05
9.94996e-05
0.000164138
0.000250701
0.00028187
0.000270601
0.000180809
7.99258e-05
3.29634e-05
2.32866e-05
2.9861e-05
4.53574e-05
3.96846e-05
1.73984e-05
2.50766e-06
2.15158e-07
3.93187e-08
6.71877e-08
1.12719e-06
1.99968e-05
1.98573e-05
2.36679e-05
2.27836e-05
2.33284e-05
2.03725e-05
1.66046e-05
1.30001e-05
1.22883e-05
1.59645e-05
2.092e-05
2.0178e-05
1.40555e-05
9.1755e-06
6.42284e-06
6.72698e-06
1.31706e-05
3.67167e-05
8.5886e-05
9.9968e-05
7.4687e-05
6.20323e-05
6.29412e-05
6.32001e-05
6.1782e-05
7.84179e-05
0.000107903
0.000109276
3.32117e-05
3.0622e-06
1.69592e-06
1.24058e-05
6.32975e-06
5.31549e-06
5.29279e-06
5.40956e-06
5.5873e-06
6.07113e-06
6.10973e-06
6.9914e-06
6.83108e-06
7.86057e-06
8.00018e-06
8.8349e-06
8.9201e-06
8.48273e-06
7.59102e-06
6.78649e-06
6.08101e-06
5.84765e-06
5.7369e-06
6.22599e-06
9.68753e-06
1.98656e-05
4.01005e-05
4.86127e-05
4.4248e-05
2.97275e-05
1.91936e-05
1.80907e-05
1.78246e-05
7.75586e-05
0.000117764
0.000145282
0.000145597
0.000130907
0.000131156
0.000135376
0.000131593
0.000124871
0.000118769
0.000109972
0.000108021
0.000108307
0.000109999
0.000113169
0.000100499
4.57425e-05
7.90819e-06
1.84492e-06
1.09944e-06
7.32445e-07
5.8021e-07
6.07193e-07
8.32071e-07
1.68578e-06
6.03125e-06
2.32935e-05
3.81907e-05
2.47354e-05
6.42494e-06
2.86607e-05
6.42076e-05
5.9779e-05
6.04802e-05
6.24324e-05
6.32791e-05
6.36562e-05
6.32337e-05
6.18191e-05
5.82086e-05
3.3515e-05
9.66982e-06
6.83634e-06
1.40822e-05
4.98501e-05
7.81781e-05
8.54017e-05
8.93696e-05
8.93981e-05
9.88199e-05
0.000102884
0.000102475
0.000109753
0.000126589
0.000131371
0.000142928
0.000168771
0.00019242
0.000191058
7.79192e-05
4.92738e-05
6.811e-05
6.4113e-05
5.86236e-05
5.25275e-05
5.25747e-05
5.64176e-05
5.57401e-05
5.32871e-05
5.01263e-05
5.39084e-05
6.46616e-05
6.41594e-05
2.58148e-05
7.00751e-06
2.94911e-06
2.12809e-06
2.08443e-06
1.83567e-06
1.88727e-06
1.64685e-06
1.53002e-06
1.54844e-06
2.30863e-06
5.67258e-06
1.27348e-05
9.1396e-06
1.24564e-06
1.3621e-07
7.35657e-08
4.66596e-06
4.47866e-06
3.54026e-06
4.69734e-06
3.99518e-06
5.5063e-06
6.0773e-05
4.26614e-05
5.62013e-05
5.67627e-05
6.25069e-05
6.01627e-05
5.64021e-05
4.76939e-05