/*--------------------------------*- C++ -*----------------------------------*\
| =========                 |                                                 |
| \\      /  F ield         | OpenFOAM: The Open Source CFD Toolbox           |
|  \\    /   O peration     | Version:  2.1.1                                 |
|   \\  /    A nd           | Web:      www.OpenFOAM.org                      |
|    \\/     M anipulation  |                                                 |
\*---------------------------------------------------------------------------*/
FoamFile
{
    version     2.0;
    format      ascii;
    class       volScalarField;
    location    "0.003850000";
    object      HO2;
}
// * * * * * * * * * * * * * * * * * * * * * * * * * * * * * * * * * * * * * //

dimensions      [0 0 0 0 0 0 0];

internalField   nonuniform List<scalar> 
12384
(
1.8547e-05
1.08333e-05
7.51693e-06
7.1793e-06
7.52745e-06
1.00586e-05
1.21238e-05
2.30599e-05
2.89635e-05
3.16904e-05
2.09864e-05
9.55145e-06
5.88484e-06
4.74675e-06
3.62467e-06
4.41075e-06
6.04807e-06
7.62679e-06
8.42242e-06
8.70972e-06
8.93201e-06
8.80771e-06
8.79387e-06
8.93945e-06
8.35008e-06
8.81143e-06
8.16069e-06
9.15476e-06
9.45152e-06
1.00719e-05
1.2496e-05
1.36637e-05
1.32163e-05
1.29405e-05
1.24183e-05
1.29078e-05
1.32756e-05
1.32378e-05
1.05117e-05
7.85758e-06
5.6243e-06
6.07493e-06
8.21494e-06
5.46554e-06
1.13516e-05
1.16031e-05
1.11514e-05
1.07444e-05
1.05046e-05
1.04236e-05
1.06154e-05
1.06336e-05
1.05051e-05
9.83238e-06
9.15121e-06
8.19065e-06
7.71045e-06
6.92417e-06
6.59374e-06
7.35112e-06
6.40542e-06
4.84909e-06
2.28672e-06
2.1712e-06
1.38938e-06
1.38371e-06
1.31459e-06
1.21258e-06
1.46152e-06
1.40093e-06
1.83054e-06
4.23546e-06
5.54177e-06
4.96388e-06
1.49746e-06
1.25015e-06
9.84833e-07
8.18573e-07
7.00926e-07
6.6834e-07
6.28117e-07
6.62486e-07
7.04535e-07
7.00415e-07
7.12166e-07
8.53071e-07
7.20282e-07
8.58893e-07
7.76638e-07
8.97831e-07
9.64242e-07
9.75521e-07
9.50139e-07
9.41453e-07
9.17507e-07
8.53005e-07
8.11396e-07
1.51022e-06
3.77222e-06
2.58659e-06
3.08971e-06
4.8295e-06
5.33909e-06
5.56505e-06
4.4656e-06
2.87419e-06
2.18311e-06
1.74151e-06
1.50698e-06
1.33184e-06
1.20174e-06
1.17439e-06
1.17502e-06
1.24057e-06
1.40281e-06
1.42789e-06
1.64268e-06
1.80688e-06
1.96915e-06
2.38965e-06
2.87916e-06
3.13487e-06
3.65887e-06
4.65973e-06
4.83017e-06
5.74514e-06
5.9139e-06
5.9849e-06
3.63376e-06
1.26071e-06
2.96057e-06
5.12965e-06
5.61393e-06
5.62307e-06
5.51232e-06
5.74349e-06
4.72018e-06
1.5339e-06
1.84932e-07
4.22432e-08
2.35818e-08
2.15396e-08
2.49471e-08
3.0742e-08
3.69354e-08
4.24539e-08
4.85133e-08
6.14676e-08
9.14679e-08
1.22323e-07
1.47961e-07
1.28057e-07
1.13496e-07
6.8725e-08
7.20176e-08
5.20646e-08
4.86325e-08
4.47293e-08
5.80374e-08
6.7602e-08
9.56047e-08
2.52194e-07
8.60858e-06
9.53257e-06
3.20667e-06
5.27417e-06
1.75316e-06
1.74822e-07
8.35105e-07
6.1189e-06
6.81121e-06
6.25558e-06
1.48075e-06
3.07348e-07
1.28098e-07
9.64633e-08
5.77174e-08
6.32365e-08
5.20785e-08
4.49015e-08
4.76284e-08
4.69172e-08
6.50774e-08
7.25333e-08
8.67934e-08
8.87241e-08
8.45751e-08
8.29457e-08
1.28252e-07
4.35675e-07
4.14475e-06
5.0418e-06
2.56804e-06
2.79057e-06
4.38922e-06
4.84849e-06
5.35984e-06
5.59142e-06
5.68158e-06
5.59721e-06
5.06066e-06
5.05788e-06
9.80907e-09
1.21329e-09
2.29595e-09
3.3958e-09
5.83634e-09
9.13376e-09
1.50833e-08
2.38271e-08
3.34125e-08
4.81929e-08
6.16822e-08
1.03224e-07
1.35206e-07
2.00939e-07
2.46275e-07
2.43225e-07
1.95966e-07
1.01984e-07
4.38196e-08
1.15278e-08
9.29218e-09
3.73979e-06
2.77337e-06
2.45614e-06
3.009e-06
3.05518e-06
3.5839e-06
3.99829e-06
5.51119e-06
1.53978e-06
5.45677e-08
1.38641e-08
4.57822e-09
1.87723e-09
1.12952e-09
7.53253e-10
5.95164e-10
5.40682e-10
4.44892e-10
3.8941e-10
3.71779e-10
3.71685e-10
6.14677e-10
1.36517e-09
6.89484e-09
5.06516e-07
5.90575e-06
3.93519e-06
3.28501e-06
2.9209e-06
3.48782e-06
5.44738e-06
7.50499e-06
7.42165e-06
8.15125e-06
8.76546e-06
8.27304e-06
6.6663e-06
4.62868e-06
4.01488e-06
4.81622e-06
6.08595e-06
8.42722e-06
8.32882e-06
4.564e-07
7.84573e-08
5.78682e-08
3.85213e-08
4.73605e-08
3.9243e-08
4.05255e-08
4.61944e-08
4.62682e-08
4.92942e-08
5.07641e-08
7.39832e-08
9.52938e-08
1.12458e-07
1.16002e-07
1.03404e-07
5.01772e-08
2.31319e-07
1.79243e-06
1.92315e-06
2.17653e-06
2.79631e-06
3.57684e-06
3.73504e-06
3.54134e-06
2.96357e-06
2.70042e-06
2.99752e-06
2.85178e-06
4.65374e-06
4.94457e-06
5.20908e-06
5.61385e-06
5.94534e-06
5.98615e-06
5.82628e-06
5.64134e-06
8.6474e-06
1.02435e-05
1.24034e-05
1.12094e-05
1.11154e-05
1.14041e-05
1.19275e-05
1.11438e-05
1.18656e-05
1.17877e-05
1.06857e-05
3.42538e-06
4.36294e-06
7.05671e-06
8.06184e-06
7.92533e-06
7.97346e-06
8.60558e-06
9.78024e-06
9.56712e-06
1.05762e-05
8.7058e-06
2.36651e-06
8.54849e-07
6.40577e-07
2.74634e-07
2.47705e-07
2.65947e-07
3.248e-07
7.16872e-07
3.16681e-06
1.0052e-05
1.2703e-05
1.07325e-05
7.99075e-06
6.98893e-06
6.16695e-06
5.95103e-06
5.82169e-06
6.6997e-06
8.36248e-06
2.42502e-06
2.8205e-06
5.31079e-06
6.25425e-06
7.97681e-06
8.31566e-06
8.89208e-06
7.98935e-06
7.13537e-06
5.30575e-06
5.49846e-06
4.53767e-06
4.8263e-06
3.9205e-06
4.21481e-06
3.57211e-06
3.62312e-06
3.24421e-06
3.17212e-06
3.10918e-06
3.48558e-06
3.21402e-06
3.77808e-06
3.91667e-06
4.68492e-06
5.03996e-06
5.37207e-06
5.45936e-06
6.47649e-06
6.29931e-06
1.17697e-06
1.50543e-06
2.89557e-06
4.25322e-06
3.85291e-06
2.40525e-06
1.41735e-06
1.65688e-06
3.62574e-06
1.27589e-05
2.68791e-05
1.66153e-05
7.75789e-06
5.98604e-06
3.62861e-06
4.58648e-06
7.72117e-06
9.4615e-06
9.87254e-06
1.00947e-05
1.01776e-05
1.03006e-05
1.07914e-05
1.04901e-05
1.05968e-05
1.02999e-05
9.16064e-06
9.003e-06
8.6039e-06
9.14763e-06
1.05314e-05
1.23518e-05
1.37448e-05
1.32674e-05
1.26033e-05
1.22465e-05
1.28113e-05
1.35908e-05
1.31604e-05
1.017e-05
6.81184e-06
5.89627e-06
7.96916e-06
5.66358e-06
1.02362e-05
9.7949e-06
9.35684e-06
8.9475e-06
8.5554e-06
8.54049e-06
8.62333e-06
8.84377e-06
8.88081e-06
8.84646e-06
8.48914e-06
8.06879e-06
7.48292e-06
7.05274e-06
6.43694e-06
6.67998e-06
6.78209e-06
6.85108e-06
4.06942e-06
3.06566e-06
1.97691e-06
1.26984e-06
1.05203e-06
8.82893e-07
8.34013e-07
1.05816e-06
1.57201e-06
4.47702e-06
5.5409e-06
4.99607e-06
8.59901e-07
2.21614e-07
1.93168e-07
1.94969e-07
2.09837e-07
2.29138e-07
4.87716e-07
6.03502e-07
8.3148e-07
1.058e-06
1.29188e-06
1.47478e-06
2.20065e-06
2.67388e-06
3.10751e-06
3.57011e-06
3.67941e-06
3.59937e-06
3.11719e-06
2.54819e-06
1.78797e-06
1.2404e-06
9.45272e-07
1.02429e-06
2.34082e-06
3.36055e-06
2.59777e-06
2.43167e-06
3.50174e-06
4.93964e-06
2.36688e-06
9.47319e-07
8.977e-07
9.4043e-07
9.04073e-07
8.39069e-07
7.14848e-07
6.01368e-07
5.07958e-07
4.34079e-07
4.22257e-07
4.37007e-07
4.47602e-07
1.08001e-06
1.8347e-06
2.67846e-06
3.76262e-06
5.00694e-06
5.48163e-06
6.31018e-06
6.72148e-06
6.67158e-06
6.86528e-06
6.5358e-06
5.26911e-06
2.0239e-06
1.36361e-06
2.50855e-06
5.02927e-06
5.64248e-06
5.60363e-06
5.632e-06
2.84557e-06
2.20416e-07
4.0925e-08
1.64716e-08
2.10694e-08
3.65999e-08
5.15324e-08
9.60492e-08
1.62208e-07
3.5622e-07
1.08998e-06
1.66525e-06
1.94183e-06
1.74794e-06
1.26684e-06
6.46488e-07
3.11778e-07
2.08612e-07
1.70847e-07
1.40989e-07
1.1589e-07
1.27572e-07
8.6953e-08
9.3181e-08
8.89749e-08
1.44569e-07
6.96173e-07
8.8081e-06
8.36737e-08
1.39672e-06
6.3919e-07
1.9688e-07
1.94861e-06
5.33182e-06
1.24936e-06
5.20753e-08
1.66392e-08
1.07545e-08
9.9538e-09
1.20268e-08
1.72862e-08
3.12537e-08
5.86491e-08
1.97065e-07
8.10291e-07
1.99423e-06
2.66291e-06
2.86468e-06
1.90365e-06
1.0289e-06
1.95507e-07
8.97372e-08
4.58361e-08
7.32611e-08
1.02255e-06
5.86296e-06
2.96583e-06
2.73404e-06
4.49954e-06
5.30674e-06
5.70205e-06
5.68029e-06
5.68753e-06
5.37412e-06
5.74901e-06
5.13847e-08
1.79873e-09
2.50728e-09
3.17639e-09
6.34528e-09
8.82978e-09
1.21534e-08
1.32285e-08
1.71788e-08
2.12136e-08
3.00261e-08
3.50022e-08
6.57915e-08
1.6016e-07
4.93031e-07
2.15574e-06
3.15544e-06
1.61622e-06
3.63585e-07
8.24292e-08
1.2831e-08
8.16837e-09
3.06674e-06
3.6209e-06
3.5226e-06
3.47964e-06
3.57038e-06
3.55964e-06
4.94414e-06
3.93652e-06
4.63336e-08
3.80991e-09
6.89257e-10
2.7489e-10
2.21358e-10
2.07764e-10
1.93641e-10
1.80403e-10
1.54798e-10
1.26177e-10
9.96219e-11
9.15219e-11
5.19289e-11
3.68209e-11
2.4321e-11
2.27462e-11
4.69298e-11
1.99368e-10
5.21486e-09
1.18672e-06
4.67086e-06
2.40573e-06
4.27734e-06
7.4156e-06
7.55815e-06
8.45069e-06
8.33409e-06
7.13781e-06
5.04154e-06
3.70155e-06
3.83198e-06
4.94776e-06
7.07504e-06
9.76077e-06
3.16662e-06
1.70387e-07
3.677e-08
4.25746e-08
3.84656e-08
4.09847e-08
2.82697e-08
2.8975e-08
2.97139e-08
3.33429e-08
3.84485e-08
4.72784e-08
8.02637e-08
1.24701e-07
1.59177e-07
2.00793e-07
1.94435e-07
5.67878e-08
2.28981e-07
1.81302e-06
2.00749e-06
2.39036e-06
3.05407e-06
3.6337e-06
3.64014e-06
3.44956e-06
2.96633e-06
2.79364e-06
2.48354e-06
3.13513e-06
3.47449e-06
3.14271e-06
2.81649e-06
2.78861e-06
2.77449e-06
3.1265e-06
6.22473e-06
1.02739e-05
2.41201e-06
5.38438e-07
8.89218e-07
1.52211e-06
2.89039e-06
6.36329e-06
1.05935e-05
8.95483e-06
7.17356e-06
1.05744e-05
1.13106e-05
3.60752e-06
5.34931e-06
7.70136e-06
8.40112e-06
8.62647e-06
9.83546e-06
1.20801e-05
4.17325e-06
1.00757e-07
1.78228e-08
7.92929e-09
6.1507e-09
7.27751e-09
6.80941e-09
6.88388e-09
5.08668e-09
4.61937e-09
3.70797e-09
3.14341e-09
2.79687e-09
2.71011e-09
3.97751e-09
1.02183e-08
8.17377e-08
1.08732e-06
1.27878e-05
8.47559e-06
5.20367e-06
3.44737e-06
4.10682e-06
2.63012e-06
3.92717e-06
5.85515e-06
7.50816e-06
8.43914e-06
9.9267e-06
1.12388e-05
1.16342e-05
1.09632e-05
1.04758e-05
1.11079e-05
1.06728e-05
1.1528e-05
1.04282e-05
1.05086e-05
9.74193e-06
9.61548e-06
9.45116e-06
9.26295e-06
8.97419e-06
8.34554e-06
8.8264e-06
9.18833e-06
1.00362e-05
9.34477e-06
7.61525e-06
6.29795e-06
5.1008e-06
4.48969e-06
5.48844e-06
1.65436e-06
7.00625e-06
1.70808e-05
2.03122e-05
2.04824e-05
2.00829e-05
7.58583e-06
1.87488e-06
8.34004e-07
1.63047e-06
8.64223e-06
2.22323e-05
1.16846e-05
7.02559e-06
4.50083e-06
7.94481e-06
9.9424e-06
1.07361e-05
1.08121e-05
1.0878e-05
1.06028e-05
1.01494e-05
1.01382e-05
9.94238e-06
1.07346e-05
1.15561e-05
1.15055e-05
1.21241e-05
9.48155e-06
8.58391e-06
8.40435e-06
8.55574e-06
1.12515e-05
1.31134e-05
1.25415e-05
1.21154e-05
1.22438e-05
1.37089e-05
1.42519e-05
1.24224e-05
7.8628e-06
6.12025e-06
7.77592e-06
5.76251e-06
9.16884e-06
8.86074e-06
8.58246e-06
8.41097e-06
8.53399e-06
8.31798e-06
8.17712e-06
7.91945e-06
7.87208e-06
7.66658e-06
7.66589e-06
7.35248e-06
7.21673e-06
6.84939e-06
6.49037e-06
6.08556e-06
6.00413e-06
6.91892e-06
6.01577e-06
4.92663e-06
3.44504e-06
2.07753e-06
1.22561e-06
8.08648e-07
5.97709e-07
7.02954e-07
1.22385e-06
3.35524e-06
5.6048e-06
5.01843e-06
1.61198e-07
1.61887e-07
1.92955e-07
4.40736e-07
8.27485e-07
1.16302e-06
1.42349e-06
1.95172e-06
2.66067e-06
3.48677e-06
4.06014e-06
4.62333e-06
5.0625e-06
5.24525e-06
5.44694e-06
5.5879e-06
5.61134e-06
5.62946e-06
5.56177e-06
5.35536e-06
4.66852e-06
3.01277e-06
1.33693e-06
1.00202e-06
1.28302e-06
2.71217e-06
3.15907e-06
2.3963e-06
2.29255e-06
3.93067e-06
6.81945e-07
1.1205e-06
2.78802e-06
3.04132e-06
2.46739e-06
1.97639e-06
1.6303e-06
1.39138e-06
8.81377e-07
7.33185e-07
6.11255e-07
5.18436e-07
5.02742e-07
7.86226e-07
1.34267e-06
2.12653e-06
3.85654e-06
5.48378e-06
6.46054e-06
7.28726e-06
7.04562e-06
6.99483e-06
6.681e-06
6.48716e-06
6.13475e-06
4.00223e-06
1.35739e-06
1.25069e-06
3.10536e-06
5.56178e-06
5.74771e-06
4.73346e-06
8.23141e-07
4.94166e-08
1.69395e-08
2.25972e-08
4.29275e-08
5.41213e-08
9.57309e-08
1.48813e-07
4.73307e-07
1.58423e-06
4.09047e-06
4.51346e-06
2.84915e-06
1.08131e-06
2.63485e-07
1.03794e-07
7.81983e-08
5.44675e-08
4.64027e-08
4.81486e-08
5.28409e-08
8.89179e-08
9.37473e-08
1.1503e-07
1.16847e-07
1.40985e-07
2.66352e-07
3.29868e-06
9.8349e-09
1.5442e-07
2.12744e-07
2.15639e-07
1.46096e-06
4.82179e-07
2.30255e-08
7.64327e-09
6.33096e-09
4.65077e-09
7.87938e-09
1.47529e-08
4.27505e-08
2.42647e-07
1.6286e-06
5.73096e-06
6.13834e-06
5.72701e-06
5.78643e-06
5.73174e-06
5.92147e-06
4.66212e-06
1.17443e-06
1.25041e-07
3.20513e-08
2.92075e-08
1.46397e-07
5.88847e-06
3.23169e-06
2.72297e-06
4.89416e-06
5.59795e-06
5.59106e-06
5.54897e-06
5.63846e-06
5.39795e-06
1.05239e-06
3.86053e-09
1.45141e-09
2.24073e-09
3.48266e-09
3.98925e-09
5.63346e-09
8.48775e-09
1.10943e-08
1.37784e-08
1.7039e-08
2.0581e-08
2.29818e-08
2.6013e-08
6.68164e-08
2.7404e-07
1.2093e-06
1.32449e-06
3.62732e-07
4.91528e-08
1.12934e-08
3.36654e-09
5.86937e-09
6.32546e-06
3.97885e-06
4.01762e-06
4.152e-06
3.61544e-06
4.00216e-06
5.77428e-06
1.70669e-07
5.02829e-09
6.1147e-10
2.41802e-10
2.31269e-10
2.6409e-10
3.66505e-10
4.27056e-10
4.22892e-10
3.96176e-10
2.47669e-10
2.29551e-10
1.69869e-10
7.33771e-11
3.44493e-11
1.71944e-11
1.58443e-11
1.65753e-11
1.75769e-11
3.0658e-11
5.35788e-10
4.92285e-08
5.00262e-06
2.37515e-06
7.23181e-06
7.64438e-06
8.10979e-06
7.341e-06
5.4688e-06
3.81368e-06
3.07813e-06
3.38014e-06
4.61128e-06
7.51023e-06
9.64681e-06
1.2232e-06
1.32363e-07
3.69258e-08
5.70751e-08
5.71246e-08
7.11813e-08
3.82488e-08
3.59336e-08
2.48778e-08
2.1235e-08
2.70195e-08
3.57775e-08
5.14333e-08
1.03244e-07
1.26526e-07
1.66547e-07
2.17729e-07
9.2304e-08
4.43104e-07
1.75847e-06
1.95283e-06
2.43144e-06
3.13645e-06
3.56117e-06
3.55517e-06
3.5157e-06
3.45837e-06
3.48941e-06
3.19305e-06
3.2905e-06
3.35217e-06
3.41976e-06
3.38049e-06
3.15945e-06
3.66964e-06
5.92548e-06
9.95862e-06
1.72156e-06
4.03812e-07
5.07263e-07
6.5306e-07
8.80865e-07
1.9329e-06
8.79183e-06
7.41422e-06
3.84419e-06
5.66517e-06
7.1654e-06
1.00527e-05
3.8783e-06
6.20044e-06
8.39208e-06
9.02335e-06
1.0776e-05
1.25471e-05
6.51516e-07
1.93825e-08
4.418e-09
5.43449e-09
8.30101e-09
2.23869e-08
6.99616e-08
1.45164e-07
1.99924e-07
1.17696e-07
8.9527e-08
4.60163e-08
2.03521e-08
7.74541e-09
2.53188e-09
1.09927e-09
8.39272e-10
8.70876e-10
1.49094e-09
5.86377e-09
9.24132e-08
7.29912e-06
5.82792e-06
2.58729e-06
2.77417e-06
4.84299e-06
7.15654e-06
9.19052e-06
1.23311e-05
1.49576e-05
1.76321e-05
1.55077e-05
6.81603e-06
1.0879e-06
3.02226e-07
7.12847e-08
3.7721e-08
1.9983e-08
1.96016e-08
1.81032e-08
1.53504e-08
1.31306e-08
1.1945e-08
1.43179e-08
1.79758e-08
1.63501e-08
1.32616e-08
1.92746e-08
5.93662e-08
4.9375e-07
7.40243e-06
7.93298e-06
4.44982e-06
4.44268e-06
3.60682e-06
9.28997e-06
1.53233e-05
1.82805e-05
2.11913e-05
2.26587e-05
2.07308e-05
9.20534e-06
1.0467e-06
5.79451e-07
1.54125e-06
9.26253e-06
1.67753e-05
7.60267e-06
9.57802e-06
1.04536e-05
1.10031e-05
1.09831e-05
1.0634e-05
9.85636e-06
8.9425e-06
8.57288e-06
8.45846e-06
8.35504e-06
9.63515e-06
9.75024e-06
1.20486e-05
1.3185e-05
1.16346e-05
8.86645e-06
7.06444e-06
6.72049e-06
7.90204e-06
1.15107e-05
1.25554e-05
1.1731e-05
1.23449e-05
1.33922e-05
1.52059e-05
1.30643e-05
8.05641e-06
6.00664e-06
8.04374e-06
6.22157e-06
8.43824e-06
8.60153e-06
8.6751e-06
8.6716e-06
8.25491e-06
8.25901e-06
8.30252e-06
8.11184e-06
7.6318e-06
7.47063e-06
7.10891e-06
7.1532e-06
6.85135e-06
6.99246e-06
6.34013e-06
6.03333e-06
5.70141e-06
6.28044e-06
6.67995e-06
6.50618e-06
5.15921e-06
3.58987e-06
1.57428e-06
9.01471e-07
6.10207e-07
5.9376e-07
8.59312e-07
3.57773e-06
5.61596e-06
5.11914e-06
1.69633e-07
4.14246e-07
1.03482e-06
1.71393e-06
2.86756e-06
3.68787e-06
4.08006e-06
4.34498e-06
4.6653e-06
4.93273e-06
5.11704e-06
5.31878e-06
5.48749e-06
5.55168e-06
5.54798e-06
5.59445e-06
5.61639e-06
5.6517e-06
5.68758e-06
5.69337e-06
5.68992e-06
4.91188e-06
2.67409e-06
1.15183e-06
1.03732e-06
1.53259e-06
3.17226e-06
3.00162e-06
2.38315e-06
3.60426e-06
6.41362e-07
3.58986e-06
3.78694e-06
2.23512e-06
1.05527e-06
1.02981e-06
1.10214e-06
1.11173e-06
1.35237e-06
1.28119e-06
1.11168e-06
9.03534e-07
9.56772e-07
1.06188e-06
1.48964e-06
2.23263e-06
3.60177e-06
5.36371e-06
6.63806e-06
7.22639e-06
7.6179e-06
6.82376e-06
6.14026e-06
6.02232e-06
6.01085e-06
5.28465e-06
2.19739e-06
1.16343e-06
2.23304e-06
5.43806e-06
5.71217e-06
2.51625e-06
1.34446e-07
2.38042e-08
1.61846e-08
3.40124e-08
4.80778e-08
5.23141e-08
8.69597e-08
1.57213e-07
9.83258e-07
3.87458e-06
5.46509e-06
4.63191e-06
1.31432e-06
1.93239e-07
7.42426e-08
4.56805e-08
3.86319e-08
3.46519e-08
3.22853e-08
3.10531e-08
3.19361e-08
5.05279e-08
8.26207e-08
1.21984e-07
1.38961e-07
1.62832e-07
2.09054e-07
1.94235e-06
3.08635e-09
3.89437e-08
1.30905e-07
3.09847e-07
2.07189e-07
2.56089e-08
6.28685e-09
4.91713e-09
5.05316e-09
5.87122e-09
7.57268e-09
2.08744e-08
9.01505e-08
1.47658e-06
6.34132e-06
6.30027e-06
6.11065e-06
5.21854e-06
5.26502e-06
5.63249e-06
5.91264e-06
3.76697e-06
5.17675e-07
4.74526e-08
1.53921e-08
1.56482e-08
6.57498e-08
5.4131e-06
3.32164e-06
2.74903e-06
5.09105e-06
5.6941e-06
5.40866e-06
5.50878e-06
5.53252e-06
5.82455e-06
4.41728e-08
1.63355e-09
1.64334e-09
2.19468e-09
2.33732e-09
3.89251e-09
4.53703e-09
5.24148e-09
1.09862e-08
1.73537e-08
2.67256e-08
3.25447e-08
3.25862e-08
2.92832e-08
3.5221e-08
1.51375e-07
6.4695e-07
4.16221e-07
6.19725e-08
6.43998e-09
2.73252e-09
3.05511e-09
1.73695e-08
7.97643e-06
4.44284e-06
4.34086e-06
4.24983e-06
3.8262e-06
5.02008e-06
2.57141e-06
2.1585e-08
1.28367e-09
3.71204e-10
2.52986e-10
4.01689e-10
5.24759e-10
5.97241e-10
6.27549e-10
6.40011e-10
5.9728e-10
5.57019e-10
4.12797e-10
2.35874e-10
1.35708e-10
4.42207e-11
1.3505e-11
9.46067e-12
1.84194e-11
1.67416e-11
1.433e-11
2.53362e-11
3.59982e-10
6.99578e-07
2.49588e-06
6.97008e-06
6.93633e-06
7.58518e-06
6.33645e-06
4.8875e-06
3.56917e-06
2.91571e-06
2.92792e-06
3.9167e-06
7.26014e-06
9.14509e-06
6.68547e-07
1.11361e-07
4.39632e-08
9.48179e-08
1.12143e-07
1.37906e-07
9.39333e-08
6.91603e-08
4.24856e-08
2.35674e-08
1.70882e-08
2.7302e-08
4.39357e-08
8.47204e-08
8.48598e-08
1.00436e-07
1.5588e-07
8.09549e-08
9.32207e-07
1.79824e-06
2.04919e-06
2.56396e-06
3.07828e-06
3.42946e-06
3.57395e-06
3.74578e-06
4.53989e-06
5.20436e-06
5.01441e-06
5.55346e-06
4.32849e-06
5.1323e-06
6.71979e-06
7.55647e-06
8.2663e-06
8.73789e-06
2.31128e-06
4.26456e-07
5.82939e-07
5.64072e-07
4.63758e-07
4.40707e-07
8.39728e-07
8.64896e-06
6.64849e-06
4.4642e-06
4.35341e-06
4.50095e-06
8.47232e-06
3.93325e-06
6.76516e-06
9.12685e-06
1.12399e-05
1.22775e-05
7.12208e-07
1.81923e-08
4.77454e-09
4.93595e-09
1.32159e-08
7.92284e-08
4.66149e-07
1.06766e-06
1.29127e-06
1.14913e-06
1.13863e-06
9.34277e-07
4.75033e-07
1.94418e-07
6.49964e-08
1.55958e-08
3.46096e-09
9.11724e-10
4.8561e-10
4.15435e-10
4.99804e-10
1.24978e-09
1.12474e-08
1.28314e-05
3.00791e-06
3.35936e-06
5.95691e-06
8.8485e-06
1.3124e-05
1.5313e-05
8.53061e-06
8.62909e-07
1.61628e-07
2.65721e-08
8.32345e-09
2.95853e-09
1.40428e-09
1.08061e-09
7.68218e-10
7.9056e-10
7.97734e-10
7.89232e-10
7.82953e-10
6.33948e-10
5.17917e-10
5.48056e-10
6.44322e-10
6.81203e-10
1.16377e-09
2.67862e-09
7.57972e-09
3.22201e-08
6.33995e-06
6.16074e-06
3.5717e-06
1.71058e-06
4.09981e-06
7.27416e-06
9.91077e-06
1.4644e-05
2.07898e-05
2.21129e-05
1.56835e-05
2.17977e-06
5.20845e-07
6.14255e-07
2.33567e-06
1.49234e-05
8.26269e-06
1.12366e-05
1.11749e-05
1.07784e-05
1.01287e-05
9.34224e-06
8.82334e-06
8.41149e-06
8.3435e-06
8.54909e-06
8.74654e-06
1.01338e-05
1.04111e-05
1.25952e-05
1.27701e-05
1.0088e-05
7.15282e-06
4.98999e-06
4.86217e-06
7.12776e-06
1.11502e-05
1.20558e-05
1.19396e-05
1.23042e-05
1.45347e-05
1.55208e-05
1.31381e-05
7.2081e-06
5.22286e-06
7.49025e-06
6.59961e-06
8.80078e-06
8.51151e-06
8.24033e-06
7.91821e-06
8.13531e-06
8.04636e-06
7.93779e-06
7.86783e-06
7.71097e-06
7.29477e-06
7.25548e-06
7.08729e-06
7.14309e-06
6.89204e-06
6.4141e-06
6.20209e-06
5.77986e-06
6.67896e-06
7.3248e-06
7.13903e-06
5.19663e-06
3.23172e-06
1.45086e-06
9.76608e-07
6.26346e-07
5.88556e-07
8.25272e-07
2.66503e-06
5.6904e-06
5.15321e-06
1.13526e-06
2.88254e-06
4.27296e-06
4.987e-06
5.22617e-06
5.3161e-06
5.41625e-06
5.44074e-06
5.51225e-06
5.50974e-06
5.51434e-06
5.50452e-06
5.53604e-06
5.51843e-06
5.54998e-06
5.58932e-06
5.60331e-06
5.66715e-06
5.66221e-06
5.6921e-06
5.71227e-06
5.41856e-06
3.90105e-06
1.3985e-06
1.01013e-06
1.31728e-06
2.8821e-06
3.30656e-06
2.89667e-06
3.61717e-06
1.70819e-06
4.92606e-06
2.18603e-06
5.56643e-07
5.71123e-07
8.58308e-07
1.10221e-06
1.2556e-06
1.42518e-06
1.21011e-06
1.02835e-06
1.11634e-06
1.11635e-06
1.36828e-06
1.70288e-06
2.09244e-06
2.87878e-06
4.22414e-06
6.02225e-06
7.63694e-06
7.1206e-06
6.33894e-06
5.51568e-06
5.2565e-06
5.64756e-06
5.66736e-06
3.23746e-06
1.25507e-06
1.7522e-06
5.36828e-06
5.35107e-06
8.14324e-07
4.01209e-08
1.49531e-08
2.23788e-08
4.22153e-08
4.97787e-08
5.29514e-08
9.6421e-08
1.82664e-07
1.47639e-06
4.9903e-06
5.49779e-06
4.06152e-06
6.33841e-07
1.01185e-07
5.7439e-08
4.1222e-08
4.10541e-08
4.29797e-08
3.71011e-08
3.78093e-08
3.66426e-08
3.65135e-08
8.47812e-08
1.21614e-07
1.71583e-07
1.94497e-07
2.13316e-07
1.41115e-06
1.73332e-09
2.36309e-08
1.07487e-07
1.72562e-07
4.08528e-08
7.2209e-09
3.74017e-09
4.83209e-09
4.91486e-09
4.9241e-09
7.15697e-09
2.44786e-08
1.87235e-07
4.63431e-06
7.02468e-06
6.50098e-06
5.89615e-06
5.01951e-06
5.08394e-06
5.36445e-06
5.96085e-06
4.69267e-06
7.96797e-07
5.28638e-08
2.23323e-08
2.15025e-08
1.39588e-07
5.94321e-06
3.19513e-06
2.7921e-06
5.41159e-06
5.6714e-06
5.6442e-06
5.41034e-06
5.66332e-06
5.80515e-06
1.41017e-08
1.41119e-09
1.64652e-09
1.96381e-09
2.25976e-09
2.61719e-09
3.57715e-09
3.88861e-09
4.00471e-09
5.91358e-09
1.4293e-08
3.96754e-08
5.99098e-08
4.34105e-08
3.36039e-08
1.0286e-07
3.52239e-07
2.3414e-07
2.94968e-08
4.44196e-09
2.13394e-09
5.21292e-09
8.61893e-08
6.94887e-06
4.25836e-06
4.4281e-06
3.83889e-06
3.85602e-06
5.86944e-06
4.77359e-07
5.04014e-09
6.55423e-10
3.50414e-10
3.88309e-10
5.34019e-10
6.60578e-10
7.29365e-10
9.85708e-10
1.01626e-09
1.04604e-09
7.36651e-10
6.58936e-10
5.16353e-10
3.42857e-10
1.30987e-10
2.26352e-11
8.00253e-12
2.73628e-11
7.51403e-11
4.53355e-11
1.81206e-11
2.67996e-11
1.63064e-09
3.92541e-06
6.49313e-06
6.49829e-06
6.45111e-06
6.19246e-06
5.0526e-06
4.16826e-06
3.02734e-06
2.76961e-06
3.19317e-06
6.36027e-06
9.16518e-06
7.55671e-07
1.53182e-07
5.77548e-08
1.3344e-07
1.81255e-07
3.36351e-07
3.31204e-07
2.75674e-07
1.16454e-07
3.9145e-08
1.70163e-08
1.63513e-08
3.24233e-08
5.55871e-08
9.14744e-08
4.69864e-08
5.01911e-08
1.20555e-07
1.37011e-06
1.72088e-06
1.8242e-06
2.27098e-06
2.81538e-06
3.13723e-06
3.61218e-06
4.4926e-06
5.61397e-06
5.21409e-06
4.84609e-06
6.12759e-06
7.55546e-06
7.57785e-06
6.63453e-06
2.26745e-06
1.45596e-06
5.73804e-07
2.906e-07
4.8752e-07
8.38727e-07
9.88075e-07
4.64973e-07
4.06255e-07
4.65807e-07
5.53017e-06
6.46811e-06
4.37698e-06
6.23382e-06
1.06085e-06
5.8956e-06
3.93537e-06
6.89944e-06
1.03677e-05
1.20536e-05
2.5117e-06
3.3766e-08
5.222e-09
4.20742e-09
1.15383e-08
1.07067e-07
5.92852e-07
1.27674e-06
1.33039e-06
1.25606e-06
9.51061e-07
8.77336e-07
9.09637e-07
9.3887e-07
4.52678e-07
1.47777e-07
3.60547e-08
7.88282e-09
1.58935e-09
4.95227e-10
4.09888e-10
3.42201e-10
3.77721e-10
1.01896e-09
1.99956e-07
4.65562e-06
3.68403e-06
7.11658e-06
1.15469e-05
1.37309e-05
1.47714e-06
1.65397e-07
2.85926e-08
6.3297e-09
2.09489e-09
1.01348e-09
6.95184e-10
5.24237e-10
4.95627e-10
4.05453e-10
4.32192e-10
3.63002e-10
4.07139e-10
3.54401e-10
3.6828e-10
3.77288e-10
3.2186e-10
3.25921e-10
4.48209e-10
8.48695e-10
3.06785e-09
1.1991e-08
1.71463e-08
9.66137e-08
1.09272e-05
3.73872e-06
1.17262e-06
3.52342e-06
5.50679e-06
7.12781e-06
1.34229e-05
1.95428e-05
2.09432e-05
1.85446e-05
4.30328e-06
7.07896e-07
5.40459e-07
1.03942e-06
7.30342e-06
9.3128e-06
1.08859e-05
1.07434e-05
1.00386e-05
9.52408e-06
9.15748e-06
8.59048e-06
8.60437e-06
8.7239e-06
8.72279e-06
9.56084e-06
9.94908e-06
1.05904e-05
1.01316e-05
7.45692e-06
6.32501e-06
4.56972e-06
4.56795e-06
6.2652e-06
9.02727e-06
1.2333e-05
1.17449e-05
1.24191e-05
1.38185e-05
1.5395e-05
1.5223e-05
9.70072e-06
4.22459e-06
3.6321e-06
7.28337e-06
8.16948e-06
8.52016e-06
8.26275e-06
7.94497e-06
7.6699e-06
7.64607e-06
7.68927e-06
7.54297e-06
7.58498e-06
7.60081e-06
7.58181e-06
7.7529e-06
7.83459e-06
7.62618e-06
7.16622e-06
6.82506e-06
6.4858e-06
6.97557e-06
7.96479e-06
6.94378e-06
3.95102e-06
1.82497e-06
9.71569e-07
6.27522e-07
6.3693e-07
7.11165e-07
7.81794e-07
9.75351e-07
3.6329e-06
5.69614e-06
5.32381e-06
4.05142e-06
5.3287e-06
5.59254e-06
5.62541e-06
5.63516e-06
5.60252e-06
5.6087e-06
5.58697e-06
5.56677e-06
5.53268e-06
5.53784e-06
5.52067e-06
5.50982e-06
5.52419e-06
5.53805e-06
5.55648e-06
5.61739e-06
5.61513e-06
5.64733e-06
5.65968e-06
5.65388e-06
5.46662e-06
4.1432e-06
1.48458e-06
9.84589e-07
1.198e-06
2.56819e-06
3.67971e-06
3.60198e-06
3.8438e-06
2.90278e-06
3.12539e-06
5.0555e-07
2.87605e-07
6.45688e-07
1.16913e-06
2.17095e-06
2.48095e-06
2.304e-06
1.77378e-06
1.21978e-06
7.48094e-07
1.00821e-06
1.33485e-06
1.60722e-06
2.01922e-06
2.47134e-06
4.19322e-06
7.42868e-06
6.88765e-06
5.88721e-06
5.14703e-06
4.71892e-06
4.893e-06
5.3899e-06
5.73587e-06
3.90298e-06
1.28898e-06
2.2916e-06
5.56019e-06
4.42368e-06
1.61487e-07
1.70611e-08
1.45427e-08
3.01654e-08
4.69098e-08
5.26264e-08
7.27496e-08
1.01217e-07
1.96279e-07
2.27837e-06
5.36625e-06
5.59861e-06
3.92422e-06
6.57329e-07
1.01264e-07
5.45707e-08
4.05338e-08
4.39902e-08
4.92499e-08
5.43792e-08
5.35948e-08
4.42549e-08
5.48862e-08
1.38393e-07
1.6506e-07
2.3097e-07
2.63374e-07
2.60035e-07
2.53566e-06
1.24782e-09
1.90459e-08
1.00462e-07
7.86569e-08
1.17596e-08
4.88674e-09
4.58656e-09
4.80566e-09
3.74847e-09
3.73586e-09
6.19354e-09
2.58701e-08
2.67123e-07
4.84554e-06
7.24845e-06
6.45626e-06
5.33309e-06
5.12241e-06
5.05248e-06
5.10665e-06
5.36693e-06
5.81484e-06
5.41742e-06
1.42107e-06
1.76495e-07
1.25299e-07
8.83937e-07
5.87448e-06
3.10214e-06
2.77255e-06
5.62856e-06
5.66441e-06
5.67817e-06
5.5908e-06
5.79108e-06
5.74958e-06
1.53474e-08
1.3279e-09
1.69721e-09
1.96735e-09
2.13139e-09
1.96239e-09
1.62053e-09
1.75586e-09
1.37862e-09
1.3311e-09
3.0284e-09
1.40547e-08
6.53225e-08
4.62836e-08
2.67483e-08
5.39803e-08
2.42541e-07
1.92821e-07
4.85117e-08
1.23378e-08
8.67391e-09
2.29486e-08
1.85727e-06
6.52723e-06
4.546e-06
4.21198e-06
3.91873e-06
4.65659e-06
4.92042e-06
4.80343e-08
2.67008e-09
5.63514e-10
3.83104e-10
4.40734e-10
6.24171e-10
7.22143e-10
1.12102e-09
1.25553e-09
1.39484e-09
1.3308e-09
1.22362e-09
9.78958e-10
6.45202e-10
4.9333e-10
3.63797e-10
7.89325e-11
7.83091e-12
2.43273e-11
5.6462e-10
2.45134e-09
2.33494e-10
2.92899e-11
1.37775e-10
5.66152e-06
6.0969e-06
5.28557e-06
5.85709e-06
5.69684e-06
5.58219e-06
5.24803e-06
4.06105e-06
2.96308e-06
2.98538e-06
5.16769e-06
9.23809e-06
1.62629e-06
2.2219e-07
7.03469e-08
1.12295e-07
2.10365e-07
3.42102e-07
3.81709e-07
3.81208e-07
2.50346e-07
6.66375e-08
2.50135e-08
1.48954e-08
1.66098e-08
4.24623e-08
1.15073e-07
1.20905e-07
9.20502e-08
3.38021e-07
2.66992e-06
1.71106e-06
1.81313e-06
2.15437e-06
2.48661e-06
2.89097e-06
3.61154e-06
4.86423e-06
5.54518e-06
8.06571e-07
1.20153e-07
2.2308e-07
8.24486e-07
7.24641e-07
9.23335e-08
3.44612e-08
6.90658e-08
1.22434e-07
2.78589e-07
6.16917e-07
1.03904e-06
8.71077e-07
5.55387e-07
2.56287e-07
2.44498e-07
1.93388e-06
5.6272e-06
4.59894e-06
6.75445e-06
5.53544e-07
6.56586e-06
3.72646e-06
6.93331e-06
1.09934e-05
9.08878e-06
1.33442e-07
8.33318e-09
3.47023e-09
4.83128e-09
4.96276e-08
3.68793e-07
1.15109e-06
1.17869e-06
1.14272e-06
8.90388e-07
8.15109e-07
5.06082e-07
3.87027e-07
6.16067e-07
6.5598e-07
2.153e-07
4.13072e-08
7.90536e-09
1.75967e-09
7.17955e-10
6.05911e-10
5.49474e-10
5.1673e-10
6.41174e-10
1.14646e-08
8.4957e-06
4.18299e-06
8.46955e-06
1.41529e-05
1.49569e-06
7.85659e-08
1.30881e-08
2.82493e-09
1.47586e-09
8.54879e-10
9.70631e-10
1.39988e-09
1.88903e-09
2.42469e-09
2.29645e-09
1.53634e-09
9.8322e-10
4.94529e-10
5.04325e-10
5.09545e-10
4.79782e-10
4.45103e-10
3.71726e-10
3.38428e-10
7.30862e-10
6.09648e-09
7.79214e-08
1.0445e-07
8.06277e-08
5.72229e-06
4.63086e-06
1.08722e-06
4.14872e-06
6.33115e-06
1.02744e-05
1.57502e-05
1.69394e-05
1.81452e-05
1.83904e-05
9.82e-06
1.47453e-06
6.00213e-07
7.92254e-07
4.23406e-06
1.04039e-05
1.00095e-05
9.24978e-06
8.5942e-06
8.0182e-06
8.273e-06
8.75694e-06
8.64272e-06
9.03015e-06
9.00201e-06
9.66844e-06
8.84203e-06
8.21714e-06
5.81742e-06
5.56271e-06
4.41305e-06
5.62045e-06
6.66104e-06
1.03188e-05
1.2202e-05
1.22634e-05
1.28622e-05
1.43211e-05
1.46704e-05
1.44829e-05
9.53857e-06
4.34989e-06
2.43826e-06
3.02677e-06
6.91452e-06
9.24147e-06
8.86504e-06
7.97784e-06
7.25799e-06
7.41329e-06
7.45469e-06
7.60387e-06
7.52314e-06
7.4139e-06
7.62715e-06
7.7398e-06
7.9655e-06
8.17236e-06
7.95178e-06
7.65462e-06
7.51608e-06
8.11531e-06
8.09982e-06
4.92877e-06
1.25969e-06
2.32986e-07
1.31727e-07
1.17268e-07
1.26769e-07
1.709e-07
3.19515e-07
5.79328e-07
1.1828e-06
4.11416e-06
5.68632e-06
5.37321e-06
4.81532e-06
5.65995e-06
5.66788e-06
5.65086e-06
5.64377e-06
5.61943e-06
5.58433e-06
5.57662e-06
5.46808e-06
5.48314e-06
5.33737e-06
5.32995e-06
5.22324e-06
5.22028e-06
5.2865e-06
5.39523e-06
5.4922e-06
5.576e-06
5.57089e-06
5.59866e-06
5.58821e-06
5.17966e-06
3.7174e-06
1.36923e-06
9.30325e-07
1.15144e-06
2.4485e-06
3.83342e-06
3.99221e-06
4.03155e-06
3.20737e-06
9.79361e-07
2.33941e-07
3.239e-07
1.03665e-06
2.18827e-06
2.69929e-06
2.76033e-06
2.59869e-06
1.86794e-06
1.00884e-06
7.68709e-07
8.10545e-07
1.04917e-06
1.44225e-06
1.94754e-06
4.61841e-06
7.61156e-06
5.83023e-06
5.28782e-06
4.68397e-06
4.43116e-06
4.52163e-06
4.8151e-06
5.43495e-06
5.85706e-06
3.15416e-06
1.40844e-06
2.98631e-06
5.68229e-06
2.55115e-06
5.05591e-08
1.4291e-08
1.55255e-08
3.68399e-08
4.95962e-08
5.32098e-08
5.28046e-08
8.68684e-08
1.89457e-07
1.96829e-06
5.38409e-06
5.72625e-06
4.71819e-06
1.22305e-06
1.92626e-07
7.25151e-08
4.68151e-08
3.74389e-08
6.23542e-08
6.91806e-08
8.31358e-08
8.93874e-08
1.48829e-07
2.17838e-07
3.10269e-07
4.13558e-07
3.13528e-07
3.08321e-07
5.2368e-06
1.42821e-09
2.05001e-08
6.12341e-08
3.05334e-08
5.62817e-09
4.12171e-09
4.71829e-09
3.36717e-09
2.99584e-09
2.60973e-09
3.69378e-09
1.74188e-08
1.19821e-07
3.75649e-06
6.58711e-06
6.07534e-06
5.92941e-06
5.68743e-06
5.6559e-06
5.62154e-06
5.50672e-06
5.39859e-06
5.41906e-06
5.68325e-06
5.86103e-06
4.81989e-06
5.4536e-06
5.26792e-06
3.13027e-06
2.74168e-06
5.62984e-06
5.62504e-06
5.70378e-06
5.62294e-06
5.77214e-06
5.72374e-06
4.27576e-08
1.04713e-09
1.87914e-09
1.77705e-09
2.07318e-09
1.64848e-09
1.36406e-09
7.67172e-10