/*--------------------------------*- C++ -*----------------------------------*\
| =========                 |                                                 |
| \\      /  F ield         | OpenFOAM: The Open Source CFD Toolbox           |
|  \\    /   O peration     | Version:  2.1.1                                 |
|   \\  /    A nd           | Web:      www.OpenFOAM.org                      |
|    \\/     M anipulation  |                                                 |
\*---------------------------------------------------------------------------*/
FoamFile
{
    version     2.0;
    format      ascii;
    class       volScalarField;
    location    "0.003850000";
    object      O;
}
// * * * * * * * * * * * * * * * * * * * * * * * * * * * * * * * * * * * * * //

dimensions      [0 0 0 0 0 0 0];

internalField   nonuniform List<scalar> 
12384
(
0.00261835
0.00177928
0.00141912
0.00136268
0.00142436
0.00167621
0.00198773
0.00296467
0.00280013
0.00211782
0.000890333
0.000218388
0.000185585
0.000187266
3.62678e-05
5.75536e-05
0.000123893
0.000228387
0.000322399
0.000392559
0.000451618
0.000476246
0.000507688
0.000555885
0.000529061
0.000580158
0.000539333
0.000606944
0.000624322
0.000611218
0.000648627
0.000579584
0.000478201
0.000429728
0.000389736
0.000417664
0.000415252
0.00037321
0.0002223
0.000127164
6.73645e-05
9.06937e-05
0.000240331
0.00028549
0.000516065
0.000493534
0.000441372
0.000396077
0.000373143
0.000356915
0.00036412
0.000359989
0.000345657
0.000317452
0.00027738
0.000227439
0.000204686
0.000172433
0.000166246
0.000244732
0.000378561
0.000406595
0.000242931
0.000235443
0.000161597
0.00016018
0.000146919
0.000130742
0.000143746
0.000123317
0.000135496
0.000199801
0.000133772
8.82699e-05
0.00011981
0.000101507
8.23389e-05
7.07163e-05
6.32434e-05
6.15958e-05
5.92306e-05
6.40179e-05
6.60039e-05
6.72474e-05
6.6198e-05
7.73819e-05
6.46803e-05
7.47837e-05
6.74462e-05
7.60108e-05
8.03981e-05
8.07297e-05
7.86536e-05
7.73942e-05
7.58179e-05
6.95418e-05
6.5828e-05
0.000119316
0.000192082
0.000158813
0.000178011
0.000203283
0.000188431
0.000180368
0.000270376
0.000211656
0.000161487
0.000126968
0.000107476
9.78072e-05
8.36412e-05
8.41738e-05
8.61346e-05
9.3655e-05
0.000111054
0.000111417
0.000127461
0.000141575
0.000155215
0.000163859
0.000192938
0.000199346
0.000225375
0.000261787
0.000253926
0.000283516
0.000271614
0.000260128
0.000191145
0.000104379
0.000172795
0.000195996
0.000170792
0.000162894
0.000115971
0.000152124
0.000196696
0.000120778
2.7032e-05
8.48774e-06
4.99505e-06
4.51891e-06
5.21719e-06
6.17052e-06
7.40703e-06
8.26956e-06
9.33602e-06
8.70591e-06
1.20842e-05
1.60054e-05
1.90588e-05
1.64313e-05
1.52271e-05
9.40905e-06
1.08875e-05
1.01872e-05
9.44945e-06
8.68821e-06
1.08773e-05
1.21761e-05
2.12613e-05
4.35428e-05
0.000366007
0.000224899
0.000173239
0.000225227
0.000126571
2.22168e-05
5.4234e-05
0.000155345
0.000145036
0.000210807
0.000100584
3.83723e-05
2.2124e-05
1.56315e-05
8.04075e-06
9.99612e-06
8.3878e-06
7.9119e-06
8.57917e-06
8.97708e-06
8.89326e-06
1.10228e-05
1.24452e-05
1.28918e-05
1.2328e-05
1.13826e-05
1.74175e-05
3.00259e-05
0.000176954
6.96952e-05
1.61069e-05
1.87083e-05
6.14387e-05
7.84214e-05
0.000108127
0.000133764
0.000148345
0.000131662
8.96747e-05
0.000191387
2.35558e-06
3.81002e-07
6.64821e-07
6.59847e-07
1.31169e-06
1.99993e-06
3.38613e-06
5.34058e-06
7.20413e-06
1.074e-05
1.34877e-05
2.02426e-05
2.5512e-05
2.84626e-05
3.86768e-05
4.11879e-05
3.32484e-05
1.70601e-05
8.52481e-06
2.42611e-06
2.53572e-06
0.000266239
2.13228e-05
1.60707e-05
2.31145e-05
2.53861e-05
3.50192e-05
4.66551e-05
0.000113012
0.000123027
1.09792e-05
3.55052e-06
1.39006e-06
6.60404e-07
3.99477e-07
2.9765e-07
2.30572e-07
2.07876e-07
1.64421e-07
1.38284e-07
1.27301e-07
1.2675e-07
2.1987e-07
4.31572e-07
1.5857e-06
4.0835e-05
0.000154977
4.31822e-05
2.82434e-05
2.27515e-05
3.28667e-05
0.000107975
0.000122345
0.000120746
0.000163818
0.000209516
0.000194901
0.000102952
4.41259e-05
3.44759e-05
4.97841e-05
8.25923e-05
0.000178462
0.000400445
6.30122e-05
1.54244e-05
1.11456e-05
7.94871e-06
9.42079e-06
8.07576e-06
8.22678e-06
9.31179e-06
9.22388e-06
9.61518e-06
1.00098e-05
1.1883e-05
1.53224e-05
1.82926e-05
1.91534e-05
1.7396e-05
1.0448e-05
3.43529e-05
8.89977e-06
1.01139e-05
1.30257e-05
2.2255e-05
3.77822e-05
4.24076e-05
3.60151e-05
2.52692e-05
1.87659e-05
2.03843e-05
1.84198e-05
4.0136e-05
4.1091e-05
4.80338e-05
5.44919e-05
5.19941e-05
5.09697e-05
4.82787e-05
5.3739e-05
0.000114678
0.000194975
0.000467905
0.000547045
0.000595735
0.000583136
0.000530486
0.000427424
0.000322706
0.000205153
0.000141884
1.45112e-05
2.44141e-05
6.38337e-05
7.82636e-05
7.37478e-05
7.24764e-05
8.78048e-05
0.000126256
0.000145387
0.000251071
0.00030538
0.000154233
8.77276e-05
6.84777e-05
3.85153e-05
3.49667e-05
3.78294e-05
3.90324e-05
7.46799e-05
0.000198855
0.000364187
0.000274054
0.000153523
7.77081e-05
5.8523e-05
4.66866e-05
4.29967e-05
4.21941e-05
5.70665e-05
9.34618e-05
7.96927e-06
1.11167e-05
3.59403e-05
4.90944e-05
7.20081e-05
7.4909e-05
8.11192e-05
6.65888e-05
5.65305e-05
3.4343e-05
3.66731e-05
2.66607e-05
2.95265e-05
2.05791e-05
2.34454e-05
1.75689e-05
1.78952e-05
1.48291e-05
1.39801e-05
1.35299e-05
1.65723e-05
1.41847e-05
1.88256e-05
1.98718e-05
2.70545e-05
3.07509e-05
3.53693e-05
3.87961e-05
5.64394e-05
5.85905e-05
0.000336563
0.000373222
0.000520088
0.000758749
0.000695426
0.000517488
0.000351563
0.000481727
0.000833895
0.00207862
0.00206784
0.000606514
0.000174346
0.000185161
3.64094e-05
6.41395e-05
0.000221914
0.000421069
0.000531697
0.000578108
0.000584567
0.000583736
0.000613981
0.00060494
0.000661327
0.000721573
0.000697207
0.000781474
0.000758962
0.000802014
0.000855396
0.000806989
0.00068674
0.000502649
0.00041706
0.000384188
0.000422226
0.000444209
0.000381881
0.000217026
9.92903e-05
7.77401e-05
0.000194005
0.000293566
0.000400804
0.000335654
0.000298009
0.000266614
0.000241167
0.000241261
0.000238587
0.000244433
0.000251461
0.000253913
0.000240093
0.000218711
0.000189861
0.000169943
0.000149533
0.000173731
0.000250391
0.000384303
0.000339418
0.000318998
0.000236858
0.000194714
0.000166167
0.000139557
0.00012938
0.000119173
0.000134888
0.000199843
0.000129918
8.76644e-05
7.28051e-05
3.23009e-05
2.85024e-05
2.90061e-05
3.109e-05
3.39989e-05
4.87186e-05
5.98082e-05
7.54985e-05
9.29384e-05
0.000110424
0.000122366
0.000149585
0.000163903
0.000179707
0.000190451
0.000190571
0.000189268
0.000176612
0.000154555
0.000123014
9.87931e-05
7.64415e-05
8.23887e-05
0.000145925
0.000188349
0.000159271
0.000155459
0.000192026
0.00020287
0.000179807
0.000118336
0.000112963
0.000119103
0.000113801
0.00010844
9.07341e-05
7.75004e-05
6.63941e-05
5.7192e-05
5.63271e-05
5.8832e-05
6.15753e-05
8.77105e-05
0.000147152
0.000185378
0.000231539
0.000271353
0.000260646
0.000267933
0.000254144
0.000232135
0.000239827
0.000229337
0.000215464
0.000137596
0.000111464
0.000156545
0.000199449
0.000167306
0.000126018
0.000177243
0.000164523
3.17713e-05
8.30823e-06
4.08184e-06
4.51758e-06
7.37698e-06
1.0239e-05
1.43299e-05
2.33979e-05
2.82695e-05
8.10343e-05
0.0001249
0.000147687
0.000132797
9.88028e-05
5.19139e-05
4.34257e-05
2.91469e-05
2.48867e-05
2.05917e-05
1.74783e-05
1.83826e-05
1.232e-05
1.6907e-05
1.50671e-05
2.3038e-05
8.76158e-05
0.000380578
1.50086e-05
9.8133e-05
4.14154e-05
2.57921e-05
0.000107793
0.000182489
8.30157e-05
9.11826e-06
3.3156e-06
2.64237e-06
2.36796e-06
3.0436e-06
3.4138e-06
4.70459e-06
9.85398e-06
2.60185e-05
5.31593e-05
0.000119477
0.000139522
0.000156296
0.000117406
7.90669e-05
2.69117e-05
1.26129e-05
8.63143e-06
1.00156e-05
7.41251e-05
0.000123503
2.14545e-05
1.76822e-05
6.37353e-05
0.000102189
0.000148758
0.000163765
0.000145834
0.00010188
0.000146251
9.96372e-06
5.83656e-07
7.81339e-07
1.01102e-06
1.86882e-06
2.60578e-06
3.51627e-06
3.53667e-06
4.59349e-06
5.20523e-06
7.70601e-06
8.85286e-06
1.48487e-05
2.96697e-05
7.72363e-05
0.000161766
0.000256505
0.000126769
4.11866e-05
1.68255e-05
2.78171e-06
2.08933e-06
0.000209806
3.08562e-05
2.96982e-05
2.87894e-05
3.27887e-05
3.46001e-05
7.73469e-05
0.000190059
9.4062e-06
1.16653e-06
2.72239e-07
1.2234e-07
9.89769e-08
9.2624e-08
8.60515e-08
7.92415e-08
6.61208e-08
5.22029e-08
4.59446e-08
4.06785e-08
2.07268e-08
1.8226e-08
1.23729e-08
1.17511e-08
2.13972e-08
8.48372e-08
1.52127e-06
9.23717e-05
6.74778e-05
1.49699e-05
5.43681e-05
0.000117501
0.00012907
0.000173083
0.000187828
0.00012435
5.64809e-05
2.8979e-05
3.05618e-05
5.07833e-05
0.000110966
0.000275886
0.000257271
3.1277e-05
7.62258e-06
8.53974e-06
8.05463e-06
8.54685e-06
6.15338e-06
6.28575e-06
6.28906e-06
6.87906e-06
7.78824e-06
9.47174e-06
1.30839e-05
1.96548e-05
2.49909e-05
3.09357e-05
3.0027e-05
1.1758e-05
3.40766e-05
8.97914e-06
1.09717e-05
1.57855e-05
2.66758e-05
3.95382e-05
3.97613e-05
3.31934e-05
2.57999e-05
1.82793e-05
1.58468e-05
1.92469e-05
2.33538e-05
1.63802e-05
1.40972e-05
1.2175e-05
1.14918e-05
1.37878e-05
5.62173e-05
0.000286825
0.000149973
8.17096e-05
0.000119169
0.000174871
0.000238929
0.000366818
0.000296453
0.000201633
0.00029015
0.000388367
0.000174817
1.54645e-05
3.60162e-05
7.48628e-05
8.41152e-05
8.5959e-05
0.000119792
0.000242179
0.000226409
1.61549e-05
4.37338e-06
2.25125e-06
1.8773e-06
2.22109e-06
2.10413e-06
2.10821e-06
1.58546e-06
1.54585e-06
1.26535e-06
1.06965e-06
9.52171e-07
9.19557e-07
1.33173e-06
2.77913e-06
1.48438e-05
0.00011312
0.000319142
9.0803e-05
3.25463e-05
1.45802e-05
2.01745e-05
9.30856e-06
2.08115e-05
4.44493e-05
6.65419e-05
8.17878e-05
0.000106641
0.000130813
0.000145572
0.00014083
0.000139893
0.000167096
0.000177621
0.000228464
0.00020362
0.000208768
0.000178129
0.000177868
0.000188294
0.000181939
0.000157064
0.000120089
0.00012933
0.000133523
0.000156108
0.000125147
7.40268e-05
4.9934e-05
3.26142e-05
2.71212e-05
3.97461e-05
0.00035308
0.00101286
0.00153437
0.00157384
0.00158281
0.00164377
0.00110067
0.000412336
0.000275486
0.000479159
0.00145799
0.00168889
0.000330276
0.000170107
5.96467e-05
0.000228313
0.000461722
0.000570169
0.000555605
0.000511155
0.000447554
0.000383161
0.0003591
0.000340112
0.000398451
0.000495481
0.000597416
0.000858517
0.000840952
0.000893947
0.000875754
0.000840978
0.000819633
0.000658118
0.000467253
0.000394841
0.000407269
0.000508609
0.000502148
0.000336823
0.000136311
8.08806e-05
0.000178231
0.0002902
0.000286492
0.000278487
0.000271579
0.000261919
0.000258394
0.000236284
0.000219668
0.000198299
0.000189732
0.00018086
0.000183987
0.000175754
0.000169054
0.000154393
0.000142329
0.000132689
0.000153921
0.000244841
0.000341713
0.000410407
0.00036405
0.000262562
0.000196858
0.000142769
0.000111918
0.000114765
0.000128052
0.00019134
0.000139192
9.05362e-05
2.41347e-05
2.42632e-05
2.8541e-05
4.37632e-05
7.2764e-05
9.84591e-05
0.000117998
0.00014295
0.000167245
0.000196246
0.000200255
0.000205842
0.00019868
0.000192262
0.000184748
0.000179499
0.000176009
0.000176326
0.000180153
0.000187289
0.000195764
0.000167712
0.000104747
8.09626e-05
0.000103198
0.000161947
0.000182106
0.000152837
0.000151381
0.000195917
8.33405e-05
0.000139529
0.00022722
0.000249501
0.000204508
0.000165413
0.000135862
0.000119
0.000117552
9.8416e-05
8.27592e-05
7.05722e-05
6.91944e-05
7.12887e-05
0.000111566
0.000175578
0.000247546
0.00028804
0.000285019
0.00027702
0.000221489
0.000192679
0.000171208
0.0001723
0.000190682
0.000194267
0.000111596
0.000104152
0.000180249
0.000180499
0.000143229
0.000196518
6.92027e-05
9.90379e-06
4.21473e-06
4.79583e-06
8.637e-06
1.07109e-05
1.46636e-05
2.14188e-05
3.93914e-05
0.000118146
0.000201613
0.000210473
0.000170642
8.5173e-05
3.67512e-05
1.95922e-05
1.53626e-05
1.08727e-05
9.51777e-06
9.75052e-06
1.06915e-05
1.71249e-05
1.78173e-05
2.12881e-05
2.04856e-05
2.41886e-05
4.44475e-05
0.000260421
2.58039e-06
1.96793e-05
2.77869e-05
2.84577e-05
0.000103247
2.78396e-05
5.05545e-06
1.98327e-06
1.51013e-06
9.90774e-07
1.93514e-06
2.96049e-06
6.92253e-06
2.9248e-05
0.00010613
0.000171228
0.000145031
0.000111299
0.000107905
0.000120676
0.000155637
0.000187978
8.86378e-05
1.72863e-05
6.11356e-06
5.51667e-06
2.00754e-05
0.000166479
2.59951e-05
1.72313e-05
7.97231e-05
0.000130615
0.00017909
0.000180669
0.000132722
0.000101953
8.43815e-05
1.09046e-06
4.7429e-07
7.05705e-07
1.01542e-06
1.13005e-06
1.57907e-06
2.26732e-06
2.9581e-06
3.26586e-06
3.9179e-06
5.00357e-06
6.05236e-06
6.70057e-06
1.51722e-05
3.88292e-05
0.000142518
0.000165495
6.20295e-05
1.25645e-05
3.24883e-06
8.40377e-07
1.62589e-06
0.000319831
3.43732e-05
3.77388e-05
4.14399e-05
3.24413e-05
4.39792e-05
0.000146662
2.49925e-05
1.51208e-06
2.41295e-07
1.07734e-07
1.03035e-07
1.17895e-07
1.47492e-07
1.72363e-07
1.65237e-07
1.53735e-07
1.02911e-07
9.52086e-08
6.65059e-08
3.04415e-08
1.72512e-08
8.77211e-09
7.95848e-09
8.59092e-09
9.08213e-09
1.6355e-08
2.05313e-07
9.81364e-06
7.94785e-05
1.46761e-05
0.000110543
0.000124435
0.000156341
0.000133234
6.46752e-05
3.14635e-05
2.03804e-05
2.18462e-05
4.57792e-05
0.00013026
0.00035871
0.000102145
2.46711e-05
8.92751e-06
1.17002e-05
1.22671e-05
1.49597e-05
8.51609e-06
7.94317e-06
5.65309e-06
4.77135e-06
5.77753e-06
7.42513e-06
1.04788e-05
1.71172e-05
2.09294e-05
2.65527e-05
3.33977e-05
1.62687e-05
4.73755e-05
8.52352e-06
1.0205e-05
1.63122e-05
2.79652e-05
3.69986e-05
3.7507e-05
3.49264e-05
3.54645e-05
3.01098e-05
2.66423e-05
2.32162e-05
2.25324e-05
2.08316e-05
1.8168e-05
1.86245e-05
2.24392e-05
5.62728e-05
0.000273743
0.000109039
6.42692e-05
7.98994e-05
9.09557e-05
0.00010745
0.000160341
0.000314743
9.59727e-05
3.16416e-05
8.15526e-05
0.000289813
0.000166335
1.81988e-05
4.88035e-05
8.88323e-05
0.000102553
0.000155616
0.000318063
6.94792e-05
4.65251e-06
1.37887e-06
1.71101e-06
2.56874e-06
6.07572e-06
1.52698e-05
2.97367e-05
3.5964e-05
2.23332e-05
1.87202e-05
1.09606e-05
5.55104e-06
2.38527e-06
9.33948e-07
4.47809e-07
3.43768e-07
3.58199e-07
5.61071e-07
1.81163e-06
1.68723e-05
0.00037379
4.12844e-05
8.41165e-06
1.02553e-05
3.08439e-05
6.47244e-05
9.95653e-05
0.000183251
0.000284188
0.000482285
0.000562347
0.000409274
0.000115816
4.38026e-05
1.33723e-05
8.12867e-06
4.57809e-06
4.50902e-06
4.18567e-06
3.57802e-06
3.14757e-06
2.8722e-06
3.34185e-06
4.08781e-06
3.75287e-06
3.3094e-06
4.50039e-06
1.13861e-05
5.73528e-05
0.000328637
8.57289e-05
2.53421e-05
2.54301e-05
0.000655386
0.00111467
0.00154163
0.00165137
0.00162647
0.00157081
0.00163752
0.00113557
0.000268179
0.000188426
0.000454589
0.00148375
0.000882134
0.000170135
0.000413572
0.000528556
0.000557533
0.00051026
0.000443349
0.000356073
0.000277497
0.000244764
0.000232982
0.000225379
0.000288086
0.000307374
0.000501092
0.000746555
0.000928513
0.000946099
0.000802642
0.0007467
0.000782533
0.000705888
0.000513448
0.000403997
0.00043391
0.000538589
0.000635477
0.00040279
0.000142986
7.67292e-05
0.000189587
0.000305742
0.000289246
0.000304087
0.000314737
0.000314378
0.000290966
0.000273844
0.000250479
0.000215323
0.00018692
0.000171271
0.000153574
0.000155568
0.000147638
0.000150868
0.000131694
0.000124319
0.00012749
0.000182039
0.000304186
0.000445737
0.000455554
0.000394489
0.000243902
0.000159962
0.000126246
0.000121314
0.000131106
0.000212258
0.000131898
9.16045e-05
2.5296e-05
4.05527e-05
8.67297e-05
0.000127395
0.000170713
0.000194803
0.000197776
0.000202397
0.000205625
0.000203664
0.000197181
0.000189776
0.000183067
0.000175034
0.000168832
0.000160231
0.000155418
0.000151706
0.000151329
0.000157697
0.000175931
0.000195611
0.000155553
9.28351e-05
8.57972e-05
0.000122907
0.000181205
0.000176173
0.000154345
0.000193142
8.05953e-05
0.000288146
0.000312151
0.000187516
0.000140846
0.000136238
0.000147555
0.000151407
0.000127758
0.000117755
0.000103392
8.09007e-05
8.79161e-05
9.60574e-05
0.000129524
0.000189394
0.000250967
0.000313337
0.000333724
0.000287171
0.000239837
0.000165907
0.000128099
0.000125045
0.000144777
0.00018998
0.000142623
9.55285e-05
0.000143361
0.000184459
0.000165698
0.000151867
2.03265e-05
5.06152e-06
4.03622e-06
6.94047e-06
9.64125e-06
1.03099e-05
1.35349e-05
2.24131e-05
7.60883e-05
0.000180895
0.000204995
0.000198234
0.000102117
2.71078e-05
1.43473e-05
9.39173e-06
9.3828e-06
8.47543e-06
8.02528e-06
7.73272e-06
7.86058e-06
1.0204e-05
1.59831e-05
2.26399e-05
2.54957e-05
2.79883e-05
3.68045e-05
0.0001465
8.82023e-07
6.90276e-06
1.6525e-05
1.70715e-05
2.7819e-05
4.4813e-06
1.65136e-06
1.49464e-06
1.53408e-06
1.4235e-06
1.90254e-06
4.49316e-06
8.89817e-06
9.8005e-05
0.000204232
0.000136874
0.000107805
8.02092e-05
7.99988e-05
0.000107659
0.00015847
0.000179838
4.07824e-05
9.14413e-06
3.64757e-06
3.73014e-06
9.28629e-06
0.000183477
2.74488e-05
1.76159e-05
9.12851e-05
0.000149604
0.000185765
0.000181853
0.000124012
0.000153846
8.79653e-06
5.16236e-07
5.18875e-07
6.93181e-07
6.86935e-07
1.36459e-06
1.622e-06
1.40371e-06
3.143e-06
4.77595e-06
7.44873e-06
5.93892e-06
5.82291e-06
7.66823e-06
6.24758e-06
3.01325e-05
7.14629e-05
4.7421e-05
1.26628e-05
1.68205e-06
8.13775e-07
1.03991e-06
4.53399e-06
0.00031934
4.05952e-05
4.11924e-05
4.3391e-05
3.52301e-05
7.74943e-05
0.000147515
4.69974e-06
4.44876e-07
1.50604e-07
1.12093e-07
1.63779e-07
2.1027e-07
2.3911e-07
2.47526e-07
2.52377e-07
2.3121e-07
2.15053e-07
1.54042e-07
9.98832e-08
5.6427e-08
2.06381e-08
6.46228e-09
5.53599e-09
9.54371e-09
8.72418e-09
7.41763e-09
1.35256e-08
1.38785e-07
5.87717e-05
1.6092e-05
9.96233e-05
0.000107795
0.000131248
9.55133e-05
5.32241e-05
2.74403e-05
1.8269e-05
1.81822e-05
3.16816e-05
0.000121114
0.000381381
8.85413e-05
2.01262e-05
1.07093e-05
1.88166e-05
2.32862e-05
2.77535e-05
1.95306e-05
1.44589e-05
9.16451e-06
5.37315e-06
4.32559e-06
5.96034e-06
9.19271e-06
1.49246e-05
1.53829e-05
1.74325e-05
2.48913e-05
1.46952e-05
8.30036e-05
8.73834e-06
1.14217e-05
1.78441e-05
2.65067e-05
3.40883e-05
3.70817e-05
4.18579e-05
6.43552e-05
8.18762e-05
7.57166e-05
7.11856e-05
4.10506e-05
5.04199e-05
8.8177e-05
0.00012373
0.000162989
0.000283931
0.000160415
7.22039e-05
9.73326e-05
9.16064e-05
7.09721e-05
6.64503e-05
9.72318e-05
0.000316454
9.02556e-05
4.39959e-05
4.86183e-05
0.000179893
0.000139644
1.88795e-05
5.78057e-05
0.000105269
0.00016866
0.000322571
7.45768e-05
4.3971e-06
1.48501e-06
1.56487e-06
3.73365e-06
1.70359e-05
7.01025e-05
0.000127401
0.00014467
0.000131022
0.000126779
0.000107315
6.83121e-05
3.43335e-05
1.3985e-05
4.26651e-06
1.18439e-06
3.76927e-07
2.17805e-07
1.88293e-07
2.08964e-07
4.76817e-07
3.116e-06
0.000301892
1.14414e-05
1.45727e-05
4.5334e-05
9.96545e-05
0.000227899
0.00046442
0.000482969
9.96465e-05
2.85627e-05
6.49438e-06
2.53549e-06
1.01727e-06
5.05602e-07
4.14915e-07
2.98838e-07
3.08124e-07
3.08446e-07
3.05802e-07
3.03338e-07
2.4798e-07
2.04362e-07
2.16255e-07
2.52271e-07
2.65873e-07
4.43985e-07
9.21316e-07
2.19342e-06
7.18921e-06
0.000304004
4.9438e-05
1.63103e-05
0.000366083
0.000747984
0.00106706
0.00122573
0.00152504
0.00161696
0.00162156
0.0016151
0.000475604
0.000171638
0.000198522
0.000615258
0.00134329
0.000194672
0.000601494
0.000534846
0.000464041
0.000394134
0.000327314
0.000281353
0.000248469
0.000240515
0.000250703
0.00026874
0.000355323
0.000400681
0.00062091
0.000830797
0.000953294
0.000834778
0.000704092
0.000688061
0.000721554
0.000679762
0.000475463
0.000425079
0.000482696
0.000679812
0.000722169
0.000404153
0.000110294
5.79574e-05
0.000149234
0.000328034
0.000332453
0.000331138
0.00032784
0.000310035
0.000314821
0.000292993
0.000270138
0.000236954
0.000204505
0.000170698
0.000160812
0.000153858
0.000157296
0.000150537
0.00013477
0.000131959
0.000134326
0.00021137
0.000358508
0.000477917
0.000459295
0.000349152
0.00022033
0.000159784
0.000116774
0.000120156
0.000131066
0.000201397
0.000144575
9.50131e-05
9.35377e-05
0.000168756
0.0001962
0.00020098
0.000192458
0.000189491
0.000185923
0.000185131
0.000181433
0.00017865
0.000174045
0.0001681
0.000164352
0.000160302
0.000157851
0.000153712
0.000151736
0.000148125
0.000148882
0.000149636
0.000160444
0.000185008
0.000189585
0.000112245
8.45886e-05
0.000107623
0.000170868
0.000186646
0.000171152
0.000192959
0.000131726
0.000337344
0.000183889
7.39796e-05
7.60138e-05
0.00011737
0.000153042
0.000175523
0.000144671
0.000124744
0.000100152
0.000106107
0.000104286
0.000124664
0.000149687
0.000184303
0.000250173
0.000299589
0.000335846
0.000315368
0.000202047
0.000133414
9.53713e-05
8.83657e-05
0.000112834
0.000168283
0.000182226
0.00010294
0.000127651
0.000187136
0.000187394
6.85938e-05
8.16518e-06
3.7444e-06
4.78075e-06
8.5187e-06
9.93877e-06
1.04257e-05
1.46949e-05
2.57409e-05
0.000111944
0.000188938
0.000180895
0.000188738
5.22489e-05
1.95743e-05
1.16392e-05
1.00406e-05
1.00745e-05
1.05943e-05
9.17917e-06
9.35955e-06
8.96506e-06
8.94961e-06
1.62932e-05
2.2682e-05
3.07624e-05
3.44323e-05
3.64311e-05
0.000107065
5.92138e-07
5.18085e-06
1.37696e-05
2.31984e-05
7.64324e-06
1.95305e-06
8.87934e-07
1.52622e-06
1.53448e-06
1.21385e-06
1.84744e-06
5.36645e-06
2.21516e-05
0.000198344
0.000193565
0.00011912
9.39e-05
6.93518e-05
6.95711e-05
9.2129e-05
0.000134631
0.000187986
6.07391e-05
1.02177e-05
4.38488e-06
4.11609e-06
1.93672e-05
0.000157565
2.52246e-05
1.78645e-05
0.000113118
0.000148202
0.000177835
0.000185729
0.000132728
0.00016232
3.44371e-06
4.38725e-07
5.9201e-07
7.07187e-07
8.22321e-07
9.53851e-07
1.27492e-06
1.34632e-06
1.37914e-06
2.00596e-06
4.07985e-06
9.05542e-06
1.40193e-05
9.38188e-06
6.60386e-06
2.00641e-05
5.86115e-05
3.97567e-05
7.78669e-06
1.59107e-06
7.57955e-07
1.63537e-06
1.62846e-05
0.000128133
3.86131e-05
4.39708e-05
3.62087e-05
3.89253e-05
0.000135212
4.06577e-05
1.47568e-06
2.5803e-07
1.3999e-07
1.57949e-07
2.14474e-07
2.64203e-07
2.89546e-07
3.60826e-07
3.6132e-07
3.712e-07
2.85166e-07
2.56253e-07
2.00058e-07
1.3232e-07
5.47503e-08
1.19631e-08
4.643e-09
1.4501e-08
3.58367e-08
2.14575e-08
9.57457e-09
1.43031e-08
5.57465e-07
4.33261e-05
8.73511e-05
8.72372e-05
9.81984e-05
8.88314e-05
5.86014e-05
3.55937e-05
2.01679e-05
1.60735e-05
2.20142e-05
8.91761e-05
0.000369266
0.000102289
2.82323e-05
1.41394e-05
2.65855e-05
3.34381e-05
5.36952e-05
5.24064e-05
4.3558e-05
2.06289e-05
8.46139e-06
4.39509e-06
4.21713e-06
7.10218e-06
1.15785e-05
1.64866e-05
1.0144e-05
1.07093e-05
2.02588e-05
0.000115604
8.03864e-06
8.97518e-06
1.39229e-05
2.19526e-05
2.71459e-05
3.7176e-05
6.11819e-05
0.000120384
0.000191248
0.000187217
0.0001781
0.000159556
0.000175029
0.000248481
0.000148788
9.01784e-05
6.92786e-05
4.98676e-05
8.36927e-05
0.000108752
0.000119093
4.77938e-05
6.11116e-05
5.94146e-05
0.00026123
9.58282e-05
5.04402e-05
0.000131332
8.27909e-05
9.12751e-05
1.86273e-05
6.13351e-05
0.000148625
0.000267511
0.000165849
7.20465e-06
1.60533e-06
1.34568e-06
3.27834e-06
2.13325e-05
8.04481e-05
0.000147656
0.000149714
0.000144113
0.000112176
0.000103429
0.000103192
0.000105042
6.46598e-05
2.65081e-05
8.673e-06
2.40014e-06
5.99105e-07
2.08112e-07
1.86251e-07
1.55325e-07
1.60773e-07
3.92454e-07
3.12407e-05
2.65714e-05
1.73241e-05
6.23365e-05
0.000182204
0.000469618
0.000155145
2.94623e-05
7.56461e-06
1.95811e-06
7.79709e-07
3.95024e-07
2.9168e-07
2.22016e-07
2.1098e-07
1.74058e-07
1.85262e-07
1.56298e-07
1.74097e-07
1.5184e-07
1.57326e-07
1.6162e-07
1.38394e-07
1.40331e-07
1.90049e-07
3.29812e-07
1.04943e-06
3.37571e-06
4.43997e-06
1.79477e-05
0.000243356
1.76212e-05
0.000294804
0.000650492
0.000845355
0.00104913
0.00132516
0.00134159
0.00139264
0.00164053
0.000784593
0.000208822
0.00019957
0.000313774
0.00111164
0.000265027
0.000423991
0.000417987
0.000372424
0.000338121
0.000315032
0.000283065
0.000281097
0.000288204
0.000301611
0.000387681
0.000502355
0.000689779
0.000817579
0.000806579
0.000757837
0.000660425
0.000659476
0.000680263
0.000713367
0.000580042
0.000439498
0.000499418
0.000692198
0.000828166
0.000643222
0.000194991
3.79003e-05
2.54586e-05
0.000120701
0.000353255
0.000340761
0.000345389
0.000339902
0.000328541
0.00031685
0.000297454
0.000262877
0.000237336
0.000210782
0.000202903
0.0002028
0.000214432
0.000196941
0.000172942
0.000159441
0.000159305
0.000215196
0.000368942
0.000475706
0.000386452
0.000195729
0.000113848
9.27771e-05
9.46094e-05
0.000110199
0.000127164
0.00014807
0.000251107
0.000133998
9.97046e-05
0.000193056
0.000188559
0.000179072
0.000172901
0.000168691
0.000165894
0.000163876
0.000162509
0.0001639
0.000163113
0.000165805
0.000163684
0.000164447
0.000163231
0.000160442
0.00015796
0.000154488
0.000153899
0.000153908
0.000155285
0.000163058
0.000183558
0.000194562
0.000120372
8.3431e-05
9.96817e-05
0.000158892
0.000190517
0.000189731
0.000191173
0.000231375
0.00025792
6.64041e-05
5.22399e-05
8.81453e-05
0.000162493
0.000221529
0.000250328
0.000234395
0.000181308
0.000124654
0.000105036
9.75706e-05
0.000126136
0.000150578
0.000188723
0.000225674
0.000301011
0.000323362
0.000180789
0.000111089
8.07746e-05
6.67686e-05
7.29643e-05
9.78427e-05
0.000155137
0.000188141
0.000102931
0.000142517
0.000179575
0.000193275
2.38774e-05
4.24376e-06
3.6333e-06
6.272e-06
9.35251e-06
1.04825e-05
1.1285e-05
1.52109e-05
2.76128e-05
0.000133712
0.00018563
0.000177296
0.000183558
5.54091e-05
1.95885e-05
1.10239e-05
8.7053e-06
9.6553e-06
1.08084e-05
1.18834e-05
1.30958e-05
1.08095e-05
1.1529e-05
2.61626e-05
3.06258e-05
4.14258e-05
4.27925e-05
3.89874e-05
0.000184981
4.08149e-07
4.24725e-06
1.27733e-05
1.08086e-05
2.69969e-06
1.31502e-06
1.22276e-06
1.2207e-06
1.17977e-06
1.1489e-06
1.60385e-06
5.55729e-06
3.34267e-05
0.000199892
0.0001802
0.000115513
8.07933e-05
7.13316e-05
7.26074e-05
7.53542e-05
9.20432e-05
0.000125731
0.000183885
0.000107014
2.49746e-05
1.78537e-05
6.66113e-05
0.000128817
2.34242e-05
1.76173e-05
0.000138241
0.000150094
0.000159547
0.000178413
0.000141638
0.000170518
3.72001e-06
4.8029e-07
6.00911e-07
6.96485e-07
7.85047e-07
7.15347e-07
5.86643e-07
6.40813e-07
5.50894e-07
4.41672e-07
1.03152e-06
3.20673e-06
1.3526e-05
8.66193e-06
6.30272e-06
1.11006e-05
4.38464e-05
3.57272e-05
1.14929e-05
3.41257e-06
2.74995e-06
5.22072e-06
0.000142259
0.000123417
4.37791e-05
4.0848e-05
3.84378e-05
6.23764e-05
0.00019107
9.45839e-06
8.01209e-07
2.19512e-07
1.54978e-07
1.76335e-07
2.51445e-07
2.87499e-07
4.115e-07
4.50696e-07
5.01184e-07
4.71158e-07
4.37852e-07
3.46926e-07
2.51683e-07
1.89665e-07
1.41663e-07
3.77119e-08
4.57576e-09
1.28315e-08
2.15979e-07
7.2386e-07
1.01035e-07
1.56451e-08
5.98516e-08
0.000175756
8.11509e-05
6.02313e-05
7.05024e-05
7.40118e-05
7.10751e-05
5.85848e-05
3.67544e-05
1.91901e-05
1.91637e-05
5.91413e-05
0.000299092
0.000143778
4.1668e-05
1.69595e-05
2.22741e-05
3.78185e-05
5.40617e-05
5.94171e-05
5.8274e-05
3.93345e-05
1.37571e-05
5.6666e-06
3.86021e-06
4.26161e-06
8.96853e-06
1.85631e-05
1.9331e-05
1.54184e-05
3.68539e-05
0.000165274
7.95246e-06
8.7101e-06
1.25528e-05
1.63705e-05
2.28787e-05
3.58505e-05
7.60918e-05
0.000179231
6.38388e-05
1.61753e-05
2.89002e-05
5.48304e-05
4.15651e-05
1.58262e-05
4.17525e-06
1.43453e-05
1.86001e-05
4.69502e-05
7.9553e-05
0.000133726
0.00011071
5.67034e-05
3.72234e-05
3.69731e-05
0.000117059
9.71083e-05
5.12125e-05
0.000230798
4.05565e-05
0.000122965
1.69954e-05
6.27556e-05
0.00018469
0.000353961
2.06441e-05
2.31603e-06
1.11616e-06
1.53159e-06
1.11644e-05
5.63609e-05
0.000134653
0.000136117
0.000134468
0.000101872
0.00010052
6.9269e-05
5.36934e-05
7.19059e-05
7.56095e-05
3.35777e-05
9.1811e-06
2.43898e-06
6.62786e-07
2.95412e-07
2.53324e-07
2.30615e-07
2.19637e-07
2.67071e-07
3.19877e-06
9.2213e-05
2.14018e-05
9.03343e-05
0.000347347
0.000156616
1.65259e-05
3.9099e-06
9.73099e-07
5.51254e-07
3.54634e-07
3.75632e-07
5.34525e-07
6.75906e-07
8.54232e-07
8.08505e-07
5.62922e-07
3.85842e-07
2.11127e-07
2.15111e-07
2.16672e-07
2.04373e-07
1.90276e-07
1.59539e-07
1.45254e-07
3.04682e-07
1.90744e-06
1.6566e-05
2.01127e-05
1.58598e-05
0.000279387
2.73396e-05
0.000274089
0.000753559
0.000942214
0.00109916
0.00099933
0.000889004
0.00102801
0.00132736
0.00118859
0.000379819
0.00019797
0.000266219
0.000795379
0.000389186
0.000334219
0.000298753
0.000276599
0.000248794
0.000267805
0.000297296
0.000299124
0.000318286
0.000331843
0.000430656
0.000508099
0.000685195
0.000618839
0.000644139
0.000632948
0.000640756
0.000674523
0.000696052
0.000574574
0.000512021
0.000592138
0.00076797
0.00076746
0.000560233
0.000190643
3.97681e-05
1.26455e-05
1.78297e-05
0.000100483
0.000358471
0.000363766
0.000349084
0.000330362
0.000323502
0.000309998
0.000288678
0.000263464
0.000258826
0.000287162
0.00032524
0.000331722
0.00030191
0.000247425
0.000211757
0.000213685
0.000302899
0.000460656
0.000414579
0.000126835
3.37049e-05
1.98145e-05
1.8059e-05
1.96081e-05
2.55922e-05
4.74455e-05
8.64091e-05
0.000133287
0.000259998
0.00013408
0.000103117
0.000199288
0.000177274
0.000165191
0.000165284
0.000166806
0.000169408
0.000175834
0.00017645
0.000184306
0.000183809
0.000189227
0.000189402
0.000193274
0.000193309
0.000190813
0.000186915
0.000183449
0.000176126
0.000173492
0.000171604
0.000177571
0.000194261
0.000193505
0.000112384
8.05162e-05
9.62812e-05
0.000153025
0.000191089
0.00019255
0.000192727
0.000262372
0.000129892
4.21297e-05
5.93555e-05
0.000141144
0.000214936
0.000278513
0.000283068
0.000264007
0.00018739
0.000105358
0.000107798
0.000113576
0.000107921
0.00014654
0.00018791
0.000316422
0.000243923
0.000114194
8.70002e-05
6.70422e-05
5.88322e-05
6.03896e-05
7.17607e-05
0.000103342
0.000174212
0.000174142
0.000110868
0.000166509
0.000175245
0.000152239
1.0158e-05
3.59576e-06
3.88031e-06
7.48764e-06
9.8449e-06
1.05341e-05
1.03974e-05
1.29672e-05
2.67335e-05
0.000121224
0.000185006
0.000172772
0.000189703
9.70297e-05
2.83228e-05
1.44275e-05
9.76924e-06
8.29716e-06
1.32098e-05
1.46427e-05
1.75212e-05
1.8367e-05
2.80561e-05
4.10474e-05
5.60658e-05
6.9111e-05
4.67469e-05
4.43809e-05
0.00034396
4.99179e-07
4.51236e-06
1.11112e-05
5.79208e-06
1.57128e-06
1.14636e-06
1.29165e-06
8.45408e-07
9.18501e-07
8.09017e-07
8.29888e-07
3.80804e-06
1.34524e-05
0.000184795
0.000185579
0.000129134
0.000110449
0.000109513
0.000103641
0.000105345
0.000100096
9.60304e-05
9.66462e-05
0.000115193
0.000165306
0.00018994
0.000182467
8.51607e-05
2.44308e-05
1.68198e-05
0.000158365
0.000156266
0.000143578
0.000158879
0.000147478
0.000166253
8.26025e-06
3.88915e-07
6.76386e-07
6.29171e-07
7.4544e-07
6.0299e-07
5.1399e-07
3.24431e-07
2.87279e-07
2.85085e-07