/*--------------------------------*- C++ -*----------------------------------*\
| =========                 |                                                 |
| \\      /  F ield         | OpenFOAM: The Open Source CFD Toolbox           |
|  \\    /   O peration     | Version:  2.1.1                                 |
|   \\  /    A nd           | Web:      www.OpenFOAM.org                      |
|    \\/     M anipulation  |                                                 |
\*---------------------------------------------------------------------------*/
FoamFile
{
    version     2.0;
    format      ascii;
    class       volScalarField;
    location    "0.003850000";
    object      p;
}
// * * * * * * * * * * * * * * * * * * * * * * * * * * * * * * * * * * * * * //

dimensions      [1 -1 -2 0 0 0 0];

internalField   nonuniform List<scalar> 
12384
(
867372
874130
873381
876674
878829
875712
869466
861617
839330
841947
808338
818995
795084
800047
653655
658553
657351
662231
665652
663804
673919
671502
674815
700569
688711
725541
709354
749988
782474
798800
877610
925514
920923
919040
892335
886248
850103
846040
809674
811831
797997
782504
792875
786146
873291
875883
867894
862204
859966
858908
860445
857108
848627
824202
806908
773979
760791
727766
707113
692824
635872
653367
596128
616477
582952
592391
578129
576397
578485
574621
578731
578244
580900
580664
629237
630314
625917
618175
604024
595864
586745
560467
573812
555481
578223
568999
603705
604997
620005
624504
630414
636843
638962
648397
646811
666723
675213
646863
612800
616568
608422
592240
598682
594353
888741
892826
890999
885584
880176
866560
851575
831752
810415
792894
771803
748378
748147
730922
724202
712041
719299
695397
686486
682169
646733
653532
626433
627353
620260
604714
610656
594302
594914
591300
631017
640448
637919
650012
647227
661326
655106
672766
662154
689327
677211
710632
727647
751425
773678
789799
793689
784419
764145
731547
701509
690185
708614
714878
760998
795939
818375
840713
845438
866261
816351
805858
819398
807903
824024
809658
837662
828339
855366
855572
877386
884216
887789
874770
871304
802060
824015
736950
767235
698613
729661
719572
719070
760654
766454
768372
759856
745598
723637
714065
600634
606524
599647
601224
608018
613680
611546
705216
740099
755818
812786
864104
850781
877123
902925
942295
977151
1.00619e+06
1.01508e+06
1.00491e+06
984385
952655
915246
887610
879792
861574
905908
939047
963321
993226
606660
628081
670205
642139
661282
632175
642429
627449
629640
611988
616148
595706
627223
612523
662458
676301
728577
766773
802227
807326
812265
783483
767175
705732
726197
673622
688064
646894
653227
633258
865775
857352
841324
842971
832517
835253
841298
834077
827448
810579
800196
787862
769627
709672
712761
643935
670802
630608
648634
646084
665446
678857
677112
656966
622905
583192
560158
563605
572672
582675
556172
566354
589010
580520
593573
578639
611611
582005
643180
810859
788970
949683
954706
963438
991410
1.00734e+06
1.02135e+06
1.0263e+06
951351
1.05339e+06
1.00621e+06
1.14854e+06
1.2092e+06
1.28121e+06
1.28424e+06
1.21743e+06
1.14089e+06
1.05214e+06
1.14752e+06
1.21844e+06
1.31307e+06
1.30622e+06
1.32092e+06
1.34269e+06
1.35795e+06
1.36765e+06
1.32315e+06
1.29617e+06
1.19787e+06
1.2464e+06
1.24458e+06
1.3116e+06
1.32649e+06
1.35907e+06
1.32587e+06
1.31139e+06
1.28696e+06
1.29798e+06
1.29404e+06
1.30066e+06
1.31452e+06
1.31494e+06
1.30661e+06
1.28923e+06
1.28017e+06
1.24528e+06
1.24837e+06
1.21612e+06
1.22426e+06
1.22176e+06
1.15262e+06
1.11945e+06
1.25305e+06
1.23929e+06
1.37868e+06
1.41906e+06
1.48075e+06
1.43086e+06
1.38892e+06
1.20946e+06
1.23614e+06
1.12907e+06
1.16213e+06
1.07244e+06
1.10038e+06
1.03712e+06
1.0513e+06
1.01048e+06
1.00646e+06
1.00485e+06
1.04591e+06
1.03235e+06
1.10204e+06
1.1182e+06
1.19835e+06
1.2298e+06
1.23803e+06
1.16812e+06
1.16246e+06
1.05593e+06
867669
872775
873032
877883
876796
876481
865114
861211
838041
840778
811780
821002
798096
803983
653117
655463
659516
659393
661277
667663
666017
666706
687420
681910
698002
719036
705315
765524
765835
821606
885449
910002
919998
902276
892277
867985
855786
831742
821320
799986
801573
791633
791050
792990
855891
858788
856905
848678
835382
838440
846857
850798
838983
825372
801711
782394
755044
737148
708021
699455
641843
653615
600316
618386
584931
597907
590758
583708
585502
589725
589206
594958
594080
598099
629657
628414
625658
609703
606212
587626
589056
558501
572764
562645
560062
578469
576126
598690
600299
608479
615448
620451
625296
632157
658758
658404
665503
664446
638641
607814
614355
594863
591029
591446
884918
881391
874753
870378
860249
849412
834728
818672
801931
781467
768138
754264
732478
732580
731306
712387
703418
708176
673135
669091
654978
631228
636026
620212
615222
614533
610999
607495
604935
605972
632066
641272
639051
650637
647622
659330
655879
670121
661735
691330
683450
721573
726634
748213
759739
764896
763044
752226
730861
708565
687548
684776
673332
717284
739879
785914
811306
836818
845851
861574
813809
815306
801321
810346
806499
814858
827766
827406
848669
851421
873444
877283
887301
874573
866731
810475
824071
737049
770459
703285
727574
703860
741365
744264
761625
764454
757421
743644
728710
715169
621563
619876
617702
622031
608077
650722
641972
713925
718759
798027
782740
835888
839591
874363
898720
934896
971300
1.0005e+06
1.01147e+06
1.00952e+06
990478
959427
922315
893448
863858
866945
876837
911090
950680
970260
720031
719816
691823
695993
656945
654359
638175
633376
620304
619795
606490
607115
616778
624628
645815
685677
716406
756707
773849
789876
785991
763955
731975
733008
702389
685298
685186
651379
658694
636477
865414
852307
837628
831173
832805
831672
828769
830145
820831
814327
802492
792454
765836
690911
692811
637594
646296
603786
603404
628933
646885
657417
654088
635679
600772
559429
539843
542989
560660
580333
570367
582623
585486
586730
586613
583011
627875
558801
737061
674575
849435
922785
935548
956207
983372
998743
999249
1.00027e+06
993105
993856
1.01016e+06
1.08512e+06
1.16234e+06
1.21852e+06
1.21554e+06
1.13766e+06
1.00361e+06
981901
1.06235e+06
1.17098e+06
1.31136e+06
1.31697e+06
1.32267e+06
1.34082e+06
1.35307e+06
1.34504e+06
1.29858e+06
1.27846e+06
1.22092e+06
1.21658e+06
1.24124e+06
1.27245e+06
1.32063e+06
1.30082e+06
1.31832e+06
1.27072e+06
1.27054e+06
1.26365e+06
1.28671e+06
1.29725e+06
1.30322e+06
1.30294e+06
1.29405e+06
1.28036e+06
1.26729e+06
1.24416e+06
1.23174e+06
1.22006e+06
1.21174e+06
1.21168e+06
1.16546e+06
1.18198e+06
1.22128e+06
1.29622e+06
1.34426e+06
1.42613e+06
1.44125e+06
1.42764e+06
1.33857e+06
1.24736e+06
1.22044e+06
1.13594e+06
1.15939e+06
1.08812e+06
1.10593e+06
1.07123e+06
1.07293e+06
1.0712e+06
1.05695e+06
1.04861e+06
1.04223e+06
1.07512e+06
1.09837e+06
1.15686e+06
1.17579e+06
1.22049e+06
1.20062e+06
1.1874e+06
1.10655e+06
1.1261e+06
868346
867020
871570
873815
874525
872107
865544
857097
840793
837215
817250
820890
802338
809412
658954
658353
656716
660088
659365
664316
665133
667028
680081
676385
698478
714336
704095
775285
775848
828811
884198
900403
896729
896771
873920
864154
840296
831562
808905
805939
795398
798226
789536
787734
851398
841487
831289
824700
835812
831040
835150
832942
834385
817040
805315
776729
761333
736218
717060
698988
650722
658958
611095
617548
600097
591798
587232
589351
583653
581029
584276
582804
586706
586385
628808
626744
621443
607255
602234
589423
584742
558075
571805
554221
562345
555788
576702
567505
585186
590847
599056
608637
616141
635535
645265
662605
670601
659680
640676
622486
598078
605561
587911
589837
879228
873092
859954
849651
840374
831218
818270
804735
787592
773768
762170
742424
736046
734543
716034
709303
707982
691483
668481
669546
635799
637841
624191
615595
617663
607396
603699
598466
595545
593217
633681
640597
640216
649447
648361
657634
657689
665300
667457
694393
690505
727205
729373
737369
741826
739181
729546
719132
704152
687202
671389
679232
657413
720124
728453
766472
801918
823124
843038
853904
820754
809988
809935
791098
798020
803770
819237
819443
846678
843130
872137
874258
889767
876927
877655
804985
829879
734853
770815
702925
732508
706694
716995
748785
747209
756114
752787
742681
736855
724938
613702
614386
617190
613026
622917
661843
663752
740224
722883
763903
798642
797478
817328
862942
882885
923525
957183
989195
1.00706e+06
1.00873e+06
996973
969584
930638
901299
861041
861374
857904
858821
874303
886738
748728
748029
730308
695106
694280
651603
655669
625838
628621
610857
613231
601309
624380
611477
656555
664769
715406
729139
756785
762665
754356
724897
735425
700127
708324
684371
684879
659707
661558
651181
859219
846616
828815
825737
816236
821739
821358
816711
815287
812571
806770
785472
765672
676902
699381
606930
645162
590605
616566
609587
617180
629298
630300
611585
578931
538320
525136
529396
541090
564855
566374
588810
585170
592659
603229
587351
624494
579330
719775
690174
835223
893894
935036
949787
954360
973396
983801
969364
946678
929386
959871
1.01004e+06
1.10535e+06
1.14365e+06
1.1151e+06
1.03878e+06
876277
822359
946272
1.03804e+06
1.3261e+06
1.3159e+06
1.3206e+06
1.3145e+06
1.32196e+06
1.3163e+06
1.29186e+06
1.23399e+06
1.19347e+06
1.20393e+06
1.1992e+06
1.23723e+06
1.25276e+06
1.29239e+06
1.23809e+06
1.2482e+06
1.23115e+06
1.24684e+06
1.26501e+06
1.28761e+06
1.29823e+06
1.29747e+06
1.29436e+06
1.27712e+06
1.26436e+06
1.23752e+06
1.23052e+06
1.21164e+06
1.20359e+06
1.19517e+06
1.15391e+06
1.19672e+06
1.25087e+06
1.28806e+06
1.36264e+06
1.38253e+06
1.41493e+06
1.36692e+06
1.33041e+06
1.22216e+06
1.23824e+06
1.13672e+06
1.16401e+06
1.09339e+06
1.10851e+06
1.07082e+06
1.05361e+06
1.04187e+06
1.05109e+06
1.07227e+06
1.09192e+06
1.08729e+06
1.12032e+06
1.16087e+06
1.19187e+06
1.20846e+06
1.21824e+06
1.17435e+06
1.15956e+06
1.13862e+06
861971
867231
866368
870473
872828
871114
863730
853675
845717
827677
830407
812291
813188
806531
655571
660559
661486
660518
664443
664894
660428
670240
677320
670547
709660
686508
739287
765135
787030
847317
872436
888215
887457
871229
869799
842355
840686
812476
815885
797616
800411
798387
805755
799480
808082
813311
819110
822471
803895
810501
822087
824727
816909
817611
793213
785975
755939
752412
713186
708495
666724
658389
626325
626630
609100
608224
597753
601646
604082
605682
607177
616140
617339
619713
627326
622431
616956
605413
601205
580453
584643
564119
560656
554916
546292
557280
544900
568574
561333
575995
582147
595340
613093
624142
637988
661909
658876
648083
631383
623590
606226
598599
590066
590976
856745
850076
841987
829885
813955
803920
792682
778987
769172
759721
742493
740931
737949
719047
718248
712387
687066
683402
671291
641349
645270
623641
617951
619680
616906
623976
625440
625513
629048
625475
638443
642795
640583
650482
647542
660076
651303
676872
665170
701489
701951
719775
728747
729305
720619
714245
702808
687643
672368
659374
653265
657756
662197
702516
716323
756732
781153
827983
826026
869517
832683
807070
804738
795933
783010
793447
793847
816689
827217
847648
863005
877965
887989
881743
875711
812021
827561
743449
765305
708962
730865
710115
713795
721781
749023
738720
747600
747479
742831
727999
610006
614113
608173
630048
610910
684966
674052
743485
746813
757163
760118
785409
789138
807712
851432
894117
935900
961158
985776
994377
991583
967884
929357
884353
850590
833951
836527
836557
826663
846988
770075
749735
742875
722264
683617
688924
640357
649794
614208
621867
602350
609298
601651
627618
627015
666042
670657
715816
718741
715670
702083
728309
698491
707740
693134
692022
674682
675428
657145
660187
851335
831795
831778
810155
813639
806726
811753
808984
807115
810023
807768
782816
767609
664937
695341
589950
623399
567297
578509
590967
607836
609809
604487
587089
560432
534276
537026
538642
544047
569668
586108
590122
590760
610856
594151
608042
600250
626355
734833
695829
848825
834853
905130
943035
937669
930744
937848
938665
892654
904772
921351
971925
1.05656e+06
1.1365e+06
1.10867e+06
969931
837716
747425
760525
968237
1.32137e+06
1.32339e+06
1.30649e+06
1.31378e+06
1.30004e+06
1.29571e+06
1.23737e+06
1.21248e+06
1.18215e+06
1.12339e+06
1.16807e+06
1.15397e+06
1.1994e+06
1.13373e+06
1.18242e+06
1.13914e+06
1.16918e+06
1.20168e+06
1.21732e+06
1.25307e+06
1.27503e+06
1.28325e+06
1.27421e+06
1.27034e+06
1.24654e+06
1.24904e+06
1.21113e+06
1.21719e+06
1.18805e+06
1.18815e+06
1.22571e+06
1.24334e+06
1.26147e+06
1.32026e+06
1.33437e+06
1.38265e+06
1.3648e+06
1.35125e+06
1.27332e+06
1.26038e+06
1.18879e+06
1.1573e+06
1.15884e+06
1.11281e+06
1.11754e+06
1.12879e+06
1.11925e+06
1.12677e+06
1.09893e+06
1.07434e+06
1.09802e+06
1.14267e+06
1.14063e+06
1.17941e+06
1.1915e+06
1.21086e+06
1.19891e+06
1.19647e+06
1.14438e+06
1.14562e+06
859949
859956
864588
865439
868515
867352
864758
850983
847610
828241
830442
811433
817043
803543
662720
656610
654259
655819
654148
662416
663579
670636
677939
672884
705744
688389
748609
771297
796902
846760
866828
865070
870761
860544
847905
840513
814065
817585
798092
802365
800466
806741
796853
821074
813984
802045
798373
789968
809374
806795
801347
809462
811229
799483
799972
781037
772623
750395
725514
723102
673716
673241
644667
637128
620217
617828
609519
599824
597689
601286
606701
605344
607261
608705
623844
618707
610403
603223
598705
581508
581274
573085
554958
552361
549460
538420
550688
538482
551929
566977
571612
599401
599629
612630
634003
634563
638980
632306
621306
615776
603954
602999
604459
590424
858010
830262
820570
808647
794281
776462
754922
746965
737862
723329
728566
736211
722416
721434
715803
694218
694352
668452
650020
652314
623449
627924
620528
614504
621889
620001
616904
617955
614612
613680
637279
639980
645959
646504
652703
654762
655742
678514
671719
708534
706669
722318
718004
719456
711002
695191
683812
668392
655447
653127
639331
657376
666525
668546
727298
743157
789181
818214
841785
843065
823242
819283
785770
781953
771874
770875
788857
793470
818814
833987
858852
869243
889496
880389
866643
820352
819215
742077
767100
715526
731364
708364
719518
714755
724716
747392
740891
743750
742277
749278
600971
600846
616526
607824
629630
685209
698203
749631
764612
757521
740541
737424
763740
787409
803725
848739
892695
939925
960173
978568
972831
942700
890080
850312
806632
778029
754644
755347
747478
738334
754349
752616
731133
724422
705174
679314
677226
630297
636308
607099
604703
596045
604946
597744
628673
629273
663135
653083
665592
677137
709386
688078
704472
693382
695300
685417
678903
676944
662054
665074
831369
832431
806803
809959
799784
803307
796101
799589
801862
806332
805603
783577
764694
663564
689531
574487
620748
559587
583503
560545
558791
565716
575510
571509
551092
520668
515874
523958
530422
566674
589338
585549
610775
606377
628058
625973
651968
659512
710431
772594
773821
862624
869891
908394
939887
924601
908467
867859
878922
843664
916425
932859
1.05959e+06
1.04772e+06
1.04864e+06
954815
735614
754319
697768
798200
1.31917e+06
1.29632e+06
1.29145e+06
1.2525e+06
1.24838e+06
1.223e+06
1.21398e+06
1.19059e+06
1.11852e+06
1.12881e+06
1.05304e+06
1.11192e+06
1.06692e+06
1.13005e+06
1.0605e+06
1.12953e+06
1.14147e+06
1.16847e+06
1.21098e+06
1.21327e+06
1.24341e+06
1.26447e+06
1.26759e+06
1.24952e+06
1.2523e+06
1.23011e+06
1.21608e+06
1.20501e+06
1.19112e+06
1.1789e+06
1.23345e+06
1.26829e+06
1.2952e+06
1.31294e+06
1.34578e+06
1.34254e+06
1.3396e+06
1.28099e+06
1.28434e+06
1.21089e+06
1.20329e+06
1.1569e+06
1.15063e+06
1.12358e+06
1.13526e+06
1.11869e+06
1.1356e+06
1.11125e+06
1.11711e+06
1.12982e+06
1.12919e+06
1.14332e+06
1.18122e+06
1.18526e+06
1.20598e+06
1.19965e+06
1.19414e+06
1.18853e+06
1.15182e+06
1.16191e+06
855859
855195
859936
861181
866995
867212
862869
851969
848199
826239
832474
810224
817528
803329
664832
671912
669473
674686
674803
663420
672973
680376
672926
691274
692368
718424
754500
759457
820887
836087
853534
863850
856752
856917
831727
825079
811140
805406
799505
797894
804413
817333
838872
850492
796006
799359
801069
795385
800002
802674
796378
797853
799945
795861
794261
790570
779275
759628
747769
717209
696745
685650
662945
654495
635591
624166
622414
622380
622554
628412
630954
639278
641216
644668
620513
613043
613728
602680
602907
584070
586571
573123
564470
547875
553192
542364
537888
543302
549680
554193
580951
579770
594427
603135
606447
616492
614397
610562
611592
605499
606106
615076
618780
622005
832196
819638
816579
789095
773288
755625
735295
725554
717062
724959
730536
715999
720370
717532
700833
702263
676099
655276
658109
632123
628413
626617
618281
627406
634378
640213
652085
648480
649725
658920
645476
647727
649641
653474
648853
664632
655088
684900
679996
706140
710034
717285
717091
707590
702119
685614
674269
659951
644705
633932
635605
660321
658896
666829
750889
755695
798079
859295
900457
922758
818019
809595
790989
763270
751281
759230
763952
787373
790740
825595
837622
865030
863045
865420
857307
817080
770227
770750
731113
733301
717700
718132
710962
716212
704477
714469
727541
731697
748391
746359
599141
598188
616987
590623
652586
665886
707428
756272
765793
764537
735576
717095
706963
729768
768603
785669
826042
862522
882039
890955
897960
866327
817286
757795
730651
727246
749840
761851
760065
735971
755849
730141
723792
709563
698369
684400
671035
653384
616868
622396
586278
599102
580883
599868
587292
614442
606510
638062
651873
678012
663596
693939
687904
696217
687966
689262
675840
679559
665155
670560
830889
804746
808588
790802
791716
792427
796426
792608
796752
799968
799804
778610
758482
670866
687437
566095
619620
542870
577462
556206
571637
578893
580358
585520
578359
589412
590872
590679
598395
587849
587848
609881
603358
631276
623041
659045
630188
718504
694983
774735
810930
812705
884604
888082
896026
920974
896140
887321
829454
851772
840910
929625
978631
1.05202e+06
970722
790296
826516
712645
753217
815039
1.28833e+06
1.28064e+06
1.26012e+06
1.25547e+06
1.24213e+06
1.20076e+06
1.18451e+06
1.10234e+06
1.07383e+06
1.02457e+06
1.05342e+06
956492
1.0042e+06
927686
1.00054e+06
1.00691e+06
1.04717e+06
1.0959e+06
1.14435e+06
1.20395e+06
1.20506e+06
1.20495e+06
1.22374e+06
1.25385e+06
1.23192e+06
1.22639e+06
1.20514e+06
1.20701e+06
1.18325e+06
1.1921e+06
1.29666e+06
1.29818e+06
1.31372e+06
1.32695e+06
1.31396e+06
1.31489e+06
1.26735e+06
1.28775e+06
1.2197e+06
1.21502e+06
1.18011e+06
1.14992e+06
1.13232e+06
1.13978e+06
1.12989e+06
1.16107e+06
1.15282e+06
1.17467e+06
1.18452e+06
1.16997e+06
1.17289e+06
1.1799e+06
1.17926e+06
1.20725e+06
1.1977e+06
1.20799e+06
1.18945e+06
1.17221e+06
1.15081e+06
1.1474e+06
845251
850221
856144
858615
865082
864534
863817
850599
848933
827321
830539
811201
813526
802616
671890
663648
665794
660978
667985
680131
670725
688383
685633
710792
688332
753036
733038
789501
805642
837123
839389
849805
847335
837877
824298
820312
794143
801740
794861
805878
813750
848337
872476
877715
805196
804224
800169
806075
807785
812185
807329
799377
804403
798077
796639
795475
785831
773863
751987
731882
719299
705975
675123
670582
648911
636880
621417
620280
623384
627386
632307
633008
637537
639228
623148
623319
615957
607300
605868
595836
585112
582030
563632
562031
549345
556545
554270
557882
566275
566217
563915
581041
576429
586955
589014
589480
593204
603991
598443
604777
615818
624423
621730
623502
827022
816662
808598
789687
759635
745876
714361
703560
697630
701889
691827
712385
715151
702200
704442
682868
665511
665363
635179
641643
624225
621422
628069
635937
640073
653804
653574
658372
663857
655315
649013
641393
641338
648187
658329
668114
667312
677848
698253
703832
717142
716881
713052
705745
695832
684617
675875
667922
640877
657704
648473
643697
661698
731604
754188
804592
873105
920573
937768
934258
804444
799262
786924
753232
738234
730829
746218
759821
789204
790650
826689
834093
849754
851134
823581
770296
779693
725108
733687
713407
716650
701866
705442
701784
711608
702733
718380
728839
728218
755808
590529
585095
612435
587763
651277
645317
724378
743263
774774
755606
748922
710696
695246
678488
705061
765749
797804
821085
883710
895697
852793
813975
770105
753541
750323
724348
694088
660006
659151
666369
717268
723018
713453
696878
689435
679486
669491
648865
638802
596332
601253
577102
581824
563713
585342
578788
614686
616335
645192
639004
667862
674694
690046
694257
691697
688544
678061
674953
671816
669727
788136
809611
787589
794476
793101
789296
794515
792172
792041
793861
790253
769147
750941
677451
685935
575117
616366
540384
577148
550781
562046
564301
580248
573857
579128
585586
581482
595454
602586
612686
610705
602559
628591
633006
660833
658049
669315
722257
754029
780668
799341
851630
841813
894990
898623
886812
892759
856256
831275
802247
838458
824065
824925
770129
837738
882989
827554
840272
832408
884828
1.29126e+06
1.24041e+06
1.20851e+06
1.20068e+06
1.16324e+06
1.17408e+06
1.11308e+06
1.08501e+06
1.06666e+06
1.02529e+06
948891
995151
918093
976919
923348
984738
1.04662e+06
1.08959e+06
1.14209e+06
1.1485e+06
1.20072e+06
1.22292e+06
1.21353e+06
1.20338e+06
1.2231e+06
1.20319e+06
1.20822e+06
1.19034e+06
1.19181e+06
1.18338e+06
1.30705e+06
1.31898e+06
1.32821e+06
1.32452e+06
1.31722e+06
1.27334e+06
1.28242e+06
1.21454e+06
1.21228e+06
1.18534e+06
1.15732e+06
1.12674e+06
1.12335e+06
1.12082e+06
1.1528e+06
1.14871e+06
1.18437e+06
1.18937e+06
1.18307e+06
1.19665e+06
1.19734e+06
1.20931e+06
1.22616e+06
1.21631e+06
1.22296e+06
1.19863e+06
1.19447e+06
1.16504e+06
1.142e+06
1.15433e+06
848967
845389
852355
857475
859974
863871
864443
855869
842722
832613
830738
810771
815587
799584
677269
700832
692549
697550
685373
692108
693628
683456
693944
715056
709589
749875
754229
780658
816660
813292
840472
836315
843395
832598
825738
809883
802677
791427
806483
814093
853985
878728
900167
891574
857201
837666
835944
830341
832679
830684
824747
810621
805224
806846
801688
794495
794151
771359
767450
743454
731979
712748
704501
672109
665004
647859
637106
632270
637641
649059
654400
658316
659494
668938
612995
627320
623845
620687
610210
603734
598874
583798
582151
565267
562957
550944
548600
552886
557306
567246
565612
563286
577569
566072
577926
582149
585454
582178
593104
607171
622270
623784
644658
625235
836945
829709
815116
792384
769178
745589
726968
691548
683386
674761
687186
697017
691732
702897
684118
673289
669376
642431
643538
629131
620854
627501
631247
637450
655588
659126
665870
674598
672530
678964
671415
676269
667619
658174
653662
667343
679580
679568
707412
711077
716035
714134
713091
702862
703895
693345
687912
661968
673558
650534
649103
697399
725258
752863
802500
870821
927568
949238
964417
964629
805985
785195
775518
765862
719246
735291
727377
740733
757525
792990
790345
804186
807773
806790
768771
780370
720268
719618
699567
714756
697501
698716
684019
673757
664169
669438
665092
692016
705841
686683
587785
587325
597731
595959
623447
658795
708368
751773
770818
782037
739629
735549
688563
669966
661351
675839
717032
759686
746334
750700
761950
741209
732352
679584
655883
650006
667952
698692
692454
687631
725274
707351
693930
689425
674848
675176
653141
656340
619087
621251
572643
585640
556384
571460
557724
589059
576426
608151
618568
643290
656373
674720
687964
695662
693266
691514
684555
681060
677119
675014
802318
782676
777664
794457
795835
806437
796472
796262
789800
784700
776422
759612
734897
683393
685214
585200
625442
550996
573420
558655
564786
581551
586812
612335
626855
628954
640646
637967
645005
635998
602656
637480
638936
661137
653673
688473
678010
759793
747167
808588
804139
853002
853503
870907
899099
897525
886820
844057
832687
823575
808920
845492
837319
895687
851001
879192
807922
877483
896020
924099
1.09735e+06
1.20083e+06
1.22523e+06
1.18134e+06
1.19147e+06
1.12311e+06
1.12942e+06
1.0632e+06
1.05987e+06
979576
989556
923731
933309
888156
940297
958947
1.03469e+06
1.06017e+06
1.11892e+06
1.16233e+06
1.15033e+06
1.16269e+06
1.1684e+06
1.17883e+06
1.17867e+06
1.19848e+06
1.17507e+06
1.18187e+06
1.17422e+06
1.18717e+06
1.32796e+06
1.33083e+06
1.33015e+06
1.32067e+06
1.2947e+06
1.24797e+06
1.24651e+06
1.18092e+06
1.17668e+06
1.153e+06
1.13025e+06
1.11584e+06
1.07122e+06
1.08261e+06
1.10477e+06
1.17063e+06
1.2013e+06
1.21508e+06
1.22403e+06
1.22717e+06
1.23761e+06
1.23162e+06
1.22598e+06
1.23236e+06
1.21986e+06
1.21805e+06
1.18103e+06
1.16302e+06
1.15802e+06
1.15448e+06
840785
848253
846236
855819
862568
863362
859132
860282
845988
828458
829729
812883
796920
795212
743313
762232
700623
701598
704907
693472
702940
692065
706125
709924
713301
707963
749243
733234
781949
769236
806386
814600
819904
837210
830611
833006
816919
819070
800994
812800
812009
849756
883973
924142
947461
947749
953263
961008
895683
882402
868903
871419
861294
853120
843386
824367
806679
805130
800364
793288
786534
775487
768697
748846
740592
722599
705125
692025
669027
655545
645111
645099
649200
654965
664794
667117
665887
671271
670782
674849
643319
644349
639336
624943
622949
603092
603565
582124
589493
566938
571419
574849
582450
582770
582268
564695
571682
563128
562030
572943
561938
571735
576502
578783
602199
607749
619773
660134
681391
680337
722475
722525
784174
802718
809240
796577
785301
748661
724314
688999
682390
673179
684309
675834
692684
677840
670917
668565
644242
647233
623699
618929
623303
619723
633517
643231
652986
662149
671387
671066
672130
681626
688409
672751
673808
671646
687119
690687
681684
678288
681252
694663
708755
717013
728611
725495
715748
716638
696637
692918
685803
703795
688084
685481
723333
719431
740579
797112
850405
898620
923930
948791
940633
915506
891716
836463
823172
798669
757271
766078
721699
727549
729973
729649
747272
754820
772256
795582
801084
763308
776636
711179
694964
665087
680063
649795
656896
651687
667128
664441
663860
669720
673669
649450
645751
654182
629231
591843
603199
590407
599469
588481
632768
635400
706579
738900
790417
785759
759824
732574
711979
664836
682241
677060
703224
727309
786032
801673
765585
741257
691009
695128
676691
676558
667035
629530
634799
642846
648145
675992
685424
690939
691340
679774
676678
662441
658413
640291
627848
616789
570462
577743
556138
544411
552743
568804
569947
608798
611963
634840
652382
671641
687034
695820
698985
691282
687650
684004
683286
691022
677528
681711
734200
756911
774701
797087
807598
803415
806220
794701
788818
776534
766836
745664
726330
694370
661317
609885
628453
563614
588259
576935
599000
594824
608795
614841
617349
634011
647324
657415
651075
644253
647900
650493
645517
645915
664791
661186
686494
674020
732763
722969
799933
796628
845092
863550
851068
876782
901038
890446
889533
842745
818453
827939
798551
783038
825357
810068
882594
861408
920653
857212
883929
811691
632994
482652
923816
1.05626e+06
1.12093e+06
1.16854e+06
1.15436e+06
1.1337e+06
1.11625e+06
1.09794e+06
1.06784e+06
1.01814e+06
989064
975510
916699
902577
968443
945187
1.03072e+06
1.07403e+06
1.10599e+06
1.13705e+06
1.16591e+06
1.1503e+06
1.17073e+06
1.16712e+06
1.1455e+06
1.11834e+06
1.14915e+06
1.14969e+06
1.17559e+06
1.17006e+06
1.16279e+06
1.18151e+06
1.27773e+06
1.30444e+06
1.31173e+06
1.30947e+06
1.26413e+06
1.25548e+06
1.207e+06
1.17906e+06
1.17437e+06
1.12651e+06
1.10494e+06
1.04337e+06
1.07073e+06
1.05156e+06
1.1011e+06
1.1529e+06
1.20981e+06
1.24562e+06
1.25129e+06
1.25298e+06
1.25245e+06
1.26128e+06
1.25778e+06
1.24889e+06
1.24008e+06
1.21053e+06
1.2124e+06
1.15726e+06
1.15746e+06
1.15941e+06
1.17193e+06
1.17839e+06
845526
842303
851490
856542
860524
865781
867737
856447
852855
839023
820956
825910
797634
804951
760194
767118
727925
736839
720119
716758
710457
717077
705839
720088
728511
721278
754917
740935
778746
776770
792077
802819
820279
817758
831275
825021
825238
814409
821468
818802
829699
862479
902388
929499
946487
948867
960261
954409
928910
917029
911346
897943
893983
874955
851419
832471
824141
789239
796740
784123
777775
771933
760015
747376
738601
718533
710652
693810
689977
666435
664555
666280
672043
677588
678980
683720
684482
682220
675483
680118
657326
651656
643037
625563
627100
603206
609888
584338
591149
581680
585050
588453
582765
578242
572873
585186
565946
573560
564880
568115
567385
570407
584273
578912
602884
610011
617512
671032
672968
705188
737967
759022
790127
804324
814060
811584
783435
749040
716127
694849
672271
674679
663456
676260
665247
664388
665183
642645
646503
623331
617194
617738
620745
614066
639265
635981
652486
664326
665247
671531
684648
687813
686453
682818
701069
690060
679999
683607
697221
699179
704654
696864
717498
722090
716272
717373
721837
713252
724929
721131
726926
704600
707670
737766
709753
758944
781316
837566
859662
888611
918010
925882
926714
909660
879288
860930
854825
814710
769465
751967
721993
731770
714497
733226
735115
747617
763520
753270
745628
768337
722297
689087
667601
672201
645024
663877
658325
655369
630377
624336
606000
598410
594491
612454
641613
647038
590445
608085
597527
591606
600176
596981
611314
639037
673313
758046
793526
796687
788079
735867
727881
690523
676366
684047
683818
720729
726781
726654
745479
712126
713665
675456
683407
652954
653120
640132
636212
657577
658989
663974
694602
689711
682506
681860
664819
666641
643162
647598
612277
620371
566424
586850
540274
557318
542979
568534
558657
602001
604686
633395
651263
671547
686300
697995
701779
696823
685512
679627
686092
671453
717554
681856
762441
756460
796436
817120
819794
821324
811133
800414
781032
773133
749655
737618
713681
696947
643315
655136
613859
587166
599201
601138
584898
606743
624944
642168
662148
669007
664257
667761
666637
658654
656552
648760
640272
664954
660159
681526
674982
706879
703824
744000
791022
845382
872570
861038
888720
919647
889737
894961
875260
875262
814075
813612
791094
824186
807159
878514
874948
945115
955926
969853
882491
881223
713943
762899
1.01145e+06
1.11619e+06
1.16662e+06
1.19432e+06
1.18597e+06
1.17678e+06
1.16072e+06
1.13703e+06
1.12142e+06
1.07207e+06
1.0256e+06
995746
967773
942525
943585
997787
1.02729e+06
1.08196e+06
1.12097e+06
1.12496e+06
1.12966e+06
1.13107e+06
1.11025e+06
1.11882e+06