/*--------------------------------*- C++ -*----------------------------------*\
| =========                 |                                                 |
| \\      /  F ield         | OpenFOAM: The Open Source CFD Toolbox           |
|  \\    /   O peration     | Version:  2.1.1                                 |
|   \\  /    A nd           | Web:      www.OpenFOAM.org                      |
|    \\/     M anipulation  |                                                 |
\*---------------------------------------------------------------------------*/
FoamFile
{
    version     2.0;
    format      ascii;
    class       volScalarField;
    location    "0.003850000";
    object      rhoEu;
}
// * * * * * * * * * * * * * * * * * * * * * * * * * * * * * * * * * * * * * //

dimensions      [1 -1 -2 0 0 0 0];

internalField   nonuniform List<scalar> 
12384
(
881394
854472
832080
825716
842887
859289
847306
870651
794515
797085
555639
110360
-113390
-116029
-217670
-133135
-65637.8
-10071.6
33036.7
61780.1
95984.3
112713
128208
164939
152216
191382
165392
199038
217628
193834
236428
240490
206939
196693
176635
202955
229739
263601
216094
153940
44350.3
-15346.6
-7852.33
-4301.43
162429
156870
135795
119076
109320
104472
108963
105608
94972.2
65412.7
37542.9
-2778.03
-21444.5
-55406.5
-69172.6
-27119.5
28122.1
82125.7
54661.9
67882
36269.7
38142.9
17265.3
1504.63
-14968.4
-58506.5
-99048
-136171
-152770
-166346
-199935
-207302
-214910
-216290
-213931
-207098
-200194
-196836
-188475
-183327
-173973
-165780
-160901
-154856
-146939
-139630
-133898
-132512
-137708
-144708
-161614
-164959
-111674
-111855
-167556
-172962
-179720
-188990
-184175
-185868
50716.5
72312.8
84734.8
89375
94218
92692.1
91458.6
86589.7
79035.1
72086
58909.1
38602.7
38254.7
24749.1
21301.7
13857.8
21840.8
4680.43
-85.1186
-2863.3
-21785.9
-10531.8
-30462.6
-41043.4
-95187.5
-125343
-120918
-130282
-131134
-134796
-255571
-259368
-271242
-274953
-243985
-219556
-231276
-235177
-234148
-212444
-201691
-180672
-151894
-128726
-98900.3
-75919.5
-53956.5
-42951.9
-35189.2
-35435.4
-37754.5
-36093.5
-23555.2
-39961.4
-24624.1
-1858.98
79422.2
128838
59501.9
81606.9
-70773.9
-64957
-72630.4
-79848.9
-109951
-123453
-84416.3
-82242.5
-49645.1
-26933.1
-9633.62
2645.66
-5169.79
-9476.95
-44726.2
-78725
-104982
-149829
-157789
-192602
-192568
-202612
-220064
-219168
-260888
-329569
-406499
-427844
-426417
-414334
-149594
-168468
-190802
-209695
-217357
-224043
-241589
-228559
-126106
-70070.2
-16891.8
39012.8
82384.9
127733
166110
196018
210583
218669
212606
193897
173652
149430
124248
107255
100468
63528
68022.9
43565.7
54515.2
105949
-148299
-116827
-74826.7
-106220
-128024
-180485
-216069
-276045
-278581
-280220
-268179
-259953
-249528
-244214
-226560
-224993
-203465
-196952
-173472
-178246
-178331
-208036
-227577
-260665
-228494
-200151
-174815
-181783
-186533
-237571
67420.1
61942.4
45319
41945.7
20631.3
3292.91
-952.668
-2724.98
5725.07
36038.7
98423.1
115028
130822
120675
136107
105885
128028
75909.5
82034.5
30338.5
-14929.6
-53411.1
-92429.6
-124485
-142117
-150721
-154984
-158365
-129593
-100362
-371888
-355410
-320558
-283031
-238183
-225137
-201396
-207558
-171421
-61734.4
-16900.8
119453
129716
132746
151538
188814
252371
306856
308754
360871
349316
415756
394512
399032
367382
331379
319704
278163
299511
374381
-57012.6
-74515.4
74057.5
199432
268116
319391
302792
279277
196865
221901
243864
302367
335175
392705
412845
361586
324619
288143
224638
185348
187186
218181
245216
261302
277242
229559
235187
185484
170139
165068
-153899
-156742
50831.3
152876
362992
430516
518237
481242
466685
321304
368404
261310
294265
192330
204857
130259
125985
83382.8
74076.3
65535.7
78865.2
59165.7
114340
122897
198035
214506
210342
129915
109270
29052.4
759358
677909
619272
600324
625405
683796
753654
836739
798884
790004
651295
368860
-9706.24
-111786
-205947
-111835
-956.532
80166.6
122265
147363
156964
163249
191172
189830
212777
247402
233239
299265
294557
322000
352140
318194
271044
207303
181226
169942
200550
239818
257003
197175
99235
6072.37
-11687.6
2591.33
96961.1
73831.6
57006.5
40660.5
24326.6
21878.2
22921.9
29448.3
30405.4
28280.6
14081.7
-3335.21
-27079.4
-44946.7
-71626.9
-63422.5
-38096.7
31399.3
39068.6
86335.6
77452
91242.1
92853
72196.8
54599.5
10452
-59955.5
-119659
-145787
-155349
-246141
-262574
-266196
-266176
-257436
-252410
-241489
-236807
-224278
-217851
-211821
-200465
-196005
-187705
-176879
-168728
-161443
-156897
-153174
-153157
-150380
-160471
-138271
-97817.1
-123779
-168888
-174487
-183316
-181116
-177077
100841
123804
129907
133677
130848
130219
126789
122214
115668
102566
91673.4
76598.9
53261.3
47037.8
42700.3
29062.1
24269
25318.3
-1060.19
-3173.72
-11796.4
-23419.4
-19191
-38327.4
-73776.8
-112142
-121114
-126176
-128927
-128995
-255532
-259096
-267000
-256193
-247156
-255103
-263102
-230863
-191925
-159927
-141179
-111456
-88052.4
-69217.5
-46305.3
-31556.8
-16818.8
-7994.02
-4446.46
-1908.67
-3752.33
2539.99
-6644.47
2170.37
3884.76
16876
61004.9
130137
108455
73129.5
-67244.9
-67921.6
-80722.8
-85749.8
-126616
-114192
-98707.1
-53414.8
-26492
-17780.2
-17305.4
-29347.4
-45194.6
-63260.9
-91580.8
-133930
-142325
-194952
-188268
-219516
-213758
-224810
-210827
-221649
-251947
-311714
-393931
-419770
-423906
-412677
-132244
-153565
-174791
-194944
-217839
-216901
-244763
-188177
-84257
-18602.2
14246.2
118596
187380
244341
269445
285575
292530
295903
280831
262606
236386
209935
187696
172971
140795
127200
100078
57126.2
75974.1
97523.5
-51979
-33277.7
-45930.7
-77430
-130597
-179896
-240390
-258811
-259001
-243188
-222795
-199994
-174200
-163243
-147937
-136404
-124240
-111647
-101385
-107383
-99636.7
-154969
-181055
-204292
-235372
-261610
-264978
-229623
-173732
-214700
69994
58423.3
44242.3
31099
13629
1702.89
709.989
18128.8
49182.1
102738
130212
123328
134809
116009
128483
103559
117275
93939.3
67091.1
43106.9
8192.96
-31459.7
-73830.3
-111144
-139910
-164803
-186585
-181686
-143862
-95234.1
-370663
-341119
-302227
-265077
-231001
-219386
-188773
-215171
-118316
-133110
10410.7
110363
142299
163172
185058
213395
252687
282772
295757
362433
455443
452947
423943
363514
277706
182887
101272
164827
249611
356176
-56045.3
-9199.99
146203
243268
286998
306199
250687
186006
243662
366654
466380
549039
608968
612303
632761
568626
550994
505157
490788
458801
429887
382896
319762
225751
190014
194050
254201
307960
265152
233664
-135222
-59713.1
95609.2
272972
389063
513489
551203
552972
472439
383356
346827
250948
233968
152695
145047
96928.1
75525.9
40628.2
21218.2
16616.5
28053.3
62797.2
98546.1
137286
163183
212933
236974
196836
113888
126557
584626
546083
538001
543945
546175
556727
571496
658680
763093
808254
714340
544908
172417
-75581.2
-104477
9619.03
99349.3
141518
145187
143969
132227
120032
125641
121037
150639
186867
191414
303916
315285
384154
441879
414272
327908
245961
178440
163973
171428
229502
257835
238698
128988
25407.5
-8683.92
-630.704
42549.4
40689.5
34703.5
29180.1
32022
16927.2
4284.98
-10263.6
-13267.7
-21670.6
-19993.9
-30371.5
-33787.9
-47380.8
-63755.6
-85489
-88203.7
-37541.6
4084.39
71798.4
94817.4
106495
117350
122960
111942
70961.6
-4325.7
-93719.6
-143517
-160807
-285230
-281146
-272782
-266505
-256727
-251686
-246158
-243655
-230843
-227951
-216153
-210201
-199355
-193348
-186953
-177094
-168422
-160878
-156056
-149640
-153135
-153643
-137859
-105597
-103180
-140205
-179041
-176894
-175817
-168451
145597
137127
135231
132695
133871
137608
137842
132561
121387
109468
97021.4
77140.3
65333
55146
38161
32278
32984.9
23083.4
8169.93
11082.3
-10323
-10910.1
-23587.6
-35150.9
-58022.8
-103467
-122939
-130713
-138840
-143991
-254521
-256349
-252580
-242722
-257464
-257708
-214575
-166753
-146093
-118960
-111049
-85437.8
-71629
-64466.4
-52289
-37074
-20849.8
-9714.49
-3647.64
-3038.99
-3463.69
7234.65
-4768.51
20953.7
17336.6
22408.7
56574.1
117688
144942
76492.3
-49820.2
-61092.3
-72146.6
-105053
-122882
-107714
-58768.3
-33983.4
-22074.3
-37075.1
-48407.9
-66124.6
-84437.9
-97118.6
-115976
-139191
-136536
-176635
-172121
-204639
-202312
-223917
-234623
-232294
-263060
-310337
-370995
-412862
-414047
-406178
-144828
-162181
-178446
-201983
-215759
-227069
-234331
-114362
-69922.4
-14028.3
77543.5
147097
209283
254477
266404
277876
276963
274588
266193
247623
229239
203985
180604
159792
124533
115214
79263
31304.3
30468.9
51695.6
-16395
-6553.73
-38714.2
-94057.1
-139462
-209938
-245844
-256371
-240582
-215832
-180990
-157644
-136719
-135505
-118844
-121921
-106475
-105096
-88213.9
-87213.6
-93672.4
-125008
-144322
-189397
-196667
-213560
-241399
-276030
-223497
-160716
65390.7
55775.4
38393.2
24841.5
1847.5
-1779.27
6253.09
24282
67367.2
120077
132525
129832
142021
110484
133013
100435
132144
82748.1
88393.2
52901.6
27538.2
-2785.75
-38447.1
-74264.9
-103447
-132576
-168578
-184255
-150267
-90878.3
-371084
-343034
-299942
-253418
-219802
-213452
-188326
-204159
-126487
-122310
-5291.09
73408
138175
158571
162658
184788
211748
237647
310164
386993
397276
358603
377204
329317
247743
135334
-21712.5
-34405.6
145349
299953
-26008.8
65998.9
209149
254748
269613
239104
219420
292495
396643
487141
537113
567964
585225
610640
550889
530487
481089
479031
468629
469871
465343
452738
440485
402349
362305
292662
198484
166947
307790
292381
-115396
27841.2
194393
313282
424774
462402
472297
410651
343905
263968
278988
217669
230857
168524
161973
120860
88299.3
78927.7
68808.4
73088.4
80079.7
73178.6
117752
161156
173880
157607
126657
166248
211530
203170
567571
552874
552209
564081
558525
558761
550985
561845
674745
766804
782252
642645
334054
-30074.7
76546
122198
144708
140117
125437
101090
69286.2
61476.9
64326.2
59572.8
108721
104501
179497
256238
318936
433896
482596
473639
383240
248992
187669
149127
172785
214185
282083
243915
137946
23440.6
2110.63
9440.84
31176.8
47762.3
54977.1
52286.5
28596.8
18580.8
9121.89
-8271.76
-28228.1
-31715.4
-44759
-38665.5
-47196.9
-40187.7
-68774.5
-86155.1
-109948
-73372
-14028.7
63335.6
92302.5
119382
123917
144208
150505
133424
58033
-65916.6
-126757
-141532
-284408
-261939
-246248
-239633
-231269
-232110
-222856
-223204
-215637
-210958
-204463
-194537
-192442
-179867
-173043
-164177
-157616
-150228
-139586
-138861
-143207
-140022
-140783
-120508
-108026
-125678
-167502
-183312
-175128
-162962
127143
120099
129394
131461
140748
154666
160269
152476
136982
117674
90976.9
76960.6
67473.2
49086.5
45532.1
41172.6
29177.5
32633.5
27951.4
6950.81
6686.82
-15417.8
-27172.8
-35122.5
-56207.9
-86917.3
-111631
-116247
-125082
-134696
-249699
-247070
-238511
-245712
-261734
-229528
-180899
-145451
-134795
-109687
-102145
-91252.4
-76531.8
-72409.4
-58238.5
-27769.4
-11615.4
-7790.89
-9617.41
-10288.9
-10529.8
-3789.18
-8285.6
9785.41
14358.6
31509.6
51038.8
130188
151864
109709
-35593.7
-58775
-77505
-105268
-119030
-81179.8
-50958.7
-27662.6
-28464.9
-42204.2
-69903.3
-84254.4
-93360.4
-103144
-95509.7
-122239
-113251
-166706
-161674
-204773
-209290
-245256
-263795
-280241
-287481
-318535
-356840
-397623
-404696
-399536
-146506
-155943
-179638
-191434
-227679
-233795
-207277
-78659.1
-39576.2
9507.73
69113.1
146511
171742
196271
218490
233175
241752
239715
242754
234340
219844
201081
176998
143929
115203
92693.5
69367
35670.2
14891.8
33857.1
9155.58
-2008.11
-38130.3
-92123.8
-148451
-217787
-244948
-242152
-233049
-191678
-163937
-142796
-137404
-132038
-142874
-139147
-146742
-127657
-121897
-118383
-112294
-100560
-132014
-159926
-180767
-182473
-204559
-238542
-267198
-159227
63343.1
47381.8
43739.8
14952.1
4719.72
-4765.18
6509.74
20448
53551.7
106557
127776
134230
147544
89875.6
120953
69745.8
87830.9
53974.5
48483.5
38794.9
29045.6
8800.55
-16257.4
-45199.2
-71815.1
-95215.4
-130080
-165669
-132836
-76614.8
-367949
-328829
-281900
-240853
-221023
-203258
-198885
-179597
-108468
-113804
-2783.96
12304.3
87117.7
113150
110727
127402
177255
252635
308969
324351
306192
310632
383002
414673
327348
171739
-32497.4
-115911
25865.3
302379
3465.15
132859
242867
281239
233893
225006
303377
409872
455240
453586
495904
482969
487757
418340
435385
383241
398573
395873
387667
402541
421601
429736
423137
423281
392860
382670
300636
268716
200648
316840
-35423.2
123487
252843
353107
352899
378290
396497
411721
389153
403977
361434
340605
341989
278627
264545
253687
226203
218385
184058
157784
180594
224666
224310
264713
280873
288648
226486
101799
170806
247429
598670
586721
593709
589154
565385
548970
555251
554239
622264
718044
784991
708823
450171
5748.51
150964
143699
126460
105152
77335.8
58414.1
41752.8
38727
47998.2
53183.9
103713
110106
198745
267573
349889
467486
505735
465633
373828
233463
163735
156305
171241
259575
289142
250197
126760
24473.1
-3300.24
32053.8
74578.1
71311.3
56121.2
33279.3
34727.7
15951.8
-5399.96
-17083.7
-28996.4
-41936.2
-38437.8
-41545.4
-35784.1
-44140.5
-66264.5
-81900.3
-104205
-54403
17249.1
77442.4
98116.7
113242
112882
117219
129186
132907
88648.2
-31578.3
-119408
-141623
-243460
-218960
-209824
-208000
-204579
-207744
-197657
-196443
-190728
-187460
-178592
-179543
-170913
-168317
-163709
-152808
-144266
-128955
-128524
-128460
-123494
-134915
-137063
-124960
-109586
-121308
-161053
-180763
-167252
-158960
117426
106799
123787
141730
163424
174220
170599
168383
149231
110910
86823
75120.5
54800.6
52003.5
51278.6
40857.1
50451
35747.1
23661.1
17710.9
-14450.7
-24501.3
-38773.9
-50478.9
-59029.4
-86764.7
-113400
-119122
-133300
-148344
-245780
-233385
-226719
-251135
-249087
-203268
-166596
-136353
-126907
-102883
-107908
-93234.6
-89318
-72494.9
-40503.3
-12924.2
-2061.39
-5419.19
-12859.5
-13170.9
-23168.4
-14688.2
-4084.87
-21211.5
23679.9
34170
70802.9
135505
176189
92550.4
-38362.8
-48059.6
-95764.5
-108423
-106882
-68962.1
-39159.2
-31807.8
-35436.1
-59128.5
-82403.8
-85087.1
-89849.3
-83970.5
-86689.8
-98772.9
-111046
-155356
-154115
-195801
-218075
-264224
-292293
-314544
-320555
-324916
-358424
-395338
-402026
-384697
-160618
-168456
-177837
-202179
-218592
-233897
-186011
-58792.9
-15813.1
22669.9
62250.6
85424.1
126698
141335
137457
146690
164979
196481
208147
217487
208719
184581
150865
124870
87026.1
47531.3
3637.07
-14924.4
-46600.7
-12188.8
-7805.01
-15540
-73914.6
-119265
-179627
-218729
-229867
-246137
-215424
-189914
-161330
-150493
-149136
-160609
-161233
-170466
-165710
-176922
-169802
-145360
-114373
-113220
-109256
-145452
-164632
-173874
-176262
-194704
-236813
-176887
46546.1
48530.1
22235.8
19808
2065.59
1488.83
-722.558
12507.1
33906
77099.5
113048
133487
148575
76485.5
88254.1
35047.7
50469.8
18910.6
27821.2
7276.39
4715.56
-1579.92
-8820.07
-28904.3
-60912.3
-78766.8
-94499.4
-125225
-119756
-83015.5
-365715
-342708
-288447
-249804
-212819
-196685
-174085
-162770
-127861
-77343
-60828.2
7892.86
20112.6
41457.1
71798.1
122011
181498
238392
270015
204536
243376
239612
371017
396638
349970
216559
23081.1
-97054.5
17321.5
166309
51885.8
166727
271338
241222
193089
273540
393319
452441
418697
443170
381968
401738
333103
365608
312938
358777
324017
326475
349476
342242
370287
402922
411109
396221
403069
377103
346420
301195
193567
315219
14198.1
192734
293019
311800
357646
421158
451572
433716
465616
414354
422836
380108
372725
328191
319066
279678
272495
230865
228806
241232
244011
256424
293843
289931
305565
291929
276418
205276
104044
255091
620443
605469
605215
568585
502371
476688
502133
540146
596882
678826
776389
737587
540221
50812.9
128147
125439
99614.4
81565
65441.1
43696.7
42684.4
44304.3
41505.8
76759
114181
181942
262547
311985
433022
470288
475535
408720
276103
192898
147275
176260
244306
299287
283676
195010
66511
-209.066
19267.6
49981.6
76032.1
73605.6
54464.3
31821.6
16553.2
3463.31
-18167.3
-29920.7
-33709.2
-30325.6
-20960.5
-11246.1
-16427.1
-34170.9
-53066.2
-71202.6
-43830.1
32526
84158.4
96776.1
61118.3
33223.2
17074.7
31109.6
71782.3
112801
92190.2
-12842.3
-100237
-123536
-196746
-180883
-181747
-185800
-180973
-183657
-173056
-172564
-169785
-171477
-164870
-164232
-165423
-159882
-150653
-150235
-129495
-130981
-122111
-119044
-123668
-124695
-132122
-125874
-112802
-126267
-162348
-176706
-162578
-138924
88218.7
101253
135441
154368
180286
185079
180698
169187
148991
126232
95011.4
59124.2
53101.9
53049.5
50095.4
65256.3
52551
27299.5
12251.3
-32435.4
-49462
-60124.3
-68390.8
-64750.7
-72300
-89466.7
-98858.8
-108479
-125877
-135598
-235503
-214867
-225289
-248144
-235304
-184704
-159823
-130354
-117271
-107695
-113498
-103360
-88714.3
-69162.6
-30589.6
-7644.37
2149.12
-1694.59
-7854.94
-14724.7
-19442.7
836.472
-12820.5
-11550.1
51096.7
56786.6
99554
191210
234704
157009
-39577.3
-55261.9
-91735.2
-114339
-96578.4
-62714.2
-45976.1
-35594.1
-54445
-62826
-79647.7
-74796.4
-89385.5
-89809.5
-74421.1
-103607
-127015
-136507
-165466
-183074
-214309
-253928
-302985
-341743
-361851
-362891
-369405
-389052
-394354
-382842
-167281
-174074
-178357
-209812
-203355
-241523
-193498
-49368.9
-4395.17
28898.2
47724.6
59152.2
42842.1
50566
54023.5
46884.4
63205.5
102882
131931
154579
157941
132838
103401
64690.8
47617.4
32694.6
27648.7
-8790.33
-51609.6
-42955.6
6144.27
-23881.4
-74953.9
-140506
-196666
-217240
-222101
-234256
-225199
-192124
-177603
-162384
-171160
-172110
-187503
-184931
-192668
-182935
-177385
-165791
-157197
-120285
-107938
-123943
-158678
-174257
-178219
-175403
-206250
-225231
51181.7
29588.9
26675.7
11537.5
5341.08
4009.81
7702.87
6391.83
18509.4
44200
85071.7
121464
141696
72001.3
59930.8
9607.82
18829.7
-8592.88
3756.86
-6258.31
-3248.73
-7585.05
-8090.71
-18661.2
-43139.1
-51849.2
-53433.8
-74085.3
-88449.7
-80669.5
-368296
-330909
-289675
-242256
-217499
-185512
-184459
-139712
-136623
-78407.7
-43756.7
-45500.7
-8315.68
23579.1
68949.1
149635
194667
219053
161009
154842
138116
231994
297863
396596
309603
220271
122071
-30923.5
-2115.03
131897
84856.5
204466
259969
240416
266566
347950
423961
388532
381993
347077
335892
224436
243143
194784
240020
246521
253274
251575
265509
312183
331447
343501
369525
392019
360810
354445
337520
320215
254762
274771
101047
253307
317577
330658
409090
450267
430344
477364
423631
429718
403334
376696
360335
355377
325757
334210
311379
324059
321927
296385
298702
310948
307128
326345
293725
285835
263828
225125
70082.9
227698
613558
590117
567713
457320
366647
353855
397893
458270
548649
629285
738674
735452
577633
100862
103008
74108
44538.7
19918.5
26969.8
42972
38502.2
52270.4
49936.1
85858.1
101156
216964
250173
352377
388500
396492
328169
243864
187556
174426
204864
269255
272080
262479
180837
80420.1
3467.21
11385.4
47356.1
73163.7
91567.3
65092.1
33988.4
17953.8
5071.19
-3752.75
-18688.2
-19480
4375.85
29939.5
40754
31346.2
7601.68
-10790.1
-17205
20276.8
87493.3
108160
30100.5
-56455.8
-115185
-125120
-118705
-93894.7
-34512
32725.8
48699.9
-23065.6
-97844.7
-117474
-176224
-166661
-168339
-171050
-166986
-167418
-168657
-164433
-171718
-165167
-171610
-161006
-163189
-157339
-145216
-144346
-139434
-129471
-126696
-123024
-120698
-125773
-127595
-117664
-117843
-130333
-161076
-174184
-155995
-136047
82522.7
104250
146728
175328
186736
190472
179140
148641
122774
90218.9
51089
55437.7
55951
54186.8
72979
63105.7
20981.1
-15026.7
-68267.7
-74145.9
-90826.2
-92495.5
-86102.3
-80558.5
-84709.3
-86196.3
-96114.6
-107433
-125879
-149222
-221984
-203680
-231660
-245497
-214613
-169065
-145922
-122603
-105451
-110223
-119860
-110689
-90969.6
-63903.3
-35622.5
-7009.73
5586.52
9525.67
2857.51
12874.5
13340.3
4720.38
16096.3
62215
82547.4
121764
203197
260592
256035
151055
-40463.1
-61545
-88046.7
-107628
-89373.3
-72611.2
-60542.7
-58821.8
-62183.9
-78786.7
-75528.4
-81825.9
-97839.5
-87173.7
-106125
-118365
-118168
-142779
-142166
-157212
-168386
-196373
-231054
-284319
-335739
-372189
-385074
-391257
-396913
-378074
-180702
-187757
-183316
-209583
-194033
-239866
-200006
-70607.4
5730.76
17862.2
43767.3
32830.7
17241.2
-17339.7
-18248.3
-4676.49
9716.37
33079.4
102268
128234
110195
85598.1
70351
73780.9
76558.3
39493.8
-10344.9
-56947.4
-92125.8
-81735.8
-45546.7
-48071.3
-101846
-164381
-219318
-210213
-214555
-225609
-217955
-215952
-185100
-188602
-183565
-199671
-194187
-202038
-187753
-189941
-180344
-188603
-172632
-152364
-112148
-109646
-144695
-178615
-184704
-177237
-183511
-233203
17955.9
30147.5
7026.14
13822.8
8411.81
7248.33
15311.8
13602
12517.5
18715.5
46392.8
85309.5
126757
79886.8
56924.5
9705.3
-1424.87
-13767
-3317.18
-11166.2
-14870.5
-26716.4
-21568.2
-33457.3
-49705.8
-83411.6
-94572.1
-68619.5
-77547.2
-73093.5
-359577
-339151
-293630
-253379
-212691
-190681
-178794
-131441
-115200
-62310.1
-48562.4
200.131
-13205.9
37371.1
73858
110466
153505
144065
104409
79504.9
121542
148938
220776
263190
314627
232182
139622
51843.9
41298.1
93964
156554
218330
256884
227123
287086
390109
379295
379728
373801
308081
222447
242991
174101
215556
177899
213889
253302
244055
258761
250530
319254
373529
362803
326479
317935
282816
294996
290222
283007
170609
138047
296867
306184
402765
455293
438913
467625
412177
413962
397399
381353
375381
378716
373167
382641
341023
341571
333299
337578
342090
334420
347480
371205
351134
321461
257336
240991
192849
92354.9
232363
614492
544139
464320
333101
275444
287925
316366
361977
441351
537814
674457
718121
601754
167733
83598
44916.2
-7756.88
-22604.8
-16169.9
16193.4
45109.9
49944.2
59172.1
78297.9
84462.3
145463
176820
209764
242332
200060
203129
194647
229549
250814
259738
219881
163475
68045.2
27640.8
-5378.43
15832.2
40291.5
75916.1
93350.9
118326
70575.7
43473.6
19882.3
11969.5
16969.4
32099.3
63350
102837
122535
93916.4
60288.9
48552.9
52412.1
99994.6
117730
84623.4
-24004
-89629.6
-117421
-115018
-120627
-125357
-121656
-93054.8
-36716
-7550.37
-49615.3
-93728.5
-98517.8
-178417
-162870
-163640
-165203
-168996
-172347
-178833
-179208
-182980
-178876
-181948
-176927
-179525
-171631
-161819
-154719
-143019
-138889
-121716
-127070
-117595
-119759
-120033
-121746
-120881
-136726
-166475
-172032
-137244
-110591
98959.6
122890
162726
184941
192003
195057
190388
124742
82161.9
49782.1
46045.4
52344.1
58698.3
81935
53088.1
-5164.37
-51956.6
-97459.3
-101034
-107158
-107058
-99211.2
-96313.4
-94792.3
-88747.5
-96359.8
-108987
-126517
-149240
-156706
-198887
-176863
-221426
-237068
-202017
-155376
-115383
-107625
-94232.4
-106959
-123786
-124133
-94997.6
-66923.5
-40442.9
-15496.2
6296.5
7727.33
25134.1
22380.7
27727.9
72689.4
97589.6
125313
162655
224757
274720
279422
231312
167319
-22867.2
-66106.5
-82122.6
-82834.8
-90730.9
-74609.8
-79736
-83010.8
-78295.3
-61853.4
-73367.7
-81217.8
-100041
-121441
-132868
-120349
-147084
-153859
-161769
-157536
-171247
-185063
-210786
-242109
-286859
-331678
-374000
-391859
-398845
-394513
-212107
-206442
-200736
-205200
-204158
-213838
-220169
-100732
355.946
33401.3
24600
33779.2
649.318
-27538.1
-57446.9
-79799.3
-59334.1
-22117.1
-1580.35
24436.6
46971.6
39953.1
41411.2
12552.4
-2623.95
-13868
-8684.85
-8166.1
-37945
-74815.8
-24216.8
-52472
-114505
-190922
-225585
-213449
-212064
-213743
-223875
-210330
-214766
-196770
-204690
-197933
-207430
-196512
-205518
-193939
-192022
-185784
-185400
-169964
-134774
-106354
-127355
-169985
-165672
-188038
-171094
-217045
25496.2
3732.21
-576.662
9709.72
10113.1
25682
26917.6
28355.1
19630.5
11920.4
10973.7
35762.9
83705.5
85778.2
72082.8
19494.8
10031.6
-16061
-10995.9
-12412.9
-18184.5
-27117.5
-35754.6
-26077.2
-25736.5
-57618.6
-108003
-123935
-76340.1
-73555.4
-361192
-328518
-289209
-248859
-223892
-191116
-183295
-141066
-125793
-69899.7
-46085.3
-3185.79
10798.8
21506.8
59529.8
88100.4
107529
76011.9
76535.1
73847.2
86753
148578
187368
259674
275084
216583
141384
127696
48318.7
113139
109737
230442
255150
268212
357536
365804
396681
353555
345120
248360
238249
166809
169028
127671
177121
182487
232247
213267
224779
259482
281362
328172
328114
281490
225308
211862
197945
239550
268446
141136
183184
318477
319557
438370
456822
426452
434814
368181
369651
360926
369229
383774
370386
384304
390922
419659
398600
366110
368051
388988
392271
376497
375930
382382
328940
247240
192023
148662
117219
225270
582719
496566
356927
262074
260935
281228
287119
308832
388511
494821
631950
649268
488503
246933
197996
207682
72490.2
-27742
-79228.6
-101950
-79096
-62074.4
1509.77
47922.2
79813.4
81587.3
122519
112997
162081
149566
187398
199231
218891
240448
219477
165966
94895.4
38159
6425.43
881.32
-5200.79
20095.3
57934.5
112646
167263
195082
208911
206671
126280
98968.1
78799.4
82549.8
91286.1
118793
153194
168529
156573
147787
122208
110173
127215
153548
162346
89145.4
2911.12
-64380.3
-82473
-89703.7
-105190
-107185
-110216
-112605
-108844
-89506.9
-69867.8
-79194.7
-96716.8
-103124
-159043
-176495
-167558
-161198
-165169
-176781
-182291
-186647
-189976
-189352
-187833
-185998
-183120
-171355
-164641
-159704
-155838
-157122
-145713
-139962
-129458
-119404
-121387
-121282
-118005
-124795
-125660
-152743
-171173
-137033
-72413.4
-26789.3
17619.1
35001.5
97624.3
123010
161583
187404
196318
189941
181774
132318
102621
74349.7
79538.8
71208.8
80583.6
17410.6
-37666.3
-88170.9
-126865
-122171
-130825
-121580
-116926
-116519
-111960
-112374
-118063
-131571
-151927
-173245
-179283
-177920
-170543
-158285
-184217
-176542
-210014
-208600
-169948
-121669
-81201.2
-70507.6
-74452.7
-95063.1
-115619
-130134
-109270
-73713.4
-55625.9
-36104.8
-13774.6
19447
31291.7
43191.3
85407.9
95384
127754
175941
221741
247729
245002
224375
160792
92434.7
45329
65619.8
5316.81
-47926.6
-79780.3
-69964
-88250
-86878.2
-94944.8
-97856.1
-89711.7
-83630.8
-78476.3
-73378.6
-101247
-128527
-133677
-152448
-159122
-160533
-154381
-169407
-170741
-176220
-173657
-187202
-213529
-262681
-324719
-380747
-404990
-405898
-414446
-350897
-293398
-251514
-212811
-209301
-191715
-204472
-216160
-145997
-16141.3
35140.6
27799.7
22070.7
5470.75
-29781.7
-51134.9
-84800.5
-82331.3
-57201.3
-21961.5
34417
38978.5
27516.4
829.838
15381.2
11719.4
10674.2
-4271.1
-29468.4
-25250.5
-29752.6
-12704.4
41822.6
-36667.5
-60608.9
-126315
-199376
-233199
-219813
-208623
-211245
-213682
-208879
-219102
-204762
-208741
-212142
-210951
-207813
-209361
-194897
-192050
-187938
-188401
-183604
-157782
-115817
-111341
-152003
-167716
-164311
-175237
-190243
-169327
-141098
-91841.8
-78153.2
-31792.1
3868.34
12093.5
15160.5
32570.9
35674.4
30966.7
19157.2
5866.11
-7080.43
21623.1
57781.3
58535.1
32431.9
22041.3
-6871.87
-2262.85
-8100.43
-5716.37
-27313.9
-35621.6
-41828.5
-47942.1
-43725
-67659.9
-155765
-226895
-215874
-251287
-260451
-296530
-321332
-288083
-256366
-223598
-214679
-175714
-168029
-150777
-85983.4
-40016.2
4500.28
830.963
25697.5
45050.4
49773.6
70692.9
45139
37410.6
72937.9
63974.1
82831.6
134020
154113
223817
205808
141568
95948.4
70636.9
20457.5
-79517.5
-107037
234709
209330
224190
302249
354518
366263
373041
358281
324709
255569
222526
200257
146481
135256
197294
165833
208787
215702
195301
229957
310849
328977
319925
235395
140702
105710
138125
163854
241593
156999
152681
118888
165395
291033
338835
449226
437240
440300
390490
358304
358008
333537
341360
315116
362811
363668
409859
445209
460057
429612
393127
408430
420141
418952
408877
407860
367496
239309
194303
134401
107477
83975
301312
307685
566987
431060
300315
245930
262799
287503
302862
340246
428006
503347
525918
463047
306468
248843
172705
131143
-9899.49
-93587.9
-137969
-150667
-151529
-133984
-98025.2
-31061.5
40986
76538.7
129523
125193
168964
163805
179941
175725
152837
93376
47414.8
10240.5
7449.04
2472.99
9744.11
8021.68
17937.7
52321.2
107435
159862
206102
234402
238641
204156
163535
161844
175194
191503
220902
233273
221776
214185
195586
164975
181698
187483
201687
189587
118733
36972.9
-18329.2
-37866.1
-43294.7
-56835.5
-67916.6
-85984.8
-90960.2
-97236.2
-104629
-105352
-97138
-90771
-93427.2
-114716
-174567
-171744
-170059
-175665
-182064
-184647
-185917
-190332
-188042
-188065
-181249
-173783
-171034
-161830
-162450
-160561
-158102
-147514
-149699
-137098
-131529
-125131
-121456
-124796
-123070
-138969
-147891
-165813
-171042
-123664
-78832.4
-23645.7
19984.3
61218.3
98876.8
125239
163943
191409
172323
164238
163133
147519
118289
106116
73193.7
44059
-18213.7
-72899.4
-123735
-159547
-158279
-166664
-158575
-157341
-158325
-163097
-164825
-178066
-188940
-198725
-209645
-204237
-191584
-185444
-160660
-152811
-160086
-178834
-221226
-206435
-137959
-65074.6
-12349.5
-18324
-29586.2
-65854.7
-107509
-131552
-130964
-98699.4
-58278.2
-37866.1
-15487.8
-10429.4
13304.4
56366.7
53565
102837
129156
177178
178446
170917
154265
114513
72638.4
58861.6
84294.8
71142.8
32056.4
-25470.7
-60725.5
-74311.9
-94749
-97293.4
-114959
-102784
-92742.7
-77817.9
-61999.2
-78259.3
-104737
-117031
-149632
-170598
-170282
-173493
-189737
-189742
-199480
-209557
-228423
-233161
-240003
-249596
-285699
-328275
-373294
-403873
-419999
-389615
-328776
-268350
-223951
-204835
-197638
-187612
-207881
-166340
-70649.3
5256.72
34410.1
6755.19
11617.9
-32045.1
-68698.6
-94871.5
-96810.7
-86527.5
-75029.4
-30526.4
4300.3
947.244
2305.32
-14756.6
12254.4
-3878.39
-6314.21
-16343.3
-19020.1
9584.54
24689.4
10955
-25201.2
-71623.9
-134394
-212805
-239185
-229964
-219476
-207895
-215528
-203901
-218384
-201097
-216246
-205665
-213821
-208942
-210307
-199503
-192794
-182751
-186350
-189475
-175041
-134007
-106512
-132993
-173397
-151691
-180366
-184366
-150748
-164896
-105826
-131182
-36825.1
11189.5
15294.5
17794.8
30287.1
40698.5
34296.7
22283.5
2352.41
-13478.7
-28578
-8114.21
13305.4
37459.7
7427.24
-5361.8
-3370.91
-6688.02
-30296.3
-35631.9
-37366.9
-40445
-40693.2
-38158.4
-37643.3
-62560
-174821
-280336
-311039
-297197
-315162
-304710
-279693
-253658
-241439
-228859
-207791
-200634
-149739
-135106
-23529.7
-23808.7
23741.2
46067.8
29532.4
31324
30871.4
45898
20296.5
31556.4
37434.6
76616.5
87798.2
134824
153899
218813
172210
139323
131200
110554
53119.3
134786
242241
209184
269455
340579
370369
379639
384051
355171
336537
275421
232697
209072
186814
167885
158968
202271
177434
184593
194569
216701
291173
320671
250143