/*--------------------------------*- C++ -*----------------------------------*\
| =========                 |                                                 |
| \\      /  F ield         | OpenFOAM: The Open Source CFD Toolbox           |
|  \\    /   O peration     | Version:  2.1.1                                 |
|   \\  /    A nd           | Web:      www.OpenFOAM.org                      |
|    \\/     M anipulation  |                                                 |
\*---------------------------------------------------------------------------*/
FoamFile
{
    version     2.0;
    format      ascii;
    class       volScalarField;
    location    "0.003850000";
    object      rhoUnburned;
}
// * * * * * * * * * * * * * * * * * * * * * * * * * * * * * * * * * * * * * //

dimensions      [1 -3 0 0 0 0 0];

internalField   nonuniform List<scalar> 
12384
(
1.55829
1.54536
1.5427
1.55576
1.54391
1.53335
1.55862
1.58999
1.70032
1.82428
2.19322
4.10974
7.15279
7.13341
6.64987
6.61836
5.41246
4.39221
3.84278
3.54585
3.33173
3.22398
3.14974
3.06446
3.08846
3.02002
3.08329
3.03231
3.0571
3.19634
3.35194
3.61504
3.83125
3.91472
3.92262
3.73703
3.42178
3.27951
3.41087
3.87138
4.7791
5.34867
5.10695
4.84812
3.75929
3.84281
4.00074
4.15652
4.26652
4.31774
4.26386
4.25597
4.28887
4.43051
4.64325
4.98104
5.19339
5.62005
5.78131
4.79372
3.52881
3.02805
2.89716
2.88291
2.98678
3.02238
3.18916
3.39142
3.67478
4.55076
5.36811
5.46581
5.67876
5.76586
5.82194
5.80139
5.72871
5.63807
5.49537
5.41738
5.32995
5.09475
5.22072
5.0534
5.26172
5.19305
5.49468
5.52248
5.64981
5.70533
5.76741
5.82764
5.84393
5.92918
5.91169
6.08555
6.15772
5.98677
5.76429
5.7505
5.69655
5.6281
5.73541
5.71955
4.75387
4.50813
4.36157
4.31441
4.3101
4.35537
4.4213
4.51347
4.62399
4.72645
4.9006
5.14536
5.1857
5.30902
5.23539
5.18966
4.92006
4.95817
4.81353
4.70266
4.7274
4.46748
4.55995
4.64354
5.75588
5.56686
5.71168
5.67132
5.7431
5.72405
6.19939
6.21482
6.05095
6.01897
5.80118
5.75346
5.61493
5.75903
5.68223
5.94578
5.86856
6.18967
6.37068
6.60664
6.52176
6.18062
5.94832
5.94821
6.07226
6.45902
6.17414
6.05572
6.20243
6.23827
5.47172
4.81049
3.76142
3.4858
4.52966
4.68418
6.07299
6.00104
6.20179
6.1233
7.18423
7.78934
6.93513
6.6875
5.92798
5.35177
5.10792
4.93661
5.045
5.04981
5.60511
5.90587
6.69217
6.44531
6.75169
6.14879
6.44061
6.35247
6.34363
6.71339
6.81707
6.95323
7.15339
7.43778
7.48755
7.36856
6.02934
6.04321
5.91037
5.87527
5.91299
6.00009
6.06656
6.70253
6.20996
5.60165
5.34629
5.24903
4.98019
4.71277
4.36618
4.14419
4.0147
3.931
3.89484
3.89791
3.92313
3.97888
4.06595
4.17507
4.2784
4.49185
4.50059
4.6429
4.47202
4.72554
6.2507
6.5045
5.82685
6.56697
6.73273
6.38842
6.31656
5.81063
5.52872
5.1799
5.05872
4.7742
4.93651
4.79119
5.12876
5.21706
5.58917
5.86457
6.13339
6.17301
6.32243
6.22709
6.3908
6.39535
7.02505
6.81997
7.03536
6.65285
6.66075
6.23778
4.91453
4.9173
4.93976
4.97383
5.22147
5.65859
5.94002
5.96646
5.747
5.2012
4.45861
4.09612
3.79299
4.11236
4.47427
5.26108
5.02814
5.46982
5.63393
5.63695
5.80853
5.85038
5.93321
5.7799
5.49688
5.15803
4.95542
4.97562
5.00493
5.25876
5.82752
5.92308
6.13081
5.97697
6.03641
5.86728
6.22593
5.97445
6.64078
7.09334
7.00257
6.11561
6.25005
6.30679
6.23092
5.99695
5.70187
5.61977
5.64307
5.55441
5.27353
4.8835
4.65983
4.58169
4.6908
4.84936
5.12655
5.04372
5.09567
5.03853
9.73135
9.90635
7.85028
6.8485
6.52454
6.35187
6.32509
6.43828
6.85879
6.94933
6.76734
6.38149
6.0988
5.74932
5.43165
5.53841
5.50756
5.69962
6.02827
6.3079
6.36007
6.25231
6.18098
6.14528
6.0482
6.18901
6.17867
6.31418
6.40539
6.29686
10.5415
10.4216
7.80217
6.70298
6.11513
6.00498
5.95545
5.94382
5.88721
5.88658
5.79456
5.86514
5.80428
5.95727
5.92419
6.04735
6.0915
6.17362
6.19143
6.23394
6.29819
6.40108
6.31012
6.35249
6.27719
6.37883
6.43437
6.57995
6.53825
6.63032
1.48644
1.65277
1.80685
1.89445
1.82916
1.68124
1.50097
1.38253
1.42666
1.55622
1.85813
2.70412
5.2575
7.14074
6.64383
6.56627
4.26286
3.30568
2.98013
2.87593
2.84802
2.85883
2.8486
2.84831
2.78921
2.69447
2.64344
2.58042
2.5644
2.62311
2.77859
3.04777
3.37846
3.712
3.87087
3.83678
3.58889
3.26819
3.18125
3.46097
4.24661
5.1562
5.21276
4.81429
4.2386
4.56533
4.81844
5.04366
5.22019
5.25546
5.25124
5.15328
5.03445
4.95781
4.99294
5.12316
5.3372
5.54249
5.90725
5.62032
4.65276
3.61342
3.13463
2.75854
2.62184
2.56641
2.50333
2.62975
2.80202
3.34563
4.66784
5.63488
5.8136
5.93879
5.74785
5.66629
5.61376
5.47088
5.453
5.30177
5.3353
5.07061
5.22506
5.15721
5.15895
5.34934
5.35909
5.58807
5.62159
5.71297
5.78359
5.82574
5.85496
5.89321
6.10467
6.05883
6.0862
6.08663
5.94395
5.70278
5.73036
5.54227
5.54734
5.62443
4.1724
3.93587
3.87697
3.86499
3.87704
3.88689
3.91961
3.97205
4.04596
4.16333
4.28773
4.44775
4.68571
4.78092
4.81192
4.8937
4.82911
4.71688
4.85382
4.7371
4.73087
4.75218
4.62294
4.79013
5.41068
5.70692
5.63703
5.66271
5.75936
5.85519
6.18884
6.16673
5.97065
5.86761
5.62679
5.62774
5.61053
5.80482
5.80015
6.10799
6.10558
6.51861
6.14494
5.87541
5.54348
5.33084
5.13563
5.04902
5.06857
5.17057
5.3901
5.49998
5.59933
5.31552
5.19916
4.88702
4.15677
3.51861
3.78054
4.48345
5.65132
5.97773
6.17595
6.32218
7.47392
7.61164
7.03734
5.55039
5.00334
4.76995
4.84753
5.07312
5.46476
5.86204
6.56243
7.29869
7.51631
6.83654
7.18092
6.5684
6.74451
6.44862
6.66722
6.57424
6.65902
6.73635
6.93881
7.27208
7.49815
7.38745
6.23068
6.11899
6.00469
6.01526
5.91857
6.42137
6.24262
6.26291
5.6637
5.18567
5.1475
4.41319
3.96231
3.71715
3.59426
3.53523
3.50116
3.48314
3.50503
3.55591
3.63912
3.71362
3.74946
3.74644
3.78357
3.81763
3.93542
4.30056
4.22806
4.712
5.80091
5.42084
5.5006
6.27888
6.69076
6.51788
6.00919
5.52523
5.05957
4.82604
4.60375
4.55628
4.61662
4.66256
4.81011
5.08525
5.28574
5.20037
4.94075
5.06963
4.89195
5.37533
5.12963
5.24462
5.2604
5.66701
6.29834
6.515
6.8314
6.40827
4.89619
4.91454
4.9306
5.08573
5.46932
5.84461
6.01697
5.83041
5.35857
4.70215
4.28336
4.16491
3.96464
4.41522
4.52853
4.89777
4.69996
5.1888
5.18842
5.41393
5.58653
5.70179
5.71275
5.5966
5.32603
4.98522
4.84336
4.86653
4.9249
5.23531
5.97439
6.08423
6.06805
6.01413
5.95909
5.9217
6.4028
5.73426
7.60775
6.98608
6.67871
6.1548
6.12855
6.06637
6.03878
5.97726
5.84135
5.61565
5.35076
4.41811
3.70603
3.79491
4.08062
4.55859
5.20344
6.04432
6.4841
5.71905
5.0475
5.03486
9.79535
9.04948
7.238
6.61689
6.45775
6.29671
6.3239
6.57202
5.53164
4.60794
4.07183
3.81131
3.72766
3.65803
3.63172
3.65125
3.63659
3.59173
3.55875
3.57254
3.59489
3.76602
4.12012
4.89736
5.3985
5.79805
5.76296
5.64125
6.00377
6.12431
10.2622
8.92744
7.16877
6.18509
5.79165
5.61357
5.48633
5.41527
5.35115
5.40788
5.44001
5.57226
5.69678
5.86105
5.96925
6.13514
6.25831
6.51611
6.57217
6.55127
6.40569
6.20347
5.99532
5.99353
6.00506
6.09348
5.92075
6.18629
6.30205
6.21759
1.82433
2.02233
2.17264
2.21728
2.21602
2.16332
1.96292
1.6496
1.38388
1.35356
1.54877
2.05303
3.51925
6.42723
6.46316
4.10716
3.12604
2.8504
2.86092
2.94591
3.091
3.25115
3.33559
3.38053
3.27835
3.09851
2.92423
2.63819
2.49219
2.39922
2.41422
2.56296
2.90864
3.38798
3.75823
3.84557
3.67028
3.28249
3.05299
3.21112
3.94185
4.97556
5.20388
4.84854
4.90566
4.99077
5.06747
5.13466
5.16758
5.31971
5.47503
5.63849
5.68497
5.71674
5.6209
5.62827
5.58938
5.67432
5.84742
6.24946
5.96638
4.76716
3.69893
2.92673
2.60433
2.44554
2.32284
2.27974
2.31514
2.62581
3.53937
5.46889
5.72457
5.81711
5.61164
5.59368
5.57537
5.49486
5.49361
5.4148
5.4015
5.18213
5.33775
5.20441
5.30832
5.2748
5.50044
5.43384
5.62069
5.68763
5.77228
5.86258
5.9234
6.08102
6.11722
6.19757
6.1838
6.04012
5.90092
5.81075
5.60316
5.64001
5.47204
5.55849
3.71766
3.85697
3.87597
3.85985
3.80082
3.75661
3.74464
3.78679
3.86326
3.95218
4.04866
4.17846
4.26873
4.37921
4.52168
4.56428
4.50883
4.52344
4.53739
4.45432
4.58521
4.59095
4.73401
4.86641
5.27109
5.72591
5.5689
5.50813
5.57718
5.70848
6.16896
6.07686
5.8398
5.68133
5.54007
5.63252
5.72451
5.84396
5.89459
6.19027
6.25295
6.21996
6.04808
5.94177
5.70966
5.28596
4.85711
4.58734
4.46326
4.47918
4.55131
4.6192
4.78891
4.61979
4.74669
4.77157
4.36429
3.66604
3.46426
4.24535
5.04124
5.59513
5.94449
6.84787
7.37921
7.21615
5.60816
4.90147
4.78885
4.94234
5.2942
5.71706
6.34215
6.8601
7.54468
7.70337
8.03023
7.21688
7.57354
6.88583
7.08298
6.69161
6.58926
6.65433
6.45932
6.52307
6.71479
7.14654
7.5474
7.49102
6.11082
6.00862
5.93664
5.89291
6.0868
6.53002
6.08388
6.05757
5.35152
5.05675
4.31544
3.89394
3.59937
3.50533
3.45274
3.45069
3.4559
3.48118
3.51465
3.57261
3.66842
3.77189
3.80261
3.76166
3.68564
3.56494
3.70037
4.12216
4.28801
4.86328
5.47716
5.266
5.58464
6.58384
7.02391
6.33329
5.86323
5.15961
4.86794
4.60472
4.61256
4.55319
4.7494
4.67004
5.0187
5.07301
5.35585
5.19343
4.88552
4.77726
4.73207
5.02589
5.08763
4.84529
4.9124
4.86317
5.28212
5.77145
6.58336
6.75696
4.91328
4.91394
4.98242
5.23422
5.69341
5.99223
6.01399
5.79377
5.22725
4.57609
4.24548
4.03947
3.84294
4.16999
3.98192
4.05848
3.862
4.28653
4.28551
4.70885
5.10628
5.4056
5.45201
5.35472
5.11207
4.76903
4.68288
4.76259
4.76623
5.11123
5.9398
6.156
6.05981
6.06677
6.13727
5.97462
6.36103
5.90165
7.34802
7.06819
6.70956
6.17677
5.95233
5.87081
5.93391
5.95109
5.79955
5.39297
4.3005
3.49313
3.50968
3.83851
4.23783
4.97244
6.08653
7.18124
7.81031
7.46847
5.67987
5.181
9.67642
8.27915
6.83144
6.45791
6.32692
6.29401
5.90025
4.84218
4.01184
3.74198
3.67811
3.84833
3.92381
4.00164
4.15584
4.18109
4.16724
4.02716
3.85048
3.64598
3.45131
3.30994
3.25838
3.32562
3.49739
3.89163
4.82448
5.49712
5.49161
5.86006
9.91569
7.88785
6.4997
5.84842
5.49972
5.29967
5.1773
5.12137
5.14506
5.12887
5.01611
4.8301
4.72876
4.70526
4.70412
4.72793
4.83485
4.77787
4.87902
4.92335
4.92974
4.94432
4.6801
4.6038
4.84532
5.36054
6.07133
6.14488
5.95655
5.83256
1.90241
2.02942
2.10232
2.12348
2.18958
2.21328
2.16033
1.94786
1.55
1.31888
1.36587
1.66122
2.65398
5.62475
3.27513
2.95172
2.84741
2.91644
3.08379
3.32481
3.63243
3.81834
3.86311
3.87024
3.63088
3.49018
3.16565
2.79295
2.50187
2.30068
2.21621
2.29241
2.60286
3.19153
3.64425
3.81618
3.64601
3.23619
2.94002
3.11599
3.91115
5.01897
5.16979
4.81225
4.91376
4.82289
4.78316
4.81699
4.96006
5.07056
5.22682
5.48673
5.77676
5.87866
6.01825
5.87623
5.8631
5.66961
5.97941
6.34491
6.52086
5.59894
4.10314
3.09516
2.71694
2.4806
2.35841
2.2189
2.1733
2.28666
2.90273
5.04841
6.03464
6.14212
5.60633
5.62917
5.65259
5.60943
5.61973
5.45845
5.51771
5.33906
5.32265
5.28423
5.22241
5.34575
5.24518
5.48466
5.42735
5.58336
5.6514
5.78475
5.95535
6.04809
6.14149
6.28733
6.14691
5.95265
5.78516
5.77398
5.67962
5.60126
5.49577
5.55232
3.76223
3.97248
3.86682
3.75323
3.60433
3.50914
3.45772
3.47856
3.5778
3.72078
3.89695
4.00459
4.06254
4.16661
4.18666
4.19892
4.2206
4.11963
4.10118
4.21372
4.27064
4.5343
4.75605
4.95492
5.36818
5.96483
5.8154
5.74662
5.85034
5.99658
6.16711
5.99042
5.69193
5.57576
5.52115
5.70491
5.69166
5.93834
5.86542
6.26332
6.42491
6.64021
6.42875
6.32836
5.78671
4.89501
4.41515
4.20073
4.11472
4.06764
4.07683
4.06963
4.19578
4.25007
4.37654
4.48592
4.36287
3.70068
3.36958
4.00257
4.6884
5.33478
5.99076
6.93613
7.06058
6.10193
5.12991
4.74324
4.76333
5.05957
5.63356
6.1354
6.62499
7.11721
7.07777
7.44514
7.33499
7.38692
7.60234
6.97434
7.06057
6.66755
6.47
6.31373
6.38704
6.30216
6.57771
7.12598
7.59728
7.51955
6.04748
5.96854
5.83143
6.04754
5.98808
6.63578
5.87451
5.32273
4.8502
4.59281
4.06178
3.62095
3.53406
3.45461
3.43936
3.44625
3.50249
3.55693
3.58283
3.61524
3.68659
3.77402
3.79312
3.69999
3.52875
3.39338
3.51988
3.93057
4.39447
4.93995
5.21226
5.17777
5.67967
6.75827
6.80583
6.42067
5.47819
5.13669
4.67231
4.70029
4.59077
4.68617
4.65095
4.86587
4.86558
5.15751
5.17871
5.47621
5.42745
5.29061
5.01072
4.77187
4.78673
4.91611
4.79752
4.76804
4.74411
5.14203
5.97882
6.83482
4.90797
4.95049
5.00176
5.34849
5.70262
5.97093
5.97137
5.82237
5.38172
4.68303
4.21794
3.85937
3.62411
3.87188
3.58414
3.5924
3.58411
3.85813
4.21449
4.43354
4.75583
5.20824
5.19106
5.10687
4.93186
4.69979
4.73659
4.79567
4.78335
5.20781
6.14245
6.1579
6.10855
6.26109
6.05728
6.18554
6.08746
6.27595
7.29863
6.93103
6.31641
6.36456
5.97554
5.89722
5.96628
5.94524
5.58003
4.60037
3.6253
3.34495
3.4564
3.76765
4.04127
4.62978
6.05288
7.69112
7.30351
7.53624
7.18344
5.49423
9.6331
7.85654
6.6319
6.25387
6.27438
5.88334
4.67632
3.95065
3.71063
3.76848
3.95511
4.11053
4.23773
4.37881
4.42513
4.56443
4.60337
4.5655
4.40122
4.14177
3.81771
3.51251
3.28258
3.16518
3.16871
3.23599
3.55814
4.02319
5.47249
5.64312
9.15081
7.21761
6.10832
5.59138
5.32027
5.11811
4.65227
4.38903
4.03682
3.86749
3.69831
3.62453
3.57924
3.60021
3.62033
3.65197
3.69901
3.70669
3.71527
3.73008
3.67705
3.61272
3.62139
3.64352
3.717
3.90433
4.42048
6.09995
5.96469
5.67751
1.77866
1.87087
1.91501
1.94959
2.06607
2.1868
2.17881
2.03409
1.69917
1.38388
1.30427
1.44527
2.17405
5.08483
2.76615
2.84111
2.98572
3.18871
3.4422
3.69699
3.90428
3.98966
3.92544
3.81298
3.49026
3.29891
2.97268
2.66707
2.3673
2.15505
2.10413
2.20439
2.54859
3.21705
3.6919
3.74623
3.48772
2.99412
2.79358
3.1166
4.04325
5.11066
5.23104
4.66674
4.58389
4.55816
4.62741
4.74623
4.77266
4.9552
5.19683
5.43714
5.68761
5.91595
5.9081
5.89569
5.73596
5.75059
5.99459
6.32548
6.57342
5.21674
3.75819
3.03663
2.74054
2.58342
2.51397
2.41287
2.30292
2.28808
2.6435
4.23057
5.91316
6.02615
5.72787
5.78315
5.76852
5.73864
5.72278
5.57202
5.58093
5.50623
5.34351
5.32406
5.3047
5.21007
5.33396
5.22465
5.35779
5.50947
5.55756
5.83073
5.8317
5.95421
6.13599
6.07889
6.01463
5.83807
5.68952
5.67556
5.64593
5.65536
5.65119
5.54757
3.92278
3.98785
3.73954
3.54947
3.4162
3.3427
3.25711
3.20631
3.26124
3.47004
3.7055
3.84456
3.96411
3.9599
3.92209
3.91934
3.80435
3.82677
3.88299
4.01818
4.37389
4.63757
4.93119
5.21973
5.50326
5.98671
5.78209
5.68814
5.69595
5.8784
6.09638
5.83657
5.60856
5.49304
5.58877
5.69543
5.73882
5.95591
5.93328
6.35443
6.53599
6.85883
6.86473
6.47203
5.3941
4.56127
4.19245
4.06357
3.97948
3.91196
3.93422
3.91589
3.85684
4.20245
4.05287
4.21531
4.12725
3.63911
3.32515
4.02008
4.59148
5.16289
6.31253
6.98048
6.72295
5.49588
4.86724
4.70786
4.8479
5.27461
5.84782
6.14182
6.60251
6.76024
6.84287
6.94039
7.26013
7.40438
7.65053
7.08002
7.12307
6.7091
6.5601
6.2783
6.21436
6.40736
6.59968
7.18464
7.60839
7.73594
5.9132
5.84431
5.93421
5.82866
6.15125
6.61922
5.92484
4.88092
4.51901
4.23678
3.88233
3.65879
3.45345
3.42816
3.46846
3.56479
3.63815
3.68282
3.70362
3.68392
3.69449
3.77919
3.81582
3.69662
3.53643
3.52366
3.75442
4.14539
5.05642
5.04257
5.25781
5.30302
6.18998
7.3512
6.87414
6.15205
5.5909
4.89688
4.83587
4.62318
4.65333
4.62833
4.72246
4.6839
4.93394
4.94239
5.1876
5.07865
5.12366
5.14856
5.23787
4.81534
4.78538
4.89729
5.05762
4.8931
4.70925
4.77378
5.28151
6.7334
4.97815
4.9836
5.13186
5.28862
5.594
5.7577
5.89415
5.82457
5.568
4.93765
4.28148
3.75731
3.44645
3.59585
3.47909
3.37629
3.4716
3.57982
3.84789
4.2222
4.74205
4.82576
4.90119
4.92446
4.83527
4.58423
4.49179
4.57462
4.69372
5.22856
6.18753
6.13284
6.34729
6.2436
6.43238
6.36623
6.54123
6.46677
6.75865
6.94144
6.89921
6.20032
6.27179
6.21492
5.97318
5.42141
4.71255
3.9566
3.44515
3.45108
3.61596
3.93995
4.1395
4.65374
6.06595
8.04095
7.41166
6.75328
6.397
6.55456
9.50659
7.66886
6.4132
6.18201
6.14761
4.97856
4.03561
3.72238
3.79404
3.95557
4.10123
4.13426
4.20725
4.22915
4.2435
4.42697
4.70596
4.81474
4.73454
4.4901
4.10391
3.69895
3.3926
3.2135
3.14753
3.14806
3.2455
3.51501
4.78375
5.43817
8.70891
6.82206
5.91996
5.44007
4.83806
4.25975
3.91514
3.65129
3.47708
3.37641
3.31758
3.33561
3.2963
3.31805
3.31688
3.32467
3.35913
3.42962
3.45458
3.42027
3.37716
3.36608
3.36629
3.48668
3.65883
3.86578
3.98431
4.61047
6.10364
5.71423
1.70138
1.80434
1.84981
1.96006
2.2107
2.37829
2.31246
2.10928
1.80239
1.45947
1.31464
1.34348
1.86277
4.50827
3.03086
3.10959
3.30763
3.50819
3.66254
3.83873
3.88924
3.89802
3.84923
3.54803
3.17116
2.80164
2.52902
2.30082
2.13333
2.06908
2.12168
2.38166
2.92356
3.49643
3.733
3.49211
3.00894
2.73637
2.86053
3.50245
4.72424
5.57785
5.2504
4.6712
4.48614
4.50093
4.58053
4.67464
4.80344
4.96833
5.26454
5.518
5.66115
5.64692
5.54247
5.38857
5.44298
5.63181
5.87393
6.04121
5.17195
3.83751
3.10673
2.90315
3.08165
3.31512
3.51924
3.34521
2.90743
2.59296
2.76911
4.14279
6.26079
6.36736
5.85086
5.86786
5.90408
5.81276
5.82317
5.64933
5.67727
5.55142
5.46623
5.30935
5.35525
5.25564
5.21153
5.26538
5.3317
5.37911
5.64164
5.63155
5.77153
5.8522
5.86804
5.91572
5.79878
5.6475
5.59749
5.5667
5.65237
5.78007
5.81056
5.85348
4.04946
3.90951
3.5758
3.4383
3.34231
3.25329
3.08058
3.00419
3.0419
3.22637
3.49687
3.75093
3.81082
3.78299
3.7165
3.56883
3.55129
3.73612
4.02087
4.60862
4.94243
5.21002
5.44005
5.52399
5.79265
6.20628
6.13679
5.9736
6.04431
6.32338
6.10484
5.78245
5.55292
5.5467
5.58959
5.80424
5.74611
6.02695
6.01202
6.34751
6.60157
6.84083
6.86967
6.51728
5.30644
4.57429
4.2351
4.07781
3.93355
3.86878
3.83064
3.64158
3.81749
3.91379
3.77269
3.86873
3.79567
3.38038
3.25083
3.95562
4.56377
5.26817
6.33206
6.73159
6.27155
5.25961
4.86708
4.74853
5.00135
5.27297
5.655
5.92344
6.52367
6.81052
6.59497
7.04855
7.50642
7.68139
7.28698
7.30083
7.10159
7.02096
6.78888
6.61654
6.31096
6.34632
6.64544
7.14453
7.68433
7.70798
5.84634
5.81492
5.97585
5.68752
6.35321
6.41786
6.02572
4.72004
4.29875
4.0328
3.72743
3.56511
3.56835
3.51027
3.62455
3.79459
3.93682
3.93459
3.94043
3.81044
3.75922
3.85249
3.93881
3.89341
3.71775
3.64309
3.72973
4.30796
5.50141
5.52011
5.00452
5.26217
6.19544
7.10943
6.6297
5.98477
5.4265
5.0456
4.69677
4.75945
4.53912
4.67361
4.56528
4.73274
4.6484
4.85884
4.78214
5.00372
5.06335
5.21224
5.05183
5.05955
4.66578
4.88916
5.3176
5.56601
5.09452
4.81551
4.91235
6.44445
4.97494
5.08557
5.15806
5.30016
5.45723
5.54824
5.64119
5.7597
5.6589
5.24237
4.50169
3.78305
3.38571
3.43271
3.5489
3.32142
3.51098
3.5366
3.77786
4.03734
4.54332
4.95968
4.92279
4.99109
5.02396
5.21577
5.23394
5.20695
5.4031
5.48718
6.17328
6.39103
6.28409
6.5342
6.4083
6.70644
6.28239
6.87647
6.3375
6.43774
6.0224
6.58642
6.19882
5.68933
5.20097
4.58052
4.14857
3.81593
3.66244
3.66075
3.81527
3.8651
4.12171
4.65842
6.16437
7.79667
8.31453
5.33349
6.83269
6.79396
9.47056
7.58763
6.45726
6.13756
5.37634
4.33687
3.81245
3.76081
3.90432
4.05493
4.08983
4.06803
3.96433
3.88833
4.06578
4.15823
4.48813
4.90914
5.01891
4.73968
4.24375
3.795
3.4569
3.31263
3.29551
3.27745
3.2616
3.40253
4.00474
5.48695
8.20284
6.53666
5.66933
4.98502
4.1179
3.72497
3.49502
3.36628
3.33118
3.36177
3.43344
3.50227
3.54819
3.53439
3.46395
3.3606
3.2725
3.2307
3.25321
3.30671
3.2965
3.25784
3.27497
3.38401
3.74532
4.14022
4.21553
4.34161
6.08991
5.70924
1.6793
1.83925
1.93598
2.27732
2.69997
2.7928
2.62716
2.3405
1.97357
1.59816
1.3689
1.33545
1.72592
3.95323
3.31077
3.54776
3.84825
4.12383
4.03667
3.90146
3.87872
3.80653
3.78387
3.51608
3.19355
2.71355
2.41404
2.24961
2.1894
2.30229
2.57911
3.07775
3.4773
3.54983
3.27855
2.91373
2.80021
2.98146
3.56592
4.60205
5.58757
5.68423
5.19655
4.62308
4.3442
4.53333
4.70082
4.81103
4.9314
5.09461
5.33811
5.35729
5.0561
4.6985
4.61753
4.81088
5.15683
5.39975
5.3021
4.45477
3.49063
3.12086
3.60473
4.85137
5.76408
5.64232
5.51273
5.54387
4.35519
3.3715
3.23727
4.35783
6.22519
6.30586
5.91767
5.99963
5.95435
5.87173
5.85515
5.75451
5.64021
5.60979
5.42061
5.40744
5.27324
5.34024
5.30811
5.34135
5.42683
5.43773
5.426
5.60096
5.56221
5.66568
5.67396
5.63165
5.57864
5.573
5.47082
5.55459
5.73724
5.87568
5.8591
5.87782
4.05714
3.77253
3.44725
3.40805
3.35615
3.1684
2.91749
2.90898
2.98294
3.23367
3.55692
3.62993
3.63693
3.57632
3.41398
3.40197
3.80844
4.42302
5.25076
5.44861
5.78303
5.89098
5.86548
5.87505
6.0496
6.08885
6.12013
6.08019
6.20794
6.30452
6.04966
5.61518
5.43841
5.51628
5.70232
5.8476
5.85744
5.94938
6.16038
6.31912
6.6516
6.8396
6.84887
6.59038
5.64868
4.81072
4.40458
4.13341
3.99512
3.79599
3.62749
3.64904
3.57864
3.49117
3.47256
3.48154
3.32928
3.20448
3.26157
4.12936
4.62805
5.51239
6.38105
6.50441
5.95112
5.35262
5.11158
5.04666
5.13353
5.36524
5.49616
5.82645
6.52935
6.65151
7.04085
7.17004
7.35346
7.12669
7.22406
7.023
7.06961
6.93603
6.96932
6.88722
6.8619
6.66457
6.86224
7.22976
7.47114
7.81106
5.72559
5.67762
5.96471
5.6982
6.32839
6.23134
6.31257
5.06266
4.16413
3.97206
3.64016
3.49442
3.50475
3.71126
3.86412
4.11807
4.29357
4.43842
4.29847
4.14412
3.90938
4.0041
4.16127
4.0294
3.83953
3.86911
4.13085
4.69462
5.85598
5.96334
5.5265
5.62876
6.7932
6.92957
6.40068
5.81965
5.34443
4.991
4.86546
4.5695
4.6612
4.51299
4.58179
4.45684
4.63182
4.5758
4.85024
4.84585
5.03605
4.9397
5.13656
5.10706
4.82286
4.76197
5.3304
6.05792
6.09868
5.31035
4.90767
5.97217
5.14929
5.15248
5.31885
5.28948
5.36321
5.34484
5.32208
5.45918
5.57442
5.46804
4.87364
4.07519
3.46718
3.31042
3.54507
3.2436
3.58876
3.36537
3.53746
3.69204
4.13366
4.82655
4.91718
4.85075
4.94584
5.12711
5.22941
5.28428
5.44832
5.25001
6.41967
6.33222
6.58056
6.59253
6.85149
6.73521
6.68294
6.8811
6.65125
5.71936
5.50814
5.09908
5.4092
4.88543
4.60631
4.35492
4.08269
3.94766
3.88387
3.84208
3.86295
4.11829
4.33854
4.9278
5.87918
8.47764
8.3911
6.20852
5.0526
6.11861
9.142
7.45043
6.25535
5.94153
4.85264
4.04954
3.7869
3.81574
3.93755
4.05655
4.04941
3.82263
3.74204
3.78765
3.91327
4.15339
4.39928
4.82685
5.09078
4.9623
4.32613
3.75715
3.47121
3.48241
3.62293
3.72163
3.65988
3.58936
3.78433
5.83243
8.04868
6.34398
5.57291
4.34032
3.72346
3.455
3.33105
3.31292
3.40265
3.55263
3.71197
3.77766
3.80274
3.80288
3.69762
3.6098
3.4417
3.28536
3.15846
3.20584
3.24809
3.23119
3.19571
3.27801
3.69413
4.41471
4.6041
4.64398
5.70875
5.66997
1.69869
1.96007
2.22171
2.77568
3.09119
3.04045
2.90089
2.66483
2.28192
1.87171
1.50579
1.36768
1.66813
3.36673
3.53455
4.11452
4.77467
5.02365
4.80137
4.31017
3.91474
3.77922
3.71698
3.61421
3.48797
3.17634
2.95582
2.89296
2.90875
3.16844
3.33637
3.3892
3.23198
3.07103
3.02383
3.22995
3.64017
4.4979
5.12841
5.65492
5.68691
5.5027
5.01847
4.55343
4.26477
4.55655
4.73578
4.92517
5.03764
4.97616
4.76534
4.30724
3.88416
3.76916
4.09209
4.55071
4.77479
4.55488
3.902
3.44989
3.54061
4.68078
5.99534
5.90541
5.84557
5.70353
5.61153
5.59599
5.70363
4.60511
4.18466
5.1344
6.32204
6.33006
5.80554
6.03527
6.01914
5.96574
5.82476
5.7296
5.63667
5.5011
5.4763
5.33206
5.31096
5.1862
5.14689
5.17458
5.21278
5.32145
5.34232
5.35702
5.51454
5.413
5.51376
5.5024
5.45423
5.34439
5.41395
5.57386
5.78994
5.87124
6.09208
5.88552
3.96388
3.60153
3.39354
3.4463
3.41815
3.11201
2.88008
2.97899
3.20386
3.43671
3.55358
3.54383
3.43953
3.29785
3.4989
4.2423
5.09628
6.02862
6.1842
6.28338
6.21357
6.21948
6.21164
6.23723
6.12071
6.23163
6.18083
6.2717
6.37418
6.56607
6.17907
5.83054
5.6382
5.61426
5.67928
5.83328
5.93659
5.92587
6.20644
6.33714
6.57578
6.77729
6.86037
6.72128
6.05537
5.26259
4.65373
4.40328
4.07661
3.90761
3.796
3.44735
3.3233
3.24451
3.22925
3.18613
3.17305
3.20376
3.55671
4.34191
4.59208
5.7884
6.37195
6.13477
5.91564
5.4885
5.47812
5.46758
5.27578
5.04447
5.21726
5.53769
6.23662
7.12105
7.27991
7.35533
6.95244
6.94633
6.72156
6.86726
6.69738
6.74567
6.65106
6.61164
6.58029
6.65757
6.62339
6.98355
7.25624
7.09883
5.72338
5.71204
5.84167
5.81858
6.06898
6.38375
6.4194
5.98218
4.18199
3.87292
3.64707
3.43364
3.43446
3.63185
4.10748
4.76428
4.95226
4.82624
4.94234
4.5485
4.09879
4.13804
4.33634
4.54294
4.56028
4.5893
4.51014
4.49169
4.88547
5.86473
5.31174
5.69829
7.08638
6.75886
6.13947
5.66809
5.17452
5.0398
4.7118
4.75405
4.43117
4.56748
4.366
4.49996
4.39002
4.63381
4.52049
4.76496
4.82097
4.96766
5.04529
5.16811
5.03178
4.75113
5.07511
6.04091
6.63627
6.15262
5.09816
5.72402
5.15098
5.2838
5.41021
5.37819
5.38243
5.16368
5.00381
5.04128
5.26145
5.40151
5.25378
4.61496
3.81546
3.28667
3.44651
3.22721
3.51127
3.43311
3.50491
3.57505
3.90492
4.39997
4.97319
5.16085
5.29929
5.34412
5.58282
5.79969
5.3797
5.17972
6.33917
6.70463
6.70451
6.92138
6.81639
7.12078
6.85081
7.31354
6.63218
5.70521
5.17013
4.73267
4.5999
4.52991
4.28848
4.17703
4.09527
4.15226
4.01161
3.96334
4.09698
4.37447
4.84204
5.01569
5.55449
8.0699
8.08702
7.30433
5.47582
4.7867
10.6787
7.46733
6.25895
5.33102
4.38873
3.93786
3.78133
3.86021
3.946
4.05757
3.86755
3.81048
3.746
3.8827
4.00607
4.16711
4.44948
4.86875
5.26093
4.997
4.28843
3.67715
3.49253
3.82739
4.27334
4.46805
4.39566
4.06763
3.85871
5.95022
7.89746
6.23541
5.26594
3.97847
3.50562
3.33147
3.28953
3.37028
3.54596
3.72727
3.82825
3.82727
3.79038
3.78298
3.77518
3.69099
3.56083
3.40311
3.23852
3.13338
3.1763
3.21628
3.17933
3.18066
3.5529
4.57903
5.06336
5.2683
5.76908
5.64786
1.75363
2.13045
2.60482
3.13171
3.166
3.04803
2.9943
2.88856
2.47275
1.98741
1.61925
1.51967
1.86894
2.85704
2.93851
3.04038
3.79223
5.16896
6.31552
6.81161
6.25243
5.75696
4.5652
3.95142
3.61184
3.54638
3.41852
3.40521
3.299
3.32862
3.28309
3.26725
3.19549
3.18016
3.31049
3.73492
4.27215
4.91258
5.19634
5.38246
5.51905
5.50539
5.30174
4.92412
4.48954
4.27052
4.12804
4.06859
4.31223
4.46056
4.53735
4.49645
4.33662
4.02495
3.68348
3.48923
3.51172
3.675
3.96349
4.11533
3.92831
3.57585
3.36432
3.78037
4.77068
6.07835
6.24394
6.17706
5.99251
5.8591
5.74068
5.74174
5.83536
5.99128
5.75708
6.07231
6.49686
6.44759
6.26065
6.28048
6.08794
6.17656
6.1054
5.89255
5.7602
5.50825
5.45201
5.28574
5.37008
5.22534
5.28468
5.3226
5.37262
5.3483
5.32936
5.18281
5.28236
5.25317
5.27941
5.39
5.27238
5.31812
5.30638
5.28196
5.48811
5.57773
5.77104
6.23471
5.87193
5.21113
4.67805
4.3987
3.87435
3.48601
3.44477
3.52797
3.50098
3.19743
2.95532
2.99271
3.14023
3.31474
3.30141
3.30877
3.34251
3.98508
4.89256
6.09018
6.32814
6.34791
6.11466
6.06576
6.09767
6.03804
6.12846
6.15972
6.18016
6.2103
6.29146
6.35956
6.46042
6.60888
6.55873
6.18745
6.09721
5.72214
5.79815
5.90595
5.91873
5.88717
5.62494
5.50275
5.85502
6.31475
6.57884
6.77614
6.83866
6.87789
6.50247
5.92557
5.2938
4.65191
4.3374
4.14867
3.75719
3.60943
3.43606
3.30249
3.22187
3.25
3.31784
3.51867
3.98492
4.68912
4.60049
3.65204
4.59371
5.82686
6.40986
5.92615
5.94033
5.89171
5.92755
5.81567
5.53048
5.30008
5.22007
5.24323
5.9667
6.71016
7.12081
6.66404
6.54341
6.22105
6.35214
6.05929
6.142
6.09546
6.26189
6.30527
6.41738
6.6251
6.7791
6.6031
6.63965
6.76314
6.49583
6.02113
6.02348
5.79908
5.86398
5.76364
6.18361
6.19152
6.59883
6.17949
4.53971
3.8439
3.64977
3.47503
3.45428
3.61513
4.10932
5.03746
5.31673
5.61692
5.67704
4.77878
4.20032
4.11804
4.63047
4.67612
4.7031
4.72901
4.84817
4.7727
4.50501
4.60185
4.29434
3.81365
5.4419
5.87945
7.04242
6.60796
6.06377
5.50663
5.18474
4.91029
4.77669
4.70948
4.38686
4.47608
4.3277
4.24722
4.3088
4.43255
4.43446
4.73203
4.73852
4.88564
5.00111
5.15563
5.173
4.84405
4.8807
5.64203
6.62491
6.6562
5.66485
5.64255
5.44689
5.77252
6.79873
6.34675
5.74442
5.44115
5.42202
5.28822
4.93129
4.71098
4.83052
5.06349
5.22816
5.15767
4.57137
3.60851
3.54824
3.26244
3.45663
3.44104
3.43931
3.50186
3.65478
4.12164
4.57519
5.0558
5.23345
5.04288
5.15662
5.60407
5.97651
6.17261
6.57498
6.82942
6.81995
6.81552
7.00072
6.94564
7.19186
7.03228
7.51961
7.19705
7.26618
6.09111
5.10027
4.49674
4.44981
4.24597
4.16417
4.14325
4.09069
4.18337
4.15294
3.98874
4.23362
4.53624
4.8201
5.23072
5.06224
6.02584
8.80885
8.82205
6.80048
5.2122
5.77387
5.10719
9.54575
7.68532
6.14081
4.84175
4.1949
3.8607
3.77717
3.83656
3.95465
3.9736
3.86312
3.79334
3.89612
4.03767
4.08086
4.33205
4.59994
4.97558
5.40427
5.01622
4.10466
3.55354
3.5794
4.44559
5.38158
5.64098
5.37826
4.98478
4.27127
5.63581
5.59543
6.71841
7.85714
6.12035
4.86623
3.75707
3.39675
3.28321
3.30058
3.44326
3.64724
3.81537
3.81498
3.71562
3.62194
3.60577
3.69274
3.70881
3.61048
3.42235
3.30617
3.16547
3.12569
3.1786
3.19295
3.13937
3.36461
4.47283
5.24104
5.51376
5.76127
5.72445
3.41576
3.36388
1.82414
2.34151
2.92052
3.23796
3.14037
3.03345
2.95834
2.70149
2.32839
2.01209
1.85947
2.06085
2.58005
3.01
3.27091
3.58203
4.88307
6.79741
7.05127
7.03305
6.996
7.07214
6.77152
5.17937
4.12993
3.69225
3.41855
3.38781
3.28868
3.32957
3.32232
3.44223
3.75079
4.28091
4.8561
5.23809
5.24142
5.22228
5.19649
5.26409
5.3023
5.15033
4.77927
4.47464
4.26323
4.09837
4.07603
4.18325
4.29391
4.16781
3.97083
3.75546
3.53637
3.36499
3.3184
3.32638
3.45126
3.54949
3.53032
3.41424
3.26792
3.26911
3.72565
4.58279
5.52425
5.95255
6.18624
6.18919
6.20065
6.03334
6.04627
6.08328
6.19458
6.35499
6.5056
6.4968
6.41777
6.58137
6.32562
6.43015
6.2372
6.17345
5.97714
5.68406
5.54504
5.25731
5.28052
5.09828
5.21357
5.21566
5.3108
5.38168
5.33478
5.27312
5.19827
5.29767
5.13093
5.22789
5.17829
5.22055
5.2091
5.21034
5.31281
5.24672
5.47978
5.59571
5.75752
6.34494
6.04374
5.18357
4.71733
4.25602
3.80566
3.47929
3.48683
3.61497
3.74914
3.49757
3.17577
3.07675
3.12231
3.20469
3.43016
3.85745
4.73472
6.00205
6.47253
6.2256
6.22964
5.98119
5.91129
5.90451
5.9226
5.84038
6.07443
6.03159
6.19021
6.31239
6.34272
6.42596
6.57494
6.62428
6.37502
6.17132
6.18964
5.81391
5.73602
5.85607
6.02629
5.23188
4.1927
4.33346
4.80555
5.79261
6.33086
6.52128
6.76051
6.78592
6.70476
6.0904
5.55444
5.37089
4.98912
4.47138
4.42418
4.05062
3.85657
3.68993
3.69539
3.78299
3.95786
4.26534
4.5415
4.32479
3.696
3.83056
4.7855
5.71826
6.08907
6.00998
5.94754
6.03494
5.88153
5.95423
5.56874
5.21037
4.91035
5.098
5.62932
6.2524
6.36677
6.26956
6.13451
6.19117
5.93102
6.1342
6.11598
6.12369
5.90919
5.86998
5.72119
5.72837
5.8432
6.15912
6.55938
6.67873
6.09998
6.23711
6.00762
5.83039
5.87902
5.85869
5.99369
6.24554
6.45923
6.70647
5.72213
4.19432
3.72963
3.65387
3.50976
3.85728
4.49946
5.14811
5.22836
5.87872
6.48951
5.32751
4.38485
4.14264
4.47921
5.0899
4.84442
5.05922
5.20178
5.2071
4.92723
4.34811
4.06035
4.39033
5.40257
6.19677
6.91212
6.55689
5.92631
5.51408
5.06133
4.96714
4.6628
4.72727
4.33141
4.50747
4.16572
4.29586
4.18763
4.38682
4.3053
4.63623
4.64193
4.8414
4.97466
5.15106
5.23065
5.01349
4.77727
5.28827
6.21483
6.71642
6.42204
5.67602
5.79445
5.47653
6.24257
7.02585
5.83168
5.44438
5.47288
5.41639
5.02654
4.59117
4.46222
4.70033
5.00367
5.15737
5.32469
4.52742
4.00564
3.46066
3.61033
3.55405
3.50878
3.55167
3.84429
4.11714
4.3877
4.77148
5.06445
4.97321
4.55734
4.66182