/*--------------------------------*- C++ -*----------------------------------*\
| =========                 |                                                 |
| \\      /  F ield         | OpenFOAM: The Open Source CFD Toolbox           |
|  \\    /   O peration     | Version:  2.1.1                                 |
|   \\  /    A nd           | Web:      www.OpenFOAM.org                      |
|    \\/     M anipulation  |                                                 |
\*---------------------------------------------------------------------------*/
FoamFile
{
    version     2.0;
    format      ascii;
    class       volVectorField;
    location    "0.003850000";
    object      U;
}
// * * * * * * * * * * * * * * * * * * * * * * * * * * * * * * * * * * * * * //

dimensions      [0 1 -1 0 0 0 0];

internalField   nonuniform List<vector> 
12384
(
(0.328248 -11.4532 0)
(9.07337 -13.7667 0)
(20.6012 -15.6797 0)
(27.983 -12.9152 0)
(33.7187 -10.2146 0)
(32.7554 -3.64016 0)
(30.0052 1.38036 0)
(29.773 4.42396 0)
(17.5419 10.4498 0)
(14.6237 12.1863 0)
(7.84054 10.1956 0)
(2.91435 15.3853 0)
(-2.04742 7.72289 0)
(-13.8073 9.31766 0)
(1.91398 2.72224 0)
(14.3273 -8.69554 0)
(43.1282 -19.1792 0)
(88.6215 -25.2823 0)
(141.894 -29.9214 0)
(193.311 -29.7426 0)
(246.178 -26.6115 0)
(288.565 -27.9071 0)
(317.672 -20.9367 0)
(348.966 -15.0526 0)
(353.439 -15.3677 0)
(355.668 -1.7657 0)
(344.744 -1.1976 0)
(307.116 8.00268 0)
(277.388 7.07287 0)
(173.515 6.94036 0)
(98.2198 2.05749 0)
(37.3572 6.70057 0)
(-5.39772 4.83687 0)
(-23.1913 8.55276 0)
(-28.9108 8.71958 0)
(-28.3304 13.6755 0)
(-24.9449 7.34351 0)
(-21.7524 15.4692 0)
(-15.2972 7.00523 0)
(-19.0663 13.2132 0)
(-10.4599 10.3329 0)
(-4.97552 15.555 0)
(-4.34986 12.5009 0)
(-2.11651 15.9681 0)
(8.94882 -12.628 0)
(41.2064 -34.3276 0)
(91.0222 -33.6605 0)
(131.95 -34.8142 0)
(158.546 -20.2396 0)
(162.651 -17.2362 0)
(142.816 -1.59859 0)
(121.443 5.49143 0)
(98.7292 17.2413 0)
(82.5859 19.5645 0)
(75.2038 24.7253 0)
(72.4494 20.6027 0)
(70.1661 23.1904 0)
(70.92 18.6371 0)
(55.7627 19.4937 0)
(49.0179 14.0508 0)
(1.02097 11.4368 0)
(-5.40385 14.8995 0)
(-2.84948 2.56189 0)
(-1.26467 11.3531 0)
(16.4598 -4.37665 0)
(30.2119 12.297 0)
(56.8466 -6.68859 0)
(63.9386 5.22921 0)
(73.2264 -0.543408 0)
(70.3737 0.732334 0)
(63.5098 -1.6849 0)
(52.2812 -0.603395 0)
(33.5351 1.65151 0)
(12.8596 -0.62675 0)
(16.7081 -14.0418 0)
(64.287 -29.7176 0)
(133.732 -36.1401 0)
(204.625 -37.5588 0)
(277.138 -34.7635 0)
(330.477 -31.9214 0)
(380.582 -24.9264 0)
(434.679 -27.2556 0)
(452.038 -17.8147 0)
(491.244 -26.7811 0)
(501.649 -9.4612 0)
(517.775 -27.3423 0)
(490.242 -6.10306 0)
(509.785 -13.5842 0)
(503.703 -6.0462 0)
(515.13 -1.94064 0)
(522.065 -0.105537 0)
(522.203 2.39299 0)
(510.147 7.84318 0)
(479.609 17.5713 0)
(416.699 17.9562 0)
(293.609 19.1737 0)
(147.834 13.3176 0)
(39.8794 7.63045 0)
(-34.6164 -18.4696 0)
(-80.0511 -17.9477 0)
(-76.5254 -21.7402 0)
(-67.2145 -23.8928 0)
(-50.9067 -31.3635 0)
(-19.5656 -30.4008 0)
(-3.94079 -10.9302 0)
(14.5603 -29.2411 0)
(61.1615 -38.5797 0)
(120.749 -38.8211 0)
(184.915 -33.818 0)
(249.413 -26.2325 0)
(309.014 -17.354 0)
(361.044 -6.76472 0)
(401.936 1.80231 0)
(429.418 8.7538 0)
(452.017 14.1888 0)
(463.208 11.924 0)
(465.094 14.4369 0)
(461.587 15.5229 0)
(446.254 14.3434 0)
(429.021 8.77622 0)
(396.64 11.0822 0)
(375.128 9.81651 0)
(336.62 5.17513 0)
(298.696 15.4997 0)
(274.556 11.3007 0)
(233.486 23.9157 0)
(199.748 31.8049 0)
(143.037 33.6286 0)
(91.2687 37.3034 0)
(43.8772 24.9031 0)
(10.6335 17.1013 0)
(-1.43741 3.88501 0)
(-4.67513 2.6996 0)
(-0.646613 -1.51886 0)
(-1.78009 12.0418 0)
(-6.1422 14.6565 0)
(-20.0518 16.5551 0)
(-41.9123 20.6248 0)
(-70.6939 19.5857 0)
(-96.6561 14.373 0)
(-114.91 5.75406 0)
(-111.7 -3.69677 0)
(-102.333 -12.9947 0)
(-73.4315 -18.6811 0)
(-40.4458 -26.4029 0)
(-6.31087 -33.4696 0)
(43.8108 -44.1544 0)
(78.0295 -50.3226 0)
(130.657 -56.0224 0)
(186.085 -50.3466 0)
(248.426 -51.1025 0)
(314.375 -40.7516 0)
(386.213 -27.6232 0)
(458.004 -14.1441 0)
(514.684 -3.69264 0)
(542.869 7.85502 0)
(527.561 21.6261 0)
(454.173 26.7153 0)
(353.442 53.724 0)
(244.047 57.4832 0)
(115.857 55.7433 0)
(25.8734 34.0537 0)
(-18.5903 5.039 0)
(-14.5169 -14.5414 0)
(-11.6917 -5.01417 0)
(-69.9646 -14.3148 0)
(-112.545 8.59386 0)
(-134.986 4.78193 0)
(-142.934 17.6752 0)
(-146.937 11.348 0)
(-138.552 16.3764 0)
(-122.74 10.1699 0)
(-102.152 10.065 0)
(-63.8456 4.17753 0)
(-19.158 3.17769 0)
(27.1881 -1.48469 0)
(66.4093 1.73573 0)
(89.2544 -14.4519 0)
(117.701 1.78786 0)
(125.097 -13.1122 0)
(128.39 0.790352 0)
(139.109 -7.5736 0)
(131.934 2.06884 0)
(147.636 -2.3516 0)
(134.545 5.72326 0)
(149.624 4.82353 0)
(111.749 8.42642 0)
(78.6139 22.3666 0)
(48.6059 26.2399 0)
(21.8838 30.8409 0)
(3.01219 35.7707 0)
(-7.31038 32.6361 0)
(-9.32547 28.3746 0)
(-9.76507 26.7648 0)
(-11.1013 -10.808 0)
(-9.48992 -11.1519 0)
(4.08844 -12.2917 0)
(11.5846 -4.90718 0)
(15.4158 3.11945 0)
(8.2477 -8.85118 0)
(-58.9047 -7.10158 0)
(-107.483 10.7776 0)
(-189.014 0.0367797 0)
(-321.718 17.8406 0)
(-405.145 30.522 0)
(-478.459 35.9229 0)
(-546.514 29.4894 0)
(-564.063 20.2127 0)
(-539.455 10.8618 0)
(-484.45 0.319875 0)
(-406.951 -10.4449 0)
(-314.877 -18.5857 0)
(-223.244 -27.5052 0)
(-125.25 -32.0821 0)
(-28.834 -34.439 0)
(67.5449 -31.2588 0)
(158.18 -28.378 0)
(236.435 -18.7319 0)
(289.709 -8.30272 0)
(291.697 7.1009 0)
(255.737 35.9572 0)
(191.687 43.2343 0)
(93.7711 58.2357 0)
(31.2922 39.097 0)
(-14.6784 -26.1541 0)
(-60.2895 -6.18858 0)
(-65.3724 5.20676 0)
(-110.621 -8.70973 0)
(-152.402 20.6886 0)
(-188.869 28.0226 0)
(-236.918 18.452 0)
(-283.063 30.7779 0)
(-330.43 31.3153 0)
(-376.651 27.0648 0)
(-398.12 29.2354 0)
(-431.066 16.8416 0)
(-398.741 26.4622 0)
(-382.947 2.85519 0)
(-347.824 13.0568 0)
(-270.358 -16.819 0)
(-185.295 -7.80893 0)
(-82.8823 -21.5851 0)
(15.2483 -30.5752 0)
(91.4367 -35.2574 0)
(143.679 -20.3498 0)
(140.434 -44.1523 0)
(131.885 -7.14311 0)
(107.62 -22.3449 0)
(62.5138 1.8703 0)
(41.3825 1.09758 0)
(15.5024 6.46174 0)
(7.05418 9.54743 0)
(1.63068 11.2186 0)
(-0.72131 12.6519 0)
(-19.4557 -1.04603 0)
(-46.2841 1.24962 0)
(-87.4427 -5.03557 0)
(-132.068 2.05324 0)
(-165.172 1.0071 0)
(-188.752 4.59997 0)
(-200.004 -0.810211 0)
(-203.433 2.32034 0)
(-204.084 9.14364 0)
(-216.703 18.7753 0)
(-259.306 33.6208 0)
(-333.714 48.7302 0)
(-441.22 65.9859 0)
(-617.88 66.7159 0)
(-703.109 43.6876 0)
(-786.282 19.0356 0)
(-785.504 16.4781 0)
(-785.077 -0.124724 0)
(-768.651 -37.4377 0)
(-662.084 -57.0549 0)
(-528.848 -71.2583 0)
(-369.06 -83.6763 0)
(-204.546 -90.268 0)
(-20.9264 -83.2293 0)
(150.591 -66.9371 0)
(285.328 -36.5538 0)
(340.329 10.1938 0)
(294.985 53.3235 0)
(175.64 72.8534 0)
(57.0323 62.7077 0)
(-12.57 -9.77085 0)
(-44.7637 4.55557 0)
(-68.752 0.986675 0)
(-97.3878 6.42391 0)
(-109.434 10.9309 0)
(-128.174 7.48251 0)
(-122.788 16.8563 0)
(-154.58 4.65798 0)
(-191.932 3.05453 0)
(-250.016 11.465 0)
(-386.899 -10.2369 0)
(-394.583 28.073 0)
(-435.389 14.3138 0)
(-444.271 15.8075 0)
(-437.108 16.1806 0)
(-443.155 21.1316 0)
(-472.078 26.8105 0)
(-527.297 24.8208 0)
(-633.775 19.0972 0)
(-609.457 28.5416 0)
(-653.134 -12.4364 0)
(-572.892 -42.5268 0)
(-403.02 -84.3779 0)
(-186.981 -115.888 0)
(42.9608 -137.1 0)
(284.049 -112.048 0)
(489.612 -29.9856 0)
(483.511 22.077 0)
(263.766 80.682 0)
(103.172 71.3386 0)
(8.16622 28.0915 0)
(6.62637 30.1608 0)
(-9.85006 35.2038 0)
(-39.4968 36.6537 0)
(-85.4595 37.0553 0)
(-148.139 40.9127 0)
(-250.242 39.1399 0)
(-330.883 38.3052 0)
(-431.277 28.6282 0)
(-480.309 43.6189 0)
(-530.876 21.6972 0)
(-552.362 27.3613 0)
(-561.187 5.91341 0)
(-564.227 -6.7575 0)
(-594.307 -39.7147 0)
(-557.586 -16.7368 0)
(-517.885 -44.4138 0)
(-470.644 -44.7303 0)
(-399.763 -35.7334 0)
(-323.183 -31.2204 0)
(-243.653 -20.7274 0)
(-179.615 -15.6419 0)
(-131.167 -8.15721 0)
(-98.2989 -8.55658 0)
(-69.8549 -3.55002 0)
(-57.5371 -4.05022 0)
(-34.3281 2.92825 0)
(-14.9172 -11.4393 0)
(-4.06937 6.982 0)
(6.19963 1.83532 0)
(11.3542 13.2267 0)
(-14.7357 23.7905 0)
(-31.4789 38.0023 0)
(-58.7333 28.2654 0)
(-91.8565 33.9585 0)
(-98.6188 25.2588 0)
(-124.536 21.6515 0)
(-169.12 9.67922 0)
(-209.411 16.5493 0)
(-296.89 -0.727898 0)
(-303.299 11.0075 0)
(-311.926 6.11554 0)
(-299.777 9.38543 0)
(-285.66 2.08935 0)
(-253.336 2.15662 0)
(-214.853 -5.99057 0)
(-180.779 -9.01629 0)
(-150.159 -23.8914 0)
(-124.545 -23.7523 0)
(-102.401 -14.4969 0)
(-55.9964 10.9808 0)
(-13.0306 -6.27837 0)
(9.31814 9.8035 0)
(57.7567 -2.66325 0)
(107.518 -11.6807 0)
(140.198 -14.933 0)
(142.053 -13.3632 0)
(135.385 -27.3295 0)
(67.6637 -15.8615 0)
(15.3706 -20.9794 0)
(4.06884 -33.3873 0)
(16.0777 -41.599 0)
(28.6721 -46.0747 0)
(37.6396 -37.4813 0)
(41.4982 -24.996 0)
(40.1154 -12.1439 0)
(39.8151 5.00142 0)
(39.5018 13.4278 0)
(31.4997 29.5338 0)
(27.8953 34.2472 0)
(20.3253 30.1333 0)
(12.3373 38.6528 0)
(8.6629 23.5313 0)
(-4.42003 24.8094 0)
(10.6894 -8.69823 0)
(38.8771 -35.0892 0)
(81.9683 -60.2766 0)
(129.176 -75.1839 0)
(177.13 -82.136 0)
(226.605 -82.3668 0)
(268.006 -76.1426 0)
(302.921 -73.5667 0)
(341.355 -60.2604 0)
(361.998 -46.5637 0)
(368.934 -36.9496 0)
(377.002 -5.15525 0)
(356.873 -5.07293 0)
(333.3 16.585 0)
(302.974 11.1855 0)
(192.747 13.8756 0)
(127.702 6.01384 0)
(61.5781 14.0887 0)
(26.9583 18.8007 0)
(9.12635 28.1503 0)
(1.78023 34.1612 0)
(-1.41296 35.1476 0)
(-2.1413 32.3405 0)
(-3.11531 35.4211 0)
(-3.25169 31.11 0)
(-4.61756 30.5445 0)
(-3.85262 34.0008 0)
(0.118112 36.1941 0)
(1.47702 40.2559 0)
(2.97048 46.821 0)
(24.4528 -63.5828 0)
(81.1135 -99.0746 0)
(138.372 -95.6226 0)
(182.807 -82.2883 0)
(203.767 -65.6478 0)
(199.045 -40.3164 0)
(182.079 -1.63632 0)
(162.981 21.7899 0)
(143.033 46.6787 0)
(127.784 61.7035 0)
(119.511 68.1146 0)
(114.43 68.1095 0)
(109.574 67.4106 0)
(102.177 61.9212 0)
(81.913 56.5694 0)
(64.3015 46.7005 0)
(30.4952 33.2984 0)
(13.3563 36.5864 0)
(17.0243 4.26504 0)
(14.5669 23.6482 0)
(40.6755 -7.07353 0)
(43.6936 17.217 0)
(61.2206 0.481622 0)
(70.8027 18.6474 0)
(71.4249 15.7139 0)
(69.4518 23.9972 0)
(58.4639 20.4149 0)
(44.3742 24.2018 0)
(26.4402 25.9978 0)
(8.10749 25.4549 0)
(23.9605 -48.2492 0)
(81.8764 -90.6714 0)
(151.16 -103.869 0)
(218.3 -104.785 0)
(281.317 -93.5809 0)
(327.337 -90.4366 0)
(371.887 -72.2676 0)
(424.921 -72.5202 0)
(440.326 -55.9765 0)
(469.263 -63.8843 0)
(481.803 -43.2905 0)
(484.269 -51.5791 0)
(485.029 -31.3465 0)
(477.709 -19.7615 0)
(494.994 -10.8512 0)
(496.754 -0.272259 0)
(500.177 7.7648 0)
(501.146 15.885 0)
(498.46 26.0513 0)
(477.689 34.7974 0)
(431.512 39.7656 0)
(355.3 43.2679 0)
(252.201 37.5784 0)
(146.412 23.5188 0)
(62.7572 -14.9987 0)
(5.64777 -42.5226 0)
(-34.8862 -49.8899 0)
(-41.7772 -57.0495 0)
(-30.0749 -67.4308 0)
(-10.0198 -73.8837 0)
(7.88767 -46.0071 0)
(34.323 -81.1046 0)
(71.2712 -92.4637 0)
(117.165 -93.1196 0)
(170.282 -84.2477 0)
(228.021 -71.3456 0)
(287.245 -50.6659 0)
(341.455 -25.7084 0)
(386.064 -0.655953 0)
(420.109 21.137 0)
(440.804 34.0662 0)
(452.644 38.0634 0)
(459.215 43.2244 0)
(450.366 39.3769 0)
(434.269 36.831 0)
(424.326 30.65 0)
(401.121 25.8441 0)
(367.104 25.0147 0)
(345.103 24.9706 0)
(307.087 33.4939 0)
(282.243 41.3185 0)
(264.973 62.2518 0)
(233.391 81.9721 0)
(200.91 97.2834 0)
(154.678 104.182 0)
(99.5475 84.9033 0)
(52.759 60.1389 0)
(22.4398 26.5065 0)
(7.49645 18.1055 0)
(2.14908 8.25409 0)
(-6.59634 40.3366 0)
(-20.9459 48.2164 0)
(-46.9911 54.699 0)
(-77.2864 63.2782 0)
(-107.735 55.4851 0)
(-126.06 37.769 0)
(-132.866 9.09727 0)
(-124.016 -12.6824 0)
(-109.41 -40.6306 0)
(-80.3079 -55.5722 0)
(-54.773 -81.9967 0)
(-27.5193 -101.683 0)
(15.2001 -126.245 0)
(49.0924 -133.402 0)
(99.9512 -144.274 0)
(151.685 -130.771 0)
(212.362 -119.15 0)
(281.015 -94.3309 0)
(352.079 -65.6736 0)
(418.268 -35.7942 0)
(469.505 -6.12707 0)
(505.599 19.1496 0)
(498.966 56.3464 0)
(448.41 70.2024 0)
(402.922 125.37 0)
(323.391 149.202 0)
(231.304 154.328 0)
(134.243 118.489 0)
(54.0784 55.5033 0)
(11.0394 1.42834 0)
(-25.4036 -28.995 0)
(-74.6923 -21.7657 0)
(-115.433 19.5903 0)
(-143.205 32.9178 0)
(-156.207 52.9832 0)
(-163.753 40.5985 0)
(-151.203 46.2248 0)
(-134.473 31.9857 0)
(-106.196 27.1531 0)
(-67.0645 16.369 0)
(-23.9673 6.05091 0)
(22.4858 1.99882 0)
(62.5407 1.08124 0)
(77.9738 -21.1736 0)
(102.556 -0.709809 0)
(101.2 -27.2662 0)
(97.2702 -2.00727 0)
(104.38 -20.1299 0)
(96.9859 -0.540612 0)
(118.16 -10.2302 0)
(102.378 5.97213 0)
(116.614 14.4746 0)
(104.793 25.1834 0)
(73.5985 53.6267 0)
(50.6184 75.9033 0)
(33.5502 87.6917 0)
(15.982 102.999 0)
(4.24673 94.3279 0)
(0.702967 83.8915 0)
(-3.12701 80.4087 0)
(-1.14429 -38.9126 0)
(0.401118 -39.5305 0)
(4.40264 -50.0764 0)
(5.412 -39.2873 0)
(-15.6588 -28.3565 0)
(-31.8299 -28.2605 0)
(-95.8708 -40.5445 0)
(-171.239 17.0825 0)
(-280.058 11.4102 0)
(-383.906 66.0462 0)
(-481.816 76.7949 0)
(-543.398 101.968 0)
(-594.492 74.7125 0)
(-599.475 59.8686 0)
(-578.486 32.7814 0)
(-526.73 2.00359 0)
(-448.011 -29.1806 0)
(-360.451 -54.2119 0)
(-269.875 -74.9035 0)
(-182.725 -90.2318 0)
(-95.2933 -95.9248 0)
(-12.1872 -90.1087 0)
(61.2297 -73.7603 0)
(124.085 -50.1257 0)
(164.396 -19.4973 0)
(181.302 20.5055 0)
(163.04 67.3161 0)
(120.831 118.326 0)
(65.5291 149.541 0)
(21.3044 129.379 0)
(-17.0879 -132.872 0)
(-48.0166 -94.4323 0)
(-116.125 -65.2571 0)
(-164.83 -26.8915 0)
(-214.279 2.61517 0)
(-268.334 22.0601 0)
(-300.233 45.1846 0)
(-329.533 80.9222 0)
(-367.772 79.1485 0)
(-393.613 77.846 0)
(-416.896 71.7558 0)
(-425.814 57.1442 0)
(-420.277 55.8201 0)
(-399.794 24.8561 0)
(-365.095 12.8689 0)
(-297.934 -13.253 0)
(-222.69 -34.9026 0)
(-141.377 -49.4167 0)
(-52.8702 -75.2901 0)
(26.9985 -85.7375 0)
(74.6478 -95.2409 0)
(109.501 -89.2824 0)
(128.279 -54.8553 0)
(105.745 -52.0131 0)
(89.4212 -4.91779 0)
(60.0057 1.19962 0)
(37.1103 19.8367 0)
(23.2038 23.5688 0)
(10.3033 34.104 0)
(6.81729 33.8578 0)
(-22.8517 7.18912 0)
(-62.9675 9.69989 0)
(-111.352 3.2194 0)
(-158.684 11.5259 0)
(-189.251 11.0065 0)
(-214.16 15.1605 0)
(-235.689 13.0214 0)
(-249.404 20.8826 0)
(-266.654 35.0345 0)
(-290.716 59.6451 0)
(-334.472 97.1201 0)
(-406.145 146.329 0)
(-500.464 178.413 0)
(-664.093 173.243 0)
(-711.934 118.102 0)
(-757.538 73.803 0)
(-763.324 17.9484 0)
(-795.171 -36.0817 0)
(-754.807 -95.6822 0)
(-672.703 -132.328 0)
(-561.502 -170.393 0)
(-430.909 -207.865 0)
(-282.472 -231.162 0)
(-122.945 -230.407 0)
(38.8838 -192.315 0)
(173.721 -102.434 0)
(247.523 19.7438 0)
(246.319 136.41 0)
(175.943 206.188 0)
(71.5378 196.221 0)
(-15.99 -7.53132 0)
(-53.2837 3.45447 0)
(-84.8691 3.22222 0)
(-105.782 10.0031 0)
(-122.047 22.9403 0)
(-136.294 25.2064 0)
(-129.948 32.0062 0)
(-187.354 14.0294 0)
(-178.701 23.3578 0)
(-289.881 7.75097 0)
(-349.76 9.76554 0)
(-399.058 36.9869 0)
(-426.624 39.1339 0)
(-415.873 42.8566 0)
(-406.538 52.1884 0)
(-417.135 68.9841 0)
(-457.663 89.4555 0)
(-532.58 99.4475 0)
(-642.791 86.4453 0)
(-697.185 102.156 0)
(-713.042 -39.7352 0)
(-585.358 -130.704 0)
(-410.523 -245.982 0)
(-211.268 -317.426 0)
(17.2021 -356.909 0)
(241.413 -318.659 0)
(437.315 -114.22 0)
(530.199 92.6382 0)
(372.838 262.031 0)
(131.707 265.029 0)
(-4.05275 88.6611 0)
(-20.6827 100.088 0)
(-53.6913 108.764 0)
(-95.9276 113.599 0)
(-144.705 113.791 0)
(-203.592 117.532 0)
(-297.829 107.287 0)
(-381.98 123.5 0)
(-478.007 102.852 0)
(-571.595 114.984 0)
(-610.271 90.3686 0)
(-635.156 72.5384 0)
(-627.888 32.4115 0)
(-645.918 -9.90492 0)
(-635.512 -62.3079 0)
(-624.286 -81.8253 0)
(-590.209 -124.593 0)
(-519.337 -123.444 0)
(-437.58 -120.515 0)
(-350.533 -103.666 0)
(-265.505 -80.6925 0)
(-188.029 -56.7009 0)
(-125.288 -33.0362 0)
(-84.4215 -11.0939 0)
(-59.8216 -7.42598 0)
(-38.6335 0.80869 0)
(-24.5035 8.0588 0)
(-12.4406 -4.64878 0)
(-3.24562 18.202 0)
(-1.95407 13.0243 0)
(3.93112 56.9848 0)
(-15.1869 70.4602 0)
(-52.3228 98.8262 0)
(-82.4363 88.3951 0)
(-107.742 86.1551 0)
(-111.762 81.4582 0)
(-135.591 64.1892 0)
(-178.982 46.7043 0)
(-235.202 36.6526 0)
(-312.599 11.9364 0)
(-332.486 29.0599 0)
(-357.427 16.271 0)
(-343.067 16.9261 0)
(-317.99 0.24508 0)
(-298.301 0.102336 0)
(-256.789 -4.99129 0)
(-218.659 -9.51236 0)
(-177.354 -15.1343 0)
(-129.547 -20.4294 0)
(-82.4183 -16.7523 0)
(-48.238 4.37953 0)
(-14.1646 -12.4217 0)
(26.0567 1.48048 0)
(61.3961 -5.27617 0)
(99.0246 -15.2122 0)
(125.674 -22.7359 0)
(127.036 -40.8723 0)
(104.84 -48.3154 0)
(59.2068 -41.3628 0)
(5.84923 -40.127 0)
(7.39026 -59.6684 0)
(19.2456 -73.5854 0)
(30.1777 -70.6124 0)
(36.6428 -61.5063 0)
(37.6457 -38.7254 0)
(39.299 -22.2976 0)
(40.5093 4.98709 0)
(43.7367 19.6326 0)
(40.3614 44.1506 0)
(36.0794 56.9462 0)
(26.7749 50.4069 0)
(17.4278 58.553 0)
(12.0096 40.071 0)
(-0.828791 43.4471 0)
(17.8674 -34.6455 0)
(58.0854 -75.3023 0)
(101.678 -108.471 0)
(143.492 -124.814 0)
(182.092 -129.307 0)
(216.367 -124.603 0)
(246.142 -117.536 0)
(269.089 -109.581 0)
(296.549 -91.3761 0)
(312.336 -79.5342 0)
(326.214 -52.2723 0)
(340.536 -22.5211 0)
(319.296 -17.9177 0)
(310.75 24.8845 0)
(259.449 3.22433 0)
(172.767 25.1828 0)
(122.981 17.4276 0)
(70.6106 24.5544 0)
(37.4232 38.9886 0)
(23.3931 41.5971 0)
(13.6202 51.6363 0)
(12.246 55.0378 0)
(10.8027 51.3104 0)
(9.96781 55.2112 0)
(7.19729 51.5848 0)
(8.79616 52.8246 0)
(8.33947 52.0127 0)
(8.15479 60.185 0)
(9.96843 64.346 0)
(2.89857 71.8369 0)
(40.0509 -130.202 0)
(112.6 -167.913 0)
(168.943 -153.954 0)
(203.245 -128.521 0)
(217.696 -93.4424 0)
(216.393 -49.7821 0)
(193.71 -3.14346 0)
(164.417 36.7919 0)
(144.119 68.4883 0)
(129.238 93.5559 0)
(122.665 107.961 0)
(123.922 111.621 0)
(120.458 112.39 0)
(116.103 105.132 0)
(94.8662 93.4844 0)
(81.2785 85.6741 0)
(43.5299 57.2019 0)
(29.8702 53.9262 0)
(41.3836 13.1922 0)
(38.2593 24.4499 0)
(58.6334 -1.78616 0)
(73.2226 18.4924 0)
(90.1355 11.3566 0)
(99.1258 31.4659 0)
(105.112 31.7361 0)
(93.2878 43.9612 0)
(78.5151 41.9426 0)
(60.8524 43.976 0)
(39.9432 44.5924 0)
(16.658 46.8104 0)
(31.4199 -96.9569 0)
(97.6551 -154.04 0)
(163.328 -165.115 0)
(219.303 -160.219 0)
(267.931 -142.154 0)
(303.419 -133.504 0)
(338.062 -109.845 0)
(379.357 -108.734 0)
(397.898 -92.0409 0)
(420.176 -88.0677 0)
(434.384 -74.6895 0)
(438.573 -67.4658 0)
(435.886 -52.6121 0)
(445.752 -38.6416 0)
(430.872 -19.3438 0)
(440.938 -9.25293 0)
(440.938 3.41711 0)
(438.705 11.5298 0)
(433.917 21.1893 0)
(418.273 30.0565 0)
(385.631 43.3651 0)
(335.672 56.2936 0)
(269.532 64.0834 0)
(193 53.2485 0)
(112.708 18.8541 0)
(54.1052 -29.1293 0)
(16.7279 -58.8802 0)
(-0.157607 -69.7057 0)
(-7.4069 -95.3595 0)
(-9.04536 -109.516 0)
(10.9348 -89.0992 0)
(35.1889 -126.581 0)
(54.7967 -139.611 0)
(85.7215 -145.169 0)
(137.807 -142.446 0)
(201.714 -131.316 0)
(265.266 -101.964 0)
(317.942 -60.5078 0)
(357.144 -16.5338 0)
(380.344 19.0059 0)
(393.762 45.0209 0)
(401.973 62.406 0)
(398.247 62.664 0)
(390.681 59.7305 0)
(387.785 57.6188 0)
(376.197 48.4251 0)
(353.917 38.0701 0)
(333.896 41.0311 0)
(305.55 38.3051 0)
(277.941 44.9885 0)
(265.808 64.6218 0)
(243.15 83.6802 0)
(230.153 116.289 0)
(208.549 143.025 0)
(175.905 156.454 0)
(137.61 142.878 0)
(90.427 97.7444 0)
(51.1462 54.465 0)
(26.9933 29.047 0)
(8.25788 18.9048 0)
(-10.0674 75.1559 0)
(-33.6171 88.6721 0)
(-65.7201 101.555 0)
(-100.108 106.029 0)
(-127.327 87.4001 0)
(-141.097 51.7563 0)
(-143.249 9.14568 0)
(-132.348 -31.4163 0)
(-121.052 -63.9748 0)
(-99.5083 -97.8923 0)
(-88.2964 -129.381 0)
(-58.7332 -152.193 0)
(-30.9335 -187.091 0)
(-1.02682 -188.976 0)
(41.8925 -204.51 0)
(92.6544 -197.897 0)
(150.227 -186.159 0)
(213.643 -157.09 0)
(278.547 -119.529 0)
(339.191 -71.9468 0)
(386.975 -23.8305 0)
(428.821 22.4958 0)
(433.732 53.778 0)
(397.273 103.69 0)
(374.975 159.15 0)
(307.439 209.84 0)
(250.877 232.051 0)
(171.889 204.361 0)
(90.6838 138.869 0)
(29.2787 48.2684 0)
(-13.5631 -47.6337 0)
(-65.6163 -5.97128 0)
(-115.831 33.8415 0)
(-152.747 62.3124 0)
(-173.673 74.6137 0)
(-175.808 72.039 0)
(-163.36 68.3878 0)
(-142.857 49.152 0)
(-107.538 42.9469 0)
(-67.8937 21.1985 0)
(-29.1991 9.10163 0)
(9.6811 1.82858 0)
(41.0453 0.847286 0)
(52.5279 -21.1701 0)
(62.64 0.670716 0)
(51.365 -30.3393 0)
(43.8794 1.50676 0)
(42.4705 -26.4831 0)
(35.7645 2.62076 0)
(50.61 -13.1014 0)
(47.7597 11.6786 0)
(60.8938 22.398 0)
(50.6511 50.723 0)
(45.6832 69.8045 0)
(22.6031 115.318 0)
(11.9373 137.059 0)
(8.66502 161.095 0)
(1.1362 149.465 0)
(-1.00402 133.906 0)
(-1.90572 129.627 0)
(3.33263 -49.0225 0)
(8.23993 -60.671 0)
(10.8906 -68.0712 0)
(9.65096 -67.1756 0)
(-5.23303 -52.8087 0)
(-30.5504 -39.1726 0)
(-121.282 -32.2655 0)
(-191.799 36.57 0)
(-307.04 56.7149 0)
(-406.632 119.505 0)
(-485.056 117.166 0)
(-559.513 148.727 0)
(-606.381 113.004 0)
(-602.944 95.2696 0)
(-583.359 37.5582 0)
(-527.963 -6.11183 0)
(-448.965 -54.8286 0)
(-362.898 -90.7231 0)
(-277.777 -120.154 0)
(-200.937 -140.376 0)
(-126.462 -145.994 0)
(-61.9791 -134.104 0)
(-12.419 -108.571 0)
(26.4353 -68.4105 0)
(45.3187 -31.6418 0)
(51.0629 29.4501 0)
(57.3496 73.6857 0)
(49.4478 146.804 0)
(34.6655 167.35 0)
(20.0599 157.23 0)
(-14.1171 -172.197 0)
(-44.8273 -142.003 0)
(-69.7026 -102.315 0)
(-130.48 -34.578 0)
(-178.775 2.29054 0)
(-218.174 25.9486 0)
(-275.891 82.8118 0)
(-324.339 112.139 0)
(-354.691 120.514 0)
(-381.19 117.695 0)
(-396.616 107.904 0)
(-408.912 91.5117 0)
(-390.972 70.8131 0)
(-376.619 36.4026 0)
(-347.055 14.118 0)
(-298.252 -25.087 0)
(-235.399 -64.0758 0)
(-166.917 -104.87 0)
(-107.67 -148.217 0)
(-53.5792 -169.796 0)
(7.1611 -180.278 0)
(37.9176 -161.849 0)
(66.8816 -128.515 0)
(86.0148 -84.581 0)
(85.5105 -29.2855 0)
(80.8604 -4.95127 0)
(59.8589 35.0906 0)
(45.0577 38.6819 0)
(21.2803 55.5212 0)
(7.61636 58.0563 0)
(-29.2492 25.4274 0)
(-77.618 25.1271 0)
(-130.37 14.8319 0)
(-174.072 23.2058 0)
(-208.844 24.748 0)
(-234.874 26.9324 0)
(-254.649 33.0383 0)
(-271.857 46.5449 0)
(-287.085 66.9562 0)
(-307.651 100.712 0)
(-339.214 157.178 0)
(-396.378 236.929 0)
(-463.24 266.005 0)
(-614.592 242.285 0)
(-629.872 165.704 0)
(-692.061 107.878 0)
(-698.66 10.0492 0)
(-703.531 -56.996 0)
(-675.842 -141.706 0)
(-626.52 -202.194 0)
(-562.765 -269.53 0)
(-469.932 -325.69 0)
(-361.448 -361.253 0)
(-245.303 -367.569 0)
(-120.337 -318.905 0)
(-6.29113 -185.031 0)
(78.3612 -8.59176 0)
(118.652 167.675 0)
(89.7485 295.256 0)
(39.2042 315.714 0)
(-9.69777 -4.63879 0)
(-35.5487 1.60284 0)
(-65.7946 3.63825 0)
(-92.7349 19.2672 0)
(-112.144 29.4236 0)
(-131.13 41.1961 0)
(-130.758 39.9334 0)
(-176.536 9.53318 0)
(-180.876 43.8687 0)
(-273.091 -13.5596 0)
(-332.414 45.7366 0)
(-363.329 38.088 0)
(-394.598 53.9679 0)
(-391.222 65.7323 0)
(-396.398 91.3849 0)
(-412.529 128.988 0)
(-454.405 168.076 0)
(-551.06 202.873 0)
(-638.598 200.423 0)
(-681.921 91.3708 0)
(-646.112 -89.5227 0)
(-521.286 -251.173 0)
(-376.162 -406.216 0)
(-222.904 -511.28 0)
(-69.5783 -570.155 0)
(109.09 -507.519 0)
(289.088 -267.011 0)
(382.257 96.6142 0)
(302.096 438.005 0)
(123.987 487.078 0)
(-14.3661 160.826 0)
(-42.3382 181.422 0)
(-76.7436 185.733 0)
(-117.002 185.577 0)
(-163.697 184.439 0)
(-222.303 193.135 0)
(-315.286 192.882 0)
(-413.032 228.014 0)
(-534.425 207.433 0)
(-603.264 193.639 0)
(-664.821 158.69 0)
(-671.609 117.912 0)
(-665.286 50.4637 0)
(-637.68 -20.1403 0)
(-654.346 -98.7535 0)
(-617.782 -156.983 0)
(-559.947 -196.042 0)
(-506.442 -213.241 0)
(-429.415 -210.745 0)
(-347.137 -194.626 0)
(-265.63 -163.062 0)
(-188.43 -121.321 0)
(-123.734 -81.1885 0)
(-76.9883 -36.4925 0)
(-42.92 -17.3903 0)
(-20.9433 3.29936 0)
(-12.3366 11.9308 0)
(-5.72395 12.0709 0)
(-0.518832 32.5332 0)
(1.19222 32.3992 0)
(-15.1858 109.249 0)
(-45.5825 134.231 0)
(-60.9584 145.306 0)
(-87.3126 148.74 0)
(-101.38 128.344 0)
(-120.374 129.331 0)
(-147.914 96.4424 0)
(-205.605 84.2972 0)
(-269.41 62.9498 0)
(-362.069 41.867 0)
(-380.592 52.355 0)
(-407.142 26.5227 0)
(-390.355 21.9811 0)
(-365.527 -5.83156 0)
(-318.253 -15.0266 0)
(-263.712 -24.8741 0)
(-215.341 -34.6565 0)
(-175.761 -35.1163 0)
(-144.064 -26.0019 0)
(-115.156 -18.4147 0)
(-64.9494 -14.903 0)
(-7.83582 -8.42468 0)
(39.6002 -23.8297 0)
(84.4365 -13.8273 0)
(132.355 -31.6873 0)
(156.175 -30.7919 0)
(151.42 -57.4574 0)
(144.237 -49.1246 0)
(95.0407 -54.8625 0)
(27.6941 -43.2895 0)
(9.18305 -88.652 0)
(22.1536 -101.777 0)
(31.2201 -91.199 0)
(35.8673 -82.6629 0)
(36.8184 -51.7746 0)
(35.8368 -34.0371 0)
(36.511 2.86013 0)
(37.389 19.8359 0)
(41.1389 54.2499 0)
(34.9526 68.9062 0)
(29.6364 73.3122 0)
(21.3657 78.6967 0)
(12.4766 59.218 0)
(6.47479 60.1254 0)
(21.625 -76.5568 0)
(66.3207 -118.406 0)
(111.721 -145.605 0)
(142.133 -156.686 0)
(164.997 -156.903 0)
(185.756 -152.115 0)
(199.081 -144.043 0)
(216.55 -134.665 0)
(236.716 -118.831 0)
(241.087 -100.425 0)
(260.721 -71.5169 0)
(258.222 -47.8559 0)
(252.715 -21.3734 0)
(245.281 8.89205 0)
(180.862 11.4944 0)
(142.426 18.8038 0)
(90.3014 31.5623 0)
(56.6208 37.4768 0)
(34.6826 49.0055 0)
(21.1196 58.4978 0)
(22.0327 58.3127 0)
(18.1717 66.4122 0)
(18.2166 64.2588 0)
(17.296 71.7105 0)
(11.4745 69.1377 0)
(8.13556 70.7793 0)
(5.60457 71.3071 0)
(7.45943 76.3365 0)
(3.36737 83.2967 0)
(1.38143 85.8843 0)
(41.2456 -212.836 0)
(112.071 -226.756 0)
(166.574 -199.186 0)
(201.061 -152.855 0)
(214.777 -97.7577 0)
(198.503 -46.0891 0)
(172.331 4.88945 0)
(143.372 49.735 0)
(115.389 87.6903 0)
(101.277 113.964 0)
(98.2014 136.699 0)
(98.9028 144.959 0)
(100.587 148.565 0)
(94.0401 140.426 0)
(79.9093 127.008 0)
(63.7269 112.877 0)
(37.2951 73.3137 0)
(33.0443 68.0755 0)
(45.2511 14.7442 0)
(54.3779 21.7576 0)
(82.5267 -4.31826 0)
(94.4426 22.1004 0)
(113.054 17.2265 0)
(113.935 44.7623 0)
(99.2049 53.8897 0)
(84.8689 67.455 0)
(62.7451 63.9526 0)
(44.1466 67.8752 0)
(23.4995 66.1134 0)
(6.29268 68.4098 0)
(35.1862 -156.389 0)
(100.361 -211.066 0)
(155.541 -211.869 0)
(198.093 -195.686 0)
(234.212 -174.812 0)
(262.501 -160.416 0)
(288.058 -138.146 0)
(320.038 -137.015 0)
(340.057 -119.992 0)
(362.086 -108.58 0)
(378.499 -96.4345 0)
(385.974 -82.0615 0)
(389.012 -69.0056 0)
(388.743 -50.5568 0)
(397.651 -28.6629 0)
(379.298 -26.4801 0)
(372.212 -7.14307 0)
(360.413 -3.54155 0)
(355.433 11.6492 0)
(338.195 21.6637 0)
(305.837 38.5235 0)
(274.874 66.0539 0)
(235.951 91.8216 0)
(198.338 94.5091 0)
(152.131 63.214 0)
(103.26 13.8015 0)
(60.9005 -34.9868 0)
(24.046 -67.0499 0)
(7.08572 -103.213 0)
(1.99617 -126.031 0)
(3.66501 -116.055 0)
(13.1131 -148.57 0)
(28.6047 -171.225 0)
(70.759 -205.859 0)
(138.254 -218.508 0)
(212.973 -211.833 0)
(280.203 -163.948 0)
(326.726 -97.1831 0)
(351.99 -29.6746 0)
(361.32 27.087 0)
(360.183 66.7764 0)
(343.424 79.0394 0)
(329.9 79.8171 0)
(328.116 80.3221 0)
(316.758 67.1758 0)
(303.284 56.6946 0)
(297.367 50.0574 0)
(270.628 39.6824 0)
(251.955 45.4132 0)
(239.548 51.6376 0)
(221.119 69.7471 0)
(214.719 100.129 0)
(202.246 136.028 0)
(187.099 171.132 0)
(163.91 196.557 0)
(132.332 191.19 0)
(96.8918 144.368 0)
(63.9357 89.8856 0)
(37.4175 59.0035 0)
(13.0044 39.3698 0)
(-13.5814 113.999 0)
(-43.4841 135.653 0)
(-82.3684 149.303 0)
(-115.98 146.146 0)
(-140.465 110.208 0)
(-148.016 62.0731 0)
(-151.408 2.98131 0)
(-138.481 -44.9685 0)
(-134.761 -86.2231 0)
(-124.694 -126.072 0)
(-114.682 -166.57 0)
(-107.31 -185.198 0)
(-83.5176 -217.725 0)
(-60.7839 -228.005 0)
(-27.0283 -241.64 0)
(17.3258 -247.076 0)
(66.5451 -238.802 0)
(119.286 -213.95 0)
(175.492 -169.466 0)
(225.8 -122.675 0)
(270.048 -58.8465 0)
(303.956 -1.83114 0)
(301.743 52.4069 0)
(296.527 127.447 0)
(290.685 175.298 0)
(251.647 251.109 0)
(211.007 282.813 0)
(159.717 276.272 0)
(87.2942 208.382 0)
(26.4903 115.362 0)
(-14.3283 -22.42 0)
(-42.047 14.2308 0)
(-105.465 65.5088 0)
(-148.489 88.9029 0)
(-174.31 95.4736 0)
(-180.458 96.8439 0)
(-165.977 84.1051 0)
(-138.364 65.3701 0)
(-106.92 54.7939 0)
(-74.8566 33.5023 0)
(-42.9919 17.2618 0)
(-13.1139 12.7907 0)
(9.80611 3.36146 0)
(16.7349 -10.0147 0)
(22.3337 6.84506 0)
(0.336359 -26.4439 0)
(-14.9575 2.67351 0)
(-23.3035 -24.8501 0)
(-32.8288 2.84905 0)
(-23.3739 -11.6892 0)
(-23.0225 14.1443 0)
(-2.43056 26.1019 0)
(-1.26972 59.6462 0)
(-2.88436 91.1804 0)
(3.97719 129.268 0)
(1.29366 170.165 0)
(-3.34189 195.294 0)
(-5.88457 190.397 0)
(-6.12153 172.891 0)
(-3.83731 170.931 0)
(0.5038 -51.1339 0)
(2.66764 -63.0529 0)
(-0.789475 -70.4738 0)
(-2.05122 -57.8659 0)
(-27.3598 -45.1011 0)
(-51.1384 -10.4733 0)
(-125.205 2.27018 0)
(-213.878 70.4579 0)
(-303.945 97.0759 0)
(-396.281 161.222 0)
(-459.434 162.773 0)
(-521.88 156.577 0)
(-561.078 146.59 0)
(-573.269 102.328 0)
(-542.484 33.2443 0)
(-484.61 -34.3865 0)
(-411.231 -92.7231 0)
(-332.535 -135.181 0)
(-258.63 -162.219 0)
(-195.276 -178.8 0)
(-141.829 -185.288 0)
(-102.902 -169.552 0)
(-79.6791 -137.744 0)
(-66.5514 -96.0921 0)
(-54.3385 -51.8999 0)
(-48.8165 6.48364 0)
(-60.3889 62.5959 0)
(-58.1015 153.122 0)
(-34.7901 175.355 0)
(-10.3093 165.516 0)
(-23.9883 -158.176 0)
(-55.2465 -124.847 0)
(-110.453 -78.8844 0)
(-149.552 -32.8316 0)
(-202.012 10.4313 0)
(-227.47 58.5285 0)
(-264.866 105.314 0)
(-289.646 139.669 0)
(-317.032 150.62 0)
(-336.744 147.561 0)
(-349.914 135.083 0)
(-348.585 111.837 0)
(-346.607 81.1544 0)
(-322.016 41.0003 0)
(-293.302 -0.130573 0)
(-252.707 -45.5555 0)
(-207.818 -102.131 0)
(-169.826 -159.182 0)
(-126.057 -210.877 0)
(-76.7499 -234.664 0)
(-50.7888 -269.868 0)
(-14.4329 -230.876 0)
(25.4713 -193.961 0)
(50.6404 -127.149 0)
(68.2184 -64.5054 0)
(74.167 -17.5321 0)
(69.052 34.53 0)
(50.061 57.544 0)
(26.75 77.6924 0)
(6.81017 81.4523 0)
(-29.2126 48.644 0)
(-88.7214 38.1795 0)
(-139.644 29.8321 0)
(-184.33 33.0091 0)
(-217.747 32.46 0)
(-238.843 39.7129 0)
(-254.442 54.3139 0)
(-265.833 71.1058 0)
(-277.676 96.8197 0)
(-290.243 134.156 0)
(-304.956 203.172 0)
(-333.192 292.093 0)
(-369.725 327.871 0)
(-496.969 291.456 0)
(-498.076 214.145 0)
(-543.379 120.841 0)
(-553.864 15.0761 0)
(-582.836 -65.4144 0)
(-590.515 -155.908 0)
(-556.078 -233.587 0)
(-510.468 -318.246 0)
(-462.16 -389.606 0)
(-410.139 -441.794 0)
(-351.328 -460.585 0)
(-279.831 -412.098 0)
(-207.652 -245.486 0)
(-122.514 -25.6447 0)
(-42.9687 189.544 0)
(-17.034 344.822 0)
(3.67512 372.528 0)
(-16.5212 -3.32748 0)
(-57.8708 0.350927 0)