/*--------------------------------*- C++ -*----------------------------------*\
| =========                 |                                                 |
| \\      /  F ield         | OpenFOAM: The Open Source CFD Toolbox           |
|  \\    /   O peration     | Version:  2.1.1                                 |
|   \\  /    A nd           | Web:      www.OpenFOAM.org                      |
|    \\/     M anipulation  |                                                 |
\*---------------------------------------------------------------------------*/
FoamFile
{
    version     2.0;
    format      ascii;
    class       volScalarField;
    location    "0.000650000";
    object      H2;
}
// * * * * * * * * * * * * * * * * * * * * * * * * * * * * * * * * * * * * * //

dimensions      [0 0 0 0 0 0 0];

internalField   nonuniform List<scalar> 
12384
(
0.0283458
0.0286477
0.0287901
0.0288818
0.0289803
0.0287689
0.0288841
0.0291115
0.0290894
0.029068
0.0291039
0.0291034
0.0291061
0.0291121
0.0290736
0.0290709
0.0290718
0.0290749
0.0290837
0.0290705
0.0290923
0.0290639
0.0290926
0.0290646
0.0290879
0.0290701
0.0290833
0.0290749
0.0290784
0.029078
0.0290767
0.0290781
0.0290769
0.0290774
0.0290763
0.0290779
0.0290761
0.0290763
0.0290762
0.0290788
0.0290756
0.0290783
0.0290769
0.0290802
0.0290796
0.0290762
0.0290759
0.0290756
0.0290756
0.0290746
0.0290749
0.029074
0.0290741
0.0290735
0.0290733
0.029073
0.0290726
0.0290723
0.0290718
0.0290718
0.0290718
0.029072
0.0290722
0.0290723
0.0290726
0.0290728
0.0290731
0.0290735
0.0290737
0.029074
0.0290741
0.0290744
0.0290747
0.0290794
0.0290794
0.0290747
0.0290744
0.0290741
0.029074
0.0290737
0.0290735
0.0290731
0.0290729
0.0290725
0.0290724
0.0290722
0.029072
0.0290717
0.0290715
0.0290715
0.0290718
0.029072
0.0290722
0.0290723
0.0290726
0.0290728
0.0290731
0.0290735
0.0290738
0.029074
0.0290741
0.0290744
0.0290747
0.0290794
0.0290794
0.0290748
0.0290744
0.0290741
0.029074
0.0290738
0.0290735
0.0290731
0.0290729
0.0290725
0.0290724
0.0290722
0.029072
0.0290716
0.0290715
0.0290715
0.0290717
0.029072
0.0290722
0.0290724
0.0290725
0.0290729
0.0290731
0.0290735
0.0290737
0.029074
0.0290741
0.0290744
0.0290748
0.0290794
0.0290794
0.0290748
0.0290744
0.0290742
0.029074
0.0290737
0.0290735
0.0290731
0.0290728
0.0290725
0.0290723
0.0290722
0.029072
0.0290716
0.0290715
0.0290715
0.0290718
0.029072
0.0290722
0.0290723
0.0290726
0.0290728
0.0290731
0.0290735
0.0290737
0.029074
0.0290741
0.0290744
0.0290747
0.0290794
0.0290794
0.0290748
0.0290744
0.0290741
0.029074
0.0290737
0.0290735
0.0290731
0.0290729
0.0290725
0.0290724
0.0290722
0.029072
0.0290718
0.0290716
0.0290715
0.0290717
0.0290719
0.0290721
0.0290723
0.0290726
0.0290729
0.0290732
0.0290735
0.0290738
0.029074
0.0290742
0.0290744
0.0290747
0.0290794
0.0290794
0.0290748
0.0290744
0.0290742
0.029074
0.0290737
0.0290735
0.0290731
0.0290729
0.0290726
0.0290724
0.0290722
0.029072
0.0290717
0.0290715
0.0290714
0.0290718
0.029072
0.0290722
0.0290723
0.0290726
0.0290728
0.0290731
0.0290735
0.0290737
0.029074
0.0290741
0.0290744
0.0290747
0.0290794
0.0290794
0.0290747
0.0290745
0.0290741
0.029074
0.0290737
0.0290735
0.0290731
0.0290729
0.0290726
0.0290724
0.0290722
0.029072
0.0290717
0.0290715
0.0290715
0.0290718
0.029072
0.0290722
0.0290723
0.0290726
0.0290728
0.0290731
0.0290735
0.0290737
0.029074
0.0290741
0.0290744
0.0290747
0.0290794
0.0290794
0.0290747
0.0290744
0.0290742
0.029074
0.0290737
0.0290734
0.0290731
0.0290728
0.0290726
0.0290723
0.0290722
0.029072
0.0290718
0.0290715
0.0290715
0.0290716
0.0290719
0.0290722
0.0290724
0.0290726
0.0290728
0.0290731
0.0290735
0.0290737
0.029074
0.0290742
0.0290745
0.0290748
0.0290794
0.0290794
0.0290747
0.0290744
0.0290741
0.029074
0.0290737
0.0290735
0.0290731
0.0290729
0.0290726
0.0290724
0.0290722
0.029072
0.0290717
0.0290715
0.0290714
0.0290717
0.029072
0.0290722
0.0290723
0.0290726
0.0290728
0.0290731
0.0290735
0.0290738
0.029074
0.0290741
0.0290744
0.0290747
0.0290794
0.0290794
0.0290748
0.0290744
0.0290741
0.029074
0.0290738
0.0290735
0.0290731
0.0290729
0.0290725
0.0290724
0.0290722
0.029072
0.0290717
0.0290715
0.0290715
0.0290717
0.029072
0.0290722
0.0290724
0.0290726
0.0290729
0.0290731
0.0290735
0.0290737
0.029074
0.0290741
0.0290744
0.0290748
0.0290794
0.0290794
0.0290747
0.0290745
0.0290741
0.029074
0.0290737
0.0290735
0.0290732
0.029073
0.0290726
0.0290725
0.0290722
0.029072
0.0290718
0.0290715
0.0290714
0.0290718
0.0290721
0.0290723
0.0290723
0.0290726
0.0290729
0.0290732
0.0290735
0.0290738
0.029074
0.0290741
0.0290744
0.0290747
0.0290794
0.0184406
0.0207887
0.02054
0.0205243
0.0206401
0.0191384
0.020634
0.022352
0.0243081
0.0254737
0.0259244
0.0270767
0.0273313
0.0270828
0.0221813
0.0220374
0.0226095
0.022958
0.0233981
0.0240137
0.0244257
0.0252125
0.0255973
0.0261237
0.0266104
0.0268952
0.0272139
0.0275911
0.0276319
0.0278982
0.0279852
0.0278819
0.0281627
0.0279886
0.0281896
0.0282015
0.0281635
0.0283512
0.0283159
0.0283013
0.0284703
0.0282662
0.0284224
0.028666
0.0285275
0.0281946
0.0282037
0.0282094
0.02824
0.028255
0.0282571
0.0282664
0.0282585
0.0282549
0.0282441
0.0282369
0.0282231
0.0282052
0.0281908
0.02819
0.0281969
0.0282133
0.0282177
0.0282319
0.0282377
0.0282624
0.0282761
0.0283031
0.028322
0.0283455
0.0283608
0.0283797
0.0284051
0.0288389
0.0288379
0.028405
0.0283823
0.0283615
0.0283449
0.028328
0.0283003
0.0282824
0.0282572
0.0282431
0.0282252
0.0282217
0.0282019
0.0281889
0.0281711
0.0281778
0.0281899
0.0282106
0.0282158
0.0282304
0.0282361
0.0282608
0.0282748
0.0283023
0.0283221
0.0283454
0.0283616
0.0283802
0.0284058
0.0288383
0.0288381
0.028405
0.0283834
0.0283606
0.0283458
0.0283295
0.0283021
0.028283
0.0282574
0.0282426
0.0282244
0.0282206
0.0282008
0.0281856
0.0281768
0.0281724
0.0281935
0.0282033
0.0282212
0.0282237
0.0282423
0.0282562
0.028282
0.0283005
0.0283283
0.0283445
0.0283596
0.0283827
0.0284049
0.028838
0.0288381
0.0284073
0.0283834
0.0283602
0.0283454
0.0283214
0.0283037
0.0282778
0.0282639
0.028239
0.0282296
0.028217
0.0282053
0.0281876
0.0281712
0.0281779
0.0281911
0.0282112
0.028216
0.0282305
0.0282364
0.0282613
0.0282754
0.0283027
0.0283223
0.0283459
0.0283617
0.0283802
0.0284054
0.0288387
0.028838
0.0284049
0.0283825
0.0283595
0.0283443
0.0283278
0.0282998
0.0282815
0.0282557
0.0282419
0.0282231
0.0282206
0.0282037
0.0281969
0.0281772
0.0281758
0.0281807
0.0282009
0.0282112
0.0282278
0.0282424
0.0282687
0.0282822
0.0283067
0.0283246
0.0283478
0.0283631
0.0283833
0.028408
0.0288378
0.028838
0.0284054
0.0283812
0.0283619
0.028341
0.0283249
0.0282962
0.0282796
0.028255
0.0282444
0.0282268
0.0282237
0.0282051
0.0281936
0.028172
0.0281754
0.0281876
0.0282104
0.0282164
0.0282312
0.0282368
0.0282614
0.0282751
0.0283025
0.0283218
0.0283455
0.028361
0.0283797
0.0284052
0.0288387
0.0288387
0.0284094
0.0283809
0.0283625
0.0283394
0.0283238
0.0282959
0.0282807
0.0282565
0.0282458
0.0282278
0.0282241
0.0282049
0.0281925
0.0281716
0.0281763
0.0281884
0.0282103
0.028216
0.0282308
0.0282364
0.028261
0.028275
0.0283025
0.0283219
0.0283454
0.0283612
0.0283799
0.0284055
0.0288385
0.0288384
0.0284057
0.0283797
0.0283602
0.0283436
0.0283191
0.0283008
0.0282739
0.0282617
0.0282383
0.0282332
0.0282173
0.0282119
0.0281927
0.0281812
0.0281714
0.0281839
0.0281976
0.0282209
0.0282314
0.0282455
0.0282628
0.0282794
0.0283057
0.028324
0.0283478
0.028362
0.0283852
0.0284068
0.0288384
0.0288379
0.0284055
0.0283782
0.0283602
0.0283383
0.0283236
0.028296
0.0282807
0.0282562
0.028246
0.0282284
0.028225
0.0282062
0.0281948
0.0281727
0.0281751
0.0281865
0.0282092
0.0282155
0.0282302
0.0282364
0.0282614
0.0282758
0.028303
0.0283228
0.0283462
0.0283624
0.0283808
0.0284057
0.0288387
0.0288381
0.0284051
0.0283823
0.0283612
0.0283449
0.0283269
0.0282982
0.0282801
0.0282546
0.0282423
0.0282242
0.0282217
0.0282035
0.028194
0.0281724
0.0281722
0.0281909
0.0282037
0.028223
0.0282256
0.0282434
0.0282553
0.0282806
0.0282982
0.0283265
0.0283434
0.0283599
0.0283813
0.0284043
0.0288379
0.028838
0.028405
0.0283772
0.0283601
0.0283367
0.0283227
0.0282942
0.0282802
0.028255
0.0282462
0.0282274
0.0282246
0.0282062
0.0281993
0.0281768
0.0281736
0.0281864
0.0282117
0.028218
0.0282294
0.0282359
0.0282599
0.0282741
0.0283017
0.0283211
0.0283451
0.0283619
0.0283799
0.0284059
0.0288384
0.00713919
0.00829208
0.00831891
0.00877747
0.0088752
0.0088574
0.00859864
0.00847354
0.00885499
0.00921591
0.00917802
0.00958116
0.0101553
0.010935
0.00778405
0.00785446
0.00792135
0.00787247
0.00792007
0.00784504
0.00791423
0.00787789
0.00789506
0.00793194
0.00790463
0.00793518
0.00794007
0.0079448
0.00796217
0.00800914
0.00802395
0.00803176
0.00808051
0.00804158
0.00810931
0.00808183
0.00807171
0.0081237
0.00805648
0.00814408
0.00821939
0.00815681
0.00828792
0.00800864
0.00771681
0.00802775
0.00804313
0.00806927
0.00807314
0.00809965
0.00811675
0.00813723
0.00815573
0.00816998
0.00818865
0.00819257
0.00821487
0.0082228
0.00823918
0.00823937
0.00823446
0.0082245
0.00821946
0.00821335
0.0082084
0.00819443
0.00818311
0.00816719
0.00815218
0.00813849
0.00812935
0.00811598
0.00809694
0.0077372
0.00773747
0.0080969
0.00811491
0.00812823
0.0081381
0.00815027
0.00816729
0.00818105
0.0081956
0.00820724
0.00821581
0.0082196
0.00823088
0.00824312
0.00825388
0.00825098
0.00823932
0.008227
0.00822069
0.00821462
0.0082094
0.00819555
0.00818417
0.0081678
0.00815224
0.00813789
0.00812883
0.00811549
0.0080967
0.00773722
0.0077375
0.00809695
0.00811448
0.00812831
0.00813856
0.00814865
0.00816636
0.00818079
0.00819582
0.00820758
0.00821645
0.00822036
0.00823168
0.00824522
0.00824985
0.00825278
0.0082394
0.00822942
0.00821999
0.00821682
0.00820787
0.00819638
0.00818152
0.00816729
0.00814966
0.00813936
0.00812916
0.00811495
0.00809719
0.0077375
0.00773724
0.00809414
0.00811464
0.00812889
0.00813909
0.0081526
0.00816682
0.00818192
0.00819344
0.00820786
0.00821506
0.00822032
0.00822992
0.0082438
0.00825406
0.00825086
0.00823837
0.00822657
0.00822057
0.0082146
0.00820927
0.00819516
0.00818371
0.00816754
0.00815213
0.0081379
0.00812878
0.00811541
0.00809683
0.00773721
0.00773749
0.00809722
0.00811504
0.00812937
0.00813923
0.00815007
0.00816763
0.00818183
0.0081967
0.00820816
0.0082173
0.00822038
0.00822891
0.00823655
0.00824829
0.00825201
0.00824651
0.00823409
0.00822544
0.00821683
0.00820668
0.00818996
0.00817888
0.00816458
0.00815051
0.00813728
0.008127
0.00811407
0.0080936
0.00773724
0.00773752
0.00809693
0.00811563
0.00812804
0.00814064
0.00815279
0.00816996
0.00818317
0.00819664
0.00820612
0.00821417
0.00821835
0.00822847
0.00823976
0.00825327
0.00825306
0.00824136
0.00822739
0.00822023
0.00821402
0.00820884
0.00819511
0.00818384
0.00816767
0.00815242
0.0081383
0.00812925
0.00811577
0.00809704
0.00773722
0.00773732
0.008094
0.00811501
0.00812906
0.00814139
0.00815335
0.00816962
0.00818223
0.00819532
0.00820517
0.00821358
0.0082182
0.00822882
0.00824066
0.00825355
0.00825229
0.00824065
0.00822733
0.00822057
0.00821433
0.0082091
0.00819536
0.00818399
0.00816767
0.00815231
0.00813815
0.0081291
0.00811566
0.0080969
0.00773722
0.00773727
0.0080962
0.00811628
0.00812887
0.00814014
0.00815412
0.00816883
0.00818425
0.00819482
0.00820738
0.00821276
0.0082199
0.00822622
0.00823717
0.00824817
0.00825337
0.00824658
0.00823529
0.00822026
0.00821263
0.00820388
0.00819353
0.0081814
0.00816553
0.00815102
0.00813758
0.0081276
0.00811344
0.0080948
0.00773732
0.00773724
0.00809689
0.00811664
0.00813053
0.00814181
0.00815334
0.00816941
0.00818235
0.00819559
0.00820494
0.00821305
0.00821753
0.0082278
0.00823887
0.00825268
0.00825324
0.00824217
0.00822817
0.00822099
0.00821475
0.00820932
0.00819512
0.00818355
0.00816732
0.00815177
0.00813752
0.00812824
0.008115
0.00809657
0.0077372
0.00773747
0.00809732
0.00811503
0.0081286
0.00813807
0.00815102
0.00816886
0.00818281
0.00819726
0.00820775
0.00821613
0.00821964
0.00822932
0.00823904
0.00825312
0.00825342
0.00824144
0.00822943
0.00821875
0.008215
0.00820688
0.00819659
0.0081824
0.00816861
0.00815128
0.00813895
0.00812928
0.00811556
0.00809765
0.0077375
0.00773732
0.00809717
0.00811702
0.00813049
0.00814268
0.00815413
0.00817031
0.00818283
0.00819608
0.00820513
0.00821349
0.00821803
0.00822741
0.00823537
0.00824954
0.00825471
0.00824255
0.00822588
0.00821863
0.0082153
0.0082093
0.00819619
0.0081846
0.00816823
0.00815307
0.00813779
0.0081287
0.0081158
0.0080968
0.00773723
1.28222e-05
5.86364e-06
0.0067306
0.00866847
0.009746
0.010895
0.010616
0.00965564
0.00899981
0.00878394
0.00868307
0.00855762
0.00853766
0.00857214
0.00955731
0.00963848
0.00945723
0.00938652
0.00924834
0.00917329
0.00905253
0.0089757
0.00888221
0.00883974
0.00873306
0.00873644
0.00865695
0.00864661
0.00862203
0.00858283
0.00858801
0.00857136
0.0085479
0.00856687
0.00854797
0.00854169
0.00855275
0.0085269
0.00853543
0.008535
0.00850939
0.00854991
0.00851036
0.00846431
0.0085204
0.00855639
0.0085597
0.00854908
0.0085506
0.00854102
0.00853932
0.00853595
0.00853213
0.00853342
0.00853013
0.00853241
0.00852956
0.00853341
0.00853084
0.00853387
0.00853272
0.0085343
0.00853328
0.0085343
0.00853319
0.00853431
0.00853343
0.00853449
0.00853383
0.00853464
0.00853437
0.00853383
0.00853226
0.00846678
0.00846718
0.00853239
0.00853447
0.00853409
0.00853396
0.00853457
0.00853363
0.00853434
0.00853336
0.00853422
0.00853327
0.0085342
0.00853331
0.00853405
0.00853337
0.00853399
0.00853333
0.00853418
0.00853325
0.00853423
0.00853315
0.0085343
0.00853341
0.0085345
0.00853386
0.00853453
0.0085345
0.00853388
0.00853215
0.00846685
0.00846711
0.00853214
0.00853455
0.00853392
0.00853447
0.00853442
0.00853368
0.0085344
0.00853337
0.00853423
0.00853325
0.00853419
0.00853332
0.00853393
0.00853374
0.0085334
0.00853408
0.00853328
0.00853421
0.00853319
0.00853422
0.00853331
0.0085344
0.00853364
0.0085345
0.00853443
0.00853392
0.00853457
0.0085321
0.00846711
0.00846707
0.00853226
0.00853438
0.00853391
0.0085346
0.00853374
0.00853439
0.00853345
0.00853425
0.00853333
0.00853415
0.00853355
0.0085337
0.00853403
0.00853336
0.00853397
0.00853333
0.00853417
0.00853324
0.00853421
0.00853315
0.00853429
0.00853342
0.00853449
0.00853386
0.00853458
0.00853446
0.00853383
0.00853222
0.00846681
0.00846711
0.00853209
0.00853458
0.00853395
0.00853437
0.00853453
0.00853361
0.00853438
0.00853328
0.00853421
0.00853315
0.00853421
0.00853327
0.00853413
0.00853334
0.00853397
0.00853334
0.00853408
0.00853335
0.00853414
0.00853354
0.00853425
0.00853362
0.00853434
0.00853377
0.00853457
0.00853394
0.00853408
0.00853249
0.00846676
0.00846719
0.00853238
0.00853451
0.00853424
0.00853395
0.00853459
0.00853351
0.00853434
0.00853324
0.00853424
0.00853325
0.00853424
0.0085333
0.0085341
0.00853337
0.00853398
0.00853333
0.00853417
0.00853326
0.00853424
0.00853317
0.0085343
0.00853341
0.0085345
0.00853386
0.0085346
0.00853444
0.00853384
0.00853222
0.00846683
0.00846672
0.0085327
0.00853391
0.00853456
0.00853384
0.00853456
0.00853351
0.00853437
0.0085333
0.00853425
0.00853327
0.00853424
0.0085333
0.0085341
0.00853337
0.00853398
0.00853333
0.00853418
0.00853326
0.00853423
0.00853316
0.0085343
0.00853341
0.0085345
0.00853386
0.00853458
0.00853447
0.00853386
0.00853217
0.00846685
0.00846672
0.00853247
0.00853399
0.00853395
0.00853469
0.00853373
0.00853444
0.00853334
0.00853428
0.00853318
0.00853425
0.00853326
0.0085342
0.00853334
0.00853402
0.00853336
0.00853399
0.00853332
0.00853417
0.00853355
0.00853385
0.00853413
0.00853359
0.00853434
0.00853373
0.00853453
0.0085338
0.00853441
0.00853245
0.00846714
0.00846687
0.00853228
0.00853385
0.00853458
0.00853388
0.00853462
0.00853355
0.00853439
0.00853329
0.00853427
0.00853326
0.00853425
0.00853331
0.00853412
0.00853337
0.00853397
0.00853333
0.00853416
0.00853326
0.00853422
0.00853319
0.00853429
0.00853345
0.00853449
0.00853389
0.00853456
0.00853449
0.00853383
0.00853224
0.0084668
0.00846714
0.00853209
0.00853462
0.00853413
0.00853405
0.00853459
0.00853357
0.00853436
0.00853327
0.00853423
0.00853321
0.00853422
0.00853328
0.00853411
0.00853342
0.0085335
0.00853405
0.0085333
0.00853422
0.00853325
0.00853426
0.0085333
0.00853438
0.00853358
0.0085346
0.00853399
0.00853412
0.00853458
0.00853217
0.00846717
0.00846684
0.00853242
0.00853385
0.00853456
0.00853371
0.00853457
0.0085334
0.00853433
0.00853316
0.00853427
0.00853316
0.00853427
0.00853327
0.00853419
0.00853336
0.00853393
0.00853347
0.00853424
0.00853349
0.00853436
0.00853346
0.00853454
0.00853368
0.00853476
0.00853413
0.00853469
0.00853466
0.00853397
0.00853219
0.00846682
0.00125677
0.00173934
0.000878453
1.34183e-05
0.00835514
0.0118557
0.0137663
0.0132857
0.0118963
0.0110794
0.0108015
0.0103748
0.0100551
0.00992731
0.0127669
0.0131066
0.012786
0.0124305
0.0122205
0.0119696
0.0118141
0.0116157
0.0115304
0.0113691
0.0113254
0.0112037
0.0111927
0.0110939
0.0111015
0.0110263
0.0110291
0.0110119
0.0109791
0.0110015
0.0109449
0.0109696
0.0109732
0.0109157
0.0109602
0.0109088
0.0108956
0.0108832
0.0108598
0.0108535
0.0109529
0.0109639
0.0109501
0.010951
0.0109384
0.0109365
0.0109302
0.0109244
0.0109218
0.0109153
0.0109154
0.0109105
0.0109126
0.0109079
0.0109117
0.0109076
0.0109105
0.0109082
0.0109102
0.0109081
0.0109101
0.0109081
0.01091
0.0109084
0.0109098
0.0109088
0.0109094
0.0109101
0.0109088
0.0109071
0.0109058
0.0109087
0.0109086
0.0109096
0.0109096
0.0109086
0.0109098
0.0109085
0.0109099
0.0109083
0.01091
0.0109083
0.01091
0.0109089
0.01091
0.0109089
0.0109101
0.0109085
0.01091
0.0109081
0.01091
0.0109081
0.01091
0.0109085
0.0109097
0.010909
0.0109093
0.0109102
0.0109089
0.0109071
0.0109057
0.0109088
0.0109084
0.0109096
0.0109089
0.0109087
0.0109096
0.0109086
0.0109099
0.0109082
0.01091
0.0109083
0.0109099
0.0109091
0.0109091
0.0109099
0.0109087
0.01091
0.0109082
0.01091
0.0109081
0.0109099
0.0109084
0.0109096
0.0109086
0.0109089
0.0109096
0.0109085
0.0109088
0.0109057
0.0109064
0.0109085
0.010909
0.0109099
0.0109086
0.0109098
0.0109084
0.01091
0.0109083
0.01091
0.0109086
0.0109097
0.0109093
0.0109092
0.0109099
0.0109088
0.01091
0.0109085
0.0109099
0.0109081
0.01091
0.0109081
0.01091
0.0109085
0.0109097
0.010909
0.0109092
0.0109101
0.0109088
0.0109071
0.0109057
0.0109088
0.0109085
0.0109096
0.010909
0.0109086
0.0109096
0.0109084
0.0109099
0.010908
0.01091
0.010908
0.01091
0.0109085
0.0109099
0.0109088
0.0109099
0.0109087
0.0109098
0.0109088
0.0109098
0.0109087
0.0109098
0.0109085
0.0109098
0.0109088
0.0109099
0.0109096
0.0109088
0.0109067
0.0109057
0.0109087
0.0109088
0.010909
0.0109095
0.0109084
0.0109099
0.0109082
0.01091
0.010908
0.0109101
0.0109082
0.0109101
0.0109088
0.0109101
0.0109089
0.0109101
0.0109085
0.01091
0.0109081
0.01091
0.0109081
0.01091
0.0109084
0.0109097
0.0109089
0.0109093
0.0109101
0.0109088
0.0109071
0.0109068
0.0109085
0.0109098
0.0109088
0.01091
0.0109083
0.0109099
0.0109082
0.01091
0.010908
0.0109101
0.0109083
0.0109101
0.0109088
0.0109101
0.0109089
0.0109101
0.0109085
0.01091
0.0109081
0.01091
0.0109081
0.01091
0.0109084
0.0109097
0.010909
0.0109093
0.0109102
0.0109088
0.0109071
0.0109072
0.0109092
0.0109101
0.01091
0.0109088
0.01091
0.0109083
0.0109101
0.010908
0.01091
0.0109081
0.01091
0.0109084
0.01091
0.0109087
0.0109099
0.010909
0.0109098
0.0109089
0.0109096
0.0109094
0.0109088
0.0109098
0.0109084
0.0109097
0.0109085
0.0109098
0.0109085
0.0109085
0.010906
0.0109072
0.0109089
0.0109103
0.0109088
0.0109101
0.0109083
0.01091
0.0109081
0.01091
0.0109079
0.0109101
0.0109082
0.0109101
0.0109088
0.0109101
0.0109089
0.0109101
0.0109086
0.01091
0.0109082
0.01091
0.0109082
0.01091
0.0109085
0.0109097
0.010909
0.0109092
0.0109101
0.0109088
0.0109071
0.0109057
0.0109088
0.0109087
0.0109097
0.0109091
0.0109087
0.0109099
0.0109084
0.01091
0.010908
0.0109101
0.0109082
0.0109101
0.0109088
0.0109101
0.0109099
0.010909
0.0109102
0.0109083
0.0109102
0.010908
0.01091
0.0109083
0.0109099
0.0109086
0.0109096
0.0109097
0.0109087
0.0109089
0.0109058
0.0109071
0.0109087
0.0109103
0.0109087
0.0109102
0.0109082
0.0109102
0.010908
0.0109102
0.0109078
0.0109103
0.0109081
0.0109104
0.0109088
0.0109103
0.0109092
0.0109104
0.010909
0.0109103
0.0109084
0.0109102
0.0109084
0.0109102
0.0109088
0.0109098
0.0109091
0.0109093
0.0109101
0.0109088
0.0109071
0.00189776
0.0019438
0.00181908
0.000908563
6.20659e-05
1.435e-05
0.0126602
0.0172545
0.0159845
0.0146379
0.0135977
0.0129366
0.012239
0.0118345
0.017765
0.0187611
0.017865
0.0171349
0.0163824
0.0159163
0.0154961
0.0151841
0.0148918
0.0146967
0.0144513
0.014344
0.0141815
0.0140788
0.0139912
0.0139268
0.0138463
0.0138269
0.0137354
0.0137453
0.0136946
0.013692
0.0136623
0.0136347
0.0136192
0.0135931
0.0135922
0.0135355
0.0135271
0.013443
0.0136949
0.0136952
0.0136866
0.0136456
0.0136381
0.0136092
0.0135999
0.0135859
0.013572
0.0135696
0.0135532
0.0135583
0.0135446
0.0135526
0.0135423
0.0135505
0.013545
0.0135492
0.013547
0.0135487
0.0135473
0.0135482
0.013547
0.0135481
0.013547
0.0135482
0.0135482
0.0135476
0.0135456
0.0134678
0.0134687
0.0135443
0.0135482
0.0135477
0.0135472
0.013548
0.0135471
0.013548
0.0135473
0.0135482
0.0135477
0.0135482
0.0135481
0.0135488
0.0135483
0.0135488
0.0135481
0.0135485
0.0135476
0.0135481
0.0135474
0.0135479
0.0135471
0.013548
0.013547
0.013548
0.0135485
0.0135478
0.0135456
0.0134678
0.0134687
0.0135444
0.0135483
0.0135475
0.013548
0.0135479
0.0135471
0.0135481
0.0135473
0.0135482
0.0135476
0.0135482
0.013548
0.013549
0.0135479
0.0135483
0.0135487
0.013548
0.0135482
0.0135476
0.0135481
0.0135472
0.013548
0.0135471
0.0135479
0.0135479
0.0135476
0.0135483
0.0135445
0.0134687
0.0134681
0.0135442
0.0135481
0.0135476
0.0135481
0.0135469
0.0135478
0.0135472
0.013548
0.0135476
0.0135482
0.013548
0.0135479
0.013549
0.0135483
0.0135487
0.0135481
0.0135485
0.0135475
0.0135481
0.0135474
0.0135479
0.0135471
0.013548
0.013547
0.0135482
0.0135484
0.0135476
0.0135456
0.0134678
0.0134687
0.0135445
0.0135484
0.0135477
0.0135477
0.0135479
0.013547
0.013548
0.0135472
0.013548
0.0135475
0.013548
0.0135478
0.0135485
0.0135479
0.0135486
0.013548
0.0135485
0.0135477
0.0135484
0.0135482
0.013548
0.0135473
0.0135479
0.013547
0.0135481
0.0135476
0.0135478
0.0135446
0.013468
0.0134687
0.0135446
0.0135483
0.0135476
0.013547
0.0135479
0.0135471
0.0135479
0.0135472
0.013548
0.0135476
0.0135483
0.0135481
0.0135489
0.0135483
0.013549
0.0135483
0.0135486
0.0135477
0.0135482
0.0135475
0.0135479
0.0135471
0.013548
0.0135471
0.0135482
0.0135484
0.0135477
0.0135456
0.0134678
0.0134685
0.0135448
0.0135474
0.0135485
0.0135473
0.0135479
0.013547
0.0135478
0.0135472
0.013548
0.0135477
0.0135483
0.0135481
0.0135489
0.0135483
0.0135489
0.0135482
0.0135486
0.0135477
0.0135481
0.0135475
0.0135479
0.0135471
0.013548
0.0135471
0.0135482
0.0135485
0.0135477
0.0135456
0.0134678
0.013468
0.0135456
0.0135479
0.0135476
0.0135483
0.0135471
0.0135479
0.0135471
0.0135478
0.0135474
0.0135481
0.0135476
0.0135485
0.013548
0.0135487
0.0135481
0.0135488
0.0135481
0.0135485
0.0135476
0.013548
0.013548
0.0135474
0.0135479
0.0135469
0.013548
0.0135475
0.013548
0.013544
0.0134686
0.0134678
0.0135456
0.0135477
0.0135486
0.0135474
0.0135479
0.0135471
0.0135478
0.0135472
0.013548
0.0135476
0.0135483
0.0135481
0.0135489
0.0135483
0.0135489
0.0135482
0.0135486
0.0135477
0.0135482
0.0135475
0.013548
0.0135472
0.013548
0.013547
0.0135481
0.0135485
0.0135476
0.0135456
0.0134678
0.0134687
0.0135447
0.0135485
0.0135478
0.013547
0.013548
0.0135471
0.013548
0.0135472
0.0135481
0.0135477
0.0135483
0.0135481
0.0135489
0.0135484
0.0135486
0.013549
0.0135482
0.0135484
0.0135477
0.0135481
0.0135473
0.013548
0.0135472
0.0135481
0.0135472
0.0135479
0.0135485
0.0135447
0.0134687
0.0134679
0.0135454
0.0135476
0.0135486
0.0135474
0.0135479
0.0135471
0.0135479
0.0135473
0.0135481
0.0135478
0.0135486
0.0135486
0.0135494
0.0135492
0.0135497
0.0135492
0.0135494
0.0135486
0.013549
0.0135481
0.0135486
0.0135477
0.0135485
0.0135474
0.0135478
0.0135484
0.0135474
0.0135451
0.0134675
0.00184808
0.00181634
0.00183105
0.00170992
0.000825257
0.000419593
0.000201226
0.0155074
0.0216478
0.019345
0.0184685
0.0172656
0.0160446
0.0147224
0.0248704
0.0264603
0.0255257
0.0239163
0.0226781
0.0217415
0.0211721
0.0206422
0.0203718
0.0200288
0.0198781
0.019626
0.0195336
0.0193682
0.0192836
0.0192139
0.0190928
0.0191176
0.0189873
0.0190115
0.0189416
0.0189423
0.0188982
0.0189172
0.0188118
0.0188187
0.0187976
0.018673
0.018682
0.0185918
0.0190261
0.0189622
0.0189134
0.0188883
0.0188572
0.0188401
0.0188185
0.0188106
0.0187924
0.0187847
0.0187776
0.0187646
0.0187671
0.0187546
0.0187593
0.0187506
0.0187545
0.0187507
0.0187524
0.018752
0.0187526
0.0187522
0.0187521
0.0187523
0.0187522
0.018753
0.0187534
0.0187534
0.0187539
0.0187852
0.0187851
0.0187533
0.0187534
0.0187533
0.0187526
0.0187527
0.018752
0.0187524
0.0187518
0.0187524
0.0187517
0.018752
0.0187513
0.0187519
0.0187513
0.0187518
0.0187512
0.0187519
0.0187514
0.0187522
0.0187519
0.0187522
0.0187518
0.0187524
0.0187521
0.0187529
0.0187535
0.0187533
0.0187541
0.0187852
0.0187851
0.0187533
0.0187531
0.0187533
0.0187528
0.0187526
0.0187519
0.0187523
0.0187517
0.0187524
0.0187517
0.018752
0.0187512
0.0187518
0.0187516
0.0187512
0.0187518
0.0187513
0.018752
0.0187517
0.0187523
0.0187517
0.0187522
0.0187519
0.0187526
0.0187527
0.0187533
0.0187531
0.0187533
0.0187851
0.0187854
0.0187538
0.0187538
0.0187533
0.018753
0.0187522
0.0187525
0.0187519
0.0187523
0.018752
0.0187523
0.0187514
0.0187515
0.0187518
0.0187512
0.0187518
0.0187512
0.0187519
0.0187514
0.0187522
0.0187519
0.0187522
0.0187518
0.0187524
0.0187521
0.018753
0.0187535
0.0187534
0.0187539
0.0187852
0.0187851
0.0187533
0.0187531
0.0187533
0.0187527
0.0187526
0.0187519
0.0187522
0.0187517
0.0187523
0.0187517
0.0187519
0.0187513
0.0187518
0.0187512
0.0187519
0.0187513
0.0187519
0.0187515
0.0187521
0.018752
0.0187522
0.0187519
0.0187524
0.0187524
0.0187532
0.0187534
0.0187536
0.0187539
0.0187854
0.0187851
0.0187533
0.0187533
0.0187534
0.0187526
0.0187527
0.018752
0.0187522
0.0187519
0.0187523
0.0187517
0.018752
0.0187514
0.0187518
0.0187513
0.0187519
0.0187513
0.0187519
0.0187514
0.0187522
0.0187519
0.0187522
0.0187518
0.0187524
0.0187521
0.0187531
0.0187535
0.0187534
0.018754
0.0187852
0.0187853
0.0187538
0.0187535
0.0187537
0.0187527
0.0187527
0.018752
0.0187522
0.0187518
0.0187523
0.0187517
0.018752
0.0187514
0.0187518
0.0187513
0.0187519
0.0187512
0.0187519
0.0187514
0.0187522
0.0187519
0.0187522
0.0187518
0.0187524
0.0187521
0.018753
0.0187534
0.0187534
0.018754
0.0187852
0.0187854
0.018754
0.0187535
0.0187533
0.0187531
0.0187523
0.0187524
0.0187519
0.0187522
0.0187519
0.0187521
0.0187514
0.0187519
0.0187512
0.0187519
0.0187513
0.0187519
0.0187513
0.018752
0.0187516
0.018752
0.0187522
0.018752
0.0187524
0.0187523
0.0187531
0.0187533
0.0187534
0.0187534
0.0187852
0.0187852
0.0187538
0.0187535
0.0187536
0.0187528
0.0187526
0.018752
0.0187521
0.0187518
0.0187523
0.0187517
0.018752
0.0187514
0.0187518
0.0187513
0.0187519
0.0187512
0.018752
0.0187514
0.0187522
0.0187519
0.0187523
0.0187518
0.0187524
0.0187521
0.018753
0.0187535
0.0187534
0.0187539
0.0187852
0.0187851
0.0187534
0.0187532
0.0187532
0.0187526
0.0187528
0.018752
0.0187523
0.0187518
0.0187524
0.0187518
0.018752
0.0187515
0.0187519
0.0187513
0.0187513
0.0187518
0.0187514
0.0187519
0.0187518
0.0187523
0.0187519
0.0187523
0.018752
0.0187528
0.0187526
0.0187533
0.0187533
0.0187534
0.0187852
0.0187854
0.0187539
0.0187536
0.0187537
0.0187531
0.0187527
0.0187523
0.0187522
0.0187521
0.0187523
0.018752
0.0187521
0.0187515
0.0187518
0.0187513
0.0187517
0.018751
0.0187514
0.0187511
0.0187519
0.0187515
0.0187519
0.0187513
0.0187519
0.0187516
0.0187524
0.0187528
0.0187526
0.0187534
0.0187849
0.00177667
0.00176756
0.00187117
0.00221095
0.00206279
0.0013408
0.00109638
0.000894889
0.0210061
0.0252144
0.0227335
0.0214821
0.0193407
0.0176094
0.0307225
0.0335769
0.0340206
0.0322438
0.0300094
0.028509
0.0275202
0.0267609
0.0262581
0.0258005
0.0254609
0.0251364
0.0249147
0.0247045
0.0244894
0.0244272
0.0241831
0.0241906
0.0240051
0.0239882
0.0239184
0.0238681
0.0237588
0.0238409
0.0236543
0.0237558
0.0236211
0.0235145
0.0234499
0.0232449
0.0242337
0.0239724
0.0239133
0.0237941
0.0237536
0.0237047
0.0236684
0.023653
0.0236243
0.0236096
0.0235957
0.0235823
0.0235727
0.0235705
0.0235588
0.0235641
0.0235541
0.0235616
0.0235567
0.023561
0.0235595
0.0235605
0.0235592
0.0235598
0.0235585
0.0235581
0.0235568
0.0235535
0.0235511
0.0235734
0.0235738
0.0235509
0.0235539
0.0235566
0.0235578
0.0235589
0.0235593
0.0235596
0.0235596
0.0235599
0.0235599
0.0235599
0.0235597
0.0235599
0.0235597
0.0235598
0.0235596
0.0235598
0.0235596
0.02356
0.0235596
0.0235595
0.0235592
0.0235594
0.0235585
0.023558
0.0235569
0.0235533
0.0235514
0.0235734
0.0235738
0.0235511
0.0235538
0.0235565
0.0235584
0.0235589
0.0235595
0.0235596
0.0235596
0.0235599
0.0235599
0.0235599
0.0235596
0.0235598
0.0235596
0.0235597
0.0235597
0.0235596
0.0235598
0.0235598
0.0235598
0.0235595
0.0235595
0.0235594
0.0235588
0.0235582
0.0235567
0.0235539
0.0235512
0.0235739
0.0235734
0.0235509
0.0235541
0.0235565
0.023558
0.0235586
0.0235594
0.0235593
0.0235597
0.0235598
0.0235601
0.0235597
0.0235597
0.0235599
0.0235596
0.0235598
0.0235596
0.0235598
0.0235596
0.0235599
0.0235596
0.0235595
0.0235592
0.0235594
0.0235585
0.023558
0.023557
0.0235534
0.0235512
0.0235734
0.0235739
0.0235511
0.0235539
0.0235567
0.0235581
0.0235588
0.0235593
0.0235594
0.0235594
0.0235597
0.0235597
0.0235597
0.0235595
0.0235597
0.0235594
0.0235598
0.0235596
0.0235598
0.02356
0.0235602
0.0235602
0.0235597
0.0235596
0.0235594
0.0235586
0.023558
0.0235563
0.0235536
0.0235508
0.023573
0.0235741
0.0235511
0.023554
0.0235567
0.0235579
0.0235589
0.0235592
0.0235594
0.0235594
0.0235598
0.0235598
0.02356
0.0235598
0.0235599
0.0235597
0.0235599
0.0235597
0.0235599
0.0235597
0.02356
0.0235597
0.0235596
0.0235593
0.0235595
0.0235586
0.0235581
0.023557
0.0235535
0.0235513
0.0235735
0.023574
0.023551
0.0235538
0.0235569
0.0235578
0.0235588
0.0235592
0.0235594
0.0235594
0.0235598
0.0235599
0.02356
0.0235598
0.0235599
0.0235597
0.0235599
0.0235597
0.0235599
0.0235597
0.02356
0.0235596
0.0235596
0.0235592
0.0235595
0.0235586
0.0235581
0.0235569
0.0235534
0.0235514
0.0235735
0.0235732
0.0235513
0.0235536
0.0235564