/*--------------------------------*- C++ -*----------------------------------*\
| =========                 |                                                 |
| \\      /  F ield         | OpenFOAM: The Open Source CFD Toolbox           |
|  \\    /   O peration     | Version:  2.1.1                                 |
|   \\  /    A nd           | Web:      www.OpenFOAM.org                      |
|    \\/     M anipulation  |                                                 |
\*---------------------------------------------------------------------------*/
FoamFile
{
    version     2.0;
    format      ascii;
    class       volScalarField;
    location    "0.000650000";
    object      OH;
}
// * * * * * * * * * * * * * * * * * * * * * * * * * * * * * * * * * * * * * //

dimensions      [0 0 0 0 0 0 0];

internalField   nonuniform List<scalar> 
12384
(
9.54156e-06
4.90846e-06
8.63142e-07
2.34981e-08
4.62146e-10
9.3066e-12
1.61948e-13
2.706e-15
4.45302e-17
6.79982e-19
8.97429e-21
9.82783e-23
9.47613e-25
8.27203e-27
4.39106e-41
4.32537e-42
3.09733e-44
1.98041e-46
1.13885e-48
5.91821e-51
2.81406e-53
1.26237e-55
5.20206e-58
2.11943e-60
8.18869e-63
3.24891e-65
1.26192e-67
5.06311e-70
2.01379e-72
8.07043e-75
3.21008e-77
1.27406e-79
5.02789e-82
1.99983e-84
8.07756e-87
3.38031e-89
1.49509e-91
7.09097e-94
3.60021e-96
1.91656e-98
1.05507e-100
5.81641e-103
3.20126e-105
1.70894e-107
1.22371e-116
3.27192e-118
3.95932e-120
4.05415e-122
3.52022e-124
2.66271e-126
1.78965e-128
1.10081e-130
6.27395e-133
3.37543e-135
1.72546e-137
8.46531e-140
4.00277e-142
1.83053e-144
8.0601e-147
3.36598e-149
1.30395e-151
4.62786e-154
1.51263e-156
4.61805e-159
1.33932e-161
3.74419e-164
1.01645e-166
8.20755e-170
1.19746e-173
1.18516e-176
2.10653e-179
3.99713e-182
6.38989e-185
7.67817e-189
5.14781e-205
9.90434e-203
2.48501e-205
3.29152e-208
3.23083e-211
2.57636e-214
1.80581e-217
1.14218e-220
6.68442e-224
3.75257e-227
1.96811e-230
1.0085e-233
5.10708e-237
2.70958e-240
1.46809e-243
7.10383e-247
2.86113e-250
1.0652e-253
3.78933e-257
1.34955e-260
4.7392e-264
1.65725e-267
5.76687e-271
2.03952e-274
7.22093e-278
2.62844e-281
9.65785e-285
3.51708e-288
1.22736e-291
1.08639e-295
3.08104e-319
5.6438e-317
1.37498e-319
1.72923e-322
0
0
0
0
0
0
0
0
0
0
0
0
0
0
0
0
0
0
0
0
0
0
0
0
0
0
0
0
0
0
0
0
0
0
0
0
0
0
0
0
0
0
0
0
0
0
0
0
0
0
0
0
0
0
0
0
0
0
0
0
0
0
0
0
0
0
0
0
0
0
0
0
0
0
0
0
0
0
0
0
0
0
0
0
0
0
0
0
0
0
0
0
0
0
0
0
0
0
0
0
0
0
0
0
0
0
0
0
0
0
0
0
0
0
0
0
0
0
0
0
0
0
0
0
0
0
0
0
0
0
0
0
0
0
0
0
0
0
0
0
0
0
0
0
0
0
0
0
0
0
0
0
0
0
0
0
0
0
0
0
0
0
0
0
0
0
0
0
0
0
0
0
0
0
0
0
0
0
0
0
0
0
0
0
0
0
0
0
0
0
0
0
0
0
0
0
0
0
0
0
0
0
0
0
0
0
0
0
0
0
0
0
0
0
0
0
0
0
0
0
0
0
0
0
0
0
0
0
0
0
0
0
0
0
0
0
0
0
0
0
0
0
0
0
0
0
0
0
0
0
0
0
0
0
0
0
0
0
0
0
0
0
0
0
0
0
6.5827e-05
6.06141e-05
8.13278e-06
3.07335e-07
3.59116e-09
8.23645e-11
1.16302e-12
1.45765e-14
2.09292e-16
3.10429e-18
4.00701e-20
4.8399e-22
4.96353e-24
4.16307e-26
5.39351e-39
5.4207e-40
3.98994e-42
2.71407e-44
1.63591e-46
8.87797e-49
4.23786e-51
1.93783e-53
7.66633e-56
2.96333e-58
1.11427e-60
4.28012e-63
1.72704e-65
7.21361e-68
3.00988e-70
1.23995e-72
5.04136e-75
2.02399e-77
7.8709e-80
3.07802e-82
1.16885e-84
4.49784e-87
1.72862e-89
6.81039e-92
2.84323e-94
1.27646e-96
6.16289e-99
3.21025e-101
1.69773e-103
9.05891e-106
3.62093e-114
5.85752e-116
4.67557e-118
4.09003e-120
3.40762e-122
2.58442e-124
1.78777e-126
1.14266e-128
6.87865e-131
3.9442e-133
2.18253e-135
1.17791e-137
6.24275e-140
3.24244e-142
1.62211e-144
7.60216e-147
3.22618e-149
1.21973e-151
4.16231e-154
1.31197e-156
3.9062e-159
1.11677e-161
3.10881e-164
8.46213e-167
5.49503e-170
5.84535e-173
1.09624e-175
2.18311e-178
3.70345e-181
7.42634e-185
1.26653e-200
8.08634e-199
1.91427e-201
2.48308e-204
2.38973e-207
1.8995e-210
1.32791e-213
8.35058e-217
4.85474e-220
2.6607e-223
1.38454e-226
6.9374e-230
3.44714e-233
1.74623e-236
9.06553e-240
4.34598e-243
1.81009e-246
6.75411e-250
2.39757e-253
8.37828e-257
2.92968e-260
1.02144e-263
3.56912e-267
1.25647e-270
4.46594e-274
1.61356e-277
5.93902e-281
2.18415e-284
7.89467e-288
1.15299e-291
7.30074e-315
4.61581e-313
1.07057e-315
1.35749e-318
1.27963e-321
0
0
0
0
0
0
0
0
0
0
0
0
0
0
0
0
0
0
0
0
0
0
0
0
0
0
0
0
0
0
0
0
0
0
0
0
0
0
0
0
0
0
0
0
0
0
0
0
0
0
0
0
0
0
0
0
0
0
0
0
0
0
0
0
0
0
0
0
0
0
0
0
0
0
0
0
0
0
0
0
0
0
0
0
0
0
0
0
0
0
0
0
0
0
0
0
0
0
0
0
0
0
0
0
0
0
0
0
0
0
0
0
0
0
0
0
0
0
0
0
0
0
0
0
0
0
0
0
0
0
0
0
0
0
0
0
0
0
0
0
0
0
0
0
0
0
0
0
0
0
0
0
0
0
0
0
0
0
0
0
0
0
0
0
0
0
0
0
0
0
0
0
0
0
0
0
0
0
0
0
0
0
0
0
0
0
0
0
0
0
0
0
0
0
0
0
0
0
0
0
0
0
0
0
0
0
0
0
0
0
0
0
0
0
0
0
0
0
0
0
0
0
0
0
0
0
0
0
0
0
0
0
0
0
0
0
0
0
0
0
0
0
0
0
0
0
0
0
0
0
0
0
0
0
0
0
0
0
0
0
0
0
0
0
0
6.64885e-07
8.52129e-07
9.97997e-08
2.16499e-08
1.54432e-10
2.25491e-11
1.12197e-13
4.72602e-16
9.93108e-19
1.42582e-21
1.99926e-24
1.34612e-26
1.64166e-28
3.56287e-30
2.85367e-40
3.65531e-41
2.66693e-43
1.58682e-45
9.03812e-48
3.59833e-50
1.76419e-52
6.16262e-55
2.2492e-57
7.84526e-60
2.40521e-62
8.92836e-65
3.58477e-67
1.46767e-69
6.50676e-72
2.83191e-74
1.20228e-76
4.85274e-79
2.04056e-81
7.62092e-84
3.16517e-86
1.17473e-88
4.28492e-91
1.70292e-93
5.67275e-96
2.36435e-98
9.5744e-101
3.18308e-103
1.38408e-105
3.15316e-108
8.43076e-116
1.74842e-117
6.65964e-120
3.60127e-122
2.01727e-124
1.23586e-126
7.77882e-129
5.1352e-131
3.43915e-133
2.31923e-135
1.59287e-137
1.08406e-139
7.56219e-142
5.02336e-144
3.19504e-146
1.81146e-148
8.92388e-151
3.6701e-153
1.26631e-155
4.03621e-158
1.23688e-160
3.62036e-163
1.03935e-165
2.90155e-168
7.97097e-171
2.01301e-173
4.31314e-176
8.96868e-179
1.52639e-181
1.51863e-185
2.21339e-200
5.65183e-199
1.19274e-201
1.42755e-204
1.27917e-207
9.62585e-211
6.4375e-214
3.87159e-217
2.15276e-220
1.11538e-223
5.48042e-227
2.57329e-230
1.19895e-233
5.58318e-237
2.61248e-240
1.12967e-243
4.3212e-247
1.50343e-250
5.09396e-254
1.72821e-257
5.96796e-261
2.07486e-264
7.35862e-268
2.62536e-271
9.45666e-275
3.44451e-278
1.27833e-281
4.71918e-285
1.72098e-288
1.20971e-292
1.21883e-314
3.14e-313
6.66324e-316
7.893e-319
6.96633e-322
0
0
0
0
0
0
0
0
0
0
0
0
0
0
0
0
0
0
0
0
0
0
0
0
0
0
0
0
0
0
0
0
0
0
0
0
0
0
0
0
0
0
0
0
0
0
0
0
0
0
0
0
0
0
0
0
0
0
0
0
0
0
0
0
0
0
0
0
0
0
0
0
0
0
0
0
0
0
0
0
0
0
0
0
0
0
0
0
0
0
0
0
0
0
0
0
0
0
0
0
0
0
0
0
0
0
0
0
0
0
0
0
0
0
0
0
0
0
0
0
0
0
0
0
0
0
0
0
0
0
0
0
0
0
0
0
0
0
0
0
0
0
0
0
0
0
0
0
0
0
0
0
0
0
0
0
0
0
0
0
0
0
0
0
0
0
0
0
0
0
0
0
0
0
0
0
0
0
0
0
0
0
0
0
0
0
0
0
0
0
0
0
0
0
0
0
0
0
0
0
0
0
0
0
0
0
0
0
0
0
0
0
0
0
0
0
0
0
0
0
0
0
0
0
0
0
0
0
0
0
0
0
0
0
0
0
0
0
0
0
0
0
0
0
0
0
0
0
0
0
0
0
0
0
0
0
0
0
0
0
0
0
0
0
0
0.0011997
0.000741034
5.01023e-05
1.93267e-06
2.82085e-07
1.2868e-07
1.1e-09
4.24228e-12
2.40872e-15
1.78341e-18
1.5529e-21
1.21009e-24
1.28077e-27
1.99671e-30
9.63158e-36
1.30785e-36
7.1628e-39
4.21699e-41
2.0021e-43
8.89009e-46
3.43371e-48
1.24034e-50
4.10819e-53
1.30837e-55
3.58622e-58
1.19432e-60
3.92633e-63
1.57009e-65
6.45015e-68
2.44164e-70
1.03437e-72
4.02815e-75
1.49324e-77
6.33679e-80
2.29601e-82
8.89493e-85
3.3893e-87
1.23121e-89
4.58653e-92
1.67581e-94
5.93393e-97
2.19901e-99
7.5649e-102
2.50012e-104
1.36022e-111
1.39841e-113
4.02265e-116
1.61529e-118
7.13442e-121
3.32354e-123
1.66033e-125
8.88682e-128
5.06047e-130
3.04716e-132
1.90484e-134
1.24823e-136
8.29425e-139
5.54454e-141
3.59766e-143
2.24428e-145
1.28128e-147
6.33949e-150
2.49387e-152
8.45037e-155
2.68811e-157
8.25744e-160
2.46587e-162
7.22295e-165
2.07347e-167
5.84698e-170
1.59139e-172
3.46e-175
6.16743e-178
1.5757e-181
1.52268e-195
3.84312e-195
7.09388e-198
7.62475e-201
6.33042e-204
4.4725e-207
2.79923e-210
1.59282e-213
8.35481e-217
4.10632e-220
1.90684e-223
8.46818e-227
3.61108e-230
1.49071e-233
5.96694e-237
2.32902e-240
8.87553e-244
3.32178e-247
1.22271e-250
4.46038e-254
1.61526e-257
5.85542e-261
2.12628e-264
7.78344e-268
2.86739e-271
1.06541e-274
3.97937e-278
1.49031e-281
5.48704e-285
9.59158e-289
8.11395e-310
2.05008e-309
3.88544e-312
4.22595e-315
3.48681e-318
2.41104e-321
0
0
0
0
0
0
0
0
0
0
0
0
0
0
0
0
0
0
0
0
0
0
0
0
0
0
0
0
0
0
0
0
0
0
0
0
0
0
0
0
0
0
0
0
0
0
0
0
0
0
0
0
0
0
0
0
0
0
0
0
0
0
0
0
0
0
0
0
0
0
0
0
0
0
0
0
0
0
0
0
0
0
0
0
0
0
0
0
0
0
0
0
0
0
0
0
0
0
0
0
0
0
0
0
0
0
0
0
0
0
0
0
0
0
0
0
0
0
0
0
0
0
0
0
0
0
0
0
0
0
0
0
0
0
0
0
0
0
0
0
0
0
0
0
0
0
0
0
0
0
0
0
0
0
0
0
0
0
0
0
0
0
0
0
0
0
0
0
0
0
0
0
0
0
0
0
0
0
0
0
0
0
0
0
0
0
0
0
0
0
0
0
0
0
0
0
0
0
0
0
0
0
0
0
0
0
0
0
0
0
0
0
0
0
0
0
0
0
0
0
0
0
0
0
0
0
0
0
0
0
0
0
0
0
0
0
0
0
0
0
0
0
0
0
0
0
0
0
0
0
0
0
0
0
0
0
0
0
0
0
0
0
0
0
0.00732892
0.00716856
0.00676892
0.00115377
4.01268e-05
1.80157e-05
5.04204e-06
8.27975e-08
5.44933e-11
3.10726e-14
2.9273e-17
2.24924e-20
1.79215e-23
1.81044e-26
2.91921e-31
4.77674e-32
3.24798e-34
1.72852e-36
8.12887e-39
3.38727e-41
1.41689e-43
5.1012e-46
1.88925e-48
5.77047e-51
1.84412e-53
5.19824e-56
1.82441e-58
6.9207e-61
2.98075e-63
1.21085e-65
5.05233e-68
2.0822e-70
8.12162e-73
3.34781e-75
1.25537e-77
5.0302e-80
1.9288e-82
6.97422e-85
2.68304e-87
9.45163e-90
3.41966e-92
1.19127e-94
4.16518e-97
1.42267e-99
8.1791e-107
7.73305e-109
2.21019e-111
8.33532e-114
3.3219e-116
1.38595e-118
5.94396e-121
2.66908e-123
1.26918e-125
6.3597e-128
3.40247e-130
1.91968e-132
1.13854e-134
6.84312e-137
4.16352e-139
2.48129e-141
1.43197e-143
7.59276e-146
3.43071e-148
1.26667e-150
4.23548e-153
1.34135e-155
4.11982e-158
1.23019e-160
3.60525e-163
1.03325e-165
2.90553e-168
7.93367e-171
1.43445e-173
4.09393e-177
5.29024e-190
1.79059e-190
2.69263e-193
2.43343e-196
1.73804e-199
1.08176e-202
6.11695e-206
3.18631e-209
1.55184e-212
7.09903e-216
3.09331e-219
1.28741e-222
5.18075e-226
2.01694e-229
7.6588e-233
2.83515e-236
1.02961e-239
3.66339e-243
1.28686e-246
4.45621e-250
1.53594e-253
5.25925e-257
1.80659e-260
6.20996e-264
2.15032e-267
7.47688e-271
2.61458e-274
9.17668e-278
3.16799e-281
5.59147e-285
2.84251e-304
9.30408e-305
1.42692e-307
1.32096e-310
9.5176e-314
5.87172e-317
3.24404e-320
1.4822e-323
0
0
0
0
0
0
0
0
0
0
0
0
0
0
0
0
0
0
0
0
0
0
0
0
0
0
0
0
0
0
0
0
0
0
0
0
0
0
0
0
0
0
0
0
0
0
0
0
0
0
0
0
0
0
0
0
0
0
0
0
0
0
0
0
0
0
0
0
0
0
0
0
0
0
0
0
0
0
0
0
0
0
0
0
0
0
0
0
0
0
0
0
0
0
0
0
0
0
0
0
0
0
0
0
0
0
0
0
0
0
0
0
0
0
0
0
0
0
0
0
0
0
0
0
0
0
0
0
0
0
0
0
0
0
0
0
0
0
0
0
0
0
0
0
0
0
0
0
0
0
0
0
0
0
0
0
0
0
0
0
0
0
0
0
0
0
0
0
0
0
0
0
0
0
0
0
0
0
0
0
0
0
0
0
0
0
0
0
0
0
0
0
0
0
0
0
0
0
0
0
0
0
0
0
0
0
0
0
0
0
0
0
0
0
0
0
0
0
0
0
0
0
0
0
0
0
0
0
0
0
0
0
0
0
0
0
0
0
0
0
0
0
0
0
0
0
0
0
0
0
0
0
0
0
0
0
0
0
0
0
0
0
0.00675664
0.00675757
0.00703307
0.00655551
0.002428
0.00118933
0.000294031
3.64891e-05
2.7875e-07
2.22845e-10
2.01669e-13
2.02998e-16
1.66671e-19
1.39285e-22
3.0521e-27
6.79339e-28
4.72055e-30
2.60263e-32
1.15184e-34
4.97566e-37
2.026e-39
7.73963e-42
2.84789e-44
9.99679e-47
3.08688e-49
9.40355e-52
2.76194e-54
1.00957e-56
4.13001e-59
1.79079e-61
7.21248e-64
3.0623e-66
1.17803e-68
4.85922e-71
1.87763e-73
7.43609e-76
2.82426e-78
1.07501e-80
3.96077e-83
1.45978e-85
5.37972e-88
1.84145e-90
6.53359e-93
2.11314e-95
1.36663e-102
1.36933e-104
3.72866e-107
1.32146e-109
5.17514e-112
2.0406e-114
8.31008e-117
3.43768e-119
1.47487e-121
6.61172e-124
3.08665e-126
1.53378e-128
7.88273e-131
4.24738e-133
2.30574e-135
1.28677e-137
7.05254e-140
3.77281e-142
1.83689e-144
7.60772e-147
2.71605e-149
9.00141e-152
2.84626e-154
8.73079e-157
2.60758e-159
7.62431e-162
2.17944e-164
6.08942e-167
1.62012e-169
5.48756e-173
8.08266e-185
4.17486e-186
5.04161e-189
3.77497e-192
2.27763e-195
1.22502e-198
6.11279e-202
2.87878e-205
1.28325e-208
5.44368e-212
2.20416e-215
8.58088e-219
3.22786e-222
1.18091e-225
4.21442e-229
1.4742e-232
5.06033e-236
1.71098e-239
5.70383e-243
1.88322e-246
6.16753e-250
2.01298e-253
6.55896e-257
2.14294e-260
7.01706e-264
2.30941e-267
7.62322e-271
2.51892e-274
8.19403e-278
1.32261e-281
4.68726e-299
2.18457e-300
2.60114e-303
1.98254e-306
1.22222e-309
6.60969e-313
3.25677e-316
1.49509e-319
6.42285e-323
0
0
0
0
0
0
0
0
0
0
0
0
0
0
0
0
0
0
0
0
0
0
0
0
0
0
0
0
0
0
0
0
0
0
0
0
0
0
0
0
0
0
0
0
0
0
0
0
0
0
0
0
0
0
0
0
0
0
0
0
0
0
0
0
0
0
0
0
0
0
0
0
0
0
0
0
0
0
0
0
0
0
0
0
0
0
0
0
0
0
0
0
0
0
0
0
0
0
0
0
0
0
0
0
0
0
0
0
0
0
0
0
0
0
0
0
0
0
0
0
0
0
0
0
0
0
0
0
0
0
0
0
0
0
0
0
0
0
0
0
0
0
0
0
0
0
0
0
0
0
0
0
0
0
0
0
0
0
0
0
0
0
0
0
0
0
0
0
0
0
0
0
0
0
0
0
0
0
0
0
0
0
0
0
0
0
0
0
0
0
0
0
0
0
0
0
0
0
0
0
0
0
0
0
0
0
0
0
0
0
0
0
0
0
0
0
0
0
0
0
0
0
0
0
0
0
0
0
0
0
0
0
0
0
0
0
0
0
0
0
0
0
0
0
0
0
0
0
0
0
0
0
0
0
0
0
0
0
0
0
0
0.00674874
0.00672281
0.00701361
0.00713168
0.00532433
0.00465666
0.0038589
0.00107858
9.77967e-05
3.24674e-07
6.92717e-10
1.04447e-12
1.09381e-15
7.47064e-19
5.81977e-24
1.22899e-24
1.37223e-26
9.33593e-29
5.00659e-31
2.39352e-33
1.12746e-35
4.85128e-38
2.10036e-40
8.04108e-43
3.00732e-45
9.4458e-48
2.89784e-50
9.6545e-53
4.03943e-55
1.80323e-57
7.62288e-60
3.37838e-62
1.34456e-64
5.65149e-67
2.21752e-69
8.89988e-72
3.42034e-74
1.34819e-76
4.92135e-79
1.8773e-81
6.96027e-84
2.40706e-86
8.66505e-89
2.90984e-91
1.92774e-98
1.68152e-100
5.19441e-103
1.83532e-105
7.02936e-108
2.77454e-110
1.10778e-112
4.47509e-115
1.84545e-117
7.7698e-120
3.41106e-122
1.53227e-124
7.25959e-127
3.50262e-129
1.75421e-131
8.86858e-134
4.55014e-136
2.31524e-138
1.13742e-140
5.09493e-143
2.00587e-145
7.05378e-148
2.32453e-150
7.34484e-153
2.24848e-155
6.70452e-158
1.9506e-160
5.53788e-163
1.51891e-165
2.6677e-168
1.99249e-179
1.44277e-181
1.34151e-184
8.24208e-188
4.16163e-191
1.89977e-194
8.20803e-198
3.41953e-201
1.37613e-204
5.3418e-208
1.99667e-211
7.20546e-215
2.51844e-218
8.57211e-222
2.85188e-225
9.31641e-229
2.99539e-232
9.51322e-236
2.99007e-239
9.3346e-243
2.90038e-246
8.99985e-250
2.7949e-253
8.7093e-257
2.72454e-260
8.56238e-264
2.69912e-267
8.51789e-271
2.64944e-274
4.44626e-278
1.36275e-293
8.08862e-296
6.95203e-299
4.20676e-302
2.15754e-305
1.00199e-308
4.33734e-312
1.77757e-315
6.9518e-319
2.61855e-322
0
0
0
0
0
0
0
0
0
0
0
0
0
0
0
0
0
0
0
0
0
0
0
0
0
0
0
0
0
0
0
0
0
0
0
0
0
0
0
0
0
0
0
0
0
0
0
0
0
0
0
0
0
0
0
0
0
0
0
0
0
0
0
0
0
0
0
0
0
0
0
0
0
0
0
0
0
0
0
0
0
0
0
0
0
0
0
0
0
0
0
0
0
0
0
0
0
0
0
0
0
0
0
0
0
0
0
0
0
0
0
0
0
0
0
0
0
0
0
0
0
0
0
0
0
0
0
0
0
0
0
0
0
0
0
0
0
0
0
0
0
0
0
0
0
0
0
0
0
0
0
0
0
0
0
0
0
0
0
0
0
0
0
0
0
0
0
0
0
0
0
0
0
0
0
0
0
0
0
0
0
0
0
0
0
0
0
0
0
0
0
0
0
0
0
0
0
0
0
0
0
0
0
0
0
0
0
0
0
0
0
0
0
0
0
0
0
0
0
0
0
0
0
0
0
0
0
0
0
0
0
0
0
0
0
0
0
0
0
0
0
0
0
0
0
0
0
0
0
0
0
0
0
0
0
0
0
0
0
0
0.00675724
0.00687802
0.00698751
0.0063069
0.00402081
0.00457381
0.00475139
0.00489223
0.00115201
8.53769e-05
2.38271e-07
5.05287e-10
5.69301e-13
5.02949e-16
8.65683e-22
1.06293e-22
1.50751e-24
1.98319e-26
2.07692e-28
1.54078e-30
9.16425e-33
4.84984e-35
2.35955e-37
1.04722e-39
4.36632e-42
1.58432e-44
4.91783e-47
1.4766e-49
5.96379e-52
2.73994e-54
1.20535e-56
5.43211e-59
2.26581e-61
9.54581e-64
3.85102e-66
1.53445e-68
5.89117e-71
2.33834e-73
8.70677e-76
3.42594e-78
1.26425e-80
4.59372e-83
1.6499e-85
5.61628e-88
4.20717e-95
3.95467e-97
1.09944e-99
3.71684e-102
1.42035e-104
5.53755e-107
2.20485e-109
8.78765e-112
3.57252e-114
1.45953e-116
6.16857e-119
2.63e-121
1.16811e-123
5.28227e-126
2.46453e-128
1.1754e-130
5.6877e-133
2.76996e-135
1.33392e-137
6.15519e-140
2.6267e-142
1.004e-144
3.49154e-147
1.14662e-149
3.61393e-152
1.1029e-154
3.27083e-157
9.42776e-160
2.63239e-162
6.22182e-165
1.31354e-174
1.41186e-177
9.42638e-181
4.67298e-184
1.96908e-187
7.58843e-191
2.7988e-194
1.01167e-197
3.60356e-201
1.25925e-204
4.28993e-208
1.42011e-211
4.56948e-215
1.43342e-218
4.3994e-222
1.32629e-225
3.94178e-229
1.15956e-232
3.38889e-236
9.87987e-240
2.88329e-243
8.45133e-247
2.49387e-250
7.42016e-254
2.22524e-257
6.71545e-261
2.03214e-264
6.13376e-268
1.81838e-271
3.02543e-275
1.17098e-288
9.21821e-292
5.19515e-295
2.38382e-298
9.8873e-302
3.85772e-305
1.44078e-308
5.19115e-312
1.81093e-315
6.12829e-319
1.97626e-322
0
0
0
0
0
0
0
0
0
0
0
0
0
0
0
0
0
0
0
0
0
0
0
0
0
0
0
0
0
0
0
0
0
0
0
0
0
0
0
0
0
0
0
0
0
0
0
0
0
0
0
0
0
0
0
0
0
0
0
0
0
0
0
0
0
0
0
0
0
0
0
0
0
0
0
0
0
0
0
0
0
0
0
0
0
0
0
0
0
0
0
0
0
0
0
0
0
0
0
0
0
0
0
0
0
0
0
0
0
0
0
0
0
0
0
0
0
0
0
0
0
0
0
0
0
0
0
0
0
0
0
0
0
0
0
0
0
0
0
0
0
0
0
0
0
0
0
0
0
0
0
0
0
0
0
0
0
0
0
0
0
0
0
0
0
0
0
0
0
0
0
0
0
0
0
0
0
0
0
0
0
0
0
0
0
0
0
0
0
0
0
0
0
0
0
0
0
0
0
0
0
0
0
0
0
0
0
0
0
0
0
0
0
0
0
0
0
0
0
0
0
0
0
0
0
0
0
0
0
0
0
0
0
0
0
0
0
0
0
0
0
0
0
0
0
0
0
0
0
0
0
0
0
0
0
0
0
0
0
0.00694779
0.00695488
0.00577446
0.00251769
0.00166073
0.00262104
0.002965
0.002718
0.0024
0.000322544
2.5772e-05
8.90013e-08
2.12417e-10
3.07402e-13
1.83283e-15
1.19966e-17
9.87961e-20
4.6753e-22
3.24012e-24
3.37651e-26
3.75705e-28
3.79391e-30
3.19692e-32
2.48184e-34
1.76611e-36
1.25918e-38
8.21927e-41
5.21603e-43
3.06831e-45
1.73122e-47
9.3317e-50
4.70943e-52
2.31411e-54
1.09224e-56
4.87165e-59
2.16701e-61
8.89598e-64
3.66648e-66
1.42367e-68
5.51342e-71
2.15506e-73
8.37731e-76
3.26859e-78
1.26433e-80
4.83351e-83
1.82878e-85
6.69859e-88
2.47709e-90
1.26363e-92
6.26284e-95
2.6084e-97
1.05417e-99
4.16751e-102
1.64248e-104
6.59614e-107
2.62818e-109
1.07593e-111
4.3751e-114
1.83101e-116
7.62145e-119
3.26578e-121
1.4079e-123
6.18716e-126
2.80331e-128
1.28974e-130
5.96125e-133
2.7999e-135
1.27886e-137
5.63094e-140
2.302e-142
8.57496e-145
2.95789e-147
9.68078e-150
3.04294e-152
9.25174e-155
2.72565e-157
7.77332e-160
2.14243e-162
5.35442e-165
1.26312e-167
5.55076e-171
3.00799e-174
1.32711e-177
5.19896e-181
1.83576e-184
6.01781e-188
1.89591e-191
5.88818e-195
1.82436e-198
5.62688e-202
1.71403e-205
5.11605e-209
1.49281e-212
4.26509e-216
1.19813e-219
3.32371e-223
9.15991e-227
2.52107e-230
6.95503e-234
1.9275e-237
5.38224e-241
1.51637e-244
4.31726e-248
1.24146e-251
3.59791e-255
1.04343e-258
2.99615e-262
8.30319e-266
2.13956e-269
5.21985e-273
7.407e-277
3.18051e-281
7.09152e-285
2.48776e-288
8.30003e-292
2.77033e-295
9.11045e-299
2.94283e-302
9.35699e-306
2.92541e-309
8.97464e-313
2.69431e-316
7.90851e-320
1.97626e-323
0
0
0
0
0
0
0
0
0
0
0
0
0
0
0
0
0
0
0
0
0
0
0
0
0
0
0
0
0
0
0
0
0
0
0
0
0
0
0
0
0
0
0
0
0
0
0
0
0
0
0
0
0
0
0
0
0
0
0
0
0
0
0
0
0
0
0
0
0
0
0
0
0
0
0
0
0
0
0
0
0
0
0
0
0
0
0
0
0
0
0
0
0
0
0
0
0
0
0
0
0
0
0
0
0
0
0
0
0
0
0
0
0
0
0
0
0
0
0
0
0
0
0
0
0
0
0
0
0
0
0
0
0
0
0
0
0
0
0
0
0
0
0
0
0
0
0
0
0
0
0
0
0
0
0
0
0
0
0
0
0
0
0
0
0
0
0
0
0
0
0
0
0
0
0
0
0
0
0
0
0
0
0
0
0
0
0
0
0
0
0
0
0
0
0
0
0
0
0
0
0
0
0
0
0
0
0
0
0
0
0
0
0
0
0
0
0
0
0
0
0
0
0
0
0
0
0
0
0
0
0
0
0
0
0
0
0
0
0
0
0
0
0
0
0
0
0
0
0
0
0
0
0
0
0
0
0
0
0
0
0
0
0
0
0
0
0
0
0
0
0
0
0
0
0
0
0.00686848
0.00583847
0.00164454
0.000545158
0.000494072
0.0010346
0.00167813
0.00157662
0.00143204
0.00020986
1.78119e-05
9.71371e-08
4.53921e-10
2.95416e-12
1.35307e-14
5.50422e-17
1.8024e-19
5.6941e-22
2.81752e-24
2.20045e-26
2.14339e-28
1.97277e-30
1.79948e-32
1.52825e-34
1.25667e-36
9.85388e-39
7.25284e-41
5.19065e-43
3.4404e-45
2.26037e-47
1.47556e-49
8.77712e-52
5.24082e-54
2.94139e-56
1.60031e-58
8.387e-61
4.31274e-63
2.08438e-65
1.02285e-67
4.68389e-70
2.1468e-72
9.47388e-75
4.13739e-77
1.74802e-79
7.3388e-82
3.01385e-84
1.17752e-86
4.66522e-89
1.76695e-91
6.96896e-94
2.8022e-96
1.12083e-98
4.61306e-101
1.92407e-103
8.27781e-106
3.64781e-108
1.64436e-110
7.56542e-113
3.52083e-115
1.65753e-117
7.8343e-120
3.72485e-122
1.77205e-124
8.43781e-127
4.00382e-129
1.88764e-131
8.77481e-134
3.99105e-136
1.75852e-138
7.39257e-141
2.8978e-143
1.0524e-145
3.59385e-148
1.17043e-150
3.67031e-153
1.11618e-155
3.30918e-158
9.58034e-161
2.68213e-163
7.64394e-166
2.14377e-168
8.74009e-172
3.26201e-175
1.09824e-178
3.38619e-182
9.76305e-186
2.70078e-189
7.33229e-193
1.98699e-196
5.4096e-200
1.47408e-203
3.99096e-207
1.06886e-210
2.82844e-214
7.40131e-218
1.92248e-221
4.98864e-225
1.30012e-228
3.40884e-232
9.00204e-236
2.39672e-239
6.43184e-243
1.74034e-246
4.74376e-250
1.29604e-253
3.51287e-257
9.39381e-261
2.47368e-264
6.41994e-268
1.61633e-271
4.05392e-275
1.10494e-278
3.0527e-282
8.1799e-286
2.23188e-289
6.09117e-293
1.6727e-296
4.61428e-300
1.27147e-303
3.4871e-307
9.44966e-311
2.52244e-314
6.63587e-318
1.71935e-321
0
0
0
0
0
0
0
0
0
0
0
0
0
0
0
0
0
0
0
0
0
0
0
0
0
0
0
0
0
0
0
0
0
0
0
0
0
0
0
0
0
0
0
0
0
0
0
0
0
0
0
0
0
0
0
0
0
0
0
0
0
0
0
0
0
0
0
0
0
0
0
0
0
0
0
0
0
0
0
0
0
0
0
0
0
0
0
0
0
0
0
0
0
0
0
0
0
0
0
0
0
0
0
0
0
0
0
0
0
0
0
0
0
0
0
0
0
0
0
0
0
0
0
0
0
0
0
0
0
0
0
0
0
0
0
0
0
0
0
0
0
0
0
0
0
0
0
0
0
0
0
0
0
0
0
0
0
0
0
0
0
0
0
0
0
0
0
0
0
0
0
0
0
0
0
0
0
0
0
0
0
0
0
0
0
0
0
0
0
0
0
0
0
0
0
0
0
0
0
0
0
0
0
0
0
0
0
0
0
0
0
0
0
0
0
0
0
0
0
0
0
0
0
0
0
0
0
0
0
0
0
0
0
0
0
0
0
0
0
0
0
0
0
0
0
0
0
0
0
0
0
0
0
0
0
0
0
0
0
0
0
0
0
0
0
0
0
0
0
0
0
0
0
0
0
0
0.00392976
0.00136906
0.000206166
9.94373e-05
0.000143723
0.000457605
0.000879267
0.00077477
0.000785243
0.000122094
9.25176e-06
4.59194e-08
2.04443e-10
1.11096e-12
5.01311e-15
1.77671e-17
5.21441e-20
1.53005e-22
5.56223e-25
2.78493e-27
1.77714e-29
1.24356e-31
9.3004e-34
6.77474e-36
5.09285e-38
3.6509e-40
2.53368e-42
1.67307e-44
1.09965e-46
6.90477e-49
4.19932e-51
2.49276e-53
1.38727e-55
7.78445e-58
4.07655e-60
2.1054e-62
1.05965e-64
5.08174e-67
2.44725e-69
1.12812e-71
5.15623e-74
2.35546e-76
1.03599e-78
4.46788e-81
1.90766e-83
7.9541e-86
3.00073e-88
1.14954e-90
4.23822e-93
1.64925e-95
6.39533e-98
2.5463e-100
1.02548e-102
4.25735e-105
1.81354e-107
7.98202e-110
3.60278e-112
1.66827e-114
7.84934e-117
3.74533e-119
1.80071e-121
8.72305e-124
4.24269e-126
2.07307e-128
1.01123e-130
4.90972e-133
2.35396e-135
1.10955e-137
5.09762e-140
2.26106e-142
9.52206e-145
3.75672e-147
1.38131e-149
4.77369e-152
1.57194e-154
4.9829e-157
1.53177e-159
4.57764e-162
1.35939e-164
4.01528e-167
1.06794e-169
3.7115e-173
1.13579e-176
3.17267e-180
8.56253e-184
2.34827e-187
6.70544e-191
1.97128e-194
5.80377e-198
1.67362e-201
4.68818e-205
1.27839e-208
3.42237e-212
9.08789e-216
2.405e-219
6.37101e-223
1.69968e-226
4.57446e-230
1.24059e-233
3.39699e-237
9.39793e-241
2.62274e-244
7.37203e-248
2.08051e-251
5.85771e-255
1.62211e-258
4.37131e-262
1.14239e-265
2.89386e-269
7.04718e-273
1.80877e-276
5.05184e-280
1.35555e-283
3.52641e-287
9.44346e-291
2.56342e-294
7.05319e-298
1.95194e-301
5.38606e-305
1.47165e-308
3.95945e-312
1.04538e-315
2.70575e-319
6.91692e-323
0
0
0
0
0
0
0
0
0
0
0
0
0
0
0
0
0
0
0
0
0
0
0
0
0
0
0
0
0
0
0
0
0
0
0
0
0
0
0
0
0
0
0
0
0
0
0
0
0
0
0
0
0
0
0
0
0
0
0
0
0
0
0
0
0
0
0
0
0
0
0
0
0
0
0
0
0
0
0
0
0
0
0
0
0
0
0
0
0
0
0
0
0
0
0
0
0
0
0
0
0
0
0
0
0
0
0
0
0
0
0
0
0
0
0
0
0
0
0
0
0
0
0
0
0
0
0
0
0
0
0
0
0
0
0
0
0
0
0
0
0
0
0
0
0
0
0
0
0
0
0
0
0
0
0
0
0
0
0
0
0
0
0
0
0
0
0
0
0
0
0
0
0
0
0
0
0
0
0
0
0
0
0
0
0
0
0
0
0
0
0
0
0
0
0
0
0
0
0
0
0
0
0
0
0
0
0
0
0
0
0
0
0
0
0
0
0
0
0
0
0
0
0
0
0
0
0
0
0
0
0
0
0
0
0
0
0
0
0
0
0
0
0
0
0
0
0
0
0
0
0
0
0
0
0
0
0
0
0
0
0
0
0
0
0
0
0
0
0
0
0
0
0
0
0
0
0.000434
0.00010582
3.63992e-05
3.64431e-05
7.0906e-05
0.000151604
0.000317394
0.000385142
0.00037413
4.05777e-05
2.41408e-06
6.16732e-09
2.22301e-11
9.23381e-14
3.71918e-16
1.13015e-18
3.35395e-21
8.19109e-24
2.34465e-26
7.78627e-29
3.20566e-31
1.61022e-33
1.0013e-35
6.6131e-38
4.6274e-40
3.19531e-42
2.18446e-44
1.43463e-46
9.18809e-49
5.58184e-51
3.2663e-53
1.89585e-55
1.01834e-57
5.55919e-60
2.83805e-62
1.41727e-64
6.9637e-67
3.24585e-69
1.515e-71
6.79526e-74
2.98438e-76
1.30439e-78
5.45136e-81
2.30034e-83
9.32114e-86
3.78182e-88
1.49376e-90
5.83361e-93
2.23023e-95
8.76823e-98
3.43571e-100
1.39168e-102
5.70466e-105
2.43151e-107
1.06134e-109
4.79833e-112
2.21478e-114
1.04647e-116
5.00111e-119
2.41599e-121
1.17512e-123
5.74051e-126
2.82093e-128
1.38988e-130
6.86618e-133
3.38134e-135
1.65429e-137
7.98038e-140
3.7766e-142
1.73717e-144
7.65323e-147
3.1299e-149
1.17334e-151
4.10413e-154
1.36397e-156
4.35665e-159
1.34753e-161
4.03179e-164
1.18475e-166
3.41703e-169
1.6796e-172
7.22723e-176
2.8398e-179
1.01896e-182
3.41709e-186
1.09765e-189
3.45066e-193
1.07784e-196
3.36711e-200
1.05117e-203
3.26481e-207
1.00467e-210
3.05785e-214
9.2205e-218
2.76517e-221
8.28474e-225
2.48894e-228
7.51352e-232
2.27948e-235
6.94558e-239
2.12309e-242
6.49953e-246
1.98704e-249
6.04752e-253
1.82705e-256
5.46607e-260
1.61562e-263
4.70808e-267
1.3499e-270
3.68349e-274
9.84213e-278
2.70668e-281
7.37741e-285
2.03863e-288
5.89168e-292
1.73472e-295
5.15245e-299
1.53353e-302
4.55367e-306
1.34478e-309
3.93914e-313
1.14201e-316
3.27022e-320
9.88131e-324
0
0
0
0
0
0
0
0
0
0
0
0
0
0
0
0
0
0
0
0
0
0
0
0
0
0
0
0
0
0
0
0
0
0
0
0
0
0
0
0
0
0
0
0
0
0
0
0
0
0
0
0
0
0
0
0
0
0
0
0
0
0
0
0
0
0
0
0
0
0
0
0
0
0
0
0
0
0
0
0
0
0
0
0
0
0
0
0
0
0
0
0
0
0
0
0
0
0
0
0
0
0
0
0
0
0
0
0
0
0
0
0
0
0
0
0
0
0
0
0
0
0
0
0
0
0
0
0
0
0
0
0
0
0
0
0
0
0
0
0
0
0
0
0
0
0
0
0
0
0
0
0
0
0
0
0
0
0
0
0
0
0
0
0
0
0
0
0
0
0
0
0
0
0
0
0
0
0
0
0
0
0
0
0
0
0
0
0
0
0
0
0
0
0
0
0
0
0
0
0
0
0
0
0
0
0
0
0
0
0
0
0
0
0
0
0
0
0
0
0
0
0
0
0
0
0
0
0
0
0
0
0
0
0
0
0
0
0
0
0
0
0
0
0
0
0
0
0
0
0
0
0
0
0
0
0
0
0
0
0
0
0
0
0
0
0
0
0
0
0
0
0
0
0
0
0
7.43089e-05
2.42193e-05
1.78192e-05
2.33917e-05
2.21902e-05
1.88398e-05
1.91757e-05
2.91704e-05
2.29656e-05
4.00533e-06
7.7753e-08
1.11693e-10
2.11506e-13
4.96588e-16
1.24188e-18
3.43677e-21
9.87904e-24
2.95709e-26
9.50687e-29
3.64005e-31
1.69174e-33
9.57177e-36
5.89966e-38
3.93577e-40
2.5066e-42
1.66289e-44
1.0721e-46
6.62034e-49
3.99893e-51
2.33768e-53
1.29557e-55
7.21189e-58
3.7341e-60
1.94649e-62
9.57062e-65
4.65347e-67
2.17704e-69
1.00227e-71
4.46402e-74
1.9811e-76
8.38843e-79
3.6077e-81
1.46962e-83
6.07716e-86
2.41611e-88
9.67137e-91
3.77726e-93
1.4827e-95
5.72006e-98
2.27107e-100
9.0047e-103
3.72249e-105
1.55734e-107
6.8332e-110
3.05444e-112
1.41517e-114
6.64913e-117
3.18823e-119
1.53879e-121
7.49638e-124
3.66759e-126
1.80495e-128
8.91711e-131
4.42351e-133
2.19278e-135
1.08416e-137
5.30964e-140
2.56552e-142
1.21588e-144
5.62557e-147
2.51563e-149
1.05606e-151
4.04367e-154
1.42274e-156
4.72437e-159
1.50371e-161
4.6302e-164
1.38124e-166
4.02777e-169
2.49738e-172
1.37832e-175
6.79531e-179
3.00667e-182
1.21815e-185
4.62916e-189
1.69127e-192
6.06473e-196
2.16292e-199
7.70659e-203
2.73817e-206
9.6607e-210
3.37295e-213
1.16394e-216
3.97238e-220
1.34338e-223
4.51104e-227
1.50682e-230
5.01267e-234
1.66085e-237
5.47728e-241
1.79517e-244
5.83787e-248
1.88064e-251
5.99584e-255
1.89118e-258
5.90355e-262
1.82515e-265
5.59339e-269
1.70123e-272
5.13014e-276
1.53949e-279
4.57908e-283
1.3511e-286
3.97809e-290
1.1666e-293
3.41975e-297
1.00495e-300
2.96754e-304
8.8131e-308
2.62984e-311
7.86795e-315
2.35348e-318
7.01573e-322
0
0
0
0
0
0
0
0
0
0
0
0
0
0
0
0
0
0
0
0
0
0
0
0
0
0
0
0
0
0
0
0
0
0
0
0
0
0
0
0
0
0
0
0
0
0
0
0
0
0
0
0
0
0
0
0
0
0
0
0
0
0
0
0
0
0
0
0
0
0
0
0
0
0
0
0
0
0
0
0
0
0
0
0
0
0
0
0
0
0
0
0
0
0
0
0
0
0
0
0
0
0
0
0
0
0
0
0
0
0
0
0
0
0
0
0
0
0
0
0
0
0
0
0
0
0
0
0
0
0
0
0
0
0
0
0
0
0
0
0
0
0
0
0
0
0
0
0
0
0
0
0
0
0
0
0
0
0
0
0
0
0
0
0
0
0
0
0
0
0
0
0
0
0
0
0
0
0
0
0
0
0
0
0
0
0
0
0
0
0
0
0
0
0
0
0
0
0
0
0
0
0
0
0
0
0
0
0
0
0
0
0
0
0
0
0
0
0
0
0
0
0
0
0
0
0
0
0
0
0
0
0
0
0
0
0
0
0
0
0
0
0
0
0
0
0
0
0
0
0
0
0
0
0
0
0
0
0
0
0
0
0
0
0
0
0
0
0
0
0
0
0
0
0
0
0
0
7.84828e-06
1.15797e-05
1.34491e-05
1.28035e-05
3.7284e-06
1.35973e-06
6.5857e-07
6.49596e-07
5.28711e-07
4.79124e-08
8.62637e-11
1.69513e-13
3.76711e-16
1.10683e-18
3.37396e-21
1.08745e-23
3.6493e-26
1.30557e-28
5.31331e-31
2.54241e-33
1.39945e-35
8.51676e-38
5.38795e-40
3.47179e-42
2.18067e-44
1.38644e-46
8.34214e-49
4.98082e-51
2.82625e-53
1.58619e-55
8.44199e-58
4.45856e-60
2.24056e-62
1.11118e-64
5.29403e-67
2.47068e-69
1.12321e-71
4.99653e-74
2.17741e-76
9.32992e-79
3.90164e-81
1.62012e-83
6.52942e-86
2.64142e-88
1.03719e-90
4.11306e-93
1.59061e-95
6.27571e-98
2.43957e-100
9.80001e-103
3.96444e-105
1.67071e-107
7.1977e-110
3.22394e-112
1.47876e-114
6.94659e-117
3.3146e-119
1.59707e-121
7.75942e-124
3.78635e-126
1.85663e-128
9.15626e-131
4.52132e-133
2.24612e-135
1.11024e-137
5.48461e-140
2.67629e-142
1.29371e-144
6.14041e-147
2.85862e-149
1.29038e-151
5.50716e-154
2.13501e-156
7.532e-159
2.48297e-161
7.82329e-164
2.38274e-166
7.04452e-169
1.37324e-171
4.75809e-175
1.97512e-178
9.24813e-182
4.26881e-185
1.85756e-188
7.65843e-192
3.04499e-195
1.18674e-198
4.57832e-202
1.75341e-205
6.65569e-209
2.49666e-212
9.23649e-216
3.36854e-219
1.21216e-222
4.3107e-226
1.51735e-229
5.2931e-233
1.83113e-236
6.28282e-240
2.13731e-243
7.20462e-247
2.40498e-250
7.9469e-254
2.59908e-257
8.41585e-261
2.69951e-264
8.58406e-268
2.70816e-271
8.48436e-275
2.64101e-278
8.17758e-282
2.51855e-285
7.72024e-289
2.35826e-292
7.17812e-296
2.17886e-299
6.59927e-303
1.99532e-306
6.02403e-310
1.81576e-313
5.46188e-317
1.63832e-320
4.94066e-324
0
0
0
0
0
0
0
0
0
0
0
0
0
0
0
0
0
0
0
0
0
0
0
0
0
0
0
0
0
0
0
0
0
0
0
0
0
0
0
0
0
0
0
0
0
0
0
0
0
0
0
0
0
0
0
0
0
0
0
0
0
0
0
0
0
0
0
0
0
0
0
0
0
0
0
0
0
0
0
0
0
0
0
0
0
0
0
0
0
0
0
0
0
0
0
0
0
0
0
0
0
0
0
0
0
0
0
0
0
0
0
0
0
0
0
0
0
0
0
0
0
0
0
0
0
0
0
0
0
0
0
0
0
0
0
0
0
0
0
0
0
0
0
0
0
0
0
0
0
0
0
0
0
0
0
0
0
0
0
0
0
0
0
0
0
0
0
0
0
0
0
0
0
0
0
0
0
0
0
0
0
0
0
0
0
0
0
0
0
0
0
0
0
0
0
0
0
0
0
0
0
0
0
0
0
0
0
0
0
0
0
0
0
0
0
0
0
0
0
0
0
0
0
0
0
0
0
0
0
0
0
0
0
0
0
0
0
0
0
0
0
0
0
0
0
0
0
0
0
0
0
0
0
0
0
0
0
0
0
0
0
0
0
0
0
0
0
0
0
0
0
0
0
0
0
0
0
3.27198e-06
2.32305e-06
1.48075e-06
7.83361e-07
2.31508e-07
2.23414e-08
4.02909e-09
2.47065e-09
1.19739e-09
9.517e-11
1.94015e-13
4.36701e-16
1.29494e-18
4.08162e-21
1.4027e-23
4.91953e-26
1.85573e-28
8.03517e-31
4.1015e-33
2.38242e-35
1.46362e-37
9.50111e-40
5.93296e-42
3.8496e-44
2.30224e-46
1.42055e-48
8.29338e-51
4.74006e-53
2.61456e-55
1.40681e-57
7.27552e-60
3.68502e-62
1.7975e-64
8.57284e-67
3.97136e-69
1.79506e-71
7.96066e-74
3.45937e-76
1.46745e-78
6.18208e-81
2.52069e-83
1.0318e-85
4.0781e-88
1.62822e-90
6.31801e-93
2.47755e-95
9.60796e-98
3.77273e-100
1.49587e-102
6.05875e-105
2.52422e-107
1.0828e-109
4.81133e-112
2.19323e-114
1.02686e-116
4.87547e-119
2.34598e-121
1.1347e-123
5.51651e-126
2.69446e-128
1.31832e-130
6.5011e-133
3.20295e-135
1.58949e-137
7.84278e-140
3.86967e-142
1.89009e-144
9.16384e-147
4.38018e-149
2.05267e-151
9.30075e-154
3.97332e-156
1.53149e-158
5.33561e-161
1.73615e-163
5.39874e-166
1.62222e-168
4.13683e-171
1.83208e-174
7.3042e-178
3.14381e-181
1.45907e-184
6.78121e-188
3.03343e-191
1.30146e-194
5.4129e-198
2.20767e-201
8.89092e-205
3.54161e-208
1.39347e-211
5.40462e-215
2.06399e-218
7.76167e-222
2.8771e-225
1.05266e-228
3.80606e-232
1.36112e-235
4.81682e-239
1.68706e-242
5.84749e-246
2.00556e-249
6.80631e-253