/*--------------------------------*- C++ -*----------------------------------*\
| =========                 |                                                 |
| \\      /  F ield         | OpenFOAM: The Open Source CFD Toolbox           |
|  \\    /   O peration     | Version:  2.1.1                                 |
|   \\  /    A nd           | Web:      www.OpenFOAM.org                      |
|    \\/     M anipulation  |                                                 |
\*---------------------------------------------------------------------------*/
FoamFile
{
    version     2.0;
    format      ascii;
    class       volScalarField;
    location    "0.002050000";
    object      cSound;
}
// * * * * * * * * * * * * * * * * * * * * * * * * * * * * * * * * * * * * * //

dimensions      [0 1 -1 0 0 0 0];

internalField   nonuniform List<scalar> 
12384
(
1014.23
1020.14
1018.26
1014.05
1000.97
1015.65
527.093
439.712
437.902
440.176
441.301
444.802
447.565
447.2
434.837
428.629
426.502
425.942
431.654
450.052
491.508
507.993
505.67
503.314
505.012
490.349
483.934
461.223
453.668
446.257
438.916
431.908
427.319
423.643
425.038
420.577
424.252
430.891
440.778
450.785
459.01
461.46
459.467
457.876
449.292
442.728
436.566
433.759
437.796
441.556
445.492
448.82
455.028
456.878
460.384
461.862
461.568
461.294
462.519
464.549
459.312
454.527
449.232
444.093
447.327
445.085
447.537
448.474
453.699
455.725
457.982
459.106
458.187
458.869
422.761
420.621
417.18
415.524
410.975
412.83
409.566
413.352
410.934
415.133
415.965
418.402
421.686
424.53
428.738
432.332
436.87
440.145
443.385
444.715
444.26
443.225
441.817
436.786
438.546
436.743
436.845
436.679
435.69
435.895
417.874
416.975
417.106
417.374
417.662
418.013
418.361
418.7
419.015
418.967
418.898
419.134
418.485
418.356
418.125
417.934
416.549
416.848
416.159
414.991
414.69
414.751
413.494
414.101
412.946
413.495
412.61
412.932
412.557
412.563
407.118
406.981
407.001
406.911
406.891
406.743
406.748
406.551
406.584
406.36
406.415
406.163
406.243
405.976
406.075
405.812
405.914
405.679
405.785
405.579
405.668
405.5
405.568
405.454
405.455
405.437
405.394
405.404
405.375
405.448
405.161
405.09
405.086
405.083
405.081
405.076
405.072
405.065
405.063
405.055
405.053
405.047
405.039
405.035
405.029
405.028
405.028
405.033
405.037
405.041
405.041
405.044
405.046
405.046
405.049
405.05
405.052
405.052
405.056
405.129
405.129
405.056
405.052
405.049
405.048
405.045
405.043
405.04
405.039
405.036
405.035
405.032
405.028
405.023
405.02
405.02
405.023
405.027
405.033
405.034
405.036
405.038
405.041
405.043
405.045
405.048
405.05
405.052
405.056
405.129
405.129
405.056
405.053
405.049
405.049
405.045
405.044
405.041
405.04
405.037
405.036
405.032
405.028
405.023
405.02
405.02
405.023
405.027
405.032
405.034
405.036
405.038
405.042
405.043
405.045
405.048
405.049
405.052
405.056
405.129
405.129
405.058
405.053
405.049
405.047
405.046
405.042
405.041
405.038
405.036
405.035
405.032
405.027
405.024
405.02
405.02
405.022
405.027
405.032
405.035
405.038
405.041
405.043
405.044
405.046
405.05
405.051
405.053
405.056
405.129
405.128
405.056
405.053
405.05
405.049
405.045
405.043
405.041
405.04
405.036
405.035
405.032
405.028
405.023
405.02
405.019
405.022
405.026
405.032
405.034
405.037
405.038
405.042
405.043
405.046
405.048
405.049
405.052
405.056
405.129
405.128
405.056
405.052
405.05
405.049
405.046
405.044
405.042
405.039
405.036
405.035
405.031
405.027
405.023
405.02
405.02
405.023
405.027
405.032
405.035
405.036
405.039
405.041
405.044
405.045
405.048
405.049
405.052
405.055
405.128
405.127
405.054
405.051
405.047
405.047
405.043
405.043
405.04
405.039
405.037
405.036
405.032
405.028
405.023
405.022
405.02
405.023
405.026
405.031
405.033
405.037
405.038
405.042
405.043
405.046
405.048
405.05
405.051
405.056
405.129
1007.93
997.652
985.889
971.662
955.491
942.506
499.858
445.512
433.161
426.692
428.008
432.098
437.302
442.976
427.718
422.057
434.351
460.455
528.34
650.74
901.591
913.301
910.636
910.934
907.628
906
898.532
742.042
660.92
608.463
563.83
521.136
485.744
438.553
414.069
409.408
410.003
410.151
421.045
429.433
442.791
453.316
459.647
459.797
444.02
432.194
431.462
440.364
450.781
460.114
460.847
460.58
460.37
464.71
482.269
495.291
510.069
510.222
499.462
491.172
490.572
490.002
475.859
460.543
435.954
424.769
423.857
423.583
430.067
436.193
445.752
454.998
458.039
458.634
408.464
401.105
395.742
395.604
394.195
398.37
397.864
405.658
405.024
408.976
406.698
405.903
403.93
403.628
404.208
405.845
406.961
409.791
411.835
414.725
418.395
421.158
426.145
429.491
432.424
434.559
434.761
435.301
434.774
435.089
391.164
389.438
389.78
390.361
390.984
391.99
393.21
394.627
396.259
398.087
399.66
401.506
403.072
403.856
405.673
405.913
407.283
407.488
408.436
408.819
408.889
409.815
409.327
410.119
409.732
410.342
409.796
410.034
409.875
411.208
401.207
400.036
399.999
400.285
400.667
400.918
401.232
401.384
401.585
401.656
401.744
401.738
401.727
401.647
401.612
401.569
401.665
401.654
401.777
401.727
401.792
401.79
401.795
401.85
401.818
401.887
401.851
401.879
401.898
403.96
403.645
401.458
401.389
401.33
401.307
401.268
401.188
401.155
401.077
401.041
400.965
400.931
400.835
400.77
400.703
400.7
400.723
400.829
400.911
400.999
401.044
401.12
401.143
401.203
401.226
401.282
401.296
401.341
401.416
403.666
403.67
401.397
401.3
401.27
401.213
401.188
401.121
401.095
401.034
401.008
400.945
400.913
400.819
400.748
400.682
400.692
400.731
400.83
400.893
400.961
400.992
401.059
401.085
401.15
401.182
401.243
401.272
401.314
401.423
403.6
403.606
401.44
401.324
401.296
401.238
401.213
401.149
401.124
401.062
401.035
400.969
400.929
400.829
400.751
400.683
400.695
400.733
400.828
400.892
400.959
400.991
401.059
401.086
401.152
401.184
401.243
401.273
401.315
401.425
403.599
403.593
401.423
401.314
401.257
401.231
401.17
401.142
401.079
401.057
400.995
400.969
400.906
400.851
400.753
400.711
400.68
400.731
400.81
400.924
400.991
401.033
401.103
401.134
401.196
401.219
401.277
401.292
401.341
401.415
403.666
403.595
401.432
401.315
401.287
401.23
401.205
401.142
401.116
401.054
401.028
400.964
400.927
400.833
400.757
400.686
400.691
400.727
400.822
400.889
400.959
400.991
401.061
401.089
401.155
401.187
401.248
401.276
401.315
401.426
403.601
403.668
401.403
401.309
401.292
401.238
401.21
401.14
401.111
401.043
401.012
400.942
400.908
400.816
400.747
400.688
400.688
400.742
400.817
400.912
400.948
401.016
401.044
401.109
401.136
401.203
401.226
401.284
401.307
401.399
403.669
403.603
401.427
401.304
401.276
401.214
401.19
401.124
401.103
401.041
401.022
400.957
400.926
400.84
400.769
400.694
400.691
400.725
400.817
400.886
400.954
400.986
401.056
401.084
401.152
401.182
401.245
401.276
401.314
401.426
403.601
987.551
934.227
895.263
877.134
848.581
636.665
519.268
508.668
491.922
443.889
420.483
415.208
419.803
429.619
418.39
458.689
580.976
652.607
841.547
918.208
936.223
936.701
939.15
939.237
924.941
916.497
911.966
906.114
903.297
880.551
889.21
881.099
849.417
631.661
500.006
480.747
473.775
436.362
414.034
414.552
421.901
436.684
454.749
460.202
434.423
426.631
436.789
450.749
461.117
461.151
454.815
446.889
452.383
502.464
603.681
640.809
668.12
681.143
650.798
598.821
541.749
506.252
503.717
506.504
482.012
455.969
428.626
418.382
416.615
415.366
424.835
439.722
452.603
456.739
391.135
387.936
390.52
399.514
409.984
422.745
432.384
441.121
445.279
449.82
448.214
444.192
432.521
420.675
411.655
405.877
403.432
400.836
399.28
398.537
397.443
396.896
395.973
396.326
396.887
401.332
407.144
412.669
416.458
419.375
376.051
377.452
377.905
377.845
377.992
377.774
377.46
377.064
376.921
376.08
376.268
375.39
375.704
374.772
375.124
374.133
374.283
373.771
372.647
373.218
371.603
372.224
371.222
371.35
371.232
371.379
371.592
371.807
372.226
370.717
363.507
364.86
365.208
365.017
365.126
364.933
365.05
364.853
364.978
364.784
364.918
364.746
364.91
364.797
364.9
364.756
364.719
364.563
364.451
364.396
364.255
364.281
364.095
364.169
363.993
364.057
363.936
363.993
363.9
361.94
361.668
363.726
363.804
363.86
363.866
363.915
363.962
364.01
364.051
364.097
364.139
364.186
364.252
364.326
364.372
364.388
364.352
364.27
364.182
364.12
364.068
364.017
363.983
363.948
363.917
363.886
363.864
363.826
363.729
361.641
361.644
363.758
363.847
363.892
363.927
363.958
363.998
364.03
364.064
364.099
364.138
364.18
364.252
364.33
364.378
364.381
364.332
364.256
364.182
364.138
364.098
364.058
364.023
363.987
363.948
363.914
363.878
363.845
363.759
361.64
361.641
363.738
363.835
363.876
363.905
363.937
363.973
364.006
364.04
364.078
364.118
364.168
364.245
364.33
364.378
364.38
364.331
364.258
364.185
364.14
364.099
364.058
364.023
363.986
363.946
363.913
363.877
363.844
363.759
361.64
361.64
363.755
363.851
363.895
363.927
363.96
363.996
364.029
364.06
364.094
364.131
364.172
364.238
364.313
364.365
364.382
364.35
364.266
364.17
364.109
364.079
364.027
363.988
363.952
363.919
363.888
363.863
363.826
363.733
361.641
361.642
363.75
363.842
363.883
363.911
363.943
363.978
364.013
364.046
364.082
364.122
364.169
364.241
364.324
364.375
364.383
364.337
364.264
364.187
364.142
364.1
364.058
364.021
363.984
363.944
363.909
363.872
363.842
363.757
361.64
361.642
363.755
363.844
363.867
363.905
363.94
363.983
364.02
364.058
364.098
364.141
364.186
364.255
364.329
364.381
364.38
364.333
364.254
364.183
364.136
364.095
364.057
364.02
363.986
363.946
363.914
363.878
363.843
363.76
361.643
361.641
363.753
363.852
363.893
363.923
363.954
363.988
364.021
364.052
364.086
364.124
364.168
364.232
364.313
364.368
364.386
364.342
364.27
364.193
364.148
364.106
364.062
364.024
363.986
363.946
363.91
363.873
363.843
363.759
361.641
933.025
859.114
810.042
788.657
761.93
747.254
703.693
707.341
710.009
558.341
466.522
420.387
410.414
413.689
420.303
569.101
945.447
976.164
997.438
1011.57
1015.33
1019.76
1012.36
1001.28
993.173
989.389
1004.49
1025.18
1021.35
1018.75
1013.68
975.132
903.003
884.787
907.765
910.722
890.661
670.126
462.716
414.366
414.104
420.134
441.821
457.572
427.344
427.967
444.775
457.858
461.242
454.638
444.765
449.524
541.926
707.071
927.62
944.046
960.692
963.01
952.312
935.023
718.082
627.202
539.456
499.47
513.141
510.069
468.88
440.701
420.407
416.235
413.99
423.444
440.017
450.49
386.982
392.649
406.152
422.24
436.122
443.139
445
449.38
452.268
461.046
469.991
477.489
478.047
466.971
447.856
431.347
419.371
412.299
407.958
405.009
402.519
400.948
398.903
397.723
394.605
393.94
391.659
394.228
395.499
397.748
383.506
389.865
390.802
390.428
388.866
386.83
385.095
383.367
381.764
380.527
379.094
378.224
377.125
376.538
375.684
375.26
374.403
374.283
373.092
373.291
372.004
371.973
371.177
371.07
370.288
370.384
370.018
369.634
369.795
369.134
365.289
365.461
365.231
365.348
365.058
365.088
364.829
364.827
364.586
364.587
364.367
364.37
364.169
364.177
363.999
364.016
363.844
363.878
363.707
363.766
363.6
363.667
363.525
363.574
363.47
363.507
363.433
363.463
363.401
363.086
362.847
363.191
363.216
363.205
363.211
363.204
363.209
363.205
363.207
363.205
363.207
363.206
363.208
363.21
363.211
363.211
363.206
363.205
363.196
363.198
363.19
363.191
363.185
363.187
363.18
363.183
363.177
363.179
363.153
362.789
362.79
363.152
363.175
363.181
363.18
363.185
363.182
363.188
363.186
363.191
363.19
363.195
363.196
363.202
363.202
363.205
363.2
363.199
363.192
363.193
363.188
363.189
363.185
363.186
363.181
363.183
363.177
363.177
363.151
362.797
362.796
363.152
363.174
363.181
363.179
363.184
363.182
363.187
363.186
363.191
363.189
363.195
363.196
363.203
363.202
363.205
363.2
363.199
363.192
363.193
363.188
363.189
363.185
363.186
363.181
363.183
363.178
363.177
363.151
362.797
362.797
363.151
363.178
363.177
363.183
363.181
363.187
363.185
363.19
363.188
363.193
363.192
363.198
363.198
363.205
363.202
363.204
363.196
363.195
363.189
363.187
363.189
363.183
363.185
363.179
363.182
363.177
363.178
363.152
362.789
362.797
363.152
363.174
363.181
363.179
363.184
363.183
363.187
363.186
363.191
363.189
363.195
363.195
363.202
363.202
363.205
363.2
363.199
363.192
363.193
363.189
363.189
363.185
363.186
363.181
363.183
363.177
363.176
363.151
362.797
362.788
363.152
363.177
363.18
363.179
363.184
363.182
363.188
363.186
363.191
363.19
363.195
363.195
363.202
363.202
363.202
363.202
363.195
363.195
363.19
363.191
363.186
363.188
363.182
363.184
363.179
363.18
363.175
363.153
362.789
362.796
363.152
363.174
363.181
363.179
363.184
363.183
363.188
363.186
363.191
363.189
363.195
363.194
363.201
363.201
363.204
363.199
363.199
363.193
363.193
363.189
363.19
363.185
363.187
363.182
363.183
363.178
363.177
363.151
362.796
863.537
837.87
819.705
808.886
810.162
826.507
883.949
858.342
852.707
797.111
708.845
500.934
429.4
405.364
433.107
698.231
1030.31
1029.48
1041.33
1053.44
1056.94
1055.93
1053.51
1050.66
1051.98
1057.92
1064.11
1067.84
1065.09
1061.52
1057.5
1044.84
1001.57
993.207
989.473
980.47
950.134
918.155
602.328
438.318
413.528
414.21
427.962
451.575
421.455
431.634
451.304
459.988
458.298
450.567
443.906
500.12
951.337
943.989
952.992
973.597
989.712
999.51
1004.76
1016.26
1015.97
979.26
1000.74
614.353
509.657
515.815
510.409
485.905
445.38
424.012
416.157
414.545
425.617
440.3
390.728
406.901
426.53
437.281
436.488
430.136
421.821
422.754
425.486
436.509
451.181
469.977
485.645
492.299
485.253
465.466
446.063
432.008
423.123
416.784
413.194
409.908
407.377
404.747
401.289
398.205
394.348
392.912
391.893
391.848
394.023
408.213
412.471
413.333
410.034
404.732
399.477
395.453
392.371
389.783
388.144
385.831
385.051
383.072
382.828
381.213
381.113
379.726
379.526
378.747
377.653
377.709
376.337
376.562
375.376
375.177
374.791
374.031
373.993
373.469
371.397
371.255
371.207
370.764
370.714
370.336
370.274
369.944
369.904
369.606
369.59
369.337
369.333
369.132
369.043
368.974
368.853
368.813
368.7
368.682
368.571
368.581
368.461
368.501
368.383
368.429
368.339
368.379
368.309
368.308
368.063
368.11
368.093
368.106
368.091
368.087
368.086
368.076
368.079
368.068
368.073
368.064
368.069
368.06
368.066
368.058
368.064
368.055
368.061
368.052
368.061
368.049
368.058
368.046
368.057
368.045
368.056
368.045
368.051
368.005
368.01
368.048
368.053
368.045
368.057
368.045
368.056
368.045
368.056
368.045
368.057
368.046
368.058
368.048
368.058
368.049
368.058
368.048
368.057
368.047
368.057
368.046
368.056
368.046
368.057
368.046
368.056
368.049
368.044
368.017
368.016
368.043
368.056
368.045
368.057
368.045
368.056
368.045
368.056
368.046
368.057
368.047
368.058
368.048
368.058
368.049
368.058
368.048
368.057
368.047
368.057
368.046
368.056
368.045
368.057
368.046
368.056
368.05
368.044
368.017
368.013
368.042
368.046
368.055
368.044
368.056
368.044
368.055
368.045
368.056
368.046
368.057
368.047
368.057
368.048
368.058
368.049
368.058
368.05
368.054
368.055
368.046
368.057
368.044
368.056
368.044
368.056
368.044
368.05
368.007
368.016
368.043
368.056
368.045
368.056
368.045
368.056
368.044
368.056
368.046
368.057
368.046
368.058
368.048
368.058
368.049
368.058
368.048
368.057
368.047
368.057
368.046
368.056
368.046
368.057
368.046
368.055
368.05
368.044
368.017
368.005
368.048
368.047
368.046
368.055
368.044
368.056
368.044
368.056
368.045
368.056
368.046
368.058
368.048
368.057
368.056
368.049
368.058
368.046
368.057
368.045
368.056
368.044
368.056
368.045
368.057
368.046
368.048
368.047
368.008
368.015
368.042
368.055
368.044
368.056
368.044
368.056
368.044
368.056
368.045
368.057
368.046
368.057
368.048
368.059
368.049
368.059
368.049
368.057
368.046
368.057
368.047
368.057
368.046
368.057
368.046
368.055
368.051
368.043
368.016
852.129
881.087
893.368
908.302
939.056
983.5
1023.01
997.66
966.445
931.467
865.928
771.739
528.781
411.315
467.589
901.639
1019.21
1051.08
1058.09
1062.84
1063.8
1064.5
1064.7
1067.77
1074.11
1082.21
1089.37
1090.16
1088.07
1083.98
1077.47
1065.72
1052.94
1043.17
1034.67
1024.7
1001.91
967.783
925.407
565.462
427.619
412.421
418.253
442.694
418.468
435.429
455.231
460.722
455.314
449.075
448.391
580.18
904.389
945.797
987.023
1015.75
1030.99
1033.8
1029.13
1033.97
1046.83
1054.23
1027.44
1031.62
707.501
549.302
518.042
518.367
488.229
448.062
424.324
414.826
414.387
428.486
395.491
419.998
436.289
434.716
425.244
410.277
405.648
406.17
407.835
417.254
430.841
448.823
472.219
492.143
500.842
495.414
477.455
458.248
443.346
434.145
427.62
422.725
418.426
414.533
410.334
405.533
401.983
395.893
393.673
392.107
405.781
421.599
427.277
432.8
435.498
429.721
420.594
412.199
406.42
402.187
399.28
396.522
394.589
392.463
391.261
389.7
388.851
387.646
386.696
386.101
384.843
384.439
383.211
382.645
381.903
380.854
380.886
379.539
379.623
378.439
378.874
379.139
378.302
378.158
377.437
377.27
376.715
376.576
376.119
376.031
375.659
375.599
375.308
375.269
375.023
375.013
374.779
374.814
374.595
374.643
374.451
374.503
374.337
374.384
374.252
374.284
374.191
374.216
374.139
373.802
373.654
373.963
373.986
373.963
373.963
373.943
373.949
373.932
373.938
373.924
373.929
373.919
373.924
373.916
373.921
373.914
373.917
373.911
373.914
373.909
373.913
373.907
373.909
373.904
373.907
373.903
373.906
373.902
373.883
373.525
373.527
373.88
373.903
373.902
373.907
373.902
373.906
373.903
373.906
373.903
373.907
373.904
373.908
373.905
373.909
373.905
373.908
373.905
373.907
373.903
373.907
373.903
373.907
373.903
373.907
373.903
373.906
373.903
373.88
373.524
373.524
373.881
373.906
373.903
373.907
373.902
373.906
373.902
373.906
373.903
373.907
373.904
373.908
373.905
373.909
373.905
373.908
373.904
373.907
373.903
373.906
373.903
373.907
373.902
373.907
373.903
373.906
373.903
373.88
373.524
373.522
373.877
373.902
373.907
373.902
373.906
373.902
373.906
373.902
373.906
373.902
373.906
373.904
373.907
373.905
373.908
373.905
373.909
373.906
373.905
373.906
373.903
373.907
373.902
373.905
373.902
373.906
373.901
373.882
373.526
373.523
373.881
373.906
373.903
373.907
373.902
373.906
373.902
373.906
373.903
373.906
373.903
373.908
373.905
373.908
373.905
373.908
373.904
373.907
373.903
373.907
373.903
373.907
373.903
373.907
373.903
373.906
373.904
373.88
373.524
373.525
373.881
373.901
373.902
373.904
373.902
373.905
373.902
373.906
373.903
373.907
373.903
373.908
373.906
373.907
373.908
373.906
373.909
373.904
373.907
373.903
373.906
373.903
373.906
373.902
373.906
373.903
373.9
373.881
373.526
373.522
373.88
373.905
373.902
373.906
373.902
373.906
373.902
373.905
373.902
373.907
373.904
373.909
373.906
373.911
373.907
373.91
373.907
373.909
373.905
373.908
373.904
373.908
373.904
373.907
373.902
373.906
373.903
373.879
373.524
915.839
970.758
988.167
1009.18
1038.8
1054.86
1058.22
1043.11
1025.32
996.639
953.895
884.416
777.253
440.595
517.526
932.387
1014.79
1053.37
1062.25
1063.18
1060.05
1061.25
1066.69
1074.56
1083.71
1093.53
1100.69
1104.6
1104.23
1100.98
1094.66
1083.8
1071.09
1060.32
1052.17
1045.81
1034.9
1009.43
970.889
940.756
546.428
419.895
413.985
432.939
417.835
439.103
458.7
462.174
457.331
455.182
512.296
695.061
867.811
970.089
1050.54
1074.58
1083.11
1078.36
1067.08
1054.82
1050.9
1065.97
1067.73
1057.88
1052.58
1061.11
675.016
537.429
517.136
487.543
447.7
421.206
412.269
417.639
400.269
422.411
435.355
430.29
418.267
410.273
402.133
404.432
402.42
414.439
422.571
442.329
461.757
484.288
502.02
508.505
503.165
487.737
470.283
456.114
446.357
439.081
433.515
428.438
423.388
417.757
412.58
404.421
399.988
393.229
414.529
418.364
422.924
433.933
445.875
450.962
444.564
433.096
423.901
417.641
413.742
409.826
408.178
404.652
404.05
401.246
401.044
398.895
398.683
396.91
396.761
395.055
394.942
393.197
393.296
391.315
391.418
389.511
388.965
387.426
391.829
391.125
390.372
389.183
388.776
387.974
387.763
387.164
387.061
386.577
386.532
386.122
386.104
385.777
385.776
385.51
385.441
385.401
385.176
385.221
385.028
385.057
384.905
384.93
384.805
384.828
384.718
384.75
384.655
384.762
384.643
384.526
384.49
384.492
384.464
384.46
384.448
384.441
384.433
384.425
384.421
384.415
384.412
384.409
384.407
384.404
384.404
384.4
384.403
384.399
384.402
384.396
384.399
384.394
384.398
384.394
384.397
384.393
384.399
384.508
384.511
384.394
384.393
384.394
384.398
384.392
384.396
384.391
384.396
384.39
384.396
384.391
384.396
384.391
384.395
384.392
384.395
384.392
384.395
384.391
384.396
384.391
384.396
384.392
384.398
384.393
384.397
384.393
384.396
384.505
384.505
384.396
384.398
384.394
384.398
384.392
384.396
384.39
384.396
384.39
384.396
384.391
384.395
384.392
384.396
384.392
384.395
384.392
384.395
384.391
384.396
384.391
384.396
384.392
384.398
384.393
384.397
384.394
384.396
384.505
384.501
384.392
384.394
384.398
384.393
384.397
384.391
384.395
384.391
384.395
384.39
384.395
384.391
384.395
384.392
384.395
384.392
384.396
384.394
384.393
384.394
384.392
384.396
384.391
384.396
384.392
384.397
384.391
384.397
384.51
384.503
384.396
384.398
384.394
384.398
384.391
384.396
384.39
384.395
384.39
384.395
384.391
384.395
384.391
384.395
384.392
384.395
384.391
384.395
384.391
384.396
384.392
384.397
384.392
384.398
384.393
384.396
384.394
384.396
384.505
384.51
384.395
384.392
384.392
384.396
384.391
384.396
384.391
384.396
384.391
384.396
384.39
384.396
384.392
384.394
384.393
384.392
384.395
384.391
384.396
384.39
384.396
384.391
384.396
384.392
384.397
384.393
384.39
384.395
384.511
384.503
384.395
384.397
384.393
384.398
384.391
384.397
384.39
384.396
384.39
384.395
384.39
384.395
384.392
384.395
384.392
384.395
384.391
384.396
384.391
384.395
384.391
384.396
384.391
384.397
384.392
384.395
384.393
384.394
384.502
1006.34
1029.35
1042.06
1056.57
1064.51
1071.44
1071.19
1062.79
1049.78
1019.08
971.805
920.507
831.186
449.916
738.507
912.224
983.713
1040.33
1058.6
1054
1030.36
1029.16
1052.64
1067.39
1079.9
1089.96
1098.8
1107.22
1111.87
1113.31
1108.8
1101.46
1090.5
1078.9
1067.8
1058.3
1051.23
1042.21
1018.25
978.033
939.462
507.665
415.858
426.594
416.931
441.329
461.34
463.412
456.921
499.939
630.83
823.075
885.602
993.685
1074.94
1098.34
1107.08
1107.55
1095.77
1079.78
1068.49
1065.91
1074.68
1063.27
1059.84
1063.31
1085.96
744.07
568.596
517.999
484.691
444.584
417.981
413.941
410.164
425.173
429.68
425.617
418.692
410.085
401.36
407.043
407.842
420.109
429.147
445.678
463.906
483.432
499.711
511.077
513.65
508.794
496.038
481.303
468.486
458.944
451.485
444.762
438.544
431.899
425.381
416.304
406
398.739
407.869
406.186
411.285
425.819
444.645
459.955
462.001
453.255
442.514
434.598
429.989
425.498
423.128
419.083
418.102
414.762
414.192
411.728
411.228
409.008
408.802
406.436
406.658
403.899
404.368
401.502
401.77
399.015
398.419
396.046
405.347
405.09
402.965
401.825
400.3
399.642
398.745
398.304
397.726
397.437
397.031
396.763
396.495
396.255
396.099
395.875
395.75
395.645
395.445
395.455
395.238
395.278
395.073
395.128
394.944
394.995
394.83
394.859
394.728
394.83
394.895
394.673
394.681
394.628
394.631
394.6
394.607
394.582
394.585
394.569
394.573
394.562
394.563
394.557
394.558
394.553
394.555
394.55
394.553
394.55
394.55
394.546
394.546
394.542
394.542
394.537
394.534
394.525
394.526
394.644
394.645
394.522
394.523
394.531
394.538
394.539
394.542
394.54
394.541
394.541
394.542
394.542
394.543
394.542
394.543
394.542
394.543
394.542
394.543
394.541
394.542
394.54
394.542
394.541
394.541
394.537
394.533
394.525
394.524
394.64
394.64
394.525
394.526
394.532
394.537
394.538
394.541
394.539
394.541
394.541
394.543
394.542
394.542
394.542
394.543
394.542
394.542
394.542
394.543
394.541
394.542
394.54
394.542
394.54
394.541
394.536
394.533
394.525
394.524
394.64
394.637
394.521
394.525
394.533
394.536
394.539
394.54
394.541
394.539
394.541
394.541
394.542
394.541
394.542
394.542
394.543
394.542
394.544
394.544
394.542
394.542
394.541
394.543
394.54
394.54
394.536
394.532
394.523
394.523
394.645
394.639
394.523
394.527
394.532
394.537
394.538
394.541
394.54
394.541
394.54
394.542
394.542
394.542
394.542
394.542
394.542
394.542
394.542
394.543
394.542
394.542
394.541
394.543
394.541
394.541
394.536
394.531
394.525
394.524
394.64
394.645
394.523
394.525
394.53
394.536
394.538
394.541
394.54
394.542
394.541
394.542
394.541
394.542
394.542
394.542
394.542
394.542
394.543
394.541
394.543
394.541
394.542
394.541
394.542
394.539
394.538
394.533
394.523
394.522
394.645
394.64
394.524
394.526
394.532
394.537
394.538
394.541
394.54
394.542
394.541
394.542
394.542
394.544
394.543
394.545
394.543
394.544
394.542
394.543
394.542
394.543
394.542
394.542
394.54
394.54
394.534
394.526
394.51
394.484
394.602
1052.55
1066.94
1076.12
1080.81
1081.98
1084.81
1089.16
1089.63
1081.81
1040.47
956.404
889.469
820.781
520.618
748.166
817.431
885.055
930.523
962.576
1012.8
1042.66
1024.99
987.979
980.537
999.481
1037.7
1061.89
1076.97
1088.24
1099.41
1109.6
1115.9
1119
1114.72
1106.06
1097.23
1084.52
1072.5
1062.03
1055.33
1048.11
1023.85
991.624
720.679
444.889
423.496
423.753
419.974
422.73
444.104
458.515
459.395
456.395
607.7
797.631
844.429
926.53
1037.86
1085.77
1109.21
1123.42
1128.49
1128.38
1113.44
1088.68
1078.88
1074.71
1079.11
1075.96
1073.05
1077.14
1097.09
759.215
571.97
517.506
480.984
437.003
404.779
391.23
383.732
400.621
410.1
406.178
403.571
405.554
402.509
407.903
415.824
422.592
436.806
447.409
460.721
474.616
489.413
502.277
511.678
516.993
517.827
513.256
503.548
491.772
480.774
471.805
464.616
457.891
450.473
442.49
431.051
415.545
399.505
388.281
393.233
397.79
402.593
414.766
429.152
448.525
464.964
472.618
468.531
460.096
452.307
447.089
443.204
439.838
436.51
434.771
431.712
430.977
428.238
428.032
425.504
425.475
423.024
423.181
420.586
420.78
417.944
417.726
414.544
412.937
409.168
413.119
415.427
420.68
421.307
420.254
417.653
417.084
415.494
415.322
414.286
414.155
413.429
413.388
412.795
412.813
412.327
412.363
411.979
411.989
411.724
411.677
411.521
411.427
411.343
411.241
411.188
411.087
411.048
410.94
410.904
410.826
411.311
411.888
411.939
411.451
410.867
410.729
410.725
410.668
410.672
410.644
410.64
410.621
410.611
410.605
410.597
410.59
410.59
410.582
410.579
410.579
410.575
410.576
410.571
410.571
410.568
410.568
410.563
410.561
410.555
410.553
410.551
410.599
411.205
411.748
411.748
411.205
410.594
410.548
410.549
410.554
410.556
410.561
410.561
410.562
410.561
410.563
410.563
410.565
410.564
410.564
410.564
410.565
410.564
410.564
410.562
410.563
410.561
410.562
410.56
410.559
410.554
410.55
410.549
410.596
411.202
411.748
411.748
411.202
410.597
410.552
410.549
410.554
410.556
410.561
410.56
410.562
410.561
410.563
410.563
410.564
410.564
410.564
410.564
410.564
410.563
410.564
410.562
410.563
410.561
410.562
410.56
410.559
410.553
410.55
410.55
410.596
411.201
411.748
411.748
411.199
410.593
410.551
410.552
410.553
410.557
410.559
410.562
410.561
410.562
410.561
410.564
410.563
410.564
410.564
410.565
410.564
410.566
410.565
410.563
410.562
410.563
410.562
410.56
410.558
410.553
410.55
410.55
410.597
411.205
411.748
411.748
411.201
410.596
410.553
410.549
410.554
410.555
410.56
410.56
410.562
410.56
410.563
410.563
410.564
410.564
410.564
410.564
410.564
410.563
410.564
410.562
410.563
410.562
410.563
410.56
410.559
410.554
410.549
410.55
410.596
411.202
411.748
411.748
411.205
410.594
410.55
410.548
410.553
410.556
410.561
410.561
410.562
410.561
410.563
410.563
410.564
410.564
410.564
410.564
410.564
410.564
410.563
410.563
410.561
410.562
410.561
410.561
410.557
410.554
410.551
410.548
410.595
411.206
411.747
411.747
411.202
410.597
410.552
410.549
410.554
410.556
410.561
410.56
410.561
410.56
410.561
410.56
410.562
410.563
410.564
410.564
410.565
410.564
410.565
410.562
410.563
410.56
410.562
410.557
410.557
410.552
410.548
410.549
410.596
411.199
411.714
411.258
1087.25
1097.06
1101.7
1099.86
1096.18
1097.9
1108.07
1112.05
1112.23
1093.2
1025.69
909.438
819.164
743.783
751.081
832.438
928.46
948.176
971.025
1015.06
1013.6
980.463
967.986
974.079
987.899
1004.87
1029.79
1057.31
1075.02
1090.08
1104.08
1115.32
1121.55
1123.84
1119.43
1111.4
1102.38
1089.68
1075.77
1064.2
1062.23
1054.04
1045.68
1002.97
630.189
467.878
442.786
442.168
440.783
452.519
464.522
470.401
478.821
883.876
831.919
865.316
977.714
1069.1
1095.66
1118.78
1130.68
1137.92
1144.54
1142.08
1120.59
1098.72
1089.82
1089.81
1092.28
1092.29
1090.78
1092.66
1095.14
692.846
550.835
520.764
484.382
444.202
410.799
414.372
404.682
408.189
410.062
412.609
415.045
427.088
430.908
445.348
453.011
463.437
472.926
481.83
490.694
499.833
507.862
514.227
518.405
520.223
519.933
516.642
509.716
501.152
492.35
484.175
476.968
469.523
460.884
451.087
437.133
426.185
402.105
406.136
406.905
416.477
428.556
444.556
460.449
474.26
481.045
480.548
474.957
469.308
464.088
460.345
457.018
453.885
450.791
449.033
446.51
444.468
443.739
440.978
441.023
438.076
438.354
435.277
435.538
432.498
432.711
429.545
429.609
425.365
428.768
428.739
434.264
434.665
434.259
432.066
431.413
430.122
429.72
428.631
428.591
427.621
427.639
426.928
426.879
426.402
426.343
425.955
425.963
425.624
425.637
425.368
425.374
425.155
425.166
424.98
424.98
424.837
424.805
424.71
424.685
424.646
425.222
425.233
424.735
424.626
424.571
424.556
424.503
424.508
424.486
424.471
424.462
424.454
424.441
424.443
424.433
424.432
424.429
424.428
424.424
424.424
424.42
424.419
424.415
424.415
424.412
424.41
424.404
424.4
424.396
424.398
424.405
424.465
425.061
425.06
424.463
424.401
424.394
424.394
424.397
424.401
424.405
424.407
424.408
424.408
424.409
424.41
424.412
424.412
424.412
424.412
424.413
424.411
424.411
424.409
424.408
424.407
424.407
424.405
424.401
424.397
424.394
424.396
424.403
424.462
425.06
425.06
424.462
424.404
424.396
424.394
424.397
424.4
424.405
424.406
424.408
424.408
424.409
424.41
424.411
424.412
424.412
424.412
424.412
424.411
424.411
424.409
424.408
424.407
424.406
424.405
424.401
424.396
424.394
424.396
424.403
424.462
425.06
425.06
424.461
424.401
424.396
424.395
424.396
424.401
424.404
424.407
424.407
424.408
424.409
424.411
424.411
424.413
424.412
424.412
424.412
424.412
424.411
424.409
424.408
424.409
424.407
424.404
424.401