/*--------------------------------*- C++ -*----------------------------------*\
| =========                 |                                                 |
| \\      /  F ield         | OpenFOAM: The Open Source CFD Toolbox           |
|  \\    /   O peration     | Version:  2.1.1                                 |
|   \\  /    A nd           | Web:      www.OpenFOAM.org                      |
|    \\/     M anipulation  |                                                 |
\*---------------------------------------------------------------------------*/
FoamFile
{
    version     2.0;
    format      ascii;
    class       volScalarField;
    location    "0.002050000";
    object      H2;
}
// * * * * * * * * * * * * * * * * * * * * * * * * * * * * * * * * * * * * * //

dimensions      [0 0 0 0 0 0 0];

internalField   nonuniform List<scalar> 
12384
(
0.000363827
0.000444573
0.000505498
0.000423747
0.000340286
0.000543794
0.0242257
0.0238026
0.0236394
0.0247103
0.026355
0.0278743
0.0290567
0.0290522
0.0228785
0.020236
0.0191015
0.0191324
0.0191352
0.0187747
0.0179315
0.0175385
0.0175942
0.017588
0.0174685
0.0175792
0.0175966
0.0179031
0.0179896
0.0180432
0.0180995
0.0181612
0.0181028
0.0181656
0.0184835
0.0186363
0.0195137
0.0213784
0.0248713
0.0265
0.0286652
0.0293327
0.0292973
0.0291547
0.0261088
0.0231988
0.020047
0.0190234
0.0193174
0.0201537
0.0219777
0.0240791
0.0253183
0.0256278
0.0257008
0.0258396
0.0261162
0.026244
0.026195
0.025585
0.0234311
0.0209869
0.0185951
0.0169039
0.0184872
0.0188873
0.0219733
0.0229025
0.0261199
0.0273179
0.029012
0.0292828
0.0292032
0.0291361
0.0272458
0.0260445
0.0246298
0.0229452
0.0215185
0.0206641
0.0201285
0.0195488
0.0192237
0.0192058
0.019162
0.0194968
0.0199721
0.0208545
0.0218337
0.0231158
0.0243571
0.025552
0.0265879
0.0274824
0.0282307
0.0288392
0.0289516
0.0291215
0.0290667
0.0290682
0.0290906
0.0290951
0.0291006
0.0290815
0.027671
0.0271866
0.0272434
0.0273573
0.0274973
0.0276972
0.0279408
0.0282381
0.0284609
0.0286952
0.0288125
0.0289567
0.0289804
0.0290685
0.0290175
0.0290637
0.0290341
0.0290638
0.0290288
0.0290636
0.029041
0.0290572
0.0290439
0.0290615
0.0290451
0.0290626
0.0290475
0.0290608
0.0290483
0.0290751
0.029072
0.0290503
0.0290452
0.0290492
0.029044
0.0290475
0.0290423
0.0290459
0.0290408
0.0290422
0.0290389
0.0290379
0.0290351
0.0290318
0.0290315
0.029029
0.0290324
0.0290307
0.0290356
0.0290329
0.0290374
0.0290344
0.0290387
0.0290358
0.0290399
0.0290371
0.02904
0.0290381
0.0290402
0.0290739
0.0290742
0.0290379
0.0290365
0.0290349
0.0290349
0.0290336
0.0290323
0.0290307
0.0290293
0.0290275
0.0290262
0.0290243
0.0290221
0.0290199
0.0290183
0.0290179
0.029019
0.0290214
0.0290242
0.0290261
0.0290277
0.0290291
0.0290301
0.0290312
0.0290322
0.0290332
0.029034
0.0290351
0.0290368
0.0290741
0.0290741
0.0290369
0.0290349
0.0290336
0.0290323
0.0290312
0.0290299
0.0290288
0.0290276
0.0290265
0.0290253
0.0290238
0.0290215
0.0290195
0.0290178
0.0290179
0.0290193
0.0290215
0.0290238
0.0290253
0.0290265
0.0290278
0.0290289
0.0290302
0.0290313
0.0290324
0.0290334
0.0290346
0.0290368
0.029074
0.0290741
0.029037
0.0290351
0.0290337
0.0290326
0.0290315
0.0290305
0.0290293
0.0290282
0.0290269
0.0290258
0.0290242
0.0290217
0.0290195
0.0290178
0.029018
0.0290193
0.0290215
0.0290237
0.0290253
0.0290265
0.0290278
0.029029
0.0290303
0.0290314
0.0290325
0.0290335
0.0290346
0.0290368
0.029074
0.029074
0.0290373
0.0290351
0.0290334
0.0290323
0.0290311
0.0290298
0.0290287
0.0290276
0.0290265
0.0290254
0.0290239
0.029022
0.0290199
0.0290183
0.0290177
0.029019
0.0290214
0.0290242
0.0290259
0.029027
0.0290286
0.0290298
0.029031
0.0290319
0.0290331
0.0290341
0.0290354
0.0290371
0.0290741
0.029074
0.0290368
0.0290348
0.0290336
0.0290324
0.0290313
0.0290302
0.029029
0.029028
0.0290267
0.0290256
0.0290241
0.0290217
0.0290197
0.0290179
0.0290178
0.0290191
0.0290214
0.0290236
0.0290253
0.0290266
0.0290279
0.029029
0.0290304
0.0290315
0.0290326
0.0290335
0.0290346
0.0290367
0.029074
0.0290741
0.0290365
0.0290347
0.0290339
0.0290329
0.029032
0.0290306
0.0290293
0.029028
0.0290266
0.0290254
0.0290237
0.0290214
0.0290195
0.0290178
0.0290178
0.0290194
0.0290214
0.0290238
0.0290254
0.0290266
0.0290279
0.029029
0.0290302
0.0290314
0.0290324
0.0290336
0.0290348
0.0290365
0.0290741
0.029074
0.0290367
0.0290346
0.0290332
0.0290321
0.029031
0.0290301
0.029029
0.0290281
0.0290269
0.0290259
0.0290243
0.0290223
0.02902
0.0290181
0.0290178
0.029019
0.0290213
0.0290235
0.0290251
0.0290265
0.0290279
0.0290292
0.0290304
0.0290316
0.0290326
0.0290336
0.0290345
0.0290366
0.029074
0.000263855
0.000181176
0.000132084
9.46714e-05
4.56909e-05
6.02129e-05
0.0187837
0.0183289
0.0166455
0.0172589
0.0193484
0.0219432
0.02472
0.0272277
0.0187725
0.0159714
0.0168539
0.0176397
0.0165547
0.0134285
1.25068e-05
1.20697e-05
1.19516e-05
1.04105e-05
1.20925e-05
1.13651e-05
1.01737e-05
0.00922133
0.0122112
0.0135349
0.0141425
0.0146911
0.0147683
0.0151574
0.0147285
0.0134915
0.0132517
0.0126509
0.0151598
0.017146
0.0226108
0.0266645
0.0293441
0.0293463
0.0236209
0.0185952
0.017859
0.0210472
0.0254906
0.0292685
0.0300953
0.0283661
0.0259907
0.0247768
0.0243603
0.0248789
0.0258614
0.0275746
0.0302925
0.0330852
0.0359203
0.0374414
0.032159
0.0249527
0.0157795
0.0113812
0.0117384
0.0122989
0.0162329
0.0184321
0.0233747
0.0275116
0.0290565
0.0292773
0.020588
0.0168661
0.014401
0.0138793
0.0136254
0.0143686
0.0145143
0.0163012
0.0162341
0.0161714
0.0149478
0.0134698
0.0122228
0.0115052
0.0114007
0.0114757
0.0117794
0.0126579
0.013516
0.0151391
0.0166211
0.0190647
0.0217676
0.0244982
0.0265885
0.0276299
0.0282599
0.0285205
0.0286179
0.0287898
0.0151302
0.0142662
0.0143871
0.0145984
0.0148181
0.0152913
0.0158698
0.0167176
0.0175657
0.0185359
0.0195264
0.0203829
0.0214025
0.021997
0.0229332
0.0233427
0.0242413
0.0246004
0.0253488
0.0256571
0.0263016
0.026479
0.0269262
0.0271448
0.0273306
0.0275651
0.0275838
0.0276896
0.0276709
0.0284444
0.0260878
0.0255093
0.0255011
0.0256655
0.0258827
0.0260692
0.0262335
0.0264057
0.0264988
0.0266401
0.0266637
0.0267794
0.0267379
0.0268257
0.0267554
0.0268744
0.0268534
0.0269912
0.026981
0.027079
0.0270615
0.0271388
0.0271299
0.0271878
0.0271881
0.0272307
0.0272309
0.027241
0.0272693
0.0283126
0.0283007
0.0271824
0.0271524
0.0271188
0.0271086
0.0270949
0.0270488
0.0270409
0.0269937
0.0269861
0.0269396
0.0269317
0.026876
0.0268514
0.0268106
0.0268171
0.026822
0.0268838
0.026919
0.0269709
0.0269874
0.0270335
0.0270384
0.0270767
0.0270811
0.0271173
0.027117
0.0271476
0.0271804
0.0283314
0.0283323
0.0271722
0.0271201
0.0271107
0.0270749
0.0270693
0.027028
0.0270222
0.0269836
0.0269776
0.0269383
0.0269291
0.0268747
0.0268451
0.0268051
0.0268163
0.0268301
0.0268865
0.0269125
0.0269536
0.0269623
0.0270037
0.0270097
0.0270502
0.027059
0.0270967
0.0271051
0.0271297
0.0271861
0.0282939
0.0282971
0.0271957
0.0271308
0.0271244
0.0270876
0.0270823
0.0270422
0.0270369
0.0269982
0.0269912
0.0269506
0.0269372
0.02688
0.026846
0.0268057
0.0268177
0.026831
0.0268858
0.0269116
0.0269528
0.0269618
0.0270036
0.02701
0.0270509
0.0270598
0.0270974
0.0271058
0.0271299
0.0271867
0.0282937
0.0282928
0.0271853
0.0271328
0.0270978
0.0270913
0.0270532
0.0270458
0.0270068
0.0270025
0.0269641
0.026958
0.026919
0.0268971
0.0268414
0.0268256
0.0268043
0.0268361
0.0268703
0.0269339
0.026964
0.0269838
0.0270257
0.0270346
0.0270736
0.0270783
0.027115
0.0271155
0.0271479
0.0271796
0.0283319
0.0282916
0.0271914
0.0271265
0.0271198
0.0270835
0.0270783
0.0270383
0.0270326
0.0269941
0.0269877
0.0269481
0.0269362
0.0268816
0.0268491
0.0268073
0.0268159
0.0268279
0.0268828
0.0269103
0.0269523
0.0269619
0.0270045
0.0270115
0.0270525
0.0270618
0.0270995
0.0271078
0.0271296
0.0271873
0.0282943
0.028334
0.0271751
0.02713
0.0271218
0.0270879
0.0270811
0.0270381
0.0270302
0.0269886
0.0269797
0.0269372
0.0269263
0.0268727
0.0268442
0.026809
0.0268089
0.0268416
0.0268737
0.0269285
0.0269401
0.0269813
0.026989
0.0270291
0.027036
0.0270769
0.0270819
0.0271177
0.0271264
0.0271736
0.0283336
0.0282962
0.0271895
0.0271213
0.0271145
0.0270751
0.0270712
0.0270294
0.0270266
0.026987
0.0269852
0.0269443
0.0269362
0.0268848
0.0268557
0.0268109
0.0268157
0.026827
0.0268805
0.0269088
0.0269499
0.026959
0.0270019
0.0270087
0.0270509
0.0270592
0.0270982
0.0271077
0.0271297
0.0271873
0.0282947
0.000120146
1.60666e-05
4.20536e-06
1.63335e-06
5.31762e-07
0.010485
0.011617
0.0104016
0.00977741
0.0111315
0.0124662
0.0140348
0.016747
0.0214526
0.0142416
0.0159381
0.0151552
0.0127279
6.0551e-07
1.37674e-05
2.81606e-05
2.70656e-05
2.83606e-05
2.7952e-05
1.94839e-05
1.41239e-05
1.20892e-05
1.04223e-05
9.47655e-06
4.1565e-06
5.52855e-06
3.93396e-06
1.20485e-06
0.00978321
0.0138387
0.0140582
0.0125843
0.0113437
0.010496
0.0109999
0.0138307
0.019864
0.0275878
0.02932
0.0192714
0.015886
0.0201453
0.0261449
0.0302824
0.0300721
0.0253379
0.0213395
0.0194067
0.0173232
0.0149117
0.0135625
0.0132147
0.0131508
0.0150115
0.0189588
0.0258026
0.0348556
0.0444437
0.0473968
0.0384162
0.0246237
0.014346
0.0100358
0.0103043
0.0102003
0.0140156
0.0205764
0.0265183
0.0287441
0.0118664
0.0106926
0.0117291
0.015517
0.0203039
0.0258213
0.0303746
0.0330894
0.0353696
0.0351287
0.0338302
0.0308316
0.024635
0.0187388
0.0144128
0.0118855
0.0105532
0.00960473
0.00915209
0.0087733
0.00859923
0.00851942
0.00852544
0.00897035
0.0102196
0.0126039
0.0154109
0.0181594
0.0201005
0.0213869
0.00847002
0.00898378
0.00910495
0.00903511
0.00898331
0.00886146
0.00878183
0.00866237
0.0086658
0.0085747
0.00863448
0.00860373
0.00865987
0.00868712
0.00871351
0.00878396
0.00874048
0.00882754
0.00870336
0.00880012
0.0087056
0.00878096
0.00882808
0.00882367
0.00904128
0.00907108
0.00939727
0.0094608
0.00974504
0.0091118
0.00793614
0.00858737
0.00875354
0.00872221
0.00877307
0.00875525
0.00880234
0.00880096
0.00884363
0.00885599
0.00889374
0.00892132
0.00896698
0.00901885
0.00902884
0.00906128
0.00901357
0.00902193
0.00895884
0.00898419
0.00893203
0.00895736
0.00890926
0.00893203
0.00889109
0.00890738
0.00887949
0.008896
0.00886926
0.00796344
0.00795325
0.00889948
0.00893675
0.00896174
0.00896667
0.00898945
0.00901309
0.00903472
0.00905605
0.00907724
0.0090992
0.00911985
0.00915251
0.00918578
0.00920854
0.00921501
0.00920032
0.00916191
0.00912241
0.00909371
0.00907012
0.00904645
0.00903149
0.00901567
0.00900185
0.0089874
0.00897727
0.00895995
0.00891581
0.00795518
0.00795711
0.00892852
0.00896983
0.00899089
0.00900663
0.00902128
0.00903904
0.00905387
0.00906983
0.00908598
0.00910374
0.00912347
0.00915648
0.00919218
0.00921442
0.0092157
0.00919327
0.00915826
0.00912444
0.00910394
0.00908562
0.00906674
0.00905058
0.00903417
0.00901646
0.00900087
0.00898438
0.00896863
0.00892953
0.00795572
0.00795598
0.00891918
0.00896396
0.00898296
0.00899678
0.00901163
0.00902754
0.00904284
0.00905859
0.00907621
0.00909478
0.00911798
0.00915338
0.0091924
0.00921449
0.00921516
0.00919302
0.00915926
0.00912571
0.00910501
0.00908632
0.00906704
0.00905054
0.00903373
0.00901576
0.00900012
0.0089838
0.00896853
0.00892937
0.00795571
0.00795513
0.00892735
0.00897176
0.0089923
0.00900651
0.00902201
0.00903796
0.00905328
0.00906791
0.009084
0.00910064
0.0091198
0.00915011
0.0091846
0.00920871
0.00921635
0.00920164
0.009163
0.00911881
0.00908991
0.00907676
0.00905219
0.00903438
0.00901797
0.00900355
0.00898877
0.00897762
0.00896063
0.00891763
0.00795532
0.00795622
0.00892494
0.00896778
0.00898617
0.00899955
0.00901425
0.00903022
0.009046
0.00906159
0.0090784
0.00909637
0.00911829
0.00915155
0.00918947
0.00921298
0.00921647
0.00919553
0.00916171
0.00912683
0.00910566
0.00908664
0.00906674
0.00904986
0.00903287
0.00901464
0.00899829
0.00898176
0.00896786
0.00892836
0.00795568
0.00795629
0.00892781
0.00896872
0.00897926
0.0089968
0.00901306
0.0090325
0.00904914
0.00906727
0.0090857
0.00910511
0.00912599
0.00915777
0.00919222
0.00921595
0.00921546
0.00919383
0.00915726
0.0091243
0.00910298
0.00908416
0.00906674
0.00904944
0.00903383
0.00901563
0.0090011
0.00898436
0.00896854
0.00892977
0.00795658
0.00795634
0.00892679
0.00897216
0.00899086
0.00900521
0.00901951
0.00903522
0.00905001
0.00906453
0.00907968
0.00909718
0.00911786
0.00914742
0.00918425
0.00920966
0.00921795
0.0091976
0.00916432
0.00912887
0.0091083
0.00908899
0.00906884
0.00905132
0.0090337
0.00901571
0.008999
0.00898193
0.00896847
0.00892921
0.00795572
1.38365e-05
5.45802e-07
4.81681e-08
1.54387e-08
3.62372e-09
3.30981e-05
1.95063e-05
2.44029e-05
3.67187e-05
0.00643633
0.00885254
0.00999927
0.0115819
0.014307
0.0135937
0.0152027
3.44682e-05
0.000103559
0.000264624
0.000457108
0.00056102
0.000691229
0.000501426
0.000338748
0.00024364
0.000225216
0.000365884
0.000891327
0.000750685
0.000709868
0.000567167
0.000129908
9.06813e-06
4.13058e-06
9.86232e-06
1.20684e-05
5.71491e-06
0.00866529
0.0126136
0.0108394
0.0103345
0.0129569
0.0220403
0.0284018
0.0162158
0.0164677
0.0237136
0.0298116
0.0315924
0.0276697
0.022341
0.0202431
0.0173874
0.0125407
2.55995e-05
3.20196e-05
4.40966e-05
5.4682e-05
4.51073e-05
1.91765e-05
0.0109754
0.0169533
0.0281711
0.0426126
0.0527046
0.050999
0.0325108
0.0194166
0.0117983
0.010082
0.00946655
0.0132777
0.0209891
0.0263827
0.0101872
0.0124563
0.0185731
0.026157
0.0330838
0.0364453
0.0373125
0.0374882
0.0389836
0.0411295
0.0448682
0.0474566
0.046818
0.0408457
0.0314001
0.0235482
0.0183831
0.0153935
0.0134795
0.0121685
0.0110788
0.0101875
0.00945573
0.00905356
0.00869769
0.0086889
0.00885714
0.00970737
0.010803
0.0117182
0.0119987
0.0148575
0.0151401
0.0148063
0.0138926
0.01291
0.012052
0.0113669
0.0107591
0.0103401
0.00992361
0.00969097
0.00942228
0.00929506
0.00913957
0.00906402
0.00896701
0.00891927
0.00884447
0.00881241
0.00876392
0.00872042
0.00870753
0.00865082
0.00866219
0.00860428
0.00864408
0.00859904
0.00860827
0.00846272
0.00879823
0.00885151
0.0087991
0.00881282
0.00876074
0.00876301
0.00872813
0.00872651
0.00870131
0.00870185
0.00868349
0.0086863
0.008673
0.00867775
0.00866779
0.00867106
0.00866245
0.00866427
0.00865699
0.00865987
0.00865428
0.00865683
0.00865299
0.00865446
0.00865246
0.00865293
0.00865283
0.00865201
0.00864639
0.00848919
0.00849178
0.00865147
0.00866357
0.0086626
0.00866388
0.00866573
0.0086656
0.00866836
0.00866757
0.00867068
0.00866964
0.00867292
0.00867213
0.00867599
0.00867471
0.0086774
0.00867422
0.00867494
0.00867067
0.00867212
0.00866849
0.00867017
0.00866673
0.00866875
0.00866529
0.00866754
0.00866411
0.00866579
0.00865343
0.00848665
0.00848684
0.00865382
0.00866329
0.00866685
0.00866546
0.00866865
0.00866688
0.0086701
0.00866826
0.00867149
0.00866982
0.00867308
0.00867219
0.00867611
0.00867508
0.00867726
0.00867396
0.00867451
0.00867079
0.00867219
0.00866907
0.00867062
0.00866762
0.00866917
0.00866615
0.00866761
0.00866455
0.00866441
0.008653
0.00848999
0.00848959
0.00865362
0.00866304
0.0086669
0.00866523
0.00866834
0.00866662
0.00866973
0.00866799
0.00867113
0.00866957
0.00867284
0.00867209
0.0086761
0.00867509
0.0086772
0.00867394
0.00867453
0.00867084
0.00867221
0.00866908
0.00867061
0.00866761
0.00866915
0.00866612
0.00866757
0.00866455
0.0086644
0.00865295
0.00849001
0.00849032
0.00865302
0.00866556
0.00866463
0.00866804
0.00866613
0.00866942
0.00866753
0.00867072
0.0086689
0.00867212
0.00867054
0.00867418
0.0086735
0.00867685
0.00867512
0.00867645
0.00867251
0.00867254
0.00866968
0.00866863
0.00867018
0.00866693
0.00866873
0.00866544
0.00866749
0.00866416
0.00866571
0.00865331
0.00848681
0.00849
0.00865349
0.00866315
0.00866706
0.00866536
0.00866846
0.00866675
0.00866984
0.00866809
0.0086712
0.00866961
0.00867285
0.008672
0.00867596
0.00867502
0.00867726
0.00867408
0.00867465
0.00867088
0.00867224
0.00866911
0.00867059
0.00866759
0.0086691
0.00866609
0.00866744
0.00866447
0.00866422
0.00865305
0.00848988
0.00848694
0.00865338
0.00866517
0.00866662
0.00866505
0.00866858
0.00866662
0.00867007
0.00866813
0.00867152
0.00866978
0.00867313
0.00867215
0.00867603
0.00867512
0.00867513
0.00867608
0.00867217
0.00867303
0.00866974
0.00867144
0.00866815
0.00867004
0.00866674
0.00866861
0.00866532
0.00866688
0.00866403
0.00865354
0.00848697
0.00848971
0.00865364
0.00866323
0.00866722
0.00866541
0.00866871
0.00866682
0.0086701
0.00866812
0.0086714
0.00866953
0.00867294
0.00867177
0.00867585
0.00867478
0.0086774
0.00867423
0.00867486
0.00867108
0.00867255
0.0086694
0.00867098
0.00866788
0.00866946
0.00866637
0.00866769
0.00866468
0.00866442
0.00865305
0.00848992
5.94843e-07
2.00298e-07
7.10887e-08
2.92346e-08
3.5191e-08
7.74684e-08
9.03123e-07
3.40397e-07
3.29926e-07
3.88169e-06
4.2008e-05
0.00794507
0.00975142
0.0100395
0.0146997
0.0106581
0.000833887
0.00108192
0.00206946
0.00374177
0.00466541
0.0049746
0.0045449
0.00400606
0.00432798
0.00597166
0.00822165
0.00994572
0.008966
0.00837998
0.00718688
0.00314662
0.000321527
0.000236055
0.00021736
0.000148652
4.84881e-05
2.13542e-05
0.0131511
0.0136822
0.01086
0.0106163
0.016339
0.0263498
0.013558
0.018023
0.0269459
0.0315869
0.0304758
0.0260591
0.023046
0.0196805
1.14978e-05
2.14482e-05
3.5023e-05
5.8691e-05
8.78465e-05
0.000126583
0.000198039
0.00032975
0.000242331
0.000109357
7.02431e-05
0.0254885
0.0432351
0.0561543
0.0529096
0.0395998
0.0216581
0.0132169
0.0101093
0.00974926
0.0146514
0.0220564
0.0114798
0.0190931
0.0281755
0.033526
0.0334044
0.0297538
0.0248354
0.0239186
0.0251316
0.0287434
0.0353258
0.0438581
0.0515361
0.0544178
0.0505349
0.0405427
0.0310015
0.0242806
0.020272
0.0176752
0.0158406
0.0143136
0.0130435
0.0118984
0.0109454
0.0101147
0.00946156
0.00918202
0.00911935
0.00904309
0.0170568
0.0237555
0.025495
0.0257025
0.023924
0.0212107
0.0186724
0.0167542
0.015461
0.0144738
0.0138045
0.0131856
0.0128254
0.012418
0.0122137
0.0119441
0.0117936
0.0116223
0.0114755
0.0114012
0.0112414
0.0112169
0.0110835
0.0110459
0.0109445
0.0108549
0.0107552
0.0106433
0.0105462
0.0104497
0.011481
0.0114573
0.0114224
0.011304
0.0112768
0.0111886
0.011165
0.0111001
0.0110883
0.0110427
0.0110335
0.0110064
0.010997
0.0109795
0.0109742
0.0109636
0.0109567
0.0109524
0.0109443
0.0109437
0.0109362
0.0109372
0.0109317
0.0109315
0.0109287
0.0109265
0.0109257
0.0109247
0.0109182
0.0109072
0.0109067
0.0109276
0.0109235
0.0109277
0.0109246
0.0109212
0.0109257
0.0109197
0.0109252
0.0109189
0.010925
0.0109189
0.0109252
0.0109197
0.0109254
0.0109199
0.0109254
0.0109195
0.0109251
0.0109192
0.0109252
0.0109186
0.0109248
0.010918
0.0109246
0.0109177
0.0109245
0.0109181
0.0109222
0.0109002
0.0109029
0.0109203
0.0109234
0.0109186
0.010925
0.0109183
0.010925
0.0109182
0.0109248
0.0109181
0.0109249
0.0109187
0.0109252
0.0109195
0.0109254
0.0109198
0.0109254
0.0109192
0.010925
0.0109186
0.0109248
0.0109186
0.0109251
0.0109188
0.0109251
0.010919
0.0109247
0.0109213
0.0109185
0.0109067
0.0109061
0.010918
0.0109249
0.0109185
0.0109251
0.0109183
0.0109249
0.0109183
0.0109248
0.0109183
0.010925
0.0109189
0.0109253
0.0109196
0.0109255
0.0109198
0.0109253
0.0109192
0.010925
0.0109186
0.0109248
0.0109186
0.0109251
0.0109188
0.0109252
0.0109191
0.0109247
0.0109215
0.0109185
0.0109067
0.0109046
0.0109177
0.0109193
0.0109246
0.0109181
0.0109247
0.0109179
0.0109247
0.0109179
0.0109246
0.0109182
0.0109248
0.0109189
0.0109251
0.0109195
0.0109253
0.0109197
0.0109254
0.0109207
0.0109229
0.010924
0.0109186
0.0109252
0.0109181
0.0109248
0.0109179
0.0109246
0.0109178
0.0109221
0.0109007
0.0109064
0.0109179
0.0109251
0.0109185
0.0109251
0.0109183
0.0109249
0.0109183
0.0109247
0.0109182
0.0109249
0.0109188
0.0109252
0.0109196
0.0109255
0.0109198
0.0109254
0.0109194
0.0109251
0.0109187
0.0109249
0.0109187
0.0109252
0.0109189
0.0109252
0.0109192
0.0109245
0.0109219
0.0109186
0.0109068
0.0109002
0.0109207
0.0109198
0.0109189
0.0109241
0.0109177
0.0109247
0.0109179
0.0109246
0.0109179
0.0109248
0.0109185
0.0109252
0.0109196
0.0109246
0.0109244
0.0109199
0.0109253
0.0109187
0.0109249
0.0109181
0.0109247
0.0109181
0.0109249
0.0109183
0.010925
0.0109191
0.0109207
0.0109205
0.0109014
0.0109061
0.0109178
0.010925
0.0109182
0.0109253
0.0109181
0.0109252
0.010918
0.010925
0.0109179
0.0109249
0.0109183
0.0109253
0.0109192
0.0109257
0.0109199
0.0109258
0.0109197
0.0109254
0.0109188
0.0109251
0.0109187
0.0109254
0.0109191
0.0109254
0.0109191
0.0109244
0.0109219
0.0109184
0.0109065
7.11921e-07
5.82303e-06
9.52728e-06
1.39509e-05
3.25763e-05
0.000110324
0.00026497
6.37475e-05
2.17614e-05
8.8962e-06
8.61026e-07
1.55568e-05
0.00854222
0.00929552
0.0159035
7.14454e-06
0.000634903
0.00414266
0.00535582
0.00559166
0.00563046
0.0063796
0.00760011
0.00892411
0.0110839
0.0142989
0.0175205
0.0188648
0.0188169
0.018
0.0161514
0.0113772
0.00568711
0.00322731
0.00199198
0.00091534
0.000303891
0.000122023
3.39039e-05
0.0153146
0.0138249
0.010966
0.0124964
0.0230002
0.012506
0.019967
0.0291484
0.0320402
0.0292784
0.0260952
0.0224041
0.0159429
3.18512e-05
2.07404e-05
8.29079e-05
0.000217287
0.00040586
0.000443204
0.000402957
0.000677644
0.00122726
0.00134219
0.00080247
0.000660754
0.0301983
0.0465269
0.0561592
0.0566697
0.0408958
0.0232161
0.0136073
0.0101162
0.0103364
0.0168102
0.0139406
0.0253085
0.0333689
0.0324706
0.0272392
0.0200851
0.0174631
0.0164531
0.0162464
0.0195112
0.0250688
0.0339458
0.0450902
0.0552117
0.0595589
0.056635
0.0472518
0.0373182
0.029958
0.0253922
0.022374
0.0200467
0.018035
0.0162325
0.014585
0.0131021
0.0117788
0.0105757
0.00966033
0.00920598
0.0229833
0.0307414
0.0332228
0.0356122
0.0366076
0.0334581
0.0287537
0.0246918
0.0219265
0.0201538
0.0189291
0.0179483
0.0172448
0.0166341
0.016202
0.0157649
0.0155044
0.0151361
0.014971
0.014665
0.0145461
0.0142822
0.014185
0.013929
0.0138518
0.0135792
0.0135269
0.0132445
0.0131672
0.0128046
0.0149838
0.0150692
0.0147631
0.0146711
0.0144279
0.0143519
0.0141896
0.0141317
0.0140193
0.01398
0.01391
0.0138763
0.013839
0.0138049
0.0137927
0.0137574
0.0137557
0.0137275
0.0137278
0.0137085
0.0137073
0.0136943
0.013693
0.0136841
0.0136818
0.013675
0.0136726
0.013667
0.0136555
0.0134885
0.0135211
0.0136735
0.0136819
0.0136791
0.0136767
0.0136733
0.0136749
0.0136717
0.0136732
0.0136713
0.0136725
0.0136714
0.0136728
0.0136721
0.0136731
0.0136723
0.0136731
0.013672
0.0136726
0.0136719
0.0136727
0.0136713
0.0136719
0.0136707
0.0136716
0.0136706
0.0136719
0.0136703
0.013661
0.013492
0.0134935
0.0136606
0.0136709
0.0136708
0.0136724
0.0136708
0.0136721
0.0136705
0.0136719
0.0136705
0.0136722
0.013671
0.0136728
0.0136717
0.0136731
0.0136718
0.013673
0.0136714
0.0136723
0.0136708
0.0136721
0.0136707
0.0136721
0.013671
0.0136726
0.0136713
0.0136726
0.0136711
0.0136603
0.0134918
0.0134913
0.0136607
0.0136721
0.0136713
0.0136725
0.0136707
0.0136719
0.0136704
0.0136717
0.0136706
0.0136721
0.0136711
0.0136727
0.0136718
0.0136731
0.0136717
0.0136729
0.0136714
0.0136723
0.0136708
0.013672
0.0136707
0.0136721
0.013671
0.0136726
0.0136713
0.0136726
0.0136713
0.0136602
0.0134918
0.0134906
0.0136588
0.0136709
0.0136725
0.0136708
0.013672
0.0136704
0.0136716
0.0136702
0.0136717
0.0136705
0.013672
0.0136711
0.0136726
0.0136714
0.0136728
0.0136716
0.0136731
0.0136719
0.0136716
0.0136718
0.0136708
0.0136721
0.0136706
0.0136718
0.0136706
0.0136722
0.0136699
0.0136608
0.0134929
0.0134907
0.0136607
0.0136724
0.0136714
0.0136726
0.0136707
0.0136719
0.0136704
0.0136717
0.0136705
0.013672
0.013671
0.0136727
0.0136717
0.013673
0.0136718
0.0136729
0.0136714
0.0136723
0.0136709
0.0136721
0.0136708
0.0136723
0.0136711
0.0136726
0.0136713
0.0136723
0.0136715
0.0136604
0.0134919
0.0134926
0.0136604
0.01367
0.0136706
0.0136714
0.0136704
0.0136718
0.0136704
0.0136717
0.0136705
0.0136721
0.0136709
0.0136727
0.0136717
0.0136724
0.0136724
0.0136719
0.0136728
0.0136709
0.0136722
0.0136705
0.0136719
0.0136706
0.013672
0.0136707
0.0136723
0.0136712
0.0136697
0.0136605
0.0134929
0.0134905
0.0136604
0.0136721
0.0136711
0.0136723
0.0136707
0.0136719
0.0136706
0.0136717
0.0136706
0.0136719
0.0136711
0.0136728
0.013672
0.0136737
0.0136724
0.0136738
0.0136722
0.0136731
0.0136716
0.0136726
0.0136713
0.0136728
0.0136716
0.013673
0.0136711
0.0136723
0.0136714
0.0136599
0.0134913
3.74354e-05
0.000320016
0.000531869
0.000848199
0.00153997
0.00169369
0.000866778
0.000290052
0.000161284
7.24852e-05
2.18033e-05
2.23427e-06
1.25144e-05
0.00934601
0.0166719
2.39689e-05
0.000470673
0.00433641
0.00576386
0.00448077
0.00309163
0.00367347
0.00620415
0.00970041
0.0131609
0.0170496
0.0207437
0.0238961
0.0253788
0.0256843
0.0239866
0.0191559
0.0135436
0.00879676
0.00578589
0.00344345
0.00160497
0.000464728
0.000131739
5.22994e-05
0.0161626
0.0132731
0.0119254
0.0188046
0.0123643
0.0219792
0.0310266
0.0333232
0.0306602
0.0251989
0.0185681
0.00832976
9.87335e-07
4.53071e-05
0.00104839
0.00440597
0.00678312
0.00617664
0.00357266
0.00223681
0.00262768
0.00352342
0.00319926
0.00351852
0.00565428
0.0117531
0.0486578
0.0589004
0.0554705
0.0409911
0.0237058
0.0133269
0.0102573
0.0129051
0.0171541
0.0275983
0.0333669
0.030505
0.0246763
0.0201167
0.0165192
0.0151128
0.0149526
0.0174678
0.0220141
0.0303917
0.0402727
0.051279
0.0603338
0.0635742
0.0606039
0.0523348
0.0430949
0.0358931
0.0311174
0.0277342
0.0250502
0.0226758
0.0203798
0.0182617
0.0161402
0.0140033
0.0121467
0.010127
0.0276024
0.0291388
0.0311059
0.0362097
0.0421241
0.0444206
0.040892
0.0349994
0.0304331
0.0274587
0.0258169
0.0242716
0.023487
0.0224481
0.0220285
0.0212915
0.0210877
0.0204977
0.0204166
0.0199156
0.0198913
0.019463
0.0194365
0.0190699
0.0190013
0.0186273
0.0184392
0.0180081
0.0176061
0.0170961
0.0210791
0.020759
0.0203766
0.0199404
0.019747
0.0194855
0.0193905
0.0192224
0.0191715
0.0190605
0.0190299
0.0189554
0.0189329
0.0188886
0.0188648
0.0188454
0.0188139
0.0188158
0.0187817
0.0187893
0.018762
0.0187684
0.0187476
0.0187519
0.0187359
0.018737
0.0187229
0.0187216
0.018706
0.0187502
0.0187972
0.0187383
0.0187282
0.0187263
0.0187202
0.0187168
0.0187178
0.0187122
0.0187145
0.0187093
0.0187124
0.0187076
0.0187109
0.0187074
0.01871
0.0187076
0.01871
0.0187074
0.0187103
0.0187075
0.0187108
0.018707
0.0187104
0.0187068
0.0187104
0.0187073
0.0187106
0.0187075
0.0187115
0.0187644
0.018766
0.0187089
0.0187085
0.018708
0.0187111
0.0187072
0.0187103
0.0187063
0.0187097
0.0187061
0.0187095
0.0187064
0.0187093
0.0187067
0.0187091
0.0187069
0.0187091
0.0187065
0.0187093
0.0187063
0.0187098
0.0187064
0.0187103
0.0187072
0.0187111
0.0187082
0.0187106
0.0187085
0.0187097
0.0187636
0.0187631
0.0187101
0.018711
0.0187082
0.0187111
0.018707
0.0187102
0.0187062
0.0187096
0.0187062
0.0187095
0.0187064
0.0187092
0.0187067
0.0187091
0.0187068
0.018709
0.0187065
0.0187093
0.0187063
0.0187097
0.0187064
0.0187103
0.0187072
0.0187111
0.0187081
0.0187104
0.0187087
0.0187097
0.0187635
0.018761
0.0187079
0.0187085
0.0187111
0.0187078
0.0187105
0.0187066
0.0187097
0.018706
0.0187094
0.018706
0.0187091
0.0187063
0.0187088
0.0187067
0.018709
0.0187069
0.0187093
0.0187081
0.0187074
0.0187085
0.0187068
0.0187102
0.0187068
0.0187105
0.0187074
0.0187108
0.0187072
0.0187109
0.0187651
0.0187625
0.0187094
0.018711
0.0187082
0.0187111
0.0187069
0.01871
0.0187061
0.0187094
0.0187061
0.0187094
0.0187064
0.0187092
0.0187067
0.018709
0.0187069
0.018709
0.0187065
0.0187093
0.0187064
0.0187099
0.0187066
0.0187104
0.0187073
0.018711
0.0187081
0.0187099
0.018709
0.0187097
0.0187635
0.0187648
0.0187095
0.0187076
0.0187074
0.0187097
0.0187069
0.0187103
0.0187064
0.0187098
0.0187062
0.0187095
0.0187061
0.0187094
0.0187068
0.0187082
0.0187079
0.0187069
0.0187092
0.0187061
0.0187095
0.0187061
0.0187097
0.0187063
0.0187102
0.0187071
0.0187107
0.0187082
0.018707
0.018709
0.0187653
0.0187623
0.0187093
0.0187109
0.0187079
0.0187112
0.0187068
0.0187105
0.018706
0.01871
0.0187057
0.0187095
0.0187056
0.0187092
0.0187062
0.0187091
0.0187065
0.0187088
0.0187061
0.018709
0.0187058
0.0187095
0.0187059
0.0187101
0.0187066
0.0187109
0.0187074
0.0187095
0.0187083
0.0187087
0.0187623
0.00111924
0.00214837
0.00281353
0.00338132
0.0028509
0.00172102
0.00108515
0.000656793
0.000436705
0.000164821
4.10126e-05
9.12754e-06
3.39128e-07
0.0104533
0.0106782
1.01842e-05
0.000149234
0.00172103
0.0039689
0.00186311
0.000448632
0.000449472
0.00177296
0.00521448
0.00969375
0.0138928
0.0183066
0.023013
0.0268845
0.0295347
0.0299054
0.0274172
0.0222182
0.0163683
0.011535
0.00779054
0.00478201
0.00252641
0.000576171
0.000142711
3.52724e-05
0.0155367
0.0127666
0.0168775
0.0124037
0.0232728
0.0325855
0.0336747
0.0304083
0.0200917
0.00990933
1.51285e-05
2.03716e-06
0.000102605
0.00490722
0.0132957
0.0178088
0.0182097
0.014574
0.00827172
0.00597748
0.00574293
0.00649668
0.00663585
0.00766227
0.0118601
0.0259645
0.0537285
0.0613697
0.0552103
0.0405533
0.0232264
0.0122184
0.0108604
0.0223547
0.0286222
0.0310414
0.0294918
0.0245754
0.0207444
0.0164481
0.0161407
0.0170809
0.0205389
0.0253665
0.0323725
0.0410272
0.0505613
0.0591225
0.0652411
0.0666118
0.0636403
0.0566409
0.0485811
0.0419675
0.0371438
0.0335871
0.0303993
0.0274512
0.0246887
0.0217398
0.0186805
0.0148264
0.0112933
0.0244565
0.0231493
0.0255058
0.032133
0.0414282
0.0490203
0.0501176
0.045374
0.0399003
0.0359515
0.0337133
0.0318603
0.0307655
0.0294043
0.0288162
0.027775
0.0274921
0.0266302
0.0265335
0.0257271
0.0257626
0.0249572
0.0250813
0.0242361
0.0243566
0.0234959
0.0234872
0.0225694
0.0221697
0.0212256
0.0278495
0.0276638
0.0266535
0.0260838
0.0254221
0.0251492
0.0248041
0.024648
0.0244429
0.024339
0.0242205
0.024137
0.0240706
0.0240051
0.0239672
0.0239172
0.0238892
0.0238604
0.0238315
0.0238195
0.0237921
0.0237878
0.0237626
0.0237631
0.0237367
0.0237378
0.023708
0.0237024
0.023671
0.023711
0.0238428
0.0237406
0.0237407
0.0237256
0.0237254
0.0237184
0.0237208
0.0237151
0.0237168
0.0237131
0.0237151
0.0237127
0.0237143
0.0237129
0.0237142
0.0237133
0.0237146
0.0237136
0.0237145
0.0237141
0.0237145
0.0237133
0.0237133
0.0237124
0.0237117
0.0237102
0.0237081
0.0237044
0.0237044
0.023764
0.0237651
0.0237035
0.0237037
0.0237081
0.0237108
0.0237115
0.0237125
0.0237122
0.0237126
0.0237123
0.0237129
0.0237128
0.0237131
0.0237128
0.0237131
0.0237128
0.0237131
0.0237128
0.023713
0.0237126
0.0237128
0.0237125
0.0237128
0.0237126
0.0237123
0.0237106
0.0237086
0.0237047
0.023704
0.0237624
0.0237626
0.0237048
0.0237054
0.0237085
0.0237107
0.0237114