/*--------------------------------*- C++ -*----------------------------------*\
| =========                 |                                                 |
| \\      /  F ield         | OpenFOAM: The Open Source CFD Toolbox           |
|  \\    /   O peration     | Version:  2.1.1                                 |
|   \\  /    A nd           | Web:      www.OpenFOAM.org                      |
|    \\/     M anipulation  |                                                 |
\*---------------------------------------------------------------------------*/
FoamFile
{
    version     2.0;
    format      ascii;
    class       volScalarField;
    location    "0.002050000";
    object      H2O;
}
// * * * * * * * * * * * * * * * * * * * * * * * * * * * * * * * * * * * * * //

dimensions      [0 0 0 0 0 0 0];

internalField   nonuniform List<scalar> 
12384
(
0.224134
0.228405
0.229737
0.230499
0.228659
0.235503
0.0158199
0.000384798
9.7948e-05
2.41758e-05
1.08436e-06
3.4434e-08
1.08511e-09
2.81908e-11
1.86558e-07
7.96241e-06
4.58423e-05
0.000136755
0.00106263
0.00399022
0.0114855
0.0150801
0.0147678
0.0144285
0.0146566
0.012193
0.0108851
0.00639554
0.00472499
0.00302478
0.00165264
0.000668769
0.00015866
1.17723e-05
5.09886e-07
8.97204e-08
6.50742e-08
1.97979e-08
1.25511e-09
2.63575e-12
5.97936e-15
1.92631e-17
5.22534e-20
1.58815e-21
2.45278e-24
1.41755e-22
1.04259e-20
8.15813e-19
1.65861e-17
1.66944e-16
4.06347e-15
1.11359e-12
8.4147e-10
4.41141e-07
6.87927e-06
1.84199e-05
3.03226e-05
2.45144e-05
1.2258e-05
2.86069e-06
1.85006e-07
1.35686e-08
2.38322e-10
3.95632e-12
8.79447e-14
9.43976e-17
2.33369e-19
4.04786e-22
9.53369e-25
1.91425e-27
3.71069e-30
6.77135e-33
1.18324e-35
2.304e-38
7.16757e-49
1.00425e-49
1.78165e-51
1.10063e-53
1.21455e-56
7.59184e-60
3.03268e-63
1.41363e-66
5.61758e-70
3.05331e-73
2.24452e-76
3.3656e-79
2.097e-82
5.85099e-86
2.32625e-89
1.22257e-92
7.59685e-96
5.0931e-99
3.55477e-102
2.49229e-105
1.71776e-108
1.1408e-111
7.38887e-115
4.4434e-118
2.67805e-121
1.53307e-124
8.68602e-128
4.87441e-131
2.71748e-134
1.54392e-137
1.90689e-149
1.97935e-150
4.38639e-153
7.318e-156
9.73314e-159
1.03048e-161
9.08781e-165
4.18872e-168
9.35687e-174
7.79273e-179
3.25235e-183
1.18038e-187
4.76575e-192
1.62524e-196
2.5375e-201
2.37939e-206
1.82934e-211
1.31118e-216
9.02659e-222
6.07837e-227
3.96716e-232
2.57395e-237
1.76179e-242
1.34588e-247
8.74728e-253
4.10211e-258
1.45852e-263
4.15076e-269
1.08578e-274
3.17741e-280
7.27252e-304
1.7044e-306
1.44848e-311
8.62421e-317
3.90312e-322
0
0
0
0
0
0
0
0
0
0
0
0
0
0
0
0
0
0
0
0
0
0
0
0
0
0
0
0
0
0
0
0
0
0
0
0
0
0
0
0
0
0
0
0
0
0
0
0
0
0
0
0
0
0
0
0
0
0
0
0
0
0
0
0
0
0
0
0
0
0
0
0
0
0
0
0
0
0
0
0
0
0
0
0
0
0
0
0
0
0
0
0
0
0
0
0
0
0
0
0
0
0
0
0
0
0
0
0
0
0
0
0
0
0
0
0
0
0
0
0
0
0
0
0
0
0
0
0
0
0
0
0
0
0
0
0
0
0
0
0
0
0
0
0
0
0
0
0
0
0
0
0
0
0
0
0
0
0
0
0
0
0
0
0
0
0
0
0
0
0
0
0
0
0
0
0
0
0
0
0
0
0
0
0
0
0
0
0
0
0
0
0
0
0
0
0
0
0
0
0
0
0
0
0
0
0
0
0
0
0
0
0
0
0
0
0
0
0
0
0
0
0
0
0
0
0
0
0
0
0
0
0
0
0
0
0.219296
0.21264
0.206879
0.202746
0.194008
0.196558
0.0121485
0.00282162
0.00166317
0.000409821
2.97561e-05
7.96235e-07
5.41651e-08
9.83877e-10
6.56969e-06
0.000374678
0.00202266
0.00607297
0.0194494
0.0511435
0.17188
0.172437
0.17239
0.171916
0.171495
0.170556
0.168715
0.0851555
0.0560848
0.0393641
0.0279217
0.0186774
0.0122672
0.0036604
0.00027069
6.89318e-05
6.44009e-05
2.74187e-06
2.4028e-07
2.11617e-10
3.49887e-13
6.45064e-16
1.27063e-18
2.6534e-19
1.49734e-22
7.68851e-21
6.9804e-19
3.48129e-17
9.47578e-16
2.92749e-14
2.51033e-12
1.38137e-09
1.19205e-06
0.000448062
0.00334813
0.0058097
0.00831241
0.0076235
0.0046821
0.00172142
0.000136951
1.23106e-05
2.64645e-07
5.15792e-09
6.88723e-11
1.80173e-14
6.27509e-17
4.86931e-20
1.72262e-22
2.16885e-25
4.1706e-28
8.73247e-31
1.7063e-33
7.08795e-36
2.11016e-45
2.83129e-46
6.08604e-48
4.6481e-50
6.20782e-53
4.455e-56
1.86008e-59
9.83396e-63
3.4991e-66
1.41457e-69
8.13783e-73
1.57532e-75
7.76297e-79
6.29424e-83
7.46697e-87
2.69215e-91
3.68821e-95
4.54085e-98
1.71102e-101
5.39181e-105
1.68781e-108
7.98258e-112
4.92259e-115
3.59893e-118
1.22792e-120
1.26059e-123
7.43754e-126
7.42275e-129
5.70475e-132
4.06808e-135
1.54959e-146
1.59635e-147
3.48351e-150
5.79214e-153
7.61097e-156
7.75024e-159
6.3003e-162
4.44428e-165
2.20462e-168
2.23288e-173
9.40711e-178
3.43619e-182
2.66218e-186
9.2285e-191
1.4479e-195
1.3288e-200
9.82681e-206
6.44086e-211
4.17634e-216
2.62754e-221
1.65983e-226
1.03679e-231
6.84561e-237
4.97099e-242
3.32663e-247
1.64687e-252
5.66255e-258
1.41001e-263
3.0418e-269
7.13455e-275
2.74322e-298
6.64141e-301
5.32807e-306
3.18338e-311
1.6535e-316
7.16395e-322
0
0
0
0
0
0
0
0
0
0
0
0
0
0
0
0
0
0
0
0
0
0
0
0
0
0
0
0
0
0
0
0
0
0
0
0
0
0
0
0
0
0
0
0
0
0
0
0
0
0
0
0
0
0
0
0
0
0
0
0
0
0
0
0
0
0
0
0
0
0
0
0
0
0
0
0
0
0
0
0
0
0
0
0
0
0
0
0
0
0
0
0
0
0
0
0
0
0
0
0
0
0
0
0
0
0
0
0
0
0
0
0
0
0
0
0
0
0
0
0
0
0
0
0
0
0
0
0
0
0
0
0
0
0
0
0
0
0
0
0
0
0
0
0
0
0
0
0
0
0
0
0
0
0
0
0
0
0
0
0
0
0
0
0
0
0
0
0
0
0
0
0
0
0
0
0
0
0
0
0
0
0
0
0
0
0
0
0
0
0
0
0
0
0
0
0
0
0
0
0
0
0
0
0
0
0
0
0
0
0
0
0
0
0
0
0
0
0
0
0
0
0
0
0
0
0
0
0
0
0
0
0
0
0
0.204943
0.173444
0.1543
0.147267
0.135401
0.0470922
0.0180629
0.0170089
0.0138467
0.00495282
0.00101456
2.81799e-05
2.91546e-06
4.34203e-08
0.000149881
0.00613609
0.0314793
0.0518159
0.136414
0.174934
0.184511
0.185238
0.186006
0.185775
0.178345
0.17408
0.171615
0.169159
0.167824
0.156864
0.160644
0.156297
0.142431
0.0498218
0.0151463
0.0110659
0.0102341
0.00433522
0.000282097
6.0437e-09
2.11995e-12
1.75256e-15
2.5654e-18
4.23942e-17
1.26052e-20
6.76047e-19
8.44602e-17
2.73189e-15
1.16067e-13
5.96083e-12
1.18933e-09
7.93876e-07
0.00107345
0.0104342
0.0345752
0.0446763
0.0522616
0.0565441
0.0472276
0.0317107
0.0135908
0.00294625
6.61916e-05
2.02506e-06
1.26946e-07
1.25246e-09
2.81644e-12
6.28337e-16
1.18778e-19
2.72222e-23
6.28702e-26
1.59637e-28
4.52081e-31
4.5494e-33
7.24714e-42
1.68762e-42
8.25984e-44
1.00948e-45
1.94571e-48
1.44689e-51
6.28636e-55
2.20931e-58
7.37421e-62
2.57088e-65
1.70948e-68
5.9013e-71
3.63849e-74
1.09269e-77
2.18028e-81
7.3426e-86
2.64142e-90
4.59338e-94
8.49752e-98
1.157e-101
3.78949e-106
1.36346e-109
7.82507e-113
4.21221e-116
6.53036e-118
5.3845e-121
4.42593e-123
4.09078e-126
2.12641e-129
9.93629e-133
3.72739e-143
4.98103e-144
1.09269e-146
1.76665e-149
2.27248e-152
2.10374e-155
1.51287e-158
8.85803e-162
5.25132e-165
3.21112e-168
1.45338e-172
4.92709e-177
7.93974e-181
2.2377e-185
3.09957e-190
2.65284e-195
1.72749e-200
1.0029e-205
5.44257e-211
2.984e-216
1.60417e-221
8.89941e-227
5.14025e-232
3.2239e-237
2.17177e-242
1.26418e-247
5.02558e-253
1.18273e-258
2.26635e-264
3.9426e-270
4.66515e-293
1.21954e-295
8.62646e-301
4.8875e-306
2.52402e-311
1.16072e-316
4.59481e-322
0
0
0
0
0
0
0
0
0
0
0
0
0
0
0
0
0
0
0
0
0
0
0
0
0
0
0
0
0
0
0
0
0
0
0
0
0
0
0
0
0
0
0
0
0
0
0
0
0
0
0
0
0
0
0
0
0
0
0
0
0
0
0
0
0
0
0
0
0
0
0
0
0
0
0
0
0
0
0
0
0
0
0
0
0
0
0
0
0
0
0
0
0
0
0
0
0
0
0
0
0
0
0
0
0
0
0
0
0
0
0
0
0
0
0
0
0
0
0
0
0
0
0
0
0
0
0
0
0
0
0
0
0
0
0
0
0
0
0
0
0
0
0
0
0
0
0
0
0
0
0
0
0
0
0
0
0
0
0
0
0
0
0
0
0
0
0
0
0
0
0
0
0
0
0
0
0
0
0
0
0
0
0
0
0
0
0
0
0
0
0
0
0
0
0
0
0
0
0
0
0
0
0
0
0
0
0
0
0
0
0
0
0
0
0
0
0
0
0
0
0
0
0
0
0
0
0
0
0
0
0
0
0
0.170748
0.132549
0.112388
0.104201
0.0962268
0.0902249
0.0745623
0.0752598
0.0771555
0.0287991
0.00960864
0.00195474
0.000228432
2.07524e-06
0.000740685
0.028372
0.189705
0.207257
0.219665
0.22894
0.231782
0.233639
0.22952
0.223142
0.218683
0.216611
0.226454
0.238413
0.237638
0.235802
0.232459
0.208775
0.167186
0.156773
0.168372
0.171598
0.161164
0.0606281
0.0074102
6.96627e-05
7.72152e-10
1.21107e-13
1.30736e-16
6.19159e-15
2.01856e-18
1.37449e-16
1.2805e-14
3.12168e-13
1.41632e-11
1.53596e-09
8.86856e-07
0.00110848
0.0180552
0.0681888
0.184528
0.188639
0.193955
0.197548
0.194137
0.181314
0.0720076
0.0368516
0.0123824
0.000438462
2.31951e-05
5.36258e-07
1.0517e-08
5.0688e-11
6.03903e-15
1.64935e-18
7.38646e-23
8.10604e-26
2.03236e-28
3.19e-30
1.1892e-37
5.28761e-38
3.5332e-39
2.49408e-41
2.44196e-44
9.49369e-48
2.67157e-51
7.05355e-55
1.88631e-58
5.56657e-62
5.24176e-65
2.51217e-67
2.31238e-70
1.42141e-73
6.19705e-77
1.54556e-80
2.68282e-84
4.19081e-88
6.43167e-92
7.40059e-96
1.71395e-100
4.52864e-104
2.45645e-107
1.2733e-110
5.6758e-114
2.22217e-117
5.10633e-120
5.3011e-123
1.42114e-126
2.55515e-130
9.5344e-139
1.27869e-139
2.77417e-142
4.66967e-145
5.97999e-148
5.6015e-151
3.99471e-154
2.3792e-157
1.38063e-160
8.99393e-164
6.3042e-167
2.03766e-171
6.76687e-175
1.47017e-179
1.82973e-184
1.4475e-189
8.80286e-195
4.55306e-200
2.1812e-205
1.01358e-210
4.6968e-216
2.19873e-221
1.06857e-226
5.53874e-232
3.27503e-237
2.1118e-242
1.02119e-247
2.55693e-253
4.16485e-259
6.51188e-265
3.70398e-287
8.0615e-290
5.08548e-295
2.77343e-300
1.41362e-305
6.43421e-311
2.5583e-316
8.94259e-322
0
0
0
0
0
0
0
0
0
0
0
0
0
0
0
0
0
0
0
0
0
0
0
0
0
0
0
0
0
0
0
0
0
0
0
0
0
0
0
0
0
0
0
0
0
0
0
0
0
0
0
0
0
0
0
0
0
0
0
0
0
0
0
0
0
0
0
0
0
0
0
0
0
0
0
0
0
0
0
0
0
0
0
0
0
0
0
0
0
0
0
0
0
0
0
0
0
0
0
0
0
0
0
0
0
0
0
0
0
0
0
0
0
0
0
0
0
0
0
0
0
0
0
0
0
0
0
0
0
0
0
0
0
0
0
0
0
0
0
0
0
0
0
0
0
0
0
0
0
0
0
0
0
0
0
0
0
0
0
0
0
0
0
0
0
0
0
0
0
0
0
0
0
0
0
0
0
0
0
0
0
0
0
0
0
0
0
0
0
0
0
0
0
0
0
0
0
0
0
0
0
0
0
0
0
0
0
0
0
0
0
0
0
0
0
0
0
0
0
0
0
0
0
0
0
0
0
0
0
0
0
0
0.133922
0.121447
0.114291
0.110087
0.110821
0.117833
0.140113
0.130848
0.129698
0.108457
0.079251
0.0168744
0.00353349
0.0001225
0.00225759
0.0678563
0.240684
0.240591
0.245951
0.249931
0.250217
0.250423
0.25006
0.249916
0.250284
0.25095
0.251276
0.251161
0.251373
0.251387
0.251417
0.250246
0.225745
0.219713
0.218321
0.212063
0.194704
0.179744
0.0391534
0.00288318
1.55423e-07
7.62202e-12
2.51928e-14
7.82842e-13
5.97649e-16
3.6956e-14
1.76608e-12
3.20775e-11
1.74067e-09
1.61579e-07
3.53319e-05
0.009773
0.172814
0.182496
0.190317
0.198749
0.205592
0.212303
0.220247
0.228731
0.223603
0.209887
0.204573
0.030318
0.00297257
8.42143e-05
2.82679e-06
5.22461e-08
2.71465e-10
9.64328e-14
3.82922e-18
1.07562e-22
1.09021e-25
2.34573e-27
3.57168e-33
1.46955e-33
4.97154e-35
1.57145e-37
1.06319e-40
3.12953e-44
4.98792e-48
8.05445e-52
1.57548e-55
5.70424e-59
1.61953e-61
8.74328e-64
7.45355e-67
4.20889e-70
2.02754e-73
8.81787e-77
3.04936e-80
6.95228e-84
1.30986e-87
2.41774e-91
5.46815e-95
1.92551e-98
9.79326e-102
5.08789e-105
2.32277e-108
8.63326e-112
2.49397e-115
6.12355e-119
1.05598e-122
1.14884e-126
9.88176e-135
8.99383e-136
1.96854e-138
3.6571e-141
5.635e-144
6.26502e-147
5.14964e-150
3.49867e-153
2.38242e-156
1.73924e-159
1.40265e-162
1.04062e-165
6.23123e-169
1.07191e-173
1.23554e-178
9.18458e-184
5.31015e-189
2.51385e-194
1.06783e-199
4.30056e-205
1.69541e-210
6.76119e-216
2.74097e-221
1.17901e-226
5.56108e-232
3.04982e-237
1.55419e-242
4.36663e-248
7.05488e-254
1.02315e-259
3.65846e-281
7.48994e-284
3.97932e-289
1.97137e-294
9.71838e-300
4.41553e-305
1.73089e-310
5.91887e-316
1.81322e-321
0
0
0
0
0
0
0
0
0
0
0
0
0
0
0
0
0
0
0
0
0
0
0
0
0
0
0
0
0
0
0
0
0
0
0
0
0
0
0
0
0
0
0
0
0
0
0
0
0
0
0
0
0
0
0
0
0
0
0
0
0
0
0
0
0
0
0
0
0
0
0
0
0
0
0
0
0
0
0
0
0
0
0
0
0
0
0
0
0
0
0
0
0
0
0
0
0
0
0
0
0
0
0
0
0
0
0
0
0
0
0
0
0
0
0
0
0
0
0
0
0
0
0
0
0
0
0
0
0
0
0
0
0
0
0
0
0
0
0
0
0
0
0
0
0
0
0
0
0
0
0
0
0
0
0
0
0
0
0
0
0
0
0
0
0
0
0
0
0
0
0
0
0
0
0
0
0
0
0
0
0
0
0
0
0
0
0
0
0
0
0
0
0
0
0
0
0
0
0
0
0
0
0
0
0
0
0
0
0
0
0
0
0
0
0
0
0
0
0
0
0
0
0
0
0
0
0
0
0
0
0
0.127774
0.14066
0.146526
0.15396
0.168849
0.190379
0.211679
0.197148
0.182191
0.16766
0.140324
0.102169
0.0220482
0.00119697
0.00758319
0.165686
0.235595
0.250238
0.250623
0.250678
0.250687
0.250935
0.251103
0.251072
0.250937
0.250516
0.249926
0.249666
0.249689
0.249875
0.250299
0.251162
0.251149
0.249616
0.246418
0.239954
0.226255
0.208663
0.186818
0.0287874
0.00143105
9.86137e-08
1.86496e-11
8.38146e-11
3.16166e-13
1.07781e-11
1.87065e-10
3.13206e-09
1.87304e-07
1.52429e-05
0.00109873
0.0296949
0.158607
0.181895
0.204376
0.219636
0.227361
0.229769
0.230504
0.238224
0.243808
0.246339
0.240839
0.239474
0.056433
0.0101847
0.000548542
1.36273e-05
1.93528e-07
5.30658e-10
1.25958e-13
3.2194e-18
8.60103e-23
2.08116e-24
8.05619e-29
1.36831e-29
2.57386e-31
6.71079e-34
4.18846e-37
8.70085e-41
1.10709e-44
1.59649e-48
2.99285e-52
1.56173e-55
5.05682e-58
3.10052e-60
2.50368e-63
1.26936e-66
5.27207e-70
2.08488e-73
8.28404e-77
3.07518e-80
9.3936e-84
2.2962e-87
5.42819e-91
1.59423e-94
7.25044e-98
4.30062e-101
2.42406e-104
1.10816e-107
3.86393e-111
9.40724e-115
1.51142e-118
1.45274e-122
4.29428e-131
1.83092e-132
3.22961e-135
5.88549e-138
1.11389e-140
1.77118e-143
2.11811e-146
1.89182e-149
1.60142e-152
1.41501e-155
1.29947e-158
1.09761e-161
9.31069e-165
6.47619e-168
7.0744e-173
5.0519e-178
2.82547e-183
1.24065e-188
4.79768e-194
1.68591e-199
5.81093e-205
1.94827e-210
6.70752e-216
2.36319e-221
9.06109e-227
3.83986e-232
1.87606e-237
6.21317e-243
1.06094e-248
1.40438e-254
3.67754e-275
5.83818e-278
2.73741e-283
1.20233e-288
5.21169e-294
2.2797e-299
9.10722e-305
3.14582e-310
9.59086e-316
2.64819e-321
0
0
0
0
0
0
0
0
0
0
0
0
0
0
0
0
0
0
0
0
0
0
0
0
0
0
0
0
0
0
0
0
0
0
0
0
0
0
0
0
0
0
0
0
0
0
0
0
0
0
0
0
0
0
0
0
0
0
0
0
0
0
0
0
0
0
0
0
0
0
0
0
0
0
0
0
0
0
0
0
0
0
0
0
0
0
0
0
0
0
0
0
0
0
0
0
0
0
0
0
0
0
0
0
0
0
0
0
0
0
0
0
0
0
0
0
0
0
0
0
0
0
0
0
0
0
0
0
0
0
0
0
0
0
0
0
0
0
0
0
0
0
0
0
0
0
0
0
0
0
0
0
0
0
0
0
0
0
0
0
0
0
0
0
0
0
0
0
0
0
0
0
0
0
0
0
0
0
0
0
0
0
0
0
0
0
0
0
0
0
0
0
0
0
0
0
0
0
0
0
0
0
0
0
0
0
0
0
0
0
0
0
0
0
0
0
0
0
0
0
0
0
0
0
0
0
0
0
0
0
0.159101
0.188707
0.198445
0.209368
0.224016
0.231518
0.232931
0.224717
0.215544
0.201906
0.182184
0.151495
0.1068
0.00580883
0.0168028
0.183478
0.233047
0.250449
0.250953
0.250469
0.248609
0.250112
0.251033
0.25116
0.250731
0.25002
0.24924
0.248556
0.248179
0.248111
0.248537
0.249672
0.250792
0.251362
0.251095
0.24995
0.245278
0.232193
0.210334
0.194572
0.0239986
0.00080687
8.73989e-08
8.99298e-09
2.06144e-10
2.60866e-09
1.70307e-08
2.37843e-07
1.72428e-05
0.00145117
0.0142279
0.0674869
0.142373
0.192661
0.239616
0.249589
0.250584
0.250659
0.249697
0.245614
0.246783
0.251047
0.250331
0.250993
0.251406
0.251121
0.0403942
0.0029923
4.39235e-05
2.71613e-07
5.62149e-10
3.19208e-14
1.14667e-18
3.09213e-21
1.10042e-24
6.47211e-26
1.07946e-27
2.93724e-30
2.0621e-33
7.15432e-37
2.02633e-40
8.76008e-44
2.01773e-47
2.71587e-51
2.38796e-54
1.22774e-56
8.39991e-60
3.84863e-63
1.42337e-66
4.84331e-70
1.66066e-73
6.00805e-77
2.20161e-80
7.63313e-84
2.43851e-87
7.57644e-91
2.90488e-94
1.69166e-97
1.17344e-100
7.26502e-104
3.41711e-107
1.08484e-110
2.09005e-114
1.72884e-118
9.19112e-128
2.11634e-129
2.87383e-132
4.91919e-135
9.47282e-138
1.63415e-140
2.44994e-143
3.38762e-146
4.34529e-149
5.03265e-152
5.54408e-155
5.3476e-158
5.11383e-161
4.20487e-164
3.43442e-167
2.35704e-172
1.30574e-177
5.37074e-183
1.91172e-188
6.02254e-194
1.83887e-199
5.34739e-205
1.58028e-210
4.69613e-216
1.48032e-221
4.99768e-227
1.92577e-232
6.49164e-238
1.31995e-243
1.75647e-249
3.96142e-269
5.00657e-272
1.58001e-277
5.46179e-283
2.04251e-288
7.85507e-294
3.09613e-299
1.13792e-304
3.66575e-310
1.05156e-315
2.73712e-321
0
0
0
0
0
0
0
0
0
0
0
0
0
0
0
0
0
0
0
0
0
0
0
0
0
0
0
0
0
0
0
0
0
0
0
0
0
0
0
0
0
0
0
0
0
0
0
0
0
0
0
0
0
0
0
0
0
0
0
0
0
0
0
0
0
0
0
0
0
0
0
0
0
0
0
0
0
0
0
0
0
0
0
0
0
0
0
0
0
0
0
0
0
0
0
0
0
0
0
0
0
0
0
0
0
0
0
0
0
0
0
0
0
0
0
0
0
0
0
0
0
0
0
0
0
0
0
0
0
0
0
0
0
0
0
0
0
0
0
0
0
0
0
0
0
0
0
0
0
0
0
0
0
0
0
0
0
0
0
0
0
0
0
0
0
0
0
0
0
0
0
0
0
0
0
0
0
0
0
0
0
0
0
0
0
0
0
0
0
0
0
0
0
0
0
0
0
0
0
0
0
0
0
0
0
0
0
0
0
0
0
0
0
0
0
0
0
0
0
0
0
0
0
0
0
0
0
0
0
0.209944
0.22346
0.228837
0.233521
0.236612
0.24098
0.242887
0.238491
0.232128
0.215892
0.192208
0.16946
0.130758
0.0071007
0.080563
0.171539
0.214073
0.246393
0.250398
0.246324
0.230787
0.230239
0.245739
0.250758
0.251179
0.250623
0.24979
0.248758
0.247822
0.247183
0.247101
0.247705
0.248946
0.250246
0.251062
0.251295
0.250586
0.247933
0.236062
0.213332
0.190222
0.0160736
0.000356979
1.8905e-06
1.18404e-07
4.33797e-07
1.21145e-06
8.3057e-06
0.000314187
0.0114712
0.0470266
0.124237
0.150237
0.207037
0.24997
0.250395
0.249694
0.24962
0.250338
0.250858
0.250641
0.250794
0.251656
0.251611
0.251558
0.2511
0.248065
0.0587396
0.00794046
5.20841e-05
2.139e-07
3.18094e-10
8.84781e-15
9.11726e-18
9.7624e-21
2.48383e-22
4.45987e-24
1.35122e-26
1.19906e-29
8.67626e-33
5.94688e-36
2.67204e-39
7.27605e-43
1.2516e-46
4.61862e-50
5.5611e-53
2.82497e-56
1.09461e-59
3.62729e-63
1.09867e-66
3.27049e-70
1.01336e-73
3.36955e-77
1.18338e-80
4.20799e-84
1.49926e-87
5.77314e-91
2.94465e-94
2.17925e-97
1.74497e-100
1.15101e-103
5.36724e-107
1.27044e-110
1.10972e-114
1.12306e-124
2.09647e-126
1.93728e-129
3.56252e-132
7.12454e-135
1.17975e-137
1.71966e-140
3.09455e-143
5.3299e-146
7.91507e-149
1.02955e-151
1.17731e-154
1.23336e-157
1.16035e-160
1.04857e-163
8.26576e-167
4.51096e-172
1.68045e-177
5.38617e-183
1.53084e-188
4.18789e-194
1.07172e-199
2.76372e-205
6.9445e-211
1.8566e-216
5.09549e-222
1.58007e-227
4.88245e-233
1.12419e-238
1.52078e-244
3.80883e-263
1.79587e-266
4.15024e-272
1.17354e-277
3.64681e-283
1.24925e-288
4.49663e-294
1.72793e-299
6.27685e-305
2.0026e-310
5.65485e-316
1.42291e-321
0
0
0
0
0
0
0
0
0
0
0
0
0
0
0
0
0
0
0
0
0
0
0
0
0
0
0
0
0
0
0
0
0
0
0
0
0
0
0
0
0
0
0
0
0
0
0
0
0
0
0
0
0
0
0
0
0
0
0
0
0
0
0
0
0
0
0
0
0
0
0
0
0
0
0
0
0
0
0
0
0
0
0
0
0
0
0
0
0
0
0
0
0
0
0
0
0
0
0
0
0
0
0
0
0
0
0
0
0
0
0
0
0
0
0
0
0
0
0
0
0
0
0
0
0
0
0
0
0
0
0
0
0
0
0
0
0
0
0
0
0
0
0
0
0
0
0
0
0
0
0
0
0
0
0
0
0
0
0
0
0
0
0
0
0
0
0
0
0
0
0
0
0
0
0
0
0
0
0
0
0
0
0
0
0
0
0
0
0
0
0
0
0
0
0
0
0
0
0
0
0
0
0
0
0
0
0
0
0
0
0
0
0
0
0
0
0
0
0
0
0
0
0
0
0
0
0
0
0.235292
0.239271
0.241287
0.243505
0.245786
0.249186
0.250862
0.250964
0.249725
0.231019
0.184484
0.153653
0.126423
0.0213003
0.0953405
0.121917
0.152978
0.179924
0.201152
0.231255
0.245095
0.228864
0.202209
0.197447
0.209927
0.235424
0.248127
0.251232
0.250928
0.249917
0.248517
0.247236
0.246477
0.24641
0.247149
0.248412
0.249732
0.250713
0.251279
0.251119
0.249767
0.238129
0.219652
0.075434
0.00506514
0.000204274
0.000133704
0.000103188
2.77179e-05
4.95227e-05
7.44724e-05
0.000151118
0.00140994
0.0379897
0.114776
0.133867
0.170882
0.236534
0.250953
0.249205
0.247798
0.247061
0.247091
0.24857
0.250541
0.250762
0.250978
0.251221
0.251047
0.250824
0.249977
0.246383
0.0593485
0.00651806
2.59523e-05
7.91128e-08
4.17058e-11
1.72486e-14
6.60434e-16
1.78351e-16
2.58197e-17
5.9717e-19
1.08828e-20
3.02686e-23
5.4626e-26
7.36851e-29
6.40407e-32
3.85001e-35
1.33321e-38
2.90729e-42
7.21811e-46
2.46354e-49
8.51458e-53
2.70424e-56
7.8836e-60
2.17337e-63
5.85026e-67
1.59765e-70
4.58137e-74
1.41648e-77
4.70681e-81
1.64379e-84
6.0133e-88
2.49339e-91
1.46399e-94
1.3304e-97
1.32517e-100
9.92828e-104
4.38139e-107
1.08434e-111
3.43284e-115
1.43789e-118
1.18018e-121
2.37466e-124
9.8213e-127
2.71943e-129
5.24651e-132
7.95486e-135
1.0534e-137
2.85606e-140
5.28769e-143
8.21462e-146
1.08787e-148
1.31406e-151
1.42766e-154
1.46817e-157
1.37185e-160
1.23538e-163
1.01996e-166
2.88546e-172
7.75842e-178
2.00009e-183
4.91159e-189
1.15599e-194
2.60715e-200
5.80302e-206
1.28708e-211
2.90063e-217
6.5804e-223
1.46843e-228
3.11459e-234
5.9519e-240
9.91666e-246
1.32646e-251
2.35851e-257
5.47139e-263
1.51835e-268
5.39939e-274
2.52302e-279
1.50395e-284
9.68985e-290
5.79751e-295
2.94807e-300
1.19821e-305
4.0316e-311
1.16176e-316
2.66795e-322
0
0
0
0
0
0
0
0
0
0
0
0
0
0
0
0
0
0
0
0
0
0
0
0
0
0
0
0
0
0
0
0
0
0
0
0
0
0
0
0
0
0
0
0
0
0
0
0
0
0
0
0
0
0
0
0
0
0
0
0
0
0
0
0
0
0
0
0
0
0
0
0
0
0
0
0
0
0
0
0
0
0
0
0
0
0
0
0
0
0
0
0
0
0
0
0
0
0
0
0
0
0
0
0
0
0
0
0
0
0
0
0
0
0
0
0
0
0
0
0
0
0
0
0
0
0
0
0
0
0
0
0
0
0
0
0
0
0
0
0
0
0
0
0
0
0
0
0
0
0
0
0
0
0
0
0
0
0
0
0
0
0
0
0
0
0
0
0
0
0
0
0
0
0
0
0
0
0
0
0
0
0
0
0
0
0
0
0
0
0
0
0
0
0
0
0
0
0
0
0
0
0
0
0
0
0
0
0
0
0
0
0
0
0
0
0
0
0
0
0
0
0
0
0
0
0
0
0
0
0
0
0
0
0
0
0
0
0
0
0
0
0
0
0.245134
0.246761
0.247451
0.248083
0.249501
0.250546
0.250863
0.250822
0.25062
0.251473
0.22532
0.16232
0.123202
0.0935844
0.096103
0.126279
0.171934
0.18699
0.204735
0.231178
0.225514
0.200661
0.190248
0.192641
0.2001
0.211219
0.227282
0.244938
0.250893
0.25105
0.249462
0.247713
0.246409
0.245763
0.245799
0.246536
0.247788
0.249118
0.250348
0.25131
0.251372
0.250922
0.248808
0.225226
0.0457067
0.00808249
0.00339469
0.00314076
0.00250278
0.00293739
0.00353379
0.00422721
0.00667038
0.153952
0.130899
0.141961
0.201809
0.251357
0.250024
0.247928
0.246344
0.245607
0.244863
0.245109
0.247652
0.249699
0.250067
0.250094
0.249968
0.249763
0.249484
0.248379
0.245333
0.0360504
0.00157492
2.60547e-06
5.19294e-09
1.84026e-11
2.32571e-12
5.60607e-13
7.13082e-14
1.79328e-15
4.10134e-17
1.54406e-19
3.33842e-22
4.80067e-25
4.46515e-28
2.47285e-31
8.8007e-35
2.00392e-38
3.70379e-42
7.54089e-46
1.80723e-49
4.65704e-53
1.20325e-56
3.06192e-60
7.71785e-64
1.95304e-67
5.07759e-71
1.38485e-74
4.04404e-78
1.27054e-81
4.25525e-85
1.49451e-88
5.50065e-92
2.16047e-95
9.55079e-99
5.15995e-102
3.21362e-105
1.71084e-108
5.93442e-112
3.06151e-115
2.47221e-118
4.05284e-121
9.68543e-124
2.11761e-126
3.51727e-129
4.83295e-132
5.8216e-135
6.56179e-138
7.14833e-141
7.6582e-144
7.97261e-147
8.15497e-150
8.07447e-153
7.83957e-156
7.32867e-159
6.74648e-162
5.99453e-165
1.70758e-168
1.29614e-174
1.03223e-180
1.3301e-186
2.99845e-192
8.57563e-198
2.5741e-203
7.72461e-209
2.2963e-214
6.71787e-220
1.91052e-225
5.1386e-231
1.25681e-236
2.94662e-242
6.83169e-248
1.67228e-253
4.38754e-259
1.36894e-264
5.25835e-270
2.56123e-275
1.54725e-280
1.10977e-285
7.45295e-291
3.89345e-296
1.63459e-301
5.69658e-307
1.70132e-312
4.48154e-318
0
0
0
0
0
0
0
0
0
0
0
0
0
0
0
0
0
0
0
0
0
0
0
0
0
0
0
0
0
0
0
0
0
0
0
0
0
0
0
0
0
0
0
0
0
0
0
0
0
0
0
0
0
0
0
0
0
0
0
0
0
0
0
0
0
0
0
0
0
0
0
0
0
0
0
0
0
0
0
0
0
0
0
0
0
0
0
0
0
0
0
0
0
0
0
0
0
0
0
0
0
0
0
0
0
0
0
0
0
0
0
0
0
0
0
0
0
0
0
0
0
0
0
0
0
0
0
0
0
0
0
0
0
0
0
0
0
0
0
0
0
0
0
0
0
0
0
0
0
0
0
0
0
0
0
0
0
0
0
0
0
0
0
0
0
0
0
0
0
0
0
0
0
0
0
0
0
0
0
0
0
0
0
0
0
0
0
0
0
0
0
0
0
0
0
0
0
0
0
0
0
0
0
0
0
0
0
0
0
0
0
0
0
0
0
0
0
0
0
0
0
0
0
0
0
0
0
0
0
0
0
0
0
0
0
0
0
0
0
0
0
0
0
0.247724
0.247701
0.248098
0.248599
0.249228
0.249535
0.249066
0.248272
0.247607
0.248448
0.251005
0.246529
0.175514
0.156491
0.168518
0.229412
0.23602
0.208326
0.207911
0.216119
0.20346
0.198526
0.210098
0.227682
0.232445
0.22719
0.227452
0.236653
0.249255
0.251222
0.249481
0.247484
0.246122
0.245385
0.245051
0.24517
0.245903
0.246964
0.248601
0.250175
0.250897
0.251221
0.250415
0.239724
0.166327
0.104025
0.10669
0.0985095
0.096257
0.102426
0.120635
0.128428
0.117402
0.113631
0.115455
0.158329
0.250548
0.250019
0.247972
0.246381
0.245313
0.244778
0.244311
0.243473
0.244205
0.246849
0.248486
0.248721
0.248478
0.24805
0.247943
0.247673
0.246378
0.0807679
0.011526
8.40281e-05
3.39886e-07
2.61244e-08
4.12025e-09
1.38159e-09
2.31947e-10
5.94262e-12
1.46327e-13
4.7126e-16
8.5717e-19
1.10175e-21
9.31557e-25
5.58665e-28
2.12328e-31
5.1747e-35
8.3075e-39
1.12333e-42
1.7257e-46
3.25042e-50
7.1485e-54
1.69393e-57
4.15469e-61
1.03788e-64
2.63834e-68
6.90522e-72
1.8831e-75
5.43359e-79
1.6633e-82
5.39211e-86
1.8337e-89
6.47343e-93
2.35398e-96
8.75356e-100
3.28954e-103
1.24209e-106
4.92049e-110
2.43521e-113
1.73607e-116
1.69904e-119
1.85177e-122
2.03772e-125
2.20795e-128
2.32358e-131
2.40185e-134
2.4259e-137
2.42712e-140
2.39714e-143
2.35507e-146
2.29317e-149
2.18762e-152
2.07913e-155
1.91205e-158
1.75485e-161
1.55855e-164
1.02992e-167
2.09629e-173
3.41626e-179
4.77044e-185
6.32664e-191
9.10947e-197
1.71908e-202
4.29984e-208
1.26429e-213
3.86876e-219
1.18426e-224
3.49909e-230
9.80445e-236
2.62307e-241
6.90762e-247
1.82357e-252
5.09419e-258
1.59241e-263
5.79351e-269
2.48826e-274
1.28373e-279
7.97073e-285
5.14006e-290
2.80756e-295
1.24425e-300
4.59143e-306
1.45472e-311
4.05871e-317
6.42285e-323
0
0
0
0
0
0
0
0
0
0
0
0
0
0
0
0
0
0
0
0
0
0
0
0
0
0
0
0
0
0
0
0
0
0
0
0
0
0
0
0
0
0
0
0
0
0
0
0
0
0
0
0
0
0
0
0
0
0
0
0
0
0
0
0
0
0
0
0
0
0
0
0
0
0
0
0
0
0
0
0
0
0
0
0
0
0
0
0
0
0
0
0
0
0
0
0
0
0
0
0
0
0
0
0
0
0
0
0
0
0
0
0
0
0
0
0
0
0
0
0
0
0
0
0
0
0
0
0
0
0
0
0
0
0
0
0
0
0
0
0
0
0
0
0
0
0
0
0
0
0
0
0
0
0
0
0
0
0
0
0
0
0
0
0
0
0
0
0
0
0
0
0
0
0
0
0
0
0
0
0
0
0
0
0
0
0
0
0
0
0
0
0
0
0
0
0
0
0
0
0
0
0
0
0
0
0
0
0
0
0
0
0
0
0
0
0
0
0
0
0
0
0
0
0
0
0
0
0
0
0
0
0
0
0
0
0
0
0
0
0
0
0
0.245471
0.245861
0.246209
0.246467
0.246929
0.247143
0.246576
0.24586
0.245098
0.245272
0.246626
0.248308
0.250666
0.251058
0.250322
0.250892
0.244046
0.204793
0.201801
0.201543
0.206551
0.235235
0.251557
0.251492
0.251584
0.250837
0.249353
0.249337
0.251298
0.250288
0.248342
0.246468
0.245362
0.244791
0.244546
0.244431
0.244543
0.245008
0.245993
0.24764
0.249166
0.250267
0.25111
0.25111
0.245993
0.20143
0.161693
0.144233
0.132826
0.125499
0.12327
0.123391
0.133211
0.141405
0.193471
0.250965
0.249994
0.247866
0.246093
0.244934
0.244367
0.244061
0.244009
0.243519
0.242759
0.243661
0.245682
0.246724
0.246622
0.246008
0.245627
0.245389
0.245168
0.244491
0.062843
0.0104267
0.000219029
2.14093e-05
4.90166e-06
1.68407e-06
3.54604e-07
7.77714e-09
2.25363e-10
6.29655e-13
1.13684e-15
1.32837e-18
1.15343e-21
6.69982e-25
2.72617e-28
7.1699e-32
1.22303e-35
1.43282e-39
1.49376e-43
1.84757e-47
3.0116e-51
6.02543e-55
1.37025e-58
3.30838e-62
8.25303e-66
2.10857e-69
5.54727e-73
1.50506e-76
4.26812e-80
1.2685e-83
3.94496e-87
1.2807e-90
4.30823e-94
1.49002e-97
5.29817e-101
1.86614e-104
6.778e-108
2.41189e-111
8.6339e-115
3.07902e-118
1.15946e-121
4.95952e-125
2.77043e-128
2.01005e-131
1.67836e-134
1.489e-137
1.36225e-140
1.27879e-143
1.18872e-146
1.11036e-149
1.01031e-152
9.19079e-156
8.11094e-159
7.14286e-162
6.11299e-165
1.95829e-168
1.84255e-174
1.58095e-180
2.00959e-186
4.82309e-192
1.5121e-197
4.9024e-203
1.54223e-208
4.73544e-214
1.40254e-219
4.07889e-225
1.14497e-230
3.13714e-236
8.2732e-242
2.17831e-247
5.8143e-253
1.65563e-258
5.21661e-264
1.88935e-269
7.95839e-275
3.96137e-280
2.32249e-285
1.39544e-290
7.07153e-296
2.92511e-301
1.01366e-306
3.05342e-312
8.18972e-318
0
0
0
0
0
0
0
0
0
0
0
0
0
0
0
0
0
0
0
0
0
0
0
0
0
0
0
0
0
0
0
0
0
0
0
0
0
0
0
0
0
0
0
0
0
0
0
0
0
0
0
0
0
0
0
0
0
0
0
0
0
0
0
0
0
0
0
0
0
0
0
0
0
0
0
0
0
0
0
0
0
0
0
0
0
0
0
0
0
0
0
0
0
0
0
0
0
0
0
0
0
0
0
0
0
0
0
0
0
0
0
0
0
0
0
0
0
0
0
0
0
0
0
0
0
0
0
0
0
0
0
0
0
0
0
0
0
0
0
0
0
0
0
0
0
0
0
0
0
0
0
0
0
0
0
0
0
0
0
0
0
0
0
0
0
0
0
0
0
0
0
0
0
0
0
0
0
0
0
0
0
0
0
0
0
0
0
0
0
0
0
0
0
0
0
0
0
0
0
0
0
0
0
0
0
0
0
0
0
0
0
0
0
0
0
0
0
0
0
0
0
0
0
0
0
0
0
0
0
0
0
0
0
0
0
0
0
0
0
0
0
0
0
0.243075
0.243519
0.243877
0.244172
0.244442
0.244501
0.244354
0.244016
0.243655
0.243584
0.243872
0.244358
0.245225
0.245744
0.247162
0.250584
0.23321
0.19908
0.199743
0.215404
0.249382
0.250653
0.248954
0.2487
0.249491
0.250567
0.250779
0.250685
0.249621
0.24808
0.246457
0.245237
0.244558
0.244228
0.244086
0.243981
0.243913
0.243907
0.244213
0.244877
0.246111
0.247637
0.249236
0.250251
0.250966
0.251021
0.229469
0.205441
0.184359
0.164346
0.151664
0.148291
0.16429
0.193564
0.24142
0.251073
0.249242
0.246707
0.244866
0.243888
0.243561
0.24352
0.243575
0.243496
0.242983
0.24255
0.243125
0.244172
0.244565
0.244174
0.243637
0.243427
0.243318
0.243016
0.243076
0.115755
0.0397913
0.0142314
0.0051337
0.0017641
0.000398321
8.15165e-06
2.55568e-07
6.4878e-10
1.02812e-12
1.17473e-15
9.34312e-19
5.53981e-22
2.28071e-25
6.56215e-29
1.23265e-32
1.54688e-36
1.47189e-40
1.40094e-44
1.74754e-48
2.90633e-52
5.96611e-56
1.38459e-59
3.41802e-63
8.75003e-67
2.29825e-70
6.20226e-74
1.7132e-77
4.84395e-81
1.41352e-84
4.23476e-88
1.30929e-91
4.13732e-95
1.34746e-98
4.35169e-102
1.458e-105
4.73944e-109
1.52776e-112
4.93564e-116
1.54228e-119
4.77892e-123
1.45135e-126
4.37956e-130
1.3166e-133
3.97658e-137
1.2343e-140
4.05791e-144
1.53782e-147
7.21933e-151
4.29118e-154
3.04129e-157
2.33738e-160
1.87169e-163
1.44792e-166
5.35426e-172
1.80183e-177
5.41074e-183
1.4739e-188
3.64165e-194
8.33732e-200
1.80145e-205
3.73918e-211
7.79348e-217
1.67005e-222
4.23969e-228
1.07962e-233
3.25749e-239
9.15494e-245
2.75334e-250
8.65031e-256
2.88774e-261
1.02367e-266
3.93833e-272
1.64796e-277
7.6899e-283
4.00937e-288
2.02983e-293
8.46966e-299
2.9823e-304
9.14923e-310
2.54e-315
6.44756e-321
0
0
0
0
0
0
0
0
0
0
0
0
0
0
0
0
0
0
0
0
0
0
0
0
0
0
0
0
0
0
0
0
0
0
0
0
0
0
0
0
0
0
0
0
0
0
0
0
0
0
0
0
0
0
0
0
0
0
0
0
0
0
0
0
0
0
0
0
0
0
0
0
0
0
0
0
0
0
0
0
0
0
0
0
0
0
0
0
0
0
0
0
0
0
0
0
0
0
0
0
0
0
0
0
0
0
0
0
0
0
0
0
0
0
0
0
0
0
0
0
0
0
0
0
0
0
0
0
0
0
0
0
0
0
0
0
0
0
0
0
0
0
0
0
0
0
0
0
0
0
0
0
0
0
0
0
0
0
0
0
0
0
0
0
0
0
0
0
0
0
0
0
0
0
0
0
0
0
0
0
0
0
0
0
0
0
0
0
0
0
0
0
0
0
0
0
0
0
0
0
0
0
0
0
0
0
0
0
0
0
0
0
0
0
0
0
0
0
0
0
0
0
0
0
0
0
0
0
0
0
0
0
0
0
0
0
0
0
0
0
0
0
0
0.242907
0.242947
0.243063
0.243217
0.243298
0.24331
0.243298
0.243249
0.243204
0.243218
0.243266
0.243361
0.243469
0.243592
0.244583
0.248096
0.251509
0.227442
0.23095
0.251133
0.250041
0.247246
0.245727
0.245774
0.246366
0.24757
0.247718
0.247905
0.247156
0.246213
0.245345
0.244648
0.244187
0.243924
0.243773
0.243697
0.243644
0.243596
0.243564
0.243644
0.243867
0.244575
0.245667
0.246873
0.247842
0.249123
0.250772
0.251293
0.250874
0.245919
0.231445
0.224378
0.23583
0.247521
0.251095
0.249617
0.246915
0.244701
0.243586
0.243265
0.243217
0.243246
0.243303
0.243304
0.243087
0.242716
0.242515
0.242686
0.242996
0.24306
0.242917
0.24287
0.242794
0.242743
0.242812
0.24265
0.242677
0.242533
0.242666
0.0984162
0.0296407
0.0060955
0.000249181
4.4746e-07
6.9133e-10
6.49756e-13
5.11892e-16
2.87228e-19
1.27657e-22
3.87292e-26
8.33405e-30
1.19425e-33
1.25255e-37
1.1825e-41
1.33785e-45
2.04267e-49
4.0006e-53
9.06962e-57
2.22052e-60
5.62884e-64
1.4559e-67
3.81766e-71
1.01774e-74
2.75923e-78
7.58236e-82
2.11773e-85
6.07525e-89
1.75742e-92
5.23094e-96
1.54599e-99
4.70038e-103
1.3905e-106
4.23041e-110
1.24417e-113
3.71052e-117
1.08668e-120
3.18475e-124
9.2743e-128
2.70456e-131
7.89483e-135
2.31348e-138
6.87774e-142
2.07139e-145
6.45411e-149
2.0706e-152
7.00422e-156
2.44911e-159
9.02181e-163
3.3742e-166
8.36134e-172
1.94755e-177
4.09544e-183
7.92987e-189
1.39935e-194
2.31996e-200
3.61064e-206
5.45031e-212
8.10988e-218
1.20854e-223
1.89056e-229
3.11255e-235
5.61052e-241
1.07832e-246
2.24212e-252
8.42753e-258
6.81409e-263
3.89064e-268