/*--------------------------------*- C++ -*----------------------------------*\
| =========                 |                                                 |
| \\      /  F ield         | OpenFOAM: The Open Source CFD Toolbox           |
|  \\    /   O peration     | Version:  2.1.1                                 |
|   \\  /    A nd           | Web:      www.OpenFOAM.org                      |
|    \\/     M anipulation  |                                                 |
\*---------------------------------------------------------------------------*/
FoamFile
{
    version     2.0;
    format      ascii;
    class       volScalarField;
    location    "0.001600000";
    object      H2O2;
}
// * * * * * * * * * * * * * * * * * * * * * * * * * * * * * * * * * * * * * //

dimensions      [0 0 0 0 0 0 0];

internalField   nonuniform List<scalar> 
12384
(
3.36149e-07
3.36248e-07
8.70391e-08
1.51351e-08
1.47553e-09
9.72553e-11
2.20557e-11
6.90853e-12
1.70343e-12
1.45665e-13
2.71727e-15
5.51303e-17
7.17516e-19
9.14009e-21
1.99304e-18
2.37471e-16
2.1153e-14
1.63762e-12
1.7142e-11
4.97702e-11
2.34143e-10
3.39098e-10
2.2574e-10
1.94214e-10
6.22178e-11
1.65463e-11
5.61454e-12
1.35878e-12
2.29903e-14
2.18309e-16
2.45653e-18
1.09242e-20
2.07209e-23
4.72881e-26
1.08251e-28
1.96367e-31
3.33261e-34
5.84937e-37
1.0231e-39
2.00541e-42
3.61046e-45
6.31077e-48
1.06541e-50
3.48392e-52
2.98454e-63
4.40566e-64
1.75292e-66
4.32944e-69
8.39726e-72
1.05862e-73
3.43409e-74
2.72873e-75
1.89491e-77
4.27562e-80
7.3301e-83
6.44431e-86
5.75237e-89
5.20812e-92
4.61681e-95
4.10725e-98
3.47307e-101
2.96075e-104
2.64056e-107
2.29698e-110
2.10503e-113
1.79877e-116
1.68196e-119
1.57857e-122
1.49818e-125
2.46413e-128
4.48744e-131
6.04414e-134
6.82632e-137
6.9747e-140
3.37836e-149
2.24972e-150
4.40458e-153
5.9059e-156
6.37821e-159
6.00908e-162
5.29478e-165
4.4647e-168
3.77728e-171
6.34356e-175
3.85691e-181
2.33926e-185
3.58488e-189
3.65159e-193
2.50746e-197
1.49643e-201
6.05944e-206
1.55758e-210
3.61158e-215
7.66185e-220
1.39811e-224
1.7935e-229
1.91323e-234
1.65279e-239
1.2152e-244
7.37317e-250
3.84594e-255
1.82543e-260
2.75654e-265
3.71608e-268
1.46706e-285
2.7822e-285
8.96073e-287
1.3279e-289
4.13003e-292
1.16635e-294
2.88739e-297
6.5545e-300
1.41544e-302
2.9331e-305
5.95586e-308
1.18378e-310
2.27725e-313
4.18978e-316
7.30945e-319
1.2401e-321
0
0
0
0
0
0
0
0
0
0
0
0
0
0
0
0
0
0
0
0
0
0
0
0
0
0
0
0
0
0
0
0
0
0
0
0
0
0
0
0
0
0
0
0
0
0
0
0
0
0
0
0
0
0
0
0
0
0
0
0
0
0
0
0
0
0
0
0
0
0
0
0
0
0
0
0
0
0
0
0
0
0
0
0
0
0
0
0
0
0
0
0
0
0
0
0
0
0
0
0
0
0
0
0
0
0
0
0
0
0
0
0
0
0
0
0
0
0
0
0
0
0
0
0
0
0
0
0
0
0
0
0
0
0
0
0
0
0
0
0
0
0
0
0
0
0
0
0
0
0
0
0
0
0
0
0
0
0
0
0
0
0
0
0
0
0
0
0
0
0
0
0
0
0
0
0
0
0
0
0
0
0
0
0
0
0
0
0
0
0
0
0
0
0
0
0
0
0
0
0
0
0
0
0
0
0
0
0
0
0
0
0
0
0
0
0
0
0
0
0
0
0
0
0
0
0
0
0
0
0
0
0
0
0
0
0
0
0
0
0
0
0
0
0
0
0
0
0
0
0
0
0
0
0
2.99138e-07
2.72637e-07
2.99321e-07
5.55623e-08
8.21671e-09
1.22369e-09
1.79849e-10
4.65386e-11
1.81369e-11
3.25981e-12
1.30121e-13
4.40355e-15
9.47858e-17
7.44874e-19
4.50599e-17
4.12543e-15
1.33243e-12
3.46163e-10
3.32973e-09
8.62927e-09
1.22086e-08
1.42233e-08
1.3043e-08
1.12362e-08
7.46618e-09
2.84022e-09
9.30707e-10
1.55008e-10
3.44968e-12
1.72142e-14
1.04354e-16
4.26194e-19
9.20604e-23
2.96904e-25
2.72713e-27
4.87864e-30
2.9007e-32
8.0185e-35
2.94822e-37
1.25519e-39
1.41799e-42
1.51918e-45
1.72175e-48
5.2475e-49
2.69438e-60
1.47136e-61
3.00885e-64
5.05597e-67
8.1347e-70
4.06318e-72
1.45856e-72
1.71719e-73
1.57328e-75
2.62273e-78
3.54397e-81
7.12783e-85
3.64461e-88
4.87841e-91
7.10178e-94
1.1591e-96
1.65336e-99
1.05942e-102
7.5883e-106
6.33126e-109
5.42539e-112
4.95271e-115
4.62482e-118
4.24442e-121
2.77543e-123
1.4475e-125
4.18343e-128
4.87868e-131
4.67582e-134
4.10311e-137
1.86841e-146
1.02442e-147
2.09833e-150
3.04542e-153
3.29844e-156
3.20735e-159
2.97368e-162
2.57028e-165
2.36854e-168
2.08826e-171
2.7726e-176
1.11459e-179
1.39607e-183
1.34696e-187
8.78696e-192
7.65423e-196
3.02032e-200
7.18416e-205
1.42133e-209
2.65657e-214
4.71089e-219
6.32028e-224
7.04549e-229
6.28073e-234
4.57549e-239
2.64749e-244
1.22324e-249
5.01036e-255
2.05786e-260
3.34742e-265
3.14957e-282
3.16026e-282
1.00412e-283
1.57208e-286
5.19559e-289
1.54149e-291
3.98704e-294
9.39964e-297
2.08468e-299
4.42559e-302
9.07529e-305
1.81162e-307
3.46514e-310
6.30587e-313
1.07866e-315
1.77366e-318
2.80135e-321
4.94066e-324
0
0
0
0
0
0
0
0
0
0
0
0
0
0
0
0
0
0
0
0
0
0
0
0
0
0
0
0
0
0
0
0
0
0
0
0
0
0
0
0
0
0
0
0
0
0
0
0
0
0
0
0
0
0
0
0
0
0
0
0
0
0
0
0
0
0
0
0
0
0
0
0
0
0
0
0
0
0
0
0
0
0
0
0
0
0
0
0
0
0
0
0
0
0
0
0
0
0
0
0
0
0
0
0
0
0
0
0
0
0
0
0
0
0
0
0
0
0
0
0
0
0
0
0
0
0
0
0
0
0
0
0
0
0
0
0
0
0
0
0
0
0
0
0
0
0
0
0
0
0
0
0
0
0
0
0
0
0
0
0
0
0
0
0
0
0
0
0
0
0
0
0
0
0
0
0
0
0
0
0
0
0
0
0
0
0
0
0
0
0
0
0
0
0
0
0
0
0
0
0
0
0
0
0
0
0
0
0
0
0
0
0
0
0
0
0
0
0
0
0
0
0
0
0
0
0
0
0
0
0
0
0
0
0
0
0
0
0
0
0
0
0
0
0
0
0
0
0
0
0
0
0
8.84044e-08
1.04639e-07
5.38167e-08
5.02132e-09
1.27442e-09
6.67791e-10
4.02606e-10
2.86346e-10
1.36842e-10
3.12902e-11
6.78344e-13
2.04053e-14
1.54773e-15
1.75448e-17
3.36907e-16
2.47138e-12
3.47611e-09
3.51411e-08
9.82161e-08
2.29436e-07
1.52379e-07
1.23306e-07
1.30601e-07
1.79889e-07
2.00944e-07
8.63433e-08
4.50038e-08
3.92005e-08
1.79198e-08
1.42842e-09
5.7045e-11
1.39902e-13
3.29407e-18
2.26851e-21
6.3529e-25
1.91099e-28
7.35187e-31
1.01839e-33
7.15738e-36
2.34073e-37
7.73483e-40
1.5761e-42
2.19775e-45
1.05756e-45
3.18239e-58
6.29316e-59
4.91399e-61
4.0347e-63
1.59075e-65
1.2563e-67
4.36111e-68
7.60907e-69
6.97129e-71
4.92003e-74
2.38375e-77
5.24419e-82
3.05909e-85
1.84871e-88
1.29106e-91
8.8764e-95
5.80717e-98
1.94801e-102
1.32003e-105
1.13476e-108
1.06405e-111
9.33249e-115
1.04427e-117
1.15059e-120
4.7251e-122
2.92145e-124
3.78296e-126
6.38298e-129
5.07114e-132
2.84356e-135
4.27389e-145
3.39904e-146
6.92936e-149
8.35337e-152
7.55684e-155
5.74714e-158
3.8718e-161
2.58122e-164
1.87023e-167
1.29349e-170
1.14615e-173
8.80412e-177
9.19609e-181
7.73737e-185
5.68618e-189
7.45268e-193
3.01134e-197
5.69906e-202
9.45738e-207
1.43659e-211
2.31333e-216
3.42807e-221
4.57875e-226
5.53568e-231
4.60374e-236
3.37836e-241
1.54576e-246
6.28241e-252
2.23169e-257
5.74731e-263
1.17057e-281
6.7124e-282
1.19804e-283
3.00431e-286
1.05741e-288
3.22275e-291
9.21473e-294
2.24713e-296
5.2078e-299
1.12866e-301
2.35993e-304
4.81675e-307
9.39312e-310
1.76829e-312
3.01766e-315
4.88575e-318
7.38628e-321
9.88131e-324
0
0
0
0
0
0
0
0
0
0
0
0
0
0
0
0
0
0
0
0
0
0
0
0
0
0
0
0
0
0
0
0
0
0
0
0
0
0
0
0
0
0
0
0
0
0
0
0
0
0
0
0
0
0
0
0
0
0
0
0
0
0
0
0
0
0
0
0
0
0
0
0
0
0
0
0
0
0
0
0
0
0
0
0
0
0
0
0
0
0
0
0
0
0
0
0
0
0
0
0
0
0
0
0
0
0
0
0
0
0
0
0
0
0
0
0
0
0
0
0
0
0
0
0
0
0
0
0
0
0
0
0
0
0
0
0
0
0
0
0
0
0
0
0
0
0
0
0
0
0
0
0
0
0
0
0
0
0
0
0
0
0
0
0
0
0
0
0
0
0
0
0
0
0
0
0
0
0
0
0
0
0
0
0
0
0
0
0
0
0
0
0
0
0
0
0
0
0
0
0
0
0
0
0
0
0
0
0
0
0
0
0
0
0
0
0
0
0
0
0
0
0
0
0
0
0
0
0
0
0
0
0
0
0
0
0
0
0
0
0
0
0
0
0
0
0
0
0
0
0
0
0
1.85178e-08
2.50078e-08
1.16417e-08
2.8056e-09
1.23629e-09
1.09902e-09
1.15897e-09
2.9286e-09
1.74004e-09
1.35068e-09
2.26832e-10
4.76383e-12
3.74429e-14
1.62381e-16
4.86123e-13
3.31767e-09
2.97058e-08
1.55163e-07
2.10918e-08
2.65314e-08
2.10165e-08
1.0963e-08
1.19879e-08
1.24114e-08
1.02426e-08
4.19257e-09
5.28479e-09
8.07811e-09
1.26143e-08
5.70476e-09
3.61737e-09
3.08368e-09
6.35708e-12
3.99914e-15
8.60366e-19
1.17057e-22
2.12223e-25
2.07719e-28
7.27089e-32
5.21039e-35
7.51254e-38
4.65658e-40
2.25398e-42
2.22348e-42
5.45892e-54
6.53031e-54
1.6408e-55
4.78683e-58
1.39632e-61
8.38024e-65
8.04969e-66
2.16077e-66
1.11836e-67
9.55382e-70
4.04052e-72
3.19858e-75
1.61718e-78
7.76011e-82
3.67084e-85
1.97479e-88
1.16954e-91
2.51263e-96
1.42398e-99
1.07553e-102
6.83838e-106
5.49032e-109
3.58089e-112
2.5197e-115
1.61964e-118
1.45112e-121
1.11951e-123
6.20506e-127
2.79046e-130
6.83194e-134
6.49885e-140
6.40725e-141
1.1711e-143
1.11671e-146
8.69478e-150
5.4889e-153
3.01917e-156
1.70153e-159
1.01016e-162
5.65272e-166
4.17923e-169
3.36977e-172
3.0944e-175
2.30911e-179
2.77037e-183
3.38747e-187
1.04543e-191
1.85556e-196
2.55462e-201
2.99065e-206
3.70433e-211
4.77384e-216
6.60955e-221
8.36934e-226
8.16274e-231
5.88363e-236
2.55003e-241
8.19993e-247
2.17698e-252
6.233e-258
6.47079e-278
7.15885e-279
4.53847e-281
1.92854e-283
6.28424e-286
1.70695e-288
4.15449e-291
9.22969e-294
1.91278e-296
3.84131e-299
7.31562e-302
1.36755e-304
2.45678e-307
4.30568e-310
7.40882e-313
1.23268e-315
2.02124e-318
3.18672e-321
4.94066e-324
0
0
0
0
0
0
0
0
0
0
0
0
0
0
0
0
0
0
0
0
0
0
0
0
0
0
0
0
0
0
0
0
0
0
0
0
0
0
0
0
0
0
0
0
0
0
0
0
0
0
0
0
0
0
0
0
0
0
0
0
0
0
0
0
0
0
0
0
0
0
0
0
0
0
0
0
0
0
0
0
0
0
0
0
0
0
0
0
0
0
0
0
0
0
0
0
0
0
0
0
0
0
0
0
0
0
0
0
0
0
0
0
0
0
0
0
0
0
0
0
0
0
0
0
0
0
0
0
0
0
0
0
0
0
0
0
0
0
0
0
0
0
0
0
0
0
0
0
0
0
0
0
0
0
0
0
0
0
0
0
0
0
0
0
0
0
0
0
0
0
0
0
0
0
0
0
0
0
0
0
0
0
0
0
0
0
0
0
0
0
0
0
0
0
0
0
0
0
0
0
0
0
0
0
0
0
0
0
0
0
0
0
0
0
0
0
0
0
0
0
0
0
0
0
0
0
0
0
0
0
0
0
0
0
0
0
0
0
0
0
0
0
0
0
0
0
0
0
0
0
0
3.13921e-08
3.68095e-08
4.16791e-08
1.4582e-07
1.49477e-07
1.04066e-07
8.73255e-08
6.0446e-08
6.25769e-08
4.2336e-08
6.11703e-09
2.27343e-09
4.11671e-11
1.10732e-14
6.16695e-11
2.36661e-08
4.03283e-08
5.37198e-09
2.8066e-08
6.53614e-08
5.37895e-08
2.45618e-08
1.66771e-08
8.75875e-09
4.85309e-09
2.56978e-09
1.32031e-09
9.72075e-10
1.17349e-09
1.42369e-09
3.5231e-09
1.50753e-09
1.11457e-09
1.78761e-11
4.74068e-14
6.56607e-17
1.64392e-19
1.6509e-22
4.19264e-26
1.76401e-29
1.30134e-33
1.4704e-37
8.27414e-40
2.53564e-39
3.99523e-49
4.48871e-49
4.73158e-52
1.02853e-55
7.2033e-59
6.33968e-62
2.35408e-63
4.23374e-64
1.40528e-65
2.48113e-68
8.90938e-71
9.30667e-73
1.21188e-74
1.66061e-77
1.23606e-80
8.21736e-84
5.35474e-87
3.86461e-90
2.79108e-93
2.0989e-96
1.56905e-99
9.97052e-103
6.93255e-106
3.7787e-109
2.17478e-112
9.34652e-116
3.98536e-119
1.22709e-122
3.40488e-126
5.83022e-130
4.38087e-135
4.82202e-136
1.02132e-138
1.05961e-141
8.06873e-145
4.91999e-148
2.87065e-151
1.6183e-154
9.24591e-158
6.0413e-161
4.35385e-164
3.39082e-167
3.15858e-170
2.89942e-173
1.09956e-176
6.66123e-181
1.73136e-185
2.73663e-190
3.13276e-195
3.14043e-200
2.95874e-205
2.99026e-210
3.28682e-215
4.2283e-220
4.92988e-225
4.19383e-230
1.93818e-235
5.62229e-241
1.37795e-246
3.54267e-252
1.76083e-272
8.33252e-275
1.42228e-277
5.25316e-280
1.51432e-282
3.79464e-285
8.42642e-288
1.74731e-290
3.4517e-293
6.54494e-296
1.21165e-298
2.16344e-301
3.78649e-304
6.47234e-307
1.08211e-309
1.79178e-312
2.85718e-315
4.54196e-318
6.89222e-321
9.88131e-324
0
0
0
0
0
0
0
0
0
0
0
0
0
0
0
0
0
0
0
0
0
0
0
0
0
0
0
0
0
0
0
0
0
0
0
0
0
0
0
0
0
0
0
0
0
0
0
0
0
0
0
0
0
0
0
0
0
0
0
0
0
0
0
0
0
0
0
0
0
0
0
0
0
0
0
0
0
0
0
0
0
0
0
0
0
0
0
0
0
0
0
0
0
0
0
0
0
0
0
0
0
0
0
0
0
0
0
0
0
0
0
0
0
0
0
0
0
0
0
0
0
0
0
0
0
0
0
0
0
0
0
0
0
0
0
0
0
0
0
0
0
0
0
0
0
0
0
0
0
0
0
0
0
0
0
0
0
0
0
0
0
0
0
0
0
0
0
0
0
0
0
0
0
0
0
0
0
0
0
0
0
0
0
0
0
0
0
0
0
0
0
0
0
0
0
0
0
0
0
0
0
0
0
0
0
0
0
0
0
0
0
0
0
0
0
0
0
0
0
0
0
0
0
0
0
0
0
0
0
0
0
0
0
0
0
0
0
0
0
0
0
0
0
0
0
0
0
0
0
0
2.5902e-07
2.65852e-07
3.9694e-07
5.74774e-07
5.45467e-07
4.79384e-07
3.40894e-07
2.66736e-07
2.31656e-07
1.71361e-07
1.06375e-07
7.44005e-08
2.2986e-09
6.47461e-12
2.60548e-10
3.18523e-08
2.59486e-08
2.39186e-08
1.73024e-07
2.68923e-07
2.69005e-07
1.93142e-07
6.41608e-08
2.09955e-08
7.78737e-09
2.64266e-09
1.12297e-09
5.99146e-10
5.11785e-10
4.62773e-10
5.65886e-10
1.27219e-09
7.87788e-10
3.22536e-10
1.77206e-11
2.51723e-13
1.9086e-15
1.14494e-17
3.20129e-20
1.59692e-23
7.02573e-28
1.59997e-32
5.3916e-37
1.68567e-36
1.54434e-44
1.49762e-45
4.02045e-49
6.117e-52
5.06979e-55
2.26542e-58
9.29432e-60
1.58843e-60
3.10111e-62
1.16705e-65
9.40966e-69
2.49505e-71
2.21116e-73
3.03897e-75
2.68719e-77
4.94226e-80
5.41133e-83
5.38917e-86
5.05872e-89
4.53932e-92
3.93323e-95
3.31144e-98
2.27041e-101
1.4755e-104
8.21529e-108
4.03099e-111
1.6078e-114
5.20932e-118
1.05308e-121
1.23167e-125
6.68449e-131
2.42204e-132
4.63943e-135
9.45967e-138
1.27127e-140
1.07778e-143
7.0601e-147
4.49706e-150
2.94984e-153
1.98121e-156
1.57268e-159
1.28663e-162
1.22206e-165
1.12903e-168
1.08619e-171
8.58491e-175
1.97067e-179
2.76381e-184
3.03514e-189
2.49114e-194
1.96704e-199
1.43744e-204
1.23825e-209
1.13709e-214
1.22697e-219
1.14928e-224
6.06322e-230
1.83081e-235
4.30364e-241
9.00218e-247
4.00653e-266
7.472e-269
8.19147e-274
1.17095e-276
2.90241e-279
6.20705e-282
1.26874e-284
2.42604e-287
4.49583e-290
8.06112e-293
1.40101e-295
2.40215e-298
3.98671e-301
6.57729e-304
1.05789e-306
1.68135e-309
2.60599e-312
3.96572e-315
5.89919e-318
8.65109e-321
9.88131e-324
0
0
0
0
0
0
0
0
0
0
0
0
0
0
0
0
0
0
0
0
0
0
0
0
0
0
0
0
0
0
0
0
0
0
0
0
0
0
0
0
0
0
0
0
0
0
0
0
0
0
0
0
0
0
0
0
0
0
0
0
0
0
0
0
0
0
0
0
0
0
0
0
0
0
0
0
0
0
0
0
0
0
0
0
0
0
0
0
0
0
0
0
0
0
0
0
0
0
0
0
0
0
0
0
0
0
0
0
0
0
0
0
0
0
0
0
0
0
0
0
0
0
0
0
0
0
0
0
0
0
0
0
0
0
0
0
0
0
0
0
0
0
0
0
0
0
0
0
0
0
0
0
0
0
0
0
0
0
0
0
0
0
0
0
0
0
0
0
0
0
0
0
0
0
0
0
0
0
0
0
0
0
0
0
0
0
0
0
0
0
0
0
0
0
0
0
0
0
0
0
0
0
0
0
0
0
0
0
0
0
0
0
0
0
0
0
0
0
0
0
0
0
0
0
0
0
0
0
0
0
0
0
0
0
0
0
0
0
0
0
0
0
0
0
0
0
0
0
0
5.44597e-07
5.60097e-07
5.5166e-07
4.37047e-07
4.02295e-07
4.21951e-07
3.74795e-07
3.28993e-07
3.28995e-07
3.0442e-07
2.52192e-07
1.70036e-07
1.09448e-08
6.68316e-11
1.34693e-09
6.59057e-08
6.62586e-08
2.7778e-07
3.31753e-07
3.0687e-07
3.03745e-07
3.30027e-07
3.09589e-07
1.20303e-07
2.267e-08
5.24849e-09
1.36426e-09
5.36532e-10
2.81743e-10
2.32905e-10
2.5422e-10
2.85837e-10
6.26013e-10
3.8796e-10
1.70376e-10
9.01921e-12
7.1307e-13
3.83318e-14
2.97195e-16
7.39569e-19
7.16129e-22
1.06495e-26
8.17601e-32
2.55843e-33
1.71554e-40
1.47458e-42
1.22828e-45
7.51224e-49
6.66726e-53
1.23442e-56
1.67547e-57
2.2016e-57
5.94595e-59
1.5513e-62
4.84088e-66
3.73301e-69
8.70325e-72
6.98222e-74
7.74454e-76
6.116e-78
3.18233e-80
8.5683e-83
1.58944e-85
2.25956e-88
2.77838e-91
3.05284e-94
2.81575e-97
2.30231e-100
1.72835e-103
1.05039e-106
5.30579e-110
1.7577e-113
3.66062e-117
3.05138e-121
1.19836e-127
8.35701e-130
6.28762e-133
7.27828e-136
1.92084e-138
8.73714e-141
2.13915e-143
2.45885e-146
2.25185e-149
1.96144e-152
1.82579e-155
1.77002e-158
1.84247e-161
1.85925e-164
1.94312e-167
1.87237e-170
1.7569e-173
2.35664e-178
2.44451e-183
1.85256e-188
1.21778e-193
7.69859e-199
5.0618e-204
3.70968e-209
2.98113e-214
2.68763e-219
1.67656e-224
5.62844e-230
1.26576e-235
2.68832e-241
9.33619e-260
1.24723e-262
4.46158e-268
4.32621e-273
5.31962e-276
1.02748e-278
1.87936e-281
3.34975e-284
5.7535e-287
9.72378e-290
1.59447e-292
2.58429e-295
4.09638e-298
6.46143e-301
9.94173e-304
1.53457e-306
2.28312e-309
3.4139e-312
4.90687e-315
7.05653e-318
9.87637e-321
1.4822e-323
0
0
0
0
0
0
0
0
0
0
0
0
0
0
0
0
0
0
0
0
0
0
0
0
0
0
0
0
0
0
0
0
0
0
0
0
0
0
0
0
0
0
0
0
0
0
0
0
0
0
0
0
0
0
0
0
0
0
0
0
0
0
0
0
0
0
0
0
0
0
0
0
0
0
0
0
0
0
0
0
0
0
0
0
0
0
0
0
0
0
0
0
0
0
0
0
0
0
0
0
0
0
0
0
0
0
0
0
0
0
0
0
0
0
0
0
0
0
0
0
0
0
0
0
0
0
0
0
0
0
0
0
0
0
0
0
0
0
0
0
0
0
0
0
0
0
0
0
0
0
0
0
0
0
0
0
0
0
0
0
0
0
0
0
0
0
0
0
0
0
0
0
0
0
0
0
0
0
0
0
0
0
0
0
0
0
0
0
0
0
0
0
0
0
0
0
0
0
0
0
0
0
0
0
0
0
0
0
0
0
0
0
0
0
0
0
0
0
0
0
0
0
0
0
0
0
0
0
0
0
0
0
0
0
0
0
0
0
0
0
0
0
0
0
0
0
0
0
4.75182e-07
4.44719e-07
3.64949e-07
2.30587e-07
2.78252e-07
2.72476e-07
2.55404e-07
3.02129e-07
3.09812e-07
3.34604e-07
3.06557e-07
1.79945e-07
9.69362e-09
1.58541e-10
1.17464e-08
3.30235e-07
3.04366e-07
3.10529e-07
2.22084e-07
2.14062e-07
2.374e-07
2.80038e-07
3.29257e-07
3.27764e-07
1.23432e-07
1.28392e-08
2.41739e-09
6.61458e-10
2.75443e-10
1.52449e-10
1.31605e-10
1.30909e-10
1.18594e-10
2.34952e-10
1.93711e-10
8.28873e-11
2.07882e-11
1.49918e-12
6.8905e-14
2.928e-15
1.71986e-17
9.35366e-21
2.48758e-26
1.2168e-29
9.83151e-37
3.09803e-39
2.58296e-42
6.08385e-46
4.07796e-51
1.36862e-54
4.58155e-55
7.99253e-55
1.72211e-56
5.16733e-60
1.91099e-63
1.22274e-66
1.36729e-69
4.45143e-72
2.64568e-74
1.9801e-76
1.12719e-78
4.6863e-81
1.51649e-83
4.50055e-86
1.37531e-88
2.73793e-91
4.81831e-94
6.27334e-97
6.68394e-100
5.60252e-103
3.85414e-106
1.77733e-109
4.11501e-113
3.11947e-117
1.55864e-124
1.8579e-126
4.02508e-130
1.49301e-133
1.514e-136
4.49955e-139
1.81656e-141
5.25098e-144
1.01555e-146
1.74485e-149
2.56661e-152
3.54406e-155
4.69332e-158
5.51569e-161
6.34744e-164
6.85037e-167
7.03361e-170
6.90299e-173
6.78117e-178
4.59446e-183
2.57411e-188
1.36714e-193
7.32984e-199
4.26394e-204
2.71486e-209
1.94111e-214
1.21495e-219
4.78472e-225
1.2669e-230
2.8445e-236
7.22981e-254
3.44864e-257
1.05205e-262
3.598e-268
7.12785e-273
8.78386e-276
1.33355e-278
2.0232e-281
3.06324e-284
4.59366e-287
6.88229e-290
1.01888e-292
1.50983e-295
2.23886e-298
3.28401e-301
4.80461e-304
6.9044e-307
9.81248e-310
1.36932e-312
1.88268e-315
2.56162e-318
3.44364e-321
4.94066e-324
0
0
0
0
0
0
0
0
0
0
0
0
0
0
0
0
0
0
0
0
0
0
0
0
0
0
0
0
0
0
0
0
0
0
0
0
0
0
0
0
0
0
0
0
0
0
0
0
0
0
0
0
0
0
0
0
0
0
0
0
0
0
0
0
0
0
0
0
0
0
0
0
0
0
0
0
0
0
0
0
0
0
0
0
0
0
0
0
0
0
0
0
0
0
0
0
0
0
0
0
0
0
0
0
0
0
0
0
0
0
0
0
0
0
0
0
0
0
0
0
0
0
0
0
0
0
0
0
0
0
0
0
0
0
0
0
0
0
0
0
0
0
0
0
0
0
0
0
0
0
0
0
0
0
0
0
0
0
0
0
0
0
0
0
0
0
0
0
0
0
0
0
0
0
0
0
0
0
0
0
0
0
0
0
0
0
0
0
0
0
0
0
0
0
0
0
0
0
0
0
0
0
0
0
0
0
0
0
0
0
0
0
0
0
0
0
0
0
0
0
0
0
0
0
0
0
0
0
0
0
0
0
0
0
0
0
0
0
0
0
0
0
0
0
0
0
0
2.53743e-07
2.14768e-07
9.82424e-08
8.88879e-08
1.27542e-07
1.54128e-07
1.6363e-07
1.59992e-07
1.4707e-07
1.95159e-07
3.3472e-07
2.31193e-07
4.37642e-08
2.33886e-09
9.47372e-09
2.88752e-08
4.34805e-08
3.08321e-07
3.11738e-07
2.2264e-07
1.70159e-07
2.12704e-07
2.93222e-07
3.21562e-07
3.36277e-07
3.27946e-07
1.56819e-07
1.7498e-08
2.79368e-09
6.16531e-10
2.64934e-10
1.3555e-10
1.05611e-10
6.56418e-11
6.06968e-11
6.13122e-11
9.96435e-11
1.84231e-10
6.40879e-11
2.6273e-11
2.3938e-12
1.32218e-13
7.739e-15
1.14019e-16
1.31892e-20
3.38286e-25
3.20092e-29
1.1003e-32
9.23993e-34
1.68631e-36
4.03348e-40
1.47518e-44
2.78361e-48
6.19847e-51
7.77849e-52
1.63137e-52
2.25225e-55
2.9229e-58
2.84173e-61
2.51741e-64
3.38218e-67
5.10562e-70
1.77198e-72
8.0461e-75
4.2429e-77
1.84651e-79
6.59691e-82
1.89106e-84
5.42919e-87
1.23829e-89
3.01514e-92
5.35705e-95
1.22847e-97
2.61686e-100
4.66263e-103
5.72118e-106
3.36193e-109
5.87115e-113
2.98016e-116
4.74403e-119
1.52295e-121
5.16161e-124
1.84171e-127
4.72523e-131
3.01481e-134
5.02845e-137
1.45371e-139
3.69375e-142
7.46128e-145
1.42514e-147
2.57114e-150
4.09935e-153
6.02269e-156
7.62156e-159
9.42573e-162
1.24699e-164
1.44713e-167
1.60186e-170
1.62743e-173
8.68489e-179
4.10883e-184
1.81604e-189
8.17587e-195
3.8835e-200
2.02562e-205
1.14157e-210
8.31571e-216
5.47517e-221
3.26196e-226
1.33095e-231
1.86304e-237
3.01485e-243
5.11674e-249
1.92413e-254
1.13778e-259
6.06774e-265
6.34968e-270
4.43998e-273
5.62875e-276
6.73453e-279
7.68506e-282
9.14639e-285
1.05443e-287
1.26263e-290
1.51989e-293
1.82181e-296
2.27405e-299
2.76591e-302
3.50723e-305
4.3102e-308
5.46475e-311
6.71336e-314
8.46433e-317
1.04016e-319
1.33398e-322
0
0
0
0
0
0
0
0
0
0
0
0
0
0
0
0
0
0
0
0
0
0
0
0
0
0
0
0
0
0
0
0
0
0
0
0
0
0
0
0
0
0
0
0
0
0
0
0
0
0
0
0
0
0
0
0
0
0
0
0
0
0
0
0
0
0
0
0
0
0
0
0
0
0
0
0
0
0
0
0
0
0
0
0
0
0
0
0
0
0
0
0
0
0
0
0
0
0
0
0
0
0
0
0
0
0
0
0
0
0
0
0
0
0
0
0
0
0
0
0
0
0
0
0
0
0
0
0
0
0
0
0
0
0
0
0
0
0
0
0
0
0
0
0
0
0
0
0
0
0
0
0
0
0
0
0
0
0
0
0
0
0
0
0
0
0
0
0
0
0
0
0
0
0
0
0
0
0
0
0
0
0
0
0
0
0
0
0
0
0
0
0
0
0
0
0
0
0
0
0
0
0
0
0
0
0
0
0
0
0
0
0
0
0
0
0
0
0
0
0
0
0
0
0
0
0
0
0
0
0
0
0
0
0
0
0
0
0
0
0
0
0
0
0
0
0
0
0
0
0
0
0
0
0
0
0
0
0
0
0
0
0
0
0
0
3.71964e-08
2.8808e-08
1.4606e-08
1.2776e-08
2.89875e-08
4.753e-08
4.11774e-08
2.51047e-08
1.88047e-08
1.74881e-08
2.55086e-08
1.65653e-07
2.24536e-07
1.93533e-08
4.07047e-08
1.03303e-07
1.05678e-07
2.10629e-07
1.97763e-07
1.55979e-07
2.16716e-07
3.28579e-07
1.51034e-07
1.41574e-07
1.77813e-07
1.51425e-07
3.82433e-08
5.86553e-09
1.18304e-09
4.22927e-10
1.86564e-10
1.16154e-10
6.817e-11
5.54097e-11
4.77519e-11
3.74444e-11
3.82141e-11
3.89185e-11
4.95898e-11
5.22285e-11
1.96852e-11
6.76732e-12
2.7191e-13
6.09509e-15
1.96105e-16
5.5423e-20
8.35166e-24
1.24853e-27
2.21631e-31
1.61936e-34
6.7282e-38
3.10616e-41
1.72524e-44
5.35214e-47
1.24687e-48
3.58521e-51
1.03896e-53
2.48743e-56
4.176e-59
5.84378e-62
7.55143e-65
1.20379e-67
2.22277e-70
5.03582e-73
1.74468e-75
6.0424e-78
1.94779e-80
5.501e-83
1.35647e-85
3.44435e-88
7.6365e-91
1.74164e-93
3.57271e-96
7.74207e-99
1.62016e-101
3.38528e-104
8.02383e-107
2.50261e-109
2.18707e-112
1.77578e-115
2.20323e-118
1.10154e-121
3.13131e-125
1.13693e-128
6.4034e-132
8.00323e-135
1.5973e-137
3.24821e-140
5.19822e-143
8.50175e-146
1.1532e-148
1.48489e-151
2.03699e-154
2.54966e-157
3.07163e-160
3.48252e-163
3.94772e-166
4.25516e-169
4.63157e-172
3.90274e-175
1.3251e-180
3.59519e-186
9.14864e-192
2.30764e-197
7.31617e-203
3.29752e-208
1.98262e-213
1.32756e-218
8.75851e-224
6.0212e-229
2.24612e-234
9.27194e-240
2.74512e-245
1.33033e-250
6.95682e-256
3.70131e-261
1.72777e-266
8.47006e-272
9.99556e-276
1.29635e-278
1.72966e-281
2.29757e-284
3.06998e-287
4.08913e-290
5.43948e-293
7.19485e-296
9.48308e-299
1.24629e-301
1.62402e-304
2.10817e-307
2.69847e-310
3.43263e-313
4.30309e-316
5.36827e-319
6.62048e-322
0
0
0
0
0
0
0
0
0
0
0
0
0
0
0
0
0
0
0
0
0
0
0
0
0
0
0
0
0
0
0
0
0
0
0
0
0
0
0
0
0
0
0
0
0
0
0
0
0
0
0
0
0
0
0
0
0
0
0
0
0
0
0
0
0
0
0
0
0
0
0
0
0
0
0
0
0
0
0
0
0
0
0
0
0
0
0
0
0
0
0
0
0
0
0
0
0
0
0
0
0
0
0
0
0
0
0
0
0
0
0
0
0
0
0
0
0
0
0
0
0
0
0
0
0
0
0
0
0
0
0
0
0
0
0
0
0
0
0
0
0
0
0
0
0
0
0
0
0
0
0
0
0
0
0
0
0
0
0
0
0
0
0
0
0
0
0
0
0
0
0
0
0
0
0
0
0
0
0
0
0
0
0
0
0
0
0
0
0
0
0
0
0
0
0
0
0
0
0
0
0
0
0
0
0
0
0
0
0
0
0
0
0
0
0
0
0
0
0
0
0
0
0
0
0
0
0
0
0
0
0
0
0
0
0
0
0
0
0
0
0
0
0
0
0
0
0
0
0
0
0
0
0
0
0
0
0
0
0
0
0
0
0
0
0
1.52132e-09
2.1929e-09
1.49118e-09
1.72744e-09
2.85407e-09
5.09054e-09
6.38688e-09
5.09556e-09
2.56098e-09
2.1519e-09
1.41162e-09
2.15916e-09
8.75438e-09
4.3653e-08
2.33696e-08
1.90548e-08
1.12582e-07
2.55977e-07
1.80676e-07
2.35351e-07
1.47773e-07
9.44084e-09
7.5341e-09
1.22381e-08
1.74093e-08
1.06819e-08
3.79803e-09
1.03067e-09
3.2195e-10
1.41625e-10
1.00253e-10
6.39945e-11
5.57036e-11
4.72158e-11
3.92048e-11
2.76077e-11
2.49984e-11
2.45833e-11
2.18935e-11
1.98827e-11
2.66299e-11
1.28356e-11
6.11822e-12
2.82087e-13
5.95757e-15
2.73323e-17
1.06637e-19
8.85811e-23
2.63413e-26
6.52708e-30
2.61331e-33
1.11339e-36
6.39079e-40
1.61917e-43
3.27364e-47
3.03627e-50
4.90271e-53
7.44679e-56
1.19049e-58
1.73191e-61
2.82348e-64
4.39926e-67
5.95417e-70
1.3156e-72
2.75471e-75
5.9945e-78
1.68991e-80
3.73779e-83
9.60688e-86
2.05799e-88
4.60449e-91
9.67935e-94
1.78382e-96
4.18113e-99
7.73385e-102
1.84303e-104
3.60904e-107
8.69361e-110
2.00206e-112
2.6996e-115
2.22732e-118
1.37794e-121
6.53492e-125
2.85646e-128
1.68177e-131
1.65282e-134
2.12619e-137
3.25372e-140
4.69904e-143
5.77475e-146
8.17937e-149
1.00037e-151
1.21299e-154
1.3879e-157
1.56817e-160
1.72582e-163
1.90392e-166
2.02814e-169
2.45552e-172
2.4264e-175
1.15079e-180
4.73764e-186
1.79236e-191
6.10026e-197
2.02578e-202
6.56246e-208
2.32359e-213
9.2941e-219
4.58126e-224
2.58053e-229
1.2334e-234
6.42088e-240
3.09294e-245
1.90776e-250
1.41256e-255
1.03216e-260
6.76212e-266
3.89714e-271
1.93487e-276
1.22822e-280
1.51067e-283
1.96535e-286
2.57733e-289
3.39718e-292
4.51197e-295
6.04612e-298
8.08032e-301
1.08138e-303
1.42734e-306
1.88188e-309
2.44187e-312
3.15093e-315
3.98296e-318
4.99006e-321
4.94066e-324
0
0
0
0
0
0
0
0
0
0
0
0
0
0
0
0
0
0
0
0
0
0
0
0
0
0
0
0
0
0
0
0
0
0
0
0
0
0
0
0
0
0
0
0
0
0
0
0
0
0
0
0
0
0
0
0
0
0
0
0
0
0
0
0
0
0
0
0
0
0
0
0
0
0
0
0
0
0
0
0
0
0
0
0
0
0
0
0
0
0
0
0
0
0
0
0
0
0
0
0
0
0
0
0
0
0
0
0
0
0
0
0
0
0
0
0
0
0
0
0
0
0
0
0
0
0
0
0
0
0
0
0
0
0
0
0
0
0
0
0
0
0
0
0
0
0
0
0
0
0
0
0
0
0
0
0
0
0
0
0
0
0
0
0
0
0
0
0
0
0
0
0
0
0
0
0
0
0
0
0
0
0
0
0
0
0
0
0
0
0
0
0
0
0
0
0
0
0
0
0
0
0
0
0
0
0
0
0
0
0
0
0
0
0
0
0
0
0
0
0
0
0
0
0
0
0
0
0
0
0
0
0
0
0
0
0
0
0
0
0
0
0
0
0
0
0
0
0
0
0
0
0
0
0
0
0
0
0
0
0
0
0
0
0
0
9.20792e-11
1.63732e-10
1.96977e-10
1.8758e-10
1.74719e-10
1.35834e-10
1.51102e-10
1.94385e-10
2.0403e-10
2.09548e-10
1.98067e-10
1.84621e-10
3.0633e-10
6.88571e-10
6.17265e-10
6.6895e-10
4.99288e-09
3.20362e-07
3.37094e-07
2.66391e-08
2.20311e-09
1.1786e-09
1.37396e-09
2.15671e-09
2.13725e-09
1.28287e-09
5.88006e-10
2.52929e-10
1.26515e-10
8.33886e-11
5.57951e-11
4.74864e-11
4.23938e-11
3.86556e-11
2.86993e-11
2.71822e-11
2.47713e-11
2.22935e-11
2.01388e-11
1.85875e-11
1.15478e-11
1.02138e-11
8.31258e-12
2.82605e-12
7.23357e-13
1.54613e-15
3.17578e-18
4.1081e-21
3.2006e-24
2.27603e-27
1.36129e-30
3.30243e-34
6.03257e-38
8.31357e-42
1.2022e-45
2.77144e-49
1.20568e-52
8.87415e-56
1.17219e-58
1.76647e-61
2.4005e-64
4.06315e-67
6.79817e-70
1.1273e-72
1.92867e-75
4.11579e-78
8.07524e-81
1.5286e-83
2.91168e-86
6.29873e-89
1.21786e-91
2.1843e-94
3.814e-97
8.16817e-100
1.42444e-102
2.5572e-105
4.88125e-108
8.48026e-111
1.44619e-113
1.91739e-116
2.16382e-119
1.75909e-122
1.25147e-125
8.58932e-129
5.91907e-132
5.56761e-135
5.98376e-138
7.0086e-141
9.3789e-144
1.10608e-146
1.23382e-149
1.36891e-152
1.49001e-155
1.58833e-158
1.66627e-161
1.71504e-164
2.03025e-167
2.08157e-170
2.15553e-173
1.72318e-176
5.96693e-182
1.67222e-187
4.2051e-193
9.84714e-199
2.56637e-204
8.43574e-210
3.81787e-215
2.03028e-220
1.13885e-225
6.53082e-231
3.2552e-236
1.68086e-241
8.38897e-247
4.90451e-252
3.49111e-257
2.72594e-262
1.89803e-267
1.08462e-272
5.18543e-278
7.64545e-283
7.23588e-286
9.48139e-289
1.24598e-291
1.63772e-294
2.16971e-297
2.89535e-300
3.88972e-303
5.27014e-306
7.08696e-309
9.56172e-312
1.26657e-314
1.67158e-317
2.1566e-320
2.96439e-323
0
0
0
0
0
0
0
0
0
0
0
0
0
0
0
0
0
0
0
0
0
0
0
0
0
0
0
0
0
0
0
0
0
0
0
0
0
0
0
0
0
0
0
0
0
0
0
0
0
0
0
0
0
0
0
0
0
0
0
0
0
0
0
0
0
0
0
0
0
0
0
0
0
0
0
0
0
0
0
0
0
0
0
0
0
0
0
0
0
0
0
0
0
0
0
0
0
0
0
0
0
0
0
0
0
0
0
0
0
0
0
0
0
0
0
0
0
0
0
0
0
0
0
0
0
0
0
0
0
0
0
0
0
0
0
0
0
0
0
0
0
0
0
0
0
0
0
0
0
0
0
0
0
0
0
0
0
0
0
0
0
0
0
0
0
0
0
0
0
0
0
0
0
0
0
0
0
0
0
0
0
0
0
0
0
0
0
0
0
0
0
0
0
0
0
0
0
0
0
0
0
0
0
0
0
0
0
0
0
0
0
0
0
0
0
0
0
0
0
0
0
0
0
0
0
0
0
0
0
0
0
0
0
0
0
0
0
0
0
0
0
0
0
0
0
0
0
0
0
0
0
0
0
0
0
0
0
0
0
0
0
0
0
0
0
0
1.87207e-11
2.04911e-11
2.30672e-11
2.52473e-11
2.66082e-11
2.80636e-11
3.66624e-11
2.90596e-11
3.68605e-11
3.7688e-11
3.87488e-11
4.49517e-11
5.43043e-11
1.04765e-10
1.18528e-10
1.38809e-10
4.75759e-10
9.04839e-09
4.61133e-09
7.01376e-10
3.03029e-10
2.84716e-10
3.18661e-10
4.1302e-10
4.00907e-10
2.58881e-10
1.52383e-10
1.04668e-10
6.31954e-11
5.21413e-11
4.26841e-11
3.7537e-11
2.84262e-11
2.76384e-11
2.69806e-11
2.63036e-11
2.51941e-11
2.33966e-11
2.17904e-11
2.03655e-11
1.7623e-11
1.1557e-11
9.53521e-12
3.9672e-12
1.80549e-12
2.98119e-13
8.64189e-16
3.66278e-19
9.76394e-23
3.26476e-26
3.77563e-29
1.10205e-32
2.87965e-36
4.39165e-40
6.15672e-44
9.45841e-48
2.13412e-51
6.72845e-55
2.48389e-58
1.31071e-61
8.19315e-65
6.86188e-68
8.16239e-71
1.2226e-73
1.95366e-76
3.20859e-79
5.23472e-82
8.66145e-85
1.43264e-87
2.85802e-90
4.69711e-93
8.01861e-96
1.29227e-98
2.25679e-101
3.65905e-104
6.30197e-107
1.0227e-109
1.70342e-112
2.58047e-115
3.04285e-118
3.33424e-121
3.31297e-124
3.08875e-127
2.65956e-130
2.15029e-133
2.12798e-136
2.0312e-139
2.07454e-142
2.38554e-145
2.4129e-148
2.28521e-151
2.28032e-154
2.12455e-157
2.07024e-160
1.89303e-163
1.79516e-166
1.61819e-169
1.49607e-172
1.33822e-175
7.03137e-181
3.60259e-186
1.70332e-191
7.72898e-197
3.31203e-202
1.3458e-207
5.36658e-213
2.03941e-218
7.92016e-224
2.9918e-229
1.22118e-234
5.10889e-240
2.43477e-245
1.32449e-250
8.26788e-256
6.15498e-261
4.40824e-266
2.67344e-271
1.30314e-276
6.30463e-282
1.16753e-285
1.49203e-288
1.97045e-291
2.58363e-294
3.44646e-297
4.63544e-300
6.31996e-303
8.66423e-306
1.19216e-308
1.63333e-311
2.23287e-314
2.99816e-317
4.00243e-320
5.43472e-323
0
0
0
0
0
0
0
0
0
0
0
0
0
0
0
0
0
0
0
0
0
0
0
0
0
0
0
0
0
0
0
0
0
0
0
0
0
0
0
0
0
0
0
0
0
0
0
0
0
0
0
0
0
0
0
0
0
0
0
0
0
0
0
0
0
0
0
0
0
0
0
0
0
0
0
0
0
0
0
0
0
0
0
0
0
0
0
0
0
0
0
0
0
0
0
0
0
0
0
0
0
0
0
0
0
0
0
0
0
0
0
0
0
0
0
0
0
0
0
0
0
0
0
0
0
0
0
0
0
0
0
0
0
0
0
0
0
0
0
0
0
0
0
0
0
0
0
0
0
0
0
0
0
0
0
0
0
0
0
0
0
0
0
0
0
0
0
0
0
0
0
0
0
0
0
0
0
0
0
0
0
0
0
0
0
0
0
0
0
0
0
0
0
0
0
0
0
0
0
0
0
0
0
0
0
0
0
0
0
0
0
0
0
0
0
0
0
0
0
0
0
0
0
0
0
0
0
0
0
0
0
0
0
0
0
0
0
0
0
0
0
0
0
0
0
0
0
0
0
0
0
0
0
0
0
0
0
0
0
0
0
0
0
0
0
0
0
2.11528e-11
2.20049e-11
2.30635e-11
2.36764e-11
2.37064e-11
2.35276e-11
2.34334e-11
2.32017e-11
2.28967e-11
2.31859e-11
2.34455e-11
2.4915e-11
2.68313e-11
3.8115e-11
4.67641e-11
4.66121e-11
5.28935e-11
1.87719e-10
1.45665e-10
1.12543e-10
6.73038e-11
6.03948e-11
6.34291e-11
6.64291e-11
6.46658e-11
6.47569e-11
5.59336e-11
4.86735e-11
4.16151e-11
2.89658e-11
2.77068e-11
2.7105e-11
2.69967e-11
2.63432e-11
2.56677e-11
2.53803e-11
2.51077e-11
2.44226e-11
2.36251e-11
2.30258e-11
2.20405e-11
1.88455e-11
1.66031e-11
1.1301e-11
6.40248e-12
2.01556e-12
4.71593e-13
2.7991e-16
4.88278e-20
8.00497e-24
1.2319e-27
1.46478e-31
2.42436e-35
2.6612e-39
3.85093e-43
5.36819e-47
1.07063e-50
3.02004e-54
1.15975e-57
5.2399e-61
2.59408e-64
1.3699e-67
8.46874e-71
7.29181e-74
9.42636e-77
1.50894e-79
2.64017e-82
4.54189e-85
7.86099e-88
1.26977e-90
2.06602e-93
3.11972e-96
4.65886e-99
6.69447e-102
9.00171e-105
1.26777e-107
1.61448e-110
2.13683e-113
2.6498e-116
3.25872e-119
3.92156e-122
4.38759e-125
4.92449e-128
5.18575e-131
5.43006e-134
5.53798e-137
5.35674e-140
5.45231e-143
5.08041e-146
4.94342e-149
4.37119e-152
4.07844e-155
3.53498e-158
3.14983e-161
2.68411e-164
2.31377e-167
1.92353e-170
1.61549e-173
1.25452e-176
5.55134e-182
2.19511e-187
7.8835e-193
2.55124e-198
7.77346e-204
2.21413e-209
6.34735e-215
1.8507e-220
6.10329e-226
2.30333e-231
1.01136e-236
4.92764e-242
2.53131e-247
1.39151e-252
7.94481e-258
4.27383e-263
1.89767e-268
7.12712e-274
2.34927e-279
1.019e-284
4.24235e-288
5.54527e-291
7.38833e-294
9.75475e-297
1.31531e-299
1.76513e-302
2.42142e-305
3.31553e-308
4.59089e-311
6.34779e-314
8.77675e-317
1.2027e-319
1.63042e-322
0
0
0
0
0
0
0
0
0
0
0
0
0
0
0
0
0
0
0
0
0
0
0
0
0
0
0
0
0
0
0
0
0
0
0
0
0
0
0
0
0
0
0
0
0
0
0
0
0
0
0
0
0
0
0
0
0
0
0
0
0
0
0
0
0
0
0
0
0
0
0
0
0
0
0
0
0
0
0
0
0
0
0
0
0
0
0
0
0
0
0
0
0
0
0
0
0
0
0
0
0
0
0
0
0
0
0
0
0
0
0
0
0
0
0
0
0
0
0
0
0
0
0
0
0
0
0
0
0
0
0
0
0
0
0
0
0
0
0
0
0
0
0
0
0
0
0
0
0
0
0
0
0
0
0
0
0
0