/*--------------------------------*- C++ -*----------------------------------*\
| =========                 |                                                 |
| \\      /  F ield         | OpenFOAM: The Open Source CFD Toolbox           |
|  \\    /   O peration     | Version:  2.1.1                                 |
|   \\  /    A nd           | Web:      www.OpenFOAM.org                      |
|    \\/     M anipulation  |                                                 |
\*---------------------------------------------------------------------------*/
FoamFile
{
    version     2.0;
    format      ascii;
    class       volScalarField;
    location    "0.001600000";
    object      p;
}
// * * * * * * * * * * * * * * * * * * * * * * * * * * * * * * * * * * * * * //

dimensions      [1 -1 -2 0 0 0 0];

internalField   nonuniform List<scalar> 
12384
(
187349
185583
187296
181424
177767
163091
167671
164102
171204
181898
192646
199379
200240
199903
205564
201437
200704
203357
213738
219470
214839
215595
214410
220881
220493
210111
184200
191476
180484
182314
176708
179399
181325
183865
186649
184928
179440
175848
177498
179570
186630
191943
198485
203178
134002
134330
134414
134201
137504
137085
140433
142290
144190
147242
148612
151314
152936
154284
155055
155104
153835
152267
152454
149415
150253
150143
152255
153946
157037
158585
160445
160391
160702
161046
120893
120996
120893
120800
120728
120415
120070
119838
119443
118330
118605
117100
117258
115974
116287
114891
115331
113906
114390
112945
113447
112037
112533
111297
111759
110810
111202
110593
110868
110541
103491
103572
103462
103513
103310
103318
103203
103009
103055
102790
102847
102606
102541
102494
102287
102350
102110
102182
101960
101983
101907
101781
101820
101688
101726
101623
101657
101597
101596
101602
101346
101348
101345
101345
101343
101341
101340
101339
101336
101336
101333
101333
101331
101331
101329
101329
101328
101329
101328
101328
101327
101328
101327
101327
101327
101327
101327
101327
101327
101327
101327
101327
101327
101327
101327
101327
101327
101327
101327
101327
101327
101328
101327
101328
101327
101328
101327
101327
101327
101327
101327
101327
101327
101327
101327
101327
101327
101327
101327
101327
101327
101327
101326
101327
101327
101327
101327
101327
101327
101327
101327
101327
101327
101328
101327
101328
101327
101327
101327
101327
101327
101327
101327
101327
101327
101327
101326
101327
101327
101327
101327
101327
101326
101327
101327
101327
101327
101327
101327
101327
101327
101327
101327
101328
101327
101328
101327
101327
101327
101327
101327
101327
101327
101327
101327
101327
101327
101327
101327
101327
101327
101327
101327
101327
101327
101327
101327
101327
101327
101327
101327
101327
101328
101327
101328
101327
101328
101327
101327
101327
101327
101327
101327
101327
101327
101327
101327
101327
101327
101327
101327
101327
101327
101327
101327
101327
101327
101327
101327
101327
101327
101327
101327
101327
101327
101327
101327
101327
101327
101327
101327
101327
101327
101327
101327
101327
101327
101327
101327
101327
101327
101327
101327
101327
101327
101327
101327
101327
101327
101327
101327
101327
101327
101327
101327
101327
101327
101327
101327
101327
101327
101327
101327
101327
101327
101326
101327
101327
101326
101327
101327
101327
101326
101327
101327
101327
101327
101327
101326
101327
101326
101327
101326
101326
101326
101326
101326
101326
101326
101326
101326
101327
101326
101326
101326
101326
101326
101326
101326
101326
184598
183793
183137
181488
175492
169021
164182
165336
171621
180623
191455
197056
199526
195941
197263
197336
196714
202817
208313
204623
193613
194029
194718
194953
202840
210537
201135
193641
188631
183299
183759
176058
175874
176527
178038
181448
182682
182651
181131
180147
186970
191089
196468
199879
133922
133991
135799
135840
137408
139462
140782
143761
145410
147644
149319
150883
152218
152995
153563
153363
153395
153011
151709
150936
149663
150853
152077
154092
155885
157907
159201
160572
160053
159815
120962
120924
120953
120877
120782
120326
120253
119592
119565
118584
118382
117548
117095
116341
116076
115123
115173
113984
114360
112990
113373
112100
112493
111369
111701
110876
110986
110763
110570
110648
103734
103656
103644
103470
103491
103276
103285
103084
102998
102931
102708
102766
102470
102574
102275
102352
102168
102087
102067
101900
101949
101776
101808
101707
101683
101655
101618
101624
101580
101601
101349
101343
101343
101345
101341
101341
101337
101335
101334
101331
101331
101328
101328
101326
101326
101325
101324
101324
101323
101324
101323
101323
101323
101323
101322
101323
101322
101323
101322
101322
101323
101322
101323
101322
101322
101323
101322
101323
101323
101323
101323
101324
101323
101324
101323
101324
101323
101324
101323
101323
101323
101323
101323
101323
101322
101323
101322
101323
101322
101323
101322
101322
101322
101322
101322
101323
101322
101323
101323
101323
101323
101323
101323
101323
101323
101323
101323
101323
101323
101323
101323
101323
101322
101323
101322
101323
101322
101322
101322
101322
101322
101322
101322
101323
101322
101323
101322
101323
101323
101323
101323
101323
101323
101323
101323
101323
101323
101324
101323
101323
101323
101323
101322
101323
101322
101323
101322
101323
101322
101322
101322
101322
101323
101322
101323
101322
101323
101323
101323
101323
101323
101323
101324
101323
101324
101323
101324
101323
101323
101323
101323
101323
101322
101323
101322
101323
101322
101323
101322
101323
101322
101322
101322
101323
101322
101323
101322
101323
101323
101323
101323
101323
101323
101323
101323
101323
101323
101323
101323
101323
101323
101323
101322
101323
101322
101323
101322
101322
101322
101322
101323
101322
101323
101323
101323
101323
101323
101323
101323
101323
101323
101323
101323
101323
101323
101323
101323
101322
101323
101322
101323
101322
101323
101322
101323
101322
101323
101322
101322
101323
101322
101322
101322
101323
101322
101323
101322
101323
101322
101323
101322
101323
101322
101323
101322
101323
101322
101323
101322
101323
101322
101322
101322
101322
101322
101322
101322
101322
101322
101322
180542
178247
178672
177895
174426
169715
166700
166476
171310
180496
186250
191824
190234
189620
184564
189724
194596
203451
197964
168917
186975
197864
190458
178840
154906
187224
216805
211162
195014
190617
188926
182053
175970
172726
173719
178994
186989
187638
188691
188864
189489
191329
192380
194410
135805
136115
135323
138438
137094
141964
141024
145292
146012
148268
149291
150241
150873
151843
152220
153028
153160
152719
152228
152201
152305
151696
152893
154053
155396
156611
158124
158618
159898
160206
120831
121198
121113
120719
120801
120698
120136
119861
119672
118673
118857
117380
117731
116072
116517
114918
115417
113861
114423
112932
113383
112014
112462
111352
111484
110990
110750
110808
110356
110518
103665
103621
103573
103656
103439
103451
103230
103152
103066
102877
102794
102734
102489
102556
102302
102312
102211
102046
102101
101884
101955
101777
101812
101724
101665
101683
101598
101634
101578
101602
101352
101356
101351
101350
101349
101346
101345
101344
101340
101341
101337
101338
101335
101336
101334
101334
101334
101332
101333
101332
101333
101332
101333
101332
101333
101332
101333
101332
101332
101332
101332
101333
101332
101333
101332
101332
101333
101332
101333
101331
101333
101331
101332
101331
101332
101331
101332
101331
101333
101331
101333
101332
101333
101332
101333
101332
101333
101332
101333
101332
101332
101332
101333
101332
101333
101332
101333
101332
101333
101332
101333
101331
101332
101331
101332
101331
101332
101331
101333
101331
101333
101332
101333
101332
101333
101332
101333
101332
101332
101332
101332
101332
101333
101332
101333
101332
101333
101332
101333
101332
101333
101331
101332
101331
101332
101331
101332
101331
101333
101331
101333
101332
101333
101332
101333
101332
101333
101332
101332
101332
101332
101333
101332
101333
101332
101333
101332
101333
101332
101333
101332
101333
101331
101332
101331
101332
101331
101332
101332
101332
101333
101331
101333
101332
101333
101332
101333
101331
101333
101332
101332
101332
101333
101332
101333
101332
101333
101332
101333
101332
101333
101331
101332
101331
101332
101331
101332
101331
101332
101331
101333
101332
101333
101332
101333
101332
101333
101332
101332
101332
101332
101333
101332
101332
101333
101332
101333
101332
101333
101331
101332
101331
101332
101331
101332
101332
101331
101332
101331
101332
101331
101333
101331
101333
101331
101333
101331
101332
101332
101332
101332
101332
101333
101331
101333
101331
101333
101331
101332
101331
101332
101330
101332
101330
101331
101330
101331
101330
101332
101331
101332
101331
101332
101331
101332
101331
101332
101332
101332
101332
173650
175413
176848
175754
172666
173761
169710
170480
170992
174835
181538
185574
190273
189903
185196
187483
206103
179250
184209
181361
188945
184184
188465
175636
173398
193142
206370
204392
186090
197037
203075
199637
184919
175927
170552
176360
183846
192936
195593
194344
192663
191123
190343
189167
136804
136883
136438
137661
137154
141301
141129
145729
147027
149162
149909
150018
150437
150213
150146
151017
152054
152813
153517
153213
153140
153856
153441
153785
154340
155057
155500
157408
158433
159434
121341
121099
120954
121597
120817
120823
120560
119681
119917
118780
118933
117782
117611
116543
116274
115304
115154
113990
114318
112829
113488
111980
112374
111490
111156
111241
110501
110864
110255
110536
103769
104009
103849
103571
103664
103365
103415
103138
103032
103016
102732
102805
102522
102482
102422
102188
102295
102026
102109
101935
101881
101868
101728
101780
101646
101689
101612
101612
101594
101584
101363
101348
101354
101348
101344
101348
101341
101341
101338
101334
101336
101330
101333
101329
101329
101329
101327
101329
101326
101328
101325
101328
101325
101327
101325
101327
101325
101325
101326
101325
101326
101325
101327
101325
101325
101327
101325
101327
101325
101328
101325
101328
101325
101328
101325
101328
101325
101328
101325
101328
101325
101328
101325
101328
101325
101328
101325
101328
101325
101326
101326
101325
101325
101327
101325
101327
101325
101327
101325
101328
101325
101328
101325
101327
101325
101327
101325
101327
101325
101327
101325
101327
101325
101327
101324
101327
101325
101325
101326
101325
101325
101327
101324
101327
101324
101327
101325
101327
101325
101327
101325
101328
101325
101327
101325
101327
101325
101327
101325
101327
101325
101327
101325
101327
101324
101327
101325
101325
101326
101325
101326
101326
101327
101325
101327
101325
101328
101325
101328
101325
101328
101325
101328
101325
101327
101325
101327
101325
101327
101326
101325
101327
101325
101327
101325
101327
101325
101327
101325
101326
101325
101327
101325
101327
101325
101327
101325
101327
101325
101328
101325
101327
101325
101327
101325
101327
101325
101327
101325
101327
101325
101327
101325
101327
101324
101327
101325
101325
101326
101325
101327
101326
101327
101328
101325
101328
101325
101328
101325
101328
101325
101327
101325
101327
101325
101325
101327
101325
101327
101325
101327
101325
101327
101325
101327
101325
101327
101325
101325
101326
101325
101327
101324
101327
101324
101327
101324
101327
101324
101327
101324
101327
101324
101327
101324
101326
101324
101327
101324
101327
101324
101327
101324
101327
101324
101326
101324
101325
101326
101325
165486
167882
170523
173511
173988
175068
173393
173893
175014
177297
180419
181178
177460
176006
169778
197381
194251
217923
180083
194001
181282
187930
184759
179951
192456
205902
211653
209602
201217
190298
180007
188263
194297
184138
176107
174498
181777
191229
197807
200819
198223
193716
189046
186231
136757
135775
135525
134168
135391
138266
139975
144141
147017
148820
150048
150159
149828
149796
150658
150758
151829
152978
153961
154985
154969
154293
154262
153110
152698
152382
153641
155065
156843
158464
120906
121620
122092
121356
122039
120662
120865
120274
119553
119410
118935
117819
118151
116380
116952
115015
115680
113859
114545
112791
113557
111973
112180
111752
110907
111227
110524
110471
110286
110150
104263
103854
103865
103904
103617
103670
103344
103393
103059
103012
102899
102670
102708
102415
102503
102215
102262
102103
102023
102018
101858
101897
101751
101759
101696
101644
101656
101588
101614
101567
101352
101365
101354
101359
101352
101347
101348
101340
101342
101335
101338
101332
101332
101331
101329
101329
101328
101328
101327
101326
101327
101326
101327
101326
101326
101325
101326
101325
101326
101326
101325
101326
101325
101326
101326
101325
101326
101325
101326
101325
101326
101325
101326
101326
101326
101326
101326
101326
101326
101325
101326
101325
101326
101325
101326
101325
101326
101325
101326
101325
101325
101325
101326
101325
101326
101325
101326
101325
101326
101325
101326
101326
101326
101326
101326
101326
101326
101326
101326
101326
101326
101326
101326
101325
101326
101325
101326
101325
101325
101326
101326
101325
101326
101325
101326
101325
101326
101325
101326
101325
101326
101326
101326
101326
101326
101326
101326
101326
101326
101326
101326
101326
101326
101325
101326
101325
101326
101325
101325
101326
101325
101326
101325
101326
101325
101326
101325
101326
101325
101326
101325
101326
101326
101326
101326
101326
101326
101326
101326
101326
101326
101325
101326
101325
101326
101325
101326
101325
101326
101325
101326
101325
101326
101325
101326
101325
101326
101325
101326
101325
101326
101326
101326
101326
101326
101326
101326
101326
101326
101326
101326
101325
101326
101325
101326
101325
101326
101325
101325
101326
101325
101326
101326
101325
101326
101325
101326
101325
101326
101325
101326
101325
101326
101325
101326
101326
101325
101326
101325
101326
101325
101326
101325
101326
101325
101326
101325
101325
101326
101325
101326
101325
101326
101325
101326
101325
101326
101325
101326
101325
101326
101325
101326
101325
101326
101325
101326
101325
101326
101325
101326
101325
101326
101325
101326
101325
101326
101325
101325
101325
166775
166375
170358
173044
174974
175623
176465
176956
177234
178078
182263
182558
182674
178750
172439
176906
215411
178371
191721
186653
187875
182227
179298
188892
200771
210070
210376
210816
199638
200130
179789
167987
183425
185928
180218
178384
182295
187566
195201
200431
201058
197536
192033
186038
134853
134024
132156
132023
130518
132839
136143
141803
145110
148209
149418
150268
150466
150337
150537
150578
151864
153011
154593
155580
155848
155366
153037
153489
151484
151255
151615
152148
154434
156566
120657
122074
121946
122614
121563
122399
120736
120763
120184
119161
119454
118099
118114
116931
116862
115361
115416
114491
113861
113237
113142
112016
112215
111727
110943
111059
110445
110137
110194
109758
103989
104392
104100
103986
103955
103623
103656
103288
103346
102992
102911
102849
102591
102618
102362
102384
102215
102111
102112
101939
101977
101816
101842
101726
101726
101651
101655
101586
101617
101570
101381
101364
101371
101356
101360
101354
101348
101348
101341
101341
101336
101336
101333
101331
101331
101329
101329
101328
101328
101327
101326
101327
101326
101326
101326
101326
101326
101326
101326
101326
101326
101325
101326
101326
101326
101326
101326
101326
101326
101326
101326
101326
101326
101326
101326
101326
101326
101326
101326
101326
101326
101326
101326
101326
101326
101326
101326
101326
101326
101326
101326
101326
101326
101326
101326
101326
101326
101326
101326
101326
101326
101326
101326
101326
101326
101326
101326
101326
101326
101326
101326
101326
101326
101326
101326
101326
101326
101326
101326
101326
101326
101326
101326
101326
101326
101326
101326
101326
101326
101326
101326
101326
101326
101326
101326
101326
101326
101326
101326
101326
101326
101326
101326
101326
101326
101326
101326
101326
101326
101326
101326
101326
101326
101326
101326
101326
101326
101326
101326
101326
101326
101326
101326
101326
101326
101326
101326
101326
101326
101326
101326
101326
101326
101326
101326
101326
101326
101326
101326
101326
101326
101326
101326
101326
101326
101326
101326
101326
101326
101326
101326
101326
101326
101326
101326
101326
101326
101326
101326
101326
101326
101326
101326
101326
101326
101326
101326
101326
101326
101326
101326
101326
101326
101326
101326
101326
101326
101326
101326
101326
101326
101326
101326
101326
101326
101326
101326
101326
101326
101326
101326
101326
101326
101326
101326
101326
101326
101326
101326
101326
101326
101326
101326
101326
101326
101326
101326
101326
101325
101326
101325
101326
101325
101326
101325
101326
101325
101326
101325
101326
101325
101326
101325
101326
101325
101326
101325
101325
101326
101325
164422
166377
171204
173198
173822
175754
177384
176843
178627
179768
182500
181771
185852
180260
167495
177343
172713
187872
184607
189376
182717
183189
186586
192165
201208
200741
207176
199664
203020
194823
192127
180732
178829
182626
180571
185346
183714
185494
190407
195205
198347
197925
195961
192331
134097
128929
127097
122888
125297
129832
131533
139829
142797
147313
149249
150447
150981
150939
150841
151224
151810
153094
154554
155477
155777
155760
152855
151563
150607
149358
147881
148976
150621
152529
121827
121647
123183
123159
124115
122124
122514
120628
120616
119822
118884
118983
117711
117238
116997
115493
115694
114258
114339
113130
113155
112419
111792
111932
110742
110993
110422
109786
109891
109651
104801
104444
104540
104124
104007
103953
103582
103599
103229
103252
102918
102835
102750
102502
102521
102338
102225
102217
102026
102024
101964
101827
101860
101708
101767
101625
101684
101580
101615
101569
101371
101383
101368
101373
101358
101359
101354
101346
101347
101339
101340
101334
101335
101331
101331
101328
101328
101327
101327
101326
101326
101325
101325
101325
101325
101324
101325
101324
101324
101324
101324
101324
101324
101324
101325
101324
101325
101325
101325
101325
101325
101325
101325
101325
101325
101325
101325
101325
101325
101325
101325
101325
101325
101324
101325
101324
101325
101324
101324
101324
101324
101324
101324
101324
101325
101324
101325
101325
101325
101325
101325
101325
101325
101325
101325
101325
101325
101325
101325
101325
101325
101325
101325
101325
101325
101324
101325
101324
101324
101324
101324
101324
101325
101324
101325
101324
101325
101325
101325
101325
101325
101325
101325
101325
101325
101325
101325
101325
101325
101325
101325
101325
101325
101325
101325
101324
101325
101324
101324
101324
101324
101324
101324
101325
101324
101325
101324
101325
101325
101325
101325
101325
101325
101325
101325
101325
101325
101325
101325
101325
101325
101325
101325
101324
101325
101324
101325
101324
101324
101324
101324
101324
101325
101324
101325
101324
101325
101325
101325
101325
101325
101325
101325
101325
101325
101325
101325
101325
101325
101325
101325
101325
101325
101324
101325
101324
101325
101324
101324
101324
101324
101324
101325
101324
101325
101324
101325
101324
101325
101325
101325
101324
101325
101325
101325
101325
101325
101325
101324
101325
101325
101325
101325
101325
101324
101325
101324
101324
101324
101324
101324
101324
101325
101324
101325
101324
101325
101324
101325
101324
101325
101324
101325
101324
101325
101324
101325
101324
101325
101324
101325
101324
101325
101324
101325
101324
101325
101324
101324
101324
167196
172344
172348
171367
173171
175603
175929
178871
178546
182436
182036
183372
186585
183205
170490
179039
185100
184140
183991
179903
181453
185966
186210
191885
193782
199416
190081
191712
193382
196792
190894
188711
187307
179638
184117
184609
186509
184910
187070
191122
194724
198248
201025
200635
134552
130641
125336
123638
121065
125979
129041
137855
142352
146855
149362
150907
151533
151736
151675
151622
152193
152817
153965
154888
155283
154288
153556
149386
150741
146828
147847
148928
148746
148918
117056
122006
121310
124517
123507
124396
122278
122434
120318
120273
119590
118378
118608
117211
116647
116448
114973
115133
113582
113985
112381
113068
111360
112150
110645
110890
110339
109849
109908
109466
103784
104823
104263
104611
104098
103969
103861
103505
103503
103103
103190
102770
102806
102596
102448
102461
102192
102271
102062
102017
101989
101836
101888
101712
101782
101630
101682
101596
101592
101587
101385
101384
101390
101367
101374
101358
101359
101353
101347
101345
101339
101339
101334
101335
101331
101332
101328
101329
101327
101327
101326
101326
101326
101326
101325
101325
101325
101325
101325
101325
101325
101325
101325
101325
101325
101325
101325
101325
101325
101326
101325
101326
101326
101326
101326
101326
101326
101326
101326
101326
101325
101326
101325
101325
101325
101325
101325
101325
101325
101325
101325
101325
101325
101325
101325
101325
101325
101325
101325
101326
101325
101326
101326
101326
101325
101326
101326
101326
101326
101326
101325
101326
101325
101325
101325
101325
101325
101325
101325
101325
101325
101325
101325
101325
101325
101325
101325
101325
101325
101326
101325
101326
101326
101326
101326
101326
101326
101326
101326
101326
101325
101326
101325
101325
101325
101325
101325
101325
101325
101325
101325
101325
101325
101325
101325
101325
101325
101325
101326
101325
101326
101326
101326
101326
101326
101326
101326
101325
101326
101326
101325
101326
101325
101325
101325
101325
101325
101325
101325
101325
101325
101325
101325
101325
101325
101325
101325
101326
101325
101326
101326
101326
101326
101326
101326
101326
101326
101326
101325
101326
101325
101326
101325
101325
101325
101325
101325
101325
101325
101325
101325
101325
101325
101325
101325
101325
101325
101325
101325
101325
101325
101325
101325
101325
101325
101325
101325
101325
101326
101325
101326
101325
101325
101325
101325
101325
101325
101325
101325
101325
101325
101325
101325
101325
101325
101325
101325
101325
101325
101325
101325
101325
101325
101325
101325
101325
101325
101325
101325
101325
101325
101325
101325
101325
101325
101325
101325
101325
101325
101325
178734
175517
175326
176189
176336
174655
177180
180043
181317
181621
185152
184396
185933
183763
183970
184799
181069
181553
182978
180968
181404
182376
182190
178606
185643
186703
189329
181019
185836
191800
190699
185044
186229
188263
181188
186711
180846
166961
189887
189347
186208
189493
191065
189977
187919
178191
139797
147269
145338
133633
127312
115663
119848
124239
131345
138317
142895
147085
149564
151192
152044
152346
152297
152200
151992
152645
152970
153630
153677
153947
152047
149265
148211
147048
145805
143272
139969
133666
115559
125352
121564
123193
126758
125960
126548
124252
124317
121688
122039
119686
120165
118619
118141
117978
116693
116116
115944
114274
114497
113759
112416
112999
111509
111821
110530
110797
109518
109810
108520
108404
106329
106928
105623
105424
105465
104642
104665
104160
103928
103891
103394
103374
103127
102892
102902
102554
102614
102402
102260
102261
102077
102101
101924
101937
101849
101754
101764
101657
101677
101586
101565
101536
101518
101444
101459
101408
101393
101392
101369
101373
101360
101354
101354
101343
101345
101338
101334
101335
101330
101331
101328
101328
101326
101326
101325
101325
101324
101324
101324
101324
101324
101324
101324
101324
101324
101324
101323
101323
101324
101324
101324
101324
101324
101324
101324
101324
101324
101324
101324
101324
101324
101324
101324
101324
101324
101324
101324
101324
101324
101324
101324
101324
101324
101324
101324
101323
101324
101324
101324
101323
101324
101324
101324
101324
101324
101324
101324
101324
101324
101324
101324
101324
101324
101324
101324
101324
101324
101324
101324
101324
101324
101324
101324
101324
101324
101324
101324
101324
101324
101324
101324
101323
101324
101324
101324
101324
101324
101324
101324
101324
101324
101324
101324
101324
101324
101324
101324
101324
101324
101324
101324
101324
101324
101324
101324
101324
101324
101324
101324
101324
101324
101324
101323
101324
101324
101324
101324
101324
101324
101324
101324
101324
101324
101324
101324
101324
101324
101324
101324
101324
101324
101324
101324
101324
101324
101324
101324
101324
101324
101324
101324
101323
101324
101324
101324
101323
101324
101324
101324
101324
101324
101324
101324
101324
101324
101324
101324
101324
101324
101324
101324
101324
101324
101324
101324
101324
101324
101324
101324
101324
101324
101324
101324
101324
101324
101324
101324
101324
101324
101324
101324
101324
101324
101324
101324
101324
101324
101324
101324
101324
101324
101324
101324
101324
101324
101324
101324
101324
101324
101324
101324
101324
101324
101324
101324
101324
101324
101324
101324
101324
101324
101324
101324
101324
101324
101324
101324
101324
101324
101324
101324
101324
101324
101324
101324
101324
101324
101324
101324
101324
101324
101324
101324
101324
101324
101324
101324
101324
101324
101324
178171
175459
174911
174980
175167
176176
180169
179310
185020
185277
185618
187308
184365
185284
183571
181772
182902
184067
183332
182110
178924
177956
177502
180298
175366
180085
177683
186065
186414
182850
185477
184972
186519
181595
182325
177942
184166
179028
188401
192718
184813
187675
188411
186664
182538
175830
158746
158766
152299
145758
132384
133031
125226
128046
134554
138932
143797
147224
149665
151343
152314
152723
152608
152355
152017
151795
152319
152545
153130
151773
151648
147800
148881
144284
142835
142839
139681
135976
130715
126738
126061
126948
127020
128090
126590
126429
123400
123842
120834
121315
119427
118938
118628
117240
117552
115697
116237
114462
114277
113786
112725
112629
111687
111636
110610
110739
109509
109715
108424
108668
106422
107406
105204
105824
105367
104711
104904
104029
104242
103789
103478
103502
103031
103179
102736
102702
102578
102388
102410
102157
102222
102003
102012
101899
101852
101808
101715
101731
101617
101652
101538
101578
101478
101480
101448
101409
101419
101381
101382
101375
101361
101363
101350
101352
101345
101340
101340
101334
101335
101330
101331
101328
101329
101327
101327
101326
101326
101325
101325
101325
101325
101325
101324
101325
101324
101324
101324
101324
101325
101325
101325
101325
101325
101325
101325
101325
101325
101325
101325
101325
101325
101325
101325
101325
101325
101325
101325
101325
101325
101325
101325
101325
101325
101325
101324
101324
101324
101324
101324
101325
101325
101325
101325
101325
101325
101325
101325
101325
101325
101325
101325
101325
101325
101325
101325
101325
101325
101325
101325
101325
101325
101325
101325
101325
101325
101325
101324
101324
101324
101324
101324
101325
101324
101325
101325
101325
101325
101325
101325
101325
101325
101325
101325
101325
101325
101325
101325
101325
101325
101325
101325
101325
101325
101325
101325
101325
101325
101325
101324
101324
101324
101324
101324
101324
101325
101325
101325
101325
101325
101325
101325
101325
101325
101325
101325
101325
101325
101325
101325
101325
101325
101325
101325
101325
101325
101325
101325
101325
101325
101325
101324
101324
101324
101324
101324
101325
101324
101325
101325
101325
101325
101325
101325
101325
101325
101325
101325
101325
101325
101325
101325
101325
101325
101325
101325
101325
101325
101325
101325
101325
101325
101325
101324
101325
101324
101324
101324
101325
101325
101325
101325
101325
101325
101325
101325
101325
101325
101325
101325
101325
101325
101325
101325
101325
101325
101325
101325
101325
101325
101325
101325
101325
101325
101325
101325
101325
101325
101325
101325
101325
101325
101325
101325
101325
101325
101325
101325
101325
101325
101325
101325
101325
101325
101325
101325
101325
101325
101325
101325
101325
101325
101325
101325
101325
101325
101325
101325
101325
101325
101325
180254
184019
181190
180756
180503
180793
180163
185218
184720
188166
186463
186068
187523
183670
184159
181972
182724
182083
183591
181572
178995
176940
172680
173233
177375
175010
180211
181989
181083
184526
181604
184373
181912
183218
180968
183243
179878
189981
189645
183575
170719
182815
189294
184419
179534
174172
164445
158002
156694
145687
143813
133591
134429
136068
138903
140173
144436
147259
149763
151348
152415
152710
152558
152175
151466
151284
150852
151278
150482
151236
149248
149008
145646
146239
141289
142387
138558
136102
133922
130234
128145
128577
129205
128369
127850
126461
124725
123750
121945
120676
120548
118685
119041
117592
117241
116015
116339
114467
114959
113232
113515
112043
112311
110970
111237
109901
110226
108857
108751
108274
107023
107122
105678
106178
105084
105344
104688
104353
104288
103776
103897
103286
103297
103071
102817
102834
102494
102585
102277
102271
102167
102042
102047
101885
101925
101761
101793
101691
101646
101630
101554
101563
101476
101504
101420
101443
101403
101395
101388
101370
101375
101357
101356
101352
101344
101345
101336
101337
101332
101330
101330
101327
101327
101326
101325
101325
101324
101324
101324
101323
101323
101323
101323
101323
101323
101323
101323
101323
101323
101323
101323
101323
101323
101323
101323
101323
101323
101323
101324
101324
101324
101324
101324
101324
101324
101323
101323
101323
101323
101323
101323
101323
101323
101323
101323
101323
101323
101323
101323
101323
101323
101323
101323
101323
101323
101323
101323
101323
101324
101324
101324
101324
101324
101323
101324
101323
101324
101323
101323
101323
101323
101323
101323
101323
101323
101323
101323
101323
101323
101323
101323
101323
101323
101323
101323
101323
101323
101323
101323
101323
101324
101324
101324
101324
101324
101324
101324
101324
101324
101323
101323
101323
101323
101323
101323
101323
101323
101323
101323
101323
101323
101323
101323
101323
101323
101323
101323
101323
101323
101323
101323
101323
101324
101324
101324
101324
101324
101324
101324
101324
101323
101323
101323
101323
101323
101323
101323
101323
101323
101323
101323
101323
101323
101323
101323
101323
101323
101323
101323
101323
101323
101323
101323
101323
101323
101324
101324
101324
101324
101324
101324
101324
101324
101323
101323
101323
101323
101323
101323
101323
101323
101323
101323
101323
101323
101323
101323
101323
101323
101323
101323
101323
101323
101323
101323
101323
101323
101323
101323
101323
101323
101323
101323
101324
101323
101324
101324
101324
101323
101323
101323
101323
101323
101323
101323
101323
101323
101323
101323
101323