/*--------------------------------*- C++ -*----------------------------------*\
| =========                 |                                                 |
| \\      /  F ield         | OpenFOAM: The Open Source CFD Toolbox           |
|  \\    /   O peration     | Version:  2.1.1                                 |
|   \\  /    A nd           | Web:      www.OpenFOAM.org                      |
|    \\/     M anipulation  |                                                 |
\*---------------------------------------------------------------------------*/
FoamFile
{
    version     2.0;
    format      ascii;
    class       volScalarField;
    location    "0.001600000";
    object      rhoEu;
}
// * * * * * * * * * * * * * * * * * * * * * * * * * * * * * * * * * * * * * //

dimensions      [1 -1 -2 0 0 0 0];

internalField   nonuniform List<scalar> 
12384
(
-167706
-174868
-132155
-108322
-93212.1
-97981.5
-97458.6
-98309.4
-96169.6
-92194.9
-87732.2
-84970.2
-84927.2
-85985.2
-83134.4
-84777.4
-84976.6
-83628.9
-78833.9
-75651.3
-78488.5
-78187.8
-78559.3
-75006.2
-74396.4
-79115.2
-90310.1
-87775.2
-91240.5
-91062.7
-92495.5
-91562.1
-90610.8
-89162.8
-87459.2
-87973.9
-90176.5
-92478.9
-92490.8
-92193.6
-90508.1
-88919.1
-86645.5
-84953.9
-105435
-105315
-105203
-105112
-104617
-104738
-104276
-104037
-103664
-102922
-102328
-101291
-100389
-99540.7
-98855.2
-98627.6
-98724.2
-99036.4
-99269.2
-100044
-100081
-100313
-99940.9
-99550.4
-98785.4
-98481.6
-98293.6
-98774.2
-99302.5
-99641.7
-107064
-107036
-107017
-106986
-106940
-106899
-106861
-106829
-106807
-106851
-106820
-106912
-106910
-106986
-106991
-107078
-107087
-107175
-107186
-107273
-107289
-107369
-107388
-107454
-107476
-107523
-107540
-107572
-107580
-107594
-107565
-107566
-107563
-107564
-107556
-107557
-107553
-107547
-107548
-107539
-107540
-107533
-107533
-107531
-107524
-107527
-107518
-107521
-107512
-107512
-107511
-107505
-107508
-107503
-107505
-107499
-107502
-107500
-107499
-107500
-107489
-107489
-107489
-107488
-107487
-107489
-107489
-107488
-107488
-107488
-107487
-107487
-107488
-107488
-107487
-107488
-107488
-107488
-107486
-107487
-107488
-107487
-107487
-107488
-107487
-107487
-107488
-107487
-107488
-107488
-107488
-107487
-107488
-107488
-107487
-107488
-107487
-107488
-107487
-107487
-107486
-107487
-107488
-107488
-107488
-107488
-107488
-107488
-107486
-107487
-107488
-107487
-107487
-107488
-107487
-107487
-107487
-107488
-107488
-107488
-107488
-107487
-107487
-107488
-107486
-107488
-107488
-107488
-107487
-107487
-107486
-107487
-107488
-107488
-107488
-107488
-107488
-107488
-107486
-107487
-107488
-107487
-107487
-107488
-107488
-107487
-107487
-107487
-107488
-107488
-107487
-107488
-107487
-107488
-107486
-107488
-107488
-107488
-107487
-107487
-107486
-107487
-107488
-107488
-107488
-107488
-107488
-107488
-107486
-107487
-107488
-107487
-107487
-107488
-107488
-107486
-107488
-107487
-107488
-107488
-107487
-107487
-107488
-107488
-107486
-107487
-107488
-107487
-107487
-107488
-107487
-107486
-107488
-107488
-107488
-107487
-107488
-107488
-107487
-107487
-107488
-107488
-107487
-107488
-107488
-107486
-107487
-107488
-107487
-107488
-107488
-107488
-107487
-107488
-107486
-107488
-107488
-107488
-107487
-107487
-107486
-107487
-107488
-107488
-107488
-107488
-107488
-107488
-107486
-107487
-107488
-107487
-107487
-107488
-107488
-107486
-107487
-107487
-107488
-107488
-107488
-107487
-107487
-107488
-107486
-107488
-107488
-107487
-107488
-107487
-107487
-107487
-107487
-107488
-107488
-107487
-107488
-107488
-107487
-107486
-107487
-107488
-107487
-107487
-107488
-107486
-107488
-107487
-107487
-107488
-107488
-107488
-107487
-107487
-107486
-107488
-107487
-107488
-107488
-107488
-107487
-107487
-107488
-107488
-107486
-107487
-107486
-107487
-107488
-107488
-107488
-107488
-107487
-107488
-107487
-107486
-107487
-107487
-107487
-107487
-152095
-161807
-163843
-135168
-102796
-97307.2
-98545.6
-97479.9
-95837.4
-92464.6
-88550.8
-86383.2
-85789.8
-87298.4
-86171.5
-86143.5
-86388.1
-85020.1
-83504.4
-95804.6
-105234
-108950
-103341
-101016
-94716
-81778.7
-83178.4
-86128
-88738.9
-91118.4
-90765
-93525.5
-93510.7
-92710.7
-91801
-89750.1
-88830.1
-89433.4
-90463.3
-91404.6
-90000.4
-88778.3
-87035.1
-86087.2
-105357
-105228
-104805
-104749
-104463
-104227
-104205
-103716
-103443
-102809
-102153
-101389
-100651
-100047
-99561.6
-99257.7
-99025.3
-99061.2
-99291.5
-99711.2
-100145
-100102
-99875.9
-99436.8
-99011.2
-98566.7
-98465.2
-98666.5
-99367.9
-99932.9
-107051
-107021
-107005
-106969
-106923
-106887
-106841
-106827
-106798
-106823
-106833
-106878
-106915
-106968
-107001
-107065
-107094
-107164
-107190
-107265
-107293
-107364
-107390
-107448
-107473
-107517
-107541
-107565
-107582
-107589
-107571
-107568
-107570
-107560
-107564
-107556
-107554
-107551
-107545
-107546
-107535
-107541
-107527
-107535
-107523
-107526
-107521
-107516
-107519
-107508
-107515
-107503
-107511
-107501
-107504
-107502
-107498
-107503
-107497
-107499
-107489
-107487
-107492
-107486
-107491
-107485
-107491
-107485
-107491
-107485
-107491
-107486
-107490
-107489
-107486
-107491
-107486
-107491
-107485
-107491
-107485
-107490
-107484
-107490
-107484
-107490
-107486
-107485
-107488
-107486
-107488
-107486
-107490
-107485
-107488
-107490
-107485
-107491
-107485
-107491
-107485
-107491
-107485
-107490
-107486
-107490
-107486
-107490
-107485
-107490
-107485
-107490
-107485
-107491
-107484
-107490
-107485
-107491
-107486
-107487
-107488
-107487
-107487
-107490
-107485
-107491
-107485
-107490
-107484
-107491
-107485
-107491
-107485
-107490
-107486
-107491
-107485
-107491
-107485
-107491
-107485
-107490
-107484
-107490
-107484
-107490
-107486
-107486
-107488
-107486
-107486
-107488
-107484
-107490
-107484
-107490
-107484
-107490
-107485
-107491
-107485
-107491
-107485
-107490
-107486
-107491
-107485
-107491
-107485
-107491
-107485
-107491
-107484
-107490
-107484
-107490
-107486
-107485
-107487
-107486
-107487
-107487
-107489
-107485
-107490
-107485
-107491
-107485
-107491
-107484
-107491
-107485
-107491
-107485
-107490
-107485
-107490
-107485
-107490
-107487
-107486
-107490
-107485
-107491
-107485
-107490
-107485
-107491
-107486
-107487
-107486
-107488
-107484
-107490
-107484
-107490
-107484
-107491
-107485
-107491
-107485
-107491
-107485
-107490
-107486
-107491
-107485
-107491
-107485
-107491
-107485
-107490
-107484
-107490
-107484
-107489
-107486
-107485
-107487
-107486
-107488
-107486
-107490
-107488
-107485
-107490
-107485
-107491
-107485
-107491
-107485
-107491
-107485
-107490
-107486
-107486
-107490
-107485
-107491
-107485
-107491
-107485
-107491
-107485
-107490
-107485
-107489
-107489
-107487
-107488
-107486
-107488
-107484
-107490
-107484
-107491
-107484
-107491
-107484
-107491
-107484
-107491
-107485
-107491
-107484
-107490
-107485
-107490
-107484
-107490
-107484
-107491
-107484
-107490
-107484
-107490
-107486
-107486
-107487
-107486
-131497
-138211
-144220
-109049
-96841.3
-98900
-100294
-101449
-96899
-92579.7
-90346.9
-88545.4
-89115.8
-89648.5
-90684.3
-88795.2
-88895.4
-108002
-139243
-181451
-174884
-186036
-182986
-181449
-180934
-149457
-119996
-109988
-99840.1
-87650.4
-87216.8
-90967.5
-93591.9
-94482.4
-93628.5
-91236.9
-87432.9
-87046.8
-87480.3
-88439.4
-88937.9
-88657.2
-88613
-88229.2
-104627
-104578
-104501
-103960
-104046
-103301
-103561
-102744
-102780
-102195
-101811
-101323
-100875
-100328
-99874.9
-99422.4
-99265.9
-99278.7
-99412.4
-99597.8
-99767.3
-100047
-99972.1
-99768
-99567.1
-99368.2
-99248.9
-99450.4
-99612.8
-99907.3
-107025
-106916
-106907
-106903
-106857
-106820
-106810
-106801
-106785
-106846
-106830
-106938
-106931
-107045
-107043
-107147
-107150
-107244
-107253
-107335
-107354
-107422
-107440
-107493
-107520
-107550
-107575
-107592
-107610
-107614
-107589
-107587
-107586
-107588
-107581
-107583
-107576
-107573
-107571
-107565
-107564
-107561
-107555
-107556
-107547
-107549
-107544
-107540
-107541
-107534
-107535
-107529
-107530
-107528
-107525
-107524
-107523
-107523
-107523
-107523
-107512
-107513
-107511
-107512
-107511
-107513
-107510
-107512
-107509
-107512
-107510
-107512
-107510
-107511
-107511
-107509
-107511
-107510
-107512
-107510
-107512
-107509
-107511
-107510
-107512
-107510
-107511
-107512
-107511
-107512
-107512
-107512
-107511
-107512
-107510
-107511
-107511
-107510
-107510
-107510
-107512
-107511
-107512
-107510
-107511
-107510
-107511
-107510
-107511
-107509
-107511
-107509
-107511
-107510
-107512
-107509
-107511
-107510
-107511
-107511
-107512
-107511
-107511
-107511
-107511
-107511
-107511
-107510
-107511
-107511
-107512
-107511
-107512
-107510
-107511
-107510
-107511
-107510
-107512
-107510
-107512
-107509
-107511
-107510
-107512
-107510
-107511
-107511
-107511
-107512
-107512
-107510
-107511
-107510
-107511
-107511
-107512
-107510
-107511
-107510
-107512
-107510
-107511
-107510
-107511
-107510
-107511
-107510
-107512
-107510
-107512
-107509
-107511
-107510
-107512
-107510
-107511
-107512
-107511
-107512
-107512
-107511
-107510
-107511
-107510
-107512
-107510
-107511
-107509
-107512
-107510
-107512
-107510
-107511
-107510
-107511
-107510
-107511
-107510
-107511
-107512
-107509
-107511
-107510
-107512
-107510
-107511
-107510
-107512
-107511
-107512
-107510
-107512
-107510
-107511
-107511
-107511
-107510
-107511
-107511
-107512
-107510
-107511
-107510
-107511
-107510
-107511
-107510
-107512
-107510
-107512
-107509
-107511
-107510
-107512
-107510
-107511
-107512
-107511
-107512
-107512
-107512
-107511
-107511
-107511
-107511
-107511
-107510
-107511
-107510
-107512
-107510
-107512
-107510
-107511
-107511
-107510
-107512
-107510
-107512
-107510
-107511
-107510
-107511
-107511
-107512
-107510
-107511
-107512
-107512
-107511
-107511
-107512
-107510
-107511
-107510
-107511
-107510
-107511
-107510
-107511
-107510
-107511
-107510
-107511
-107509
-107511
-107509
-107511
-107510
-107512
-107510
-107511
-107510
-107512
-107509
-107510
-107512
-107510
-107511
-85323.3
-90293.9
-97195.7
-85008.7
-94747.6
-109417
-130521
-138303
-115620
-106504
-94864.7
-90869.9
-89398.2
-89278.2
-90885.7
-91331.5
-127691
-172021
-156038
-161984
-169246
-161800
-166319
-169446
-166117
-152633
-157988
-167462
-173389
-135057
-100126
-80275.2
-88270.1
-93379.9
-94841.6
-92382.4
-88818.8
-84762.7
-83968.5
-85823.9
-87348.9
-88716.1
-89127
-90064.6
-103967
-103656
-103632
-103122
-103033
-102525
-102816
-101933
-101939
-101460
-101131
-100823
-100457
-100247
-100036
-99705.4
-99232.5
-98926.3
-98755.2
-98934.6
-99182.5
-99310.6
-99581.2
-99723.8
-99797
-99824.3
-99978.9
-99826.6
-99980.5
-99987.8
-106943
-106768
-106752
-106675
-106684
-106651
-106649
-106684
-106671
-106736
-106746
-106837
-106881
-106974
-107021
-107109
-107141
-107234
-107245
-107331
-107341
-107411
-107436
-107482
-107521
-107541
-107575
-107584
-107608
-107611
-107582
-107587
-107586
-107577
-107583
-107576
-107577
-107571
-107566
-107568
-107557
-107563
-107550
-107552
-107549
-107541
-107547
-107534
-107541
-107531
-107533
-107529
-107528
-107526
-107525
-107525
-107520
-107523
-107519
-107520
-107511
-107509
-107512
-107508
-107512
-107509
-107512
-107508
-107511
-107507
-107511
-107507
-107510
-107510
-107507
-107511
-107507
-107510
-107507
-107511
-107507
-107510
-107507
-107511
-107508
-107510
-107507
-107507
-107509
-107509
-107509
-107508
-107511
-107507
-107508
-107511
-107507
-107511
-107507
-107510
-107507
-107511
-107507
-107510
-107507
-107510
-107507
-107511
-107507
-107510
-107507
-107511
-107507
-107511
-107508
-107511
-107507
-107511
-107508
-107510
-107509
-107509
-107507
-107511
-107507
-107511
-107507
-107511
-107507
-107511
-107507
-107511
-107507
-107510
-107506
-107510
-107506
-107510
-107507
-107511
-107507
-107510
-107507
-107511
-107508
-107510
-107507
-107507
-107509
-107509
-107509
-107509
-107506
-107510
-107507
-107511
-107507
-107511
-107506
-107511
-107507
-107511
-107506
-107510
-107507
-107510
-107506
-107510
-107507
-107511
-107507
-107510
-107507
-107511
-107508
-107510
-107507
-107507
-107509
-107509
-107509
-107509
-107510
-107507
-107511
-107508
-107512
-107507
-107511
-107507
-107511
-107507
-107510
-107507
-107510
-107506
-107510
-107507
-107509
-107508
-107507
-107510
-107507
-107511
-107508
-107511
-107507
-107511
-107508
-107509
-107509
-107510
-107506
-107511
-107507
-107511
-107507
-107511
-107506
-107511
-107507
-107511
-107506
-107510
-107506
-107510
-107506
-107510
-107507
-107511
-107506
-107510
-107507
-107511
-107508
-107510
-107508
-107507
-107509
-107509
-107510
-107508
-107510
-107510
-107507
-107512
-107508
-107511
-107507
-107511
-107507
-107511
-107507
-107510
-107507
-107507
-107510
-107507
-107511
-107507
-107511
-107507
-107511
-107508
-107512
-107507
-107510
-107509
-107508
-107510
-107509
-107509
-107507
-107511
-107507
-107512
-107507
-107511
-107507
-107510
-107506
-107511
-107507
-107511
-107507
-107511
-107507
-107511
-107507
-107511
-107506
-107510
-107507
-107511
-107507
-107510
-107507
-107508
-107509
-107509
-24414.9
-33197.9
-31885
-4398.93
-15747.5
-39076.6
-75224.1
-109625
-123535
-139482
-121475
-103861
-93907.1
-94282.1
-94035.6
-108237
-164411
-147581
-151147
-149737
-152090
-152123
-153380
-152981
-148158
-142511
-142372
-149158
-158440
-164403
-174104
-131297
-83614.4
-88300.6
-93360.3
-93101.2
-89573.5
-85102
-82489.9
-82312.2
-84771.7
-87256.1
-89207.1
-90626.6
-103099
-102989
-103011
-103002
-102483
-102090
-101948
-101054
-100613
-100401
-100050
-100009
-99909.1
-99776.2
-99471.1
-99275.3
-98888.5
-98508.5
-98155.2
-97972.9
-98185.4
-98594.9
-99024.5
-99547.7
-99974.2
-100344
-100402
-100409
-100344
-100131
-106974
-106578
-106380
-106364
-106343
-106439
-106446
-106496
-106541
-106589
-106636
-106751
-106770
-106916
-106930
-107071
-107085
-107198
-107214
-107303
-107321
-107389
-107427
-107461
-107509
-107524
-107561
-107581
-107599
-107608
-107583
-107571
-107575
-107578
-107572
-107575
-107568
-107572
-107562
-107562
-107559
-107552
-107556
-107545
-107550
-107539
-107541
-107536
-107533
-107533
-107526
-107529
-107523
-107524
-107521
-107519
-107520
-107516
-107518
-107516
-107507
-107508
-107506
-107508
-107506
-107507
-107506
-107508
-107505
-107507
-107505
-107507
-107505
-107506
-107506
-107505
-107507
-107505
-107507
-107504
-107506
-107505
-107507
-107505
-107507
-107505
-107506
-107506
-107506
-107506
-107505
-107506
-107505
-107506
-107505
-107505
-107507
-107505
-107506
-107504
-107506
-107505
-107507
-107505
-107507
-107505
-107507
-107505
-107507
-107505
-107506
-107504
-107507
-107505
-107506
-107505
-107507
-107505
-107506
-107505
-107505
-107506
-107506
-107505
-107506
-107505
-107507
-107505
-107507
-107504
-107506
-107505
-107507
-107505
-107507
-107505
-107507
-107505
-107507
-107504
-107506
-107505
-107507
-107505
-107506
-107505
-107506
-107506
-107506
-107506
-107506
-107505
-107506
-107505
-107506
-107505
-107507
-107506
-107506
-107504
-107506
-107505
-107507
-107505
-107507
-107505
-107507
-107505
-107507
-107504
-107506
-107505
-107507
-107505
-107506
-107505
-107506
-107506
-107506
-107506
-107506
-107506
-107505
-107506
-107505
-107507
-107505
-107508
-107504
-107506
-107504
-107507
-107505
-107507
-107505
-107507
-107505
-107507
-107506
-107506
-107506
-107505
-107507
-107505
-107506
-107504
-107506
-107504
-107506
-107505
-107506
-107505
-107507
-107505
-107507
-107505
-107507
-107506
-107507
-107504
-107506
-107505
-107507
-107505
-107507
-107505
-107507
-107505
-107507
-107505
-107506
-107505
-107507
-107505
-107506
-107505
-107506
-107506
-107506
-107506
-107505
-107506
-107505
-107505
-107506
-107504
-107507
-107505
-107506
-107504
-107506
-107505
-107506
-107505
-107507
-107506
-107505
-107506
-107505
-107506
-107504
-107506
-107505
-107507
-107504
-107506
-107505
-107505
-107506
-107505
-107506
-107505
-107507
-107505
-107506
-107504
-107507
-107506
-107508
-107505
-107507
-107505
-107507
-107505
-107507
-107505
-107507
-107505
-107507
-107505
-107506
-107504
-107508
-107506
-107507
-107505
-107506
-107506
-107506
-107507
26847.4
20768.7
31553.2
56622.3
48217.1
21705.3
-18813.9
-64556.4
-101261
-126777
-137242
-151444
-107886
-93369
-94450
-118923
-150514
-146462
-139242
-137345
-140520
-144578
-145742
-142533
-136308
-132394
-134214
-138459
-148710
-154052
-166645
-175058
-133243
-89305.1
-90333.2
-92208.8
-89691.3
-86583.9
-83216.9
-81652.4
-82640.2
-85165.2
-87365.5
-89759
-102338
-102300
-102394
-102605
-102195
-100590
-99952.5
-98832.3
-98457.2
-98434
-98675.7
-98818.8
-98860.5
-98857.9
-98830.1
-98781
-98437.1
-98029.6
-97542
-97223.9
-97388.5
-97808.4
-98740.6
-99103.4
-99865.7
-100377
-100658
-100850
-100622
-100171
-106965
-106239
-105806
-105711
-105860
-105967
-106148
-106252
-106344
-106454
-106492
-106610
-106676
-106809
-106873
-106998
-107049
-107142
-107199
-107268
-107306
-107366
-107399
-107439
-107486
-107512
-107547
-107573
-107588
-107597
-107558
-107566
-107564
-107569
-107571
-107566
-107570
-107562
-107566
-107556
-107556
-107555
-107547
-107549
-107541
-107542
-107536
-107533
-107534
-107527
-107529
-107522
-107524
-107519
-107520
-107517
-107517
-107515
-107515
-107514
-107506
-107504
-107505
-107504
-107505
-107504
-107505
-107503
-107505
-107503
-107504
-107503
-107503
-107503
-107503
-107503
-107503
-107503
-107503
-107503
-107502
-107503
-107502
-107504
-107503
-107504
-107503
-107503
-107503
-107503
-107504
-107503
-107503
-107503
-107503
-107503
-107503
-107503
-107502
-107503
-107502
-107503
-107502
-107503
-107503
-107503
-107503
-107503
-107502
-107503
-107502
-107504
-107502
-107504
-107502
-107504
-107503
-107504
-107503
-107503
-107504
-107503
-107503
-107503
-107503
-107503
-107503
-107503
-107502
-107503
-107502
-107503
-107502
-107503
-107503
-107503
-107503
-107503
-107502
-107503
-107502
-107503
-107502
-107504
-107503
-107504
-107503
-107503
-107503
-107503
-107503
-107503
-107502
-107504
-107503
-107504
-107502
-107503
-107503
-107503
-107502
-107503
-107502
-107503
-107503
-107503
-107503
-107503
-107502
-107503
-107502
-107504
-107502
-107504
-107503
-107504
-107503
-107503
-107503
-107503
-107503
-107503
-107503
-107502
-107504
-107502
-107504
-107502
-107504
-107502
-107503
-107502
-107503
-107503
-107503
-107503
-107503
-107503
-107503
-107503
-107502
-107504
-107502
-107504
-107503
-107503
-107503
-107503
-107503
-107504
-107503
-107504
-107502
-107504
-107502
-107504
-107502
-107503
-107502
-107503
-107502
-107503
-107502
-107503
-107503
-107503
-107503
-107503
-107502
-107503
-107502
-107503
-107502
-107504
-107503
-107504
-107503
-107503
-107503
-107503
-107504
-107503
-107503
-107503
-107503
-107504
-107503
-107503
-107502
-107503
-107502
-107503
-107502
-107503
-107503
-107503
-107503
-107502
-107503
-107502
-107503
-107502
-107503
-107503
-107503
-107503
-107503
-107503
-107503
-107504
-107503
-107503
-107502
-107503
-107502
-107503
-107502
-107504
-107503
-107503
-107502
-107504
-107502
-107503
-107503
-107504
-107503
-107503
-107502
-107503
-107502
-107503
-107503
-107504
-107503
-107503
-107502
-107503
-107504
-107503
54038.1
57827.7
63459.2
62210.2
54253.3
38002.3
-2038.69
-58614.8
-98869.5
-118411
-128901
-141298
-116324
-93101.8
-98710.6
-129492
-151344
-142173
-134317
-130885
-133631
-137442
-139201
-135722
-131477
-131623
-131335
-136611
-140212
-149594
-157817
-168332
-168427
-140380
-96668.3
-87577
-89372.9
-87821.5
-84427.9
-82768
-81972.9
-82614.7
-84405.7
-83894
-102308
-102609
-102330
-102249
-99909.8
-97038.4
-95788.8
-94959.1
-95051.1
-95576.2
-96501.5
-97286.7
-97729.3
-97935.5
-97996.4
-97936
-97714.4
-97325.9
-96856.3
-96567.2
-96561.2
-97027.8
-98007.6
-98813.6
-99706
-100314
-100955
-100980
-100876
-99411.3
-106536
-105322
-104719
-104641
-104852
-105325
-105629
-105911
-106080
-106230
-106366
-106455
-106581
-106702
-106786
-106918
-106980
-107088
-107146
-107217
-107272
-107319
-107376
-107405
-107458
-107483
-107522
-107551
-107568
-107568
-107553
-107538
-107556
-107552
-107559
-107562
-107557
-107561
-107553
-107557
-107548
-107547
-107546
-107538
-107540
-107533
-107531
-107530
-107524
-107524
-107522
-107516
-107519
-107512
-107515
-107509
-107511
-107507
-107509
-107508
-107499
-107500
-107498
-107499
-107498
-107499
-107498
-107499
-107497
-107498
-107497
-107498
-107497
-107497
-107497
-107497
-107498
-107497
-107498
-107497
-107498
-107496
-107498
-107497
-107498
-107496
-107496
-107497
-107496
-107497
-107497
-107497
-107496
-107496
-107497
-107497
-107497
-107497
-107497
-107497
-107498
-107497
-107498
-107497
-107497
-107497
-107497
-107497
-107498
-107497
-107497
-107496
-107498
-107497
-107498
-107496
-107497
-107496
-107497
-107497
-107497
-107497
-107497
-107496
-107497
-107497
-107498
-107497
-107497
-107497
-107498
-107497
-107498
-107497
-107497
-107497
-107497
-107497
-107498
-107497
-107498
-107496
-107498
-107497
-107498
-107496
-107496
-107497
-107496
-107497
-107498
-107497
-107497
-107496
-107497
-107497
-107498
-107497
-107497
-107497
-107498
-107497
-107498
-107497
-107497
-107497
-107497
-107497
-107498
-107497
-107498
-107496
-107498
-107497
-107498
-107496
-107496
-107497
-107496
-107497
-107497
-107497
-107497
-107497
-107496
-107498
-107497
-107498
-107496
-107498
-107497
-107498
-107497
-107497
-107497
-107497
-107497
-107497
-107497
-107497
-107497
-107496
-107498
-107497
-107498
-107497
-107497
-107497
-107497
-107497
-107497
-107497
-107497
-107496
-107498
-107496
-107498
-107497
-107497
-107497
-107498
-107497
-107498
-107497
-107497
-107497
-107498
-107497
-107498
-107497
-107498
-107496
-107498
-107497
-107498
-107496
-107496
-107497
-107496
-107497
-107497
-107497
-107496
-107496
-107497
-107497
-107498
-107497
-107497
-107497
-107498
-107497
-107498
-107497
-107497
-107497
-107496
-107497
-107496
-107497
-107496
-107497
-107497
-107498
-107497
-107497
-107496
-107497
-107497
-107497
-107497
-107497
-107497
-107496
-107498
-107496
-107497
-107496
-107497
-107496
-107497
-107496
-107497
-107496
-107497
-107496
-107497
-107496
-107497
-107496
-107498
-107496
-107498
-107497
-107498
-107497
-107498
-107497
-107498
-107497
61324.7
65583.9
59816.1
45869.2
36053.5
8790.75
-47043.4
-88163.7
-109722
-119245
-127961
-137826
-112195
-92527.6
-106950
-156684
-148002
-139121
-129414
-127477
-126559
-127634
-130210
-130685
-131289
-130192
-133704
-134800
-137380
-141398
-149696
-157098
-165862
-166411
-144997
-105947
-85950.4
-87671
-86647.7
-83941.2
-82274.4
-81235.7
-79970.2
-77001.7
-104424
-102987
-101680
-98126.1
-93386.5
-90856.5
-89369.5
-89859.2
-90940.9
-92416.1
-93972.9
-95307.1
-96234.2
-96730.1
-96943.5
-97005.7
-96898.1
-96690.9
-96367.4
-96091.2
-96082
-96625.6
-97340.7
-98788.5
-99224.2
-100402
-100641
-100626
-100228
-98533.2
-103552
-102648
-102627
-103008
-103765
-104402
-105009
-105417
-105761
-105990
-106153
-106327
-106431
-106574
-106716
-106796
-106940
-106994
-107119
-107149
-107247
-107272
-107348
-107375
-107432
-107470
-107503
-107533
-107530
-107521
-107457
-107482
-107512
-107545
-107545
-107553
-107554
-107551
-107554
-107545
-107550
-107538
-107543
-107536
-107533
-107534
-107525
-107529
-107520
-107519
-107518
-107513
-107515
-107508
-107511
-107505
-107507
-107503
-107503
-107503
-107494
-107494
-107495
-107494
-107495
-107494
-107494
-107494
-107494
-107493
-107493
-107492
-107494
-107493
-107493
-107493
-107493
-107493
-107492
-107492
-107492
-107493
-107493
-107492
-107493
-107493
-107492
-107492
-107492
-107492
-107492
-107492
-107492
-107492
-107493
-107493
-107492
-107493
-107493
-107492
-107492
-107492
-107493
-107493
-107493
-107493
-107493
-107493
-107492
-107492
-107492
-107493
-107493
-107492
-107493
-107493
-107492
-107492
-107492
-107492
-107492
-107492
-107492
-107492
-107493
-107493
-107492
-107493
-107493
-107492
-107492
-107492
-107493
-107493
-107493
-107493
-107493
-107493
-107492
-107492
-107492
-107493
-107493
-107492
-107493
-107493
-107492
-107492
-107492
-107492
-107492
-107492
-107492
-107492
-107493
-107493
-107492
-107493
-107493
-107492
-107492
-107492
-107493
-107493
-107493
-107493
-107493
-107493
-107492
-107492
-107492
-107493
-107493
-107492
-107493
-107493
-107492
-107492
-107492
-107492
-107492
-107492
-107492
-107492
-107493
-107493
-107492
-107493
-107493
-107492
-107492
-107492
-107493
-107493
-107493
-107493
-107493
-107493
-107492
-107492
-107492
-107493
-107493
-107492
-107492
-107493
-107492
-107492
-107492
-107492
-107492
-107492
-107492
-107492
-107493
-107493
-107492
-107493
-107493
-107492
-107492
-107492
-107493
-107493
-107493
-107493
-107493
-107493
-107492
-107492
-107492
-107493
-107493
-107492
-107493
-107493
-107492
-107492
-107492
-107492
-107492
-107492
-107492
-107492
-107492
-107493
-107492
-107493
-107493
-107492
-107492
-107492
-107493
-107493
-107493
-107493
-107493
-107493
-107492
-107492
-107492
-107493
-107493
-107492
-107493
-107493
-107492
-107492
-107492
-107492
-107492
-107492
-107492
-107492
-107492
-107492
-107492
-107493
-107492
-107493
-107493
-107493
-107493
-107493
-107493
-107493
-107493
-107493
-107492
-107492
-107493
-107493
-107492
-107492
-107492
-107492
-107492
-107493
-107493
-107492
63554
56842.4
45441.2
34854.5
21358.8
-14953
-57497
-77667.2
-85602.6
-98386.8
-114059
-127718
-140061
-104444
-131278
-148109
-127900
-157548
-151521
-140388
-130586
-122298
-119962
-121728
-121650
-124462
-128105
-133507
-134085
-133263
-135041
-139205
-144037
-147751
-156091
-162634
-165041
-168958
-127623
-88967.4
-85090
-84236.3
-81988.8
-80292.2
-77491.5
-61568.2
-70637.6
-73824.4
-91183.4
-96115.4
-94037.6
-87663.6
-82503.6
-80960.4
-81939.4
-84513.5
-87265.1
-89812.5
-91888.5
-93440.2
-94536.3
-95274.6
-95716.7
-95922.4
-96020.4
-95935.3
-95843.4
-95662.6
-95626.5
-95960.2
-96669.3
-97968
-98755.8
-99580.2
-99955.9
-99836.8
-98224.2
-90133.7
-93677.3
-96916.2
-97335.6
-97912.1
-98846.5
-100613
-102387
-103749
-104467
-105100
-105415
-105783
-105940
-106162
-106294
-106433
-106562
-106710
-106811
-106937
-107025
-107099
-107191
-107218
-107296
-107322
-107379
-107393
-107423
-107405
-107361
-107237
-107327
-107388
-107261
-107370
-107454
-107492
-107527
-107530
-107541
-107545
-107538
-107542
-107538
-107534
-107537
-107526
-107530
-107522
-107520
-107519
-107514
-107514
-107509
-107509
-107506
-107501
-107503
-107497
-107499
-107495
-107495
-107493
-107492
-107489
-107490
-107488
-107487
-107487
-107486
-107487
-107486
-107486
-107486
-107486
-107486
-107486
-107485
-107486
-107485
-107485
-107485
-107485
-107485
-107485
-107485
-107485
-107485
-107484
-107485
-107484
-107484
-107484
-107485
-107484
-107484
-107484
-107484
-107484
-107484
-107484
-107484
-107484
-107484
-107485
-107485
-107485
-107485
-107485
-107485
-107485
-107485
-107485
-107485
-107485
-107485
-107485
-107485
-107485
-107485
-107485
-107485
-107484
-107484
-107484
-107485
-107484
-107484
-107484
-107484
-107484
-107484
-107484
-107484
-107484
-107484
-107485
-107485
-107485
-107485
-107485
-107485
-107485
-107485
-107485
-107485
-107485
-107485
-107485
-107485
-107485
-107485
-107484
-107485
-107484
-107485
-107484
-107485
-107484
-107484
-107484
-107484
-107485
-107484
-107484
-107484
-107484
-107485
-107485
-107485
-107485
-107485
-107485
-107485
-107485
-107485
-107485
-107485
-107485
-107485
-107485
-107485
-107485
-107485
-107484
-107485
-107484
-107485
-107484
-107485
-107484
-107484
-107484
-107484
-107485
-107484
-107484
-107484
-107485
-107484
-107485
-107485
-107485
-107485
-107485
-107485
-107485
-107485
-107485
-107485
-107485
-107485
-107485
-107485
-107485
-107485
-107485
-107484
-107484
-107484
-107484
-107484
-107484
-107484
-107484
-107484
-107485
-107484
-107484
-107484
-107484
-107485
-107485
-107485
-107485
-107485
-107485
-107485
-107485
-107485
-107485
-107485
-107485
-107485
-107485
-107485
-107485
-107485
-107484
-107485
-107484
-107484
-107484
-107485
-107484
-107484
-107484
-107484
-107484
-107484
-107484
-107484
-107484
-107484
-107485
-107485
-107485
-107485
-107485
-107485
-107485
-107485
-107485
-107485
-107485
-107485
-107485
-107485
-107485
-107485
-107485
-107484
-107484
-107484
-107484
-107484
-107484
-107484
-107484
-107484
-107485
-107484
-107485
-107485
-107484
-107485
-107485
-107485
-107485
-107485
-107485
-107485
-107485
-107485
-107485
-107485
-107485
-107485
-107485
-107485
-107485
-107485
-107485
-107485
-107484
-107485
-107485
-107484
-107485
-107485
-107484
46216.8
40706.3
30943
25224.1
20341.8
6701.55
-10315.5
-25958.1
-34184.3
-58847.9
-77266.9
-103580
-125492
-140073
-136521
-133894
-140997
-152135
-148266
-137662
-127931
-122629
-119042
-118412
-120901
-123046
-129400
-133137
-134309
-134944
-135031
-136758
-139469
-144016
-147499
-152787
-158083
-162586
-163677
-149975
-108678
-81941.3
-81343.9
-79065.9
-75558.4
-61302.5
-52079.5
-55690.5
-55935.5
-61308
-63339.5
-65367.6
-66093.7
-70653.4
-75755.5
-80909.9
-85198.7
-88256.7
-90351.4
-91760
-92769.3
-93583.4
-94243.8
-94723.5
-95040.7
-95185.7
-95122
-95124.2
-95069.9
-95622.8
-96131.3
-97387.7
-97780.3
-98936.4
-99133.3
-98701.2
-97928.1
-92874
-91123.9
-91660.8
-92627.2
-94682.6
-97224.7
-99688.7
-101773
-103162
-104243
-104748
-105268
-105530
-105788
-106018
-106141
-106354
-106440
-106637
-106712
-106866
-106958
-107043
-107127
-107182
-107250
-107286
-107340
-107365
-107397
-107388
-107382
-107297
-107314
-107344
-107311
-107408
-107474
-107504
-107527
-107523
-107538
-107534
-107533
-107538
-107529
-107536
-107524
-107525
-107522
-107517
-107518
-107510
-107513
-107506
-107507
-107501
-107500
-107498
-107495
-107495
-107491
-107493
-107489
-107490
-107486
-107486
-107484
-107483
-107484
-107481
-107481
-107482
-107480
-107481
-107481
-107481
-107481
-107480
-107480
-107480
-107480
-107480
-107480
-107480
-107480
-107480
-107480
-107480
-107479
-107479
-107480
-107479
-107479
-107480
-107480
-107479
-107480
-107480
-107479
-107480
-107480
-107479
-107479
-107480
-107479
-107479
-107479
-107480
-107480
-107480
-107480
-107480
-107480
-107480
-107480
-107480
-107480
-107480
-107480
-107479
-107479
-107479
-107480
-107479
-107479
-107480
-107480