/*--------------------------------*- C++ -*----------------------------------*\
| =========                 |                                                 |
| \\      /  F ield         | OpenFOAM: The Open Source CFD Toolbox           |
|  \\    /   O peration     | Version:  2.1.1                                 |
|   \\  /    A nd           | Web:      www.OpenFOAM.org                      |
|    \\/     M anipulation  |                                                 |
\*---------------------------------------------------------------------------*/
FoamFile
{
    version     2.0;
    format      ascii;
    class       volScalarField;
    location    "0.007700000";
    object      fH;
}
// * * * * * * * * * * * * * * * * * * * * * * * * * * * * * * * * * * * * * //

dimensions      [0 0 0 0 0 0 0];

internalField   nonuniform List<scalar> 
12384
(
0.0275129
0.0272013
0.0268365
0.0265498
0.0263775
0.0263628
0.0264633
0.026655
0.0269174
0.0272581
0.0276903
0.0281852
0.0285856
0.0291716
0.0248554
0.0248218
0.0251842
0.0258666
0.0264781
0.0269471
0.027215
0.0273393
0.027411
0.0274114
0.027363
0.0272741
0.0271416
0.0269642
0.0267466
0.0265279
0.0263258
0.0261666
0.0260637
0.0260027
0.0259787
0.0259909
0.0260121
0.0260477
0.0260936
0.0261621
0.0262624
0.0263919
0.0256371
0.0240958
0.0301568
0.0308594
0.0306106
0.03022
0.0299572
0.0297345
0.0295264
0.0293292
0.0291826
0.0290803
0.0289934
0.0289086
0.0288292
0.0287996
0.0288196
0.0288496
0.0289302
0.0290023
0.0290708
0.0291161
0.0291742
0.0292037
0.0292453
0.029267
0.0292896
0.0293036
0.0294048
0.0297863
0.0295397
0.0293247
0.0308972
0.0308242
0.0306241
0.030587
0.0305583
0.0305445
0.030499
0.0304599
0.0304099
0.0303668
0.030336
0.030316
0.0303046
0.0302997
0.0303181
0.0303462
0.030369
0.0303945
0.0304159
0.0304457
0.0304652
0.0304914
0.0305264
0.0305806
0.0306485
0.0307252
0.030782
0.0307846
0.0307414
0.0306902
0.0321846
0.032274
0.032378
0.0324294
0.0324455
0.0323599
0.0322493
0.0321435
0.0320672
0.032024
0.0320038
0.0319972
0.0319911
0.0319887
0.0319858
0.0319971
0.0320079
0.0320096
0.0320177
0.0320177
0.0320453
0.0320815
0.0319711
0.032187
0.032247
0.0321923
0.0320973
0.0320695
0.0321024
0.0320967
0.0356976
0.0356262
0.0360161
0.0362591
0.0363162
0.0363323
0.0363429
0.0363395
0.0363328
0.0363075
0.0362922
0.036261
0.0362295
0.0361872
0.0361458
0.0360956
0.0360563
0.0360226
0.0359885
0.0359686
0.0359562
0.0359482
0.0359517
0.0359419
0.0359332
0.0358706
0.0357353
0.0355315
0.0352441
0.0350591
0.0326182
0.033019
0.0338423
0.0343773
0.0345716
0.0346078
0.0345647
0.0344418
0.0342716
0.0340418
0.0337999
0.0335774
0.0333827
0.0332303
0.033121
0.033047
0.0330417
0.032959
0.0330095
0.0329701
0.0329588
0.0329782
0.0329318
0.0328648
0.0327168
0.0321922
0.0290418
0.027755
0.028109
0.028381
0.0355128
0.0368392
0.0374032
0.0377029
0.0376682
0.0374872
0.0373251
0.0371961
0.0371133
0.0370791
0.0370754
0.0370883
0.0371119
0.0371543
0.0371905
0.0372374
0.0372977
0.0373953
0.0375617
0.037581
0.0363292
0.0351389
0.0351241
0.0351333
0.0351572
0.0351713
0.0352353
0.0353075
0.0353242
0.0352173
0.0334183
0.0334116
0.0334658
0.0335453
0.0335591
0.0335172
0.0334365
0.0333444
0.0332537
0.0331437
0.0331144
0.0330087
0.0329418
0.0329162
0.0328886
0.0328452
0.0327593
0.0328851
0.0361705
0.0379227
0.0377372
0.0376527
0.037543
0.0374262
0.0373057
0.0372641
0.0373812
0.0377573
0.0385775
0.0397473
0.0334896
0.0333433
0.0334252
0.0336723
0.0339244
0.034086
0.03413
0.0340907
0.0340178
0.0339146
0.0338006
0.0337161
0.0336379
0.0335679
0.0335104
0.0334538
0.033375
0.0332538
0.0330006
0.0334068
0.0357932
0.0363557
0.0363921
0.0364125
0.036416
0.0364642
0.03655
0.0366594
0.0368321
0.0370109
0.0343584
0.0345901
0.034871
0.0349587
0.0349391
0.0348911
0.0348047
0.0347117
0.0346452
0.0346132
0.0346073
0.0346112
0.0345732
0.0343968
0.0341209
0.0365192
0.038423
0.0384498
0.0381993
0.0380306
0.0378944
0.0378473
0.0378459
0.0378633
0.0378875
0.0379089
0.0379294
0.0379603
0.0380216
0.0384135
0.0361147
0.0359553
0.0361352
0.0367809
0.0366187
0.0364245
0.0364481
0.0364989
0.0365849
0.0366416
0.0367428
0.0367986
0.0368967
0.0369683
0.0370444
0.0371104
0.0371738
0.0372259
0.0372449
0.0372332
0.0371791
0.037103
0.037049
0.0369754
0.0369693
0.0369215
0.0368413
0.0366668
0.0365268
0.036422
0.0394115
0.0390524
0.0385429
0.0383658
0.0386842
0.0392192
0.0421299
0.0503184
0.0525417
0.0526256
0.0525192
0.0523941
0.0522093
0.0520595
0.0518117
0.051525
0.0511878
0.0508286
0.0505353
0.0503818
0.0504593
0.0508312
0.0513595
0.0518745
0.0521688
0.0521546
0.0519889
0.0516365
0.0502796
0.0479946
0.0266896
0.0260632
0.0254014
0.0251582
0.0252059
0.0253497
0.0255424
0.0257303
0.025958
0.0262664
0.0267709
0.0275255
0.028346
0.0291303
0.0248318
0.0248415
0.0253345
0.0261861
0.0270316
0.0276636
0.0279768
0.0280805
0.0280764
0.0280301
0.0278917
0.0276854
0.0273712
0.0268914
0.0263592
0.025941
0.0256949
0.0255702
0.025518
0.0254932
0.0254678
0.0254475
0.0254558
0.0255034
0.0256254
0.0258127
0.0260239
0.0262697
0.0261979
0.025281
0.0302657
0.0308487
0.0304632
0.0299649
0.0295165
0.0291023
0.0287653
0.0285115
0.0283271
0.0282142
0.028131
0.0280569
0.0280429
0.0281363
0.0283057
0.0285111
0.028704
0.0288527
0.0289522
0.0290189
0.0290775
0.0291288
0.0291731
0.0292166
0.0292361
0.0292498
0.0292814
0.0295193
0.0297995
0.0298652
0.0309044
0.0307801
0.0306656
0.0306916
0.030715
0.0306992
0.0306356
0.030526
0.0303667
0.0301829
0.030035
0.0299794
0.0300126
0.0300933
0.0301761
0.0302412
0.0302805
0.0303004
0.0303166
0.0303132
0.0303192
0.0303308
0.0303653
0.0304196
0.0304969
0.0305909
0.0306891
0.0307537
0.0307597
0.0307188
0.0321708
0.0322221
0.0323205
0.0323901
0.0322138
0.031923
0.0316928
0.0315739
0.0315189
0.0314894
0.0314718
0.0314614
0.0314625
0.0314666
0.0314802
0.0315243
0.0315856
0.0316707
0.0317742
0.0318581
0.0319271
0.0320213
0.0319911
0.0320887
0.0322165
0.0318653
0.0314602
0.0314843
0.0318405
0.0321721
0.0356638
0.0357604
0.0362033
0.0364576
0.0365544
0.0365866
0.0365649
0.0365065
0.0364441
0.0363893
0.0363442
0.0362874
0.0361879
0.0360582
0.0359215
0.0358103
0.0357301
0.0356798
0.0356523
0.0356424
0.03565
0.0356696
0.0357129
0.0357619
0.0358102
0.0358277
0.0357798
0.0356384
0.0354157
0.0351757
0.0326762
0.0335932
0.0348903
0.0355992
0.0356341
0.0353263
0.0349745
0.0345801
0.0340831
0.0334643
0.0329395
0.0325571
0.0323201
0.0321925
0.032132
0.032146
0.0321586
0.0322155
0.0322417
0.0322911
0.0323679
0.0324828
0.0326077
0.03271
0.0326947
0.0324607
0.031082
0.029025
0.02803
0.0285
0.0352265
0.0367915
0.0376419
0.0376753
0.0371262
0.0367605
0.036585
0.0365495
0.0365866
0.0366474
0.0367156
0.0367765
0.0368191
0.0368643
0.0369101
0.0369393
0.0369974
0.0371047
0.0373125
0.0375214
0.0371144
0.0358608
0.0349835
0.0347838
0.034713
0.0347229
0.0348687
0.0350904
0.0354363
0.0355935
0.0334404
0.033474
0.0337533
0.0338848
0.0337672
0.0335049
0.0331912
0.0328953
0.0326299
0.032421
0.0322847
0.0321914
0.0321817
0.032239
0.0323504
0.0325028
0.032599
0.032612
0.0341286
0.0371189
0.0380418
0.0379703
0.037817
0.0374494
0.03698
0.0366111
0.0364601
0.036639
0.037458
0.0392747
0.0335139
0.0333233
0.0334944
0.0340929
0.0344609
0.0344709
0.034275
0.0339272
0.0335571
0.0332481
0.0329958
0.0328199
0.0327203
0.0326916
0.0327601
0.0328724
0.0329851
0.033042
0.0329774
0.0330075
0.0340442
0.0356864
0.0363639
0.0363184
0.036113
0.0361512
0.0363585
0.0365474
0.0367517
0.0369964
0.0343383
0.0345667
0.0350574
0.035149
0.0350277
0.0347476
0.0343743
0.0339989
0.0337282
0.0335727
0.0336094
0.0338075
0.0340725
0.0342144
0.0341236
0.0347405
0.0362183
0.0375534
0.038238
0.0379821
0.0377911
0.0377129
0.0377553
0.0378429
0.0379449
0.0380208
0.0380414
0.0380274
0.0380538
0.0384492
0.036365
0.0364706
0.0367504
0.0367241
0.0364972
0.0364687
0.0365552
0.0366528
0.0367345
0.0368078
0.036852
0.0368907
0.0369158
0.0369527
0.0370183
0.0370764
0.0371774
0.0372632
0.0373105
0.0372106
0.0369743
0.0366214
0.0362979
0.0360874
0.0361183
0.0363405
0.0366024
0.0366393
0.0365465
0.0364412
0.0419181
0.0396227
0.0377763
0.0376287
0.038433
0.0410116
0.0473686
0.0519009
0.0526274
0.0524887
0.0522138
0.0519044
0.0515825
0.0512782
0.0509724
0.0505691
0.0500379
0.0493045
0.0483665
0.0474153
0.0468088
0.0468963
0.0478455
0.0491502
0.0503784
0.0514976
0.0517928
0.0515778
0.0501488
0.0478438
0.0256634
0.024859
0.0246569
0.0249089
0.0253923
0.0258906
0.0262694
0.0265186
0.0265768
0.0265498
0.0266134
0.0269824
0.0279511
0.029033
0.0248159
0.024839
0.0254035
0.0264091
0.0274339
0.0280779
0.0282928
0.028339
0.0283177
0.0282322
0.0280541
0.0277889
0.0273974
0.0267065
0.0260499
0.0257247
0.0256281
0.025664
0.025729
0.0257714
0.0257742
0.0257193
0.0256183
0.0255021
0.0254422
0.0255036
0.0256955
0.026015
0.0262572
0.0257882
0.0303419
0.0308607
0.0304116
0.0298909
0.0294496
0.0290697
0.0287389
0.0284266
0.0281835
0.0280524
0.0279521
0.0278756
0.0279732
0.028314
0.0286988
0.0289814
0.0291598
0.0292405
0.0292735
0.0292801
0.0292925
0.0292943
0.0292901
0.0292681
0.0292511
0.0292322
0.029216
0.0293056
0.02963
0.0299325
0.0309076
0.0307775
0.0307745
0.0308918
0.0309475
0.0309117
0.0308347
0.0307151
0.0304915
0.0301366
0.0298073
0.0297317
0.0299304
0.0301367
0.0302362
0.0302555
0.0302313
0.0301935
0.0301631
0.0301586
0.030164
0.0301788
0.0302112
0.0302601
0.0303291
0.03042
0.0305351
0.0306469
0.0307165
0.0307129
0.0321548
0.0321388
0.0322034
0.0321963
0.0317533
0.0315001
0.0314013
0.0313665
0.0313353
0.0312849
0.0312185
0.0311552
0.0311073
0.0310782
0.0310807
0.0311251
0.0311961
0.031303
0.0314463
0.031598
0.031733
0.0318884
0.0319801
0.0320046
0.0320755
0.0315405
0.031027
0.0309504
0.031357
0.0318385
0.0356554
0.0358995
0.0364178
0.0367077
0.0368178
0.0368062
0.0367011
0.0365576
0.0364067
0.0363449
0.0362998
0.0361849
0.0359898
0.0357833
0.035622
0.0355362
0.0355152
0.0355359
0.035569
0.0356015
0.0356099
0.0355982
0.0355928
0.0356103
0.035654
0.0357165
0.0357508
0.0356858
0.0355232
0.0352642
0.0327866
0.0342573
0.0358845
0.0363659
0.0359346
0.0353463
0.0348543
0.034382
0.0336843
0.0327947
0.0322396
0.0319725
0.0318895
0.0318927
0.0319597
0.0320736
0.0321571
0.0322601
0.0322802
0.0323118
0.032332
0.0323214
0.0323991
0.0324962
0.032588
0.0325281
0.0320596
0.0305458
0.0286942
0.0283289
0.0348383
0.0366863
0.0378849
0.0370356
0.0365365
0.0364019
0.0364423
0.0365721
0.0367357
0.0369053
0.0370615
0.0371841
0.0372575
0.0372874
0.0372825
0.0372166
0.0371149
0.0370427
0.0370867
0.0373175
0.037373
0.0367624
0.0355855
0.0347895
0.034422
0.0344078
0.0345412
0.0346774
0.0350343
0.0356437
0.03348
0.0338278
0.0341798
0.0340212
0.0335538
0.0330355
0.0325147
0.0320676
0.0316567
0.0313532
0.0311452
0.0310687
0.0311043
0.0312481
0.0314919
0.0318176
0.0321691
0.0323436
0.0329677
0.0353886
0.0377783
0.0382855
0.0382036
0.0375927
0.0367908
0.036205
0.0358816
0.0359956
0.0365981
0.0385338
0.0335342
0.033336
0.0338386
0.0345642
0.0346412
0.0342815
0.0336619
0.0330472
0.0325464
0.0321157
0.0318142
0.0315905
0.0314793
0.0314695
0.031588
0.0318059
0.0321186
0.0324742
0.0327198
0.0327685
0.0331212
0.0345061
0.0360449
0.0362847
0.0358423
0.0357392
0.0360865
0.0364812
0.0367345
0.0369839
0.0343921
0.0349233
0.0352407
0.0351856
0.0347816
0.0341256
0.033403
0.0327419
0.032244
0.0319865
0.0319957
0.0322891
0.032841
0.0334788
0.0338738
0.0340914
0.034628
0.0355391
0.0366816
0.0375879
0.0378082
0.0377297
0.0378359
0.0380707
0.0382938
0.0383916
0.0383021
0.0381246
0.0381028
0.0385595
0.0366279
0.0368321
0.0368013
0.0365809
0.0364899
0.0365738
0.036677
0.0367659
0.0368158
0.0368311
0.0368346
0.0368141
0.0368127
0.0367599
0.0367531
0.0367076
0.0367461
0.036796
0.036905
0.0368809
0.0365432
0.0360233
0.0355064
0.0350217
0.0347853
0.0350474
0.0357632
0.0363542
0.0365173
0.0364567
0.0437162
0.0391688
0.0372604
0.0384451
0.0406797
0.0454277
0.0508366
0.0524968
0.0524695
0.0520987
0.0516935
0.0513607
0.0511554
0.0510483
0.0510022
0.0509421
0.0507593
0.0502565
0.0492317
0.0476438
0.0459399
0.0451468
0.0452288
0.046137
0.0471726
0.0490407
0.0508598
0.0509084
0.0489895
0.0474103
0.0244602
0.0243718
0.0248515
0.0256641
0.0263926
0.026919
0.0272444
0.0274612
0.0276116
0.0275064
0.0271307
0.0270084
0.027601
0.0289144
0.0248037
0.0248097
0.0253219
0.0263375
0.027439
0.0281225
0.0283317
0.028318
0.0281894
0.0279903
0.0278586
0.0276695
0.0272643
0.0264384
0.025878
0.0258032
0.025908
0.0260336
0.0261118
0.0261494
0.0261664
0.0261394
0.0260419
0.0258417
0.025605
0.0254447
0.0254855
0.0257563
0.0261448
0.0259923
0.0303738
0.0309073
0.0305279
0.0301466
0.0299102
0.0296926
0.0293054
0.0287189
0.0282784
0.0280288
0.0278284
0.027874
0.0283233
0.0289033
0.0292433
0.0293484
0.029311
0.0292143
0.029123
0.0290847
0.029094
0.0291549
0.0292105
0.0292594
0.0292699
0.0292413
0.0291897
0.0291944
0.0294418
0.0298732
0.0309077
0.0308131
0.0309055
0.0310487
0.03104
0.0309418
0.0308741
0.0308213
0.0306426
0.0301594
0.0296664
0.0296087
0.0300185
0.0302432
0.0302108
0.0300733
0.0298965
0.0297507
0.0296646
0.0296522
0.0297022
0.0297928
0.0299009
0.0300154
0.0301239
0.0302386
0.0303695
0.0305093
0.0306342
0.0306874
0.0321466
0.0320676
0.0321429
0.0317035
0.0313929
0.0313318
0.0313454
0.0313197
0.031212
0.0310389
0.0308527
0.0306949
0.0305802
0.0305296
0.0305376
0.0306059
0.0307335
0.0309006
0.0310931
0.0312983
0.0314932
0.0317014
0.0318927
0.0319709
0.0319911
0.0316757
0.031234
0.0309013
0.0314774
0.0320129
0.0356556
0.0359969
0.0366107
0.0369715
0.0371247
0.0371063
0.0369318
0.0365926
0.0362834
0.0362123
0.0361724
0.036013
0.0357606
0.0355488
0.0354522
0.0354699
0.0355615
0.0356796
0.0357883
0.0358663
0.03588
0.0358412
0.0357501
0.0356549
0.0356045
0.0356224
0.0356769
0.0356815
0.0355613
0.0353252
0.0328895
0.0348052
0.0366612
0.0370421
0.0364176
0.0356115
0.0349136
0.0344271
0.0335602
0.0324661
0.0319653
0.0318133
0.031837
0.0319408
0.0321122
0.0323097
0.0325026
0.0326515
0.0327315
0.0327381
0.0326755
0.032562
0.0324809
0.0324159
0.0324746
0.0324963
0.0323348
0.0314852
0.0295198
0.0284133
0.0348307
0.0374621
0.0373934
0.0366028
0.0364198
0.0364068
0.0365237
0.0367422
0.0369899
0.0372323
0.0374481
0.0376188
0.0377295
0.0377785
0.0377583
0.037664
0.0374894
0.03727
0.037105
0.037151
0.0373523
0.0372143
0.0364259
0.0353607
0.0345673
0.0343195
0.0344772
0.0345369
0.0346611
0.035424
0.0337491
0.0344732
0.034351
0.033726
0.0330526
0.0324286
0.0317968
0.0311956
0.0306729
0.0302601
0.0300284
0.0299052
0.029965
0.0301748
0.0305332
0.031001
0.0315447
0.0319746
0.0323716
0.0339407
0.0366893
0.0381851
0.038324
0.0375627
0.0364437
0.0357712
0.0353526
0.0353502
0.0359875
0.0378776
0.0334721
0.033476
0.0344315
0.0348366
0.0344596
0.0336801
0.0328974
0.0322544
0.0316878
0.0312231
0.0308414
0.0305905
0.0304751
0.0304649
0.0305592
0.0307992
0.0311841
0.0316764
0.0321715
0.0324667
0.0326841
0.0336249
0.0354228
0.0362483
0.0358123
0.0355386
0.035924
0.0364399
0.0367817
0.0369998
0.034543
0.0351733
0.0353633
0.0350054
0.0342142
0.0332323
0.032221
0.0313326
0.0306562
0.0302927
0.0302403
0.0305762
0.0312316
0.0321511
0.0330849
0.0336576
0.033955
0.0343571
0.0352478
0.0365842
0.0375844
0.0376443
0.0378481
0.0382562
0.0385398
0.0385794
0.0383719
0.0381663
0.0381997
0.0387212
0.0367648
0.0368999
0.0367
0.0365353
0.0365703
0.0367194
0.0368524
0.0369545
0.0370367
0.0371053
0.0371635
0.0371787
0.0371844
0.0371171
0.0370265
0.0368848
0.0367316
0.036623
0.0366492
0.0367619
0.0365322
0.0359928
0.0353398
0.0345595
0.033937
0.033982
0.0348584
0.0359069
0.0364204
0.0364619
0.04431
0.038973
0.0380366
0.041274
0.0447518
0.0493482
0.0521537
0.0525011
0.052022
0.0514166
0.0508621
0.0503358
0.0500698
0.0499362
0.0500454
0.0503183
0.0506939
0.050888
0.0506802
0.049567
0.0474165
0.0452277
0.0446543
0.0455499
0.0462061
0.0461747
0.0476976
0.0482312
0.0469034
0.0472079
0.0240819
0.0246777
0.0257281
0.0266556
0.0272561
0.0275452
0.0276084
0.0276288
0.0277829
0.0280186
0.0277854
0.0272895
0.0275016
0.028779
0.0248032
0.0247733
0.0251161
0.025952
0.0270048
0.0277899
0.0280452
0.0279222
0.0275179
0.0272158
0.0272982
0.0273798
0.0270285
0.0261511
0.0258668
0.0260149
0.026164
0.0261864
0.0261293
0.0260821
0.0260801
0.0261292
0.0261641
0.0260836
0.0258403
0.0255553
0.0254189
0.0255843
0.0260266
0.0260583
0.0303711
0.0309833
0.0307859
0.0306737
0.0307655
0.0307031
0.0299835
0.028966
0.0282938
0.0279129
0.0277207
0.0281415
0.0289371
0.0293586
0.0293787
0.0291615
0.0288753
0.0286422
0.0285168
0.0284755
0.0285261
0.0286487
0.0288336
0.0290234
0.0291679
0.0292205
0.0291767
0.0291326
0.0293149
0.0298197
0.0309114
0.0308632
0.031027
0.0311426
0.0309908
0.0308135
0.0307965
0.030835
0.0307271
0.0301648
0.0296076
0.0296264
0.0301759
0.0302035
0.0299486
0.029622
0.0293578
0.0291487
0.0290354
0.0290245
0.0290998
0.0292355
0.0294338
0.0296492
0.0298502
0.0300316
0.0301991
0.0303693
0.0305399
0.0306515
0.0321454
0.0320304
0.0319532
0.0313108
0.0312749
0.0313694
0.0313498
0.0312073
0.0309537
0.0306544
0.0303835
0.0301753
0.0300366
0.029967
0.0299785
0.0300613
0.0302277
0.0304585
0.0307235
0.0309915
0.0312466
0.0315071
0.0317641
0.0319265
0.0319564
0.0317848
0.0315611
0.0310058
0.0318297
0.0324638
0.0356508
0.0360296
0.0367333
0.037183
0.0373991
0.0374284
0.0371588
0.0365777
0.0361639
0.0361129
0.0360574
0.035847
0.0355622
0.0353979
0.0353991
0.0355285
0.0357201
0.0359162
0.0360879
0.0362071
0.0362475
0.036211
0.0360728
0.0358749
0.0357012
0.035611
0.0356185
0.0356457
0.0355715
0.0353522
0.0329545
0.0351446
0.037274
0.0378334
0.0372404
0.0360927
0.0350199
0.0345195
0.0335791
0.0323383
0.0318506
0.0317704
0.0318588
0.0320296
0.0322802
0.032568
0.032868
0.0331015
0.0332479
0.0332646
0.0331514
0.0329479
0.0327366
0.0325207
0.032446
0.0324477
0.0323726
0.0318827
0.030126
0.0285659
0.0350862
0.0382079
0.0369039
0.0366556
0.0364885
0.0364329
0.0365962
0.0368964
0.0372243
0.0375284
0.0377895
0.0379994
0.0381395
0.0382098
0.0381975
0.0380931
0.0378923
0.0376072
0.0373053
0.0371456
0.0372563
0.0373288
0.0369577
0.0360696
0.035073
0.0344566
0.0345029
0.0345301
0.0344707
0.0351458
0.0348059
0.0348251
0.0340581
0.0332646
0.032651
0.0319553
0.0311719
0.0304559
0.0298376
0.029397
0.0290972
0.0289703
0.0290031
0.0292193
0.0296384
0.0302044
0.0308756
0.0315265
0.0319783
0.0330041
0.0353936
0.0375582
0.0381977
0.0373559
0.0360552
0.0353871
0.0350144
0.0348744
0.0355163
0.0373859
0.0333876
0.0339731
0.034994
0.034853
0.0340209
0.0330879
0.0323182
0.0316109
0.0309722
0.0304125
0.0299958
0.0297136
0.0295632
0.0295739
0.0297064
0.0299629
0.0303638
0.0308977
0.031535
0.0320623
0.0323693
0.0330907
0.0348057
0.0360751
0.0358427
0.0355339
0.0359921
0.036505
0.036848
0.0370267
0.0350927
0.035583
0.0353819
0.0346224
0.0335823
0.0323814
0.0311884
0.0301517
0.0293685
0.0288761
0.0287627
0.0290366
0.0296828
0.0307082
0.0319367
0.0329753
0.0335343
0.0338124
0.0343982
0.0358303
0.03735
0.0374858
0.0378125
0.0383553
0.038676
0.0387224
0.0385444
0.0383947
0.0385191
0.0389409
0.0368159
0.0368848
0.0366471
0.036567
0.0366987
0.0368954
0.0370694
0.0372121
0.0373311
0.037428
0.0374865
0.0375279
0.0375444
0.0375116
0.0374377
0.037273
0.0370386
0.0367521
0.0365632
0.0366229
0.0366339
0.0361877
0.0354471
0.0344839
0.0335648
0.0335373
0.0343064
0.0355605
0.036311
0.0364562
0.04478
0.039722
0.0398541
0.0448166
0.0483744
0.0514831
0.052494
0.0521422
0.0513566
0.0504369
0.0495494
0.0487524
0.0481488
0.0478863
0.0479751
0.0484774
0.0492715
0.0501224
0.0507649
0.0507988
0.0495336
0.0466533
0.044442
0.0453853
0.0476777
0.0472619
0.0457009
0.0458552
0.0460183
0.047917
0.0245179
0.025547
0.0266562
0.0274794
0.0279409
0.0280596
0.027899
0.0276557
0.0276466
0.0279297
0.0281256
0.0276232
0.0275525
0.02872
0.0248034
0.024734
0.0248995
0.0254254
0.0262254
0.0269725
0.0272375
0.0269733
0.0263589
0.0261452
0.0266093
0.0270823
0.0267718
0.0259536
0.0260193
0.0262176
0.0261818
0.0259818
0.0258426
0.025804
0.0258049
0.0258627
0.0259945
0.0261024
0.0259821
0.0256722
0.0254129
0.0254897
0.0259479
0.026083
0.0303193
0.031068
0.0310913
0.0312435
0.0315567
0.0314392
0.0301406
0.0288703
0.0280739
0.0276932
0.0278045
0.0287238
0.0294373
0.0294251
0.0290555
0.0286102
0.0283029
0.028146
0.0280813
0.0280708
0.0281004
0.0282257
0.0284321
0.0287106
0.0289723
0.0291309
0.0291364
0.0290894
0.0292412
0.0298029
0.0309188
0.0309103
0.0311161
0.0311932
0.0309237
0.0306902
0.0306846
0.0308257
0.0307721
0.030111
0.0295318
0.0297696
0.0302171
0.0299538
0.0295399
0.0291723
0.0288854
0.0286819
0.0285561
0.0285347
0.0286012
0.0287411
0.0289672
0.0292471
0.029539
0.0298024
0.0300288
0.0302402
0.0304522
0.0306148
0.0321574
0.0320185
0.0315358
0.0312056
0.031371
0.0314104
0.0312844
0.0310134
0.0306704
0.030308
0.0300135
0.0298159
0.0297171
0.0296658
0.029653
0.029696
0.0298253
0.0300665
0.0303794
0.0307108
0.0310226
0.031323
0.0316252
0.0318615
0.031938
0.0318457
0.0317066
0.0313091
0.0324082
0.0330758
0.0356439
0.03597
0.0367275
0.0372636
0.0374826
0.037486
0.0371342
0.0364114
0.0360591
0.0360432
0.0359545
0.0356933
0.0354082
0.035307
0.0353893
0.0355984
0.0358701
0.0361101
0.036335
0.0364821
0.0365625
0.0365423
0.0363888
0.036145
0.0358736
0.0356722
0.0355967
0.0356075
0.0355639
0.0353628
0.0329349
0.0351783
0.0376091
0.0385241
0.0381939
0.0367349
0.0351973
0.0346562
0.033777
0.0324005
0.0318301
0.0317526
0.0318699
0.0320863
0.0324018
0.0327702
0.0331834
0.0335052
0.0337216
0.0337683
0.033622
0.0333338
0.0330008
0.0326783
0.0325003
0.0324287
0.0323554
0.031999
0.0304386
0.0286865
0.0356904
0.0379897
0.0369933
0.0369678
0.0365673
0.0364351
0.0366589
0.0370376
0.0374194
0.0377668
0.0380592
0.038302
0.0384643
0.0385386
0.038529
0.0384275
0.0382262
0.0379241
0.0375509
0.0372471
0.0372026
0.0373323
0.0372122
0.0366289
0.0356836
0.034862
0.0346489
0.0345603
0.0344399
0.0349323
0.0354232
0.034709
0.0336397
0.0330714
0.0324568
0.0315974
0.0306719
0.0299143
0.0292789
0.0288266
0.0285435
0.0283715
0.0283729
0.0285443
0.0289389
0.0295277
0.0302725
0.0310587
0.0316494
0.0324297
0.0342771
0.0365031
0.0375142
0.036766
0.0355476
0.0350514
0.0348299
0.0346106
0.0351356
0.0370577
0.0335344
0.0348072
0.0352919
0.0346416
0.0335467
0.0326522
0.0318662
0.0310835
0.0303489
0.0297463
0.0292949
0.0290435
0.0289581
0.0289632
0.0290846
0.0293227
0.0297234
0.0302789
0.0309687
0.0316307
0.0320936
0.0327556
0.0343335
0.0358579
0.0357681
0.0356462
0.0362928
0.0368194
0.0370157
0.0370914
0.0357109
0.0359033
0.0352303
0.03428
0.0331469
0.0317634
0.0304609
0.0292674
0.0284178
0.0279461
0.0277495
0.0279313
0.0284615
0.0294702
0.0307956
0.0321467
0.0330648
0.0334763
0.0339379
0.0354438
0.0372321
0.0373205
0.0376916
0.0382424
0.0386621
0.0388984
0.0390122
0.0390756
0.0391569
0.0392574
0.0368286
0.0368782
0.0366516
0.0366364
0.0368307
0.0370603
0.0372662
0.037418
0.0375077
0.0375261
0.0375195
0.0375182
0.037552
0.0376114
0.0376542
0.0375838
0.0373755
0.0370434
0.0366808
0.0364876
0.0366783
0.0364737
0.0357223
0.03473
0.0336377
0.0335367
0.0342334
0.0354505
0.0362352
0.0364408
0.0453982
0.0408296
0.0415672
0.0476324
0.0506127
0.0522837
0.0524731
0.0516722
0.0505931
0.0492865
0.0480583
0.0468229
0.0459729
0.045453
0.0455902
0.0463367
0.0475229
0.0487963
0.0499132
0.0506814
0.0508141
0.0490422
0.0447628
0.0434326
0.0479364
0.0508493
0.0483586
0.0468496
0.0478395
0.0505877
0.025209
0.0263261
0.0274669
0.028274
0.0286415
0.0286611
0.0284255
0.027965
0.0276434
0.0277923
0.0281788
0.0278758
0.0276553
0.0287375
0.0248098
0.0247131
0.0247503
0.0249365
0.0253163
0.0257922
0.0259477
0.0256559
0.0251106
0.0251808
0.0260815
0.0268774
0.0265441
0.0258814
0.0262054
0.0262687
0.0259423
0.025705
0.0257268
0.0258257
0.0258553
0.0258194
0.0258693
0.0260253
0.026014
0.0257264
0.0254077
0.0254451
0.0259389
0.0260939
0.0302105
0.0311394
0.0313454
0.0316297
0.0318173
0.0312566
0.0297366
0.0284419
0.0276944
0.0275216
0.0281701
0.0293684
0.0295653
0.0291134
0.0285381
0.028197
0.0280424
0.0279994
0.0279928
0.0279911
0.0279976
0.0280448
0.0281948
0.0284676
0.0287836
0.029012
0.0290714
0.0290359
0.0292096
0.0298427
0.0309324
0.0309352
0.0311747
0.0312475
0.0309471
0.0306849
0.0306142
0.0308209
0.030808
0.0300199
0.0294793
0.0299667
0.030153
0.0296755
0.029245
0.0288969
0.0286061
0.0283982
0.0282817
0.0282534
0.0282931
0.0284098
0.0286206
0.0289202
0.0292647
0.029593
0.0298774
0.0301322
0.030381
0.0305849
0.0321661
0.0318901
0.0312076
0.0313284
0.0314311
0.0313999
0.0311973
0.0308719
0.0304873
0.0300855
0.0298392
0.0296807
0.0296327
0.029621
0.0296093
0.0296051
0.0296438
0.0298168
0.0301228
0.0304895
0.0308446
0.0311746
0.031504
0.0317919
0.0319158
0.0318824
0.031738
0.031811
0.033293
0.0338984
0.0356444
0.0358402
0.0365482
0.0371344
0.0373791
0.0373015
0.0367563
0.036163
0.0359703
0.0359873
0.0358489
0.0355581
0.0352911
0.03523
0.0353599
0.0356277
0.0359458
0.0362179
0.036465
0.036646
0.0367412
0.0367473
0.0366183
0.0363586
0.036037
0.035753
0.0356023
0.0355787
0.0355465
0.0353578
0.0328682
0.0349711
0.0376306
0.0388222
0.0388693
0.0374409
0.0354703
0.0348065
0.034128
0.0326442
0.031854
0.0317362
0.0318546
0.0320904
0.0324372
0.0328709
0.0333568
0.0337384
0.0340198
0.0340657
0.033907
0.0335907
0.0331987
0.0328252
0.0325779
0.032429
0.0323205
0.0319835
0.0304797
0.0287431
0.0364562
0.0375627
0.0375416
0.0373604
0.0366498
0.0364358
0.0367015
0.0371338
0.0375418
0.0379121
0.0382202
0.0384866
0.0386579
0.0387504
0.0387505
0.0386447
0.038454
0.0381548
0.0377699
0.037379
0.0372049
0.0372917
0.0373001
0.036954
0.0361659
0.0352625
0.0348621
0.0346238
0.0345081
0.0348433
0.0354721
0.0344062
0.0335516
0.0330862
0.0323517
0.0313601
0.030395
0.0296498
0.0289877
0.028562
0.0282263
0.0280826
0.0280423
0.0281642
0.0284995
0.0290621
0.0298082
0.030677
0.0313748
0.032068
0.0335111
0.0354247
0.0364273
0.0358336
0.0349551
0.0348037
0.034776
0.0345151
0.0349575
0.0368862
0.0340491
0.0354215
0.0353342
0.0343549
0.033213
0.0323729
0.0315376
0.0306614
0.0299007
0.029284
0.0289232
0.0287377
0.0286894
0.0286974
0.0287787
0.0289463
0.0292924
0.0298289
0.0305389
0.0312831
0.0318499
0.0325297
0.0340546
0.0356456
0.0356509
0.0357696
0.0366485
0.0371505
0.0372248
0.037163
0.0366184
0.0361524
0.0350627
0.0341294
0.0329314
0.0313708
0.0299805
0.0286133
0.0278518
0.0273119
0.0270979
0.0272323
0.0277228
0.0286109
0.0299346
0.0314025
0.0325804
0.0332037
0.0337068
0.0354445
0.0371925
0.037158
0.037357
0.0375968
0.0377346
0.0378163
0.0378936
0.0380089
0.0382417
0.0386373
0.0368104
0.0369216
0.0366858
0.0367081
0.0369339
0.0371852
0.0373866
0.0374996
0.0374946
0.0373941
0.037273
0.0372194
0.0372639
0.0374096
0.0375746
0.0376663
0.0375975
0.0373072
0.0369022
0.0364855
0.0366067
0.0367435
0.0361515
0.0351387
0.0341624
0.0338643
0.034507
0.0355128
0.0362039
0.0364294
0.0460938
0.0423075
0.0421523
0.049298
0.051643
0.0524801
0.0522123
0.0511678
0.0498138
0.0482349
0.0465821
0.0450349
0.0436814
0.0430492
0.0431994
0.0442757
0.0459396
0.0477061
0.0491429
0.0500435
0.0506374
0.0506168
0.0471561
0.0419734
0.0436212
0.051251
0.052846
0.0515193
0.0516925
0.0528906
0.0256715
0.0269983
0.0282567
0.0289395
0.02901
0.0288344
0.0286671
0.0282847
0.0277947
0.0278075
0.0281912
0.0279647
0.0277666
0.0288607
0.0247916
0.0247025
0.0246591
0.0246278
0.02463
0.0247218
0.0246334
0.0243569
0.0241476
0.0245375
0.0257923
0.0267736
0.0263611
0.0258763
0.0263473
0.0261194
0.0256662
0.0256525
0.0258785
0.0260618
0.0260915
0.0259675
0.0258789
0.0259884
0.0259886
0.0256884
0.0253748
0.0254596
0.0259675
0.0261029
0.0299339
0.0311079
0.0314704
0.0317255
0.0316786
0.0305721
0.0290087
0.0278367
0.027346
0.0275707
0.0287898
0.0296699
0.0293785
0.0287291
0.0282531
0.0280589
0.0279978
0.0280143
0.0280347
0.0280397
0.0280198
0.0280167
0.0281036
0.0283512
0.0286793
0.0289243
0.0289928
0.0289937
0.0292774
0.0299249
0.0309491
0.0309553
0.0311895
0.0313123
0.0310806
0.0307689
0.0306005
0.0308426
0.0308243
0.0299182
0.0294896
0.030065
0.0300181
0.0295117
0.0291341
0.0287856
0.0284632
0.0282648
0.0281616
0.028135
0.0281538
0.0282465
0.0284328
0.0287172
0.0290791
0.0294415
0.0297682
0.0300595
0.0303465
0.0305614
0.0321715
0.0316855
0.0311262
0.0313953
0.0314655
0.0313924
0.0311681
0.030825
0.0304047
0.0300021
0.0297894
0.0296679
0.0296447
0.0296417
0.029639
0.0296102
0.0296
0.0297107
0.0299835
0.0303571
0.0307331
0.031078
0.0314227
0.031734
0.0319014
0.0319134
0.0316779
0.0325377
0.0343264
0.0347971
0.0356427
0.0357047
0.0362341
0.0367514
0.0369767
0.0367688
0.0362725
0.0359483
0.0359287
0.0359152
0.0357473
0.0354535
0.035191
0.0351352
0.0352853
0.0355855
0.0359354
0.0362233
0.0365023
0.0367013
0.0368109
0.036811
0.0367135
0.036475
0.0361231
0.0358058
0.0356111
0.0355613
0.0355228
0.0353564
0.0328062
0.0344886
0.0371212
0.0387169
0.0390928
0.0380962
0.0359154
0.0349421
0.0345482
0.0330961
0.0319753
0.0317333
0.0318265
0.0320413
0.0323782
0.0328355
0.0333321
0.0337325
0.0340403
0.0341315
0.0339495
0.0336287
0.0332622
0.0328707
0.0325981
0.0324111
0.0322681
0.0319156
0.0303276
0.0287471
0.0371027
0.0376636
0.0383371
0.0378603
0.0367791
0.0364316
0.036696
0.0371567
0.0375766
0.0379585
0.0382822
0.0385637
0.0387546
0.0388696
0.0388584
0.0387516
0.0385769
0.0382856
0.0378936
0.0374878
0.0372317
0.0372608
0.0373231
0.0371119
0.036503
0.0356343
0.0350108
0.0347358
0.0347126
0.0350547
0.0354082
0.0344743
0.0336677
0.0331578
0.0323746
0.0313255
0.0303638
0.0295933
0.0289319
0.0284764
0.0281291
0.0279562
0.0279316
0.0280199
0.028304
0.0288009
0.0295699
0.0304211
0.0311988
0.0318487
0.0329727
0.0345138
0.035287
0.0348252
0.0345195
0.0347848
0.0348319
0.0345238
0.0348848
0.0368526
0.0348232
0.0356946
0.0353349
0.0341723
0.033037
0.0322382
0.0313535
0.0304436
0.0296546
0.0291089
0.0287631
0.0286468
0.0286074
0.0286179
0.0286653
0.0288038
0.0290776
0.0295567
0.0302944
0.0310643
0.0316738
0.0324225
0.033959
0.0355044
0.0355117
0.0360647
0.0371154
0.0374103
0.0373508
0.0372421
0.0371734
0.0361893
0.0349751
0.0341605
0.0329114
0.0311949
0.0297392
0.0282719
0.0275699
0.026935
0.0267712
0.0269274
0.0273565
0.0281821
0.0294707
0.0309398
0.0322313
0.0329822
0.033601
0.0357675
0.0371694
0.0369945
0.0369987
0.0369594
0.0368564
0.0367812
0.036746
0.0367223
0.0367707
0.036855
0.0367313
0.0369624
0.0367697
0.0367512
0.0369788
0.0372412
0.0374389
0.0375078
0.0374194
0.0372089
0.0369945
0.0369048
0.0369465
0.0371311