/*--------------------------------*- C++ -*----------------------------------*\
| =========                 |                                                 |
| \\      /  F ield         | OpenFOAM: The Open Source CFD Toolbox           |
|  \\    /   O peration     | Version:  2.1.1                                 |
|   \\  /    A nd           | Web:      www.OpenFOAM.org                      |
|    \\/     M anipulation  |                                                 |
\*---------------------------------------------------------------------------*/
FoamFile
{
    version     2.0;
    format      ascii;
    class       volScalarField;
    location    "0.007700000";
    object      N2;
}
// * * * * * * * * * * * * * * * * * * * * * * * * * * * * * * * * * * * * * //

dimensions      [0 0 0 0 0 0 0];

internalField   nonuniform List<scalar> 
12384
(
0.745981
0.746218
0.746496
0.746714
0.746846
0.746857
0.74678
0.746634
0.746434
0.746175
0.745845
0.745466
0.745159
0.744709
0.748016
0.748041
0.747764
0.747239
0.746769
0.746411
0.746207
0.746113
0.746058
0.746058
0.746095
0.746162
0.746263
0.746398
0.746564
0.746731
0.746886
0.747008
0.747087
0.747134
0.747153
0.747143
0.747127
0.7471
0.747064
0.747012
0.746934
0.746835
0.747416
0.748596
0.74395
0.743408
0.7436
0.743901
0.744104
0.744275
0.744436
0.744588
0.744701
0.74478
0.744846
0.744911
0.744972
0.744995
0.74498
0.744957
0.744895
0.74484
0.744787
0.744752
0.744707
0.744685
0.744653
0.744636
0.744618
0.744608
0.74453
0.744236
0.744426
0.744591
0.743379
0.743435
0.74359
0.743618
0.74364
0.743651
0.743686
0.743716
0.743755
0.743788
0.743812
0.743827
0.743836
0.74384
0.743826
0.743804
0.743786
0.743767
0.74375
0.743727
0.743712
0.743692
0.743665
0.743623
0.743571
0.743512
0.743468
0.743466
0.743499
0.743539
0.742388
0.74232
0.74224
0.742201
0.742188
0.742254
0.742339
0.74242
0.742478
0.742511
0.742527
0.742532
0.742537
0.742538
0.742541
0.742532
0.742524
0.742522
0.742516
0.742516
0.742495
0.742467
0.742552
0.742386
0.74234
0.742382
0.742455
0.742476
0.742451
0.742456
0.739696
0.739751
0.739452
0.739266
0.739222
0.73921
0.739202
0.739204
0.73921
0.739229
0.739241
0.739265
0.739289
0.739321
0.739353
0.739391
0.739421
0.739447
0.739473
0.739489
0.739498
0.739504
0.739502
0.739509
0.739516
0.739564
0.739667
0.739824
0.740044
0.740185
0.742056
0.741749
0.741118
0.740708
0.740559
0.740531
0.740564
0.740658
0.740789
0.740965
0.74115
0.741321
0.74147
0.741587
0.741671
0.741727
0.741731
0.741795
0.741756
0.741786
0.741795
0.74178
0.741816
0.741867
0.74198
0.742382
0.744809
0.745796
0.745525
0.745316
0.739838
0.738822
0.738389
0.73816
0.738186
0.738325
0.738449
0.738548
0.738612
0.738638
0.738641
0.738631
0.738613
0.73858
0.738552
0.738516
0.73847
0.738395
0.738268
0.738253
0.739212
0.740124
0.740136
0.740129
0.74011
0.7401
0.74005
0.739995
0.739982
0.740064
0.741443
0.741448
0.741406
0.741346
0.741335
0.741367
0.741429
0.7415
0.741569
0.741653
0.741676
0.741757
0.741808
0.741828
0.741849
0.741882
0.741948
0.741851
0.739334
0.737991
0.738133
0.738198
0.738282
0.738372
0.738464
0.738496
0.738406
0.738118
0.73749
0.736593
0.741388
0.7415
0.741438
0.741248
0.741055
0.740931
0.740897
0.740928
0.740983
0.741062
0.74115
0.741215
0.741275
0.741328
0.741372
0.741416
0.741476
0.741569
0.741763
0.741452
0.739623
0.739192
0.739164
0.739148
0.739146
0.739109
0.739043
0.738959
0.738827
0.73869
0.740722
0.740545
0.74033
0.740262
0.740277
0.740314
0.74038
0.740452
0.740503
0.740527
0.740532
0.740529
0.740558
0.740693
0.740904
0.739067
0.737608
0.737587
0.737779
0.737909
0.738013
0.738049
0.73805
0.738037
0.738018
0.738002
0.737986
0.737962
0.737916
0.737615
0.739377
0.739499
0.739361
0.738866
0.73899
0.739139
0.739121
0.739082
0.739016
0.738973
0.738895
0.738853
0.738777
0.738723
0.738664
0.738614
0.738565
0.738525
0.738511
0.73852
0.738561
0.738619
0.738661
0.738717
0.738722
0.738758
0.73882
0.738954
0.739061
0.739141
0.736851
0.737126
0.737516
0.737652
0.737408
0.736998
0.734767
0.728482
0.726776
0.726712
0.726793
0.726889
0.72703
0.727145
0.727335
0.727556
0.727815
0.72809
0.728316
0.728434
0.728374
0.728088
0.727683
0.727287
0.727061
0.727072
0.727199
0.72747
0.728512
0.730267
0.746608
0.747088
0.747597
0.747784
0.747748
0.747637
0.747489
0.747344
0.747169
0.746931
0.746546
0.745971
0.745343
0.744741
0.748034
0.748026
0.747649
0.746993
0.746347
0.745866
0.745626
0.745546
0.74555
0.745585
0.745691
0.745849
0.746088
0.746454
0.74686
0.747182
0.747371
0.747467
0.747508
0.747527
0.747546
0.747562
0.747555
0.747519
0.747425
0.747281
0.747118
0.746929
0.746984
0.74769
0.743866
0.743417
0.743714
0.744098
0.744443
0.744763
0.745021
0.745216
0.745357
0.745444
0.745508
0.745565
0.745575
0.745504
0.745374
0.745216
0.745068
0.744954
0.744878
0.744827
0.744782
0.744742
0.744708
0.744675
0.74466
0.744649
0.744625
0.744441
0.744225
0.744175
0.743374
0.743469
0.743558
0.743538
0.74352
0.743532
0.743581
0.743665
0.743788
0.74393
0.744044
0.744087
0.744061
0.743999
0.743935
0.743885
0.743855
0.743839
0.743827
0.743829
0.743825
0.743816
0.743789
0.743747
0.743688
0.743615
0.74354
0.74349
0.743485
0.743517
0.742399
0.74236
0.742284
0.742231
0.742366
0.742589
0.742766
0.742857
0.7429
0.742923
0.742936
0.742944
0.742943
0.74294
0.74293
0.742896
0.742848
0.742783
0.742703
0.742638
0.742586
0.742513
0.742537
0.742462
0.742364
0.742633
0.742945
0.742927
0.742652
0.742398
0.739722
0.739648
0.739309
0.739114
0.73904
0.739015
0.739032
0.739076
0.739124
0.739166
0.739201
0.739244
0.739321
0.73942
0.739525
0.73961
0.739671
0.73971
0.739731
0.739739
0.739733
0.739718
0.739685
0.739647
0.73961
0.739597
0.739633
0.739742
0.739912
0.740096
0.742012
0.741309
0.740315
0.739772
0.739745
0.739981
0.74025
0.740553
0.740933
0.741408
0.74181
0.742103
0.742284
0.742382
0.742429
0.742418
0.742408
0.742365
0.742345
0.742307
0.742248
0.74216
0.742064
0.741986
0.741997
0.742177
0.743237
0.744822
0.745585
0.745225
0.740057
0.738858
0.738206
0.738181
0.738602
0.738882
0.739016
0.739044
0.739015
0.738968
0.738916
0.73887
0.738837
0.738802
0.738767
0.738745
0.7387
0.738618
0.738459
0.738299
0.738611
0.739571
0.740243
0.740396
0.740451
0.740443
0.740331
0.740162
0.739896
0.739776
0.741426
0.7414
0.741186
0.741085
0.741175
0.741376
0.741617
0.741844
0.742047
0.742207
0.742312
0.742383
0.74239
0.742347
0.742261
0.742144
0.742071
0.742061
0.740898
0.738607
0.7379
0.737955
0.738072
0.738354
0.738714
0.738996
0.739112
0.738975
0.738347
0.736955
0.74137
0.741516
0.741385
0.740926
0.740644
0.740636
0.740786
0.741053
0.741336
0.741573
0.741767
0.741901
0.741978
0.742
0.741947
0.741861
0.741775
0.741731
0.741781
0.741758
0.740963
0.739705
0.739186
0.739221
0.739378
0.739349
0.73919
0.739045
0.738889
0.738701
0.740738
0.740563
0.740187
0.740117
0.74021
0.740424
0.74071
0.740998
0.741205
0.741325
0.741296
0.741145
0.740942
0.740833
0.740902
0.74043
0.739297
0.738274
0.73775
0.737946
0.738092
0.738152
0.73812
0.738052
0.737974
0.737916
0.7379
0.737911
0.737891
0.737588
0.739185
0.739104
0.73889
0.73891
0.739084
0.739105
0.739039
0.738964
0.738902
0.738846
0.738812
0.738782
0.738763
0.738735
0.738684
0.73864
0.738562
0.738497
0.73846
0.738537
0.738718
0.738988
0.739236
0.739398
0.739374
0.739204
0.739003
0.738975
0.739046
0.739126
0.734929
0.736689
0.738103
0.738217
0.7376
0.735625
0.730747
0.727267
0.72671
0.726816
0.727027
0.727264
0.727511
0.727745
0.72798
0.72829
0.728698
0.729261
0.729981
0.730711
0.731177
0.731109
0.730381
0.72938
0.728436
0.727577
0.72735
0.727515
0.728613
0.730383
0.747396
0.748013
0.748167
0.747975
0.747604
0.747221
0.746929
0.746738
0.746693
0.746714
0.746666
0.746385
0.745646
0.744816
0.748046
0.748028
0.747596
0.746821
0.746041
0.745549
0.745384
0.745348
0.745365
0.74543
0.745567
0.74577
0.746069
0.746595
0.747098
0.747348
0.747423
0.747395
0.747345
0.747312
0.74731
0.747353
0.74743
0.74752
0.747566
0.747519
0.747371
0.747125
0.746938
0.747299
0.743807
0.743407
0.743753
0.744155
0.744495
0.744788
0.745042
0.745281
0.745468
0.745568
0.745645
0.745704
0.745629
0.745367
0.745072
0.744856
0.744718
0.744656
0.744631
0.744626
0.744616
0.744615
0.744618
0.744635
0.744648
0.744663
0.744675
0.744606
0.744356
0.744123
0.743371
0.743471
0.743474
0.743383
0.74334
0.743368
0.743427
0.74352
0.743692
0.743965
0.744219
0.744278
0.744124
0.743965
0.743889
0.743874
0.743892
0.743922
0.743945
0.743949
0.743944
0.743933
0.743908
0.74387
0.743817
0.743747
0.743658
0.743572
0.743518
0.743521
0.742411
0.742423
0.742374
0.742379
0.742719
0.742914
0.74299
0.743017
0.743041
0.74308
0.743131
0.74318
0.743217
0.74324
0.743238
0.743203
0.743149
0.743066
0.742956
0.742839
0.742735
0.742615
0.742545
0.742526
0.742472
0.742883
0.743279
0.743338
0.743025
0.742653
0.739729
0.739542
0.739144
0.738922
0.738838
0.738847
0.738927
0.739037
0.739153
0.7392
0.739235
0.739323
0.739472
0.739631
0.739754
0.73982
0.739836
0.73982
0.739795
0.73977
0.739763
0.739772
0.739777
0.739763
0.73973
0.739682
0.739655
0.739705
0.73983
0.740028
0.741927
0.7408
0.739553
0.739184
0.739515
0.739965
0.740342
0.740704
0.741239
0.741921
0.742346
0.742551
0.742614
0.742612
0.742561
0.742473
0.742409
0.74233
0.742315
0.742291
0.742275
0.742283
0.742224
0.742149
0.742079
0.742125
0.742484
0.74365
0.745076
0.745356
0.740355
0.738939
0.73802
0.738671
0.739053
0.739157
0.739126
0.739026
0.738901
0.738771
0.738651
0.738557
0.738501
0.738478
0.738482
0.738532
0.73861
0.738666
0.738632
0.738455
0.738412
0.73888
0.739782
0.740392
0.740674
0.740685
0.740582
0.740478
0.740204
0.739738
0.741396
0.741129
0.740859
0.740981
0.741339
0.741736
0.742135
0.742478
0.742794
0.743028
0.743188
0.743247
0.743219
0.743109
0.742921
0.74267
0.7424
0.742266
0.741788
0.739933
0.738102
0.737713
0.737776
0.738244
0.738859
0.739307
0.739555
0.739468
0.739006
0.737523
0.741354
0.741506
0.741121
0.740565
0.740506
0.740781
0.741256
0.741727
0.742111
0.742441
0.742672
0.742845
0.74293
0.742938
0.742847
0.742679
0.742439
0.742166
0.741978
0.741941
0.741671
0.740609
0.73943
0.739246
0.739585
0.739664
0.739398
0.739096
0.738902
0.738711
0.740697
0.74029
0.740046
0.740089
0.740398
0.740901
0.741455
0.741961
0.742343
0.74254
0.742533
0.742308
0.741885
0.741396
0.741094
0.740927
0.740516
0.739818
0.738942
0.738248
0.738079
0.738139
0.738058
0.737878
0.737707
0.737632
0.737701
0.737837
0.737853
0.737503
0.738983
0.738827
0.738851
0.739019
0.739089
0.739025
0.738946
0.738878
0.738839
0.738828
0.738825
0.738841
0.738842
0.738882
0.738887
0.738922
0.738893
0.738855
0.738771
0.73879
0.739048
0.739447
0.739843
0.740214
0.740395
0.740194
0.739646
0.739193
0.739068
0.739115
0.733549
0.737037
0.738499
0.737591
0.735879
0.732236
0.728084
0.72681
0.726831
0.727115
0.727426
0.727682
0.727839
0.727922
0.727957
0.728003
0.728144
0.72853
0.729317
0.730536
0.731843
0.732452
0.732389
0.731692
0.730897
0.729464
0.728066
0.728029
0.729503
0.730715
0.748318
0.748385
0.748019
0.747395
0.746834
0.746433
0.746185
0.74602
0.745905
0.745986
0.746272
0.746365
0.745913
0.744907
0.748055
0.748051
0.747658
0.746877
0.746037
0.745514
0.745354
0.745364
0.745463
0.745616
0.745717
0.745861
0.74617
0.746799
0.74723
0.747288
0.747207
0.747111
0.74705
0.747021
0.747008
0.747029
0.747104
0.747258
0.747441
0.747564
0.747533
0.747324
0.747025
0.747142
0.743783
0.743371
0.743664
0.743958
0.74414
0.744308
0.744606
0.745057
0.745395
0.745586
0.74574
0.745705
0.74536
0.744915
0.744654
0.744573
0.744602
0.744676
0.744747
0.744776
0.744769
0.744722
0.744679
0.744642
0.744634
0.744656
0.744695
0.744692
0.744501
0.744169
0.743371
0.743444
0.743373
0.743262
0.743269
0.743345
0.743397
0.743438
0.743575
0.743948
0.744328
0.744372
0.744057
0.743883
0.743908
0.744014
0.744151
0.744263
0.744329
0.744339
0.7443
0.74423
0.744147
0.744059
0.743975
0.743887
0.743786
0.743678
0.743582
0.743541
0.742417
0.742478
0.74242
0.742758
0.742997
0.743044
0.743034
0.743053
0.743136
0.74327
0.743413
0.743535
0.743623
0.743663
0.743656
0.743604
0.743505
0.743376
0.743228
0.74307
0.74292
0.742759
0.742612
0.742552
0.742537
0.742779
0.743119
0.743376
0.742932
0.74252
0.739728
0.739467
0.738997
0.73872
0.738603
0.738617
0.738751
0.73901
0.739247
0.739302
0.739332
0.739455
0.739648
0.73981
0.739884
0.739871
0.739801
0.73971
0.739627
0.739567
0.739557
0.739586
0.739656
0.739729
0.739768
0.739754
0.739712
0.739709
0.739801
0.739982
0.741848
0.74038
0.738958
0.738666
0.739145
0.739762
0.740297
0.74067
0.741334
0.742173
0.742556
0.742673
0.742655
0.742575
0.742444
0.742292
0.742145
0.742031
0.741969
0.741964
0.742012
0.742099
0.742161
0.742211
0.742166
0.742149
0.742273
0.742926
0.744441
0.745291
0.74036
0.738344
0.738397
0.739003
0.739143
0.739153
0.739063
0.738896
0.738706
0.73852
0.738355
0.738224
0.738139
0.738102
0.738117
0.73819
0.738323
0.738491
0.738618
0.738583
0.738428
0.738534
0.739138
0.739954
0.740562
0.740752
0.740631
0.740586
0.74049
0.739906
0.741189
0.740634
0.740728
0.741207
0.741723
0.742201
0.742686
0.743149
0.743552
0.74387
0.744049
0.744144
0.744098
0.743936
0.74366
0.743299
0.74288
0.742549
0.742245
0.741043
0.738936
0.73779
0.737684
0.738267
0.739125
0.73964
0.739961
0.739962
0.739474
0.738026
0.741402
0.741399
0.740666
0.740356
0.740645
0.741242
0.741842
0.742335
0.74277
0.743128
0.743422
0.743616
0.743705
0.743712
0.74364
0.743455
0.743158
0.742778
0.742398
0.742172
0.742006
0.741284
0.739907
0.739274
0.739608
0.739818
0.739523
0.739128
0.738866
0.738699
0.740581
0.740098
0.739952
0.740227
0.740833
0.741585
0.74236
0.743043
0.743565
0.743845
0.743886
0.743627
0.743121
0.742414
0.741698
0.741259
0.741032
0.740723
0.740041
0.739017
0.738251
0.738205
0.738048
0.737736
0.737518
0.737488
0.737647
0.737805
0.737779
0.73738
0.738879
0.738775
0.738928
0.739054
0.739028
0.738913
0.738811
0.738733
0.73867
0.738618
0.738573
0.738561
0.738557
0.738609
0.738678
0.738787
0.738904
0.738987
0.738967
0.738881
0.739057
0.73947
0.73997
0.740568
0.741045
0.741011
0.740339
0.739536
0.739142
0.739111
0.733094
0.737187
0.737904
0.735423
0.732754
0.729227
0.727073
0.726807
0.727174
0.727639
0.728065
0.728469
0.728673
0.728776
0.728692
0.728482
0.728194
0.728045
0.728204
0.729059
0.73071
0.732389
0.732829
0.732142
0.731639
0.731663
0.730495
0.730085
0.731104
0.73087
0.748607
0.748152
0.747346
0.746633
0.746176
0.745956
0.745908
0.745892
0.745775
0.745594
0.745773
0.746151
0.745989
0.745011
0.748056
0.748078
0.747816
0.747173
0.746367
0.745769
0.745574
0.745668
0.745977
0.746207
0.746144
0.746082
0.746349
0.74702
0.747239
0.747125
0.74701
0.746993
0.747037
0.747073
0.747075
0.747037
0.74701
0.747072
0.747259
0.747479
0.747584
0.747456
0.747116
0.747092
0.743785
0.743313
0.743465
0.743551
0.743481
0.743529
0.744083
0.744867
0.745383
0.745675
0.745822
0.7455
0.74489
0.744565
0.74455
0.744717
0.744937
0.745116
0.745212
0.745244
0.745205
0.745111
0.744969
0.744823
0.744712
0.744672
0.744705
0.744739
0.744599
0.74421
0.743368
0.743405
0.743279
0.74319
0.743307
0.743444
0.743457
0.743427
0.74351
0.743944
0.744373
0.744359
0.743935
0.743914
0.74411
0.744362
0.744566
0.744727
0.744814
0.744823
0.744765
0.74466
0.744507
0.744341
0.744186
0.744046
0.743917
0.743786
0.743655
0.743569
0.742418
0.742506
0.742566
0.74306
0.743088
0.743015
0.74303
0.74314
0.743336
0.743566
0.743775
0.743936
0.744043
0.744096
0.744087
0.744024
0.743895
0.743717
0.743513
0.743306
0.74311
0.742909
0.742711
0.742586
0.742563
0.742695
0.742867
0.743295
0.74266
0.742174
0.739732
0.739442
0.738903
0.738558
0.738392
0.73837
0.738577
0.739022
0.739339
0.739378
0.739421
0.739582
0.7398
0.739926
0.739925
0.739826
0.739679
0.739529
0.739397
0.739306
0.739275
0.739303
0.739409
0.73956
0.739694
0.739763
0.739757
0.739736
0.739793
0.739961
0.741798
0.74012
0.738488
0.73806
0.738514
0.739393
0.740215
0.740599
0.74132
0.74227
0.742644
0.742706
0.742638
0.742507
0.742315
0.742094
0.741865
0.741686
0.741573
0.741561
0.741647
0.741803
0.741965
0.742131
0.742188
0.742187
0.742244
0.74262
0.743974
0.745174
0.740165
0.737773
0.738772
0.738962
0.73909
0.739133
0.739008
0.738778
0.738526
0.738293
0.738093
0.737933
0.737825
0.737771
0.737781
0.737861
0.738015
0.738233
0.738464
0.738587
0.738502
0.738446
0.738731
0.739411
0.740175
0.740647
0.740612
0.740591
0.740636
0.740119
0.740379
0.740365
0.740953
0.741561
0.742031
0.742564
0.743167
0.743719
0.744196
0.744536
0.744767
0.744864
0.744839
0.744673
0.74435
0.743913
0.743396
0.742894
0.742546
0.74176
0.739929
0.738271
0.737781
0.738426
0.739422
0.739934
0.74022
0.740327
0.739835
0.738403
0.741466
0.741018
0.740235
0.740343
0.740981
0.741696
0.742286
0.742829
0.743321
0.743753
0.744074
0.744292
0.744407
0.744399
0.744297
0.744099
0.74379
0.743379
0.742887
0.742482
0.742247
0.741694
0.74038
0.739407
0.739585
0.739822
0.739471
0.739078
0.738815
0.738678
0.74016
0.739784
0.739938
0.74052
0.741317
0.742237
0.743155
0.743954
0.744558
0.744936
0.745023
0.744813
0.744315
0.743525
0.742578
0.741782
0.741354
0.741141
0.740692
0.739595
0.73843
0.738326
0.738076
0.73766
0.737414
0.737379
0.737515
0.73763
0.737534
0.737211
0.738839
0.738787
0.738969
0.73903
0.738929
0.738778
0.738645
0.738536
0.738445
0.73837
0.738326
0.738294
0.738281
0.738306
0.738363
0.738489
0.738669
0.738888
0.739033
0.738987
0.738979
0.739321
0.739888
0.740626
0.741331
0.741352
0.740762
0.739801
0.739226
0.739115
0.732733
0.736613
0.736512
0.732705
0.729975
0.727588
0.726812
0.727082
0.727685
0.728391
0.729073
0.729685
0.730149
0.73035
0.730282
0.729896
0.729286
0.728633
0.728139
0.728113
0.729085
0.731296
0.732992
0.732269
0.73051
0.730829
0.732026
0.731908
0.731783
0.730326
0.748274
0.747485
0.746633
0.746006
0.745654
0.745563
0.745686
0.745872
0.745879
0.745662
0.745512
0.745897
0.74595
0.745056
0.748055
0.748108
0.747982
0.747579
0.746963
0.746392
0.74619
0.746392
0.74686
0.747025
0.746669
0.746308
0.746545
0.747172
0.747122
0.746969
0.746996
0.74715
0.747258
0.747287
0.747287
0.747242
0.747141
0.747058
0.74715
0.747389
0.747588
0.747529
0.747177
0.747072
0.743825
0.743247
0.743229
0.743112
0.742871
0.742961
0.743962
0.744941
0.745552
0.745843
0.745758
0.745053
0.744505
0.744514
0.744799
0.74514
0.745376
0.745496
0.745546
0.745554
0.745531
0.745435
0.745277
0.745063
0.744863
0.744741
0.744737
0.744773
0.744656
0.744223
0.743362
0.743369
0.74321
0.743151
0.743359
0.743539
0.743543
0.743434
0.743476
0.743985
0.744432
0.744248
0.743903
0.744106
0.744425
0.744709
0.744929
0.745085
0.745182
0.745198
0.745147
0.74504
0.744866
0.744651
0.744426
0.744223
0.744049
0.743886
0.743722
0.743597
0.742409
0.742516
0.742887
0.743141
0.743014
0.742983
0.743081
0.74329
0.743554
0.743833
0.74406
0.744213
0.744289
0.744328
0.744338
0.744305
0.744205
0.744019
0.743778
0.743523
0.743282
0.743051
0.742818
0.742636
0.742577
0.742648
0.742755
0.743062
0.742217
0.741705
0.739737
0.739488
0.738907
0.738496
0.738329
0.738326
0.738595
0.739149
0.739419
0.739431
0.739499
0.7397
0.739918
0.739996
0.739932
0.739772
0.739564
0.73938
0.739208
0.739095
0.739034
0.739049
0.739167
0.739353
0.739561
0.739716
0.739774
0.739765
0.739799
0.739953
0.741813
0.740094
0.738232
0.737531
0.737784
0.738901
0.74008
0.740494
0.741168
0.742223
0.74266
0.74272
0.742629
0.742464
0.742222
0.74194
0.741623
0.741376
0.74121
0.741175
0.741287
0.741508
0.741763
0.74201
0.742146
0.742201
0.742257
0.742531
0.743733
0.745082
0.739702
0.73794
0.738703
0.738723
0.73903
0.739131
0.73896
0.73867
0.738377
0.738111
0.737887
0.737701
0.737576
0.737519
0.737527
0.737605
0.737759
0.73799
0.738276
0.738509
0.738543
0.738444
0.738536
0.738983
0.739707
0.740337
0.7405
0.740568
0.74066
0.740283
0.739907
0.740454
0.741273
0.741709
0.74218
0.742839
0.743553
0.744137
0.744627
0.744974
0.745191
0.745323
0.745322
0.745191
0.744888
0.744435
0.743861
0.743255
0.742799
0.7422
0.740785
0.739079
0.738304
0.738878
0.739811
0.740191
0.740361
0.740529
0.740127
0.738654
0.741354
0.740378
0.740007
0.740505
0.741344
0.74203
0.742632
0.743235
0.743802
0.744266
0.744614
0.744808
0.744873
0.74487
0.744776
0.744593
0.744284
0.743856
0.743324
0.742814
0.742458
0.741951
0.740742
0.739573
0.739642
0.739736
0.73924
0.738837
0.738686
0.738628
0.739686
0.739539
0.740054
0.740783
0.741651
0.742711
0.743715
0.744636
0.745288
0.74565
0.7458
0.745661
0.745254
0.744479
0.743457
0.742417
0.741714
0.741398
0.741045
0.739891
0.73852
0.738453
0.738168
0.737746
0.737425
0.737244
0.737157
0.737108
0.737046
0.736969
0.73883
0.738792
0.738965
0.738977
0.738828
0.738652
0.738494
0.738378
0.738309
0.738295
0.7383
0.738301
0.738275
0.73823
0.738197
0.738251
0.738411
0.738665
0.738943
0.739091
0.738945
0.739102
0.739677
0.740438
0.741275
0.741352
0.740818
0.739886
0.739284
0.739127
0.732259
0.735764
0.735198
0.730545
0.728256
0.726973
0.726828
0.727442
0.728271
0.729275
0.730218
0.731166
0.731818
0.732217
0.732111
0.731539
0.730629
0.729651
0.728793
0.728203
0.728102
0.729462
0.732746
0.733767
0.730312
0.728075
0.729987
0.731145
0.730386
0.728275
0.747745
0.746885
0.746016
0.745398
0.745116
0.745101
0.745282
0.745635
0.745881
0.745768
0.745471
0.745703
0.745872
0.745043
0.748051
0.748124
0.748096
0.747954
0.747663
0.747296
0.747177
0.747401
0.747821
0.747767
0.747074
0.746465
0.746718
0.747228
0.746978
0.74693
0.747181
0.747364
0.747347
0.747271
0.747248
0.747275
0.747237
0.747117
0.747126
0.747347
0.747592
0.747564
0.747183
0.747064
0.743909
0.743192
0.743034
0.742814
0.74267
0.743102
0.744274
0.745269
0.745842
0.745974
0.745478
0.744558
0.744406
0.744754
0.745196
0.745457
0.745576
0.745609
0.745614
0.745615
0.74561
0.745574
0.745459
0.74525
0.745007
0.744832
0.744787
0.744814
0.74468
0.744192
0.743352
0.74335
0.743165
0.743109
0.743341
0.743543
0.743597
0.743438
0.743448
0.744055
0.744472
0.744096
0.743953
0.744321
0.744653
0.74492
0.745143
0.745303
0.745392
0.745414
0.745383
0.745294
0.745132
0.744903
0.744638
0.744385
0.744165
0.743969
0.743777
0.74362
0.742402
0.742614
0.74314
0.743047
0.742967
0.742992
0.743148
0.743399
0.743695
0.744005
0.744195
0.744317
0.744354
0.744363
0.744372
0.744375
0.744345
0.744212
0.743976
0.743693
0.74342
0.743165
0.742911
0.742689
0.742594
0.74262
0.742731
0.742675
0.741539
0.741075
0.739737
0.739587
0.739044
0.738595
0.738408
0.738467
0.738885
0.73934
0.739487
0.739474
0.73958
0.739803
0.740008
0.740055
0.739955
0.73975
0.739506
0.739298
0.739108
0.73897
0.738897
0.738892
0.738991
0.73919
0.739436
0.739654
0.739769
0.739787
0.739812
0.739957
0.741864
0.740253
0.738215
0.737302
0.737266
0.73836
0.73987
0.740379
0.740899
0.742036
0.742642
0.742732
0.742641
0.74246
0.742195
0.741862
0.74149
0.741198
0.740982
0.740947
0.741068
0.741311
0.741611
0.741897
0.742087
0.742201
0.742284
0.742542
0.743701
0.745038
0.739115
0.738267
0.738283
0.738422
0.738967
0.739131
0.738927
0.738596
0.738283
0.737999
0.737763
0.737559
0.737428
0.737357
0.737357
0.737438
0.737584
0.737813
0.738108
0.738408
0.738541
0.738475
0.738468
0.738734
0.739337
0.74003
0.740336
0.740519
0.740608
0.740351
0.739869
0.740686
0.741341
0.741697
0.74226
0.743022
0.743766
0.744341
0.744851
0.745177
0.745435
0.745545
0.745576
0.745482
0.745225
0.744794
0.744219
0.743549
0.743011
0.742478
0.741372
0.739905
0.739137
0.739592
0.740265
0.740381
0.740402
0.740602
0.740263
0.738786
0.740959
0.739908
0.739975
0.740725
0.7416
0.742244
0.742885
0.743561
0.744147
0.744623
0.7449
0.745042
0.74508
0.745073
0.745011
0.744883
0.744616
0.744203
0.743655
0.743082
0.742645
0.742124
0.740955
0.739736
0.739732
0.739641
0.738968
0.738583
0.738526
0.738573
0.738991
0.739348
0.740183
0.740898
0.741816
0.743014
0.744086
0.745138
0.745722
0.746134
0.746297
0.746194
0.745821
0.74514
0.744121
0.74299
0.742085
0.741607
0.741222
0.73989
0.738551
0.738577
0.738425
0.738241
0.738135
0.738073
0.738014
0.737925
0.737747
0.737444
0.738844
0.738758
0.738939
0.738922
0.738749
0.738556
0.738402
0.738316
0.738319
0.738396
0.738489
0.73853
0.738496
0.738384
0.738258
0.738188
0.738241
0.738463
0.738773
0.739093
0.739
0.738895
0.739348
0.740125
0.740873
0.741101
0.740609
0.739838
0.739308
0.739135
0.731725
0.73463
0.734749
0.729266
0.727465
0.726823
0.727028
0.72783
0.72887
0.730082
0.73135
0.732537
0.733576
0.734061
0.733946
0.73312
0.731843
0.730488
0.729385
0.728693
0.728237
0.728253
0.73091
0.734887
0.733622
0.727766
0.726543
0.72756
0.727427
0.726509
0.747389
0.746372
0.745411
0.744888
0.744834
0.744968
0.745097
0.74539
0.745766
0.745756
0.745462
0.745635
0.745787
0.744948
0.748064
0.748133
0.748166
0.74819
0.748188
0.748118
0.748185
0.748397
0.748557
0.748259
0.747296
0.746544
0.746858
0.747232
0.746869
0.747045
0.747393
0.747404
0.74723
0.747089
0.747066
0.747161
0.74723
0.747145
0.747145
0.747376
0.747618
0.747552
0.747161
0.747057
0.744122
0.743217
0.742937
0.742741
0.742777
0.74363
0.744835
0.745734
0.746108
0.745937
0.745003
0.744325
0.74455
0.745049
0.745414
0.745563
0.74561
0.745597
0.745582
0.745578
0.745593
0.745595
0.745529
0.745339
0.745087
0.744899
0.744847
0.744846
0.744628
0.744129
0.743339
0.743334
0.743154
0.743059
0.743238
0.743478
0.743608
0.743421
0.743435
0.744134
0.744464
0.744021
0.744057
0.744447
0.744738
0.745006
0.745253
0.745405
0.745484
0.745505
0.74549
0.745419
0.745276
0.745058
0.744781
0.744501
0.744249
0.744025
0.743804
0.743638
0.742398
0.742771
0.743203
0.742995
0.742941
0.742997
0.74317
0.743435
0.743759
0.744069
0.744233
0.744327
0.744345
0.744347
0.744349
0.744371
0.744379
0.744294
0.744084
0.743795
0.743506
0.74324
0.742974
0.742734
0.742605
0.742596
0.742777
0.742118
0.740747
0.740386
0.739738
0.739691
0.739285
0.738889
0.738716
0.738875
0.739256
0.739504
0.739519
0.739529
0.739658
0.739883
0.740084
0.740127
0.740012
0.739782
0.739514
0.739293
0.73908
0.738927
0.738843
0.738843
0.738918
0.739101
0.73937
0.739613
0.739763
0.739801
0.73983
0.739958
0.741912
0.740623
0.738605
0.737383
0.737095
0.737858
0.739529
0.740275
0.740577
0.74169
0.742549
0.742735
0.742663
0.742498
0.74224
0.741889
0.741509
0.741202
0.740966
0.740896
0.741036
0.741282
0.741562
0.741862
0.742071
0.742215
0.742324
0.742594
0.743818
0.745035
0.73862
0.73819
0.737674
0.738039
0.738868
0.739134
0.738931
0.738578
0.738257
0.737964
0.737716
0.7375
0.737354
0.737266
0.737274
0.737356
0.73749
0.737713
0.738014
0.738325
0.738521
0.738498
0.738451
0.738613
0.739079
0.739745
0.740223
0.740433
0.740451
0.740189
0.739918
0.740634
0.741252
0.741642
0.742243
0.743049
0.74379
0.744384
0.744894
0.745243
0.745509
0.745642
0.745661
0.745593
0.745375
0.744994
0.744402
0.743746
0.743147
0.742646
0.741784
0.740603
0.740011
0.740365
0.740599
0.740396
0.74036
0.740596
0.740319
0.738811
0.740366
0.739699
0.739974
0.740865
0.741735
0.742347
0.743027
0.743729
0.744337
0.744758
0.745023
0.745112
0.745142
0.745134
0.745098
0.744992
0.744782
0.744413
0.743844
0.74325
0.74278
0.742206
0.741028
0.739844
0.739839
0.739415
0.73861
0.738384
0.73843
0.738513
0.738565
0.73932
0.74025
0.740874
0.741831
0.74315
0.744272
0.7454
0.745937
0.746421
0.746545
0.746426
0.7461
0.745469
0.744479
0.743346
0.742352
0.741777
0.741303
0.739643
0.738569
0.738702
0.738699
0.738729
0.738808
0.738866
0.738893
0.738911
0.738874
0.738809
0.738904
0.738727
0.738875
0.738889
0.738715
0.738513
0.738362
0.738309
0.738377
0.738538
0.738703
0.738771
0.738739
0.738598
0.738417
0.738248
0.738199
0.738335
0.738616
0.738993
0.739129
0.738803
0.738931
0.739734
0.740418
0.740681
0.740343
0.73976
0.739313
0.739141
0.731965
0.732146
0.733738
0.730338
0.727274
0.726863
0.727185
0.728063
0.729218
0.730582
0.732062
0.733527
0.734706
0.735268
0.735101
0.734216
0.732719
0.731027
0.729654
0.728949
0.728581
0.728091
0.728697
0.734286
0.737234
0.732006
0.727125
0.726844
0.727776
0.728846
0.747153
0.745873
0.744912
0.744704
0.744964
0.745238
0.745296
0.74535
0.745623
0.745653
0.745402
0.745634
0.745689
0.744884
0.74553
0.746748
0.747927
0.748123
0.748194
0.748271
0.748406
0.748548
0.748752
0.748895
0.748875
0.748447
0.747346
0.746617
0.746957
0.747128
0.746859
0.747198
0.747467
0.747348
0.74711
0.74698
0.746982
0.747099
0.747178
0.747151
0.747225
0.747466
0.747645
0.74747
0.747112
0.747043
0.746814
0.745504
0.744089
0.743254
0.74296
0.742858
0.743292
0.744421
0.745523
0.7462
0.746255
0.745717
0.744601
0.744294
0.744724
0.74519
0.745478
0.745594
0.745605
0.74558
0.745559
0.745553
0.745578
0.745594
0.745525
0.745338
0.745101
0.744951
0.744911
0.744855
0.744547
0.744102
0.744049
0.74376
0.743333
0.74335
0.743171
0.743049
0.743163
0.743438
0.74359
0.743373
0.743444
0.744231
0.744438
0.744008
0.74411
0.744459
0.744709
0.744997
0.745258
0.745421
0.7455
0.745525
0.745513
0.745454
0.745321
0.745106
0.744835
0.744551
0.744287
0.744045
0.743825
0.743643
0.742439
0.742333
0.742622
0.743193
0.743133
0.742997
0.74294
0.742983
0.743144
0.743408
0.743743
0.744037
0.744213
0.744311
0.744335
0.744346
0.744357
0.744374
0.744376
0.744297
0.744094
0.743815
0.74353
0.743267
0.743001
0.742751
0.742599
0.742595
0.742698
0.741339
0.740155
0.739788
0.73961
0.739461
0.739661
0.739751
0.739554
0.739293
0.739201
0.739352
0.739537
0.739579
0.739536
0.739602
0.739717
0.73994
0.740153
0.740213
0.740107
0.739871
0.739595
0.739359
0.739154
0.73898
0.738879
0.738874
0.738937
0.739122
0.739373
0.739618
0.739763
0.739811
0.73985
0.740008
0.740844
0.741716
0.741956
0.740983
0.739228
0.737843
0.73722
0.737612
0.739065
0.740147
0.740305
0.741194
0.74233
0.74271
0.742689
0.742561
0.74234
0.742014
0.741654
0.741359
0.741173
0.741099
0.741179
0.74137
0.741618
0.741889
0.742095
0.742247
0.742382
0.742845
0.744134
0.743783
0.738595
0.737769
0.738055
0.737373
0.736848
0.737528
0.738679
0.739126
0.738978
0.738613
0.738292
0.738004
0.737758
0.73754
0.737383
0.737299
0.737291
0.737359
0.737493
0.737706
0.73799
0.7383
0.738503
0.738506
0.738446
0.738573
0.739006
0.73981
0.740345
0.740159
0.739571
0.739281
0.739168
0.739357
0.739675
0.74036
0.741103
0.741519
0.742092
0.742893
0.743653
0.744272
0.74478
0.745156
0.745425
0.745569
0.745611
0.74556
0.745353
0.744975
0.744427
0.743773
0.743201
0.742726
0.742004
0.741096
0.74079
0.740947
0.740638
0.740209
0.740304
0.740521
0.740052
0.739043
0.73967
0.739699
0.739729
0.739655
0.739912
0.740817
0.741727
0.742338
0.743033
0.743736
0.744346
0.744768
0.745011
0.745132
0.745156
0.745148