/*--------------------------------*- C++ -*----------------------------------*\
| =========                 |                                                 |
| \\      /  F ield         | OpenFOAM: The Open Source CFD Toolbox           |
|  \\    /   O peration     | Version:  2.1.1                                 |
|   \\  /    A nd           | Web:      www.OpenFOAM.org                      |
|    \\/     M anipulation  |                                                 |
\*---------------------------------------------------------------------------*/
FoamFile
{
    version     2.0;
    format      ascii;
    class       volScalarField;
    location    "0.007700000";
    object      p;
}
// * * * * * * * * * * * * * * * * * * * * * * * * * * * * * * * * * * * * * //

dimensions      [1 -1 -2 0 0 0 0];

internalField   nonuniform List<scalar> 
12384
(
832068
832204
832589
832943
833417
833823
834088
834699
835206
835533
836550
836317
836924
837405
840668
840895
842458
841735
844275
844138
844130
848117
849316
849363
854126
855982
857416
859671
861024
861794
861756
861437
860548
859757
859097
859121
859356
859829
860421
860316
860491
860308
861267
861231
859229
859066
859357
859390
859283
858488
859940
859647
860863
860844
861834
862343
863199
863444
863576
862962
863116
861933
863386
865332
865050
867792
873280
872820
876868
879393
880493
881618
881697
881907
880909
880220
879377
879398
876583
872980
875263
874180
873361
873439
872792
870183
868390
866647
863205
858921
857675
850148
851955
845765
847814
843927
845314
846164
846478
846382
846705
846290
846477
846165
855610
854853
855217
856085
856132
856013
855327
853624
851155
848278
844522
840677
840497
838504
840540
840069
845231
849753
852532
854877
856273
856625
856638
855979
855567
855154
855430
855485
855403
854902
836070
836153
836749
837496
837862
837627
840386
840160
841967
844876
846262
847919
849690
850550
850750
849753
846518
845115
842424
836653
834140
835471
833357
834452
834983
834573
833925
833234
832803
833350
866590
865229
864396
863072
861482
861580
861411
861629
862727
863547
863641
863106
860533
857737
852663
850537
838907
842717
832857
837474
834810
842675
846001
850364
852527
854987
855095
854957
855098
855109
868514
867575
867646
868063
868046
868412
868233
867049
864422
860628
856385
849709
847318
845025
847153
850148
852472
855795
857697
857277
856549
854649
852327
850129
850349
847533
848471
845839
846353
845061
856337
856241
856101
856374
856100
856214
853532
851689
844405
845977
837560
841128
840348
845936
849212
852499
854114
853868
853162
851148
847611
845698
842241
840225
836500
838275
833952
832286
832850
831682
825009
826150
825672
825661
826150
826433
826422
823800
823928
815945
817164
808102
812056
812070
812473
813663
819171
821619
821030
822304
825061
823128
826602
829785
828601
831746
834369
832682
834439
837930
889172
886882
891339
892346
894327
894094
889660
883737
878677
871722
858609
861847
858960
848367
845102
847205
835446
834518
835922
833071
832115
832599
829606
831032
829870
830277
830070
831063
831423
832419
820530
821274
822179
822170
824909
824330
827161
826419
830235
827993
833683
836314
833569
847579
845284
849439
862018
868230
864142
881454
878827
885776
889693
896085
894252
897842
899646
900001
900304
900736
904917
904749
903759
902533
901471
898970
896364
895714
890166
891051
882432
884017
874764
877030
870578
872387
870531
871418
871179
870936
869563
868319
866552
864161
864404
862097
860650
861818
861235
861900
832462
832732
833223
833125
833741
833658
834538
834641
834996
836508
836056
836883
837034
836864
842293
841735
843124
842353
844387
843743
846437
845870
849968
849385
854240
855023
857846
859123
860712
861181
861107
860357
859648
858577
858112
857145
858193
858788
859733
859965
860878
860907
861098
861424
859949
859518
859511
859341
858942
858598
859279
859613
860207
860838
861350
862092
862381
862776
862461
862156
860940
861755
861397
861439
866102
865088
870579
872248
875615
878981
880367
881726
881598
882391
881800
880664
878821
876719
875107
874423
873599
872510
872985
872734
870938
870102
868332
864394
863312
859329
855650
848861
850939
845656
841826
844365
844167
844406
845681
846985
846856
846676
846794
846418
855052
854902
854815
855008
854667
854602
853734
851959
849477
845568
841577
838630
834821
833066
833067
838111
841865
846109
850504
854182
856545
857372
857086
856290
855501
854897
854964
855125
854968
854668
836880
836703
836732
836625
836963
837156
837916
840172
842043
842548
845651
847294
848569
849578
849355
847299
846714
842415
837983
836693
834893
830634
831870
832133
833925
834962
834767
834393
834049
833440
866113
864554
863016
861832
860190
860400
860642
860505
860997
862075
862204
860952
859027
856472
850059
846568
838758
838161
833429
831164
834704
839960
842087
847977
851834
854918
855594
855856
856444
856324
867223
866956
866450
866992
866755
866828
866248
864630
861932
857656
851853
847453
844557
842966
840486
846189
850293
852310
855334
857454
856771
855236
853530
850735
850166
847450
848339
846127
846360
845545
857596
856411
856164
855893
856014
855078
850429
849395
843920
839830
838123
836048
838283
840264
845253
849690
852674
854392
853938
852045
848115
845773
841912
840009
837868
837661
834539
833499
833357
833528
826725
825010
826054
825477
825658
825882
824880
823516
820625
815500
809911
810739
804759
804758
809513
812724
817234
818861
822371
825963
824956
826047
830682
827909
832682
837283
834769
838884
838166
833790
888691
887501
889464
890055
891450
889089
885278
881960
870583
859949
862339
857997
850154
849880
849188
841430
840726
837071
832569
833422
831504
830848
830599
830179
829412
829883
830317
830913
831656
832577
822956
821891
822545
822545
824206
825509
826390
826453
828816
827882
832759
831077
839499
839893
845342
857826
853400
868273
868704
873272
879933
889194
886927
891626
896493
895748
897279
899981
900658
901593
904134
904509
903622
902766
901407
900087
897216
896549
890287
890758
882126
880074
875279
872241
871575
868470
869775
869977
870426
869596
868993
867661
865893
864368
863138
861813
861906
861078
861447
861920
832266
832621
832776
833471
833524
834443
834292
835123
836112
835937
837649
837658
838087
839131
841474
841928
842599
842394
844928
843857
846729
846564
850078
850236
854526
854622
857704
858997
860059
860514
860199
859462
858151
857136
856353
855930
856424
857030
858410
859382
860368
860847
861133
861305
859544
859176
859199
859172
859170
858324
859756
859665
860529
860612
861477
861636
862063
861858
861108
859910
860059
858033
859874
860041
862848
863760
868552
869754
874744
876053
879529
879954
881109
881347
880729
878821
877203
875676
873676
871314
871689
871987
871939
870942
870666
869226
866374
864669
862429
857471
853642
849552
845525
842388
843001
841282
840939
842859
843757
845368
846532
847078
846894
847189
854758
853352
853955
854128
853885
853425
852208
850058
846948
841728
837597
832812
829659
830526
828755
830017
835036
841239
846497
850503
853564
855383
856149
855887
855210
855002
854895
855127
855006
854914
836337
836168
836145
835702
835846
835868
838213
838016
841944
842256
844530
846410
848103
848125
847289
847120
843665
839522
836586
834318
829822
830798
830525
830855
830821
833092
834286
834844
834731
834783
864101
862509
861500
859979
859578
859106
859186
860429
860147
860166
860353
859616
857381
853086
847381
845675
836184
833689
828508
831987
828968
837687
837749
847514
848758
853061
854902
856339
856485
856225
866778
865330
865644
866108
866338
865692
864207
862080
858544
853144
847761
843388
838709
835045
837525
838032
844480
849473
851084
852805
854658
854563
853400
850987
850526
848555
848373
846267
846141
845420
857223
856803
857164
855856
855716
852537
848440
848930
837532
837565
832109
832260
831919
836767
840171
844884
848823
850986
851847
850100
848257
845500
840709
842042
839185
836609
836907
835105
832842
833436
825356
825838
825408
826537
826081
825240
824270
820946
817659
810961
809050
802110
805734
803153
803332
806213
812179
818397
822581
823203
826193
831161
828175
830634
835381
832048
835335
835324
836757
843523
887394
886285
889314
888756
887499
885045
882398
871328
860334
862330
853749
843067
843562
847099
841363
841713
840508
835012
835008
834698
832885
831495
831690
830210
830679
830368
830364
831288
831253
832153
822048
823059
824317
824287
824996
824177
826524
825278
827936
826193
833433
827353
841894
836246
844041
857823
852314
862794
873687
871321
877218
887842
888758
888787
894760
896045
895968
898314
899818
900714
904261
904056
904295
902852
901390
899850
897732
894514
890838
886598
883129
874419
875556
868139
868906
868779
866263
866305
867781
869182
868242
867031
865703
864607
863111
862013
862042
860822
861203
861474
833626
833853
834049
834016
834421
834214
834939
835883
835661
837464
836926
838187
838172
837879
844045
843605
843848
845272
845429
844906
848568
846487
851611
850445
855458
854486
857649
858095
859612
859371
858942
857868
856993
855958
855534
854880
854996
855630
857434
858308
859596
860472
860784
861067
859634
859096
859035
858759
858478
858959
859150
859745
860851
860621
861052
861438
861080
860378
858895
859046
855937
857465
856324
858559
857339
862206
863784
868232
871536
874838
876610
879508
879847
880944
879437
876613
875568
872404
871088
870253
869952
869729
869101
869773
869269
866523
865725
863278
859446
853671
852112
845116
840208
839344
834576
834122
837226
840825
842317
843492
846364
846922
846960
847558
853331
853547
853142
853122
852286
851584
849987
846677
842607
835634
832469
827504
827574
827700
828896
829111
829281
833286
840712
846099
850243
853079
854536
855052
854742
854508
854636
854876
854629
854891
836592
835745
835330
835421
835258
835701
836951
838758
839488
842526
843804
845282
846408
846867
846522
844041
838983
838059
832115
829164
828671
826024
825126
828929
830017
831042
834018
834671
835002
835699
861306
860466
859058
858306
856639
856685
856553
857313
859141
858421
857765
857324
853835
850270
846046
841199
830994
828553
829273
825098
828093
833511
833263
844411
845287
852182
854335
856007
856706
857485
864459
864434
863893
863921
863085
863168
861864
858126
853296
847414
842903
838402
835018
835677
834044
834752
835318
842816
848355
849930
851474
852957
852793
851345
851598
849568
848615
847876
848059
847143
858426
858172
857247
857394
853658
850823
849019
842062
832917
831761
828260
823136
825916
827620
833949
839311
844287
847312
848323
848899
847715
844876
842129
841875
841284
838243
836624
837766
835049
834209
827978
826973
827470
826139
826476
824830
821516
818529
811535
810428
800809
800269
796288
799588
803092
802303
808606
816813
818278
823584
831357
830001
833493
840150
836617
843351
845268
845552
844413
840419
887328
886618
887963
886461
884792
880607
871247
858176
859873
848766
833282
832351
839441
833395
836472
839679
836864
836953
836467
834525
833911
832527
831286
831279
830341
830485
830793
831582
831717
831877
825195
824114
823326
823871
824274
824703
824466
826045
824297
825148
831758
827360
834608
838878
842388
850712
858432
857754
874556
870277
881072
881090
890179
888529
890813
895533
895612
896577
899315
900342
905204
905381
903978
903253
902015
899404
897569
893207
890937
880783
882672
871305
870866
865714
865281
863037
866680
866148
864714
865592
866989
866378
865750
863702
864094
862051
861904
861396
861373
861398
833582
833710
833620
834042
834162
835008
835719
835414
837551
837136
839404
839109
839860
841693
843015
842835
844865
844031
845211
845565
848219
848001
852837
851118
855328
855692
857412
858106
858408
858213
856765
856001
853876
851728
850346
850401
851907
852786
855438
856991
858637
859728
860247
860668
859410
859637
859858
859438
860392
860484
860450
860619
861298
861792
861235
860916
860576
859445
857316
854709
853988
850741
852598
853816
857998
857198
862387
863767
869421
871538
875328
876373
878354
878762
876431
874017
871788
871389
870282
870066
869456
868220
869223
868261
866016
865845
863911
860479
855365
851435
847468
835360
838296
830353
829437
833436
835565
837353
841235
841378
844596
846579
846801
847461
853381
851805
851699
851778
851607
849770
847370
842294
837891
829761
827579
822041
817746
812947
814374
821803
827903
828838
834067
840632
846666
850609
853016
854269
854277
854568
854437
854986
855357
855199
835268
836623
836146
834953
835649
835139
836820
837960
840131
840945
843551
844465
844936
845698
844037
840071
837552
834994
827079
824944
820526
818787
820239
823171
826562
828524
832345
834586
835182
835752
859363
857762
857275
855948
856411
856325
855654
854478
854834
857343
856811
853634
851499
848975
841215
836137
829450
828066
822317
824903
822395
831227
829879
841926
842405
852225
853061
855839
857173
857396
863841
862564
863529
863227
862506
860447
858065
853633
848835
840998
837782
829693
825464
820922
822868
827623
829770
832499
841159
847813
849946
851527
852611
851640
851043
850371
850077
847490
847510
846694
859981
859195
858586
856952
852278
851562
844839
835775
828699
831345
817397
822684
820561
821821
825224
831224
838989
843902
847065
847756
847717
846117
845462
841318
840716
841187
838453
836756
837324
837216
827625
827539
827523
827457
825390
824395
820176
813334
808903
801246
796265
792697
790766
788481
793851
800019
807887
807506
817762
828864
828609
832958
840417
836405
840445
842238
841025
842735
846399
847402
886456
886803
885612
883409
880298
870368
861798
855013
846414
824062
825512
833814
824235
825201
832129
831084
836142
837432
836997
835706
835089
832667
833079
831412
831393
831006
831566
831454
832524
832170
824008
825720
826077
825457
825885
824660
824357
822931
825185
824078
823675
830231
827130
835657
845528
841449
862216
855992
871642
869769
882461
879072
887325
889628
889532
893068
896074
895983
898417
900449
906060
905382
905132
902951
902253
899061
897218
891045
889786
880167
876596
869220
862572
860517
855611
858233
857549
862752
865185
863911
864472
865992
864869
864551
863474
862205
862461
861287
861751
861662
834666
834757
835042
834959
835331
835670
835414
837343
837037
839163
838812
840041
841235
840608
847080
847303
846586
847186
849264
847561
850769
849638
851842
852940
855958
855775
856890
857671
857956
857312
855980
853687
851584
851427
851442
850756
850570
851334
853631
855430
857750
858899
859799
860384
860295
859816
859332
860145
859601
859778
861086
861210
861136
861586
861808
860923
859134
858700
854687
853523
850214
851357
846671
848258
848835
855293
856023
864108
864186
869853
871876
875452
876426
878209
871917
872135
872140
869469
866935
865811
867171
868738
868389
866619
865634
864359
861152
858294
851992
849247
835359
836331
825046
823835
828450
826550
826694
831434
839795
840035
842620
845224
846296
847043
850858
851995
851940
851501
849526
847706
844727
837608
833955
825083
822187
811162
807052
806846
805607
806195
815592
824263
829825
835865
842996
847800
851645
853349
854264
854623
854545
854783
855034
855108
838345
836121
835560
835357
835106
836703
836528
838692
839305
841937
842323
844020
844732
843547
840896
839335
834211
829933
822978
824465
818871
821060
820660
820900
826986
826012
830146
834142
834525
835970
856344
855493
854130
853562
852701
853283
854670
855079
853614
853194
853401
851936
850548
843972
838378
835273
826036
822781
819374
819005
819954
827187
826321
840333
839616
851302
852140
856042
856700
857339
859130
859939
859721
859672
859552
857950
854648
850166
843520
836484
832644
822065
820080
823608
821547
823654
830376
832375
835493
842343
849210
850443
852432
854073
853060
850430
851330
850785
849354
850167
860670
860487
859212
856701
851877
852182
837109
837602
828723
821082
816112
812214
817026
818708
824928
827305
835285
838276
845829
846838
845496
844166
844861
845499
841749
841334
841651
839573
837530
838338
830095
828976
828440
827337
826659
822665
817446
811743
804862
797924
787831
784743
786320
784898
788314
791501
798229
809274
823285
822146
831073
841108
839233
845425
850748
849747
852640
852338
854126
855244
886503
885349
883854
879906
874091
862986
859762
839457
829845
820918
825506
811736
814437
822687
824415
829029
833271
836060
837718
837251
835542
834463
832828
832360
831984
831471
831416
832163
832546
832443
828399
826969
826568
826176
825352
825533
823787
822725
820856
823748
820167
827732
825899
828962
846705
837945
857689
858269
869372
869232
880436
880880
884311
890551
890254
891062
896982
896449
899621
900699
906432
905551
905121
903490
901888
899296
897269
890367
885558
878899
870134
866931
858927
857012
858342
852809
852745
853986
859271
864370
864775
864229
865151
864117
863444
862875
861972
861825
861812
861582
834299
834625
834709
835069
835604
835387
837421
836847
839314
838895
841117
842712
842389
843980
845533
845652
846233
848023
847253
849438
849794
851931
854945
855563
856292
857628
858798
858771
857308
856927
853594
853897
849860
849709
847189
846409
848123
849947
852002
853860
857148
858121
859626
860118
860781
860282
861630
861481
861841
862999
862965
863263
863292
862709
862432
861482
858666
857561
852663
850494
845136
844177
847267
846288
850057
848045
854445
857968
865229
865010
870889
872256
874098
874075
873144
871486
867997
865466
865918
866344
865317
865145
865107
865292
865113
861996
859310
857002
848859
842728
832144
829639
817724
816908
813575
819252
825087
826471
835536
839177
840966
843881
845344
846723
851643
850405
850210
849849
848731
845321
842524
832862
832751
816717
815837
807199
809638
808166
809999
809145
807051
819808
823877
833113
839884
846387
850214
853505
854328
854617
854765
854805
854988
855335
838113
838104
837677
837357
836742
835898
837982
838757
840330
841801
842975
843400
843708
842239
840966
836374
833045
828848
820869
818324
814320
812944
814017
816446
824124
826605
828572
833402
834504
836994
853243
850571
850387
849407
849228
848438
849052
851625
853466
850909
850327
851202
846003
840794
840432
831064
822473
824320
819232
819558
817402
826837
823744
838868
839131
848803
852992
855702
856550
856522
861108
858863
860586
860451
857802
855342
852587
844984
840650
835048
823762
819307
820772
812378
812911
813197
822983
833032
831344
842049
847016
850931
853450
853046
854249
852638
850752
850706
851443
850357
861331
860834
859754
857034
852730
849306
835828
838585
821199
818894
811595
813998
811469
810214
819092
825259
831709
841576
844016
847422
851683
851036
846726
846343
846830
842483
841279
841516
839733
839172
829523
830508
829088
827838
825436
824131
814366
809460
803803
791623
784830
781179
780123
781906
790153
784613
798654
812922
813562
824691
839428
838191
844578
849993
847382
850475
854212
857333
857499
860895
882368
883287
880749
874762
870618
858701
852876
825639
832685
812649
803380
795729
802792
808192
816850
825943
832333
835091
837291
837576
835993
834591
833288
832969
831983
831536
831411
832180
832770
832682
828113
828704
828222
828224
826844
824542
824477
821366
820816
819902
820397
822243
827885
824013
842896
840242
851002
861117
866392
872017
877190
883548
883575
890981
890657
892914
896369
898117
899233
902041
907097
905913
905429
903276
901823
898608
895487
889877
879016
881946
862695
868731
850461
856979
847788
852815
855302
856119
855897
858473
863368
864908
864169
864207
863189
862134
862577
861686
861529
861684
835533
835640
835882
836056
835768
837172
836975
838926
838912
840786
842394
842409
843971
844918
850616
849930
851835
850854
853083
852811
854417
853694
854801
855189
856464
857443
857586
858303
857219
856548
853177
852457
848301
848490
846707
847766
846816
849419
851262
853012
857052
857723
859526
859963
861662
862371
862144
861946
863240
862833
863165
864119
863978
863501
862951
862015
858446
856267
850235
849766
843585
844893
840137
843270
845442
848268
851314
857089
861554
864781
868695
871641
873620
874753
871669
868760
868138
867645
866052
865852
866009
865486
865243
865643
863192
861608
859382
853080
845586
841025
824927
828372
813079
815525
811718
816973
823181
823009
832738
838420
839709
843132
844993
845845
850477
851183
850728
849577
847686
843770
840075
831536
828357
814639
817223
803982
801233
795320
798036
807829
806881
819290
820895
830754
839038
845899
850806
853860
855066
855810
855341
855313
855678
855994
840094
839561
839043
838029
837918
838692
838418
840007
841015
842407
843260
843633
843261
842832
839327
836402
829782
828988
816941
820487
811954
815250
816352
814335
823089
826677
828029
832598
835277
836287
849539
851924
850428
849030
848500
849579
849041
847602
848830
851431
850126
847704
843842
842271
837771
828871
826441
823575
817556
819499
816554
826219
824359
839445
839319
848174
852480
854999
855381
855783
857988
858614
857397
855739
854856
854610
847590
843304
840160
828574
822302
820108
815807
813474
816772
812967
822989
828076
834757
839470
848089
851826
855356
855333
854116
855030
853880
852068
850998
852229
864214
863112
861102
858172
852284
847889
840049
833623
820510
821032
812058
811421
812726
809915
820518
821857
836698
837603
845446
850191
849823
851572
851726
847111
846462
847297
842972
842497
842667
842114
831552
830215
830342
828450
824783
822775
814944
808950
797572
794335
779498
782714
778052
775457
783131
787171
803466
801476
818344
833304
833401
843739
852160
851109
856972
858644
861223
861722
863794
862244
877785
880050
876920
871898
866856
853164
851071
822826
828269
797178
803711
800789
801199
809293
813602
821203
829874
834677
836853
837252
835342
834810
832658
832528
831006
831427
830923
829829
830116
827597
830957
830581
829897
828832
828035
826641
823075
822738
818185
819327
818676
822636
821766
827070
835180
844425
847233
860327
864195
876660
875115
883232
886793
888943
893379
894884
897479
900014
901938
903284
906821
906318
905759
904326
902837
898900
895155
890453
877829
880996
861726
865361
849146
852299
845488
846019
847974
851007
856530
859424
860308
863193
864344
863524
862387
862537
861082
860656
860818
860474
835415
835530
835829
835873
837224
836614
838793
838382
840560
842315
843100
845157
847547
847962
849478
851046
850450
850750
849783
851399
851412
853645
853539
857118
858242
859677
860237
861103
861288
860182
858649
856606
853425
852590
848451
848379
845250
846254
846378
849052
851231
852697
855800
857829
859510
860720
859751
854407
862284
861446
862555
864545
864205
864845
865669
865178
864939
864527
863401
862300
858664
856197
848739
849800
841303
843916
840824
839930
846212
843613
854061
852654
860178
862215
867023
868175
869115
868565
868435
861186
868811
867916
867977
865946
865126
864655
865146
866101
865838
864601
863393
862439
858138
852674
848002
836356
825629
827301
810054
813970
810666
818127
820916
821952
832102
836694
839174
842474
844342
846768
842461
841182
848102
848306
847895
847048
845162
842219
838266
831625
827669
813172
814350
801307
802883
799864
796621
806561
805196
818288
820359
831371
837783
845161
851755
854224
856182
855389
854721
853845
853322
852804
849787
845343
846272
842441
841302
840187
839379
839038
840647
841056
842101
843228
843729
844157
843489
842786
838736
838194
828241
829635
817884
820302
814171
813056
816039
815232
822912
826694
828753
834645
834857
839914
837868
841308
848262
845200
845844
847186
847245
847411
848482
849137
847719
848403
848676
846181
845298
844415
836311
829463
829522
825973
824090
820543
819557
828832
828335
838797
841726
848452
852026
854899
855514
855240
852817
848432
853278
852919
853901
854570
854535
848950
847979
843429
837315
826571
825101
817213
815604
812831
814099
813258
822269
830563
834872
841945
848852
853911
856501
858467
857362
855737
856380
855067
855462
855094
856535
857339
859228
859502
858956
857425
851908
849519
843601
833393
822599
825650
814599
816376
817049
816694
818802
829605
834763
842285
849392
855677
855642
854595
856107
854024
847451
846999
846585
842127
840636
839172
834579
835205
833449
832192
829093
829929
824640
822542
814196
813543
794588
795594
782442
780593
779185
774658
786911
791222
791186
811266
824105
825443
839553
850485
849997
856565
858506
861859
862518
866915
869420
870654
875865
879111
878474
878775
877589
870773
864781
854340
849269
818644
828017
796002
806633
793637
798900
805498
817587
818263
828861
833600
836634
835940
835377
833809
832704
831660
831961
831164
830681
831714
831280
832299
833214
833124
830669
831032
830566
828993
827975
826658
823675
821991
819189
818259
819277
821270
821055
831209
829531
849619
844652
862988
864142
877234
874759
887172
886576
890706
895182
897058
899563
901390
903501
907066
903816
906207
906262
904462
903742
902563
900183
899289
893704
891526
877262
880917
859417
866317
847834
852956
844795
846458
849635
852817
852670
857902
861675
861804
862807
862812
862902
861349
861083
861448
860607
860664
856337
859194
836259
836438
836355
837210
836748
838329
838102
839732
842257
841920
845092
846989
847323
850363
850720
851120
853265
853448
855513
856490
857921
857210
859089
858221
858577
859234
860222
860303
860612
860569
859679
857386
854309
852825
850566
850470
848902
846587
847453
849493
852435
852266
856550
858153
860164
860838
860332
858201
862736
862775
864834
864191
865093
866026
866257
866353
866215
865985
864642
862458
859014
857136
849151
850406
841185
844592
841954
842844
842555
845896
852782
853711
858625
863137
866556
868721
869469
870627
866889
861991
870606
867834
867190
867019
865558
865509
865441
865341
865661
864883
864347
861757
858675
854335
847016
836023
831270
823125
817990
818028
815180
819863
819200
822667
833308
837209
840002
843686
845819
847687
844454
843729
846113
846165
845889
845153
843812
841215
838050
831513
828711
814054
813000
802154
804948
804519
800539
808178
808803
817339
822802
834090
839561
848595
852780
856151
857330
857646
856265
854783
854606
853039
850866
844805
847070
843946
843055
842386
841480
841525
840735
842178
843104
843752
844397
844617
843880
843009
839354
838519
829776
831237
820140
821730
816305
819425
818858
820143
825357
826736
832172
833535
836542
839130
838816
843446
846446
846003
845393
843351
843151
843260
844278
846871
848278
846867
847029
846922
845513
842992
839870
835037
828190
822184
821456
826198
829765
830479
829626
841852
842862
850319
852419
854409
854916
854025
852575
850203
853547
850837
850096
850684
849278
849449
848170
842388
836184
831989
829017
819659
815454
814117
821798
822058
827426
833351
837998
845623
852391
858064
859663
859922
860434
858520
855876
857148
855504
856549
856422
857559
859421
859538
859273
857829
854004
850864
845147
837527
828961
824659
815421
811463
812911
815582
824486
831382
839837
847097
854721
855442
860229
858418
855404
856263
853134
847995
845713
846559
840658
841791
836196
836741
832207
833469
829484
829836
825825
824202
813728
815623
797529
796429
782297
787390
778504
784450
787024
786182
799108
820425
814800
834588
844036
847727
855550
860004
862732
862932
867420
869279
870174
871949
874986
878400
878187
877673
875336
872103
864431
857288
848194
822166
828207
801253
803490
801759
801387
806938
818233
822056
829291
834346
836009
835378
833668
832857
830909
831048
828753
827887
828067
828150
830263
830922
833655
833138
832973
831999
831211
830471
828186
827462
824372
824538
820258
821962
818142
826142
819353
834991
831512
847933
846206
864203
863942
877495
876666
888904
886103
894133
895746
899727
900843
904477
905610
907287
904585
906754
906523
904778
904311
902913
900839
898868
895201
890714
879440
879937
861416
866495
848359
854839
844946
848196
847752
852228
855864
855725
859229
862611
861841
862639
861191
860738
860688
858829
858384
858669
858972
857809
836459
836611
837224
836850
838047
837975
839196
841366
841749
843759
846987
846543
850331
849884
851766
853029
855417
855816
856222
857131
856964
859397
859324
860857
862307
863712
863501
863987
863834
862612
860929
859316
856387
853629
851178
849028
848335
850653
851236
849789
853023
853424
857133
857920
859830
860162
860655
858679
863489
864813
864711
865822
866923
867079
867242
867550
867219
866577
865911
863697
859942
858299
851066
851482
843480
843925
841366
840956
842797
848326
853944
852495
860332
863380
865721
868437
868776
868359
866895
861629
869557
868309
868146
867059
867018
865893
866036
865792
865644
865653
864265
862659
859397
854681
848590
840557
832971
824818
818415
816231
819290
819245
822348
827383
834896
838922
842674
844597
846837
847529
843656
843757
844916
843690
843118
842955
841940
840918
837827
832772
829123
820284
819527
808033
801853
802214
807513
813427
810559
823387
827970
837009
843849
850942
855012
858274
858140
857722
857690
854892
855438
852777
851721
845991
847493
845044
845488
843251
842931
841976
842707
843089
843586
844288
844791
844870
844066
843593
839852
839258
831858
831782
824229
822840
819182
817864
821194
821368
827207
829823
833890
835987
837799
839877
837074
843394
845414
845769
844053
844754
844561
844984
844270
844463
846244
847896
847232
847339
846431
843913
840907
838515
837760
835081
830405
827724
827627
831599
838712
844769
845613
851357
853648
854048
853798
852753
851063
851280
851965
850910
851316
849626
849411
849189
847223
844248
839613
833471
829720
826082
827965
827183
820537
820847
830761
836497
842838
850697
858071
860981
862041
861399
860681
860255
858875
856738
857962
856621
857618
857533
859525
860007
859232
860561
858519
854422
848645
843655
838244
833681
831171
830281
828579
828589
834252
839843
846496
852693
858102
861854
863151
863824
859372
855369
854002
853083
845340
847086
843263
841535
835532
837767
832756
832591
830893
830074
828185
825621
817694
815085
804977
800224
789193
784564
788186
783824
785615
799346
808958
813536
822253
844206
840587
854183
856692
862721
861907
867240
869513
869651
872441
873654
874579
877085
876234
875797
876129
871687
868753
856053
855262
827654
833048
813782
811846
806933
813282
814234
822412
829154
832874
833851
836070
836038
833330
832989
831810
829059
827952
828186
827501
828446
828614
830901
832815
832844
833340
832658
831386
830799
828702
827956
825276
824772
824756
821305
825006
824965
823852
838772
832266
851947
847637
867184
862918
879085
877825
888719
886794
897146
895618
901431
901708
905856
905947
907215
904400
906304
905854
904995