/*--------------------------------*- C++ -*----------------------------------*\
| =========                 |                                                 |
| \\      /  F ield         | OpenFOAM: The Open Source CFD Toolbox           |
|  \\    /   O peration     | Version:  2.1.1                                 |
|   \\  /    A nd           | Web:      www.OpenFOAM.org                      |
|    \\/     M anipulation  |                                                 |
\*---------------------------------------------------------------------------*/
FoamFile
{
    version     2.0;
    format      ascii;
    class       volScalarField;
    location    "0.007700000";
    object      rhoUnburned;
}
// * * * * * * * * * * * * * * * * * * * * * * * * * * * * * * * * * * * * * //

dimensions      [1 -3 0 0 0 0 0];

internalField   nonuniform List<scalar> 
12384
(
2.56937
2.61183
2.66694
2.7169
2.7549
2.77491
2.7797
2.76605
2.74157
2.70437
2.65185
2.58368
2.51513
2.42081
4.02851
3.87393
3.89632
3.82203
3.64478
3.57222
3.58124
3.60551
3.63406
3.66432
3.67982
3.69673
3.71415
3.72761
3.73947
3.74829
3.74977
3.75147
3.75006
3.74539
3.73788
3.72956
3.72189
3.71478
3.71054
3.71631
3.77746
3.93617
4.09651
4.36062
4.58425
4.59577
4.56058
4.5339
4.50561
4.47167
4.43042
4.39306
4.36738
4.35438
4.33828
4.32902
4.31898
4.32943
4.33901
4.36286
4.3749
4.39723
4.40551
4.41052
4.41314
4.39951
4.37565
4.36247
4.33286
4.30689
4.29859
4.32643
4.36154
4.3505
4.60866
4.59792
4.62433
4.62813
4.63714
4.64439
4.62939
4.62285
4.62152
4.61787
4.62112
4.63488
4.64585
4.65639
4.67473
4.69697
4.70522
4.74091
4.73614
4.76716
4.76307
4.78616
4.78169
4.77518
4.76605
4.75584
4.74337
4.74993
4.78512
4.83266
4.49055
4.53962
4.54266
4.53002
4.51965
4.51905
4.51709
4.51431
4.51049
4.5054
4.50322
4.49987
4.48611
4.48517
4.47381
4.47328
4.45082
4.43154
4.40896
4.37582
4.36178
4.46741
4.74866
4.78095
4.75845
4.75364
4.75283
4.75582
4.76205
4.77571
4.93333
4.89709
4.8127
4.75415
4.74191
4.75138
4.76172
4.78776
4.80969
4.81594
4.82407
4.82619
4.82355
4.82039
4.81419
4.81202
4.81496
4.80902
4.81514
4.83362
4.84354
4.82998
4.84032
4.83317
4.83024
4.8417
4.86475
4.86701
4.77939
4.70506
5.91755
5.68058
5.53092
5.45388
5.43687
5.43068
5.43584
5.44485
5.45916
5.48935
5.53566
5.58547
5.64141
5.69417
5.75024
5.78083
5.85075
5.84268
5.90543
5.88983
5.89922
5.83125
5.78928
5.75101
5.74002
5.83607
6.74154
6.97494
6.84784
6.76987
4.94084
4.6652
4.56826
4.51172
4.50748
4.52061
4.5365
4.5538
4.57514
4.59638
4.61605
4.64049
4.64376
4.65041
4.63959
4.6151
4.58457
4.5314
4.46695
4.44438
4.66219
4.88291
4.87987
4.87644
4.86569
4.87175
4.86151
4.86744
4.87315
4.89037
4.87437
4.81742
4.79476
4.78026
4.78193
4.79121
4.8151
4.83939
4.88629
4.88925
4.93557
4.92708
4.93808
4.89552
4.8606
4.82169
4.78112
4.7628
4.84295
4.88171
4.88698
4.89508
4.9168
4.92981
4.94678
4.92031
4.92367
4.94064
5.02381
5.13946
5.67391
5.67144
5.64908
5.5764
5.49765
5.44072
5.42588
5.4554
5.47067
5.56548
5.58229
5.68128
5.67473
5.67206
5.67932
5.65959
5.6101
5.57026
5.6133
5.62223
5.57121
5.58095
5.5527
5.52038
5.53331
5.50537
5.47478
5.47295
5.43894
5.40723
5.27099
5.25599
5.22431
5.20442
5.19197
5.20547
5.25849
5.3243
5.36767
5.42202
5.50724
5.45057
5.42555
5.49169
5.6088
5.74164
6.11509
6.25659
6.36855
6.52394
6.62639
6.66918
6.74205
6.73167
6.75111
6.74448
6.73819
6.70203
6.62259
6.34734
7.1215
7.13818
7.13449
7.09324
7.12721
7.13461
7.15759
7.14792
7.1754
7.15239
7.19503
7.17063
7.18416
6.97139
7.01243
6.92162
6.76297
6.63687
6.7225
6.49581
6.53387
6.46226
6.42034
6.3601
6.37508
6.34019
6.32806
6.33138
6.29388
6.34848
6.03863
6.12313
6.24445
6.29753
6.25401
6.20455
5.58079
4.31749
4.08918
4.12227
4.17986
4.20396
4.25089
4.2631
4.31508
4.34925
4.40667
4.45712
4.50343
4.52726
4.52387
4.47142
4.41317
4.36161
4.32207
4.32136
4.33561
4.34914
4.4563
4.78579
2.67043
2.75778
2.86542
2.92698
2.94967
2.95052
2.93864
2.92714
2.91068
2.88719
2.83203
2.71935
2.57519
2.43345
3.99704
3.87563
3.86905
3.67651
3.47548
3.42846
3.48152
3.55325
3.59993
3.63827
3.679
3.72458
3.75944
3.78973
3.81192
3.82478
3.82385
3.81979
3.8099
3.79866
3.78367
3.76796
3.74676
3.72638
3.7116
3.703
3.72529
3.8309
3.98222
4.15612
4.58364
4.59526
4.5615
4.50686
4.41555
4.30848
4.19201
4.1129
4.06607
4.04604
4.04805
4.07187
4.11855
4.18133
4.25247
4.31427
4.3616
4.38971
4.40904
4.42339
4.41591
4.42298
4.40563
4.38712
4.3642
4.33231
4.30778
4.3042
4.33436
4.37092
4.60022
4.60927
4.63753
4.63677
4.62781
4.6173
4.60707
4.59514
4.57402
4.55013
4.53448
4.52901
4.54602
4.57947
4.60393
4.63885
4.67361
4.71612
4.71511
4.75607
4.77746
4.77313
4.78073
4.78653
4.7811
4.76792
4.75565
4.74642
4.74862
4.77462
4.48963
4.54702
4.55243
4.54365
4.5574
4.56176
4.55435
4.52541
4.49496
4.47391
4.46062
4.44818
4.4477
4.44846
4.44564
4.42865
4.42044
4.41303
4.40889
4.38399
4.3603
4.37546
4.56117
4.75383
4.74398
4.74553
4.76116
4.75648
4.73158
4.71177
4.91991
4.85786
4.76212
4.70543
4.70939
4.76267
4.82825
4.88309
4.92087
4.95208
4.95203
4.94755
4.93042
4.89485
4.84753
4.80052
4.7478
4.72292
4.7151
4.70606
4.72008
4.75891
4.77149
4.79262
4.80535
4.81976
4.84372
4.86108
4.82076
4.73827
5.88532
5.57907
5.36913
5.28995
5.32078
5.37071
5.40218
5.44294
5.50655
5.61676
5.74131
5.8432
5.9038
5.93659
5.97566
5.99528
6.01959
6.01951
6.06162
6.05137
6.00491
5.94614
5.89881
5.83992
5.79387
5.79129
6.15191
6.72128
6.85555
6.69888
5.00733
4.67918
4.53368
4.50775
4.55977
4.59949
4.62711
4.64937
4.66651
4.68358
4.7067
4.7219
4.73243
4.74572
4.74682
4.71465
4.68213
4.64901
4.58593
4.50425
4.52807
4.73564
4.89084
4.90834
4.90994
4.90729
4.87254
4.84918
4.82109
4.82755
4.90926
4.85489
4.78118
4.7665
4.79173
4.83732
4.89963
4.94451
4.99184
5.0331
5.05842
5.0735
5.05859
5.04028
5.00061
4.95214
4.89637
4.82255
4.80215
4.85306
4.90894
4.94579
4.99492
5.02308
5.04536
5.04594
5.01737
4.90792
4.902
5.06933
5.66672
5.68187
5.6304
5.46846
5.33173
5.31372
5.38057
5.48486
5.61219
5.73033
5.84849
5.88615
5.97324
5.98481
5.92507
5.87067
5.80915
5.76363
5.69502
5.61958
5.59634
5.55304
5.51919
5.55052
5.53275
5.51622
5.51884
5.45143
5.4063
5.44523
5.29623
5.30085
5.27297
5.21046
5.21742
5.2947
5.40062
5.49439
5.6404
5.74813
5.72802
5.74087
5.74488
5.64745
5.58869
5.66435
5.78913
5.94014
6.18825
6.47672
6.78158
6.93155
6.95149
6.94738
6.93239
6.88515
6.83208
6.76433
6.64043
6.32338
7.12651
7.11056
7.09842
7.10009
7.12889
7.14198
7.14407
7.13837
7.13893
7.09942
7.01295
7.01202
6.93137
6.92258
6.91594
6.75527
6.85288
6.65856
6.66983
6.63315
6.60574
6.53002
6.58609
6.53071
6.46111
6.42737
6.37377
6.34057
6.30073
6.32049
5.57262
6.01076
6.40364
6.45527
6.32076
5.78708
4.69255
4.12242
4.07862
4.09908
4.12719
4.13883
4.16234
4.19047
4.23074
4.30105
4.38992
4.51595
4.67377
4.83069
4.91416
4.90569
4.78274
4.62519
4.48543
4.37111
4.33534
4.35253
4.47337
4.80941
2.79748
2.92298
2.9806
2.9889
2.97783
2.95579
2.92595
2.88473
2.85808
2.85964
2.87059
2.82933
2.67061
2.46065
3.97747
3.87361
3.83246
3.55354
3.33037
3.30119
3.3521
3.39105
3.39507
3.4236
3.5108
3.64395
3.74626
3.80711
3.84023
3.85151
3.84662
3.82966
3.80627
3.78198
3.7639
3.74677
3.73401
3.7152
3.69733
3.68177
3.68655
3.7499
3.89455
4.06481
4.58814
4.60395
4.56128
4.46792
4.32733
4.1946
4.0961
4.0408
3.99694
3.97893
3.97803
4.02843
4.13257
4.25293
4.34366
4.39561
4.4082
4.41327
4.40616
4.40381
4.39775
4.40024
4.39635
4.39339
4.37628
4.35595
4.32611
4.30693
4.31601
4.35968
4.60606
4.62452
4.64291
4.62896
4.6254
4.63382
4.62909
4.61132
4.57923
4.5319
4.48288
4.46473
4.51473
4.57178
4.62255
4.6736
4.71132
4.74676
4.77531
4.79851
4.80028
4.81094
4.81283
4.80357
4.8002
4.79126
4.77631
4.76067
4.7494
4.7569
4.48742
4.55926
4.56556
4.57862
4.60658
4.57432
4.51194
4.44682
4.40158
4.37057
4.34557
4.33159
4.32062
4.31718
4.32689
4.34151
4.35651
4.36747
4.37849
4.38591
4.37848
4.35455
4.42892
4.64128
4.74631
4.7795
4.78843
4.78874
4.7734
4.73281
4.91757
4.82378
4.702
4.63955
4.6558
4.72792
4.79646
4.87331
4.92413
4.96969
4.98135
4.97063
4.91311
4.81634
4.70569
4.60144
4.52705
4.47065
4.43346
4.41442
4.44334
4.47625
4.54896
4.63067
4.71201
4.76501
4.80507
4.84165
4.83252
4.76491
5.86702
5.47405
5.24136
5.23659
5.3375
5.40421
5.43871
5.46989
5.57698
5.7896
5.94249
5.99993
6.0139
6.00878
5.97877
5.9174
5.90835
5.903
5.91243
5.89393
5.92736
5.90078
5.90535
5.85876
5.85124
5.8181
5.91453
6.28758
6.74924
6.76425
5.09715
4.71344
4.49504
4.56794
4.61795
4.64718
4.66463
4.67233
4.67433
4.68014
4.68366
4.6846
4.69492
4.70303
4.70051
4.71584
4.70365
4.69031
4.67188
4.60357
4.53707
4.59443
4.78647
4.92163
4.96236
4.96631
4.92826
4.89238
4.83416
4.80046
4.91388
4.80979
4.7494
4.78527
4.84804
4.92728
4.98788
5.02444
5.09426
5.10977
5.12654
5.13705
5.1296
5.10456
5.08713
5.05466
4.99542
4.92605
4.84719
4.83959
4.90534
4.97469
5.02132
5.01847
5.05014
5.10202
5.1244
5.06208
4.90169
4.99533
5.68352
5.67298
5.55614
5.29989
5.24398
5.34796
5.53835
5.73006
5.90138
6.04959
6.14359
6.25306
6.21795
6.23811
6.2266
6.15902
6.03406
5.92463
5.82767
5.75359
5.65638
5.5442
5.53319
5.52401
5.51916
5.58931
5.57179
5.51908
5.42405
5.33642
5.33579
5.3847
5.21637
5.201
5.31708
5.46574
5.60148
5.77095
5.91757
5.93163
6.00574
6.09675
6.02966
5.90379
5.82469
5.70999
5.70984
5.79781
5.89845
6.16618
6.68251
6.94757
6.92762
6.87695
6.75231
6.66271
6.66609
6.69108
6.60827
6.27381
7.1019
7.09767
7.04542
7.12425
7.13619
7.12375
7.01865
6.88382
6.72035
6.63571
6.49975
6.53267
6.41691
6.5244
6.60166
6.53693
6.79687
6.75971
6.68316
6.74408
6.74139
6.64824
6.65092
6.64866
6.58223
6.53622
6.46329
6.38341
6.31979
6.32292
5.29789
6.10891
6.48819
6.28658
5.80761
4.9645
4.23669
4.03939
4.04133
4.03316
4.01506
4.0053
3.98499
3.99422
4.00311
4.0307
4.10226
4.22219
4.41658
4.69113
4.99492
5.14725
5.13092
4.99262
4.84052
4.609
4.41319
4.40816
4.60498
4.88319
2.9633
2.99634
2.99075
2.98703
2.9915
3.00329
2.9924
2.93771
2.83508
2.76878
2.79636
2.83841
2.75043
2.49471
3.96128
3.87001
3.82762
3.50456
3.24895
3.17809
3.17053
3.1602
3.15541
3.21443
3.33538
3.52747
3.71631
3.8185
3.85603
3.85748
3.8268
3.77356
3.71417
3.669
3.64838
3.65106
3.66068
3.6679
3.66649
3.65436
3.65279
3.69632
3.83454
4.02156
4.59131
4.61234
4.56657
4.46309
4.33599
4.25105
4.21081
4.14547
4.06519
4.00954
4.02014
4.13351
4.28904
4.39293
4.42067
4.4048
4.39405
4.37117
4.36223
4.3518
4.35779
4.35434
4.36339
4.36883
4.36752
4.3603
4.34268
4.31621
4.31056
4.35246
4.6098
4.63883
4.64046
4.62791
4.62744
4.63876
4.64736
4.64336
4.60301
4.5319
4.46417
4.44552
4.53885
4.62111
4.68477
4.73771
4.7618
4.80933
4.83765
4.84988
4.87084
4.87282
4.85376
4.83541
4.82365
4.81417
4.79303
4.77948
4.76022
4.75247
4.48723
4.56023
4.57793
4.62702
4.60333
4.50743
4.419
4.35448
4.30415
4.269
4.228
4.19986
4.17409
4.16533
4.16928
4.19068
4.23575
4.28127
4.3189
4.35261
4.37017
4.36294
4.37268
4.52025
4.68797
4.75911
4.76587
4.7897
4.79149
4.74212
4.916
4.80105
4.64815
4.55626
4.54861
4.59547
4.67
4.789
4.91228
4.97076
4.9868
4.95099
4.83063
4.67437
4.53825
4.4344
4.34953
4.26302
4.20446
4.17078
4.15866
4.20625
4.29195
4.39984
4.5347
4.65576
4.73859
4.80598
4.83379
4.77312
5.86623
5.38925
5.14633
5.16607
5.29231
5.37786
5.43316
5.4672
5.61182
5.89379
6.0372
6.07566
6.04104
5.96954
5.86723
5.77269
5.71471
5.6489
5.58609
5.60695
5.6351
5.70336
5.79049
5.82026
5.86359
5.84228
5.85457
6.06461
6.56572
6.75397
5.13161
4.61318
4.54024
4.6097
4.63984
4.65798
4.67022
4.67501
4.66884
4.6574
4.63867
4.62538
4.61675
4.60937
4.61958
4.63781
4.6728
4.68241
4.68818
4.6683
4.59853
4.561
4.66037
4.83252
4.9572
4.99508
4.95666
4.90656
4.85423
4.7965
4.81952
4.73183
4.75247
4.8318
4.92722
4.994
5.03717
5.07254
5.10782
5.09184
5.11374
5.13239
5.12857
5.13153
5.10795
5.08636
5.05877
5.00558
4.92127
4.85825
4.88458
4.97094
5.01818
5.00295
5.01183
5.07284
5.14765
5.13229
4.95977
4.95096
5.6757
5.64522
5.31766
5.14324
5.25729
5.5168
5.77467
5.95853
6.13238
6.18935
6.3254
6.34286
6.40085
6.35569
6.30398
6.2916
6.19909
6.06359
5.99021
5.86822
5.70033
5.60344
5.50033
5.44298
5.49941
5.50128
5.51086
5.4806
5.39504
5.36502
5.4045
5.26071
5.15629
5.2904
5.49544
5.67906
5.85361
5.99819
5.98027
6.08386
6.25718
6.25766
6.20557
6.22341
6.06398
5.8903
5.79544
5.771
5.79964
6.00049
6.56819
6.90949
6.87619
6.72637
6.54669
6.44417
6.49302
6.58071
6.49473
6.21659
7.12037
6.94544
7.0531
7.12356
7.07452
6.85729
6.61809
6.35715
6.16954
6.00595
5.8198
5.82272
5.77874
5.83133
5.97106
6.11837
6.32335
6.62864
6.62997
6.78389
6.69621
6.7435
6.61794
6.64392
6.63138
6.58964
6.52243
6.43473
6.33882
6.32421
5.18823
6.10944
6.25948
5.64912
5.04367
4.4001
4.05087
3.99105
3.98518
3.95374
3.91282
3.90304
3.89
3.89352
3.89612
3.90851
3.92127
3.97685
4.09995
4.32891
4.70031
5.10079
5.22174
5.12821
5.0121
4.97114
4.76077
4.68921
4.87516
4.93286
3.0208
2.99298
3.01108
3.05997
3.09396
3.13296
3.16976
3.16299
3.03971
2.8301
2.74521
2.80024
2.77667
2.53148
3.95936
3.87311
3.85996
3.56415
3.25049
3.11875
3.07174
3.06441
3.09463
3.18658
3.29283
3.48548
3.7172
3.83745
3.86585
3.83297
3.74411
3.62233
3.51075
3.43741
3.41732
3.44783
3.50859
3.5685
3.60591
3.61638
3.61977
3.65653
3.79223
3.99857
4.59453
4.61644
4.57859
4.49902
4.41632
4.38626
4.34395
4.23811
4.12176
4.06175
4.11285
4.2872
4.41198
4.42572
4.39282
4.3676
4.32208
4.30356
4.28033
4.27011
4.26418
4.28318
4.29833
4.3322
4.3459
4.35414
4.34652
4.32897
4.31411
4.35188
4.62388
4.65079
4.64382
4.61809
4.62608
4.6434
4.65548
4.65724
4.61708
4.53726
4.45861
4.45002
4.59217
4.68267
4.74349
4.77762
4.8088
4.86465
4.84698
4.88661
4.90131
4.88264
4.87691
4.86738
4.84449
4.83918
4.81708
4.79652
4.77364
4.7554
4.4798
4.56702
4.61536
4.63624
4.52765
4.4183
4.34534
4.29413
4.23848
4.19221
4.14106
4.09892
4.07163
4.06289
4.0661
4.07034
4.10113
4.1716
4.24077
4.30301
4.34593
4.3579
4.36286
4.43906
4.59951
4.70278
4.69489
4.7555
4.79182
4.73808
4.92898
4.78995
4.60859
4.49337
4.44291
4.46268
4.56167
4.76565
4.91565
4.98991
4.98157
4.9023
4.72546
4.56238
4.453
4.357
4.23878
4.12729
4.04742
3.98017
3.9692
3.99078
4.064
4.18718
4.34575
4.52117
4.65404
4.75963
4.81977
4.77999
5.87343
5.344
5.06833
5.04794
5.1418
5.27715
5.38706
5.44544
5.64829
5.93947
6.07447
6.11712
6.0326
5.91555
5.79806
5.64802
5.49551
5.38139
5.32833
5.29949
5.35747
5.45173
5.59706
5.71836
5.82559
5.83745
5.8567
5.96266
6.39939
6.74071
5.09265
4.4836
4.57996
4.60066
4.62732
4.66724
4.68426
4.68197
4.65747
4.63364
4.59453
4.58552
4.58222
4.59088
4.58884
4.58511
4.6136
4.66475
4.68775
4.69045
4.64969
4.58865
4.59488
4.72246
4.88391
4.98257
4.95922
4.91101
4.86526
4.80203
4.68258
4.69713
4.79616
4.8946
4.97492
5.01124
5.04738
5.08461
5.08002
5.05871
5.10729
5.06855
5.07932
5.10389
5.11469
5.10902
5.08549
5.05993
4.98461
4.89998
4.87606
4.93549
4.98421
4.99698
4.99965
5.03234
5.12422
5.17228
5.01585
4.92247
5.66957
5.48282
5.03653
5.08419
5.39927
5.70754
5.93957
6.1185
6.20893
6.3186
6.37752
6.43105
6.44115
6.47412
6.42977
6.3338
6.24429
6.22643
6.09078
5.9031
5.80452
5.64247
5.47091
5.46358
5.449
5.4813
5.51266
5.47948
5.37256
5.29164
5.35522
5.09284
5.18978
5.45107
5.68124
5.85781
5.98913
5.99248
6.07031
6.22926
6.19193
6.1696
6.35263
6.37452
6.27792
6.13713
5.93492
5.8246
5.8031
5.92697
6.5185
6.88548
6.82495
6.64687
6.41846
6.30259
6.29356
6.3424
6.2789
6.13593
7.10689
6.86297
6.97836
6.9923
6.77708
6.47682
6.15494
5.86821
5.60403
5.41822
5.30894
5.20351
5.24789
5.28276
5.37549
5.65216
5.80801
6.26908
6.48744
6.75213
6.66637
6.75571
6.63045
6.60826
6.63423
6.61352
6.53808
6.45984
6.35849
6.32362
5.10412
5.93752
5.81996
5.01039
4.49646
4.11876
3.97305
3.95676
3.92243
3.88747
3.86572
3.85746
3.86814
3.86895
3.88029
3.88027
3.89676
3.90553
3.94588
4.0648
4.3284
4.80324
5.21928
5.16342
4.88005
4.90487
5.05973
5.03473
5.03988
4.87369
2.9705
2.99942
3.08228
3.10586
3.07661
3.05047
3.12709
3.23518
3.2164
2.99911
2.75239
2.76243
2.77501
2.5534
3.96021
3.85777
3.90492
3.68908
3.35287
3.16301
3.10448
3.11656
3.20944
3.30964
3.35419
3.51109
3.75319
3.86259
3.85395
3.76003
3.58643
3.39901
3.24939
3.16081
3.1421
3.19598
3.30422
3.42867
3.52287
3.56459
3.58476
3.6267
3.76849
3.99089
4.59032
4.61909
4.6003
4.54686
4.51741
4.49735
4.40337
4.25275
4.1474
4.11893
4.24729
4.41426
4.43256
4.39012
4.34112
4.29253
4.26047
4.23522
4.23635
4.22834
4.22894
4.22783
4.25073
4.27718
4.31951
4.34081
4.34704
4.33326
4.31952
4.3546
4.64463
4.65948
4.63366
4.6206
4.64683
4.67868
4.67792
4.65956
4.62805
4.54139
4.44059
4.49606
4.65582
4.72911
4.78271
4.79769
4.84783
4.80536
4.84946
4.84884
4.83744
4.87362
4.9047
4.90188
4.85958
4.85393
4.83876
4.81495
4.787
4.76084
4.48307
4.56983
4.64922
4.56245
4.4346
4.36355
4.31119
4.2585
4.19403
4.13642
4.07895
4.03787
3.99653
3.95654
3.95584
3.97791
4.00964
4.06348
4.15375
4.24119
4.31069
4.34741
4.35497
4.39695
4.51815
4.61624
4.63005
4.71405
4.76625
4.73294
4.92017
4.81427
4.61686
4.47029
4.41473
4.41888
4.56428
4.79827
4.94728
4.9937
4.96768
4.83412
4.63163
4.52749
4.4481
4.32483
4.1703
4.03313
3.9163
3.83008
3.79582
3.80879
3.87895
4.0091
4.17255
4.38887
4.56966
4.70823
4.80589
4.77974
5.91596
5.35363
5.01989
4.91769
4.97451
5.16058
5.31434
5.37392
5.60961
5.95517
6.10622
6.13367
6.02422
5.92465
5.75148
5.54151
5.34782
5.19872
5.09791
5.07391
5.11592
5.252
5.42346
5.59976
5.76554
5.82051
5.86465
5.93273
6.32976
6.73368
4.98865
4.4915
4.57958
4.56803
4.62298
4.6784
4.69898
4.68061
4.64954
4.60446
4.56535
4.57433
4.57224
4.5538
4.56217
4.56439
4.54992
4.59459
4.65476
4.69446
4.67364
4.62139
4.58265
4.63573
4.77893
4.92225
4.94289
4.88789
4.84192
4.78948
4.65826
4.73989
4.84174
4.92136
4.98749
5.01855
5.07105
5.04727
5.04776
5.05278
5.03965
5.03323
5.01532
5.024
5.05344
5.08838
5.08275
5.08844
5.03429
4.94384
4.89436
4.91812
4.96122
4.9524
4.98291
5.02022
5.08057
5.16217
5.05151
4.90829
5.58034
5.06513
4.82354
5.14334
5.56713
5.84608
6.02792
6.16183
6.26177
6.38439
6.49673
6.52335
6.48501
6.47307
6.47369
6.40713
6.37071
6.21819
6.06363
6.03956
5.84966
5.62271
5.51334
5.39656
5.36356
5.41066
5.38559
5.38198
5.31412
5.23869
5.02749
5.00474
5.30022
5.60345
5.80071
5.94981
5.99634
6.08603
6.10873
6.06636
5.98526
6.19143
6.27649
6.36364
6.38899
6.26509
6.07708
5.92659
5.83305
5.90517
6.53982
6.82293
6.78185
6.61056
6.41168
6.27653
6.19318
6.13914
6.10614
6.07698
7.02831
6.79761
6.89291
6.8139
6.51362
6.12948
5.77085
5.4569
5.21668
5.0213
4.92224
4.84538
4.85828
4.94216
4.96758
5.26326
5.43424
5.84764
6.22252
6.65525
6.6688
6.71298
6.65779
6.57974
6.61432
6.62271
6.51941
6.45558
6.35544
6.32541
5.00183
5.70263
5.49099
4.57716
4.20553
3.99054
3.93045
3.91307
3.88511
3.84575
3.85554
3.83546
3.84859
3.8434
3.8396
3.86407
3.8778
3.89893
3.92258
3.96615
4.08219
4.41411
5.07559
5.40727
4.8831
4.56342
4.796
4.96136
4.87914
4.6239
2.93597
3.05183
3.08534
2.9241
2.74955
2.68035
2.76264
3.00574
3.20205
3.11255
2.79226
2.73543
2.76346
2.55968
3.9706
3.8546
3.92289
3.84917
3.58213
3.35042
3.26988
3.32011
3.45742
3.48932
3.43671
3.56508
3.80251
3.87272
3.82122
3.64412
3.40246
3.18171
3.02966
2.94786
2.93399
2.99832
3.13198
3.29975
3.44039
3.51101
3.54953
3.60641
3.77034
3.99803
4.58414
4.61803
4.60256
4.58236
4.55983
4.51368
4.37994
4.23046
4.16851
4.20102
4.37862
4.44911
4.3984
4.35121
4.28683
4.25758
4.23326
4.22616
4.20285
4.20257
4.19714
4.21159
4.22006
4.25225
4.28708
4.33159
4.33893
4.3328
4.32521
4.37114
4.63992
4.66219
4.64642
4.63728
4.65627
4.68524
4.6968
4.67922
4.64671
4.53874
4.43294
4.55247
4.70222
4.75136
4.80434
4.80669
4.82458
4.78336
4.81701
4.81072
4.84748
4.84903
4.86394
4.90238
4.8792
4.86268
4.85429
4.8301
4.79895
4.76549
4.4811
4.60195
4.6532
4.47867
4.39453
4.34953
4.29872
4.24109
4.17169
4.11804
4.05313
3.97907
3.91257
3.86491
3.8471
3.86846
3.9371
3.98761
4.09166
4.18766
4.27497
4.32917
4.34945
4.3817
4.4627
4.54593
4.57514
4.70028
4.74782
4.72645
4.92897
4.84396
4.66424
4.50727
4.44732
4.49303
4.67269
4.86946
4.97025
4.99448
4.93284
4.7591
4.59591
4.55908
4.47716
4.32509
4.13011
3.96956
3.83538
3.744
3.70676
3.71692
3.78008
3.89989
4.06028
4.28062
4.49732
4.66735
4.78866
4.77201
5.97898
5.42179
5.0167
4.84674
4.84356
5.05761
5.25859
5.29755
5.51218
5.91014
6.12058
6.14367
6.07103
5.95258
5.71817
5.52882
5.28598
5.07356
4.96468
4.94363
4.99765
5.12292
5.31322
5.51736
5.69812
5.82103
5.86192
5.94212
6.32546
6.74485
4.7996
4.52519
4.50265
4.51177
4.61339
4.68959
4.70717
4.69181
4.63799
4.57829
4.5834
4.56732
4.56604
4.61338
4.61548
4.61063
4.56204
4.55114
4.62773
4.66911
4.68281
4.64377
4.58862
4.60467
4.70693
4.85625
4.91507
4.85966
4.79909
4.77496
4.66622
4.76487
4.84712
4.92263
4.9852
5.0316
5.06426
5.03166
5.0612
5.03132
5.00467
4.98011
4.98322
5.01108
5.01584
5.0663
5.07689
5.06897
5.04573
4.9758
4.88512
4.87605
4.91989
4.92369
4.94867
5.00134
5.05728
5.13938
5.05093
4.8979
5.39333
4.6642
4.76086
5.27798
5.68635
5.87289
6.09208
6.19294
6.30705
6.45113
6.49122
6.44071
6.43675
6.37848
6.35347
6.40973
6.36627
6.15953
6.18556
6.04126
5.81449
5.68639
5.49781
5.35997
5.37504
5.37645
5.30932
5.26424
5.23465
5.16334
4.79947
4.99138
5.41121
5.68571
5.84362
5.97093
6.06979
6.11216
5.99626
5.95673
6.0466
6.14122
6.25358
6.40368
6.48593
6.37644
6.17578
6.00658
5.88582
5.94963
6.58531
6.72721
6.67635
6.57105
6.47719
6.409
6.36013
6.33196
6.30515
6.26287
7.06167
6.71296
6.77829
6.63476
6.29176
5.8903
5.50366
5.19438
4.95703
4.79154
4.68872
4.645
4.61194
4.72193
4.73667
4.98046
5.19207
5.52262
5.95345
6.44432
6.67001
6.65211
6.65068
6.55118
6.58133
6.57755
6.50891
6.43257
6.35085
6.31635
4.88668
5.42822
5.3589
4.35428
4.06006
3.93993
3.90985
3.89264
3.86872
3.8266
3.84686
3.81931
3.84583
3.82962
3.85092
3.84517
3.8465
3.86203
3.90079
3.965
4.0279
4.15558
4.68378
5.53715
5.42679
4.55551
4.38453
4.52233
4.51682
4.43063
2.94127
3.0747
2.89308
2.60621
2.47949
2.4586
2.50172
2.72173
3.06103
3.08511
2.79293
2.71497
2.75406
2.54441
3.99654
3.84492
3.90577
3.94433
3.80519
3.62165
3.56035
3.63143
3.72078
3.64938
3.50611
3.62732
3.83988
3.87073
3.76523
3.52081
3.25264
3.03924
2.90276
2.84986
2.84098
2.89676
3.04153
3.22871
3.3852
3.46683
3.51979
3.60462
3.79578
4.0063
4.56589
4.60875
4.60316
4.58512
4.55534
4.49368
4.32804
4.23472
4.23561
4.30069
4.45828
4.42531
4.3673
4.31105
4.26225
4.23759
4.21926
4.20753
4.21166
4.20132
4.19766
4.19721
4.21094
4.23499
4.27957
4.32038
4.33602
4.32821
4.33104
4.38208
4.646
4.67927
4.6482
4.63299
4.66269
4.69307
4.701
4.67778
4.64934
4.52118
4.43783
4.59773
4.72163
4.77598
4.81642
4.80477
4.8363
4.75419
4.80289
4.7709
4.80413
4.81656
4.83532
4.89295
4.88861
4.86914
4.86157
4.83679
4.80474
4.77382
4.48968
4.62408
4.5715
4.43884
4.38817
4.35225
4.30066
4.2361
4.17833
4.10518
4.03725
3.95681
3.89716
3.84637
3.81281
3.80792
3.87799
3.93556
4.05286
4.15675
4.24842
4.31361
4.33926
4.3668
4.42721
4.48687
4.55344
4.68866
4.73377
4.71806
4.92461
4.88053
4.7495
4.62204
4.57062
4.64984
4.81147
4.92854
4.98348
4.97848
4.88947
4.7009
4.61121
4.62279
4.53538
4.35191
4.14347
3.96562
3.82552
3.70977
3.6673
3.66782
3.72587
3.84475
4.00287
4.21851
4.45425
4.64012
4.77283
4.7689
6.05955
5.53217
5.06959
4.83614
4.7693
4.9431
5.17001
5.22072
5.40787
5.78961
6.08394
6.17922
6.13214
5.97309
5.7864
5.57643
5.28209
5.08928
4.9665
4.91399
4.98622
5.09862
5.27563
5.48252
5.67619
5.82878
5.88468
5.96524
6.38246
6.779
4.666
4.50916
4.41968
4.46964
4.60408
4.69032
4.7311
4.69474
4.63375
4.59834
4.58416
4.55961
4.59592
4.60894
4.59952
4.6188
4.55154
4.55392
4.57965
4.65214
4.6734
4.65184
4.59697
4.58764
4.66586
4.79651
4.84922
4.79469
4.74704
4.72224
4.67637
4.76527
4.83524
4.90933
4.99005
5.03452
5.04473
5.06071
5.06601
5.00897
4.99174
4.97332
4.96251
4.97738
4.98363
5.03663
5.04725
5.07358
5.04645
4.97447
4.9019
4.8742
4.87458
4.90798
4.95456
4.95392
5.01417
5.12153
5.02279
4.85699
5.04366
4.41235
4.74616
5.37244
5.72924
5.90637
6.08248
6.22262
6.38508
6.42087
6.50067
6.36556
6.38024
6.39912
6.37516
6.3168
6.28026
6.2977
6.16038
5.96038
5.90045
5.66281
5.45385
5.3483
5.30384
5.29248
5.19596
5.18335
5.15767
5.15311
4.73474
5.03913
5.49469
5.71387
5.88347
6.00845
6.1033
6.04956
5.97378
6.01529
5.94703
6.00852
6.13717
6.28822
6.49153
6.44683
6.25164
6.06104
5.92666
6.02943
6.58826
6.5541
6.44863
6.32396
6.24836
6.21081
6.2229
6.2841
6.41857
6.57197
7.1324
6.64646
6.65389
6.54438
6.18726
5.76893
5.38672
5.06255
4.84079
4.67474
4.57649
4.52387
4.51698
4.57376
4.63022
4.81122
5.04081
5.34648
5.74624
6.19044
6.63933
6.63056
6.57565
6.56164
6.51663
6.53736
6.47501
6.40316
6.31753
6.30891
4.92051
4.9642
5.19418
4.4907
3.99849
3.91719
3.89817
3.87296
3.86081
3.82345
3.83912
3.81906
3.84127
3.82886
3.84843
3.85934
3.86242
3.86276
3.8714
3.94093
4.04849
4.09814
4.29575
5.34176
6.10247
5.18866
4.48659
4.45776
4.60455
4.7726
2.96348
3.02912
2.65149
2.44582
2.42649
2.44113
2.45444
2.56826
2.86978
2.97032
2.73728
2.7033
2.73881
2.54327
2.79853
3.36071
3.95225
3.85767
3.88533
3.94232
3.94862
3.87464
3.84509
3.86634
3.86125
3.72758
3.55616
3.68995
3.86723
3.8582
3.70844
3.43617
3.17529
2.98343
2.87301
2.83512
2.83349
2.90291
3.04825
3.21867
3.35821
3.43815
3.51044
3.63961
3.8579
4.07154
4.26597
4.40274
4.55992
4.60773
4.59607
4.5714
4.54115
4.40611
4.27013
4.27299
4.3112
4.39759
4.46946
4.39592
4.34748
4.29276
4.25742
4.22906
4.21963
4.20458
4.2043
4.21274
4.19205
4.20786
4.20256
4.24897
4.28769
4.32212
4.33412
4.33266
4.34778
4.39461
4.49921
4.55417
4.65903
4.68206
4.65812
4.64904
4.67015
4.70075
4.70642
4.67138
4.64856
4.50293
4.44171
4.62149
4.73488
4.77843
4.80707
4.83208
4.83227
4.76424
4.81591
4.77528
4.80586
4.7981
4.83564
4.89017
4.8863
4.87717
4.86701
4.84393
4.81057
4.76084
4.46983
4.45728
4.55726
4.62655
4.52123
4.44772
4.39787
4.36832
4.31836
4.25087
4.19339
4.12652
4.06413
3.97783
3.90576
3.84134
3.81537
3.80983
3.88024
3.9358
4.05519
4.15118
4.24562
4.30611
4.33106
4.35923
4.40489
4.44273
4.61291
4.71728
4.73519
4.74983
4.77745
4.80532
4.87762
4.89995
4.8388
4.76742
4.75472
4.82648
4.90735
4.96205
4.98227
4.95174
4.84505
4.6733
4.65782
4.70052
4.62089
4.42451
4.21441
4.01674
3.87083
3.74858
3.69215
3.69235
3.73636
3.85027
4.00006
4.21206
4.43546
4.62401
4.76441
4.74457
5.04824
5.75386
6.08752
5.69345
5.21791
4.91857
4.78657
4.89439
5.09584
5.12786
5.24538
5.63162
6.01689
6.1817
6.1433
6.01822
5.89048
5.67809
5.38015
5.18623
5.05166
5.01902
5.06089
5.14344
5.3172
5.51736
5.69667
5.84525
5.91392
6.0662
6.49112
6.34716
4.69057
4.49552
4.53066
4.39833
4.31739
4.39956
4.56765
4.70408
4.73144
4.70581
4.6549
4.6175
4.57513
4.57468
4.59034
4.6118
4.60633
4.60539
4.55364
4.54028
4.56668
4.63205
4.65978
4.64536
4.59963
4.57509
4.64711
4.80437
4.7532
4.67866
4.64217
4.63312
4.63433
4.66692
4.69736
4.75509
4.8293
4.90078
4.98509
5.03367
5.03647
5.072
5.08897
5.00494
4.99741
4.96128
4.94765
4.95114
4.98947
4.99099
5.04616
5.04644
5.0149
4.97159
4.90088
4.8659
4.84783
4.88874
4.95216
4.91595
4.96768
5.08583
4.97934
4.86192
4.7241
4.4855
4.39898
4.25983
4.67424
5.34241
5.71861
5.90142
6.08988
6.17549
6.42832
6.40769
6.46407
6.36402
6.36708
6.38841
6.30612
6.25077
6.43087
6.18618
6.10205
6.04516
5.8557
5.60186
5.46618
5.29933
5.29283
5.24001
5.17226
5.11973
5.09855
5.05479
4.80501
4.69528
4.7335
5.08448
5.5243
5.71477
5.90261
5.99983
6.14023
6.0803
6.00283
5.97216
5.94788
6.06081
6.16954
6.33172
6.44008
6.47738
6.27688
6.09655
5.94696
6.17518
6.51772
6.35136
6.19218
6.07346
6.00275
5.99114
6.00125
6.03085
6.16637
6.42638
6.79417
7.01645
7.16039
6.74466
6.57308
6.46278
6.19842
5.80459
5.41776
5.07219
4.83367
4.65558
4.54692
4.4983
4.49385
4.52228
4.61997
4.75584
4.99057
5.25844
5.61838
6.04399
6.5608
6.56838
6.51328
6.50271
6.4696
6.46151
6.42801
6.3663
6.30243
6.30563
6.25273
5.54743
4.86341
4.68183
4.72063
4.72223
4.04842
3.89822
3.88814
3.87346
3.85046
3.83021
3.83862
3.818
3.84111
3.82572
3.84911
3.85749
3.85812
3.8538
3.87298
3.94038
4.06698
4.13637
4.17254
4.92564
6.36038
6.2339
5.28344
5.16697
5.30832
4.64035
3.33274
3.09796
2.97438
2.90134
2.4958
2.42505
2.49679
2.5262
2.48777
2.52901
2.72547
2.79753
2.6691
2.7046
2.72834
2.55085
2.77059
3.3478
3.92254
3.89937
3.86487
3.89925
3.94328
3.96629
3.96117
3.9517
3.89675
3.73952
3.59138
3.75272
3.88166
3.84113
3.67663
3.41029
3.17163
3.00393
2.91388
2.88664
2.91436
2.98896
3.10949
3.23963
3.35084
3.43455
3.54224
3.72275
3.95319
4.15003
4.28462
4.41434
4.55803
4.59337
4.57954
4.56339
4.48029
4.29742
4.2922
4.36415
4.37589
4.44942
4.45372
4.38421
4.33852
4.28714
4.26061
4.23077
4.22423
4.20392
4.20224
4.19959
4.2076
4.21151
4.2238
4.26879
4.30418
4.32363
4.32585
4.33349
4.36243
4.43429
4.58898
4.5756
4.656
4.68667
4.67684
4.65996
4.68076
4.70738
4.70262
4.67234
4.64838
4.47753
4.44173
4.63467
4.7321
4.76382
4.80767
4.84672
4.83117
4.81762
4.80622
4.78644
4.80977
4.81028
4.86211
4.89791
4.88492
4.87643
4.86467
4.83959
4.79843
4.69069
4.44001
4.5354
4.62985
4.62095
4.54504
4.48101
4.42104
4.388
4.34862
4.28634
4.22165
4.16956
4.11385
4.0375
3.96704
3.90274
3.88345
3.87928
3.93052
3.99329
4.09241
4.17488
4.25895
4.30196
4.32953
4.35215
4.38815
4.46336
4.69463
4.6938
4.73268
4.78725
4.8241
4.84737
4.87229
4.90763
4.8948
4.87436
4.88413
4.91985
4.95825
4.97094
4.96429
4.9135
4.81292
4.67276
4.70108
4.78169
4.73748
4.55703
4.34108
4.12656
3.9731
3.84784
3.78116
3.76235
3.80664
3.90571
4.0511
4.24876
4.44628
4.63715
4.75339
4.73539
4.93844
5.54024
6.09173
5.8365
5.41954
5.08654
4.88097
4.90974
5.06102
5.08639
5.09695
5.41324
5.88589
6.12241
6.15909
6.08127
5.97099
5.79526
5.58361
5.40571
5.26278
5.17598
5.17945
5.28829
5.45734
5.58693
5.77042
5.8717
5.96834
6.19657
6.54242
6.06383
4.62495
4.42223
4.41258
4.26482
4.20766
4.32447
4.53739
4.6806
4.73282
4.72255
4.68644
4.62191
4.58381
4.57948
4.59171
4.60295
4.5569
4.56221
4.52651
4.54141
4.56184
4.62423
4.63996
4.62915
4.59122
4.58091
4.65372
4.80592
4.71594
4.65319
4.61149
4.59284
4.60818
4.62489
4.65098
4.71141
4.79771
4.87158
4.95192
5.01263
5.04197
5.0576
5.0705
5.04861
5.02976
5.01282
4.99219
4.98999
4.98621
5.01332
5.02268
5.01703
4.97708
4.95547
4.86979
4.85051
4.8564
4.92167
4.86291
4.85736
4.95675
4.99148
4.89605
4.79017
4.46545
4.18723
4.11402
4.14633
4.49482
5.23326
5.66591
5.85946
6.07339
6.14886
6.38027
6.42935
6.49905
6.35245
6.38845
6.31786
6.31252
6.38542
6.34343
6.10592
6.19936
5.95972
5.78932
5.60418
5.39425
5.2636
5.2799
5.23056
5.11656
5.04561