/*--------------------------------*- C++ -*----------------------------------*\
| =========                 |                                                 |
| \\      /  F ield         | OpenFOAM: The Open Source CFD Toolbox           |
|  \\    /   O peration     | Version:  2.1.1                                 |
|   \\  /    A nd           | Web:      www.OpenFOAM.org                      |
|    \\/     M anipulation  |                                                 |
\*---------------------------------------------------------------------------*/
FoamFile
{
    version     2.0;
    format      ascii;
    class       volScalarField;
    location    "0.004650000";
    object      fH;
}
// * * * * * * * * * * * * * * * * * * * * * * * * * * * * * * * * * * * * * //

dimensions      [0 0 0 0 0 0 0];

internalField   nonuniform List<scalar> 
12384
(
0.037087
0.0364632
0.0356715
0.0349359
0.0346691
0.0347943
0.0355428
0.0365085
0.0372245
0.0371121
0.0364131
0.0349677
0.0284336
0.0246818
0.0222831
0.0230014
0.0231696
0.0231904
0.0231723
0.0231739
0.0232158
0.0233203
0.0234432
0.0235501
0.0236114
0.0235895
0.0235954
0.0235931
0.0235719
0.0235269
0.0235042
0.0234514
0.0234118
0.0233496
0.0233086
0.0232457
0.0232179
0.0232113
0.02329
0.0230425
0.0207753
0.0213066
0.0234621
0.0245959
0.0298947
0.0307646
0.030761
0.0305726
0.0303035
0.0299973
0.0296605
0.0292465
0.0287883
0.0284935
0.0285946
0.0290844
0.0297615
0.030215
0.0305471
0.0304818
0.0305644
0.0301784
0.0300244
0.029849
0.0297516
0.0293054
0.0290874
0.0287952
0.0283314
0.0280303
0.0291363
0.0281544
0.0255611
0.0241722
0.0308621
0.0318038
0.0316874
0.0312228
0.0309184
0.0306114
0.0303511
0.0300332
0.0297625
0.0294865
0.0292628
0.0290604
0.0288599
0.028772
0.0286474
0.0286915
0.028647
0.0287618
0.0287974
0.0288796
0.0289172
0.028982
0.0290154
0.0288783
0.0292871
0.0297429
0.0295524
0.0279213
0.0276363
0.0277157
0.0298588
0.0318427
0.0326888
0.0332844
0.0334456
0.0333071
0.0330484
0.032725
0.0321688
0.0321539
0.031185
0.0315423
0.0306006
0.0308568
0.0300971
0.0303037
0.029627
0.0298579
0.0293917
0.029407
0.0293374
0.0293886
0.0295958
0.030282
0.0309936
0.0289286
0.0262624
0.0265313
0.0269148
0.0270724
0.0291214
0.0331888
0.0327266
0.0312273
0.0310052
0.0316893
0.0325402
0.0332452
0.0338423
0.0342286
0.0345231
0.034748
0.0349202
0.0350267
0.0350946
0.0351284
0.035134
0.0351198
0.0350908
0.0349954
0.0350485
0.0349886
0.0349136
0.0348187
0.0347296
0.0344882
0.0338849
0.0317404
0.0293531
0.0280964
0.0292214
0.0316224
0.0357476
0.0355195
0.0318537
0.0302599
0.0301424
0.0302924
0.0301299
0.0296177
0.0290044
0.0285131
0.0282669
0.0280762
0.0280124
0.0280104
0.0280473
0.0281044
0.0281273
0.0280767
0.0281031
0.028015
0.028027
0.0278481
0.0278157
0.0277465
0.0276637
0.027482
0.0280121
0.0277134
0.0223231
0.0254215
0.0341536
0.0355373
0.0345831
0.0342539
0.0339926
0.0337737
0.0335553
0.0333562
0.0331971
0.0330667
0.0329906
0.0329279
0.0328736
0.0328914
0.0329111
0.0330267
0.0331199
0.0332903
0.0334285
0.0336739
0.0338599
0.0341453
0.0344105
0.0347981
0.0351644
0.0351338
0.0339073
0.0331259
0.0194537
0.0237559
0.0413402
0.043147
0.0408266
0.0396689
0.0389842
0.0387724
0.0386771
0.0386447
0.0385681
0.0384635
0.0384656
0.0384352
0.0385785
0.038663
0.0389571
0.0391157
0.039518
0.03991
0.0404789
0.0410644
0.0417305
0.0426345
0.0439155
0.0454819
0.0469256
0.0479579
0.048572
0.0427505
0.0247633
0.0284457
0.0298825
0.0297263
0.0302547
0.0317818
0.0339771
0.0361641
0.0375683
0.0382819
0.0385776
0.0385746
0.0383639
0.0382987
0.0375995
0.0379068
0.0372955
0.0376664
0.0369992
0.0376404
0.0375018
0.0377425
0.0375189
0.0372421
0.0372881
0.0377142
0.0374969
0.0371758
0.0376473
0.0377813
0.0309908
0.0399334
0.0414921
0.0426299
0.0432435
0.0429949
0.0420888
0.0415373
0.0417234
0.0415968
0.0418359
0.0415312
0.0411515
0.0411069
0.040447
0.0401219
0.0395749
0.0393087
0.0389174
0.0384966
0.0381785
0.0377822
0.0377295
0.0374121
0.036741
0.0361267
0.0389281
0.038705
0.0373373
0.0372033
0.0228956
0.0329924
0.0456541
0.0473214
0.0445972
0.0416389
0.039854
0.0386105
0.0378232
0.0371755
0.0367877
0.0365875
0.0366176
0.0368172
0.0371695
0.037601
0.0380677
0.0384973
0.0387902
0.0390486
0.0392209
0.0391784
0.0392292
0.0389923
0.0389064
0.0385759
0.0385618
0.0357168
0.0190393
0.0179578
0.0171422
0.016777
0.0166424
0.0195887
0.0298026
0.0451852
0.0531421
0.0559504
0.0571822
0.0582915
0.0585318
0.0593185
0.0592879
0.0594002
0.059334
0.0590841
0.0586504
0.0577067
0.0562378
0.0539167
0.0507408
0.047256
0.043822
0.0405571
0.0370178
0.0319742
0.0252387
0.0197408
0.0171964
0.0177512
0.0314262
0.0293483
0.0281448
0.0270334
0.0271405
0.0269528
0.0280166
0.0295058
0.0327699
0.0353731
0.0362345
0.0354914
0.0311639
0.0253952
0.0222607
0.0231208
0.023289
0.0232956
0.0234791
0.023708
0.0242691
0.0245255
0.0245903
0.0244773
0.0242686
0.0240484
0.0238743
0.023776
0.0237431
0.0237274
0.0237425
0.0237566
0.0237492
0.0237102
0.0236265
0.0235123
0.0234154
0.0233156
0.0233194
0.0232797
0.0221776
0.0208748
0.020942
0.0226246
0.0298644
0.0306975
0.0301484
0.0294399
0.0288204
0.0282226
0.0275489
0.0272585
0.0277977
0.0299314
0.0320999
0.0332154
0.0334978
0.0333467
0.0328593
0.031903
0.030971
0.0303792
0.0299957
0.030149
0.0301157
0.0302861
0.0300089
0.0297078
0.0290076
0.0283326
0.0286431
0.029216
0.0287314
0.0255218
0.0310123
0.0319453
0.0312699
0.0305769
0.030154
0.0296735
0.0291215
0.0285895
0.0280974
0.0277196
0.0274495
0.0273047
0.027312
0.0274201
0.0276112
0.0278555
0.0281846
0.0284997
0.0286934
0.0288532
0.0288703
0.0288298
0.0288005
0.0287246
0.0287606
0.0291589
0.0294913
0.0289904
0.0282653
0.0281201
0.0292207
0.0314004
0.0335454
0.0345858
0.0344875
0.0337109
0.0326464
0.031562
0.0308119
0.0300348
0.0296597
0.0289112
0.0289344
0.0282336
0.0282959
0.02785
0.0276565
0.027355
0.0271764
0.027162
0.0271319
0.0272781
0.027695
0.0286273
0.0301254
0.0299407
0.0276115
0.0266643
0.0273405
0.0276064
0.0297028
0.0327362
0.0315188
0.0315035
0.0331466
0.0345356
0.035308
0.03576
0.0358614
0.0358787
0.0359197
0.0360142
0.0361132
0.0361046
0.0360536
0.0360203
0.0360047
0.0359778
0.0359215
0.0358376
0.0356975
0.035586
0.0353668
0.0352016
0.0350414
0.0348839
0.0344624
0.033254
0.0314342
0.0298531
0.0297598
0.0334853
0.0350155
0.0324162
0.0309407
0.0312684
0.0318014
0.0307332
0.0286309
0.027009
0.0259366
0.0252754
0.0251159
0.025469
0.0260735
0.026799
0.0275539
0.0282745
0.0287525
0.0290917
0.0291928
0.029109
0.0288174
0.0283298
0.0279044
0.0275254
0.0273995
0.0272878
0.0277226
0.0278451
0.0251101
0.030453
0.0350686
0.0351083
0.0348004
0.0347491
0.0345393
0.034066
0.0334507
0.0328746
0.0323677
0.0318919
0.031525
0.0313102
0.0312144
0.0312923
0.031365
0.0314761
0.0316377
0.0318531
0.03214
0.0324334
0.0327379
0.0330468
0.033394
0.0338504
0.0344294
0.0348311
0.0341145
0.0330286
0.0265906
0.0355205
0.0414184
0.0393911
0.0377485
0.0374932
0.0376468
0.0375939
0.0372543
0.0367082
0.0359834
0.0356313
0.0352382
0.0351456
0.0351024
0.0350817
0.0352827
0.0356105
0.036236
0.0370238
0.0379958
0.0390881
0.0401944
0.0413806
0.0427769
0.0444039
0.0458867
0.0468926
0.0478854
0.0444746
0.027396
0.0290245
0.028903
0.029389
0.0323066
0.0362969
0.0391304
0.0400439
0.0398812
0.0388876
0.0375182
0.036067
0.0348152
0.0335813
0.0328071
0.0320093
0.0316896
0.0317568
0.0320173
0.0329785
0.0341578
0.0356591
0.0365315
0.0370749
0.0370436
0.037144
0.0373475
0.0371986
0.0370886
0.0372475
0.0332434
0.0398241
0.0410906
0.0424329
0.0430265
0.0426303
0.0427205
0.0433172
0.043742
0.0435698
0.0426578
0.0414165
0.0399365
0.0384463
0.0370329
0.0357992
0.0349126
0.0343385
0.0339736
0.0339805
0.0341762
0.0347347
0.0351773
0.0357717
0.0360867
0.0357887
0.0368504
0.0391362
0.0404765
0.040115
0.0335945
0.0421448
0.0460958
0.0423917
0.0387235
0.0361401
0.0347273
0.0326889
0.0314656
0.0302345
0.0298744
0.0299497
0.0303341
0.0310438
0.0320833
0.0334402
0.0351783
0.0370431
0.0386753
0.0398673
0.0405025
0.0405567
0.0401352
0.0394449
0.0388244
0.038257
0.038254
0.0373555
0.030467
0.0201348
0.0167825
0.0167848
0.0205712
0.0314386
0.0442688
0.0532301
0.0567128
0.0585071
0.0596935
0.0603888
0.0611755
0.0615899
0.0620828
0.0622922
0.0624269
0.0627432
0.0626535
0.0629904
0.0625218
0.0618512
0.060084
0.0575322
0.0547184
0.051924
0.0493966
0.0468816
0.0389799
0.0278335
0.0187555
0.0176606
0.0270672
0.0257491
0.0253941
0.025376
0.0255703
0.0256508
0.0255922
0.0258437
0.0279598
0.0315266
0.0347608
0.035309
0.0326012
0.0264152
0.0222999
0.0233371
0.0236916
0.0241275
0.0250005
0.0255105
0.0255799
0.0251685
0.024574
0.0240173
0.0235626
0.0232762
0.0231854
0.0232763
0.023471
0.0237367
0.0239258
0.0240327
0.024043
0.0239488
0.0238979
0.0238016
0.0236955
0.0235423
0.0234392
0.02341
0.022925
0.0218585
0.0211767
0.0218845
0.0298741
0.0302994
0.0288812
0.0275025
0.0266307
0.026532
0.0276094
0.0302392
0.0330807
0.0348436
0.0351271
0.0348417
0.0342041
0.0332853
0.031663
0.0295423
0.0282167
0.0275013
0.0275126
0.0277628
0.0283595
0.0289577
0.029624
0.0299389
0.0296031
0.0287751
0.0284523
0.029094
0.0296707
0.0270736
0.0311639
0.03184
0.0307388
0.0301762
0.029721
0.0291384
0.0286445
0.0281477
0.0276277
0.0271844
0.026934
0.0269263
0.0271385
0.0275155
0.0280762
0.0287267
0.0293415
0.0298365
0.0299647
0.0302775
0.0301249
0.0303057
0.029943
0.0295441
0.0288366
0.0286599
0.0291109
0.0293262
0.0288477
0.0283778
0.0284993
0.0309845
0.0344394
0.0351486
0.034521
0.0327625
0.0309084
0.0295429
0.0289954
0.0284431
0.0287307
0.0284156
0.028651
0.0286714
0.0285598
0.0284619
0.0283246
0.0280197
0.0279317
0.0275175
0.0272365
0.0269183
0.0268117
0.0272409
0.028628
0.0298889
0.0289789
0.0274165
0.027437
0.0277533
0.0302477
0.0319381
0.0316624
0.0333806
0.0349633
0.0357816
0.0360271
0.0360306
0.0360298
0.0362503
0.0366022
0.0368044
0.036808
0.0364906
0.0363299
0.0363945
0.0365038
0.0365388
0.0364889
0.0363884
0.0362329
0.0360495
0.0358259
0.0355794
0.0353152
0.0352043
0.0350239
0.0342582
0.032862
0.0307939
0.0306372
0.0340854
0.0334399
0.0315441
0.0321424
0.0331016
0.0315461
0.028652
0.0266054
0.0252026
0.0243452
0.0240235
0.024063
0.0248797
0.0262192
0.0276132
0.0288099
0.0296136
0.0299146
0.0300848
0.0299887
0.0299085
0.0296786
0.0291808
0.0284204
0.0276481
0.02722
0.0270598
0.0274134
0.0278457
0.0283677
0.0338351
0.0356705
0.0359009
0.0366598
0.0370062
0.0362512
0.0349201
0.0334655
0.0321874
0.0311632
0.0304244
0.0302914
0.0306075
0.0310494
0.0314751
0.031667
0.0316765
0.0315351
0.0314616
0.0314564
0.0316468
0.0318969
0.0322517
0.0326036
0.0330106
0.0335943
0.0342505
0.0339576
0.0328397
0.0333551
0.0395489
0.0396699
0.0379769
0.0379994
0.038211
0.0374742
0.0363037
0.0349888
0.0341196
0.0336596
0.0335171
0.0334497
0.0333972
0.0332697
0.0331294
0.0330177
0.0330303
0.0333453
0.0339607
0.0349374
0.0362699
0.0378945
0.0396621
0.0414835
0.0432216
0.0444774
0.0449934
0.0463543
0.0449229
0.0281236
0.0282601
0.0284676
0.0328196
0.0378775
0.0403632
0.0408735
0.0395492
0.0373598
0.0350706
0.0330033
0.0312205
0.0297667
0.0286979
0.0278928
0.0271734
0.027108
0.0268725
0.0267443
0.027586
0.0290233
0.031665
0.0340389
0.03592
0.036526
0.03655
0.0365744
0.0367872
0.0367659
0.0367915
0.034325
0.0388113
0.0398953
0.0416758
0.0425172
0.0434417
0.0446462
0.0448876
0.0438159
0.0414259
0.0386074
0.0357549
0.0335546
0.0316032
0.030658
0.0300446
0.029598
0.0293479
0.029216
0.0293324
0.0294909
0.0298475
0.0308591
0.032316
0.033886
0.0347505
0.0353466
0.0373245
0.0405275
0.0415277
0.0404863
0.0446677
0.0414564
0.0366154
0.0337799
0.0311048
0.0287581
0.0270523
0.0264799
0.0263782
0.0266131
0.0270718
0.0277669
0.0285827
0.0294797
0.0308836
0.0337697
0.0374748
0.0408204
0.0427918
0.0430168
0.0421291
0.0405318
0.0387632
0.0375945
0.0369732
0.0371279
0.0375842
0.0353152
0.0240066
0.0166633
0.0182752
0.0278527
0.0428666
0.0531761
0.0574462
0.0588627
0.0594788
0.0597484
0.0596324
0.059276
0.0584996
0.0581355
0.0577419
0.0579646
0.0582099
0.0589396
0.0594
0.059823
0.0593837
0.0571778
0.0518129
0.0447465
0.0410551
0.0398097
0.041281
0.0413884
0.0347049
0.021907
0.0175946
0.0262062
0.0250714
0.0253909
0.0268786
0.0278209
0.0275567
0.0263143
0.0255738
0.0260819
0.0286476
0.032549
0.0344382
0.0328427
0.0271007
0.022419
0.0238532
0.024799
0.0258325
0.0263394
0.026103
0.025537
0.0250109
0.0244666
0.0238258
0.0232934
0.0231518
0.0233353
0.0238598
0.0245321
0.0250567
0.0254889
0.025695
0.0256937
0.0254135
0.0250481
0.0245871
0.024251
0.0239127
0.0236642
0.0235303
0.0232741
0.0226238
0.021969
0.0219371
0.0298986
0.0298154
0.0280193
0.0268498
0.0268102
0.0282783
0.0310765
0.0341307
0.0354281
0.0355862
0.0347873
0.0338502
0.0331046
0.0319541
0.0294578
0.0272233
0.0262813
0.0260896
0.0263896
0.0268045
0.0274095
0.028124
0.0290639
0.02978
0.0298839
0.0291887
0.0284567
0.0288127
0.0296724
0.0279383
0.0313062
0.0316842
0.0304472
0.0301083
0.0298166
0.029687
0.0296386
0.0292536
0.028525
0.0276759
0.0271221
0.0270584
0.027386
0.0280325
0.0288605
0.0296485
0.0302594
0.0304832
0.0306117
0.0305386
0.0307302
0.0306968
0.0308441
0.0302883
0.029408
0.0286596
0.0287204
0.0292399
0.0291068
0.028574
0.0277183
0.0313003
0.0350005
0.0352406
0.0340989
0.0317282
0.0296385
0.028744
0.0285386
0.028868
0.0292504
0.0297172
0.029918
0.0302584
0.0303733
0.0304057
0.030533
0.0303281
0.0301523
0.0295767
0.0289352
0.0279891
0.0271488
0.0268501
0.0275125
0.029155
0.0295274
0.0283321
0.0277138
0.0279522
0.0305065
0.0315887
0.0325101
0.034663
0.0357687
0.0362138
0.0362493
0.0363241
0.0367881
0.0372248
0.0373638
0.0373358
0.0370167
0.0364438
0.0365562
0.036893
0.0370139
0.0369121
0.036781
0.0366928
0.0365948
0.036419
0.0361514
0.0358736
0.0355866
0.0354441
0.035338
0.034922
0.0337331
0.0314039
0.0313329
0.0339077
0.0324683
0.0322564
0.0342214
0.034019
0.031641
0.0296051
0.02776
0.025912
0.0244827
0.0238176
0.0237624
0.0246912
0.0263698
0.0277984
0.0285185
0.0285465
0.0282116
0.0277441
0.0274541
0.0272916
0.0274193
0.0276153
0.0275883
0.0273122
0.0269973
0.0268405
0.027127
0.0277852
0.0308264
0.0355589
0.0367477
0.0381963
0.0393291
0.0389222
0.0371465
0.0348898
0.032643
0.0308658
0.0299934
0.0300105
0.0311651
0.0327317
0.0336327
0.0340776
0.0342971
0.0343489
0.0340801
0.0334252
0.0327075
0.0322443
0.0321601
0.0322991
0.0325095
0.0326868
0.0330053
0.0336229
0.0335335
0.0325548
0.0365467
0.0399719
0.039136
0.038921
0.0391133
0.0374495
0.0354236
0.0337741
0.0329615
0.0328148
0.032995
0.0330862
0.0329309
0.0327284
0.0324596
0.0323661
0.0322076
0.032095
0.032024
0.0321433
0.0326565
0.0337765
0.0355642
0.0378533
0.0401219
0.0419017
0.0424286
0.0420291
0.0440306
0.0447057
0.0279355
0.0278284
0.0307849
0.0371479
0.0404724
0.0411028
0.0391575
0.0364643
0.034052
0.0320685
0.0302654
0.028938
0.0277364
0.0272057
0.0266625
0.0266087
0.0263579
0.026219
0.0260085
0.0257903
0.0263213
0.028416
0.0311228
0.0341342
0.0357088
0.0358329
0.0355238
0.0358962
0.0363395
0.036489
0.0346354
0.0373132
0.0380924
0.0411864
0.0433719
0.0453606
0.04526
0.0432189
0.0398108
0.035856
0.0326727
0.0303569
0.029268
0.028752
0.0290247
0.0291018
0.0291475
0.0291191
0.0288848
0.0287376
0.0284896
0.0282556
0.0284618
0.0294386
0.0311607
0.0329016
0.0339665
0.0356018
0.0391342
0.0417529
0.0426908
0.0423122
0.0367351
0.0325384
0.0296138
0.0273021
0.0264234
0.0263413
0.0268755
0.0277327
0.0285624
0.0292697
0.0296894
0.0297636
0.0298054
0.0305381
0.0342813
0.0401921
0.0448342
0.0457729
0.04406
0.0407812
0.0376218
0.0355859
0.0343217
0.0343584
0.035191
0.0369153
0.0372141
0.0266959
0.0168122
0.0210224
0.035898
0.0508086
0.0571903
0.0587732
0.0589394
0.0586365
0.0578696
0.0565793
0.055359
0.0540251
0.0532577
0.053022
0.0531495
0.0540638
0.0553551
0.0567052
0.0580633
0.0589789
0.05885
0.0547167
0.0439439
0.0346756
0.0338553
0.0366676
0.0408244
0.0371831
0.0237892
0.0175062
0.0256913
0.0249231
0.0269658
0.0302245
0.031182
0.0296077
0.0272382
0.0257138
0.0257556
0.0274865
0.0308875
0.0332292
0.0324406
0.0274506
0.0226496
0.0246524
0.0260808
0.0267665
0.0266226
0.0263583
0.0264818
0.0261691
0.0253876
0.0244205
0.0236624
0.0234722
0.0238816
0.024602
0.0253108
0.0257248
0.0260256
0.02625
0.0264853
0.0266286
0.0264861
0.0258921
0.0251605
0.0244999
0.0239906
0.0236893
0.0234735
0.0232004
0.0227139
0.0221179
0.0298683
0.0295455
0.0282015
0.027801
0.028923
0.0314878
0.0341989
0.0356209
0.0357149
0.0347324
0.0331905
0.0323655
0.0320857
0.0305803
0.0277068
0.0260115
0.0257887
0.0259881
0.0265075
0.0271649
0.0277873
0.0283503
0.0289761
0.0297896
0.0300189
0.0294492
0.0285227
0.0285791
0.0295544
0.0283202
0.0315051
0.0315251
0.0303509
0.0302951
0.0306341
0.0314207
0.0320461
0.0317989
0.0307479
0.0292479
0.0278448
0.027486
0.0277984
0.0285295
0.0293917
0.0301807
0.0304616
0.030488
0.0301523
0.0299216
0.0297179
0.0300358
0.0304847
0.0305757
0.0299145
0.0289138
0.0285385
0.0289724
0.0291745
0.0287187
0.0275547
0.0324403
0.0351647
0.0350998
0.0338586
0.0314318
0.0293966
0.0288125
0.0290723
0.0297028
0.0302182
0.0306341
0.0308781
0.0308891
0.0310647
0.0310107
0.0310764
0.0311578
0.0310629
0.0310296
0.0305721
0.0296261
0.0283032
0.0271297
0.0270686
0.0283298
0.0295378
0.0289819
0.0281027
0.0281417
0.0306247
0.0317368
0.0333559
0.035309
0.0361889
0.0364846
0.0367107
0.0372976
0.0379242
0.0380157
0.0377762
0.03733
0.036716
0.0365214
0.0370503
0.0374013
0.0371444
0.0367252
0.0365872
0.0366058
0.0366796
0.0366383
0.0363872
0.0360156
0.0357348
0.0355915
0.0355821
0.0353292
0.0342172
0.0317815
0.0318738
0.0335177
0.0322796
0.0338036
0.0362601
0.0357594
0.0343475
0.0330524
0.0306651
0.0279679
0.025566
0.0241182
0.0237146
0.0244756
0.0261433
0.0273915
0.0274945
0.0268956
0.0261395
0.0255954
0.0254473
0.0254282
0.02543
0.025544
0.0259604
0.0263918
0.0265734
0.0265876
0.02687
0.0276854
0.0323593
0.0368427
0.0387014
0.0410461
0.0416616
0.0401708
0.0376016
0.0346806
0.0320044
0.0304755
0.0303709
0.0321342
0.034392
0.0351601
0.0352315
0.035234
0.0357179
0.0362525
0.0365891
0.0363957
0.0355665
0.0344532
0.0336575
0.0333666
0.0332838
0.0330326
0.0328525
0.0331005
0.0329856
0.0321801
0.038151
0.0402602
0.0399129
0.0402904
0.0383627
0.0351647
0.0332645
0.0324787
0.0324194
0.0327221
0.0328934
0.0324414
0.0316183
0.0308077
0.0303851
0.0304316
0.0308273
0.0311134
0.0312217
0.0311961
0.0313098
0.032036
0.0337567
0.0362628
0.0388419
0.0401315
0.0391663
0.0380143
0.0415303
0.0442128
0.0276684
0.028517
0.0345793
0.0400104
0.0411749
0.039239
0.0362773
0.0341765
0.0323918
0.0307108
0.0291049
0.0279927
0.0272539
0.0271809
0.0273415
0.0279349
0.0282663
0.0282374
0.0277016
0.0265286
0.0258287
0.026796
0.0292155
0.032707
0.0347912
0.0348824
0.0342547
0.0346955
0.0357307
0.0362113
0.0344735
0.0359064
0.0376742
0.042524
0.0456529
0.0455625
0.0430067
0.0388813
0.0351433
0.0315908
0.029814
0.0290187
0.0295877
0.0302027
0.0305398
0.0306763
0.0301448
0.029767
0.0293664
0.0290244
0.0287989
0.028768
0.0283803
0.0282598
0.0292603
0.0310367
0.0325791
0.0342222
0.0377765
0.0414323
0.0428674
0.0393149
0.033386
0.0300352
0.0282937
0.0279892
0.029039
0.0309376
0.0326019
0.0337137
0.0341813
0.0340861
0.0335242
0.0325189
0.0314733
0.0313155
0.0352318
0.0427999
0.0471992
0.0463983
0.0409582
0.0352019
0.0316327
0.029806
0.0299383
0.0310108
0.0330405
0.0359601
0.0379497
0.0276405
0.0171487
0.0243786
0.04235
0.0549568
0.0585441
0.0587236
0.0579139
0.0565582
0.0549744
0.0528435
0.0509026
0.0488094
0.0477419
0.0469873
0.0475928
0.0489619
0.0512038
0.0536734
0.0560401
0.0577532
0.0587532
0.0588196
0.0526327
0.0357902
0.0316127
0.0352691
0.0389992
0.0367673
0.0245479
0.0172179
0.0253971
0.0251775
0.0293733
0.0333368
0.0327793
0.0295732
0.0266691
0.0255245
0.0258557
0.0275045
0.0300443
0.0320603
0.0317918
0.0276218
0.0230384
0.0256454
0.0269386
0.0272728
0.0274438
0.0279769
0.0281116
0.0273513
0.0260927
0.0248193
0.0238654
0.0235973
0.0240749
0.0248065
0.0252476
0.0252772
0.0252678
0.0253671
0.0256772
0.0262549
0.0267519
0.0267357
0.0261008
0.0252748
0.0244192
0.0238901
0.0236311
0.023573
0.0232001
0.022276
0.029887
0.0297442
0.0292529
0.0296864
0.0315347
0.0338747
0.0353908
0.0357945
0.0351592
0.0331441
0.0313355
0.0312967
0.0314267
0.0294257
0.0266181
0.0256439
0.0258856
0.026346
0.0267694
0.0276425
0.0286376
0.0292127
0.029555
0.0300252
0.0301599
0.029514
0.0284871
0.0284127
0.0294048
0.0284111
0.0317543
0.031416
0.0304316
0.0308082
0.0321286
0.0339186
0.0351046
0.0349574
0.0337487
0.0316304
0.0292543
0.0280071
0.0281597
0.0288389
0.0296525
0.030242
0.0303418
0.0296738
0.0288571
0.0281816
0.0281998
0.0286069
0.0294696
0.0301608
0.0300119
0.0291181
0.0284829
0.0287485
0.0291282
0.0288124
0.0287155
0.0337422
0.034981
0.03489
0.0339437
0.0318452
0.0298332
0.029317
0.0296698
0.0301173
0.0304371
0.0304901
0.0304007
0.0303429
0.0303169
0.030415
0.03046
0.030627
0.0309118
0.0311661
0.0311971
0.0307099
0.0294849
0.0278465
0.027053
0.0278236
0.0293089
0.029347
0.0284979
0.0283432
0.0307223
0.0320261
0.0339101
0.0356843
0.0365379
0.0369527
0.0376504
0.0386089
0.0389587
0.038615
0.0379258
0.0371703
0.036602
0.0367086
0.0373515
0.0375387
0.0369186
0.0364587
0.036559
0.0367832
0.0368075
0.0367071
0.0364494
0.0360844
0.0357709
0.0357023
0.0358396
0.0356179
0.0344505
0.0319583
0.0322531
0.0331159
0.032696
0.0357876
0.0383256
0.0383197
0.0380014
0.0369146
0.0344599
0.0311427
0.0275766
0.0249614
0.0238555
0.0241019
0.0255292
0.0267681
0.0267666
0.025999
0.0253197
0.025164
0.0254282
0.0259585
0.0260115
0.0256394
0.0251789
0.0252783
0.0258375
0.0261499
0.0265487
0.0276149
0.033403
0.0381762
0.041132
0.0435888
0.0433581
0.0412381
0.0382476
0.03502
0.0323456
0.0312792
0.0323621
0.034981
0.036239
0.0354097
0.0345076
0.0348218
0.0363106
0.0377707
0.0384724
0.0385594
0.0381059
0.0372072
0.0360936
0.0353849
0.0348609
0.0340765
0.0331485
0.0328215
0.0323977
0.0317072
0.039077
0.0409544
0.0411476
0.0400936
0.0362753
0.0335722
0.0325951
0.0323107
0.0324128
0.0326532
0.0321189
0.0305809
0.0289072
0.0276355
0.0271304
0.0274639
0.028544
0.0297108
0.0303748
0.0305252
0.0304618
0.0309403
0.0325143
0.0351435
0.0374907
0.0373236
0.0344206
0.0334473
0.0391998
0.0438133
0.0275799
0.0304287
0.0381408
0.0409232
0.0394045
0.0365155
0.0348157
0.03318
0.0315584
0.0299046
0.0283202
0.027438
0.02723
0.0278624
0.0286401
0.0293674
0.0297413
0.0295434
0.0287692
0.0273461
0.0261166
0.0264754
0.0286391
0.0320615
0.0340176
0.0337117
0.032759
0.0334333
0.0351743
0.0359397
0.0341768
0.0351984
0.0400559
0.0458336
0.0461937
0.0432004
0.039528
0.0357109
0.0327944
0.0302672
0.0299773
0.030657
0.0316741
0.0321133
0.0313286
0.0300192
0.0283097
0.0271907
0.0265745
0.0265671
0.0272787
0.0280487
0.0282542
0.028018
0.0283338
0.0297152
0.0313798
0.0331536
0.0367588
0.0411446
0.0422516
0.0368355
0.0316929
0.02987
0.0299959
0.0321095
0.0349017
0.0370036
0.0379935
0.0383547
0.0383855
0.0379131
0.0368941
0.0353256
0.0336066
0.0328953
0.0356444
0.0437843
0.0478158
0.0451198
0.0361226
0.0298444
0.0264907
0.0255946
0.0261713
0.028462
0.031408
0.0355554
0.0388206
0.0273436
0.0175133
0.0273268
0.0465655
0.0566896
0.0586519
0.0579163
0.0563374
0.0541672
0.0518447
0.0487569
0.0460848
0.0430201
0.041404
0.0408057
0.0414209
0.0434397
0.0464425
0.0501289
0.0538037
0.056643
0.0580643
0.0588057
0.0593804
0.0445491
0.0307463
0.0336498
0.0368559
0.0343314
0.023556
0.0168929
0.02524
0.0256985
0.031876
0.0348434
0.0325582
0.0282923
0.0260365
0.0255744
0.0263514
0.0279014
0.0295315
0.0309844
0.0311161
0.0277677
0.0235789
0.02651
0.0275397
0.0279932
0.0287612
0.0294671
0.0290652
0.0277902
0.0262721
0.0249313
0.0239498
0.0236319
0.0242474
0.0249188
0.0250327
0.0249023
0.0247823
0.0247557
0.0249242
0.0254523
0.0264192
0.0270506
0.0268286
0.0260032
0.0248726
0.0241108
0.0237801
0.0238259
0.0234758
0.0223412
0.029916
0.0302449
0.0305878
0.0314606
0.0331531
0.0348267
0.0356229
0.0354286
0.0337224
0.03081
0.0297201
0.0307258
0.0310787
0.0286081
0.0260589
0.025666
0.02618
0.0265937
0.0269234
0.0280025
0.0294495
0.0300365
0.0301708
0.0303018
0.0301713
0.0293385
0.0283123
0.0283095
0.0292911
0.0282858
0.032129
0.0312966
0.0305736
0.0315424
0.0338248
0.0362938
0.0376231
0.0376573
0.0366287
0.0344643
0.0314158
0.0289065
0.0284495
0.0289827
0.0296741
0.0302258
0.0299103
0.0288128
0.0275689
0.0269701
0.0269255
0.0274224
0.028391
0.0294806
0.0297911
0.0291329
0.0284316
0.0285919
0.0290666
0.0288829
0.0316965
0.0341121
0.0349546
0.0347283
0.0342243
0.0325572
0.0305722
0.0298299
0.0300007
0.0301958
0.0301304
0.0299481
0.0296454
0.0296252
0.0298026
0.0300611
0.0303167
0.0305436
0.0307666
0.0311263
0.0313658
0.0311489
0.0301539
0.0284459
0.0272558
0.027673
0.0291481
0.0295439
0.0288083
0.0285526
0.0308217
0.0320136
0.0340351
0.0358824
0.0369796
0.0375839
0.0386896
0.0398264
0.0399682
0.0392404
0.0382105
0.0372484
0.0365901
0.036732
0.0373726
0.0375863
0.0369856
0.036536
0.0365431
0.0367043
0.0367473
0.0366438
0.0363215
0.0359963
0.0357925
0.0358935
0.0361567
0.0357545
0.0345262
0.0320451
0.0324683
0.0329035
0.0336473
0.0378274
0.0401687
0.0407345
0.0409454
0.0401681
0.0381277
0.0346805
0.0301115
0.0260798
0.0239148
0.0234754
0.0243393
0.0253475
0.0253415
0.0248619
0.0249964
0.0260544
0.027782
0.029481
0.0301144
0.0292486
0.0272184
0.0254317
0.0251294
0.0255144
0.026161
0.0274137
0.0343617
0.0398303
0.0435443
0.0454731
0.0446617
0.0424144
0.0393222
0.0359752
0.0332626
0.0325072
0.0342882
0.0370028
0.0371721
0.0352635
0.0343189
0.03548
0.0382998
0.0409371
0.0417696
0.040967
0.0400793
0.0392507
0.0383393
0.037682
0.0370416
0.03564
0.0337302
0.0326195
0.0316709
0.0312111
0.039903
0.0419614
0.0417759
0.0386426
0.0353182
0.0341635
0.0331494
0.0323948
0.0322971
0.032173
0.0306202
0.0282569
0.0262925
0.0251459
0.024858
0.0253305
0.0267672
0.028559
0.0297301
0.0299981
0.0298748
0.0302003
0.0318334
0.0344306
0.0356891
0.0332029
0.0292176
0.0295809
0.0379562
0.0433114
0.0281429
0.034356
0.039967
0.0395865
0.0368292
0.0355837
0.034199
0.0326019
0.0310363
0.0292795
0.0277622
0.0270806
0.0275509
0.028711
0.0297358
0.0304312
0.03046
0.0298182
0.0285354
0.0270237
0.0260679
0.0267815
0.0294272
0.0323053
0.0332871
0.0321076
0.0310605
0.0324676
0.0349099
0.0356342
0.0339823
0.0371662
0.0445354
0.0467336
0.0440161
0.0411463
0.0380338
0.0346915
0.0323481
0.031032
0.0315514
0.0328785
0.0328455
0.031628
0.0293989
0.0265984
0.0250143
0.0239896
0.0236909
0.0240374
0.0247179
0.0263111
0.0273601
0.0277504
0.0279641
0.0289553
0.0305038
0.0323619
0.0361076
0.0410051
0.0413909
0.0351434
0.0315912
0.0314314
0.033578
0.0367058
0.0386831
0.0395997
0.039929
0.0401538
0.0401997
0.0399521
0.0392127
0.0378132
0.0358828
0.0344495
0.0355597
0.0436616
0.0479376
0.043484
0.0336833
0.0274051
0.0250563
0.0243834
0.0250053
0.0273517
0.0311578
0.0362452
0.0386259
0.0258401
0.0178201
0.0295189
0.0489659
0.0573491
0.0584999
0.0569374
0.0547719
0.0519064
0.0490665
0.0450612
0.0417419
0.0380148
0.036344
0.0356704
0.0368228
0.0393113
0.0425076
0.046787
0.0514366
0.0556429
0.0579116
0.0581872
0.0601435
0.0570671
0.0313257
0.0304321
0.0322813
0.0290419
0.0205304
0.0165011
0.0251135
0.026401
0.0331075
0.0350248
0.031622
0.0276737
0.0261966
0.0261069
0.0268715
0.0280072
0.0291438
0.0303026
0.030574
0.0278901
0.0240828
0.027171
0.0280761
0.0288826
0.0298458
0.0301395
0.0293612
0.0277602
0.0261061
0.0249474
0.0239997
0.0236491
0.0244272
0.0249698
0.0249445
0.0248466
0.0249164
0.0250683
0.0252077
0.0257016
0.0267265
0.0275553
0.0275048
0.026583
0.0252396
0.024277
0.0239138
0.0239892
0.023454
0.0223232
0.0298198
0.0306465
0.0316337
0.0326631
0.033927
0.0349568
0.0353211
0.034602
0.0315613
0.028626
0.0286946
0.0304402
0.0309172
0.0280865
0.0258049
0.0257963
0.0264253
0.0267723
0.0270391
0.0281455
0.0295915
0.0302294
0.0303872
0.0303007
0.0298989
0.0288822
0.0280909
0.0283373
0.0290835
0.0280187
0.0327265
0.0313664
0.0307516
0.0319772
0.0349106
0.0377043
0.0388987
0.0390714
0.0384354
0.0368338
0.0339322
0.0305008
0.0288186
0.0290195
0.0296336
0.0300695
0.029674
0.0281221
0.0267166
0.0262574
0.0264572
0.0269256
0.0277763
0.0289183
0.0294235
0.0289581
0.0283315
0.0284986
0.0290396
0.0289316
0.033166
0.0339219
0.0343604
0.0345571
0.0344506
0.0333247
0.0313975
0.0304109
0.0302673
0.0301464
0.0297868
0.029331
0.0291357
0.0292647
0.0298159
0.0303124
0.0307272
0.0308728
0.030958
0.0312082
0.0314102
0.0311448
0.0301862
0.0285503
0.0274857
0.0278472
0.0291777
0.0297649
0.0291197
0.028745
0.0306439
0.0314768
0.0333545
0.035645
0.0372104
0.038255
0.0396253
0.0407568
0.0408198
0.0399399
0.0386254
0.0374404
0.0365878
0.0365844
0.037252
0.0377408
0.0373615
0.0367425
0.0364262
0.0364032
0.0363904
0.0362915
0.0361282
0.036019
0.0361289
0.0364088
0.0364577
0.035812
0.0343294
0.0318966
0.0325823
0.032866
0.0349342
0.039447
0.0414093
0.0419471
0.0421624
0.0418418
0.0405991
0.0376047
0.0323978
0.0270151
0.0237904
0.0227622
0.0229012
0.0233367
0.0236709
0.0244772
0.0266673
0.0302043
0.0331961
0.0348588
0.0353777
0.034418
0.0314603
0.0272355
0.0249884
0.0249761
0.0258569
0.027609
0.0353042
0.0416369
0.0455755
0.0467657
0.045802
0.0436373
0.040449
0.0369852
0.0341123
0.0334571
0.0358473
0.0390621
0.0391236
0.0370901
0.0357218
0.0365868
0.0397742
0.0432721
0.044362
0.042756
0.0413413
0.0406483
0.0400763
0.0397697
0.039281
0.0370974
0.0340183
0.0320761
0.0308191
0.030687
0.0405653
0.0427414
0.0416861
0.0386452
0.0375245
0.0363904
0.0340424
0.0324332
0.0320759
0.031422
0.0291317
0.0266835
0.0250442
0.0243513
0.0242178
0.0247154
0.0263501
0.0282869
0.0293677
0.0295239
0.0293423
0.029882
0.0316569
0.0333744
0.0324469
0.028206
0.0248103
0.0281673
0.0381338
0.0429683
0.028876
0.0366886
0.0395334
0.0373103
0.0361401
0.035248
0.0337959
0.0323533
0.0307057
0.0288879
0.0273222
0.0268654
0.027813
0.0294004
0.0305992
0.0312171
0.0306276
0.0290564
0.0277581
0.02691
0.0271543
0.02855
0.0311024
0.0324782
0.0318338
0.0297913
0.0296238
0.0324377
0.0348292
0.0352704
0.0342224
0.0400194
0.0461323
0.045089
0.0431364
0.041012
0.0379543
0.0349673
0.033108
0.0326296
0.0333922
0.0339779
0.0327908
0.0295287
0.0267872
0.0242326
0.0233642
0.0229296
0.022869
0.0230684
0.0235099
0.0252056
0.0263833
0.0272795
0.0275917
0.0284819
0.0299294
0.0319097
0.0358753
0.0411678
0.0407158
0.0345248
0.032443
0.0338346
0.0367278
0.0389548
0.0394972
0.0391695
0.0389995
0.0392778
0.039935
0.0406219
0.0406045
0.0396089
0.0377319
0.0358762
0.035702