/*--------------------------------*- C++ -*----------------------------------*\
| =========                 |                                                 |
| \\      /  F ield         | OpenFOAM: The Open Source CFD Toolbox           |
|  \\    /   O peration     | Version:  2.1.1                                 |
|   \\  /    A nd           | Web:      www.OpenFOAM.org                      |
|    \\/     M anipulation  |                                                 |
\*---------------------------------------------------------------------------*/
FoamFile
{
    version     2.0;
    format      ascii;
    class       volScalarField;
    location    "0.004650000";
    object      H2O2;
}
// * * * * * * * * * * * * * * * * * * * * * * * * * * * * * * * * * * * * * //

dimensions      [0 0 0 0 0 0 0];

internalField   nonuniform List<scalar> 
12384
(
7.32231e-07
7.33405e-07
7.29547e-07
7.42857e-07
8.46679e-07
7.45329e-07
7.31408e-07
7.28333e-07
7.32759e-07
7.57349e-07
8.11354e-07
1.03419e-06
1.96152e-06
1.3146e-06
7.44581e-07
8.21413e-07
7.90777e-07
7.3276e-07
7.17267e-07
6.92869e-07
7.09655e-07
7.20673e-07
7.32596e-07
7.47239e-07
7.48645e-07
7.60573e-07
7.359e-07
7.46083e-07
7.27295e-07
7.15424e-07
7.18111e-07
6.92348e-07
7.05355e-07
6.85404e-07
7.16871e-07
7.01369e-07
7.3938e-07
7.4812e-07
8.10119e-07
9.6981e-07
7.95346e-07
7.47098e-07
9.0386e-07
9.34932e-07
5.79111e-07
4.28841e-07
4.21313e-07
4.43758e-07
4.73982e-07
5.06325e-07
5.41732e-07
5.82269e-07
7.27524e-07
7.45341e-07
7.28453e-07
5.74355e-07
4.98235e-07
4.43278e-07
4.05775e-07
3.85901e-07
3.79352e-07
3.5931e-07
3.84215e-07
3.42307e-07
3.67209e-07
3.67195e-07
4.05582e-07
4.83344e-07
5.52854e-07
5.96247e-07
5.35023e-07
6.63438e-07
7.73646e-07
7.01849e-07
1.93476e-07
1.23607e-07
1.31833e-07
1.69903e-07
1.96192e-07
2.31743e-07
2.42023e-07
2.80335e-07
2.89402e-07
3.24682e-07
3.32778e-07
4.23694e-07
4.41536e-07
4.73171e-07
4.86466e-07
4.97582e-07
4.97364e-07
5.24794e-07
4.9076e-07
5.54951e-07
5.11401e-07
6.2792e-07
5.96953e-07
7.47001e-07
6.20209e-07
6.37616e-07
6.64153e-07
9.30782e-07
1.02463e-06
1.01997e-06
5.53004e-07
2.00875e-07
1.84212e-07
1.63458e-07
1.58807e-07
1.61027e-07
1.65669e-07
1.59369e-07
1.79778e-07
1.42707e-07
3.05109e-07
1.96555e-07
3.02575e-07
2.10437e-07
2.95159e-07
2.38224e-07
2.92438e-07
2.67637e-07
3.05011e-07
3.00951e-07
3.08091e-07
3.05442e-07
2.90132e-07
2.39272e-07
1.85978e-07
3.93345e-07
7.33722e-07
7.15229e-07
6.85332e-07
6.64627e-07
4.23267e-07
1.31448e-07
1.7671e-07
4.01045e-07
4.28022e-07
3.54217e-07
1.95968e-07
1.70193e-07
1.50213e-07
1.4123e-07
1.33184e-07
1.08618e-07
1.0868e-07
1.09109e-07
1.07586e-07
1.05862e-07
1.00009e-07
9.394e-08
8.88427e-08
8.10715e-08
8.38801e-08
8.4262e-08
7.68081e-08
9.60191e-08
1.09432e-07
1.24324e-07
1.45361e-07
3.8373e-07
6.69627e-07
9.38318e-07
4.50949e-07
2.23034e-07
4.84815e-08
4.75389e-08
1.17383e-07
3.07455e-07
3.05686e-07
2.71394e-07
2.77188e-07
3.04422e-07
4.19716e-07
4.86866e-07
5.12898e-07
5.39865e-07
5.44378e-07
5.4474e-07
5.40096e-07
5.29823e-07
5.27649e-07
5.30514e-07
5.27437e-07
5.4197e-07
5.36122e-07
5.72054e-07
5.75215e-07
6.40829e-07
6.76916e-07
7.21914e-07
6.27556e-07
6.49724e-07
7.04274e-07
8.15468e-07
7.35551e-08
4.47408e-08
5.85028e-08
7.20002e-08
7.46057e-08
8.78941e-08
9.63357e-08
1.06822e-07
1.17883e-07
1.25238e-07
1.28792e-07
1.32139e-07
1.25477e-07
1.28065e-07
1.08258e-07
1.11409e-07
9.00702e-08
9.30292e-08
7.8283e-08
7.8338e-08
7.34534e-08
7.72404e-08
6.93589e-08
6.78255e-08
7.30872e-08
8.83593e-08
1.64706e-07
2.3106e-07
7.19351e-07
1.02037e-06
1.80716e-08
1.36845e-08
1.9159e-08
2.46258e-08
2.47503e-08
2.59082e-08
2.37345e-08
2.39639e-08
2.12074e-08
2.28096e-08
1.87766e-08
2.10338e-08
1.63539e-08
1.80936e-08
1.80209e-08
1.75632e-08
1.63846e-08
1.93125e-08
1.88414e-08
1.65165e-08
1.5052e-08
1.37927e-08
1.09208e-08
7.77848e-09
6.0343e-09
4.90343e-09
3.8053e-09
8.60076e-09
1.32508e-06
1.053e-06
8.01706e-07
8.18346e-07
6.80422e-07
3.65251e-07
1.82995e-07
8.20758e-08
4.76726e-08
3.44623e-08
2.86955e-08
2.36565e-08
2.33555e-08
1.68933e-08
2.25661e-08
1.41155e-08
1.83897e-08
1.7348e-08
2.0828e-08
1.93875e-08
2.0351e-08
2.35622e-08
2.51549e-08
3.12955e-08
3.30695e-08
3.35842e-08
4.63228e-08
6.76997e-08
8.02982e-08
8.1299e-08
2.15404e-07
2.07273e-08
1.40349e-08
1.13056e-08
9.64298e-09
9.78488e-09
1.11051e-08
1.18538e-08
1.12649e-08
1.08033e-08
1.04931e-08
9.74133e-09
1.08566e-08
8.85282e-09
1.21982e-08
1.11435e-08
1.35315e-08
1.34366e-08
1.35538e-08
1.59036e-08
2.17394e-08
2.41976e-08
3.44883e-08
4.25746e-08
5.53723e-08
7.03346e-08
3.56107e-08
3.31801e-08
4.94882e-08
5.12334e-08
7.26741e-07
6.80002e-08
8.00554e-09
7.14066e-09
8.85398e-09
1.52059e-08
1.93758e-08
2.42156e-08
2.3624e-08
3.23664e-08
3.41964e-08
3.65091e-08
3.65609e-08
3.70123e-08
3.62248e-08
3.26792e-08
2.735e-08
2.59598e-08
2.48513e-08
2.32386e-08
2.20293e-08
2.16219e-08
2.09911e-08
2.12637e-08
2.24581e-08
2.43283e-08
2.59714e-08
4.60059e-08
4.55071e-07
3.73401e-07
2.03993e-07
2.37618e-07
2.90823e-07
5.18587e-07
3.1969e-07
6.54235e-09
2.53985e-09
1.95677e-09
1.61242e-09
1.37356e-09
1.27312e-09
1.05763e-09
1.10429e-09
9.94944e-10
1.01298e-09
1.02437e-09
1.10803e-09
1.23286e-09
1.40921e-09
2.04676e-09
3.37404e-09
6.04749e-09
1.07561e-08
1.8137e-08
3.86881e-08
1.27126e-07
9.46372e-07
5.68191e-07
3.54545e-07
3.87222e-07
1.1223e-06
1.26568e-06
1.42152e-06
1.53616e-06
1.52128e-06
1.54136e-06
1.41638e-06
1.24435e-06
9.0303e-07
7.16891e-07
7.52269e-07
9.20386e-07
1.63598e-06
1.60232e-06
7.4339e-07
7.70442e-07
6.89772e-07
6.56339e-07
6.76534e-07
7.03568e-07
7.71221e-07
7.89046e-07
8.11483e-07
8.14995e-07
8.18948e-07
8.09145e-07
7.95721e-07
7.93826e-07
7.71743e-07
7.83895e-07
7.6791e-07
7.61256e-07
7.62063e-07
7.52759e-07
7.822e-07
7.50177e-07
8.10806e-07
7.77166e-07
8.33066e-07
8.906e-07
9.5805e-07
8.32387e-07
7.97114e-07
8.62519e-07
5.68447e-07
4.1519e-07
4.8103e-07
5.69819e-07
7.38279e-07
8.16725e-07
9.3616e-07
9.42049e-07
8.28709e-07
4.81193e-07
1.91833e-07
1.53398e-07
1.40969e-07
1.44603e-07
1.56602e-07
1.82362e-07
3.21737e-07
3.40077e-07
3.75437e-07
3.16132e-07
3.28235e-07
2.9291e-07
3.22319e-07
3.46179e-07
4.53723e-07
5.53543e-07
5.82915e-07
5.57012e-07
6.5453e-07
7.90315e-07
1.823e-07
8.47191e-08
1.69602e-07
2.3449e-07
2.61503e-07
2.90981e-07
3.25109e-07
4.44263e-07
5.09831e-07
5.90723e-07
6.12276e-07
6.28458e-07
6.31099e-07
6.26357e-07
6.16115e-07
5.61525e-07
5.21104e-07
4.8804e-07
4.86784e-07
4.80833e-07
5.18345e-07
5.57365e-07
6.09553e-07
6.66431e-07
7.16218e-07
6.26677e-07
6.50052e-07
8.09708e-07
8.85912e-07
9.03008e-07
6.17353e-07
3.61929e-07
1.54338e-07
1.21077e-07
1.26844e-07
1.57292e-07
1.97923e-07
3.5341e-07
4.30494e-07
4.6288e-07
4.89571e-07
5.87619e-07
5.94156e-07
6.11318e-07
6.02681e-07
6.1129e-07
6.58752e-07
6.37544e-07
6.45609e-07
6.45211e-07
6.33938e-07
6.28818e-07
5.8933e-07
4.33407e-07
2.49836e-07
2.63141e-07
5.92972e-07
7.09514e-07
6.68506e-07
6.46306e-07
3.96129e-07
1.59067e-07
3.62426e-07
3.798e-07
1.77913e-07
1.27124e-07
9.31643e-08
9.57187e-08
9.97218e-08
1.06042e-07
1.07751e-07
1.05733e-07
1.03366e-07
1.03915e-07
1.05478e-07
1.04651e-07
1.0141e-07
9.7842e-08
9.22807e-08
8.97477e-08
9.06109e-08
9.00541e-08
9.96085e-08
1.06697e-07
1.05327e-07
1.02636e-07
1.29276e-07
1.86999e-07
4.32516e-07
6.34782e-07
3.977e-07
9.6411e-08
5.12865e-08
1.06993e-07
2.53136e-07
2.22964e-07
1.68284e-07
2.23831e-07
4.74563e-07
6.836e-07
7.25893e-07
7.37599e-07
7.21543e-07
7.27589e-07
7.19012e-07
6.80771e-07
6.24876e-07
5.07941e-07
4.44573e-07
3.36551e-07
3.29202e-07
3.35366e-07
4.33199e-07
5.04684e-07
5.6244e-07
6.44306e-07
6.65769e-07
7.18629e-07
7.05714e-07
5.93998e-07
8.14831e-07
2.82342e-07
4.91874e-08
4.30261e-08
4.62768e-08
4.92463e-08
6.63066e-08
8.37296e-08
1.03428e-07
1.29229e-07
1.52827e-07
1.77791e-07
3.06093e-07
3.31185e-07
3.2152e-07
3.12394e-07
2.87293e-07
2.50903e-07
2.27422e-07
1.40443e-07
1.32332e-07
1.16159e-07
1.1054e-07
1.11208e-07
1.0725e-07
1.07808e-07
1.02863e-07
8.70655e-08
1.45772e-07
2.22635e-07
9.6897e-07
6.68874e-08
1.76384e-08
2.703e-08
3.50483e-08
3.64357e-08
3.26657e-08
3.34634e-08
3.41114e-08
4.22867e-08
4.68742e-08
5.95962e-08
5.6109e-08
6.44845e-08
5.35952e-08
5.70394e-08
5.8052e-08
5.10515e-08
4.87627e-08
4.5676e-08
3.22335e-08
2.71508e-08
2.19455e-08
1.55219e-08
1.27876e-08
9.2047e-09
6.90809e-09
5.82415e-09
4.55274e-09
6.31358e-09
1.25796e-06
9.52464e-07
9.43041e-07
8.03418e-07
2.8338e-07
7.64058e-08
3.1023e-08
2.50914e-08
2.7002e-08
3.23979e-08
4.4226e-08
5.25334e-08
5.35068e-08
7.68599e-08
8.12701e-08
8.45403e-08
1.43945e-07
1.39835e-07
8.44162e-08
6.88599e-08
4.94689e-08
3.35246e-08
2.86853e-08
3.28417e-08
3.34046e-08
3.58475e-08
3.97419e-08
5.35406e-08
7.30461e-08
8.23941e-08
8.046e-08
2.12067e-08
1.45399e-08
1.14768e-08
9.66497e-09
1.02376e-08
9.54557e-09
8.04187e-09
7.3496e-09
7.34621e-09
8.02052e-09
9.55834e-09
1.22239e-08
1.52802e-08
2.18616e-08
2.71853e-08
3.18337e-08
4.65439e-08
5.2607e-08
5.26302e-08
4.72961e-08
5.06541e-08
4.46957e-08
4.63912e-08
5.28237e-08
6.42405e-08
5.91212e-08
3.38802e-08
2.54569e-08
2.67384e-08
6.30367e-08
1.2441e-08
8.0109e-09
1.35678e-08
2.38945e-08
3.99048e-08
5.68361e-08
8.81495e-08
2.01556e-07
2.89456e-07
3.19742e-07
3.20594e-07
3.05443e-07
2.61862e-07
1.14203e-07
9.09462e-08
5.00463e-08
3.71155e-08
2.45726e-08
2.06656e-08
1.83713e-08
1.71238e-08
1.86747e-08
2.02488e-08
2.26621e-08
2.50059e-08
2.56663e-08
3.29946e-08
2.98986e-07
5.5228e-07
2.24848e-07
2.8985e-07
6.13198e-07
2.03044e-07
7.88525e-09
2.57638e-09
1.74805e-09
1.49272e-09
1.36849e-09
1.17553e-09
9.83514e-10
8.85957e-10
8.34084e-10
7.91946e-10
7.81276e-10
7.40001e-10
8.19551e-10
7.75162e-10
8.34379e-10
8.90423e-10
1.17214e-09
1.57499e-09
2.53351e-09
3.97025e-09
5.96597e-09
8.77453e-09
2.72125e-08
7.35778e-07
4.84247e-07
3.82546e-07
1.58903e-06
1.60309e-06
1.58849e-06
1.58919e-06
1.60149e-06
1.60186e-06
1.58217e-06
1.58933e-06
1.42078e-06
1.11829e-06
7.41592e-07
8.48883e-07
1.31453e-06
1.73364e-06
7.07461e-07
6.99612e-07
6.619e-07
7.16441e-07
7.84116e-07
8.0436e-07
8.15141e-07
8.15277e-07
8.00598e-07
7.96855e-07
7.79783e-07
7.86526e-07
8.09732e-07
8.30913e-07
8.65719e-07
8.79791e-07
8.97936e-07
8.93801e-07
8.79955e-07
8.36741e-07
8.48132e-07
8.26398e-07
8.54754e-07
8.39479e-07
8.59735e-07
8.85733e-07
9.81739e-07
9.84589e-07
9.05861e-07
8.63632e-07
5.51665e-07
4.54819e-07
7.20837e-07
9.37654e-07
1.00765e-06
1.00739e-06
9.08583e-07
4.58888e-07
1.62464e-07
8.28606e-08
7.6454e-08
7.75744e-08
1.10742e-07
1.37744e-07
2.82427e-07
4.56107e-07
6.74537e-07
7.22361e-07
7.15539e-07
6.09422e-07
5.48271e-07
4.39008e-07
3.51768e-07
3.23604e-07
3.56377e-07
4.86097e-07
5.70058e-07
5.40835e-07
5.81967e-07
7.96503e-07
1.71116e-07
8.64637e-08
2.23587e-07
2.70606e-07
2.78982e-07
3.24195e-07
4.3179e-07
5.02579e-07
5.88589e-07
6.29656e-07
6.47883e-07
6.56388e-07
6.41364e-07
6.20197e-07
5.29754e-07
4.47454e-07
3.24455e-07
3.12147e-07
3.13688e-07
3.20357e-07
3.4251e-07
3.65895e-07
4.13536e-07
4.715e-07
6.59496e-07
7.25219e-07
6.23556e-07
6.42472e-07
8.05835e-07
8.67883e-07
8.20627e-07
4.0161e-07
1.27535e-07
8.97043e-08
1.2899e-07
2.06822e-07
4.7762e-07
6.20812e-07
8.02628e-07
8.07468e-07
7.71843e-07
7.6287e-07
7.085e-07
6.27581e-07
6.6138e-07
6.10779e-07
6.1768e-07
6.16036e-07
6.35145e-07
6.70934e-07
7.02213e-07
7.05569e-07
7.01571e-07
6.39291e-07
4.29546e-07
2.65816e-07
3.82434e-07
6.20693e-07
6.63179e-07
6.16843e-07
3.7122e-07
1.98516e-07
3.59015e-07
1.7053e-07
9.62044e-08
8.87482e-08
9.40879e-08
1.00444e-07
1.02321e-07
9.51974e-08
8.47719e-08
7.966e-08
8.10671e-08
9.17157e-08
9.78993e-08
9.82278e-08
9.35726e-08
9.02353e-08
8.53323e-08
8.63251e-08
8.8386e-08
8.85907e-08
1.07551e-07
1.08768e-07
1.18397e-07
1.12988e-07
1.04295e-07
1.47259e-07
2.13649e-07
5.28482e-07
3.1164e-07
7.76012e-08
8.50625e-08
2.05801e-07
1.1574e-07
9.04907e-08
1.74385e-07
4.78663e-07
7.10183e-07
7.44141e-07
7.05985e-07
6.98908e-07
6.9372e-07
7.16072e-07
7.15933e-07
6.22854e-07
4.37905e-07
2.99397e-07
2.76013e-07
2.62298e-07
2.69822e-07
2.76094e-07
2.92212e-07
3.32042e-07
4.92568e-07
6.31535e-07
6.69384e-07
7.19019e-07
7.20588e-07
5.91165e-07
5.57076e-07
7.50509e-08
4.17725e-08
3.73126e-08
3.54337e-08
3.54829e-08
4.35366e-08
5.85017e-08
1.1213e-07
1.59371e-07
3.37549e-07
4.24501e-07
4.42455e-07
3.96462e-07
3.29507e-07
2.89231e-07
2.4708e-07
2.09802e-07
2.37896e-07
2.25677e-07
2.16213e-07
2.12102e-07
1.38344e-07
1.38652e-07
1.3908e-07
1.41235e-07
1.30548e-07
1.19916e-07
1.42641e-07
2.13898e-07
1.19095e-07
2.61501e-08
2.5103e-08
3.00497e-08
2.76771e-08
2.69996e-08
3.16557e-08
4.67986e-08
6.24503e-08
1.19486e-07
1.41437e-07
1.59583e-07
1.39849e-07
1.46165e-07
1.28114e-07
1.37562e-07
1.52188e-07
1.4435e-07
1.50221e-07
1.31419e-07
7.97235e-08
5.91433e-08
3.35771e-08
2.36574e-08
1.46932e-08
1.13759e-08
8.8611e-09
7.23548e-09
5.53737e-09
5.75618e-09
1.13243e-06
1.07703e-06
9.37297e-07
2.09017e-07
3.87232e-08
2.05366e-08
2.08163e-08
3.52081e-08
6.57143e-08
9.8611e-08
1.71947e-07
3.32017e-07
3.88104e-07
5.60617e-07
5.76469e-07
6.51717e-07
6.55319e-07
6.71372e-07
6.71814e-07
6.36749e-07
4.15036e-07
1.56756e-07
5.59336e-08
3.77259e-08
3.58119e-08
4.01936e-08
4.23554e-08
4.85661e-08
6.28865e-08
7.92934e-08
6.63247e-08
2.55013e-08
1.99659e-08
1.20738e-08
1.0336e-08
8.24269e-09
5.40608e-09
5.28127e-09
7.11171e-09
1.02291e-08
1.76624e-08
3.34857e-08
6.2318e-08
1.57952e-07
2.29098e-07
2.72114e-07
3.03801e-07
3.21665e-07
3.32209e-07
3.24119e-07
3.15816e-07
2.91396e-07
2.24284e-07
1.02195e-07
8.20815e-08
6.26454e-08
6.70877e-08
5.19029e-08
2.53762e-08
1.88135e-08
1.61612e-08
8.8579e-09
1.45971e-08
3.81375e-08
7.31917e-08
2.35443e-07
5.13581e-07
7.50416e-07
7.87194e-07
8.19765e-07
8.08268e-07
7.93646e-07
6.96245e-07
6.04592e-07
3.98973e-07
2.87458e-07
8.40198e-08
3.35471e-08
1.66889e-08
1.22072e-08
1.17813e-08
1.23865e-08
1.67037e-08
2.21732e-08
3.09294e-08
3.56812e-08
3.55687e-08
3.207e-08
4.42547e-08
8.48078e-07
2.41076e-07
4.21024e-07
6.47369e-07
9.90783e-09
2.52961e-09
1.73456e-09
1.60227e-09
1.5387e-09
1.47667e-09
1.33357e-09
1.46135e-09
1.42674e-09
1.48894e-09
1.50057e-09
1.50682e-09
1.41973e-09
1.44682e-09
1.28416e-09
1.29454e-09
1.30743e-09
1.65603e-09
3.30211e-09
9.47159e-09
2.06795e-08
3.00243e-08
2.21658e-08
1.93915e-08
7.2982e-08
7.65812e-07
3.77523e-07
1.63833e-06
1.58381e-06
1.59525e-06
1.57441e-06
1.50413e-06
1.58612e-06
1.61867e-06
1.58393e-06
1.57847e-06
1.39145e-06
9.37259e-07
9.58183e-07
1.25734e-06
1.72024e-06
7.0691e-07
6.89107e-07
7.34524e-07
7.84935e-07
7.82839e-07
7.79859e-07
7.76576e-07
7.8101e-07
7.83823e-07
7.72104e-07
7.94961e-07
8.34296e-07
9.04006e-07
9.88819e-07
1.07421e-06
1.11031e-06
1.12309e-06
1.11709e-06
1.08902e-06
1.07395e-06
1.00718e-06
9.81788e-07
9.37433e-07
9.27872e-07
8.88525e-07
9.01618e-07
9.77822e-07
1.04249e-06
1.03982e-06
8.9645e-07
5.2106e-07
4.94316e-07
8.01316e-07
9.59685e-07
9.69279e-07
7.59954e-07
3.6691e-07
1.2343e-07
7.31125e-08
6.76198e-08
7.50403e-08
1.17391e-07
1.37735e-07
1.79413e-07
4.7603e-07
8.19143e-07
8.6219e-07
8.03595e-07
7.91057e-07
7.01528e-07
6.54109e-07
5.45064e-07
4.2284e-07
3.36359e-07
3.29815e-07
3.89872e-07
5.47524e-07
5.94242e-07
5.772e-07
7.48918e-07
1.6063e-07
1.41628e-07
2.53121e-07
2.71546e-07
2.72061e-07
2.82576e-07
2.87104e-07
3.15726e-07
4.54918e-07
5.88482e-07
6.36209e-07
6.42264e-07
6.24653e-07
5.32433e-07
4.27068e-07
2.94658e-07
2.75984e-07
2.73293e-07
2.87686e-07
3.00022e-07
3.16084e-07
3.292e-07
3.48718e-07
4.0289e-07
4.98113e-07
6.83633e-07
7.14579e-07
6.00651e-07
6.56797e-07
8.27884e-07
9.90966e-07
3.6736e-07
9.25116e-08
9.14667e-08
1.55368e-07
3.92891e-07
6.39704e-07
8.81734e-07
8.85653e-07
7.89739e-07
6.8034e-07
6.19328e-07
4.98052e-07
4.89991e-07
4.16522e-07
4.07012e-07
3.5152e-07
3.8185e-07
3.65214e-07
4.24108e-07
5.1776e-07
6.28348e-07
6.96732e-07
6.92299e-07
5.94154e-07
3.19745e-07
2.9153e-07
4.65214e-07
6.22438e-07
5.9646e-07
3.69626e-07
3.45333e-07
1.99874e-07
1.19461e-07
8.45067e-08
8.55083e-08
8.94297e-08
8.93294e-08
7.54465e-08
6.5677e-08
6.31251e-08
6.52839e-08
7.77224e-08
9.78559e-08
1.01931e-07
9.58684e-08
9.09556e-08
8.89613e-08
8.89763e-08
8.74314e-08
9.00979e-08
8.8384e-08
1.07331e-07
1.08801e-07
1.26952e-07
1.20754e-07
1.10707e-07
1.05711e-07
1.72124e-07
4.54183e-07
2.47242e-07
7.83237e-08
1.04293e-07
1.12827e-07
7.43878e-08
7.66238e-08
1.61485e-07
3.07707e-07
5.89013e-07
7.32402e-07
7.12918e-07
6.70592e-07
6.66599e-07
7.11923e-07
7.14135e-07
5.73968e-07
4.76661e-07
4.73423e-07
5.14152e-07
6.04156e-07
6.26012e-07
6.35377e-07
6.27233e-07
6.18679e-07
6.22264e-07
6.51493e-07
6.81044e-07
7.1551e-07
7.22217e-07
5.94574e-07
2.58074e-07
4.29552e-08
3.33364e-08
2.23711e-08
2.0745e-08
2.23618e-08
3.81319e-08
5.94072e-08
1.3695e-07
3.43934e-07
4.35879e-07
4.42403e-07
3.22522e-07
1.40086e-07
1.14663e-07
9.32715e-08
7.21559e-08
6.85714e-08
7.02501e-08
7.27869e-08
9.11929e-08
1.04514e-07
1.16968e-07
1.22302e-07
1.31313e-07
1.45427e-07
1.49204e-07
1.36959e-07
1.46182e-07
2.07277e-07
4.61949e-08
2.26127e-08
2.46803e-08
2.33684e-08
2.24644e-08
3.20752e-08
5.60802e-08
1.16862e-07
1.76877e-07
2.10075e-07
1.95444e-07
1.71008e-07
1.56728e-07
1.37015e-07
1.41869e-07
1.40512e-07
1.49526e-07
1.7801e-07
2.05584e-07
2.05717e-07
1.87849e-07
1.3644e-07
6.54369e-08
3.14618e-08
1.97454e-08
1.30395e-08
1.17673e-08
1.16623e-08
8.02701e-09
5.85826e-09
1.15193e-06
1.09987e-06
4.26122e-07
4.9279e-08
2.02098e-08
1.88383e-08
4.51324e-08
9.74001e-08
1.80985e-07
2.35875e-07
4.50841e-07
6.22354e-07
7.19075e-07
7.71947e-07
6.96278e-07
7.23524e-07
6.93988e-07
7.05717e-07
7.06532e-07
7.19931e-07
7.14156e-07
5.12613e-07
1.94251e-07
6.3599e-08
4.00479e-08
4.46281e-08
4.77043e-08
5.01705e-08
5.8923e-08
7.62801e-08
6.39258e-08
3.82812e-08
2.56522e-08
1.25269e-08
8.50907e-09
4.97941e-09
5.09112e-09
8.22732e-09
1.64177e-08
3.77285e-08
8.56178e-08
2.53806e-07
3.34613e-07
4.61602e-07
4.25574e-07
3.38818e-07
3.36164e-07
3.37987e-07
4.26404e-07
4.5348e-07
4.90446e-07
5.2597e-07
5.07241e-07
3.24891e-07
2.21904e-07
1.05035e-07
9.72074e-08
6.49047e-08
3.23835e-08
1.80348e-08
1.14059e-08
1.3065e-08
3.66337e-08
9.47875e-08
3.37465e-07
7.27169e-07
7.9738e-07
8.04213e-07
7.80714e-07
7.26265e-07
5.83385e-07
4.13151e-07
3.85483e-07
3.79849e-07
3.72707e-07
3.11047e-07
6.94643e-08
1.87475e-08
8.19634e-09
7.4069e-09
9.34425e-09
1.52347e-08
2.87041e-08
4.48722e-08
7.20368e-08
6.96574e-08
4.82282e-08
3.551e-08
3.06091e-08
7.91387e-07
2.63153e-07
6.48728e-07
3.70457e-08
3.39529e-09
1.77197e-09
1.67471e-09
1.71135e-09
1.73853e-09
1.88066e-09
1.98125e-09
2.40929e-09
2.85476e-09
3.00057e-09
3.1262e-09
3.01653e-09
2.78908e-09
2.38818e-09
1.87737e-09
1.78756e-09
1.58265e-09
1.60095e-09
2.43976e-09
1.15789e-08
8.09901e-08
1.15718e-07
5.87682e-08
2.45556e-08
4.06458e-08
9.00094e-07
3.81466e-07
1.63303e-06
1.57778e-06
1.57085e-06
1.27529e-06
1.24288e-06
1.35588e-06
1.59277e-06
1.59606e-06
1.57594e-06
1.51522e-06
1.20107e-06
1.00861e-06
1.26148e-06
1.71379e-06
6.8647e-07
7.34126e-07
7.6005e-07
7.5002e-07
7.39962e-07
7.54666e-07
7.50716e-07
7.85356e-07
8.22136e-07
8.1158e-07
8.22524e-07
8.80118e-07
9.92298e-07
1.10457e-06
1.16728e-06
1.17198e-06
1.17784e-06
1.16908e-06
1.1633e-06
1.13888e-06
1.11744e-06
1.09971e-06
1.04705e-06
1.01723e-06
9.54478e-07
9.31622e-07
9.65995e-07
1.09331e-06
1.10693e-06
9.42524e-07
5.08094e-07
5.08624e-07
7.56257e-07
7.91771e-07
6.60107e-07
3.15944e-07
1.15339e-07
6.72936e-08
6.26233e-08
8.1978e-08
1.33051e-07
1.5842e-07
1.6948e-07
3.60159e-07
7.89454e-07
8.77427e-07
8.57873e-07
7.99417e-07
7.7223e-07
6.57414e-07
6.01146e-07
4.97602e-07
4.347e-07
3.26967e-07
3.24389e-07
3.66978e-07
5.29944e-07
5.97746e-07
5.75531e-07
7.22331e-07
1.46762e-07
1.60514e-07
2.64709e-07
2.56991e-07
2.13595e-07
1.52927e-07
8.32061e-08
1.26068e-07
2.05639e-07
3.18682e-07
5.46805e-07
6.12209e-07
5.59072e-07
4.67319e-07
3.12688e-07
2.66015e-07
2.65026e-07
2.87997e-07
3.22162e-07
3.6765e-07
3.94075e-07
4.01831e-07
3.75356e-07
3.82856e-07
4.45453e-07
6.21641e-07
6.92486e-07
6.7789e-07
6.00858e-07
7.76709e-07
9.5903e-07
1.85558e-07
9.26449e-08
9.87421e-08
1.67226e-07
4.2452e-07
6.7219e-07
8.61802e-07
8.15179e-07
6.39058e-07
5.83395e-07
4.82073e-07
4.22324e-07
4.10256e-07
3.288e-07
3.35003e-07
3.1515e-07
2.7834e-07
2.88359e-07
2.80641e-07
3.33378e-07
4.23112e-07
5.83885e-07
6.75205e-07
6.3418e-07
4.6342e-07
2.90937e-07
3.80008e-07
5.29141e-07
5.61041e-07
3.67741e-07
3.37853e-07
1.62663e-07
8.54114e-08
7.55482e-08
7.64205e-08
7.63068e-08
6.64663e-08
4.90699e-08
4.66619e-08
5.16874e-08
6.49918e-08
8.65438e-08
1.00605e-07
9.26761e-08
8.45064e-08
9.12313e-08
1.00442e-07
1.0342e-07
9.71935e-08
9.78883e-08
9.04508e-08
1.08068e-07
1.13235e-07
1.31232e-07
1.25331e-07
1.12846e-07
1.0206e-07
1.49545e-07
3.97321e-07
1.26654e-07
8.16833e-08
1.07423e-07
8.30821e-08
4.73747e-08
4.65566e-08
6.17325e-08
7.71479e-08
2.25612e-07
5.62243e-07
7.31206e-07
7.01627e-07
6.64349e-07
7.06119e-07
7.17931e-07
6.39755e-07
6.29074e-07
6.7187e-07
7.11639e-07
7.15339e-07
7.18603e-07
7.15508e-07
7.16061e-07
7.17589e-07
7.16882e-07
7.15877e-07
7.07049e-07
7.22393e-07
7.17623e-07
6.35951e-07
1.11675e-07
3.44086e-08
2.09395e-08
1.45954e-08
1.3349e-08
1.89886e-08
3.38963e-08
7.42056e-08
1.47334e-07
3.64653e-07
3.82937e-07
1.56387e-07
9.62393e-08
6.99823e-08
7.10597e-08
5.86436e-08
4.99856e-08
4.33361e-08
2.9966e-08
2.95749e-08
3.29252e-08
4.5372e-08
6.15171e-08
7.9731e-08
9.04116e-08
1.15448e-07
1.42546e-07
1.48433e-07
1.56643e-07
2.06611e-07
2.77201e-08
1.95222e-08
1.92507e-08
1.72937e-08
2.37086e-08
5.67454e-08
1.34294e-07
2.00428e-07
2.36348e-07
2.25222e-07
1.84611e-07
1.60011e-07
2.36654e-07
2.64417e-07
3.03639e-07
2.85293e-07
2.70571e-07
2.87515e-07
3.17179e-07
3.58368e-07
3.62685e-07
2.05764e-07
1.24952e-07
5.01538e-08
2.43302e-08
1.77508e-08
2.0995e-08
2.46766e-08
1.18829e-08
6.55688e-09
1.18638e-06
8.69524e-07
8.78567e-08
2.20547e-08
1.80271e-08
4.51735e-08
1.12565e-07
1.94818e-07
2.42166e-07
4.37603e-07
5.14828e-07
7.16064e-07
7.66201e-07
7.5233e-07
6.92022e-07
5.88521e-07
5.0727e-07
5.02389e-07
5.92562e-07
6.96202e-07
7.10925e-07
7.05092e-07
3.35592e-07
8.64549e-08
4.55481e-08
5.04158e-08
7.322e-08
6.66044e-08
5.84653e-08
7.44557e-08
7.33158e-08
4.98575e-08
3.08404e-08
1.01404e-08
4.75939e-09
5.16681e-09
9.43206e-09
2.19644e-08
4.53608e-08
1.77634e-07
2.97143e-07
4.32275e-07
3.10421e-07
2.58841e-07
2.33148e-07
2.20373e-07
2.57785e-07
2.83451e-07
3.16893e-07
4.04405e-07
4.37942e-07
4.53392e-07
5.05586e-07
5.33431e-07
3.37425e-07
2.41303e-07
1.1626e-07
9.41402e-08
4.22664e-08
1.8256e-08
1.13276e-08
2.07884e-08
8.01175e-08
3.13079e-07
5.79756e-07
6.22587e-07
4.86693e-07
2.70403e-07
1.11729e-07
9.36898e-08
8.15981e-08
8.19545e-08
9.33317e-08
1.12242e-07
2.3408e-07
2.42581e-07
4.4792e-08
1.13039e-08
6.11921e-09
6.45666e-09
1.46926e-08
4.7116e-08
2.10876e-07
3.43692e-07
3.38835e-07
2.58022e-07
9.73142e-08
4.11695e-08
2.26542e-08
6.92619e-07
2.91064e-07
8.69225e-07
1.08382e-08
2.22459e-09
1.71322e-09
1.84695e-09
1.99559e-09
2.20602e-09
3.04676e-09
3.53544e-09
5.0926e-09
6.32919e-09
8.34933e-09
8.66439e-09
8.12816e-09
6.46624e-09
4.46855e-09
3.16527e-09
2.39919e-09
1.90701e-09
1.75834e-09
1.70052e-09
3.06352e-09
5.3585e-08
2.75164e-07
7.03552e-08
3.21561e-08
4.36198e-08
9.1476e-07
3.64531e-07
1.64389e-06
1.59652e-06
1.30684e-06
9.36312e-07
9.91784e-07
1.36063e-06
1.62825e-06
1.60259e-06
1.58745e-06
1.53685e-06
1.2924e-06
1.08863e-06
1.43449e-06
1.7058e-06
7.21217e-07
7.55763e-07
7.33413e-07
6.96494e-07
6.72745e-07
6.08913e-07
6.16286e-07
7.45395e-07
8.30603e-07
8.30865e-07
8.31429e-07
8.99765e-07
1.04192e-06
1.12992e-06
1.16957e-06
1.17746e-06
1.1766e-06
1.18929e-06
1.20756e-06
1.20035e-06
1.17235e-06
1.13391e-06
1.12282e-06
1.08637e-06
1.02204e-06
9.47882e-07
9.84523e-07
1.09884e-06
1.1598e-06
9.52047e-07
4.69218e-07
4.60305e-07
5.15624e-07
4.84067e-07
3.04711e-07
1.22505e-07
6.84732e-08
5.94609e-08
6.41824e-08
1.32442e-07
2.96066e-07
2.97546e-07
2.71198e-07
4.65546e-07
8.6048e-07
8.70299e-07
8.61456e-07
7.98305e-07
7.45959e-07
6.27954e-07
4.87967e-07
3.49509e-07
3.33908e-07
3.13207e-07
3.11245e-07
3.66497e-07
5.31054e-07
6.12944e-07
5.89909e-07
7.36373e-07
1.2748e-07
1.75414e-07
2.58622e-07
2.16251e-07
8.75582e-08
4.98238e-08
3.14502e-08
3.13275e-08
5.52853e-08
1.40367e-07
3.18948e-07
5.2759e-07
5.11957e-07
4.23249e-07
2.93367e-07
2.57532e-07
2.81023e-07
3.48709e-07
5.18629e-07
6.08738e-07
6.39877e-07
5.95689e-07
4.73266e-07
4.10996e-07
4.27795e-07
4.98596e-07
6.62339e-07
6.64459e-07
5.7232e-07
7.24077e-07
7.22146e-07
1.50203e-07
9.81905e-08
1.02575e-07
1.62234e-07
2.53075e-07
5.92406e-07
6.50139e-07
6.61516e-07
5.82332e-07
5.05942e-07
4.66923e-07
4.97056e-07
3.889e-07
4.21528e-07
3.86286e-07
3.44356e-07
3.24893e-07
2.92251e-07
2.78802e-07
2.59983e-07
3.04559e-07
4.22602e-07
6.28247e-07
6.48483e-07
5.24996e-07
3.0695e-07
3.05299e-07
4.52816e-07
5.47259e-07
3.43702e-07
1.94752e-07
1.39549e-07
7.52342e-08
6.71616e-08
6.42919e-08
5.95292e-08
4.77575e-08
4.70963e-08
4.58076e-08
4.66e-08
6.44316e-08
8.77407e-08
9.48542e-08
8.57299e-08
8.2697e-08
1.02961e-07
1.1334e-07
1.15438e-07
1.03424e-07
1.03962e-07
9.96209e-08
1.11168e-07
1.20353e-07
1.33967e-07
1.27438e-07
1.10216e-07
9.62619e-08
1.35381e-07
2.53648e-07
1.16334e-07
8.96686e-08
1.00859e-07
4.94687e-08
2.90388e-08
2.77657e-08
2.56575e-08
3.29861e-08
5.5221e-08
1.90121e-07
6.32605e-07
7.21641e-07
6.73182e-07
6.95042e-07
7.2851e-07
6.85759e-07
6.82109e-07
7.15989e-07
7.25641e-07
7.12387e-07
7.18332e-07
7.11328e-07
7.09105e-07
7.16023e-07
7.1597e-07
7.28934e-07
7.2371e-07
7.3051e-07
7.23499e-07
6.33467e-07
8.91075e-08
2.34116e-08
1.3286e-08
1.03203e-08
1.0742e-08
1.4816e-08
2.64661e-08
5.77338e-08
1.34073e-07
2.76633e-07
1.43525e-07
6.87737e-08
6.13533e-08
7.58609e-08
9.45281e-08
6.14503e-08
4.76571e-08
2.39831e-08
1.7899e-08
1.77065e-08
1.5307e-08
2.10471e-08
2.59864e-08
3.0939e-08
4.03864e-08
7.12486e-08
1.17208e-07
1.47986e-07
1.66346e-07
2.97579e-07
2.36857e-08
1.48846e-08
1.23529e-08
1.63782e-08
4.37018e-08
1.1478e-07
1.80931e-07
2.32641e-07
2.49245e-07
2.1517e-07
1.8283e-07
3.30804e-07
5.29073e-07
6.93521e-07
7.51396e-07
7.02177e-07
5.39378e-07
3.76033e-07
3.5559e-07
4.03608e-07
4.41886e-07
3.88713e-07
1.63335e-07
5.94056e-08
3.23524e-08
3.16265e-08
6.91059e-08
8.49744e-08
1.79052e-08
6.22789e-09
1.16304e-06
4.54231e-07
3.15473e-08
1.79313e-08
4.35042e-08
1.09392e-07
1.45296e-07
2.27751e-07
3.81892e-07
4.68805e-07
6.83883e-07
8.07886e-07
7.60997e-07
6.85994e-07
5.19009e-07
3.69432e-07
3.00589e-07
3.01233e-07
4.284e-07
6.30755e-07
6.99652e-07
7.27048e-07
4.76852e-07
9.44475e-08
6.82982e-08
8.31825e-08
1.00849e-07
9.14055e-08
5.95674e-08
7.34015e-08
8.46272e-08
5.53567e-08
1.73456e-08
4.80881e-09
4.77658e-09
1.03777e-08
2.16384e-08
4.57625e-08
8.53195e-08
2.61941e-07
2.84263e-07
2.28849e-07
1.52999e-07
8.28855e-08
1.74539e-07
2.64886e-07
4.94403e-07
6.33908e-07
6.67417e-07
6.77043e-07
6.32494e-07
5.36614e-07
5.14699e-07
5.58954e-07
5.21356e-07
3.23385e-07
2.27994e-07
1.11877e-07
4.9518e-08
1.76817e-08
1.12308e-08
3.44611e-08
1.98027e-07
3.24036e-07
3.22754e-07
1.14028e-07
5.83478e-08
4.37371e-08
3.24737e-08
3.13037e-08
3.10043e-08
3.12019e-08
4.02371e-08
4.9476e-08
8.42266e-08
9.49462e-08
4.10318e-08
9.46031e-09
4.77405e-09
7.05951e-09
3.99805e-08
3.50403e-07
8.17995e-07
8.66684e-07
8.49536e-07
5.94082e-07
2.19937e-07
4.21223e-08
1.99528e-08
7.26245e-07
3.37179e-07
7.76161e-07
6.12328e-09
1.90091e-09
1.84447e-09
2.07178e-09
2.43314e-09
3.37799e-09
4.74534e-09
6.92203e-09
1.18626e-08
1.95202e-08
2.58018e-08
3.06157e-08
2.42457e-08
1.94691e-08
1.03305e-08
5.8393e-09
3.37249e-09
2.15608e-09
1.97182e-09
1.8799e-09
1.62962e-09
9.10001e-09
3.3251e-07
1.11586e-07
4.82643e-08
7.73762e-08
8.79228e-07
3.24378e-07
1.63037e-06
1.60011e-06
9.66278e-07
7.36395e-07
9.99632e-07
1.53262e-06
1.67193e-06
1.63723e-06
1.63497e-06
1.51817e-06
1.38803e-06
1.36147e-06
1.46184e-06
1.63251e-06
7.31425e-07
7.49529e-07
6.81792e-07
6.04825e-07
5.02498e-07
4.22353e-07
5.39794e-07
7.21553e-07
8.55247e-07
8.40778e-07
8.28303e-07
9.11696e-07
1.06132e-06
1.13337e-06
1.15631e-06
1.15187e-06
1.15596e-06
1.15963e-06
1.18683e-06
1.21238e-06
1.22874e-06
1.14922e-06
1.15349e-06
1.1155e-06
1.07688e-06
9.85575e-07
1.00205e-06
1.11128e-06
1.16657e-06
9.70116e-07
4.62072e-07
4.11668e-07
3.6522e-07
2.76263e-07
1.35082e-07
6.99246e-08
5.71504e-08
5.6401e-08
1.03966e-07
3.2801e-07
4.34459e-07
3.30943e-07
2.94682e-07
6.15059e-07
8.82681e-07
8.79345e-07
8.62705e-07
7.83357e-07
7.386e-07
5.61698e-07
3.55545e-07
2.94199e-07
3.02263e-07
2.94723e-07
3.16595e-07
3.78106e-07
5.59079e-07
6.27112e-07
6.07925e-07
7.49763e-07
8.18187e-08
1.86267e-07
2.55597e-07
1.61337e-07
5.92014e-08
2.53473e-08
1.65124e-08
1.67712e-08
2.44301e-08
4.62098e-08
1.57236e-07
4.09604e-07
4.70887e-07
4.04545e-07
2.90114e-07
2.5738e-07
3.04394e-07
5.00631e-07
6.88926e-07
7.71624e-07
7.79367e-07
7.78701e-07
6.43925e-07
4.70925e-07
4.34122e-07
4.79321e-07
6.49568e-07
6.53304e-07
6.25296e-07
6.75193e-07
3.11433e-07
1.39315e-07
1.00338e-07
1.3206e-07
1.50461e-07
2.08116e-07
4.74345e-07
5.65432e-07
5.96459e-07
5.0965e-07
5.68096e-07
4.73091e-07
5.82986e-07
4.27475e-07
5.1209e-07
3.75269e-07
3.90575e-07
3.54465e-07
3.1622e-07
2.66719e-07
2.4681e-07
2.55286e-07
3.35395e-07
5.32049e-07
6.51825e-07
5.57317e-07
3.19469e-07
2.8977e-07
4.05772e-07
5.04873e-07
3.34134e-07
1.79452e-07
1.24784e-07
7.20207e-08
5.4033e-08
5.43267e-08
4.65619e-08
4.42512e-08
4.20212e-08
4.29763e-08
4.67332e-08
6.42178e-08
8.35113e-08
9.03796e-08
7.90446e-08
8.11107e-08
9.98273e-08
1.15454e-07
1.17211e-07
1.09614e-07
1.0542e-07
1.07856e-07
1.18829e-07
1.27818e-07
1.3081e-07
1.21749e-07
9.88732e-08
8.92699e-08
1.25588e-07
2.45018e-07
1.18841e-07
9.59833e-08
8.83072e-08
3.02828e-08
2.19621e-08
1.80839e-08
1.59857e-08
1.78218e-08
2.5089e-08
5.44228e-08
2.65807e-07
7.2449e-07
6.76094e-07
6.51634e-07
6.99969e-07
7.28104e-07
7.29117e-07
7.09138e-07
7.10113e-07
7.15574e-07
5.70652e-07
3.07204e-07
2.60586e-07
3.24757e-07
6.46203e-07
7.22989e-07
7.20377e-07
7.28854e-07
7.22863e-07
6.46347e-07
6.63819e-08
1.81339e-08
1.00808e-08
7.80134e-09
8.06476e-09
1.33308e-08
2.25836e-08
4.90506e-08
1.06352e-07
1.32124e-07
9.20275e-08
4.99572e-08