/*--------------------------------*- C++ -*----------------------------------*\
| =========                 |                                                 |
| \\      /  F ield         | OpenFOAM: The Open Source CFD Toolbox           |
|  \\    /   O peration     | Version:  2.1.1                                 |
|   \\  /    A nd           | Web:      www.OpenFOAM.org                      |
|    \\/     M anipulation  |                                                 |
\*---------------------------------------------------------------------------*/
FoamFile
{
    version     2.0;
    format      ascii;
    class       volScalarField;
    location    "0.004650000";
    object      rhoUnburned;
}
// * * * * * * * * * * * * * * * * * * * * * * * * * * * * * * * * * * * * * //

dimensions      [1 -3 0 0 0 0 0];

internalField   nonuniform List<scalar> 
12384
(
1.73146
1.79424
1.85842
1.92636
1.94887
1.94423
1.88512
1.80829
1.73536
1.71878
1.70907
1.65518
1.86443
3.56912
4.72047
4.55859
4.93381
5.44224
5.70259
5.94511
5.91083
5.87889
5.80384
5.7058
5.69044
5.61523
5.71695
5.61639
5.74347
5.73803
5.7368
5.80785
5.74572
5.79534
5.62074
5.6734
5.53227
5.45957
5.13626
4.12387
4.08159
4.67846
4.8266
4.90795
4.42635
4.79803
4.85684
4.77664
4.70436
4.63903
4.58077
4.54029
4.52265
4.56376
4.59113
4.6145
4.60466
4.58178
4.61089
4.62783
4.65991
4.84638
4.88222
5.16364
5.15029
5.36508
5.27613
5.29121
5.24029
5.07151
3.85289
4.11651
5.21113
5.86264
6.28891
6.25341
6.23139
6.16571
6.0503
5.94514
6.14951
6.11902
6.33745
6.36065
6.50147
6.47494
6.55781
6.45559
6.49575
6.33545
6.39067
5.98677
6.24895
5.67353
5.87765
5.21624
5.27663
4.79603
4.68747
4.39212
4.35913
4.65968
4.6661
4.65252
5.31923
5.44411
5.26024
5.16088
5.11823
5.11952
5.15767
5.24534
5.27225
5.52611
5.57006
6.03444
5.93493
6.59384
6.39035
6.52494
6.81028
6.30774
6.50911
6.32094
6.44089
6.51955
6.51674
6.48397
6.42264
6.48725
5.50523
5.4735
5.45088
5.49923
7.43722
5.65991
5.14176
5.03857
4.97942
4.9397
4.88357
4.81116
4.72294
4.60484
4.51414
4.39901
4.32763
4.27807
4.24954
4.2306
4.25025
4.27536
4.31162
4.39536
4.36369
4.38313
4.54228
4.4109
4.53221
4.63867
4.72071
4.61252
4.57571
4.66064
6.00859
6.0601
5.47354
5.63535
6.3308
6.60191
6.76473
7.04356
7.25195
7.51089
7.38804
7.48735
7.34307
7.40634
7.30973
7.32187
7.31673
7.24765
7.26626
7.17695
7.18293
7.2658
7.15692
7.48338
7.45758
7.62412
7.14826
6.81167
6.8185
8.02252
5.77969
6.17688
5.38101
5.38993
5.81615
5.65574
5.78075
5.62733
5.59103
5.52021
5.43409
5.37734
5.34841
5.31612
5.38421
5.32074
5.55366
5.45372
5.75689
5.62122
5.84211
5.66763
5.67425
5.38203
5.314
4.92312
4.6884
4.42858
4.26537
4.04707
5.19638
5.6892
4.87226
4.72774
4.96528
5.04207
5.19857
5.22991
5.31648
5.36128
5.47698
5.41214
5.63195
5.45938
5.76133
5.57831
5.4967
5.42834
5.44235
5.12624
4.96067
4.92203
4.81701
4.73385
4.68663
4.63369
4.61179
4.64435
4.69995
5.71952
4.57732
4.10223
3.91495
4.05132
4.20632
4.38877
4.61648
4.90049
5.09984
5.24289
5.38464
5.59649
5.68179
6.19523
6.18424
6.58911
6.84459
6.63368
6.65968
6.51243
6.51514
6.01941
5.97009
5.87583
5.73396
5.51917
5.0263
4.4455
4.01617
3.92728
8.24759
5.29087
5.14971
5.20898
5.26477
5.33323
5.43035
5.48941
5.54801
5.62067
5.60243
5.75514
5.69738
6.00889
5.9382
6.24545
6.15452
6.26713
6.38347
6.30165
5.81064
5.87332
5.4462
5.18218
5.06072
4.97812
4.90372
5.16253
5.25597
5.26105
9.97908
8.97429
5.06709
4.74424
5.11714
5.39595
5.88005
5.97823
6.36561
6.45457
6.58377
6.56834
6.50601
6.3913
6.25956
6.12926
6.01128
5.9284
5.86764
5.84968
5.84577
5.84451
5.86642
5.9181
5.85721
5.83578
5.69964
6.29306
7.20376
7.02336
9.96867
8.19581
6.65984
7.28094
8.69602
5.37785
4.33587
4.02281
3.91182
3.83362
3.85336
3.83192
3.83679
3.86615
3.86087
3.90313
3.94181
4.0161
4.13963
4.34088
4.58679
4.81631
5.07441
5.56768
6.03005
6.9748
7.55349
7.0613
6.85263
6.88752
2.24286
2.44413
2.58843
2.71817
2.72656
2.74657
2.64311
2.47368
2.13632
1.90154
1.77917
1.69566
1.76768
2.81768
4.76805
5.0305
6.03213
6.54237
6.37732
6.19564
5.77914
5.6159
5.45222
5.38489
5.31428
5.29892
5.25076
5.21233
5.23995
5.16981
5.20677
5.21721
5.20267
5.24721
5.10085
5.21021
5.03056
5.16395
4.99881
4.53859
3.94264
4.01894
4.22787
4.66351
4.48236
4.92512
4.85789
4.69926
4.64704
4.59928
4.614
4.66502
4.71369
4.65724
4.55179
4.48229
4.47413
4.47338
4.49907
4.53689
4.71858
4.86776
4.96
5.18009
5.13909
5.2102
5.19239
5.20912
5.29041
5.14905
4.31495
3.61465
3.67961
5.04143
6.2824
6.24551
5.98813
5.80056
5.97735
6.34005
6.52083
6.67398
6.72153
6.89124
6.94139
7.06557
7.12525
7.18119
7.23976
7.2427
7.29195
7.10467
6.77676
6.45741
6.09166
5.83108
5.51622
5.31883
5.05198
4.78098
4.50171
4.50823
4.61625
4.62321
5.33987
5.47676
5.14864
5.00375
4.95125
4.92032
4.91288
4.94574
4.92633
4.98731
5.03308
5.12673
5.11099
5.29847
5.30141
5.53879
5.5095
5.74213
5.7522
5.82463
5.98308
6.07633
6.34762
6.52598
6.42359
6.40708
6.21536
5.40359
5.19786
5.18335
7.02942
5.42633
5.12598
4.95809
4.83687
4.701
4.55373
4.34238
4.19329
4.08396
4.03593
4.0263
4.02778
4.00376
3.96809
3.93827
3.91966
3.91044
3.92491
3.93042
3.94237
3.93517
3.97495
3.99688
4.16549
4.37711
4.60063
4.62044
4.56168
4.48051
6.01039
5.77014
5.70579
6.27199
6.54255
6.49573
6.62819
7.59399
7.56348
7.74172
7.60243
7.71849
7.59404
7.55708
7.49193
7.39731
7.3288
7.24918
7.19931
7.11044
7.11631
7.11884
7.12876
7.34622
7.4243
7.67495
7.7592
7.04394
6.82608
8.01617
6.12976
6.08434
5.39129
5.72318
5.80444
5.65689
5.62247
5.49214
5.44099
5.33693
5.24307
5.13439
5.05564
5.00537
5.04591
5.01463
5.0837
5.20422
5.20909
5.24475
5.24816
5.32957
5.28798
5.15742
5.06445
4.89162
4.71684
4.52972
4.36164
4.12557
6.07054
5.27479
4.86539
5.05153
5.32037
5.35656
5.46221
5.44403
5.54543
5.36332
5.28751
4.96842
5.01088
4.82001
5.02223
4.94611
4.89671
4.97154
4.9397
4.80996
4.83401
4.87113
4.88872
4.86253
4.78165
4.70888
4.67262
4.69494
4.73367
5.43679
4.20288
4.00092
4.13011
4.35624
4.61525
5.00763
5.3514
5.36667
5.1966
5.0968
5.15234
5.36889
5.77872
6.18719
6.80127
7.03277
6.99845
7.05235
7.04131
7.22824
7.17527
6.69274
6.39737
5.9847
5.84642
5.73598
5.41868
4.9088
4.38646
4.15519
7.10556
5.25482
5.22946
5.27164
5.35471
5.42181
5.53602
5.60237
5.66032
5.67222
5.81525
5.90639
6.35658
6.5081
6.95057
7.0984
7.2326
7.2018
7.27743
7.40861
7.23921
6.52941
6.18955
5.87316
5.52363
5.28118
5.03643
4.91811
4.99136
5.06266
8.46019
5.68122
4.9085
5.36873
6.01825
6.59849
7.10942
7.7542
8.28542
8.58935
8.59862
8.42261
8.10148
7.7575
7.38956
7.00905
6.60346
6.24166
5.92618
5.71722
5.61034
5.61841
5.63858
5.75729
5.81639
5.8647
5.82326
5.99201
7.69303
7.36495
8.60313
6.89852
7.38543
8.18744
5.52626
4.28905
3.94242
3.76095
3.67554
3.62203
3.58585
3.55078
3.53861
3.52523
3.52476
3.51941
3.51519
3.51646
3.56345
3.63144
3.75952
3.909
4.0282
4.13872
4.23802
4.43744
5.55491
7.41967
6.84678
6.8634
2.60275
2.82533
2.90653
2.91661
2.88939
2.89038
2.92637
2.89929
2.63749
2.2347
1.92165
1.7668
1.74355
2.47698
5.00065
5.89356
6.73824
6.30662
5.67186
5.45196
5.39749
5.45496
5.52134
5.4572
5.28544
5.04123
4.81461
4.60428
4.43083
4.31669
4.26183
4.32552
4.41662
4.6082
4.63908
4.75125
4.66743
4.78
4.78665
4.64163
4.06544
3.75305
3.79271
4.3496
4.54062
4.89738
4.71872
4.74952
4.76853
4.75151
4.70329
4.63254
4.47195
4.42045
4.46392
4.5171
4.55158
4.56921
4.59822
4.78172
4.93668
5.19714
5.34017
5.55724
5.47207
5.53865
5.28055
5.1822
5.1778
5.22115
4.73609
3.79816
3.22044
4.18541
6.28258
6.26037
5.68952
5.76255
6.39187
6.54342
6.5378
6.70867
6.7205
6.92708
6.93786
7.09903
7.09015
7.18969
7.1568
7.19372
7.02349
6.4767
6.11937
5.76199
5.5331
5.30553
5.27445
5.28204
5.26117
5.09543
4.82334
4.5929
4.57253
4.61565
5.31939
5.5169
5.01199
4.91271
4.85674
4.79013
4.72166
4.59604
4.44522
4.40121
4.32313
4.27593
4.3259
4.36592
4.34739
4.45066
4.50575
4.6075
4.63615
4.75054
4.7876
5.02758
5.33804
5.91623
6.43254
6.3373
6.37932
5.86594
5.17136
5.09638
6.56378
5.25638
4.9955
4.81527
4.67879
4.49193
4.26939
4.13475
4.09503
4.13096
4.19397
4.22027
4.18362
4.07084
3.96803
3.88933
3.84347
3.82059
3.80928
3.79712
3.79948
3.78335
3.75268
3.77495
3.87936
4.08405
4.37119
4.56349
4.5628
4.47596
6.01506
5.86113
6.12442
6.46371
6.16165
6.11608
7.12869
7.726
7.71755
7.83094
7.75298
7.79763
7.66465
7.63082
7.46273
7.36631
7.21863
7.18449
7.0934
7.02766
7.05429
7.08031
7.03397
7.24491
7.33592
7.59018
7.75122
7.29352
6.89237
7.94809
6.33498
5.63344
5.52226
5.64796
5.42788
5.21185
5.19334
5.22184
5.2
5.15693
5.07565
5.01663
4.977
5.01307
5.07936
5.04783
5.21235
5.39511
5.25153
5.39039
5.39188
5.2139
5.13513
4.98884
4.86094
4.71627
4.63656
4.54985
4.43865
4.22064
5.75034
5.08608
5.08336
5.36963
5.47836
5.46813
5.59401
5.48142
5.27371
4.77842
4.51329
4.36055
4.43785
4.42484
4.58424
4.56242
4.47584
4.53245
4.4739
4.46821
4.59523
4.74693
4.8731
4.94106
4.90498
4.82041
4.78049
4.83135
4.85671
5.303
4.09811
4.1739
4.581
4.99424
5.39981
5.60307
5.35091
4.82118
4.63243
4.70051
4.95013
5.36471
6.0001
6.31846
7.30312
7.37014
7.32678
7.32564
7.15673
7.61384
7.33896
7.676
7.03873
6.30371
6.06387
5.91198
5.7862
5.38506
4.82553
4.40469
6.4802
5.33897
5.4174
5.4376
5.43904
5.55687
5.6682
5.61994
5.67608
5.78993
6.19904
6.62851
7.35812
7.46786
7.5884
7.45916
7.39207
7.3685
7.40422
7.4351
7.66544
7.76082
7.70048
6.83887
6.21515
5.74846
5.38753
5.04875
4.88068
4.94575
6.06387
5.12133
5.54017
6.42892
7.32357
8.18895
8.92932
9.10542
9.05454
8.80318
8.5346
8.26221
8.03909
7.86276
7.72936
7.49109
6.90973
6.17323
5.60949
5.30949
5.26215
5.38895
5.58878
5.79081
5.9154
6.00782
5.99288
5.96255
6.64112
7.9261
7.79276
6.97033
8.6931
5.68868
4.32727
3.83334
3.69522
3.60299
3.58855
3.5722
3.5873
3.61992
3.64984
3.65015
3.64534
3.64206
3.60659
3.59198
3.60192
3.6792
3.88334
4.30341
4.81114
5.00833
4.93915
4.70944
4.9308
6.31941
7.16704
6.80391
2.72021
2.93438
2.90126
2.67487
2.53962
2.56653
2.77114
2.92793
2.87088
2.52962
2.09488
1.84691
1.75858
2.34027
5.2279
6.39944
6.26129
5.58494
5.44671
5.59856
5.77907
5.7761
5.59315
5.41299
4.99738
4.59005
4.16161
3.79777
3.51359
3.34044
3.2454
3.23576
3.31049
3.49399
3.76769
4.02989
4.22716
4.35238
4.53002
4.55172
4.14121
3.65772
3.56491
4.13996
4.63541
4.92486
4.89843
4.93015
4.84989
4.77766
4.64068
4.46728
4.45485
4.53181
4.59647
4.63076
4.67004
4.6568
4.80917
4.9099
5.13579
5.39937
5.46057
5.75961
5.72324
5.72675
5.53411
5.21777
5.1261
5.204
4.9657
4.05463
3.25585
3.76922
6.27596
5.91216
5.59809
5.87486
6.40118
6.45557
6.5277
6.53806
6.73168
6.78598
6.96696
7.00025
7.10001
7.08222
7.11426
7.04733
6.37507
5.92494
5.58664
5.38755
5.16477
5.01149
4.86801
5.01849
5.16505
5.24612
5.08066
4.79717
4.63235
4.63779
5.32064
5.47778
4.89571
4.83195
4.75681
4.73325
4.56379
4.32446
4.18445
4.06218
3.91695
3.85072
3.92833
3.81439
3.88521
3.90481
3.95417
3.95945
4.03832
4.09988
4.2196
4.38992
4.75638
5.25149
6.20579
6.34055
6.28559
6.36709
5.40196
5.02898
6.21207
5.14782
4.90003
4.74476
4.59043
4.3797
4.24562
4.22077
4.29002
4.36138
4.38389
4.33893
4.16087
3.95839
3.82149
3.74876
3.69801
3.66727
3.63749
3.64237
3.6309
3.65043
3.63613
3.65962
3.69374
3.87276
4.15604
4.44389
4.56167
4.49018
6.01859
5.97864
6.31796
6.17249
5.64262
5.84417
7.18078
7.67331
7.61421
7.74066
7.80537
7.74371
7.72715
7.65825
7.45348
7.36685
7.24912
7.25936
7.19457
7.18675
7.21781
7.18423
7.19572
7.29987
7.33256
7.52588
7.67985
7.45488
7.01116
7.8412
6.04646
5.44916
5.44846
5.23664
4.91775
4.9641
5.01834
5.17497
5.22869
5.23675
5.24547
5.24766
5.21363
5.1541
5.03912
5.09918
5.33602
5.35082
5.60075
5.97283
5.84566
5.76453
5.49796
5.25173
5.00082
4.75918
4.61456
4.54885
4.51295
4.31706
5.51451
5.10445
5.3221
5.49893
5.52361
5.64546
5.52541
5.15285
4.63555
4.24386
4.22611
4.33057
4.55389
4.82099
4.94847
4.94838
4.85667
4.60842
4.4087
4.38289
4.42374
4.57976
4.8223
4.98799
5.01948
4.96192
4.99631
5.12658
5.05856
5.30828
4.12314
4.45962
5.11927
5.50796
5.65975
5.26418
4.56466
4.37376
4.47847
4.75936
5.23837
5.68069
6.27162
6.36368
7.15538
7.0529
7.07671
7.2687
7.25012
7.46657
7.45558
7.82885
7.53477
6.70862
6.25137
6.06383
6.10752
5.81561
5.20055
4.61188
6.19162
5.49128
5.6695
5.55481
5.55035
5.63505
5.59948
5.54825
5.77956
6.24938
7.11806
7.74233
7.81058
7.63138
7.59229
7.30912
7.35376
7.32813
7.19008
7.3831
7.49412
7.6485
7.82877
7.98519
7.24716
6.38781
5.82151
5.33949
4.97678
4.90745
5.60973
5.4509
6.42971
7.6364
8.68905
8.98484
9.05647
8.85778
8.37075
8.14406
7.76332
7.51124
7.37276
7.43368
7.59059
7.57673
6.91257
5.79055
5.09478
4.96489
5.17789
5.59076
5.96013
6.225
6.31375
6.29843
6.25825
6.08556
6.24318
8.50884
7.45918
7.30125
6.95175
4.60178
3.86152
3.64321
3.5993
3.57083
3.61247
3.63432
3.70355
3.7137
3.75548
3.76448
3.75484
3.7263
3.69516
3.64345
3.59171
3.5817
3.66055
4.02882
4.93665
5.83534
5.69389
5.18681
4.91733
5.83783
7.10048
6.65955
2.7816
2.95398
2.66884
2.27281
2.16006
2.29777
2.60188
2.89221
2.90871
2.65603
2.22016
1.92062
1.79261
2.28853
5.53416
6.30889
5.82471
5.46109
5.71996
5.85207
5.70048
5.47028
5.28044
5.20699
4.81569
4.317
3.77962
3.39045
3.14759
3.04278
2.97684
2.94885
2.92213
2.93689
3.07589
3.35143
3.68521
3.93528
4.24833
4.38796
4.16613
3.63987
3.46612
3.98422
4.72288
4.98464
4.98149
5.01126
4.8401
4.6529
4.49978
4.50844
4.60165
4.68541
4.71601
4.74308
4.73461
4.808
4.90601
5.06679
5.22676
5.40086
5.48135
5.77307
5.69295
5.81329
5.56572
5.25736
5.02893
5.15877
5.05857
4.27491
3.32556
3.60677
6.32955
5.69543
5.54539
5.84991
6.24841
6.31848
6.37103
6.38095
6.52098
6.70522
6.83325
6.99341
6.99311
7.05447
6.99455
6.6934
6.07569
5.64998
5.4541
5.26857
5.11826
4.9233
4.7941
4.78053
4.98247
5.24761
5.28267
5.01422
4.76002
4.69374
5.58941
5.28753
4.83146
4.72145
4.70233
4.70233
4.53413
4.28082
4.08465
3.92044
3.78519
3.7814
3.74061
3.76002
3.8184
3.80205
3.80832
3.87419
3.8658
3.87271
3.88707
4.02057
4.30836
4.86013
5.72758
6.30913
6.29835
6.33315
5.76143
5.11733
6.00486
5.0794
4.87878
4.74019
4.60701
4.43929
4.32277
4.2841
4.29269
4.35405
4.42395
4.32681
4.06861
3.87448
3.76083
3.69159
3.61394
3.54043
3.4893
3.47681
3.48695
3.52141
3.53945
3.56549
3.59919
3.75921
4.02399
4.3496
4.56318
4.51263
6.03424
6.14089
6.33596
5.73385
5.13002
5.39717
5.93566
6.71441
7.39858
7.62043
7.64398
7.80092
7.72305
7.6755
7.48779
7.40124
7.33072
7.36122
7.36435
7.34649
7.37871
7.31815
7.32842
7.37971
7.44279
7.50019
7.61511
7.5245
7.21408
7.72644
5.77402
5.32091
5.14351
4.77105
4.58803
4.77356
4.95509
5.18384
5.38564
5.43358
5.43365
5.30053
4.99013
4.77327
4.67326
4.87771
4.88831
4.99919
5.46298
5.59248
5.95289
6.28562
6.25775
5.78532
5.44009
5.04645
4.72846
4.58094
4.57911
4.40301
5.42252
5.23164
5.45201
5.50803
5.68429
5.64455
5.21303
4.64835
4.25236
4.14976
4.372
4.82838
5.34433
5.84421
5.91981
6.02265
5.7587
5.19705
4.76177
4.46985
4.41133
4.50542
4.77441
5.05527
5.14828
5.20079
5.34565
5.49818
5.30275
5.46786
4.21773
4.84521
5.55808
5.68014
5.30999
4.49884
4.22473
4.32309
4.59455
5.08457
5.62417
5.88614
6.1422
6.19038
6.32638
6.49268
6.79534
6.98784
6.90577
7.33985
7.29609
7.88588
7.63614
7.09925
6.41635
6.23388
6.40336
6.21742
5.52541
4.77232
6.05889
5.67863
5.80194
5.56846
5.65309
5.48684
5.3859
5.57159
6.2166
7.30528
7.96843
7.7477
7.76066
7.34807
7.29959
7.12655
7.0087
6.88403
7.1391
7.07033
7.19081
7.4692
7.53387
7.83517
7.95221
7.11664
6.30645
5.65976
5.14458
4.93877
5.51729
5.96965
7.35395
8.3055
8.81601
8.5965
8.11671
7.11619
6.56397
6.21194
6.19774
6.30802
6.5135
6.8628
7.32267
7.48897
6.82094
5.46169
4.85869
4.95026
5.57912
6.30837
6.93795
7.18859
7.14926
6.9179
6.58538
6.27538
6.19246
8.76372
7.33826
7.83467
5.728
4.10705
3.67495
3.57566
3.59613
3.61165
3.67153
3.71637
3.76891
3.80979
3.83213
3.86178
3.84429
3.80072
3.77902
3.71053
3.64052
3.58498
3.55671
3.62522
4.19236
5.85746
6.26755
5.43544
5.08376
5.85913
7.28063
6.55449
2.81701
2.91472
2.39368
2.02015
2.04292
2.29259
2.65425
2.90295
2.87882
2.62054
2.25322
1.97584
1.8272
2.26562
5.65964
6.15149
5.58363
5.63113
5.75104
5.46692
5.03468
4.87556
4.92813
5.06496
4.76972
4.19761
3.61285
3.27137
3.11569
3.08061
3.06322
3.02759
2.95382
2.86302
2.85039
2.96084
3.23835
3.56657
3.94121
4.2414
4.11777
3.63906
3.42675
3.93549
4.84139
5.06176
5.02758
4.90432
4.73456
4.5768
4.5743
4.67232
4.76542
4.78331
4.81274
4.81006
4.87346
4.89495
5.00557
5.0799
5.10315
5.20691
5.38113
5.69138
5.56428
5.69502
5.4643
5.15477
4.97567
5.09011
5.09268
4.35998
3.36336
3.51669
6.26804
5.57722
5.51869
5.7844
6.00644
6.13877
6.07499
6.16204
6.20602
6.49625
6.75039
6.8762
6.98101
6.94813
6.98376
6.64222
5.9627
5.63163
5.38896
5.23038
5.08119
4.9413
4.76717
4.75576
4.89477
5.22611
5.38451
5.18174
4.88165
4.79022
5.78119
4.99771
4.72462
4.65304
4.66424
4.70073
4.62501
4.39279
4.08531
3.98741
3.88432
3.86015
3.75734
3.97678
3.76879
3.83233
3.87163
3.83988
3.80539
3.77009
3.81555
3.89265
4.08316
4.50016
5.33607
6.22345
6.23906
6.32116
6.16466
5.05883
6.0037
5.11188
4.86908
4.79479
4.67028
4.49569
4.29745
4.13052
4.08926
4.22293
4.37245
4.34094
4.06208
3.88071
3.78233
3.69346
3.55988
3.44584
3.36783
3.35837
3.38441
3.42235
3.47463
3.49553
3.56212
3.71021
3.97375
4.3293
4.57498
4.52167
6.06089
6.25811
6.18838
5.26401
4.80101
4.89391
5.12525
5.42492
6.09243
7.36557
7.51244
7.70633
7.76096
7.67525
7.58533
7.45483
7.38364
7.43514
7.49233
7.38291
7.37697
7.33205
7.30161
7.36696
7.45064
7.55674
7.55258
7.57894
7.40853
7.58413
5.6393
5.13494
4.75133
4.40072
4.39691
4.59012
4.8964
5.19559
5.45143
5.55397
5.3861
4.96228
4.60789
4.5153
4.62454
4.81702
4.79571
5.17347
5.1669
5.26992
5.78484
6.04116
6.2946
6.33025
5.88028
5.45896
4.96167
4.66233
4.65946
4.51474
5.38483
5.33079
5.51634
5.66572
5.74127
5.42565
4.86292
4.39589
4.16748
4.25954
4.80925
5.49868
5.9173
6.10322
5.96425
6.1264
6.12533
5.74659
5.18545
4.6517
4.44247
4.52757
4.79552
5.14785
5.34598
5.50732
5.88734
6.162
5.66669
5.60278
4.34556
5.28808
5.67525
5.46027
4.53495
4.15101
4.1894
4.40866
4.85044
5.40051
5.76334
5.85435
5.90311
5.66329
5.95356
5.96486
6.4289
6.82109
6.85424
7.18215
7.13161
7.86517
7.65147
7.29827
6.58235
6.43297
6.72374
6.55484
5.73262
4.88147
5.99104
5.80311
5.75215
5.60011
5.4674
5.18323
5.35569
5.83533
7.08827
7.84827
7.90754
7.55993
7.47907
7.08331
7.24395
6.87425
7.03886
7.02475
6.83812
7.03542
7.11532
7.22564
7.35239
7.70933
7.76616
7.6417
6.77782
5.98407
5.30059
5.0079
5.69284
6.48051
7.68932
8.19646
7.84765
6.82151
5.79005
5.3113
5.11542
5.10421
5.16692
5.38927
5.78839
6.27731
6.8404
7.2021
6.78125
5.42415
4.87958
5.10462
6.21956
7.24994
7.32778
7.04978
7.01827
7.08972
7.00828
6.41627
6.10137
8.7167
7.33011
8.1579
5.09958
3.87402
3.60785
3.57312
3.62205
3.66325
3.72736
3.77722
3.82732
3.85629
3.87959
3.88997
3.89879
3.85278
3.83404
3.76262
3.68142
3.61913
3.56989
3.54255
3.60986
4.9471
6.64754
5.90562
5.48013
6.38184
7.08464
6.40814
2.82888
2.83964
2.16595
1.93702
2.06337
2.39422
2.6956
2.82362
2.71804
2.46702
2.21352
1.99923
1.85887
2.24214
5.81365
5.92328
5.60762
5.61023
5.43925
4.79458
4.47525
4.44768
4.62746
4.95648
4.75305
4.10217
3.5005
3.22838
3.15055
3.15313
3.14441
3.11999
3.06609
2.95292
2.81759
2.79782
2.95655
3.27986
3.70146
4.10299
4.03512
3.61104
3.41311
3.91177
4.86778
5.01405
4.99368
4.91879
4.69786
4.65052
4.73327
4.84867
4.89967
4.91107
4.92775
4.93799
4.94892
4.99332
5.02106
4.98249
4.91887
5.02678
5.30166
5.61775
5.39919
5.37356
5.12834
5.00468
4.89516
5.12113
5.07871
4.3429
3.33834
3.52142
6.34516
5.52231
5.40426
5.66263
5.78696
5.85334
5.92638
5.89315
5.84063
6.00264
6.56476
6.82695
6.88433
6.94595
6.87958
6.68542
6.05838
5.62338
5.39996
5.1715
5.05261
4.88739
4.81585
4.7596
4.88028
5.21904
5.4356
5.30784
5.03563
4.90399
5.5183
4.92543
4.68693
4.62131
4.62899
4.74394
4.76397
4.53793
4.2302
4.15671
3.90568
4.02255
3.79835
4.06668
3.65204
3.87082
3.60871
3.64625
3.69896
3.72736
3.70873
3.81224
4.05258
4.48926
5.15869
6.18463
6.29073
6.25401
6.4212
5.17386
5.9338
5.21991
4.93075
4.80109
4.7844
4.49622
4.13219
3.86285
3.86953
4.08142
4.28799
4.32787
4.10383
3.93085
3.85106
3.7343
3.58794
3.4452
3.36275
3.33613
3.36609
3.38694
3.44097
3.47069
3.58449
3.73914
4.02648
4.38953
4.60097
4.52366
5.9467
6.25073
5.85797
4.91691
4.60521
4.68503
4.7412
4.88966
5.08385
5.88778
7.37664
7.60861
7.76349
7.71495
7.6327
7.55129
7.55768
7.49118
7.44324
7.43311
7.22884
7.06803
7.05732
7.09813
7.2997
7.46429
7.57921
7.59344
7.5889
7.56377
5.54973
4.90957
4.41918
4.13728
4.23877
4.41899
4.78674
5.12444
5.44206
5.4834
5.16242
4.66936
4.47173
4.51946
4.73186
4.86821
5.1506
5.46695
5.11256
5.3797
5.43304
5.93473
6.1795
6.33704
6.36269
5.76518
5.19757
4.75171
4.74582
4.56592
5.53576
5.42456
5.56656
5.69934
5.63141
5.17231
4.69041
4.30414
4.20386
4.48008
5.189
5.62886
5.44629
5.24381
5.2435
5.48627
5.83296
5.88359
5.39995
4.76723
4.49511
4.57792
4.9201
5.29637
5.57962
6.06495
6.78225
6.83069
5.84601
5.67619
4.58057
5.6008
5.58196
4.70728
4.13281
4.09689
4.24181
4.52904
5.06069
5.59918
5.80279
5.80827
5.65412
5.50047
5.95267
6.15223
6.84161
6.72432
6.90564
6.99321
7.20119
7.68312
7.63059
7.25901
6.62256
6.72901
7.13504
6.8322
5.82036
4.95946
5.97075
5.84955
5.67083
5.4692
5.04668
5.07488
5.46407
6.29814
7.70722
7.74663
7.72729
7.31153
7.41983
7.04389
7.24984
6.93482
7.17419
6.89703
7.09558
7.12979
6.97866
7.31792
7.18506
7.6102
7.70246
7.99471
7.03093
6.24342
5.44582
5.04678
5.79528
6.83291
7.64878
7.31883
6.24775
5.25394
4.78176
4.57961
4.53278
4.53288
4.62848
4.79298
5.1329
5.68099
6.31802
6.93619
6.87581
5.55103
4.89453
5.29413
6.84206
7.52333
7.10342
6.99466
7.06401
7.37297
7.07044
6.47435
6.28175
8.80655
7.32872
8.0575
4.77188
3.76962
3.58478
3.58702
3.65254
3.70603
3.75891
3.8121
3.84574
3.8764
3.89885
3.9061
3.9007
3.88893
3.8493
3.79663
3.72594
3.62858
3.5819
3.55327
3.49942
3.8906
6.67496
6.78403
6.5008
7.20049
6.81498
6.26382
2.83601
2.7596
2.0853
1.93873
2.13628
2.39871
2.5402
2.53233
2.42858
2.26518
2.11418
1.96857
1.89547
2.24145
5.83113
5.8471
5.57502
5.52252
4.92439
4.52492
4.25674
4.30577
4.45603
4.90514
4.75939
4.05786
3.43642
3.22272
3.17638
3.17849
3.13612
3.06863
2.99616
2.88069
2.73308
2.66391
2.77257
3.08962
3.56056
3.97413
3.93079
3.54789
3.43214
3.98073
5.02235
5.12235
5.02009
4.88923
4.80475
4.81753
4.91847
4.98816
5.01902
4.9962
4.99077
4.9892
5.04077
5.0337
5.01031
4.89029
4.76389
4.90456
5.2222
5.5791
5.23178
5.04353
4.91877
4.87547
4.94618
5.14938
5.01141
4.12236
3.29586
3.51991
6.29446
5.51966
5.37084
5.51016
5.67312
5.88517
5.9005
5.88974
5.69132
5.68481
5.98077
6.67875
6.8652
6.8528
6.89978
6.82499
6.12357
5.65625
5.3866
5.19999
5.04043
4.8621
4.83384
4.77144
4.90478
5.23585
5.50308
5.42277
5.15097
5.00656
4.99481
4.80614
4.72588
4.67011
4.67414
4.77455
4.82848
4.71662
4.44129
4.23957
3.96623
4.09953
3.83633
4.0098
3.53228
3.65422
3.33359
3.50434
3.52309
3.59876
3.64882
3.73514
4.06191
4.57044
5.44763
6.2635
6.20588
6.34818
6.34974
5.0015
5.68912
5.34951
5.09897
4.96329
4.7692
4.4753
3.94263
3.6456
3.66094
3.94708
4.26154
4.37272
4.17857
3.99733
3.93794
3.84683
3.71757
3.57215
3.47497
3.41229
3.40568
3.42711
3.49256
3.55768
3.71127
3.91403
4.20204
4.48643
4.61284
4.5248
6.07719
6.16839
5.47512
4.70078
4.55846
4.61775
4.68755
4.69639
4.79262
5.10714
6.33781
7.62372
7.83002
7.91772
7.83624
7.74585
7.74602
7.76126
7.48271
7.11423
6.02431
5.62385
5.4085
5.65069
6.78886
7.32925
7.51404
7.5449
7.42968
7.2577
5.35334
4.64049
4.14357
3.95616
4.08386
4.2666
4.62549
5.02477
5.33986
5.38756
4.97153
4.54958
4.44716
4.60227
4.72426
4.97162
5.46074
5.12198
5.02583
5.21824
5.30294
5.69759
5.90563
6.16327
6.30006
6.0814
5.19855
4.82213
4.83077
4.66553
5.37463
5.50118
5.61433
5.73855
5.40171
5.02392
4.61016
4.26185
4.23246
4.65172
5.32361
5.24054
4.9734
4.81342
4.99634
5.30787
5.70522
5.70095
5.25265
4.75396
4.52578
4.70817
5.10421
5.56859
5.99544
6.54711
6.41133
6.73298
5.86441
5.87807
4.86711
5.70279
5.06384
4.19364
4.02979
4.11103
4.28856
4.62835
5.19921
5.68215
5.91433
5.76577
5.62876
5.6165
5.94451
6.65657
6.91148
6.73965
6.99247
6.86186
7.30893
7.47071
7.46041
6.96404
6.78467
7.22808
7.5605
6.87302
5.74981
5.04022
5.91738
5.83777
5.4807
5.01069
4.92328
5.07882
5.55881
6.49694
7.66386
7.57609
7.60965
7.22669
7.38019
7.10262
7.43096
7.01523
7.16474
6.87041
6.77631
6.96419
6.9111
7.15583
7.22234
7.44083
7.82555
7.96927
7.21139
6.27454
5.52115
5.08541
5.9198
6.88448
7.0549
6.19871
5.23936
4.59
4.39449
4.31107
4.30045
4.30225
4.35216
4.44388
4.63788
5.1613
5.93768
6.67437
6.94553
5.72746
4.92669
5.40037
6.88291
7.50155
7.3003
7.11482
7.22469
7.68597
7.00296
6.35516
6.63501
8.35644
7.35251
8.01824
4.67948
3.72991
3.57822
3.60154
3.67025
3.72989
3.77468
3.83627
3.83681
3.89653
3.84202
3.87964
3.89548
3.89469
3.86387
3.79759
3.75682
3.64958
3.57184
3.54998
3.52626
3.47195
5.60212
7.31974
7.28466
7.22427
6.77531
6.70375
2.834
2.74903
2.06581
1.96224
2.16298
2.28896
2.2735
2.22447
2.20765
2.25251
2.27508
2.14215
1.97363
2.11249
2.22512
3.02573
5.06363
5.72053
5.5886
5.35944
4.83478
4.50943
4.35058
4.27679
4.39056
4.90587
4.8042
4.0677
3.44082
3.23495
3.19115
3.17389
3.06214
2.90977
2.78535
2.69088
2.59498
2.56382
2.68017
3.0223
3.53899
3.85644
3.76214
3.46094
3.59202
4.02978
4.37823
5.01254
5.1174
5.18951
5.14987
5.12886
5.06869
5.09243
5.12598
5.14077
5.12486
5.05457
5.08307
5.10269
5.15509
5.0517
4.99147
4.79062
4.65766
4.76138
5.22904
5.4359
5.22701
5.00439
4.86083
4.96952
5.08241
5.17529
4.75747
3.84816
3.30298
3.61934
4.42156
5.35878
6.33016
5.46444
5.29028
5.38419
5.56211
5.77952
5.85091
5.81734
5.66921
5.55411
5.63726
5.99753
6.68545
6.86612
6.84691
6.83758
6.20036
5.67098
5.42007
5.26
5.02002
4.86846
4.84166
4.80478
4.98924
5.25998
5.51916
5.42082
5.17647
5.10551
5.19302
4.9756
5.16549
5.06623
4.96006
4.8299
4.7265
4.74269
4.90175
4.85852
4.50613
4.27533
4.09637
4.10254
3.91216
3.89915
3.45213
3.49731
3.28502
3.42354
3.5155
3.64393
3.73521
3.94684
4.42989
5.15452
6.01614
6.13835
6.32023
6.24606
6.53203
4.8813
4.5263
4.47072
5.2905
5.4264
5.37999
5.12595
4.92357
4.52785
3.98102
3.54816
3.5029
3.73813
4.09678
4.34006
4.26235
4.08328
4.03121
3.99957
3.90995
3.79736
3.69294
3.62568
3.61654
3.65054
3.7441
3.83822
4.01433
4.20938
4.39135
4.51362
4.55333
4.47606
4.62303
4.69341
5.78669
6.00814
5.19403
4.57542
4.52963
4.66634
4.6405
4.65769
4.65619
4.87693
5.84956
7.5536
7.80118
7.87409
7.94623
7.92413
7.74392
7.46432
6.26598
5.34009
4.99689
4.84235
4.80701
4.88379
5.36768
7.12063
7.5713
7.53123
7.5115
7.26595
6.34195
4.98899
5.52048
4.38302
3.90289
3.80875
3.92006
4.11882
4.46961
4.88674
5.23259
5.30681
4.87153
4.50972
4.50145
4.60125
4.74215
5.21645
5.36384
5.09382
5.35025
5.21865
5.23553
5.71498
5.92439
6.08075
6.15025
5.94089
5.15452
4.89031
4.92005
4.71937
4.73976
4.7249
5.96371
5.64798
5.56106
5.39567
5.13576
4.92204
4.56935
4.21409
4.21458
4.70598
5.22248
5.05065
4.75251
4.74449
4.99355
5.32463
5.59437
5.52455
5.13221
4.72635
4.70419
4.92483
5.38145
5.86206
6.25248
6.1
6.1703
6.80693
5.84497
5.80773
5.1493
5.12032
5.41906
5.45006
4.41328
3.9377
3.99921
4.13663
4.32028
4.66295
5.22557
5.83367
5.92857
5.91494
5.69352
5.70625
5.92138
6.84507
6.88909
6.88584
6.91668
6.79488
7.32095
7.08724
7.28066
6.96108
7.34122
7.65506
7.67167
6.7138
5.67952
5.04524
5.24508
5.94334
5.97777
5.58836
5.07611
4.84243
4.89079
5.02868
5.45092
6.33476
7.27703
7.48858
7.52201
7.19754
7.42929
7.19502
7.43164
6.95833
7.23367
6.72441
6.81177
6.98995
6.80879
7.14778
7.21419
7.53069
7.84315
7.8037
7.10894
6.23833
5.49826
5.10738
5.17
5.18269
5.94831
6.79097
6.44936
5.4608
4.65995
4.31437
4.24574
4.24827
4.21249
4.26292
4.25618
4.36084
4.41544
4.66989
5.46105
6.24355
6.81306
6.06812
5.01626
5.10125
6.42406
7.66884
7.62544
7.6626
7.696
7.65485
6.64062
6.3899
7.58435
7.62373
7.11528
7.44093
7.47923
8.05276
4.8193
3.74937
3.5699
3.60811
3.66977
3.74365
3.7607
3.83534
3.81934
3.89003
3.84186
3.87088
3.86931
3.89214
3.8595
3.79097
3.7496
3.66124
3.5725
3.53447
3.53095
3.40437
4.46991
7.43054
7.42497
7.57114
5.9444
4.23424
3.028
2.95907
2.83952
2.80798
2.13894
1.98843
2.14516
2.19684
2.16069
2.18523
2.53021
3.14278
3.4917
3.19076
2.61774
2.33592
2.65544
3.69829
5.35478
5.72899
5.46364
5.26309
4.70341
4.52244
4.49305
4.36643
4.37625
4.9321
4.89739
4.15398
3.50817
3.27826
3.21283
3.17326
3.04133
2.8488
2.68769
2.60034
2.55629
2.57649
2.73892
3.1102
3.55956
3.76418
3.59101
3.39508
3.51521
3.87357
4.21179
4.74801
5.13527
5.11644
5.08349
5.08188
5.12695
5.11901
5.19017
5.27263
5.11389
5.03328
5.08593
5.15836
5.21301
5.03414
5.00004
4.75492
4.5761
4.66714
5.01016
5.30675
5.22353
5.13717
5.08497
5.10844
5.16956
4.96552
4.34216
3.60356
3.38135
3.7196
4.39466
5.28445
5.98322
5.46342
5.34009
5.39894
5.582
5.72089
5.81562
5.76731
5.70787
5.5008
5.52222
5.63781
6.07561
6.34176
6.81098
6.878
6.43707
5.78062
5.46308
5.22828
5.06494
4.94266
4.94472
4.9418
5.07853
5.32025
5.48246
5.37119
5.19086
5.13358
4.83368
5.06913
5.07624
5.23006
5.24283
5.12573
4.8903
4.73636
4.91669
4.88285
4.60865
4.29413
4.23601
4.08133
4.11294
3.86406
3.66686
3.57355
3.47025
3.6536
3.766
4.01978
4.2961
4.86571
5.50069
5.95267
6.15805
6.15355
6.32924
6.26798
6.58822
5.17243
4.50904
4.32166
4.26254
4.73299
5.41401
5.31762
4.99694
4.6079
4.01388
3.5851
3.49785
3.71499
4.03221
4.30503
4.35734
4.16359
4.11435
4.128
4.09091
4.05951
4.02595
4.02877
4.04159
4.07577
4.15733
4.25878
4.34581
4.42253
4.4926
4.57414
4.60166
4.52431
4.70867
4.85959
5.88094
5.75011
4.92827
4.52069
4.55339
4.63047
4.64306
4.5766
4.58361
4.74762
5.7886
7.6752
8.08281
8.16575
8.12264
8.06926
7.57207
6.00795
5.08384
4.81904
4.64573
4.68778
4.57654
4.62229
4.91726
6.96816
7.49222
7.6076
7.40301
7.2072
4.90589
4.48294
4.94268
4.06477
3.72062
3.66283
3.7373
3.96459
4.3151
4.74197
5.13672
5.26169
4.84256
4.56697
4.59925
4.6698
4.90346
5.23652
5.2341
5.58754
5.56488
5.26726
5.37634
5.72693
5.83666
6.03477
6.0128
5.62605
5.01748
4.87541
4.78932
4.58595
4.62222
5.33383
5.7922
5.62472
5.3987
4.96827
4.87228
4.84935
4.553
4.17073
4.15361
4.64249
5.16104
5.00963
4.79059
4.81034
5.06233
5.37016
5.41954
5.16184
4.82661
4.75794
4.7944
5.19378
5.6059
5.866
5.91234
5.95321
6.34208
6.54162
5.74452
5.58402
4.91863
5.40739
5.59253
4.69173
3.89057
3.7827
3.94305
4.12553
4.32663
4.60365
5.26389
5.78934
6.12701
6.01532
5.89588
5.79906
5.90372
6.41125
7.01255
6.80161
6.94668
6.81451
7.18343
7.14002
7.24662
7.53041
7.71471
7.96968
7.40749