/*--------------------------------*- C++ -*----------------------------------*\
| =========                 |                                                 |
| \\      /  F ield         | OpenFOAM: The Open Source CFD Toolbox           |
|  \\    /   O peration     | Version:  2.1.1                                 |
|   \\  /    A nd           | Web:      www.OpenFOAM.org                      |
|    \\/     M anipulation  |                                                 |
\*---------------------------------------------------------------------------*/
FoamFile
{
    version     2.0;
    format      ascii;
    class       volScalarField;
    location    "0.004650000";
    object      sL;
}
// * * * * * * * * * * * * * * * * * * * * * * * * * * * * * * * * * * * * * //

dimensions      [0 1 -1 0 0 0 0];

internalField   nonuniform List<scalar> 
12384
(
18.3857
17.379
16.2989
15.4175
14.9989
15.2112
16.0553
17.2971
18.4585
18.7497
18.6417
19.7448
14.2196
3.97474
1.68491
1.87331
1.66632
1.39189
1.30598
1.20486
1.24079
1.26991
1.31122
1.36687
1.37053
1.40727
1.32958
1.37946
1.30393
1.2724
1.28254
1.21389
1.25151
1.20345
1.3148
1.26289
1.38682
1.42686
1.65615
2.45152
2.17373
1.81769
1.99213
2.04358
3.54525
3.12411
3.04639
3.08722
3.11287
3.12032
3.11974
3.08206
3.04859
2.9269
2.90241
2.87941
2.94023
2.93384
2.92387
2.75093
2.75496
2.30318
2.34814
1.90745
1.997
1.70416
1.81291
1.74206
1.76607
1.81912
3.04284
2.57638
1.55888
1.18196
1.30775
1.3498
1.34586
1.38621
1.40869
1.49616
1.37985
1.45152
1.33542
1.38784
1.31491
1.373
1.32824
1.40603
1.3795
1.48188
1.44316
1.68343
1.5183
1.955
1.75275
2.43947
2.32671
3.03338
3.22928
3.7704
3.80317
3.25029
3.21088
3.23914
2.98603
2.92749
3.18756
3.27679
3.31653
3.26829
3.17443
2.90293
2.88692
2.36367
2.38739
1.78781
1.92237
1.37778
1.52207
1.27307
1.2306
1.26044
1.23018
1.23808
1.2297
1.22955
1.23986
1.27342
1.30799
1.2076
1.45475
1.46794
1.49874
1.46591
1.5332
2.67109
3.14894
3.17186
3.20729
3.26519
3.3456
3.43116
3.53243
3.70764
3.80651
3.99611
4.10253
4.18068
4.18386
4.16182
4.00968
3.84406
3.69251
3.41682
3.52018
3.49729
3.22439
3.72286
3.54482
3.57951
3.49267
3.63995
3.54227
3.36881
1.95462
2.00769
2.49984
2.35018
1.81542
1.62991
1.54536
1.38656
1.31167
1.20585
1.18058
1.15307
1.14491
1.13322
1.13275
1.13257
1.13441
1.13964
1.14022
1.14047
1.14159
1.1345
1.13851
1.11922
1.11829
1.1363
1.29054
1.42904
1.46572
1.09659
1.34721
1.40158
2.24396
2.27119
2.00036
2.16668
2.08381
2.26219
2.29828
2.40566
2.50598
2.5757
2.59308
2.61486
2.47265
2.52887
2.19823
2.31084
1.96474
2.0973
1.86125
2.02219
1.97274
2.29576
2.30104
2.85494
3.19534
3.66969
3.96206
4.38631
1.78712
2.00831
3.42335
3.48753
3.17957
3.13
2.85301
2.85759
2.64869
2.64937
2.39706
2.49305
2.14859
2.33702
1.95049
2.13715
2.23833
2.24803
2.26806
2.73942
2.96731
3.00226
3.18921
3.3068
3.32544
3.33436
3.29028
3.18851
3.0839
2.35861
3.26623
4.70241
5.26861
5.07488
4.81508
4.62513
4.32176
3.89597
3.546
3.24623
2.95666
2.57754
2.47439
1.88113
1.95133
1.50756
1.50322
1.50163
1.48695
1.73402
1.66596
2.12912
2.12141
2.3343
2.42894
2.6955
3.24957
4.04243
4.91971
5.12102
1.2442
2.82387
2.93521
2.84853
2.76837
2.71598
2.65399
2.60164
2.55437
2.44785
2.46314
2.24855
2.34012
1.9815
2.07008
1.81277
1.90004
1.81641
1.722
1.83695
2.28496
2.17951
2.74462
3.06933
3.26198
3.48841
3.60994
3.32905
3.30137
3.29583
0.788719
1.30054
3.35596
3.67708
3.28415
3.09372
2.63097
2.58342
2.27063
2.23442
2.16464
2.18637
2.24363
2.33731
2.44341
2.54774
2.63083
2.67482
2.69398
2.66224
2.63053
2.58993
2.55976
2.47632
2.56484
2.59655
2.72181
2.29319
0.978662
0.927459
0.455655
0.621097
0.882226
1.0037
1.21267
2.84143
3.66524
3.88693
3.99137
3.94276
3.87567
3.70509
3.75079
3.57211
3.65337
3.55521
3.58875
3.62321
3.56856
3.46653
3.37411
3.33733
3.21622
2.86021
2.55276
1.92774
1.39235
1.12416
0.937857
0.982763
11.2338
9.25572
8.11816
7.21144
7.19514
7.1051
7.86756
9.206
12.581
15.6824
17.4768
18.9419
16.6575
6.189
1.66884
1.59533
1.17483
1.01624
1.08282
1.15753
1.36033
1.45292
1.54631
1.57234
1.59867
1.56884
1.56894
1.5818
1.52482
1.56541
1.52342
1.49917
1.50588
1.47006
1.58487
1.48106
1.6849
1.5663
1.76413
2.06852
2.56773
2.28908
2.12753
2.00026
3.42151
2.95105
2.96994
3.07131
3.04364
3.01317
2.88475
2.77415
2.73205
2.93266
3.14724
3.26321
3.25095
3.21747
3.10437
2.93633
2.6492
2.30628
2.24952
1.92186
1.98555
1.85189
1.87304
1.83565
1.74768
1.80032
2.45233
3.36886
3.21499
1.64543
1.31473
1.35587
1.43676
1.51964
1.42278
1.30067
1.21623
1.18384
1.15641
1.13088
1.11461
1.10301
1.1015
1.10567
1.11409
1.12692
1.14254
1.20172
1.34365
1.47904
1.69036
1.88244
2.16974
2.39345
2.73548
3.12577
3.57798
3.52765
3.32095
3.2904
2.90654
2.88006
3.30759
3.49091
3.52617
3.49681
3.42348
3.16238
3.10508
2.74832
2.66252
2.27475
2.33059
1.91951
1.9197
1.62243
1.62156
1.40691
1.37505
1.35246
1.27068
1.27962
1.22086
1.19113
1.26846
1.26042
1.23779
1.51162
1.64835
1.6657
1.72437
2.86854
3.10012
3.28099
3.46853
3.67588
3.84105
4.17967
4.38481
4.58706
4.67493
4.68052
4.67599
4.69312
4.71635
4.68991
4.59268
4.49174
4.29777
4.18629
4.1358
4.05648
4.19614
4.29059
4.12263
3.93783
3.6914
3.71262
3.74638
3.78348
1.96271
2.24431
2.29785
1.87919
1.69322
1.70354
1.62163
1.25381
1.15681
1.0672
1.01173
0.971233
0.964868
0.986433
1.02235
1.06532
1.10821
1.14841
1.17413
1.19398
1.19878
1.19465
1.17984
1.14822
1.12395
1.09674
1.09763
1.33011
1.44567
1.1036
1.4064
1.69113
2.27879
2.02779
2.04121
2.14522
2.20157
2.34635
2.4116
2.53584
2.64276
2.74714
2.80273
2.83464
2.68908
2.69345
2.5631
2.3553
2.30573
2.25037
2.25838
2.1357
2.19121
2.38105
2.49934
2.79949
3.11582
3.47252
3.77581
4.18998
2.02573
3.05122
3.39964
3.18592
2.8647
2.80714
2.64777
2.65801
2.47883
2.64752
2.55566
2.91066
2.63053
2.90177
2.49219
2.61223
2.73501
2.59947
2.76491
3.07742
3.07584
3.09606
3.09965
3.13892
3.21752
3.24845
3.22984
3.16346
3.07278
2.50655
4.23783
4.99874
4.70999
4.4288
4.25681
3.78784
3.34315
3.25826
3.36843
3.35831
3.1697
2.79045
2.29735
1.86193
1.56727
1.3267
1.31533
1.31613
1.32679
1.35596
1.39714
1.73231
1.84743
2.26479
2.34384
2.53837
2.84955
3.43029
4.21304
4.65667
1.68754
2.8769
2.88009
2.81282
2.70544
2.64177
2.54795
2.46489
2.39715
2.35506
2.23587
2.18033
1.85665
1.75108
1.57641
1.44579
1.41709
1.40139
1.38737
1.38303
1.41523
1.85873
2.06843
2.37003
2.78439
3.07769
3.42341
3.58736
3.51737
3.45555
1.443
2.84949
3.5125
3.08764
2.59002
2.16986
1.90135
1.56549
1.38106
1.25745
1.25334
1.31056
1.43005
1.57998
1.76407
1.97726
2.21993
2.43384
2.63341
2.74498
2.78747
2.71401
2.69487
2.58473
2.54277
2.54421
2.59281
2.48758
1.51672
1.02807
0.570892
0.841615
1.05593
1.38948
2.75353
3.73174
4.04767
4.16229
4.25515
4.11062
4.15105
4.03488
4.00648
3.9602
3.95795
3.92552
4.09799
4.01939
4.09289
4.05691
4.02947
4.00946
4.07509
4.13769
4.19225
4.04501
2.96321
1.5809
1.0876
0.979821
7.72323
6.36858
5.99277
5.96643
6.1314
6.17357
6.02768
6.19928
7.84867
11.3646
15.1998
17.574
17.4301
8.06353
1.5246
1.22408
0.990962
1.13513
1.43133
1.57445
1.61887
1.56774
1.49709
1.49067
1.53153
1.63088
1.75883
1.87579
2.02802
2.11301
2.19154
2.10829
2.04033
1.88201
1.89235
1.80567
1.91219
1.83082
1.89335
2.00963
2.52246
2.7515
2.5947
2.15539
3.32832
2.9253
2.99568
2.81269
2.68851
2.65436
2.77389
3.00534
3.32733
3.3973
3.32293
3.22121
3.14873
3.04042
2.94897
2.4955
2.28663
1.88545
1.81227
1.57238
1.69242
1.59255
1.80365
1.84148
1.84356
1.76412
2.07675
3.07666
4.17211
2.42149
1.32147
1.35089
1.56031
1.5298
1.25066
1.2163
1.19147
1.15972
1.13144
1.10084
1.08656
1.08133
1.09314
1.11052
1.1411
1.17319
1.23553
1.47229
1.60194
1.88404
1.97443
2.28255
2.33145
2.41603
2.46296
2.68473
3.05174
3.39828
3.39861
3.31865
2.84221
2.81944
3.49205
3.60464
3.6449
3.62075
3.52569
3.42856
3.54275
3.22663
3.3151
3.10257
3.01279
2.64333
2.71643
2.38917
2.2961
2.04371
2.06259
1.87035
1.86646
1.68692
1.55396
1.33592
1.19461
1.26077
1.21425
1.34065
1.67085
1.7238
1.95588
2.98566
3.24653
3.52066
3.72955
3.96123
4.2906
4.50813
4.56816
4.49153
4.34062
4.29779
4.348
4.53244
4.66616
4.73717
4.70083
4.60709
4.45963
4.43762
4.39133
4.30901
4.72492
4.60542
4.66091
4.40997
4.02964
3.81704
3.82278
3.87422
1.97441
2.16003
1.97817
1.75666
1.91016
1.92426
1.42843
1.15275
1.04594
0.96422
0.916164
0.895968
0.901395
0.950365
1.03144
1.11013
1.17642
1.21675
1.23371
1.2443
1.23881
1.23422
1.22507
1.19405
1.15319
1.1056
1.07834
1.2226
1.38785
1.10554
1.51376
2.04096
2.19024
2.08656
2.28517
2.48285
2.55354
2.56394
2.61557
2.66058
2.74345
2.77718
2.81083
2.75328
2.6157
2.65847
2.46097
2.14558
2.29129
2.12152
2.03431
2.19418
2.25337
2.4334
2.6342
2.91131
3.11964
3.35758
3.57869
3.92921
2.56651
3.17761
3.15275
2.85437
2.695
2.71461
2.53361
2.63616
2.70526
3.22073
3.33773
3.57424
3.21677
3.28006
2.89171
2.95735
3.13676
3.00528
3.29634
3.41966
3.30795
3.20149
3.11915
3.03523
3.0528
3.10867
3.12304
3.04892
2.94784
2.57805
4.55341
4.54241
3.89266
3.70141
3.31797
3.06519
3.28065
3.90465
4.08421
3.8376
3.28193
2.63662
1.91349
1.69062
1.1759
1.08751
1.0845
1.0718
1.06962
1.10181
1.1833
1.29009
1.52903
2.04581
2.18673
2.40808
2.54555
2.92686
3.58203
4.22682
2.01333
2.82814
2.74115
2.67864
2.65739
2.52971
2.38552
2.40122
2.37446
2.2977
2.03126
1.76307
1.45224
1.29466
1.25106
1.22771
1.20915
1.19823
1.19009
1.19479
1.19568
1.20893
1.30494
1.716
2.14889
2.56956
2.96911
3.40712
3.6216
3.54813
2.57339
3.30083
2.94381
2.30353
1.78067
1.4091
1.12496
1.03544
1.00628
1.06687
1.14039
1.23592
1.34377
1.44573
1.53874
1.6821
2.01505
2.46249
2.84095
3.02924
3.0417
2.84543
2.68034
2.49093
2.43781
2.38378
2.43476
2.47018
2.05844
1.14
0.669876
0.963166
1.14785
2.65881
3.68641
4.19508
4.33153
4.39343
4.3831
4.24068
4.29666
4.07674
4.07545
4.02645
4.06846
4.01963
4.16776
4.15655
4.22786
4.15325
4.0413
3.76595
3.49703
3.42921
3.56859
3.87063
3.57415
2.35082
1.26381
0.977649
6.93614
5.7779
6.03202
7.34647
8.3609
8.16669
6.82682
6.02327
6.33233
8.56988
12.7895
16.127
17.2145
9.10454
1.45511
1.08874
1.18988
1.52175
1.62153
1.53696
1.42108
1.39761
1.44286
1.47802
1.65359
1.89645
2.25842
2.69897
3.19233
3.53661
3.76729
3.82344
3.64349
3.33949
2.84209
2.56407
2.29699
2.23514
2.05499
2.0938
2.47012
2.98277
3.03096
2.32701
3.14004
2.81252
2.69056
2.54045
2.57582
2.74827
3.04964
3.36186
3.35719
3.23524
3.11826
3.03702
2.92192
2.89729
2.52711
2.22272
1.94723
1.6535
1.64771
1.43146
1.47243
1.48239
1.59095
1.81704
1.86085
1.79525
1.90368
2.74557
4.1088
3.03098
1.32769
1.49267
1.60073
1.47996
1.25499
1.24633
1.24164
1.22202
1.17848
1.13192
1.09606
1.09157
1.10629
1.14118
1.18247
1.22312
1.49838
1.68526
1.92311
2.00617
2.29141
2.40151
2.67075
2.56823
2.49481
2.45979
2.68617
3.06624
3.29599
3.25778
2.77481
2.84469
3.61907
3.69842
3.76739
3.61836
3.58951
3.79453
3.77681
3.68261
3.90702
3.97362
3.35907
3.63648
3.21696
3.16356
2.85414
2.9055
2.61995
2.57163
2.3886
2.17109
1.82407
1.56073
1.2154
1.22489
1.24543
1.18152
1.55559
1.7835
2.1624
3.04762
3.37387
3.63785
3.81617
4.12642
4.28561
4.31385
4.15899
4.03368
4.02196
4.08055
4.36908
4.72879
4.94008
5.0033
4.96789
4.87537
4.81668
4.68136
4.70223
4.55745
4.94194
4.81592
5.08094
4.78929
4.39961
3.99594
3.84539
3.88096
1.99606
2.08279
1.8522
1.91179
2.24993
2.11884
1.39269
1.20054
1.11047
1.00718
0.922836
0.884896
0.882223
0.938632
1.04008
1.12
1.16077
1.16189
1.14667
1.12279
1.1063
1.09868
1.10514
1.11262
1.11017
1.08963
1.06839
1.14383
1.30413
1.10546
1.76109
2.20423
2.23147
2.40182
2.6887
2.67367
2.71542
2.58908
2.55972
2.52781
2.51128
2.5372
2.60388
2.6576
2.76125
2.6646
2.29211
2.25314
2.07517
1.72133
1.78273
1.82231
2.0087
2.17621
2.44665
2.78592
3.05686
3.24542
3.36006
3.64564
2.73962
3.09368
2.87909
2.67395
2.66638
2.5322
2.6283
2.87771
3.40279
3.85684
3.79152
3.48341
3.13389
2.67431
2.58777
2.52285
2.58506
2.96465
3.30066
3.37831
3.43083
3.31603
3.10323
2.96172
2.90719
2.94545
2.88902
2.75168
2.77063
2.56029
4.54217
3.9674
3.40009
3.16958
2.9906
3.37203
4.3281
4.58371
4.2034
3.58077
2.7365
2.21814
1.61509
1.59759
1.10213
1.17873
1.05054
1.03692
1.02563
1.0072
1.0376
1.13831
1.27256
1.81755
2.06675
2.30838
2.30489
2.56654
3.14127
3.91283
2.20142
2.71507
2.56114
2.60607
2.55252
2.41952
2.43336
2.474
2.36619
2.00939
1.56444
1.23246
1.18032
1.16086
1.17499
1.18816
1.18895
1.18811
1.18166
1.16782
1.15146
1.13552
1.14024
1.18313
1.50173
2.0346
2.50046
3.01331
3.46466
3.53465
2.82626
2.99075
2.2919
1.62349
1.2187
1.05116
1.00335
1.02331
1.15772
1.24529
1.40988
1.54451
1.62884
1.62592
1.58373
1.62213
1.99922
2.69841
3.19999
3.26829
3.01627
2.65019
2.36197
2.20656
2.11832
2.15582
2.1955
2.34951
2.26277
1.1231
0.738335
1.11586
1.93936
3.45502
4.18158
4.45482
4.52232
4.5043
4.44925
4.32855
4.28188
4.20206
4.13075
4.15628
4.12007
4.16905
4.18822
4.25277
4.40054
4.36122
4.33761
4.02231
3.37153
2.64895
2.76934
3.30734
3.59817
2.7018
1.42642
0.994074
6.52628
5.66976
7.41456
10.7632
12.0539
10.4919
7.8912
6.17647
6.11858
7.56785
11.2507
14.7847
16.5546
9.52382
1.32001
1.18189
1.42614
1.64881
1.50854
1.43632
1.5028
1.59858
1.64818
1.61307
1.77974
2.12536
2.72401
3.40431
3.98228
4.26141
4.49403
4.58035
4.73736
4.71256
4.34694
3.71548
3.04922
2.7192
2.32399
2.23646
2.44008
3.10265
3.29435
2.52147
2.99486
2.68628
2.57017
2.47127
2.70223
3.01346
3.27685
3.24408
3.11817
2.98056
2.89185
2.80687
2.8143
2.59186
2.30566
1.96403
1.81929
1.62594
1.63257
1.40423
1.51771
1.41538
1.57851
1.76089
1.93355
1.82166
1.85036
2.48076
3.95348
3.30285
1.33418
1.59838
1.63734
1.49628
1.33825
1.33071
1.3545
1.34405
1.2931
1.21583
1.13932
1.11505
1.13169
1.16773
1.2126
1.35363
1.5923
1.83746
1.89395
2.07289
2.13601
2.4405
2.6183
2.73537
2.58735
2.38215
2.40284
2.72793
3.03767
3.12332
2.48737
3.07993
3.69447
3.85002
3.7949
3.6056
3.61709
3.78739
3.9216
4.0289
4.21527
3.91864
3.74571
3.66829
3.19373
3.19945
3.11093
2.86288
2.86064
2.75809
2.79015
2.62643
2.21693
1.70533
1.31536
1.18334
1.24551
1.21633
1.40993
1.72146
2.28366
3.12622
3.37649
3.59492
3.7668
3.95847
4.13332
4.17245
4.09359
3.98682
3.88711
4.07326
4.51821
4.86825
5.05599
5.08723
5.13667
5.15209
5.1677
4.99066
5.0448
4.82191
5.14127
5.05861
5.30657
5.01842
4.62039
4.1292
3.82285
3.82578
1.97501
1.95656
1.8264
2.18717
2.69671
2.42731
2.00948
1.59521
1.25757
1.1213
0.989729
0.901614
0.879256
0.925698
1.0265
1.09743
1.105
1.07187
1.02964
0.999379
0.989862
0.99046
0.990266
0.995498
1.01763
1.04027
1.04704
1.08937
1.19893
1.10364
1.97859
2.31933
2.45341
2.79421
2.97492
2.84457
2.74661
2.59284
2.38264
2.34649
2.37446
2.56865
2.8824
3.08347
3.16778
2.73991
2.61471
2.57555
1.99742
1.90567
1.73554
1.542
1.549
1.86645
2.0728
2.45311
2.84482
3.10622
3.15515
3.40558
2.75108
2.90516
2.69085
2.65971
2.4995
2.53982
2.84461
3.42896
3.9323
4.02338
3.54373
2.8508
2.31443
1.83761
1.81231
1.71
1.90868
2.35411
2.78162
3.16095
3.30873
3.28408
3.06295
2.82679
2.76359
2.68316
2.57046
2.48883
2.62577
2.39953
4.33971
3.51176
3.06636
2.95846
3.29666
4.42806
4.90593
4.53632
3.86992
3.0071
2.27896
1.97687
1.6558
1.57612
1.41227
1.37822
1.20551
1.15482
1.12954
1.05223
1.01393
1.05208
1.18336
1.59074
1.96465
2.17581
2.09826
2.26362
2.82765
3.68538
2.28985
2.57751
2.47584
2.58447
2.4176
2.52809
2.66458
2.53457
2.08055
1.44256
1.20103
1.17022
1.19689
1.23842
1.2556
1.26768
1.24731
1.23432
1.20629
1.1919
1.17699
1.16635
1.14511
1.1299
1.17568
1.57169
2.08077
2.64659
3.21369
3.45959
2.90904
2.55854
1.7378
1.32226
1.1192
1.14588
1.27369
1.68008
1.99382
2.24536
2.2692
2.22054
2.12524
1.93903
1.71807
1.65505
2.03564
2.89592
3.33375
3.16649
2.66513
2.15422
1.74492
1.51793
1.54545
1.68863
1.95404
2.1878
2.2571
1.07384
0.791604
1.20594
2.64994
3.93001
4.44109
4.60486
4.59032
4.53716
4.54596
4.3776
4.42783
4.27792
4.34172
4.18897
4.25804
4.36084
4.22522
4.34888
4.41996
4.49538
4.54276
4.48791
3.94223
2.63712
2.26643
3.0283
3.38524
2.64913
1.39121
0.982221
6.33756
5.90328
9.66275
13.9285
13.6629
10.5034
7.46829
6.08555
6.23896
7.74558
10.7353
13.8391
15.6873
9.72732
1.33346
1.28824
1.61458
1.5855
1.53663
1.7125
1.9572
2.0264
1.89033
1.71103
1.81424
2.22181
2.96022
3.62709
4.00548
4.09289
4.1068
4.22067
4.49979
4.83687
5.04965
4.72487
3.9904
3.28768
2.72498
2.3546
2.50493
3.13518
3.45692
2.57163
2.74341
2.53034
2.54448
2.69835
2.93698
3.17785
3.17135
3.03937
2.90621
2.82466
2.70235
2.68658
2.57651
2.43356
2.09789
1.88902
1.89198
1.73752
1.66052
1.46628
1.59882
1.4986
1.62453
1.83607
1.95072
1.87416
1.81998
2.40831
3.88918
3.50972
1.34713
1.65445
1.65057
1.53593
1.4801
1.44485
1.51773
1.4643
1.47602
1.33217
1.21446
1.14649
1.15115
1.1869
1.22551
1.34262
1.64633
1.74572
1.88362
1.89863
2.08226
2.21501
2.5338
2.63078
2.57897
2.31966
2.21946
2.46355
2.81914
2.91974
2.41851
3.40211
3.77915
3.86952
3.7915
3.63233
3.46772
3.55237
4.02389
3.97185
3.83161
3.64313
3.83463
2.95622
3.26305
3.07615
2.78672
2.78755
2.7984
2.92163
2.7624
2.67889
2.5041
2.02292
1.44116
1.1598
1.23625
1.23527
1.25422
1.80914
2.20103
3.0158
3.38993
3.46721
3.63618
3.83203
4.0794
4.33607
4.45808
4.21548
3.94337
3.97753
4.49211
4.82664
4.98712
5.04855
5.31277
5.38231
5.52775
5.33991
5.35504
5.17486
5.27912
5.29768
5.4063
5.15041
4.71283
4.12816
3.77282
3.76525
1.97415
1.87952
1.9087
2.57435
2.98323
2.88302
2.59987
2.33324
1.86652
1.27909
1.10403
0.95349
0.886809
0.903623
0.989142
1.06203
1.06405
1.02009
0.979502
0.973314
0.988992
1.02046
1.02439
1.00133
0.972468
0.975652
1.00771
1.03208
1.10165
1.10406
2.08022
2.4852
2.79126
3.13693
3.13072
3.04899
2.76496
2.57919
2.34201
2.28028
2.49443
2.94189
3.32475
3.41881
3.05986
2.67993
2.76695
2.24774
2.10473
2.1067
1.71678
1.64756
1.54056
1.5578
1.83305
2.10144
2.54887
2.91817
2.95001
3.12316
2.75917
2.709
2.57417
2.45565
2.45662
2.66358
3.19799
3.76876
4.09446
3.81514
2.97938
2.18691
1.80887
1.56695
1.61963
1.53764
1.59968
1.89374
2.3036
2.87773
3.15926
3.13474
2.94103
2.6878
2.52205
2.4159
2.1621
1.97719
2.27912
2.23972
4.08709
3.13608
2.95293
3.11137
4.3573
5.07044
4.86927
4.24018
3.37454
2.56734
2.08766
1.90626
1.7011
1.87576
1.62074
1.63115
1.37443
1.22968
1.18665
1.10213
1.03499
1.03467
1.1547
1.47536
1.85992
2.02685
1.88033
2.02654
2.62642
3.51174
2.34107
2.48795
2.50885
2.47353
2.55247
2.87023
2.75587
2.33176
1.60559
1.22538
1.21023
1.25167
1.29699
1.32909
1.29114
1.24628
1.15747
1.09831
1.06983
1.06391
1.10025
1.13705
1.14413
1.12158
1.1355
1.32087
1.73584
2.31933
3.00471
3.30559
2.68201
2.19868
1.5586
1.32105
1.39775
1.8179
2.47824
2.86428
3.04608
3.09786
3.07909
2.90564
2.58979
2.28149
1.95901
1.79241
2.0364
2.86182
3.1747
2.99555
2.23107
1.54789
1.31588
1.3721
1.39689
1.5162
1.66258
2.07873
2.29488
1.08179
0.828782
1.2728
3.10196
4.21454
4.58241
4.65966
4.68492
4.5667
4.6487
4.46824
4.56422
4.41411
4.45407
4.41244
4.30761
4.55197
4.35395
4.47309
4.48866
4.50352
4.60259
4.65429
4.5231
3.35357
2.00326
2.57829
2.97637
2.24782
1.38716
0.981755
6.21305
6.29514
12.0669
15.1744
13.3639
9.39616
7.06625
6.38965
7.00857
8.69223
10.8667
13.2501
14.8197
9.85431
1.30012
1.44982
1.63096
1.66358
1.75599
2.24751
2.46602
2.41775
2.11625
1.78163
1.80539
2.30659
3.11875
3.70094
3.87609
3.83301
3.83826
3.87488
4.05977
4.43094
5.09638
5.22151
4.86982
3.87872
3.1205
2.49456
2.6093
3.20748
3.50945
2.61715
2.7359
2.59281
2.55757
2.61483
2.90394
2.96723
2.86522
2.73701
2.63612
2.50302
2.42896
2.45597
2.45926
2.2602
2.00565
1.9431
2.00267
1.83711
1.71185
1.50758
1.71001
1.67443
1.86228
1.92559
2.01447
1.83244
1.83626
2.41111
3.93327
3.47368
1.35887
1.69424
1.73765
1.61997
1.60486
1.59339
1.56821
1.59184
1.64885
1.58348
1.32042
1.19451
1.16925
1.19424
1.23027
1.3277
1.53666
1.7225
1.72944
1.87845
1.91876
2.15993
2.3234
2.52929
2.49146
2.24876
2.13973
2.28531
2.57338
2.71078
2.77097
3.48677
3.83259
3.87981
3.8525
3.53101
3.2561
3.38118
3.83124
3.50509
3.97569
3.18044
3.73767
2.62817
3.53145
2.697
3.13363
3.04715
2.90974
2.79647
2.87188
2.68713
2.40307
2.00887
1.57661
1.15321
1.22648
1.24761
1.20434
1.7189
2.22108
2.81151
3.21106
3.44997
3.37657
3.77685
4.30675
4.77273
4.72219
4.36464
4.08449
4.01176
4.36657
4.71246
4.80652
5.01773
5.26344
5.476
5.56142
5.49522
5.36389
5.35325
5.42812
5.44385
5.33766
5.11385
4.56947
3.9899
3.68159
3.71432
2.11177
1.9136
2.14539
2.88521
3.201
3.04242
2.95783
2.74088
2.60387
1.96235
1.23369
1.01984
0.890418
0.865121
0.918725
0.979742
0.978918
0.952664
0.96211
1.02317
1.12331
1.21456
1.24464
1.20225
1.09134
0.986788
0.966474
0.988187
1.02484
1.09399
2.13409
2.65725
3.08963
3.42557
3.26945
3.24244
2.83896
2.65004
2.3677
2.38398
2.73628
3.28907
3.49664
3.35649
2.8297
2.73208
2.35492
1.85935
2.10961
1.84001
1.81306
1.58513
1.53501
1.5158
1.54088
1.93418
2.29346
2.74863
2.7841
2.98452
2.45205
2.60362
2.48431
2.46273
2.50091
2.91084
3.41096
3.92496
4.01038
3.47446
2.53537
1.98423
1.88915
1.90545
1.82908
1.73664
1.63695
1.72439
2.11975
2.7012
3.02615
2.98664
2.77173
2.53756
2.35089
2.00691
1.52173
1.49538
2.16311
2.2349
3.79106
2.95543
2.96635
4.01227
5.05871
5.10526
4.63231
3.93269
3.01636
2.30895
2.0049
1.83632
1.85495
1.9828
1.67378
1.53213
1.26772
1.24271
1.17284
1.09081
1.02981
1.05657
1.19389
1.46058
1.8293
1.8012
1.63438
1.83857
2.52417
3.36186
2.35258
2.45765
2.46492
2.54592
3.01024
3.02553
2.6659
2.00268
1.36938
1.2616
1.28352
1.34904
1.34386
1.31074
1.20407
1.06845
0.969971
0.916307
0.893107
0.912873
0.958045
1.04084
1.1023
1.11036
1.11859
1.16873
1.57625
2.07854
2.83308
3.23731
2.5849
1.96
1.53299
1.61801
2.17465
2.92802
3.4018
3.60219
3.64839
3.62852
3.56959
3.45605
3.14803
2.68986
2.27004
1.92115
1.94775
2.65538
3.10956
2.85312
1.8118
1.28303
1.29901
1.25714
1.2971
1.32121
1.63546
2.00751
2.15924
0.977266
0.858561
1.39038
3.36502
4.37039
4.65124
4.70951
4.74907
4.6132
4.76666
4.55453
4.68489
4.43732
4.42026
4.32637
4.34006
4.53524
4.57132
4.60245
4.5369
4.59471
4.57416
4.71388
4.68692
4.16437
2.00076
1.90825
2.11529
1.65932
1.21053
0.962051
6.24218
6.89563
13.2431
15.2344
12.4152
9.20314
7.90024
7.8665
8.72134
10.0446
11.705
13.3135
14.2442
9.73757
1.366
1.51232
1.7037
1.7407
2.18798
2.50313
2.72122
2.55177
2.24155
1.80184
1.79764
2.33319
3.22907
3.69084
3.77553
3.74889
3.84333
4.05283
4.2417
4.69597
5.40947
5.80931
5.57629
4.41511
3.36567
2.67949
2.73754
3.31267
3.47986
2.50657
2.45408
2.4142
2.58369
2.73989
2.81993
2.80854
2.70099
2.59658
2.46697
2.32978
2.31389
2.39898
2.356
2.15351
1.97782
1.97932
2.11985
1.91202
1.76755
1.52326
1.77998
1.91139
1.99055
2.02842
1.95607
1.81392
1.86558
2.67587
4.03816
3.50658
1.38433
1.69825
1.75606
1.71321
1.67355
1.57007
1.58274
1.57306
1.72384
1.73904
1.60246
1.27585
1.18888
1.19924
1.22759
1.25089
1.51081
1.63124
1.70418
1.75803
1.90021
2.09035
2.21221
2.44119
2.39265
2.17251
2.01541
2.114
2.37963
2.5471
3.27749
3.50648
3.58505
3.66263
3.65443
3.42325
3.23585
3.22798
3.40385
3.35745
3.88393
2.99789
3.57043
2.63269
3.7065
2.86378
3.68714
3.08964
3.0975
3.03129
2.95989
2.86012
2.37559
1.96503
1.39284
1.15974
1.23132
1.25464
1.22282
1.95134
2.37742
2.68718
2.90623
3.10285
3.40976
3.73757
4.66299
5.24402
5.17296
4.51959
4.00404
3.90395
4.24654
4.58662
4.66516
4.81415
5.02761
5.21506
5.36833
5.44861
5.48171
5.45867
5.41713
5.32891
5.08565
4.73797
4.27062
3.83988
3.63238
3.67234
1.99725
1.96311
2.44377
3.17054
3.20117
3.12453
2.96404
2.94109
2.81234
2.56349
1.67964
1.07107
0.881692
0.817945
0.827868
0.856137
0.876492
0.923818
1.05552
1.24678
1.75507
1.97839
2.0973
1.95885
1.3573
1.09148
0.959891
0.958442
1.0123
1.11357
2.29887
2.8937
3.32926
3.66542
3.4291
3.40902
3.01373
2.73062
2.48897
2.49023
2.95159
3.43225
3.53447
3.17656
2.91407
2.68345
1.93926
2.08859
2.13782
1.89708
1.90174
1.68968
1.67438
1.55708
1.54327
1.71043
2.31852
2.59872
2.60315
2.76448
2.60489
2.40814
2.38198
2.32244
2.66523
3.05529
3.54652
3.99309
3.93804
3.26536
2.32874
2.18222
2.11
2.16287
1.91857
1.77505
1.72021
1.8489
2.26178
2.68096
3.02734
2.85689
2.60566
2.27436
2.00181
1.56003
1.41543
1.4792
2.13531
2.04872
3.32638
2.84311
3.48481
4.91924
5.26732
4.96659
4.46022
3.69327
2.78472
2.22255
1.84749
1.82608
1.8966
1.89259
1.75334
1.34727
1.27291
1.20507
1.13001
1.08792
1.08645
1.15627
1.27436
1.57138
1.6969
1.49496
1.41184
1.79708
2.53662
3.20923
2.39347
2.45381
2.56809
3.02682
3.16912
2.99403
2.56075
1.87681
1.39701
1.33032
1.35617
1.38939
1.34305
1.21537
1.06405
0.927733
0.871284
0.851605
0.850234
0.857936
0.88653
1.02135
1.04823
1.08988
1.09567
1.13671
1.48718
2.05841
2.7238
3.17511
2.51036
1.9133
1.76199
2.21263
2.9003
3.56021
3.70105
3.82247
3.79422
3.94794
3.8687
3.83424
3.65614
3.08059
2.44495
2.01008
1.85069
2.51421
3.05216
2.64235
1.73915
1.32786
1.22514
1.25812
1.25464
1.24518
1.67827
2.07494
1.93963
0.959064
0.848044
1.39595
3.48534
4.47366
4.69694
4.75003
4.82015
4.66223
4.8678
4.56364
4.78967
4.29304
4.46965
4.28507
4.26584
4.48758
4.60648
4.77481
4.54623
4.62851
4.60122
4.6867
4.76125
4.53406
2.83158
1.5885
1.56536
1.37085
1.13051
0.988461
6.16524
6.96128
13.463
14.9499
12.0117
10.0838
9.93924
10.3608
10.5369
10.0469
9.78938
10.8624
12.4693
10.5561
8.56672
4.8459
1.79248
1.62277
1.72761
1.91018
2.27286
2.57934
2.60993
2.57092
2.25939
1.78696
1.76778
2.31192
3.20293
3.65492
3.7178
3.75755
4.11422
4.59629
5.12736
5.53769
6.18498
6.36979
6.02417
4.67837
3.3907
2.89052
2.95371
3.49747
3.10755
2.59397
2.52634
2.13003
2.3314
2.26363
2.33656
2.37574
2.44344
2.41642
2.3802
2.28795
2.11326
2.02506
2.10417
2.23445
2.20617
2.10247
1.95192
2.05309
2.18104
2.03675
1.72624
1.57222
1.78419
1.913
2.03628
1.93175
1.85853
1.766
2.05229
3.01862
3.98908
3.3345
2.53615
1.85855
1.39994
1.7596
1.84254
1.8146
1.75859
1.63568
1.58943
1.61785
1.72182
1.80477
1.79328
1.60041
1.25248
1.2054
1.22393
1.24595
1.46579
1.63768
1.64806
1.70402
1.90246
2.05104
2.17501
2.36428
2.25906
2.12377
1.95847
2.106
2.37826
2.41517
2.09498
2.83445
2.77085
3.02794
3.24562
3.46767
3.56329
3.48118
3.19846
3.01437
3.40653
3.34659
3.55835
2.96848
3.42125
2.78562
3.79226
3.13576
3.6765
3.2186
3.05735
2.83912
2.78179
2.52516
2.04919
1.54163
1.2203
1.18433
1.24451
1.26937
1.24834
2.01232
2.46476
2.84311
2.25824
2.31207
2.59565
2.85246
3.07556
3.57588
4.41352
5.41408
5.54973
5.02213
4.31743
3.92634
4.08766
4.40077
4.51096
4.54154
4.63215
4.79333
4.97744
5.05397
5.0535
5.01101
4.86521
4.77618
4.50739
4.19949
3.95559
3.78853
3.64865
3.6681
3.23915
3.27379
2.29775
2.112
2.72888
3.30878
3.31725
3.02085
3.06213
2.96969
2.99125
2.73559
1.99912
1.08843
0.861898
0.778611
0.763098
0.787877
0.878362
1.07481
1.65709
2.26883
2.44668
2.57641
2.61328
2.50843
2.19693
1.21397
0.980473
0.942474
0.978089
1.04817
1.14051
1.91101
2.01923
3.07834
3.60373
3.85639
3.635
3.59953
3.21244
2.90231
2.61917
2.59151
3.08382
3.45575
3.35043
3.17959
2.99162
2.30688
1.97038
2.21639
1.77773
1.81864
1.90079
1.60704
1.61104
1.58467
1.5727
1.79859
2.29345
2.49415
2.41343
2.58005
2.58058
2.48281
1.94659
2.25966
2.37445
2.5246
2.81487
3.12409
3.62625
4.08496
4.05284
3.17602
2.42138
2.27556
2.37171
2.31135
2.09105
1.92698
1.83526
1.96326
2.28474
2.74434
2.75214
2.67383
2.35282
2.06512
1.67765
1.51723
1.42054
1.50497
2.12827
2.19351
2.78978
2.46449
2.80518
2.89151
4.30793
5.28398
5.16964
4.82778
4.32479
3.56267
2.77272
2.04638
1.83683
1.71665
1.8683
1.85515
1.7956
1.32545
1.2885
1.23606
1.18992
1.19302
1.21563
1.28313
1.38378
1.52294
1.3777
1.26069
1.36736
1.85238
2.53385
3.08353
2.75668
2.1349
2.30369
2.48441
2.89314
3.19644
3.11777
2.99142
2.62403
1.98017
1.52344
1.38823
1.39874
1.39894
1.31042
1.13788
1.01984
0.892157
0.85687
0.864432
0.866164
0.87559
0.900174
1.0147
1.02922
1.06632
1.09501
1.18052
1.52283
2.0936
2.7591
3.13828
3.08999
3.11417
2.43223
1.93487
2.07672
2.74543
3.51756
3.95329
3.96543
3.83685
3.94993
3.83028
4.00178
3.85499
3.8887
3.64933
2.79927
2.21897
1.93702
2.30359
2.83348
2.8191
2.01786
1.32716
1.24366
1.18614
1.25101
1.34149
1.89383
2.02131
1.53384
0.931717
0.958467
0.814313
0.832938
1.34543
3.37727
4.45203
4.75639
4.79246
4.83865
4.7026
4.9157
4.64767
4.78885
4.33816
4.44061
4.29089
4.37743
4.49898
4.63035
4.84608
4.59905
4.61798
4.61251
4.68268
4.76447
4.65825
3.76854
1.57411
1.50861
1.5188
2.50139
3.98005
4.71586
4.72095
6.21202
6.66043
12.7169
14.653
12.4229
11.1754
11.3558
11.0081
8.17643
5.17658
4.15899
4.71729
7.1116
8.59767
6.51748
3.2973
1.71211
1.65931
1.87212
1.98202
2.42589
2.55994
2.48525
2.45034
2.22535
1.77942
1.70458
2.2063
3.09799
3.52426
3.66104
3.78006
4.17902
4.91178
5.63821
6.16405
6.43043
6.46027
5.75739
4.46236
3.36612
2.98962
3.25082
3.60844
3.27079
2.76516
2.67711
2.42638
2.28658
2.37112
2.42905
2.46427
2.41352
2.41773
2.27994
2.0354
1.89153
1.94258
2.07993
2.18513
2.15638
2.06665
1.93754
2.04158
2.26948
2.0659
1.86634
1.62984
1.74564
1.79141
1.83231
1.83275
1.766
1.90075
2.42475
3.42568
3.8052
3.26193
2.55169
1.92425
1.56473
1.77895
1.82924
1.81483
1.73967
1.67439
1.62201
1.66037
1.69051
1.84605
1.84216
1.82161
1.53584
1.38776
1.24036
1.23928
1.3682
1.56622
1.63557
1.77003
1.90492
1.99657
2.11535
2.1834
2.18829
2.04543
1.99676
2.14319
2.3366
2.38465
2.63012
2.44731
2.76388
2.68252
2.75052
2.94837
3.28335
3.4992
3.16277
3.07454
3.30861
3.39808
3.28913
3.02553
3.07129
2.81999
3.39882
2.95479
3.37792
2.7712
2.73885
2.37968
2.17157
1.68659
1.41723
1.21005
1.19402
1.22578
1.27382
1.27996
1.22687
1.85127
2.48967
2.85588
3.43051
2.85981
2.35822
2.64734
3.01249
3.48639
4.41038
5.2055
5.41776
4.93596
4.42719
3.985
3.9331
4.30849
4.37542
4.30738
4.35625
4.30572
4.3546
4.25584
4.24169
4.20034
4.14952
3.99741
3.96427
3.87736
3.78762
3.65408
3.58633
3.68285
3.3251
3.14849
2.22533
2.33851
3.05972
3.43261
3.27934
3.16266
3.06064
3.15169
3.06313
2.92711
2.03579
1.08377
0.827194
0.753947
0.749575
0.837556
1.11462
1.884
2.51998
2.71031
2.82359
2.737
2.76199
2.8663
2.51213
1.33267
0.985917
0.95492
1.03314
1.13401
2.21436
2.7077
2.48621
3.438
3.85966
4.0711
3.95306
3.81215
3.44928
3.1008
2.75343
2.66886
3.14761
3.30885
3.11727
3.04101
2.7019
2.17068
2.22463
1.82971
1.62175
1.83879
1.77456
1.61085
1.62848
1.59364
1.69996
1.97398
2.40522
2.46641
2.54779
2.96373
2.91988
2.19499
2.05871
2.08439
2.31488
2.73925
2.88848
3.11764
3.65642
4.22822
4.20319
3.35327
2.52118
2.38879
2.38995
2.33516
2.14575
1.97613
2.04157
2.32254
2.74994
2.83323
2.88687
2.4826
2.16273
1.82423
1.61409
1.48631
1.43
1.67879
2.25695
2.42008
2.88499
2.54997
2.641
3.69159
5.28108
5.69186
5.30076
4.77099
4.23103
3.70748
2.66625
2.12313
1.71163
1.66197
1.72846
1.82367
1.80661