/*--------------------------------*- C++ -*----------------------------------*\
| =========                 |                                                 |
| \\      /  F ield         | OpenFOAM: The Open Source CFD Toolbox           |
|  \\    /   O peration     | Version:  2.1.1                                 |
|   \\  /    A nd           | Web:      www.OpenFOAM.org                      |
|    \\/     M anipulation  |                                                 |
\*---------------------------------------------------------------------------*/
FoamFile
{
    version     2.0;
    format      ascii;
    class       volVectorField;
    location    "0.004650000";
    object      U;
}
// * * * * * * * * * * * * * * * * * * * * * * * * * * * * * * * * * * * * * //

dimensions      [0 1 -1 0 0 0 0];

internalField   nonuniform List<vector> 
12384
(
(3.10015 -6.80535 0)
(12.5448 -9.3695 0)
(24.1645 -9.07873 0)
(35.5215 -9.32602 0)
(44.837 -6.86603 0)
(51.4097 -4.91295 0)
(52.9485 0.672789 0)
(48.472 3.63593 0)
(41.134 8.19795 0)
(30.7533 10.8268 0)
(18.4123 11.2979 0)
(7.98277 11.92 0)
(1.73866 7.74877 0)
(-1.29891 7.31685 0)
(2.74362 -3.62009 0)
(8.5753 -6.71039 0)
(21.5333 -6.81026 0)
(30.5065 -6.95496 0)
(41.9628 -8.36298 0)
(57.1589 -8.77316 0)
(70.1331 -11.1761 0)
(91.2637 -12.8763 0)
(111.38 -14.8783 0)
(134.291 -18.5892 0)
(156.903 -16.1916 0)
(176.436 -20.7973 0)
(196.221 -15.7297 0)
(207.7 -20.0098 0)
(222.178 -13.0755 0)
(231.277 -16.0747 0)
(236.22 -10.0626 0)
(242.306 -9.83645 0)
(235.83 -4.68429 0)
(227.459 -3.86749 0)
(211.635 4.8066 0)
(186.764 3.05553 0)
(146.021 13.2817 0)
(105.255 11.1654 0)
(51.1964 16.7167 0)
(14.1186 9.43943 0)
(-19.6568 3.19489 0)
(-32.3382 -8.31839 0)
(-29.6318 -11.9672 0)
(-13.3462 -17.5299 0)
(-13.3408 9.22415 0)
(-21.6435 -1.3776 0)
(-20.1325 -2.93581 0)
(-16.7013 -0.483122 0)
(-16.3973 3.77052 0)
(-21.6455 6.82488 0)
(-31.307 10.8289 0)
(-44.1439 9.54125 0)
(-53.4223 9.42157 0)
(-58.9883 4.5375 0)
(-52.1544 1.13533 0)
(-34.2064 -7.97852 0)
(-5.07735 -11.0237 0)
(34.6314 -20.6529 0)
(83.9088 -18.507 0)
(131.627 -27.7416 0)
(180.701 -20.8109 0)
(225.993 -23.5229 0)
(252.878 -10.3784 0)
(285.967 -12.3475 0)
(279.933 3.57795 0)
(284.973 4.09742 0)
(251.083 18.6757 0)
(217.012 22.8044 0)
(158.881 33.643 0)
(97.6759 29.2013 0)
(44.9595 27.1801 0)
(10.9026 10.7649 0)
(-1.42713 4.06151 0)
(-0.735353 -0.803308 0)
(-15.4971 16.2421 0)
(-40.3435 13.9837 0)
(-64.3056 9.32871 0)
(-77.0621 7.81015 0)
(-85.2062 3.22905 0)
(-83.2255 0.852642 0)
(-72.8151 -5.8151 0)
(-51.1276 -6.68718 0)
(-23.059 -13.9728 0)
(13.0969 -14.2779 0)
(56.4456 -22.2991 0)
(104.651 -22.19 0)
(157.716 -28.9671 0)
(211.801 -27.8859 0)
(268.167 -33.0015 0)
(321.573 -28.543 0)
(371.288 -34.3621 0)
(413.764 -20.4281 0)
(453.032 -32.0801 0)
(465.28 -7.39249 0)
(477.1 -18.5736 0)
(440.324 9.04177 0)
(430.688 8.78655 0)
(346.31 35.8175 0)
(266.24 52.0296 0)
(158.421 58.1128 0)
(58.983 46.3394 0)
(-5.46906 22.9619 0)
(-26.0312 -1.9746 0)
(-15.065 -19.0059 0)
(-30.3652 27.8278 0)
(-58.3149 7.51914 0)
(-58.12 -3.45037 0)
(-25.5337 -23.1326 0)
(29.1769 -33.4329 0)
(91.9766 -38.3037 0)
(162.154 -35.0119 0)
(215.507 -36.2065 0)
(270.322 -25.5574 0)
(321.241 -27.4921 0)
(344.264 -17.2527 0)
(392.148 -19.4003 0)
(387.905 -7.04908 0)
(429.8 -14.9112 0)
(410.354 -0.550559 0)
(440.752 -9.7306 0)
(421.026 6.17012 0)
(440.979 1.9162 0)
(415.12 16.3249 0)
(408.724 13.4062 0)
(362.13 21.5893 0)
(315.17 30.1369 0)
(251.362 39.6973 0)
(176.349 45.496 0)
(100.726 43.1114 0)
(38.4971 36.0382 0)
(-0.684454 24.7646 0)
(-19.3996 13.5571 0)
(-17.9295 8.89967 0)
(-8.19892 4.42648 0)
(-20.0978 7.17468 0)
(-56.546 9.27588 0)
(-90.8545 10.1994 0)
(-121.448 9.04752 0)
(-144.894 8.28455 0)
(-160.897 5.25002 0)
(-170.052 2.17324 0)
(-167.703 -1.80908 0)
(-157.709 -5.97787 0)
(-135.556 -8.92826 0)
(-102.637 -14.5595 0)
(-59.5625 -18.5159 0)
(-5.22099 -23.7397 0)
(56.9227 -26.7306 0)
(124.071 -27.7497 0)
(190.927 -26.0411 0)
(255.499 -20.7647 0)
(310.311 -16.3675 0)
(357.147 -7.47982 0)
(382.225 -3.1023 0)
(393.374 8.29533 0)
(386.827 16.9838 0)
(337.255 20.9649 0)
(284.364 37.2312 0)
(205.708 36.7177 0)
(119.354 40.4513 0)
(53.1007 27.268 0)
(3.75881 17.1356 0)
(-14.7271 -2.76321 0)
(-14.0183 -14.1181 0)
(0.129687 0.800766 0)
(-0.542652 3.29252 0)
(-7.80224 6.09782 0)
(-20.0447 8.10664 0)
(-37.1766 7.48095 0)
(-56.4672 2.27258 0)
(-65.2792 0.785219 0)
(-61.1366 -8.9575 0)
(-58.1738 -8.80018 0)
(-37.7334 -11.88 0)
(-13.7778 -13.6915 0)
(15.5831 -13.3391 0)
(52.2143 -14.6241 0)
(87.2964 -13.5277 0)
(125.997 -12.0626 0)
(157.296 -12.1598 0)
(187.375 -9.52782 0)
(213.368 -9.99595 0)
(235.737 -7.49296 0)
(257.633 -8.60466 0)
(267.956 -6.48121 0)
(284.858 1.12912 0)
(280.308 -1.81658 0)
(263.774 8.50995 0)
(246.884 10.9322 0)
(189.48 22.0194 0)
(141.384 27.4524 0)
(85.36 27.6666 0)
(39.9449 23.0916 0)
(10.9856 14.9626 0)
(9.34783 4.08261 0)
(-3.82706 11.9112 0)
(-27.1123 18.4047 0)
(-49.2688 15.3629 0)
(-70.6913 10.6524 0)
(-71.266 5.31002 0)
(-64.8282 -1.43266 0)
(-42.9047 -5.11511 0)
(-12.6664 -9.98479 0)
(19.9747 -10.4549 0)
(58.2708 -12.8634 0)
(96.611 -14.7744 0)
(133.319 -15.8191 0)
(172.073 -15.7846 0)
(207.386 -17.5583 0)
(241.007 -8.97884 0)
(272.658 -13.6933 0)
(292.152 -2.84283 0)
(316.858 -3.18524 0)
(312.721 8.14425 0)
(317.376 5.06308 0)
(297.835 11.7548 0)
(271.136 8.77794 0)
(241.838 15.4686 0)
(208.922 13.418 0)
(144.367 21.0349 0)
(102.072 21.0006 0)
(53.3102 21.151 0)
(19.8171 16.6793 0)
(5.18938 8.12949 0)
(-2.19313 -4.50059 0)
(-9.94745 8.25615 0)
(-33.7743 8.35274 0)
(-53.3466 10.4786 0)
(-73.1751 2.98141 0)
(-74.2037 4.89859 0)
(-66.8277 -5.8479 0)
(-47.1625 -6.08117 0)
(-16.9519 -14.3257 0)
(26.533 -17.4263 0)
(78.6445 -25.1325 0)
(140.09 -24.3939 0)
(202.563 -26.3814 0)
(251.409 -19.1112 0)
(307.477 -18.1544 0)
(320.074 -8.2913 0)
(341.99 -1.59218 0)
(342.849 1.04113 0)
(310.289 5.70218 0)
(290.065 9.40015 0)
(261.389 12.2455 0)
(223.405 12.8857 0)
(193.441 16.5754 0)
(166.068 16.0666 0)
(136.249 16.5985 0)
(106.987 16.4966 0)
(78.9254 15.9373 0)
(51.8123 13.5459 0)
(27.1029 10.97 0)
(7.73862 7.5182 0)
(-12.718 -4.31009 0)
(-17.5959 -2.20482 0)
(-27.1656 -1.2841 0)
(-45.3882 -0.112707 0)
(-49.0279 -0.334559 0)
(-43.2694 -2.64388 0)
(-23.5839 -8.26825 0)
(14.2494 -15.6116 0)
(70.5967 -23.6076 0)
(139.794 -29.1909 0)
(221.657 -31.4955 0)
(296.178 -34.2239 0)
(375.605 -30.2054 0)
(436.138 -27.9132 0)
(474.438 -21.0327 0)
(546.542 -21.8632 0)
(537.911 -2.45619 0)
(582.944 1.36995 0)
(535.474 1.49168 0)
(459.32 23.7036 0)
(410.564 25.5308 0)
(313.651 38.0867 0)
(221.583 39.0185 0)
(135.354 32.185 0)
(69.6646 24.4289 0)
(8.82047 13.2312 0)
(-17.7239 8.32255 0)
(-34.5181 -1.57932 0)
(-33.1041 -6.21379 0)
(-15.4619 -18.8344 0)
(3.04888 -0.303796 0)
(3.56066 2.72576 0)
(-0.401239 4.49591 0)
(-5.07419 4.73492 0)
(-6.86862 3.40067 0)
(-1.28339 -2.17041 0)
(20.1017 -14.1372 0)
(57.4284 -21.7533 0)
(109.065 -29.6796 0)
(168.609 -33.4394 0)
(231.837 -32.6302 0)
(297.664 -34.6789 0)
(354.142 -31.4929 0)
(416.527 -27.7731 0)
(456.484 -27.7245 0)
(502.23 -25.4428 0)
(517.977 -17.2413 0)
(547.619 -17.8875 0)
(549.907 -5.33727 0)
(536.639 -3.19532 0)
(508.381 15.9392 0)
(453.412 15.3708 0)
(374.913 37.9632 0)
(290.669 44.6957 0)
(176.108 49.0472 0)
(81.0528 41.4276 0)
(8.50796 25.5799 0)
(-29.9134 0.889666 0)
(-31.6601 -13.661 0)
(-16.5307 -25.1973 0)
(-3.9014 -10.4788 0)
(-13.3357 -5.30792 0)
(-32.6571 -0.829112 0)
(-53.487 1.92647 0)
(-73.2366 3.82932 0)
(-90.0917 3.69066 0)
(-100.465 2.73071 0)
(-103.99 0.339776 0)
(-97.1986 -1.35887 0)
(-85.2526 -5.02756 0)
(-62.0835 -6.77911 0)
(-35.3597 -10.3787 0)
(-4.04151 -11.7781 0)
(31.9295 -13.7926 0)
(71.274 -14.5824 0)
(112.822 -14.8328 0)
(151.419 -12.8202 0)
(188.171 -10.4093 0)
(220.431 -6.93438 0)
(247.185 -5.35491 0)
(269.296 -0.923382 0)
(278.95 1.85754 0)
(278.903 11.041 0)
(269.242 11.6253 0)
(227.584 27.5809 0)
(170.616 34.2461 0)
(101.449 34.7794 0)
(38.1193 24.982 0)
(3.50549 8.16754 0)
(-3.58292 -5.37993 0)
(6.73783 -4.14254 0)
(16.3892 -2.37185 0)
(25.5948 0.583059 0)
(32.9304 -0.365571 0)
(37.3562 4.34038 0)
(31.1461 7.60515 0)
(12.3561 12.2126 0)
(-18.2605 18.3284 0)
(-57.3391 18.8381 0)
(-108.505 24.5719 0)
(-155.781 20.8379 0)
(-201.426 12.2955 0)
(-229.857 10.7534 0)
(-243.406 -2.73086 0)
(-242.448 -3.1103 0)
(-231.304 -13.0271 0)
(-206.471 -17.19 0)
(-168.275 -14.6538 0)
(-132.638 -22.5987 0)
(-92.8754 -15.0451 0)
(-58.0048 -14.579 0)
(-27.639 -8.90149 0)
(-2.62591 -6.87581 0)
(15.4457 -3.243 0)
(29.7543 -2.24003 0)
(36.7308 -0.972974 0)
(36.7824 0.620987 0)
(32.2616 -1.2518 0)
(24.1375 2.24954 0)
(9.93439 3.42939 0)
(6.24047 -20.4749 0)
(15.7294 -28.1868 0)
(26.9832 -26.2736 0)
(37.6883 -28.2471 0)
(45.227 -19.6697 0)
(50.5228 -14.438 0)
(51.7258 -0.0943925 0)
(51.2543 7.07454 0)
(48.3175 22.1991 0)
(42.7293 28.5609 0)
(32.9885 33.9898 0)
(21.2263 35.5569 0)
(11.1359 27.6817 0)
(2.8327 23.91 0)
(2.70305 -10.479 0)
(8.41854 -18.834 0)
(16.1199 -18.7776 0)
(21.8389 -18.6982 0)
(30.8672 -19.8131 0)
(42.1406 -22.415 0)
(53.8255 -29.7971 0)
(71.5318 -34.6735 0)
(91.7045 -40.9816 0)
(113.398 -50.2978 0)
(134.09 -47.3622 0)
(155.002 -54.8096 0)
(170.717 -49.3824 0)
(185.309 -52.7533 0)
(200.291 -42.5877 0)
(208.141 -44.0944 0)
(217.855 -32.1041 0)
(222.62 -29.9804 0)
(220.617 -17.8389 0)
(213.763 -14.245 0)
(205.469 3.5468 0)
(184.298 3.07043 0)
(161.553 26.4283 0)
(133.034 24.1889 0)
(96.2848 42.1708 0)
(59.6885 27.1649 0)
(21.7573 18.7646 0)
(0.361955 -7.20657 0)
(-10.8551 -20.7139 0)
(-5.73213 -37.3078 0)
(-8.6741 26.5492 0)
(-16.2588 1.63126 0)
(-18.7244 0.781493 0)
(-22.8083 7.84375 0)
(-34.5599 18.4513 0)
(-51.8391 28.3064 0)
(-72.2877 35.0851 0)
(-89.5911 32.3381 0)
(-97.8507 24.3713 0)
(-95.3523 10.219 0)
(-79.1216 -5.83982 0)
(-49.2119 -26.343 0)
(-10.1339 -40.108 0)
(38.0574 -58.5602 0)
(96.1724 -62.3313 0)
(140.313 -75.2405 0)
(194.888 -60.2349 0)
(235.29 -58.2297 0)
(264.21 -29.741 0)
(291.232 -19.6035 0)
(282.536 10.6981 0)
(283.314 18.0434 0)
(252.568 46.649 0)
(231.163 64.932 0)
(192.933 82.9895 0)
(144.273 85.9644 0)
(95.0617 79.3515 0)
(48.4634 42.684 0)
(18.6655 19.8018 0)
(3.66431 0.728699 0)
(-16.3448 48.8297 0)
(-41.9761 38.7268 0)
(-65.5612 28.5046 0)
(-77.4353 22.2029 0)
(-84.5181 9.789 0)
(-86.2599 1.15913 0)
(-75.5121 -12.9237 0)
(-58.2725 -20.4541 0)
(-31.6644 -36.0479 0)
(1.21398 -43.5645 0)
(41.723 -59.4796 0)
(85.5967 -66.565 0)
(135.744 -79.1009 0)
(186.96 -84.0837 0)
(241.578 -90.9856 0)
(293.529 -87.6336 0)
(343.499 -88.9613 0)
(386.421 -71.6248 0)
(416.798 -67.8731 0)
(443.979 -33.6777 0)
(445.63 -19.7339 0)
(437.3 20.3777 0)
(416.287 34.1865 0)
(382.102 83.5862 0)
(334.759 128.45 0)
(267.122 156.103 0)
(182.422 143.143 0)
(99.2277 94.7406 0)
(38.0776 37.7836 0)
(4.52682 -5.13121 0)
(-19.7497 73.7261 0)
(-37.0566 19.2524 0)
(-28.3267 -16.9685 0)
(6.53852 -63.3297 0)
(55.5226 -89.4025 0)
(110.344 -102.732 0)
(169.656 -94.1161 0)
(217.894 -94.7747 0)
(267.741 -68.3049 0)
(302.442 -73.4144 0)
(337.794 -42.41 0)
(367.914 -49.0416 0)
(377.039 -22.8581 0)
(404.133 -29.3529 0)
(399.061 -2.36018 0)
(415.316 -8.03923 0)
(412.577 15.6963 0)
(420.565 16.318 0)
(408.379 32.4726 0)
(393.45 42.3786 0)
(373.445 59.8987 0)
(338.941 82.38 0)
(301.473 105.045 0)
(251.065 126.106 0)
(188.44 130.639 0)
(120.566 116.321 0)
(61.301 85.0252 0)
(22.0268 51.8193 0)
(2.21456 33.5028 0)
(-3.45792 15.8329 0)
(-21.1188 25.2902 0)
(-62.7506 29.1556 0)
(-101.628 31.8292 0)
(-132.514 27.8606 0)
(-155.753 23.9486 0)
(-173.021 18.6945 0)
(-183.917 10.117 0)
(-185.64 -3.1238 0)
(-173.205 -15.4606 0)
(-149.479 -28.672 0)
(-112.421 -44.5525 0)
(-63.9981 -58.7398 0)
(-5.94959 -73.358 0)
(60.6096 -82.2876 0)
(129.386 -83.047 0)
(197.377 -75.8489 0)
(259.672 -60.5055 0)
(314.139 -45.0321 0)
(358.321 -19.8371 0)
(385.213 -4.92218 0)
(402.23 24.0298 0)
(388.488 44.8459 0)
(352.889 58.9918 0)
(320.908 97.4025 0)
(256.32 98.7107 0)
(192.809 108.726 0)
(127.388 86.0472 0)
(69.5445 60.9481 0)
(28.4611 20.6091 0)
(4.89886 -6.32694 0)
(-5.26482 12.4455 0)
(-17.4562 17.9129 0)
(-34.3844 22.61 0)
(-53.8396 24.1723 0)
(-70.8724 16.5887 0)
(-78.0029 5.18097 0)
(-86.5273 -5.76783 0)
(-81.3343 -20.3104 0)
(-72.7816 -26.6848 0)
(-58.0453 -33.9038 0)
(-34.3082 -36.2771 0)
(-9.34602 -39.876 0)
(23.0012 -39.0925 0)
(54.4936 -39.979 0)
(87.6113 -33.9963 0)
(118.765 -35.4481 0)
(148.53 -27.5433 0)
(173.459 -30.3836 0)
(199.784 -24.0221 0)
(222.331 -24.5038 0)
(238.673 -18.5584 0)
(255.833 -4.9626 0)
(253.094 -1.34285 0)
(245.315 20.9035 0)
(232.869 29.1138 0)
(196.916 55.2482 0)
(163.434 71.4827 0)
(118.375 79.7179 0)
(69.2098 74.4132 0)
(22.8629 55.885 0)
(-4.77512 20.0467 0)
(-36.0049 43.183 0)
(-65.8037 58.5766 0)
(-93.1255 42.675 0)
(-105.896 32.5056 0)
(-101.491 7.48879 0)
(-93.1929 -4.5995 0)
(-66.4422 -17.598 0)
(-36.2744 -27.9359 0)
(-2.36251 -30.5425 0)
(34.326 -37.2975 0)
(73.5403 -44.0511 0)
(113.389 -48.5349 0)
(156.611 -49.3782 0)
(203.829 -50.3244 0)
(241.217 -30.9281 0)
(275.267 -37.6428 0)
(302.53 -3.32904 0)
(320.789 -0.338932 0)
(320.724 20.2788 0)
(311.438 25.6857 0)
(300.002 37.083 0)
(270.95 36.4675 0)
(244.629 47.3975 0)
(209.968 41.1298 0)
(166.475 54.6009 0)
(129.001 59.4818 0)
(87.4918 63.2081 0)
(47.8828 57.109 0)
(16.0018 40.266 0)
(-10.7396 8.97729 0)
(-36.8983 31.0987 0)
(-67.1724 31.4546 0)
(-88.6838 26.588 0)
(-100.536 12.8043 0)
(-99.0839 2.93759 0)
(-88.7481 -16.4154 0)
(-60.2517 -26.1675 0)
(-21.0901 -48.6766 0)
(35.3311 -60.5864 0)
(99.3688 -79.9022 0)
(169.467 -77.195 0)
(239.138 -78.0928 0)
(289.225 -57.2948 0)
(345.461 -48.4457 0)
(362.585 -27.0041 0)
(374.082 -6.12063 0)
(367.721 5.74139 0)
(339.168 17.6825 0)
(320.356 31.3311 0)
(286.71 38.3484 0)
(253.203 43.4193 0)
(226.019 49.4815 0)
(197.619 51.5246 0)
(171.083 52.9562 0)
(142.775 53.9839 0)
(112.422 50.5267 0)
(80.4513 44.2842 0)
(48.143 38.6204 0)
(15.9988 32.5436 0)
(-18.4026 -8.56674 0)
(-33.3517 1.65747 0)
(-51.9036 -1.49064 0)
(-69.1364 2.11679 0)
(-68.3557 -4.04337 0)
(-53.0393 -13.9165 0)
(-17.133 -33.6226 0)
(38.4577 -56.5975 0)
(108.34 -75.6602 0)
(184.754 -88.8166 0)
(262.13 -90.2598 0)
(335.048 -94.5611 0)
(408.607 -74.1603 0)
(454.275 -79.1298 0)
(504.965 -46.7248 0)
(557.44 -49.3505 0)
(566.79 -15.2987 0)
(578.886 -3.01584 0)
(557.843 17.6485 0)
(515.595 57.0191 0)
(468.062 78.6269 0)
(400.109 103.912 0)
(330.266 109.147 0)
(250.876 98.577 0)
(174.901 77.3849 0)
(98.4282 49.4176 0)
(54.4774 31.3028 0)
(20.2291 10.6479 0)
(2.20915 -6.22993 0)
(-2.23236 -32.7796 0)
(-0.214721 2.62918 0)
(-3.45428 9.55747 0)
(-7.07941 11.3642 0)
(-6.69601 8.71495 0)
(4.64264 -3.42807 0)
(30.2843 -24.1656 0)
(70.2067 -49.7622 0)
(119.745 -69.0834 0)
(177.113 -86.5195 0)
(238.45 -90.8835 0)
(295.28 -89.6654 0)
(348.767 -88.1647 0)
(402.87 -83.7106 0)
(448.37 -78.953 0)
(484.709 -71.5997 0)
(532.394 -68.106 0)
(546.565 -45.0492 0)
(569.391 -35.0733 0)
(576.754 -16.837 0)
(566.479 5.76692 0)
(541.725 36.6371 0)
(497.1 53.6912 0)
(458.145 92.4199 0)
(391.017 116.664 0)
(319.937 135.438 0)
(231.07 127.972 0)
(141.864 95.7438 0)
(70.1481 43.1154 0)
(22.9028 -1.95114 0)
(2.30286 -44.3331 0)
(-9.4318 -16.4492 0)
(-30.7967 -5.42545 0)
(-53.9836 7.15939 0)
(-80.2363 11.2145 0)
(-102.944 17.1779 0)
(-121.274 14.329 0)
(-134.363 14.4608 0)
(-139.224 4.95585 0)
(-136.427 -1.24121 0)
(-122.309 -13.7474 0)
(-102.963 -19.6564 0)
(-76.5473 -28.2 0)
(-45.9269 -33.8971 0)
(-10.9197 -39.2084 0)
(27.3579 -42.6067 0)
(67.7914 -41.8391 0)
(107.661 -36.4676 0)
(144.147 -28.888 0)
(177.282 -20.6714 0)
(204.91 -15.2734 0)
(231.357 -5.37916 0)
(250.003 4.21303 0)
(253.86 23.8814 0)
(253.471 39.261 0)
(236.514 67.7705 0)
(199.046 91.0544 0)
(148.348 98.7875 0)
(89.1669 81.0047 0)
(37.8613 43.1855 0)
(7.4234 5.80253 0)
(2.43544 -3.96375 0)
(6.00617 -1.12872 0)
(9.00535 4.89059 0)
(7.04909 6.86725 0)
(-3.78421 20.7885 0)
(-26.7412 31.7405 0)
(-59.2849 44.6728 0)
(-102.122 59.3832 0)
(-149.493 60.7026 0)
(-197.643 66.0986 0)
(-236.931 55.4006 0)
(-269.943 38.9229 0)
(-297.286 26.2464 0)
(-305.093 -0.633423 0)
(-303.191 -13.7362 0)
(-295.372 -35.9173 0)
(-255.439 -50.167 0)
(-218.809 -53.7162 0)
(-173.727 -62.977 0)
(-123.507 -53.5569 0)
(-83.2573 -47.0313 0)
(-42.4955 -32.3342 0)
(-10.5777 -22.7448 0)
(13.9624 -12.7894 0)
(30.8905 -7.18798 0)
(39.1097 -1.79316 0)
(39.4675 3.85948 0)
(33.4268 3.57732 0)
(21.5363 7.71313 0)
(8.11048 11.1589 0)
(6.6229 -34.2607 0)
(14.5809 -46.3001 0)
(23.6842 -42.4871 0)
(32.6833 -45.449 0)
(38.9397 -30.8212 0)
(43.9102 -24.2512 0)
(45.0712 -0.527218 0)
(45.3593 8.03113 0)
(43.9455 33.1547 0)
(41.3724 42.3214 0)
(35.867 55.8033 0)
(26.015 57.6095 0)
(15.6273 53.8733 0)
(5.13306 43.7632 0)
(2.7516 -16.9097 0)
(5.54987 -25.3001 0)
(9.33519 -24.9663 0)
(11.542 -23.0189 0)
(14.3392 -27.2658 0)
(20.8857 -29.7344 0)
(30.5314 -45.2484 0)
(45.5685 -54.3758 0)
(64.3572 -65.0767 0)
(84.937 -79.3635 0)
(105.448 -76.0706 0)
(122.169 -86.8884 0)
(138.97 -79.3441 0)
(153.287 -81.8378 0)
(165.208 -71.3198 0)
(177.116 -70.5237 0)
(184.732 -55.9814 0)
(191.031 -49.3326 0)
(188.135 -36.0253 0)
(184.35 -22.5382 0)
(176.884 -7.01145 0)
(160.875 1.75164 0)
(146.38 27.5272 0)
(124.147 33.81 0)
(101.204 59.1901 0)
(72.4484 47.4543 0)
(39.7424 39.8142 0)
(15.7996 7.0854 0)
(1.37806 -20.7869 0)
(-1.09063 -42.4419 0)
(-9.12529 39.2182 0)
(-23.2848 8.63001 0)
(-34.8841 8.72531 0)
(-50.0093 21.7705 0)
(-69.186 40.4874 0)
(-90.8294 54.1956 0)
(-110.406 60.1147 0)
(-122.291 50.5797 0)
(-120.975 31.3291 0)
(-104.662 2.97395 0)
(-75.1369 -27.911 0)
(-36.5359 -55.898 0)
(10.2955 -80.4104 0)
(56.2403 -104.864 0)
(106.735 -113.778 0)
(151.727 -118.76 0)
(190.704 -100.33 0)
(221.56 -86.9602 0)
(245.043 -50.7594 0)
(265.67 -28.8547 0)
(266.367 13.611 0)
(265.17 32.0029 0)
(240.517 68.6839 0)
(220.216 95.3416 0)
(188.439 122.128 0)
(152.635 135.146 0)
(110.795 128.577 0)
(67.2788 88.4547 0)
(30.6839 48.9281 0)
(8.30568 15.3244 0)
(-17.3016 79.8151 0)
(-40.9347 64.9419 0)
(-63.2692 48.0638 0)
(-76.7458 38.5573 0)
(-88.0332 17.4401 0)
(-90.7076 3.88771 0)
(-83.3776 -17.333 0)
(-69.5086 -34.6726 0)
(-46.216 -55.4183 0)
(-15.8879 -72.069 0)
(19.7337 -92.9635 0)
(59.8227 -107.444 0)
(103.747 -125.025 0)
(151.223 -136.78 0)
(200.275 -145.197 0)
(249.878 -146.44 0)
(296.83 -140.503 0)
(338.704 -122.601 0)
(371.351 -104.23 0)
(390.297 -65.6675 0)
(405.37 -36.4409 0)
(392.866 12.7217 0)
(386.994 50.5959 0)
(353.821 109.157 0)
(327.192 172.294 0)
(288.518 221.33 0)
(233.169 231.475 0)
(161.258 183.638 0)
(85.1853 108.465 0)
(24.5757 36.7404 0)
(-7.78254 100.976 0)
(-12.3045 30.0974 0)
(-1.95744 -35.4687 0)
(24.0715 -96.0275 0)
(59.891 -134.226 0)
(103.096 -153.578 0)
(150.365 -142.918 0)
(188.883 -141.832 0)
(228.172 -109.304 0)
(257.692 -111.475 0)
(285.715 -67.4208 0)
(304.513 -86.9946 0)
(326.654 -42.2729 0)
(345.051 -52.5609 0)
(352.194 -16.0992 0)
(363.927 -16.1697 0)
(372.613 13.4987 0)
(380.823 19.5796 0)
(373.765 43.4888 0)
(371.56 63.1891 0)
(344.413 87.314 0)
(321.328 118.716 0)
(294.779 149.893 0)
(265.622 180.606 0)
(224.673 201.7 0)
(170.439 196.233 0)
(110.69 160.681 0)
(57.4732 108.521 0)
(20.9911 70.0343 0)
(1.8878 35.7444 0)
(-24.0763 49.7856 0)
(-67.1057 52.6891 0)
(-104.593 53.5527 0)
(-136.671 48.0594 0)
(-161.945 41.254 0)
(-181.02 32.4486 0)
(-192.697 20.0842 0)
(-192.715 -2.48875 0)
(-181.126 -27.2378 0)
(-155.195 -53.44 0)
(-116.795 -78.2439 0)
(-67.6534 -102.917 0)
(-10.0482 -125.325 0)
(52.4608 -139.006 0)
(115.946 -137.648 0)
(177.411 -124.167 0)
(233.356 -100.319 0)
(284.625 -70.4007 0)
(323.549 -35.8585 0)
(349.049 -1.52374 0)
(370.634 34.8512 0)
(356.369 64.9836 0)
(330.705 100.523 0)
(307.67 129.99 0)
(246.352 150.288 0)
(204.909 160.269 0)
(150.418 144.327 0)
(99.53 111.496 0)
(52.8562 65.703 0)
(16.9537 21.0632 0)
(-8.84941 25.038 0)
(-28.2361 34.3106 0)
(-48.4225 39.0633 0)
(-66.8273 37.0269 0)
(-80.949 24.8882 0)
(-88.4844 6.84931 0)
(-97.5132 -13.1442 0)
(-91.7275 -28.8812 0)
(-85.8069 -43.9183 0)
(-71.745 -49.8515 0)
(-55.0425 -56.8172 0)
(-32.9195 -61.7738 0)
(-6.19051 -60.3297 0)
(21.3262 -61.1808 0)
(49.2235 -54.9106 0)
(75.6964 -53.2495 0)
(102.91 -47.0513 0)
(123.894 -49.8154 0)
(148.611 -41.6903 0)
(167.899 -41.2679 0)
(183.361 -29.9843 0)
(203.479 -18.4097 0)
(208.473 -6.57898 0)
(202.569 21.3748 0)
(194.847 39.9291 0)
(169.59 74.2618 0)
(144.776 102.069 0)
(110.003 121.931 0)
(68.6347 125.739 0)
(24.3694 110.251 0)
(-17.9518 55.2119 0)
(-65.1245 86.7557 0)
(-101.232 101.32 0)
(-127.484 67.4032 0)
(-137.282 53.1927 0)
(-129.557 5.58063 0)
(-116.806 -9.35617 0)
(-91.6288 -31.8072 0)
(-61.8477 -43.1035 0)
(-28.0482 -50.955 0)
(10.7704 -62.153 0)
(54.7278 -76.9137 0)
(103.449 -87.3515 0)
(158.341 -92.2336 0)
(211.408 -86.6794 0)
(253.903 -74.3815 0)
(294.053 -49.1451 0)
(327.612 -18.2285 0)
(332.555 5.76208 0)
(335.154 33.3304 0)
(322.518 57.4439 0)
(295.586 65.2171 0)
(264.752 68.5032 0)
(227.026 73.4662 0)
(191.513 70.0688 0)
(156.622 78.3368 0)
(122.746 89.3762 0)
(88.537 98.9891 0)
(52.9733 99.3907 0)
(18.9105 84.8654 0)
(-22.4988 37.0243 0)
(-58.7933 60.879 0)
(-92.0709 55.9876 0)
(-110.938 39.5682 0)
(-121.839 16.2947 0)
(-115.106 -6.36035 0)
(-97.4059 -33.5556 0)
(-62.0716 -58.1127 0)
(-10.6652 -95.1524 0)
(54.6458 -115.674 0)
(128.474 -144.938 0)
(201.179 -130.712 0)
(270.043 -131.056 0)
(320.716 -91.6483 0)
(365.487 -74.9873 0)
(384.85 -41.4373 0)
(389.679 -8.77394 0)
(376.719 13.4508 0)
(351.264 40.8959 0)
(330.04 58.34 0)
(290.318 70.9548 0)
(256.718 81.3276 0)
(226.783 85.0768 0)
(197.69 86.8266 0)
(170.721 88.7203 0)
(145.52 87.5463 0)
(117.506 83.394 0)
(87.6183 78.8432 0)
(55.419 76.1852 0)
(19.4359 68.2035 0)
(-19.696 -3.13512 0)
(-46.7471 11.2169 0)
(-67.1889 5.64134 0)
(-81.5739 5.3682 0)
(-73.7954 -12.3982 0)
(-46.8457 -40.2147 0)
(0.883074 -77.5185 0)
(65.4813 -113.961 0)
(135.693 -135.098 0)
(204.779 -149.734 0)
(267.497 -142.577 0)
(330.885 -142.188 0)
(386.703 -109.814 0)
(425.333 -119.66 0)
(478.031 -67.4768 0)
(500.638 -74.6494 0)
(514.706 -30.111 0)
(532.73 -9.54665 0)
(521.395 16.4382 0)
(482.84 64.8844 0)
(459.358 112.201 0)
(403.178 146.672 0)
(349.463 165.607 0)
(275.649 158.793 0)
(213.858 130.124 0)
(136.123 94.7969 0)
(88.3196 62.984 0)
(46.664 36.2492 0)
(18.8092 6.72518 0)
(4.15281 -28.1317 0)
(-2.92575 12.4087 0)
(-7.74146 19.7757 0)
(-8.75473 16.568 0)
(-0.137461 3.30201 0)
(21.7499 -23.6409 0)
(59.7614 -58.8298 0)
(109.657 -98.0913 0)
(161.085 -119.276 0)
(214.337 -142.03 0)
(262.437 -137.514 0)
(307.619 -144.063 0)
(345.821 -131.395 0)
(378.741 -130.182 0)
(425.668 -120.551 0)
(448.633 -110.31 0)
(487.775 -98.9737 0)
(509.888 -78.7675 0)
(526.835 -58.3535 0)
(531.419 -22.3412 0)
(536.319 11.3525 0)
(519.533 41.9909 0)
(489.375 86.3917 0)
(455.411 119.551 0)
(411.902 164.504 0)
(360.199 199.705 0)
(293.446 204.381 0)
(214.25 177.935 0)
(130.95 113.88 0)
(56.7269 39.4715 0)
(13.5768 -37.2146 0)
(-11.7448 -13.0942 0)
(-39.0228 4.48481 0)
(-74.3758 21.4639 0)
(-105.529 26.6685 0)
(-134.132 34.805 0)
(-157.517 27.3381 0)
(-173.059 26.4163 0)
(-180.225 7.28641 0)
(-176.542 -1.05326 0)
(-166.677 -22.3929 0)
(-146.992 -34.2434 0)
(-122.397 -47.4917 0)
(-92.6737 -56.4877 0)
(-58.893 -64.909 0)
(-21.9395 -70.7954 0)
(17.5834 -69.9815 0)
(56.8668 -60.6631 0)
(92.9678 -48.1112 0)
(126.051 -36.8658 0)
(154.667 -30.217 0)
(183.096 -14.7979 0)
(202.956 -1.06785 0)
(215.037 28.2176 0)
(216.542 53.5656 0)
(201.64 90.774 0)
(181.067 126.368 0)
(146.585 148.805 0)
(102.019 137.077 0)
(53.0878 90.8908 0)
(15.497 33.6624 0)
(0.304928 2.47949 0)
(-0.086501 6.15787 0)
(-2.74071 16.0314 0)
(-15.5585 27.4808 0)
(-38.2797 48.6748 0)
(-71.3915 69.2381 0)
(-108.507 87.1133 0)
(-154.223 103.81 0)
(-195.873 105.08 0)
(-241.321 101.176 0)
(-278.918 84.2977 0)
(-313.412 59.3136 0)
(-336.384 35.6876 0)
(-344.702 -4.70343 0)
(-341.518 -30.8734 0)
(-329.06 -61.4468 0)
(-294.05 -81.4671 0)
(-252.352 -101.437 0)
(-207.338 -103.679 0)
(-153.617 -100.127 0)
(-105.901 -84.9005 0)
(-59.6276 -63.0879 0)
(-24.8408 -41.7834 0)
(1.69256 -25.8744 0)
(19.7064 -14.6747 0)
(30.4137 -3.66693 0)
(33.8916 5.19794 0)
(30.5249 10.5527 0)
(21.517 11.0834 0)
(9.25237 20.1064 0)
(6.29001 -49.3378 0)
(11.502 -61.444 0)
(18.2415 -57.022 0)
(23.9227 -60.1057 0)
(28.9235 -40.8736 0)
(34.0338 -33.1732 0)
(34.292 -2.07439 0)
(34.8126 9.39631 0)
(34.2015 40.5253 0)
(33.7002 54.3903 0)
(32.683 72.1297 0)
(26.8013 80.1088 0)
(17.2451 78.8809 0)
(5.59645 68.76 0)
(-1.09576 -15.6951 0)
(0.498713 -26.1196 0)
(-1.55049 -23.3207 0)
(-3.57645 -19.7264 0)
(-3.4754 -28.4931 0)
(2.01811 -34.7313 0)
(12.1481 -56.3365 0)
(27.1372 -72.5749 0)
(47.0584 -87.8025 0)
(66.1144 -104.047 0)
(84.2935 -103.462 0)
(100.547 -113.509 0)
(115.266 -104.742 0)
(129.562 -109.656 0)
(141.375 -97.69 0)
(153.406 -93.7524 0)
(161.334 -79.1716 0)
(164.733 -65.9391 0)
(162.891 -53.1954 0)
(158.448 -27.8519 0)
(145.979 -22.1326 0)
(134.35 10.803 0)
(119.728 16.2732 0)
(104.667 49.603 0)
(88.3942 58.2588 0)
(61.5838 71.4987 0)
(40.3214 55.2381 0)
(15.4494 26.4675 0)
(4.39984 -12.7126 0)
(1.18396 -39.6055 0)
(-12.9463 50.0439 0)
(-35.0986 20.5436 0)
(-55.7138 25.5483 0)
(-77.0329 46.6763 0)
(-99.7367 67.0105 0)
(-118.067 79.1377 0)
(-127.23 78.9718 0)
(-125.232 57.7068 0)
(-110.812 23.9151 0)
(-83.7404 -17.2997 0)
(-48.3316 -57.0504 0)
(-8.23016 -88.5024 0)
(28.4624 -119.369 0)
(65.9711 -143.553 0)
(109.489 -149.641 0)
(137.217 -151.097 0)
(169.265 -128.253 0)
(190.529 -105.483 0)
(205.794 -67.5923 0)
(224.425 -31.4606 0)
(220.533 16.6473 0)
(223.857 49.636 0)
(207.689 89.8102 0)
(187.229 122.759 0)
(166.581 154.994 0)
(138.418 174.335 0)
(106.11 171.735 0)
(70.1214 132.51 0)
(36.9998 83.2659 0)
(10.4049 40.9903 0)
(-15.1582 106.809 0)
(-38.2054 89.9485 0)
(-60.3357 66.1611 0)
(-74.4819 57.299 0)
(-86.0392 26.9493 0)
(-91.6756 12.9148 0)
(-84.5657 -21.0511 0)
(-74.973 -42.886 0)
(-52.9857 -72.8204 0)
(-26.5847 -95.2562 0)
(3.98917 -120.383 0)
(37.9553 -141.821 0)
(75.1391 -163.578 0)
(115.469 -182.221 0)
(160.565 -196.37 0)
(204.432 -199.137 0)
(249.157 -189.667 0)
(287.443 -169.077 0)
(317.91 -136.914 0)
(338.92 -91.779 0)
(345.352 -48.3597 0)
(350.085 4.55697 0)
(323.17 63.737 0)
(309.943 131.918 0)
(289.32 201.111 0)
(267.092 263.899 0)
(232.462 294.472 0)
(176.54 267.727 0)
(105.302 193.955 0)
(34.4961 109.135 0)
(0.847612 111.484 0)
(3.56694 35.3909 0)
(9.30268 -46.4255 0)
(26.6164 -117.731 0)
(51.3628 -165.889 0)
(86.1332 -187.708 0)
(118.904 -183.199 0)
(148.484 -177.157 0)
(181.953 -143.573 0)
(213.475 -144.11 0)
(230.507 -106.038 0)
(256.487 -119.112 0)
(288.018 -64.0865 0)
(299.711 -83.0897 0)
(317.102 -31.0885 0)
(318.642 -26.874 0)
(340.324 4.43347 0)
(338.06 24.7859 0)
(340.425 57.0903 0)
(321.512 84.1933 0)
(313.954 111.738 0)
(290.206 143.16 0)
(266.014 182.614 0)
(248.299 221.088 0)
(227.021 251.157 0)
(190.337 260.049 0)
(139.41 231.504 0)
(85.6314 169.704 0)
(41.3929 113.643 0)
(11.9469 64.2308 0)
(-24.1047 72.573 0)
(-68.3308 77.0735 0)
(-104.281 77.8341 0)
(-134.64 68.6553 0)
(-162.73 61.1578 0)
(-182.051 44.7605 0)
(-194.551 25.0825 0)
(-196.404 -2.72254 0)
(-182.82 -37.225 0)
(-156.962 -74.7669 0)
(-121.083 -112.25 0)
(-77.6501 -145.764 0)
(-28.849 -173.288 0)
(23.8382 -188.576 0)
(75.5962 -185.124 0)
(125.063 -164.446 0)
(172.224 -133.346 0)
(215.457 -91.6301 0)
(250.693 -52.5936 0)
(276.632 3.23169 0)
(295.167 43.1616 0)
(283.67 88.7891 0)
(268.147 132.243 0)
(256.059 158.751 0)
(206.27 190.421 0)
(178.452 199.531 0)
(137.868 190.701 0)
(98.9839 159.376 0)
(57.3305 114.286 0)
(20.1866 63.5861 0)
(-10.0632 43.8063 0)
(-30.8556 53.7917 0)
(-55.0517 57.4435 0)
(-75.6137 50.9751 0)
(-92.4489 32.2855 0)
(-101.037 7.09215 0)
(-103.238 -16.8247 0)
(-101.596 -41.3478 0)
(-89.8775 -54.1697 0)
(-80.0465 -68.763 0)
(-65.8843 -73.147 0)
(-45.1346 -78.1201 0)
(-27.1908 -79.2877 0)
(-6.62328 -75.4102 0)
(14.5859 -71.7427 0)
(33.5151 -66.4684 0)
(52.6631 -63.2076 0)
(67.8044 -64.4654 0)
(89.2516 -55.7035 0)
(104.579 -58.5323 0)
(122.932 -42.5901 0)
(139.496 -32.6997 0)
(147.086 -15.4134 0)
(152.413 17.0007 0)
(149.079 42.56 0)
(133.17 85.6305 0)
(116.518 122.063 0)
(90.6319 153.299 0)
(58.2127 167.257 0)
(21.1369 158.307 0)
(-30.656 107.625 0)
(-86.2283 136.051 0)
(-129.825 141.519 0)
(-153.53 92.2944 0)
(-162.494 64.8855 0)
(-155.758 6.33233 0)
(-136.03 -15.7518 0)
(-112.469 -43.976 0)
(-82.7745 -56.0823 0)
(-46.2435 -73.0376 0)
(-3.74119 -91.1333 0)
(46.3805 -117.066 0)
(104.51 -133.965 0)
(165.657 -144.474 0)
(219.489 -133.112 0)
(269.925 -114.316 0)
(317.568 -62.753 0)
(340.153 -33.2322 0)
(355.902 14.9814 0)
(358.315 62.4911 0)
(333.091 87.8344 0)
(297.602 108.342 0)
(262.489 109.19 0)
(220.79 101.579 0)
(173.315 103.273 0)
(138.991 102.555 0)
(106.578 114.55 0)
(76.9575 129.045 0)
(47.1933 137.1 0)
(18.6057 127.675 0)
(-26.0542 80.7435 0)
(-75.7162 93.66 0)
(-109.625 79.2194 0)
(-130.551 46.4204 0)
(-134.889 14.7849 0)
(-126.285 -20.8506 0)
(-102.513 -59.5975 0)
(-58.5611 -100.937 0)
(-1.54584 -149.908 0)
(68.192 -179.24 0)
(141.906 -203.773 0)
(205.711 -186.341 0)
(263.899 -172.457 0)
(305.997 -132.378 0)
(334.782 -94.1679 0)
(366.352 -49.7329 0)
(364.595 -8.67598 0)
(353.021 30.7025 0)
(336.28 69.4175 0)
(305.669 94.4073 0)
(275.07 114.387 0)
(243.219 124.9 0)
(210.086 127.167 0)
(181.505 125.44 0)
(154.804 122.818 0)
(128.177 119.149 0)
(105.277 114.024 0)
(82.4108 108.009 0)
(53.7757 104.648 0)
(18.8667 100.383 0)
(-22.0099 11.6691 0)
(-57.6975 24.1962 0)
(-79.5821 17.2015 0)
(-87.4731 3.96402 0)
(-73.0553 -28.4518 0)
(-35.8781 -77.4957 0)
(16.5762 -130.393 0)
(77.9601 -169.99 0)
(135.685 -190.425 0)
(191.065 -196.205 0)
(237.996 -184.099 0)
(290.097 -173.83 0)
(322.532 -151.078 0)
(358.072 -136.094 0)
(405.289 -96.9882 0)
(415.752 -86.9846 0)
(449.818 -47.9872 0)
(443.443 -17.2523 0)
(447.523 21.6227 0)
(432.016 80.0361 0)
(398.047 133.281 0)
(357.19 181.588 0)
(319.6 206.517 0)
(256.338 202.412 0)
(207.169 171.33 0)
(139.809 133.38 0)
(98.4539 94.6396 0)
(60.3878 64.7281 0)
(31.1309 30.1139 0)
(10.1101 -11.7012 0)
(-4.9005 25.9251 0)
(-10.7817 29.0772 0)
(-9.60708 16.289 0)
(6.22605 -12.4337 0)
(37.3547 -54.5384 0)
(78.947 -99.7341 0)
(128.068 -143.95 0)
(173.57 -164.773 0)