/*--------------------------------*- C++ -*----------------------------------*\
| =========                 |                                                 |
| \\      /  F ield         | OpenFOAM: The Open Source CFD Toolbox           |
|  \\    /   O peration     | Version:  2.1.1                                 |
|   \\  /    A nd           | Web:      www.OpenFOAM.org                      |
|    \\/     M anipulation  |                                                 |
\*---------------------------------------------------------------------------*/
FoamFile
{
    version     2.0;
    format      ascii;
    class       volScalarField;
    location    "0.006450000";
    object      fH;
}
// * * * * * * * * * * * * * * * * * * * * * * * * * * * * * * * * * * * * * //

dimensions      [0 0 0 0 0 0 0];

internalField   nonuniform List<scalar> 
12384
(
0.028069
0.027712
0.027652
0.0278075
0.0279906
0.0281954
0.0283648
0.0285387
0.0286548
0.0287043
0.0287623
0.028698
0.0288745
0.0302337
0.0243617
0.0251292
0.0251753
0.0250757
0.0249254
0.0247339
0.0245835
0.0245225
0.0245307
0.0245873
0.0247034
0.0248592
0.0250404
0.0252345
0.025438
0.0256563
0.0258081
0.0259648
0.0259273
0.0259592
0.0257632
0.0256268
0.0254247
0.0252416
0.0250404
0.0248271
0.0246469
0.0245187
0.023474
0.0230397
0.0269262
0.0274598
0.0282071
0.0286298
0.0289313
0.0291734
0.0293606
0.0295033
0.0296297
0.0298242
0.0300576
0.0303188
0.0305804
0.0307652
0.030901
0.0309549
0.0309686
0.030957
0.0308816
0.0308383
0.0307015
0.0305893
0.0304411
0.0302885
0.0301247
0.0299594
0.0296444
0.0286973
0.0282896
0.028644
0.0301779
0.0302611
0.030331
0.0303023
0.0302781
0.0302652
0.0302831
0.030305
0.0303369
0.0303642
0.0303856
0.0303959
0.0303951
0.0303905
0.030358
0.0303207
0.03028
0.0302401
0.0302206
0.0302032
0.0301775
0.0301536
0.0301442
0.0301219
0.0300663
0.0301313
0.0301378
0.0303629
0.0305434
0.030647
0.0332294
0.0329442
0.0326174
0.0323583
0.0321418
0.0319534
0.0317842
0.0316689
0.0314685
0.0315313
0.0312886
0.0314349
0.0312744
0.0312503
0.0311653
0.0313116
0.0312369
0.0314249
0.031436
0.031699
0.0319666
0.0304724
0.0304027
0.0307599
0.0308757
0.0309749
0.0310421
0.0310395
0.0308743
0.0306688
0.0365348
0.0370861
0.0365138
0.0358023
0.0353548
0.0351855
0.0352324
0.0353552
0.0354765
0.0355136
0.035534
0.0355445
0.0355655
0.0355545
0.0355492
0.0355375
0.0354942
0.0355363
0.0354804
0.0355125
0.0354644
0.0354306
0.0353329
0.0352122
0.0351242
0.0350407
0.0349791
0.0346016
0.0344437
0.0347843
0.0311146
0.0306996
0.0306988
0.0312507
0.0315451
0.0317259
0.0319352
0.0321334
0.0322949
0.0323658
0.0323929
0.0323746
0.0323264
0.0322352
0.0321433
0.032015
0.0318443
0.0317471
0.0316769
0.0315623
0.0315064
0.0314859
0.0317
0.0310706
0.0275297
0.0265758
0.0264736
0.026459
0.0264971
0.0264692
0.0312755
0.0333077
0.0349433
0.0358253
0.0361696
0.0362798
0.0363285
0.0363436
0.0362793
0.0363722
0.0362833
0.0363662
0.0363305
0.036366
0.0364047
0.0362933
0.0362871
0.0362085
0.0361496
0.0360586
0.0358285
0.0344521
0.0336264
0.0336999
0.0338827
0.0341366
0.0343172
0.0343998
0.0342942
0.034153
0.033011
0.0338354
0.034015
0.033978
0.0338968
0.0338551
0.0337361
0.0337291
0.0335657
0.0336012
0.0335116
0.0334499
0.0334098
0.0334501
0.0333822
0.033341
0.0332682
0.0332592
0.0342139
0.0398895
0.0413402
0.0402373
0.0395189
0.0393008
0.0391746
0.0391921
0.0393919
0.0398846
0.0408806
0.0417216
0.0329829
0.0351043
0.0356068
0.0356457
0.035346
0.0349199
0.0345273
0.0341982
0.0339502
0.0337709
0.0336503
0.0335876
0.0335603
0.0335384
0.033567
0.0336835
0.0337523
0.0338945
0.0341368
0.0344091
0.0349165
0.0364695
0.0371481
0.0371846
0.0371
0.0370063
0.0369569
0.0369984
0.0371064
0.037208
0.0367933
0.037068
0.0371863
0.0372835
0.0372746
0.037189
0.0370543
0.0369219
0.036755
0.0367155
0.0365338
0.0365322
0.036519
0.0364793
0.0365772
0.0365779
0.0366225
0.0365924
0.0367483
0.037911
0.0391712
0.0396357
0.0399454
0.0400923
0.0400981
0.0399931
0.0398576
0.039799
0.0397556
0.0394865
0.0352923
0.0345602
0.0344695
0.0357562
0.0362554
0.0349994
0.0351591
0.0357945
0.0361617
0.0364014
0.0365854
0.0367524
0.03683
0.0368414
0.0368065
0.0367012
0.0365024
0.0362304
0.0359428
0.0356933
0.0354993
0.0353622
0.0352802
0.0352592
0.0352825
0.0353276
0.0353926
0.0354191
0.0356524
0.0363467
0.0380356
0.0382635
0.0371323
0.0342836
0.0296488
0.0229258
0.0243641
0.0443257
0.0541697
0.0518021
0.050509
0.049917
0.0495226
0.0492153
0.04894
0.0486308
0.0481931
0.0475862
0.0468037
0.0458865
0.0449184
0.044345
0.0445133
0.0464103
0.04975
0.0532791
0.0563739
0.0576093
0.057276
0.0458986
0.0262257
0.0264556
0.0268893
0.0271651
0.0273254
0.0275761
0.0279049
0.0283168
0.0288153
0.0292393
0.0293753
0.0292182
0.0290375
0.0300377
0.0243731
0.0252229
0.0252275
0.0249931
0.0246132
0.0243327
0.0243121
0.0244949
0.024792
0.0251247
0.0255056
0.0259355
0.0264306
0.026991
0.0276032
0.0280367
0.0283256
0.0283917
0.0284093
0.0283128
0.0281705
0.0278842
0.0274382
0.0268299
0.0261487
0.0254916
0.024952
0.0246521
0.0240988
0.0235496
0.0269603
0.0276644
0.0284552
0.0288405
0.0289832
0.0290126
0.0289822
0.029053
0.0293547
0.0298482
0.0304868
0.0311011
0.0314609
0.0316429
0.0316622
0.0316291
0.0315374
0.0314588
0.0313767
0.0313253
0.0312363
0.0311058
0.0309074
0.0306577
0.0303952
0.0301561
0.0298877
0.0292707
0.0284733
0.0283168
0.0301961
0.0302849
0.0302932
0.0302508
0.0302497
0.0303241
0.0304518
0.0305644
0.0306374
0.0306927
0.0307536
0.0307981
0.0307789
0.0306849
0.0305247
0.0303214
0.0301126
0.0299419
0.0298338
0.0297389
0.0296901
0.0297112
0.0297626
0.0298478
0.0299131
0.030015
0.0301079
0.030174
0.0304652
0.0307633
0.0334141
0.0330846
0.0325647
0.032142
0.0317645
0.0314184
0.0311297
0.0308794
0.0307374
0.0305469
0.0304714
0.0303844
0.0303322
0.0303154
0.0303238
0.0304153
0.0305941
0.0308668
0.0311047
0.0313668
0.0318054
0.031396
0.0306253
0.0309338
0.0313652
0.0315761
0.0318048
0.0320018
0.0320584
0.0317272
0.03654
0.0369784
0.0359853
0.0351363
0.0349923
0.0353874
0.0357614
0.035946
0.0359342
0.0358888
0.0358008
0.0357295
0.035718
0.0356824
0.0356889
0.0356827
0.0356908
0.0357186
0.0357325
0.0357204
0.0356717
0.0356087
0.0354764
0.0353138
0.0351999
0.0351072
0.0350337
0.0349141
0.0348624
0.0353246
0.0311039
0.0309744
0.0322471
0.0323515
0.032442
0.0329982
0.0335753
0.0338346
0.0337984
0.03365
0.0334629
0.0332895
0.03315
0.0330391
0.0329277
0.0328084
0.0325979
0.0323466
0.0320245
0.0317307
0.0314783
0.0313084
0.0314357
0.0314755
0.0298079
0.0269625
0.026248
0.0266671
0.0271288
0.0267762
0.0342667
0.0361311
0.036668
0.0366712
0.0365584
0.0364902
0.0364243
0.0365184
0.0364734
0.0365766
0.0365774
0.0365781
0.0365848
0.0366102
0.036577
0.0364976
0.0364288
0.0363569
0.0362763
0.0361373
0.0360411
0.0353809
0.0339181
0.0337845
0.0342869
0.0346829
0.0349976
0.0353381
0.0355713
0.0353316
0.0337263
0.0338488
0.0336581
0.0334233
0.033222
0.0329833
0.0328544
0.0326696
0.0325945
0.0325547
0.0325437
0.0325417
0.0326548
0.032779
0.0328861
0.0329819
0.0330689
0.0330848
0.0334405
0.0365142
0.0407535
0.0390592
0.0380534
0.0380523
0.0381773
0.0380741
0.0377445
0.0374825
0.0377034
0.0384535
0.0327173
0.0349989
0.0356411
0.0352583
0.0343307
0.0335367
0.0329538
0.032553
0.032247
0.0320134
0.0318331
0.0317102
0.0316328
0.0316008
0.0317001
0.0319485
0.0323423
0.0328099
0.033355
0.0339166
0.0344106
0.0354043
0.0366828
0.0370725
0.036892
0.0366338
0.0365328
0.0365826
0.0367834
0.0369953
0.0366539
0.0370537
0.0373262
0.0373168
0.0370381
0.036611
0.0361637
0.0356877
0.0353202
0.0350278
0.0348422
0.0348191
0.0348139
0.0350354
0.0353633
0.0357231
0.0360851
0.0363729
0.0365047
0.0371872
0.0391378
0.0403604
0.0407247
0.0406311
0.0402625
0.039751
0.0392764
0.0392244
0.0396624
0.0400185
0.0368869
0.0360653
0.036019
0.0362467
0.0355651
0.035412
0.0362821
0.037146
0.0376313
0.0379132
0.0380449
0.0380375
0.0380188
0.0380196
0.0380163
0.0379912
0.0379127
0.0377442
0.0373989
0.036961
0.0365552
0.0362371
0.0360446
0.035984
0.0360498
0.0361321
0.036088
0.0358462
0.0357808
0.0363035
0.0429745
0.0436559
0.0439288
0.041738
0.0299645
0.0262471
0.0406326
0.0521715
0.0530026
0.0513523
0.0509977
0.0510213
0.051147
0.0512304
0.0512129
0.0511369
0.0510246
0.0507476
0.050207
0.0490591
0.0468067
0.0439521
0.0415847
0.0420411
0.0472609
0.0528122
0.056602
0.0576096
0.0570194
0.0433684
0.0261549
0.0264854
0.0261989
0.0260559
0.0261852
0.0264523
0.0267628
0.0270915
0.0276106
0.0283638
0.0291967
0.0295276
0.0292966
0.0299589
0.0243888
0.0253252
0.0252837
0.024846
0.0243386
0.024217
0.0244284
0.024742
0.0250053
0.0252595
0.0255922
0.0260568
0.026691
0.0275556
0.0283516
0.0287128
0.0287544
0.0286313
0.028505
0.0283966
0.0283706
0.0282867
0.0281523
0.0278009
0.0271621
0.0263241
0.0254727
0.0248616
0.0244531
0.0238928
0.0270124
0.0278314
0.0285452
0.0286939
0.0285305
0.0283019
0.0282958
0.0287204
0.0293522
0.0300545
0.0309361
0.0315353
0.0316639
0.0315004
0.0311346
0.0307406
0.0304203
0.0302134
0.0301098
0.0301211
0.0301919
0.0302895
0.0303662
0.0303704
0.0303053
0.030189
0.0300081
0.0296777
0.0288412
0.0282681
0.0302155
0.030287
0.0302533
0.0302237
0.0303369
0.0305924
0.0308313
0.0309449
0.0309833
0.0310364
0.0311271
0.0312069
0.0311498
0.030905
0.0305165
0.0300863
0.0296866
0.0293881
0.0292098
0.0291053
0.0290473
0.0290745
0.0291862
0.0293804
0.0295947
0.0298019
0.0300096
0.0300987
0.030276
0.0306227
0.0334445
0.0328454
0.0323299
0.031874
0.0314141
0.0310062
0.030755
0.0304991
0.0304235
0.0301556
0.0301645
0.02999
0.0299226
0.0298544
0.0298276
0.0298498
0.0300238
0.0302474
0.0305787
0.0309322
0.0314205
0.031703
0.0312229
0.0309698
0.0314763
0.0314721
0.0315489
0.0320068
0.0326789
0.0328015
0.0365475
0.0366905
0.0354062
0.0349352
0.0354853
0.0361132
0.0362147
0.036077
0.0358565
0.0356365
0.0355006
0.0354442
0.0354232
0.035455
0.0354693
0.0355418
0.0355738
0.0356496
0.0357108
0.0357855
0.0358125
0.0357777
0.0356822
0.0354998
0.0353231
0.0351879
0.0350892
0.0350142
0.0350339
0.0353958
0.0311523
0.0321982
0.0326087
0.0324001
0.0339775
0.0349281
0.0348351
0.0342781
0.0335863
0.0330313
0.0326852
0.0325369
0.0325088
0.0325315
0.0325771
0.032625
0.0326715
0.0325898
0.032425
0.0320839
0.0316811
0.031313
0.0311887
0.0313979
0.0310093
0.0287474
0.0267158
0.027153
0.0281595
0.0274527
0.0372427
0.0371779
0.0367029
0.0364906
0.036471
0.0365495
0.0366134
0.0366879
0.0368077
0.0368136
0.0369304
0.0369423
0.0369693
0.0369929
0.0369229
0.0368516
0.0367256
0.0366091
0.0364845
0.0362746
0.0361446
0.0359023
0.0347395
0.0338054
0.0339198
0.0341882
0.0345173
0.0352222
0.0358363
0.0360452
0.0338646
0.0335285
0.0332346
0.0329084
0.0325771
0.0321921
0.0318857
0.0315951
0.0313917
0.0312914
0.0312599
0.0313755
0.0315585
0.0318008
0.0321187
0.0323933
0.03264
0.032823
0.0329881
0.0343394
0.0388038
0.0390662
0.0379945
0.0382711
0.0385316
0.0385284
0.0379304
0.0372813
0.0369577
0.0371185
0.032386
0.0349795
0.0354349
0.0342833
0.0333114
0.032676
0.0322614
0.0319083
0.0315716
0.031255
0.0309881
0.0307769
0.0306355
0.0305831
0.0305924
0.0307049
0.0310165
0.0315509
0.03226
0.0330534
0.0337975
0.0345105
0.0356205
0.0367428
0.0369793
0.0368142
0.0366212
0.0365568
0.0368335
0.0370331
0.0365725
0.0371753
0.0373245
0.0370026
0.0363666
0.0356173
0.0349152
0.0342154
0.033677
0.0331971
0.0329547
0.0327792
0.0328382
0.0331056
0.0335742
0.0342334
0.0349919
0.0356985
0.0361825
0.0366693
0.0382969
0.0403927
0.0409326
0.0409089
0.0403257
0.0393777
0.0385959
0.038483
0.0388862
0.0399395
0.0374348
0.0369856
0.0365005
0.0358894
0.0356472
0.0363917
0.0373878
0.0379162
0.0379958
0.0378741
0.0377035
0.0376035
0.0375827
0.037644
0.0377956
0.0379815
0.0380803
0.0380485
0.0377362
0.0370485
0.0365492
0.0362289
0.0360705
0.0361139
0.0363692
0.0367109
0.0368081
0.0364419
0.0360319
0.0363196
0.0398245
0.0414082
0.0423322
0.0377864
0.0299478
0.0387828
0.0511994
0.0530637
0.0521072
0.0514585
0.0514449
0.0513568
0.051244
0.0511225
0.0510972
0.0511905
0.0513334
0.0514902
0.0516257
0.0516738
0.0510538
0.048976
0.0442388
0.0408166
0.0443024
0.051428
0.0561081
0.0568635
0.0544959
0.0376826
0.0260186
0.0254292
0.0250073
0.0253957
0.0261597
0.0267344
0.0269626
0.0269895
0.0270666
0.0274852
0.0284992
0.0294259
0.0294872
0.0299831
0.0244365
0.0254332
0.0253204
0.0246824
0.0241957
0.0241598
0.0243016
0.0243419
0.0243267
0.0243913
0.0246403
0.0251758
0.026075
0.0273495
0.028283
0.0283036
0.0278139
0.0273159
0.0270255
0.0268858
0.026963
0.0271429
0.027372
0.0274861
0.0273054
0.026779
0.0259251
0.0251012
0.0246459
0.0240988
0.0270426
0.0279046
0.0284911
0.0283829
0.0280108
0.0278717
0.0283572
0.0293188
0.0299908
0.0304735
0.0313043
0.0316178
0.0313513
0.0306672
0.0299513
0.0293647
0.0289868
0.0287694
0.0287014
0.0287316
0.0288531
0.029069
0.0293249
0.0295585
0.0297553
0.0299202
0.0299833
0.0298131
0.0291646
0.0283403
0.0302298
0.0302755
0.0302261
0.0302426
0.0305529
0.0310067
0.031278
0.0313028
0.0312641
0.0312975
0.0313982
0.0315102
0.0314453
0.031032
0.0303854
0.0297431
0.0292251
0.0288677
0.028645
0.0285205
0.0285009
0.0285463
0.0286782
0.0289181
0.029227
0.0295508
0.0298743
0.0300529
0.0301751
0.0304775
0.0329552
0.0325153
0.0320998
0.0315977
0.0311162
0.030772
0.0306306
0.0304587
0.03039
0.0302256
0.0300867
0.0299224
0.0298098
0.0297574
0.0297266
0.0297053
0.0297343
0.029827
0.0301189
0.0304916
0.0309956
0.0315791
0.0315976
0.0311495
0.031417
0.0312079
0.0308133
0.0312735
0.0326317
0.0334651
0.0365274
0.036331
0.035142
0.0352251
0.0361485
0.0364135
0.0362234
0.0358786
0.03559
0.0353731
0.03528
0.0352655
0.0353107
0.0354255
0.0355494
0.0356812
0.0357902
0.0358684
0.0359022
0.0359181
0.0359153
0.0358984
0.0358443
0.0357018
0.0354961
0.0352863
0.0351417
0.0350537
0.0350716
0.0353922
0.0314713
0.032948
0.0320081
0.0346023
0.036055
0.0355245
0.0341769
0.0329001
0.0321439
0.0318622
0.0319443
0.032137
0.0323364
0.0324932
0.0325753
0.0325785
0.0326308
0.0325839
0.0325326
0.0323303
0.0319326
0.031458
0.0310968
0.0311853
0.031302
0.0302367
0.0281289
0.0277479
0.028796
0.0281247
0.037642
0.0368383
0.0364903
0.0365104
0.0366264
0.0367514
0.0368828
0.0370382
0.0372174
0.0373219
0.0374841
0.0374317
0.0374699
0.0374318
0.0373544
0.0372149
0.0370498
0.0369094
0.0367284
0.0364741
0.0362564
0.0361146
0.0354953
0.0342082
0.0337631
0.0336817
0.0341963
0.0349893
0.0356942
0.0361843
0.0333656
0.0332465
0.0329789
0.0325067
0.0319267
0.0313276
0.0307937
0.0304007
0.0300865
0.0299447
0.0298898
0.029967
0.0302427
0.0306408
0.0311277
0.0316102
0.0320622
0.0324546
0.0326897
0.0333379
0.0365515
0.0389756
0.0381258
0.0380958
0.0384975
0.0385129
0.0377457
0.0371103
0.0367375
0.0367875
0.0323639
0.0350667
0.0347451
0.0335646
0.0328431
0.0323623
0.031932
0.0314587
0.0309711
0.0305226
0.0301502
0.0298596
0.0296943
0.0296312
0.0296654
0.0298006
0.0300632
0.0305207
0.031191
0.0320851
0.0330591
0.0338718
0.0346819
0.0358861
0.0368402
0.0369518
0.0367417
0.0365599
0.0371186
0.0373706
0.0367904
0.0373364
0.0371429
0.0364057
0.0354644
0.0344692
0.0335725
0.0327146
0.0319783
0.0314548
0.0310167
0.0309474
0.0309007
0.0311945
0.0317197
0.032537
0.0335814
0.0347012
0.0356517
0.036285
0.0374135
0.0395757
0.040801
0.0409357
0.0401929
0.0389463
0.0381979
0.0381943
0.0385565
0.0395877
0.0378255
0.0373278
0.0363317
0.0357903
0.0361957
0.0372618
0.0379349
0.0380024
0.0377529
0.0374995
0.0373803
0.0373333
0.0372874
0.0372972
0.0374305
0.0377065
0.0379773
0.0379914
0.0375199
0.036523
0.0360016
0.0356326
0.0353311
0.0354401
0.0359366
0.0366386
0.0370248
0.0368052
0.0362741
0.0363758
0.038486
0.0391805
0.0361342
0.0329779
0.0359135
0.0487897
0.0536324
0.0527307
0.0517045
0.0512862
0.050801
0.0501307
0.0495774
0.0493702
0.049507
0.0498859
0.0503611
0.0507737
0.0510529
0.0513501
0.051735
0.0517331
0.0492523
0.0422548
0.0402947
0.04623
0.0519784
0.0531597
0.0473229
0.0317483
0.0252025
0.0243544
0.0248123
0.0262205
0.0275123
0.0280253
0.0279417
0.0275519
0.0272142
0.0272215
0.0279098
0.0291391
0.0295704
0.0300247
0.0244522
0.0255664
0.0253858
0.0245933
0.0240455
0.0239221
0.0238404
0.0236998
0.023609
0.0236526
0.0239551
0.0246347
0.0257513
0.0272773
0.0278544
0.0272593
0.0264107
0.0258947
0.0256722
0.0256515
0.0257094
0.0259335
0.0262233
0.0266099
0.0268592
0.0267421
0.0261268
0.0252839
0.0247514
0.0242136
0.0270695
0.0278633
0.0283697
0.0281358
0.0277536
0.0278551
0.0290925
0.0303906
0.0306887
0.030745
0.0314047
0.0314441
0.0307225
0.0296855
0.0288713
0.0283828
0.0281629
0.0280904
0.028064
0.0280734
0.0281355
0.0282659
0.0284804
0.0287476
0.0290484
0.0294329
0.0297882
0.0298432
0.0293418
0.0284159
0.0302366
0.0302629
0.0301952
0.030308
0.0308461
0.0314722
0.0317095
0.0315781
0.0313982
0.0313967
0.0315133
0.0316734
0.0316525
0.0310989
0.0302063
0.0294286
0.028892
0.0285619
0.0283538
0.0282365
0.0281986
0.0282002
0.0283372
0.0285795
0.028923
0.0293226
0.0297393
0.0300124
0.0301155
0.0303856
0.0324967
0.0322786
0.0318732
0.0313645
0.0309753
0.0307692
0.0307475
0.0306848
0.0304984
0.0302788
0.0300003
0.029845
0.0297464
0.0297458
0.0297509
0.0297287
0.0296997
0.0296649
0.0298213
0.030128
0.0306004
0.03131
0.0317035
0.0313604
0.0313637
0.0311756
0.0305916
0.0305663
0.0320119
0.0336933
0.0364907
0.0360544
0.0350845
0.0357141
0.0365031
0.0364702
0.0361633
0.0357631
0.0354591
0.0352732
0.0351941
0.0351984
0.0353067
0.0355127
0.0357718
0.0360082
0.0362001
0.0363357
0.0363742
0.0362814
0.0361589
0.0360635
0.035986
0.035877
0.0356568
0.0353989
0.0351905
0.0350803
0.0350696
0.0353804
0.0318953
0.0326871
0.0332125
0.0369176
0.0363939
0.0347198
0.0329209
0.0318591
0.0315778
0.0317835
0.0321869
0.0326581
0.0330782
0.0333653
0.0334754
0.0334061
0.0332034
0.0329662
0.0327778
0.0325381
0.0321684
0.0316506
0.0311287
0.0310165
0.0312957
0.0309876
0.0295381
0.0287847
0.0292732
0.0288401
0.0369238
0.0365217
0.0365016
0.0366226
0.0367852
0.0369509
0.0371777
0.0374094
0.0377143
0.0379054
0.0381018
0.0381585
0.0381123
0.0380134
0.0378539
0.0376608
0.0374178
0.0372079
0.036972
0.0366762
0.036397
0.0362247
0.0359176
0.0349061
0.0340521
0.0339577
0.0346346
0.0351676
0.0354651
0.0360712
0.0333499
0.0332154
0.0327564
0.0320166
0.031236
0.0304706
0.029895
0.0294039
0.0290675
0.0288549
0.0287718
0.0288565
0.0290769
0.029474
0.0300867
0.0307527
0.0314067
0.0320043
0.032414
0.0328574
0.0348735
0.0381265
0.0384743
0.0382248
0.0384941
0.038073
0.0372301
0.0367492
0.0364274
0.0365853
0.0324635
0.0352008
0.033975
0.0332092
0.0326129
0.0321255
0.0315807
0.0309427
0.0303014
0.0297685
0.02938
0.0291443
0.0290078
0.0289587
0.0289591
0.029091
0.029326
0.0297198
0.0303392
0.0312331
0.0323207
0.0333085
0.0340768
0.0350877
0.0362666
0.036733
0.0365354
0.0364684
0.037394
0.0377302
0.0372449
0.0373304
0.0367253
0.0356032
0.0344542
0.0333092
0.0322937
0.0312744
0.0303759
0.0296578
0.0292256
0.0289451
0.0290948
0.0294088
0.0300052
0.0309039
0.0321359
0.0335737
0.0349425
0.0358918
0.036797
0.0384666
0.040112
0.0405548
0.0397202
0.0384573
0.037961
0.038065
0.038465
0.0392158
0.0380508
0.0373318
0.036165
0.0359674
0.0368392
0.0377699
0.0380487
0.0378122
0.0375176
0.0374
0.0373991
0.037388
0.0373505
0.0372824
0.0372794
0.0375057
0.0378597
0.0378928
0.037198
0.0360002
0.035423
0.0346608
0.0338963
0.0338643
0.0346646
0.03592
0.0368603
0.0368837
0.036395
0.0364504
0.0381415
0.037323
0.0331287
0.03539
0.0445183
0.0531742
0.0536556
0.0521976
0.0511986
0.050341
0.0491576
0.04803
0.047322
0.0471468
0.0475172
0.0483826
0.0494613
0.0503892
0.0508306
0.0508802
0.0510505
0.0518321
0.0522845
0.0471054
0.039091
0.0410147
0.0447289
0.0454695
0.0387386
0.0271508
0.0243393
0.024043
0.0255947
0.0277328
0.0286923
0.0287101
0.0284
0.0277863
0.0272353
0.0270791
0.0276012
0.0288875
0.0296205
0.0301119
0.0245275
0.0256548
0.0254853
0.0245919
0.0239232
0.0236626
0.0234843
0.0233793
0.0233761
0.0235965
0.0241563
0.0248291
0.0258721
0.0272611
0.0272345
0.0261766
0.0254465
0.0252011
0.0252531
0.025352
0.0254864
0.0255693
0.0257255
0.0259756
0.026309
0.0264514
0.0261067
0.0253671
0.024805
0.024277
0.0270496
0.0278038
0.0282497
0.0279612
0.0276781
0.028218
0.030093
0.0313755
0.0312538
0.0308928
0.0313982
0.0311831
0.0300018
0.0288175
0.0281935
0.0279664
0.0279502
0.0279863
0.028005
0.0280052
0.0279944
0.0280029
0.0280632
0.0282056
0.02847
0.0289352
0.029524
0.0298085
0.0294273
0.0284618
0.0302384
0.0302518
0.0301831
0.0303651
0.0310788
0.0318351
0.032019
0.0316666
0.0313034
0.0312523
0.031427
0.0317247
0.0317947
0.031141
0.0300545
0.029224
0.028723
0.0284162
0.0282137
0.0280958
0.0280438
0.0280586
0.0281413
0.0283568
0.028717
0.0291611
0.0296401
0.0299848
0.0300903
0.0303275
0.0323806
0.0320693
0.0317148
0.0312852
0.0309867
0.0309122
0.0309673
0.0308416
0.0305252
0.030106
0.0298457
0.029688
0.0297037
0.0297379
0.0297833
0.0297812
0.0297466
0.029668
0.0296801
0.0298645
0.0303003
0.0310285
0.0316704
0.0315308
0.0313734
0.0312478
0.0307086
0.0303934
0.0313807
0.0335807
0.0364301
0.0358507
0.035198
0.0360888
0.03665
0.0365179
0.0361731
0.0357628
0.0354534
0.0352584
0.0351569
0.0351555
0.0353017
0.0355869
0.0359747
0.0363629
0.0366154
0.0367541
0.0367778
0.0366661
0.0364588
0.0362655
0.0361188
0.0359986
0.0357664
0.03549
0.0352339
0.0350848
0.0350563
0.0353725
0.0322003
0.032708
0.0359716
0.0374683
0.0361418
0.0341463
0.0323102
0.0315144
0.0315224
0.031963
0.0326168
0.0333159
0.0338745
0.0342098
0.0343518
0.0342554
0.0339984
0.0335643
0.0331973
0.0328048
0.0323878
0.0318018
0.0311757
0.0309179
0.0311735
0.0312529
0.030452
0.0298207
0.0298124
0.0297773
0.0366611
0.0365046
0.0365811
0.0367354
0.0368886
0.0371089
0.0374121
0.0377841
0.0381715
0.0384719
0.0387611
0.0388954
0.0388925
0.0387306
0.0384597
0.0381311
0.0378057
0.0375051
0.0371952
0.0368783
0.0365481
0.0363333
0.0361265
0.0354623
0.0347006
0.0347133
0.0352174
0.0353551
0.035284
0.0358157
0.0334364
0.0331517
0.0324691
0.0315477
0.0306931
0.0298698
0.029294
0.0287871
0.0284497
0.0282319
0.0280836
0.028076
0.0282531
0.028597
0.029211
0.0299295
0.0307777
0.0315527
0.0321548
0.0325738
0.0338508
0.0368399
0.0383903
0.0384221
0.0382877
0.0372962
0.036635
0.036346
0.0361916
0.0364043
0.032867
0.034982
0.0336851
0.0330571
0.0324423
0.0319293
0.0312434
0.0304897
0.0297667
0.0292649
0.0289075
0.0287677
0.0286894
0.0286504
0.0286575
0.0287167
0.0288784
0.0291775
0.0297366
0.0305796
0.0316934
0.0328124
0.0336568
0.0345081
0.0355859
0.0362073
0.0360253
0.0366843
0.0376832
0.0379416
0.0375065
0.0372502
0.0360982
0.034724
0.0335062
0.032306
0.0311602
0.0299335
0.0288788
0.0281834
0.0277145
0.0276444
0.0276643
0.0279795
0.0285578
0.0295055
0.0308351
0.032518
0.0341888
0.0354827
0.0363465
0.0375728
0.0391411
0.0399223
0.0392835
0.0382256
0.0378234
0.0379618
0.038428
0.0389459
0.038181
0.0371927
0.0360722
0.0362126
0.0372611
0.0379781
0.0379632
0.0375892
0.0373151
0.0372056
0.037173
0.0372623
0.0374164
0.0374037
0.0372556
0.0373485
0.0377658
0.0378446
0.0368968
0.0356379
0.0348413
0.0334453
0.0323262
0.0321898
0.0332304
0.0352775
0.0366401
0.0367793
0.0364175
0.0365469
0.0381249
0.0371573
0.03448
0.0405169
0.0503003
0.0542586
0.0532061
0.0516164
0.050357
0.0488292
0.0470108
0.0454317
0.0444273
0.0441365
0.0447987
0.0462359
0.0480653
0.0498096
0.0509081
0.051065
0.0507557
0.0509802
0.0525604
0.0520139
0.0408083
0.0372357
0.0394056
0.0378847
0.0318346
0.0239071
0.0238209
0.024165
0.0268777
0.0287565
0.0289858
0.0287903
0.028528
0.0279128
0.0271742
0.0269523
0.0274875
0.0288122
0.0296852
0.0301612
0.0244936
0.0258452
0.0257323
0.0247386
0.0239143
0.0235817
0.0234173
0.0233953
0.0237368
0.0244882
0.0251825
0.0255537
0.0261892
0.0271561
0.026578
0.0254014
0.0250262
0.0251345
0.0253522
0.0255673
0.0257253
0.0257959
0.0257715
0.025792
0.0259736
0.0261666
0.0259779
0.0253373
0.0248028
0.0242988
0.0270652
0.0276606
0.0281199
0.0279049
0.0276884
0.0285315
0.0309243
0.0320299
0.0316701
0.0310157
0.031353
0.0308737
0.0293458
0.028275
0.0279289
0.0279296
0.0280201
0.0280923
0.028131
0.0281291
0.0280785
0.0280053
0.027947
0.0279528
0.0281101
0.0285663
0.0292979
0.0297525
0.0294383
0.0284528
0.0302401
0.030255
0.0301444
0.0303212
0.031174
0.0320436
0.0321928
0.0316199
0.0310486
0.0309237
0.0311698
0.0316149
0.0318948
0.0312101
0.0299968
0.0291533
0.0286923
0.0283802
0.0281428
0.0280231
0.0279748
0.0279848
0.0280634
0.028247
0.0286109
0.0290897
0.0296123
0.0299847
0.0300625
0.0303352
0.0322241
0.0318984
0.0316971
0.0313229
0.0311027
0.0311455
0.0312057
0.0309335
0.0304584
0.0299157
0.029693
0.0296491
0.0297192
0.0297857
0.0298216
0.0298339
0.0297894
0.0296968
0.0296512
0.0297384
0.0301102
0.0308229
0.0316463
0.0316394
0.0314046
0.0312635
0.0308672
0.0303674
0.0309756
0.0332988
0.0363673
0.0357186
0.0353221
0.0362999
0.036733
0.0365891
0.0362437
0.0358592
0.03555
0.03532
0.0351616
0.0351307
0.0352675
0.0355871
0.0360325
0.0365179
0.0367828
0.0368926
0.0368903
0.0368137
0.0366288
0.036412
0.0362333
0.0360861
0.0358413
0.0355363
0.0352513
0.0350883
0.0350496
0.0353783
0.0323592
0.0336761
0.0374537
0.0376711
0.036259
0.0340308
0.0320449
0.031376
0.0315119
0.0320812
0.0328776
0.0337054
0.0343327
0.0346977
0.0348177
0.0347648
0.0344948
0.0340155
0.0335217
0.0330406
0.0325337
0.0318811
0.0311865
0.0308279
0.0310556
0.0313053
0.0309115
0.0304741
0.0305372
0.0311703
0.036602
0.0365461
0.0366643
0.0368129
0.0369796
0.0372684
0.037659
0.0381214
0.038565
0.0389803
0.0392755
0.0394913
0.0395225
0.0392946
0.0389631
0.0385337
0.0381161
0.0377525
0.0373827
0.0370309
0.036672
0.0364118
0.0362244
0.0358098
0.0353221
0.03548
0.0355595
0.0350433
0.034892
0.0355093
0.0334885
0.033062
0.032263
0.0312707
0.030396
0.0295769
0.02903
0.0284613
0.0281684
0.0278815
0.027719
0.0276855
0.0277948
0.0280502
0.0286082
0.0293318
0.030273
0.031154
0.0319153
0.032377
0.0332438
0.0356703
0.0378011
0.0382165
0.0373821
0.0365157
0.0361776
0.0360943
0.0360765
0.0362526
0.0333384
0.0347066
0.0336153
0.0329393
0.0323666
0.0317953
0.0310277
0.0302067
0.0294714
0.0289861
0.0287184
0.028638
0.0285858
0.0285772
0.0285748
0.0285832
0.0286526
0.0288838
0.0293329
0.0301433
0.031268
0.0324434
0.0333675
0.0341849
0.035076
0.0356648
0.0358181
0.0374353
0.0379173
0.0380302
0.0375865
0.0368402
0.0353463
0.0339912
0.0328302
0.031537
0.0302657
0.0287775
0.0278422
0.0271114
0.0266736
0.0264566
0.0266001
0.0269464
0.0275312
0.0284629
0.0298624
0.0316319
0.0335541
0.0350897
0.0360419
0.0369135
0.0383088
0.039337
0.0390628
0.0381672
0.037746
0.0378783
0.0383689
0.03869
0.0381987
0.0370435
0.0360355
0.0364045
0.0374907
0.0380748
0.037846
0.0373844
0.037031
0.0367243
0.0366255
0.03687
0.0373495
0.0375308
0.0372915
0.0372222
0.0376971
0.0377967
0.0366255
0.035417
0.0344684
0.0328127
0.0319051
0.0319237
0.0334939
0.0353348
0.0364138
0.0365511
0.0364424
0.0366713
0.038338
0.0386838
0.0378012
0.0456311
0.0529812
0.0543623
0.0527207
0.0510364
0.0493156
0.0472113
0.0447744
0.042726
0.041365
0.0411549
0.0422765
0.0442958
0.0467197
0.0491091
0.0508258
0.051312
0.0508505
0.0507086
0.051805
0.053638
0.0453512
0.0341109
0.0362991
0.0329205
0.0266966
0.02135
0.0236405
0.0247435
0.0279748
0.0289912
0.0287043
0.0284356
0.0284876
0.0281121
0.0272287
0.0269259
0.0275237
0.0288916
0.0297932
0.0302737
0.0245043
0.0258593
0.0260751
0.0252451
0.0243127
0.0238468
0.0237561
0.0241082
0.024996
0.0260086
0.0265154
0.0264025
0.0265318
0.0270092
0.0259834
0.0249613
0.0249557
0.0252441
0.0255645
0.0258786
0.0260679
0.0261516
0.0261038
0.0259515
0.0259052
0.0259938
0.0258095
0.02523
0.0247621
0.024298
0.0270641
0.0275074
0.0280198
0.0278862
0.0277837
0.0289702
0.0314599
0.0323541
0.0319621
0.0311311
0.0312873
0.030597
0.0289015
0.0280346
0.0278948
0.0280021
0.0281136
0.0281779
0.0282251
0.0282477
0.0281944
0.0280813
0.0279579
0.0278767
0.0279435
0.0283692
0.0291637
0.0297057
0.0294005
0.0284205
0.0302405
0.0302498
0.0301732
0.030237
0.0309593
0.0319954
0.0322973
0.0316231
0.0308392
0.0305826
0.0308286
0.0314073
0.0319444
0.0313615
0.030083
0.0292114
0.0287624
0.0284142
0.0281556
0.0280197
0.0279734
0.0279875
0.0280616
0.0282598
0.0286263
0.0291214
0.029652
0.0299978
0.0300423
0.0302241
0.0319711
0.0318343
0.0317556
0.0314464
0.0312558
0.0313648
0.0313899
0.0310594
0.0304255
0.029891
0.0296293
0.0296388
0.0297375
0.0298298
0.0298633
0.0298602
0.0298182
0.0297099
0.029628
0.0296695
0.0299811
0.0307537
0.0316468
0.0317569
0.0314746
0.0312774
0.0308596
0.0303483
0.0307625
0.0326162
0.0362606
0.0355734
0.03547
0.0364527
0.0367729
0.0366386
0.0363428
0.0360226
0.0357334
0.0354664
0.0352265
0.0351252
0.0352091
0.0354972
0.0359405
0.0364809
0.0367457
0.0368594
0.0368566
0.0367908
0.036658
0.0364696
0.036295
0.0361165
0.0358586
0.035538
0.0352551
0.0350773
0.0350336
0.0354177
0.0325716
0.0350819
0.0381234
0.0381312
0.0367484
0.0342374
0.0320486
0.0313304
0.0314538
0.0320397
0.0328825
0.0337577
0.0344313
0.0348232
0.0349462
0.0348782
0.0346793
0.0341935
0.0337466
0.0331222
0.0325857
0.0318108
0.0310998
0.030766
0.0309876
0.0313356
0.0311147
0.030816
0.0320194
0.0334608
0.0366654
0.0366688
0.0366895
0.036826
0.0370026
0.0373353
0.0377512
0.0382496
0.0387187
0.0391084
0.039434
0.0396907
0.0398706
0.039661
0.0392201
0.0387258
0.0382804
0.0378815
0.0375032
0.0371295
0.0367549
0.0364624
0.0362875
0.0360018
0.0358193
0.0358822
0.0350908
0.0343888
0.0343997
0.0347589
0.0334951
0.0330558
0.0322412
0.031236
0.0303343
0.0295556
0.0289873
0.0284128
0.028041
0.0276939
0.0275707
0.0275163
0.0275892
0.0277798
0.0283053
0.0289926
0.0300027
0.0309171
0.031752
0.0322451
0.032918
0.034787
0.0369543
0.0373547
0.0364127
0.0361021
0.0360303
0.0359539
0.0358907
0.0359735
0.03394
0.0344703
0.0335866
0.0329479
0.03239
0.0317924
0.0309972
0.0301326
0.0293723
0.0288914
0.0286564
0.0285857
0.028563
0.0285644
0.0285655
0.0285585
0.0285855
0.0287765
0.0291737
0.0299588
0.0310621
0.0322362
0.0332142
0.0339978
0.0347212
0.0354282
0.036791
0.0381169
0.0380047
0.0379534
0.0375093
0.0362411
0.0347592
0.0335963
0.032469
0.0310397
0.0296435
0.0281003
0.0273218
0.026458
0.0261099
0.0260024
0.0260124
0.0263097
0.0269033
0.0278357
0.0292276
0.0310854
0.0330986
0.0347855
0.0357923
0.0365039
0.0377306
0.0390036
0.0390751
0.038237
0.0376609
0.0377576
0.0382372
0.0385523
0.0382127
0.0369442
0.0359858
0.0365047
0.037587
0.0381121
0.0377792
0.0372522
0.0368067
0.0364553
0.0363142
0.0365078
0.0372527
0.0376518
0.0373482
0.0371039
0.0376386