/*--------------------------------*- C++ -*----------------------------------*\
| =========                 |                                                 |
| \\      /  F ield         | OpenFOAM: The Open Source CFD Toolbox           |
|  \\    /   O peration     | Version:  2.1.1                                 |
|   \\  /    A nd           | Web:      www.OpenFOAM.org                      |
|    \\/     M anipulation  |                                                 |
\*---------------------------------------------------------------------------*/
FoamFile
{
    version     2.0;
    format      ascii;
    class       volScalarField;
    location    "0.006450000";
    object      G;
}
// * * * * * * * * * * * * * * * * * * * * * * * * * * * * * * * * * * * * * //

dimensions      [0 0 0 0 0 0 0];

internalField   nonuniform List<scalar> 
12384
(
1
1
1
1
1
1
1
1
1
1
1
1
1
1
1
1
1
1
1
1
1
1
1
1
1
1
1
1
1
1
0.999998
0.999996
0.999989
0.999989
0.999989
0.999995
0.999997
0.999999
1
1
1
1
1
1
1
1
1
1
1
1
1
1
1
1
1
1
0.999998
0.999992
0.999974
0.999931
0.999842
0.999772
0.999677
0.999742
0.999769
0.999826
0.999863
0.999908
0.999953
0.999984
0.999999
1
1
1
1
1
1
1
1
1
0.999999
0.999997
0.999993
0.999982
0.999935
0.999804
0.999445
0.998511
0.996362
0.992334
0.986422
0.982198
0.981775
0.989011
0.99198
0.99609
0.998017
0.999335
0.999872
0.999996
1
1
1
1
1
1
0.99999
0.999861
0.999255
0.997336
0.993487
0.983793
0.976348
0.953567
0.956715
0.937722
0.965029
0.968716
0.980343
0.99197
0.994848
0.998538
0.999526
0.999927
0.999981
0.999992
1
1
1
1
1
1
1
1
1
1
1
1
1
1
1
1
1
1
1
0.999997
0.999984
0.999936
0.999773
0.999696
0.999357
0.999651
0.999543
0.999748
0.999714
0.999782
0.999801
0.999873
0.999937
0.999988
0.999999
1
1
1
1
1
1
1
1
0.999995
0.999922
0.999391
0.997095
0.990886
0.978772
0.961328
0.946505
0.936281
0.935869
0.960951
0.949552
0.976583
0.975168
0.99017
0.992959
0.997873
0.999448
0.999949
0.999976
0.999997
0.999999
1
1
0.999999
1
1
1
1
0.999996
0.999944
0.999376
0.998356
0.991954
0.990504
0.975727
0.980316
0.974036
0.981943
0.984878
0.99058
0.994668
0.997022
0.998909
0.999573
0.999905
0.999985
0.999999
1
1
1
1
1
1
1
1
1
0.999998
0.999925
0.999377
0.996821
0.992788
0.979439
0.975563
0.961858
0.969342
0.971514
0.9742
0.98598
0.989761
0.995098
0.997297
0.999063
0.999853
0.999985
0.999999
1
1
1
1
1
1
1
1
1
1
1
1
1
0.999996
0.999886
0.998771
0.993287
0.978017
0.951465
0.907509
0.872219
0.863462
0.890772
0.91267
0.928008
0.970642
0.983142
0.99171
0.997964
0.999381
0.999944
1
1
1
1
1
1
1
1
1
1
1
0.999999
0.999963
0.999419
0.996158
0.986021
0.970169
0.936091
0.933552
0.921067
0.943584
0.945331
0.973043
0.981249
0.990988
0.994887
0.998008
0.999363
0.99993
0.999999
1
1
1
1
1
1
1
1
1
1
1
0.999997
0.999997
0.999974
0.999946
0.999928
0.999904
0.999843
0.999598
0.998749
0.99706
0.996584
0.997292
0.9983
0.999064
0.999484
0.999575
0.99936
0.998782
0.997626
0.996186
0.994976
0.99454
0.995577
0.997062
0.998745
0.99981
0.999999
1
1
1
1
1
0.999999
0.997642
0.999983
0.999991
0.999949
0.999862
0.999739
0.9996
0.999395
0.998958
0.998662
0.999026
0.999471
0.999814
0.999958
0.999995
1
1
1
1
1
1
1
1
1
1
1
1
1
1
1
1
1
1
1
1
1
1
1
1
1
1
1
1
1
1
1
1
1
1
1
1
0.999999
0.999974
0.999733
0.998074
0.992726
0.98039
0.963573
0.945275
0.936381
0.940994
0.955088
0.974371
0.989677
0.997957
0.999888
0.999999
1
1
1
1
1
0.999998
0.999998
0.999999
0.999999
0.999999
0.999997
0.999979
0.999836
0.998933
0.994863
0.981463
0.951006
0.904217
0.847857
0.792839
0.747933
0.733923
0.733816
0.757186
0.796367
0.85139
0.916924
0.973865
0.998311
0.999995
1
1
0.999987
0.999938
0.999839
0.999715
0.999608
0.999665
0.999672
0.999616
0.999365
0.997799
0.990387
0.962217
0.885155
0.7372
0.549337
0.374409
0.250055
0.17936
0.149012
0.149027
0.192644
0.261748
0.391353
0.585247
0.830193
0.979154
0.999891
1
1
1
0.999997
0.999495
0.989226
0.940538
0.827662
0.681161
0.474512
0.364667
0.208088
0.165107
0.100253
0.0913924
0.0767175
0.0863283
0.11929
0.169114
0.271776
0.420848
0.677651
0.883517
0.987854
0.9999
0.999997
0.999997
0.999997
0.999999
1
1
1
1
1
1
1
1
1
1
1
0.999986
0.999761
0.997983
0.989093
0.962809
0.918715
0.819935
0.752301
0.651888
0.604524
0.54215
0.549058
0.573881
0.602349
0.678087
0.765243
0.882651
0.967768
0.997985
0.999986
1
1
1
1
1
1
0.999759
0.993049
0.955743
0.852118
0.671275
0.460255
0.282599
0.164135
0.096548
0.0622855
0.0516002
0.0439331
0.0440255
0.0730122
0.0899722
0.153038
0.249632
0.448058
0.730339
0.954559
0.995349
0.999786
0.999998
1
0.999997
0.999991
1
1
0.999999
0.999479
0.987235
0.926922
0.78251
0.60594
0.403057
0.29426
0.178926
0.148022
0.11761
0.123629
0.154137
0.199146
0.301019
0.417876
0.638981
0.828788
0.961886
0.99638
0.999896
0.999996
0.999998
0.999998
0.999999
1
1
1
1
0.999945
0.991446
0.919083
0.746341
0.512146
0.336816
0.180401
0.123305
0.078394
0.0592608
0.0589744
0.0787131
0.106575
0.176056
0.292642
0.468808
0.727228
0.931741
0.995393
0.999903
0.999998
0.999999
0.999998
0.999999
1
1
1
1
1
1
1
1
0.999999
0.998492
0.958233
0.784164
0.497628
0.256647
0.115252
0.0446672
0.0201561
0.0126605
0.00779258
0.010638
0.0252277
0.064422
0.12468
0.312041
0.630784
0.861143
0.976042
0.999091
0.999995
1
1
1
1
1
1
1
1
1
0.999666
0.973689
0.815646
0.556152
0.28754
0.154652
0.0674735
0.0396178
0.0314554
0.0273491
0.0460455
0.0792937
0.15784
0.340195
0.603576
0.873172
0.977476
0.996972
0.999532
0.999845
0.999902
0.999954
0.999984
0.999995
0.999999
1
1
1
1
0.999998
0.999093
0.955021
0.764825
0.619244
0.546362
0.49817
0.48553
0.480881
0.498236
0.567682
0.655859
0.765552
0.868315
0.940612
0.978204
0.992213
0.993188
0.985229
0.954664
0.896525
0.833028
0.799253
0.817526
0.854652
0.916214
0.975357
0.999839
1
1
1
1
0.999998
0.987956
0.980928
0.986431
0.928462
0.811201
0.716205
0.666785
0.648331
0.660989
0.70231
0.763038
0.834978
0.904213
0.954845
0.983616
0.996398
0.999616
0.999996
1
1
1
1
1
1
1
1
1
1
1
1
1
1
1
1
1
1
1
1
1
1
1
1
1
1
1
1
1
1
1
1
1
0.999997
0.999976
0.999818
0.999247
0.997113
0.9938
0.985892
0.977754
0.965089
0.959159
0.954213
0.959334
0.969573
0.982546
0.993281
0.998862
0.999948
1
1
1
1
1
1
1
1
0.999999
0.999992
0.999913
0.999483
0.99821
0.99499
0.988803
0.975713
0.957292
0.927151
0.891239
0.85352
0.831251
0.806716
0.805546
0.815722
0.83008
0.847866
0.878725
0.929586
0.982815
0.99952
1
1
0.999922
0.999897
0.999824
0.999695
0.999492
0.999132
0.99847
0.996859
0.993363
0.984589
0.961997
0.914827
0.829166
0.705071
0.558104
0.407972
0.300552
0.226011
0.191959
0.182383
0.203853
0.244086
0.328255
0.447659
0.64381
0.87727
0.991188
0.999994
1
1
0.999878
0.992915
0.940007
0.828997
0.684511
0.580322
0.449202
0.385751
0.26673
0.254703
0.168694
0.169935
0.136902
0.141494
0.165103
0.179516
0.240165
0.291201
0.424548
0.663827
0.890987
0.989368
0.999917
0.999998
1
1
0.999999
0.999999
1
1
1
1
1
1
1
1
0.999992
0.999884
0.999171
0.995946
0.987061
0.969109
0.937167
0.882559
0.853831
0.766726
0.735619
0.689226
0.690026
0.674574
0.696872
0.700448
0.736593
0.786924
0.890358
0.973919
0.998869
0.999997
1
1
1
1
0.999936
0.998416
0.989358
0.942962
0.8169
0.622911
0.428033
0.277422
0.177478
0.121454
0.0903772
0.069036
0.0689905
0.0742694
0.10713
0.122794
0.166186
0.205082
0.317544
0.481657
0.77949
0.958191
0.993419
0.999814
1
0.999999
0.999988
1
1
0.999783
0.989556
0.935354
0.833514
0.683248
0.537853
0.402088
0.292938
0.205886
0.17508
0.133453
0.142085
0.152441
0.17772
0.25268
0.31337
0.441216
0.620143
0.822229
0.957297
0.995702
0.999852
0.999999
1
1
1
1
1
1
0.991069
0.893074
0.710009
0.533026
0.359163
0.24968
0.149019
0.109682
0.0658518
0.0603311
0.0551879
0.0607349
0.0752454
0.121828
0.171454
0.288197
0.453955
0.721086
0.938114
0.994758
0.99994
0.999999
1
1
1
1
1
1
1
1
1
1
0.999714
0.966647
0.756954
0.476765
0.261797
0.123093
0.0520683
0.0282363
0.0138748
0.00662851
0.00560457
0.00629157
0.0121677
0.0184487
0.0495504
0.139336
0.291581
0.576833
0.853859
0.975181
0.999287
0.999999
1
1
1
1
1
1
1
0.999964
0.981547
0.806518
0.502824
0.29
0.126665
0.0675306
0.0270011
0.0213496
0.0129287
0.0159435
0.0197946
0.0335284
0.0658854
0.133827
0.301985
0.589915
0.858639
0.971821
0.997394
0.999818
0.999977
0.999991
0.99998
0.999941
0.999946
0.999997
1
1
1
0.999657
0.96808
0.794099
0.650868
0.605748
0.592379
0.567029
0.541545
0.544242
0.563761
0.583997
0.622493
0.673608
0.744393
0.823542
0.892546
0.936976
0.947125
0.931917
0.908715
0.886941
0.872459
0.867952
0.88243
0.89768
0.916218
0.945857
0.999292
1
1
1
1
0.994269
0.938481
0.969456
0.90254
0.771448
0.691357
0.661753
0.654959
0.66019
0.681057
0.714923
0.763622
0.817194
0.869698
0.919436
0.961881
0.987133
0.997303
0.999803
1
1
1
1
1
1
1
1
1
1
1
1
1
1
1
1
1
1
1
1
1
1
1
1
1
1
1
1
1
1
0.999999
0.999997
0.999987
0.999921
0.999576
0.998659
0.997482
0.997058
0.996797
0.996428
0.995196
0.993828
0.990207
0.987119
0.982396
0.981777
0.983413
0.989887
0.996573
0.999592
1
1
1
1
1
1
1
1
0.999998
0.999943
0.999245
0.996793
0.991746
0.985197
0.977214
0.969924
0.958867
0.944
0.925254
0.909364
0.886835
0.883072
0.881215
0.883144
0.887527
0.88703
0.884535
0.901421
0.952464
0.994602
0.999999
1
0.999468
0.999781
0.99982
0.999753
0.999562
0.998814
0.996453
0.990526
0.978019
0.95352
0.910638
0.842951
0.752579
0.653463
0.554743
0.472387
0.401079
0.350217
0.31155
0.29038
0.292715
0.309113
0.352273
0.413133
0.54207
0.760785
0.95544
0.999528
1
0.999999
0.998684
0.970197
0.858957
0.720534
0.617084
0.55918
0.504205
0.512635
0.445702
0.450263
0.384889
0.388836
0.360954
0.351501
0.327849
0.305735
0.305973
0.289211
0.360955
0.516117
0.723505
0.931511
0.995987
0.999961
1
1
0.999998
0.999998
1
1
1
1
1
1
1
0.999996
0.999925
0.999355
0.996542
0.989522
0.980288
0.963528
0.952421
0.939355
0.921547
0.88794
0.879518
0.85122
0.821176
0.821051
0.801553
0.800951
0.772636
0.785692
0.827761
0.924429
0.989783
0.999855
1
1
1
0.999997
0.999836
0.99799
0.972632
0.854471
0.641949
0.451689
0.334682
0.266987
0.225344
0.199842
0.177224
0.168854
0.141055
0.154569
0.158385
0.190938
0.239304
0.245629
0.282963
0.386005
0.580614
0.855469
0.969208
0.996547
0.999983
0.999999
0.999991
1
0.999991
0.996068
0.955684
0.867604
0.747426
0.68795
0.534866
0.508988
0.369361
0.350603
0.259458
0.244185
0.217399
0.225805
0.238031
0.271906
0.318077
0.386684
0.48694
0.663114
0.851754
0.966342
0.996185
0.999938
1
1
1
0.999999
1
0.999992
0.915687
0.716752
0.548622
0.418569
0.310261
0.250221
0.17548
0.122865
0.101911
0.0732493
0.0674639
0.0757763
0.0886427
0.118455
0.146022
0.225342
0.311972
0.517733
0.775573
0.957289
0.99693
0.999977
1
1
1
1
1
1
1
1
1
0.999999
0.994162
0.854569
0.541992
0.263163
0.1468
0.0838967
0.0485393
0.0272065
0.0194507
0.0123231
0.0104843
0.0122785
0.0102178
0.0167038
0.0438002
0.0691478
0.138296
0.359961
0.642073
0.874669
0.986072
0.999826
1
1
1
1
1
1
1
0.997396
0.874007
0.541831
0.272376
0.140359
0.0630301
0.0352763
0.0219557
0.0105216
0.00989894
0.00731616
0.0132534
0.0200606
0.0362956
0.0695038
0.14949
0.330256
0.624213
0.866207
0.978012
0.998793
0.999953
0.999991
0.999945
0.999382
0.999088
0.999955
1
0.999999
0.999976
0.990808
0.869223
0.704341
0.657549
0.66086
0.660623
0.660379
0.663963
0.680351
0.685467
0.682243
0.656344
0.624891
0.617914
0.659569
0.726305
0.786311
0.789375
0.799221
0.833784
0.868963
0.913589
0.936384
0.944753
0.940252
0.920804
0.906094
0.998433
1
1
1
0.998384
0.933762
0.958501
0.906709
0.788447
0.698321
0.682071
0.688698
0.710325
0.737344
0.768897
0.79065
0.813503
0.831808
0.851422
0.881357
0.920721
0.964309
0.992857
0.999298
0.999989
1
1
1
1
1
1
1
1
1
1
1
1
1
1
1
1
1
1
1
1
1
1
1
1
1
1
1
1
0.999999
0.999996
0.99998
0.999898
0.999317
0.997447
0.995074
0.99634
0.997937
0.999256
0.999568
0.999758
0.999704
0.999583
0.998955
0.997483
0.993601
0.989107
0.988279
0.993063
0.998294
1
1
0.999999
1
1
1
1
1
0.999996
0.999779
0.997469
0.990324
0.98036
0.96939
0.965626
0.963607
0.961747
0.958456
0.95823
0.948102
0.947012
0.935916
0.930187
0.92971
0.928421
0.920442
0.903212
0.88545
0.913094
0.976211
0.999996
1
0.997213
0.999481
0.999813
0.999857
0.99971
0.998957
0.995222
0.982366
0.958489
0.914546
0.846259
0.762978
0.663229
0.576079
0.546131
0.545156
0.563984
0.60085
0.589675
0.540802
0.490325
0.443247
0.432844
0.424203
0.49505
0.666532
0.903241
0.996206
1
0.999977
0.993911
0.935682
0.789446
0.659752
0.598117
0.605807
0.63711
0.67696
0.696618
0.719755
0.710478
0.711335
0.674601
0.653799
0.616405
0.529118
0.438468
0.37064
0.379723
0.410575
0.617264
0.851335
0.963846
0.998521
0.999999
1
0.999998
0.999996
1
1
1
1
1
1
1
0.999976
0.999577
0.996978
0.988558
0.97606
0.962582
0.956377
0.969784
0.971518
0.975847
0.98006
0.976972
0.961146
0.950592
0.926144
0.91368
0.880267
0.856364
0.814854
0.814028
0.879413
0.967574
0.998558
0.999999
1
1
0.999971
0.99984
0.99269
0.906317
0.657402
0.437725
0.335623
0.322519
0.366539
0.418677
0.467698
0.474054
0.44124
0.414878
0.366159
0.360067
0.325625
0.345336
0.344956
0.319277
0.336394
0.477692
0.713405
0.926167
0.989856
0.999846
0.999998
0.999995
1
0.999792
0.981811
0.902256
0.816288
0.713287
0.697179
0.620943
0.649746
0.535178
0.568026
0.460564
0.430076
0.393806
0.380532
0.356526
0.355065
0.360854
0.394862
0.427179
0.548691
0.725238
0.900955
0.981029
0.99911
0.999996
1
0.999999
0.999999
1
0.999913
0.786537
0.582366
0.446582
0.360705
0.31317
0.292163
0.217418
0.223289
0.181644
0.165864
0.146505
0.129491
0.121594
0.155456
0.162578
0.212851
0.249444
0.37931
0.593884
0.86648
0.978471
0.999272
0.999998
1
1
1
1
1
1
1
1
0.999947
0.972916
0.695993
0.339227
0.179625
0.0919011
0.0633555
0.0737896
0.0482091
0.0533242
0.0452605
0.036175
0.0287646
0.0289194
0.0392359
0.0371421
0.0479926
0.107706
0.225603
0.438307
0.744557
0.939587
0.996103
0.999982
1
0.999999
0.999999
1
1
0.999986
0.973026
0.67289
0.315345
0.150666
0.0777534
0.0420925
0.0328029
0.0165427
0.0175832
0.0121367
0.0167357
0.0137155
0.0183902
0.0258884
0.044756
0.0810888
0.180166
0.393142
0.688951
0.906706
0.991372
0.999692
0.999962
0.999646
0.995669
0.993248
0.99963
1
0.999997
0.999265
0.953511
0.774887
0.686809
0.694825
0.726156
0.750762
0.790235
0.830269
0.861023
0.85968
0.819196
0.731279
0.623672
0.540489
0.517328
0.566098
0.593871
0.605391
0.671155
0.76572
0.866727
0.957186
0.986687
0.985354
0.963387
0.911152
0.858333
0.997805
1
1
0.999735
0.967388
0.935229
0.925794
0.830234
0.727923
0.695701
0.728423
0.766297
0.818247
0.85695
0.880093
0.89696
0.897161
0.888952
0.876779
0.86758
0.875989
0.928634
0.97907
0.998499
0.999983
1
1
1
1
1
1
1
1
1
1
1
1
1
1
1
1
1
1
1
1
1
1
1
1
1
1
1
1
0.999999
0.999995
0.999984
0.999857
0.998368
0.99292
0.991383
0.995886
0.999013
0.999804
0.99997
0.999995
0.999998
0.999998
0.999988
0.999868
0.998909
0.994599
0.989025
0.989519
0.995669
1
1
0.999997
1
1
1
1
1
0.999991
0.99955
0.994604
0.98218
0.963777
0.952535
0.952871
0.95672
0.963256
0.974416
0.976715
0.981369
0.978754
0.977096
0.974816
0.966095
0.956755
0.943342
0.91851
0.879915
0.872822
0.939061
0.999989
1
0.98968
0.998452
0.999764
0.999915
0.999876
0.999303
0.995099
0.977983
0.937547
0.88135
0.793385
0.692832
0.578567
0.513633
0.518548
0.591149
0.764018
0.877498
0.886511
0.839064
0.746294
0.608427
0.532184
0.454871
0.468779
0.608959
0.848804
0.989429
1
0.999821
0.985832
0.897969
0.751729
0.633674
0.616274
0.64352
0.767355
0.796044
0.894895
0.933577
0.943724
0.953139
0.940506
0.91275
0.860869
0.751539
0.638114
0.508472
0.388687
0.407931
0.580849
0.751635
0.915412
0.991004
0.999925
1
0.999998
0.999996
1
1
1
1
1
1
0.999998
0.9999
0.998656
0.990989
0.973117
0.945835
0.934252
0.94963
0.969785
0.986106
0.99662
0.999068
0.999079
0.998676
0.995717
0.987554
0.967548
0.947584
0.908258
0.860451
0.827998
0.851134
0.941197
0.993904
0.999998
1
1
0.999988
0.999358
0.976026
0.794647
0.466926
0.298659
0.275358
0.346141
0.486262
0.649875
0.751546
0.811377
0.828098
0.810346
0.720837
0.669478
0.557326
0.503658
0.449663
0.398603
0.336604
0.4011
0.641985
0.870049
0.982201
0.999529
0.999994
0.999998
1
0.998507
0.960143
0.845308
0.756428
0.689866
0.717666
0.686506
0.768893
0.742841
0.796071
0.74813
0.757516
0.67933
0.604073
0.560782
0.497219
0.426139
0.449784
0.413192
0.482728
0.629987
0.826444
0.958868
0.997348
0.999967
0.999997
0.999998
1
1
0.99952
0.680597
0.492741
0.380035
0.338662
0.321634
0.333574
0.355123
0.425948
0.378511
0.374529
0.326013
0.300297
0.236134
0.235648
0.198494
0.235223
0.224504
0.315533
0.460187
0.749453
0.943509
0.99568
0.999967
1
1
1
1
1
1
1
1
0.999545
0.931121
0.543173
0.228641
0.117783
0.082907
0.0669836
0.0945102
0.0950309
0.16476
0.15883
0.166581
0.14087
0.122679
0.0708473
0.0474781
0.0692832
0.0909087
0.139099
0.335354
0.625333
0.86988
0.985467
0.999809
0.999998
0.999997
0.999999
1
1
0.999746
0.898223
0.457595
0.185136
0.0950551
0.0539338
0.040325
0.0393132
0.0469429
0.0535914
0.0538053
0.0275221
0.0266028
0.0238832
0.0211666
0.0343027
0.0565237
0.100332
0.246866
0.503012
0.808049
0.968379
0.99875
0.999853
0.998618
0.984762
0.977595
0.998137
1
0.999991
0.993651
0.887888
0.725043
0.701745
0.741732
0.794459
0.842962
0.904902
0.946667
0.966053
0.965683
0.936719
0.83939
0.655876
0.490114
0.434527
0.448643
0.462994
0.498931
0.588619
0.727398
0.873616
0.982197
0.999101
0.995276
0.961466
0.881439
0.818733
0.99775
1
0.999993
0.994147
0.947223
0.944388
0.878643
0.777363
0.722495
0.735988
0.80851
0.870984
0.925978
0.952979
0.969805
0.972914
0.962747
0.935423
0.901683
0.863184
0.860845
0.884224
0.955442
0.996244
0.999976
1
1
1
1
1
1
1
1
1
1
1
1
1
1
1
1
1
1
1
1
1
1
1
1
1
1
1
1
1
1
0.999998
0.999947
0.997714
0.988888
0.989123
0.996612
0.999315
0.999945
0.999998
1
1
1
1
0.999997
0.999806
0.997318
0.989477
0.985744
0.992152
1
1
0.999986
1
1
1
1
1
0.99999
0.999355
0.992702
0.973683
0.953265
0.939907
0.939828
0.947814
0.96772
0.979503
0.990041
0.994882
0.997303
0.996954
0.993541
0.988278
0.977857
0.958002
0.920353
0.862578
0.832076
0.890333
0.999984
0.999999
0.978348
0.996777
0.999718
0.999966
0.999969
0.99974
0.996188
0.976946
0.928169
0.85565
0.76897
0.660911
0.537314
0.468504
0.467289
0.628817
0.870482
0.981197
0.996683
0.984124
0.915039
0.758209
0.605338
0.483181
0.456655
0.577965
0.812216
0.981424
1
0.999541
0.97829
0.877602
0.719394
0.620463
0.633407
0.674203
0.811269
0.88343
0.971736
0.992843
0.998871
0.999104
0.997754
0.991815
0.963155
0.902881
0.795715
0.585705
0.460534
0.466652
0.523019
0.711287
0.889238
0.970765
0.99917
0.999995
0.999995
0.999996
1
1
1
1
1
1
0.999994
0.999794
0.997032
0.983513
0.945212
0.904845
0.903107
0.919498
0.955734
0.990958
0.999133
0.999975
0.999999
0.999999
0.999926
0.998696
0.992791
0.9774
0.946057
0.897648
0.839757
0.83752
0.913974
0.985358
0.999998
1
0.999997
0.999981
0.998056
0.949659
0.690065
0.34338
0.209917
0.211248
0.33083
0.536462
0.780301
0.914989
0.97824
0.993125
0.990114
0.967961
0.904442
0.785016
0.697055
0.556758
0.441557
0.390204
0.37507
0.571471
0.855974
0.980674
0.999597
0.999996
1
1
0.994087
0.927465
0.794737
0.701738
0.653299
0.694163
0.725252
0.820575
0.8555
0.945457
0.966583
0.981248
0.958858
0.872504
0.741726
0.669864
0.519733
0.465763
0.450954
0.436859
0.574608
0.777678
0.942104
0.996774
0.999952
0.999997
0.999998
1
1
0.998071
0.614452
0.431333
0.338518
0.317309
0.31816
0.405754
0.50252
0.655924
0.749653
0.834743
0.768623
0.648926
0.44917
0.390833
0.264881
0.277744
0.224792
0.280105
0.399424
0.649339
0.910508
0.991017
0.999864
0.999999
1
1
1
1
1
1
1
0.997627
0.863257
0.437738
0.167809
0.0918621
0.0645238
0.0790705
0.100906
0.165781
0.342642
0.51973
0.641985
0.505812
0.309085
0.157894
0.111962
0.0809372
0.0662367
0.131921
0.284632
0.524219
0.814245
0.974517
0.999421
0.999991
0.999997
0.999998
1
0.999999
0.997228
0.76383
0.298118
0.120636
0.0632257
0.046701
0.0424902
0.0720626
0.0886526
0.153691
0.191528
0.220904
0.100658
0.0806838
0.026493
0.0294297
0.0391651
0.0720006
0.154646
0.388231
0.684407
0.931163
0.996177
0.999623
0.996003
0.959827
0.934992
0.987808
0.999989
0.999977
0.974511
0.815583
0.70257
0.728087
0.784049
0.852421
0.914769
0.969039
0.991588
0.997724
0.997288
0.985032
0.917925
0.708716
0.478304
0.388458
0.422555
0.40237
0.456765
0.566141
0.7051
0.867752
0.982663
0.996785
0.980214
0.919431
0.846622
0.812578
0.99823
1
0.999975
0.980939
0.964389
0.937614
0.852082
0.757081
0.752539
0.8026
0.881788
0.943332
0.981939
0.995919
0.998835
0.997967
0.990581
0.961752
0.915626
0.864025
0.832454
0.852587
0.933102
0.991523
0.999952
1
1
1
1
1
1
1
1
1
1
1
1
1
1
1
1
1
1
1
1
1
0.999999
1
1
1
1
1
1
1
1
1
0.999986
0.997962
0.986056
0.990419
0.996788
0.999502
0.999974
1
1
1
1
1
1
0.999934
0.997978
0.990309
0.983104
0.988272
1
1
0.999967
0.999999
1
1
1
1
0.999992
0.999405
0.99226
0.972267
0.946081
0.930501
0.927162
0.944603
0.964141
0.983885
0.995111
0.999498
0.999925
0.99994
0.999581
0.996428
0.987023
0.968704
0.925389
0.839017
0.787605
0.849064
0.999989
0.999998
0.9655
0.990514
0.999261
0.999965
0.999991
0.999917
0.998018
0.981152
0.929053
0.85589
0.767377
0.672612
0.533816
0.444147
0.452529
0.617189
0.84678
0.98498
0.999475
0.997056
0.958256
0.819359
0.622416
0.495326
0.450905
0.578235
0.807307
0.97875
1
0.999331
0.971372
0.864468
0.708694
0.594432
0.633509
0.683193
0.807353
0.898876
0.97844
0.997329
0.99996
0.999987
0.999959
0.999049
0.99144
0.957907
0.839645
0.679266
0.558489
0.462607
0.547514
0.739287
0.863744
0.966574
0.997816
0.999937
0.999986
0.999996
1
1
1
1
1
1
0.999993
0.999719
0.996437
0.97634
0.923452
0.871977
0.852418
0.87323
0.935824
0.983155
0.998407
0.999987
1
1
0.999999
0.999881
0.997749
0.988055
0.964304
0.914522
0.853797
0.833334
0.895401
0.976592
0.999999
0.999997
0.999986
0.999935
0.996458
0.93113
0.618292
0.268131
0.154196
0.152187
0.27088
0.497067
0.759522
0.935723
0.994558
0.999921
0.999995
0.99909
0.982749
0.908099
0.767017
0.668956
0.459568
0.383144
0.395911
0.558106
0.846462
0.987084
0.999666
0.999999
1
0.999987
0.981249
0.877248
0.728906
0.647455
0.584278
0.622114
0.687601
0.797447
0.852722
0.971953
0.99488
0.999966
0.99975
0.985863
0.872771
0.750454
0.609223
0.461832
0.468717
0.429436
0.536123
0.754706
0.941011
0.997675
0.999982
0.999998
0.999987
0.999982
0.999999
0.993797
0.589677
0.39594
0.305368
0.289861
0.303497
0.402784
0.56121
0.769992
0.9274
0.995435
0.997286
0.945168
0.718069
0.544131
0.346111
0.32395
0.240199
0.285963
0.35606
0.61076
0.890157
0.989366
0.999859
0.999999
1
1
1
1
1
1
0.999978
0.991957
0.792242
0.367782
0.137897
0.0768929
0.0536574
0.0606621
0.0889302
0.176684
0.359869
0.757203
0.978957
0.895065
0.577006
0.293443
0.145601
0.0698853
0.0820073
0.13153
0.241736
0.477817
0.791188
0.968561
0.999454
0.999997
0.999994
0.999947
0.999998
0.999993
0.980642
0.609118
0.202675
0.084486
0.0455287
0.0404852
0.0456802
0.0852269
0.170153
0.406643
0.675439
0.623328
0.293558
0.12887
0.070119
0.0237655
0.0327027
0.0586085
0.119945
0.286796
0.607861
0.887143
0.992272
0.999248
0.994609
0.948534
0.903547
0.962354
0.999688
0.999956
0.943089
0.773953
0.697577
0.757286
0.823484
0.891301
0.955919
0.990645
0.999216
0.999982
0.999973
0.997985
0.954564
0.777668
0.532864
0.41174
0.405684
0.423369
0.475331
0.606161
0.710302
0.856423
0.933666
0.936571
0.898398
0.845683
0.826416
0.858768
0.999082
1
0.999983
0.989098
0.972931
0.929749
0.840519
0.781298
0.788193
0.859914
0.933079
0.982167
0.998394
0.999969
0.999999
0.999937
0.997157
0.96846
0.908573
0.847728
0.804111
0.830202
0.911009
0.98757
0.999906
1
1
1
1
1
1
1
1
1
1
1
1
1
1
1
1
1
1
1
1
1
1
0.999916
0.999996
1
1
1
1
1
1
1
1
1
0.999997
0.998455
0.987441
0.99102
0.997249
0.999509
0.999979
1
1
1
1
1
1
0.999913
0.997885
0.989915
0.982329
0.986787
0.999286
0.999999
0.999999
0.999881
0.999895
0.999996
1
1
1
1
0.999996
0.999607
0.994305
0.975079
0.949085
0.929
0.919445
0.939546
0.953288
0.982276
0.995839
0.999856
0.999999
1
0.999974
0.998737
0.989169
0.967325
0.914991
0.818948
0.756263
0.824783
0.988
0.999999
0.999991
0.995141
0.967847
0.98703
0.998393
0.999947
0.999996
0.999983
0.999323
0.989512
0.945233
0.870763
0.805319
0.723906
0.584583
0.463005
0.463447
0.569382
0.748369
0.930038
0.98371
0.981454
0.919068
0.7889
0.598425
0.490096
0.48061
0.598279
0.827325
0.973448
0.999342
0.99999
0.999943
0.996188
0.965875
0.861429
0.715471
0.612111
0.585092
0.678439
0.759514
0.851413
0.947258
0.980104
0.997702
0.999357
0.999501
0.998349
0.991104
0.951374
0.86422
0.752584
0.560336
0.527887
0.630804
0.745254
0.892494
0.971182
0.996588
0.999664
0.999775
0.999727
0.99989
1
1
0.999986
0.999998
1
1
1
0.999995
0.999834
0.99758
0.979372
0.926387
0.843217
0.810538
0.841312
0.894122
0.958828
0.993352
0.999612
0.999991
1
0.999996
0.999853
0.998286
0.990517
0.968115
0.920404
0.860122
0.835685
0.895772
0.974383
0.999523
0.999992
0.999466
0.99428
0.999791
0.999704
0.995096
0.936611
0.655773
0.270161
0.119925
0.111991
0.192603
0.358527
0.621119
0.869103
0.974579
0.998707
0.999862
0.999028
0.975898
0.934179
0.755182
0.669662
0.448236
0.384879
0.391275
0.617608
0.894786
0.99577
0.999997
0.999949
0.999565
0.999976
0.999862
0.985542
0.944541
0.816334
0.654224
0.57026
0.516778
0.545545
0.602193
0.697354
0.760492
0.902853
0.961615
0.996421
0.996889
0.97923
0.870012
0.747262
0.605508
0.465966
0.44342
0.43404
0.536682
0.751159
0.950012
0.998307
0.999898
0.998079
0.982577
0.96644
0.96836
0.999439
0.998452
0.822204
0.565725
0.37584
0.274791
0.260848
0.274315
0.34456
0.477171
0.69056
0.843304
0.976387
0.995345
0.962642
0.782513
0.592982
0.414195
0.353864
0.274915
0.2917
0.365211
0.628151
0.88922
0.992546
0.999942
1
1
0.999999
0.999962
0.999649
0.999208
0.999969
0.999905
0.987846
0.992843
0.956999
0.714236
0.319881
0.12322
0.0659391
0.0429018
0.0449006
0.0486627
0.106443
0.174248
0.431444
0.747958
0.75509
0.546607
0.242311
0.114852
0.0779556
0.0956424
0.117948
0.239464
0.485137
0.783749
0.970714
0.999824
0.999998
0.999756
0.99505
0.993941
0.99996
0.999875
0.979496
0.850434
0.417593
0.136714
0.0592073
0.0314422
0.0319843
0.0303315
0.072583
0.12271
0.334933
0.6652
0.791902
0.47344
0.150686
0.0736401
0.0336187
0.0271243
0.0529057
0.101913
0.247697
0.528791
0.846464
0.98459
0.998652
0.994409
0.948962
0.883049
0.933553
0.987316
0.999978
0.99997
0.982102
0.903221
0.748594
0.711883
0.779272
0.849923
0.914388
0.971126
0.995415
0.99985
0.999999
0.999999
0.999016
0.968833
0.80338
0.534056
0.436968
0.502618
0.495243
0.571239
0.647657
0.730543
0.777136
0.797443
0.764162
0.750592
0.760613
0.821948
0.912497
0.98884
1
1
0.999997
0.999922
0.993013
0.977701
0.934428
0.85011
0.817512
0.829729
0.899777
0.961642
0.994293
0.999792
1
1
0.999946
0.995565
0.959771
0.880166
0.816209
0.775797
0.80854
0.90774
0.986904
0.999865
1
1
1
1
0.999999
1
1
1
1
1
1
1
1
1
1
1
1
1
1
1
1
1
1
1
0.999931
0.999998
1
1
1
1
1
1
1
1
1
0.999999
0.999293
0.990278
0.993169
0.997197
0.999444
0.999955
0.999999
1
1
1
1
0.999996
0.999776
0.997111
0.990195
0.984746
0.99095
0.998914
0.999996
0.999998
0.999828
0.999847
0.999992
1
1
1
1
0.999999
0.999825
0.996914
0.983674
0.959378
0.93797
0.920362
0.933121
0.938799
0.971945
0.988677
0.998905
0.999933
0.999976
0.999772
0.997461
0.985377
0.958465
0.897714
0.805615
0.755199
0.830014
0.96668
0.999956
0.999963
0.995537
0.978746
0.978608
0.993756
0.999488
0.999978
0.999984
0.999655
0.993514
0.963017
0.916748
0.868002
0.794173
0.678156
0.538093
0.482191
0.523869
0.64418
0.772016
0.856519
0.864875
0.802291
0.700182
0.569287
0.488242
0.527065
0.656316
0.861327
0.982564
0.99947
0.999987
0.999874
0.996773
0.968901
0.883961
0.74989
0.632281
0.572521
0.62633
0.704772
0.73741
0.855916
0.891935
0.93772
0.96763
0.977707
0.971608
0.955769
0.911565
0.852407
0.702215
0.622185
0.641371
0.681343
0.832121
0.942548
0.986706
0.998632
0.999784
0.999834
0.999875
0.999894
0.999909
0.999912
0.999926
0.999983
0.999998
1
1
0.999998
0.999959
0.999176
0.990969
0.946062
0.855847
0.809134
0.804745
0.84344
0.918992
0.967856
0.992712
0.998321
0.99954
0.999447
0.998651
0.995011
0.98591
0.961622
0.916669
0.861876
0.859084
0.913547
0.980655
0.998715
0.999767
0.990066
0.989654
0.999685
0.999756
0.996861
0.95795
0.746155
0.32968
0.12496
0.0902029
0.12349
0.214281
0.390992
0.632118
0.818501
0.910384
0.958855
0.948295
0.901744
0.829715
0.707701
0.549098
0.404641
0.386161
0.417241
0.658292
0.915016
0.998735
0.99995
0.999202
0.994951
0.9931
0.993007
0.989175
0.945541
0.810374
0.619441
0.516944
0.460237
0.483498
0.475779
0.547048
0.593681
0.676701
0.722464
0.840603
0.838779
0.812783
0.687464
0.647063
0.501885
0.469638
0.400756
0.440824
0.550202
0.754916
0.944019
0.996389
0.999603
0.998589
0.993522
0.98706
0.987491
0.988179
0.974974
0.806515
0.571204
0.370367
0.260028
0.231975
0.227525
0.275646
0.330439
0.472434
0.623146
0.734407
0.795214
0.776159
0.653643
0.560226
0.404772
0.34823
0.29387
0.32415
0.406187
0.65628
0.916032
0.994865
0.999984
1
1
0.999983
0.999529
0.995887
0.987581
0.979675
0.975656
0.98717
0.99562
0.964166
0.734167
0.347352
0.126135
0.0596485
0.0353083
0.0339399
0.0285178
0.0374515
0.072121
0.120153
0.206921
0.218717
0.202362
0.0954766
0.088268
0.0757347
0.0800877
0.129004
0.267097
0.493448
0.787735
0.976528
0.999899
0.999995
0.999846
0.998461
0.993827
0.991691
0.992442
0.98491
0.81096
0.360932
0.112915
0.0480821
0.0235192
0.022379
0.015636
0.034817
0.046898
0.115551
0.200952
0.248609
0.202908
0.110065
0.0451478
0.031746
0.0406142
0.0479243
0.101633
0.237083
0.500589
0.813272
0.98043
0.998709
0.998054
0.977514
0.924512
0.951126
0.989296
0.998258
0.997966
0.970847
0.905728
0.768079
0.750054
0.820838
0.883947
0.933365
0.974498
0.995246
0.99961
0.999971
0.999905
0.997529
0.967587
0.841778
0.617308
0.5572
0.59844
0.623013
0.676237
0.735301
0.704023
0.676518
0.60085
0.58147
0.624258
0.736679
0.878714
0.970082
0.997434
0.999816
0.999946
0.999967
0.999801
0.995471
0.981558
0.947012
0.879505
0.852584
0.867175
0.930239
0.97069
0.994822
0.99972
0.999975
0.999938
0.9983
0.981466
0.926248
0.839317
0.771704
0.755604
0.803977
0.92007
0.990021
0.999907
1
1
1
0.999999
1
1
1
1
1
1
1
1
1
1
1
1
1
1
1
1
1
1
1
1
0.999979
0.999999
1
1
1
1
1
1
1
1
1
1
0.999809
0.994743
0.994761
0.997237
0.999029
0.999808
0.999976
0.999998
0.999999
0.999999
0.999994
0.999922
0.999187
0.996005
0.99
0.989097
0.995022
0.999619
1
1
0.999959
0.999928
0.999992
1
1
1
1
1
0.999952
0.999023
0.992658
0.976238
0.952542
0.931345
0.923029
0.922241
0.938617
0.959408
0.982916
0.992246
0.995266
0.992917
0.986058
0.969101
0.937173
0.880415
0.817292
0.795216