/*--------------------------------*- C++ -*----------------------------------*\
| =========                 |                                                 |
| \\      /  F ield         | OpenFOAM: The Open Source CFD Toolbox           |
|  \\    /   O peration     | Version:  2.1.1                                 |
|   \\  /    A nd           | Web:      www.OpenFOAM.org                      |
|    \\/     M anipulation  |                                                 |
\*---------------------------------------------------------------------------*/
FoamFile
{
    version     2.0;
    format      ascii;
    class       volScalarField;
    location    "0.006450000";
    object      mut;
}
// * * * * * * * * * * * * * * * * * * * * * * * * * * * * * * * * * * * * * //

dimensions      [1 -1 -1 0 0 0 0];

internalField   nonuniform List<scalar> 
12384
(
0.00355438
0.00549261
0.00490261
0.00351928
0.00291342
0.00256408
0.00235482
0.00217357
0.00205542
0.00201825
0.00202868
0.00203768
0.00187473
0.00154444
0.00488127
0.00415093
0.00365008
0.00345621
0.00343637
0.00352099
0.00374363
0.00427808
0.0054902
0.00835046
0.0139447
0.0150717
0.0119532
0.00770843
0.00593389
0.00512314
0.00469241
0.00443174
0.00426637
0.00405049
0.00373128
0.00343129
0.00322632
0.00319423
0.00335239
0.00370105
0.0041631
0.00430191
0.00358724
0.00487506
0.00931034
0.0067997
0.00507556
0.00411608
0.00364026
0.00348218
0.00356602
0.00416643
0.00596631
0.0117541
0.0147362
0.0087972
0.00644709
0.00555594
0.00508344
0.00490961
0.00471549
0.00462899
0.00436299
0.00412423
0.00390327
0.00392842
0.004081
0.00440882
0.00495887
0.00583071
0.00711873
0.00837997
0.00827448
0.00698656
0.00738741
0.00548261
0.00401417
0.00322072
0.00293237
0.00308599
0.00371953
0.00492934
0.00741888
0.014086
0.0245482
0.0199772
0.0124824
0.00982172
0.00855137
0.00783556
0.00733517
0.00680258
0.00619163
0.00535106
0.00485191
0.00470157
0.00471092
0.00491724
0.00515408
0.00500512
0.00432091
0.00699043
0.0101993
0.0115297
0.00715663
0.0121164
0.024053
0.0297651
0.024832
0.017006
0.0136466
0.0117703
0.0108862
0.00976401
0.00900974
0.00790332
0.00668087
0.00564722
0.00505625
0.00489526
0.00498957
0.00556218
0.00668622
0.00926195
0.0149401
0.0101607
0.00488954
0.00310256
0.00236867
0.00227484
0.00285265
0.00412074
0.00663108
0.00935031
0.00731952
0.00917308
0.0105525
0.0113901
0.0117532
0.0119501
0.00772206
0.00439552
0.003364
0.00317066
0.00317187
0.00336225
0.00350776
0.00372048
0.00371987
0.00377308
0.00343821
0.00316966
0.00282748
0.00274669
0.00280345
0.00309138
0.00358888
0.00446069
0.00589055
0.00852815
0.0142948
0.0137826
0.0106732
0.0100473
0.00622518
0.00542138
0.0058259
0.0085651
0.00860298
0.00552038
0.00462626
0.00441178
0.00439531
0.00443741
0.00446223
0.00442612
0.00428677
0.004066
0.00369931
0.00352863
0.00349015
0.00377944
0.00410543
0.00486772
0.00597924
0.00829133
0.013157
0.0189124
0.00771698
0.00421933
0.00338612
0.00314296
0.00406256
0.00922089
0.00696154
0.00359432
0.00305348
0.00359175
0.00407421
0.00449615
0.0047046
0.00503847
0.00509181
0.0052682
0.00515349
0.00503817
0.00483186
0.00482754
0.00501355
0.00549433
0.00642557
0.00812195
0.0118051
0.0210274
0.022086
0.00893313
0.0039956
0.00216724
0.0016139
0.00151879
0.00174598
0.00245608
0.00438726
0.00949054
0.00837666
0.0104636
0.00756638
0.00654662
0.00615982
0.00595494
0.0059173
0.00582143
0.00571374
0.00552672
0.005218
0.00512547
0.00519232
0.00553638
0.00615908
0.00740761
0.00965466
0.0143339
0.0230124
0.0181966
0.0074359
0.00358099
0.00228972
0.00188444
0.00190498
0.00228443
0.00301714
0.00450278
0.00731071
0.00686065
0.0075835
0.00499106
0.00521414
0.00734068
0.0142465
0.0158713
0.0117868
0.00987741
0.00900828
0.00855143
0.00813243
0.00782397
0.00732248
0.00679274
0.00660533
0.00694416
0.00806914
0.0104404
0.0162559
0.0306743
0.019468
0.00692034
0.00271663
0.00169468
0.00158828
0.00169253
0.00202809
0.00277746
0.00460833
0.0100022
0.00917393
0.0115144
0.0136255
0.00962087
0.00779824
0.00735836
0.00728684
0.00723489
0.0071343
0.00696799
0.00662596
0.00621593
0.00632778
0.00667128
0.00765516
0.00931788
0.0127993
0.0201038
0.0315368
0.0268539
0.016189
0.00640463
0.00344475
0.0028962
0.00333155
0.00472806
0.00864118
0.0128476
0.0117726
0.0114612
0.00671829
0.00715621
0.0089756
0.00720549
0.00413031
0.00282448
0.00215712
0.00180166
0.00163938
0.00165425
0.00189746
0.00255365
0.0033422
0.00404604
0.00474077
0.00573629
0.00783405
0.0138548
0.0134769
0.00717407
0.00519461
0.00449422
0.00429914
0.00430566
0.00453837
0.00489607
0.00552181
0.00671117
0.00850293
0.00904287
0.000811958
0.000655421
0.000392309
0.000272797
0.000282563
0.00101609
0.00501535
0.0134424
0.0118974
0.00752784
0.00563113
0.00473625
0.00438508
0.00453473
0.00522224
0.00613223
0.00683569
0.00780825
0.00935639
0.0131029
0.014407
0.00520628
0.00222977
0.00131975
0.000906505
0.00060526
0.000353992
0.000173609
6.62271e-05
1.94413e-05
0.00554185
0.00166997
0.00186585
0.00221798
0.0026035
0.00293863
0.00321125
0.00337961
0.00344567
0.00338097
0.00318851
0.00284688
0.00236009
0.00333231
0.00261117
0.00305243
0.00322597
0.00323827
0.00320851
0.00319067
0.00321098
0.00327967
0.00334789
0.0034388
0.00354838
0.00375785
0.00415805
0.00480807
0.00569428
0.0067874
0.0079594
0.0091551
0.0101922
0.0110427
0.0116035
0.011938
0.0120293
0.0119125
0.011573
0.0108325
0.00952579
0.00750599
0.00500295
0.00670074
0.00443906
0.00389803
0.00439473
0.00469694
0.00473347
0.00456406
0.00428145
0.00408316
0.00409828
0.00447892
0.00515618
0.00609664
0.00723152
0.0085798
0.0100549
0.0115179
0.0128889
0.0140077
0.0148497
0.0153243
0.0155711
0.0155004
0.0151822
0.014614
0.0137627
0.0125171
0.0107178
0.00834735
0.00572129
0.0123181
0.0035039
0.00483094
0.00535825
0.00567809
0.00580385
0.00578077
0.00573488
0.00568447
0.00576296
0.00609936
0.00691595
0.00819705
0.00996604
0.012194
0.0147311
0.0174373
0.0200701
0.022361
0.0241252
0.0253515
0.0258102
0.0257815
0.0250193
0.0236283
0.0212279
0.0175174
0.0127802
0.00774573
0.00351977
0.0133537
0.0071626
0.00472342
0.00690417
0.00925946
0.0115027
0.0136599
0.0159621
0.0179129
0.0202245
0.0216925
0.0235143
0.0243432
0.0253789
0.0255416
0.0255091
0.0251429
0.0241397
0.0228987
0.0207551
0.0178211
0.0136332
0.0091523
0.00525429
0.0038381
0.00377067
0.00375325
0.003643
0.00357416
0.00361238
0.00903038
0.00485094
0.00241557
0.00253011
0.00252868
0.00252349
0.00273336
0.00333289
0.00436851
0.00561876
0.0071716
0.00888692
0.0108146
0.012787
0.014901
0.0164972
0.018166
0.0191109
0.0197063
0.0196204
0.0193415
0.0186784
0.017561
0.0162173
0.0144445
0.0123428
0.00989405
0.0074
0.00498955
0.00321801
0.0122803
0.00634423
0.00155876
0.00172376
0.00256971
0.00393457
0.00555303
0.00743458
0.00951485
0.0117315
0.0139588
0.0161014
0.0180192
0.0196125
0.0207941
0.0215996
0.0217832
0.0216689
0.0213455
0.0202818
0.0190181
0.017231
0.0150483
0.0122097
0.00916178
0.00632765
0.00419578
0.00280218
0.00258387
0.00342731
0.00957363
0.00543783
0.00267264
0.00422715
0.00639956
0.00853967
0.0107079
0.0127044
0.0147848
0.0164422
0.0181386
0.0191161
0.0200043
0.0202056
0.0202446
0.0199204
0.0191792
0.0181331
0.0166166
0.0147567
0.0122973
0.00963378
0.0070689
0.0049449
0.00383752
0.00359476
0.0034648
0.00325923
0.00315632
0.00332995
0.00982289
0.011006
0.00521579
0.0073727
0.00971134
0.0120947
0.0143194
0.0165598
0.0183359
0.0200198
0.0210479
0.0216494
0.0218498
0.0216457
0.0209111
0.0197864
0.0182356
0.0160289
0.0133979
0.0103454
0.00742252
0.00491691
0.00382461
0.00372726
0.0037896
0.00363615
0.00333828
0.00293567
0.00250397
0.00231607
0.00852167
0.00850271
0.00216127
0.0022686
0.00364455
0.00578487
0.00807537
0.010368
0.0126239
0.0148851
0.017048
0.0188996
0.0204649
0.0216648
0.0221487
0.0223736
0.0222702
0.0215286
0.020052
0.0181627
0.0155206
0.0122302
0.0089677
0.00612183
0.0043144
0.00362567
0.00351626
0.00335054
0.0032139
0.00339951
0.00497085
0.00932669
0.00218955
0.00310759
0.00570018
0.00885458
0.0119051
0.0148994
0.0175438
0.020121
0.0220805
0.0236031
0.0245445
0.0247628
0.0247038
0.0238543
0.0221898
0.0197281
0.0162216
0.0125569
0.00930944
0.00698521
0.0058917
0.0055354
0.00540841
0.00512538
0.00476643
0.00438387
0.00399793
0.00364051
0.0107659
0.00872518
0.00182117
0.00265785
0.00449214
0.00687883
0.00936767
0.0115718
0.0132598
0.0143237
0.0148556
0.0148227
0.0143336
0.0134538
0.0121303
0.0105728
0.00894744
0.00739827
0.00605293
0.00503785
0.00463254
0.00483727
0.00538696
0.00604907
0.00664946
0.00704131
0.00721714
0.00709208
0.00662446
0.00571815
0.00823654
0.00145705
0.00191241
0.00164327
0.00162419
0.00210248
0.00350004
0.00556076
0.00790404
0.0102939
0.0123728
0.01376
0.0144815
0.0146692
0.0144952
0.0140484
0.0132426
0.0121032
0.0107374
0.00923814
0.00769534
0.00618745
0.00466863
0.00318601
0.00201374
0.00146518
0.00125265
0.000985672
0.000612852
0.000274162
2.37475e-05
0.00692142
0.00207691
0.0023578
0.00274984
0.00307785
0.0032906
0.00345307
0.00353057
0.0035464
0.00346434
0.00328031
0.00300468
0.00263954
0.00304221
0.0019309
0.0029192
0.00293383
0.00297475
0.00311256
0.00331637
0.00354668
0.00374545
0.00388089
0.00397286
0.00410125
0.00434942
0.0048427
0.00560509
0.00646844
0.00735821
0.00815932
0.00902554
0.00969779
0.0103504
0.0107429
0.0110247
0.0110246
0.0109668
0.0108106
0.010518
0.00982276
0.00843256
0.00627702
0.00532385
0.00302431
0.00381623
0.0040141
0.0040671
0.00397722
0.00387088
0.00386421
0.00415652
0.00472415
0.00562432
0.00658374
0.00756842
0.00852339
0.00948126
0.0104594
0.0114939
0.0124654
0.0133016
0.0139456
0.0143885
0.0145032
0.0144064
0.014134
0.0137146
0.0131765
0.0124381
0.0112811
0.00949322
0.00716595
0.0100319
0.0023382
0.00491996
0.00518674
0.00544168
0.00565669
0.0058506
0.00609399
0.00647166
0.00696734
0.00761428
0.00859449
0.00989466
0.0114287
0.0131417
0.0149602
0.0168719
0.0187332
0.0204773
0.0218115
0.0228807
0.0233623
0.0233716
0.0228913
0.0221889
0.0208891
0.0186189
0.0150335
0.0105358
0.005833
0.0117225
0.0139355
0.00629718
0.00879201
0.0114329
0.0136833
0.0153622
0.0169233
0.0180781
0.0194728
0.0203356
0.021714
0.0220895
0.0231151
0.0232747
0.0235251
0.0235275
0.022997
0.0226595
0.0214809
0.0196712
0.0166576
0.0125793
0.00804194
0.00471184
0.00355179
0.0033082
0.003448
0.00379676
0.0039882
0.00618214
0.00407516
0.00227295
0.00229267
0.00234035
0.00254046
0.00315635
0.0041615
0.00541855
0.00671211
0.00822999
0.00976094
0.011386
0.0129676
0.0144796
0.0157366
0.0171446
0.0177805
0.0184925
0.0185647
0.0184049
0.0177168
0.0169586
0.0158662
0.0146448
0.0130266
0.011085
0.0087671
0.00631669
0.00423746
0.0144973
0.00516536
0.00157993
0.00208087
0.00337912
0.00493123
0.00671991
0.00868366
0.0106294
0.0125269
0.0143354
0.0160212
0.017522
0.0188332
0.0198491
0.0205193
0.0208234
0.0207564
0.0203629
0.01949
0.0184285
0.0170738
0.0155197
0.0133331
0.0107467
0.00799766
0.00558545
0.00358032
0.00242528
0.00302115
0.00902861
0.00340567
0.00386492
0.00597688
0.00833065
0.0103665
0.012191
0.0136879
0.0151637
0.016373
0.0175711
0.0183248
0.0191898
0.0193571
0.0195047
0.019168
0.0186069
0.0179677
0.0168862
0.0155708
0.0137746
0.0114233
0.00887925
0.00645701
0.00444265
0.00318422
0.00262704
0.00262855
0.0030499
0.00338951
0.00866559
0.00702434
0.00788799
0.0101542
0.0122827
0.014195
0.0157468
0.0173485
0.018557
0.0199435
0.0206445
0.0213948
0.021525
0.0212713
0.0206566
0.0198907
0.0186258
0.0171534
0.0150171
0.0124248
0.00951053
0.00671585
0.00443847
0.00338336
0.00303365
0.00298163
0.00309576
0.00313146
0.00282639
0.0024827
0.00920934
0.00983445
0.00199045
0.00275037
0.00501781
0.00779449
0.0104257
0.0127086
0.0146388
0.01625
0.0176465
0.0190234
0.020109
0.0208714
0.0214982
0.0217007
0.0216999
0.0211013
0.0204778
0.019388
0.017384
0.0147348
0.011634
0.00840474
0.00564574
0.00374613
0.00288837
0.00301146
0.00336497
0.00365465
0.00340883
0.0103745
0.00265963
0.00470865
0.00844233
0.0121737
0.0152749
0.018015
0.0200025
0.0219573
0.0231684
0.0245976
0.0250169
0.025338
0.0249166
0.0242451
0.0231193
0.021265
0.0186013
0.0151753
0.0116088
0.00854729
0.00629971
0.00521775
0.00463048
0.0044709
0.00467335
0.00497906
0.00487586
0.00418735
0.00862217
0.00984335
0.00228691
0.0037714
0.0061136
0.00865768
0.010955
0.0127584
0.0140624
0.0148407
0.0152049
0.0152571
0.0148798
0.0140938
0.0130541
0.0118688
0.010588
0.00924443
0.0078736
0.00668333
0.00600674
0.0058965
0.00600691
0.00616664
0.00633759
0.00647096
0.00652033
0.00648797
0.00630482
0.00581567
0.0062856
0.00175975
0.00204299
0.00154436
0.00200759
0.00360844
0.00571776
0.0080528
0.0104411
0.0125045
0.0139595
0.0147651
0.015116
0.0151949
0.015064
0.0146241
0.0139074
0.0129806
0.0118603
0.0106024
0.00921462
0.00767236
0.00604257
0.00436844
0.00264104
0.00115132
0.000527757
0.000382864
0.000246405
0.000121007
1.10784e-05
0.00519618
0.00254857
0.00288861
0.0032088
0.00336293
0.00339861
0.00340354
0.00341161
0.00342947
0.00343579
0.00337126
0.00323443
0.00303293
0.00286908
0.00174926
0.00324606
0.00303063
0.00298599
0.00318073
0.00349697
0.00381355
0.00406564
0.00425586
0.0044605
0.00476209
0.00525641
0.00603207
0.00694911
0.00778329
0.00832543
0.00869389
0.00901797
0.00928475
0.00956999
0.00981535
0.00992388
0.0100123
0.0100384
0.0101482
0.0102404
0.0101122
0.00929348
0.007473
0.00446675
0.00252986
0.00419975
0.00401952
0.00373037
0.00345199
0.00336987
0.00366128
0.00436582
0.00542034
0.00665333
0.00782162
0.00884025
0.00967764
0.0103013
0.0108813
0.0113968
0.0119341
0.0124181
0.0128636
0.0130681
0.0132172
0.0131431
0.0129604
0.0127333
0.0125152
0.0122335
0.0116822
0.0105062
0.00854427
0.00753794
0.00194819
0.00567836
0.00547198
0.00542669
0.00549816
0.0057655
0.00626458
0.00703023
0.00795271
0.00897271
0.0101836
0.0116553
0.0131161
0.0144751
0.0155776
0.0164477
0.0172192
0.0179813
0.0187083
0.0193771
0.0198812
0.0202208
0.0203588
0.0204201
0.0201283
0.0190806
0.016555
0.0125024
0.00780527
0.00633181
0.0197024
0.00788529
0.0104589
0.0131166
0.0150821
0.0161552
0.0167926
0.0170191
0.0176138
0.0177987
0.0185113
0.0187588
0.0194357
0.0198774
0.020381
0.0207224
0.0209129
0.0213908
0.0212265
0.0207849
0.0188288
0.0153505
0.0111033
0.00708082
0.00437935
0.00305469
0.00314584
0.00388132
0.00423214
0.00467652
0.00388983
0.00244252
0.00233166
0.00237709
0.00278092
0.0037272
0.00497057
0.00633114
0.00775537
0.00930872
0.010749
0.0120635
0.012995
0.0138318
0.0145663
0.0151793
0.0156435
0.0162053
0.0164797
0.0164076
0.0162935
0.0157974
0.015277
0.0144478
0.013453
0.0119672
0.0100225
0.00768259
0.00539331
0.013371
0.00437454
0.00177592
0.00264606
0.00412332
0.00589938
0.00799928
0.0100584
0.0117841
0.01317
0.0142847
0.0152256
0.0161047
0.0169543
0.0176882
0.0183148
0.0186511
0.0187878
0.0185421
0.0180962
0.0174766
0.0165538
0.0155225
0.0141448
0.012074
0.00960787
0.00706341
0.0047873
0.00306341
0.00288792
0.00997575
0.00244669
0.00503576
0.00751607
0.00991316
0.0117076
0.0129341
0.0139783
0.014511
0.0153607
0.0157213
0.0164724
0.0167253
0.0172074
0.0173183
0.0173695
0.0172162
0.0169962
0.0165982
0.0159776
0.0148549
0.0131279
0.0108342
0.00836704
0.00601054
0.00400442
0.00270125
0.00252878
0.00312859
0.0033863
0.00928888
0.00558411
0.0103426
0.012367
0.0140213
0.0152165
0.0159842
0.0168278
0.017413
0.0180592
0.0187103
0.0190901
0.019371
0.0195193
0.0193562
0.0190575
0.0183882
0.017688
0.0162785
0.0144209
0.0117908
0.00891221
0.00622781
0.00412865
0.0030083
0.00254027
0.00295675
0.00338355
0.00312219
0.00258514
0.0095664
0.010561
0.00222802
0.00358789
0.00639952
0.00962822
0.0125358
0.014502
0.0158906
0.0167162
0.0172588
0.0176595
0.0182106
0.0186447
0.0191512
0.0196072
0.0196677
0.0198708
0.0201198
0.0196482
0.018685
0.0169748
0.0141684
0.0109011
0.00777966
0.00519027
0.00338286
0.00290024
0.00352359
0.00380335
0.00278528
0.0109614
0.00357131
0.00673509
0.0112237
0.0150879
0.0178742
0.0198539
0.0209378
0.0218734
0.0225889
0.0229502
0.0235583
0.0235527
0.0237893
0.0235315
0.0230997
0.0221668
0.0205314
0.017887
0.0145695
0.0110961
0.00804232
0.0058516
0.00464802
0.00429091
0.00489913
0.00575336
0.00579214
0.00468083
0.00771443
0.00692322
0.00318127
0.00521194
0.00776571
0.0101976
0.0121793
0.0135862
0.0144358
0.0148272
0.0148753
0.0147004
0.0143012
0.0138718
0.0133797
0.0127854
0.0119688
0.0108912
0.0095451
0.00825831
0.00741278
0.00700786
0.00665637
0.00624239
0.00587427
0.00565821
0.00573311
0.00604153
0.00633544
0.00634588
0.0053471
0.00198564
0.00202145
0.00194232
0.00345664
0.0056613
0.00792688
0.0103326
0.0125057
0.0140029
0.0147967
0.0150125
0.0149888
0.0148252
0.0145475
0.014085
0.0135769
0.0130127
0.0123423
0.0114983
0.0103612
0.00887219
0.00713496
0.00522345
0.00334595
0.00141984
0.00037284
0.000181844
0.000129832
8.54049e-05
8.70161e-06
0.00414348
0.00296866
0.00326152
0.0034307
0.00341779
0.00329311
0.00314313
0.00302651
0.00305158
0.00319591
0.00338399
0.00348347
0.00348905
0.00288398
0.00172674
0.00371477
0.00323168
0.00302747
0.00320207
0.00355645
0.00389997
0.00416959
0.00443794
0.00480063
0.0053642
0.00617431
0.0072129
0.00828765
0.00899438
0.00928024
0.00909557
0.00885725
0.0085072
0.00840833
0.00833171
0.00844845
0.00865002
0.0089932
0.00940794
0.00993588
0.0103114
0.0100206
0.00855799
0.00391391
0.00234911
0.00471315
0.00417086
0.00353756
0.00305186
0.00303063
0.00356321
0.00463985
0.00601671
0.00749593
0.00880167
0.00990499
0.010631
0.0110447
0.0112156
0.0112814
0.0113092
0.0114313
0.0114972
0.011675
0.0117113
0.011695
0.0116985
0.011692
0.0117757
0.0119169
0.0119027
0.0113374
0.00986804
0.00632145
0.00183137
0.00667351
0.00594685
0.00545721
0.00528863
0.00551889
0.00622936
0.00731832
0.00858985
0.00998972
0.011485
0.0131646
0.0147027
0.0158756
0.0164013
0.0163384
0.0157797
0.0151913
0.0149603
0.0151006
0.0157058
0.0165891
0.0174225
0.0183988
0.019048
0.0190581
0.0174365
0.0138696
0.00915399
0.00437565
0.0205476
0.00911131
0.0116706
0.0141929
0.0157453
0.0161775
0.0160893
0.0155387
0.0152211
0.0148315
0.0148979
0.0148542
0.0152517
0.0156157
0.0163847
0.0173575
0.0182123
0.0193409
0.0202971
0.0209388
0.0198726
0.0174467
0.0136177
0.00942236
0.00612834
0.00364781
0.00292349
0.00391473
0.00429635
0.00386024
0.00400429
0.00268303
0.00243617
0.00248524
0.00308256
0.00423503
0.00561956
0.00710325
0.00871255
0.010407
0.0118684
0.0127868
0.0131768
0.0132852
0.0129321
0.0126901
0.0127959
0.0130151
0.0132564
0.013772
0.0140094
0.01424
0.0141178
0.013927
0.013362
0.012396
0.0108614
0.0087347
0.00642167
0.00860899
0.00361671
0.00204825
0.00317957
0.00478891
0.00692093
0.00930617
0.0113985
0.012819
0.0135912
0.0138963
0.0140029
0.0140728
0.0142759
0.0145486
0.0149187
0.0153519
0.0157472
0.0160505
0.0160191
0.0159088
0.0156185
0.0150713
0.0142911
0.0128902
0.0106866
0.00817837
0.00569318
0.00374301
0.00299347
0.0133952
0.00201683
0.00604017
0.00877129
0.0111122
0.0126522
0.013317
0.0136698
0.0134788
0.0135607
0.0132462
0.0135442
0.0135646
0.0138559
0.0142752
0.0147157
0.0150398
0.0154168
0.0156372
0.0157588
0.0153133
0.0142619
0.0123457
0.00994911
0.00744072
0.00508086
0.00343342
0.00304116
0.00339978
0.00335985
0.0112847
0.00518075
0.0121668
0.0138863
0.0150158
0.015525
0.0155195
0.0154809
0.015154
0.0153954
0.0154883
0.0158662
0.0162893
0.0166892
0.0169745
0.0174067
0.0173989
0.0174794
0.0168646
0.0157902
0.0136591
0.0108918
0.0079335
0.00539164
0.00356633
0.002719
0.00312453
0.00365968
0.0033628
0.002673
0.0097894
0.0113695
0.00259656
0.00441189
0.00766029
0.011283
0.014182
0.0159174
0.0164967
0.0163884
0.0161674
0.0155218
0.0153351
0.0152994
0.0155434
0.0160799
0.0168459
0.0177831
0.0184466
0.0189802
0.0192383
0.0182198
0.0159499
0.0129331
0.00962784
0.00661584
0.00433464
0.0033067
0.00375345
0.00389094
0.00267147
0.00846737
0.00459661
0.0087685
0.0136884
0.0172937
0.0194322
0.0203419
0.0203113
0.0202349
0.0197035
0.0198827
0.0199469
0.0206397
0.0209901
0.0215436
0.0219296
0.0220548
0.0214903
0.0198859
0.0170947
0.0135839
0.0100013
0.00704466
0.00512187
0.00454766
0.00538248
0.00662989
0.00666897
0.00517804
0.00830248
0.00482651
0.00418591
0.00650395
0.00905742
0.0112697
0.012896
0.0138716
0.0141764
0.0140288
0.0136121
0.0132043
0.0129072
0.012924
0.0131274
0.0132857
0.0130342
0.0122229
0.0109405
0.00956047
0.00862053
0.00792411
0.00705547
0.0060381
0.00508284
0.00451262
0.00477258
0.00567671
0.00650359
0.00690196
0.00487366
0.0022438
0.00212462
0.00298042
0.00503131
0.00733367
0.00970494
0.0120231
0.0137813
0.0146005
0.0148099
0.0144569
0.014008
0.0134761
0.0129472
0.0126196
0.0124619
0.0124102
0.0123032
0.0119329
0.0111287
0.00984545
0.00800566
0.00588464
0.0038233
0.00180473
0.000425395
0.000152507
0.000108562
8.9779e-05
1.01114e-05
0.00347673
0.00324435
0.00344756
0.00349916
0.00340178
0.00316892
0.00284364
0.00257816
0.0025541
0.00286334
0.00332982
0.00370896
0.00390356
0.00301638
0.00178354
0.00426182
0.00351883
0.00307497
0.00316274
0.00349375
0.00382712
0.00410692
0.00442604
0.0049483
0.00574914
0.00684975
0.00816744
0.00930789
0.0100033
0.00991117
0.00929043
0.00839969
0.00754423
0.00685977
0.00645683
0.00648853
0.00701849
0.00777081
0.00869655
0.00970566
0.0105742
0.0107206
0.00954122
0.00348595
0.00236228
0.0052245
0.00439645
0.00343989
0.002757
0.0027703
0.00351768
0.00484458
0.0064634
0.00808556
0.0095358
0.0106724
0.0114008
0.0116437
0.0114909
0.0110971
0.0106654
0.0101645
0.00993514
0.00979863
0.00991498
0.0101759
0.0103992
0.010678
0.0110912
0.0116259
0.0121095
0.0120947
0.0111103
0.00562867
0.00177144
0.00765851
0.00648831
0.00550446
0.00498863
0.00513241
0.00595063
0.00730119
0.00890473
0.0105897
0.0124025
0.0142599
0.0159047
0.0170106
0.0172626
0.0164274
0.0146703
0.0127401
0.011084
0.0102872
0.0111293
0.0128203
0.0145258
0.0164786
0.0179826
0.0188426
0.0179486
0.0146845
0.00997684
0.00331052
0.0180358
0.00984429
0.0123759
0.0148106
0.0159836
0.0160172
0.0152298
0.0142981
0.012964
0.0120806
0.011319
0.0107723
0.0108447
0.0113627
0.0124326
0.0138949
0.0153113
0.0173023
0.0190119
0.0202477
0.0204239
0.0188926
0.0152774
0.0113506
0.00791462
0.00493618
0.00333363
0.0039532
0.00430526
0.00352076
0.00445146
0.00296814
0.00258462
0.00262704
0.00335219
0.00461246
0.00605757
0.00770883
0.00952479
0.0114316
0.0128872
0.013633
0.0137431
0.012957
0.0117011
0.0105527
0.00971005
0.00917993
0.00960165
0.0104637
0.0114712
0.0121897
0.0127962
0.013034
0.0129959
0.0125043
0.0113477
0.00954076
0.00732234
0.00655233
0.0030357
0.00243752
0.0036434
0.00544238
0.00785428
0.010448
0.0125409
0.0137042
0.0140358
0.0136826
0.0129655
0.0121693
0.0114024
0.0109849
0.0109314
0.0114425
0.0121181
0.0130763
0.0135597
0.014095
0.0142935
0.0143972
0.0140407
0.0130954
0.0113199
0.00877729
0.00619684
0.00414446
0.00314621
0.0130218
0.00201802
0.00687674
0.00980884
0.0120768
0.013376
0.0136177
0.0134264
0.0124889
0.0117925
0.0107732
0.0102959
0.00982879
0.0100623
0.0106036
0.011501
0.0125144
0.0135216
0.0142899
0.0151913
0.0152905
0.01485
0.0133359
0.0110572
0.00839654
0.00581224
0.00403154
0.00352115
0.00358454
0.00328384
0.0115207
0.00536336
0.0132135
0.0148076
0.0155682
0.0155671
0.0148035
0.0138528
0.0128759
0.0122436
0.0116903
0.0116839
0.0121844
0.0131768
0.014092
0.0151916
0.0159052
0.0168142
0.0168959
0.0166105
0.0149545
0.0124132
0.00930618
0.00648233
0.00428191
0.0031972
0.00347433
0.00388942
0.00349975
0.00272798
0.010086
0.0122117
0.00307591
0.00523374
0.00879037
0.0126814
0.0155433
0.0168304
0.0169587
0.0159451
0.0147802
0.0131694
0.0121894
0.0113813
0.0113478
0.0121364
0.0135195
0.0148721
0.0163473
0.0179851
0.0188917
0.018558
0.017085
0.0143232
0.0109511
0.00774383
0.00512697
0.00383705
0.00399931
0.00397842
0.00306337
0.00796576
0.00564031
0.0106068
0.0156457
0.0187409
0.0200221
0.0198063
0.0187575
0.0175669
0.0164765
0.0157708
0.015607
0.0160182
0.0173476
0.0187504
0.0200291
0.021259
0.0217881
0.0210528
0.0189912
0.0155708
0.0117697
0.00825669
0.0057591
0.00485935
0.00593209
0.00750175
0.00761331
0.00598689
0.0118384
0.00388547
0.00517339
0.00755485
0.0099783
0.0119216
0.0131903
0.0136919
0.0133756
0.0125986
0.0115919
0.0108516
0.0107858
0.0114954
0.0125196
0.0133916
0.0136693
0.0131641
0.0118912
0.0104754
0.00947543
0.00856218
0.0073107
0.00575675
0.00421879
0.00334024
0.00416619
0.00573373
0.0068256
0.00736807
0.00468494
0.00262673
0.00248423
0.00401881
0.00627248
0.00863777
0.0110281
0.0131115
0.0143477
0.0145351
0.0141861
0.0132636
0.0122576
0.0112078
0.0105573
0.0105215
0.0108901
0.0114547
0.0119754
0.0120638
0.0116721
0.0105014
0.00869176
0.00644677
0.00414608
0.00212953
0.000573102
0.000179707
0.000126525
0.000117192
1.41678e-05
0.0029756
0.00336882
0.00349187
0.00351691
0.00338674
0.00305512
0.00259729
0.00217207
0.00211848
0.00259479
0.00334664
0.00396319
0.00429267
0.0033865
0.00186314
0.00473539
0.00379188
0.00307254
0.0029838
0.00324878
0.00355503
0.00385675
0.0042577
0.00490554
0.00589255
0.00726551
0.00876408
0.0100495
0.0105815
0.0102975
0.00921607
0.00796636
0.00658894
0.00541375
0.00446559
0.00440511
0.00534092
0.00669945
0.0081344
0.00964778
0.0108539
0.0112956
0.0102772
0.00302929
0.00244683
0.00566522
0.00468119
0.00347507
0.00258249
0.00257894
0.00345617
0.00496396
0.00670332
0.00843493
0.00995316
0.0112321
0.0119861
0.0120947
0.0116695
0.0109474
0.00988154
0.00886109
0.00803064
0.00766534
0.00777934
0.00830387
0.00905462
0.00979404
0.0105398
0.0114005
0.0123031
0.0127896
0.0121934
0.0050882
0.00185745
0.00854791
0.00716264
0.00569928
0.00477308
0.00470991
0.00553846
0.00702277
0.00887965
0.0108269
0.0128111
0.014838
0.0165927
0.0177638
0.017915
0.0165944
0.0142827
0.011239
0.00791906
0.00619981
0.00742516
0.00985004
0.0123592
0.0150167
0.0172431
0.0186458
0.0181567
0.0150749
0.0103338
0.00263874
0.0168222
0.0100696
0.0127875
0.0151192
0.0161555
0.0160031
0.0148265
0.013497
0.0116729
0.010064
0.00818834
0.0069963
0.0067426
0.00755041
0.00909022
0.0108873
0.0130016
0.0155065
0.0175191
0.0195674
0.0206672
0.0193603
0.016418
0.012692
0.00913764
0.00622555
0.00422317
0.00414618
0.00428123
0.00336469
0.00534409
0.00327349
0.00276205
0.00276306
0.00353443
0.00479045
0.00630095
0.0080367
0.0101088
0.0121307
0.0137581
0.0145489
0.0144022
0.0131579
0.0115122
0.00933116
0.00726681
0.00574296
0.00595484
0.00736391
0.00900484
0.0104059
0.0114803
0.012144
0.0125312
0.012377
0.0116261
0.0101264
0.00807144
0.00538821
0.00263354
0.00287171
0.00412509
0.00609386
0.00864123
0.0113389
0.0134724
0.0145335
0.0146019
0.0138301
0.0125238
0.0110181
0.00931591
0.0078915
0.00699554
0.00719543
0.00861688
0.0100533
0.0113004
0.012435
0.013072
0.0135468
0.013727
0.0130134
0.0114029
0.00895572
0.00623769
0.00422868
0.00321056
0.00738893
0.00274386
0.00781341
0.0107621
0.0130522
0.0141686
0.0141164
0.0134917
0.0121466
0.0107414
0.00903271
0.0076556
0.00646212
0.00605544
0.00693251
0.00844355
0.010045
0.0117856
0.0130625
0.0144051
0.0151848
0.0150316
0.0138865
0.0116879
0.00882613
0.00604981
0.00420884
0.00359624
0.00355815
0.00328692
0.0123322
0.00623858
0.0135924
0.0153588
0.0159936
0.0156539
0.0143145
0.0127916
0.0110667
0.00948745
0.00815428
0.00748221
0.00793958
0.00946948
0.0111372
0.0130181
0.0143454
0.0159537
0.0166375
0.016932
0.0157713
0.0133674
0.0102232
0.0071733
0.00478614
0.00360886
0.00371857
0.00394264
0.00347661
0.0027871
0.0108217
0.00968486
0.00376693
0.00621634
0.00994622
0.0138581
0.0166001
0.0176637
0.0173383
0.0159398
0.013952
0.0116297
0.00957867
0.00784115
0.00717831
0.00813671
0.0101939
0.0122814
0.0146923
0.0166913
0.0180912
0.0186826
0.0176529
0.0150852
0.0117445
0.00835116
0.00554327
0.0041698
0.00413545
0.00418572
0.00460275
0.00825678
0.00681792
0.0122088
0.0171073
0.0196184
0.0200055
0.0189991
0.0170481
0.0151617
0.0129793
0.0114237
0.010537
0.0115919
0.0134371
0.0160661
0.0179731
0.0201225
0.021493
0.0217321
0.0201088
0.0170649
0.0130402
0.00923646
0.0062987
0.00514332
0.00636369
0.00815907
0.00841697
0.00709149
0.0177614
0.00340709
0.00609543
0.00835119
0.0105604
0.0122289
0.0131428
0.0132141
0.0123439
0.0109462
0.00929836
0.00807552
0.00819194
0.00967916
0.0116519
0.0131858
0.0138996
0.0135871
0.0123842
0.0108757
0.00985914
0.00884534
0.00747146
0.00580721
0.00427192
0.0038726
0.00510363
0.00639486
0.00719274
0.00764539
0.00485907
0.00333451
0.00293995
0.00486193
0.00716039
0.00956327
0.0119311
0.013612
0.0143888
0.0140699
0.0131394
0.0116365
0.0100435
0.00856269
0.00773538
0.00812642
0.00926141
0.010605
0.011772
0.0122659
0.0120131
0.0109401
0.00914523
0.00683311
0.00441633
0.00234453
0.000796985
0.000269639
0.000199717
0.000215205
3.76273e-05
0.00258583
0.00334924
0.0034717
0.00352055
0.00337278
0.00300198
0.00247431
0.00199971
0.0019307
0.00249491
0.00340337
0.00415638
0.00452148
0.00423978
0.00201693
0.00523157
0.00415197
0.00308878
0.00271308
0.00288535
0.00318357
0.0034962
0.00393154
0.00467773
0.00584275
0.00738513
0.00906991
0.0103752
0.0109054
0.0103979
0.00915029
0.00765443
0.0060672
0.00450451
0.00315041
0.00285058
0.00419382
0.00602856
0.00798187
0.00983991
0.0112922
0.011746
0.010776
0.00269549
0.00272738
0.00604005
0.00497344
0.00361929
0.00249269
0.00239239
0.00332425
0.00490748
0.00673135
0.00848898
0.0101116
0.011465
0.0123179
0.0123799
0.0118997
0.0108398
0.00940556
0.00775093
0.00633356
0.00531156
0.00531628
0.00641478
0.00775008
0.00902816
0.0102252
0.0114032
0.0125464
0.0133565
0.0130582
0.00459771
0.0021165
0.00923471
0.00790193
0.0061637
0.00471154
0.00425799
0.00494897
0.00653693
0.00857968
0.010706
0.0127837
0.0148043
0.0166588
0.0179248
0.0181579
0.0169163
0.0145087
0.0111501
0.00753894
0.00511095
0.00592268
0.00842717
0.0113794
0.01437
0.0170128
0.0185423
0.0180781
0.0149121
0.0101867
0.00233109
0.0164799
0.0101731
0.0130605
0.015402
0.0163315
0.0162568
0.0149849
0.0135334
0.0116743
0.00981259
0.00738744
0.00550775
0.00472505
0.00545128
0.00701279
0.0091639
0.0114846
0.0141184
0.0166424
0.0192
0.0200908
0.0194674
0.0169104
0.0131247
0.0098665
0.00705334
0.00505878
0.0046357
0.00453615
0.00373679
0.00681899
0.00357081
0.00292057
0.0028452
0.00358973
0.00479485
0.00628568
0.00808862
0.0102664
0.0124762
0.0143416
0.0151529
0.0150854
0.0139059
0.0120909
0.00958948
0.00705866
0.00448262
0.00364198
0.00542918
0.00749416
0.00917098
0.0105296
0.0114833
0.0120634
0.012206
0.0117338
0.0105033
0.00859723
0.00458835
0.00263449
0.00336045
0.00454045
0.00654864