/*--------------------------------*- C++ -*----------------------------------*\
| =========                 |                                                 |
| \\      /  F ield         | OpenFOAM: The Open Source CFD Toolbox           |
|  \\    /   O peration     | Version:  2.1.1                                 |
|   \\  /    A nd           | Web:      www.OpenFOAM.org                      |
|    \\/     M anipulation  |                                                 |
\*---------------------------------------------------------------------------*/
FoamFile
{
    version     2.0;
    format      ascii;
    class       volScalarField;
    location    "0.006450000";
    object      rhoUnburned;
}
// * * * * * * * * * * * * * * * * * * * * * * * * * * * * * * * * * * * * * //

dimensions      [1 -3 0 0 0 0 0];

internalField   nonuniform List<scalar> 
12384
(
2.52009
2.56358
2.57761
2.5728
2.57013
2.55962
2.55328
2.53337
2.5194
2.50318
2.49157
2.48769
2.46466
2.29811
4.41878
4.11403
3.92733
3.80209
3.72671
3.70203
3.70317
3.70692
3.71417
3.72791
3.74584
3.77681
3.8019
3.83661
3.86921
3.90004
3.93409
3.95266
3.96331
3.94896
3.94358
3.91295
3.88175
3.83561
3.78166
3.72318
3.67341
3.75802
4.37488
4.52731
4.32882
4.09263
4.09606
4.21789
4.34231
4.44401
4.52842
4.56999
4.61558
4.61843
4.64365
4.63764
4.64525
4.64809
4.65606
4.66392
4.69815
4.69152
4.7303
4.72383
4.74482
4.7333
4.7297
4.71783
4.69495
4.67768
4.56448
4.26428
4.21935
4.24268
5.0418
5.09718
4.98457
4.88916
4.83753
4.8208
4.77596
4.77163
4.75187
4.73234
4.7232
4.71735
4.71187
4.71613
4.73283
4.75426
4.78126
4.79187
4.79141
4.75598
4.76489
4.70287
4.66622
4.60128
4.55016
4.48043
4.64453
4.89904
4.88666
4.82523
4.67531
4.42079
4.3637
4.36231
4.38087
4.41654
4.44984
4.50905
4.52341
4.61198
4.59574
4.68593
4.63537
4.70247
4.70123
4.61089
4.60745
4.50247
4.44047
4.40187
4.69198
5.10685
5.0877
5.13021
5.0885
5.02809
5.02265
4.97993
4.97689
4.99505
4.66643
4.7002
4.72945
4.67711
4.66204
4.67459
4.72991
4.73153
4.73644
4.71693
4.69999
4.67954
4.69174
4.68444
4.75752
4.71746
4.84586
4.80122
4.92942
4.90845
4.97355
4.97101
5.00126
4.98777
4.96364
4.87151
4.76693
4.70656
4.77265
4.74635
6.49388
6.85858
7.00903
6.75385
6.62671
6.55764
6.48435
6.43141
6.4083
6.40825
6.43821
6.49095
6.53797
6.59681
6.68659
6.54715
6.73064
6.48329
6.56618
6.32359
6.30051
6.11659
6.01097
5.94178
6.45055
6.32257
6.37517
6.40303
6.43344
6.47329
5.90932
5.56276
5.21983
5.00028
4.93431
4.87872
4.96349
4.91853
5.07858
5.01467
5.179
5.13713
5.22444
5.17892
5.14252
5.09322
4.99122
4.97025
4.88605
4.91029
4.91489
5.08721
5.17699
5.25231
5.26057
5.25059
5.23033
5.20516
5.1904
5.18929
5.32403
5.05936
4.98863
5.01309
5.04074
5.10843
5.12579
5.25218
5.2522
5.34908
5.33491
5.3595
5.35837
5.25142
5.21418
5.1386
5.11525
5.08371
4.99334
5.07717
5.15403
5.15072
5.16414
5.15267
5.15264
5.14199
5.14632
5.15824
5.15334
5.12411
5.61231
5.38879
5.17199
5.09474
5.12173
5.20118
5.30545
5.41484
5.5263
5.62065
5.76331
5.84239
5.8816
5.85913
5.82191
5.80002
5.53959
5.4244
5.32681
5.16002
5.2532
5.43212
5.44231
5.34437
5.28414
5.27729
5.25268
5.25001
5.26001
5.277
5.84722
5.64189
5.52892
5.45143
5.43313
5.47235
5.53376
5.60062
5.67203
5.80461
5.82026
5.91217
5.81842
5.81615
5.62309
5.54
5.43734
5.40378
5.40819
5.51665
5.56991
5.5357
5.44386
5.38381
5.31102
5.29442
5.2937
5.32249
5.39122
5.46313
7.73065
7.78008
7.78152
7.61936
7.09773
7.35331
7.23278
7.01163
6.84636
6.71251
6.64221
6.54373
6.53401
6.53297
6.57738
6.67039
6.80932
6.9751
7.16304
7.32068
7.43557
7.47008
7.49187
7.47916
7.49833
7.51178
7.48607
7.42587
7.30465
7.11869
7.26522
7.23947
7.33438
7.52831
7.86043
8.39368
8.28584
5.74091
4.27971
4.50254
4.61577
4.67119
4.70341
4.718
4.73736
4.76035
4.80897
4.88481
4.99055
5.13001
5.29257
5.39471
5.37497
5.14417
4.80392
4.45304
4.22865
4.12497
4.14206
5.53482
2.73201
2.71467
2.69323
2.70912
2.74699
2.77045
2.7645
2.73014
2.64975
2.56391
2.48959
2.45975
2.44898
2.32194
4.41672
4.06127
3.80105
3.64597
3.62619
3.67003
3.71391
3.74826
3.79375
3.84816
3.91514
3.97578
4.05072
4.12338
4.20826
4.25697
4.29758
4.31031
4.32044
4.31935
4.31199
4.27969
4.20587
4.09918
3.96246
3.8299
3.71245
3.70387
4.00559
4.34734
4.29953
4.08488
4.13619
4.28507
4.40208
4.4763
4.51138
4.53802
4.58726
4.6025
4.61889
4.60969
4.60326
4.58489
4.58237
4.57809
4.57889
4.58158
4.59634
4.6164
4.62531
4.64826
4.66937
4.69242
4.71069
4.70888
4.65841
4.45004
4.22212
4.19645
5.03761
5.0548
4.90092
4.80213
4.75706
4.7511
4.7294
4.73498
4.73886
4.73518
4.7388
4.75054
4.76327
4.78014
4.8092
4.84077
4.8735
4.89926
4.90911
4.90131
4.8801
4.82969
4.78556
4.7314
4.67353
4.59224
4.56297
4.72544
4.84848
4.77107
4.75596
4.45283
4.36787
4.40846
4.47094
4.52597
4.55956
4.61282
4.60961
4.67343
4.65508
4.70061
4.66934
4.68223
4.6585
4.61428
4.57286
4.53524
4.48545
4.41848
4.52171
4.80309
5.03324
5.12024
5.08637
5.03606
4.97763
4.91953
4.88502
4.89599
4.66934
4.70853
4.73237
4.69075
4.754
4.82453
4.84141
4.77142
4.70371
4.61335
4.54907
4.50117
4.46044
4.42427
4.44326
4.42289
4.4555
4.46616
4.53579
4.57985
4.64721
4.74941
4.83926
4.9365
4.96774
4.95393
4.84208
4.74517
4.68674
4.69691
6.55437
6.78067
6.31659
6.32661
6.35572
6.22997
6.05061
5.94271
5.91274
5.93558
5.9879
6.05554
6.12559
6.18846
6.20308
6.25933
6.33781
6.24361
6.34878
6.34298
6.35726
6.28268
6.17158
5.96697
6.18384
6.42115
6.50806
6.50595
6.4671
6.59805
5.40466
5.01204
4.82091
4.77777
4.80267
4.85455
4.90848
4.96818
5.04214
5.07484
5.17228
5.17982
5.22679
5.21578
5.18462
5.17075
5.09203
5.08588
4.96812
4.94826
4.89118
4.96896
5.13808
5.29807
5.32597
5.30472
5.24324
5.1819
5.10854
5.0428
5.08772
5.02639
5.08778
5.14665
5.20453
5.27749
5.31963
5.42964
5.44516
5.51035
5.54969
5.55124
5.49771
5.47477
5.38723
5.33246
5.25795
5.17123
5.05588
4.99533
5.11826
5.14576
5.14227
5.1192
5.08643
5.0295
5.02132
5.05055
5.1489
5.15799
5.65988
5.43313
5.11135
5.09956
5.29881
5.47755
5.65729
5.8486
6.02058
6.17993
6.36608
6.49587
6.52926
6.61828
6.50776
6.25827
5.98676
5.84081
5.56128
5.27696
5.2031
5.29136
5.38151
5.30387
5.22018
5.21933
5.21653
5.18969
5.14725
5.15086
5.93657
5.69781
5.47656
5.42022
5.46246
5.56104
5.66857
5.83954
5.93224
6.10833
6.16484
6.19638
6.22782
6.09524
6.00158
5.8524
5.67674
5.52631
5.40567
5.41532
5.52567
5.43514
5.30235
5.23987
5.21933
5.23634
5.27071
5.29414
5.29035
5.39643
7.40058
7.64634
7.47869
7.17361
7.1674
7.07953
6.63553
6.21394
5.92991
5.73417
5.65274
5.66626
5.68568
5.75271
5.8343
5.93709
6.07441
6.25973
6.48022
6.72908
6.92643
7.12647
7.24418
7.29113
7.27376
7.21339
7.2208
7.25398
7.24869
7.11242
5.94943
5.86366
5.84502
6.2425
7.84094
8.12827
6.81349
4.49887
4.3373
4.4511
4.42237
4.34691
4.28093
4.23615
4.22177
4.23057
4.25911
4.31498
4.41939
4.61259
4.93135
5.39494
5.80529
5.65547
5.0114
4.47454
4.16121
4.11044
4.15795
5.95235
2.74749
2.72585
2.82835
2.94026
2.99337
3.00459
2.98992
2.98222
2.94205
2.82893
2.63596
2.48289
2.43609
2.33246
4.41288
3.98965
3.68531
3.59108
3.66142
3.76031
3.81992
3.87276
3.93161
3.99809
4.05637
4.12004
4.18884
4.25817
4.32466
4.3353
4.34939
4.31854
4.31466
4.30126
4.3187
4.31202
4.31003
4.26044
4.13313
3.95706
3.77979
3.68092
3.81417
4.17331
4.28339
4.08091
4.14069
4.2416
4.27518
4.27283
4.33272
4.43044
4.54065
4.58061
4.59906
4.57773
4.56116
4.52611
4.50244
4.46024
4.44314
4.43548
4.43812
4.44038
4.47193
4.49644
4.52892
4.57804
4.64081
4.69588
4.7075
4.59799
4.32159
4.18135
5.0349
5.00664
4.8284
4.75475
4.73191
4.73656
4.74709
4.74276
4.74814
4.75288
4.75045
4.75671
4.77114
4.7987
4.83195
4.86652
4.90585
4.91999
4.9254
4.91534
4.89848
4.87862
4.85374
4.80095
4.75366
4.68108
4.60088
4.62795
4.7776
4.76996
4.63209
4.39497
4.40088
4.4801
4.55344
4.60682
4.61059
4.61804
4.58132
4.588
4.52252
4.53418
4.47941
4.47287
4.44894
4.43312
4.44569
4.45257
4.48251
4.47329
4.45142
4.58654
4.87296
5.05479
5.06957
5.04043
4.96272
4.86704
4.82263
4.82032
4.67431
4.7139
4.73374
4.75847
4.89042
4.85786
4.78772
4.64305
4.56593
4.48446
4.43838
4.38114
4.32906
4.29729
4.27277
4.22212
4.24078
4.23384
4.25392
4.28156
4.36237
4.4531
4.60953
4.76622
4.92528
4.9818
4.94446
4.83409
4.71228
4.66989
6.65842
6.31144
6.25975
6.48123
6.04632
5.67232
5.60119
5.67338
5.77931
5.87424
5.948
5.9987
6.01726
6.02174
6.0584
6.0255
6.05632
5.97792
6.07619
6.12377
6.28629
6.30231
6.31746
6.13161
6.03814
6.35043
6.56798
6.46021
6.33433
6.57572
4.92186
4.77162
4.77368
4.82391
4.86621
4.90434
4.94676
5.00142
5.02134
5.09237
5.12961
5.14601
5.19546
5.17605
5.17453
5.16598
5.10618
5.10537
5.06359
5.01054
4.95461
4.93289
5.03395
5.26937
5.35651
5.33622
5.27619
5.20399
5.09989
4.9581
5.01637
5.11184
5.19731
5.24762
5.27414
5.3281
5.36555
5.43349
5.452
5.53181
5.51991
5.54505
5.54049
5.53358
5.45015
5.43406
5.35911
5.30307
5.1702
5.03318
5.03133
5.12017
5.11606
5.09465
5.05127
4.98267
4.86475
4.76752
4.94604
5.16566
5.56156
5.35353
5.04142
5.25522
5.47888
5.72045
5.90954
6.08743
6.2914
6.48038
6.55305
6.67429
6.81962
6.80976
6.74588
6.55592
6.45431
6.17813
5.83342
5.59049
5.33713
5.21494
5.29696
5.33377
5.25404
5.26798
5.27198
5.2176
5.10022
5.06638
5.96826
5.57658
5.42134
5.44185
5.55266
5.71751
5.836
6.05359
6.16801
6.36307
6.35837
6.43658
6.38006
6.33896
6.23417
6.10182
5.95466
5.74791
5.55022
5.42378
5.46679
5.43355
5.29665
5.23784
5.24564
5.33653
5.44313
5.47382
5.37761
5.32589
7.18767
7.2038
7.12098
7.10152
6.98329
6.50366
5.96317
5.58271
5.39613
5.33475
5.31836
5.34594
5.445
5.57521
5.71855
5.84833
5.98082
6.15295
6.39435
6.70644
6.94793
7.0948
7.16205
7.17312
7.11226
7.00776
6.95914
7.02229
7.16641
7.11751
6.50597
6.25588
6.12569
7.20423
7.85284
7.23631
4.63217
4.26458
4.32151
4.27398
4.17037
4.09873
4.06194
4.0501
4.05153
4.06119
4.08252
4.11606
4.1583
4.21056
4.3462
4.69055
5.39521
5.9001
5.4021
4.59217
4.20411
4.15529
4.39465
7.16718
2.76371
2.88154
3.05902
3.08875
3.01961
2.94205
2.91093
2.9365
2.99584
2.98348
2.83637
2.5738
2.43767
2.331
4.39451
3.91536
3.61494
3.59508
3.73379
3.83528
3.87604
3.91404
3.95607
3.99602
4.04188
4.0909
4.16402
4.25491
4.30716
4.25149
4.12042
3.98708
3.88795
3.85558
3.86695
3.94458
4.0315
4.11351
4.09898
4.00649
3.82516
3.67825
3.72799
4.05446
4.27344
4.06488
4.0989
4.12997
4.09896
4.12712
4.28315
4.48203
4.56235
4.60633
4.60737
4.58083
4.5336
4.47433
4.40425
4.354
4.31921
4.30095
4.29227
4.31509
4.32392
4.35874
4.3992
4.44847
4.52422
4.62865
4.70744
4.66921
4.43672
4.20046
5.03507
4.97121
4.79596
4.73847
4.73737
4.74215
4.74787
4.7396
4.72807
4.72593
4.72549
4.72235
4.74686
4.7916
4.84131
4.88988
4.91253
4.91146
4.88519
4.85868
4.84859
4.84222
4.83905
4.82562
4.80443
4.74351
4.65246
4.60897
4.71644
4.76805
4.39327
4.37818
4.44952
4.55018
4.6201
4.63213
4.6329
4.58527
4.50153
4.44067
4.34336
4.2911
4.20099
4.1617
4.13362
4.16812
4.21395
4.30895
4.40027
4.44155
4.42565
4.5182
4.69213
4.94529
5.08158
5.01321
4.92862
4.89211
4.78064
4.72992
4.67494
4.71923
4.76037
4.86867
4.9065
4.80227
4.68832
4.59535
4.54702
4.50238
4.45255
4.37059
4.32137
4.23414
4.15598
4.09617
4.07244
4.02321
4.03851
4.08043
4.12691
4.23155
4.36364
4.58581
4.7847
4.96355
4.99735
4.91559
4.76992
4.66995
6.59346
6.09437
6.65657
5.94693
5.41799
5.44052
5.64494
5.87825
6.03359
6.08195
6.05183
5.97346
5.87637
5.81133
5.74351
5.8109
5.77397
5.84004
5.86616
5.9091
6.10669
6.27727
6.33647
6.28458
6.08953
6.17786
6.50112
6.51719
6.30216
6.53376
4.71117
4.75998
4.82144
4.86016
4.87808
4.93186
4.88475
4.98531
4.92792
5.01698
4.98847
5.05905
5.06432
5.08324
5.08593
5.09385
5.08889
5.07482
5.06903
5.05925
5.01052
4.95557
4.96875
5.16635
5.32477
5.32932
5.2438
5.17773
5.09471
4.94154
5.15351
5.21053
5.24987
5.2559
5.29052
5.32894
5.34018
5.39323
5.45092
5.4547
5.51298
5.50977
5.49384
5.48686
5.46236
5.47
5.4031
5.38082
5.26147
5.11061
5.00244
5.06502
5.10831
5.06498
5.08951
5.05239
4.83064
4.56413
4.61303
5.01894
5.58519
5.12925
5.11456
5.38882
5.60947
5.8279
6.10492
6.25658
6.3889
6.51209
6.63115
6.6662
6.74115
6.743
6.6537
6.7389
6.58469
6.27106
6.13234
5.90288
5.51509
5.3001
5.27193
5.29297
5.25658
5.26649
5.301
5.25138
5.05336
4.98445
5.85567
5.44256
5.41017
5.5072
5.6883
5.88411
6.05006
6.26371
6.39065
6.48621
6.63505
6.62784
6.67906
6.51441
6.43278
6.29816
6.15308
5.96799
5.7292
5.51123
5.45751
5.4488
5.35452
5.29685
5.316
5.4521
5.62547
5.66873
5.51242
5.3676
6.96943
6.96074
7.01893
6.98816
6.58994
5.96429
5.4754
5.20691
5.06886
5.0013
4.9705
5.02767
5.15631
5.36814
5.61442
5.84168
6.01602
6.22028
6.51714
6.92781
7.11922
7.14728
7.18532
7.149
7.08536
6.94127
6.81583
6.87262
7.07287
7.12411
6.78647
6.68959
7.42782
7.63049
7.43955
4.98843
4.20454
4.21073
4.20403
4.10182
4.03355
4.00355
3.98984
3.97682
3.98316
3.9988
4.03435
4.08954
4.15324
4.20657
4.23376
4.28523
4.70868
5.75775
6.08351
5.12398
4.55105
4.47194
5.27269
7.55902
2.85775
3.07068
3.12412
2.97258
2.74609
2.62915
2.6147
2.67734
2.81002
2.9484
2.92421
2.67362
2.45089
2.32864
4.40671
3.86272
3.57615
3.61497
3.79359
3.86577
3.89029
3.91403
3.93112
3.95528
3.95922
3.98633
4.10528
4.22912
4.20025
3.98758
3.75215
3.55659
3.45579
3.4006
3.40993
3.463
3.5904
3.74936
3.89388
3.91592
3.80758
3.67262
3.68184
3.98343
4.27931
4.05887
4.04648
4.02614
3.98501
4.06661
4.36338
4.52497
4.58376
4.61172
4.6134
4.56334
4.49441
4.38786
4.30094
4.2424
4.22037
4.20016
4.21597
4.20611
4.24024
4.26833
4.29925
4.34605
4.42257
4.54055
4.68379
4.70692
4.51874
4.22505
5.00026
4.94918
4.77511
4.73018
4.73637
4.75807
4.74031
4.72286
4.71778
4.6957
4.69205
4.69699
4.72493
4.79439
4.86833
4.9022
4.90697
4.88845
4.81604
4.78066
4.76454
4.77867
4.79536
4.80389
4.82023
4.78074
4.69543
4.61886
4.69663
4.75626
4.36559
4.41634
4.49914
4.5983
4.6589
4.64932
4.6212
4.5074
4.42346
4.29281
4.19689
4.08418
4.01258
3.9402
3.89365
3.91154
3.98503
4.13897
4.26418
4.35804
4.44013
4.45569
4.56511
4.8742
5.04648
4.99076
4.94799
4.85887
4.7971
4.70721
4.6804
4.73591
4.81192
4.92418
4.87506
4.76082
4.666
4.63425
4.61108
4.55886
4.48599
4.40766
4.31688
4.15977
4.06152
3.95193
3.85493
3.80257
3.82685
3.85867
3.94758
4.02818
4.18669
4.37677
4.64819
4.88284
5.00426
4.96749
4.82233
4.68116
6.50855
6.32355
6.43899
5.30674
5.28855
5.55747
5.91005
6.14376
6.21435
6.12301
5.90497
5.68095
5.47709
5.35982
5.3415
5.32409
5.43474
5.49649
5.65071
5.73812
5.90582
6.16277
6.35949
6.33938
6.21532
6.1217
6.34229
6.41661
6.30322
6.44738
4.67565
4.77933
4.8517
4.87835
4.85114
4.90067
4.84923
4.90697
4.85209
4.96674
4.90397
5.01439
5.00581
5.04248
5.02251
5.03655
5.05025
5.04229
5.0446
5.07454
5.0408
4.99959
4.95719
5.06386
5.21266
5.23343
5.16368
5.08876
5.02762
4.92789
5.21209
5.23894
5.24458
5.26153
5.30827
5.30869
5.33868
5.43325
5.40775
5.43724
5.43845
5.45329
5.48017
5.48786
5.4259
5.43654
5.41009
5.41643
5.33528
5.19134
5.02757
5.01785
5.07526
5.05154
5.07468
5.07476
4.78224
4.46356
4.40466
4.81627
5.40127
4.86585
5.27002
5.42565
5.70827
5.9881
6.16886
6.36901
6.46618
6.38541
6.55743
6.51158
6.54362
6.59191
6.61403
6.59806
6.42955
6.4423
6.32942
6.01503
5.71077
5.46611
5.28676
5.28139
5.30985
5.29937
5.32639
5.2548
5.02122
4.93987
5.56429
5.38175
5.43303
5.62318
5.86869
6.04212
6.24859
6.4145
6.478
6.66641
6.61375
6.64597
6.54712
6.58797
6.50465
6.4407
6.29819
6.14938
5.90856
5.65419
5.4951
5.47939
5.41706
5.36816
5.37831
5.57199
5.77423
5.83074
5.66517
5.40669
6.84027
6.865
6.96566
6.79765
6.19168
5.57199
5.15481
4.93079
4.76895
4.65341
4.60507
4.66973
4.84498
5.12898
5.47109
5.79876
6.05908
6.28747
6.68857
7.08477
7.16737
7.18827
7.25625
7.2182
7.12628
6.95361
6.76749
6.8138
7.02212
7.11129
6.81406
7.1687
7.65609
7.49421
5.8152
4.30886
4.10882
4.1502
4.08629
4.00242
3.97005
3.94852
3.93458
3.93353
3.92847
3.93189
3.94908
3.99929
4.10338
4.23797
4.29763
4.27289
4.28752
5.01192
6.4495
5.88504
5.48684
5.43288
7.02355
7.90129
2.96369
3.15953
3.0333
2.69446
2.51532
2.48899
2.49888
2.54602
2.66581
2.85903
2.93068
2.72244
2.45743
2.31644
4.37408
3.81586
3.5563
3.62179
3.80791
3.87428
3.89248
3.90191
3.90271
3.84303
3.75428
3.7862
4.0082
4.17532
4.04404
3.71891
3.45548
3.30665
3.22428
3.17038
3.14747
3.1652
3.23793
3.39465
3.59304
3.74028
3.72861
3.64104
3.64971
3.94917
4.30013
4.03244
3.9887
3.94978
3.91641
4.10464
4.42598
4.55826
4.58175
4.61761
4.61102
4.55502
4.43555
4.30142
4.22385
4.19472
4.17216
4.19773
4.18915
4.2117
4.20798
4.20847
4.24201
4.27944
4.34044
4.462
4.63471
4.71555
4.56767
4.24349
5.03304
4.95888
4.79555
4.74849
4.76897
4.76834
4.74962
4.72984
4.70734
4.69924
4.66778
4.67621
4.71578
4.80905
4.88013
4.9227
4.91748
4.83403
4.76665
4.76371
4.73504
4.73193
4.77097
4.78675
4.81939
4.80848
4.71789
4.64723
4.69576
4.77016
4.39386
4.45948
4.55545
4.61813
4.6795
4.64662
4.61871
4.43292
4.3958
4.18282
4.07931
3.98005
3.86949
3.78439
3.72805
3.75368
3.8233
3.97354
4.10756
4.31738
4.38846
4.38859
4.53081
4.77531
4.95177
5.00563
4.91016
4.83721
4.78936
4.65989
4.68299
4.74043
4.84901
4.92712
4.8527
4.74676
4.7091
4.69132
4.68287
4.61945
4.55981
4.45261
4.3048
4.14538
3.98357
3.78531
3.66282
3.62647
3.60633
3.66935
3.76918
3.90765
4.03929
4.2554
4.52248
4.79987
4.98994
4.9841
4.8595
4.6944
6.41267
6.46943
5.63345
5.17768
5.32254
5.68668
6.10186
6.2979
6.25778
6.02528
5.71629
5.39774
5.20937
5.08552
5.01344
5.01939
5.10522
5.21796
5.39749
5.58624
5.77003
6.03196
6.3349
6.42892
6.25551
6.1641
6.2368
6.33153
6.28067
6.24281
4.69014
4.81425
4.83997
4.87175
4.85687
4.86621
4.81536
4.86885
4.81918
4.91667
4.91678
5.01441
4.99673
5.01569
5.03412
4.9833
4.99966
5.03013
4.99578
5.05976
5.06782
5.01859
4.97519
5.00466
5.10189
5.1141
5.0781
5.01556
4.9561
4.89552
5.22751
5.2359
5.24629
5.28265
5.30946
5.32629
5.39304
5.38558
5.34244
5.44448
5.42747
5.43236
5.39826
5.42318
5.40446
5.42436
5.38124
5.4309
5.36195
5.25492
5.07392
4.98438
5.03122
5.03905
5.03398
4.9875
4.64112
4.40773
4.35281
4.64051
5.33033
4.94871
5.28912
5.4766
5.8003
6.07796
6.23611
6.32579
6.41125
6.37774
6.47968
6.37458
6.47362
6.45158
6.40837
6.34286
6.44383
6.52766
6.28147
6.11678
5.94506
5.57666
5.34756
5.29628
5.30306
5.29657
5.34969
5.18021
5.01981
4.94865
5.35072
5.3123
5.50674
5.78226
6.02875
6.16858
6.38777
6.46044
6.52925
6.46674
6.41824
6.44226
6.60647
6.55682
6.53555
6.58598
6.4026
6.25503
6.08339
5.78632
5.57658
5.48889
5.46334
5.39783
5.43647
5.64818
5.85237
5.9226
5.75478
5.48742
6.74955
6.82621
6.93271
6.58239
5.88653
5.30257
4.93425
4.71806
4.53709
4.42122
4.39399
4.4412
4.58417
4.87918
5.32424
5.77511
6.08396
6.36458
6.80794
7.11634
7.15132
7.18858
7.34108
7.39377
7.25688
6.99672
6.74853
6.82087
7.00726
7.10305
6.79497
7.281
7.55371
6.59148
4.73944
4.10774
4.07667
4.08123
4.0078
3.95185
3.93433
3.92537
3.93827
3.93632
3.92552
3.91841
3.92566
3.9427
4.03206
4.1702
4.3505
4.38326
4.2469
4.39981
6.2084
6.7521
6.54404
7.05944
7.52033
8.14886
3.03594
3.16405
2.81721
2.50715
2.46537
2.5056
2.5032
2.50757
2.6021
2.80074
2.91058
2.70881
2.43896
2.31222
4.4157
3.80192
3.51662
3.60745
3.81073
3.87983
3.89975
3.89167
3.77737
3.57339
3.44209
3.54423
3.91504
4.11531
3.87471
3.51208
3.31334
3.2029
3.12368
3.04954
3.01075
2.998
3.03651
3.14761
3.34698
3.54148
3.61769
3.59167
3.62542
3.94418
4.31542
4.04708
3.9644
3.9134
3.89785
4.14627
4.48371
4.5527
4.58208
4.61026
4.61875
4.5203
4.37523
4.24337
4.1991
4.17493
4.20612
4.22414
4.24445
4.22114
4.21508
4.2263
4.21654
4.23442
4.28989
4.41882
4.61591
4.71433
4.58571
4.25377
4.95048
4.95803
4.77777
4.73278
4.75441
4.76187
4.74282
4.74323
4.72092
4.70389
4.67588
4.65707
4.68946
4.80354
4.89028
4.96156
4.89551
4.80195
4.77742
4.7408
4.71469
4.71511
4.7497
4.78524
4.82084
4.82098
4.73355
4.66833
4.71955
4.75651
4.42718
4.49629
4.57901
4.64857
4.69473
4.6398
4.60938
4.41998
4.33344
4.111
4.04307
3.90703
3.83993
3.73107
3.66396
3.69181
3.73353
3.86203
4.06078
4.23962
4.31596
4.39887
4.49228
4.67247
4.92732
4.94521
4.89221
4.8371
4.77052
4.65498
4.67828
4.7548
4.88647
4.93292
4.83623
4.77461
4.7466
4.75816
4.73724
4.716
4.63979
4.49352
4.3614
4.18378
3.9418
3.71985
3.58295
3.52992
3.51163
3.58461
3.69001
3.80833
3.96153
4.16977
4.44417
4.75212
4.9708
4.99559
4.87662
4.69546
6.44819
6.2585
5.24298
5.12296
5.32464
5.7522
6.21466
6.4042
6.32389
5.98616
5.6176
5.22868
5.03795
4.88416
4.81986
4.83965
4.88224
5.0386
5.22809
5.4173
5.68698
5.99734
6.24881
6.46898
6.36318
6.17498
6.21115
6.22097
6.13555
5.86607
4.70238
4.81805
4.83517
4.84709
4.84362
4.83965
4.8104
4.82038
4.82016
4.9292
4.91671
5.02953
5.01185
5.02221
5.04059
5.03414
4.95057
5.00522
5.01534
5.00685
5.09539
5.03819
4.98396
4.99006
5.01856
5.04304
5.01662
4.97919
4.91499
4.88101
5.22614
5.23629
5.26266
5.291
5.32044
5.35751
5.38555
5.34262
5.35576
5.38802
5.36663
5.40556
5.37538
5.40012
5.34371
5.40967
5.35286
5.4205
5.38712
5.27626
5.12211
4.97236
4.98274
5.00775
5.02046
4.75723
4.51424
4.42455
4.41472
4.61673
5.26711
5.02214
5.26988
5.53507
5.84595
6.12349
6.23202
6.33753
6.30534
6.40326
6.42655
6.38116
6.42183
6.3705
6.34632
6.3763
6.39177
6.35709
6.31218
6.30965
5.97775
5.64929
5.4384
5.32339
5.30267
5.32924
5.32633
5.07775
5.05491
5.0241
5.2652
5.34092
5.63695
5.93095
6.14117
6.28057
6.45159
6.45447
6.39808
6.38311
6.32886
6.28734
6.13311
6.31158
6.21622
6.56075
6.49891
6.38401
6.17414
5.92491
5.6474
5.54845
5.50447
5.4389
5.47033
5.6967
5.93117
6.04632
5.94914
5.68209
6.70848
6.82371
6.91588
6.40557
5.68175
5.13779
4.78898
4.5651
4.38899
4.30109
4.28324
4.33523
4.4586
4.70689
5.19699
5.75158
6.11795
6.35695
6.89263
7.13373
7.11589
7.20877
7.36797
7.36263
7.16581
6.92138
6.79091
6.85503
7.02619
7.08101
6.68993
6.89958
7.26273
5.49573
4.29041
4.02524
4.04869
4.02139
3.95399
3.94162
3.9316
3.93785
3.92553
3.9175
3.92463
3.93275
3.94084
3.93448
3.98816
4.14198
4.3495
4.43739
4.3438
4.19471
5.43677
7.42639
7.24934
7.48584
7.90315
8.3678
3.0651
3.08478
2.63644
2.46877
2.57092
2.69114
2.58324
2.47988
2.56298
2.76076
2.85768
2.64921
2.40166
2.29016
4.41588
3.82914
3.48585
3.51829
3.71053
3.8263
3.84327
3.73403
3.47696
3.22844
3.15174
3.33495
3.84111
4.06658
3.72126
3.40753
3.2649
3.15308
3.03735
2.9368
2.89031
2.88154
2.90405
2.99709
3.18494
3.39729
3.50776
3.53995
3.62706
3.97073
4.34474
4.06128
3.94092
3.88926
3.90614
4.18762
4.50199
4.55373
4.57044
4.60969
4.6091
4.50502
4.33045
4.22271
4.17992
4.19901
4.23615
4.28969
4.26955
4.28818
4.26941
4.23409
4.23275
4.23011
4.25444
4.38022
4.61901
4.72573
4.57584
4.24963
4.98103
4.97873
4.82946
4.75686
4.78155
4.79327
4.77932
4.75974
4.73823
4.72746
4.6882
4.65781
4.66172
4.79124
4.89908
4.95448
4.89186
4.84057
4.78913
4.74841
4.71833
4.72644
4.74343
4.80839
4.81914
4.82675
4.72404
4.68533
4.7588
4.82787
4.46589
4.52668
4.58967
4.65925
4.7192
4.64672
4.5896
4.43149
4.2936
4.10407
4.0451
3.90333
3.86085
3.73054
3.69068
3.67845
3.70519
3.88761
4.00979
4.17781
4.32198
4.37893
4.4289
4.66819
4.83486
4.88871
4.87809
4.78211
4.71154
4.64377
4.69313
4.78116
4.91047
4.92792
4.847
4.79149
4.77898
4.78099
4.79471
4.78359
4.7069
4.58353
4.44679
4.234
4.01483
3.75986
3.58924
3.52831
3.50902
3.58358
3.65738
3.79002
3.93471
4.14681
4.43017
4.73733
4.95652
4.99486
4.87588
4.69172
6.43856
5.92431
5.10742
5.03643
5.24287
5.75232
6.2745
6.47806
6.41932
6.03619
5.62665
5.24868
5.02895
4.85758
4.80457
4.76778
4.82489
4.97194
5.11348
5.44052
5.57407
6.05202
6.2938
6.45463
6.41628
6.25879
6.17997
6.24045
5.76961
5.2531
4.70123
4.78711
4.83666
4.8405
4.8292
4.84428
4.83469
4.81298
4.82836
4.96319
4.89439
5.05785
4.9732
5.05688
4.99475
5.05786
4.97486
4.96078
5.04919
4.98942
5.08837
5.06928
4.99222
4.98886
4.98944
5.05198
5.02113
5.03652
5.01422
4.95529
5.19435
5.234
5.27288
5.30088
5.32821
5.37111
5.40246
5.31855
5.33951
5.34838
5.33913
5.36272
5.33848
5.35113
5.32192
5.37873
5.33561
5.39965
5.37626
5.3164
5.13749
4.97106
4.94772
4.95225
4.96664
4.5383
4.53192
4.69487
4.769
4.75353
5.20447
5.04954
5.25629
5.55276
5.8526
6.11551
6.20843
6.31754
6.34512
6.40408
6.40787
6.51199
6.46464
6.35094
6.43311
6.35634
6.31507
6.38027
6.46309
6.26377
5.99252
5.73816
5.49598
5.3416
5.32969
5.32114
5.15437
5.04491
5.17306
5.20901
5.18614
5.40106
5.75268
6.02544
6.21213
6.34812
6.50325
6.38511
6.40394
6.23273
6.17926
6.17267
6.18819
6.26894
6.23939
6.27037
6.61259
6.45679
6.2332
6.00018
5.75502
5.5757
5.53744
5.44958
5.48084
5.66732
5.91274
6.08936
6.09171
6.03221
6.66523
6.81717
6.86711
6.31079
5.56978
5.04954
4.7208
4.47624
4.32881
4.26502
4.24287
4.30901
4.40512
4.63672
5.10259
5.68409
6.10572
6.432
6.92588
7.14269
7.06121
7.16932
7.17667
7.1212
7.00621
6.86889
6.84337
6.91451
7.01755
7.05184
6.36985
6.31388
6.33655
4.83973
4.10343
3.98708
4.00997
3.99154
3.93267
3.94025
3.92334
3.92062
3.90933
3.92521
3.94961
3.93212
3.95384
3.94528
3.98328
4.14246
4.35478
4.48559
4.39652
4.17999
4.8154
7.48671
7.49188
7.75392
8.2336
8.43882
3.06504
2.96413
2.55916
2.55511
2.88738
2.99572
2.684
2.45878
2.52229
2.70483
2.74375
2.52893
2.35782
2.39739
3.03567
3.88598
4.44824
3.87273
3.45687
3.40027
3.5354
3.63227
3.57982
3.3669
3.13542
2.99729
2.99886
3.19397
3.79306
4.02235
3.6459
3.37638
3.25426
3.11385
2.9586
2.84032
2.78889
2.78636
2.81092
2.91468
3.10378
3.30315
3.42869
3.50965
3.65521
3.99114
4.30124
4.48356
4.41506
4.15721
3.981
3.90292
3.92337
4.18694
4.48809
4.54972
4.57304
4.60019
4.61264
4.4938
4.30645
4.22033
4.17279
4.23259
4.25149
4.31217
4.29004
4.29779
4.26219
4.24335
4.22051
4.24049
4.26371
4.39395
4.63269
4.7236
4.53927
4.21874
4.30473
4.65843
4.91713
4.96476
4.84426
4.7602
4.74234
4.77467
4.7453
4.73778
4.72394
4.74262
4.7247
4.65579
4.63501
4.75635
4.89335
4.93241
4.91439
4.88202
4.80943
4.79076
4.76706
4.78912
4.77263
4.82705
4.83112
4.80165
4.73555
4.71078
4.8346
4.77189
4.48847
4.4294
4.50383
4.53049
4.57838
4.64595
4.69857
4.70367
4.57618
4.47434
4.32042
4.1465
4.09282
3.97592
3.93391
3.84597
3.77114
3.73802
3.81289
3.907
4.00264
4.21376
4.30964
4.33659
4.46979
4.61942
4.7765
4.84647
4.80904
4.75615
4.71749
4.68213
4.58559
4.56803
4.55546
4.64496
4.81587
4.9154
4.87019
4.79989
4.76786
4.76237
4.7942
4.80027
4.79624
4.67627
4.51875
4.34199
4.14577
3.87035
3.69784
3.59953
3.58673
3.62198
3.70317
3.81601
3.96248
4.19172
4.47087
4.75934
4.95829
4.97737
4.85318
4.7006
5.3609
6.27982
6.22723
5.45216
5.02259
4.97206
5.12737
5.6065
6.21336
6.54704
6.5154
6.18817
5.8043
5.40081
5.10153
4.93735
4.83221
4.85602
4.8508
5.109
5.10569
5.52451
5.63636
6.12465
6.33692
6.50369
6.36656
6.22066
6.08839
5.07227
4.69505
4.71764
4.66434
4.68114
4.70528
4.75019
4.82483
4.85228
4.84596
4.83723
4.83727
4.79027
4.84443
4.90459
4.92755
5.02537
5.00183
5.05146
5.00027
5.05864
4.97676
4.97223
5.03125
5.02498
5.07683
5.06564
5.01379
4.97254
4.97371
5.00906
5.12601
5.2028
5.21127
5.2368
5.2017
5.10834
5.25845
5.2543
5.27659
5.31993
5.32911
5.36859
5.41018
5.3449
5.31014
5.38272
5.38436
5.40092
5.35015
5.35442
5.33726
5.32738
5.32655
5.35147
5.37242
5.30996
5.11503
4.98081
4.90788
4.92958
4.77096
4.48565
4.79227
4.96631
5.02402
5.06103
5.0658
5.10692
5.13028
5.12254
5.31155
5.55648
5.85082
6.07883
6.19479
6.30401
6.35336
6.49672
6.43841
6.62286
6.56243
6.54897
6.49416
6.34319
6.42894
6.51757
6.42083
6.20629
6.05093
5.7557
5.49354
5.36946
5.34587
5.19633
4.99279
5.04662
5.08615
5.15992
5.21026
5.27109
5.32885
5.59124
5.87909
6.1169
6.27991
6.43535
6.52865
6.46674
6.38171
6.25804
6.25421
6.19845
6.14691
6.18098
6.2491
6.30782
6.49754
6.53843
6.26917
6.05716
5.81074
5.65689
5.56166
5.4713
5.47558
5.65963
5.93205
6.16783
6.2282
6.32521
6.45123
6.58253
6.71051
6.84554
6.86145
6.28344
5.56142
5.04562
4.71751
4.47397
4.33321
4.26411
4.25774
4.31262
4.42935
4.63043
5.11881
5.7801
6.16019
6.36593
6.94888
7.0811
7.04335
7.04311
7.05254
6.97943
6.96971
6.94893
6.97703
6.99856
6.96582
6.83816
5.76342
5.36322
5.37928
5.68402
5.70884
4.5311
4.00443
3.96338
3.97266
3.97135
3.92257
3.93538
3.90668
3.93055
3.90808
3.92639
3.94951
3.94526
3.95026
3.9635
4.00158
4.17606
4.40053
4.50691
4.41074
4.2074
4.50316
7.44841
7.86459
8.03618
8.13554
7.49747
3.29479
3.08583
3.03909
2.86632
2.56624
2.79346
3.29315
3.30505
2.77333
2.44301
2.45355
2.59916
2.59368
2.42953
2.33665
2.43825
3.1159
4.06338
4.37277
3.85079
3.43306
3.28938
3.28582
3.27923
3.16931
3.01034
2.92249
2.9272
2.9774
3.12801
3.74269
4.00957
3.61988
3.38909
3.26017
3.10927
2.93262
2.8173
2.77071
2.76639
2.7988
2.9099
3.08249
3.25866
3.38932
3.50781
3.6808
3.98134
4.33435
4.51758
4.45798
4.26345
4.03935
3.92207
3.94846
4.19252
4.46647
4.56275
4.59176
4.60316
4.61014
4.50312
4.30331
4.21874
4.17414
4.24103
4.24577
4.3176
4.28421
4.29126
4.27295
4.25235
4.22565
4.25054
4.29317
4.45273
4.65174
4.69495
4.46065
4.16506
4.20855
4.46801
4.78197
4.91263
4.90461
4.82281
4.78993
4.79078
4.77732
4.7562
4.75601
4.77038
4.72926
4.65997
4.63004
4.7048
4.84648
4.92444
4.9417
4.90424
4.87907
4.85905
4.8448
4.83422
4.80895
4.83081
4.83966
4.78496
4.73977
4.74863
4.80805
4.61196
4.42164
4.48624
4.55154
4.54993
4.55488
4.61972
4.68802
4.7201
4.62422
4.51421
4.42367
4.23125
4.16927
4.10127
4.03289
3.97899
3.93948
3.9177
3.93088
3.98392
4.11384
4.23411
4.27185
4.37964
4.44853
4.57412
4.72381
4.77668
4.76552
4.7183
4.67495
4.65618
4.588
4.55895
4.51471
4.54953
4.70242
4.87715
4.87042
4.78665
4.69526
4.67345
4.69809
4.78697
4.84124
4.74453
4.62349
4.47051
4.29249
4.07012
3.87374
3.74292
3.70179
3.73132
3.79767
3.91274
4.06331
4.29555
4.55673
4.82167
4.94994
4.96141
4.82545
4.70976
5.3283
6.23092
6.06101
5.30507
4.98381
4.90512
4.98685
5.38399
6.0536
6.5262
6.59884
6.4079
6.07282
5.69923
5.36203
5.15142
5.08148
5.00825
5.07575
5.2151
5.32143
5.58635
5.85755
6.2383
6.3651
6.49564
6.34162
6.14007
5.41113
4.5369
4.48582
4.5724
4.56633
4.55122
4.55494
4.66691
4.784
4.86182
4.86384
4.84813
4.81595
4.82618
4.83398
4.8617
4.92963
5.0227
4.97152
5.04193
5.00505
5.08697
4.95152
5.03897
4.97962
5.08376
5.0691
5.07144
5.02534
4.99826
4.9839
5.00548
5.08868
5.12225
5.13706
5.14194
5.17422
5.17035
5.25444
5.25662
5.27743
5.32834
5.33244
5.37781
5.37907
5.38638
5.30625
5.24707
5.29212
5.29258
5.27734
5.29192
5.26425
5.31617
5.33153
5.34866
5.34805
5.28466
5.11505
4.94419
4.9075
4.89492
4.55359
4.58717
4.79576
4.85644
4.94336
4.9842
4.99896
5.01448
4.98234
5.04095
5.23372
5.48346
5.77087
6.03508
6.17993
6.29027
6.31798
6.4926
6.54038
6.50325
6.53285
6.48617
6.51785
6.44541
6.59768
6.46879
6.34891
6.24537
6.01119
5.7108
5.51341
5.4099
5.32622
5.09813
4.93138
4.8873
4.80546