/*--------------------------------*- C++ -*----------------------------------*\
| =========                 |                                                 |
| \\      /  F ield         | OpenFOAM: The Open Source CFD Toolbox           |
|  \\    /   O peration     | Version:  2.1.1                                 |
|   \\  /    A nd           | Web:      www.OpenFOAM.org                      |
|    \\/     M anipulation  |                                                 |
\*---------------------------------------------------------------------------*/
FoamFile
{
    version     2.0;
    format      ascii;
    class       volScalarField;
    location    "0.006450000";
    object      Tu;
}
// * * * * * * * * * * * * * * * * * * * * * * * * * * * * * * * * * * * * * //

dimensions      [0 0 0 1 0 0 0];

internalField   nonuniform List<scalar> 
12384
(
905.951
893.194
888.729
887.109
886.475
885.342
886.248
887.843
892.027
893.911
897.894
897.685
904.455
956.955
532.841
567.749
594.334
614.435
627.479
632.577
632.602
631.571
628.819
624.913
620.355
612.463
606.036
599.104
589.267
583.71
572.83
569.844
562.641
565.948
562.628
569.148
571.831
581.014
590.354
601.108
609.923
596.324
516.865
501.05
506.447
533.016
528.769
512.18
495.573
484.87
474.685
472.389
466.429
468.644
465.261
466.258
464.619
463.384
460.91
458.918
451.901
453.255
445.81
447.766
443.869
447.025
448.426
451.297
455.516
458.534
471.556
509.379
516.854
512.331
413.214
407.955
416.894
425.14
429.529
429.838
436.91
437.101
440.945
445.228
448.133
450.931
453.332
453.441
451.295
447.329
442.302
439.71
438.144
443.995
442.064
455.082
462.263
474.592
483.893
494.035
476.845
451.851
451.253
458.05
436.545
461.625
470.579
471.758
470.046
464.245
460.505
445.553
446.361
423.003
430.188
407.279
417.566
403.959
405.419
421.108
420.218
438.365
442.927
449.313
422.562
393.18
399.574
393.062
399.055
407.619
407.084
413.796
415.023
413.663
443.103
437.591
436.466
445.63
447.548
450.613
444.613
446.779
447.088
449.56
450.927
451.788
447.704
445.247
431.025
436.743
414.436
422.06
401.892
406.899
397.418
399.442
396.172
397.907
397.729
405.881
410.755
418.829
411.167
412.403
322.067
306.551
299.646
310.293
315.605
318.915
322.134
323.914
323.573
321.851
318.279
313.559
310.038
305.93
300.549
312.045
300.507
322.466
316.432
338.856
339.014
355.992
361.325
371.179
353.407
365.607
362.722
362.055
360.593
358.481
351.51
366.207
383.992
397.807
398.618
403.408
387.451
393.402
368.624
377.4
354.164
361.087
348.699
355.524
356.699
365.821
375.196
379.124
389.111
388.125
389.199
381.196
377.283
371.281
369.94
370.467
371.234
373.087
374.665
375.21
375.959
392.683
397.932
395.15
393.028
383.036
383.117
365.725
368.678
356.12
359.638
358.423
357.093
370.757
372.709
384.065
385.703
390.737
394.978
370.74
360.636
365.809
366.534
369.907
370.258
372.055
371.802
369.406
366.75
366.47
364.783
371.62
385.852
391.19
390.437
385.821
378.391
369.332
360.044
352.107
338.825
331.589
327.664
330.935
333.162
334.012
360.038
368.634
375.893
394.069
385.577
370.226
367.449
375.479
381.865
382.204
385.641
386.127
385.065
383.234
357.258
369.238
375.952
380.552
381.306
376.438
370.495
362.549
356.926
341.626
343.311
333.862
345.086
343.129
363.968
368.601
381.533
383.236
386.156
374.47
368.995
369.526
376.6
380.368
387.095
389.212
390.485
388.569
383.47
379.589
270
270
270
272.255
290.449
283.087
286.819
293.013
298.164
302.746
303.834
308.431
308.105
308.462
306.583
302.389
296.372
289.43
281.77
275.786
271.936
270
270
270
270
271.199
272.076
275.347
280.171
286.31
270.297
270.901
270
270
270
270
270
324.829
402.68
389.732
383.844
380.722
379.079
379.022
378.632
378.681
377.261
373.802
368.441
360.806
351.024
344.606
345.018
352.366
365.032
384.257
393.401
398.568
398.7
325.46
850.602
853.654
856.271
847.363
833.601
822.527
820.64
825.326
845.391
868.106
891.77
902.923
908.028
948.713
533.018
574.255
613.501
640.83
646.399
639.853
631.723
624.053
613.03
602.106
587.18
576.311
560.315
547.168
530.166
521.417
511.213
508.615
504.108
503.562
502.723
507.125
517.46
533.324
556.27
579.727
601.51
604.434
561.564
520.042
510.39
533.264
522.709
502.504
488.81
481.232
478.021
476.803
470.845
468.991
465.717
464.584
464.051
464.752
464.096
462.298
461.427
459.567
457.129
453.608
453.884
451.792
451.197
450.81
451.312
453.784
460.525
485.275
515.568
519.723
413.853
411.513
423.939
432.646
436.759
436.298
440.335
439.843
440.5
443.203
445.063
445.677
446.008
445.444
442.158
438.395
433.864
429.712
427.443
428.763
431.795
441.439
448.5
458.938
469.216
480.946
485.893
469.511
456.484
462.449
426.924
458.154
469.645
466.632
461.013
453.32
450.81
436.078
439.182
420.564
424.493
410.588
415.201
409.695
412.57
420.229
424.49
433.356
438.697
451.096
437.809
417.24
402.136
394.733
398.606
404.173
409.319
414.85
419.34
421.254
442.458
436.756
438.399
446.197
440.414
434.892
431.976
440.284
447.483
457.752
464.54
467.305
467.839
472.592
459.196
462.477
451.843
449.379
435.579
431.493
425.41
414.222
408.27
399.806
397.941
397.423
406.66
412.984
418.78
414.852
319.12
308.795
327.712
327.263
326.071
331.307
339.444
344.308
345.046
342.366
337.898
332.49
327.094
322.791
323.476
320.257
318.037
329.675
326.649
333.554
336.434
345.226
352.852
367.332
360.926
357.335
355.856
354.08
355.088
349.098
373.728
396.491
409.27
412.558
407.765
402.384
391.921
385.438
371.875
369.279
354.849
354.834
348.069
349.13
354.003
356.487
365.893
367.882
381.848
384.623
390.922
386.951
379.326
367.784
364.214
364.268
367.821
371.3
375.921
381.677
390.752
395.241
390.992
386.429
381.782
373.152
369.884
356.855
356.323
348.961
344.845
345.206
351.193
353.424
361.904
369.302
375.117
385.562
393.215
388.726
365.419
369.652
373.168
376.136
378.509
384.588
386.323
385.353
378.051
374.852
361.668
369.37
391.226
393.484
380.624
370.967
359.797
346.213
334.533
323.685
310.574
302.476
300.581
294.134
300.628
317.283
334.982
342.431
364.222
388.366
391.452
383.553
374.555
378.749
386.619
388.301
389.595
391.806
394.664
393.27
352.172
365.248
378.754
382.099
378.931
370.964
363.483
348.506
343.128
329.152
324.61
324.325
320.884
331.962
339.602
350.434
365.967
376.099
387.018
384.949
371.496
374.321
382.868
388.697
392.118
393.852
393.302
391.994
390.179
380.967
278.622
271.414
277.362
288.326
289.895
293.078
309.172
326.35
338.56
348.73
352.059
350.453
350.03
345.916
341.375
335.548
327.703
317.942
307.449
296.149
288.739
280.653
276.527
275.397
276.291
279.581
279.801
280.615
281.924
286.665
316.973
319.772
319.933
305.176
270
270
282.302
389.099
400.953
395.349
398.203
404.168
409.012
413.319
415.702
416.105
414.789
411.446
403.792
389.75
371.051
345.738
325.809
333.372
357.783
382.067
399.427
400.309
397.042
309.401
845.881
849.401
820.143
788.283
772.958
765.193
766.216
763.078
768.968
791.864
842.872
890.84
909.724
943.586
532.207
583.108
631.292
650.468
640.668
624.221
612.617
601.328
590.02
577.187
566.457
554.076
539.828
525.953
511.197
508.149
500.977
506.63
502.095
504.836
499.244
501.47
499.826
508.413
526.691
555.316
586.429
606.123
587.017
539.775
511.788
533.094
521.47
508.611
504.878
507.994
500.372
490.141
475.183
469.875
464.795
465.329
466.523
470.451
472.155
477.878
478.863
478.712
476.765
477.048
471.214
468.51
465.782
461.793
456.663
452.944
453.842
466.889
501.225
521.554
413.658
415.237
430.446
437.169
439.002
437.711
436.239
438.087
438.733
439.788
442.397
443.216
443.332
441.783
439.309
436.199
430.938
428.967
426.42
428.267
430.827
436.337
440.958
450.7
458.844
469.976
480.243
478.873
463.555
463.603
440.825
465.526
467.144
459.981
454.058
444.978
444.95
436.265
439.636
427.56
437.996
423.255
433.317
426.691
430.675
437.29
434.788
442.881
438.871
442.63
447.12
436.41
411.822
402.419
401.927
403.549
412.315
421.55
422.299
421.545
441.192
436.745
439.9
440.356
425.642
428.764
434.363
451.869
460.654
471.568
475.777
480.597
483.907
483.463
476.902
486.034
470.29
471.677
462.831
460.593
448.087
441.15
424.961
412.986
398.58
395.016
396.812
405.192
415.833
417.066
313.128
327.567
329.486
318.853
337.366
357.073
361.828
358.293
352.584
346.828
341.423
336.366
333.638
332.094
328.64
331.212
332.112
341.636
338.749
341.471
337.296
342.903
343.511
355.814
363.669
354.136
348.817
354.162
357.527
346.857
399.539
412.64
413.595
408.374
401.676
396.865
386.826
379.796
371.78
364.353
354.97
355.214
346.788
350.595
351.172
352.839
363.051
363.663
370.859
378.394
383.937
387.457
383.917
369.753
363.141
363.981
366.883
370.056
375.597
385.663
395.694
389.861
383.969
379.866
378.167
370.612
368.249
358.452
358.998
348.31
351.424
349.104
349.382
350.251
359.258
360.305
369.388
373.986
385.745
392.716
378.043
371.712
375.335
376.906
380.371
386.463
398.347
410.114
395.922
378.514
373.329
375.607
396.037
385.383
373.334
357.033
345.494
334.392
320.735
307.457
303.376
295.887
286.839
288.111
291.988
305.147
309.415
327.995
351.59
365.446
383.539
393.905
384.302
377.782
384.251
383.67
385.272
390.157
397.915
399.848
350.455
372.519
382.163
380.886
373.901
361.437
355.731
338.286
332.484
316.856
320.234
312.542
318.9
320.936
328.453
338.22
347.461
361.951
376.018
384.695
377.707
372.966
381.919
386.574
389.361
386.225
382.082
380.37
385.64
386.376
285.294
285.902
290.371
292.199
297.154
316.061
339.866
360.135
369.973
372.676
374.651
373.257
365.932
357.456
348.137
340.004
332.115
322.273
310.323
296.905
287.279
281.637
279.248
279.03
281.34
285.576
288.099
287.974
283.814
285.917
297.623
305.16
309.026
273.803
270
270
380.278
406.926
403.678
409.554
418.562
424.741
428.181
430.611
431.126
431.335
430.119
426.836
422.45
417.671
405.735
380.802
343.738
322.356
339.875
377.123
396.075
398.208
382.632
270
840.991
810.784
765.97
754.588
764.234
778.269
782.82
774.83
756.186
755.93
785.473
857.341
903.548
941.336
534.1
593.073
642.94
649.767
628.054
610.882
603.067
596.46
588.196
581.41
572.221
560.914
545.53
525.228
513.634
516.84
534.035
552.062
564.48
567.487
565.919
550.592
538.737
525.782
530.023
545.114
576.392
604.527
599.527
554.285
513.358
534.741
527.452
523.62
530.019
526.77
507.089
480.074
470.669
464.153
461.564
462.76
468.959
476.451
487.234
493.687
497.303
497.93
499.067
493.047
493.172
488.8
483.244
477.642
469.488
458.792
452.072
457.894
485.708
517.77
412.976
418.39
433.271
438.749
437.128
436.045
434.444
436.513
439.715
441.54
442.929
445.003
443.613
441.107
438.001
433.556
430.63
428.611
429.592
431.384
433.18
436.648
439.899
446.268
451.551
461.396
473.505
479.384
469.859
463.861
465.962
470.229
463.863
453.734
447.376
442.533
440.048
435.867
445.656
439.85
451.832
447.036
458.639
460.163
464.185
461.545
456.832
455.951
444.949
448.629
452.05
440.776
428.645
413.553
400.267
410.238
421.148
421.855
429.08
431.761
440.872
437.278
437.918
427.881
421.679
431.464
443.572
455.729
463.902
469.137
474.008
483.005
481.278
487.864
492.15
493.024
485.911
492.614
486.72
476.299
473.362
458.899
447.815
424.63
409.425
394.463
392.244
398.719
410.065
417.664
315.374
336.102
311.034
340.222
368.614
369.095
360.003
348.789
340.753
337.009
335.793
336.91
340.088
342.271
346.608
342.195
346.822
344.968
347.949
351.819
343.597
339.885
342.09
345.202
357.978
356.496
345.984
345.486
354.388
344.056
417.012
414.723
409.598
404.913
399.744
389.49
392.963
373.63
379.35
361.3
365.689
353.183
354.893
351.269
353.595
354.839
359.084
363.342
368.032
371.643
378.511
383.968
385.844
375.286
365.704
365.64
370.16
371.836
375.982
385.95
387.045
383.412
380.534
379.817
377.192
371.506
371.907
363.994
357.59
357.665
350.455
350.081
353.034
354.227
358.536
357.607
366.808
367.499
380.092
388.835
387.876
375.878
375.013
380.787
377.172
381.373
402.999
428.732
426.146
392.278
369.997
394.081
397.284
379.716
365.747
352.999
333.177
324.64
315.687
306.918
297.882
296.135
290.95
291.907
298.436
294.039
304.389
327.688
334.428
347.072
375.343
389.307
388.637
385.131
385.644
384.038
382.843
387.158
400.469
404.853
355.897
380.714
382.75
377.408
365.893
353.091
343.606
327.962
320.92
315.902
304.152
306.745
301.491
314.082
319.638
328.205
336.798
348.552
363.121
378.366
379.223
374.296
376.651
381.684
383.223
379.168
369.855
367.578
376.082
382.256
293.802
295.31
295.136
297.398
313.262
341.442
367.829
384.442
393.527
397.488
399.495
394.504
385.955
371.72
355.361
340.564
329.832
318.333
304.896
288.294
281.234
281.054
279.636
281.245
282.382
287.593
293.294
292.668
286.444
284.764
289.098
292.067
270
270
270
360.347
410.689
412.672
414.94
425.337
431.647
436.06
439.345
442.467
440.867
439.104
435.105
429.36
423.557
417.508
412.679
408.331
376.635
326.387
312.062
353.055
376.912
381.236
337.092
270
818.854
767.794
750.403
775.656
827.846
857.018
862.353
840.819
804.613
764.793
766.394
826.69
898.556
941.396
528.581
596.456
645.165
643.387
616.189
605.037
601.129
596.947
595.461
590.408
586.967
577.955
552.777
528.656
525.382
557.025
590.469
627.852
639.385
653.007
644.836
634.871
607.706
581.752
557.657
555.738
575.363
602.461
604.617
563.096
512.625
535.61
534.487
538.791
546.237
535.959
493.497
471.409
464.186
462.409
459.088
464.859
473.449
489.727
501.695
508.157
508.836
512.362
506.09
509.594
502.353
497.431
494.401
489.646
481.514
468.445
453.191
451.916
474.259
512.895
417.407
420.605
436.466
439.687
437.125
432.012
434.161
437.621
439.419
444.423
445.542
445.914
444.504
439.925
434.453
433.057
429.756
428.009
435.1
438.997
440.157
441.508
440.989
446.309
447.03
455.674
466.396
477.344
470.361
464.91
473.554
467.706
461.021
450.291
443.311
438.856
439.595
442.364
448.83
453.453
464.162
468.448
478.641
479.996
487.191
490.403
480.78
469.834
459.735
459.807
447.838
450.961
444.573
416.829
405.389
414.306
419.342
430.329
430.282
431.219
439.262
435.337
432.391
420.185
422.936
433.363
445.871
451.338
456.326
462.668
471.236
475.345
479.408
498.081
497.376
502.185
513.302
516.53
503.72
502.672
487.674
481.985
461.528
444.77
418.671
399.681
391.145
393.798
405.911
416.605
316.333
323.596
316.722
372.691
376.169
362.877
346.394
335.734
330.848
332.563
341.199
350.425
360.758
365.642
365.325
367.216
362.789
364.422
356.883
358.003
353.682
342.964
337.238
342.213
347.497
355.796
348.61
347.31
350.93
344.644
422.715
414.743
406.377
401.455
401.574
389.638
392.336
376.882
382.497
359.98
368.412
352.312
352.344
351.396
354.677
354.692
358.082
361.421
367.459
367.488
374.758
379.412
384.551
380.23
372.133
371.555
374.338
378.198
381.719
387.568
382.964
381.045
381.241
379.585
376.349
374.206
373.542
359.337
365.052
359.132
360.181
358.871
356.152
353.689
362.301
359.47
366.599
364.492
374.382
383.793
391.739
381.778
376.791
381.254
378.755
382.338
408.688
440.846
448.553
409.399
386.002
417.799
388.502
379.388
360.656
342.179
332.16
317.146
309.311
315.413
300.667
303.423
300.326
297.789
297.039
301.862
315.244
315.705
322.75
345.615
363.803
377.657
391.482
389.593
382.573
382.348
381.575
387.132
402.065
406.987
372.372
384.245
381.796
370.738
355.417
344.792
332.614
319.997
317.737
302.595
307.939
303.261
313.513
309.335
315.6
320.552
329.329
337.232
351.4
367.208
377.337
373.121
373.764
375.59
379.499
370.139
359.179
354.771
363.822
379.05
298.778
299.556
298.04
305.237
331.425
363.21
389.857
405.295
417.397
425.484
429.711
422.935
407.749
386.223
364.065
343.583
327.08
315.153
297.267
282.981
280.781
280.965
279.617
281.94
283.814
288.258
295.641
294.133
287.664
284.658
289.954
277.283
270
270
320.263
403.233
420.09
419.903
425.918
437.077
441.065
447.26
450.514
449.879
450.532
448.382
445.168
438.945
427.653
413.577
408.981
407.307
403.323
360.385
297.09
321.408
331.446
333.521
272.032
270
794.196
746.95
764.728
841.721
891.22
898.318
893.584
881.577
843.143
785.939
760.772
808.334
888.051
937.742
533.112
603.726
648.922
642.224
614.396
604.234
601.962
600.61
598.176
604.436
615.435
604.365
565.362
532.218
549.492
599.729
649.063
675.074
689.6
697.447
699.997
692.171
677.859
642.729
607.201
582.81
587.817
607.512
609.907
567.023
510.312
540.702
543.87
550.62
556.852
528.4
482.486
462.751
462.059
459.716
459.187
463.966
481.544
501.782
511.08
512.555
516.489
507.654
509.44
502.529
503.773
506.896
500.997
496.382
490.228
477.513
458.577
449.971
466.996
509.239
412.741
419.389
433.395
437.041
431.95
429.53
431.223
436.697
441.936
443.824
448.838
447.302
443.917
436.834
433.912
430.606
425.351
433.455
439.096
434.201
438.355
443.013
439.086
446.252
444.437
450.467
462.483
471.824
469.257
461.228
471.059
465.48
455.417
449.621
440.568
439.013
434.932
452.944
443.976
467.481
476.693
479.596
494.434
501.261
507.585
509.079
496.663
490.971
479.158
459.368
456.777
464.656
445.933
428.281
419.047
412.807
426.202
435.598
436.623
441.038
438.565
436.025
428.63
418.662
422.74
434.27
440.02
445.813
447.852
456.858
460.462
468.445
483.809
493.96
501.2
523.714
539
529.127
534.038
522.777
510.459
489.735
477.896
453.831
428.902
406.356
391.43
392.723
402.442
415.377
320.702
315.952
351.707
377.618
372.633
355.278
335.648
326.381
326.893
335.226
348.674
364.354
371.744
377.998
382.286
386.658
378.246
380.808
368.203
364.34
357.454
349.432
335.567
334.436
346.339
349.314
348.375
344.814
347.036
349.547
422.405
411.137
407.864
400.151
399.094
390.609
394.093
376.319
381.676
360.825
362.138
345.305
350.822
346.332
347.485
355.597
358.594
357.188
370.205
365.251
370.829
376.909
382.08
382.545
378.335
377.272
378.546
382.377
387.335
390.418
381.628
380.978
381.345
378.456
377.364
372.95
367.934
364.215
369.638
355.963
357.214
356.421
362.477
358.572
365.022
359.561
369.327
362.617
373.09
378.975
391.722
388.842
381.053
381.242
384.136
391.446
424.283
448.789
455.302
427.065
391.654
412.085
389.955
377.62
355.772
337.414
326.814
320.991
311.568
314.501
301.893
309.559
299.685
302.338
306.115
315.341
310.038
308.807
329.147
340.095
347.64
372.935
389.322
389.819
386.48
385.481
381.89
391.385
400.588
404.698
385.591
388.817
377.72
361.662
346.524
337.862
324.487
317.147
314.312
315.84
317.39
316.744
302.882
309.373
312.644
311.388
323.549
332.156
339.426
358.285
370.686
375.711
372.403
375.958
375.362
366.169
354.896
350.529
358.28
374.129
302.569
301.736
299.744
314.617
347.036
380.675
407.265
422.619
437.933
446.636
448.851
443.816
430.879
405.458
372.842
344.331
326.333
310.868
292.764
282.949
282.417
284.221
280.589
279.18
282.247
287.766
296.831
293.681
287.94
284.358
291.297
274.139
270
293.565
376.269
418.76
424.784
428.069
434.862
446.961
451.322
457.129
454.763
455.911
456.951
454.904
448.779
443.804
431.015
419.991
402.803
399.109
407.023
393.334
304.186
289.513
290.551
274.087
270
270
778.505
743.513
811.456
893.267
904.939
887.873
889.713
891.574
863.587
802.268
768.459
813.646
896.714
941.625
521.334
597.625
646.604
636.942
606.997
598.506
596.227
597.29
614.066
644.874
663.081
641.464
573.672
540.986
573.389
640.766
674.415
698.827
706.185
724.456
724.616
730.495
717.552
695.224
650.714
615.894
603.647
614.188
613.919
567.097
509.338
538.51
547.793
555.706
559.731
522.182
472.294
460.992
459.498
460.062
456.678
469.158
491.574
508.872
511.819
515.357
505.604
501.029
495.354
500.846
501.765
498.287
503.337
502.648
495.162
479.584
458.815
449.335
463.56
505.227
424.254
422.295
438.859
441.344
436.017
431.692
433.224
435.008
441.862
445.583
448.487
450.102
445.426
437.153
433.157
424
427.987
437.655
433.795
435.901
438.239
442.466
440.052
443.836
443.183
447.282
459.542
467.562
464.377
462.098
468.918
462.855
454.147
445.614
438.758
440.052
434.093
451.891
450.499
478.693
476.55
492.341
496.124
506.855
518.76
511.686
511.946
507.936
479.808
469.751
473.405
461.195
453.858
443.19
419.04
421.228
428.855
434.798
440.056
441.742
439.245
433.797
423.405
416.195
423.905
429.799
436.143
436.832
442.753
444.06
451.007
465.787
474.767
483.708
511.062
530.144
545.363
540.403
549.563
529.51
514.726
502.312
484.868
461.488
436.224
408.686
392.651
391.254
400.993
415.708
316.051
322.53
373.012
380.521
370.337
350.32
329.415
319.978
321.465
335.156
351.731
373.224
381.514
391.6
396.81
393.925
395.026
388.808
377.411
375.513
359.968
347.186
341.235
330.558
337.798
349.482
346.953
348.76
353.127
366.602
421.772
410.492
407.355
402.661
399.335
391.223
391.077
379.342
377.632
356.195
358.673
341.726
343.923
344.828
343.485
346.059
361.662
356.46
363.628
370.15
365.47
374.705
381.193
382.102
382.652
380.223
381.682
386.443
392.354
392.866
381.195
380.669
379.943
378.129
376.932
369.442
369.585
366.811
366.858
359.466
363.381
358.352
364.323
359.166
371.348
360.734
372.611
362.9
371.004
378.946
389.151
394.733
387.656
384.978
388.945
413.801
438.696
448.482
450.638
430.199
395.074
409.006
392.579
374.392
353.713
334.934
326.989
318.785
318.912
310.81
304.689
307.148
302.071
306.354
306.762
310.287
310.067
320.983
325.802
325.522
348.283
370.027
382.276
389.513
389.634
385.509
384.384
396.571
396.798
397.463
390.504
387.075
370.255
352.855
340.209
329.707
320.876
315.367
321.043
313.14
316.673
316.187
331.899
319.35
332.546
309.646
317.414
323.839
334.99
347.154
366.882
370.672
371.103
372.686
372.512
360.018
347.156
339.768
344.228
359.184
304.371
302.235
300.369
322.889
359.064
392.316
419.691
436.739
453.471
460.407
462.413
454.993
441.218
420.485
381.09
345.575
324.075
312.696
289.614
282.894
284.672
285.2
280.345
280.894
284.995
291.021
295.035
293.047
286.754
284.814
296.017
286.434
274.232
338.007
407.638
429.052
428.081
436.156
444.151
452.315
455.278
460.388
465.989
470.437
465.744
458.201
448.83
445.366
435.434
418.939
401.366
395.037
398.908
406.841
334.874
270
270
270
270
270
769.318
755.441
855.261
903.715
866.926
828.002
859.618
896.574
870.267
811.054
774.195
823.705
899.275
938.759
523.671
595.077
652.403
650.593
623.116
606.461
603.564
618.019
656.395
697.718
711.909
671.804
583.108
545.47
601.65
659.881
685.877
705.915
725.797
746.863
753.157
754.416
747.315
723.663
683.452
641.004
625.554
623.298
613.016
563.917
506.403
539.53
552.55
560.704
558.49
514.98
468.034
458.741
459.265
458.549
458.496
470.91
497.625
509.999
514.988
508.55
500.841
488.777
493.46
486.959
488.627
496.152
496.559
500.728
501.164
485.301
457.026
446.841
464.704
505.812
419.404
420.586
432.695
439.004
432.692
427.459
427.927
433.941
441.396
445.284
449.893
450.396
448.384
437.347
430.699
424.93
429.346
431.064
432.56
434.805
437.362
439.815
441.003
439.394
443.218
445.174
459.046
464.46
459.075
449.619
466.421
459.73
453.083
445.41
434.3
440.729
436.541
449.784
456.88
480.468
475.522
497.605
490.413
511.344
512.314
519.238
519.255
500.311
490.005
486.304
468.568
467.95
467.977
442.369
432.659
430.274
431.609
444.889
452.201
449.713
436.422
431.706
421.082
415.33
421.813
427.746
430.955
433.544
434.262
435.992
445.126
453.857
463.349
480.483
501.179
520.463
546.455
541.72
548.921
529.024
522.036
503.896
486.704
464.36
436.133
410.275
393.574
391.201
401.292
415.666
315.223
334.684
378.228
384.24
372.71
346.378
323.919
314.847
315.169
331.189
350.382
368.852
380.546
391.094
393.687
401.786
395.382
394.435
384.237
369.954
368.797
342.798
335.858
332.241
333.285
341.12
347.747
342.317
365.39
395.873
423.951
413.783
406.896
402.991
402.113
389.635
386.498
379.118
375.377
351.814
360.303
337.469
346.664
338.129
347.395
342.126
356.038
360.768
356.48
371.44
365.01
370.69
380.026
381.553
382.969
378.112
382.557
384.058
384.179
388.716
385.435
380.93
378.794
377.161
376.025
368.365
367.022
368.437
368.046
362.783
366.266
362.946
367.748
363.878
373.089
363.461
374.969
364.465
373.808
375.097
390.546
398.643
394.158
393.913
396.864
436.467
438.489
423.095
417.108
420.235
401.039
410.881
396.03
373.695
353.377
335.297
328.163
319.618
315.731
310.339
306.953
298.515
299.341
306.594
300.786
309.89
314.857
317.779
313.37
330.35
347.94
362.661
378.38
389.898
388.954
387.152
394.353
396.994
384.15
376.816
400.26
386.376
364.131
346.76
335.125
324.183
318.521
317.067
318.666
321.552
326.942
326.12
322.932
318.907
326.259
330.729
308.358
319.182
331.717
343.239
357.389
370.814
369.457
372.873
371.073
362.619
349.205
339.117
337.139
339.577
306.542
303.013
303.429
327.459
366.678
399.783
425.961
447.53
461.66
464.681
469.261
459.043
449.74
425.595
390.776
353.206
327.035
308.024
290.363
283.029
288.512
285.524
286.683
287.066
288.975
293.183
293.22
291.028
286.957
285.844
307.581
307.123
304.316
373.285
422.796
433.878
435.655
440.107
450.154
455.331
461.92
471.334
477.666
474.354
463.95
461.872
447.392
442.911
435.008
416.638
400.123
389.066
394.822
407.653
365.116
270
270
270
270
270
769.591
779.047
876.269
872.22
774.725
746.591
826.748
898.788
884.28
824.031
805.795
862.931
918.126
904.961
726.113
579.974
510.266
577.919
645.013
660.061
639.974
625.864
633.717
670.497
714.461
743.081
739.863
697.925
586.51
553.117
614.122
668.412
685.613
715.592
740.639
771.683
774.718
778.785
768.12
745.105
699.455
660.553
639.609
630.01
609.58
562.763
518.782
492.713
498.168
526.334
547.742
557.96
554.723
514.585
469.436
459.351
458.397
459.44
457.608
472.521
500.5
509.403
516.151
500.953
498.908
485.046
488.987
484.815
491.389
493.647
498.936
496.469
498.04
482.253
455.992
446.307
468.404
509.565
494.027
449.691
429.904
425.578
436.278
443.101
442.846
435.334
435.76
438.886
445.304
445.506
446.833
452.85
452.064
440.333
430.399
428.18
427.408
425.684
432.703
431.866
434.265
432.124
440.399
437.546
441.93
448.137
456.289
461.17
448.515
453.462
464.055
475.548
465.491
461.993
453.956
446.9
439.573
432.38
441.936
445.846
455.2
478.08
472.057
488.87
484.344
494.42
508.676
514.627
503.27
501.417
502.921
477.193
475.503
480.211
461.272
450.452
438.88
433.684
441.231
448.284
451.616
452.863
462.434
457.204
454.643
443.403
427.94
417.649
419.524
426.87
431.118
433.988
431.7
434.161
433.901
443.035
458.807
468.418
485.475
509.941
530.918
533.892
536.729
528.55
514.54
502.514
484.281
459.8
432.782
408.668
393.471
393.542
403.648
416.105
367.991
316.47
320.419
355.564
380.645
385.001
378.212
353.453
325.656
309.62
310.346
323.726
338.945
358.446
378.174
386.872
395.899
392.351
399.189
377.774
391.691
361.83
365.827
339.178
334.414
327.743
336.511
344.39
351.013
409.323
431.389
431.098
425.571
427.987
420.912
415.985
407.93
401.591
400.291
391.141
387.167
380.134
374.977
356.7
358.426
341.006
345.072
338.74
347.294
342.144
354.771
359.649
357.028
366.246
365.562
370.579
377.518
383.093
384.168
384.577
378.367
373.425
374.569
372.283
379.094
390.875
375.89
377.685
377.475
374.673
375.408
369.606
366.256
367.295
371.89
360.337
360.922
359.011
365.611
363.591
371.016
369.223
375.877
369.906
373.774
376.76
395.081
399.687
401.741
400.22
415.824
442.923
414.986
401.176
399.063
397.482
400.728
397.439
401.258
402.359
388.18
371.681
352.041
336.585
328.959
320.068
315.933
304.352
307.169
292.886
294.447
294.707
298.256
313.086
307.357
308.308
316.739
334.904
341.403
361.025
379.68
387.966
388.023
394.671
404.062
398.353
393.997
385.927
386.423
382.889
383.309
368.142
352.908
338.938
329.121
317.848
316.731
309.869
320.187
316.281
320.191
319.42
323.989
324.571
321.843
326.333
316.294
312.803
328.771
339.278
353.973
363.346
367.867
368.841
368.492
359.228
345.482
332.01
328.004
322.095
315.931
306.737
303.875
301.952
303.854
329.787
367.457
400.367
426.893
450.046
461.786
467.661
467.742
461.199
444.881
427.404
388.281
345.684
323.41
314.399
290.422
286.812
287.116
288.681
286.797
289.417
288.272
289.389
288.285
287.614
289.139
294.177
334.939
353.909
350.588
334.958
332.668
395.11
433.311
437.253
441.62
444.024
453.621
458.51
468.46
470.538
479.457
474.623
464.084
459.023
448.114
438.087
431.395
412.605
394.745
387.009
393.079
404.192
383.85
270
270
270
270
270
458.429
477.301
771.241
798.092
869.97
800.821
681.426
679.392
795.775
902.264
898.117
849.13
841.882
888.437
917.458
883.719
710.17
551.958
521.142
583.063
650.653
679.008
683.153
685.494
707.086
737.651
753.892
749.537
737.895
705.859
593.777
553.919
621.45
664.618
686.955
714.902
748.051
775.981
780.276
782.258
772.245
745.584
707.182
669.52
650.136
631.188
606.686
563.266
514.96
489.763
495.07
515.112
541.122
556.326
551.413
513.26
471.823
457.866
456.548
458.508
458.525
470.992
501.144
509.868
515.93
499.429
500.716
484.032
489.652
485.601
487.101
491.346
498.18
495.743
493.592
475.204
453.78
449.718
477.72
517.125
508.005
475.268
444.202
430.345
429.923
436.744
438.055
434.957
433.849
437.235
440.435
442.845
450.307
455.534
452.146
444.798
434.99
428.96
425.243
425.779
424.962
425.032
425.983
430.397
438.936
439.755
440.443
450.405
456.329
457.191
450.911
464.476
475.761
471.866
462.683
461.461
456.615
449.182
441.677
432.051
437.007
445.597
443.254
470.153
468.344
473.172
480.738
485.839
485.901
493.796
495.377
504.161
484.503
482.762
488.444
472.733
468.869
459.87
445.789
442.967
446.52
452.714
456.684
451.817
456.646
454.876
458.011
453.271
439.108
421.681
420.892
427.76
437.36
439.572
439.639
431.606
427.903
437.889
446.701
454.934
473.474
486.938
509.432
517.101
524.192
513.046
505.922
489.665
474.438
451.029
426.336
403.798
395.204
394.939
406.243
414.907
370.736
319.891
326.096
361.561
381.335
385.982
382.291
361.669
329.364
310.097
306.574
313.798
325.383
341.556
360.637
373.649
375.808
386.277
381.341
375.398
374.47
364.846
350.559
335.583
334.54
327.532
336.708
346.712
385.442
441.783
443.621
433.563
433.476
433.176
429.631
419.852
411.736
401.135
399.585
393.275
392.705
378.678
376.361
365.086
358.311
343.633
350.853
343.531
347.475
341.143
358.35
353.406
364.526
360.286
366.424
370.818
375.599
379.595
381.669
380.924
374.613
373.497
372.266
374.382
375.88
380.522
374.667
376.171
375.553
373.39
374.562
369.104
368.994
364.776
372.232
376.872
372.589
371.176
374.697
371.726
379.5
371.501
374.541
371.616
377.013
379.886
394.669
405.717
403.621
406.793
435.801
433.43
415.245
412.51
406.087
404.825
405.493
404.721
410.266
404.605
391.713
374.655
356.576
338.431
329.162
320.784
318.919
306.368
301.333
303.752
300.277
303.132
300.017
308.454
298.389
313.496
322.203
329.092
343.419
364.07
377.092
383.989
387.174
397.259
406.369
408.786
414.155
408.121
401.784
393.001
386.471
367.847
351.094
335.912
326.871
314.285
314.027
302.1
315.428
311.154
319.059
318.346
318.861
323.409
324.648
313.082
312.802