/*--------------------------------*- C++ -*----------------------------------*\
| =========                 |                                                 |
| \\      /  F ield         | OpenFOAM: The Open Source CFD Toolbox           |
|  \\    /   O peration     | Version:  2.1.1                                 |
|   \\  /    A nd           | Web:      www.OpenFOAM.org                      |
|    \\/     M anipulation  |                                                 |
\*---------------------------------------------------------------------------*/
FoamFile
{
    version     2.0;
    format      ascii;
    class       volScalarField;
    location    "0.006450000";
    object      Xi;
}
// * * * * * * * * * * * * * * * * * * * * * * * * * * * * * * * * * * * * * //

dimensions      [0 0 0 0 0 0 0];

internalField   nonuniform List<scalar> 
12384
(
7.3685
10.0066
11.2355
12.1201
12.8946
13.468
13.7621
13.6876
13.2853
12.7491
11.8954
10.7404
8.77519
5.76605
21.7389
23.461
24.227
24.4345
24.468
24.6203
24.9273
25.4083
26.2987
27.6733
29.3646
31.4155
33.7492
36.2268
39.0748
41.7248
44.7772
46.7678
48.9713
49.1084
48.8811
46.9307
45.2685
43.078
40.7211
37.7312
33.532
27.7373
21.6086
17.6528
27.1818
28.2009
30.0574
32.1094
33.8269
34.8105
35.6311
36.0276
37
38.1389
40.8379
43.9859
47.2982
50.8895
54.2877
57.5731
60.6215
62.1807
63.4569
62.506
61.8657
60.7226
59.7222
58.1771
55.7744
52.363
46.0538
35.0448
23.132
20.5635
33.7904
38.3714
39.4584
39.7438
40.5764
42.4269
44.3076
47.0551
49.577
52.2806
56.478
60.7906
65.5642
70.8874
76.5227
81.9884
86.8423
89.3655
89.4139
84.8423
81.9793
77.0354
72.7531
66.9383
59.6644
48.6303
37.0441
30.3291
29.1666
31.2961
32.5317
41.3233
51.1816
59.9266
67.5026
74.7259
81.1012
88.3128
92.3317
99.1318
98.4723
102.103
94.8137
92.5754
87.6395
80.4916
76.9191
69.633
63.8659
56.4383
52.2689
49.2213
42.0167
37.6006
33.7369
32.3474
33.5729
33.7765
32.923
30.2998
21.5724
25.564
28.4365
29.4567
30.1254
30.1993
30.9912
32.2492
34.8936
38.8034
43.0442
47.8833
52.6365
57.1537
61.8516
63.2002
66.1809
63.4521
64.1194
61.6376
61.9354
60.8529
60.4175
58.6545
56.0107
50.9914
44.9436
37.6432
31.992
30.3957
28.5084
33.2723
36.8323
37.5812
41.6519
48.4729
56.3383
64.5602
72.93
80.8771
88.2262
94.5227
98.3821
100.514
100.182
94.4742
96.9638
89.551
89.8001
82.3213
79.6175
72.1268
65.1122
55.521
50.7284
44.6591
43.0883
40.7823
39.8045
41.4834
28.1409
26.1818
30.9599
39.1066
48.0624
55.7893
65.1885
70.5341
80.3057
82.0781
89.6382
87.9322
90.0323
86.7445
85.0404
81.3381
77.4205
73.5838
68.0196
63.4297
57.2615
51.2768
43.7516
37.7407
34.76
33.5851
33.2826
33.1289
33.0843
32.6365
30.5729
37.6129
47.5324
57.4159
66.2355
75.1546
81.129
89.6686
91.7355
96.1331
93.7534
92.872
91.6246
86.2636
83.4638
78.1876
74.1576
68.2002
59.9227
50.9408
43.1815
36.4159
32.8951
31.0665
30.5758
30.2572
29.3706
27.9596
26.2022
24.9275
32.1323
35.0385
37.4737
41.2491
49.1233
59.3994
70.1875
81.0644
91.5255
100.524
109.329
115.056
116.164
111.708
108.719
104.732
94.4512
89.4296
82.8132
73.5027
66.8598
56.4977
43.4149
36.5012
34.8943
34.6003
34.1662
33.9643
33.8988
34.4063
32.373
36.8746
40.9264
46.5457
55.8656
66.8379
77.8298
88.0496
95.6807
104.863
105.75
107.82
103.517
102.834
95.0915
91.2219
84.9749
80.3965
74.1023
67.2516
57.5587
46.2496
38.6974
36.7757
36.6919
37.0025
37.0069
36.8329
36.751
35.9882
35.0906
36.956
43.6793
47.9841
48.4605
54.306
56.5891
57.4951
58.5168
60.2105
64.0106
69.624
74.5756
75.5602
74.0526
71.2012
67.9091
65.0325
64.0605
65.8401
68.9307
72.5146
75.4862
77.2803
77.9406
76.6853
74.0788
69.2943
60.8649
45.1742
18.1874
21.9712
20.9571
19.8116
21.7221
39.6083
63.8246
50.5471
45.2941
51.1331
54.9832
57.6328
59.5552
61.5507
64.3031
65.7954
64.4514
61.8788
57.8808
53.026
47.3607
40.6685
34.0744
29.1417
24.8139
20.0185
15.4599
11.0258
6.98118
4.4932
10.8221
8.25811
9.01664
10.2048
11.5292
12.6539
13.4243
13.751
13.463
12.8016
11.8466
10.7801
9.36795
9.50578
22.4089
18.0928
18.0853
17.814
17.8991
18.1997
18.5571
19.0288
19.6201
20.2928
21.2183
22.3691
24.5588
27.6431
31.9045
36.5327
41.7004
46.3701
50.7428
54.052
56.4685
57.3917
56.704
54.7644
51.3998
46.9878
41.1412
34.1959
27.2327
27.3026
28.9137
22.8561
25.4155
27.8805
29.1566
29.1849
28.2697
27.4272
27.7503
29.344
32.325
36.1861
40.7481
45.9075
51.563
57.3218
62.572
67.0519
70.6409
73.1983
74.0392
74.0953
72.9105
70.7199
67.2348
61.9805
54.2626
43.0476
30.954
30.6342
35.9472
32.938
34.9766
36.2617
37.0063
37.3387
36.8689
36.7806
37.0923
38.3269
41.7879
47.1544
54.2446
62.9193
73.0211
83.7833
94.4454
103.958
111.165
115.136
115.598
111.474
105.792
97.2073
86.1977
71.6824
55.179
38.3359
22.8172
34.4321
31.366
29.4666
38.3231
48.0904
57.4697
66.8345
75.5454
86.3058
93.5608
104.733
110.104
118.385
120.578
123.323
121.767
116.872
111.089
102.491
92.6809
78.8897
65.7364
50.81
35.9731
29.9408
29.573
29.2715
28.2371
27.1476
26.0525
33.3285
24.6969
17.3814
18.3293
18.3653
18.7333
19.9359
22.9364
27.1107
31.9579
37.2485
42.9414
49.343
56.0308
61.9263
69.5277
74.255
79.5469
82.0286
84.9911
84.7467
83.3818
81.6715
77.6251
72.5379
64.5315
54.8189
43.1625
32.2651
23.478
34.7176
31.3983
19.8858
20.2662
26.7938
36.3768
45.5816
54.5592
64.2666
74.9959
86.4284
98.0443
109.107
118.932
126.671
130.175
132.949
132.93
125.609
121.989
112.689
103.121
89.949
74.4477
57.2565
45.3652
35.2723
27.2772
25.9196
29.6142
47.3913
30.3441
20.4184
28.5853
38.7631
48.9954
59.0101
69.5092
79.2596
90.1211
97.5934
107.007
110.844
114.516
113.982
110.337
105.834
98.0171
90.3842
78.7747
67.8625
55.4164
44.5786
35.5277
30.6025
29.6388
29.137
27.5867
26.4836
26.1846
33.8992
35.4409
35.4373
47.8346
60.0639
72.053
84.5242
95.3446
108.135
115.886
123.633
128.373
128.832
124.587
119.533
110.693
100.66
89.2579
75.1723
60.3345
46.0031
35.0529
29.2369
28.884
29.3525
28.4663
26.4096
24.1549
21.6425
20.1077
29.1138
33.1603
20.1863
20.3287
28.4685
41.5526
55.1142
69.0932
84.0817
99.501
114.738
130.707
143.836
151.323
158.551
154.331
142.808
129.7
118.32
100.055
81.9413
67.5535
53.8726
41.1312
31.3088
27.191
26.9069
26.0635
25.0381
24.6905
34.8208
33.2817
20.3037
25.4201
38.6048
53.9814
69.4309
84.4351
101.005
114.552
129.555
139.319
143.563
146.139
138.781
129.902
117.336
100.991
84.3943
67.3568
54.0564
44.8051
39.0829
36.4905
35.4841
34.0572
32.3354
30.6193
28.6927
26.2823
37.2264
40.7868
24.1147
30.583
42.1526
58.0306
73.0583
81.0746
84.9896
87.3376
87.6019
87.3167
85.904
81.9841
76.8836
70.4373
63.4921
56.7143
50.6842
46.07
45.3891
48.3286
53.951
59.6442
64.1587
66.3867
66.1415
64.4722
60.3855
53.2945
60.1885
22.2081
19.9841
18.761
19.7266
29.8159
45.0643
50.699
46.1276
54.7611
64.0481
69.3197
71.515
71.9334
70.9317
68.8844
65.7514
61.5953
56.7422
51.7009
46.8586
42.004
36.8743
30.0828
21.3926
16.0174
13.6785
11.3839
8.79157
5.92289
5.68602
12.6972
9.60581
11.1518
12.9496
14.2387
15.0279
15.4315
15.6746
15.4805
14.6248
13.0486
11.5501
10.3479
11.1129
23.6082
18.1216
17.0474
16.9365
17.9442
19.3059
20.5776
21.7318
22.6729
23.5433
24.4227
25.832
28.326
31.776
35.8271
39.2948
43.1427
45.9091
49.1432
51.3647
53.6615
54.5334
55.0105
54.0847
52.0177
48.7451
44.2942
38.4484
31.8297
33.6167
30.1436
23.5254
24.7767
25.6772
25.6558
25.1713
25.5979
27.3205
30.6234
34.5817
38.5703
42.1415
45.6845
49.0141
52.8175
56.2523
59.9541
63.2727
66.1608
67.6814
69.1096
69.1231
68.4139
67.3972
66.0793
63.6955
59.0508
50.5839
38.5821
38.6515
37.5824
34.6194
34.82
35.655
36.6616
37.7495
38.9953
40.5298
42.7152
45.3666
49.0951
54.1736
60.1361
67.0621
74.6854
82.7788
91.3611
98.7028
104.828
108.369
109.445
107.555
104.134
98.235
90.9825
80.3052
65.9879
49.7383
32.4039
36.0132
36.4276
35.6185
46.2791
57.4042
66.7124
74.8418
80.539
87.2675
91.3592
98.7995
100.525
107.391
108.017
111.296
111.025
108.596
107.055
102.4
98.7377
90.271
77.5078
63.6527
48.6111
34.4062
28.4983
27.0484
27.066
28.0278
27.9715
34.7442
27.03
17.3894
17.6616
17.9576
19.5512
22.3372
26.7482
30.9745
35.5341
40.22
45.2215
50.1902
54.9179
59.6702
65.044
67.6294
72.7098
74.8042
77.0104
76.753
77.1166
75.7122
75.0335
72.6954
69.2728
61.9741
51.9292
40.1437
29.2675
38.9282
34.751
19.0839
23.1079
33.6928
40.7235
47.4342
56.4997
66.8025
77.5632
88.1034
98.0436
107.093
114.432
119.879
124.531
124.774
123.354
117.731
115.02
109.252
104.449
95.548
85.1315
69.2634
54.5405
44.4745
33.6973
25.1313
27.7445
48.732
30.2996
25.8069
36.782
48.0725
57.9447
66.3297
74.7921
82.5359
89.9737
96.9814
103.926
107.205
111.607
110.735
109.245
106.178
99.7399
95.1238
87.0992
77.6329
66.3244
54.3766
43.768
35.1302
28.2376
24.4794
24.1059
26.1873
27.1985
34.3573
41.8966
49.152
62.4993
73.8404
83.307
93.0978
101.418
111.185
117.073
125.475
127.495
128.794
127.178
123.593
115.512
108.861
98.6312
87.7034
73.2856
57.8684
44.5872
33.5091
27.5521
25.2697
24.6275
24.8624
24.4812
22.294
20.7344
30.8827
34.5202
19.4859
23.4057
37.2638
53.5457
70.3357
85.1761
98.7119
112.537
126.843
137.243
147.521
158.108
161.565
159.599
151.524
145.372
130.49
114.24
99.6599
82.2305
66.2192
52.6945
39.4851
28.5938
23.8999
24.5026
26.177
26.3926
35.0627
36.1606
22.9341
33.9182
51.984
70.1175
87.249
101.404
117.654
129.609
144.555
149.327
156.847
154.159
150.697
142.357
131.128
117.923
100.887
82.7264
66.1248
53.1582
42.5979
35.9626
32.4163
31.3079
32.6797
34.7278
34.5123
30.2109
38.2067
43.337
27.3336
38.3525
54.2725
69.5362
77.7052
80.5277
81.6084
83.0092
84.3514
84.299
83.133
81.6123
79.0572
75.6971
71.24
66.0989
60.7368
56.2933
54.8892
56.3771
58.5243
60.2245
61.329
61.6531
60.7895
59.7327
58.4488
55.7348
66.4601
29.4836
22.7169
18.9204
26.4991
44.4043
56.2621
49.1271
55.868
64.6616
69.3631
70.9571
71.3593
71.2138
70.3205
68.5846
65.9366
62.7244
59.0767
54.9517
50.0883
45.0002
40.2833
35.4441
26.7164
14.7238
8.60548
7.11179
5.8828
4.51064
5.39329
13.9118
11.7788
14.016
15.2416
15.3465
15.0501
14.928
15.1068
15.539
15.4601
14.4606
12.6907
11.492
12.2412
25.1837
19.3474
17.2084
17.0872
18.6485
20.5473
22.1441
23.4913
24.7024
25.8374
27.3725
29.656
33.0543
37.2319
40.7059
42.5981
42.9441
42.9686
43.1893
44.1222
45.0421
46.7669
47.9837
49.3106
49.3793
48.6292
45.9913
41.5891
35.7022
37.1418
31.3845
25.2775
24.6943
23.7173
22.4045
22.2785
24.3189
28.7082
33.7586
39.3514
43.8228
47.4934
50.1346
52.2394
53.7695
55.483
57.3922
59.4234
60.917
62.6889
63.0971
63.2329
63.0978
62.7528
62.776
62.892
61.3926
55.9456
45.52
44.1282
39.6226
38.3596
36.1314
35.58
36.1489
37.423
39.9025
43.1399
46.796
50.7774
55.2767
60.4753
66.2026
72.0626
77.4246
82.4324
86.7119
90.49
93.5845
96.0672
97.6174
97.7387
97.0105
94.8725
91.6934
84.8531
73.157
57.5888
40.3143
38.2566
44.5209
41.4769
53.0305
64.6469
73.1056
78.3221
81.2301
83.7418
83.5676
86.5513
86.4988
89.6207
89.5937
91.0551
91.8818
93.6399
95.2779
96.1178
97.6136
93.5723
85.3274
74.0868
59.0916
44.5332
33.0585
25.0699
25.0245
28.839
28.9478
34.7037
29.02
18.3985
18.0445
18.6606
20.8895
24.9685
29.804
34.5601
39.3775
44.493
49.0136
52.2436
55.6051
57.6301
59.4006
61.1595
64.2161
65.0857
66.7969
68.5906
68.5663
69.4019
69.2413
70.4116
69.304
66.1381
58.4148
47.2375
35.3924
42.4125
36.6862
20.0894
29.3099
35.391
41.4854
51.9104
64.0966
75.9645
85.7299
92.7296
97.7138
101.519
104.334
106.873
108.253
111.345
110.179
109.625
105.754
101.85
100.641
97.0612
90.107
79.1476
63.8431
51.8367
41.4939
30.4012
27.6488
48.6914
30.6927
31.7249
44.392
55.4009
63.823
71.178
74.7248
81.8087
83.8698
90.7278
92.4693
97.9931
99.5005
101.492
100.963
99.8974
97.2602
94.2442
90.0102
84.2288
75.0966
64.0073
52.6263
43.0636
33.2903
25.2583
23.4688
26.7685
27.7206
34.7854
50.2865
61.891
73.7286
82.354
89.3731
95.8307
100.355
106.346
112.639
116.275
121.184
122.605
121.227
118.954
114.607
110.898
103.215
96.1118
83.9445
69.9207
54.7578
42.574
31.937
25.0317
22.3571
24.3672
25.5723
22.9561
20.0961
30.6922
36.7817
20.0327
28.2504
45.5262
64.4865
81.8662
98.3188
109.723
118.46
126.698
134.897
139.846
146.433
148.599
147.64
150.588
143.404
131.312
125.364
113.115
94.6146
78.7937
64.1881
49.5039
36.2791
26.6163
23.9564
27.3694
27.4387
34.8606
38.7763
27.462
43.9349
65.3547
85.2237
102.47
115.746
129.381
138.98
146.175
156.472
158.131
162.078
154.425
148.645
139.738
129.183
115.195
98.179
80.238
64.8914
51.1612
40.0924
33.2961
31.1737
34.5228
39.8752
40.6337
34.0682
39.6906
45.5641
33.3083
47.9865
64.2381
74.5714
77.5977
77.8957
78.1914
78.3467
78.1805
77.2445
76.6954
76.6726
77.6099
78.678
78.2513
75.2968
71.0826
67.1963
66.488
65.8984
63.7656
61.4162
58.1753
56.0646
55.063
55.7144
57.8228
59.2445
70.4623
34.2191
24.4972
26.6738
41.3021
57.089
51.4764
55.1086
63.3932
68.7981
70.0677
70.0434
69.4266
68.3936
66.8452
65.4806
63.8467
62.3535
60.7434
58.3568
54.737
49.466
42.4861
36.6466
31.0574
18.7559
7.90715
5.36632
4.69306
4.42528
5.25706
15.3376
14.1547
15.6396
15.3149
14.0161
13.1129
12.6379
12.7329
13.4518
14.612
14.994
13.9119
12.7036
13.1362
27.295
21.1936
17.9619
17.4863
19.2047
21.1644
22.8759
24.3234
25.5639
27.2455
29.4579
32.5974
37.355
42.0504
44.6575
43.4246
41.0613
38.0904
36.606
35.4234
35.7673
36.6047
38.8843
41.5654
44.7279
46.7517
46.7246
44.1407
39.2485
39.2425
32.6824
27.4502
25.0959
22.3187
20.0801
20.3551
24.2815
29.9693
36.5258
42.8878
48.0112
51.4697
53.8215
54.413
54.4527
54.4513
54.8457
54.8835
56.1027
56.2671
57.3977
57.9906
58.1301
58.3922
59.388
61.1203
62.5985
60.2042
51.9029
48.1442
41.3838
42.8986
38.0691
35.6695
35.1009
36.5777
39.6545
44.3285
49.6333
54.5042
59.9135
65.7892
71.5986
77.2866
81.5194
82.6323
81.7945
80.4181
78.3381
78.4143
80.9012
83.8858
86.9078
88.6022
89.9316
86.8505
78.0187
63.1311
46.0478
40.2251
53.6698
46.5308
58.0035
69.1574
76.2504
79.1767
78.6686
76.6606
74.3706
72.9545
71.6397
71.5592
71.3778
73.028
74.3597
76.7488
81.4846
86.9122
91.4818
92.4744
90.6864
79.6947
66.4851
54.4996
41.0462
27.9517
23.9965
28.6313
29.7506
35.5206
30.9099
19.7692
18.8691
19.5283
22.362
27.2822
32.4783
38.1484
43.7817
49.1999
53.0724
55.653
56.7504
54.7057
53.8858
53.1042
52.3133
52.6616
55.4071
57.0864
59.7816
61.0406
63.6035
65.2807
67.4911
67.1269
62.2477
52.7061
40.6708
44.9672
38.429
23.2821
32.2681
35.1714
45.7068
59.9125
74.8289
85.9345
91.8648
92.8882
90.4389
87.7651
85.4331
85.2166
86.87
88.6202
91.3869
92.4653
94.4306
93.2035
93.2832
94.4383
92.5502
84.3329
71.911
57.5305
46.0424
34.5143
28.7608
47.6237
32.1756
36.8427
50.383
61.0907
67.3996
72.87
73.9135
77.0628
75.6854
80.4579
79.2719
83.8902
85.6118
87.6783
88.766
90.5609
90.9247
90.7614
89.3712
87.3609
80.9585
71.6059
60.0425
49.3802
38.7103
29.3354
26.3207
27.9586
27.4322
35.1946
57.842
71.0574
80.8434
87.7358
92.4175
94.7119
95.4658
100.034
100.002
102.663
104.547
106.971
109.56
110.966
108.049
107.697
103.779
100.633
91.8783
79.7649
64.035
50.4846
38.4787
28.3495
23.4402
25.4025
26.8195
23.5951
19.7113
29.9528
36.9035
20.9497
33.8884
52.2071
73.7374
93.5008
106.285
116.609
121.937
119.028
123.226
121.661
123.279
126.426
130.181
131.103
129.017
131.64
128.289
117.252
104.907
89.6792
72.7497
58.0076
44.2695
32.1915
26.4527
28.715
28.072
34.8056
40.6629
32.7556
53.7664
77.9792
99.0713
114.22
125.34
134.096
136.872
144.954
144.549
148.716
145.38
148.722
145.984
142.424
135.501
126.06
111.276
93.7201
76.2322
60.8758
46.575
36.7239
33.1995
38.2148
45.7278
46.9399
38.1168
41.3991
48.3187
39.9978
56.0847
70.2886
75.7133
75.9181
74.6684
73.3846
71.1367
68.5482
66.3282
66.3654
68.8849
73.6914
78.9725
82.6577
82.9169
79.5049
77.12
76.1709
72.7443
67.5857
61.3573
53.4028
47.9871
48.3117
52.8869
58.6859
62.7545
72.3686
36.5881
27.5043
37.1346
52.7482
55.3873
53.5718
60.4766
67.0652
69.3694
68.4305
67.0147
64.6714
62.3997
60.7031
59.3442
58.9174
58.9932
59.324
59.4383
58.5175
53.9598
46.5452
37.498
30.5687
23.1257
9.50101
5.665
4.93301
5.59645
5.84254
16.6754
15.6575
15.7396
13.9517
12.7467
12.054
11.3288
10.869
11.4068
13.2404
15.0404
14.9434
13.9232
13.8433
28.7811
23.0365
18.8836
17.6992
19.1404
21.0863
22.7697
24.1234
25.5908
27.2679
29.38
33.4495
39.8211
45.5985
46.5384
43.1674
38.5083
34.626
31.2885
28.7936
27.409
27.8979
30.0658
34.1162
39.0147
43.9758
46.5365
45.9069
42.1696
40.1434
34.1044
29.2982
25.6365
21.4942
18.3904
19.2911
24.1679
31.0266
38.282
45.5237
50.8416
54.7912
56.4531
56.0442
55.0833
53.9349
51.8833
51.1528
50.056
50.4876
50.915
51.4575
53.0619
54.5245
56.4284
59.4086
63.0081
63.6142
57.6171
50.7397
43.4196
47.6424
40.8864
36.1444
34.1109
34.8876
38.663
44.4441
50.9082
57.3048
62.9823
69.492
75.7777
82.027
85.088
83.6812
78.787
69.6486
61.7792
60.1513
63.3498
69.3533
76.8647
82.0734
87.3648
87.8071
80.9213
67.1529
49.7286
41.1488
61.1255
49.837
61.5673
71.4642
77.5481
78.2569
76.4909
69.8222
67.0215
60.7375
56.5604
54.955
53.6457
55.0323
58.0023
62.4874
69.2158
75.9194
83.6666
91.1631
90.5062
82.271
72.6714
60.4213
47.5834
34.4785
25.6774
28.5343
29.6089
35.6659
32.7952
21.1829
19.8019
20.3249
23.7556
28.9956
34.8942
41.0808
47.8185
53.4278
57.9196
59.5745
57.8621
54.2666
50.0559
44.5649
40.5263
40.1421
41.2689
44.858
49.1876
53.8967
57.0746
60.9453
64.5187
66.3254
64.328
56.4245
45.234
46.4864
39.9112
26.9777
30.9718
38.0688
50.8449
67.4654
84.2444
94.009
95.7448
91.0934
83.3674
75.2291
69.8053
66.509
65.5318
66.7947
71.7136
75.0053
80.6002
83.6307
86.3112
89.4208
92.3826
87.8771
75.5582
62.0703
48.5904
37.014
30.0514
45.4994
34.9646
41.344
54.6054
65.3273
70.9787
74.1482
72.5395
73.0968
68.6788
68.9915
65.9339
67.8288
67.5814
71.5331
75.5031
78.4192
82.4722
86.1316
86.0461
88.1094
84.3415
76.5796
65.4748
53.4932
41.6892
32.1248
28.7573
28.8569
26.8078
35.6837
64.8446
76.5034
85.5027
91.4488
93.3469
92.9865
91.0644
88.7465
84.0365
85.3944
85.5639
88.5038
91.299
96.7486
98.6597
102.504
101.168
102.369
96.2325
87.0006
71.5418
56.448
43.6412
32.3313
25.9833
27.0599
27.1512
23.9542
19.7323
29.3498
38.2881
24.0073
38.1778
58.0766
81.7829
101.842
113.84
118.38
119.794
112.8
110.24
100.817
100.244
99.1904
102.391
106.975
117.13
124.018
121.331
120.025
113.121
95.9736
79.5002
64.4127
49.5249
36.3667
29.6027
29.7858
28.7309
35.7023
42.8803
37.8573
63.0582
89.7338
110.063
121.843
129.552
131.628
129.507
124.83
120.804
120.533
129.997
133.044
137.555
141.751
137.54
131.966
122.209
104.652
86.5555
68.6101
52.9436
40.1863
35.5403
41.6278
50.806
52.3526
42.6658
44.3034
50.9835
46.4449
62.5455
73.2356
75.1809
73.5819
70.8466
67.6334
62.8495
58.2397
55.2061
55.3625
59.5042
67.5571
77.6203
85.5729
87.7628
85.7748
84.1131
81.8413
77.0711
69.71
60.5213
48.5277
39.5462
44.1554
53.2012
61.0378
65.5389
72.4522
38.2278
31.0162
45.3275
54.9853
52.596
56.9029
63.9231
67.8587
67.9296
64.9813
61.6153
57.539
54.5949
52.2105
51.5363
52.7879
55.3811
57.6707
59.7085
59.6337
57.595
50.6741
39.8235
29.747
24.7988
12.4909
7.00708
6.46058
6.66954
6.88878
17.4731
16.1956
14.6407
12.9851
12.4567
11.8773
10.6815
9.58766
9.86359
12.1771
14.957
15.557
14.6914
14.235
31.1008
25.1441
19.9589
17.8497
18.7012
20.3615
21.9526
23.2726
24.0664
24.8486
27.1041
32.3042
41.1077
47.4751
47.0942
42.0843
37.2427
32.1889
27.7662
23.3175
20.3196
19.9247
23.2983
28.3154
34.8716
41.582
46.3557
47.2389
44.299
39.489
35.018
31.2128
26.6882
21.458
17.4731
18.4677
24.0469
31.3067
39.2661
46.7736
52.8678
56.5021
57.9532
57.3565
56.1105
53.1645
50.364
46.9832
44.3033
42.2634
42.6153
45.1632
47.6392
50.67
54.2998
58.8949
64.0866
66.4989
62.3595
51.831
43.7832
51.2077
43.2773
36.6162
32.6422
32.5475
36.4882
43.6115
51.11
58.4513
64.9937
71.1449
77.7198
84.5789
87.5903
86.1661
76.9576
62.5604
48.9757
41.7125
47.4283
57.4774
68.3561
77.5127
85.2592
88.1514
82.4254
69.4297
52.0404
40.5647
65.266
51.5157
63.2043
73.208
78.4297
77.6147
74.8036
67.0778
61.1617
51.547
44.8317
38.9023
37.9279
40.3971
44.9607
52.1646
59.0392
67.5481
78.9728
86.2729
87.9279
85.1674
74.8824
63.3316
53.1067
39.6864
30.0282
29.5849
29.3791
36.2609
34.5899
22.8295
20.9971
21.193
24.6144
30.2138
36.3018
43.3522
50.5073
57.6326
62.3749
62.8374
61.0796
56.5086
48.4071
40.1549
32.615
28.1747
28.3379
34.3477
40.9929
46.7247
51.8997
56.9362
61.677
65.5353
65.2894
59.2416
48.8011
46.4407
42.8975
29.2502
31.5098
41.0396
55.0414
72.9612
91.2072
100.841
100.744
91.9751
80.566
68.04
58.5297
50.2557
45.2395
46.6273
52.6683
60.2582
68.1642
73.4543
80.5421
86.0691
89.136
89.2306
78.337
62.9876
49.1138
36.8636
29.5982
41.9085
40.6648
45.6501
58.6714
68.759
74.0141
76.0446
73.6137
70.9757
65.0004
61.5558
53.9034
50.4583
47.7485
52.1887
60.702
68.3877
73.2754
81.017
84.358
86.2352
86.7328
79.3579
68.4995
55.5929
42.2366
32.6375
29.0231
28.6298
26.4736
37.482
72.1814
79.2274
88.7979
93.9818
94.3658
92.4117
86.1662
79.2482
71.0187
65.7085
61.0126
64.6882
71.5586
81.7425
86.9294
95.825
97.2161
101.965
98.6138
90.8149
76.9435
60.1955
46.4948
34.7991
28.1927
27.0943
26.6407
23.8784
20.1503
30.6579
40.1688
27.9412
42.7374
64.0717
87.8678
108.109
118.192
122.515
117.179
110.117
99.9213
85.5021
75.6388
69.7224
76.3341
88.4913
101.185
109.597
118.405
123.078
113.385
99.9271
84.7749
68.1513
52.3404
38.8434
31.3531
30.029
29.9075
38.7741
45.4542
44.0714
72.2467
99.8762
117.803
127.587
130.003
127.288
116.116
108.828
98.7508
93.9053
93.9561
108.114
115.998
135.423
137.419
136.706
128.33
113.89
93.8086
75.8095
58.1242
43.5592
37.5062
44.8188
55.7385
58.6184
49.9078
51.6945
53.6691
52.4584
67.4475
74.5237
73.9167
71.1919
67.0699
61.8592
54.8944
48.2986
43.4246
44.2029
51.0352
61.4246
74.9698
86.3277
90.56
87.713
87.5287
84.4067
78.4922
70.9911
61.1046
48.6493
43.1314
50.1786
58.0415
63.58
66.7671
71.0532
38.9288
32.8283
49.7776
51.4523
52.473
58.8079
65.2866
66.8966
64.9522
60.7652
55.8282
50.0204
44.3558
40.6099
42.0299
46.7588
52.5282
56.8104
59.8743
61.179
59.7463
53.1949
42.5771
30.2726
23.4596
16.2487
9.17937
8.32967
9.39717
10.0969
17.7233
15.7658
13.5918
12.7927
12.9928
12.6241
10.7113
9.03288
9.24717
11.7706
15.0809
15.9325
15.1952
14.6674
32.4428
27.0873
20.9258
17.3662
16.8989
18.3901
19.9208
20.6801
20.7306
21.5549
24.4216
30.6846
41.1468
48.3756
46.2479
41.5497
36.4504
30.9841
25.393
19.8717
15.3335
14.2825
18.8139
25.2765
32.8141
40.6498
46.0609
48.0067
45.9204
38.0795
36.4096
32.5602
27.6823
21.8567
17.0465
17.6463
23.3946
31.0176
39.1345
47.0654
53.2333
57.3807
58.8284
58.6182
56.6115
53.5734
49.0499
43.9247
37.4443
33.4957
33.284
37.385
43.0854
47.9037
52.4571
58.4132
65.6602
69.1829
65.491
50.8169
46.1429
54.1466
47.2501
38.9453
32.679
30.6943
34.146
41.5294
50.0976
58.3328
65.1138
71.2648
77.1604
84.845
89.0531
87.2762
77.475
63.6506
47.8006
36.595
40.7929
52.0986
64.4574
76.1656
84.4764
88.3178
82.3204
69.5586
52.4175
41.8251
67.0542
52.634
64.3339
73.9455
79.824
78.0588
74.6018
67.3395
60.1941
50.1262
41.6326
32.1243
29.897
31.6719
37.967
45.0927
53.248
64.3641
73.7874
81.8461
87.6441
83.5929
74.0075
65.2077
53.9923
42.57
33.8219
31.0248
29.6865
37.5443
36.8261
24.3951
21.9238
21.7086
25.0673
30.4688
36.818
43.9285
52.1359
60.1305
65.1259
66.6021
65.1892
59.2877
51.0911
41.8531
31.7672
23.4242
19.9801
27.5985
35.2972
42.4781
48.67
54.2633
60.0554
64.5808
65.5968
60.8894
51.0885
45.0494
47.1094
31.1238
33.2721
42.7409
57.0782
76.5164
96.2707
106.403
106.625
96.184
82.491
68.9159
56.3133
44.2039
33.6388
29.6941
39.5213
49.5703
59.6708
68.8859
74.8227
84.8733
88.7154
87.9493
78.8393
63.1093
47.2662
36.404
28.7181
39.1441
51.4868
50.6657
63.1951
72.816
77.2486
79.5873
77.5605
73.0351
66.2313
61.6293
50.0669
42.4822
31.6093
35.8507
47.5582
60.4981
68.3557
76.6193
84.023
85.1117
87.2527
81.2155
69.5985
55.6414
41.1186
30.99
28.5211
31.8154
33.2065
45.6894
80.2635
80.0123
90.8728
96.2944
96.2767
93.3431
86.0467
76.1632
64.917
54.0447
41.4997
40.5239
53.3707
68.1505
77.997
89.5171
93.5593
100.316
98.3834
93.3541
78.9811
62.1101
47.3185
35.0642
28.2695
25.199
26.0553
25.7497
25.1438
36.5219
43.617
32.9293
47.2739
69.0122
92.534
112.287
121.786
125.761
121.435
112.737
98.8573
83.9182
64.2598
47.0928
56.3967
73.502
89.472
104.979
118.412
118.864
113.718
103.016
87.0475
69.6358
53.4924
38.6765
29.9151
30.9323
35.3995
47.3859
50.8497
52.2774
80.9263
107.958
123.888
132.067
131.049
123.759
111.003
96.3147
78.713
65.6447
68.8879
87.519
104.344
119.709
139.242
137.965
131.459
119.053
100.537
80.1844
62.3059
46.1811
39.0846
45.8765
57.3427
61.7775
55.8154
63.3796
55.741
57.1664
69.9561
74.7958
72.4051
68.7087
64.0319
57.0906
48.7844
40.3385
32.6025
33.4291
43.4375
57.0376
71.2418
83.9165
89.5447
88.473
86.6052
83.5656
77.0055
71.1021
62.7276
56.6857
56.9331
60.4259
63.7354
64.9944
64.5752
67.5639
38.5892
31.9714
46.9117
48.8627
52.8169
59.7337
64.3959
65.148
61.8782
56.7197
49.9387
41.6818
33.2087
28.313
34.1922
42.759
51.6869
57.4699
60.986
62.7932
61.0481
55.0319
44.074
31.1859
22.2435
18.9666
12.6907
13.2662
17.1269
20.5268
17.4915
14.734
13.0273
13.231
14.6795
14.1222
11.2266
9.29811
9.64851
12.1866
15.0559
15.7316
15.4051
15.879
25.8037
34.7994
35.3631
28.6487
22.0035
17.3528
15.351
15.9255
16.7543
16.859
17.2139
18.9068
22.531
28.8279
40.542
47.8719
45.6447
40.9975
36.4057
30.74
25.1797
19.7323
15.7166
15.0363
19.2702
25.6418
33.3888
40.8206
46.1305
48.0706
46.31
39.9857
41.8966
43.714
37.9371
34.4777
29.3944
23.4583
17.9512
17.2376
22.4472
30.0175
38.2056
45.9749
52.621
56.9788
58.8924
59.3699
57.236
55.018
49.4797
43.2241
34.5821
27.5179
25.6464
31.9077
39.9467
46.9729
52.4763
59.2422
66.9739
71.0286
67.2989
53.7461
45.654
50.628
49.4721
53.4353
48.7222
41.2518
33.5855
29.6624
31.6455
38.7747
47.598
56.5751
63.8644
68.9207
74.4061
82.1434
88.0644
87.0115
79.909
69.4174
56.2995
47.3742
47.9208
56.496
66.4445
77.6233
84.8463
86.8289
81.076
68.0974
53.5649
43.901
51.093
56.7895
44.1715
53.726
64.6793
74.0022
79.3288
80.5143
75.5882
70.2792
64.1778
55.4889
49.3874
41.2138
37.2213
36.4726
39.5668
45.4503
53.9313
62.3885
70.694
81.283
83.8006
79.8493
73.3523
62.803
53.2919
43.9112
37.2891
36.2773
36.7405
35.1703
40.8269
41.7855
35.7338
30.0157
25.9198
23.7884
25.5882
29.8434
35.6897
42.6282
51.3937
59.7455
66.8853
69.403
67.6472
63.2028
56.1245
46.9187
38.2404
31.0453
26.5892
29.6149
35.6588
41.6555
47.6119
53.4752
59.3763
64.0632
65.4061
60.9422
51.7176
42.0875
49.7046
63.413
46.7215
35.3684
35.9761
43.6447
56.4472
74.9555
96.2589
110.618
112.152
102.662
89.9354
76.1954
62.3083
50.9406
39.9519
34.6704
39.5042
50.506
57.1734
69.2933
74.4016
85.1067
88.5713
87.6709
75.8252
59.7335
43.1816
30.1672
35.5439
43.1715
53.4125
59.6542
49.3821
56.8366
67.6298
76.9788
81.5719
83.5814
81.8354
77.6736
72.2413
67.6522
58.4791
51.6466
41.657
41.4379
49.0012
60.666
68.5039
76.7395
83.9841
86.1747
86.9439
81.2897
69.6828
54.6187
40.3475
34.4939
41.8632
50.1685
54.9809
59.5418
65.3665
71.0636
66.6054
81.1426
92.1526
98.6892
98.917
96.0472
89.9076
81.0545
69.6556
60.6364
47.8838
41.6306
50.6234
64.4058
75.0531
85.4505
91.4341
97.704
97.8866
92.6972
78.2535
62.1072
46.0884
33.6014
24.7453
23.367
28.874
34.0089
39.4435
44.7912
55.035
58.8569
51.2457
47.141
55.692
73.7866
96.0512
114.911
125.243
130.278
127.219
123.04
109.028
98.6586
80.9573
65.091
64.4396
75.5425
93.4868
108.123
116.477
117.383
115.302
102.792
86.8225
70.1636
53.1828
36.4063
29.6492
38.1591
47.9926
50.1392
55.7919
59.9273
52.5541
66.8727
91.8026
115.649
129.949
137.797
134.531
129.286
113.717
100.582
82.054
65.2855
60.2193
77.157
100.335
116.881
133.874
140.271
132.495
121.826
103.821
84.2488
65.3765
49.043
40.4845
45.7287
57.0618
63.1071
58.1919
50.3968
53.5044
54.3537
54.592
61.0313
71.4518
73.9951
70.9027
66.7991
61.8729
54.4379
45.809
36.35
28.0206
29.0636
41.1673
54.6853
69.5242
83.4273
87.6672
83.3139
82.8035
78.9492
74.9341
70.5743
67.8922
67.0711
69.0212
69.6191
68.6113
65.0852
59.6077
53.5261
40.1312
37.3599
29.4102
33.6873
44.7472
47.4021
52.2168
59.1874
62.6156
62.8079
59.0852
53.2617
45.2665
36.4661
26.7012
23.7941
34.1299
44.2767
53.2196
59.5945
62.7278
64.2702
62.1396
55.2888
44.1748
31.7457
21.6995
20.8857
19.5788
22.5752
25.1951
19.7815
7.82169
3.91427
17.0023
13.6863
12.8565
14.4483
16.9479
15.8376
11.9758
9.68364
9.98033
12.2919
14.6465
15.4035
15.4574
15.4868
15.7084
22.4596
32.93
27.9763
22.0701
17.1678
13.7417
12.8173
13.0006
13.5209
14.8823
17.5914
21.4646
27.1772
38.631
46.6637
44.452
40.9136
36.727
31.995
27.1002
22.9432
20.4447
20.5388
23.6208
28.8479
35.3556
41.7297
45.8543
47.2019
44.5331
38.3659
28.1066
28.056
35.7049
34.9276
30.3761
24.6517
19.1539
17.2796
21.382
28.6023
36.457
43.8655
50.4841
55.4505
57.9163
59.29
57.9654
56.8429
51.9251
47.0495
39.2989
33.0996
31.4552
35.675
41.8344
48.2498
53.8731
60.7527
67.8095
71.16
67.0228
55.7731
34.6832
33.8765
45.7518
50.9237
50.9396
45.7928
38.3945
32.1375
31.6531
37.2499
45.6683
53.958
60.0402
64.729
69.9848
77.0216
84.0856
86.0224
82.6168
75.2676
67.4621
61.6396
60.949
65.3403
71.9321
79.9211
85.2877
84.4155
77.9501
65.562
51.1373
40.3329
32.7979
35.7364
43.1553
53.1987
63.0836
72.2256
78.5674
81.336
78.6191
73.8074
71.1313
64.048
60.1992
55.8914
51.4889
49.3978
50.5792
53.4192
58.3232
64.0979
73.0601
78.0543
78.697
76.8496
67.8891
58.1984
49.5043
41.1507
36.4102
35.7456
35.4413
35.3838
35.8306
36.2026
35.5077
32.4055
28.7519
25.8672
25.6627
28.542
33.1477
39.5215
47.6148
57.255
65.8922
69.4643
69.6691
66.9864
60.9545
54.2462
47.1167
41.8455
38.3248
38.7435
41.0534
45.1392
49.4294
54.5623
59.6116
63.7763
63.8581
59.442
50.369
41.85
37.1468
47.3014
46.5418
35.9237
35.4596
42.1089
53.6028
70.0903
92.1971
110.182
115.622
110.328
100.164
88.0945
75.6964
65.6863
58.657
53.5626
55.2692
59.7744
65.1125
72.3408
80.0869
87.1629
88.574
86.1958
73.7765
58.1531
40.4007
33.9685
40.0085
45.813
46.8701
46.3083
47.8849
56.7825
68.2559
78.907
84.7516
87.3515
85.6808
84.6358
80.7446
77.2453
72.271
69.2425
62.7215
62.8344
64.9948
71.4802
74.3258
81.8489
84.5065
88.5595
86.4595
80.6765
69.474
55.3793
42.8168
37.1324
40.3907
45.1577
47.8679
47.8685
47.8187
51.7141
67.5597
80.8524
92.534
100.257
101.84
100.642
95.5981
90.3217
81.7341
73.4297
66.9171
63.7343
65.4572
71.7781
77.7045
86.8969
91.9501
96.4629
95.6441
90.2353
76.5851
59.8934
44.7891
31.6252
22.1881
25.0896
32.2495
38.7528
45.2277
50.0613
53.2179
54.6778
50.3118
45.3444
54.8748
73.0126
94.7026
114.946
127.756
134.835
133.584
132.827
127.397
115.944
106.305
96.3288
94.9159
98.1038
109.986
113.7
119.234
120.583
113.703
100.866
86.3424
69.8485
52.1027
35.2352
30.5285
36.412
42.2006