/*--------------------------------*- C++ -*----------------------------------*\
| =========                 |                                                 |
| \\      /  F ield         | OpenFOAM: The Open Source CFD Toolbox           |
|  \\    /   O peration     | Version:  2.1.1                                 |
|   \\  /    A nd           | Web:      www.OpenFOAM.org                      |
|    \\/     M anipulation  |                                                 |
\*---------------------------------------------------------------------------*/
FoamFile
{
    version     2.0;
    format      ascii;
    class       volScalarField;
    location    "0.000400000";
    object      alphat;
}
// * * * * * * * * * * * * * * * * * * * * * * * * * * * * * * * * * * * * * //

dimensions      [1 -1 -1 0 0 0 0];

internalField   nonuniform List<scalar> 
12384
(
3.94768e-06
3.47367e-06
3.25154e-06
3.47478e-06
3.94279e-06
3.79614e-06
4.07358e-06
4.50534e-06
4.63603e-06
4.72008e-06
5.13697e-06
6.09988e-06
8.92183e-06
1.90305e-05
3.95971e-05
2.14541e-05
1.42811e-05
1.10398e-05
9.32144e-06
8.26323e-06
7.5312e-06
7.02245e-06
6.58793e-06
6.24234e-06
5.98095e-06
5.90146e-06
6.1128e-06
6.78798e-06
8.09566e-06
1.10306e-05
1.86215e-05
3.62049e-05
7.58907e-05
0.000138513
0.000138344
0.000138426
0.000138355
0.000138379
0.000138366
0.000138368
0.000138371
0.000138371
0.00013837
0.000138365
0.000138365
0.000138369
0.00013837
0.000138371
0.00013837
0.000138371
0.000138371
0.000138372
0.000138372
0.000138372
0.000138372
0.000138372
0.000138372
0.000138371
0.000138371
0.000138372
0.000138371
0.000138372
0.000138371
0.000138372
0.000138372
0.000138373
0.000138372
0.000138372
0.000138371
0.00013837
0.000138371
0.00013837
0.000138369
0.000138365
0.000138365
0.000138369
0.00013837
0.00013837
0.00013837
0.000138371
0.000138371
0.000138372
0.000138372
0.000138373
0.000138371
0.000138372
0.000138372
0.000138372
0.000138371
0.000138372
0.000138371
0.000138372
0.000138371
0.000138372
0.000138372
0.000138373
0.000138372
0.000138372
0.000138371
0.00013837
0.000138371
0.00013837
0.000138369
0.000138365
0.000138365
0.000138369
0.00013837
0.00013837
0.00013837
0.000138371
0.000138371
0.000138372
0.000138372
0.000138373
0.000138372
0.000138372
0.000138372
0.000138372
0.000138372
0.000138371
0.000138372
0.000138372
0.000138372
0.000138372
0.000138373
0.000138372
0.000138372
0.000138371
0.000138371
0.00013837
0.00013837
0.00013837
0.000138369
0.000138365
0.000138365
0.000138369
0.00013837
0.000138371
0.00013837
0.000138371
0.000138372
0.000138372
0.000138372
0.000138372
0.000138372
0.000138371
0.000138372
0.000138371
0.000138371
0.000138372
0.000138371
0.000138372
0.000138371
0.000138372
0.000138372
0.000138373
0.000138372
0.000138372
0.000138371
0.00013837
0.000138371
0.00013837
0.000138369
0.000138365
0.000138365
0.000138369
0.00013837
0.00013837
0.00013837
0.000138371
0.000138371
0.000138372
0.000138372
0.000138373
0.000138372
0.000138372
0.000138372
0.000138372
0.000138371
0.000138372
0.000138371
0.000138372
0.000138371
0.000138372
0.000138372
0.000138372
0.000138372
0.000138371
0.000138371
0.00013837
0.000138371
0.00013837
0.000138369
0.000138365
0.000138365
0.000138369
0.00013837
0.000138371
0.00013837
0.000138371
0.000138371
0.000138372
0.000138372
0.000138373
0.000138372
0.000138372
0.000138372
0.000138372
0.000138371
0.000138372
0.000138371
0.000138372
0.000138371
0.000138372
0.000138372
0.000138373
0.000138372
0.000138372
0.000138371
0.00013837
0.000138371
0.00013837
0.000138369
0.000138365
0.000138365
0.000138369
0.00013837
0.000138371
0.00013837
0.000138371
0.000138371
0.000138372
0.000138372
0.000138373
0.000138372
0.000138372
0.000138372
0.000138372
0.000138371
0.000138372
0.000138371
0.000138372
0.000138371
0.000138372
0.000138372
0.000138373
0.000138372
0.000138372
0.000138371
0.00013837
0.000138371
0.00013837
0.000138369
0.000138365
0.000138365
0.000138369
0.00013837
0.000138371
0.00013837
0.000138371
0.000138372
0.000138372
0.000138373
0.000138372
0.000138372
0.000138371
0.000138372
0.000138371
0.000138372
0.000138371
0.000138371
0.000138372
0.000138371
0.000138372
0.000138372
0.000138372
0.000138372
0.000138372
0.000138371
0.00013837
0.000138371
0.00013837
0.000138369
0.000138365
0.000138365
0.000138369
0.00013837
0.000138371
0.00013837
0.000138371
0.000138371
0.000138372
0.000138372
0.000138373
0.000138372
0.000138372
0.000138372
0.000138372
0.000138371
0.000138372
0.000138371
0.000138372
0.000138371
0.000138372
0.000138372
0.000138373
0.000138372
0.000138372
0.000138371
0.00013837
0.000138371
0.00013837
0.000138369
0.000138365
0.000138365
0.000138369
0.00013837
0.00013837
0.00013837
0.000138371
0.000138371
0.000138372
0.000138372
0.000138373
0.000138372
0.000138372
0.000138372
0.000138372
0.000138372
0.000138372
0.000138372
0.000138372
0.000138372
0.000138372
0.000138373
0.000138372
0.000138372
0.000138371
0.000138371
0.00013837
0.00013837
0.00013837
0.000138369
0.000138365
0.000138366
0.00013837
0.000138371
0.000138371
0.000138371
0.000138372
0.000138371
0.000138372
0.000138371
0.000138372
0.000138371
0.000138371
0.000138371
0.000138371
0.00013837
0.000138371
0.00013837
0.000138371
0.000138371
0.000138372
0.000138372
0.000138372
0.000138372
0.000138372
0.000138371
0.00013837
0.00013837
0.00013837
0.000138369
0.000138364
4.5466e-06
6.09386e-06
4.63935e-06
4.48762e-06
4.79061e-06
5.03418e-06
4.72419e-06
4.19133e-06
4.04353e-06
4.3876e-06
5.55335e-06
6.39081e-06
8.56456e-06
1.78879e-05
1.87246e-05
1.5205e-05
1.21268e-05
9.94101e-06
8.60492e-06
7.8181e-06
7.3708e-06
6.93858e-06
6.64321e-06
6.3846e-06
6.16933e-06
6.11914e-06
6.257e-06
6.67105e-06
7.72508e-06
9.85461e-06
1.45921e-05
2.67545e-05
5.49175e-05
0.000114629
0.000252714
0.000530971
0.000847424
0.000727044
0.000713886
0.000720777
0.00073537
0.000787254
0.000816929
0.000138579
0.000138578
0.000777514
0.000778154
0.00078206
0.000781927
0.000787783
0.000808068
0.000839298
0.000862577
0.000898306
0.000913483
0.000899021
0.00090116
0.000909047
0.000922202
0.000918826
0.000913715
0.000912853
0.000905754
0.000904781
0.00088938
0.000856178
0.000837203
0.000821995
0.000806413
0.000799843
0.000798918
0.000792381
0.000787406
0.000138578
0.000138578
0.00078411
0.000788129
0.000795345
0.00079539
0.000800893
0.000815349
0.00083207
0.00085386
0.000893862
0.000912699
0.000914448
0.000920789
0.000927438
0.000930306
0.000926258
0.000920807
0.000919633
0.0009125
0.000912371
0.000895137
0.000867289
0.000847917
0.000829212
0.000811208
0.000802828
0.00080369
0.000793058
0.000793315
0.000138578
0.000138579
0.000789309
0.000787885
0.000795533
0.000796538
0.000801802
0.000821166
0.000840522
0.000858742
0.000895799
0.000911712
0.00091656
0.000923371
0.000932869
0.000931098
0.000925875
0.000927093
0.000921573
0.000916991
0.000910791
0.000896356
0.000861291
0.000847927
0.000827179
0.000806129
0.000800639
0.000799868
0.000789595
0.000791256
0.000138579
0.000138578
0.000780502
0.000784169
0.000789816
0.000790066
0.000793079
0.000807435
0.000827452
0.000851169
0.000889579
0.000909934
0.0009108
0.000916501
0.000924324
0.000927673
0.000923745
0.000919322
0.000917002
0.00090861
0.000908707
0.000892341
0.000861487
0.000844026
0.000827488
0.000809015
0.000800471
0.000799583
0.000789517
0.000787255
0.000138578
0.000138579
0.000792015
0.000790639
0.000802097
0.000801676
0.000807565
0.000827886
0.000849286
0.000864074
0.000897534
0.000912234
0.000918117
0.000918304
0.000921092
0.000919324
0.000927913
0.000931101
0.00091743
0.000911611
0.000912532
0.000897278
0.000861273
0.000836979
0.000808612
0.000787862
0.000784412
0.000784385
0.000779735
0.000778926
0.000138578
0.000138579
0.000786903
0.00079275
0.000800293
0.000804457
0.000812807
0.000826625
0.000848026
0.00086673
0.000894114
0.000904504
0.000914168
0.000920432
0.000925801
0.000929477
0.00093136
0.000924393
0.000920493
0.000910428
0.000911157
0.000894053
0.000865294
0.000845988
0.00082867
0.000811231
0.000801544
0.000800753
0.000790948
0.000788397
0.000138578
0.000138578
0.000780798
0.000790171
0.000798316
0.000802339
0.000811721
0.000826653
0.00084609
0.000861956
0.000890058
0.000902946
0.00091419
0.000920639
0.000926711
0.000929839
0.000928693
0.000923471
0.000921506
0.00091348
0.00091272
0.000895191
0.000867625
0.00084718
0.000828889
0.000811389
0.000802623
0.000802771
0.000792942
0.000791792
0.000138578
0.000138578
0.000785428
0.000790494
0.000799273
0.000804337
0.000811497
0.000827525
0.000845798
0.000867238
0.000891212
0.000905612
0.00091092
0.000920854
0.000921185
0.000923908
0.000927562
0.000928477
0.000922084
0.000917982
0.000915918
0.000899368
0.000866009
0.000837383
0.00080611
0.000788117
0.000785352
0.000785905
0.00078112
0.000778607
0.000138578
0.000138578
0.000787317
0.000793359
0.000802245
0.000804161
0.000813091
0.000826753
0.000848362
0.000867577
0.000894484
0.000903847
0.000913818
0.000920723
0.00092608
0.000928041
0.000929721
0.000922938
0.000919981
0.000911007
0.000910189
0.000891479
0.000858993
0.000842425
0.000825533
0.000806398
0.000798636
0.000797838
0.000788636
0.000786381
0.000138578
0.000138579
0.000794294
0.000795265
0.000805188
0.000802991
0.000811778
0.000828135
0.000849835
0.000867373
0.00089862
0.000910505
0.000918158
0.000922943
0.00093137
0.000931284
0.00093211
0.00093368
0.00092278
0.00091488
0.000908928
0.000896376
0.000865409
0.000848758
0.00082823
0.000813354
0.000803324
0.00080284
0.000793474
0.000790264
0.000138579
0.000138579
0.000805604
0.000826098
0.000820511
0.000816256
0.000815755
0.00081845
0.000832557
0.000853111
0.000886984
0.000901332
0.000915071
0.000923324
0.000923256
0.000926438
0.000940789
0.000928983
0.000918849
0.000922025
0.000927411
0.000892613
0.000864249
0.000845583
0.000827472
0.000813879
0.000808739
0.000811812
0.000802525
0.00080151
0.000138578
9.8537e-06
2.89817e-05
2.85222e-05
1.89578e-05
1.54998e-05
1.74167e-05
1.20579e-05
1.00236e-05
7.6538e-06
6.4914e-06
7.33894e-06
9.41248e-06
1.42711e-05
2.8206e-05
1.53791e-05
1.44332e-05
1.36166e-05
1.22675e-05
1.11884e-05
1.0582e-05
1.02274e-05
9.97124e-06
9.81442e-06
9.7069e-06
9.62303e-06
9.73495e-06
9.73634e-06
9.55298e-06
1.02548e-05
1.22979e-05
1.62621e-05
2.61326e-05
5.53087e-05
0.000143858
0.000338898
0.000567027
0.000761631
0.00083935
0.000905757
0.000881292
0.000824575
0.000768776
0.000722972
0.000180367
0.000180366
0.000744384
0.000784215
0.000805712
0.000826943
0.000856861
0.000896923
0.000931795
0.000968516
0.00101981
0.00103674
0.0010333
0.00104631
0.00105892
0.00106688
0.00106612
0.00106456
0.00106023
0.00105262
0.00104018
0.00102234
0.000971794
0.000931445
0.000891095
0.000853544
0.000823258
0.000809092
0.000785991
0.000748135
0.000180366
0.000180366
0.000747515
0.000785038
0.000807642
0.00082389
0.000851692
0.000891634
0.000930684
0.000979398
0.00102506
0.00104617
0.00105028
0.00106544
0.00107321
0.00107898
0.00107453
0.00107229
0.0010656
0.00105838
0.00104343
0.00102223
0.000972468
0.000935415
0.000895252
0.000858139
0.000830046
0.00080995
0.000781899
0.000746079
0.000180366
0.000180366
0.000744027
0.000778096
0.000806985
0.000830802
0.000856843
0.000894047
0.000931695
0.00097777
0.00102401
0.00104827
0.00105415
0.00106873
0.00107402
0.00107509
0.00107182
0.00106912
0.00106901
0.00105715
0.00105174
0.00102421
0.000976498
0.000931637
0.000894557
0.00085637
0.000831046
0.000808424
0.000778885
0.000744801
0.000180366
0.000180366
0.000746682
0.000786864
0.000807309
0.000823208
0.000852318
0.000888956
0.000927462
0.000968769
0.00102118
0.00104005
0.00104399
0.0010598
0.00106813
0.00107209
0.00106925
0.00106805
0.00106327
0.00105672
0.00104395
0.00102337
0.000972172
0.000933493
0.000893366
0.00085574
0.000826011
0.000809059
0.000784341
0.000747875
0.000180366
0.000180366
0.000745465
0.000779623
0.000808923
0.00083103
0.000856556
0.000895578
0.000932671
0.000976688
0.00102319
0.0010516
0.00105649
0.00106598
0.00106414
0.00106555
0.00106743
0.00107217
0.00106145
0.00104642
0.0010396
0.00102104
0.00097203
0.000932878
0.000895062
0.000855892
0.000825936
0.000806859
0.000785591
0.000745327
0.000180366
0.000180366
0.000750074
0.000788716
0.000813359
0.00082913
0.000857029
0.000897255
0.000934118
0.000974065
0.00101024
0.00104129
0.00105884
0.00107418
0.00107454
0.00107998
0.00107896
0.00107596
0.0010678
0.00105855
0.00104308
0.00102202
0.000972483
0.00093524
0.000894927
0.000857218
0.000827442
0.000810819
0.000784862
0.000748267
0.000180366
0.000180366
0.00074912
0.000789552
0.000811912
0.000828445
0.000856038
0.000895801
0.000931271
0.000971332
0.00101195
0.00104428
0.00106054
0.00107463
0.00107564
0.00107925
0.00107517
0.00107446
0.00106729
0.00105919
0.00104333
0.00102184
0.00097278
0.00093578
0.000895353
0.000858075
0.000829561
0.000810828
0.000783237
0.000746902
0.000180366
0.000180366
0.000750579
0.000792162
0.000814512
0.000828659
0.000858475
0.000895264
0.000935733
0.000969602
0.00101303
0.00103805
0.00106297
0.00107208
0.00107226
0.00106943
0.00107053
0.00107023
0.0010665
0.00105432
0.0010466
0.00102641
0.00097987
0.000939057
0.000896705
0.000855971
0.00082511
0.000805901
0.000783896
0.000744731
0.000180366
0.000180366
0.000749063
0.000790725
0.000813461
0.000829198
0.000855702
0.000896384
0.000933952
0.000973672
0.00100843
0.0010394
0.00105869
0.00107546
0.00107564
0.00107887
0.00107629
0.0010716
0.00106381
0.00105614
0.00104474
0.00102462
0.000972399
0.000932558
0.000892583
0.000855278
0.000825831
0.000807834
0.000783782
0.000747462
0.000180366
0.000180366
0.000747283
0.000779649
0.000809446
0.000831882
0.000857745
0.000897271
0.000933841
0.00097728
0.00101918
0.00104753
0.00105674
0.00107121
0.0010743
0.00107721
0.00107943
0.00108116
0.0010749
0.00105653
0.00104528
0.00101731
0.000976649
0.000933309
0.000896523
0.000856698
0.000830071
0.000811746
0.000784176
0.000748436
0.000180366
0.000180367
0.000738607
0.000773463
0.000795584
0.000818559
0.000848999
0.000893344
0.000939784
0.00098295
0.00101845
0.00104847
0.00106703
0.00108383
0.00107911
0.00108492
0.00109126
0.00106067
0.0010396
0.00103736
0.00104076
0.00101444
0.000965543
0.000927408
0.00088646
0.000851181
0.000822148
0.000804173
0.000780083
0.00074652
0.000180366
7.17976e-07
2.72271e-06
2.4858e-05
5.30076e-05
4.87141e-05
6.00369e-05
3.74916e-05
3.19509e-05
2.0792e-05
1.32285e-05
1.00296e-05
8.80223e-06
1.45208e-05
2.61508e-05
1.07964e-05
1.04477e-05
1.04953e-05
1.01262e-05
9.60862e-06
9.17698e-06
8.94771e-06
8.94697e-06
9.17183e-06
9.43894e-06
9.58376e-06
9.52859e-06
9.31463e-06
9.25918e-06
9.51742e-06
1.01516e-05
1.21076e-05
1.71483e-05
2.94052e-05
6.59718e-05
0.000169497
0.000391907
0.000992653
0.00161614
0.00161624
0.00161616
0.00161619
0.00161613
0.00158526
0.000178471
0.000178471
0.00158525
0.00161614
0.00161619
0.00161618
0.00161619
0.00161618
0.00161619
0.00161619
0.00161619
0.00161619
0.00161618
0.00161619
0.00161618
0.00161618
0.00161618
0.00161617
0.00161619
0.00161617
0.0016162
0.00161617
0.00161619
0.00161617
0.00161619
0.00161618
0.00161618
0.00161618
0.00161613
0.00158526
0.00017847
0.000178471
0.00158525
0.00161614
0.00161619
0.00161618
0.00161619
0.00161618
0.00161619
0.00161618
0.0016162
0.00161618
0.00161619
0.00161618
0.00161619
0.00161617
0.00161618
0.00161617
0.00161619
0.00161617
0.0016162
0.00161617
0.00161619
0.00161617
0.00161619
0.00161618
0.00161618
0.00161618
0.00161612
0.00158526
0.00017847
0.000178471
0.00158525
0.00161614
0.00161618
0.00161618
0.00161619
0.00161617
0.00161619
0.00161618
0.00161619
0.00161618
0.00161619
0.00161617
0.00161618
0.00161617
0.00161617
0.00161618
0.00161617
0.00161619
0.00161617
0.0016162
0.00161617
0.00161619
0.00161617
0.00161619
0.00161618
0.00161618
0.00161614
0.00158525
0.000178471
0.000178471
0.00158525
0.00161614
0.00161618
0.00161619
0.00161618
0.00161619
0.00161618
0.00161619
0.00161618
0.00161619
0.00161618
0.00161618
0.00161618
0.00161617
0.00161618
0.00161617
0.00161619
0.00161617
0.0016162
0.00161617
0.00161619
0.00161617
0.00161619
0.00161618
0.00161618
0.00161618
0.00161612
0.00158526
0.00017847
0.000178471
0.00158525
0.00161614
0.00161618
0.00161618
0.00161619
0.00161617
0.00161619
0.00161617
0.0016162
0.00161617
0.00161619
0.00161617
0.00161619
0.00161617
0.00161618
0.00161618
0.00161618
0.00161619
0.00161619
0.00161619
0.00161619
0.00161618
0.00161619
0.00161619
0.00161619
0.00161619
0.00161614
0.00158525
0.000178471
0.00017847
0.00158525
0.00161613
0.00161619
0.00161617
0.00161619
0.00161617
0.00161619
0.00161617
0.0016162
0.00161617
0.00161619
0.00161617
0.00161618
0.00161617
0.00161618
0.00161617
0.00161619
0.00161617
0.0016162
0.00161617
0.00161619
0.00161617
0.00161619
0.00161617
0.00161618
0.00161618
0.00161612
0.00158526
0.00017847
0.00017847
0.00158525
0.00161613
0.00161619
0.00161617
0.00161619
0.00161617
0.00161619
0.00161617
0.0016162
0.00161617
0.00161619
0.00161617
0.00161618
0.00161617
0.00161618
0.00161617
0.00161619
0.00161617
0.0016162
0.00161617
0.00161619
0.00161617
0.00161619
0.00161617
0.00161618
0.00161618
0.00161612
0.00158526
0.00017847
0.00017847
0.00158525
0.00161613
0.00161618
0.00161618
0.00161617
0.00161619
0.00161617
0.00161619
0.00161617
0.0016162
0.00161617
0.00161619
0.00161617
0.00161618
0.00161617
0.00161618
0.00161618
0.00161619
0.00161619
0.00161619
0.00161619
0.00161618
0.00161619
0.00161618
0.00161619
0.00161618
0.00161614
0.00158525
0.000178471
0.00017847
0.00158526
0.00161612
0.00161619
0.00161617
0.00161619
0.00161617
0.00161619
0.00161617
0.0016162
0.00161617
0.00161619
0.00161617
0.00161618
0.00161617
0.00161618
0.00161617
0.00161619
0.00161617
0.0016162
0.00161617
0.00161619
0.00161617
0.00161619
0.00161618
0.00161618
0.00161618
0.00161613
0.00158526
0.00017847
0.000178471
0.00158525
0.00161614
0.00161618
0.00161618
0.00161619
0.00161617
0.00161619
0.00161617
0.0016162
0.00161617
0.00161619
0.00161617
0.00161618
0.00161616
0.00161617
0.00161618
0.00161617
0.00161619
0.00161617
0.0016162
0.00161617
0.00161619
0.00161617
0.00161619
0.00161617
0.00161618
0.00161614
0.00158525
0.000178471
0.000178471
0.00158526
0.00161613
0.00161619
0.00161618
0.0016162
0.00161617
0.0016162
0.00161617
0.0016162
0.00161617
0.00161619
0.00161617
0.00161619
0.00161617
0.00161618
0.00161618
0.00161618
0.00161617
0.00161619
0.00161617
0.00161619
0.00161616
0.00161618
0.00161617
0.00161618
0.00161618
0.00161612
0.00158521
0.000178469
6.57608e-07
1.65598e-06
2.3979e-06
1.9932e-05
4.85411e-05
3.58884e-05
5.76978e-05
6.73448e-05
5.39389e-05
3.31106e-05
1.42979e-05
8.51945e-06
9.1285e-06
1.24194e-05
7.45989e-06
7.28201e-06
7.76893e-06
8.37345e-06
9.20979e-06
8.48203e-06
7.99074e-06
7.87988e-06
8.16135e-06
8.46868e-06
8.76388e-06
8.91106e-06
8.90222e-06
8.74851e-06
8.66155e-06
8.95644e-06
1.0163e-05
1.26807e-05
1.88447e-05
3.20069e-05
6.94099e-05
0.000151538
0.000355054
0.00102985
0.00157112
0.00157119
0.00157113
0.00157108
0.00154077
0.000172757
0.000172756
0.00154076
0.00157107
0.00157114
0.00157113
0.00157113
0.00157113
0.00157112
0.00157112
0.00157112
0.00157113
0.00157113
0.00157112
0.00157112
0.00157111
0.00157112
0.00157112
0.00157113
0.00157113
0.00157113
0.00157112
0.00157113
0.00157112
0.00157114
0.00157112
0.00157114
0.00157114
0.00157107
0.00154078
0.000172756
0.000172756
0.00154076
0.00157108
0.00157114
0.00157113
0.00157113
0.00157112
0.00157113
0.00157112
0.00157113
0.00157112
0.00157113
0.00157112
0.00157112
0.00157111
0.00157112
0.00157112
0.00157113
0.00157113
0.00157113
0.00157112
0.00157113
0.00157112
0.00157114
0.00157112
0.00157114
0.00157114
0.00157107
0.00154079
0.000172756
0.000172756
0.00154075
0.00157108
0.00157114
0.00157113
0.00157113
0.00157113
0.00157113
0.00157112
0.00157113
0.00157112
0.00157113
0.00157112
0.00157112
0.00157112
0.00157111
0.00157112
0.00157112
0.00157113
0.00157112
0.00157113
0.00157112
0.00157113
0.00157112
0.00157113
0.00157113
0.00157114
0.00157108
0.00154075
0.000172756
0.000172756
0.00154076
0.00157107
0.00157114
0.00157114
0.00157112
0.00157113
0.00157112
0.00157113
0.00157112
0.00157112
0.00157113
0.00157112
0.00157112
0.00157111
0.00157112
0.00157112
0.00157113
0.00157113
0.00157113
0.00157112
0.00157113
0.00157112
0.00157113
0.00157112
0.00157114
0.00157114
0.00157107
0.00154078
0.000172756
0.000172756
0.00154075
0.00157108
0.00157114
0.00157113
0.00157113
0.00157112
0.00157113
0.00157112
0.00157113
0.00157112
0.00157113
0.00157112
0.00157112
0.00157111
0.00157112
0.00157112
0.00157112
0.00157113
0.00157112
0.00157112
0.00157112
0.00157112
0.00157113
0.00157112
0.00157114
0.00157114
0.00157107
0.00154076
0.000172756
0.000172756
0.00154075
0.00157108
0.00157114
0.00157113
0.00157114
0.00157112
0.00157113
0.00157112
0.00157113
0.00157112
0.00157113
0.00157112
0.00157112
0.00157111
0.00157112
0.00157112
0.00157113
0.00157113
0.00157113
0.00157112
0.00157113
0.00157112
0.00157114
0.00157112
0.00157114
0.00157114
0.00157107
0.00154078
0.000172756
0.000172756
0.00154076
0.00157107
0.00157114
0.00157113
0.00157114
0.00157112
0.00157113
0.00157112
0.00157113
0.00157112
0.00157113
0.00157112
0.00157112
0.00157111
0.00157112
0.00157112
0.00157113
0.00157113
0.00157113
0.00157112
0.00157113
0.00157112
0.00157114
0.00157112
0.00157114
0.00157114
0.00157107
0.00154079
0.000172756
0.000172756
0.00154079
0.00157107
0.00157114
0.00157114
0.00157112
0.00157114
0.00157112
0.00157113
0.00157112
0.00157113
0.00157112
0.00157113
0.00157112
0.00157112
0.00157111
0.00157112
0.00157112
0.00157113
0.00157112
0.00157112
0.00157112
0.00157112
0.00157113
0.00157112
0.00157114
0.00157114
0.00157107
0.00154076
0.000172756
0.000172756
0.00154076
0.00157107
0.00157114
0.00157113
0.00157114
0.00157112
0.00157113
0.00157112
0.00157113
0.00157112
0.00157113
0.00157112
0.00157112
0.00157111
0.00157112
0.00157112
0.00157113
0.00157113
0.00157113
0.00157112
0.00157113
0.00157112
0.00157113
0.00157112
0.00157114
0.00157114
0.00157107
0.00154078
0.000172756
0.000172756
0.00154075
0.00157108
0.00157114
0.00157113
0.00157113
0.00157112
0.00157113
0.00157112
0.00157113
0.00157112
0.00157113
0.00157112
0.00157112
0.00157111
0.00157111
0.00157112
0.00157112
0.00157113
0.00157112
0.00157113
0.00157112
0.00157113
0.00157112
0.00157113
0.00157113
0.00157114
0.00157108
0.00154075
0.000172756
0.000172757
0.00154078
0.00157108
0.00157115
0.00157113
0.00157114
0.00157112
0.00157114
0.00157112
0.00157113
0.00157112
0.00157113
0.00157112
0.00157112
0.00157112
0.00157112
0.00157112
0.00157112
0.00157112
0.00157113
0.00157112
0.00157113
0.00157112
0.00157113
0.00157112
0.00157113
0.00157114
0.00157108
0.0015408
0.000172757
2.23807e-07
1.1914e-06
1.75184e-06
2.29503e-06
1.28836e-05
1.40103e-05
4.69789e-05
6.91668e-05
8.11857e-05
5.87922e-05
2.45252e-05
1.13594e-05
6.2064e-06
6.8839e-06
5.15058e-06
5.06836e-06
6.21195e-06
8.02082e-06
9.89016e-06
1.14413e-05
9.7364e-06
8.66435e-06
8.23868e-06
8.23241e-06
8.4357e-06
8.64928e-06
8.69664e-06
8.53114e-06
8.259e-06
8.19927e-06
8.54436e-06
9.75429e-06
1.27927e-05
1.9586e-05
3.78752e-05
8.93748e-05
0.000201774
0.000451147
0.00111553
0.00152492
0.00152496
0.00152485
0.00149621
0.000167101
0.000167101
0.00149621
0.00152486
0.00152492
0.00152492
0.00152492
0.00152492
0.00152491
0.00152492
0.00152491
0.00152491
0.00152492
0.00152491
0.00152491
0.0015249
0.0015249
0.00152491
0.00152491
0.00152492
0.00152491
0.00152491
0.00152491
0.00152491
0.00152492
0.00152492
0.00152492
0.00152492
0.00152485
0.00149621
0.000167101
0.000167101
0.00149621
0.00152486
0.00152492
0.00152492
0.00152492
0.00152492
0.00152491
0.00152492
0.00152491
0.00152491
0.00152492
0.00152491
0.0015249
0.0015249
0.0015249
0.0015249
0.00152491
0.00152492
0.00152492
0.00152491
0.00152492
0.00152491
0.00152492
0.00152492
0.00152492
0.00152492
0.00152486
0.00149621
0.000167101
0.000167101
0.00149621
0.00152485
0.00152492
0.00152492
0.00152492
0.00152492
0.00152491
0.00152492
0.00152491
0.00152491
0.00152492
0.00152491
0.0015249
0.0015249
0.0015249
0.0015249
0.00152491
0.00152492
0.00152491
0.00152491
0.00152492
0.00152491
0.00152492
0.00152492
0.00152492
0.00152492
0.00152485
0.00149621
0.000167101
0.000167101
0.00149621
0.00152485
0.00152492
0.00152492
0.00152492
0.00152492
0.00152491
0.00152491
0.00152491
0.00152491
0.00152492
0.00152491
0.0015249
0.0015249
0.0015249
0.0015249
0.00152491
0.00152492
0.00152491
0.00152491
0.00152491
0.00152491
0.00152492
0.00152492
0.00152492
0.00152492
0.00152486
0.00149621
0.000167101
0.000167101
0.00149621
0.00152485
0.00152492
0.00152492
0.00152492
0.00152492
0.00152491
0.00152492
0.00152491
0.00152491
0.00152492
0.00152491
0.00152491
0.0015249
0.0015249
0.0015249
0.00152491
0.00152492
0.00152491
0.00152491
0.00152492
0.00152491
0.00152492
0.00152492
0.00152492
0.00152492
0.00152486
0.00149621
0.000167101
0.000167101
0.00149621
0.00152485
0.00152492
0.00152492
0.00152492
0.00152492
0.00152491
0.00152492
0.00152491
0.00152491
0.00152492
0.00152491
0.0015249
0.0015249
0.0015249
0.0015249
0.00152491
0.00152491
0.00152492
0.00152491
0.00152492
0.00152491
0.00152492
0.00152492
0.00152492
0.00152492
0.00152486
0.00149621
0.000167101
0.000167101
0.00149621
0.00152486
0.00152492
0.00152492
0.00152492
0.00152492
0.00152491
0.00152492
0.00152491
0.00152491
0.00152491
0.00152491
0.0015249
0.0015249
0.0015249
0.0015249
0.00152491
0.00152491
0.00152492
0.00152491
0.00152492
0.00152491
0.00152492
0.00152492
0.00152492
0.00152492
0.00152486
0.00149621
0.000167101
0.000167101
0.00149621
0.00152485
0.00152492
0.00152492
0.00152492
0.00152492
0.00152491
0.00152492
0.00152491
0.00152492
0.00152491
0.00152491
0.0015249
0.0015249
0.0015249
0.0015249
0.00152491
0.00152491
0.00152491
0.00152491
0.00152492
0.00152491
0.00152492
0.00152492
0.00152492
0.00152492
0.00152486
0.00149621
0.000167101
0.000167101
0.00149621
0.00152485
0.00152492
0.00152492
0.00152492
0.00152492
0.00152491
0.00152492
0.00152491
0.00152491
0.00152492
0.00152491
0.0015249
0.0015249
0.0015249
0.0015249
0.00152491
0.00152491
0.00152491
0.00152491
0.00152491
0.00152491
0.00152492
0.00152492
0.00152492
0.00152492
0.00152486
0.00149621
0.000167101
0.000167101
0.00149621
0.00152486
0.00152492
0.00152492
0.00152492
0.00152492
0.00152491
0.00152492
0.00152491
0.00152491
0.00152492
0.00152491
0.0015249
0.0015249
0.0015249
0.0015249
0.00152491
0.00152492
0.00152491
0.00152491
0.00152492
0.00152491
0.00152492
0.00152492
0.00152492
0.00152492
0.00152485
0.00149621
0.000167101
0.000167102
0.00149622
0.00152486
0.00152492
0.00152493
0.00152492
0.00152492
0.00152492
0.00152492
0.00152492
0.00152491
0.00152492
0.00152491
0.00152491
0.0015249
0.0015249
0.0015249
0.0015249
0.00152492
0.00152491
0.00152492
0.00152492
0.00152492
0.00152492
0.00152492
0.00152493
0.00152493
0.00152487
0.00149625
0.000167101
1.55382e-07
1.13968e-06
1.60012e-06
1.67678e-06
2.03187e-06
3.64296e-06
2.09544e-05
4.32784e-05
5.48677e-05
6.20941e-05
4.6898e-05
1.69758e-05
5.85765e-06
3.95725e-06
3.53e-06
4.00998e-06
6.24894e-06
8.91735e-06
1.13925e-05
1.33971e-05
1.47676e-05
1.21425e-05
1.04146e-05
9.39964e-06
8.98151e-06
8.88632e-06
8.59322e-06
8.24804e-06
7.83291e-06
7.58459e-06
7.7014e-06
8.17774e-06
9.58282e-06
1.32327e-05
2.10387e-05
3.80584e-05
7.59769e-05
0.000192446
0.000495812
0.00143989
0.00143966
0.00143965
0.00141186
0.000156256
0.000156256
0.00141186
0.00143961
0.00143967
0.00143968
0.00143968
0.00143969
0.00143968
0.00143968
0.00143967
0.00143967
0.00143968
0.00143967
0.00143968
0.00143967
0.00143967
0.00143968
0.00143967
0.00143968
0.00143967
0.00143968
0.00143968
0.00143968
0.00143968
0.00143969
0.00143968
0.00143967
0.00143961
0.00141185
0.000156256
0.000156256
0.00141186
0.00143961
0.00143967
0.00143968
0.00143968
0.00143969
0.00143968
0.00143968
0.00143967
0.00143968
0.00143968
0.00143967
0.00143967
0.00143967
0.00143967
0.00143968
0.00143967
0.00143968
0.00143967
0.00143968
0.00143967
0.00143968
0.00143968
0.00143969
0.00143968
0.00143967
0.00143961
0.00141185
0.000156256
0.000156256
0.00141186
0.00143961
0.00143967
0.00143968
0.00143968
0.00143969
0.00143968
0.00143968
0.00143967
0.00143968
0.00143967
0.00143967
0.00143967
0.00143967
0.00143967
0.00143967
0.00143967
0.00143967
0.00143968
0.00143967
0.00143968
0.00143968
0.00143969
0.00143968
0.00143968
0.00143967
0.00143961
0.00141186
0.000156256
0.000156256
0.00141185
0.00143961
0.00143967
0.00143968
0.00143968
0.00143969
0.00143968
0.00143968
0.00143967
0.00143968
0.00143968
0.00143967
0.00143967
0.00143967
0.00143967
0.00143968
0.00143967
0.00143968
0.00143967
0.00143968
0.00143968
0.00143968
0.00143968
0.00143969
0.00143968
0.00143967
0.00143961
0.00141185
0.000156256
0.000156256
0.00141186
0.00143961
0.00143967
0.00143968
0.00143968
0.00143969
0.00143968
0.00143968
0.00143967
0.00143968
0.00143967
0.00143967
0.00143967
0.00143967
0.00143967
0.00143967
0.00143967
0.00143968
0.00143967
0.00143967
0.00143968
0.00143968
0.00143969
0.00143968
0.00143968
0.00143967
0.00143961
0.00141185
0.000156256
0.000156256
0.00141186
0.00143961
0.00143967
0.00143968
0.00143968
0.00143969
0.00143968
0.00143968
0.00143967
0.00143968
0.00143967
0.00143967
0.00143967
0.00143967
0.00143967
0.00143967
0.00143967
0.00143968
0.00143967
0.00143968
0.00143968
0.00143968
0.00143968
0.00143969
0.00143968
0.00143967
0.00143961
0.00141185
0.000156256
0.000156256
0.00141186
0.00143961
0.00143967
0.00143968
0.00143968
0.00143969
0.00143968
0.00143968
0.00143967
0.00143968
0.00143967
0.00143967
0.00143967
0.00143967
0.00143967
0.00143967
0.00143967
0.00143968
0.00143967
0.00143968
0.00143967
0.00143968
0.00143968
0.00143969
0.00143968
0.00143967
0.00143961
0.00141185
0.000156256
0.000156256
0.00141186
0.00143961
0.00143967
0.00143968
0.00143969
0.00143968
0.00143968
0.00143967
0.00143968
0.00143967
0.00143968
0.00143967
0.00143967
0.00143967
0.00143967
0.00143967
0.00143967
0.00143968
0.00143967
0.00143967
0.00143968
0.00143968
0.00143969
0.00143968
0.00143968
0.00143967
0.00143961
0.00141186
0.000156256
0.000156256
0.00141186
0.00143961
0.00143967
0.00143968
0.00143968
0.00143969
0.00143968
0.00143968
0.00143967
0.00143968
0.00143967
0.00143967
0.00143967
0.00143967
0.00143967
0.00143968
0.00143967
0.00143968
0.00143967
0.00143968
0.00143968
0.00143968
0.00143968
0.00143968
0.00143968
0.00143967
0.00143961
0.00141185