/*--------------------------------*- C++ -*----------------------------------*\
| =========                 |                                                 |
| \\      /  F ield         | OpenFOAM: The Open Source CFD Toolbox           |
|  \\    /   O peration     | Version:  2.1.1                                 |
|   \\  /    A nd           | Web:      www.OpenFOAM.org                      |
|    \\/     M anipulation  |                                                 |
\*---------------------------------------------------------------------------*/
FoamFile
{
    version     2.0;
    format      ascii;
    class       volScalarField;
    location    "0.001000000";
    object      H;
}
// * * * * * * * * * * * * * * * * * * * * * * * * * * * * * * * * * * * * * //

dimensions      [0 0 0 0 0 0 0];

internalField   nonuniform List<scalar> 
12384
(
9.49833e-07
5.2999e-07
1.0927e-07
5.95149e-09
3.89998e-10
2.21844e-11
7.26685e-13
4.42294e-14
7.96459e-16
8.25575e-18
7.43944e-20
7.43625e-22
8.15918e-24
1.15017e-25
4.67825e-29
6.13103e-29
6.11833e-30
3.47295e-32
5.87484e-35
6.74623e-38
5.87003e-41
3.7374e-44
2.34958e-47
1.49566e-50
9.74241e-54
7.04242e-57
8.05775e-60
2.23418e-62
9.50305e-65
4.42164e-67
2.04258e-69
9.53855e-72
4.30928e-74
1.93182e-76
8.33379e-79
3.45547e-81
1.39856e-83
5.56485e-86
2.17616e-88
8.69465e-91
3.41502e-93
1.33293e-95
5.02729e-98
1.85452e-100
1.28324e-107
6.04334e-109
2.40603e-111
8.80633e-114
3.17045e-116
1.13853e-118
4.07997e-121
1.45311e-123
5.13811e-126
1.79233e-128
6.20378e-131
2.11989e-133
7.22079e-136
2.44303e-138
8.29442e-141
2.83065e-143
9.79698e-146
3.47887e-148
1.27992e-150
4.96856e-153
2.05077e-155
9.02975e-158
4.23036e-160
2.06398e-162
1.04686e-164
5.37154e-167
2.73761e-169
1.17318e-173
6.9713e-178
4.80331e-181
4.69488e-190
8.07851e-191
5.98787e-193
2.08508e-195
6.09479e-198
1.54127e-200
3.52419e-203
7.61017e-206
1.57302e-208
3.13896e-211
5.98809e-214
1.11622e-216
2.054e-219
3.74914e-222
6.60685e-225
1.09016e-227
1.59436e-230
1.99657e-233
1.88418e-236
1.43026e-239
9.69465e-243
6.01679e-246
3.4083e-249
1.86836e-252
9.76581e-256
5.02083e-259
2.43369e-262
1.14261e-265
5.38295e-269
6.46565e-273
6.95682e-295
9.97476e-293
3.11674e-295
5.45303e-298
6.97373e-301
7.10336e-304
6.4288e-307
5.17438e-310
3.78149e-313
2.56054e-316
1.63546e-319
1.03754e-322
0
0
0
0
0
0
0
0
0
0
0
0
0
0
0
0
0
0
0
0
0
0
0
0
0
0
0
0
0
0
0
0
0
0
0
0
0
0
0
0
0
0
0
0
0
0
0
0
0
0
0
0
0
0
0
0
0
0
0
0
0
0
0
0
0
0
0
0
0
0
0
0
0
0
0
0
0
0
0
0
0
0
0
0
0
0
0
0
0
0
0
0
0
0
0
0
0
0
0
0
0
0
0
0
0
0
0
0
0
0
0
0
0
0
0
0
0
0
0
0
0
0
0
0
0
0
0
0
0
0
0
0
0
0
0
0
0
0
0
0
0
0
0
0
0
0
0
0
0
0
0
0
0
0
0
0
0
0
0
0
0
0
0
0
0
0
0
0
0
0
0
0
0
0
0
0
0
0
0
0
0
0
0
0
0
0
0
0
0
0
0
0
0
0
0
0
0
0
0
0
0
0
0
0
0
0
0
0
0
0
0
0
0
0
0
0
0
0
0
0
0
0
0
0
0
0
0
0
0
0
0
0
0
0
0
0
0
0
0
0
0
0
0
0
0
0
0
0
0
0
0
0
0
0
0
0
0
0
2.36046e-09
1.52298e-08
7.84419e-09
5.33048e-10
1.27211e-10
2.41268e-12
1.24819e-13
1.82142e-14
1.26496e-15
5.18382e-17
1.10488e-18
8.78262e-21
7.15589e-23
4.94388e-25
1.2675e-29
6.60263e-30
7.9582e-31
8.1351e-33
1.91857e-35
3.32274e-38
4.0394e-41
1.87341e-44
8.66632e-48
7.21728e-51
5.86818e-54
7.42383e-57
1.16736e-59
3.35396e-62
2.34068e-64
1.85608e-66
1.53962e-68
1.12579e-70
9.29311e-73
6.81135e-75
3.85569e-77
1.9113e-79
8.42489e-82
3.8423e-84
1.73284e-86
7.50814e-89
3.23923e-91
1.2375e-93
4.53013e-96
1.65491e-98
5.13088e-106
2.25832e-107
7.99548e-110
3.03818e-112
1.37165e-114
5.91292e-117
2.59694e-119
1.09273e-121
4.58387e-124
1.76347e-126
6.60606e-129
2.51899e-131
8.79284e-134
3.27896e-136
1.0736e-138
4.02079e-141
1.29612e-143
4.80519e-146
1.6201e-148
6.06071e-151
2.18699e-153
8.60973e-156
3.44798e-158
1.46543e-160
6.44248e-163
2.99251e-165
1.41191e-167
6.45928e-170
3.94897e-174
4.0122e-177
2.98668e-186
8.01656e-188
5.32959e-190
2.04202e-192
6.35025e-195
1.70531e-197
4.11225e-200
9.37699e-203
2.03064e-205
4.25108e-208
8.45768e-211
1.64794e-213
3.10045e-216
5.60042e-219
9.44566e-222
1.49041e-224
2.14435e-227
2.79918e-230
3.01533e-233
2.63779e-236
1.95824e-239
1.33012e-242
8.21696e-246
4.80444e-249
2.66568e-252
1.43041e-255
7.33098e-259
3.61592e-262
1.76376e-265
4.4831e-269
1.04097e-290
4.06428e-289
1.23532e-291
2.06077e-294
2.54563e-297
2.53143e-300
2.22743e-303
1.76897e-306
1.27799e-309
8.60512e-313
5.45133e-316
3.40169e-319
2.12448e-322
0
0
0
0
0
0
0
0
0
0
0
0
0
0
0
0
0
0
0
0
0
0
0
0
0
0
0
0
0
0
0
0
0
0
0
0
0
0
0
0
0
0
0
0
0
0
0
0
0
0
0
0
0
0
0
0
0
0
0
0
0
0
0
0
0
0
0
0
0
0
0
0
0
0
0
0
0
0
0
0
0
0
0
0
0
0
0
0
0
0
0
0
0
0
0
0
0
0
0
0
0
0
0
0
0
0
0
0
0
0
0
0
0
0
0
0
0
0
0
0
0
0
0
0
0
0
0
0
0
0
0
0
0
0
0
0
0
0
0
0
0
0
0
0
0
0
0
0
0
0
0
0
0
0
0
0
0
0
0
0
0
0
0
0
0
0
0
0
0
0
0
0
0
0
0
0
0
0
0
0
0
0
0
0
0
0
0
0
0
0
0
0
0
0
0
0
0
0
0
0
0
0
0
0
0
0
0
0
0
0
0
0
0
0
0
0
0
0
0
0
0
0
0
0
0
0
0
0
0
0
0
0
0
0
0
0
0
0
0
0
0
0
0
0
0
0
0
0
0
0
0
0
0
0
0
0
0
3.58138e-12
1.90195e-11
2.67743e-13
6.17123e-14
2.93777e-14
4.0101e-14
4.15362e-16
7.52199e-17
3.31155e-19
1.13006e-20
1.56076e-22
7.95334e-24
1.85469e-25
5.03429e-27
2.90698e-31
7.59202e-30
2.01187e-30
1.28473e-32
1.40076e-35
5.12551e-39
1.92092e-42
5.52274e-47
2.39049e-50
8.05883e-54
3.97995e-57
1.59098e-60
9.23501e-64
6.50374e-67
7.06885e-70
1.54702e-72
6.00844e-75
2.551e-77
2.28637e-79
1.97523e-81
1.34003e-83
1.41006e-85
1.34562e-87
8.02416e-90
9.80551e-92
9.70937e-94
1.24526e-95
7.49349e-98
2.49475e-100
1.12201e-102
9.64115e-112
8.48574e-113
2.26271e-115
8.8322e-118
2.92967e-120
1.07397e-122
3.62181e-125
1.35817e-127
4.50006e-130
1.6525e-132
5.38005e-135
1.87039e-137
6.13595e-140
2.06925e-142
6.87815e-145
2.27832e-147
7.39508e-150
2.46642e-152
8.06172e-155
2.88135e-157
9.73093e-160
3.59299e-162
1.31654e-164
5.05319e-167
2.04016e-169
8.67763e-172
3.61578e-174
1.77607e-176
7.59814e-179
3.14088e-182
1.30789e-191
2.15286e-193
8.1282e-196
3.11936e-198
1.0007e-200
2.71583e-203
6.97511e-206
1.63421e-208
3.75774e-211
8.05388e-214
1.68196e-216
3.29994e-219
6.47268e-222
1.18553e-224
2.00212e-227
2.86685e-230
3.52164e-233
3.73006e-236
3.54064e-239
2.92383e-242
2.19313e-245
1.51313e-248
9.96656e-252
6.20259e-255
3.69015e-258
2.08467e-261
1.12899e-264
5.93935e-268
2.98211e-271
1.44967e-275
6.00484e-296
2.46244e-294
7.00826e-297
1.09885e-299
1.25869e-302
1.17196e-305
9.84485e-309
7.43669e-312
5.19832e-315
3.3731e-318
2.08002e-321
0
0
0
0
0
0
0
0
0
0
0
0
0
0
0
0
0
0
0
0
0
0
0
0
0
0
0
0
0
0
0
0
0
0
0
0
0
0
0
0
0
0
0
0
0
0
0
0
0
0
0
0
0
0
0
0
0
0
0
0
0
0
0
0
0
0
0
0
0
0
0
0
0
0
0
0
0
0
0
0
0
0
0
0
0
0
0
0
0
0
0
0
0
0
0
0
0
0
0
0
0
0
0
0
0
0
0
0
0
0
0
0
0
0
0
0
0
0
0
0
0
0
0
0
0
0
0
0
0
0
0
0
0
0
0
0
0
0
0
0
0
0
0
0
0
0
0
0
0
0
0
0
0
0
0
0
0
0
0
0
0
0
0
0
0
0
0
0
0
0
0
0
0
0
0
0
0
0
0
0
0
0
0
0
0
0
0
0
0
0
0
0
0
0
0
0
0
0
0
0
0
0
0
0
0
0
0
0
0
0
0
0
0
0
0
0
0
0
0
0
0
0
0
0
0
0
0
0
0
0
0
0
0
0
0
0
0
0
0
0
0
0
0
0
0
0
0
0
0
0
0
0
0
0
0
0
0
0
0
2.37004e-07
1.04323e-06
4.91118e-08
5.72938e-10
6.09217e-12
6.82094e-12
6.73038e-12
5.32406e-13
1.98107e-15
1.38064e-18
3.87517e-21
1.26685e-24
1.7878e-26
6.79854e-28
2.94969e-24
1.53901e-21
1.10023e-21
1.82359e-23
1.03347e-26
2.17298e-30
2.72181e-34
3.91621e-38
5.36255e-42
1.16764e-45
1.45657e-49
5.35555e-53
1.47838e-56
6.02189e-60
2.97952e-63
2.62056e-66
4.11891e-69
1.10036e-71
2.02853e-74
5.66476e-77
1.49223e-79
4.4678e-82
1.30407e-84
4.80313e-87
1.12593e-89
4.22591e-92
1.44197e-94
4.49345e-97
1.02927e-99
2.01916e-102
2.00702e-106
9.05596e-108
2.30296e-110
7.44699e-113
2.30139e-115
6.58933e-118
1.80155e-120
4.99593e-123
1.50271e-125
4.25468e-128
1.34007e-130
3.62552e-133
1.19575e-135
3.08686e-138
1.08753e-140
2.66889e-143
1.01506e-145
2.46256e-148
9.89972e-151
2.47335e-153
1.02043e-155
2.86597e-158
1.12893e-160
3.73477e-163
1.47734e-165
5.25756e-168
2.21126e-170
9.12697e-173
4.06904e-175
1.64589e-177
1.25145e-186
3.97002e-189
1.56156e-192
3.46633e-195
8.95632e-198
2.31791e-200
4.91882e-203
1.12782e-205
2.18596e-208
4.65247e-211
8.43204e-214
1.66805e-216
2.8595e-219
5.24147e-222
8.47442e-225
1.40519e-227
2.05833e-230
2.91169e-233
3.46872e-236
3.51808e-239
2.8366e-242
2.09359e-245
1.38787e-248
8.94219e-252
5.34982e-255
3.14702e-258
1.75678e-261
9.49066e-265
4.74337e-268
9.82996e-272
4.93068e-291
1.05322e-290
2.74759e-293
3.84534e-296
4.11591e-299
3.64723e-302
2.81564e-305
2.01858e-308
1.30612e-311
8.15334e-315
4.70093e-318
2.65807e-321
0
0
0
0
0
0
0
0
0
0
0
0
0
0
0
0
0
0
0
0
0
0
0
0
0
0
0
0
0
0
0
0
0
0
0
0
0
0
0
0
0
0
0
0
0
0
0
0
0
0
0
0
0
0
0
0
0
0
0
0
0
0
0
0
0
0
0
0
0
0
0
0
0
0
0
0
0
0
0
0
0
0
0
0
0
0
0
0
0
0
0
0
0
0
0
0
0
0
0
0
0
0
0
0
0
0
0
0
0
0
0
0
0
0
0
0
0
0
0
0
0
0
0
0
0
0
0
0
0
0
0
0
0
0
0
0
0
0
0
0
0
0
0
0
0
0
0
0
0
0
0
0
0
0
0
0
0
0
0
0
0
0
0
0
0
0
0
0
0
0
0
0
0
0
0
0
0
0
0
0
0
0
0
0
0
0
0
0
0
0
0
0
0
0
0
0
0
0
0
0
0
0
0
0
0
0
0
0
0
0
0
0
0
0
0
0
0
0
0
0
0
0
0
0
0
0
0
0
0
0
0
0
0
0
0
0
0
0
0
0
0
0
0
0
0
0
0
0
0
0
0
0
0
0
0
0
0
0
0.000134005
0.000141532
9.77978e-05
2.9884e-06
1.39752e-07
9.01064e-09
4.51981e-09
1.44735e-09
2.32909e-10
6.39664e-13
4.22829e-16
1.47717e-19
3.81356e-23
1.06409e-25
3.2723e-18
1.6899e-15
1.56471e-15
6.03786e-17
7.81244e-20
3.02781e-23
4.39103e-27
4.32936e-31
4.91755e-35
5.48371e-39
1.09903e-42
2.34422e-46
6.87742e-50
2.6031e-53
1.29404e-56
5.38872e-60
4.30669e-63
6.65907e-66
1.54055e-68
3.61872e-71
7.84094e-74
2.24534e-76
7.08431e-79
2.08915e-81
5.92495e-84
1.46118e-86
2.75593e-89
7.19908e-92
1.28142e-94
2.19574e-97
3.02192e-100
1.72264e-101
3.31729e-104
8.82851e-107
2.54702e-109
6.90148e-112
1.65269e-114
4.25048e-117
1.17245e-119
3.07569e-122
9.06617e-125
2.90337e-127
9.44859e-130
2.93362e-132
9.76322e-135
2.92108e-137
1.00407e-139
2.98461e-142
1.03666e-144
3.18619e-147
1.10882e-149
3.62493e-152
1.27065e-154
4.50001e-157
1.63056e-159
6.17555e-162
2.39616e-164
9.44355e-167
3.90384e-169
1.63549e-171
9.45987e-180
3.66063e-182
5.45872e-186
9.61261e-190
1.12068e-192
2.33099e-195
4.92076e-198
9.70346e-201
1.92819e-203
3.61351e-206
6.80371e-209
1.21022e-211
2.16231e-214
3.64663e-217
6.08483e-220
9.55252e-223
1.46159e-225
2.07641e-228
2.73664e-231
3.04338e-234
2.77185e-237
2.0956e-240
1.44954e-243
9.25293e-247
5.65269e-250
3.27413e-253
1.83502e-256
9.92735e-260
5.0727e-263
1.26368e-266
2.42392e-284
7.07792e-285
1.45639e-287
1.78404e-290
1.67139e-293
1.33322e-296
9.5273e-300
6.19961e-303
3.80149e-306
2.18358e-309
1.20902e-312
6.36335e-316
3.26419e-319
1.63042e-322
0
0
0
0
0
0
0
0
0
0
0
0
0
0
0
0
0
0
0
0
0
0
0
0
0
0
0
0
0
0
0
0
0
0
0
0
0
0
0
0
0
0
0
0
0
0
0
0
0
0
0
0
0
0
0
0
0
0
0
0
0
0
0
0
0
0
0
0
0
0
0
0
0
0
0
0
0
0
0
0
0
0
0
0
0
0
0
0
0
0
0
0
0
0
0
0
0
0
0
0
0
0
0
0
0
0
0
0
0
0
0
0
0
0
0
0
0
0
0
0
0
0
0
0
0
0
0
0
0
0
0
0
0
0
0
0
0
0
0
0
0
0
0
0
0
0
0
0
0
0
0
0
0
0
0
0
0
0
0
0
0
0
0
0
0
0
0
0
0
0
0
0
0
0
0
0
0
0
0
0
0
0
0
0
0
0
0
0
0
0
0
0
0
0
0
0
0
0
0
0
0
0
0
0
0
0
0
0
0
0
0
0
0
0
0
0
0
0
0
0
0
0
0
0
0
0
0
0
0
0
0
0
0
0
0
0
0
0
0
0
0
0
0
0
0
0
0
0
0
0
0
0
0
0
0
0
0.000161825
0.000167211
0.000166494
0.000114871
2.82969e-05
6.12812e-06
1.40906e-06
4.03973e-07
6.86765e-08
7.83414e-09
7.39781e-11
2.81831e-14
2.17992e-18
1.30358e-21
2.52118e-13
9.61815e-12
4.45668e-12
2.04873e-13
3.26298e-16
4.55569e-19
5.17139e-22
2.34496e-25
3.35623e-29
4.64155e-33
9.33943e-37
2.49086e-40
7.88069e-44
3.29827e-47
1.34506e-50
7.64893e-54
3.76514e-57
2.66277e-60
3.06891e-63
7.05258e-66
1.67982e-68
3.79503e-71
1.1036e-73
3.19801e-76
8.34398e-79
1.96562e-81
5.16768e-84
1.06231e-86
1.33724e-89
2.02655e-92
9.59351e-95
5.94626e-96
1.35572e-98
3.65985e-101
9.62794e-104
2.1786e-106
4.06821e-109
9.83353e-112
2.67185e-114
7.83472e-117
2.27637e-119
6.49711e-122
1.90551e-124
6.02007e-127
1.92231e-129
6.01015e-132
1.91222e-134
6.02396e-137
1.91763e-139
6.15545e-142
1.99302e-144
6.5025e-147
2.18741e-149
7.32588e-152
2.59457e-154
9.07982e-157
3.39258e-159
1.25941e-161
4.8943e-164
1.7037e-166
1.93372e-173
1.36837e-175
1.57232e-179
1.35593e-183
1.2252e-187
6.956e-191
1.17157e-193
2.19415e-196
3.90498e-199
7.10671e-202
1.22629e-204
2.15747e-207
3.60478e-210
6.05849e-213
9.63424e-216
1.51844e-218
2.2705e-221
3.28989e-224
4.41686e-227
5.37395e-230
5.46302e-233
4.53704e-236
3.23649e-239
2.11645e-242
1.29528e-245
7.54882e-249
4.2116e-252
2.2631e-255
1.1466e-258
2.52411e-262
2.19393e-278
1.18129e-279
1.94313e-282
1.99617e-285
1.63272e-288
1.16054e-291
7.4774e-295
4.4803e-298
2.53087e-301
1.36437e-304
7.0618e-308
3.53117e-311
1.71238e-314
8.07943e-318
3.70549e-321
0
0
0
0
0
0
0
0
0
0
0
0
0
0
0
0
0
0
0
0
0
0
0
0
0
0
0
0
0
0
0
0
0
0
0
0
0
0
0
0
0
0
0
0
0
0
0
0
0
0
0
0
0
0
0
0
0
0
0
0
0
0
0
0
0
0
0
0
0
0
0
0
0
0
0
0
0
0
0
0
0
0
0
0
0
0
0
0
0
0
0
0
0
0
0
0
0
0
0
0
0
0
0
0
0
0
0
0
0
0
0
0
0
0
0
0
0
0
0
0
0
0
0
0
0
0
0
0
0
0
0
0
0
0
0
0
0
0
0
0
0
0
0
0
0
0
0
0
0
0
0
0
0
0
0
0
0
0
0
0
0
0
0
0
0
0
0
0
0
0
0
0
0
0
0
0
0
0
0
0
0
0
0
0
0
0
0
0
0
0
0
0
0
0
0
0
0
0
0
0
0
0
0
0
0
0
0
0
0
0
0
0
0
0
0
0
0
0
0
0
0
0
0
0
0
0
0
0
0
0
0
0
0
0
0
0
0
0
0
0
0
0
0
0
0
0
0
0
0
0
0
0
0
0
0
0.000156379
0.000156776
0.000162736
0.000154881
0.00010747
5.49404e-05
2.88415e-05
1.25066e-05
9.10923e-06
2.07517e-06
1.52051e-07
1.83969e-09
2.97494e-13
3.76975e-17
1.10274e-09
2.3986e-09
1.53782e-09
2.266e-10
3.76702e-13
4.10214e-16
4.44437e-19
5.47084e-22
5.37871e-25
2.80268e-28
9.19279e-32
3.59289e-35
1.50663e-38
8.30325e-42
4.72248e-45
2.48877e-48
1.61832e-51
9.84147e-55
7.18051e-58
9.76273e-61
2.2513e-63
6.26899e-66
1.88463e-68
5.41548e-71
1.48028e-73
3.94083e-76
9.53797e-79
1.74613e-81
2.11e-84
1.92656e-87
7.71829e-90
4.3898e-91
1.31016e-93
4.55889e-96
1.17183e-98
3.04495e-101
6.26429e-104
1.41749e-106
3.60975e-109
1.14921e-111
3.54001e-114
1.15701e-116
3.66741e-119
1.25502e-121
4.11228e-124
1.35237e-126
4.34355e-129
1.42004e-131
4.55124e-134
1.48818e-136
4.83431e-139
1.58122e-141
5.30273e-144
1.74195e-146
6.1128e-149
2.05206e-151
7.49715e-154
2.60676e-156
9.84517e-159
3.79647e-161
4.46951e-168
3.27623e-170
1.14479e-172
8.65166e-177
5.22257e-181
3.45854e-185
7.93417e-189
1.06578e-191
1.78924e-194
2.93042e-197
4.91094e-200
7.9384e-203
1.29977e-205
2.03719e-208
3.19633e-211
4.83501e-214
7.26595e-217
1.03931e-219
1.42461e-222
1.80945e-225
2.0491e-228
1.91132e-231
1.46517e-234
9.88868e-238
6.15954e-241
3.60964e-244
2.01511e-247
1.07763e-250
5.45341e-254
1.45679e-257
6.99265e-272
5.11389e-274
6.21654e-277
5.20899e-280
3.63128e-283
2.26327e-286
1.30551e-289
7.10117e-293
3.69092e-296
1.84536e-299
8.93917e-303
4.20481e-306
1.92956e-309
8.64918e-313
3.79189e-316
1.62948e-319
6.91692e-323
0
0
0
0
0
0
0
0
0
0
0
0
0
0
0
0
0
0
0
0
0
0
0
0
0
0
0
0
0
0
0
0
0
0
0
0
0
0
0
0
0
0
0
0
0
0
0
0
0
0
0
0
0
0
0
0
0
0
0
0
0
0
0
0
0
0
0
0
0
0
0
0
0
0
0
0
0
0
0
0
0
0
0
0
0
0
0
0
0
0
0
0
0
0
0
0
0
0
0
0
0
0
0
0
0
0
0
0
0
0
0
0
0
0
0
0
0
0
0
0
0
0
0
0
0
0
0
0
0
0
0
0
0
0
0
0
0
0
0
0
0
0
0
0
0
0
0
0
0
0
0
0
0
0
0
0
0
0
0
0
0
0
0
0
0
0
0
0
0
0
0
0
0
0
0
0
0
0
0
0
0
0
0
0
0
0
0
0
0
0
0
0
0
0
0
0
0
0
0
0
0
0
0
0
0
0
0
0
0
0
0
0
0
0
0
0
0
0
0
0
0
0
0
0
0
0
0
0
0
0
0
0
0
0
0
0
0
0
0
0
0
0
0
0
0
0
0
0
0
0
0
0
0
0.000153231
0.000157051
0.000178854
0.000186426
0.000158444
0.000124168
9.34764e-05
5.42916e-05
4.34807e-05
2.88358e-05
3.49597e-06
5.06135e-08
5.91112e-10
3.09848e-13
7.01487e-08
7.95636e-08
8.89649e-08
6.34715e-08
3.76833e-10
4.49313e-13
3.32418e-16
3.06466e-19
3.59185e-22
3.81611e-25
3.57482e-28
3.14388e-31
2.75803e-34
2.24313e-37
1.68064e-40
1.22391e-43
7.77012e-47
5.20964e-50
3.14946e-53
2.36305e-56
2.79654e-59
6.74832e-62
2.00195e-64
6.21978e-67
2.02976e-69
5.54523e-72
1.55151e-74
2.82726e-77
3.39193e-80
3.10012e-83
2.72884e-86
1.17499e-87
7.18366e-90
4.4798e-92
1.62917e-94
4.46749e-97
1.0624e-99
2.12979e-102
4.61529e-105
1.35503e-107
4.44651e-110
1.52479e-112
4.98317e-115
1.73359e-117
5.4972e-120
1.90028e-122
5.82175e-125
1.99443e-127
6.01471e-130
2.05076e-132
6.52403e-135
2.19542e-137
7.08125e-140
2.36045e-142
7.86946e-145
2.62061e-147
9.04775e-150
3.0475e-152
1.09532e-154
3.99209e-157
5.30642e-164
3.95446e-166
1.48512e-168
5.90648e-171
3.21797e-175
2.62199e-179
8.81397e-184
8.52888e-188
8.98252e-191
1.35969e-193
2.0737e-196
3.18583e-199
4.81023e-202
7.20581e-205
1.05611e-207
1.52803e-210
2.16472e-213
2.99436e-216
4.03001e-219
5.2037e-222
6.20206e-225
6.4667e-228
5.58865e-231
4.04114e-234
2.59582e-237
1.54239e-240
8.62415e-244
4.57567e-247
2.27749e-250
6.30945e-254
2.14919e-266
2.52261e-269
2.08807e-272
1.37061e-275
7.96653e-279
4.29027e-282
2.19075e-285
1.07394e-288
5.09544e-292
2.35256e-295
1.06061e-298
4.68022e-302
2.02453e-305
8.59928e-309
3.58592e-312
1.47071e-315
5.93002e-319
2.37152e-322
0
0
0
0
0
0
0
0
0
0
0
0
0
0
0
0
0
0
0
0
0
0
0
0
0
0
0
0
0
0
0
0
0
0
0
0
0
0
0
0
0
0
0
0
0
0
0
0
0
0
0
0
0
0
0
0
0
0
0
0
0
0
0
0
0
0
0
0
0
0
0
0
0
0
0
0
0
0
0
0
0
0
0
0
0
0
0
0
0
0
0
0
0
0
0
0
0
0
0
0
0
0
0
0
0
0
0
0
0
0
0
0
0
0
0
0
0
0
0
0
0
0
0
0
0
0
0
0
0
0
0
0
0
0
0
0
0
0
0
0
0
0
0
0
0
0
0
0
0
0
0
0
0
0
0
0
0
0
0
0
0
0
0
0
0
0
0
0
0
0
0
0
0
0
0
0
0
0
0
0
0
0
0
0
0
0
0
0
0
0
0
0
0
0
0
0
0
0
0
0
0
0
0
0
0
0
0
0
0
0
0
0
0
0
0
0
0
0
0
0
0
0
0
0
0
0
0
0
0
0
0
0
0
0
0
0
0
0
0
0
0
0
0
0
0
0
0
0
0
0
0
0
0.000167379
0.000214564
0.000218712
0.000176757
0.000162134
0.000168723
0.000154776
0.00010412
0.000102249
9.7603e-05
7.67501e-05
2.37987e-05
1.06177e-06
3.04637e-09
6.42831e-09
1.38351e-08
8.77398e-08
3.39515e-07
1.16101e-06
1.77088e-06
3.54297e-07
4.30883e-10
2.88299e-13
2.00593e-16
1.89803e-19
2.04365e-22
2.29249e-25
2.5984e-28
3.1025e-31
3.49383e-34
3.61541e-37
3.5536e-40
3.12099e-43
2.57111e-46
1.93819e-49
1.43448e-52
1.19155e-55
1.61813e-58
4.63606e-61
1.88416e-63
7.6111e-66
2.88211e-68
9.93879e-71
2.67741e-73
5.06574e-76
5.05782e-79
6.60367e-81
1.87147e-82
8.79709e-84
8.54985e-86
6.1711e-88
3.75245e-90
1.95152e-92
9.18153e-95
4.06144e-97
1.68526e-99
6.72088e-102
2.56748e-104
9.76155e-107
3.60098e-109
1.33623e-111
4.83558e-114
1.74793e-116
6.18571e-119
2.16249e-121
7.44762e-124
2.51917e-126
8.55366e-129
2.83671e-131
9.62569e-134
3.14239e-136
1.07796e-138
3.46937e-141
1.20521e-143
3.94115e-146
1.33816e-148
4.72619e-151
1.76801e-153
7.32587e-156
3.39983e-158
2.28338e-160
1.23482e-162
5.68909e-165
2.60448e-167
1.05099e-169
2.14675e-173
4.52798e-178
7.46303e-183
5.53439e-187
4.32964e-190
5.5192e-193
6.73546e-196
8.99346e-199
1.16777e-201
1.57112e-204
2.0862e-207
2.79744e-210
3.70578e-213
4.92374e-216
6.37628e-219
7.89649e-222
8.95763e-225
8.64106e-228
6.81652e-231
4.58098e-234
2.78543e-237
1.56668e-240
8.19889e-244
3.91597e-247
1.72279e-250
4.23181e-254
3.40124e-258
1.23553e-261
6.69686e-265
3.44208e-268
1.70381e-271
8.09005e-275
3.71955e-278
1.66759e-281
7.32171e-285
3.15609e-288
1.33846e-291
5.5923e-295
2.30409e-298
9.36336e-302
3.75361e-305
1.48373e-308
5.78165e-312
2.22173e-315
8.42456e-319
3.16202e-322
0
0
0
0
0
0
0
0
0
0
0
0
0
0
0
0
0
0
0
0
0
0
0
0
0
0
0
0
0
0
0
0
0
0
0
0
0
0
0
0
0
0
0
0
0
0
0
0
0
0
0
0
0
0
0
0
0
0
0
0
0
0
0
0
0
0
0
0
0
0
0
0
0
0
0
0
0
0
0
0
0
0
0
0
0
0
0
0
0
0
0
0
0
0
0
0
0
0
0
0
0
0
0
0
0
0
0
0
0
0
0
0
0
0
0
0
0
0
0
0
0
0
0
0
0
0
0
0
0
0
0
0
0
0
0
0
0
0
0
0
0
0
0
0
0
0
0
0
0
0
0
0
0
0
0
0
0
0
0
0
0
0
0
0
0
0
0
0
0
0
0
0
0
0
0
0
0
0
0
0
0
0
0
0
0
0
0
0
0
0
0
0
0
0
0
0
0
0
0
0
0
0
0
0
0
0
0
0
0
0
0
0
0
0
0
0
0
0
0
0
0
0
0
0
0
0
0
0
0
0
0
0
0
0
0
0
0
0
0
0
0
0
0
0
0
0
0
0
0
0
0
0
0
0
0
0
0
0
0
0
0
0
0
0
0
0
0
0
0
0.000215292
0.000187987
0.000128865
0.000103123
0.00010983
0.000144244
0.000167446
0.0001702
0.000123542
0.000120662
0.000118939
0.00012635
0.000129219
5.66422e-06
3.04269e-06
1.00784e-05
4.37973e-05
0.000102242
0.000125983
3.20102e-05
2.95874e-06
5.2448e-09
5.14592e-12
5e-15
6.31393e-18
9.09728e-21
1.26033e-23
1.57995e-26
1.93909e-29
2.21927e-32
2.51554e-35
2.76609e-38
2.90475e-41
2.96923e-44
2.93164e-47
2.80858e-50
2.68176e-53
2.58026e-56
2.65314e-59
3.6894e-62
9.98242e-65
4.61605e-67
2.50947e-69
1.37815e-71
7.65347e-74
3.65319e-76
2.20906e-78
1.42348e-80
7.66436e-83
3.5456e-85
1.76841e-87
9.41816e-90
4.97777e-92
2.46285e-94
1.19076e-96
5.56543e-99
2.56326e-101
1.14715e-103
5.07766e-106
2.19052e-108
9.43375e-111
3.95263e-113
1.64816e-115
6.70217e-118
2.69672e-120
1.06168e-122
4.13923e-125
1.5968e-127
6.13553e-130
2.35357e-132
9.04233e-135
3.49407e-137
1.36155e-139
5.37886e-142
2.1548e-144
8.83998e-147
3.6802e-149
1.57636e-151
6.81753e-154
3.048e-156
1.3658e-158
6.26578e-161
2.88155e-163
1.34174e-165
6.25997e-168
1.93568e-170
2.86846e-175
3.62732e-180
8.13161e-185
3.93721e-188
4.55538e-191
5.61838e-194
7.1113e-197
9.15629e-200
1.18752e-202
1.53897e-205
1.96936e-208
2.45955e-211
2.98085e-214
3.50729e-217
3.9779e-220
4.28181e-223
4.29335e-226
3.85768e-229
2.97912e-232
1.97051e-235
1.14811e-238
6.09829e-242
3.0155e-245
1.39921e-248
6.14805e-252
2.66482e-255
1.15924e-258
4.97062e-262
2.09347e-265
8.62353e-269
3.4881e-272
1.39742e-275
5.56501e-279
2.20261e-282
8.64419e-286
3.36061e-289
1.29519e-292
4.95392e-296
1.88143e-299
7.09204e-303
2.64824e-306
9.78189e-310
3.57708e-313
1.29596e-316
4.64817e-320
1.4822e-323
0
0
0
0
0
0
0
0
0
0
0
0
0
0
0
0
0
0
0
0
0
0
0
0
0
0
0
0
0
0
0
0
0
0
0
0
0
0
0
0
0
0
0
0
0
0
0
0
0
0
0
0
0
0
0
0
0
0
0
0
0
0
0
0
0
0
0
0
0
0
0
0
0
0
0
0
0
0
0
0
0
0
0
0
0
0
0
0
0
0
0
0
0
0
0
0
0
0
0
0
0
0
0
0
0
0
0
0
0
0
0
0
0
0
0
0
0
0
0
0
0
0
0
0
0
0
0
0
0
0
0
0
0
0
0
0
0
0
0
0
0
0
0
0
0
0
0
0
0
0
0
0
0
0
0
0
0
0
0
0
0
0
0
0
0
0
0
0
0
0
0
0
0
0
0
0
0
0
0
0
0
0
0
0
0
0
0
0
0
0
0
0
0
0
0
0
0
0
0
0
0
0
0
0
0
0
0
0
0
0
0
0
0
0
0
0
0
0
0
0
0
0
0
0
0
0
0
0
0
0
0
0
0
0
0
0
0
0
0
0
0
0
0
0
0
0
0
0
0
0
0
0
0
0
0
0
0
0
0
0
0
0
0
0
0
0
0
0
8.67813e-05
7.29898e-05
5.46104e-05
5.01877e-05
6.22591e-05
9.07477e-05
0.000119401
0.000148045
0.000157014
0.000126192
0.000126645
0.000126629
0.000123984
0.000129921
0.000127762
0.000126541
0.000124735
0.000126991
0.000120701
3.21817e-05
3.26156e-06
1.11285e-08
1.01536e-11
1.09649e-14
1.3807e-17
1.85187e-20
2.44526e-23
2.96442e-26
3.51225e-29
3.95723e-32
4.44873e-35
4.88126e-38
5.27628e-41
5.57768e-44
5.78675e-47
5.82552e-50
5.81971e-53
5.9447e-56
6.14008e-59
6.78445e-62
8.71006e-65
1.76082e-67
7.21635e-70
4.32141e-72
2.83005e-74
2.03356e-76
1.16515e-78
5.78485e-81
2.33223e-83
9.00916e-86
3.63585e-88
1.60993e-90
7.23417e-93
3.26251e-95
1.4573e-97
6.5112e-100
2.90119e-102
1.26767e-104
5.59438e-107
2.44128e-109
1.06033e-111
4.52178e-114
1.91979e-116
7.95396e-119
3.27011e-121
1.30873e-123
5.18917e-126
2.01975e-128
7.82809e-131
3.0083e-133
1.15801e-135
4.45463e-138
1.73244e-140
6.78808e-143
2.71604e-145
1.10722e-147
4.64189e-150
2.01356e-152
8.68468e-155
3.86688e-157
1.71867e-159
7.92393e-162
3.6787e-164
1.74063e-166
8.21165e-169
2.50265e-173
8.15852e-178
2.81728e-182
1.88479e-186
1.19641e-189
1.44716e-192
1.83235e-195
2.36558e-198
3.08458e-201
4.04315e-204
5.29557e-207
6.89375e-210
8.89881e-213
1.13241e-215
1.4163e-218
1.72501e-221
2.0057e-224
2.16981e-227
2.1326e-230
1.84372e-233
1.36912e-236
8.75059e-240
5.01084e-243
2.63522e-246
1.27503e-249
5.99362e-253
2.81582e-256
1.26889e-259
5.49127e-263
2.33959e-266
9.75897e-270
4.02207e-273
1.65633e-276
6.78734e-280
2.76559e-283
1.11876e-286
4.48427e-290
1.77817e-293
6.9665e-297
2.6935e-300
1.0268e-303
3.85697e-307
1.42713e-310
5.20284e-314
1.87064e-317
6.64024e-321
0
0
0
0
0
0
0
0
0
0
0
0
0
0
0
0
0
0
0
0
0
0
0
0
0
0
0
0
0
0
0
0
0
0
0
0
0
0
0
0
0
0
0
0
0
0
0
0
0
0
0
0
0
0
0
0
0
0
0
0
0
0
0
0
0
0
0
0
0
0
0
0
0
0
0
0
0
0
0
0
0
0
0
0
0
0
0
0
0
0
0
0
0
0
0
0
0
0
0
0
0
0
0
0
0
0
0
0
0
0
0
0
0
0
0
0
0
0
0
0
0
0
0
0
0
0
0
0
0
0
0
0
0
0
0
0
0
0
0
0
0
0
0
0
0
0
0
0
0
0
0
0
0
0
0
0
0
0
0
0
0
0
0
0
0
0
0
0
0
0
0
0
0
0
0
0
0
0
0
0
0
0
0
0
0
0
0
0
0
0
0
0
0
0
0
0
0
0
0
0
0
0
0
0
0
0
0
0
0
0
0
0
0
0
0
0
0
0
0
0
0
0
0
0
0
0
0
0
0
0
0
0
0
0
0
0
0
0
0
0
0
0
0
0
0
0
0
0
0
0
0
0
0
0
0
0
0
0
0
0
0
0
0
0
0
0
0
0
0
2.76537e-05
2.83872e-05
2.9626e-05
2.72316e-05
2.86622e-05
4.08557e-05
5.40542e-05
7.72577e-05
8.97341e-05
0.000107257
0.000110038
0.000108703
0.000104448
0.000101657
9.88563e-05
9.69154e-05
0.000102362
9.42502e-05
9.14282e-05
1.87562e-05
1.93646e-06
3.55703e-09
4.83493e-12
5.77705e-15
6.61334e-18
7.61023e-21
8.47088e-24
9.21333e-27
1.00756e-29
1.03924e-32
1.15143e-35
1.2e-38
1.25992e-41
1.30435e-44
1.34092e-47
1.41948e-50
1.44789e-53
1.53864e-56
1.66933e-59
1.896e-62
2.263e-65
2.93946e-68
4.58156e-71
1.26654e-73
6.51962e-76
5.85844e-78
3.05979e-80
1.27936e-82
4.53474e-85
1.51745e-87
5.41713e-90
2.08796e-92
8.54307e-95
3.58551e-97
1.54685e-99
6.6427e-102
2.92539e-104
1.28643e-106
5.61137e-109
2.4334e-111
1.04312e-113
4.41779e-116
1.84835e-118
7.57796e-121
3.07254e-123
1.21377e-125
4.76415e-128
1.8359e-130
7.08708e-133
2.712e-135
1.04607e-137
4.04097e-140
1.58645e-142
6.30204e-145
2.56269e-147
1.06586e-149
4.53183e-152
1.98605e-154
8.81162e-157
4.01881e-159
1.83505e-161
8.61191e-164
4.06027e-166
1.94108e-168
5.21826e-171
6.07777e-176
6.16211e-181
1.0915e-185
3.77604e-189
4.71833e-192
6.27813e-195
8.48251e-198
1.15678e-200
1.59026e-203
2.18739e-206
3.00119e-209
4.08535e-212
5.51273e-215
7.30098e-218
9.46107e-221
1.19097e-223
1.43807e-226
1.63962e-229
1.73368e-232
1.64217e-235
1.33333e-238
9.14032e-242
5.49243e-245
3.03287e-248
1.57809e-251
7.8575e-255
3.77316e-258
1.75587e-261
7.95752e-265
3.52175e-268
1.52557e-271
6.48412e-275
2.70941e-278
1.11483e-281
4.52301e-285
1.81119e-288
7.1636e-292
2.79981e-295
1.08169e-298
4.13145e-302
1.56021e-305
5.8263e-309
2.15167e-312
7.85977e-316
2.84048e-319
1.03754e-322
0
0
0
0
0
0
0
0
0
0
0
0
0
0
0
0
0
0
0
0
0
0
0
0
0
0
0
0
0
0
0
0
0
0
0
0
0
0
0
0
0
0
0
0
0
0
0
0
0
0
0
0
0
0
0
0
0
0
0
0
0
0
0
0
0
0
0
0
0
0
0
0
0
0
0
0
0
0
0
0
0
0
0
0
0
0
0
0
0
0
0
0
0
0
0
0
0
0
0
0
0
0
0
0
0
0
0
0
0
0
0
0
0
0
0
0
0
0
0
0
0
0
0
0
0
0
0
0
0
0
0
0
0
0
0
0
0
0
0
0
0
0
0
0
0
0
0
0
0
0
0
0
0
0
0
0
0
0
0
0
0
0
0
0
0
0
0
0
0
0
0
0
0
0
0
0
0
0
0
0
0
0
0
0
0
0
0
0
0
0
0
0
0
0
0
0
0
0
0
0
0
0
0
0
0
0
0
0
0
0
0
0
0
0
0
0
0
0
0
0
0
0
0
0
0
0
0
0
0
0
0
0
0
0
0
0
0
0
0
0
0
0
0
0
0
0
0
0
0
0
0
0
0
0
0
0
0
0
0
0
0
0
0
0
0
0
0
0
0
1.37563e-05
1.5372e-05
1.69234e-05
1.7868e-05
1.95664e-05
2.19487e-05
2.76789e-05
3.3832e-05
4.87413e-05
6.2063e-05
7.30821e-05
8.24304e-05
7.93441e-05
7.97872e-05
7.39973e-05
7.36375e-05
7.1464e-05
7.05201e-05
6.21006e-05
9.28089e-06
7.38559e-07
1.14663e-09
1.66469e-12
2.06219e-15
2.31741e-18
2.4445e-21
2.50079e-24
2.46667e-27
2.53184e-30
2.47173e-33
2.47514e-36
2.40696e-39
2.33283e-42
2.21974e-45
2.13112e-48
2.01582e-51
1.85006e-54
1.76362e-57
1.69979e-60
1.68892e-63
1.74529e-66
1.84982e-69
2.01956e-72
2.49875e-75
4.14563e-78
1.73214e-80
9.42635e-83
4.54313e-85
1.89076e-87
7.53257e-90
2.97892e-92
1.22194e-94
5.0582e-97
2.15098e-99
8.93793e-102
3.84051e-104
1.64068e-106
7.00023e-109
2.97745e-111
1.25428e-113
5.24234e-116
2.17118e-118
8.84162e-121
3.57044e-123
1.40848e-125
5.50044e-128
2.11423e-130
8.10143e-133
3.09456e-135
1.18495e-137
4.57478e-140
1.78222e-142
7.07131e-145
2.8585e-147
1.18333e-149
5.03441e-152
2.18605e-154
9.78378e-157
4.42635e-159
2.05683e-161
9.56142e-164
4.54626e-166
2.16384e-168
8.06523e-171
1.69552e-175
2.58657e-180
3.97183e-185
5.01297e-189
6.07223e-192
8.56867e-195
1.21378e-197
1.72623e-200
2.46667e-203
3.55563e-206
5.10773e-209
7.30319e-212
1.03109e-214
1.44413e-217
1.98649e-220
2.68445e-223
3.54429e-226
4.5125e-229
5.44744e-232
6.12488e-235
6.28305e-238
5.60447e-241
4.14375e-244
2.60426e-247
1.48621e-250
7.9491e-254
4.05519e-257
1.98918e-260
9.44176e-264
4.3625e-267
1.96564e-270
8.66555e-274
3.74565e-277
1.59041e-280
6.64342e-284
2.73362e-287
1.10916e-290
4.44168e-294
1.75664e-297
6.8649e-301
2.65211e-304
1.01319e-307
3.82898e-311
1.4317e-314
5.29791e-318
1.94168e-321
0
0
0
0
0
0
0
0
0
0
0
0
0
0
0
0
0
0
0
0
0
0
0
0
0
0
0
0
0
0
0
0
0
0
0
0
0
0
0
0
0
0
0
0
0
0
0
0
0
0
0
0
0
0
0
0
0
0
0
0
0
0
0
0
0
0
0
0
0
0
0
0
0
0
0
0
0
0
0
0
0
0
0
0
0
0
0
0
0
0
0
0
0
0
0
0
0
0
0
0
0
0
0
0
0
0
0
0
0
0
0
0
0
0
0
0
0
0
0
0
0
0
0
0
0
0
0
0
0
0
0
0
0
0
0
0
0
0
0
0
0
0
0
0
0
0
0
0
0
0
0
0
0
0
0
0
0
0
0
0
0
0
0
0
0
0
0
0
0
0
0
0
0
0
0
0
0
0
0
0
0
0
0
0
0
0
0
0
0
0
0
0
0
0
0
0
0
0
0
0
0
0
0
0
0
0
0
0
0
0
0
0
0
0
0
0
0
0
0
0
0
0
0
0
0
0
0
0
0
0
0
0
0
0
0
0
0
0
0
0
0
0
0
0
0
0
0
0
0
0
0
0
0
0
0
0
0
0
0
0
0
0
0
0
0
0
0
0
0
0
1.36576e-05
1.47365e-05
1.5753e-05
1.60573e-05
1.61484e-05
1.64569e-05
1.69304e-05
1.8372e-05
2.25235e-05
2.85838e-05
3.29866e-05
3.59093e-05
4.03145e-05
4.65106e-05
5.11653e-05
4.92678e-05
4.77208e-05
4.03574e-05
9.68616e-06
1.29849e-06
7.26679e-09
7.90139e-12
1.29859e-14
1.87216e-17
2.32754e-20
2.60107e-23
2.71036e-26
2.70246e-29
2.63736e-32
2.5515e-35
2.47321e-38
2.39866e-41
2.31575e-44
2.21312e-47
2.10766e-50
1.9925e-53
1.9005e-56
1.8132e-59
1.77664e-62
1.79005e-65
1.86074e-68
1.97833e-71
2.16419e-74
2.55283e-77
3.61661e-80
9.60429e-83
4.35941e-85
2.19671e-87
1.04337e-89
4.62806e-92
2.02844e-94
8.6519e-97
3.70394e-99
1.55754e-101
6.58491e-104
2.75086e-106
1.14584e-108
4.74871e-111
1.9586e-113
7.99755e-116
3.2559e-118
1.30498e-120
5.19498e-123
2.03278e-125
7.85171e-128
3.00826e-130
1.14076e-132
4.34453e-135
1.64743e-137
6.33282e-140
2.44865e-142
9.66367e-145
3.88215e-147
1.59937e-149
6.76244e-152
2.92973e-154
1.30258e-156
5.9119e-159
2.73087e-161
1.282e-163
6.06031e-166
2.90164e-168
1.21053e-170
3.46012e-175
7.30276e-180
1.30641e-184
6.96185e-189
7.02583e-192
1.04734e-194
1.56743e-197
2.34779e-200
3.49912e-203
5.25803e-206
7.94469e-209
1.20165e-211
1.80706e-214
2.68952e-217
3.95339e-220
5.70311e-223
8.03396e-226
1.10011e-228
1.46139e-231
1.86318e-234
2.22988e-237
2.43587e-240
2.30838e-243
1.78929e-246
1.16032e-249
6.78077e-253
3.70339e-256
1.92436e-259
9.60678e-263
4.63846e-266
2.17697e-269
9.96328e-273
4.45954e-276
1.95663e-279
8.43063e-283
3.57297e-286
1.49128e-289
6.13649e-293
2.4917e-296
9.99073e-300
3.95809e-303
1.55015e-306
6.00408e-310
2.30077e-313
8.72541e-317
3.27566e-320
9.88131e-324
0
0
0
0
0
0
0
0
0
0
0
0
0
0
0
0
0
0
0
0
0
0
0
0
0
0
0
0
0
0
0
0
0
0
0
0
0
0
0
0
0
0
0
0
0
0
0
0
0
0
0
0
0
0
0
0
0
0
0
0
0
0
0
0
0
0
0
0
0
0
0
0
0
0
0
0
0
0
0
0
0
0
0
0
0
0
0
0
0
0
0
0
0
0
0
0
0
0
0
0
0
0
0
0
0
0
0
0
0
0
0
0
0
0
0
0
0
0
0
0
0
0
0
0
0
0
0
0
0
0
0
0
0
0
0
0
0
0
0
0
0
0
0
0
0
0
0
0
0
0
0
0
0
0
0
0
0
0
0
0
0
0
0
0
0
0
0
0
0
0
0
0
0
0
0
0
0
0
0
0
0
0
0
0
0
0
0
0
0
0
0
0
0
0
0
0
0
0
0
0
0
0
0
0
0
0
0
0
0
0
0
0
0
0
0
0
0
0
0
0
0
0
0
0
0
0
0
0
0
0
0
0
0
0
0
0
0
0
0
0
0
0
0
0
0
0
0
0
0
0
0
0
0
0
0
0
0
0
0
0
0
0
0
0
0
0
0
0
0
0
1.57043e-05
1.6248e-05
1.64205e-05
1.65159e-05
1.70148e-05
6.34066e-06
3.93954e-06
3.37921e-06
3.10148e-06
2.9914e-06
3.23729e-06
4.27351e-06
5.49642e-06
6.68475e-06
6.84533e-06