/*--------------------------------*- C++ -*----------------------------------*\
| =========                 |                                                 |
| \\      /  F ield         | OpenFOAM: The Open Source CFD Toolbox           |
|  \\    /   O peration     | Version:  2.1.1                                 |
|   \\  /    A nd           | Web:      www.OpenFOAM.org                      |
|    \\/     M anipulation  |                                                 |
\*---------------------------------------------------------------------------*/
FoamFile
{
    version     2.0;
    format      ascii;
    class       volScalarField;
    location    "0.001000000";
    object      k;
}
// * * * * * * * * * * * * * * * * * * * * * * * * * * * * * * * * * * * * * //

dimensions      [0 2 -2 0 0 0 0];

internalField   nonuniform List<scalar> 
12384
(
0.103745
0.105825
0.105704
0.106636
0.105556
0.107327
0.10619
0.10626
0.106387
0.104178
0.103553
0.104461
0.102459
0.100237
0.101876
0.103322
0.103469
0.104251
0.104898
0.105235
0.105866
0.106243
0.106519
0.106644
0.106598
0.106568
0.106419
0.106263
0.105909
0.105649
0.105304
0.1051
0.104768
0.104525
0.10435
0.103903
0.103622
0.103236
0.102954
0.102539
0.102141
0.101731
0.10106
0.100777
0.0996897
0.0998484
0.0999868
0.100077
0.100129
0.100172
0.10016
0.100185
0.100159
0.100135
0.100118
0.100056
0.100046
0.0999365
0.0999596
0.0998026
0.0998495
0.0996833
0.0997191
0.0995878
0.099582
0.0994967
0.099456
0.0993896
0.0993404
0.0992676
0.0992566
0.0991693
0.0991563
0.0990806
0.0989329
0.0989449
0.0989433
0.0989509
0.098945
0.0989474
0.098942
0.0989427
0.0989383
0.0989372
0.0989332
0.0989323
0.0989288
0.0989288
0.0989257
0.0989265
0.0989233
0.0989238
0.0989213
0.0989218
0.0989196
0.0989204
0.0989183
0.098919
0.0989169
0.0989169
0.0989162
0.0989152
0.098914
0.0989103
0.0989069
0.0989154
0.098918
0.0989177
0.0989177
0.0989184
0.0989185
0.09892
0.0989191
0.0989208
0.0989199
0.0989215
0.0989209
0.0989212
0.0989235
0.0989228
0.0989226
0.0989208
0.0989215
0.0989198
0.0989207
0.0989191
0.0989201
0.0989182
0.0989181
0.0989181
0.0989177
0.0989179
0.0989152
0.0989068
0.0989069
0.0989156
0.0989182
0.0989171
0.0989191
0.0989182
0.0989193
0.0989187
0.0989201
0.0989196
0.0989211
0.0989212
0.0989209
0.098922
0.098922
0.0989229
0.0989213
0.0989221
0.0989204
0.098921
0.0989193
0.09892
0.0989182
0.0989188
0.0989169
0.0989168
0.0989161
0.0989152
0.098914
0.0989102
0.0989067
0.098915
0.0989178
0.0989179
0.0989183
0.0989183
0.098918
0.0989199
0.098919
0.0989207
0.0989199
0.0989217
0.0989208
0.0989225
0.0989214
0.098923
0.0989212
0.0989221
0.0989201
0.0989207
0.0989193
0.0989196
0.0989185
0.098919
0.0989178
0.0989185
0.0989171
0.0989183
0.0989157
0.098907
0.098907
0.0989158
0.0989171
0.0989178
0.0989177
0.0989194
0.0989185
0.09892
0.0989194
0.0989208
0.0989202
0.0989217
0.0989209
0.0989226
0.0989215
0.0989231
0.0989213
0.0989221
0.0989204
0.098921
0.0989193
0.09892
0.0989181
0.0989188
0.0989168
0.0989167
0.098916
0.0989152
0.0989138
0.0989101
0.0989103
0.0989141
0.0989144
0.0989165
0.0989163
0.0989181
0.0989179
0.0989193
0.0989189
0.0989203
0.0989198
0.0989213
0.0989207
0.0989225
0.0989215
0.098923
0.0989212
0.0989221
0.0989203
0.0989209
0.0989191
0.09892
0.0989181
0.0989188
0.0989167
0.0989168
0.0989161
0.0989151
0.0989138
0.0989102
0.0989103
0.0989142
0.0989158
0.0989159
0.0989178
0.0989171
0.0989189
0.0989184
0.0989199
0.0989193
0.0989208
0.0989202
0.0989219
0.098921
0.0989227
0.0989212
0.0989224
0.0989202
0.0989209
0.0989199
0.0989193
0.0989198
0.0989187
0.0989191
0.0989179
0.0989187
0.0989168
0.0989178
0.0989157
0.0989069
0.0989113
0.098914
0.0989145
0.0989165
0.0989164
0.0989181
0.0989179
0.0989193
0.0989189
0.0989203
0.0989198
0.0989213
0.0989207
0.0989225
0.0989215
0.098923
0.0989212
0.0989221
0.0989204
0.0989209
0.0989192
0.0989199
0.0989181
0.0989188
0.0989169
0.0989168
0.0989162
0.0989152
0.098914
0.0989103
0.0989067
0.0989152
0.0989171
0.0989182
0.0989178
0.0989191
0.098918
0.0989198
0.0989188
0.0989205
0.0989197
0.0989213
0.0989206
0.0989221
0.0989231
0.0989231
0.0989217
0.0989205
0.0989213
0.0989197
0.0989205
0.098919
0.09892
0.0989184
0.0989195
0.0989182
0.0989182
0.0989171
0.0989157
0.0989071
0.0989111
0.098914
0.098915
0.0989168
0.0989175
0.0989184
0.0989195
0.0989196
0.0989201
0.0989205
0.0989207
0.0989214
0.0989213
0.0989226
0.098922
0.098923
0.0989214
0.0989224
0.0989207
0.0989209
0.0989196
0.0989201
0.0989186
0.0989191
0.0989172
0.0989172
0.0989163
0.0989152
0.098914
0.0989105
0.100375
0.13421
0.138155
0.142859
0.143766
0.156884
0.160385
0.163411
0.163558
0.157965
0.146388
0.134445
0.124356
0.104721
0.102023
0.114813
0.118074
0.123371
0.130243
0.137943
0.146184
0.153795
0.161131
0.166914
0.171172
0.173529
0.174493
0.17355
0.171425
0.167921
0.1633
0.158256
0.152419
0.146853
0.140718
0.134726
0.129169
0.123764
0.118868
0.114429
0.110361
0.106996
0.104348
0.101082
0.0999688
0.101839
0.101834
0.101967
0.102057
0.10221
0.102267
0.102316
0.102292
0.102247
0.102165
0.102061
0.101948
0.101812
0.101706
0.101535
0.101458
0.101297
0.101236
0.101098
0.101037
0.100932
0.100872
0.100802
0.100735
0.100679
0.100643
0.100583
0.100561
0.0990704
0.0989031
0.10024
0.100239
0.100236
0.100234
0.100222
0.100218
0.100199
0.100193
0.100169
0.100159
0.100134
0.100122
0.100097
0.100086
0.10007
0.100079
0.100074
0.100086
0.10008
0.100094
0.100088
0.1001
0.100094
0.100105
0.100096
0.1001
0.100105
0.100093
0.0988672
0.0988602
0.100097
0.100096
0.100103
0.100096
0.100098
0.100102
0.100093
0.100097
0.100085
0.10009
0.100078
0.10008
0.10006
0.100063
0.100062
0.100064
0.100082
0.100079
0.100091
0.100085
0.100098
0.100092
0.100103
0.100098
0.100099
0.100102
0.100095
0.100096
0.0988602
0.0988639
0.100094
0.100097
0.100104
0.100096
0.100104
0.100094
0.1001
0.100088
0.100093
0.10008
0.100086
0.100074
0.100066
0.100065
0.100057
0.100073
0.100073
0.100087
0.100081
0.100093
0.100089
0.1001
0.100094
0.100105
0.100096
0.100099
0.100105
0.100093
0.0988672
0.0988603
0.100097
0.100095
0.1001
0.1001
0.100099
0.100104
0.100093
0.100099
0.100085
0.100091
0.100079
0.100083
0.100066
0.100066
0.100057
0.100073
0.100074
0.100087
0.100084
0.100094
0.100091
0.100101
0.100096
0.100105
0.100098
0.100104
0.100098
0.100092
0.0988658
0.0988602
0.100095
0.1001
0.100099
0.100105
0.100096
0.100102
0.100091
0.100098
0.100083
0.10009
0.100078
0.100082
0.100065
0.100064
0.100057
0.100073
0.100073
0.100087
0.100081
0.100094
0.100088
0.1001
0.100094
0.100105
0.100096
0.1001
0.100106
0.100093
0.0988671
0.098867
0.100093
0.100108
0.100097
0.100104
0.100095
0.100102
0.10009
0.100098
0.100084
0.10009
0.100079
0.100083
0.100066
0.100064
0.100057
0.100073
0.100073
0.100087
0.100081
0.100094
0.100089
0.1001
0.100094
0.100105
0.100096
0.1001
0.100106
0.100093
0.0988671
0.0988675
0.100096
0.100105
0.100105
0.100097
0.100104
0.100093
0.100099
0.100088
0.100092
0.100081
0.100087
0.100073
0.100074
0.100058
0.100064
0.100066
0.100084
0.100081
0.100088
0.100091
0.100088
0.100098
0.100093
0.100103
0.100097
0.100105
0.100098
0.100095
0.0988613
0.0988671
0.100096
0.100108
0.100096
0.100103
0.100094
0.100101
0.100089
0.100096
0.100082
0.10009
0.100078
0.100083
0.100066
0.100066
0.100056
0.100073
0.100073
0.100087
0.100081
0.100093
0.100089
0.1001
0.100095
0.100105
0.100096
0.100099
0.100105
0.100093
0.0988673
0.0988604
0.100096
0.100094
0.100101
0.100105
0.100099
0.100104
0.100093
0.100099
0.100085
0.100091
0.100079
0.100083
0.100065
0.100062
0.100063
0.100064
0.100082
0.100078
0.10009
0.100084
0.100098
0.100092
0.100103
0.100097
0.100103
0.100098
0.100096
0.100096
0.0988605
0.0988673
0.100095
0.100109
0.100097
0.100104
0.100095
0.100102
0.100091
0.100099
0.100086
0.100093
0.100079
0.100084
0.100068
0.100067
0.100056
0.100072
0.100074
0.100087
0.100081
0.100094
0.100089
0.100101
0.100096
0.100106
0.100098
0.1001
0.100106
0.100092
0.0988674
0.113232
0.171621
0.143943
0.137486
0.137677
0.15384
0.154299
0.153049
0.149661
0.148238
0.139551
0.12954
0.124208
0.103649
0.102513
0.127955
0.13008
0.134383
0.139002
0.143774
0.148009
0.151632
0.153895
0.155062
0.155493
0.154757
0.153275
0.150897
0.148191
0.144891
0.141388
0.137686
0.133668
0.13031
0.126429
0.123018
0.11962
0.116157
0.113117
0.110176
0.107743
0.105648
0.103953
0.101187
0.100116
0.102287
0.102233
0.102229
0.102189
0.10214
0.102069
0.101975
0.101928
0.101818
0.101744
0.101641
0.10154
0.101448
0.101337
0.101254
0.101171
0.101082
0.10102
0.100914
0.100872
0.100789
0.100754
0.1007
0.100653
0.100614
0.100576
0.10055
0.100526
0.0991596
0.0990252
0.10024
0.100221
0.100205
0.100189
0.100161
0.100149
0.100118
0.100107
0.100076
0.100066
0.100039
0.100029
0.0999981
0.0999898
0.099979
0.100002
0.100002
0.100022
0.10001
0.100026
0.100018
0.100034
0.100029
0.100047
0.100048
0.100058
0.100071
0.100074
0.0989761
0.0989906
0.100066
0.100057
0.100061
0.100049
0.100044
0.100042
0.100025
0.10003
0.100014
0.100022
0.100006
0.100006
0.0999797
0.099973
0.0999725
0.099981
0.100009
0.100005
0.100022
0.100013
0.100029
0.100024
0.100041
0.100041
0.10005
0.10006
0.100056
0.100066
0.0989909
0.0989891
0.100072
0.100057
0.100062
0.100046
0.10005
0.100033
0.100037
0.100021
0.100027
0.100012
0.100015
0.0999961
0.099981
0.0999726
0.0999638
0.0999912
0.0999953
0.100018
0.100009
0.100025
0.100017
0.100034
0.100029
0.100048
0.100048
0.100058
0.10007
0.100075
0.0989766
0.0989914
0.100066
0.100058
0.100059
0.100051
0.100039
0.10004
0.100023
0.100029
0.100012
0.10002
0.100005
0.100008
0.0999826
0.0999772
0.0999621
0.0999845
0.0999914
0.100014
0.100011
0.100027
0.100025
0.10004
0.100037
0.100053
0.100049
0.100064
0.100062
0.100081
0.0989833
0.0989907
0.100064
0.100061
0.10005
0.100052
0.100035
0.10004
0.100022
0.10003
0.100013
0.100023
0.100005
0.100007
0.0999796
0.0999739
0.0999629
0.0999896
0.0999945
0.100017
0.100009
0.100025
0.100017
0.100034
0.100029
0.100047
0.100048
0.100059
0.100069
0.100075
0.0989765
0.0989793
0.100076
0.10007
0.100052
0.100056
0.100038
0.100043
0.100025
0.100032
0.100014
0.100023
0.100007
0.100007
0.09998
0.0999739
0.0999629
0.0999891
0.0999942
0.100017
0.100008
0.100025
0.100017
0.100034
0.100029
0.100047
0.100048
0.100059
0.100069
0.100075
0.0989762
0.0989766
0.100076
0.100063
0.100059
0.100044
0.100048
0.10003
0.100036
0.100018
0.100027
0.10001
0.100019
0.0999987
0.0999951
0.0999673
0.099971
0.0999721
0.100001
0.100006
0.10002
0.100026
0.100026
0.100041
0.100036
0.100053
0.100049
0.100063
0.100057
0.10007
0.0989905
0.0989759
0.100073
0.100069
0.10005
0.100056
0.100037
0.100042
0.100024
0.100032
0.100014
0.100024
0.100007
0.100009
0.099982
0.0999751
0.0999621
0.0999869
0.0999932
0.100016
0.100008
0.100025
0.100017
0.100034
0.100029
0.100048
0.100048
0.100059
0.10007
0.100075
0.0989767
0.0989911
0.100066
0.100059
0.100057
0.100051
0.100036
0.10004
0.100021
0.100029
0.100012
0.100021
0.100004
0.100007
0.0999799
0.0999703
0.0999709
0.0999811
0.100008
0.100005
0.100022
0.100012
0.10003
0.100022
0.10004
0.100036
0.100053
0.100054
0.100058
0.100065
0.0989901
0.0989758
0.100073
0.100068
0.100048
0.100054
0.100035
0.100041
0.100021
0.100029
0.100011
0.100022
0.100005
0.10001
0.0999848
0.0999781
0.0999615
0.0999845
0.0999935
0.100016
0.100008
0.100024
0.100016
0.100033
0.100029
0.100046
0.100047
0.100059
0.100072
0.100075
0.0989762
0.164676
0.306845
0.206135
0.170051
0.174084
0.199334
0.18311
0.166118
0.154935
0.148603
0.144213
0.137317
0.129444
0.101273
0.104019
0.154262
0.15921
0.163749
0.166066
0.168577
0.169924
0.170791
0.170403
0.168766
0.166794
0.163693
0.160409
0.156785
0.152767
0.14853
0.144297
0.14
0.135936
0.131942
0.127792
0.12412
0.12039
0.116953
0.113749
0.110663
0.108224
0.105906
0.104386
0.101349
0.100428
0.103375
0.102996
0.102825
0.10269
0.102553
0.102426
0.102292
0.10218
0.102012
0.101908
0.101743
0.101624
0.101493
0.101349
0.101274
0.101119
0.101072
0.100944
0.100889
0.100806
0.100727
0.100683
0.100597
0.10057
0.100496
0.100456
0.100436
0.100384
0.0991385
0.0989615
0.1001
0.100086
0.100072
0.100059
0.10004
0.100026
0.100007
0.0999929
0.0999734
0.0999579
0.0999381
0.0999218
0.0999064
0.099895
0.0998874
0.0998818
0.0998791
0.0998774
0.0998772
0.0998772
0.0998764
0.0998768
0.0998769
0.0998781
0.0998746
0.0998802
0.0998865
0.0998833
0.098912
0.0989025
0.0998831
0.0998846
0.0998833
0.0998781
0.0998732
0.0998796
0.0998772
0.0998769
0.099876
0.0998758
0.0998747
0.0998744
0.0998716
0.0998705
0.0998772
0.0998735
0.0998743
0.099875
0.099876
0.099876
0.0998768
0.099877
0.0998789
0.0998739
0.0998788
0.0998834
0.0998836
0.0998828
0.098902
0.0989021
0.0998792
0.0998856
0.0998822
0.0998793
0.0998783
0.0998775
0.0998771
0.0998763
0.0998761
0.0998747
0.0998756
0.0998728
0.0998691
0.0998736
0.0998735
0.0998734
0.0998741
0.0998751
0.0998758
0.0998765
0.0998759
0.0998766
0.0998768
0.099878
0.0998749
0.0998807
0.0998872
0.0998828
0.098912
0.0989017
0.099883
0.0998833
0.0998836
0.0998796
0.0998754
0.0998789
0.0998773
0.0998772
0.0998764
0.0998763
0.0998752
0.0998745
0.0998739
0.0998732
0.0998737
0.0998733
0.0998738
0.0998747
0.099875
0.0998752
0.0998758
0.0998769
0.0998778
0.0998789
0.09988
0.0998839
0.0998879
0.0998804
0.0989031
0.0989015
0.099883
0.0998832
0.0998815
0.099882
0.0998785
0.099878
0.0998768
0.0998769
0.0998761
0.0998754
0.0998743
0.0998734
0.0998726
0.0998715
0.0998723
0.0998724
0.0998735
0.0998744
0.0998753
0.0998762
0.0998756
0.0998762
0.0998762
0.0998773
0.0998747
0.0998812
0.0998873
0.0998826
0.0989119
0.098911
0.0998775
0.0998846
0.0998798
0.0998778
0.0998766
0.0998765
0.099876
0.0998763
0.0998758
0.0998752
0.099874
0.0998733
0.0998725
0.0998715
0.0998724
0.0998725
0.0998735
0.0998745
0.0998754
0.0998763
0.0998757
0.0998763
0.0998763
0.0998775
0.0998745
0.0998808
0.099887
0.099883
0.098912
0.0989121
0.0998808
0.0998837
0.0998843
0.0998782
0.0998779
0.0998769
0.0998769
0.0998763
0.0998765
0.0998757
0.0998748
0.0998739
0.0998732
0.099873
0.0998724
0.0998732
0.0998737
0.0998725
0.0998786
0.0998791
0.0998756
0.0998767
0.0998775
0.0998788
0.0998801
0.0998833
0.099886
0.0998796
0.098902
0.0989124
0.099882
0.0998846
0.0998797
0.0998777
0.0998763
0.0998763
0.0998759
0.0998762
0.0998756
0.0998752
0.0998741
0.0998733
0.0998726
0.0998716
0.0998724
0.0998724
0.0998734
0.0998743
0.0998751
0.099876
0.0998755
0.0998763
0.0998767
0.099878
0.0998749
0.0998803
0.099887
0.0998826
0.0989119
0.0989012
0.099883
0.0998813
0.0998814
0.099883
0.0998779
0.0998779
0.0998765
0.0998766
0.0998759
0.0998754
0.0998743
0.0998733
0.0998719
0.0998764
0.0998757
0.0998713
0.099873
0.0998739
0.099875
0.0998755
0.0998763
0.0998761
0.0998771
0.0998773
0.0998814
0.0998788
0.0998812
0.099883
0.098902
0.0989121
0.0998803
0.099884
0.0998793
0.0998777
0.0998763
0.0998764
0.0998764
0.0998767
0.0998765
0.0998765
0.0998752
0.0998742
0.0998726
0.0998712
0.0998716
0.0998709
0.0998717
0.0998724
0.0998741
0.0998753
0.0998751
0.0998759
0.099876
0.0998781
0.0998741
0.0998797
0.099886
0.0998835
0.0989123
0.168181
0.394742
0.389365
0.293359
0.237635
0.256694
0.217341
0.210215
0.191493
0.170403
0.161281
0.158326
0.149758
0.105315
0.106248
0.205079
0.230484
0.23825
0.230699
0.221266
0.213275
0.20639
0.2001
0.193598
0.187079
0.180626
0.174123
0.168033
0.161981
0.156562
0.150996
0.14555
0.140751
0.135796
0.131467
0.12744
0.123246
0.119598
0.115766
0.112478
0.109722
0.107242
0.105584
0.101413
0.100607
0.105017
0.104311
0.103984
0.10367
0.103381
0.103067
0.10282
0.10256
0.102356
0.102168
0.101964
0.101813
0.101661
0.101481
0.101402
0.101204
0.101181
0.100997
0.100983
0.100851
0.100791
0.100741
0.100625
0.100632
0.100524
0.100518
0.100457
0.100419
0.0991305
0.0989887
0.100146
0.100139
0.100122
0.100104
0.100096
0.100071
0.100062
0.100036
0.100027
0.1
0.0999907
0.0999631
0.0999541
0.09993
0.0999296
0.0999117
0.0999189
0.0999042
0.0999153
0.0999017
0.0999135
0.0999006
0.099912
0.0999003
0.0999115
0.099907
0.0999007
0.099908
0.0989145
0.0989278
0.0998983
0.0999138
0.0999016
0.0999097
0.0999118
0.0999008
0.0999116
0.0999003
0.0999125
0.0999004
0.0999123
0.0998994
0.0999096
0.0999037
0.0998974
0.0999112
0.0998997
0.099913
0.0999006
0.0999131
0.0999005
0.099912
0.0999009
0.0999117
0.0999086
0.0999014
0.0999134
0.0998984
0.0989278
0.0989246
0.099898
0.0999141
0.0999024
0.0999124
0.0999008
0.099912
0.0999005
0.0999123
0.0999005
0.0999116
0.0998988
0.0999085
0.0999099
0.0998981
0.0999103
0.0998992
0.0999121
0.0999003
0.0999134
0.099901
0.0999129
0.0999005
0.0999117
0.0999003
0.0999115
0.0999072
0.0999011
0.0999076
0.0989147
0.0989277
0.0998986
0.0999133
0.0999015
0.0999064
0.0999119
0.0999007
0.0999122
0.0999005
0.0999134
0.0999008
0.0999134
0.0999001
0.0999118
0.0998991
0.0999106
0.0998994
0.0999109
0.0999001
0.0999101
0.0999011
0.0999103
0.0999005
0.0999115
0.0999011
0.0999123
0.0999031
0.0999119
0.0998983
0.0989235
0.098927
0.0998984
0.0999087
0.0999121
0.0999009
0.0999122
0.0999003
0.0999128
0.0999003
0.0999134
0.0999
0.0999123
0.0998991
0.0999101
0.0998978
0.0999094
0.0998985
0.0999115
0.0998999
0.0999131
0.0999007
0.0999128
0.0999004
0.0999116
0.0999001
0.0999114
0.0999059
0.0999008
0.0999075
0.0989148
0.0989177
0.0999051
0.099902
0.0999124
0.0999006
0.0999123
0.0999004
0.0999127
0.0999004
0.0999132
0.0999001
0.0999119
0.0998991
0.09991
0.0998978
0.0999095
0.0998986
0.0999117
0.0998999
0.0999132
0.0999008
0.0999129
0.0999004
0.0999116
0.0999002
0.0999115
0.0999061
0.0999006
0.0999078
0.0989146
0.0989161
0.0999044
0.0999069
0.0999023
0.0999123
0.0999004
0.0999128
0.0999006
0.0999137
0.099901
0.0999135
0.0999005
0.0999121
0.0998994
0.0999106
0.0998987
0.0999101
0.0998992
0.0999097
0.0999019
0.0999018
0.0999104
0.0999004
0.0999116
0.0999012
0.0999125
0.099903
0.0999145
0.0998971
0.0989266
0.0989145
0.099907
0.099901
0.0999119
0.0999003
0.0999123
0.0999001
0.0999129
0.0999004
0.0999135
0.0999001
0.0999122
0.0998991
0.0999101
0.0998978
0.0999093
0.0998985
0.0999114
0.0998998
0.0999128
0.0999006
0.0999124
0.0999002
0.0999113
0.0999
0.0999111
0.0999071
0.0999011
0.0999073
0.0989147
0.0989277
0.0998991
0.0999126
0.0999049
0.0999029
0.0999121
0.0999002
0.0999124
0.0999003
0.0999133
0.0999001
0.0999126
0.0998991
0.0999102
0.0998974
0.0998991
0.0999096
0.0998988
0.099912
0.0998998
0.099913
0.0998999
0.0999122
0.0998998
0.0999119
0.0999009
0.0999074
0.0999115
0.0998982
0.0989277
0.0989154
0.099906
0.0999007
0.0999123
0.0999003
0.0999124
0.0999
0.0999133
0.0999005
0.0999145
0.0999007
0.0999134
0.099899
0.0999099
0.0998971
0.0999078
0.0998971
0.0999084
0.0998984
0.0999121
0.0999001
0.0999122
0.0998998
0.099911
0.0998998
0.0999104
0.0999068
0.0999006
0.0999082
0.0989148
0.176282
0.425284
0.496379
0.494539
0.396677
0.374016
0.306481
0.253557
0.235946
0.223125
0.205964
0.203968
0.194518
0.107522
0.108108
0.32686
0.470486
0.503874
0.437223
0.359482
0.307201
0.274109
0.25037
0.232551
0.217622
0.205028
0.193905
0.18429
0.175398
0.167601
0.160071
0.15339
0.147305
0.141173
0.136008
0.131128
0.126549
0.122607
0.118493
0.11512
0.111939
0.109249
0.107327
0.101771
0.100993
0.107803
0.106299
0.105511
0.104853
0.104371
0.103902
0.103494
0.103121
0.102788
0.102499
0.102245
0.102016
0.101829
0.101632
0.101509
0.101326
0.101259
0.101083
0.101042
0.100904
0.100844
0.100773
0.100676
0.100656
0.100553
0.100537
0.100476
0.100468
0.0991679
0.0990329
0.10018
0.100171
0.100149
0.100137
0.10012
0.100103
0.100086
0.100067
0.100052
0.100032
0.100016
0.0999945
0.099978
0.0999585
0.0999486
0.0999355
0.0999343
0.099926
0.0999294
0.0999221
0.099927
0.0999205
0.0999248
0.0999196
0.0999228
0.0999206
0.0999183
0.0999213
0.0989272
0.0989283
0.0999206
0.0999242
0.0999194
0.0999237
0.0999252
0.0999204
0.0999253
0.0999206
0.0999267
0.0999207
0.0999269
0.0999198
0.0999225
0.0999241
0.0999188
0.0999252
0.0999201
0.0999276
0.099921
0.0999274
0.0999209
0.0999258
0.0999203
0.0999248
0.0999247
0.0999192
0.0999236
0.0999203
0.0989281
0.0989295
0.0999204
0.0999259
0.0999193
0.0999248
0.09992
0.0999257
0.0999202
0.0999264
0.0999204
0.0999258
0.0999203
0.0999243
0.0999231
0.0999191
0.099925
0.0999194
0.0999263
0.0999209
0.0999275
0.0999209
0.0999267
0.0999202
0.0999247
0.0999194
0.0999225
0.0999211
0.099919
0.0999211
0.0989273
0.098928
0.0999202
0.0999233
0.099919
0.0999241
0.099925
0.0999204
0.0999261
0.0999212
0.0999278
0.0999214
0.0999282
0.0999207
0.0999261
0.09992
0.0999254
0.0999196
0.0999255
0.0999201
0.0999243
0.0999187
0.0999246
0.0999196
0.099925
0.0999199
0.0999243
0.0999197
0.0999249
0.0999195
0.0989292
0.0989284
0.09992
0.099923
0.0999245
0.09992
0.0999258
0.0999202
0.0999272
0.099921
0.099928
0.0999207
0.0999267
0.0999193
0.0999243
0.0999181
0.0999238
0.0999186
0.0999256
0.0999204
0.0999272
0.0999207
0.0999268
0.0999201
0.0999246
0.0999192
0.0999223
0.0999198
0.0999187
0.099921
0.0989273
0.0989269
0.0999212
0.0999202
0.0999238
0.0999185
0.0999254
0.0999198
0.0999265
0.0999206
0.0999272
0.0999202
0.0999262
0.0999191
0.099924
0.0999181
0.0999241
0.0999188
0.0999258
0.0999205
0.0999272
0.0999208
0.0999268
0.0999202
0.0999247
0.0999193
0.0999223
0.0999197
0.0999185
0.0999213
0.0989272
0.0989267
0.0999208
0.0999225
0.0999195
0.0999234
0.0999192
0.0999259
0.0999204
0.0999276
0.0999211
0.0999275
0.0999207
0.0999262
0.0999195
0.0999251
0.0999193
0.0999243
0.0999193
0.0999237
0.0999218
0.0999204
0.0999246
0.0999197
0.0999255
0.0999203
0.099925
0.0999197
0.0999263
0.0999204
0.0989282
0.0989275
0.0999214
0.0999188
0.0999231
0.099918
0.0999253
0.0999195
0.0999266
0.0999205
0.0999274
0.0999203
0.0999264
0.0999191
0.0999241
0.0999182
0.0999238
0.0999186
0.0999255
0.0999203
0.0999268
0.0999204
0.0999262
0.0999196
0.0999241
0.0999192
0.0999222
0.0999208
0.0999187
0.0999207
0.0989273
0.098928
0.0999204
0.0999223
0.0999218
0.0999215
0.0999251
0.09992
0.0999265
0.0999207
0.0999274
0.0999205
0.0999268
0.0999194
0.0999237
0.0999189
0.0999192
0.0999229
0.099919
0.0999262
0.0999201
0.0999271
0.0999202
0.0999262
0.0999194
0.0999247
0.0999197
0.0999216
0.099922
0.0999199
0.0989279
0.0989278
0.0999208
0.0999184
0.0999232
0.0999178
0.0999253
0.0999192
0.0999268
0.0999206
0.0999283
0.099921
0.0999274
0.099919
0.0999242
0.099917
0.0999224
0.0999168
0.0999234
0.0999193
0.0999262
0.0999203
0.0999261
0.0999199
0.0999242
0.0999195
0.0999234
0.0999212
0.0999188
0.0999224
0.0989274
0.191059
0.486713
0.553029
0.585837
0.532274
0.518057
0.471553
0.378631
0.307719
0.28337
0.322448
0.312832
0.293729
0.116722
0.122965
0.798424
1.49037
1.61971
1.28016
0.837158
0.560767
0.423994
0.349676
0.302506
0.269829
0.245185
0.22518
0.209337
0.195883
0.184558
0.174351
0.165697
0.157727
0.150302
0.143962
0.137875
0.13266
0.128024
0.123539
0.119708
0.116041
0.113074
0.110886
0.102446
0.101795
0.11212
0.109585
0.107958
0.106684
0.105818
0.105056
0.104382
0.103882
0.103406
0.102987
0.102698
0.102328
0.102151
0.101839
0.10171
0.101469
0.101372
0.101199
0.101121
0.100987
0.100914
0.100818
0.100754
0.100676
0.100624
0.100566
0.100521
0.100486
0.099134
0.099025
0.100226
0.100228
0.10019
0.100185
0.100157
0.100146
0.100122
0.100107
0.100085
0.100069
0.100049
0.100031
0.100012
0.0999939
0.0999761
0.0999633
0.0999547
0.0999492
0.0999461
0.0999434
0.099943
0.0999413
0.099941
0.0999401
0.0999403
0.099939
0.0999369
0.0999364
0.0989022
0.0989044
0.0999371
0.0999385
0.0999383
0.0999403
0.0999422
0.099941
0.0999416
0.0999419
0.0999428
0.0999419
0.0999426
0.0999412
0.0999402
0.0999439
0.0999399
0.0999416
0.0999413
0.0999433
0.0999422
0.0999435
0.0999423
0.0999421
0.099941
0.0999422
0.0999419
0.0999378
0.0999382
0.0999368
0.0989043
0.0989033
0.0999364
0.0999396
0.0999383
0.0999403
0.0999408
0.099942
0.0999415
0.0999429
0.0999415
0.0999421
0.0999413
0.0999423
0.0999402
0.0999409
0.099942
0.0999414
0.0999423
0.0999425
0.0999435
0.0999424
0.0999432
0.0999416
0.0999413
0.0999403
0.0999401
0.0999396
0.0999376
0.0999363
0.0989023
0.0989043
0.0999368
0.0999381
0.0999374
0.0999424
0.0999419
0.0999411
0.0999424
0.0999425
0.0999439
0.0999426
0.099944
0.0999421
0.0999424
0.0999419
0.0999418
0.0999411
0.0999417
0.0999414
0.0999411
0.0999399
0.0999418
0.0999408
0.0999418
0.0999408
0.0999401
0.0999385
0.099939
0.0999354
0.0989031
0.0989043
0.0999361
0.0999399
0.09994
0.0999391
0.0999413
0.0999409
0.099943
0.0999423
0.0999439
0.099942
0.0999426
0.0999408
0.0999409
0.0999404
0.0999409
0.0999406
0.0999418
0.099942
0.0999432
0.0999422
0.0999431
0.0999415
0.0999412
0.0999401
0.0999398
0.0999384
0.0999373
0.0999363
0.0989023
0.098903
0.099936
0.0999381
0.0999384
0.0999385
0.0999413
0.0999409
0.0999427
0.0999423
0.0999434
0.0999418
0.0999424
0.0999408
0.0999409
0.0999404
0.099941
0.0999408
0.0999419
0.0999421
0.0999433
0.0999422
0.0999432
0.0999415
0.0999412
0.0999402
0.0999399
0.0999384
0.099937
0.0999364
0.0989023
0.0989022
0.0999348
0.0999382
0.0999382
0.0999394
0.0999404
0.0999422
0.0999421
0.099944
0.0999429
0.0999438
0.0999424
0.0999423
0.0999414
0.0999418
0.0999412
0.099941
0.0999405
0.0999406
0.0999419
0.0999405
0.0999418
0.0999407
0.0999421
0.0999409
0.0999402
0.0999385
0.0999401
0.0999371
0.0989042
0.0989022
0.0999365
0.0999371
0.0999382
0.0999385
0.0999414
0.0999411
0.099943
0.0999424
0.0999437
0.0999419
0.0999425
0.0999407
0.0999408
0.0999404
0.0999408
0.0999406
0.0999417
0.0999419
0.0999429
0.0999419
0.0999426
0.0999411
0.0999408
0.09994
0.0999399
0.0999393
0.0999372
0.0999359
0.0989023
0.0989044
0.0999369
0.0999377
0.0999399
0.0999405
0.099941
0.0999407
0.0999425
0.0999421
0.0999433
0.0999419
0.0999431
0.099941
0.099941
0.0999397
0.0999399
0.0999406
0.0999406
0.0999426
0.0999415
0.099943
0.0999417
0.0999421
0.0999402
0.0999402
0.0999385
0.0999374
0.0999372
0.0999362
0.0989043
0.0989023
0.0999354
0.0999362
0.0999378
0.0999376
0.0999411
0.0999401
0.0999428
0.0999415
0.0999437
0.0999417
0.0999429
0.09994
0.0999404
0.0999389
0.0999398
0.0999396
0.0999411
0.0999414
0.0999426
0.0999416
0.0999427
0.0999417
0.0999414
0.0999405
0.0999415
0.09994
0.0999382
0.0999378
0.0989023
0.209647
0.531797
0.578516
0.551872
0.467226
0.439166
0.411298
0.386328
0.35754
0.375418
0.360433
0.337888
0.400116
0.12303
0.819432
3.62072
5.26533
5.04312
3.82293
2.37229
1.28339
0.766674
0.539936
0.422773
0.352039
0.305782
0.27168
0.245492
0.224867
0.207995
0.193588
0.181651
0.17092
0.161566
0.153127
0.145599
0.139313
0.13343
0.128297
0.12366
0.119617
0.117027
0.11662
0.104212
0.103547
0.120765
0.115692
0.111702
0.109063
0.107455
0.106205
0.105319
0.104591
0.104011
0.103459
0.10309
0.10264
0.102409
0.102057
0.101902
0.101645
0.101509
0.101329
0.101207
0.101074
0.100983
0.100861
0.100827
0.1007
0.100697
0.100592
0.100601
0.100562
0.0992817
0.0990411
0.100209
0.100227
0.100199
0.10021
0.10018
0.100179
0.100149
0.100141
0.100112
0.100101
0.100078
0.100065
0.100044
0.100028
0.100009
0.0999954
0.0999825
0.0999749
0.0999688
0.0999662
0.0999646
0.0999633
0.099962
0.0999619
0.0999612
0.0999598
0.099959
0.0999576
0.0988988
0.0988984
0.0999591
0.0999594
0.0999597
0.0999609
0.0999624
0.0999623
0.0999624
0.0999634
0.0999636
0.099964
0.0999641
0.0999653
0.099964
0.0999668
0.0999638
0.0999651
0.0999653
0.0999648
0.0999644
0.0999641
0.099964
0.0999631
0.0999625
0.0999626
0.0999624
0.0999594
0.0999593
0.0999591
0.0988984
0.0988989
0.0999585
0.0999602
0.099959
0.0999609
0.0999619
0.0999624
0.0999628
0.0999635
0.0999632
0.0999634
0.0999641
0.0999653
0.0999637
0.0999646
0.0999645
0.0999657
0.0999652
0.0999649
0.0999644
0.0999641
0.0999641
0.0999631
0.099962
0.0999618
0.099961
0.0999601
0.0999595
0.0999577
0.0988989
0.0988984
0.099959
0.099959
0.0999592
0.0999632
0.0999624
0.0999626
0.0999632
0.0999643
0.0999646
0.0999647
0.0999652
0.099966
0.0999657
0.0999654
0.0999644
0.0999653
0.0999648
0.0999637
0.0999624
0.0999615
0.0999626
0.0999621
0.0999623
0.0999618
0.0999607
0.0999594
0.0999605
0.0999582
0.0988991
0.098898
0.0999585
0.099961
0.0999602
0.099961
0.0999621
0.0999627
0.0999637
0.0999639
0.0999644
0.0999641
0.0999641
0.0999648
0.0999646
0.0999642
0.0999637
0.0999651
0.0999649
0.0999645
0.0999642
0.0999638
0.0999639
0.0999631
0.0999621
0.0999617
0.0999607
0.0999592
0.0999591
0.0999577
0.0988989
0.0988984
0.0999576
0.0999599
0.0999589
0.0999606
0.099962
0.0999625
0.0999634
0.099964
0.0999641
0.0999639
0.0999639
0.0999648
0.0999645
0.0999642
0.0999638
0.0999652
0.0999649
0.0999645
0.0999643
0.0999639
0.0999639
0.0999632
0.0999621
0.0999617
0.0999608
0.0999592
0.099959
0.0999577
0.0988989
0.0988991
0.0999565
0.0999602
0.0999595
0.0999606
0.0999621
0.099963
0.0999637
0.0999646
0.0999645
0.0999647
0.0999646
0.0999652
0.0999657
0.0999643
0.0999646
0.0999645
0.0999645
0.0999625
0.0999639
0.0999623
0.0999626
0.0999624
0.0999625
0.0999621
0.0999608
0.0999595
0.0999608
0.0999592
0.0988984
0.0988988
0.099958
0.0999587
0.099959
0.0999606
0.0999623
0.0999627
0.0999636
0.0999641
0.0999643
0.0999641
0.099964
0.0999649
0.0999645
0.0999643
0.0999636
0.0999651
0.0999647
0.0999643
0.099964
0.0999634
0.0999634
0.0999626
0.0999616
0.0999614
0.0999606
0.0999596
0.099959
0.0999572
0.0988989
0.0988984
0.099959
0.0999588
0.0999607
0.0999622
0.099962
0.0999624
0.0999634
0.0999638
0.099964
0.0999641
0.0999646
0.099965
0.0999648
0.0999637
0.0999637
0.0999645
0.0999647
0.0999642
0.0999636
0.0999636
0.0999633
0.0999628
0.0999617
0.0999609
0.0999602
0.0999581
0.0999579
0.0999579
0.0988981
0.0988986
0.0999574
0.0999581
0.0999592
0.0999603
0.0999625
0.0999621
0.0999637
0.0999636
0.0999646
0.0999641
0.0999645
0.0999634
0.0999634
0.0999632
0.0999631
0.0999632
0.0999633
0.0999634
0.099963
0.0999628
0.0999627
0.0999624
0.0999616
0.0999608
0.0999601
0.099959
0.0999588
0.0999577
0.0988994
0.228519
0.586463
0.619315
0.58178
0.464036
0.418663
0.441649
0.525134
0.570828
0.709478
0.739637
0.681912
1.8336
3.5381
1.05915
0.862238
10.2604
13.8462
14.6157
12.072
8.11374
4.98392
2.67221
1.41528
0.872599
0.626977
0.490602
0.405961
0.34872
0.3056
0.27314
0.247418
0.225885
0.208283
0.193121
0.180738
0.169556
0.16014
0.152222
0.1453
0.140448
0.136566
0.134783
0.136794
0.144901
0.161701
0.107926
0.105025
0.155076
0.153493
0.136943
0.124079
0.116432
0.111972
0.10921
0.107407
0.106085
0.105118
0.104354
0.103741
0.103243
0.102812
0.102458
0.102163
0.101905
0.101692
0.10149
0.101351
0.101172
0.101105
0.100923
0.100919
0.100736
0.100755
0.100599
0.100601
0.100494
0.100491
0.0991809
0.0992011
0.100459
0.100469