/*--------------------------------*- C++ -*----------------------------------*\
| =========                 |                                                 |
| \\      /  F ield         | OpenFOAM: The Open Source CFD Toolbox           |
|  \\    /   O peration     | Version:  2.1.1                                 |
|   \\  /    A nd           | Web:      www.OpenFOAM.org                      |
|    \\/     M anipulation  |                                                 |
\*---------------------------------------------------------------------------*/
FoamFile
{
    version     2.0;
    format      ascii;
    class       volScalarField;
    location    "0.001000000";
    object      N2;
}
// * * * * * * * * * * * * * * * * * * * * * * * * * * * * * * * * * * * * * //

dimensions      [0 0 0 0 0 0 0];

internalField   nonuniform List<scalar> 
12384
(
0.746735
0.746405
0.746045
0.745923
0.745557
0.745949
0.745767
0.745458
0.744853
0.744861
0.744757
0.744702
0.744684
0.744832
0.745875
0.74638
0.746339
0.746165
0.746031
0.745822
0.745661
0.74544
0.745269
0.745093
0.74496
0.744863
0.744813
0.744755
0.744748
0.744751
0.744742
0.744753
0.744742
0.744751
0.744741
0.744749
0.744743
0.744743
0.744747
0.74474
0.744745
0.744738
0.744742
0.744743
0.744751
0.744755
0.744749
0.744752
0.744746
0.74475
0.744746
0.744752
0.744745
0.744754
0.744746
0.744753
0.744748
0.744752
0.744749
0.744753
0.744748
0.744754
0.744749
0.744753
0.74475
0.744752
0.744751
0.744751
0.744751
0.744751
0.744751
0.744751
0.74475
0.744745
0.744745
0.744752
0.744752
0.744752
0.744753
0.744753
0.744753
0.744754
0.744754
0.744755
0.744755
0.744756
0.744756
0.744758
0.744759
0.744759
0.744758
0.744758
0.744757
0.744757
0.744756
0.744756
0.744755
0.744755
0.744754
0.744754
0.744754
0.744754
0.744753
0.744745
0.744745
0.744753
0.744754
0.744754
0.744754
0.744754
0.744755
0.744755
0.744756
0.744756
0.744756
0.744757
0.744758
0.744759
0.744759
0.744759
0.744758
0.744758
0.744757
0.744756
0.744756
0.744756
0.744755
0.744755
0.744754
0.744754
0.744754
0.744754
0.744753
0.744745
0.744745
0.744753
0.744754
0.744754
0.744754
0.744755
0.744755
0.744755
0.744756
0.744756
0.744757
0.744757
0.744758
0.744758
0.744759
0.744759
0.744758
0.744758
0.744757
0.744757
0.744756
0.744756
0.744755
0.744755
0.744755
0.744754
0.744754
0.744754
0.744753
0.744745
0.744745
0.744753
0.744754
0.744754
0.744754
0.744754
0.744755
0.744755
0.744756
0.744756
0.744756
0.744757
0.744758
0.744758
0.744759
0.744759
0.744759
0.744758
0.744757
0.744756
0.744756
0.744755
0.744755
0.744755
0.744754
0.744754
0.744754
0.744754
0.744753
0.744745
0.744745
0.744753
0.744754
0.744754
0.744754
0.744755
0.744755
0.744755
0.744756
0.744756
0.744757
0.744757
0.744758
0.744758
0.744759
0.744759
0.744758
0.744758
0.744757
0.744757
0.744756
0.744756
0.744755
0.744755
0.744755
0.744754
0.744754
0.744754
0.744753
0.744745
0.744745
0.744753
0.744753
0.744754
0.744754
0.744755
0.744755
0.744755
0.744756
0.744756
0.744756
0.744757
0.744758
0.744758
0.744759
0.744759
0.744758
0.744758
0.744757
0.744757
0.744756
0.744756
0.744755
0.744755
0.744755
0.744754
0.744754
0.744754
0.744753
0.744745
0.744745
0.744753
0.744754
0.744754
0.744754
0.744755
0.744755
0.744755
0.744756
0.744756
0.744757
0.744757
0.744758
0.744758
0.744759
0.744759
0.744759
0.744758
0.744757
0.744756
0.744756
0.744756
0.744755
0.744755
0.744755
0.744754
0.744754
0.744753
0.744753
0.744745
0.744745
0.744753
0.744754
0.744754
0.744754
0.744755
0.744755
0.744755
0.744756
0.744756
0.744757
0.744757
0.744758
0.744758
0.744759
0.744759
0.744759
0.744758
0.744757
0.744757
0.744756
0.744756
0.744755
0.744755
0.744754
0.744754
0.744754
0.744754
0.744753
0.744745
0.744745
0.744753
0.744754
0.744754
0.744754
0.744754
0.744755
0.744755
0.744756
0.744756
0.744756
0.744757
0.744758
0.744758
0.744759
0.744759
0.744759
0.744758
0.744757
0.744757
0.744756
0.744756
0.744755
0.744755
0.744755
0.744754
0.744754
0.744754
0.744753
0.744745
0.744745
0.744753
0.744753
0.744754
0.744754
0.744755
0.744755
0.744755
0.744756
0.744756
0.744756
0.744757
0.744757
0.744758
0.744759
0.744759
0.744759
0.744758
0.744757
0.744757
0.744756
0.744756
0.744755
0.744755
0.744754
0.744754
0.744754
0.744754
0.744753
0.744745
0.755482
0.753706
0.753444
0.753982
0.752857
0.754502
0.753875
0.753159
0.751624
0.749494
0.747609
0.746999
0.746354
0.74614
0.755422
0.756476
0.756564
0.756215
0.756011
0.755572
0.755232
0.754585
0.754096
0.753303
0.752708
0.75188
0.751121
0.750446
0.749644
0.748962
0.748247
0.747651
0.747036
0.746518
0.746214
0.745894
0.745768
0.745587
0.745413
0.745315
0.745197
0.7452
0.745162
0.745014
0.749052
0.749126
0.748922
0.748699
0.748321
0.748015
0.747614
0.747352
0.747035
0.746813
0.746622
0.746401
0.746325
0.746094
0.746129
0.745871
0.745961
0.74572
0.745804
0.745648
0.745677
0.74559
0.745576
0.745515
0.745499
0.745443
0.745459
0.745416
0.745424
0.745045
0.745144
0.745554
0.745563
0.745572
0.745573
0.745577
0.745593
0.745602
0.745621
0.74563
0.745651
0.745658
0.745691
0.745721
0.745755
0.745749
0.745731
0.745696
0.745685
0.745663
0.74566
0.745634
0.745626
0.745599
0.745587
0.745564
0.745551
0.745538
0.745513
0.745035
0.745028
0.745517
0.74553
0.745552
0.745562
0.745573
0.745599
0.745611
0.745637
0.745646
0.745669
0.745677
0.745713
0.745745
0.745759
0.745766
0.745735
0.745709
0.745677
0.745671
0.745648
0.74564
0.745614
0.745602
0.745575
0.745563
0.745554
0.745532
0.745517
0.745028
0.745029
0.745515
0.745529
0.745552
0.745559
0.745584
0.745593
0.745619
0.745627
0.745654
0.745662
0.745686
0.745711
0.74574
0.745767
0.745759
0.745739
0.745701
0.745686
0.745663
0.745659
0.745633
0.745625
0.745599
0.745587
0.745564
0.745552
0.745538
0.745514
0.745034
0.745028
0.745517
0.745532
0.745554
0.745563
0.745577
0.745604
0.745615
0.745641
0.74565
0.745673
0.745678
0.745709
0.74573
0.745761
0.745762
0.745751
0.74571
0.745687
0.74566
0.745647
0.745619
0.745611
0.745586
0.745577
0.745553
0.745547
0.745527
0.745512
0.745029
0.745028
0.745516
0.745536
0.74555
0.745572
0.745581
0.745609
0.745618
0.745643
0.745649
0.745671
0.745677
0.74571
0.745735
0.745767
0.745762
0.745743
0.745704
0.745687
0.745663
0.745659
0.745634
0.745626
0.745599
0.745587
0.745564
0.745553
0.745538
0.745514
0.745034
0.745032
0.745509
0.745536
0.745547
0.74557
0.745579
0.745606
0.745614
0.745639
0.745646
0.745668
0.745674
0.745708
0.745735
0.745767
0.745762
0.745743
0.745704
0.745687
0.745664
0.74566
0.745634
0.745626
0.745599
0.745587
0.745564
0.745552
0.745538
0.745513
0.745035
0.745034
0.745514
0.745534
0.745555
0.745565
0.745589
0.7456
0.745626
0.745633
0.745658
0.745661
0.745683
0.745697
0.745734
0.745754
0.745769
0.745746
0.745716
0.745676
0.745659
0.745647
0.745626
0.745615
0.745589
0.745579
0.745555
0.745549
0.745526
0.745514
0.745028
0.745036
0.745512
0.745539
0.74555
0.745573
0.745581
0.745608
0.745617
0.745641
0.745647
0.745669
0.745674
0.745706
0.745732
0.745765
0.745763
0.745746
0.745706
0.745688
0.745664
0.745659
0.745633
0.745625
0.745598
0.745586
0.745563
0.745551
0.745538
0.745513
0.745034
0.745028
0.745518
0.745534
0.745549
0.745567
0.745578
0.745606
0.745616
0.745643
0.745651
0.745673
0.745679
0.745713
0.745736
0.745767
0.745767
0.745738
0.745712
0.745678
0.745672
0.745649
0.745642
0.745616
0.745606
0.745579
0.74557
0.745551
0.745536
0.745518
0.745029
0.745035
0.745513
0.745541
0.745551
0.745577
0.745584
0.745613
0.745619
0.745646
0.745649
0.745671
0.745674
0.745705
0.745727
0.745762
0.745765
0.745748
0.745708
0.745688
0.745666
0.745661
0.745634
0.745627
0.745599
0.745587
0.745564
0.74555
0.745537
0.745513
0.745035
0.76003
0.758788
0.759868
0.760272
0.760152
0.759633
0.759755
0.759556
0.759787
0.759234
0.758769
0.757413
0.756091
0.754978
0.760582
0.76009
0.759899
0.760084
0.760206
0.760427
0.760495
0.760666
0.760666
0.760803
0.760785
0.760888
0.760901
0.760917
0.760927
0.760933
0.76091
0.760904
0.760839
0.760783
0.760646
0.760433
0.760191
0.76002
0.759729
0.759395
0.758996
0.75869
0.758449
0.758296
0.761048
0.760902
0.760883
0.76085
0.760863
0.760838
0.760833
0.760796
0.760805
0.760767
0.760778
0.76075
0.760753
0.760731
0.760728
0.760713
0.760724
0.760712
0.760729
0.760703
0.760724
0.760707
0.760719
0.760717
0.760719
0.760704
0.760724
0.760675
0.760719
0.760997
0.761077
0.760726
0.760703
0.760697
0.760679
0.760673
0.760649
0.76064
0.760617
0.760608
0.760588
0.760581
0.760553
0.760529
0.760501
0.760504
0.760519
0.760543
0.760556
0.760566
0.760572
0.760585
0.760594
0.760608
0.760621
0.760632
0.760642
0.760652
0.760668
0.761074
0.761074
0.760669
0.760654
0.760642
0.760634
0.760627
0.760611
0.7606
0.760586
0.760576
0.760565
0.760555
0.760533
0.760504
0.760497
0.760491
0.760511
0.760536
0.760556
0.760564
0.760574
0.760585
0.760598
0.760609
0.760625
0.760634
0.76064
0.760653
0.760669
0.761074
0.761074
0.760673
0.760654
0.760642
0.760634
0.760623
0.760611
0.760599
0.760588
0.760575
0.760566
0.760554
0.760531
0.760509
0.76049
0.760493
0.760513
0.760537
0.760554
0.760565
0.760572
0.760585
0.760595
0.760608
0.76062
0.760632
0.760642
0.760652
0.760668
0.761074
0.761074
0.760669
0.760653
0.76064
0.760635
0.760624
0.760608
0.760597
0.760584
0.760573
0.760563
0.760555
0.760537
0.760516
0.760496
0.760491
0.760503
0.76053
0.760552
0.760566
0.760579
0.760594
0.760604
0.760616
0.760627
0.760638
0.760646
0.760657
0.760675
0.761074
0.761074
0.760669
0.760653
0.76064
0.760629
0.76062
0.760605
0.760595
0.760583
0.760574
0.760565
0.760556
0.760536
0.760511
0.760491
0.76049
0.760509
0.760536
0.760554
0.760565
0.760572
0.760584
0.760594
0.760608
0.76062
0.760632
0.760641
0.760651
0.760668
0.761074
0.761074
0.760673
0.760654
0.760642
0.760632
0.760621
0.760608
0.760597
0.760586
0.760576
0.760567
0.760557
0.760537
0.760511
0.760491
0.760491
0.76051
0.760535
0.760553
0.760565
0.760572
0.760584
0.760594
0.760608
0.76062
0.760632
0.760641
0.760652
0.760668
0.761074
0.761074
0.76067
0.760653
0.76064
0.760631
0.760619
0.760607
0.760594
0.760585
0.760574
0.760567
0.760556
0.760541
0.760517
0.760497
0.760489
0.760503
0.760529
0.760557
0.76057
0.760578
0.76059
0.760601
0.760614
0.760625
0.760637
0.760644
0.760656
0.760673
0.761074
0.761074
0.76067
0.760652
0.76064
0.76063
0.76062
0.760607
0.760596
0.760585
0.760576
0.760567
0.760558
0.760538
0.760514
0.760492
0.76049
0.760508
0.760533
0.760553
0.760564
0.760572
0.760585
0.760595
0.760609
0.760621
0.760633
0.760642
0.760652
0.760669
0.761074
0.761074
0.760668
0.760652
0.760644
0.760632
0.760622
0.760607
0.760596
0.760583
0.760573
0.760563
0.760554
0.760534
0.760511
0.76049
0.76049
0.76051
0.760535
0.760555
0.760564
0.760574
0.760584
0.760596
0.760607
0.760622
0.760631
0.760641
0.760651
0.760668
0.761074
0.761074
0.760669
0.760651
0.760638
0.760627
0.760617
0.760604
0.760594
0.760582
0.760574
0.760565
0.760558
0.76054
0.760517
0.760495
0.760488
0.760506
0.760533
0.760553
0.760563
0.760571
0.760584
0.760594
0.760608
0.76062
0.760633
0.760643
0.760652
0.760668
0.761074
0.754595
0.752678
0.754461
0.757235
0.758742
0.758436
0.758222
0.758427
0.759055
0.759846
0.760163
0.76064
0.760098
0.759433
0.758045
0.755202
0.754364
0.754237
0.755006
0.75608
0.757069
0.757747
0.758359
0.75872
0.759125
0.759364
0.759585
0.759761
0.759887
0.760006
0.760111
0.760179
0.760284
0.760344
0.760401
0.760431
0.760468
0.760474
0.760508
0.760508
0.760526
0.760516
0.760517
0.760577
0.759922
0.759899
0.759951
0.760025
0.760085
0.760151
0.76021
0.760268
0.760304
0.760345
0.760361
0.760396
0.760398
0.760431
0.760422
0.760455
0.760439
0.760471
0.760452
0.760479
0.760463
0.760482
0.760475
0.760483
0.760483
0.760489
0.760484
0.760493
0.760491
0.760555
0.760536
0.760475
0.760476
0.760474
0.760479
0.760475
0.760481
0.760476
0.760481
0.760476
0.760481
0.760476
0.76048
0.760475
0.760478
0.760475
0.760477
0.760475
0.760476
0.760475
0.760476
0.760475
0.760476
0.760475
0.760476
0.760476
0.760476
0.760477
0.76048
0.760552
0.760552
0.76048
0.760476
0.760477
0.760476
0.760476
0.760476
0.760475
0.760476
0.760475
0.760476
0.760475
0.760476
0.760475
0.760475
0.760475
0.760475
0.760476
0.760475
0.760476
0.760475
0.760476
0.760475
0.760476
0.760475
0.760476
0.760477
0.760476
0.76048
0.760552
0.760552
0.760479
0.760476
0.760477
0.760475
0.760476
0.760475
0.760476
0.760475
0.760476
0.760475
0.760476
0.760475
0.760475
0.760475
0.760474
0.760476
0.760475
0.760476
0.760475
0.760476
0.760475
0.760476
0.760475
0.760476
0.760476
0.760476
0.760477
0.76048
0.760552
0.760552
0.76048
0.760476
0.760476
0.760476
0.760475
0.760476
0.760475
0.760476
0.760475
0.760476
0.760475
0.760476
0.760475
0.760476
0.760474
0.760476
0.760475
0.760476
0.760475
0.760476
0.760475
0.760476
0.760475
0.760476
0.760475
0.760477
0.760476
0.760479
0.760552
0.760552
0.760479
0.760476
0.760476
0.760477
0.760475
0.760476
0.760475
0.760476
0.760475
0.760476
0.760475
0.760476
0.760475
0.760475
0.760474
0.760476
0.760475
0.760476
0.760475
0.760476
0.760475
0.760476
0.760475
0.760476
0.760476
0.760476
0.760477
0.76048
0.760552
0.760552
0.760479
0.760477
0.760476
0.760477
0.760475
0.760476
0.760475
0.760476
0.760475
0.760476
0.760475
0.760476
0.760475
0.760475
0.760474
0.760476
0.760475
0.760476
0.760475
0.760476
0.760475
0.760476
0.760475
0.760476
0.760476
0.760476
0.760477
0.76048
0.760552
0.760552
0.76048
0.760476
0.760477
0.760475
0.760476
0.760475
0.760476
0.760475
0.760476
0.760475
0.760476
0.760475
0.760476
0.760474
0.760475
0.760475
0.760476
0.760475
0.760476
0.760476
0.760475
0.760476
0.760475
0.760477
0.760475
0.760477
0.760476
0.760479
0.760552
0.760552
0.76048
0.760477
0.760476
0.760476
0.760475
0.760476
0.760475
0.760476
0.760475
0.760476
0.760475
0.760476
0.760475
0.760475
0.760474
0.760476
0.760475
0.760476
0.760475
0.760476
0.760475
0.760476
0.760475
0.760476
0.760476
0.760476
0.760477
0.76048
0.760552
0.760552
0.76048
0.760476
0.760476
0.760476
0.760475
0.760476
0.760475
0.760476
0.760475
0.760476
0.760475
0.760476
0.760475
0.760475
0.760475
0.760475
0.760476
0.760475
0.760476
0.760475
0.760476
0.760475
0.760476
0.760475
0.760476
0.760476
0.760476
0.760479
0.760552
0.760552
0.760479
0.760477
0.760476
0.760477
0.760475
0.760477
0.760475
0.760476
0.760475
0.760476
0.760475
0.760476
0.760475
0.760476
0.760474
0.760476
0.760475
0.760476
0.760475
0.760476
0.760475
0.760476
0.760475
0.760476
0.760475
0.760476
0.760477
0.76048
0.760552
0.745822
0.745423
0.746224
0.750877
0.753599
0.755592
0.755679
0.755559
0.755984
0.757262
0.758418
0.759369
0.759969
0.760236
0.754371
0.748422
0.746279
0.745096
0.745699
0.748016
0.75069
0.752854
0.754312
0.755392
0.756067
0.756685
0.757063
0.757385
0.757616
0.757824
0.758004
0.758126
0.758253
0.758383
0.758472
0.75862
0.758715
0.758847
0.758974
0.759091
0.75925
0.759358
0.759517
0.759604
0.757551
0.757432
0.757623
0.757784
0.757946
0.758067
0.758183
0.75827
0.758337
0.758404
0.758443
0.758487
0.758509
0.75855
0.758546
0.758598
0.758573
0.758627
0.7586
0.758641
0.758625
0.758647
0.758649
0.758652
0.758667
0.758666
0.758677
0.758686
0.758691
0.758697
0.758661
0.758659
0.75866
0.758666
0.758664
0.758674
0.758668
0.758678
0.758671
0.75868
0.758674
0.758682
0.758675
0.758682
0.758677
0.758682
0.758678
0.758682
0.758678
0.758682
0.758679
0.758682
0.758679
0.758682
0.758679
0.758681
0.75868
0.758679
0.758681
0.758684
0.758686
0.75868
0.758682
0.758679
0.758681
0.758681
0.758679
0.758682
0.758679
0.758682
0.758679
0.758682
0.758679
0.758681
0.75868
0.758679
0.758682
0.758679
0.758682
0.758679
0.758682
0.758679
0.758682
0.758679
0.758681
0.758681
0.758679
0.758682
0.75868
0.758686
0.758686
0.75868
0.758682
0.758679
0.758682
0.758679
0.758682
0.758679
0.758682
0.758679
0.758682
0.758679
0.758681
0.758681
0.758679
0.758682
0.758679
0.758682
0.758679
0.758682
0.758679
0.758682
0.758679
0.758682
0.758679
0.758681
0.75868
0.758679
0.758681
0.758684
0.758686
0.75868
0.758681
0.758679
0.75868
0.758681
0.758679
0.758682
0.758679
0.758682
0.758679
0.758682
0.758679
0.758682
0.758679
0.758682
0.758679
0.758682
0.758679
0.758681
0.758679
0.758682
0.758679
0.758682
0.758679
0.758682
0.758679
0.758681
0.75868
0.758686
0.758686
0.758681
0.75868
0.758681
0.758679
0.758682
0.758679
0.758682
0.758679
0.758682
0.758679
0.758682
0.758679
0.758681
0.758679
0.758681
0.758679
0.758682
0.758679
0.758682
0.758679
0.758682
0.758679
0.758682
0.758679
0.758681
0.758679
0.758679
0.758681
0.758684
0.758684
0.758681
0.758679
0.758681
0.758679
0.758682
0.758679
0.758682
0.758679
0.758682
0.758679
0.758682
0.758679
0.758681
0.758679
0.758681
0.758679
0.758682
0.758679
0.758682
0.758679
0.758682
0.758679
0.758682
0.758679
0.758681
0.758679
0.758679
0.758681
0.758684
0.758684
0.758681
0.75868
0.758679
0.758681
0.758679
0.758682
0.758679
0.758682
0.758679
0.758682
0.758679
0.758682
0.758679
0.758682
0.758679
0.758681
0.758679
0.758681
0.75868
0.758679
0.758681
0.758679
0.758682
0.758679
0.758682
0.758679
0.758682
0.75868
0.758686
0.758684
0.758681
0.758679
0.758681
0.758679
0.758682
0.758679
0.758682
0.758679
0.758682
0.758679
0.758682
0.758679
0.758681
0.758679
0.758681
0.758679
0.758682
0.758679
0.758682
0.758679
0.758682
0.758679
0.758682
0.758679
0.758681
0.75868
0.758679
0.758681
0.758684
0.758686
0.75868
0.758681
0.75868
0.75868
0.758682
0.758679
0.758682
0.758679
0.758682
0.758679
0.758682
0.758679
0.758681
0.758679
0.758679
0.758681
0.758679
0.758682
0.758679
0.758682
0.758679
0.758682
0.758679
0.758682
0.758679
0.758681
0.758681
0.758681
0.758686
0.758684
0.758681
0.758678
0.758681
0.758678
0.758682
0.758679
0.758682
0.758679
0.758682
0.758679
0.758682
0.758679
0.758682
0.758679
0.758681
0.758678
0.758681
0.758679
0.758682
0.758679
0.758682
0.758679
0.758681
0.758679
0.758681
0.75868
0.758679
0.758681
0.758684
0.744789
0.744693
0.744844
0.745816
0.74809
0.749374
0.751261
0.752606
0.753397
0.753808
0.755386
0.756954
0.758569
0.75955
0.749921
0.743786
0.741807
0.739702
0.737758
0.737613
0.740958
0.745103
0.748348
0.750462
0.751837
0.752762
0.753532
0.754042
0.754533
0.754837
0.755169
0.755398
0.755649
0.755865
0.756096
0.75627
0.75649
0.756689
0.756902
0.757081
0.757317
0.757545
0.757792
0.758047
0.754097
0.753744
0.754189
0.75461
0.754956
0.755251
0.755491
0.755693
0.755852
0.755979
0.756079
0.75617
0.756231
0.756299
0.756338
0.756389
0.756416
0.756454
0.756476
0.756502
0.756519
0.756544
0.756554
0.75658
0.756585
0.756611
0.756618
0.756637
0.756653
0.756735
0.756631
0.756571
0.756587
0.756588
0.756605
0.756603
0.756618
0.756612
0.756625
0.756618
0.75663
0.756623
0.756631
0.756625
0.756632
0.756626
0.756631
0.756627
0.75663
0.756628
0.756629
0.756628
0.756629
0.756628
0.756629
0.756628
0.756628
0.756628
0.756632
0.756716
0.756715
0.756633
0.756628
0.756629
0.756629
0.756629
0.756629
0.756629
0.756629
0.756629
0.756629
0.756628
0.756628
0.756628
0.756629
0.756628
0.756628
0.756628
0.756629
0.756629
0.756629
0.756629
0.756629
0.756629
0.756629
0.756629
0.756628
0.756628
0.756633
0.756714
0.756715
0.756633
0.756629
0.756629
0.756629
0.756629
0.756629
0.756629
0.756629
0.756629
0.756628
0.756628
0.756628
0.756628
0.756628
0.756628
0.756628
0.756628
0.756629
0.756629
0.756629
0.756629
0.756629
0.756629
0.756629
0.756628
0.756628
0.756628
0.756632
0.756716
0.756714
0.756633
0.756628
0.756628
0.756629
0.756629
0.756629
0.756629
0.756629
0.756629
0.756629
0.756629
0.756628
0.756628
0.756628
0.756628
0.756628
0.756628
0.756628
0.756628
0.756628
0.756628
0.756629
0.756629
0.756629
0.756628
0.756629
0.756629
0.756633
0.756715
0.756715
0.756632
0.756629
0.756629
0.756629
0.756629
0.756629
0.756629
0.756629
0.756629
0.756629
0.756628
0.756628
0.756628
0.756628
0.756628
0.756628
0.756628
0.756628
0.756629
0.756629
0.756629
0.756629
0.756629
0.756629
0.756628
0.756628
0.756628
0.756632
0.756716
0.756715
0.756632
0.756628
0.756628
0.756629
0.756629
0.756629
0.756629
0.756629
0.756629
0.756629
0.756628
0.756628
0.756628
0.756628
0.756628
0.756628
0.756628
0.756629
0.756629
0.756629
0.756629
0.756629
0.756629
0.756629
0.756628
0.756628
0.756628
0.756632
0.756716
0.756715
0.756632
0.756628
0.756628
0.756628
0.756629
0.756629
0.756629
0.756629
0.756629
0.756629
0.756629
0.756628
0.756628
0.756628
0.756628
0.756628
0.756628
0.756628
0.756628
0.756628
0.756628
0.756629
0.756629
0.756629
0.756629
0.756629
0.756629
0.756633
0.756715
0.756716
0.756632
0.756628
0.756628
0.756628
0.756629
0.756629
0.756629
0.756629
0.756629
0.756629
0.756628
0.756628
0.756628
0.756628
0.756628
0.756628
0.756628
0.756628
0.756629
0.756629
0.756629
0.756629
0.756628
0.756629
0.756628
0.756628
0.756628
0.756632
0.756716
0.756715
0.756633
0.756628
0.756628
0.756629
0.756629
0.756629
0.756629
0.756629
0.756629
0.756629
0.756628
0.756628
0.756628
0.756628
0.756628
0.756628
0.756628
0.756628
0.756628
0.756629
0.756629
0.756629
0.756629
0.756629
0.756629
0.756628
0.756628
0.756632
0.756714
0.756716
0.756632
0.756628
0.756628
0.756628
0.756629
0.756629
0.756629
0.756629
0.756629
0.756629
0.756628
0.756628
0.756628
0.756627
0.756627
0.756627
0.756627
0.756628
0.756628
0.756628
0.756628
0.756628
0.756628
0.756628
0.756628
0.756628
0.756628
0.756632
0.756716
0.744867
0.744952
0.744873
0.744768
0.745245
0.746372
0.746824
0.748311
0.748749
0.750804
0.75156
0.753376
0.755752
0.758195
0.746379
0.745657
0.745043
0.742513
0.73782
0.73301
0.732023
0.735536
0.740484
0.744036
0.746295
0.747592
0.74866
0.749409
0.750005
0.7505
0.750858
0.75121
0.75146
0.751726
0.751986
0.752215
0.752461
0.752801
0.753078
0.753508
0.753863
0.754369
0.754981
0.755576
0.748768
0.748197
0.748911
0.749762
0.750452
0.750925
0.751301
0.751536
0.751768
0.7519
0.75204
0.752133
0.752209
0.752283
0.752328
0.752382
0.752414
0.752454
0.752476
0.75251
0.752521
0.752559
0.752555
0.752605
0.752586
0.752643
0.752631
0.752686
0.752698
0.75272
0.752537
0.752588
0.752604
0.752623
0.752628
0.752645
0.752643
0.752659
0.752653
0.752668
0.752661
0.752674
0.752667
0.752677
0.752671
0.752679
0.752675
0.752679
0.752677
0.752679
0.752678
0.752678
0.752678
0.752678
0.752678
0.752677
0.752677
0.752677
0.752676
0.752646
0.752646
0.752677
0.752677
0.752677
0.752678
0.752678
0.752678
0.752678
0.752678
0.752679
0.752678
0.752679
0.752679
0.752678
0.752679
0.752679
0.752679
0.752678
0.752679
0.752678
0.752679
0.752678
0.752679
0.752678
0.752678
0.752678
0.752677
0.752677
0.752677
0.752646
0.752646
0.752677
0.752677
0.752677
0.752678
0.752678
0.752678
0.752678
0.752679
0.752678
0.752678
0.752679
0.752679
0.752678
0.752679
0.752679
0.752679
0.752679
0.752678
0.752679
0.752678
0.752679
0.752678
0.752678
0.752678
0.752677
0.752677
0.752677
0.752676
0.752646
0.752646
0.752677
0.752677
0.752677
0.752678
0.752678
0.752678
0.752679
0.752678
0.752679
0.752678
0.752679
0.752678
0.752679
0.752679
0.752679
0.752679
0.752679
0.752678
0.752678
0.752678
0.752678
0.752678
0.752678
0.752677
0.752678
0.752677
0.752677
0.752676
0.752646
0.752645
0.752677
0.752677
0.752677
0.752677
0.752678
0.752678
0.752679
0.752678
0.752679
0.752678
0.752679
0.752678
0.752679
0.752679
0.752679
0.752678
0.752679
0.752678
0.752679
0.752678
0.752679
0.752678
0.752678
0.752678
0.752677
0.752677
0.752677
0.752676
0.752646
0.752646
0.752676
0.752677
0.752677
0.752677
0.752678
0.752678
0.752679
0.752678
0.752679
0.752678
0.752679
0.752678
0.752679
0.752678
0.752679
0.752679
0.752679
0.752678
0.752679
0.752678
0.752679
0.752678
0.752678
0.752678
0.752677
0.752677
0.752677
0.752676
0.752646
0.752646
0.752676
0.752677
0.752677
0.752678
0.752677
0.752678
0.752678
0.752679
0.752678
0.752679
0.752678
0.752679
0.752679
0.752679
0.752679
0.752679
0.752678
0.752678
0.752678
0.752678
0.752678
0.752678
0.752678
0.752678
0.752678
0.752677
0.752677
0.752677
0.752646
0.752646
0.752677
0.752677
0.752677
0.752677
0.752678
0.752678
0.752679
0.752678
0.752679
0.752678
0.752679
0.752678
0.752679
0.752678
0.752679
0.752679
0.752679
0.752678
0.752679
0.752678
0.752679
0.752678
0.752678
0.752678
0.752677
0.752677
0.752677
0.752676
0.752646
0.752646
0.752677
0.752677
0.752677
0.752678
0.752678
0.752678
0.752679
0.752678
0.752679
0.752678
0.752679
0.752678
0.752679
0.752679
0.752679
0.752679
0.752678
0.752679
0.752678
0.752679
0.752678
0.752679
0.752678
0.752678
0.752678
0.752677
0.752677
0.752677
0.752645
0.752646
0.752677
0.752676
0.752677
0.752677
0.752678
0.752677
0.752679
0.752678
0.752679
0.752678
0.752679
0.752678
0.752679
0.752678
0.752679
0.752679
0.752679
0.752678
0.752679
0.752678
0.752679
0.752678
0.752679
0.752678
0.752678
0.752677
0.752677
0.752677
0.752646
0.744993
0.744898
0.744096
0.743039
0.742645
0.74375
0.744751
0.745552
0.746052
0.746832
0.748942
0.751578
0.75367
0.75687
0.749068
0.749711
0.74922
0.746606
0.741528
0.734088
0.728111
0.727988
0.732309
0.736807
0.739872
0.741633
0.742967
0.743904
0.744798
0.745397
0.746033
0.746457
0.746924
0.747299
0.747699
0.74801
0.74843
0.748822
0.749234
0.749757
0.750261
0.751088
0.752123
0.753081
0.743628
0.742273
0.742726
0.744012
0.745214
0.746015
0.746599
0.74703
0.747365
0.747622
0.747843
0.747988
0.748159
0.748227
0.748376
0.748397
0.748527
0.748524
0.748638
0.748631
0.748713
0.748731
0.748766
0.748821
0.748817
0.748902
0.748896
0.74898
0.749009
0.749085
0.748662
0.748765
0.748812
0.748848
0.748875
0.748889
0.748905
0.74891
0.748923
0.748922
0.748933
0.748931
0.748939
0.748938
0.748942
0.748941
0.748943
0.748943
0.748943
0.748942
0.748942
0.748941
0.748941
0.748941
0.748942
0.748943
0.748944
0.748947
0.74895
0.748924
0.748923
0.74895
0.748947
0.748945
0.748943
0.748942
0.748942
0.748941
0.748941
0.748941
0.748941
0.748941
0.748941
0.748941
0.748942
0.748941
0.748941
0.748941
0.748941
0.748941
0.748941
0.748941
0.748942
0.748942
0.748942
0.748943
0.748945
0.748947
0.74895
0.748923
0.748923
0.74895
0.748947
0.748945
0.748943
0.748942
0.748941
0.748942
0.748941
0.748941
0.748941
0.748941
0.748941
0.748941
0.748941
0.748941
0.748941
0.748941
0.748941
0.748941
0.748941
0.748942
0.748942
0.748942
0.748942
0.748943
0.748945
0.748947
0.74895
0.748924
0.748923
0.74895
0.748947
0.748944
0.748944
0.748942
0.748942
0.748942
0.748942
0.748941
0.748941
0.748941
0.748942
0.748941
0.748942
0.748941
0.748941
0.748941
0.748941
0.748941
0.748941
0.748941
0.748941
0.748941
0.748942
0.748943
0.748945
0.748947
0.74895
0.748924
0.748923
0.74895
0.748948
0.748945
0.748943
0.748942
0.748942
0.748942
0.748942
0.748941
0.748941
0.748941
0.748941
0.748941
0.748941
0.748941
0.748941
0.748941
0.748941
0.748941
0.748941
0.748941
0.748942
0.748941
0.748942
0.748943
0.748944
0.748947
0.74895
0.748924
0.748923
0.74895
0.748947
0.748944
0.748943
0.748942
0.748942
0.748942
0.748942
0.748941
0.748941
0.748941
0.748941
0.748941
0.748941
0.748941
0.748941
0.748941
0.748941
0.748941
0.748941
0.748941
0.748942
0.748941
0.748942
0.748943
0.748945
0.748947
0.74895
0.748924
0.748924
0.748949
0.748947
0.748945
0.748943
0.748943
0.748942
0.748942
0.748942
0.748942
0.748941
0.748941
0.748941
0.748942
0.748941
0.748941
0.748941
0.748941
0.748941
0.748941
0.748941
0.748941
0.748941
0.748941
0.748942
0.748943
0.748945
0.748948
0.74895
0.748923
0.748924
0.74895
0.748947
0.748944
0.748943
0.748942
0.748942
0.748942
0.748942
0.748941
0.748941
0.748941
0.748941
0.748941
0.748941
0.748941
0.748941
0.748941
0.748941
0.748941
0.748941
0.748941
0.748942
0.748941
0.748942
0.748943
0.748945
0.748947
0.74895
0.748924
0.748923
0.74895
0.748947
0.748945
0.748943
0.748942
0.748942
0.748942
0.748941
0.748941
0.748941
0.748941
0.748941
0.748941
0.748941
0.748941
0.748941
0.748941
0.748941
0.748941
0.748941
0.748941
0.748941
0.748941
0.748942
0.748943
0.748944
0.748947
0.74895
0.748923
0.748923
0.74895
0.748947
0.748944
0.748943
0.748942
0.748942
0.748941
0.748941
0.748941
0.748941
0.748941
0.748941
0.748941
0.748941
0.748941
0.748941
0.748941
0.748941
0.748941
0.748941
0.748941
0.748941
0.748942
0.748942
0.748944
0.748946
0.748951
0.748957
0.748933
0.74436
0.742697
0.739942
0.737322
0.738283
0.740518
0.742338
0.743231
0.743325
0.743557
0.744622
0.747243
0.750193
0.754499
0.753446
0.752934
0.751947
0.750867
0.749023
0.746234
0.741608
0.734396
0.726749
0.723519
0.72567
0.729618
0.732882
0.734802
0.736191
0.737206
0.738129
0.73883
0.739452
0.739972
0.740429
0.740798
0.74115
0.741542
0.741946
0.742433
0.743014
0.743696
0.744521
0.745603
0.746934
0.748878
0.747045
0.744595
0.740886
0.737421
0.736481
0.737519
0.738865
0.739671
0.740243
0.740632
0.740957
0.741203
0.741417
0.741557
0.741724
0.741785
0.74193
0.741952
0.742066
0.74208
0.742167
0.742188
0.742241
0.742276
0.742303
0.74235
0.742365
0.742423
0.742449
0.742525
0.742593
0.742609
0.742277
0.742259
0.742127
0.742325
0.742362
0.742423
0.742424
0.742462
0.742456
0.742482
0.742477
0.742498
0.742491
0.742508
0.742502
0.742514
0.742511
0.742519
0.742518
0.742523
0.742522
0.742525
0.742525
0.742525
0.742525
0.742525
0.742526
0.742527
0.742528
0.742528
0.742521
0.742372
0.742244
0.742244
0.742372
0.742521
0.742528
0.742529
0.742527
0.742526
0.742526
0.742525
0.742525
0.742525
0.742525
0.742525
0.742525
0.742525
0.742525
0.742525
0.742525
0.742525
0.742525
0.742526
0.742525
0.742526
0.742525
0.742526
0.742526
0.742528
0.742529
0.742528
0.742521
0.742372
0.742244
0.742244
0.742372
0.742521
0.742528
0.742529
0.742527
0.742527
0.742525
0.742526
0.742525
0.742526
0.742525
0.742525
0.742525
0.742525
0.742526
0.742525
0.742525
0.742525
0.742525
0.742525
0.742526
0.742525
0.742526
0.742525
0.742527
0.742527
0.742529
0.742529
0.742521
0.742372
0.742244
0.742244
0.742372
0.742521
0.742528
0.742529
0.742528
0.742526
0.742526
0.742525
0.742526
0.742525
0.742526
0.742525
0.742525
0.742525
0.742526
0.742525
0.742525
0.742525
0.742525
0.742525
0.742525
0.742525
0.742525
0.742525
0.742527
0.742527
0.742529
0.742528
0.742521
0.742372
0.742244
0.742244
0.742372
0.742521
0.742529
0.742528
0.742528
0.742526
0.742526
0.742525
0.742526
0.742525
0.742526
0.742525
0.742525
0.742525
0.742526
0.742525
0.742525
0.742525
0.742525
0.742525
0.742526
0.742525
0.742526
0.742526
0.742527
0.742527
0.742528
0.742528
0.742521
0.742372
0.742244
0.742244
0.742372
0.742521
0.742528
0.742528
0.742528
0.742526
0.742526
0.742525
0.742526
0.742525
0.742526
0.742525
0.742525
0.742525
0.742526
0.742525
0.742525
0.742525
0.742525
0.742525
0.742526
0.742525
0.742526