/*--------------------------------*- C++ -*----------------------------------*\
| =========                 |                                                 |
| \\      /  F ield         | OpenFOAM: The Open Source CFD Toolbox           |
|  \\    /   O peration     | Version:  2.1.1                                 |
|   \\  /    A nd           | Web:      www.OpenFOAM.org                      |
|    \\/     M anipulation  |                                                 |
\*---------------------------------------------------------------------------*/
FoamFile
{
    version     2.0;
    format      ascii;
    class       volScalarField;
    location    "0.007100000";
    object      O2;
}
// * * * * * * * * * * * * * * * * * * * * * * * * * * * * * * * * * * * * * //

dimensions      [0 0 0 0 0 0 0];

internalField   nonuniform List<scalar> 
12384
(
0.0139843
0.0152592
0.0160871
0.0165956
0.0167
0.0164962
0.0155998
0.0145676
0.0129733
0.0119116
0.0108079
0.0101727
0.00978878
0.0080584
0.029415
0.0283641
0.0304269
0.0314979
0.030947
0.028889
0.0270243
0.0260359
0.0252656
0.0241077
0.0224769
0.0208899
0.0195098
0.0185241
0.0179436
0.017857
0.0180204
0.0185419
0.0188717
0.0190641
0.0191521
0.0188495
0.0187934
0.0179475
0.0174402
0.0163574
0.0151831
0.016818
0.0274241
0.040381
0.00671344
0.00319271
0.00249832
0.00191498
0.00144928
0.00125795
0.00117339
0.00110157
0.00120384
0.00132384
0.0014988
0.00166061
0.00194573
0.00227139
0.0025611
0.00283812
0.00304716
0.00315906
0.00327157
0.00325251
0.00322483
0.00318995
0.00305122
0.00287435
0.00261691
0.00220203
0.00156949
0.00150467
0.00375035
0.00592991
0.00210513
0.00169788
0.000849501
0.000501385
0.000452067
0.000506041
0.000719712
0.000783678
0.000776345
0.000963678
0.000971075
0.00099317
0.00105564
0.00106457
0.00108534
0.00114583
0.00108645
0.00118325
0.00126341
0.00134675
0.00152684
0.0015815
0.00163097
0.00167507
0.0016424
0.00153839
0.00153058
0.0015449
0.00168201
0.00174086
0.000499635
0.000548163
0.00054411
0.000540787
0.000545976
0.000528837
0.000481759
0.000472341
0.000467431
0.000460915
0.000489193
0.000481266
0.000470372
0.000462981
0.000452013
0.000473209
0.000470309
0.000456508
0.000473251
0.000484439
0.000507892
0.000557292
0.000592543
0.000910488
0.000512773
0.000245861
0.000462725
0.000454569
7.84258e-05
0.000534329
6.3464e-05
8.23204e-05
8.10178e-05
8.19228e-05
8.75009e-05
8.60378e-05
8.72973e-05
8.15111e-05
8.02079e-05
7.88963e-05
7.80772e-05
7.80806e-05
8.03165e-05
8.26513e-05
8.51992e-05
8.76497e-05
8.93608e-05
9.07634e-05
9.14919e-05
9.19422e-05
9.3144e-05
9.53598e-05
9.54615e-05
8.97513e-05
9.43833e-05
9.97097e-05
0.000104182
0.000107828
0.000122855
0.000122481
0.000385175
0.000192086
0.000121598
0.000169005
0.00022162
0.000262084
0.000284934
0.000302107
0.000314882
0.000324999
0.000331711
0.000336854
-0.00014841
4.16204e-05
5.06853e-05
6.53112e-05
0.00017791
0.000145651
0.000162522
0.000158988
3.32109e-05
2.55226e-05
-4.9071e-05
0.000282531
0.000113686
0.0126341
0.0151115
0.0130062
0.0112765
0.0103947
0.00013742
5.94284e-05
5.13828e-05
3.38197e-05
2.76678e-05
2.17728e-05
1.95548e-05
1.79502e-05
1.6602e-05
3.03849e-05
3.39528e-05
3.12128e-05
3.42238e-05
3.06532e-05
2.88062e-05
4.06602e-05
4.38852e-05
4.61474e-05
3.80378e-05
4.30346e-05
7.27443e-05
1.70573e-07
0.0001112
0.000104977
0.000101732
9.93954e-05
0.000102157
0.000101248
0.000105472
0.000113179
0.000217893
0.000233718
0.000208228
0.000227688
0.000278619
0.000263723
0.000279571
0.000263747
0.000296055
0.000277167
0.000296189
0.000284731
0.000284636
0.000243957
0.000230844
0.000227078
0.000123229
1.66014e-05
1.50166e-05
1.61004e-05
1.83383e-05
2.00316e-05
2.13766e-05
2.19206e-05
1.90278e-06
5.26395e-06
2.32155e-05
1.93646e-05
1.35462e-05
4.73873e-06
0.000128944
9.85537e-05
0.000123231
0.000139712
0.00014978
0.000152205
0.000187891
0.00018215
0.000162935
0.000159727
0.000139991
0.000136342
0.000132077
7.79468e-05
8.11137e-05
2.67235e-05
4.93241e-05
3.31191e-05
6.11015e-05
2.61873e-05
2.36137e-05
2.70409e-05
2.91867e-05
3.2538e-05
3.35199e-05
3.1316e-05
2.70913e-05
2.36656e-05
1.77016e-05
1.31798e-05
1.86264e-05
3.1958e-05
5.03725e-05
6.58249e-06
4.27961e-05
5.93702e-05
6.80558e-05
6.83089e-05
6.89351e-05
6.43002e-05
1.22556e-05
6.25169e-05
4.422e-05
1.98519e-05
1.35587e-05
7.66116e-06
7.34301e-06
9.2503e-06
1.22365e-05
1.24723e-05
1.24633e-05
1.21018e-05
1.30138e-05
1.26258e-05
1.2609e-05
1.22911e-05
1.13117e-05
1.10515e-05
1.04613e-05
8.4976e-06
2.04799e-05
2.69982e-05
1.69332e-05
3.57087e-06
9.30837e-06
9.05022e-06
8.04391e-06
8.17204e-06
8.3438e-06
1.39719e-05
1.40932e-05
1.45338e-05
1.45891e-05
1.48552e-05
1.49483e-05
1.5144e-05
1.48785e-05
1.49377e-05
1.46899e-05
1.43013e-05
1.82217e-05
1.30228e-05
1.69807e-05
1.54997e-05
8.85826e-06
6.70093e-06
6.24955e-06
6.68162e-06
2.11504e-05
2.51581e-05
6.03009e-06
6.03209e-06
5.05777e-06
3.95463e-06
3.82173e-06
8.17781e-06
3.47339e-06
5.63206e-07
3.50751e-07
3.03247e-07
2.57344e-07
2.4411e-07
2.32125e-07
2.33197e-07
2.2792e-07
2.24791e-07
2.3822e-07
2.43771e-07
2.53469e-07
2.67515e-07
2.86948e-07
3.11943e-07
3.37518e-07
3.70482e-07
5.3698e-07
6.28017e-07
9.67371e-07
9.68994e-07
1.24499e-06
1.8132e-07
0.0190518
0.020874
0.0229883
0.0247984
0.0246997
0.0236845
0.0221197
0.0205153
0.0182571
0.015818
0.0125295
0.0103041
0.00947277
0.00810178
0.0293227
0.0291518
0.0312187
0.0310233
0.0291065
0.0278174
0.0274146
0.0267833
0.0242526
0.0195512
0.0157708
0.0139042
0.0133049
0.0137873
0.0150619
0.0169724
0.0192466
0.0212884
0.0225788
0.0232405
0.0234061
0.0230198
0.022331
0.021131
0.0196733
0.0176055
0.0156374
0.0154347
0.0212437
0.0346235
0.00641468
0.00316343
0.00235803
0.00163095
0.00107903
0.000845251
0.000901013
0.00102973
0.00124047
0.00161157
0.00199522
0.00240008
0.0029458
0.00351071
0.00396242
0.00444832
0.00498905
0.00537972
0.00563004
0.00582769
0.00601305
0.00600205
0.00567461
0.00478267
0.00390125
0.00320834
0.00235711
0.00164658
0.00229779
0.00384111
0.00202956
0.00135967
0.000690791
0.000512251
0.000692883
0.00114472
0.00144607
0.00164582
0.00175375
0.0018515
0.0017879
0.00184683
0.00187381
0.00183692
0.00164796
0.00157585
0.00148156
0.00157464
0.00173476
0.00202072
0.00220587
0.00236015
0.00247243
0.00251488
0.00246334
0.00228889
0.00194969
0.00172917
0.0017034
0.00175746
0.000476779
0.000525258
0.000558386
0.000548831
0.000518327
0.000482485
0.000464068
0.00043966
0.000475601
0.000527393
0.000578154
0.000613608
0.000229065
0.000319265
0.000426847
0.000344678
0.000287637
0.000573213
0.000550955
0.00052964
0.00051411
0.000534091
0.000591811
0.000790905
0.000751618
0.000432496
0.000374686
0.000344751
0.000332521
0.000340969
6.51507e-05
8.12861e-05
8.00341e-05
8.30542e-05
8.58873e-05
8.05246e-05
7.36612e-05
6.4063e-05
6.05618e-05
4.36926e-05
4.41188e-05
4.61057e-05
4.964e-05
6.88753e-05
7.61671e-05
8.1417e-05
8.64622e-05
9.14599e-05
9.5544e-05
8.93879e-05
9.16828e-05
9.41193e-05
9.78565e-05
9.73726e-05
9.83565e-05
0.00010093
0.000103932
0.000106389
0.000114793
0.000119817
0.000169329
0.000132703
0.000133442
0.000211712
0.000242332
0.000243379
0.000194842
0.000195232
0.000219567
0.000290135
0.000318756
0.0003332
0.000133835
0.000249148
0.000230469
0.000248941
0.000308335
0.000329669
0.000292038
0.000293132
0.00030614
0.000167754
0.000109853
0.000307381
0.000314492
0.00228066
0.0124749
0.0115619
0.00703771
0.00511182
6.52271e-05
5.0969e-05
3.24313e-05
1.47862e-05
3.15998e-05
3.11489e-05
3.12822e-05
6.0374e-06
9.19502e-06
2.7267e-05
2.57968e-05
2.51831e-05
2.61006e-05
2.87285e-05
3.26496e-05
3.84657e-05
3.04562e-05
3.77319e-05
4.62883e-05
3.44597e-05
5.78618e-05
8.95498e-05
5.86413e-06
0.000110262
0.000111022
0.000111585
0.000109226
0.000100919
9.41377e-05
9.13705e-05
0.000218409
0.000202021
0.000235301
0.000304317
0.000337622
0.000374355
0.000402423
0.000413445
0.000427435
6.79851e-05
6.29556e-05
1.66283e-05
0.000381234
0.000343608
0.000307575
0.000246168
0.000196595
8.25181e-05
1.0615e-05
1.61091e-05
1.86607e-05
1.9986e-05
2.0775e-05
2.19495e-05
1.37666e-05
2.92344e-05
2.79281e-05
2.71628e-05
6.15913e-06
9.52237e-06
0.000169748
0.000186891
0.000194512
0.00021268
0.000268378
0.000290312
0.000306498
0.000329707
7.53298e-05
0.000129412
4.81423e-05
-0.000129373
0.000290247
0.000234163
0.000185934
9.89117e-05
3.83371e-05
6.42366e-05
4.80833e-05
4.94743e-05
2.45244e-05
2.86072e-05
3.32521e-05
3.64195e-05
3.89256e-05
3.57028e-05
3.1596e-05
2.68066e-05
2.37577e-05
1.72153e-05
1.59751e-05
4.09411e-05
1.99265e-05
7.31628e-05
0.000108317
0.000166215
0.000191417
0.000212722
0.000226395
0.000211846
0.000181112
0.00012559
-4.85253e-06
4.25366e-05
1.36451e-05
9.89419e-06
7.82128e-06
1.21799e-05
1.28167e-05
4.47379e-06
2.63071e-06
5.61654e-07
-1.36139e-06
-3.28053e-06
1.12171e-05
1.11435e-05
1.18797e-05
1.22202e-05
1.09203e-05
8.53602e-06
1.92029e-05
2.28012e-05
1.25428e-05
4.90185e-06
4.42731e-06
1.29944e-05
1.51218e-05
1.55531e-05
1.39843e-05
1.38934e-05
1.91895e-05
1.83217e-05
1.7726e-05
1.70859e-05
2.11312e-05
2.15417e-05
2.15817e-05
2.1441e-05
2.11983e-05
2.20607e-05
2.33696e-05
2.56216e-05
2.67895e-05
2.67353e-05
2.38513e-05
1.85935e-05
1.33222e-05
6.75274e-06
1.84215e-05
2.48105e-05
7.93863e-06
8.92118e-06
8.20211e-06
2.96723e-06
4.11164e-06
6.67653e-06
1.09383e-06
3.89981e-07
3.07615e-07
2.85423e-07
3.22274e-07
3.19489e-07
3.16784e-07
3.12191e-07
3.1011e-07
2.98981e-07
2.85564e-07
2.69715e-07
2.92731e-07
2.81947e-07
2.82443e-07
2.9507e-07
1.82167e-07
2.34793e-07
3.22772e-07
6.27508e-07
1.21218e-06
1.28617e-06
1.04593e-06
2.55745e-07
0.0226447
0.0264101
0.029659
0.0291419
0.0261204
0.0224024
0.0196242
0.0182908
0.018103
0.0177082
0.0158648
0.0117092
0.00944221
0.00807031
0.0293393
0.02989
0.0315904
0.0304557
0.0291453
0.029418
0.02989
0.0269584
0.0195972
0.013428
0.0107923
0.0103638
0.0108833
0.0134248
0.0173518
0.0219935
0.0252541
0.0271584
0.0279927
0.0283232
0.0283154
0.0279914
0.0273595
0.0258717
0.0238607
0.0210067
0.0172682
0.0149483
0.0172342
0.0298919
0.00640781
0.00322097
0.00229804
0.00132935
0.000617978
0.000362758
0.00052692
0.000838394
0.00133534
0.00192694
0.00240037
0.00279901
0.00336297
0.00396067
0.00470906
0.00524078
0.0055168
0.00582599
0.00606169
0.00640221
0.00671245
0.00693083
0.00714097
0.00709614
0.00629998
0.00457534
0.00337752
0.00224098
0.00176437
0.00290908
0.00191454
0.0011099
0.00060529
0.000714923
0.00128214
0.00167723
0.00186484
0.00192474
0.00179835
0.00181923
0.00184085
0.00190969
0.00203352
0.00215023
0.00202123
0.00183227
0.00177473
0.00188819
0.00212923
0.00243028
0.0027215
0.00296133
0.00313856
0.00318875
0.00314981
0.00298442
0.00266736
0.00212785
0.00180217
0.0017875
0.000441793
0.000491056
0.000564611
0.000554053
0.0005155
0.000468893
0.000474329
0.000511201
0.000626674
0.0005646
0.00116121
0.00157427
0.00183558
0.002042
0.00208816
0.00200219
0.00181903
0.00144259
0.00104427
0.000528124
0.000579076
0.000537778
0.000552744
0.000354051
0.000766202
0.000304434
0.000446727
0.000429757
0.000362162
0.000286925
6.35795e-05
7.86198e-05
7.76226e-05
8.23339e-05
8.05686e-05
7.10812e-05
6.01432e-05
3.64794e-05
3.53408e-05
1.36275e-05
1.70738e-05
4.2231e-05
4.48375e-05
6.31741e-05
7.32773e-05
8.15674e-05
8.95784e-05
8.83409e-05
9.68565e-05
0.000103721
9.59939e-05
9.55194e-05
9.71919e-05
0.000101932
0.000108779
0.000105511
0.000105867
0.000106398
0.000109889
0.000116256
-6.44627e-05
0.000109243
0.00012173
0.000161694
6.59166e-05
-8.96186e-06
7.26804e-05
8.5622e-05
8.16304e-05
0.000200644
0.000295952
0.000320233
0.000106482
8.96817e-05
-4.90542e-05
0.000309506
0.000288047
0.000282416
0.000293892
0.000291798
-8.93058e-05
3.4759e-05
0.000147587
-2.21176e-05
0.000301311
0.000592324
0.00427457
0.0109188
0.00787703
0.00391923
-8.73459e-06
3.21167e-05
1.44888e-05
2.84372e-05
2.8225e-05
3.03302e-05
1.11029e-05
3.22054e-05
3.36761e-05
2.82422e-05
2.48937e-05
2.15645e-05
2.18251e-05
1.90185e-05
2.59465e-05
3.18048e-05
3.99369e-05
2.90296e-05
3.89985e-05
4.32754e-05
4.1204e-05
7.14652e-05
0.000103897
7.79043e-06
1.92519e-05
1.67531e-05
0.000121363
0.000117366
9.9533e-05
7.60649e-05
0.000236893
0.000223425
0.000261941
0.000361327
0.000417065
0.000153026
0.000610385
0.00105257
0.00131969
0.00133017
0.00137187
0.00119015
0.000946593
0.000461095
0.000383721
0.000319188
0.000280883
0.000195272
6.46366e-05
2.0125e-05
1.71662e-05
1.79137e-05
1.82613e-05
2.10256e-05
1.16597e-05
3.16615e-05
4.49678e-05
4.59902e-05
3.0327e-05
1.70144e-05
0.000192745
0.000171945
0.000219006
0.000253626
0.000298749
-8.11801e-05
0.000554529
0.000911462
0.00119976
0.00144414
0.0014649
0.00134786
0.00105043
0.000461663
0.000318806
0.000227504
0.000123387
0.000110793
6.4555e-05
8.5588e-05
4.13101e-05
2.43876e-05
3.61208e-05
2.97287e-05
3.48789e-05
3.31551e-05
2.61444e-05
2.23164e-05
2.07266e-05
1.82688e-05
1.95684e-05
1.13483e-05
4.26939e-05
0.000108172
0.000146211
0.000209127
0.000147775
0.000628122
0.000720918
0.000714155
0.000445991
0.000244414
0.000148484
-2.26222e-05
3.53611e-05
1.44104e-05
7.8758e-06
1.22193e-05
1.28908e-05
4.42461e-06
2.1772e-06
-7.71843e-07
5.27138e-06
1.13402e-05
1.03335e-05
1.03644e-05
1.15251e-05
1.18967e-05
1.09186e-05
8.21831e-06
1.8992e-05
1.80327e-05
6.684e-06
7.93264e-06
1.02589e-05
1.31922e-05
1.64051e-05
1.46119e-05
1.49337e-05
1.39955e-05
1.82389e-05
1.60455e-05
1.9265e-05
1.72411e-05
1.48837e-05
1.76623e-05
1.59322e-05
8.99205e-06
8.71285e-06
1.19398e-05
2.17374e-05
2.72439e-05
3.09994e-05
3.30749e-05
3.18983e-05
2.65299e-05
1.83606e-05
1.35461e-05
1.73666e-05
2.44187e-05
6.40091e-06
8.38294e-06
1.71463e-05
3.77889e-06
6.12001e-06
2.65409e-06
5.90826e-07
3.53774e-07
1.54993e-07
2.02836e-07
2.62755e-07
3.45354e-07
3.97831e-07
4.02964e-07
3.38788e-07
3.95868e-07
3.5473e-07
3.02482e-07
2.56331e-07
2.66363e-07
2.51452e-07
2.61391e-07
1.30338e-07
2.2318e-07
5.33789e-07
9.61341e-07
1.2722e-06
1.03562e-06
4.52046e-07
2.14316e-07
0.0283627
0.0328516
0.031643
0.0255593
0.0191418
0.0149587
0.0124644
0.0117482
0.0123895
0.014621
0.0157725
0.0133967
0.00987586
0.00799431
0.0294187
0.0303033
0.0318503
0.0307644
0.03066
0.0322806
0.0320627
0.024822
0.0151506
0.0105013
0.00951062
0.00969745
0.0110803
0.0155639
0.0220033
0.026601
0.0288368
0.0291198
0.0285383
0.027901
0.0275524
0.0276688
0.028087
0.0280939
0.0268998
0.0242951
0.0201397
0.0155578
0.0157753
0.0262235
0.00668027
0.00340256
0.00241799
0.00115363
0.000209949
0.000515176
0.000527688
0.000557802
0.00162478
0.00242647
0.00294092
0.00318084
0.00359175
0.00413584
0.00488469
0.0051473
0.00543862
0.00591576
0.00651658
0.00705137
0.00740078
0.00759679
0.00767976
0.00780352
0.00767185
0.00667641
0.00432414
0.00297099
0.00191259
0.00257593
0.00182468
0.00097657
0.000762498
0.0010847
0.00161432
0.00188976
0.00186747
0.00148509
0.00114023
0.00096303
0.00115337
0.00141033
0.00182769
0.00211422
0.00210033
0.0019281
0.00186409
0.00208271
0.00248389
0.00291063
0.00327582
0.0035485
0.0037262
0.00381493
0.00375823
0.00356043
0.00319923
0.00266303
0.00200151
0.0018157
0.000394496
0.000481411
0.000576028
0.000564989
0.000497193
0.000456907
0.000482558
0.000628378
0.000875711
0.0016797
0.00226733
0.00266834
0.00291247
0.00305325
0.00310826
0.00313906
0.0030705
0.00273581
0.00224958
0.00148812
0.000835353
0.000203908
0.000546618
0.000575706
0.000569613
0.000529918
0.000459692
0.000683745
0.000466747
0.000441879
6.09223e-05
7.5308e-05
7.42211e-05
7.78585e-05
7.59811e-05
6.51155e-05
5.27031e-05
3.25165e-05
1.192e-05
1.45731e-05
1.80969e-05
2.39713e-05
4.69905e-05
6.22401e-05
7.05154e-05
8.15547e-05
9.36129e-05
9.58958e-05
9.41262e-05
0.000103974
0.000100085
0.00010319
9.70883e-05
0.000108333
0.000111396
0.000104915
0.000109222
0.00010812
0.000108156
0.000112975
0.000268291
8.31723e-05
2.46049e-05
-8.9869e-06
5.31489e-05
3.30175e-05
2.92831e-05
4.79389e-05
-8.17692e-07
0.000218809
0.000296066
2.3394e-06
-3.29138e-05
0.000310451
0.000291238
0.000263091
0.000253855
0.000222706
0.000226939
0.000263826
0.000278504
0.000297172
-2.60374e-05
5.17514e-05
0.000304533
-6.63978e-05
0.00160767
0.00653695
0.00820825
0.0037002
6.7235e-05
2.95106e-05
2.43508e-05
2.22215e-05
3.02913e-05
1.86314e-05
4.00432e-05
3.47239e-05
2.79261e-05
1.9155e-05
1.23745e-05
1.05488e-05
5.96376e-06
8.80562e-06
7.29032e-06
2.00654e-05
2.98406e-05
3.42433e-05
2.9463e-05
3.68176e-05
4.81234e-05
5.29394e-05
9.44017e-05
2.01336e-05
0.000114288
3.67068e-05
-1.59829e-05
0.000123134
0.000118057
8.61442e-05
0.000204104
0.000250316
0.00037554
0.000466426
0.000569584
0.00138582
0.00198438
0.00243928
0.00269382
0.00276749
0.00265748
0.00248404
0.00206656
0.00152235
0.000733428
0.000384192
0.000315053
0.000276212
0.000108025
2.78101e-05
1.80158e-05
1.66593e-05
1.79142e-05
1.09249e-05
2.65163e-05
4.87861e-05
5.81785e-05
5.36419e-05
5.20263e-05
2.27863e-05
0.000147938
0.000190469
0.000217346
0.000267629
0.000327802
0.000586643
0.0011984
0.00169449
0.00211722
0.00234643
0.00237161
0.00233448
0.00211789
0.00169274
0.000965951
7.80479e-05
0.000236073
0.00013681
0.000134867
0.000106259
7.38443e-05
3.70876e-05
2.22907e-05
2.65208e-05
3.13183e-05
3.86622e-05
3.37112e-05
1.57986e-05
1.3432e-05
1.7585e-05
4.22996e-05
1.6476e-05
7.38338e-05
0.000139539
0.000201252
0.000640801
0.00152991
0.00206804
0.0022742
0.00214356
0.00175897
0.000968837
0.000251279
0.000117403
4.99943e-05
6.16021e-06
8.11276e-06
1.16595e-05
1.3008e-05
5.80974e-06
3.73342e-06
3.51278e-07
5.63674e-06
1.14035e-05
1.08069e-05
1.02842e-05
9.5544e-06
1.06744e-05
1.06404e-05
8.00445e-06
1.82565e-05
1.42311e-05
9.70593e-06
1.26375e-05
7.89127e-06
1.46303e-05
4.84539e-06
4.9559e-06
6.56194e-06
1.33269e-05
1.00581e-05
1.44395e-05
1.73282e-05
1.27794e-05
1.49673e-05
1.08753e-05
6.87544e-06
3.91359e-06
5.6998e-06
1.64708e-05
2.54819e-05
8.9504e-06
4.59374e-05
5.7435e-05
4.31693e-05
3.25191e-05
2.26248e-05
1.52511e-05
1.74433e-05
2.4229e-05
2.67607e-06
8.92733e-06
2.55374e-05
5.70441e-06
3.37008e-06
1.09744e-06
4.11298e-07
2.18697e-07
2.98283e-07
4.7305e-07
5.06992e-07
6.85353e-07
7.90897e-07
8.23363e-07
7.2266e-07
5.18443e-07
2.44233e-07
3.85231e-07
3.01369e-07
2.74792e-07
2.39615e-07
2.38103e-07
2.8115e-07
4.63742e-07
9.747e-07
1.28487e-06
1.45081e-06
6.86497e-07
2.55669e-07
1.48446e-07
0.0355433
0.0344754
0.0268192
0.017822
0.0132889
0.0112691
0.0103997
0.00994468
0.00990338
0.0112644
0.0139656
0.0139232
0.0105231
0.00796029
0.0294624
0.0304321
0.0322517
0.031858
0.0330282
0.0351646
0.0331124
0.0232016
0.0134331
0.00985743
0.00903219
0.00946782
0.0116116
0.0178555
0.0255106
0.0289426
0.0289442
0.0273805
0.0258711
0.0249307
0.0244724
0.0246751
0.025498
0.0268474
0.0279651
0.0264853
0.0225972
0.0166649
0.0151385
0.0241359
0.00716379
0.00379553
0.00290672
0.00150109
0.000252995
0.000512092
0.000524417
0.00100737
0.00236109
0.00327897
0.00375068
0.00363618
0.00376833
0.0043627
0.00481671
0.00503674
0.00565193
0.00665598
0.00760093
0.00825349
0.00853228
0.00856033
0.00841882
0.00825778
0.00827647
0.00778185
0.00610568
0.00366527
0.00221947
0.00240311
0.00184949
0.000945925
0.000696895
0.00125084
0.00177215
0.00190549
0.00158786
0.000978887
0.000526652
0.000373405
0.000640885
0.00113069
0.00164654
0.0021021
0.00207415
0.00188744
0.00196184
0.00234674
0.00288115
0.00338228
0.00385195
0.0047508
0.0052533
0.00536622
0.00511945
0.00447435
0.00366053
0.00304091
0.00230144
0.0018235
0.000376246
0.000473498
0.000298171
0.000536367
0.000461697
0.000457824
0.000545514
0.000752525
0.00162215
0.00230577
0.00273626
0.00307618
0.00329549
0.00347934
0.0036107
0.00366882
0.00364601
0.00350265
0.00312369
0.00239125
0.00154231
0.00075272
0.000574889
0.00056972
0.000417997
0.000696749
0.000835673
0.00139213
0.00112997
0.000242036
5.54268e-05
7.15202e-05
6.8763e-05
7.32374e-05
7.33657e-05
6.18014e-05
5.08717e-05
3.03906e-05
9.73783e-06
1.10439e-05
1.73422e-05
4.36402e-05
4.69102e-05
6.05e-05
6.69214e-05
8.13519e-05
8.86173e-05
9.37307e-05
0.000107782
0.000101212
0.000104454
9.83348e-05
0.00010471
9.23003e-05
9.91795e-05
0.000100292
0.000105763
0.000109208
0.000107984
0.000110446
0.000256803
5.3745e-05
7.79636e-05
6.12005e-05
1.4579e-05
2.28016e-05
2.42814e-05
2.98719e-05
8.05585e-05
0.000216813
0.000299455
0.000324937
0.000305616
0.000273522
0.000251764
0.00022184
0.000203484
0.000168819
0.000158283
0.000206105
0.00022891
0.000256284
0.000304651
-6.69016e-06
-0.000102801
0.000299994
0.000565154
0.0026715
0.00651962
0.00339381
4.88875e-05
1.01275e-05
2.04616e-05
2.90603e-05
2.15513e-05
4.40315e-05
3.83511e-05
2.50712e-05
1.81679e-05
4.36554e-06
2.57904e-05
2.41355e-05
2.40741e-05
2.2625e-05
2.56334e-05
2.61112e-05
1.54326e-05
9.45318e-06
1.86633e-05
2.74442e-05
4.2858e-05
5.55644e-05
7.79443e-05
0.000114517
9.64618e-05
9.44809e-06
-1.75152e-05
3.23354e-06
-4.6601e-05
0.000100384
0.000203583
0.000310469
0.000453419
0.00064864
0.00159268
0.00245057
0.00308918
0.00356264
0.0047192
0.00511263
0.00494092
0.00396617
0.00313906
0.00247815
0.00162786
0.000550775
0.000352544
0.000305513
0.000213619
6.38149e-05
1.30192e-05
1.77975e-05
1.98989e-05
3.1001e-05
6.0972e-05
7.19771e-05
7.49539e-05
7.08373e-05
6.10263e-05
2.14342e-05
0.000122215
0.00013947
0.000214115
0.000268913
9.36387e-05
0.000909374
0.00165185
0.00227256
0.0026869
0.00291873
0.00345187
0.00331686
0.00288184
0.0025399
0.00195272
0.00104618
0.000329656
0.000227371
0.000149764
0.000152712
6.54482e-05
6.59882e-05
4.09681e-05
3.48885e-05
3.17631e-05
3.62163e-05
2.98141e-05
2.18134e-05
8.16739e-06
1.45181e-05
4.66532e-05
6.63718e-05
0.0001064
0.000173097
0.000786854
0.00193944
0.00367202
0.0063538
0.00683158
0.00581707
0.00367657
0.00202804
0.000779391
0.000187678
-3.40758e-05
1.67033e-05
8.82138e-06
1.07617e-05
1.31177e-05
-2.7476e-06
6.22682e-06
4.08709e-06
1.54591e-06
5.94581e-06
1.1147e-05
9.71088e-06
9.97486e-06
8.93777e-06
8.89043e-06
7.6026e-06
1.73793e-05
1.59018e-05
3.49634e-06
8.45932e-06
6.76951e-06
1.85387e-06
3.17917e-06
9.73402e-06
7.41808e-06
2.93264e-06
9.64099e-06
1.33994e-05
1.46011e-05
1.61661e-05
1.71788e-05
1.17706e-05
5.57753e-06
2.37113e-06
3.25802e-06
1.80751e-05
2.9654e-05
5.34247e-05
0.000103815
0.00011132
7.90637e-05
2.04353e-05
2.39908e-05
1.6131e-05
1.83577e-05
2.44424e-05
1.90343e-06
7.13031e-06
3.17499e-05
8.25221e-06
2.98913e-06
2.77047e-07
4.12596e-07
2.92574e-07
5.32792e-07
7.30174e-07
1.10898e-06
1.13626e-06
1.54473e-06
1.54427e-06
1.15504e-06
1.11656e-06
7.199e-07
2.90717e-07
3.71769e-07
2.69494e-07
2.4536e-07
2.3265e-07
2.69272e-07
6.16665e-07
1.45279e-06
1.0902e-06
6.20244e-07
2.25318e-07
9.88965e-08
1.94031e-07
0.0374585
0.0309985
0.0193549
0.0135542
0.0118849
0.0116768
0.0114157
0.0107381
0.00999858
0.0102393
0.0124114
0.0136817
0.0107995
0.00791366
0.0294937
0.0302122
0.0328345
0.0333634
0.0352121
0.0374925
0.0350268
0.0235778
0.0135711
0.00979871
0.00874956
0.00934479
0.0122073
0.0205067
0.0279504
0.0291916
0.0270047
0.0248573
0.0235222
0.0227672
0.0223277
0.0222132
0.0229752
0.0247206
0.0268348
0.0275262
0.024265
0.0176658
0.0148242
0.0230234
0.00785204
0.00433572
0.00369303
0.00259393
0.00138694
0.000778962
0.00116914
0.00247529
0.00367407
0.0043879
0.00511316
0.00406929
0.00389675
0.00444572
0.00466624
0.00505278
0.00616697
0.00761249
0.00853651
0.0089157
0.00892804
0.00885955
0.00878081
0.00858709
0.0085653
0.00837364
0.00714689
0.00413567
0.00246316
0.00234925
0.00187886
0.00107317
0.000832573
0.00130394
0.00181721
0.00191126
0.0015808
0.00101569
0.000473525
0.000219674
0.000370519
0.00107159
0.00165122
0.00215096
0.00207501
0.00181246
0.00208326
0.00266519
0.00325894
0.00388742
0.00525705
0.00620577
0.0067178
0.0067014
0.00629269
0.00551193
0.00430258
0.00333943
0.00249376
0.00191346
0.000338992
0.00050908
0.000355664
0.00048106
0.000431015
0.000474733
0.000612755
0.00125577
0.00195941
0.00245739
0.00283907
0.00323368
0.00346515
0.00363274
0.00376303
0.00379428
0.00382928
0.00381531
0.0036412
0.00312369
0.00230003
0.00130914
0.000399953
0.000562894
0.000329677
0.000733426
0.000931723
0.00168973
0.00112725
0.000481633
5.19874e-05
7.00093e-05
6.44506e-05
6.42396e-05
6.93348e-05
6.23831e-05
5.21404e-05
3.00102e-05
2.75497e-05
2.89045e-05
3.16198e-05
4.12863e-05
4.69335e-05
5.72889e-05
6.73944e-05
8.83402e-05
9.71527e-05
0.00010224
0.000101979
9.87385e-05
0.000102842
9.87399e-05
0.000103349
8.99587e-05
9.34744e-05
0.000101766
0.000113151
0.000110803
0.000107801
0.000108678
0.0002537
1.82074e-05
6.58218e-05
2.92111e-05
2.19117e-05
1.79556e-05
2.29364e-05
2.11093e-05
7.67229e-05
0.000219711
0.000289252
0.000305502
0.000275852
0.000260949
0.000220578
0.000171535
0.000162675
0.000136293
0.000124718
0.000133241
0.000157336
0.000243665
0.000289208
0.000322738
-8.05827e-05
0.000295346
0.000105663
0.00185634
0.00438411
0.00275964
3.24046e-05
2.07953e-05
2.04822e-05
1.69155e-05
3.51575e-05
4.11118e-05
3.02841e-05
1.67014e-05
6.5322e-06
2.39898e-05
2.18215e-05
2.04433e-05
2.04288e-05
1.99365e-05
2.17658e-05
2.19565e-05
2.71631e-05
9.48712e-06
1.5989e-05
1.81359e-05
3.53537e-05
5.08712e-05
6.56345e-05
0.000103994
-1.50736e-05
-3.69389e-05
-1.66906e-05
4.74005e-05
1.04805e-05
0.000110542
0.000235658
0.000401548
9.21386e-05
0.00114018
0.00220338
0.00323438
0.00434859
0.00609995
0.00712109
0.00754968
0.00752895
0.00677808
0.00517838
0.00320351
0.00227938
0.0011491
-1.87417e-05
0.000320212
0.000254423
-8.61011e-06
2.58292e-05
9.66212e-06
2.52349e-05
6.21412e-05
3.19348e-05
6.61237e-05
4.41269e-05
7.42057e-05
6.42691e-05
2.1413e-05
0.000109433
0.000107639
0.000189102
0.00026001
0.000222762
0.00116023
0.00200215
0.00266329
0.00340129
0.00435352
0.00462997
0.0046262
0.00425776
0.00332499
0.00258323
0.00177707
0.000693014
0.00028312
0.000218112
0.000173023
0.000142893
1.60906e-05
6.77454e-05
4.63681e-05
4.13291e-05
3.532e-05
2.61811e-05
1.76281e-05
2.11012e-06
8.7411e-06
-3.92877e-06
4.85269e-05
0.000124198
0.000290267
0.00175601
0.00457281
0.00885596
0.0119499
0.0125183
0.0110159
0.00754316
0.00322822
0.00149366
0.000235369
5.19616e-05
2.1361e-05
9.34021e-06
9.80434e-06
1.27135e-05
1.37615e-05
-1.31677e-06
-5.68166e-07
7.97296e-06
5.14544e-06
8.00534e-06
3.54323e-06
1.03904e-05
9.04672e-06
7.87223e-06
7.71914e-06
1.22043e-05
1.00766e-05
6.3448e-06
3.56629e-06
4.95741e-06
1.1766e-05
8.24465e-06
1.94964e-05
1.74881e-05
1.24374e-05
1.30759e-05
1.12236e-05
1.20764e-05
1.25604e-05
1.37251e-05
1.35178e-05
7.09352e-06
9.98187e-07
7.94502e-07
1.70979e-05
2.98752e-05
5.67642e-05
0.000113052
0.000125515
7.82791e-05
9.8357e-06
2.28865e-05
1.70482e-05
2.02232e-05
2.47106e-05
6.68262e-07
3.69132e-06
3.00445e-05
9.42132e-06
2.24792e-06
6.0189e-07
2.98837e-07
4.61718e-07
6.73871e-07
1.21027e-06
2.035e-06
3.19882e-06
3.61102e-06
3.45186e-06
2.98426e-06
1.88869e-06
1.21009e-06
6.3563e-07
1.60461e-07
3.16226e-07
2.67123e-07
2.66798e-07
2.53336e-07
2.93557e-07
1.16686e-06
1.35123e-06
2.0306e-07
1.15135e-07
1.20342e-07
3.76451e-07
0.0361617
0.024908
0.0152514
0.0129278
0.0131697
0.0134425
0.0130531
0.0117811
0.0107661
0.0104543
0.0120566
0.0136009
0.0108784
0.00783014
0.0296409
0.0294742
0.0330617
0.0347115
0.0369328
0.0391287
0.0370338
0.0254598
0.0148654
0.00998454
0.00865087
0.00927167
0.0127668
0.0226774
0.0292885
0.0283548
0.0250821
0.0229244
0.0223382
0.0220927
0.0214012
0.0209017
0.0212874
0.0230021
0.0256619
0.0274432
0.0251109
0.0181003
0.0145955
0.0227775
0.00864614
0.00533233
0.00489933
0.00410403
0.00347557
0.00320142
0.00380975
0.00500045
0.00640592
0.00679889
0.00678003
0.00506199
0.00397254
0.00443944
0.00451946
0.00514009
0.00669055
0.0082575
0.00879772
0.00880474
0.00865841
0.00861034
0.00867861
0.00869774
0.00872667
0.00868534
0.00773356
0.00456408
0.00255604
0.00233005
0.00189914
0.00115283
0.000837979
0.00125357
0.00177971
0.00189302
0.00173052
0.00138355
0.000781153
0.000376162
0.000651188
0.00127864
0.00182692
0.0022174
0.00205549
0.00179319
0.00225716
0.00296442
0.00358552
0.00490099
0.00637968
0.00730444
0.00770666
0.00761959
0.00717009
0.00632899
0.00501481
0.00346742
0.00258968
0.00187939
0.000316693
0.000559106
0.000549302
0.000433757
0.00042076
0.000485738
0.000308592
0.00149136
0.00210441
0.00243461
0.00284605
0.00329054
0.00360977
0.00385864
0.0038968
0.00390275
0.00390937
0.00395334
0.00384147
0.00344616
0.0027126
0.00160114
0.000676417
0.000566559
0.000298648
0.00062428
0.00110076
0.00172711
0.000798752
0.000437566
4.39479e-05
6.28806e-05
7.43559e-05
5.70296e-05
6.19842e-05
6.24083e-05
5.47067e-05
4.63061e-05
4.39557e-05
3.88363e-05
3.80032e-05
4.83849e-05
6.01713e-05
5.59665e-05
7.6521e-05
9.08967e-05
9.75588e-05
0.000103649
0.000103391
0.00010062
9.3434e-05
9.74241e-05
8.76005e-05
8.54668e-05
0.000105346
0.000102938
0.000103594
0.00010377
0.000104873
0.000107365
0.000243129
-6.91124e-06
5.58292e-05
1.10717e-05
1.82827e-05
1.66106e-05
2.2901e-05
3.46477e-05
7.27586e-05
0.000213268
0.000298939
0.000300777
0.000271785
0.000242065
0.000183109
0.000173507
9.04105e-05
4.79587e-05
5.51257e-05
6.07078e-05
0.000149422
0.000192292
0.000268316
0.000320008
-8.36301e-05
0.000292456
-0.000122932
0.0013712
0.00276829
0.00237568
2.61013e-05
1.2027e-05
2.55034e-05
3.49855e-05
4.9329e-05
3.61008e-05
2.51272e-05
1.01345e-05
2.69014e-05
2.19924e-05
2.19819e-05
1.79976e-05
1.72557e-05
1.68385e-05
1.86945e-05
2.09774e-05
2.43903e-05
2.62086e-05
6.91566e-06
1.54311e-05
3.03493e-05
4.34669e-05
6.07396e-05
8.50493e-05
0.000108929
0.00011283
-7.18476e-07
0.000101321
3.32427e-05
0.000118624
0.000241991
0.000404922
0.00023046
0.00137027
0.00258574
0.00365039
0.00555501
0.00736711
0.00822924
0.00889996
0.0089005
0.00814687
0.00673006
0.00424163
0.00271529
0.00146417
0.000272716
0.000333684
0.00026626
4.561e-05
4.28824e-05
1.44963e-05
6.19473e-05
5.00717e-05
7.41351e-05
6.60363e-05
3.89667e-05
7.30004e-05
6.62499e-05
3.08173e-05
7.71674e-05
6.48413e-05
0.000166723
0.000253578
0.000279149
0.00129939
0.00220924
0.00290753
0.00430929
0.00495066
0.00510688
0.00509924
0.00489444
0.00436429
0.00297321
0.00233693
0.00124799
9.21278e-05
0.00025346
0.000193391
0.00017926
9.20681e-05
8.12025e-05
5.4744e-05
4.07115e-05
3.34414e-05
2.07931e-05
-2.50356e-06
-3.26209e-06
4.63958e-06
-2.11759e-05
7.83291e-05
0.000174387
0.000923923
0.00238993
0.00756503
0.0129858
0.0158299
0.0162296
0.0148301
0.0107462
0.00564133
0.00192468
6.17961e-05
6.5551e-05
2.23373e-05
1.16243e-05
9.18512e-06
1.21739e-05