/*--------------------------------*- C++ -*----------------------------------*\
| =========                 |                                                 |
| \\      /  F ield         | OpenFOAM: The Open Source CFD Toolbox           |
|  \\    /   O peration     | Version:  2.1.1                                 |
|   \\  /    A nd           | Web:      www.OpenFOAM.org                      |
|    \\/     M anipulation  |                                                 |
\*---------------------------------------------------------------------------*/
FoamFile
{
    version     2.0;
    format      ascii;
    class       volScalarField;
    location    "0.007100000";
    object      omegaC_burn;
}
// * * * * * * * * * * * * * * * * * * * * * * * * * * * * * * * * * * * * * //

dimensions      [1 -3 -1 0 0 0 0];

internalField   nonuniform List<scalar> 
12384
(
157716
196731
215943
232877
246701
259989
266685
270754
266949
260963
248284
228864
195682
146568
251832
281632
295950
304297
311572
320224
331117
341501
352634
361349
369378
378323
394360
422344
460250
499709
538682
572983
599560
613624
616443
603462
591843
582063
566040
544741
507728
438558
312584
206579
356295
407437
436674
451484
459130
465264
469438
478822
486703
498215
513492
539338
573993
623620
677612
730463
778084
814100
837856
836666
814729
784141
755869
734608
709730
676809
628757
544930
387138
296306
396640
439224
481190
522479
560943
593431
619703
643356
668406
691462
700472
703661
709406
721422
747188
796682
855693
918381
979229
1.0301e+06
1.06176e+06
1.06838e+06
1.04097e+06
1.0062e+06
970023
926782
852581
716276
509917
410825
472803
564218
622332
660019
699743
751173
816086
886682
962739
1.03348e+06
1.09528e+06
1.14087e+06
1.16559e+06
1.16969e+06
1.14779e+06
1.11605e+06
1.08589e+06
1.06138e+06
1.02857e+06
979287
899725
765504
568517
408679
378813
379025
386418
388006
380954
359352
333989
382407
410057
423013
434997
453300
483099
519420
560838
601017
637572
672866
712158
760942
815022
873498
929461
980197
1.01948e+06
1.04113e+06
1.03427e+06
996649
946335
902481
853067
788657
695203
561768
425080
396671
314675
347657
387659
445071
514204
586360
655686
716012
774951
843627
913873
981180
1.04578e+06
1.09459e+06
1.12692e+06
1.14898e+06
1.1327e+06
1.1037e+06
1.07573e+06
1.03891e+06
999831
948024
875916
767773
606100
435166
397225
384052
385097
407205
314946
356624
458221
572080
682297
780240
875546
962599
1.03735e+06
1.09326e+06
1.13063e+06
1.14222e+06
1.12448e+06
1.09269e+06
1.06935e+06
1.0309e+06
1.00133e+06
947116
889531
794304
670021
535780
450145
413348
406630
407695
406446
397227
389746
385461
397573
582856
781932
919959
1.02327e+06
1.09716e+06
1.15504e+06
1.16585e+06
1.17005e+06
1.11607e+06
1.07212e+06
1.03023e+06
999985
963461
909843
839061
751601
652576
563902
487919
433902
411276
413109
416885
405781
387637
363280
341528
322320
308960
368391
437724
591403
759449
903168
1.01904e+06
1.10179e+06
1.15215e+06
1.16467e+06
1.13954e+06
1.09565e+06
1.07251e+06
1.05396e+06
1.03499e+06
1.00644e+06
962157
908216
846390
772769
686898
592631
509005
464276
461189
462971
452065
433994
418391
410075
412384
433463
631941
905071
1.06233e+06
1.1425e+06
1.17533e+06
1.17871e+06
1.14035e+06
1.08626e+06
1.0269e+06
999081
965312
932592
883447
835410
793348
751864
707140
657592
612369
587771
575504
568477
553677
535683
512498
492263
475288
458018
442457
341980
348654
422417
496985
593187
677136
745773
803698
860022
910574
925357
915103
883472
838542
785234
729754
679813
647931
639224
644774
655195
663402
654172
643557
641960
637725
629451
610845
567647
480634
216103
251675
236067
208031
194533
256311
443517
511876
584208
632333
664698
691820
719027
750422
764955
751625
723050
678280
625368
563597
500149
447143
403007
365210
335647
311431
285940
245396
178394
96506.2
194856
137900
151118
170288
188046
205493
218404
228826
233298
232560
223822
207488
183165
210835
257231
205020
221466
242304
266602
287670
300234
299889
287917
272336
261037
261297
280643
321472
370811
426015
482686
536685
584412
621621
646435
658074
660378
651176
629878
592963
535896
454504
348584
352707
388911
372401
429479
469737
491728
499825
491903
473088
445341
421408
406217
409501
435206
488229
553104
623577
689035
735898
757804
752126
747599
750539
774368
792273
795863
772050
696255
578657
431857
466289
465600
443574
548831
635895
693199
720743
728735
720863
712762
687227
646840
595411
552464
526449
531254
579926
654092
731765
785405
792109
752697
695094
643068
649777
703984
772796
827212
810164
661568
637797
416653
323396
326936
367379
430034
511911
612736
722825
823176
882120
883056
827445
737569
667184
598337
561573
580450
623792
714802
802390
858942
859336
741056
554354
341945
255380
257037
258709
267495
395063
352657
315212
368342
422355
474890
516814
544922
555306
549620
535419
522211
516552
526896
557729
610026
676902
750768
819202
868919
895414
902993
906968
916963
919435
927390
915796
852815
719045
526353
490825
341252
372123
431273
476682
503549
515165
525606
542574
576495
633825
698331
727832
680810
574036
424240
301581
205002
185763
166680
185015
236561
331433
468676
663310
732043
582101
345641
226983
266822
441602
355294
266856
331484
429533
550586
681124
799561
864869
850486
768901
656952
560526
511232
509336
548503
621925
739635
853544
946135
914950
765588
557825
386929
336351
334934
321989
307659
284975
267530
403638
453871
529286
698952
817356
868187
791523
703927
515399
427338
339241
306622
359957
417033
532978
690171
803727
788388
647461
473706
384160
368092
361219
348057
340918
330863
312556
285064
256447
237076
336957
372430
482924
681978
781840
731847
560021
361098
207952
122912
79587.5
66086
75327.9
118434
203580
362462
625542
853817
830041
658565
502868
425891
407822
400322
384329
367196
344690
314829
282664
264727
418232
412217
594598
620301
466655
302621
183726
109546
80108.1
64086.8
98067.3
169246
319469
605608
793995
677167
522803
501349
525624
543060
543984
531430
509874
482818
450750
415204
372053
332380
304131
297198
441562
401606
401853
581922
680690
647381
536304
462517
409986
353320
356556
381903
414858
470184
520405
555066
552326
520652
496842
500919
524142
549408
549701
537511
527416
538454
557700
570290
544988
471437
564359
295448
260480
245934
234202
255474
407616
528718
602991
648958
647821
629677
610875
602867
611796
631311
640118
629420
593519
535777
465628
393591
333481
298701
282218
277768
279074
277671
251448
191461
118149
222510
158696
173601
193142
208746
222564
231401
238332
240439
240983
235098
223555
203691
240929
265594
209157
222455
243723
265148
278873
280969
272043
263324
261064
274012
303942
350383
400679
447903
490141
526911
559309
587998
612308
628612
637814
640895
635986
625889
605887
570623
509828
416655
433688
401834
381792
412709
428047
430634
427942
419964
415931
415038
424068
442751
474477
522864
583187
642147
691130
723689
745705
746245
741947
739608
730871
750923
769890
773204
778549
745319
660508
528897
572168
504024
490565
576413
634514
663886
673439
671244
661698
645840
622610
604839
590767
591299
605338
636250
690117
750927
787916
783105
742815
687794
637466
610389
584754
612186
671002
750581
805693
766050
786397
423439
299323
324616
399202
499825
610182
726646
823010
879048
889066
862734
804238
741946
677801
639110
625517
617809
635269
665458
727966
787884
834758
831066
717231
523908
321202
247428
263010
287658
419391
369823
317243
353199
396178
438687
471020
490967
496587
500720
508641
528629
560069
603754
655716
714752
766186
808988
844780
875517
900158
914671
919094
927907
935393
922754
910289
885316
807250
649253
621775
362838
405575
436756
466823
493868
521217
559226
610271
674327
730388
742659
696164
638800
564748
444815
411397
328750
291005
256456
262318
277406
310668
374253
486984
653498
674726
528637
316463
246355
452166
390438
302085
386004
520190
674324
802380
864645
843107
790493
687019
608494
538818
513703
486792
540817
593226
674774
753794
868547
918512
880830
717386
516027
352647
285394
287836
313286
305107
278334
415001
592981
700444
848647
869878
800614
666378
572980
419773
391849
282424
297310
288435
346851
399130
492497
638293
761927
762702
618684
449886
357415
326347
337652
372186
383930
367690
335839
297257
265560
356892
408821
661134
777485
726787
578239
402959
259621
154622
95842
62355
51554.8
50138.5
58318.4
91996.2
162088
305396
561465
804231
808034
648944
491648
396289
352078
354111
381117
383111
353470
314709
284097
428139
536308
616159
406222
193718
98436.1
54257.8
36254.4
25632.5
35321.1
41977.6
74179.4
135261
283772
577350
771292
628535
507009
505441
520683
533755
544191
552022
551165
534588
496917
429952
356220
296532
280514
456603
486847
539547
659867
662656
589005
534372
533692
491512
484919
483251
461116
453080
451872
467627
494363
533184
554672
552615
542481
535488
533460
532041
540320
540031
541033
545494
549342
538187
489672
604680
336460
273958
228663
242451
387370
535949
597270
637991
642353
637526
631285
634313
639727
647872
653270
658548
655107
639725
611871
562514
482896
388292
309561
253895
220790
204432
199188
184723
146699
93087.4
238074
178369
195105
214240
227607
235890
239049
241308
241776
243465
243698
240356
229894
264360
280294
227993
232791
247868
261334
264676
256574
246783
246111
261352
301146
356782
415198
464708
503494
531882
551600
566412
578483
588371
597605
603483
606414
606297
606279
601604
588163
553424
479825
493987
411861
403638
404254
390289
370095
355436
353880
369866
395483
433633
480154
534327
597469
659122
707298
729496
740073
739307
733975
737876
738640
739183
740232
756788
765012
769772
765216
716557
611737
646593
532109
538893
594044
620678
622365
609367
590457
569835
554311
552117
572024
604036
639927
673759
713255
756599
780316
767530
727868
679911
639704
610482
600333
607505
611464
627215
678150
758663
806546
884034
479422
309586
341793
444766
569191
696226
808389
871508
884027
867147
831839
796786
772928
739260
715597
678597
686308
702060
713253
726216
756594
793097
831918
802740
655433
448731
269907
259664
298035
435089
389764
338643
351872
376337
403815
422330
429615
434828
451230
485819
536752
601843
673222
741866
798979
832795
851917
864241
872006
880347
890811
896566
897357
904474
915650
908824
894002
855844
739630
711714
389651
464238
454490
457813
477333
518074
585105
670111
752415
769469
702256
637564
593176
579641
570894
609379
544541
527323
509116
482646
444852
409903
395772
428961
558133
674454
623139
437908
276065
449642
415984
335220
441898
612326
775909
856490
849524
794984
751909
697497
662390
648634
607946
610310
581983
656673
704237
736266
824611
883650
919208
832454
655952
458524
314475
290554
332773
326289
288631
421650
742842
846606
879922
786527
689460
571513
538011
438596
390677
355561
303305
306697
319102
367347
418743
511158
659297
764672
727341
566813
416916
346889
375932
430001
444580
422853
385580
344609
310592
372341
473331
756643
750364
616978
455828
319565
222783
150637
105809
72847
57710.2
51770
56278.7
67690.8
99330
171392
331458
598997
806290
784888
632378
481959
384747
388041
430607
430879
392012
344048
307464
439013
785813
484398
161586
57404.3
26038.8
19727.7
18560.7
22339.7
19998.4
32378.2
49854.1
77445.8
147193
339702
666886
744734
594115
528335
517795
532335
564092
597176
614051
614293
585624
514020
412757
318097
284914
472377
576673
621143
680970
646035
610540
647047
655110
646119
661815
632348
598401
550310
501747
455907
448570
479038
527328
552411
566050
550703
533806
497248
474192
483749
512192
532642
541283
537536
511240
632070
356867
276465
233898
335148
507564
595362
632027
647544
649430
659835
674615
683021
694215
703174
700782
691247
678708
661706
642567
614039
555194
449996
341319
260815
204858
155765
132931
127760
109623
67731.2
246075
196239
215813
234824
244007
246705
242932
238788
236610
240399
248330
257633
259039
285648
295484
250394
244321
249566
252885
246926
233140
224859
233615
267376
330042
403569
463924
510267
540955
559763
569534
569598
562206
553481
548664
551464
556010
565126
575836
587109
595279
586642
537973
539267
414891
427470
405336
364122
316900
287784
293654
329548
379540
441620
508411
581975
650466
710422
739951
745398
740283
728389
717401
710363
708670
718081
725274
735785
757124
761226
768137
751259
680380
701426
550734
585786
612109
606362
577585
534930
490199
454860
455022
492414
557378
627402
686549
718641
743963
772677
763674
707090
652609
623556
612765
604878
595542
608605
631143
640277
638884
683902
772243
948394
550771
321882
362751
487192
627351
758028
851789
878930
860785
835190
809428
817170
807493
805432
802089
803898
775278
774322
779541
765811
754881
771719
808644
832119
739642
546826
329768
254975
301440
449231
407882
364943
359805
364991
375839
379576
375704
380141
408819
466304
547116
638102
727187
802035
842374
858440
875010
879000
861437
831141
805890
801937
814153
831518
862094
896179
901127
882446
807461
766931
417050
532022
477207
446039
455165
511288
607397
718272
797918
752749
639296
574760
569274
645088
705817
726965
727311
752678
739256
712179
666909
572510
476752
431412
504533
641549
663996
517256
329761
450966
443400
360990
499660
694295
832421
849120
828578
777371
786223
752681
765620
714782
721764
723371
745859
716901
769848
781590
798346
847188
919327
887443
754803
557879
391317
333114
357628
342149
297045
428295
879193
908018
807784
700971
626098
570177
564431
497858
520687
454553
455205
413189
381254
383549
420682
451020
560754
707937
763548
653987
488008
399004
425411
475010
479478
446137
405214
375741
358569
385849
577123
785580
706060
526489
358836
261710
212611
172579
154983
121470
105276
89959.3
75933.2
81274.3
82729.2
125338
212769
418354
679808
814831
739038
581176
458898
440014
466658
453148
402427
350515
323230
449082
1.05546e+06
269409
55893.1
17891.5
12878
12685.7
19919.6
26057
43506.8
39953.6
48375.6
55366.5
90945.9
197270
463939
738996
692863
585506
538030
539836
581392
629886
654393
650315
642425
607317
505583
378466
307625
482793
649457
654764
678365
646494
685021
743711
745887
768799
761266
742635
716956
665354
575461
490306
436885
436137
474335
529089
543669
543201
544756
485856
395879
382382
445696
506163
535103
538184
526144
646906
362737
278137
283257
428517
563469
622253
643075
646357
665735
694540
715859
730639
733445
737904
738023
726143
704253
680067
657623
633732
596208
504215
377430
285717
213441
142181
100415
95103.4
92973.5
53838.2
251156
212781
235308
251954
258490
254577
243723
231085
225343
232725
250540
272836
286786
301339
310919
274010
258162
250962
244236
230668
213532
207148
225240
275054
353398
436500
496725
539229
564919
581217
584038
567297
534827
500405
477626
474052
489301
513177
541127
570243
598654
614100
589290
569157
413447
445156
414729
356283
285332
238981
247069
299250
367877
445223
526262
610745
683228
738469
752475
747800
738347
707896
673395
636088
618187
630299
667458
699912
734477
755620
768037
770024
733363
738060
553440
621881
626081
596989
541651
470333
397850
351349
374991
461225
569157
656182
712555
740792
754086
756556
724793
643917
592263
588551
623601
663511
675070
658178
627892
603168
596872
618429
701722
978924
612550
330653
381846
522850
670227
797782
867269
861322
823438
803761
814761
834992
807116
789924
777870
773387
790318
789689
798613
799654
788047
758063
784922
823250
786060
613963
387524
258151
303209
466880
425461
388020
373966
364945
361268
353273
340189
341954
378324
455089
557217
666818
762624
834402
855969
874698
895801
887247
836314
761641
688212
653334
675953
735739
802045
868629
909224
900673
854052
788547
441733
595014
499709
432727
431434
501264
622306
750659
816618
726471
572546
512972
584581
703750
738422
746512
710295
680576
694138
735363
749694
702150
555607
477755
476679
611285
679099
554842
366512
458058
490254
382268
553511
755524
850403
835365
813811
791960
804798
785882
793748
788776
771970
774081
785187
787037
814840
785913
839181
807795
896233
908973
808979
616780
447228
372159
373637
347816
301446
437075
1.00214e+06
880231
733854
663124
602550
599029
603153
606433
619724
586049
560097
509662
473204
398579
414592
450730
507840
644835
757598
696339
526041
426010
444859
484510
472786
423939
387136
387894
400409
392745
717856
780414
654806
446493
294703
217955
215077
213348
264678
261582
263876
209555
150745
134740
102296
117923
166479
317053
559893
772832
785201
641223
501490
458959
467726
440198
380209
336357
330524
456877
1.18365e+06
109706
20705.9
9303.05
8077.78
17107.5
35491
80599.3
86405.8
67127.4
72333.1
44505.6
62711.7
118654
310262
625718
733443
651194
573829
549099
585450
645557
674948
667061
643603
642758
605323
479231
364691
500542
696471
650988
661598
669156
755400
777991
772378
760714
740716
748789
757952
730545
662394
550941
454251
411318
450445
499225
507339
522420
545222
514871
397491
330369
409285
496057
533096
538362
535773
649606
366348
282944
329753
490944
587921
632733
649734
661591
690496
718033
727776
718749
704933
701778
718848
733415
732002
696257
671599
643276
615083
542338
407401
307321
228752
150485
95713.3
88200.1
93614
50897
252521
228093
252248
268351
269238
255034
233624
214025
206813
223116
255076
290601
314264
314101
323562
293595
272851
254639
237240
217203
197612
192628
218404
281004
366871
454078
516177
555686
578535
595785
594071
558848
498064
432547
383849
375455
408995
458848
508179
557381
604381
639455
631241
579369
415604
451598
421806
363643
288859
227573
226133
284144
361084
444579
530830
622531
700363
749713
757163
749557
731436
677882
604836
523956
477237
498907
572772
650675
707857
746619
770766
779514
765975
753242
538489
644769
638109
595173
523475
431653
342633
297552
359294
477611
597740
680111
721988
740860
759543
755792
666619
588408
570494
609808
676978
666888
615384
653073
681422
632098
535611
507686
614139
972569
650633
336336
400292
550716
699440
818978
867437
832802
780962
798383
820081
798045
723759
652223
597288
615313
679256
745679
785508
785684
800716
755655
774601
808451
806525
653582
422344
266355
306503
491223
442380
401578
390241
378033
365112
349178
330308
326590
365274
449144
561133
679544
778646
843780
845860
874076
896672
879928
800021
679095
555997
490653
535892
640848
754683
851213
919990
917107
876646
769222
459285
647324
519946
417667
404198
486669
629953
763129
820173
704379
527747
497916
602512
703335
751722
707055
572588
478051
518133
629101
730597
739973
626409
499418
476329
602192
684198
566122
385882
470540
552273
404864
603147
792011
855498
825265
808372
791951
817490
781165
747742
667468
612519
629340
713456
777886
822594
800269
844263
812948
869949
902871
832093
635111
464199
381057
369375
344260
319044
472178
1.10406e+06
839552
705896
639919
605534
623219
631753
638273
598515
547704
583740
600060
569644
479702
413700
445967
495325
608172
743183
705306
522774
409465
430485
467291
444038
387147
372374
406469
440989
401126
874031
783560
635214
399800
244447
186480
214774
251680
386764
467386
506409
452299
304572
220236
154137
139333
158774
275503
492345
727513
792567
657542
491514
433437
450931
432567
392328
363220
357154
478567
1.17896e+06
48011.1
13113.9
8815.13
10433.7
29201.4
90491.3
186477
259215
146430
100363
49359.8
44554.9
77267.6
213195
504148
704550
697665
615769
559382
573716
635656
684724
693645
674438
643779
632831
585902
465932
560808
718453
624685
649574
699550
788446
776353
729684
652454
601240
628558
697643
742496
712969
619730
497419
440981
446652
494584
505613
505669
533721
545531
488506
424906
459024
515214
537482
537902
537376
642846
373011
281526
359489
519768
594812
634955
648952
666263
702787
726933
699561
638735
581898
581436
638512
699966
734151
715387
684142
653406
626542
564853
426806
318280
244676
170113
111516
102000
112828
62938.2
252816
240196
267580
279076
270099
243946
212985
186868
183914
214359
261318
307300
334827
318328
339489
310048
289515
264525
236472
209594
187048
183403
215089
285597
371969
458898
519795
556585
583940
605603
599551
551350
465592
368059
283838
266764
334708
414357
485322
553327
615471
663731
661220
566061
420937
444385
422202
379451
322242
265316
247596
289707
359595
438312
522413
617032
702101
756861
756363
751297
722515
646390
541207
416551
332108
379183
490725
605372
691909
739995
770329
788578
782419
744719
525812
652080
643648
598642
526166
439161
362269
342499
419195
529036
629114
692529
725431
737291
756069
754525
653182
580894
572045
632166
668096
531304
423981
557853
662279
611734
531374
458719
507163
908185
671013
351459
422172
573511
717447
828212
855351
802695
759030
790451
812220
763399
647030
502186
385005
418410
536884
651634
750698
779262
805106
754241
765697
792766
810789
671951
439637
277280
315755
511418
463196
404252
401093
395778
383341
364978
343219
336319
369007
448354
557242
675608
776056
844773
843890
877384
897736
873137
774281
620026
447822
356906
449479
596224
746259
860240
926702
929226
890386
738269
467391
685918
534795
402975
373888
463510
623207
761214
821832
703934
533258
485269
593867
697318
764283
701456
535405
400012
440562
578180
709465
751436
624233
496138
486432
616044
686949
554913
392244
503157
620575
456540
652771
817240
854454
820107
801400
790105
811475
766838
689759
549086
397145
421931
573528
719346
784017
824917
826168
801581
865777
893325
820220
619346
438121
353380
376953
391457
421914
595137
1.17914e+06
838067
695475
651055
605374
638268
655287
619440
498862
376508
470025
579083
579966
522818
434210
420505
488734
605075
736571
694787
495023
380676
430612
482159
469979
436079
437783
469267
493812
450310
1.0073e+06
791406
638390
377735
222329
162757
218538
259416
467954
541575
482799
535165
502406
353412
236680
179141
175128
281597
473128
700212
787932
642252
455727
442247
502016
521090
517971
497991
482010
617503
1.02686e+06
30599.4
13740.9
11772.6
17482
60275.4
212486
407073
420969
243547
127744
53700.1
35947
59900.6
162650
416225
647235
702441
651599
570772
543821
590777
661848
703718
702124
679212
649406
624152
560722
614389
711875
591187
644088
730293
792990
766976
667368
535950
427522
465896
600352
709219
733074
663913
554456
481588
480269
513179
533498
508854
517254
541630
542447
530485
525728
537626
539887
537822
530472
631656
388381
268813
367022
528209
590108
635321
645249
672288
716573
718917
657785
545769
428876
418798
534950
649481
724128
723019
692674
660219
636540
575900
440437
315761
254603
197216
149067
146487
169738
115381
250584
248063
276576
280402
259577
225857
191343
166770
172479
216592
272860
323360
348724
331716
370929
382759
327768
319246
303307
278103
244802
211285
186429
183242
217002
284767
366525
450718
511044
547684
579417
606512
603745
549804
457130
346607
237479
202078
297191
393465
479503
559722
632707
685833
680311
586454
456062
442053
384457
403619
397294
377858
346423
310655
291380
310926
361747
427019
502903
597163
690201
750774
762578
751021
714758
633531
526150
399259
304420
350350
467860
591380
691630
741485
766606
786638
787052
766698
595473
553931
572398
640793
636255
598406
543884
482391
440442
447108
510931
589705
652654
692614
713593
726075
748619
759518
661123
592307
600792
651270
638785
469729
397312
551291
652730
583502
506955
426760
479416
855313
607372
631768
561888
390451
451508
590930
724484
825657
848517
787321
746056
780960
795751
766840
649419
500440
356394
367299
488124
611594
729375
769120
802457
744407
763033
776881
810742
673264
450286
308274
336129
391154
517252
512707
399067
389471
404547
414671
412018
397306
376993
365651
386837
450857
545504
655918
753607
827975
838292
881272
891951
871042
767887
627340
470668
391364
481920
628665
783445
891528
933120
923090
885492
720518
619746
598029
601383
688560
534488
393836
356269
443193
603607
743064
815300
738832
561064
505900
564896
692163
762734
745923
646814
550015
562377
657412
749699
724288
582385
487393
520484
643480
678418
543686
441478
480927
624505
666106
558986
558424
708227
832306
848618
806132
801867
778448
813160
776526
726121
605808
478026
466633
580156
710884
779687
826761
827667
780918
863362
893543
788349
579595
413755
439087
522283
588163
633664
674690
834657
974883
903915
872193
750090
648887
637757
600571
676008
634678
569893
465273
515629
598638
579450
503661
453639
425862
469910
617054
745681
681705
485654
415560
486471
547676
570614
575219
584283
599664
616380
651443
861013
947402
711824
788071
650615
408155
227714
171495
193067
252601
411117
516144
484649
478531
544332
424837
298244
218098
214908
312227
483419
700281
783402
629307
504714
557809
627486
664121
675408
661550
639348
633961
897867
1.07265e+06
256538
58214.6
22760.9
19985.8
27429.8
80786.4
289349
415725
423584
281610
145840
47336.7
34845.8
57122.2
143501
364014
593852
690545
674530
582262
506685
506373
579251
660663
704497
712315
686192
647220
599486
483143
548325
610261
637926
582709
640783
738812
794947
762227
646231
494164
372675
407565
552712
679975
728825
693118
591656
533397
528720
546368
559786
546719
510337
520275
530121
542581
544536
545658
541682
536841
516134
495706
462428
421014
281053
278864
367497
528187
577847
627969
644687
670662
717423
715171
642862
511728
365460
349835
495905
627605
712218
723270
700608
670372
640557
576077
449646
309042
258008
222673
203580
217642
229293
188925
110587
48648.1
248959
250684
277573
272384
247260
213219
180506
163130
180501
229105
285329
330883
349009
324080
221481
217261
295624
315676
310320
291401
260561
225863
198045
193684
224418
283969
356161
429774
486214
525751
565497
601418
604827
561941
482383
390063
310725
283091
333912
410480
493304
575898
653982
703108
686909
575436
295981
272296
337248
345380
355990
360569
356869
345322
333006
336041
363208
408857
471226
560464
664328
743011
760192
750446
712342
646517
565826
482058
422297
439374
518021
617943
701959
744669
771625
788257
785418
726297
364456
329191
547972
601501
604635
586559
556833
529142
521659
543024
586061
632642
661837
681927
686535
688678
716834
762015
685740
622065
628378
660475
655552
572497
551091
631400
648505
580015
491152
433873
503987
831595
399123
424729
497864
378164
450209
590108
713351
815912
844158
796043
743850
756285
784323
790742
721742
633233
541381
522796
581467
663743
748139
770448
788713
737895
744288
779099
801734
673056
462167
318212
323626
355189
328440
324584
345032
370054
404603
431424
442949
438920
423879
409522
415837
457201
527247
620641
713090
799452
830697
875182
885034
869154
794122
690720
585799
542200
608080
721076
848777
921362
932369
920702
860885
681874
466923
520163
697694
648548
502839
378854
347681
427270
575547
705498
793228
780314
614536
532461
561364
641210
736173
764364
757886
739987
740831
759879
731934
630986
524099
499173
554886
655009
659785
541515
460938
469383
500470
519517
513277
552517
714692
836698
853701
804205
785671
761260
796590
776292
784677
738820
687865
678879
710413
777764
780972
839232
780872
820165
851761
885236
759171
565964
453296
471674
515987
549750
566041
568123
564453
659579
885644
896266
776470
688735
629671
606989
628543
617218
647950
610933
626409
582896
519470
450751
430798
446235
485033
624643
759531
674894
503460
448010
502738
568007
605781
618748
627377
627799
623921
601146
541190
555024
681592
802999
723771
483441
293657
219370
217033
261259
373771
495172
548615
545357
526976
433356
324192
259504
269971
360894
518705
716703
781458
647572
541963
552460
594063
626309
629735
613454
592980
593825
633666
707186
298193
86530.5
36185.1
30579.3
32561.2
76861.5
195804
347065
380393
207698
134828
42676.1
40492.1
72120.8
153324
357386
570160
679551
681062
597194
490280
423543
454145
558812
660795
707290
709600
682055
618978
508030
367305
452878
585934
603435
667162
740621
798327
771183
675427
559609
482796
503552
594556
686112
726021
691742
612992
565318
567914
555545
564797
572524
532048
516741
515152
525895
532660
544312
541541
530050
477165
382105
287301
271246
262236
269150
351494
519880
568179
620659
641061
669317
715473
722345
667622
572162
483688
477459
562367
656403
712151
717141
702842
675601
632137
564278
450730
310405
257894
236330
227016
235286
229371
213272
66026.6
40143.8
245272
245435
270970
262084
240990
214550
189183
180352
202045
246738
296703
333202
340210
303333
198448
192686
264409
300219
308394
300234
280078
252023
227316
220200
242373
285794
340262
398115
448985
492508
539715
586050
606680
586228
530064
462089
406697
383154
403568
453136
520550
597383
671907
710040
680826
560004
278083
248403
283533
294828
316241
338351
354528
360163
356590
353702
361847
386594
431504
511363
623414
716819
752215
751257
727071
683043
634509
588619
558218
562966
604973
663874
714904
754144
781885
787941
779677
689299
335332
303732
469152
531761
553111
558829
556929
558564
571666
596591
622310
648372
656042
658173
638957
622389
652500
745129
722780
658083
647261
658936
674574
660630
659748
668112
640440
575336
498645
478305
571837
826984
369089
378885
441361
342297
433500
567771
679105
782167
846754
816011
752268
742722
762051
783815
767469
761610
719617
709761
725435
744234
783328
763105
775698
724199
754044
781000
789938
656343
455576
319185
316187
346913
331216
330993
335757
365134
405871
443340
468551
477301
471130
458895
451713
466694
507462
573723
654289
748609
811664
857357
872602
875576
834550
781969
724947
709411
752487
826056
906305
930080
925131
908314
829005
667720
490629
527557
674109
566465
447237
364332
353755
425232
543825
652907
741009
802768
692904
573974
561722
601839
646856
700149
712334
716801
719597
682624
622629
544042
495571
511981
586951
658043
653921
531940
452286
445044
444310
441163
442009
513658
682509
820974
859780
811595
770431
736073
764700
749587
766604
755014
773258
772076
789205
781247
787022
816752
786774
837809
870100
858058
732322
572144
481467
467235
467873
465980
466033
479689
523487
650442
853487
910850
837787
718511
653175
577777
575052
526454
565559
512904
517236
500747
461435
443787
431664
453501
534587
668988
758918
662659
508671
432266
439254
489747
538092
567590
584091
582465
568413
526613
469464
496762
619578
768401
805135
626980
407340
275223
230539
214007
255705
313495
407396
453879
391580
336699
315016
298323
325193
421790
593155
750509
781252
659937
543309
494392
483167
486191
481999
479596
493997
554301
655323
723240
379657
138435
64138.3
39700.3