/*--------------------------------*- C++ -*----------------------------------*\
| =========                 |                                                 |
| \\      /  F ield         | OpenFOAM: The Open Source CFD Toolbox           |
|  \\    /   O peration     | Version:  2.1.1                                 |
|   \\  /    A nd           | Web:      www.OpenFOAM.org                      |
|    \\/     M anipulation  |                                                 |
\*---------------------------------------------------------------------------*/
FoamFile
{
    version     2.0;
    format      ascii;
    class       volScalarField;
    location    "0.007100000";
    object      p;
}
// * * * * * * * * * * * * * * * * * * * * * * * * * * * * * * * * * * * * * //

dimensions      [1 -1 -2 0 0 0 0];

internalField   nonuniform List<scalar> 
12384
(
844423
843724
841879
841931
836846
838494
831549
834213
827727
830281
825825
827605
825810
826316
827621
828405
829193
829523
831484
831054
833615
832594
835664
834767
837623
838390
840185
841130
842162
842652
842594
842182
841791
841591
841271
843358
842454
846884
846751
849097
848871
849560
849320
849651
867431
866366
864358
862938
858138
858264
849809
852985
845236
848249
843176
845133
842858
843656
842610
842322
840864
837402
838677
835013
834495
840300
838542
843619
848114
851613
852661
855047
856131
857202
845728
845208
845071
844598
843393
841659
840091
837608
841744
838897
845683
847246
852858
854842
858049
861020
862899
864204
864373
863032
860801
859310
858353
861251
859790
865470
868219
868573
868464
869657
863278
862720
862545
864361
865682
867617
869818
871387
871452
869447
865466
860253
854206
849082
845812
842483
841403
845163
849885
851840
852629
851962
850644
848563
845880
846445
843396
844231
842642
842297
887308
886910
886177
884814
885071
881636
882478
879389
880116
880620
880923
882232
884670
886312
887205
887496
886849
885416
883119
880622
879460
880067
878604
881057
884351
886772
886816
886737
886091
886113
890760
890575
890607
890750
889924
893378
893937
895379
896918
897586
896992
894733
890050
883223
877129
874728
860341
859703
861720
861582
867508
871525
874414
875189
873874
872036
871396
870268
871642
870910
866747
866596
866517
866824
867571
867285
866204
863574
859841
853050
853913
846707
850422
845845
861272
855554
875902
873274
886383
884527
892785
891360
898490
895620
903586
902232
907593
907452
908830
909508
891841
892423
889814
887606
880955
869841
870025
847036
853642
835327
841457
838028
840923
845646
846616
845715
843538
843238
840811
841134
839326
839856
838516
841082
840483
841596
842395
843682
844394
845640
871288
873607
875619
877101
876741
873894
868378
863153
856552
854493
850911
854786
860292
864812
871928
874585
875879
876388
876873
876982
876929
876901
875622
876560
876450
876227
874648
875459
873198
873761
820982
819127
828400
831375
836241
836816
837715
833503
845616
844654
857765
862111
866504
868157
871154
872581
873058
872469
872577
872479
872437
871450
871216
869264
869141
865947
866451
864466
864862
864777
851506
850109
850976
849630
848328
848414
844294
843342
842971
839149
840249
841051
841180
841727
841709
841502
840054
839475
837711
835722
831307
832299
828443
825293
827733
825794
826652
826046
826090
825887
810404
810311
811904
811032
813663
815758
817326
818084
818999
819226
818868
819091
817756
821442
821757
824761
827079
829704
830583
830611
829249
828210
826897
826191
825671
826025
826487
826397
826543
826687
844768
843877
842299
841946
837490
838513
832320
833988
828664
829721
826658
826806
825813
825533
830438
830499
831194
830990
832007
831552
833483
832877
835224
835043
837737
837930
840020
840999
841691
842085
841948
841439
840878
840252
841194
840376
843337
843973
846395
848159
849270
850049
850242
850817
867732
866020
864257
862624
856546
857247
850027
850790
845706
847143
843210
843932
842716
842297
842672
840656
838989
837964
836307
833912
835188
834518
839711
843827
844715
850742
853392
855594
856901
857902
846021
845420
844578
843175
841257
839682
838421
835882
837683
839863
844889
844282
850547
855857
856835
859111
862042
862899
862245
860420
858123
855801
853062
853838
859079
862853
865233
868330
870610
870842
861897
861366
861740
863156
864474
866248
868191
869409
868927
866306
862120
855981
849860
846228
840789
836088
839229
838958
843497
848501
850472
851436
851147
848995
847351
846048
844214
844102
843478
842442
887538
886813
886197
884642
884247
881205
881243
879171
879140
879346
880549
881504
882561
884230
885130
884789
883939
882226
879927
877897
875492
875573
878380
878313
879930
883565
886175
886530
886621
886738
890543
889740
889544
889556
889936
890432
892137
893904
895057
895451
894743
891198
887043
882784
873442
867515
858736
860996
856664
858344
861492
867634
871495
873685
874486
873087
872422
871293
871202
870865
866934
866024
866412
866473
866518
865976
864156
859864
856801
851930
846575
844409
844175
847309
851954
857152
866455
871192
883459
882793
893551
891974
897947
896393
902773
902019
907542
907229
909017
909033
891225
890310
889424
882660
881040
864050
865022
845272
844756
835836
830739
837038
836412
839096
844301
846390
844621
843261
841307
840163
838949
838609
838180
839499
841208
841618
842022
843439
844402
845318
871987
871917
873395
874300
873603
870420
864693
858077
852973
847281
847215
846792
852416
859522
864705
871151
875647
877489
877678
877806
876915
876348
875636
875340
875330
874759
875089
872794
873930
873943
820932
820130
825034
827912
829243
830432
828480
832465
830287
841181
851899
857072
866648
869310
871163
872575
872839
872103
871960
871792
871126
870869
870061
868773
867964
865486
866423
864113
864523
864372
852377
851924
850966
851217
849191
844663
845651
842673
838312
839277
839795
839574
840330
840593
840874
840188
839917
838862
836364
833774
833642
826702
828998
825456
824717
825593
825277
826134
826271
826464
810106
810110
812124
812036
813989
815924
817545
818375
818523
817940
817126
816275
817042
817361
820318
823245
825829
827973
829394
829374
828541
827515
826273
825925
825811
825853
826356
826908
826814
827322
844424
844481
842333
842511
837831
838919
832870
834692
828890
831114
827609
828932
827762
828379
828817
829200
829611
830668
831314
831643
833749
833597
835629
835483
838014
838126
839718
840811
841475
841454
841176
840516
839480
839392
838613
838633
841889
842280
844920
847023
848568
849564
850382
850998
866107
864895
863139
860764
856081
857160
848527
851507
844768
846522
842488
844153
841589
842592
841271
839925
837532
837859
832995
832794
833803
831901
835677
843497
842596
847985
852960
855013
856642
858539
844748
843721
842452
841017
839699
837735
835284
835534
836150
835390
843967
845924
847691
853047
857454
857722
859678
860853
859536
856933
854376
852745
854198
850431
852176
856408
862897
865708
869112
871128
860901
860543
861592
861547
863320
864982
866757
867216
865936
862688
857024
849912
844227
837681
835056
835739
834054
836049
836341
841398
846604
848737
848636
848697
846475
847205
844457
844849
844223
843078
885746
885535
885058
884604
882668
880903
881029
877662
877989
877288
878450
880261
881142
881206
882201
882186
880448
877974
875731
873761
871532
867847
869290
876703
877901
878912
882695
885311
885793
887034
888680
888916
888735
888275
888184
889793
890327
891538
893185
893489
891444
888047
886348
879035
866369
868295
856788
854018
851446
854218
857858
861032
867237
869855
871632
872454
872253
871871
872099
871679
866615
865780
866181
866209
865722
864119
862033
855650
854415
844571
842671
838922
842136
838409
847437
852073
862182
864800
877563
881646
887438
891534
896592
894395
903125
901488
906359
908139
908631
910285
890344
890791
887724
881365
876403
861954
858386
838602
843075
825375
832025
827319
834383
836921
837832
841125
842498
841639
840991
839626
838556
838510
838939
838391
840793
841841
842495
843032
844214
845114
870280
871230
871938
872392
870647
866636
859872
852470
846546
841485
839620
841107
841534
849242
857921
864456
869982
873861
875662
876026
876357
876060
874898
875240
874558
874897
872739
873676
873039
872054
815412
815750
821713
822104
822833
819640
819327
815500
826952
829674
841360
852375
858767
866002
870078
871677
872232
871747
871262
870679
870505
870098
868893
867828
868346
864483
866185
862908
863864
863792
853322
852014
851443
850571
846815
844144
844702
836992
838758
838929
837342
838241
839040
840076
839756
839849
839131
837671
835575
834159
831566
826161
828439
822976
823338
822695
824525
824444
824952
825167
810579
810364
811727
812577
814162
815350
816336
816928
816669
815566
813984
814079
814411
816993
817285
820563
823919
826345
827683
828456
827718
827113
825991
825849
826032
825743
826773
826329
826682
826526
845958
844751
843688
842192
839476
838828
833849
834801
829821
830316
828035
827232
826807
826509
833373
833415
833657
833277
833859
833725
834641
834524
836243
835653
838022
838309
839828
840363
841043
841115
840304
838895
838167
836988
838349
837246
838579
840233
843669
845467
847837
849319
850209
851211
864769
863822
861263
859771
856067
855025
848536
851295
843502
846178
842680
842674
842061
841028
840597
837803
838060
833331
830760
831043
830880
833013
831973
838105
843389
844785
850877
854588
856149
858066
843082
840857
839424
838797
836904
834163
834080
833278
836631
833900
838813
844064
848974
848985
853843
857505
856614
856083
855470
853137
849732
846475
845590
849529
851421
852164
856154
862738
865071
870423
859722
858576
859483
861544
861833
863354
864305
863655
861447
856418
849206
842977
837518
830954
827539
820344
824193
828101
832206
834163
838730
843885
846026
846463
847272
846977
846092
846012
844891
844521
884390
884182
884257
882423
881880
880568
878695
877051
876828
877549
876320
876937
878756
879268
878633
877748
875433
872097
868074
865881
867253
868078
863200
863679
873997
877381
878092
882660
884877
886244
888314
886889
886568
886027
885978
887755
888728
889782
890516
889874
888722
887866
879869
873251
865322
864971
848196
849424
849122
851158
852882
855768
862053
866427
870378
872482
873481
872805
872480
872030
866719
867347
867049
865812
865133
862290
858922
851138
847227
839387
836002
835045
831176
838009
832514
844650
855151
858148
870495
876188
885561
885672
896567
893582
900792
901241
906393
907371
909910
910198
890506
889769
885435
877623
871732
853964
852733
834330
828811
825761
816239
819976
819937
828080
833265
836045
839532
840661
839800
839305
837441
837573
838723
839056
839816
840753
842747
842746
843559
844746
869865
869326
869255
868960
866612
861135
853984
845032
838813
832414
831067
830830
836112
840258
848086
857868
864298
869963
873343
875252
875773
875030
875250
874383
874619
872469
872756
872153
870325
872041
815898
818719
815087
815275
810437
809270
806650
812426
806048
818669
829677
841652
851811
860448
867104
870014
870617
870538
869821
869660
869233
868296
867318
868012
865399
865762
863618
864024
863146
863594
853459
852389
852017
848652
844099
845484
838410
835292
837427
834175
835702
836771
838009
837926
838907
838636
837917
835952
836798
831050
829939
827080
825183
820932
823063
822985
821955
823387
823411
824030
810553
811519
811881
812130
814285
814782
815639
815721
814628
812964
811709
808997
809228
812057
815052
817022
820413
823395
825815
826306
826767
826340
826055
825857
825751
826572
826559
827286
827149
827890
845428
845591
844261
842933
839528
839991
834994
835974
831910
832718
831243
831888
830815
831507
831508
831327
831776
832581
832753
833091
833896
834242
835484
836320
838129
838427
840170
840881
840412
840097
839287
837610
836133
835301
834369
836745
836200
838253
841693
843486
847195
848619
849907
851487
863575
861706
859863
859742
854415
854260
849222
849656
843874
846423
841916
843422
841282
841548
838667
838010
835334
830495
829800
827734
827384
829719
831811
831624
842207
843775
847452
852947
855476
856715
839617
839928
839798
835354
832236
830122
830049
828991
832605
835135
838203
838669
847340
849518
849336
852544
855213
853164
849999
845902
840499
834323
830495
832856
840951
849560
853318
857778
860866
865384
856947
857599
858861
859384
861039
861144
861226
860430
856603
849795
840972
836666
826055
821674
818427
821440
815792
819140
826197
830533
832974
838873
843437
847067
846853
847488
846206
845980
845849
845973
881077
882179
881814
882025
881327
878675
877717
876117
875817
874168
875438
874358
874409
874953
873046
870365
868606
867393
864641
858904
852742
857638
864681
861438
861080
872887
877089
878472
883581
885335
885648
885568
884270
883024
883400
884092
886200
888219
888020
888072
888566
882525
874217
872955
862727
852738
846026
849424
845185
844853
850566
852634
858063
862860
870218
872478
873482
873800
873752
872531
868676
867929
868185
865826
863663
859103
857202
844304
845430
830792
831089
818564
822488
823013
834772
831610
846260
854999
862130
868232
884306
882248
891236
893981
900181
899792
906835
906850
909425
910838
889294
888533
881104
874761
864563
850155
844908
824304
828959
813193
819176
817103
817943
820662
828854
831797
834155
838359
839391
838285
837927
837716
838044
839120
839749
839702
841029
842767
843078
844204
868724
869799
869440
867377
862448
855550
847934
836322
830721
821941
818966
821258
822728
832667
836295
849634
857543
866109
870501
874340
875067
876167
874833
874240
874404
872087
870714
868961
870770
869933
815400
817691
813443
807365
804831
797639
796599
789924
803898
804806
819851
829778
842642
854678
861491
866841
868683
868371
868477
867883
866471
866094
866966
865043
865248
864002
863715
863343
862753
862394
853828
852386
851986
845604
845257
842291
833133
836419
831210
830983
833177
835224
835388
837052
838229
837859
836293
836974
834127
830449
830044
827566
821924
822183
820814
820159
821740
822331
822182
822183
810796
810783
812559
812808
813428
814599
813313
812102
811011
809603
806895
806644
804487
805845
809915
813386
816043
819804
823392
825369
825850
826059
825497
826261
826804
826564
826936
826822
827357
827273
847867
846304
845791
843637
841882
839006
838194
835036
832959
832137
830138
829597
829053
829069
836863
837004
836898
836633
836645
836670
835857
836918
838210
839290
839527
840393
839572
839673
840806
840278
838374
836290
834389
832861
832998
832329
836198
836831
839159
842250
846099
847963
849934
851503
862360
860376
859876
858426
853495
855023
848803
849146
844697
845943
842271
843056
841361
841701
838367
836808
834176
827718
829295
825648
826117
824540
831462
829913
836669
842887
846466
849915
853517
855311
838457
835759
834269
832100
830614
830609
828182
829451
829435
830900
840150
837865
842324
847726
849717
848577
850995
849335
844196
836918
831978
831585
833317
828897
827528
833485
844508
854400
860176
859481
857986
857053
857348
858515
858658
859711
858922
856408
850010
842232
836660
831693
817664
813923
809666
802400
806802
805539
812918
822874
831502
832361
840078
843577
846704
846985
847104
847882
847279
844270
881875
881096
880639
879599
878860
877389
877444
875449
873396
874258
873697
874713
872553
871303
871358
870011
866295
862215
856595
855802
851294
843784
847631
860397
860043
863687
876237
875661
881815
884504
884868
882133
882401
883714
883960
883579
883187
884441
886250
887414
883532
877736
874749
870022
852453
852579
847887
841229
837332
839418
843603
852477
853324
863068
869014
872070
874234
874804
874304
873348
870262
869339
868731
867065
863062
857167
853227
841374
838113
823070
822834
821507
814902
815409
818336
825830
839135
840317
863698
860410
877296
882419
889688
889966
901071
898705
906122
906545
909190
910323
887511
885245
878085
871999
858440
847748
836649
822309
818605
807494
805174
803781
810569
810425
817690
829799
832000
834828
838000
838636
838958
838671
838171
838710
839433
839249
839222
841879
842573
844310
865813
865498
865268
863513
860336
849845
844284
829496
827680
816472
818716
816325
816442
829305
831382
843774
851705
862963
868829
873665
876076
876627
876544
873553
872887
872136
867789
869456
868024
865301
815138
815861
806972
800167
790130
787330
779178
785126
784528
787069
811863
816595
833735
846967
857106
861508
864640
865433
864596
863612
863636
864135
862194
863170
862462
863566
862793
862639
863071
862567
854025
852947
850082
844741
845909
835121
832831
833606
827682
830622
830381
830551
834231
835593
836320
835967
836777
835169
832065
832326
827080
828669
820827
822961
819295
820637
819796
820470
820825
821058
811191
811369
811473
813234
813520
813516
813875
812601
808548
805304
803034
802283
804680
801369
803846
807034
815170
815521
821326
823350
825005
825588
826076
826941
826141
826840
827390
828130
828273
828844
846918
847095
845699
845159
843247
841002
838136
838818
835157
836447
835435
835567
834894
835623
835255
834989
835196
835443
835614
836020
838442
837823
837779
837590
838383
840236
842124
842512
840460
839812
838969
834658
833066
832324
830189
830977
833064
837243
837135
841235
845432
847965
849742
851973
859776
860167
859159
856127
854545
854474
848274
849352
845952
846245
844557
844900
842729
840799
839844
836359
833148
827177
829114
822806
823859
822303
826647
832935
833501
838893
846426
848229
849814
852981
836535
835641
833300
830659
829762
826831
827794
827108
831621
828784
836762
839506
841657
843485
847957
849475
845133
843937
839772
833287
831799
828857
826815
829034
831996
836422
838467
843393
854385
861770
855264
855707
857214
857036
857250
857000
856706
852139
843766
839908
831775
819093
808490
813432
803078
806788
806807
808427
811167
810612
827676
827384
838709
841738
846205
847011
848057
847621
847370
849075
876145
876807
879141
879474
877935
877650
875939
873348
873837
871256
870219
870080
869991
867045
864898
862561
856704
853244
846413
845871
847611
847709
843334
846442
860346
856940
873773
876511
878316
883875
881726
882852
882871
880664
880300
882868
884508
883507
884339
884235
880897
878060
873877
862594
852453
853301
843299
835916
839265
836508
844556
848022
855965
862648
869422
872896
875172
875599
875163
873931
871475
870579
869735
866402
863926
854556
851059
835570
837269
818103
822711
807752
813328
811790
816432
820873
835039
834479
856522
859757
874218
876028
891270
888695
897392
900076
903092
906285
908235
910469
887358
882282
877523
868404
857109
844923
831524
819352
817545
803795
808467
805545
808852
813548
810947
824373
830687
833490
836414
838882
838947
839318
838691
837824
837492
838472
839406
840712
843170
844723
865719
866275
864801
862183
856748
845940
841909
824820
822092
811512
810749
811908
809261
820088
827792
841225
847813
860788
868496
874512
877083
877535
877279
875754
872883
869203
869022
867645
862841
864728
814437
813416
803020
796346
786741
779501
776351
769053
784536
780364
803147
809970
825749
839884
852464
858115
860552
862710
862168
861895
861773
859474
860073
860838
862101
861259
861729
862530
862288
862411
854200
852831
850010
845097
843581
831289
835503
828036
825581
825217
826124
829488
831296
835100
835631
837053
835550
834991
832942
833247
827569
828476
822590
822303
819512
820586
819642
819273
818715
818388
810427
811919
811609
812562
813444
813177
812218
808869
805124
804518
799667
798509
797590
802108
804238
803046
810495
813926
819375
822473
824227
825849
826945
826438
826999
827763
828344
828343
828615
828632
850442
849092
848526
845431
845335
842411
839393
837944
836799
834579
834170
833368
833932
833101
840329
840380
840249
840313
839100
839427
837796
838618
839760
842108
843009
841549
840844
840980
842323
840986
837861
836085
832099
832374
831112
829918
831898
837385
835460
841188
845511
847696
849586
852454
860065
859642
858247
857023
855999
852768
850850
849162
847402
845812
844468
844259
844442
843842
838937
837508
833654
826878
828713
823615
822283
822882
824011
831906
834705
836893
843621
848398
848366
849643
834103
830966
831678
827667
826430
825256
824228
824083
830098
830307
834413
838197
843096
843077
844703
846192
846181
842434
835305
828666
826798
817277
814539
818175
823042
827460
839874
845358
847660
857994
856609
856062
855872
856804
856157
855206
852508
848659
841196
836102
826439
812863
810072
806197
794117
794313
799574
797327
811526
807598
826043
824428
837110
840444
844790
846808
847621
847009
850038
841114
877742
876607
876033
875435
876182
875380
874034
873974
872699
871610
869850
869187
867217
867833
863612
859837
853611
850605
843977
839403
834025
838981
845522
843377
859435
855489
867740
876418
879758
881217
883088
880528
880226
880663
880922
880453
882055
884568
884333
882879
882138
875782
872118
862390
855904
850438
844207
838976
840695
839543
842647
850424
856435
862029
868247
873970
875073
875174
874137
872440
877578
876885
873114
868595
863105
854866
848704
833668
834069
815542
817467
807347
806142
811931
807122
824682
820988
836636
850286
854808
871920
874203
886899
890146
894746
897311
904803
903747
908136
909347
879584
883911
875576
871285
855524
845591
832959
817036
816467
801318
806482
799611
801205
812999
811874
819105
827330
834635
835403
838256
839551
839315
838492
837029
836894
836291
838538
839974
841701
844085
866908
865162
863755
859501
855096
842282
843519
823404
825500
814880
815207
813891
811440
819758
828611
841949
846362
860196
869923
875336
878069
879537
878122
875792
874272
867097
870999
863585
862833
863879
801823
807130
803643
794638
783812
777166
773952
772644
777814
773048
798492
805199
821166
836391
848903
854589
857468
857043
858208
858024
855117
855297
856984
858005
857301
859485
861155
860839
861524
860653
855552
853159
851310
848287
838737
834164
832470
826540
822669
824096
827558
828665
830525
833131
836139
836210
836289
834910
834422
833277
828177
829709
822234
825159
818877
821284
818820
819823
818933
819095
811119
811403
812146
812607
813108
813408
810991
809167
805524
800406
797528
796670
794497
794838
801750
800097
810096
812573
817930
820666
824384
827113
826876
828059
827860
828132
827931
827974
828682
828186
849209
849193
848517
847637
844790
844747
844191
840910
840969
840222
838742
839493
838540
840456
838934
840966
840132
839120
838808
838987
839964
839638
841862
842044
842500
841391
841606
844119
845470
844631
842473
840707
840314
834960
834367
831507
830509
829920
833398
835787
835921
842074
845552
847734
850643
854944
853478
851807
859346
857257
857816
857523
854913
852826
853407
849933
849637
849069
848594
847373
844952
843203
843248
837927
836400
830437
830268
826562
826124
825630
828318
829009
836619
837907
841017
844341
845548
844555
839935
835774
834874
832660
831491
826003
827685
824194
825862
824256
826987
832965
832585
838221
841333
844247
845211
846051
845272
841674
835508
826941
824845
817614
816918
822638
822404
824650
840606
845289
848218
857431
851541
850420
853981
853404
853735
852810
853504
852332
850716
846063
839946
834153
821051
814595
803445
805514
793775
796185
801046
793955
811380
804660
825326
821590
837522
837051
845216
845465
847595
850578
850326
853978
857717
862844
867628
870909
873612
875906
875923
874746
874232
873066
871060
871145
868727
868762
865537
864819
860342
860564
849682
851256
838504
841159
836629
834248
841282
840024
855708
856539
867751
872861
879582
881681
879108
869136
878773
879803
880705
880562
879682
881831
881585
884356
883970
884055
882542
878184
869683
868421
856939
851172
847332
838178
838436
839762
849489
851955
857617
862502
871595
875031
877161
877721
876660
874530
873565
865790
872412
870161
868300
865127
861199
853771
851239
832862
835886
816103
819934
804979
809630
808779
808388
821818
820295
836329
852200
849712
867419
877055
883912
888540
897296
896672
899487
904823
902604
907133
902919
909512
891080
889975
884508
869662
862861
839699
842850
814704
822842
804213
806716
805318
804709
810302
815296
821138
823811
834032
836186
837226
838430
839057
837490
837086
837343
835623
839733
839640
844975
848531
849801
853217
858305
859510
858560
859711
854332
846262
840205
827656
820974
808966
811484
812194
813413
820060
831470
842266
849396
862198
871230
876480
880439
881312
880079
877178
872984
869826
868362
860389
861493
853275
845581
852185
824713
822852
809787
798413
783579
776517
777336
769016
777004
770521
800132
800632
819710
834769
846767
851494
854397
855952
855391
854012
855732
856218
854648
853532
856038
859042
859870
861209
862142
859893
862992
853875
858661
854853
851582
849480
838598
836322
834238
824193
826703
824721
827876
829781
829467
834781
835870
837258
836805
836495
833940
834905
828989
830725
823246
825166
820552
821085
817889
819228
816067
816180
812027
814292
810684
812424
812335
812968
813506
812980
811592
808633
805458
799923
798820
796469
794854
796439
800154
800012
810659
812770
818244
821477
826384
826725
827119
827812
828363
828768
828714
829652
829560
830042
830380
830516
853559
852290
851202
849544
848502
844686
843268
842070
839422
838880
838051
837613
838634
839250
840150
841454
843260
843648
843432
843666
843088
843701
841890
842615
842568
844580
846260
845786
845240
845972
845990
844354
840434
838107
836414
832709
833824
834046
835791
834579
838477
843396
845671
848633
851469
855055
853787
854017
857996
858190
857993
856611
855834
854303
853035
850980
850429
849748
849414
849015
849405
847585
844068
840603
836594
832364
829541
828204
825323
826258
825713
830937
837747
837599
841369
844299
844482
846211
838347
834662
834651
831802
827019
828022
825270
823172
824818
824517
825804
833757
831314
838631
840829
844632
845147
846968
844799
841349
836953
828773
825613
820073
818994
824522
823367
831260
842901
846081
850401
858560
851917
852918
854909
852243
851142
851964
851948
852192
847816
846528
838720
831872
822422
816902
803318
805432
797552
794914
798474
797229
810190
806786
823438
823136
834688
837840
842734
843856
848137
846191
850242
849758
859991
859573
869774
868804
871474
872152
872546
873173
873025
871779
871200
870645
868079
868786
864780
865684
858919
859711
849698
849414
839361
839982
836669
834435
842328
842252
854220
858711
868052
873978
879391
881826
877952
872459
880968
879798
880267
879817
881112
881013
883763
883751
884987
884119
883750
881178
873866
868647
864428
854235
849948
851244
848345
849271
850043
852721
859425
867036
872405
874894
876842
877120
875716
874175
873442
869640
873266
870241
868839
865469
862449
855124
851345
836473
836318
818269
822844
812752
809563
814171
808502
827747
817764
845389
840331
858642
862973
877188
881984
885864
890610
896906
897496
899629
904477
904446
901099
908176
895265
894723
884676
877047
863261
849001
842780
821337
823573
806545
811769
802724
804951
808844
815288
825651
827161
831170
836085
837740
836681
835626
835097
834725
837884
835164
841464
839049
846404
844795
850269
850714
858914
859804
859741
859476
858816
855452
849607
844362
840173
832668
823571
817805
826267
834036
839068
847262
855957
867073
873220
878359
881946
881190
879558
876109
871089
873467
863783
860475
861999
852248
846385
850804
830527
826012
813758
801927
787317
781037
777173
775730
781748
773910
805314
801392
820926
838233
846731
850570
852857
853841
852062
851800
850795
849372
849602
851510
855200
856912
857967
861827
861919
861487
863356
857894
859440
857861
854895
850954
842925
838130
836949
828565
823266
825300
825055
829762
832132
834492
836879
837482
837788
837268
835223
834348
830368
830986
824266
826476
820098
822990
817283
819687
815755
817282
811683
813810
810752
811844
811727
813132
813468
812748
812294
810969
809179
803935
800135
800556
801288
801348
799059
804469
811565
812102
818861
824486
825593
826810
828243
828782
828206
828909
829176
829245
829362
829425
830336
830221
852538
852632
851749
850314
849981
849076
846952
846244
846148
843884
844594
843937
843528
844187
842449
843006
843243
842286
842424
842534
843548
843102
844673
844388
845829
845843
846200
847204
848016
847995
846427
844720
843263
840380
836931
834462
832895
833276
834509
836366
841557
844495
846636
849046
851748
853539
852493
855182
857949
857606
857183
856941
856458
854413
853627
853354
852567
852203
851863
851608
850140
848324
846391
844597
843266
838481
835539
831982
830783
830826
834460
837916
836088
838645
844414
844355
844165
843584
836712
833192
834618
829551
826267
828184
824235
823202
823712
826103
825042
833545
830651
839776
839618
844081
846184
847344
846205
841926
839088
833045
830696
825555
826312
828176
831497
839047
845602
849447
853133
857734
851250
853238
854651
851364
851506
851736
851888
850048
849170
845821
839891
833883
825378
818192
807113
809338
797930
800732
803993
800403
814538
808936
826180
823587
836593
836141
842026
842079
845051
843717
851340
847836
858111
859676
865937
868989
870105
871857
873491
873172
872187
871562
870817
869892
868525
868408
864872
865783
859569
858562
850215
850258
840127
842567
836455
839620
846101
842908
855821
860666
868830
874165
878785
879403
877245
875320
881321
880757
880527
881242
880517
883360
883324
884991
887163
887996
885254
883625
879757
873670
866676
863816
852482
850212
851402
851182
855546
859816
864751
868320
872773
874741
875785
875520
874868
873271
873523
870777
872674
869253
867882
865158
862967
856755
852672
841324
840884
825522
823591
813656
817927
815068
822300
822482
824725
846164
845598
861235
866962
874620
878111
887283
886261
891269
896118
897029
899240
904986
901786
906040
898696
896237
891630
880120
871267
852720
849274
828453
830064
812028
814333
816729
815791
821223
823741
827748
830146
832411
833294
834810
835620
835744
835725
834005
837127
836326
841411
839847
846292
844682
851130
850397
858150
859349
862251
863211
864253
860564
852619
841728
839214
835416
838538
839715
831967
834225
846508
855356
862314
870815
879487
882384
880935
881640
878855
874917
870573
872395
861554
863627
858045
851595
848743
850237
836305
831811
821510
806714
798839
789054
779954
774201
785225
782097
810741
805423
828200
842058
849159
852492
853009
852119
852460
851819
850967
851566
851086
851183
855789
856059
860456
861947
863305
863065
863741
859940
863497
860073
857764
854467
848931
840181
839587
832541
830993
829604
832059
829385
834662
836017
837170
838590
838138
837661
836104
834435
831602
830350
827065
824934
822157
821424
817961
818778
815652
815861
812430
813840
810896
812229