/*--------------------------------*- C++ -*----------------------------------*\
| =========                 |                                                 |
| \\      /  F ield         | OpenFOAM: The Open Source CFD Toolbox           |
|  \\    /   O peration     | Version:  2.1.1                                 |
|   \\  /    A nd           | Web:      www.OpenFOAM.org                      |
|    \\/     M anipulation  |                                                 |
\*---------------------------------------------------------------------------*/
FoamFile
{
    version     2.0;
    format      ascii;
    class       volScalarField;
    location    "0.004700000";
    object      HO2;
}
// * * * * * * * * * * * * * * * * * * * * * * * * * * * * * * * * * * * * * //

dimensions      [0 0 0 0 0 0 0];

internalField   nonuniform List<scalar> 
12384
(
3.60401e-06
3.74586e-06
3.80021e-06
4.6159e-06
4.56791e-06
4.60338e-06
3.81721e-06
3.4357e-06
3.06715e-06
3.21949e-06
3.30386e-06
4.85234e-06
1.3424e-05
1.21119e-05
7.8012e-06
8.34197e-06
7.9096e-06
7.30646e-06
7.03628e-06
7.02152e-06
7.07628e-06
7.06977e-06
7.3447e-06
7.55306e-06
7.59793e-06
7.79042e-06
7.94468e-06
7.93175e-06
8.04455e-06
8.08004e-06
8.09071e-06
8.11522e-06
8.0974e-06
8.07073e-06
7.98024e-06
7.98646e-06
8.0355e-06
8.04782e-06
8.26516e-06
9.54091e-06
9.00786e-06
8.32716e-06
8.79526e-06
8.52594e-06
1.4694e-06
8.5465e-07
8.47164e-07
9.8295e-07
1.16699e-06
1.40968e-06
1.73722e-06
2.13999e-06
3.05315e-06
3.26773e-06
2.78601e-06
1.85911e-06
1.28214e-06
1.03727e-06
8.42057e-07
8.38499e-07
8.3425e-07
8.65725e-07
1.16382e-06
1.09356e-06
1.33057e-06
1.41411e-06
1.47935e-06
1.70695e-06
1.98764e-06
3.16797e-06
3.89697e-06
4.67682e-06
7.46983e-06
7.64616e-06
6.54467e-07
3.62633e-07
5.77313e-07
8.59141e-07
1.02813e-06
1.23664e-06
1.33813e-06
1.55942e-06
1.71851e-06
2.37317e-06
2.75324e-06
3.04015e-06
3.30152e-06
3.39522e-06
3.45025e-06
3.42376e-06
3.29951e-06
3.08363e-06
2.85143e-06
2.64721e-06
2.49122e-06
2.41649e-06
2.30466e-06
2.51814e-06
2.68651e-06
2.72632e-06
2.35548e-06
4.08461e-06
5.25159e-06
4.81155e-06
1.10386e-06
2.41956e-07
2.06608e-07
1.70071e-07
1.45292e-07
1.74474e-07
2.14762e-07
2.53706e-07
2.8555e-07
2.99529e-07
3.17339e-07
2.9842e-07
4.86872e-07
3.95823e-07
8.59399e-07
6.19528e-07
8.81279e-07
7.27939e-07
9.07248e-07
9.17792e-07
1.03825e-06
1.2029e-06
1.29616e-06
1.45768e-06
1.33749e-06
1.18019e-06
3.9819e-06
6.4506e-06
5.96069e-06
5.73223e-06
1.27467e-06
2.6262e-07
5.21496e-07
1.43206e-06
1.09737e-06
5.80525e-07
4.56847e-07
3.55801e-07
2.63449e-07
2.79858e-07
2.59683e-07
2.64165e-07
2.27183e-07
2.27475e-07
2.24976e-07
2.10661e-07
2.11722e-07
1.88883e-07
1.98451e-07
1.79972e-07
1.84977e-07
1.67619e-07
1.70735e-07
1.78523e-07
1.79202e-07
1.6911e-07
2.15832e-07
8.4258e-07
2.68899e-06
4.30626e-06
2.15333e-06
6.60847e-07
9.76919e-08
1.11719e-07
8.83278e-07
1.48361e-06
1.5044e-06
1.47775e-06
1.71264e-06
2.591e-06
3.3424e-06
4.22756e-06
4.53999e-06
4.6647e-06
4.63191e-06
4.5267e-06
4.33186e-06
3.68752e-06
3.39395e-06
3.19765e-06
3.01415e-06
3.02736e-06
3.02794e-06
3.14863e-06
3.31048e-06
3.50994e-06
3.83979e-06
4.661e-06
4.17605e-06
3.65937e-06
9.64897e-06
7.74219e-06
2.05254e-07
1.59929e-07
1.662e-07
1.87553e-07
1.96853e-07
1.73604e-07
1.78401e-07
2.14166e-07
1.80885e-07
1.89926e-07
2.09728e-07
1.85244e-07
2.07326e-07
2.0982e-07
2.02477e-07
2.26315e-07
2.22149e-07
2.29794e-07
2.20247e-07
2.2648e-07
2.05498e-07
1.99273e-07
2.02818e-07
1.57288e-07
1.3734e-07
1.41827e-07
2.63442e-07
5.07613e-07
8.25086e-06
9.65771e-06
2.18865e-08
1.92296e-08
2.82767e-08
4.30214e-08
4.59852e-08
4.33182e-08
4.27554e-08
4.7664e-08
3.77776e-08
4.81268e-08
3.9656e-08
3.56598e-08
2.97032e-08
2.39418e-08
2.12271e-08
2.24043e-08
2.01943e-08
1.88742e-08
2.09182e-08
1.74025e-08
1.58796e-08
1.42788e-08
1.15568e-08
6.24865e-09
4.8247e-09
1.98048e-09
2.13884e-09
4.6901e-09
9.69653e-06
6.42218e-06
3.57643e-06
3.31789e-06
2.63199e-06
1.47087e-06
3.24211e-07
1.07346e-07
4.22257e-08
3.11972e-08
2.79192e-08
2.0171e-08
2.43998e-08
1.87762e-08
2.25861e-08
2.10763e-08
2.52833e-08
2.46342e-08
3.01183e-08
3.06129e-08
3.4439e-08
3.8058e-08
2.75489e-08
2.65182e-08
3.5522e-08
2.64163e-08
4.66633e-08
7.42385e-08
1.00584e-07
8.8044e-08
5.65291e-07
1.68933e-08
8.90911e-09
6.03243e-09
5.43569e-09
5.51231e-09
6.54784e-09
6.83039e-09
6.2776e-09
5.63071e-09
4.93138e-09
4.90272e-09
5.26014e-09
4.64846e-09
5.56184e-09
5.01492e-09
3.8239e-09
5.23229e-09
8.86419e-09
1.06939e-08
1.14465e-08
1.76442e-08
2.16477e-08
2.737e-08
3.92565e-08
5.93708e-08
3.43072e-08
3.08607e-08
3.2844e-08
3.55004e-08
6.31845e-06
1.73244e-07
5.48635e-09
4.398e-09
7.67844e-09
1.3015e-08
2.25628e-08
2.98946e-08
3.97174e-08
4.28601e-08
5.8069e-08
5.49177e-08
5.4463e-08
4.98238e-08
4.20027e-08
3.70659e-08
2.80242e-08
1.94134e-08
1.40458e-08
1.57994e-08
1.4826e-08
1.32638e-08
1.44183e-08
1.43125e-08
1.42396e-08
1.78866e-08
1.9333e-08
2.90499e-08
4.7774e-06
3.32726e-06
2.01063e-06
1.96202e-06
2.62665e-06
3.86893e-06
5.71172e-06
6.96613e-09
9.60828e-10
6.14374e-10
5.06493e-10
4.57709e-10
4.18474e-10
3.79865e-10
4.06661e-10
4.00605e-10
4.63509e-10
5.29633e-10
6.16615e-10
7.10036e-10
7.34359e-10
1.39431e-09
2.01101e-09
3.4762e-09
5.37817e-09
1.0227e-08
3.04863e-08
2.19186e-07
6.33759e-06
4.91465e-06
2.95354e-06
3.22089e-06
7.96875e-06
1.05358e-05
1.249e-05
1.28956e-05
1.35945e-05
1.25446e-05
1.22459e-05
9.73891e-06
6.73433e-06
4.01652e-06
3.20855e-06
4.24627e-06
8.8262e-06
1.40322e-05
7.6793e-06
7.67495e-06
6.74032e-06
6.42631e-06
6.72517e-06
6.90308e-06
7.20575e-06
7.45853e-06
7.55522e-06
7.68523e-06
8.03062e-06
8.1565e-06
8.34137e-06
8.62846e-06
8.72763e-06
8.9306e-06
9.01385e-06
8.97192e-06
8.88256e-06
8.74627e-06
8.61086e-06
8.48915e-06
8.4307e-06
8.39062e-06
8.3401e-06
9.01604e-06
9.89871e-06
9.27841e-06
8.89493e-06
8.80406e-06
1.49863e-06
8.85373e-07
1.0933e-06
1.47725e-06
1.8321e-06
2.82234e-06
3.97907e-06
4.26687e-06
2.89331e-06
1.21017e-06
2.9536e-07
2.10634e-07
1.85641e-07
1.92862e-07
2.44401e-07
3.10071e-07
7.34226e-07
1.20153e-06
1.55423e-06
1.66399e-06
1.681e-06
1.58638e-06
1.50106e-06
1.47533e-06
1.65724e-06
2.11634e-06
3.43019e-06
4.2249e-06
5.05156e-06
7.79403e-06
6.09597e-07
3.3962e-07
8.59069e-07
1.19651e-06
1.41367e-06
1.62547e-06
2.65578e-06
3.18505e-06
4.00157e-06
4.26031e-06
4.52286e-06
4.48687e-06
4.40352e-06
4.18262e-06
3.63031e-06
3.21745e-06
2.76334e-06
2.35991e-06
2.02969e-06
1.5514e-06
1.53743e-06
1.86491e-06
1.93649e-06
2.16311e-06
2.52939e-06
2.81352e-06
2.32136e-06
3.18263e-06
4.16662e-06
4.36535e-06
1.32019e-06
2.44239e-07
1.30453e-07
8.98083e-08
8.40877e-08
1.51222e-07
3.0892e-07
4.63596e-07
1.2338e-06
1.70818e-06
2.01067e-06
2.23318e-06
2.2134e-06
2.24919e-06
2.24018e-06
2.44863e-06
2.40584e-06
2.60131e-06
2.6253e-06
2.66866e-06
2.71001e-06
2.86203e-06
3.02973e-06
3.14027e-06
2.61399e-06
1.49354e-06
2.2584e-06
5.24844e-06
5.83543e-06
5.19633e-06
1.19095e-06
3.62027e-07
9.5462e-07
5.53529e-07
3.2262e-07
2.19703e-07
2.26058e-07
2.41688e-07
2.40083e-07
2.00172e-07
1.66052e-07
1.50734e-07
1.66281e-07
1.68941e-07
1.75727e-07
1.72832e-07
1.69042e-07
1.74926e-07
1.64558e-07
1.70531e-07
1.64369e-07
1.80339e-07
1.78038e-07
1.8568e-07
1.9298e-07
1.79696e-07
1.64652e-07
3.30914e-07
1.08685e-06
2.16282e-06
1.65814e-06
1.93978e-07
8.64452e-08
3.4116e-07
9.11765e-07
7.57695e-07
8.78949e-07
2.22701e-06
4.75128e-06
5.91727e-06
6.30562e-06
6.33366e-06
6.35228e-06
6.34341e-06
6.1998e-06
5.75093e-06
4.75029e-06
3.45371e-06
2.68536e-06
2.18539e-06
1.51262e-06
1.43161e-06
1.43633e-06
1.47528e-06
2.29641e-06
2.96602e-06
3.51712e-06
4.59403e-06
4.73193e-06
3.764e-06
8.313e-06
9.94233e-07
1.65377e-07
1.37505e-07
1.38515e-07
1.20028e-07
1.43269e-07
2.1509e-07
2.65384e-07
2.83014e-07
5.33238e-07
7.39539e-07
8.73382e-07
7.12922e-07
6.77708e-07
6.25799e-07
5.91569e-07
7.02867e-07
6.14803e-07
7.47114e-07
6.86225e-07
4.11483e-07
3.6835e-07
3.46339e-07
2.9206e-07
2.48601e-07
1.92667e-07
1.61553e-07
2.32936e-07
5.13073e-07
6.17116e-06
1.25878e-07
2.41208e-08
4.54567e-08
5.76123e-08
3.67032e-08
6.08075e-08
8.12132e-08
1.20336e-07
1.72466e-07
2.0845e-07
2.2375e-07
2.29841e-07
2.11832e-07
1.81704e-07
1.63992e-07
1.10945e-07
1.06104e-07
8.656e-08
8.17195e-08
5.83647e-08
2.7162e-08
3.4057e-08
2.22807e-08
1.47808e-08
1.06508e-08
6.26144e-09
3.89668e-09
2.84918e-09
4.41921e-09
7.43086e-06
5.00554e-06
4.48421e-06
3.12744e-06
5.97971e-07
9.6435e-08
2.62029e-08
1.74687e-08
2.17727e-08
2.54488e-08
3.87857e-08
4.84249e-08
7.75168e-08
6.62487e-08
1.46025e-07
1.91794e-07
2.34382e-07
2.51728e-07
2.7351e-07
2.55289e-07
1.93657e-07
8.99929e-08
6.63999e-08
4.28287e-08
3.77938e-08
3.74723e-08
3.81639e-08
5.20531e-08
9.46805e-08
1.1167e-07
1.17877e-07
1.56389e-08
9.54226e-09
6.59222e-09
5.45062e-09
5.36024e-09
4.63054e-09
3.13043e-09
2.51235e-09
2.81917e-09
4.43265e-09
5.11123e-09
6.34697e-09
1.03949e-08
1.40196e-08
2.11303e-08
3.01469e-08
3.6857e-08
4.0132e-08
4.2873e-08
4.19378e-08
3.96639e-08
3.9404e-08
3.75749e-08
3.07627e-08
5.57711e-08
3.95546e-08
3.57158e-08
1.98504e-08
1.59902e-08
8.59613e-08
1.01984e-08
5.32461e-09
1.0454e-08
2.63876e-08
5.28126e-08
1.09915e-07
3.58248e-07
1.25833e-06
1.43709e-06
2.48635e-06
1.36439e-06
1.4436e-06
1.01122e-06
9.8427e-07
4.8604e-07
1.601e-07
6.46688e-08
3.42835e-08
1.71186e-08
1.18645e-08
1.06913e-08
9.96477e-09
8.5915e-09
1.38665e-08
1.63174e-08
1.80559e-08
2.47143e-08
1.22926e-06
5.30384e-06
1.94143e-06
2.60296e-06
4.96043e-06
7.37599e-07
5.14816e-09
1.01086e-09
5.63473e-10
4.47411e-10
3.88832e-10
3.43888e-10
3.35963e-10
3.50246e-10
3.59771e-10
3.7786e-10
3.87474e-10
4.25905e-10
4.59228e-10
4.81406e-10
3.98358e-10
6.59941e-10
8.33667e-10
1.42898e-09
2.35994e-09
2.66922e-09
3.68125e-09
4.42564e-09
2.3212e-08
4.54161e-06
4.06702e-06
3.14676e-06
1.36742e-05
1.45711e-05
1.45473e-05
1.43271e-05
1.39862e-05
1.38121e-05
1.35182e-05
1.33891e-05
1.21508e-05
7.55749e-06
4.09038e-06
3.779e-06
7.11763e-06
1.4074e-05
7.42398e-06
6.80814e-06
6.40257e-06
6.75428e-06
7.13407e-06
6.90384e-06
7.04155e-06
7.27225e-06
7.55266e-06
7.73915e-06
8.05241e-06
8.52127e-06
8.97409e-06
9.61277e-06
1.02792e-05
1.07192e-05
1.09932e-05
1.09657e-05
1.06305e-05
1.02298e-05
9.70517e-06
9.21379e-06
8.97814e-06
8.79825e-06
8.66786e-06
8.91287e-06
9.84282e-06
1.05017e-05
1.02936e-05
9.32039e-06
1.49709e-06
1.05607e-06
1.80734e-06
3.65087e-06
4.92974e-06
5.07585e-06
3.75097e-06
1.53881e-06
2.89705e-07
1.04306e-07
9.23299e-08
1.15375e-07
1.92476e-07
2.61822e-07
5.23413e-07
1.41413e-06
2.98889e-06
4.49574e-06
5.17115e-06
5.16391e-06
4.9847e-06
4.39395e-06
3.2784e-06
1.92802e-06
1.72464e-06
1.91101e-06
2.86959e-06
3.90995e-06
4.0574e-06
6.76073e-06
5.71485e-07
4.44168e-07
1.11715e-06
1.43198e-06
1.50894e-06
2.35559e-06
2.9402e-06
3.28302e-06
4.07304e-06
4.30178e-06
4.51051e-06
4.34337e-06
3.95352e-06
2.97871e-06
2.29413e-06
1.56859e-06
1.44705e-06
1.32631e-06
1.24499e-06
1.16497e-06
1.12429e-06
1.13917e-06
1.23727e-06
1.41274e-06
1.657e-06
2.45887e-06
2.60412e-06
2.43711e-06
3.47028e-06
4.00985e-06
1.66433e-06
4.17958e-07
8.55755e-08
8.27131e-08
1.04299e-07
2.5694e-07
6.40688e-07
1.7478e-06
2.53619e-06
3.51986e-06
3.81538e-06
3.9561e-06
3.71336e-06
3.36995e-06
2.87755e-06
2.64585e-06
2.75901e-06
3.03504e-06
3.41681e-06
3.70854e-06
3.9603e-06
4.08976e-06
4.38483e-06
4.8212e-06
4.23041e-06
2.86759e-06
1.748e-06
3.56003e-06
5.42584e-06
5.31199e-06
1.11767e-06
4.52095e-07
5.28124e-07
2.52019e-07
1.94953e-07
2.04002e-07
2.16364e-07
1.88114e-07
1.38086e-07
9.95887e-08
1.10123e-07
1.30674e-07
1.57699e-07
1.65677e-07
1.73395e-07
1.59107e-07
1.56285e-07
1.44881e-07
1.42271e-07
1.31633e-07
1.52331e-07
1.52953e-07
1.63569e-07
1.90239e-07
2.01206e-07
1.94932e-07
1.68285e-07
2.16903e-07
3.9049e-07
1.40896e-06
1.06726e-06
1.73771e-07
2.54246e-07
5.01271e-07
3.34195e-07
3.12823e-07
1.38903e-06
3.61077e-06
5.60024e-06
6.23335e-06
6.31786e-06
6.27091e-06
6.25003e-06
6.33146e-06
5.9783e-06
4.74646e-06
3.30552e-06
2.7077e-06
2.68678e-06
2.76608e-06
2.96174e-06
2.75567e-06
2.38472e-06
1.50478e-06
1.46129e-06
2.26952e-06
3.24617e-06
4.41237e-06
4.91105e-06
4.31407e-06
2.38088e-06
2.15792e-07
1.15974e-07
9.47907e-08
6.5197e-08
9.18262e-08
1.00419e-07
2.87361e-07
5.40614e-07
1.01194e-06
1.14422e-06
9.4366e-07
5.87417e-07
2.46972e-07
2.18961e-07
1.96652e-07
1.91715e-07
2.17112e-07
2.4637e-07
3.31783e-07
4.63819e-07
6.90572e-07
7.83309e-07
4.69157e-07
4.86038e-07
4.27489e-07
3.63409e-07
2.19612e-07
2.03147e-07
5.13564e-07
2.00221e-07
4.06658e-08
4.49466e-08
5.24415e-08
4.97172e-08
7.1818e-08
1.55217e-07
3.30413e-07
5.5267e-07
6.6888e-07
6.44844e-07
6.22427e-07
5.06314e-07
4.90304e-07
3.58676e-07
3.93965e-07
2.97587e-07
2.91277e-07
3.13879e-07
2.86005e-07
1.86781e-07
1.43432e-07
9.16179e-08
4.35757e-08
2.51086e-08
1.47426e-08
8.25493e-09
5.75649e-09
3.63325e-09
4.08946e-09
6.11018e-06
5.51644e-06
3.98788e-06
3.78928e-07
2.47309e-08
1.31116e-08
1.51454e-08
3.98711e-08
6.06018e-08
1.42763e-07
2.49805e-07
3.62535e-07
7.44319e-07
1.17459e-06
1.66064e-06
1.88086e-06
3.00867e-06
3.62207e-06
3.65817e-06
3.67753e-06
2.77629e-06
1.30775e-06
2.51435e-07
8.7793e-08
5.47264e-08
3.72718e-08
3.759e-08
4.59682e-08
7.53452e-08
1.04147e-07
5.59226e-08
1.90439e-08
1.03547e-08
7.7317e-09
6.04452e-09
3.01434e-09
2.71815e-09
2.63888e-09
4.73372e-09
7.70578e-09
1.64045e-08
3.18858e-08
6.47497e-08
1.41976e-07
2.03147e-07
5.09961e-07
7.15409e-07
8.34066e-07
9.17899e-07
8.62029e-07
7.92653e-07
5.81038e-07
1.8888e-07
1.10445e-07
6.17455e-08
6.26881e-08
5.94253e-08
4.26404e-08
2.54985e-08
1.36909e-08
9.36526e-09
5.79391e-09
1.29015e-08
4.71377e-08
1.59393e-07
1.25902e-06
4.47907e-06
5.41614e-06
5.55864e-06
4.91891e-06
3.54404e-06
2.5162e-06
1.58095e-06
1.34804e-06
1.20282e-06
8.09247e-07
1.6094e-07
3.50123e-08
1.15861e-08
6.42864e-09
4.59894e-09
3.88465e-09
5.45886e-09
7.30738e-09
8.05239e-09
1.59772e-08
2.03651e-08
2.40221e-08
6.09276e-08
6.48283e-06
2.17064e-06
3.7989e-06
2.69933e-06
4.47393e-09
8.69128e-10
5.28473e-10
4.1474e-10
3.99886e-10
2.85862e-10
3.14446e-10
4.45862e-10
5.94711e-10
7.73391e-10
8.64223e-10
9.3731e-10
9.78088e-10
9.29622e-10
8.98308e-10
8.4872e-10
8.62983e-10
1.01836e-09
2.44906e-09
1.52777e-08
4.26392e-08
4.29422e-08
1.85537e-08
1.51024e-08
9.89828e-08
6.22312e-06
3.38471e-06
1.45464e-05
1.48606e-05
1.42456e-05
1.21309e-05
9.15924e-06
1.02508e-05
1.19322e-05
1.33458e-05
1.3162e-05
1.1344e-05
6.33496e-06
4.13269e-06
6.40808e-06
1.3656e-05
7.13932e-06
6.67905e-06
6.68955e-06
6.57143e-06
6.41213e-06
6.44204e-06
6.71398e-06
6.93809e-06
7.46656e-06
8.00257e-06
8.40775e-06
8.97669e-06
1.00232e-05
1.10155e-05
1.17517e-05
1.22437e-05
1.21025e-05
1.19094e-05
1.16652e-05
1.12771e-05
1.0942e-05
1.04246e-05
9.81144e-06
9.45586e-06
9.11284e-06
9.0467e-06
9.73076e-06
1.09049e-05
1.15088e-05
9.99699e-06
1.4419e-06
1.38174e-06
3.68945e-06
5.2846e-06
5.40137e-06
3.87071e-06
1.19851e-06
1.96554e-07
8.75791e-08
8.84749e-08
1.75347e-07
2.8762e-07
3.12898e-07
6.49496e-07
1.54364e-06
3.74601e-06
5.63307e-06
6.02115e-06
6.08489e-06
5.77319e-06
5.58982e-06
5.21667e-06
4.59022e-06
3.3139e-06
1.95675e-06
1.86161e-06
2.27684e-06
3.62923e-06
3.88424e-06
5.76927e-06
5.48504e-07
6.17446e-07
1.24091e-06
1.37541e-06
1.31914e-06
1.26632e-06
1.18109e-06
1.32047e-06
1.89033e-06
2.88331e-06
3.41027e-06
3.48313e-06
2.96755e-06
2.16627e-06
1.47714e-06
1.31624e-06
1.26006e-06
1.35907e-06
1.45341e-06
1.46737e-06
1.33691e-06
1.19633e-06
1.11805e-06
1.17517e-06
1.3933e-06
1.72584e-06
2.42772e-06
2.2967e-06
3.00692e-06
3.71449e-06
2.78933e-06
6.73346e-07
8.70712e-08
9.08713e-08
1.11313e-07
2.9674e-07
7.1976e-07
1.80275e-06
2.54982e-06
2.91805e-06
2.99127e-06
2.84732e-06
2.88532e-06
2.46081e-06
2.49161e-06
2.18988e-06
2.26497e-06
1.97954e-06
2.18725e-06
2.27801e-06
2.58008e-06
3.37246e-06
4.27451e-06
5.17772e-06
5.47099e-06
4.16383e-06
2.53889e-06
2.8214e-06
4.46482e-06
4.74637e-06
1.14209e-06
4.85062e-07
3.85622e-07
1.81461e-07
1.67733e-07
1.757e-07
1.50495e-07
1.11952e-07
8.18997e-08
7.92755e-08
1.01908e-07
1.51201e-07
1.64853e-07
1.59e-07
1.38954e-07
1.34392e-07
1.39507e-07
1.62791e-07
1.78466e-07
1.82826e-07
1.6119e-07
1.68886e-07
1.52272e-07
1.71019e-07
1.9096e-07
2.01684e-07
1.74187e-07
1.27347e-07
2.58472e-07
8.66921e-07
6.48436e-07
1.80688e-07
2.97391e-07
2.86958e-07
1.80221e-07
2.55659e-07
5.7774e-07
9.88921e-07
1.64221e-06
4.62463e-06
6.08351e-06
6.31137e-06
6.2359e-06
6.30704e-06
5.90844e-06
4.7537e-06
4.34229e-06
4.89944e-06
5.60944e-06
5.77778e-06
5.7995e-06
5.73274e-06
5.62527e-06
5.14912e-06
4.23577e-06
3.31933e-06
3.58966e-06
4.46474e-06
5.05014e-06
4.32233e-06
7.97571e-07
1.13579e-07
5.85311e-08
4.3054e-08
4.61573e-08
7.88113e-08
1.85813e-07
3.37185e-07
9.58972e-07
9.61702e-07
5.22255e-07
1.44265e-07
6.83843e-08
6.30625e-08
6.48511e-08
7.27481e-08
8.37551e-08
8.01807e-08
9.39937e-08
9.87075e-08
1.76096e-07
2.82936e-07
3.75232e-07
4.87351e-07
5.27819e-07
5.66911e-07
4.78275e-07
3.64709e-07
3.19495e-07
5.77202e-07
7.81874e-08
3.74189e-08
4.26248e-08
4.36692e-08
8.18073e-08
2.40263e-07
5.89428e-07
8.65983e-07
9.06389e-07
8.861e-07
7.27685e-07
1.17316e-06
1.20491e-06
1.25889e-06
1.13702e-06
9.03786e-07
5.79783e-07
3.71718e-07
3.72778e-07
3.84137e-07
4.49408e-07
3.58841e-07
1.7497e-07
1.04941e-07
4.20515e-08
1.84868e-08
1.05126e-08
6.22367e-09
5.7796e-09
5.1052e-09
6.29253e-06
5.47319e-06
1.08771e-06
2.299e-08
1.20771e-08
2.56436e-08
6.74867e-08
1.90972e-07
3.4135e-07
4.81789e-07
1.0273e-06
1.50711e-06
2.0433e-06
3.09244e-06
4.01044e-06
4.62514e-06
4.94765e-06
5.00448e-06
5.50456e-06
5.47447e-06
5.7028e-06
4.86885e-06
2.29064e-06
4.02767e-07
7.83461e-08
5.36832e-08
3.96756e-08
4.92155e-08
6.39888e-08
9.99933e-08
6.53374e-08
2.686e-08
2.10622e-08
8.74423e-09
3.85753e-09
2.87625e-09
3.05368e-09
8.17648e-09
1.82986e-08
4.81893e-08
1.06148e-07
3.26202e-07
7.1417e-07
9.82478e-07
9.48151e-07
1.06041e-06
1.07157e-06
1.12034e-06
1.1817e-06
1.2812e-06
1.36616e-06
1.43145e-06
1.27873e-06
8.36315e-07
1.77043e-07
1.02855e-07
7.7449e-08
7.16074e-08
3.61369e-08
1.08372e-08
8.49971e-09
1.15193e-08
4.78964e-08
3.6875e-07
2.97768e-06
5.31194e-06
5.6116e-06
3.79034e-06
1.40966e-06
3.2094e-07
2.32169e-07
1.95838e-07
2.14528e-07
2.17258e-07
3.87991e-07
1.61673e-07
4.04596e-08
7.24447e-09
3.30239e-09
2.54365e-09
2.76227e-09
3.74544e-09
5.64492e-09
7.89482e-09
1.59883e-08
2.18677e-08
2.52884e-08
1.67659e-08
4.1899e-08
4.23297e-06
2.35905e-06
5.95875e-06
1.22865e-08
9.15864e-10
4.95825e-10
4.23744e-10
4.41741e-10
3.47761e-10
4.59096e-10
7.03678e-10
7.92114e-10
1.55977e-09
2.10645e-09
2.45641e-09
2.46735e-09
2.22853e-09
1.6974e-09
1.27557e-09
9.33943e-10
7.94478e-10
8.40024e-10
1.24428e-09
1.05807e-08
1.92631e-07
2.54467e-07
5.18531e-08
1.36544e-08
4.37347e-08
7.00621e-06
3.40936e-06
1.47574e-05
1.48275e-05
1.20246e-05
7.03665e-06
5.45164e-06
7.67473e-06
1.02596e-05
1.27872e-05
1.32468e-05
1.27711e-05
8.05776e-06
4.83226e-06
6.3757e-06
1.24239e-05
7.09073e-06
6.64102e-06
6.28671e-06
5.73467e-06
5.78785e-06
5.57051e-06
5.37458e-06
6.03958e-06
7.28853e-06
8.10421e-06
8.63875e-06
9.35577e-06
1.0564e-05
1.17444e-05
1.22293e-05
1.23318e-05
1.24855e-05
1.22871e-05
1.21072e-05
1.16776e-05
1.1181e-05
1.08821e-05
1.07104e-05
1.01168e-05
9.62978e-06
9.33655e-06
9.74959e-06
1.116e-05
1.20524e-05
1.0326e-05
1.4838e-06
1.68159e-06
4.40303e-06
5.10708e-06
3.95497e-06
1.30056e-06
1.95088e-07
8.37797e-08
8.20478e-08
1.76907e-07
3.48886e-07
8.64527e-07
7.20953e-07
1.21054e-06
3.00262e-06
5.61459e-06
6.34364e-06
6.18778e-06
6.06223e-06
5.58512e-06
5.21906e-06
4.72811e-06
4.39624e-06
3.45309e-06
2.37187e-06
1.853e-06
2.1833e-06
3.4569e-06
3.78263e-06
5.39291e-06
5.16763e-07
7.35111e-07
1.22035e-06
1.13264e-06
7.89149e-07
2.15561e-07
1.85715e-07
1.99634e-07
3.36294e-07
1.02852e-06
1.97422e-06
2.70076e-06
2.49166e-06
1.57847e-06
1.41051e-06
1.29802e-06
1.46202e-06
1.83872e-06
2.82868e-06
3.1725e-06
2.94517e-06
1.9214e-06
1.53726e-06
1.22545e-06
1.22531e-06
1.52356e-06
1.89008e-06
2.57642e-06
2.43532e-06
3.51347e-06
3.74633e-06
6.87647e-07
8.96706e-08
9.98291e-08
1.37177e-07
2.48301e-07
3.98459e-07
1.18424e-06
1.86584e-06
2.20373e-06
2.39125e-06
2.40006e-06
2.37701e-06
2.11733e-06
2.31663e-06
1.86094e-06
2.01133e-06
1.62812e-06
1.79341e-06
1.62612e-06
1.93047e-06
2.25976e-06
2.82359e-06
4.51753e-06
5.69142e-06
5.30224e-06
3.21536e-06
2.56221e-06
3.79857e-06
4.54716e-06
1.12328e-06
4.60122e-07
2.39564e-07
1.56482e-07
1.40656e-07
1.37972e-07
9.60485e-08
8.42493e-08
8.36011e-08
7.20008e-08
1.31637e-07
1.60319e-07
1.57605e-07
1.29874e-07
9.0779e-08
1.12573e-07
1.69268e-07
1.89823e-07
2.17078e-07
1.94852e-07
1.98524e-07
1.64198e-07
1.65569e-07
1.77823e-07
1.95593e-07
2.00681e-07
1.86171e-07
1.5278e-07
1.88941e-07
4.99671e-07
3.41572e-07
2.16573e-07
2.71402e-07
1.26235e-07
9.57068e-08
9.97822e-08
9.63519e-08
1.07865e-07
2.55006e-07
1.19235e-06
4.64806e-06
6.2511e-06
6.20108e-06
6.22941e-06
6.23546e-06
5.85586e-06
5.88153e-06
6.07762e-06
6.09001e-06
5.98141e-06
5.78245e-06
5.72449e-06
5.73004e-06
5.87561e-06
5.79597e-06
5.17304e-06
4.59017e-06
4.7616e-06
5.12023e-06
4.40927e-06
2.97428e-07
5.22885e-08
3.18463e-08
2.1127e-08
3.67682e-08
7.76752e-08
1.91632e-07
2.9381e-07
3.43481e-07
2.01493e-07
6.08291e-08
2.31901e-08
2.06506e-08
2.37281e-08
4.14347e-08
7.02586e-08
7.11855e-08
7.84259e-08
6.86763e-08
7.1384e-08
7.83357e-08
9.58851e-08
2.34414e-07
3.79834e-07
5.14388e-07
5.24287e-07
5.84085e-07
5.04682e-07
4.09578e-07
6.74553e-07
5.82662e-08
3.0423e-08
3.43412e-08
5.61651e-08
2.15395e-07
6.03749e-07
8.69848e-07
9.40221e-07
1.31832e-06
1.69511e-06
2.06404e-06
3.40116e-06
4.111e-06
5.10354e-06
4.65524e-06
3.59116e-06
2.26552e-06
1.32639e-06
7.94118e-07
7.06992e-07
5.45684e-07
5.54091e-07
4.41438e-07
1.72908e-07
5.2795e-08
2.11609e-08
1.41112e-08
1.31839e-08
9.49915e-09
3.95917e-09
6.42473e-06
3.00121e-06
8.41115e-08
1.15197e-08
2.50584e-08
1.0133e-07
2.47625e-07
4.87221e-07
5.8989e-07
1.29941e-06
1.95329e-06
3.14449e-06
4.17211e-06
4.88232e-06
4.97355e-06
4.60248e-06
3.82366e-06
3.76197e-06
3.65434e-06
4.61211e-06
5.48372e-06
6.04509e-06
4.8072e-06
1.3832e-06
1.741e-07
6.39959e-08
5.38373e-08
5.99796e-08
6.78148e-08
1.00778e-07
7.13868e-08
4.94106e-08
2.34421e-08
4.48965e-09
2.6232e-09
4.13697e-09
1.15687e-08
2.76374e-08
6.28765e-08
1.42451e-07
3.97145e-07
5.97451e-07
4.72182e-07
3.57538e-07
3.76836e-07
4.43334e-07
6.52986e-07
8.10872e-07
9.94925e-07
1.14772e-06
1.29507e-06
1.43317e-06
1.97518e-06
1.52311e-06
1.03818e-06
1.92266e-07
1.15763e-07
8.86166e-08
5.01635e-08
1.49883e-08
9.09004e-09
2.45622e-08
2.10769e-07
2.52365e-06
4.5803e-06
3.29304e-06
9.49978e-07
1.10467e-07
7.09229e-08
4.01838e-08
3.92974e-08
5.00663e-08
6.49513e-08
4.70237e-08
1.01602e-07
5.41989e-08
1.80404e-08
3.17167e-09
1.67601e-09
2.5561e-09
4.85575e-09
1.45803e-08
3.50045e-08
5.60614e-08
5.50027e-08
6.08246e-08
4.4949e-08
3.57758e-08
2.73184e-08
2.19325e-06
2.75667e-06
5.78035e-06
3.59345e-09
4.64491e-10
4.47916e-10
4.8191e-10
5.57426e-10
5.76791e-10
8.5484e-10
1.46241e-09
2.26283e-09
4.87829e-09
7.75142e-09
9.55596e-09
9.32294e-09
7.25247e-09
4.47139e-09
2.65297e-09
1.28901e-09
9.61988e-10
7.71091e-10
8.22696e-10
1.6088e-09
2.77331e-08
8.31989e-07
1.03711e-07
3.27672e-08
5.44544e-08
7.43145e-06
3.64784e-06
1.4819e-05
1.41746e-05
7.82505e-06
4.37195e-06
4.89633e-06
8.24962e-06
1.21762e-05
1.36061e-05
1.32797e-05
1.27495e-05
9.69699e-06
5.38862e-06
6.65231e-06
1.2096e-05
6.99058e-06
6.38592e-06
5.42574e-06
5.01499e-06
4.28811e-06
3.39088e-06
3.60413e-06
5.11633e-06
7.29161e-06
8.22868e-06
8.65404e-06
9.65372e-06
1.11139e-05
1.19249e-05
1.2417e-05
1.24583e-05
1.25785e-05
1.27981e-05
1.26802e-05
1.23276e-05
1.15814e-05
1.06158e-05
1.0672e-05
1.06142e-05
1.01127e-05
9.58328e-06
9.89034e-06
1.12961e-05
1.22584e-05
1.05249e-05
1.49691e-06
1.77048e-06
3.7022e-06
3.45626e-06
1.4286e-06
2.6211e-07
8.92762e-08
7.51991e-08
7.94452e-08
3.50572e-07
1.51228e-06
1.45917e-06
9.9416e-07
1.57854e-06
4.61966e-06
6.32346e-06
6.5307e-06
6.19098e-06
5.78019e-06
5.07853e-06
4.4644e-06
3.63136e-06
3.22974e-06
2.76343e-06
1.92997e-06
1.8506e-06
2.13851e-06
3.45602e-06
3.71543e-06
5.23691e-06
4.78558e-07
7.40492e-07
1.15955e-06
7.95422e-07
2.00066e-07
7.03556e-08
4.60171e-08
4.95088e-08
6.55518e-08
1.75556e-07
6.6036e-07
1.50473e-06
2.10163e-06
1.56093e-06
1.37245e-06
1.31118e-06
1.6976e-06
3.44944e-06
4.89782e-06
5.28505e-06
5.1091e-06
4.35519e-06
2.89678e-06
1.5615e-06
1.24846e-06
1.40917e-06
1.80148e-06
2.56133e-06
2.35557e-06
3.35666e-06
4.55995e-06
2.82536e-07
9.63665e-08
1.10424e-07
1.27113e-07
1.90115e-07
3.09399e-07
4.49217e-07
1.26971e-06
1.76282e-06
2.09861e-06
2.24212e-06
2.51463e-06
2.57018e-06
2.63076e-06
2.58396e-06
2.64076e-06
2.3428e-06
2.19243e-06
1.9112e-06
1.84409e-06
1.84404e-06
2.37586e-06
3.19214e-06
5.3842e-06
5.61861e-06
3.80009e-06
2.48887e-06
3.44633e-06
4.16474e-06
1.09401e-06
4.10374e-07
1.22143e-07
1.33159e-07
1.21691e-07
8.9613e-08
8.57767e-08
7.80764e-08
7.47402e-08
9.27926e-08
1.09408e-07
1.3482e-07
1.50184e-07
1.1626e-07
9.03545e-08
1.21602e-07
1.84176e-07
2.25554e-07
2.28693e-07
2.07078e-07
1.89153e-07
1.76964e-07
1.73604e-07
1.81767e-07
2.025e-07
2.02641e-07
1.83363e-07
1.46502e-07
1.47763e-07
4.52363e-07
3.12429e-07
2.12985e-07
1.99398e-07
7.80076e-08
4.57591e-08
3.69007e-08
3.33736e-08
4.13137e-08
6.75286e-08
2.49464e-07
1.94542e-06
6.35549e-06
6.07763e-06
5.95461e-06
6.07944e-06
6.20943e-06
6.2294e-06
6.11359e-06
5.50313e-06
4.04912e-06
2.54684e-06
1.51735e-06
2.25361e-06
4.28817e-06
5.78498e-06
5.92442e-06
5.53269e-06
5.13489e-06
5.23136e-06
4.24093e-06
1.77533e-07
3.29248e-08
1.79374e-08
1.68638e-08
3.07918e-08
5.9185e-08
1.04296e-07
2.02751e-07
1.64118e-07
5.59737e-08
1.84382e-08
7.91537e-09
6.73777e-09
8.78744e-09
2.06802e-08
4.38803e-08
4.73341e-08
2.48889e-08
2.23668e-08
2.74257e-08
3.04438e-08
6.64442e-08
9.10081e-08
2.78217e-07
3.52331e-07
4.56423e-07
5.43429e-07
5.51836e-07
5.39657e-07
8.53118e-07
5.16747e-08
3.0374e-08
4.14397e-08
1.46714e-07
3.46386e-07
5.89641e-07
9.3032e-07
1.55162e-06
2.23452e-06
2.76423e-06
5.70468e-06
7.23318e-06
7.35995e-06
7.56244e-06
6.92575e-06
6.61409e-06
5.1217e-06
3.09405e-06
1.34589e-06
1.14674e-06
1.0481e-06
1.12634e-06
5.88875e-07
2.54818e-07
7.30245e-08
2.74741e-08
2.04494e-08
3.41567e-08
1.7025e-08
5.53362e-09
6.17067e-06
4.42981e-07
2.40883e-08
2.15853e-08
1.19832e-07
2.98479e-07
4.79551e-07
6.5364e-07
1.37438e-06
2.1394e-06
4.02484e-06
5.2391e-06
5.55581e-06
4.70715e-06
3.27497e-06
1.96264e-06
1.763e-06
1.59196e-06
1.85511e-06
2.50475e-06
3.95837e-06
5.99078e-06
5.49559e-06
2.63057e-06
2.36495e-07
7.2345e-08
6.3264e-08
6.9033e-08
7.67039e-08
9.77771e-08
7.22226e-08
5.69305e-08
7.80582e-09
2.62155e-09
4.37276e-09
1.29096e-08
2.82896e-08
5.21419e-08
9.65225e-08
1.55156e-07
1.50601e-07
1.35225e-07
1.46581e-07
1.89194e-07
7.30572e-07
1.27008e-06
2.51342e-06
3.3868e-06
3.82562e-06
3.43135e-06
2.86382e-06
2.44555e-06
2.35478e-06
2.57438e-06
2.01158e-06
8.83636e-07
1.87994e-07
1.19659e-07
6.60355e-08
1.74742e-08
1.03175e-08
5.49464e-08
1.10742e-06
2.82867e-06
1.67692e-06
2.8479e-07
7.68619e-08
5.21426e-08
4.54826e-08
3.92128e-08
3.70927e-08
3.25895e-08
3.31925e-08
4.07961e-08
4.85068e-08
3.45541e-08
1.11647e-08
3.1126e-09
1.95015e-09
5.32436e-09
4.10772e-08
6.50983e-07
2.30953e-06
2.41215e-06
9.63367e-07
2.2e-07
1.01391e-07
5.27969e-08
2.06519e-08
2.35744e-06
3.0808e-06
1.14773e-06
1.58764e-09
5.27693e-10
4.93587e-10
6.07599e-10
7.02067e-10
9.31052e-10
1.78326e-09
3.58864e-09
8.74284e-09
2.17921e-08
4.00295e-08
5.80067e-08
4.30785e-08
2.78157e-08
1.41232e-08
6.07683e-09
2.51168e-09
1.23044e-09
7.83366e-10
7.72869e-10
8.00375e-10
3.27566e-09
8.64152e-07
1.99608e-07
5.32309e-08
5.92388e-08
7.43578e-06
3.32937e-06
1.51953e-05
1.30938e-05
5.03097e-06
3.48049e-06
5.40221e-06
1.10731e-05
1.41445e-05
1.39765e-05
1.33251e-05
1.22542e-05
1.01737e-05
7.3537e-06
6.83825e-06
1.16952e-05
7.05458e-06
5.87225e-06
4.7743e-06
3.85888e-06
2.75277e-06
2.21227e-06
2.76962e-06
4.95608e-06
7.77911e-06
8.41749e-06
8.72756e-06
9.81003e-06
1.14776e-05
1.20746e-05
1.22119e-05
1.2474e-05
1.24777e-05
1.26542e-05
1.28574e-05
1.25308e-05
1.19571e-05
1.06349e-05
1.04412e-05
1.06118e-05
1.02888e-05
9.82765e-06
1.01262e-05
1.14565e-05
1.21653e-05
1.03874e-05
1.54244e-06
1.68488e-06
2.25705e-06
1.44551e-06
3.16329e-07
7.65622e-08
7.54627e-08
7.72994e-08
2.24032e-07
1.72594e-06
3.28575e-06
1.75461e-06
1.11454e-06
1.93519e-06
5.61214e-06
6.67301e-06
6.48375e-06
5.88245e-06
5.40431e-06
4.60612e-06
3.33821e-06
2.28675e-06
1.79631e-06
1.79081e-06
1.75919e-06
1.8045e-06
2.21829e-06
3.58444e-06
3.76404e-06
5.22034e-06
4.20207e-07
7.60587e-07
1.08298e-06
3.61581e-07
9.71237e-08
3.48536e-08
1.82912e-08
2.07499e-08
2.63167e-08
5.39884e-08
1.21195e-07
5.97208e-07
1.44803e-06
1.5513e-06
1.37635e-06
1.35379e-06
2.32206e-06
4.57568e-06
5.73017e-06
5.89754e-06
5.79763e-06
5.23299e-06
4.12761e-06
2.03386e-06
1.37019e-06
1.41583e-06
1.78849e-06
2.60449e-06
2.70738e-06
3.27077e-06
3.29565e-06
2.13485e-07
1.05081e-07
8.5976e-08
1.07955e-07
1.60047e-07
2.20913e-07
3.43569e-07
9.46251e-07
1.56272e-06
2.01405e-06
2.60991e-06
3.00729e-06
3.09893e-06
3.24289e-06
3.30836e-06
3.06475e-06
2.84164e-06
2.61906e-06
2.25538e-06
1.99388e-06
1.91442e-06
2.05119e-06
2.94324e-06
5.02912e-06
5.91454e-06
3.98366e-06
2.58662e-06
3.18015e-06
4.00032e-06
1.01061e-06
3.57334e-07
1.43709e-07
1.0434e-07
9.33304e-08
8.25514e-08
7.40724e-08
6.77663e-08
7.51206e-08
8.10921e-08
1.03428e-07
1.44484e-07
1.40176e-07
1.00295e-07
6.57895e-08
9.16498e-08
1.43048e-07
1.92877e-07
2.21465e-07
1.97962e-07
1.81122e-07
1.9639e-07
1.86705e-07
1.94308e-07
2.15899e-07
2.08711e-07
1.77385e-07
1.42213e-07
1.06623e-07
4.23154e-07
2.72379e-07
1.99899e-07
1.08642e-07
4.21061e-08
2.41854e-08
1.88671e-08
1.87095e-08
2.12894e-08
3.50179e-08
1.16625e-07
1.7727e-06
6.57491e-06
5.77349e-06
5.50616e-06
5.5786e-06
6.03279e-06
5.96849e-06
2.99135e-06
7.75871e-07
2.46898e-07
1.68716e-07
1.47842e-07
1.54679e-07
2.67585e-07
2.29167e-06
5.63701e-06
5.85767e-06
5.73483e-06
5.37619e-06
4.29125e-06
9.69762e-08
1.35422e-08
1.0524e-08
1.37187e-08
1.72868e-08
3.75511e-08
7.74058e-08
1.33976e-07
7.28796e-08
2.13142e-08
5.93344e-09
2.45438e-09
2.42831e-09
4.70609e-09