/*--------------------------------*- C++ -*----------------------------------*\
| =========                 |                                                 |
| \\      /  F ield         | OpenFOAM: The Open Source CFD Toolbox           |
|  \\    /   O peration     | Version:  2.1.1                                 |
|   \\  /    A nd           | Web:      www.OpenFOAM.org                      |
|    \\/     M anipulation  |                                                 |
\*---------------------------------------------------------------------------*/
FoamFile
{
    version     2.0;
    format      ascii;
    class       volScalarField;
    location    "0.004700000";
    object      omega;
}
// * * * * * * * * * * * * * * * * * * * * * * * * * * * * * * * * * * * * * //

dimensions      [0 0 -1 0 0 0 0];

internalField   nonuniform List<scalar> 
12384
(
9180.37
27110.1
33201.6
37652.3
39746.6
39709.1
36746.3
32046.6
27823.5
23537.1
19006.1
13730.7
8439.67
4491.89
25407.4
42241.7
54059.6
61853.5
67725.3
72343.9
76866.5
80543.8
84843.6
88968.5
93512.1
98409.2
103422
108300
112680
115951
117538
116964
114758
110356
104447
97303.1
88226
76046.9
60405.9
43243
30269.3
23129.3
17817.2
11932.6
55666.6
72767.5
80523.8
86004.2
90184.4
94396.1
98577.7
103047
107335
111326
114828
118195
121769
126883
133688
142115
149712
156924
159803
159769
150703
139104
124823
108321
88878.3
66242.1
44155.2
29295.9
20930.1
13003.4
42781.9
62061.2
75007.9
85982.9
96810.8
106597
117102
126908
137859
148773
161586
174493
188952
203070
217526
229787
240806
246144
249154
241508
229887
212936
198231
182623
160409
125661
78513.8
40260
30645.5
24531.9
60107.4
85411.3
102498
117552
131729
143412
154735
165558
175861
185583
193977
202068
206600
212644
213077
215319
213097
210491
204841
197607
188276
177457
163473
144059
116249
81018.1
47336.2
31722.3
27375.8
27676.4
24968.9
37397.6
48209.3
57157.9
63232.3
67532.8
70215.2
73455.2
77218
82538.2
88919.2
97773.3
110920
126995
142533
158026
169636
178854
181211
172956
164582
153969
145139
137734
131444
124695
114944
97834.4
70616.4
46954.9
29535.2
38022.5
46437
53316
58635.8
62963.7
67920.8
74451.4
79787.9
84010.4
85842.5
85802.6
84993.7
83680.4
82771.2
82280.4
82803.5
84305.2
86764.1
89331.6
92287.7
92481.6
92551.5
90573.8
88643.7
86346.5
81459.6
72617.5
57436
34444.1
21729.4
31973.5
52009
80059.7
103485
120129
132012
139481
142745
142268
139211
135492
131343
127942
124998
122404
119851
115559
109835
104361
100963
97829.6
95299.8
92862.4
90701.3
88588
85868
81277.2
71180.9
53187.3
13581
22466.3
57068.3
90435.2
111839
124544
131988
135029
135374
135399
136827
140604
146634
150457
154885
152419
149003
144624
140548
135270
128951
121652
113953
105357
95253.4
81957.7
65563.4
46326.9
26660.2
10659.9
29017.9
51829.2
83868.9
106558
120097
127133
128727
127477
127438
133091
144536
160479
175305
190928
200101
204782
208129
192188
184625
177556
171512
164951
156938
149072
142108
134114
123133
110548
97997.9
91810.7
32893.5
66509.7
94153.2
110733
119891
122572
120187
119414
127467
143203
161750
180921
198523
214965
229002
239783
247546
250072
245346
242228
236106
229214
219584
203475
180246
151682
124648
105322
91745.4
89069.9
20291.9
39184.4
69758.2
91121.3
104685
113010
116932
117474
115473
112149
108868
106646
106185
107938
111612
116929
123223
129779
136294
141292
143775
140810
133962
123106
109204
88876.4
60544.3
28863.2
6418.39
1473.42
2036.74
2867.51
4861.91
7611.16
12956.2
20380.3
29915.1
41690.2
55219.2
69625.2
82877.7
94289.4
103327
110831
117102
116207
107275
91668.8
71194.1
47028.7
23355.3
6776.01
3329.17
2616.64
2347.29
2010.4
1701.18
1453.7
1210.89
1083.56
19074.8
142948
181606
212583
241244
265803
282983
286342
278162
252428
218234
170873
118647
18440
28239.4
135636
163168
180864
194685
206551
222061
238740
263690
296095
337446
386903
442149
500332
557496
609740
653854
687705
706534
707519
690700
656949
607262
541264
458176
358412
245453
152060
106655
22247.3
54600.5
173047
194648
214165
227585
247758
277013
310711
338848
357969
364746
364817
375710
412708
478150
562766
658099
757571
853992
934472
985227
990284
954441
885501
788466
663816
500602
301414
148049
25776
45973
188996
231596
270388
308480
342045
378357
412846
452153
495183
549014
608707
679618
759751
850115
948008
1.05061e+06
1.15359e+06
1.2508e+06
1.33414e+06
1.39502e+06
1.41119e+06
1.38265e+06
1.3134e+06
1.2064e+06
1.05697e+06
841757
545214
248324
41400.4
57640.8
236654
307904
381755
456879
531628
614159
709381
818095
937263
1.0622e+06
1.18849e+06
1.31385e+06
1.43468e+06
1.54298e+06
1.62666e+06
1.67724e+06
1.69505e+06
1.67858e+06
1.63581e+06
1.5597e+06
1.45423e+06
1.31794e+06
1.15522e+06
959433
726993
458586
226817
123367
40002.7
37833.5
158553
203689
248782
290492
329551
362615
386769
397876
404697
415512
442922
501561
588403
688622
801306
919543
1.03122e+06
1.12804e+06
1.19437e+06
1.21276e+06
1.17928e+06
1.10986e+06
1.00878e+06
883445
736493
573739
412691
277458
81291.1
40819.3
165560
227437
288046
339269
376760
398959
406574
404741
396642
386265
376510
371343
371055
377881
392333
415330
447072
486571
531076
576921
618702
648837
658690
641397
594784
523006
426254
310704
62154.7
53990.8
292917
410926
482546
520444
531938
522525
498940
470348
441243
420039
418189
442179
495549
575589
671089
768261
851019
908239
922696
898014
846752
784427
719526
655607
589376
517601
436367
341731
82587.8
50325.3
253953
324731
363527
380268
381304
373669
368422
380874
433283
526695
648048
781753
911024
1.02432e+06
1.11054e+06
1.16218e+06
1.16768e+06
1.13838e+06
1.07558e+06
990716
891297
790077
689581
596247
508594
431691
358100
277788
51916.6
76759.2
221360
249677
267805
277686
287354
306158
367639
490381
659152
848222
1.03465e+06
1.21392e+06
1.37635e+06
1.52101e+06
1.63618e+06
1.71524e+06
1.74221e+06
1.71711e+06
1.62806e+06
1.50347e+06
1.34498e+06
1.15737e+06
943850
733487
567801
453878
367580
291972
108919
76640.3
219876
246686
261067
266313
270854
311537
423453
580012
741709
897763
1.04743e+06
1.19217e+06
1.33159e+06
1.46425e+06
1.58596e+06
1.68903e+06
1.766e+06
1.79544e+06
1.78783e+06
1.72621e+06
1.62705e+06
1.49557e+06
1.33834e+06
1.15513e+06
939806
701389
461272
274793
110112
65334.2
204648
246573
281807
308995
329774
343183
350392
349384
340209
328097
317108
317313
331909
365328
412002
470889
538074
608352
678059
741346
793381
822663
813131
776962
705800
597555
430959
207740
19150.9
8164.72
86793.5
125769
178628
250971
338134
436702
546329
658777
764873
855052
924735
966446
976167
945185
880856
789691
676649
546197
402328
257632
150581
108554
93916.5
89612.3
84930.7
78416
72151.2
58824
1254.32
28664.6
183595
212729
229755
243136
254379
265373
272370
274293
267669
249934
215576
169057
27891.1
36280
164620
191488
208592
221936
232786
246608
261602
282583
306804
334268
365282
400116
438998
480192
520953
557926
588244
608922
618985
619634
611988
595801
568726
524393
453208
349336
234451
150452
30409.3
59605.9
191487
221343
247113
270519
304773
343466
373524
386669
385046
380233
392862
434812
502443
583548
658037
722372
779887
835554
887202
929415
945742
935434
901798
851004
775040
651141
457849
248054
36821.1
53405.3
230780
265558
303708
341518
378099
415145
450927
488161
527936
576730
631008
694903
766622
846506
927779
1.00687e+06
1.08461e+06
1.15891e+06
1.22595e+06
1.28015e+06
1.31686e+06
1.32614e+06
1.3139e+06
1.28571e+06
1.22931e+06
1.0999e+06
850516
496985
71331.9
64334.1
266478
348126
450229
546048
621859
681556
737569
800035
873835
959501
1.05553e+06
1.15798e+06
1.26135e+06
1.36039e+06
1.44494e+06
1.5104e+06
1.54457e+06
1.55131e+06
1.53049e+06
1.48721e+06
1.42307e+06
1.34296e+06
1.24691e+06
1.12417e+06
949415
707715
434492
218171
49083.1
47214.2
210938
254065
296633
339131
379037
412906
440756
463290
488494
523191
573846
643926
720207
784201
844232
908160
975223
1.04221e+06
1.0986e+06
1.13194e+06
1.13324e+06
1.10301e+06
1.05078e+06
976350
870991
726309
552326
376920
96557.9
48649.5
214750
284038
344548
388603
418564
438376
449983
454404
453242
448880
442484
435264
426607
419445
413928
411642
413576
419160
428967
442744
462043
486006
509942
525383
528766
513745
469335
391212
73093.6
87343.9
438627
536182
579434
592124
588746
575067
553549
526962
500325
483356
490622
528373
594504
681136
777794
871180
943410
987755
986833
948796
885431
808172
731092
663590
607550
556745
499926
424541
95822.6
88722.9
351115
403201
421775
423665
419936
420985
441093
495904
600001
725281
845034
951751
1.04744e+06
1.12892e+06
1.19429e+06
1.2291e+06
1.23331e+06
1.20587e+06
1.14608e+06
1.06085e+06
957409
847411
739663
641052
554463
478272
410856
340023
62852.5
95782.9
257693
280828
293044
299668
317364
375708
504125
671172
836531
983403
1.11282e+06
1.23214e+06
1.3413e+06
1.44073e+06
1.52459e+06
1.58921e+06
1.62477e+06
1.62394e+06
1.58964e+06
1.52386e+06
1.43825e+06
1.31762e+06
1.14875e+06
939911
736380
578004
460474
361009
121350
93246
251017
263861
263460
263916
303371
423054
591961
750756
881449
991546
1.09159e+06
1.1905e+06
1.29309e+06
1.3979e+06
1.5013e+06
1.59461e+06
1.66597e+06
1.70927e+06
1.71757e+06
1.69601e+06
1.64479e+06
1.5745e+06
1.48904e+06
1.37634e+06
1.21715e+06
996623
722800
447954
122557
88059.9
266024
318067
363697
403525
438033
462500
476679
481197
474040
460093
438348
420094
407583
407163
415064
431760
461785
505478
558325
613478
667876
710910
740317
752795
746519
701611
577938
350855
36838.9
14172.6
119329
175180
260130
365079
483012
609672
736715
854393
954311
1.03205e+06
1.08525e+06
1.11168e+06
1.1093e+06
1.07751e+06
1.02061e+06
942460
845230
727508
586385
419586
245525
145579
111370
97201.6
88961.9
84730.1
80598.4
71177
1388.95
36409.5
216494
237698
243149
241672
237835
238273
244509
252841
259717
259771
244263
212531
36651.2
46643.1
196707
223043
244000
260385
273589
288462
308699
332994
355698
373823
388286
403667
422018
443644
466756
489348
509325
524398
533721
538838
541206
543117
542194
530461
491641
410032
296332
194379
38657.9
65522
214181
252665
292965
336580
381924
412181
418470
405287
389943
401212
447156
518341
602064
678810
728249
752628
762456
770425
784804
807287
825613
836487
838613
831877
805306
728038
562144
340933
47996.2
62062.2
272239
295085
327318
363412
403881
446028
488454
530307
573721
621803
673986
733866
802414
874172
936295
983052
1.02198e+06
1.06102e+06
1.10181e+06
1.14235e+06
1.17729e+06
1.20078e+06
1.22209e+06
1.24719e+06
1.26381e+06
1.22187e+06
1.04813e+06
718695
100366
75375.3
300628
383260
498480
609706
689886
735552
763093
789409
827012
882509
955474
1.04259e+06
1.13605e+06
1.22849e+06
1.30906e+06
1.37272e+06
1.40879e+06
1.41893e+06
1.40312e+06
1.36901e+06
1.32061e+06
1.27095e+06
1.22247e+06
1.16358e+06
1.05911e+06
872075
608308
345037
61255.3
55944.2
265578
301376
337764
376904
414886
450275
485824
528185
581879
647582
719959
791634
847245
865241
861952
854952
854601
870187
900319
935066
962676
974651
972548
951056
896947
792630
636900
457211
105908
56003.6
268195
336489
389372
425618
451673
471461
486450
496217
501836
504304
502478
496496
486183
471331
455312
440021
425135
410612
395023
377432
361118
352056
359986
385277
421648
456573
471090
447578
79324.8
117396
558176
626690
643226
640265
631822
619665
601505
580281
562280
560726
591446
650294
723614
801651
880011
958657
1.02622e+06
1.07046e+06
1.07136e+06
1.02847e+06
946399
842358
736717
648801
588284
551580
524697
483892
104224
113898
425483
457016
459978
457622
463871
490759
553239
655935
787514
896524
967044
1.01096e+06
1.04725e+06
1.08205e+06
1.12204e+06
1.15422e+06
1.16731e+06
1.15415e+06
1.11306e+06
1.04207e+06
948368
841577
733630
634752
550893
482479
429612
382794
70695.8
107254
292253
308971
315273
325272
371406
485240
653583
810772
931233
1.01861e+06
1.08495e+06
1.14229e+06
1.19611e+06
1.25082e+06
1.30144e+06
1.34692e+06
1.38758e+06
1.40693e+06
1.40446e+06
1.38551e+06
1.35669e+06
1.30338e+06
1.19591e+06
1.02498e+06
827530
658534
530205
419678
131500
103777
275382
272965
262619
281088
379718
549815
714063
832519
911734
970788
1.02736e+06
1.09183e+06
1.16804e+06
1.25517e+06
1.34813e+06
1.43827e+06
1.50943e+06
1.55608e+06
1.57393e+06
1.56363e+06
1.53765e+06
1.50569e+06
1.4721e+06
1.4271e+06
1.33992e+06
1.1763e+06
923425
618904
141796
103830
333017
397271
454870
506851
551662
585843
608809
621981
620174
606251
577969
549783
522461
503812
482130
457519
443917
447772
466834
495726
533870
577213
624315
669480
712925
726008
651707
440813
44301.6
21361.9
152528
230626
338441
463339
597201
733001
859038
965683
1.04768e+06
1.10471e+06
1.13768e+06
1.14856e+06
1.13911e+06
1.10786e+06
1.06455e+06
1.01097e+06
944229
855656
736527
575846
374408
199112
134857
106526
90433.9
85663.4
84434.9
77482.7
1532.87
42307.3
241416
256894
255332
239758
217906
205743
210453
224481
245062
261950
267792
255103
45109.6
56846.1
233397
260043
283266
298689
311978
329911
359679
390749
414088
426565
430500
433024
434884
435304
434444
433567
435909
441981
451002
461415
473600
489634
507853
519818
506282
445172
338609
231158
46551.9
71232.3
245003
290948
346277
399709
436221
440122
416609
385184
382409
429881
503876
588166
674468
736863
759393
746041
710724
669566
644384
646486
673589
713262
754976
792556
811184
775101
635697
418800
56598.6
70383.5
317422
324498
346720
377418
418200
464628
515064
565217
616710
668660
724198
787254
861254
931343
975002
983113
970120
958504
963460
986017
1.01989e+06
1.06077e+06
1.1112e+06
1.17877e+06
1.25321e+06
1.28409e+06
1.18676e+06
910004
122640
89269.7
330724
407890
529298
655127
745409
787977
800777
806847
822206
855778
906368
970432
1.04051e+06
1.11193e+06
1.17754e+06
1.23185e+06
1.26407e+06
1.27571e+06
1.26546e+06
1.24096e+06
1.20726e+06
1.17825e+06
1.16357e+06
1.15393e+06
1.10892e+06
977595
744049
468998
75307.1
64392.1
327084
350863
375552
404651
436343
473239
521215
588933
675064
768890
856885
925416
960288
941453
885798
809758
731939
670609
652398
681600
737782
799480
851171
880523
874488
812932
687774
524284
112177
64922
332916
392628
433258
459808
479769
498926
518561
536231
547593
552995
551024
545044
533290
517007
501816
488103
475580
462708
444274
415863
376196
330084
293120
292433
335934
405891
471592
500328
83918.3
143684
671190
705906
695095
678569
666986
657287
644448
631399
628109
649963
708822
778605
838165
881262
914732
948787
990365
1.03261e+06
1.05578e+06
1.03931e+06
979061
880638
762773
652987
578622
547403
544326
538241
112329
132892
496737
504447
496333
499910
529997
596766
702492
830408
945103
999520
996413
967523
937294
917750
921350
944744
972477
989884
987903
954512
892034
807238
711960
619847
539825
477895
440257
420256
76167.7
116173
333062
340417
340917
363835
450859
606634
773740
889611
953269
983125
996837
1.00421e+06
1.01004e+06
1.01882e+06
1.03429e+06
1.0579e+06
1.09236e+06
1.12724e+06
1.15879e+06
1.18892e+06
1.21444e+06
1.21755e+06
1.16242e+06
1.03332e+06
859503
701403
578736
468784
139833
111704
301872
282461
270487
323710
474194
649407
774422
839858
870294
891824
921551
968440
1.0338e+06
1.11276e+06
1.19673e+06
1.27748e+06
1.34399e+06
1.39018e+06
1.41444e+06
1.41653e+06
1.40827e+06
1.40038e+06
1.40085e+06
1.40459e+06
1.37845e+06
1.27719e+06
1.06676e+06
763766
158585
118622
411437
485293
554214
618502
677225
726386
762302
782360
782293
763267
727467
686562
645909
614877
577632
526935
478019
445079
422723
404656
399991
430428
495217
580346
671778
733739
697161
495300
42438.3
29520
190458
286677
409163
544017
681987
814234
927576
1.01264e+06
1.06668e+06
1.09147e+06
1.09263e+06
1.07748e+06
1.05214e+06
1.02409e+06
1.00572e+06
990326
966719
920427
837290
700668
501573
266577
159547
117321
93506.6
86015.5
86547.7
81437.3
1683.25
46324.5
256473
270073
265338
238773
200203
174728
177231
198096
230215
262286
289493
299471
53542.3
67318.1
278143
299554
316313
323327
334336
358730
399535
437636
461229
469753
468276
464810
455654
438324
413123
384885
362714
354478
362668
382060
408980
441304
477583
507707
511258
463855
364315
259238
53439.9
76758.8
284786
329125
386194
430301
443658
419743
375912
349961
382343
460394
545867
632108
715145
762045
763114
722720
652960
569640
507219
489944
526046
595962
676602
755390
811756
807340
686508
478067
60978.3
77613.9
363542
351413
358991
379416
415461
464036
522872
583566
645416
702940
761947
830237
916567
998728
1.03415e+06
1.009e+06
937861
861630
817633
817521
851924
912485
997637
1.10629e+06
1.22935e+06
1.3214e+06
1.29362e+06
1.07825e+06
137811
104109
354958
422717
546502
686217
789876
836385
844198
840438
841683
856542
882688
915359
948412
981365
1.01506e+06
1.04757e+06
1.07162e+06
1.08679e+06
1.08944e+06
1.08604e+06
1.07823e+06
1.07649e+06
1.09095e+06
1.12068e+06
1.12605e+06
1.04274e+06
839417
570573
87670.7
73179.7
394538
401536
408828
422256
444482
481164
541556
634125
749632
865983
964172
1.03034e+06
1.05242e+06
1.01547e+06
933290
816295
676563
535311
448420
459021
546003
648193
740854
807206
833816
805778
714604
578725
115647
75320.7
406513
451559
477104
490595
501173
517445
542706
571350
590490
596836
590230
580940
566998
551858
542331
537224
536948
536827
528750
505834
462690
401584
333279
287356
300866
378585
477998
548634
86789
168859
790592
782164
739041
705994
690072
683287
678599
677529
694718
745108
826785
894342
926414
925366
907964
884314
867155
877559
920877
949592
941846
878884
774475
659978
575787
546591
563832
584736
115570
150302
579132
559777
545111
564100
627952
736525
869953
992449
1.06149e+06
1.05484e+06
986278
897241
807520
729696
684280
682504
721699
775761
821839
836772
817045
763401
688786
606693
529767
474760
452117
455815
81057
124623
388410
382144
379264
425318
552821
723531
864148
933310
949123
935457
910486
877386
841274
803158
762345
729304
732320
789201
881548
976676
1.06074e+06
1.11158e+06
1.09564e+06
998488
851790
716888
611712
509122
145426
118556
334179
298230
295992
392339
569133
718095
795014
815205
813960
818401
841537
884853
938327
991658
1.03707e+06
1.07994e+06
1.11892e+06
1.15838e+06
1.19145e+06
1.21639e+06
1.2408e+06
1.27052e+06
1.30661e+06
1.3511e+06
1.37499e+06
1.33004e+06
1.16705e+06
881144
169244
133764
500621
580381
658793
735136
808243
870596
914578
936894
938637
917303
875916
816603
758227
714385
670742
605973
538980
482920
432890
371350
312463
310650
392194
521095
654156
746782
723918
515532
31759.6
37186.2
231937
337375
466133
602404
736210
856822
949415
1.00467e+06
1.02037e+06
1.001e+06
958876
910202
871815
859433
878808
912258
937529
936963
893387
788540
604777
343405
180932
125505
97361
87583.9
87807.8
83218
1914.98
49276.5
261735
275910
271409
240738
194956
161945
160452
183481
220393
263027
309064
347053
63507.1
79597
331561
340440
342144
336979
342834
372163
421596
465273
489080
495764
493161
489142
475625
448000
407107
356547
308234
279102
282598
312489
356875
406942
459484
502276
513752
471634
376892
279574
60452.5
82454.2
329745
356602
402150
426275
413247
369314
323534
323834
390258
482567
568571
652296
730470
765275
751529
694009
600081
483593
393114
368446
422357
518391
628455
736971
818550
831733
718699
517906
61798.8
83604.7
408086
374615
365010
371709
399774
448531
511562
581437
652500
717358
778902
854025
954539
1.0558e+06
1.09363e+06
1.04979e+06
927561
778730
669174
637928
679026
770429
894060
1.04288e+06
1.20894e+06
1.3508e+06
1.3823e+06
1.22391e+06
146297
116456
368447
426593
552984
703743
819705
872951
880520
872971
866407
867531
870725
867625
854368
833571
813643
805572
816339
844065
876737
909479
939000
972108
1.01842e+06
1.07935e+06
1.12573e+06
1.07988e+06
904801
651891
97629.3
83014.8
465689
449067
436063
429912
437633
468222
536832
649631
789658
923343
1.02939e+06
1.09661e+06
1.11711e+06
1.0789e+06
994366
874312
723342
560214
437342
420697
498014
595574
688170
758105
793505
779667
716137
613760
116351
88532.4
486748
512716
520031
515404
511857
522567
553384
594725
624760
632764
621611
607667
592472
580370
578492
585569
599716
614338
617192
598504
555657
493208
421483
356972
331660
388083
495653
591031
90208.9
197470
921098
861107
777821
721503
699015
696302
701802
715024
755738
836279
932638
992525
996688
959972
904060
834242
747294
679500
702584
777105
835086
825747
752466
652613
574039
552508
586016
620141
116864
170193
684742
638719
620650
658471
756175
895143
1.03452e+06
1.13349e+06
1.15366e+06
1.10118e+06
992470
866353
734375
608686
513137
482250
524779
607055
691012
745630
759439
732132
674503
599144
524413
477199
468150
480190
81836.1
135227
466673
442366
441583
515146
671336
837566
944415
975654
955509
912466
862255
804935
742035
667626
574834
468232
407697
507194
672571
830219
956406
1.03028e+06
1.02537e+06
942837
820957
716656
633525
537495
147348
125950
374698
327445
351884
484997
661523
773726
811291
801990
787013
790486
816809
854238
883954
893262
880197
850644
818794
814384
860112
945011
1.03642e+06
1.12696e+06
1.2113e+06
1.29501e+06
1.35963e+06
1.36024e+06
1.2366e+06
969790
173027
149890
598399
677775
760576
843831
917223
970897
1.00572e+06
1.02695e+06
1.0384e+06
1.0353e+06
1.00319e+06
931436
847395
786752
742746
673897
597386
532267
471105
394836
313739
289358
376666
529606
676458
763379
724891
504496
21991.9
44714.6
272995
378936
507135
639382
764520
869469
937858
960082
933267
863217
767696
676926
629436
653291
730473
821886
893834
931693
921095
845987
680724
419309
199709
128784
100131
90302.7
89177.6
82030.6
3063.48
50554.4
256485
273575
273733
248441
209804
179339
171888
186120
217464
263282
325228
400753
73881.1
94085.2
377655
366329
348696
332994
333849
367610
422769
470765
496550
503721
503374
502832
490881
462364
418289
360955
299482
254387
248499
281854
337114
399778
460833
505316
513704
469527
378641
291758
68910
89239.3
379405
368519
393654
395880
364777
315700
284890
314692
396987
490739
571726
649851
721860
750161
729447
665231
563485
439125
345414
326926
389970
496152
620880
743727
832389
846087
731537
538222
63015.3
88751.3
446323
395874
368690
360260
378396
422976
487977
563326
640531
709637
772726
849897
962178
1.0817e+06
1.1315e+06
1.08463e+06
938018
735847
559690
491725
538454
659473
816836
998186
1.19749e+06
1.37699e+06
1.45478e+06
1.34206e+06
148821
123291
375725
425615
550515
705651
828739
887851
897982
891383
883516
877178
863771
832589
779849
709260
630862
564773
552406
600975
674557
747771
814264
879572
954958
1.04321e+06
1.11913e+06
1.09834e+06
941800
705721
103744
95577.4
542016
487541
452366
425797
415997
433289
498672
624184
783424
930869
1.04293e+06
1.11573e+06
1.14491e+06
1.1195e+06
1.05456e+06
963535
850177
731392
638674
602808
621693
662779
706734
739719
753147
738008
694310
630140
114401
103848
568262
568906
554217
526680
505081
508211
543538
598732
642669
655544
643281
628192
616006
611032
619923
643073
676105
702212
703367
670263
614491
546945
479540
419636
389366
428690
530943
636925
98474.1
230637
1.06566e+06
936403
805184
722157
692835
696612
711904
738402
801870
911817
1.02338e+06
1.07528e+06
1.05892e+06
994849
918892
827263
699337
551383
505565
610783
723679
757703
712768
636298
576480
573952
616317
628976
115221
196024
813535
726123
707077
766708
894304
1.04954e+06
1.18072e+06
1.25276e+06
1.24018e+06
1.16354e+06
1.04408e+06
910667
764884
622623
503757
449654
480467
562944
654399
719679
743138
724216
670755
595410
523897
489434
491380
491000
84527.2
152027
563761
509771
521078
627554
795333
949068
1.02929e+06
1.03696e+06
992775
933810
873874
812923
750334
677869
585818
483573
432381
522821
673480
820086
930293
985864
966310
886760
789913
715572
646109
549091
145906
137859
428167
372226
440352
600729
752477
831420
845107
822510
806329
814999
846050
877520
887151
855697
789639
691629
578039
499966
536812
704050
871702
1.0189e+06
1.14385e+06
1.26016e+06
1.3533e+06
1.38117e+06
1.28098e+06
1.02462e+06
169330
167111
698471
770330
849271
920601
967241
985881
993506
1.00816e+06
1.03939e+06
1.07925e+06
1.08482e+06
1.02194e+06
907552
821766
780191
717612
639305
572788
515133
451533
392415
384259
459930
591833
716536
770399
699517
472209
19475.3
51624.6
307483
406862
529554
655298
771671
862567
909615
906539
847347
735358
585772
439921
382739
480562
629295
769202
871519
930693
938198
881444
730836
481562
221217
127329
100983
93538.3
92263.4
84482.5
9680.86
50266.3
241456
264588
273744
262654
240571
221019
212800
214843
236701
283750
365433
486770
505633
110943
124474
435545
466789
417037
363557
326630
317627
348391
403634
454266
483282
494735
499521
505204
501023
480123
445651
398419
344373
300815
288879
314348
365221
425888
483381
521012
521443
472807
391335
331327
278798
98476.7
108380
446452
430190
378663
374835
357296
317818
275604
266728
313943
397794
485262
557439
627255
694424
722512
703119
644903
553874
446815
367715
357566
422253
527083
650906
768173
843478
842869
723478
543772
304682
95752.7
102522
372532
460326
406662
372894
359110
371911
410805
472130
544457
618579
684992
744932
818168
934268
1.06679e+06
1.13186e+06
1.09401e+06
949947
742111
542456
440698
469853
599784
771945
970904
1.19024e+06
1.39567e+06
1.50584e+06
1.42471e+06
775486
116912
109556
377882
365655
413537
539748
690791
812238
872626
887600
888700
887194
881813
862529
817744
746309
654142
551745
458734
424441
473758
561587
651143
734564
817472
912412
1.02161e+06
1.11746e+06
1.10616e+06
965322
755050
486974
111022
122703
642548
616995
522685
467063
420911
387794
381304
429586
556005
726263
884687
1.00127e+06
1.0828e+06
1.12871e+06
1.1276e+06
1.09257e+06
1.04239e+06
983927
925518
874437
835078
804802
783719
762702
738140
708842
674281
637982
608337
462865
109874
119366
525192
647325
618351
577517
524385
481372
472788
509735
577498
638217
659940
653041
642928
640852
650016
676455
721528
769491
790057
766110
698231
616409
540954
484566
448261
437731
474235
559234
654999
543560
171892
280818
1.14665e+06
1.20995e+06
1.00243e+06
816160
701932
667541
681947
705580
741059
823507
963282
1.09392e+06
1.15e+06
1.11723e+06
1.03653e+06
951300
860261
743736
604678
526490
586237
682270
721087
691500
638777
602724
607469
627608
617132
423293
183062
274642
1.04882e+06
980638
838942
800228
869781
1.01566e+06
1.17627e+06
1.29828e+06
1.3528e+06
1.32989e+06
1.25471e+06
1.14872e+06
1.03441e+06
910339
790736
690909
634080
635482
677227
727941
762695
763640
731635
669226
592047
530519
503981
505459
494295
345061
169477
215826
774664
713204
624440
636757
750874
913353
1.05499e+06
1.12069e+06
1.11674e+06
1.06236e+06
1.00151e+06
948225
905412
870016
837259
802103
770178
764185
793968
857893
927256
974003
977478
928391
850035
774277
709755
633566
531928
389336
162015
192253
625295
540426
489905
570910
719018
844332
901376
902385
877405
867037
884841
922567
956993
965224
926498
851043
742043
621586
542021
555867
688035
845573
999216
1.13541e+06
1.26136e+06
1.35967e+06
1.38866e+06
1.2948e+06
1.03622e+06
581181
158591
183166
636973
789132
849519
913054
951378
943012
894760
848815
850481
920892
1.03197e+06
1.10702e+06
1.07793e+06
938554
816240
777893
730574
658430
596587
552574
516571
494738
510161
573463
670514
751879
759125
653079
443345
201134
68372.5
78597.6
237871
335703
420418
533350
651677
760680
843528
881638
871183
802462
679305
514257
342687
300174
460589
638071
785923
888187
946537
953812
899166
757322
526451
252841
123593
101922
105850
112293
111336
85989.8
8110.82
2520.89
48708.7
218797
248305
269985
277340
275327
272433
274317
281264
293898
324904
389772
506376
655611
637510
643129
645379
555749
450411
364249
311813
297875
322451
370774
419657
452654
470386
483504
498229
506817
501863
485293
458559
425042
396446
384806
398655
433411
476940
516594
537914
525182
469859
393513
346539
336460
327647
382001
539725
429701
360235
339125
313652
276662
249852
260688
314155
390957
466213
525392
585127
650204
683708
675998
637268
573642
500153
447359
444870
500576
592141
698908
793407
843518
820143
696481
537733
393212
302979
290581
444859
439125
398777
378226
375965
395352
433735
486178
543717
600649
653464
702230
764419
872520
1.00784e+06
1.0886e+06
1.07408e+06
960105
786492
610664
504102
505668
608897
765708
958597
1.17753e+06
1.39036e+06
1.51742e+06
1.4732e+06
1.10798e+06
524070
374750
370896
353089
422189
533455
663401
770028
825468
847165
862835
876781
881873
868273
828137
767281
691720
613179
543257
505886
523866
579248
645908
717400
797603
896564
1.0136e+06
1.11108e+06
1.11202e+06
1.00371e+06
855795
753058
679609
686269
729118
574191
496649
454985
415938
374656
349163
370806
474391
635524
794094
911020
999796
1.06681e+06
1.09587e+06
1.09414e+06
1.079e+06
1.06048e+06
1.04148e+06
1.0188e+06
985949
936996
877259
809339
736022
664645
604455
566456
560446
561807
490690
557636
719038
708629
651708
584381
507021
443723
421463
454694
530038
606359
641741
647668
649804
665676
697385
752132
821757
874183
880446
827728
731545
623900
540858
502157
490343
491373
518170
577944
654073
688369
717303
1.13596e+06
1.49691e+06
1.30477e+06
1.03488e+06
802429
660030
625524
652676
679880
715829
811075
980636
1.14326e+06
1.21734e+06
1.18327e+06
1.09331e+06
1.0084e+06
937949
868286
798970
753683
750868
773301
771314
733810
688186
654731
639868
624160
592863
576464
844406
1.20824e+06
1.35655e+06
1.09738e+06
923996
866430
936250
1.08986e+06
1.253e+06
1.37512e+06
1.42867e+06
1.41593e+06
1.35896e+06
1.28595e+06
1.20942e+06
1.13188e+06
1.05814e+06
993234
941666
909022
889844
874846
850954
806040
743273
666770
593869
545557
521153
522375
522867
552431
723897
925855
1.01156e+06
828717
734512
744778
849962
1.00382e+06
1.14218e+06
1.21084e+06
1.20896e+06
1.15722e+06
1.10471e+06
1.0674e+06
1.05244e+06
1.05336e+06
1.06878e+06
1.08617e+06
1.09989e+06
1.10341e+06
1.09471e+06
1.08666e+06
1.07473e+06
1.04839e+06
995776
921553
844623
772318
697457
608305
521819
507368
620922
766512
812525
650968
608195
681180
810114
921059
973903
975491
955315
954120
985216
1.03807e+06
1.08963e+06
1.11998e+06
1.11015e+06
1.07403e+06
1.01227e+06
949422
891523
873176
910990
989821
1.09137e+06
1.19703e+06
1.29798e+06
1.37098e+06
1.37678e+06
1.2679e+06
1.0071e+06
655339
336903
440795
758943
847256
904499
949588
948157
872531
738364
619750
607915
735235
924930
1.07693e+06
1.09726e+06
942074
769362
734151
712088
656150
602751
572859
563431
572798
604283
655236
716374
750897
717329
593842
428977
294540
229145
238256
288194
335473
406128
513955
629390
736302
818914