/*--------------------------------*- C++ -*----------------------------------*\
| =========                 |                                                 |
| \\      /  F ield         | OpenFOAM: The Open Source CFD Toolbox           |
|  \\    /   O peration     | Version:  2.1.1                                 |
|   \\  /    A nd           | Web:      www.OpenFOAM.org                      |
|    \\/     M anipulation  |                                                 |
\*---------------------------------------------------------------------------*/
FoamFile
{
    version     2.0;
    format      ascii;
    class       volScalarField;
    location    "0.004700000";
    object      T;
}
// * * * * * * * * * * * * * * * * * * * * * * * * * * * * * * * * * * * * * //

dimensions      [0 0 0 1 0 0 0];

internalField   nonuniform List<scalar> 
12384
(
3065.79
3073.09
3077.99
3081.51
3082.59
3076.13
3075.89
3065.8
3054.94
3052.72
3052.37
3050.8
3024.49
2738.6
2665.08
2720.42
2725.93
2714.99
2706.62
2706.7
2711.21
2712.37
2722.24
2728.25
2725.76
2727.65
2727.6
2723.08
2724.13
2725.09
2726.3
2728.29
2729.53
2731.15
2732.03
2736.61
2742.42
2747.64
2760.19
2769.65
2629.07
2549.88
2584.38
2590.67
2935.67
2906.93
2904.66
2910.26
2920.44
2930.97
2940.22
2950.05
2943.02
2937.6
2934.32
2927.84
2911.42
2906.53
2895.75
2898.96
2898.37
2889.69
2896.64
2886.65
2895.43
2896.79
2897.59
2911.78
2920.3
2925.81
2958.05
2962.78
2815.77
2688.35
2804.79
2803.65
2800.39
2810.61
2807.42
2817.71
2817.69
2828.03
2838.22
2836.39
2841.39
2839.6
2844.37
2846.27
2848.27
2848.75
2847.18
2843.96
2840.26
2836.72
2835.59
2836.2
2837.51
2850.47
2860.7
2881.02
2889.55
2857.68
2840.68
2851.09
2870.91
2877.35
2868.6
2866.89
2868.48
2870.34
2872
2872.34
2870.97
2866.45
2860.8
2851.75
2855.52
2830.45
2845.1
2809.05
2825.58
2795.01
2811.17
2791.56
2806.03
2812.3
2822.42
2832.69
2842.75
2843.92
2732.03
2633.2
2644.08
2659.27
2836.13
2873.19
2882.74
2859.31
2841.42
2818.57
2812.67
2818.73
2829.11
2833.13
2831.74
2837.32
2828.18
2828.22
2829.11
2821.21
2822.69
2812.15
2815.57
2803.49
2803.55
2794.04
2796.06
2794.33
2790.16
2770.76
2756.31
2829.19
2858.28
2836.13
2728.5
2791.19
2774.02
2763.73
2764.18
2747.96
2753.47
2761.84
2768.68
2770.74
2757.33
2743.9
2735.72
2734.49
2739.7
2748.92
2758.25
2768.5
2771.3
2767.26
2763.73
2751.38
2748.79
2727.47
2718.43
2711.38
2701.13
2687.92
2712.13
2744
2445.89
2662.56
2765.23
2772.29
2767.94
2773.71
2764.09
2750.64
2745.81
2751.89
2731.4
2738.2
2744.17
2735.4
2745.08
2750.88
2745.64
2759.29
2753.66
2757.1
2750.06
2748.07
2740.34
2732.24
2735.1
2728.57
2722.73
2716.44
2753.95
2802.9
2616.56
2819.88
2759.92
2719.56
2762.36
2780.97
2791.16
2792.12
2789.51
2799.69
2779.28
2802.52
2774.8
2765.9
2759.81
2751.08
2726.26
2729.96
2719.58
2713.01
2726.93
2708.59
2702.76
2699.77
2677.07
2638.97
2607.56
2578.11
2589.09
2694.09
2761.77
2884.29
2917.83
2922.03
2916.29
2916.9
2875.31
2834.48
2798.6
2779.26
2772.34
2745.9
2764.14
2741.18
2758.64
2755.2
2760.72
2781.77
2784.75
2795.58
2799.39
2803.76
2806.69
2804.92
2794.86
2789.19
2800.97
2819.33
2827.61
2831.15
2838.52
2771.21
2743.49
2718.58
2706.86
2711.73
2725.53
2730.82
2725.97
2720.3
2715.02
2709.63
2714.68
2706.19
2720.09
2705.34
2723.64
2731.09
2727.4
2766.27
2767.92
2795.96
2813.5
2833.26
2862.46
2887.36
2835.25
2817.84
2835.39
2826.49
2603.54
2884.43
2758.78
2746.44
2787.12
2829.33
2854.31
2869.53
2880.33
2887.47
2894.52
2890.62
2887.07
2883.8
2866.66
2866.64
2845.42
2842.92
2823.53
2820.91
2808.29
2806.94
2807.84
2808.9
2813.58
2825.17
2835.37
2859.16
2487.64
2338.6
2179.65
2206.01
2254.6
2387.97
2841
2778.05
2647.95
2619.65
2607.22
2598.31
2592.94
2589.34
2591.11
2591.36
2596.53
2603.56
2614.02
2627.19
2647.82
2674.5
2711.3
2751.57
2791.28
2828.9
2882.92
2943.79
2816.22
2476.57
2289.22
2322.4
3083.14
3061.09
3029.45
3011.13
2994.62
3007.89
3003.15
3047.85
3070.95
3070.86
3059.93
3054.93
3049.45
2826.85
2659.46
2704.25
2685.37
2673.17
2691.75
2708.15
2730.81
2735.83
2724.66
2707.6
2697.58
2684.29
2677.91
2680.95
2683.96
2691.66
2699.1
2703.11
2707.01
2709.81
2714.45
2722.15
2731.92
2744.08
2755.74
2773.56
2729.66
2633.24
2590.72
2580.4
2934.36
2895.05
2898
2911.13
2924.44
2929.82
2917.39
2912.92
2922.36
2905.6
2863.88
2844.03
2839.63
2842.69
2852.98
2864.76
2884.23
2883.38
2888.1
2884.37
2885.35
2885.04
2887.59
2896.71
2908.98
2925.4
2941.93
2980.33
2969.42
2812.65
2803.96
2802.1
2800.85
2804.65
2806.89
2817.84
2799.71
2797.1
2787.56
2776.57
2781.4
2788.7
2802.26
2815.13
2832.93
2840.9
2846.16
2847.23
2844.88
2839.45
2832.13
2830.18
2834.41
2840.78
2849.7
2863.88
2882.41
2879.11
2860.41
2864.46
2867.36
2878.21
2862.98
2852.14
2857.4
2862.95
2866.71
2868.05
2857.1
2840.82
2828.07
2816.44
2805.01
2791.21
2792.76
2772.25
2779.45
2761.05
2764.57
2754.33
2761.91
2765.26
2775.55
2788.29
2814.55
2838.3
2811.37
2683.72
2660.41
2683.42
2846.2
2873.14
2855.65
2811
2787.8
2794.98
2820.69
2846.24
2850.6
2844.82
2837.57
2826.52
2830.05
2829.26
2831.8
2830.94
2829.66
2825.15
2821.73
2824.38
2815.76
2821.36
2817.74
2816.49
2809.18
2789.17
2764.85
2778.84
2832.35
2859.53
2745.16
2782.78
2763.93
2752.48
2747.32
2760.75
2775.99
2787.4
2718.8
2650.45
2603
2577.13
2570.5
2596.6
2647.54
2703.28
2755.96
2796.21
2814
2819.62
2818.24
2808.58
2798.22
2790.56
2771.8
2743.3
2720.71
2693.57
2698.57
2738.18
2650.78
2783.24
2770.62
2770.93
2774.41
2759.75
2767.99
2772.07
2782.86
2786.42
2818.13
2820.78
2833.05
2833.23
2840.88
2844.7
2849.12
2859.35
2864.37
2868.32
2860.98
2847.69
2820.64
2803.72
2782.05
2770.02
2749.96
2739
2753.94
2799.14
2967
2877.9
2756.69
2791.45
2815.76
2821.33
2828.58
2851.2
2864.12
2894.17
2898.14
2905.63
2885.54
2892.45
2859.78
2858.94
2846.47
2832.53
2814.66
2812.51
2797.75
2771.77
2762.12
2738.19
2704.64
2678.46
2636.94
2608.55
2598.74
2679.46
2871.46
2910.8
2916.76
2917.96
2897.33
2829.8
2774.51
2755.1
2767.15
2779.72
2806.22
2806.75
2833.99
2831.68
2846.79
2848.56
2857.45
2865.23
2871.24
2868.55
2859.06
2841.68
2820.42
2808.66
2802.68
2797.08
2796.42
2804.4
2819.33
2827.48
2831.76
2775.56
2750.25
2724.35
2716.94
2719.73
2705.62
2692.12
2688.78
2694.68
2706.82
2721.47
2739.17
2752.42
2764.75
2776.01
2780.18
2789.62
2805.98
2817.59
2831.55
2838.44
2841.74
2845
2854.67
2880.12
2870.39
2838.76
2787.91
2776.3
2873.8
2793.3
2762.08
2807.53
2859.56
2894.33
2927.1
2961.89
2971.36
2969.87
2961.44
2965.3
2957.37
2954.04
2939.47
2936.28
2905.89
2883.93
2847.79
2822.64
2800.01
2791.77
2787.75
2791.71
2808.63
2819.09
2831.22
2851.61
2945.21
2526.79
2201.46
2257.79
2507.05
2927.32
2760.02
2652.64
2612.43
2597.74
2586.39
2578.56
2573.42
2573.25
2573.43
2576.82
2584.55
2590.48
2595.59
2600.73
2606.95
2620.68
2645.53
2681.14
2712.5
2721.9
2745.22
2760.45
2853.19
2908.87
2401.38
2313.54
3008.43
2967.94
2953.44
2964.45
2980.73
2981.88
2963.4
2970.79
2991.01
3063.8
3071.97
3061.83
3056.49
2906.89
2655
2679.22
2673.93
2710.93
2766.3
2770.44
2755.2
2728.79
2707.91
2682.36
2663.76
2658.67
2667.06
2689.56
2723.54
2755.47
2781.4
2792.81
2786.52
2769.75
2747.72
2733.58
2732.38
2741.59
2754.7
2772.9
2772.91
2718.53
2669.21
2610.99
2930.56
2893.21
2903.1
2884.52
2869.97
2880.09
2908.11
2909.73
2860.81
2814.84
2808.03
2824.88
2834.71
2852.77
2881.4
2891.72
2889.93
2845.56
2825.58
2805.27
2813.68
2833.55
2864.82
2893.56
2900.47
2914.06
2934.85
2969.99
3008.6
2918.22
2804.06
2798.9
2797.47
2803.66
2803.33
2806.35
2786.36
2788.04
2774.57
2768.1
2772.44
2786.95
2814.72
2836.04
2856.29
2861.04
2855.78
2848.04
2839.95
2830.74
2825.31
2821.78
2820.37
2831.1
2842.67
2854.45
2870.96
2880.53
2873.94
2870.66
2860.68
2883.78
2855.54
2845.85
2851.31
2860.24
2868.8
2846.24
2820.86
2799.54
2780.02
2760.43
2758.33
2747.04
2749.04
2732.33
2739.58
2716.38
2719.22
2707.07
2710.63
2714.39
2725.19
2734.3
2762.43
2812.07
2827.86
2759.04
2681.28
2693.58
2852.79
2860.07
2813.99
2777.72
2790.07
2825.66
2848.66
2849.8
2835.4
2823.8
2814.29
2817.04
2827.11
2827.04
2830.17
2825.4
2826.65
2818.37
2826.39
2816.07
2823.25
2816.89
2826.99
2829.97
2828.24
2811.51
2779.52
2764.02
2793.85
2847.71
2760.68
2770.75
2748.49
2745.52
2751.7
2778.77
2800.21
2756.74
2685.08
2613.12
2558.97
2534.13
2533.06
2578.97
2671.27
2757.06
2804.88
2822.09
2819.7
2813.62
2800.39
2796.6
2794.67
2799.8
2789.49
2775.8
2741.8
2702.77
2689.79
2729.49
2762.22
2769.15
2761.27
2756.86
2741.95
2756.56
2769.37
2803.72
2833.94
2847.77
2860.9
2858.95
2860.55
2847.49
2840.43
2834.65
2839.62
2849.95
2861.86
2885.25
2897.05
2896.13
2895.76
2873.98
2861.08
2838.6
2817.56
2778.53
2768.33
2806.8
2919.03
2789.34
2784.17
2810.15
2814.16
2840.55
2891.91
2934.58
2952.53
2965.75
2953.49
2947.5
2926.34
2923.62
2896.8
2901.83
2879.24
2876.99
2882.95
2881.25
2863.25
2853.66
2828.8
2783.59
2751.57
2702.88
2657.75
2630.4
2612.47
2663.27
2898.17
2909.93
2920.33
2888.21
2790.65
2743.96
2764.39
2813.6
2850.18
2884.34
2900.2
2897.88
2912.93
2891.42
2896.87
2888.46
2874.37
2869.67
2868.4
2876.92
2886.41
2889.8
2870.27
2837.48
2812.95
2804.68
2801.5
2802.85
2813.07
2825.74
2833.47
2787.24
2764.54
2735.11
2719.69
2689.64
2676.6
2691.22
2720.03
2757.62
2797.74
2829.75
2852.18
2871.86
2866.63
2866.14
2867.33
2867.06
2867.61
2876.43
2886.36
2897.39
2895.34
2887.91
2872.36
2875.98
2882.24
2871.7
2815.8
2769.14
2805.35
2776.77
2819.04
2888.17
2938.68
2971.37
2932.62
2900.69
2903.09
2927
2953.36
2969.77
2968.25
2964.23
2949.5
2945.43
2908.77
2859.4
2800.6
2765.38
2741.29
2742.79
2749.08
2773.53
2798.82
2816.19
2837.3
2850.02
2889.3
2762.32
2217.84
2383.58
2921.39
2750.78
2640.53
2604.75
2593.23
2585.91
2586.05
2586.59
2597.49
2611.35
2627.49
2642.4
2646.78
2647.49
2642.24
2638.12
2636.03
2642.82
2668.54
2751.63
2856.26
2898.69
2899.34
2852.42
2832.29
2920.63
2595.9
2327.07
2980.59
2941.46
2971.34
3038.4
3070.61
3064.95
3033.98
2981.13
2957.19
3018.58
3072.19
3072.35
3058.34
2952.1
2652.04
2686.62
2737.77
2794.54
2793.92
2770.43
2766.22
2768.99
2759.31
2729.15
2698.41
2691.31
2722.21
2773.7
2830.9
2878.03
2905.98
2920.09
2924.25
2904.87
2865.13
2811.9
2773.88
2760.71
2763.41
2776.79
2787.93
2765.41
2731.19
2651.71
2922.07
2891.48
2869.75
2837.69
2848.84
2893.43
2896.88
2839.68
2799.01
2801.27
2828.38
2853.99
2862.25
2880.76
2896.38
2876.91
2825.77
2784.51
2777.37
2764.07
2769.27
2784.56
2818.43
2862.55
2896.8
2907.62
2927.73
2960.76
3007.8
2957.61
2801.83
2796.42
2790.93
2801.18
2800.95
2808.42
2811.56
2814.73
2817.55
2804.17
2802.13
2803.35
2825.44
2848.84
2854.14
2852.27
2849.99
2846.59
2841.06
2834.93
2826.29
2818.81
2815.57
2818.85
2830.93
2846.12
2860.9
2875.31
2880.09
2875.94
2842.57
2881.24
2850.42
2841.58
2847.91
2854.23
2857.89
2833.03
2809.22
2788.12
2770.61
2759.35
2756.06
2740.33
2741.63
2730.28
2731.25
2716.92
2726.1
2716.43
2719.84
2715.01
2713.97
2708.9
2723.73
2774.38
2824.76
2796.8
2719.8
2701.72
2853.21
2832.94
2782.13
2773.8
2808.55
2836.22
2841.02
2835.05
2828.37
2819.94
2818.38
2829.15
2823.69
2819.99
2813.8
2816.33
2824.04
2841.57
2839.46
2842.08
2829.4
2832.6
2826.49
2831.83
2836.3
2827.62
2796.42
2765.11
2768.94
2835.21
2764.46
2759.16
2734.54
2733.91
2759.26
2790.5
2803.08
2803.55
2799.04
2727.78
2631.14
2551.55
2530.95
2573.34
2672.95
2751.61
2776.23
2747.1
2712.51
2684.82
2674.64
2670.31
2677.73
2692.86
2733.28
2748.88
2735.51
2696.16
2681.81
2723.62
2779.04
2750.13
2741.69
2718.09
2725.81
2752.79
2798.12
2826.48
2848.92
2862.1
2855.75
2816.5
2790.95
2780.5
2781.13
2790.12
2805.74
2805.28
2820.78
2827.48
2848.24
2880.22
2894.16
2908.6
2902.34
2893.44
2860.49
2822.34
2792.47
2813.58
2856.09
2778.68
2787.42
2796.52
2846.69
2921.61
2960.08
2983.42
2982.65
2980.6
2956.84
2953.9
2930.76
2918.34
2912
2894.21
2894.56
2896.52
2897.51
2895.46
2907.3
2907.96
2873.37
2840.37
2785.48
2728.76
2684.38
2663.66
2644.22
2673.1
2905.2
2909.73
2910.46
2794.13
2742.66
2787.67
2854.33
2913.48
2933.15
2934.45
2940.06
2910.68
2908.84
2873.17
2863.31
2841.99
2835.41
2831.58
2825.33
2821.69
2816.53
2835.17
2888.16
2878.64
2838.19
2814.93
2811.06
2810.66
2814.5
2825.05
2846.54
2822.98
2801.71
2751.62
2696.13
2678.91
2709.84
2763.25
2816.24
2859.52
2890.01
2902.15
2894.59
2875.01
2871.56
2849.31
2856.87
2853.89
2861.69
2868.62
2885.45
2893.88
2905.07
2911.22
2905.29
2893.22
2890.31
2888.87
2846.14
2782.78
2784.95
2807.69
2890.04
2962.72
2958.91
2908.2
2905.57
2962.57
2986.08
2969.76
2955.53
2946.84
2943.65
2946.87
2942.25
2925.07
2871.05
2793.85
2726.6
2708.61
2705.94
2732.41
2758.68
2796.7
2816.68
2841.47
2854.31
2856.66
2870.59
2904
2244.48
2609.55
2832.48
2653.02
2601.89
2593.14
2590.76
2592.71
2601.69
2623.72
2651.83
2680.49
2701.45
2713.75
2717.13
2707.51
2688.74
2667.45
2648.81
2640.09
2636.45
2677.47
2814.36
2964.75
2974.74
2919.97
2852.02
2882.41
2722.31
2319.84
2961.44
2941.77
3036.46
3085.01
3088.42
3086.8
3058.98
3001.07
2955.57
2985.64
3057.87
3076.05
3061.16
2976.81
2655.24
2727.79
2801.13
2815.34
2803.87
2822.6
2874.08
2879.9
2841.65
2776.8
2727.87
2716.98
2760.4
2831.8
2884.89
2914.44
2929.82
2937.17
2948.36
2958.26
2946.77
2904.16
2845.39
2802.54
2784.91
2786.99
2794.75
2792.52
2772.93
2676.78
2919.76
2892.54
2850.08
2840.41
2877.81
2893.76
2839.01
2795.09
2793.34
2827.16
2865.15
2877.42
2876.66
2890.02
2892.06
2829.52
2797.68
2779.99
2787.1
2780.16
2789.35
2796.01
2820.07
2851.48
2890.62
2903.31
2922.43
2953.17
3006.47
2971.78
2798.07
2793.6
2791.15
2791.48
2800.83
2794.62
2793.2
2803.89
2813.76
2821.74
2829.75
2817.2
2825.71
2844.69
2846.39
2847.73
2850.2
2849.82
2838.08
2826.53
2824.24
2830.85
2820.6
2811.94
2822.66
2835.75
2853.61
2868.59
2878.39
2878.06
2814.84
2877.78
2846.53
2839.74
2842.84
2844.9
2846.81
2838.13
2812.63
2787.56
2778.93
2767.44
2760.5
2751.17
2756.23
2741.38
2747.58
2735.39
2737.85
2728.47
2729.65
2726.26
2724.05
2717.74
2711.88
2747.51
2808.07
2813.91
2749.4
2716.23
2850.56
2811.58
2769.82
2784
2818.25
2836.36
2848.64
2852.54
2841.39
2831.82
2829.74
2820.72
2810.63
2802.84
2793
2811.38
2843.91
2851.01
2858.49
2845.39
2846.58
2831.21
2833.01
2836.32
2841.65
2838.15
2809.88
2767.04
2757.92
2819.21
2757.54
2744.83
2722.31
2732.69
2758.07
2772.59
2774.98
2780.22
2794.62
2800.09
2733.37
2596.15
2521.74
2533.39
2606.95
2663.47
2660.98
2636.95
2631.35
2641.67
2655.62
2659.16
2649.8
2629.63
2630.27
2676.28
2696.61
2685.03
2671.63
2716.05
2749.1
2731.73
2704.08
2697.77
2716.8
2754.48
2800.33
2823
2840.64
2823.88
2779.43
2729.36
2712.83
2719.97
2755.84
2782.93
2788.3
2802.2
2795.07
2802.93
2813.08
2833.5
2871.83
2898.96
2919.45
2910.25
2906.48
2873.16
2830.79
2839.69
2822.12
2768.83
2778.06
2826.78
2917.64
2960.41
2984.68
2987.48
2988.39
2973.24
2945.04
2939.16
2891.73
2880.37
2855.24
2867.25
2890.27
2897.61
2889.4
2923.11
2920.9
2923.17
2912.01
2873.71
2809.24
2746.66
2703.42
2699.68
2684.63
2679.73
2908.09
2932.58
2838.25
2750.8
2791.22
2891.12
2941.86
2966.23
2958.52
2936.59
2926.11
2889.14
2874.47
2845.65
2855.07
2852.99
2873.67
2881.37
2874.51
2861.78
2817.49
2793.73
2829.61
2886.47
2860.96
2828.82
2821.03
2822.61
2820.78
2825.22
2857.99
2846.75
2808.21
2702.54
2678.08
2730.89
2794.43
2846.21
2883.97
2901.18
2901
2886.14
2876.94
2854.78
2859.85
2848.69
2849.27
2854.52
2863.92
2873.23
2878.63
2892.39
2896.33
2911.21
2916.18
2916.62
2904.01
2900.97
2868.17
2794.32
2790.75
2855.37
2949.02
2969.2
2936.82
2971.21
2988.91
2952.66
2921.82
2908.11
2898.12
2898.52
2898.77
2910.75
2907.25
2891.55
2833.3
2740.38
2690.84
2707.09
2751.37
2815.53
2858.16
2885.86
2887.8
2892.52
2883.33
2874.04
2865.32
2947.42
2283.95
2836.99
2731.84
2612.91
2597.08
2596.11
2601.67
2614.42
2640.54
2679.58
2722.39
2763.08
2797.89
2817.92
2815.85
2796.63
2758.72
2718.8
2675.14
2650.33
2637.55
2633.2
2684.91
2900.22
2996.39
2943.13
2883.75
2900.87
2765.86
2332.83
2950.5
2962.72
3073.47
3084.7
3085.76
3080.62
3034.17
2974.08
2955.37
2979.17
3044.57
3078.89
3064.33
2989.19
2666.63
2774.28
2829.05
2837.01
2868.47
2929.14
2959.02
2947.72
2882.51
2794.52
2729.65
2728.12
2795.81
2866.02
2902.76
2909.91
2910.88
2916.04
2922.58
2945.08
2964.35
2952.22
2902.5
2848.98
2815.58
2801.22
2802.4
2811.51
2801.01
2690.46
2914.2
2890.57
2865.11
2874.41
2890.97
2848.59
2800.53
2785.43
2806.19
2863.72
2880.57
2883.11
2880.78
2895.29
2870.04
2803.6
2803.43
2807.48
2813.53
2809.29
2818.83
2828.4
2842.61
2864.58
2889.2
2902.18
2919.04
2949.8
3003.55
2976.85
2797.68
2788.67
2789.46
2786.4
2785.4
2770.81
2758.39
2775.89
2784.9
2805.6
2824.88
2829.34
2829.28
2832.82
2836.12
2840.75
2848.17
2832.99
2804.3
2788.91
2789.51
2800.1
2819.6
2813.67
2817.21
2829.55
2847.21
2862.15
2874.74
2878.43
2804.86
2875.83
2844.68
2838.64
2838.81
2839.55
2843.26
2836.21
2812.28
2796.25
2782.59
2769.82
2772.42
2764.87
2763.38
2759.59
2761.67
2752.55
2752.97
2747.66
2749.07
2737.79
2738.74
2733.4
2722.97
2738.83
2800.64
2821.26
2771.49
2724.69
2844.89
2795.26
2766.85
2793.06
2822.05
2849.51
2874.21
2878.5
2860.05
2843.88
2826.05
2813.12
2803.63
2782.06
2771.21
2813.09
2842.4
2863.58
2867.17
2852.61
2842.53
2842.99
2837.24
2839.37
2846.22
2842.67
2817.53
2769.77
2752.08
2811.63
2752.9
2733.63
2717.25
2727.58
2746.3
2748.75
2749.79
2758.02
2772.68
2792.82
2791.26
2615.84
2493.2
2465.65
2503.6
2543.76
2577.47
2628.06
2691.96
2746.21
2777.64
2785.9
2778.56
2727.38
2638.48
2611.42
2648.36
2658.94
2661.47
2709.2
2746.96
2704.64
2680.99
2675.61
2705.07
2742.56
2774.6
2806.19
2798.24
2768.38
2701.8
2644.56
2629.5
2660.99
2712.97
2758.84
2765.71
2750.52
2742.63
2760.37
2765.27
2807.15
2831.87
2889.29
2900.07
2914.22
2916.41
2895.66
2854.42
2852.99
2801.65
2756.72
2794.4
2883.3
2932.52
2955.7
2985.91
2993.58
2974.62
2953.49
2893.12
2847.53
2792.51
2767.65
2750.29
2771.11
2809.84
2882.29
2891.98
2923.88
2921.82
2949.05
2925.63
2887.47
2820.24
2753.48
2738.63
2770.2
2730.25
2692.97
2913.88
2909.73
2779.66
2786.45
2902.83
2964.95
2974.43
2974.4
2958.45
2923.86
2900.96
2848.72
2865.16
2871.49
2904.97
2914.28
2915.15
2910
2913.2
2903.3
2867.36
2797.94
2800.69
2875.68
2874.23
2840.27
2834.68
2839
2828.87
2827.38
2877.91
2856.32
2743.73
2673.56
2743.65
2804.31
2848.63
2876.58
2885.61
2884.2
2872.88
2856.36
2844.25
2862.17
2885.12
2867.64
2874.04
2862.61
2857.49
2864.64
2880.64
2890.38
2886.73
2895.13
2915.45
2923.7
2917.58
2911.84
2881.93
2801.9
2802.06
2898.21
2971.92
2968.57
2988.12
2973.9
2933.36
2912.54
2905.11
2897.95
2888.69
2877.26
2873.07
2879.27
2878.84
2866.99
2809.8
2724.16
2692.7
2752.44
2866.52
2953.12
2965.98
2966.21
2967.41
2948.06
2920.76
2890.42
2858.86
2943.45
2324.76
2938.44
2676.88
2604.31
2598.82
2607.83
2619.68
2646.95
2686.89
2744.07
2806.78
2868.96
2915.34
2938.44
2926.83
2895.13
2840.07
2779.04
2715.18
2664.43
2639.43
2636.34
2631.87
2733.18
2993.35
2964.72
2915.03
2934.65
2741.98
2308.06
2942.92
2995.15
3082.79
3080.84
3085.86
3059.86
2997.52
2962.41
2962.54
2996.6
3040.21
3072.44
3067.01
2998.69
2689.77
2810.07
2853.59
2876.84
2927.57
2970.68
2992.94
2974.25
2894.02
2796.42
2727.96
2737.07
2827.24
2889.38
2902.87
2907.49
2910.86
2913.77
2917.09
2930.32
2960.72
2970.27
2938.29
2882.21
2838.06
2814.52
2811.62
2825.41
2809.84
2688.36
2913.27
2889.66
2885.36
2884.7
2862.42
2814
2785.5
2792.22
2837.88
2886.57
2876.46
2883.67
2884.58
2904.31
2843.87
2805.39
2824.2
2840.6
2828.96
2827.41
2839.95
2860.43
2866.77
2876.34
2890.79
2900.16
2920.8
2947.35
3004.6
2973.37
2795.12
2788.04
2782.78
2788.06
2765.32
2748.44
2740.19
2753.1
2758.2
2782.49
2802.39
2822.78
2823.64
2824.2
2829.99
2841.73
2843.78
2807.02
2770.33
2752.54
2758.11
2772.8
2804.53
2819.2
2815.96
2825.09
2843.58
2857.5
2871.05
2879.19
2833.38
2870.19
2844.19
2842.45
2840.78
2840.47
2835.91
2828.92
2816.97
2794.75
2779.77
2781.26
2779.75
2771.03
2776.61
2772.73
2768.18
2765.64
2765.02
2762.22
2757.87
2759.78
2748.11
2744.3
2735.44
2739.4
2796.53
2831.19
2784.59
2738.73
2832.56
2784.08
2765.1
2799.69
2831.76
2867.19
2901.77
2903.27
2882.9
2850.97
2828.17
2814.12
2797.59
2766.19
2765.16
2784.74
2826.58
2856.42
2868.47
2849.93
2848.15
2850.64
2843.06
2851.7
2851.82
2846.8
2816.83
2763.48
2745.63
2807.42
2744.49
2724.76
2709.49
2723.33
2733.98
2734.18
2737.65
2746.65
2759.1
2780.95
2792.74
2585.1
2449.77
2413.14
2429.27
2507.42
2631.35
2771.72
2786.89
2772.05
2756.24
2749.53
2747.68
2764.44
2768.24
2640.86
2603.21
2628.9
2643.59
2703.23
2718.69
2681.4
2656.82
2662.93
2690.53
2718.75
2753.31
2780.09
2774.09
2711.64
2621.28
2556.13
2557.11
2604.18
2679.21
2723.91
2718.39
2678.49
2650.8
2692.82
2715.59
2779.05
2803.57
2856.3
2882.55
2894.83
2911.71
2911.58
2878.54
2870.97
2783.26
2759.99
2829.49
2876.68
2899.36
2955.17
2989.29
2987.04
2956.11
2900.89
2823.36
2789.55
2758.14
2738.56
2729.37
2744.18
2784.57
2877.88
2893.46
2922.86
2930.07
2945.62
2933.28
2889.71
2810.64
2776.23
2820.02
2849.69
2759.36
2706.85
2934.53
2844.49
2792.44
2900.33
2963.29
2987.67
2986.12
2970.52
2947.05
2892.43
2864.8
2852.4
2902.77
2922.43
2924.48
2899.11
2891.07
2889.42
2893.78
2899.72
2855.74
2786.1
2788.26
2878.23
2873.71
2847.74
2852.65
2858.91
2836.81
2829.63
2885.56
2797.25
2683.78
2728.13
2794.61
2828.73
2854.79
2868.11
2865.28
2857
2853.08
2850.8
2874.24
2917.38
2853.79
2765.72
2733.36
2701.96
2703.05
2739.33
2780.8
2854.77
2882.63
2882.96
2903.44
2920.96
2933.3
2919.52
2887.16
2808.25
2814.91
2930.27
2974.35
2982.77
2969.82
2931.91
2916.52
2915.31
2916.4
2911.95
2898.22
2884.27
2869.86
2861.05
2865.25
2862.64
2804.3
2715.34
2709.04
2820.91
2957.8
2903.12
2846.77
2840.41
2934.86
2978.81
2946.41
2896.57
2862.38
2921.86
2364.41
2905.01
2650.72
2604.4
2605.78
2620.14
2645.15
2681.57
2736.14
2804.27
2885.08
2957.99
3001.39
3012.4
2996.33
2965.39
2902.43
2829.26
2760.15
2681.52
2644.44
2634.69
2630.34
2616.07
2958.25
2997.48
2977.99
2991.78
2593.21
2298.67
2934.1
3013.63
3080.15
3081.42
3082.72
3045.49
3006.44
2989.61
2994.59
3019.42
3046.07
3069.46
3065.47
3001.34
2736.21
2815.19
2870.28
2906.87
2948.15
2980.48
2999.7
2984.46
2892.35
2792.77
2724.6
2747.71
2847.22
2895.05
2904.06
2914.7
2939.39
2946.23
2944.33
2953.13
2976.24
2984.56
2960.41
2905.99
2852.34
2822.85
2822.33
2834.95
2788.36
2683.62
2914.76
2888.68
2885.93
2879.67
2841.54
2806.16
2791.1
2805.39
2872.09
2848.67
2838.37
2888.04
2885.69
2904.06
2826.06
2816.8
2853.94
2858.93
2838.34
2842.03
2867.95
2867.27
2872.52
2879.43
2893.07
2903.12
2920.55
2949.82
3005.89
2960.96
2788.95
2786.12
2780.25
2777.15
2755.07
2737.01
2726.67
2744.01
2745.29
2763.09
2783.86
2803.45
2819.35
2816.31
2820.72
2835.38
2834.11
2789.23
2752.43
2741.59
2747.74
2760.91
2793.12
2808.44
2814.27
2825.82
2843.52
2854.48
2869.81
2879.09
2875.73
2866.15
2856.13
2855.88
2853.21
2840.4
2833.42
2828
2813.65
2792.05
2786.72
2787
2771.75
2772.77
2783.15
2779.12
2772.65
2777.77
2776.19
2771.03
2774.81
2769.01
2761.43
2755.63
2746.9
2744.45
2806.21
2834.44
2795.95
2742.88
2825.7
2783.9
2774.24
2813.43
2840.31
2883.38
2922.22
2925.22
2899.77
2866.27
2837.02
2819.46
2798.74
2765.81
2744.6
2761.21
2800.07
2827.66
2860.26
2867.71
2852.97
2858.67
2861.37
2854.27
2853.53
2837.84
2801.91
2751.25
2744.29
2816.21
2737.59
2713.59
2704.43
2716.81
2726.9
2728.31
2735.08
2740.41
2754.84
2779.94
2782.97
2529.76
2416.21
2403.75
2496.02
2681.05
2796.23
2769.75
2744.66
2729.48
2718.32
2714.33
2717.83
2724.54
2757.68
2730.2
2597.41
2595.62
2632.66
2699.48
2715.46
2664.53
2644.56
2657.54
2671.34
2703.4
2737.29
2764.09
2746.98
2663.85
2548.75
2499.71
2526.58
2594.78
2675.84
2714.62
2671.57
2622.41
2609.62
2661.03
2699.01
2758.25
2779.78
2828.3
2847.25
2863.33
2909.05
2919.09
2894.43
2883.56
2774.02
2763.64
2806.63
2812.5
2875.38
2960.02
2991.89
2976.69
2920.15
2863.53
2796.13
2789.69
2783.07
2772.59
2763.58
2798.38
2841.87
2898.06
2900.48
2931.42
2931.61
2939.43
2929.4
2863.16
2823.23
2857.05
2905.3
2902.23
2772.83
2718.08
2938.82
2821.26
2855.14
2956.05
2979.88
2994.48
2994.53
2958.49
2927.68
2852.52
2854.73
2887.96
2942.53
2916.56
2899.25
2858.36
2858.96
2842.57
2840.81
2832.32
2799.54
2776.47
2821.42
2887.14
2868.44
2861.33
2883.47
2873.18
2834.88
2829.37
2881.6
2754
2713.44
2779.14
2795.4
2826.18
2844.91
2848.72
2840.59
2841.57
2855.41
2887.34
2909.38
2843
2733.19
2680.08
2664.24
2629.95
2645.02
2670.33
2707.3
2805.24
2878.34
2879.25
2882.96
2937.19
2929.66
2923.13
2898.22
2799.24
2824.41
2943.05
2976.7
2974.04
2940.47
2925.21
2932.18
2950.1
2960.68
2953.88
2934.39
2903.73
2879.78
2860.1
2849.52
2849.57
2812.61
2720.31
2711.07
2838.38
2973.51
2868.07
2811.52
2814.74
2893.57
2986.32
2942.74
2887.9
2872.86
2816.66
2356.99
2907.41
2646.52
2607.23
2612.2
2635.17
2666.5
2710.19
2768.37
2850.63
2936.6
3012.97
3053
3065.27
3042.46
2990.27
2942.02
2846.97
2786.68
2697.37
2650.44
2628.35
2638.69
2592.8
2802.34
2975.71
2966.41
2800.34
2489.64
2355.07
2928.8
3013.85
3078.88
3080.94
3081.83
3055.05
3037.39
3033.97
3026.3
3031.11
3035.39
3053.26
3056.04
3003.83
2965.79
2955.61
2889.02
2813.61
2845
2912.69
2950.95
2982.18
2996.41
2986.99
2886.79
2790.34
2721.41
2757.26
2855.33
2893.08
2906.74
2930.38
2964.08
2986.72
2992.32
2997.3
3002.82
2993.4
2964.07
2914.88
2857.46
2829.02
2821.03
2787.89
2724.78
2775.47
2891.28
2917.18
2909.64
2883.52
2878.37
2855.92
2828.18
2807.21
2805.91
2852.58
2872.8
2767.94
2805.8
2892.31
2894.18
2894.06
2820.21
2841.43
2875.32
2873.16
2844.68
2862.16
2870.85
2875.5
2878.84
2888.17
2897.69
2910.18
2920.22
2957.27
3001.06
2949.78
2891.88
2799.22
2783.12
2788.7
2782.44
2776.25
2755.81
2735.69
2721.9
2734.42
2743.24
2760.82
2771.94
2790.07
2806.47
2810.83
2816.37
2835.41
2829.47
2784.07
2748.22
2737.62
2746.64
2762.06
2792.22
2808.31
2815.11
2828.97
2845.5
2854.39
2870.67
2887.63
2907.01
2878.72
2882.08
2868.42
2874.94
2880.32
2870.32
2848.5
2837.15
2822.55
2809.18
2795.72
2788.28
2781.47
2771.3
2782.33
2785.82
2784.46
2777
2780.8
2779.33
2787.77
2777.14
2781.44
2767.79
2767.34
2746.49
2760.88
2818.86
2836.44
2787.89
2774.23
2805.03
2781.79
2800.07
2771.6
2785.94
2816.39
2847.26
2896.01
2929.4
2937.4
2917
2883.57
2848.48
2824.24
2807.54
2785.17
2751.51
2733.67
2756.21
2787.42
2809.55
2838.01
2849.86
2842.36
2849.78
2846.19
2830.91
2809.28
2770.04
2733.2
2740.52
2812.24
2824.86
2786.67
2728.95
2704.19
2700.43
2715.9
2722.58
2727.81
2734.81
2743.08
2749.86
2779.58
2756.35
2488.98
2423.06
2496.96
2713.6
2798.33
2752.61
2745.03
2742.38
2745.34
2729.68
2719.42
2708.85
2701.19
2726.23
2770
2615.58
2567.69
2597.78
2681.97
2691.8
2774.88
2689.71
2646.92
2639.05
2646.76
2663.52
2685.93
2725.87
2747.14
2731.88
2623.03
2515.8
2482.89
2535.41
2621.63
2701.15
2705.04
2643.37
2607.25
2633.99
2678.14
2701.13
2749.01
2759.9
2788.77
2797.58
2850.79
2912.5
2927.57
2907.64
2898.73
2907.03
2757.76
2742.95
2729.64
2721.23
2742.38
2854.75
2957.62
2986.58
2967.13
2898.48
2838.64
2792.23
2819.22
2818.67
2831.1
2847.49
2866.93
2888.52
2909
2917.53
2928.84
2938.31
2930.55
2897.5
2871.45
2887.41
2896.9
2834.63
2896.34
2770.86
2783.98
2942.57
2923.37
2899.49
2842.7
2929.05
2970
2988.53
2997.03
2992.75
2953.88
2894.09
2833.4
2852.78
2914.66
2941.77
2906.16
2883.83
2846.62
2832.23
2801.46
2789.42
2784.99
2804.79
2835.19
2883.51
2882.05
2880.81
2901.45
2907.24
2867.87
2832.41
2834.19
2893.57
2879.38
2814.46
2735.49
2758.31
2779.23
2788.45
2812.63
2829.15
2828.27
2823.28
2839.58
2879.21
2916.05
2858.23
2791.3
2697.16
2679.13
2656.9
2654.21
2644.88
2667.14
2707.94
2788.97
2876.86
2866.48
2888.8
2933.77
2934.12
2933.15
2886.74
2803.52
2796.47
2807.01
2840.28
2943.43
2971.26
2951.37
2928.93
2934.15
2965.33
3000.66
3016.24
3007.47
2973.7
2931.67
2895.44
2874.11
2856.07
2853.6
2831.1
2739.39
2716.19
2826.21
2961.56
2906.98
2851.2
2860.71
2950.34
2979.35
2917.58
2877.51
2930
2576
2389.93
2335.98
2436.19
2884.16
2645.2
2608.41
2614.08
2644.84
2680.39
2725.05
2787.37
2867.22
2954.58
3026.64
3060.53
3068.27
3050.4
2985.83
2941.01
2841.89
2782.99
2698.04
2650.69
2624.35
2633.82
2603.08
2685.85
2991.14
2956.19
2980.06
2976.35
2844.2
2537.2
2512
2922.5
2991.9
3077
3079.61
3083.71
3067.2
3057.74
3028.21
2991.16
2949.75
2951.3
2984.77
3032.18
3024.99
3001.67
2983.35
2932.69
2836.82
2850.08
2922.28
2957.07
2989.67
2999.2
2983.48
2876.54
2789.51
2721.49
2763.39
2852.3
2890.66
2906.86
2935.17
2973.43
2996.94
3008.85
3010.72
3010.46
2997.43
2954.56
2895.64
2850.1
2833.69
2812.94
2763.34
2730.41
2799.33
2911.46
2911.44
2900.33
2881.1
2860.58
2844.28
2830.03
2815.54
2833.92
2889.26
2747.3
2687.28
2775.18
2894.92
2896.7
2887.72
2819.57
2861.31
2891.82
2879.98
2862.34
2866.46
2886.99
2885.74
2891.43
2895.96
2906.14
2914.64
2930.41
2971.82
2991.97
2934.28
2877.98
2783.61
2771.9
2786.94
2780.35
2779.96
2762.75
2748.78
2727.85
2738.69
2756.44
2766.79
2776.22
2788.02
2797.73
2813.53
2814.25
2831.37
2836.56
2790.73
2753.16
2743.6
2749.66
2771.01
2791.85
2807.58
2818.87
2834.89
2847.13
2857.87
2874.77
2898.95
2908.09
2896.05
2899.89
2893.37
2891.35
2887.54
2885.66
2863.7
2837.18
2820.71
2808.79
2798.38
2791.27
2782.97
2772.79
2789.06
2796.1
2796.48
2789.2
2793.21
2789.85
2788.97
2786.97
2778.29
2775.91
2768.06
2756.79
2782.47
2840.02
2824.95
2790.96
2790.46
2807.37
2806.5
2806.05
2798.7
2803.17
2819.46
2853.65
2890.8
2928.05
2938.15
2922.25
2887.84
2864.89
2840.27
2814.89
2797.34
2771.47
2746.14
2734.57
2748.73
2762.58
2767.18
2784.48
2792.72
2785.39
2788.51
2775.57
2757.39
2741.47
2726.88
2742.43
2806.83
2813.44
2796.6
2739.51
2702.33
2699.03
2712.43
2723.02
2726.08
2733.03
2741.04
2751.91
2778.49
2740.09
2487.88
2480.26
2675.77
2807.93
2760.12
2749.06
2765.32
2769.36
2760.89
2738.61
2723.14
2709.39
2707.09
2724.34
2766.55
2613.9
2549.24
2564.84
2630.82
2720.37
2774.46
2675.15
2643.31
2638.95
2646.83
2652.68
2674.7
2708.65
2739.98
2725.79
2609.09
2503.8
2491.61
2558.06
2668.96
2722.77
2705.44
2615.26
2600.95
2631.11
2678.89
2691.51
2714.21
2718.83
2745.49
2789.99
2880.29
2938.33
2937.91
2920.88
2898.91
2804.63
2722.73
2683.94
2634.26
2604.69
2667.78
2812.62
2947.96
2982.62
2959.15
2905.55
2839.48
2802.38
2831.06
2837.71
2863.08
2872.57
2893.83
2896.27
2916.09
2911.67
2925.1
2926.31
2910.31
2913.91
2914.05
2847.63
2758.24
2870.06
2861.01
2824.33
2915.5
2929.73
2890.75
2879.13
2901.39
2960.23
2968.86
2989.04
2993.51
2985.54
2948.6
2878.38
2813.64
2843.77
2906.04
2940.04
2911.43
2893.28
2866.48
2849.1
2844.66
2837.18
2862.79
2860.33
2880.52
2893.19
2906.88
2915.64
2917.23
2898.07
2861.02
2851.3
2884.27
2880.93
2812.66
2759.36
2754.44
2780.97
2776.9
2778.88