/*--------------------------------*- C++ -*----------------------------------*\
| =========                 |                                                 |
| \\      /  F ield         | OpenFOAM: The Open Source CFD Toolbox           |
|  \\    /   O peration     | Version:  2.1.1                                 |
|   \\  /    A nd           | Web:      www.OpenFOAM.org                      |
|    \\/     M anipulation  |                                                 |
\*---------------------------------------------------------------------------*/
FoamFile
{
    version     2.0;
    format      ascii;
    class       volScalarField;
    location    "0.007650000";
    object      k;
}
// * * * * * * * * * * * * * * * * * * * * * * * * * * * * * * * * * * * * * //

dimensions      [0 2 -2 0 0 0 0];

internalField   nonuniform List<scalar> 
12384
(
49.1176
85.328
109.464
133.367
157.507
179.593
196.628
204.44
203.135
192.962
173.957
142.605
96.6196
45.2254
142.256
197.479
235.392
260.531
282.691
305.394
329.622
354.022
380.158
400.5
404.733
411.546
435.564
497.29
630.278
791.759
981.729
1175.74
1338.82
1438.5
1439.13
1350.66
1275.51
1195.63
1096.01
965.509
794.129
569.832
286.222
100.935
272.432
359.33
426.348
472.062
507.743
542.755
587.487
637.9
664.129
662.955
665.691
691.245
761.065
921.199
1168.38
1447.01
1743.91
2018.44
2238.36
2335.84
2320.51
2219.9
2078.34
1904.27
1695.37
1446.44
1142.59
770.892
351.368
195.7
337.971
517.81
768.76
1000.28
1184.75
1344.21
1534.69
1726.05
1750.28
1636.49
1465.56
1297.21
1164
1089.51
1110.38
1241.45
1474.51
1766.11
2071.29
2326.85
2505.53
2611.97
2658.93
2610.41
2469.17
2236.06
1897.26
1394.15
737.892
396.262
539.491
755.754
895.362
951.527
982.699
1095.44
1413.92
1936.3
2593.37
3329.67
4041.34
4651.86
5024.47
5129.77
4975.5
4834.6
4621
4340.12
3944.34
3433.15
2783.3
1945.84
809.448
311.497
260.23
258.991
263.63
258.534
248.229
230.119
187.891
268.634
347.287
437.264
546.594
666.281
789.478
923.643
1038.23
1071.26
1054.18
1040.84
1066.21
1197.21
1466.23
1804.19
2180.71
2535.86
2802.9
2909.92
2819.83
2768.08
2685.82
2558.22
2354.17
2052.86
1633.65
1082.52
514.948
294.206
150.272
259.838
409.475
571.106
720.356
843.08
934.022
986.124
1072.8
1280.36
1634.87
2073.16
2607.95
3201.77
3801.98
4297.87
4610.72
4612.59
4248.72
3911.66
3628.26
3352.85
3000.27
2507.58
1810.98
925.504
319.885
212.343
210.944
251.134
157.16
252.836
415.579
679.352
1138.51
1743.86
2468.34
3285.99
4136.5
4921.68
5551.15
5810.07
5703.78
5131.78
4718.57
4351.45
3975.99
3499.92
2886.4
2114.28
1194.83
493.123
311.748
274.799
268.412
268.435
257.626
237.927
225.564
226.714
420.405
864.376
1456.28
2250.98
3068.35
3946.41
4854.04
5702.31
6367.81
6745.66
6624.33
5992.26
5383.66
4799.94
4196.54
3485.5
2602.97
1585.63
704.257
394.146
327.059
318.037
323.26
324.739
306.301
269.691
226.146
190.169
162.401
146.498
269.646
528.313
933.139
1407.83
2040.64
2804.71
3700.89
4672.51
5609.83
6421.52
6832.78
6852.8
6282.85
5631.55
5058.51
4424.51
3716.65
2874.6
1909.32
1044.42
574.39
405.654
368.223
370.474
367.015
333.534
296.716
271.571
260.698
263.203
894.632
1668.68
2248.16
2957.72
4034.36
5087.53
5929.8
6449.22
6460.18
5796.44
4917.9
4130.38
3347.36
2544.52
1784.98
1206.73
944.807
806.357
703.867
628.597
581.79
554.487
541.783
520.477
496.281
463.132
429.418
394.247
356.983
320.121
150.552
147.768
266.297
524.919
844.709
1130.95
1363.32
1536.32
1642.19
1666.85
1635.41
1549.02
1415.92
1228.13
1047.28
881.4
769.651
725.307
750.183
832.941
949.208
1060.05
1112.43
1016.1
907.692
835.229
776.91
699.76
571.922
394.716
66.0244
90.1906
80.7135
61.1671
47.9793
80.3048
368.25
879.715
1324.07
1634.71
1894.08
2104.27
2269.72
2380.19
2440.85
2352.61
2135.01
1817.37
1461.43
1105.93
812.664
630.941
526.666
450.613
379.122
304.789
232.174
158.603
84.6018
25.5985
85.0936
58.0249
77.6969
108.882
144.472
181.081
214.026
236.69
246.087
238.743
213.72
174.015
124.934
107.053
150.924
205.464
341.135
519.562
699.557
836.067
901.356
880.312
776.67
639.618
524.433
460.778
471.237
598.19
862.192
1273.68
1830.04
2503.14
3230.27
3904.84
4403.03
4628.21
4532.14
4151.72
3522.72
2726.93
1874.53
1108.05
537.64
363.055
393.768
727.347
1135.43
1492.93
1719.73
1784.75
1674.66
1426.44
1141.96
894.818
731.822
688.914
818.457
1160.55
1696.03
2419.72
3289.02
4233.77
5135.46
5850.28
6244.22
6257.08
5919.3
5286.25
4433.17
3446.94
2428.93
1496.58
741.96
555.687
771.434
1843.6
3176.64
4271.13
4934.89
5150.76
4888.14
4252.74
3474.15
2688.23
2010.84
1494.44
1145.43
990.556
1112.39
1548.28
2302.44
3298.52
4384.79
5369.64
6066.25
6361.79
6236.34
5702.88
4837.47
3773.4
2692.48
1745.81
1009.55
1059.77
418.921
470.004
416.289
387.356
535.848
1066.53
2151.09
3848.25
6119.89
8916.54
12032.8
15221.6
18041.2
20095.6
21050.6
20719.7
19258.9
16925.2
13915.3
10517.9
7050.59
4099.84
1998.92
789.507
340.909
263.876
270.274
259.691
253.426
289.894
293.879
693.163
1267.14
1856.83
2307.04
2536.06
2524.72
2255.52
1851.96
1458.44
1164.82
1048.57
1197.89
1691.24
2542.71
3749.49
5278.02
7013.12
8742.38
10180.4
11065
11214.6
10617.5
9438.53
7822.47
5995.76
4165.87
2535.9
1272.87
739.376
327.586
838.387
1164.45
1338.95
1336.91
1187.34
1039.94
986.33
1095.11
1478
2147.95
3144.05
4540.39
6374.25
8606.21
11070.7
13512.6
15594.2
16968.6
17299.2
16612.9
15100.5
12912
10254.8
7320.67
4427.05
2083.29
618.088
158.642
287.301
174.617
138.689
256.917
705.364
1501.77
2662
4259.27
6377.37
9019.2
12115.9
15428.4
18551
20987.4
22371.9
22323.3
20970.5
18559.6
15255.2
11331.7
7243.2
3819.47
1611.37
508.755
260.25
268.936
259.097
232.745
178.859
139.382
250.873
358.425
530.671
1246.51
2437.48
4109.87
6250.97
8886.21
11920.1
15174.2
18276
20775.8
22190.2
22205.8
20953.1
18572.6
15237.7
11151.3
6868.57
3318.54
1097.91
376.434
387.851
418.293
423.263
396.547
316.724
224.106
156.846
122.304
173.464
240.834
356.047
566.082
1117.47
2187
3880.23
6257.81
9280.06
12904.3
16892
20837.5
24171.5
26356.6
26939
25908.8
23429.3
19807.1
15226.4
10188.4
5565.29
2209.2
711.16
417.277
363.687
351.871
299.722
222.988
162.319
140.357
261.782
553.359
643.193
1240.96
3082.94
5415.71
7954.69
10596.7
13213.8
15530
17179.9
17784.7
17141.2
15142
12044.9
8507.04
5222.24
2591.49
998.57
566.635
537.814
535.958
519.21
514.404
501.208
482.36
448.261
406.902
370.883
346.227
310.098
263.544
349.711
685.977
1143.84
1731.31
2394.81
3050.13
3607.92
3986.21
4131.47
4015.04
3638.72
3077.68
2435.05
1831.85
1331.94
1011.67
871.313
913.88
1117.64
1444.22
1878.13
2367.96
2839.59
3145.78
3105.22
2756.52
2124.29
1317.54
657.362
130.408
178.081
157.729
146.96
192.643
480.873
1038.3
1930.16
3122.57
4543.79
5985.75
7195.67
7973.03
8203.63
7836.52
6950.87
5738.87
4415.58
3157.99
2081.63
1244.37
700.814
450.712
400.585
443.25
484.222
468.79
386.366
250.174
58.4473
123.492
91.876
122.607
165.143
206.911
242.6
269.368
284.267
287.107
276.305
251.12
213.797
167.99
151.128
166.16
242.56
364.213
497.988
597.668
638.904
625.024
577.358
523.308
508.848
548.338
639.674
808.667
1100.31
1535.9
2081.97
2672.86
3264.13
3826.27
4315.79
4654.26
4792.42
4716.52
4444.53
3977.82
3324.61
2509.38
1643.64
891.748
581.153
444.998
874.736
1121.68
1232.97
1210.27
1101.55
955.869
837.894
779.564
789.362
875.429
1092.47
1526.99
2177.57
2971.94
3831.95
4685.77
5491.07
6188.57
6698.84
6942.36
6894.88
6573.52
6025.79
5296.7
4404.04
3370.3
2278.96
1273.34
931.003
1042.85
2597.36
3634.49
4117.25
4161.46
3966.26
3622.95
3228.18
2854.01
2531.02
2258.46
1994.44
1751.18
1715.86
2072.75
2867.07
3981.25
5220.69
6399.69
7376.07
8007.4
8216.51
7995.99
7405.02
6486.65
5303.48
3972.65
2678.96
1606.3
1608.31
374.22
384.838
290.569
387.789
931.435
2176.19
4114.81
6485.84
9018.3
11627.2
14193.5
16678.1
18872.5
20524.2
21282.2
21068.1
20074.6
18395.5
16204.7
13461.8
10221.6
6850.35
3946.86
1915.08
743.956
274.404
201.969
263.193
322.994
341.324
350.625
911.841
1397.44
1728.08
1818.35
1714.83
1508.67
1285.19
1138.38
1112.22
1233.68
1574.02
2216.38
3168.29
4360.91
5696.5
7124.5
8600.83
10020.1
11217.6
11984.2
12101.6
11619.6
10607.1
9182.53
7482.23
5627.72
3775.78
2141.73
1222.61
410.746
1084.03
1163.75
1099.9
997.641
961.391
1083.72
1330.25
1759.49
2477.86
3406.99
4515.99
5776.74
7208
8812.82
10553
12314.6
13921.1
15144.6
15705.5
15550.7
14770.5
13499.3
11764.6
9519.21
6800.5
4017.6
1728.55
461.305
304.789
218.516
178.287
469.339
1267.81
2502.45
4150.67
6122.03
8335.22
10690.8
13167.6
15656.8
18025.7
19987.6
21324.9
21695.6
21181.4
19899.7
17922.7
15083
11372.3
7351.28
3928.46
1685.44
543.034
179.12
191.143
248.849
221.827
159.973
271.476
625.611
978.437
2166.96
4082.34
6444.01
8906.55
11357.6
13719.1
16033.5
18165.7
19984.9
21170.6
21454.2
20935
19726.9
17804.6
14933.7
11070.1
6880.42
3359.38
1160.63
333.824
294.813
425.613
533.284
491.486
359.675
240.175
174.537
205.386
258.598
442.819
846.085
1925.09
3835.41
6437.29
9488.75
12711.7
16044.9
19317.8
22448.9
25094.1
26898.2
27437.5
26803.5
25250.3
22747.4
19240.2
14743.1
9699.58
5088.98
1870.01
550.6
337.978
425.096
411.266
305.178
210.498
164.414
280.857
468.515
838.338
2888.55
6336.32
10107
13459.2
16204.9
18452.1
20311.4
21731.2
22423.1
22210.1
20961.8
18434.9
14733.2
10431.3
6312.35
2974.91
1094.39
603.661
567.206
554.421
542.331
501.924
435.909
340.041
257.964
239.764
294.003
315.036
487.201
633.387
1112.66
1740.89
2449.08
3159.74
3797.51
4310.68
4649.8
4790.24
4714.34
4423.4
3950.41
3369.61
2759.05
2182.44
1732.53
1449.04
1372.65
1433.2
1547.36
1649.96
1755.75
1933.14
2182.25
2387.28
2446.79
2237.07
1672.65
793.862
173.028
202.858
123.325
161.248
461.913
1067.44
2016.88
3315.83
4848.71
6432.81
7850.21
8945.68
9630.16
9858.77
9626.17
8950.09
7944.04
6706.6
5327.66
3877.58
2485.38
1341.56
615.855
281.972
182.119
172.72
203.851
223.977
192.79
37.2816
151.13
137.93
183.156
237.064
281.517
309.734
322.568
325.453
321.287
309.827
290.605
264.772
232.431
194.349
188.1
304.87
392.857
468.406
492.347
461.899
405.27
360.65
367.622
465.367
652.714
907.956
1245.02
1703.92
2321.85
2963.04
3492.67
3871.49
4128.92
4313.78
4448.5
4512.9
4456.43
4295.7
4023.78
3601.43
2968.99
2154.81
1309.47
782.007
478.971
1052.6
1082.88
956.221
761.234
588.537
500.834
529.78
677.999
914.184
1229.96
1689.44
2410.68
3342.7
4281.44
5076.05
5663.5
6093.72
6395.52
6608.75
6687.37
6609.39
6380.28
6017.94
5540.93
4903.13
4053.75
2993.52
1849.02
1253.83
1241.24
3413.16
3891.15
3670.33
3176.98
2720.12
2411.84
2318.25
2409.03
2591.34
2738.1
2713.24
2571.53
2733.82
3480.46
4731.54
6103.42
7318.15
8267.78
8944.05
9317.32
9347.46
9048.92
8489.52
7662.12
6561.25
5204.2
3729.85
2362.4
2080.72
396.543
392.598
271.502
552.491
1632.29
3632.59
6227.16
8817.28
11012.9
12781.2
14208.7
15439.2
16539.8
17512.6
18172.8
18317.4
18019.6
17326.5
16252.6
14703
12434.7
9444.85
6217.4
3447.91
1558.77
579.86
215.474
248.625
360.711
377.463
390.538
1132.57
1426.31
1469.9
1284.37
1010.53
782.699
686.932
772.848
1071.49
1593.25
2343.34
3385.04
4662.41
5946.81
7086.94
8055.97
8919.56
9701.84
10432
11033
11259.5
11084.8
10505.8
9551.84
8286.32
6742.55
4984.03
3184.65
1659.82
478.046
1391.1
1164.91
878.15
740.149
855.986
1241.92
1758.16
2461.36
3468.36
4636.65
5812.88
6845.04
7738.32
8513.55
9274.8
10088.9
10956.3
11796.7
12430.3
12750.6
12729.8
12405.5
11710.5
10452.3
8396.33
5699.09
2929.71
997.4
361.608
266.229
254.325
765.008
1876.41
3539.16
5655.03
7909.07
9987.5
11695.4
13094.8
14318.6
15513.9
16651
17696
18390.2
18667.3
18561.9
18001.1
16717.2
14262.4
10680
6731.17
3461.65
1419.68
428.466
178.305
266.07
259.346
179.975
283.983
1191.15
1599.56
3267.11
5773.25
8496.88
10816.7
12556
13774.1
14717.1
15539.5
16377.4
17148.6
17706.3
17993.8
18026.5
17706.7
16612.2
14165.2
10389.2
6249.84
2921.31
994.922
385.735
501.801
704.624
684.413
506.051
343.244
261.574
247.939
348.193
567.764
1269.9
2948.62
5615.05
8852.52
12106.4
14908.3
17259
19164.7
20855.8
22310.1
23557
24285.2
24321.6
23774.1
22607.1
20629.9
17495.7
13102.9
8158.24
3828.6
1221.63
471.211
521.29
510.193
373.744
256.649
205.157
306.067
742.808
2052.6
5576.96
10401.4
14835.2
17921.4
19658.9
20550
21130.7
21750.8
22362.3
22651.4
22541.7
21429.9
18864.4
14867.4
10154.5
5619.07
2258.86
841.267
624.726
640.658
667.148
654.417
583.611
449.885
300.677
229.961
296.933
340.005
724.616
901.824
1519.75
2258.32
2989.31
3634.22
4155.94
4552.99
4821.55
4962.5
4959.48
4809.79
4533.77
4157.15
3674.9
3129.43
2579.5
2144.5
1922.92
1854.36
1795.53
1589.53
1285.71
1108.81
1219.91
1555.07
1964.76
2222.68
2045.83
879.557
200.54
209.869
148.749
357.497
900.668
1835.28
3172.63
4740.42
6303.89
7652.73
8657.69
9326.78
9718.27
9900.01
9856.53
9567.07
9059.9
8290.68
7199.27
5704.09
3931.31
2232.21
1022.85
385.726
149.063
72.4119
83.3852
124.307
137.071
17.0873
170.024
195.645
258.462
319.115
354.32
360.75
348.388
334.389
325.4
322.215
321.788
322.33
317.105
237.268
212.307
382.247
430.535
453.461
421.227
343.782
263.664
227.431
278.334
466.438
795.033
1210.89
1695.78
2323.8
3113.25
3781.02
4133.11
4166.16
4009.26
3816.74
3700
3674.54
3706.35
3753.62
3762.27
3634.21
3267.91
2613.87
1768.46
959.243
494.982
1262.97
1085.55
765.261
461.944
278.779
262.891
413.992
740.641
1159.71
1637.81
2297.34
3294.34
4439.4
5354.3
5840.02
5942.79
5829.82
5643.33
5513.1
5436.44
5414.88
5407.02
5374.01
5264.15
4995.7
4469.85
3593.29
2433.03
1521.15
1371.86
4365.95
4193.78
3290.7
2334.58
1667.58
1398.25
1584.79
2122.08
2769.66
3284.58
3472.75
3476.85
3994.62
5307.78
6940.64
8189.9
8870.44
9129.22
9196.35
9208.29
9125.13
8930.44
8622.06
8105.11
7307
6157.47
4730.68
3228.27
2512.84
469.549
438.422
303.377
842.679
2492.12
5113.02
8044.68
10413
11823.2
12362
12424.6
12281
12228.5
12398.5
12822.4
13399
13978.2
14438.1
14670.1
14476.4
13470.1
11336.1
8262.48
5040.96
2481.99
1008.27
368.274
249.722
365.549
408.527
412.079
1369.61
1460.14
1272.65
920.241
587.025
395.346
396.244
640.984
1211.36
2023.6
3046.63
4378.49
5825.98
6990.94
7713.19
8017.13
8056.89
8017.77
8096.77
8394.61
8789.77
9124.83
9244.46
9046.64
8482.72
7520.2
6135.77
4410.16
2036.18
531.862
1769.45
1226.02
721.673
562.995
812.462
1417.52
2140.42
3050.03
4297.97
5705.32
6965.16
7780.86
8139.52
8042.06
7733.45
7476.1
7472.72
7787.13
8414.7
9165.59
9892.69
10475.8
10776
10506.8
9276.45
6972.85
4031.43
1594.61
439.401
326.77
351.223
1059.36
2453.25
4535.72
7099.3
9554.32
11330.5
12145.2
12199.6
11953.4
11784.2
11933.9
12501.9
13423.7
14466.8
15483.9
16305.6
16543.3
15607
13036.6
9238.1
5376.45
2531.9
930.578
303.094
288.215
282.895
195.038
296.798
1872.62
2245.12
4287.08
7151.71
9925.82
11797.9
12582.6
12502.1
12002.8
11532.9
11384.6
11675.4
12437
13481
14694.5
15867.9
16536.8
15814.1
13074.1
8960.92
4911.47
2088.06
807.897
667.307
866.743
829.384
602.235
416.898
358.275
294.027
549.86
734.046
1774.72
3978.71
7208.86
10776.6
13806.5
15733
16623.2
16833.2
16851.3
16981.3
17495.2
18309.8
19208.2
20007.1
20408.1
20146.9
18645
15428
10756.9
5833.51
2206.02
751.704
606.957
552.853
389.716
270.39
241.878
331.309
1882.2
4007.83
8698.91
14101.2
18148.9
20050.4
20166.9
19309
18355.8
18009.1
18536.7
19476.8
20521
20986.1
20103.7
17327.7
12976
7958.62
3530.36
1208.49
749.592
812.077
923.103
982.633
945.801
789.837
549.864
339.13
317.529
364.108
894.499
1138.44
1854.12
2625.31
3292.61
3786.69
4106.85
4293.07
4386.76
4435.37
4462.78
4478.51
4519.45
4527.22
4374.45
4013.08
3435.21
2837.14
2423.96
2227.73
2058.57
1665.11
1051.52
581.13
570.327
957.743
1602.36
2248.63
2448.5
912.911
219.76
218.105
234.13
578.209
1329.87
2572.36
4175.06
5800.58
7119.95
7959.48
8307.15
8342.65
8250.66
8195.75
8227.64
8366.72
8597.57
8654.79
8265.39
7147.97
5304.54
3157.87
1480.79
563.379
199.737
65.2056
46.5356
73.337
95.0969
6.66075
179.434
263.674
339.425
393.274
403.435
376.471
335.391
305.217
295.557
310.862
344.974
386.934
419.23
276.41
232.982
459.747
472.564
452.916
380.527
274.638
182.097
150.069
225.296
485.045
935.014
1475.59
2085.09
2870.48
3799.15
4405.53
4471.08
4071.02
3471.67
2915.19
2559.78
2477.51
2657.31
2983.76
3324.86
3531.25
3461.59
3021.57
2229.99
1085.43
472.681
1454.13
1121.45
666.061
307.092
143.745
188.926
444.127
884.153
1383.15
1949.6
2782.38
4047.46
5309.12
6020.36
6025.17
5552.33
4883.67
4255.52
3820.93
3629.01
3716.98
4008.57
4380.53
4709.64
4869.7
4722.56
4096.91
2982.78
1693.62
1408.43
5367.76
4577.29
3081.13
1757.57
950.164
709.06
1090.24
1969.51
2962.64
3753.52
4116.77
4340.45
5387.81
7328.11
9008.12
9590.01
9233.52
8445.67
7695.92
7283.77
7206.02
7378.62
7640.21
7745.43
7510.56
6793.54
5624.72
4139.78
2848.85
573.955
504.708
379.793
1223.51
3360.98
6410.93
9431.61
11335.9
11826.9
11162.1
9991.58
8669.01
7648.74
7089.67
7200.04
8015.98
9306.08
10806.5
12233.7
13305.8
13539.3
12378.8
9734.63
6335.46
3290.04
1386.69
529.717
284.422
355.821
439.959
407.841
1565.21
1499.58
1164.77
732.222
399.8
257.546
318.374
661.466
1367.49
2305.37
3477.95
4995.15
6502.02
7446.71
7708.89
7359.45
6592.65
5742.53
5137.54
5025.87
5521.63
6367.93
7279.27
7960.47
8242.95
8026.94
7215.37
5763.57
2302.69
543.888
2163.59
1351.06
624.507
427.95
768.858
1530.78
2381.94
3435.58
4857.95
6498.99
7898.84
8608.44
8565.2
7718.81
6425.56
5143.96
4287.5
4062.41
4612.16
5712.37
7051.39
8383.13
9511.88
10098.8
9663.75
7864.46
4938.49
2141.19
490.958
421.875
451.461
1301.33
2940.87
5406.89
8378.16
10992.5
12418.9
12316.7
11064.7
9433.42
7974.66
7183.68
7215.79
8190.4
9810.39
11712.2
13654.9
15161.4
15632.9
14210.8
10982.9
6969.92
3583.78
1461.35
496.609
323.467
290.497
208.566
317.487
2393.82
2754.24
5071.26
8134.83
10832.2
12205.9
12106.2
10891.8
9164.79
7577.62
6541.72
6356.04
7229.25
8835.93
10929.2
13242.3
15313.2
16132.3
14553.2
10874.5
6529.28
3105.22
1292.8
871.904
975.696
877.498
605.55
445.412
463.463
326.793
902.046
926.853
2261.32
4851.1
8463.06
12125.3
14640.4
15458.8
14789.8
13406.9
11907.7
10908
10779.9
11689.4
13344.1
15311.5
17152.6
18529.7
18626.5
16702.6
12589.5
7415.64
3078.49
1038.81
648.185
525.806
351.232
260.764
282.325
355.891
3619.99
6307.86
11453.6
16501.2
19478.8
19934.7
18497
16054.7
13761.8
12450.3
12630.4
14070.7
16208.3
18241.3
19100.5
17938.3
14576.6
9655.38
4573.82
1606.71
988.134
1097.67
1303.01
1459.73
1489.09
1336.67
1016.77
637.971
405.379
394.064
980.556
1315.59
2091.72
2854.34
3417.94
3706.02
3747.19
3616.62
3411.44
3258.43
3275.22
3504.24
3925.97
4415.19
4741.36
4715.07
4217.17
3438.33
2772.81
2427.01
2192.62
1770.6
1090.15
476.467
359.684
695.716
1429.83
2315.06
2773.86
882.183
241.148
228.866
303.562
728.654
1634.05
3088.15
4812.67
6339.26
7275.93
7493.1
7114.84
6424.25
5758.69
5417.75
5552.73
6173.54
7103.81
7998.63
8434.04
7959.06
6381.51
4002.51
1888.64
715.617
256.718
84.935
42.7293
53.6846
70.4657
2.76798
182.383
335.371
413.112
445.626
418.156
351.45
282.233
238.544
235.137
281.787
367.078
463.197
531.974
306.325
250.937
518.029
514.397
467.471
369.185
246.961
147.21
116.332
204.303
508.619
1027.97
1641.16
2338.42
3259.81
4280.25
4752.2
4490.9
3687.14
2733.12
1911.54
1397.9
1306.32
1656.49
2260.45
2918.22
3437.66
3637.35
3396.29
2633.08
1108.61
442.272
1578.99
1155.83
640.517
283.477
163.495
261.14
560.526
1002.93
1483.91
2083.47
3086.25
4610.5
5887.64
6289.42
5791.53
4814.01
3712.73
2781.36
2148.84
1906.08
2124.87
2716.95
3485.48
4231.46
4776.06
4971.74
4548.05
3411.16
1696.18
1317.72
6250.16
4983.41
3040.84
1466.48
608.851
419.623
891.189
1914.12
3064.15
4014.15
4509.7
5017.89
6714.55
9170.47
10486.9
10038.7
8503.61
6688.18
5213.46
4405.03
4368.75
5039.85
6031.21
6947.46
7418.74
7248.31
6437.56
4995.42
2964.47
684.731
584.977
507.382
1677.11
4168.42
7495.21
10500.1
11940.8
11678.4
10117.6
8106.52
6016.72
4332.63
3224.93
2954.75
3763.21
5451.64
7608.66
9894.01
11906.5
13092.8
12744.9
10546.5
7111.78
3752.84
1574.36
586.113
290.858
346.662
479.582
391.943
1675.91
1510.38
1106.74
672.85
380.867
283.171
376.26
736.832
1422.39
2333.74
3548.33
5181.45
6708.61
7479.05
7430.19
6646.73
5302.43
3828.35
2658.21
2146.55
2622.46
3822.23
5346.16
6780.03
7847.26
8376.18
8190.12
7103.02
2381.17
533.657
2488.68
1526.9
586.754
322.685
702.965
1534.9
2437.22
3562.29
5105.71
6914.41
8513.59
9293.5
9091.3
7789.94
5804.18
3717.09
2125.7
1460.62
1957.09
3230.47
4904.06
6720.73
8421.3
9632.49
9811.28
8448.92
5582.35
2533.14
494.061
559.038
561.874
1497.9
3290.05
6058
9361.58
12148.7
13336.3
12536.7
10290.3
7606.57
5134.35
3548.05
3069.75
3995.76
5898.14
8287.47
10937.9
13312.7
14835
14395.2
11865.6
8000
4344.73
1854.5
638.816
347.369
288.013
234.317
390.245
2662.73
3042.45
5594.34
8810.3
11472.2
12510.8
11805.5
9804.58
7202.42
4747.73
3013.52
2487.14
3396.49
5276.55
7804.32
10771
13681
15539.9
14871.3
11792.8
7434.47
3703.92
1602.84
1006.61
990.654
804.057
521.9
472.209
600.883
339.515
1318.78
1105.36
2669.33
5496.43
9341.37
12955
14875.8
14670.9
12717.9
10126.4
7472.93
5614.24
4984.61
6059.69
8272.38
11081.5
14022.7
16627.5
18035.1
17177.3
13590.3
8294.28
3522.5
1162.44
613.293
458.085
332.362
305.186
366.95
411.982
4583.27
8254.64
13102.1
17321.1
19250.9
18630.6
16019.5
12293.3
8867.48
6812.72
6768.43
8699.15
11673.5
14904.8
17215.3
17566.7
15321.6
10746.3
5341.57
2083.37
1400.78
1487.56
1706.44
1907.96
1979.15
1855.35
1526.33
1067.23
666.416
489.49
972.701
1410.01
2232.43
3015.62
3518.49
3620.74
3377.32
2886.68
2328.63
1941.04
1922.42
2323.69
3080.36
4007.79
4834.65
5214.61
4874.77
3921.78
2942.61
2396.79
2114.63
1776.31
1232.6
689.121
488.342
698.456
1386.21
2346.19
2930.02
808.514
271.843
237.779
323.877
762.775
1721.34
3282.55
5073.05
6490.91
7078.46
6776.51
5779.52
4461.81
3296.48
2719.87
2956.84
3936.85
5381.22
6919.53
8038.83
8204.29
7063.52
4700.58
2249.09
819.268
285.599
105.93
53.1755
54.2069
63.3779
1.98557
179.621
395.031
463.787
468.977
401.519
298.529
207.743
158.037
168.935
257.62
403.817
551.727
631.552
321.99
272.111
549.013
548.661
490.257
379.378
249.23
146.596
115.27
206.579
517.415
1041.85
1670.95
2410.9
3433.82
4490.17
4821.69
4291.82
3222.03
2084.84
1153.26
573.703
511.659
1011.22
1831.48
2734.91
3489.66
3854.85
3706.43
2893.59
1056.43
431.932
1613.49
1146.11
646.311
353.513
291.862
406.211
669.601
1024.93
1429.99
2045.1
3229.99
4988.27
6219.36
6336.09
5465.85
4175.91
2839.85
1754.75
1025.84
747.846
1082.19
1955.47
3073.65
4174.62
4990.43
5344.49
4916.02
3640.04
1635.99
1117.48
6897.84
5321.52
3108.63
1414.96
577.649
450.083
920.32
1879.15
2996.83
3976.71
4564.69
5403.44
7744.42
10532.5
11280.5
9911.06
7519.1
5051.47
3137.84
2064.43
2037.4
3072.58
4709.2
6360.06
7449.03
7745.64
7187.18
5649.65
2842.71
822.015
740.78
774.093
2254.36
4956.14
8424.97
11426.3
12601.8
11930.4
9908.79
7480.26
5009.21
2980.13
1531.94
855.364
1469.38
3237.26
5659.83
8400.39
10924.4
12627.7
12716.5
10795.3
7314.96
3780.86
1519.11
522.925
280.317
366.948
527.748
398.282
1673.91
1461.82
1070.08
695.387
464.213
398.381
489.838
786.932
1332.92
2108.48
3297.48
5010.56
6560.37
7313.45
7224.47
6347.46
4798.61
3021.17
1499.6
656.492
975.66
2251.75
4042.21
5918.29
7528.6
8626.05
8950.13
8215.22
2217.63
535.957
2648.56
1753.11
665.299
266.308
608.784
1422.63
2303.11
3417.09
4993.03
6914.88
8719.5
9721.07
9635.31
8294.79
6113.06
3668.24
1630.78
616.684
926.993
2105.38
3813.75
5826.2
7816.19
9359.65
9865
8749.27
5875.71
2678.88
476.008
746.863
706.344
1657.32
3519.91
6396.09
9893.64
12881.1
14072.5
12980.1
10259.5
7026.54
3954.06
1781.28
868.072
1658.58
3482.49
5955.23
8867.61
11680.8
13764.7
13949.7
11992.5
8382.57
4674.84
2020.08
690.158
351.992
313.571
332.268
607.568
2640.36
3231.06
5938.87
9244.48
11953
12940.6
12020.2
9710.13
6712.73
3788.8
1586.71
843.779
1611.29
3398.58
5943.86
9121.3
12334.2
14592.1
14306.1
11622.7
7387.86
3654.2
1557.23
953.944
870.277
661.524
483.392
579.117
765.996
392.415
1640.62
1273.17
2973.69
5881.26
9817.99
13329.5
14811.8
13935.3
11281.4
8041.31
4771.11
2436.59
1574.97
2707.62
5098.21
8246.68
11795.8
15129.3
17347.5
17069.7
13845.8
8445.52
3505.93
1091.43
541.977
454.363
446.12
483.624
569.482
629.68
4847.51
9088.28
13223.7
16772.3
18240.9
17183.3
13926.2
9386.78
5144.77
2714.3
2768.49
5041.42
8458
12371.8
15627
17045.2
15682.5
11414.7
5925.94
2728.44
1977.34
1873.56
1924.71
2026.08
2078.66
2015.53
1806.71
1459.03
1071.04
670.502
913.468
1417.85
2268.21
3143.28
3714.78
3788.28
3406.47
2630.41
1711.03
1105.36
1051.36
1559.51
2515.22
3722.25
4895.28
5585.57
5410.35
4335.42
2993.36
2185.58
1840.39
1611.57
1280.83
915.227
726.801
846.852
1391.95
2251.32
2846.4
770.58
330.492
269.816
307.63
692.048
1614.67
3194.37
5052.72
6480.48
6914.81
6358.89
5021.5
3283.22
1757.25
1042.5
1404.68
2598.73
4287.98
6121.41
7612.7
8186.04
7415.16
5208.82
2570.72
901.727
293.074
118.219
71.5429
72.1186
77.8985
7.67619
174.485
429.522
486.545
467.042
367.571
241.367
143.882
102.546
135.92
270.106
466.412
637.447
701.659
604.295
416.408
395.773
453.759
561.402
576.927
526.894
420.82
290.771
184.742
147.943
232.764
513.379
980.719
1553.3
2285.16
3368.3
4450.48
4700.69
4028.59
2898.74
1775
873.816
317.478
326.401
935.417
1874.48
2896.17
3729.32
4109.93
3910.7
2982.75
1701.6
570.907
492.813
1069.82
1464.09
1022.89
604
401.533
390.245
503.072
697.699
939.465
1259.45
1899.19
3282.34
5210.08
6399.29
6366.85
5363.6
4010.67
2644.6
1527.58
753.752
480.605
978.228
2092.51
3451.47
4714.54
5557.18
5754.8
5014.51
3488.04
1972.12
929.478
799.804
3433.93
7061.83
5380.39
3154.29
1520.61
755.832
654.932
1038.86
1793.97
2741.02
3638.48
4268.71
5455.51
8386.47
11244
11587.3
9833.46
7189.49
4560.08
2481.19
1240.85
1203.42
2515.62
4610.83
6621.38
7915.89
8289.3
7603.17
5780.31
3651.21
1099.64
1556.6
2550.94
1292.02
1452.87
3005.18
5748.31
9240.13
12202.8
13402.4
12742.2
10753.6
8329.39
5812.56
3661.44
2014.74
1127.89
1557.67
3144.5
5483.86
8220.73
10762.2
12447.4
12520.2
10563.9
6989.07
3452.47
1317.31
449.605
357.873
464.157
479.146
533.336
533.557
1087.38
1556.72
1323.92
1000.28
723.105
563.481
519.565
581.061
767.695
1121.12
1714.07
2875.73
4616.82
6183.97
7085.41
7241.94
6627.67
5316.92
3653.88
2052.11
1022.73
1065.83
2069.14
3695.1
5594.58
7393.43
8763.14
9343.77
8819.05
4865.06
971.136
707.194
1808.73
2657.88
1905.97
807.266
299.66
525.144
1222.26
2012.68
3032.95
4523.65
6442.91
8420.64
9775.7
10040.4
9042.49
7166.79
4912.11
2895.73
1670.8
1540.69
2399.18
3895.28
5794.19
7738.9
9278.74
9767.73
8667.13
5759.77
2631.65
997.833
825.868
918.664
846.089
884.135
1739.12
3536.11
6359.4
9877.36
13026.8
14467.2
13589.6
11032.2
7853.11
4729.22
2330.23
1019.49
1337
2795.48
5036.02
7842.49
10670.9
12838.5
13215.4
11547.3
8160.22
4530.39
1843.83
547.671
370.368
489.61
740.163
1190.65
1510.93
1835.45
1917.99
3517.01
6130.19
9353.91
12113
13330
12640.9
10591.7
7803.07
4991.59
2696.17
1586.12
1907.81
3354.4
5626.76
8581.42
11550.4
13593.7
13235.4
10591
6483.56
2977.59
1163.2
716.731
655.622
551.988
584.091
857.427
1128.37
1286.65
1443.86
1443.04
1132.87
1565.12
3212.25
6005.76
9854.08
13268
14655.7
13635.9
10908.9
7625.31
4279.63
1949.13
978.013
1914.71
4087.34
7200.27
10861.2
14403.9
16805.5
16588.9
13342.6
7819.13
3025.34
925.859
561.902
601.67
685.12
729.478
748.609
805.048
1281.68
1821.82
4717.15
8148.94
11875.8
15301.5
16992.6
16115.1
12952.9
8481.15
4238.15
1887.96
1900.35
3942.92
7303.21
11391.4
15008.3
16790.1
15780.6
11594.2
6389.43
3530.38
2586.98
2127.3
1831.33
1715.02
1724.4
1784.21
1801.65
1732.69
1528.96
1141.63
610.143
622.696
1003.48
1441.23
2282.43
3300.18
4107.85
4396.81
4141.05
3368.29
2276.02
1399.33
1206.14
1710.85
2713.02
3968.57
5218.39
6010.3
5909.64
4727.58
3030.8
1905.39
1462.66
1304.36
1157.91
973.722
847.614
916.197
1303.58
2000.95
2569.61
1725.69
590.26
449.408
559.837
510.849
453.279
696.795
1481.94
2961.11
4864.26
6445.05
7024.87
6575.09
5286.47
3507.54
1864.49
1010.32
1378.72
2619.96
4276.71
6047.26
7526.44
8195.7
7560.2
5489.13
2806.48
970.022
292.345
125.838
97.7813
108.947
115.295
67.9558
18.1964
3.10048
168.965
430.992
483.584
450.418
338.636
207.656
115.019
91.71
157.324
322.087
527.444
679.309
699.456
558.102
213.91
188.724
387.516
514.3
560.392
534.881
453.048
341.722
244.071
205.604
274.163
493.017
851.675
1310.81
1999.24
3100.94
4186.81
4444.15
3833.12
2879.96
1958.45
1226.86
810.842
912.72
1505.73
2396.39
3344.79
4071.55
4316.33
3922.62
2802.13
1420.81
273.845
354.705
1238.15
1168.09
805.861
502.919
387.344
408.986
508.734
640.267
790.012
1040.98
1714.05
3271.11
5290.8
6515.11
6556.09
5737.04
4586.25
3377.36
2357.54
1643.67
1542.93
2191.62
3358.1
4724.13
5876.51
6442
6133.75
4844.66
3064.16
1591.71
423.896
951.956
5424.55
6542.97
4952.58
3004.42
1627.16
981.532
875.173
1120.29
1632.54
2344.86
3074.13
3671.63
5127.31
8484.64
11391.7
11765.8
10331
8152.09
5905.38
4004.47
2860.92
3093.68
4462.87
6242.51
7864.22
8751
8682.52
7507.73
5332.05
3027.69
1655.65
2947.02
3512.51
1745.34
1918.52
3466.44
6131.36
9592.11
12706
14285.7
14081.3
12564.5
10505.2
8272.16
6258.38
4658.5
3833.36
4141.91
5336.97
7206.47
9438.64
11437.8
12580.1
12173.3
9907.76
6363.42
3078.78
1191.66
531.53
520.654
613.75
582.771
486.188
525.255
1250.04
1242.72
1029.52
826.215
676.805
598.829
580.731
608.386
687.563
864.237
1291.72
2398.1
4076.91
5687.03
6872.74
7501.36
7428
6641.58
5388.41
4010.84
2999.12
2685.79
3178.69
4288.22
5771.09
7310.72
8556.6
9123.68
8638.02
6031.55
732.112
529.434
1871.82
2504.1
1992.42
979.982
385.099
479.883
1002.45
1631.81
2478.93
3776.09
5540.64
7561.75
9284.46
10121.3
9799.52
8582.98
6876.25
5178.62
3946.28
3498.13
3942.77
5031.49
6528.81
8080.42
9245.65
9411.32
8081.49
5205.67
2397.86
1159.39
560.843
579.169
684.537
756.744
1529.34
3157.68
5751.17
9137.5
12464.2
14443.2
14267.2
12399.3
9763.32
7021.15
4758.19
3296.31
3089.06
4036.58
5774.54
8077.39
10414.3
12131.6
12324
10738
7573.13
4108.98
1566.59
511.554
402.496
488.28
607.685
714.437
808.844
1063.39
1819.01
3386.47
5775.56
8846.29
11775.4
13516.8
13548.8
12219.1
10061.7
7735.73
5640.04
4361.35
4220.3
5190.23
6931.43
9235.79
11421.6
12643.5
11805.5
9068.63
5083.56
1943.66
721.1
539.561
564.598
614.485
828.884
1131.74
1299.11
1180.52
858.088
836.682
909.096
1584.99
3176.99
5758.4
9348.82
12674.1
14295.5
13698.5
11538.9
8753.49
5844.92
3758.39
2741.67
3357.75
5144.79
7848.44
11114.1
14240.1
16212.3
15686.2
12139.9
6670.19
2425.6
836.168
614.761
680.936
738.144
716.775
660.703
669.555
916.185
1336.16
3577.5