/*--------------------------------*- C++ -*----------------------------------*\
| =========                 |                                                 |
| \\      /  F ield         | OpenFOAM: The Open Source CFD Toolbox           |
|  \\    /   O peration     | Version:  2.1.1                                 |
|   \\  /    A nd           | Web:      www.OpenFOAM.org                      |
|    \\/     M anipulation  |                                                 |
\*---------------------------------------------------------------------------*/
FoamFile
{
    version     2.0;
    format      ascii;
    class       volScalarField;
    location    "0.007650000";
    object      omegaC_burn;
}
// * * * * * * * * * * * * * * * * * * * * * * * * * * * * * * * * * * * * * //

dimensions      [1 -3 -1 0 0 0 0];

internalField   nonuniform List<scalar> 
12384
(
154205
184916
200983
214764
227641
238273
246593
250028
250100
245744
237535
221558
194009
150858
240672
266227
285711
299214
306739
314870
324741
334229
344726
352295
354524
356970
364552
382208
415686
450314
485360
516697
540544
554467
553118
542478
530108
519853
505588
483594
455133
410519
319785
217142
349203
389149
412570
425698
435032
443334
454375
465919
471265
469865
469561
474771
490355
525525
571413
619352
660484
699452
722295
736394
730874
720825
701917
679785
650581
613593
563403
491904
369604
298057
382174
444944
513762
565338
600543
628136
658951
686880
690348
673966
647095
618900
594878
580707
584793
609084
648539
692527
733868
765821
787140
799473
804928
799657
783502
755283
710737
634737
504050
403418
444573
504464
537554
549617
556064
578363
634169
710191
788505
860011
920215
968071
988780
997019
986835
975259
965264
943329
912736
868724
804534
712180
527459
374514
350406
349775
351920
349582
344733
335670
315420
357833
390516
422165
455497
488667
519184
550856
574931
582801
579321
578201
583084
608542
654667
706249
755397
797881
825871
836121
827922
821064
817230
802066
782122
744341
686738
590971
448461
364974
309167
372419
436537
490017
532368
563760
585735
597839
618314
661186
725108
793355
863668
930610
989562
1.02476e+06
1.04971e+06
1.04111e+06
1.01708e+06
986473
963441
939591
903997
847383
753177
591269
408820
349933
349344
372187
301243
349399
414718
492423
594137
695401
791070
879282
956322
1.01826e+06
1.06016e+06
1.07605e+06
1.06732e+06
1.02532e+06
995999
966011
936730
892468
830422
739992
611911
450931
381765
364278
361202
361008
355579
345502
338993
339897
424862
549520
664566
779507
874585
959358
1.03552e+06
1.09602e+06
1.13656e+06
1.15835e+06
1.14879e+06
1.10235e+06
1.06291e+06
1.02025e+06
971509
907332
812912
677691
508575
411394
384084
379890
382221
382883
374942
357989
335613
315408
298942
288726
365859
467099
575796
667361
763370
855992
945978
1.02658e+06
1.08956e+06
1.13235e+06
1.14755e+06
1.14391e+06
1.11364e+06
1.0853e+06
1.05608e+06
1.01169e+06
954219
873244
750782
602879
486785
427779
413361
414938
413979
399692
383586
371283
365419
366806
579693
727001
811481
897806
1.00589e+06
1.0937e+06
1.15164e+06
1.18e+06
1.17498e+06
1.13102e+06
1.0705e+06
1.00592e+06
931889
844371
744420
648654
597986
568590
545164
527214
514757
507090
503724
496515
488299
475851
462592
447491
429712
406580
330056
328721
406582
506687
605571
679795
730100
763045
781294
785478
779369
764146
739365
701655
661483
620692
590265
577425
584330
607298
637421
664032
676214
654087
627482
608693
593106
570642
528549
463541
236943
266505
257943
234072
213593
255608
430145
505795
545286
587791
621502
648625
667976
683915
691035
687591
666349
634207
590938
536876
480171
436587
405692
380597
356904
330448
300805
264487
217324
149622
184187
124224
133817
149263
164499
177948
188959
195932
199618
198752
192830
180880
162747
200448
244902
207059
248942
288677
317444
336945
347287
346139
332859
311514
290686
277790
279877
303511
343787
392973
445572
497695
544153
581337
605002
615836
611804
598884
567736
522869
461606
388732
303126
347409
399397
381922
443545
483120
500543
498381
479502
447667
409566
372680
345473
338120
361269
412601
475397
545270
608137
666020
702121
729190
733432
738584
730729
713254
679464
625721
553236
466321
363500
438965
515422
535992
647827
711084
737451
740349
725698
695055
647380
589303
528748
473231
429303
408329
427492
483806
560143
637174
699789
740233
759413
767885
768334
757254
728164
675711
601265
513175
419253
575027
405564
325638
304752
292609
328650
422865
546029
670206
772231
836600
828611
785740
736901
691488
662596
699005
745898
810145
876115
888984
825455
694815
543001
392107
288611
260287
262368
259742
264199
363030
370148
384176
470546
532718
570959
587860
585781
563634
526885
483053
445152
428108
451344
511870
591985
673259
741247
780086
792830
787002
781942
784869
805840
827376
831084
791713
716577
604395
470123
510467
409478
431168
475200
491283
486422
466277
445353
437480
456521
512268
587253
654712
680151
630621
518429
412973
324247
231971
197969
203312
224361
270347
358531
476791
598368
668081
584806
401772
240005
390220
314058
211840
256603
367935
485752
600579
711386
806929
860665
854372
796707
727519
655125
619872
626076
702845
783343
874290
919106
854517
694210
516169
344171
266677
267498
264115
253696
230890
214932
351010
402191
340943
461074
589008
711139
809016
851433
822096
749941
617947
514133
491369
479661
527459
626064
740313
842082
832097
674802
456114
304218
303790
310880
312507
305884
282293
248923
218468
202678
306150
351082
301634
350109
446251
566181
673454
703622
612047
449577
294062
184727
127234
106107
95958.2
110969
170506
291917
418860
643992
767568
609940
399543
320915
303219
301126
284632
255565
228516
219942
365660
487091
384571
481094
663523
759934
737473
623563
474852
355190
282433
261649
295789
392968
537557
676713
732240
638751
454564
366289
365057
369198
367198
366257
362619
357362
348278
337717
330144
326027
401427
404341
332283
414939
498823
571111
604564
607628
594934
586144
584938
588823
613825
618399
614778
578782
525961
477442
452036
459385
494857
542484
589649
619738
634546
633454
643767
644388
622981
541725
558009
290943
256222
247505
240902
265784
360700
428101
477836
553291
627628
680077
707558
723957
725695
731023
715215
693387
650608
590521
520808
438891
356441
299472
281521
287241
293600
291662
276143
245453
199323
207475
142426
154274
171438
186918
198790
206943
210604
211073
208065
201850
191715
177167
225594
252714
214031
249145
277047
293218
300748
300602
293999
284755
282543
291626
310533
338913
376512
421057
467168
509712
547323
579418
604096
618400
624734
617981
606895
581460
549153
499503
435655
356125
413366
417569
399683
433818
443482
433576
411847
385647
363387
350844
350841
363679
395120
449868
519000
586387
646632
687372
724598
738961
751408
750613
751322
742572
730865
707149
670639
612634
533493
435407
529335
574646
594688
666827
692512
692397
679246
658929
632542
604852
575357
547904
521359
497850
496715
535268
604404
677901
734219
765394
776056
776183
775709
777070
777139
765846
735069
677040
591119
491240
669492
389100
294098
262989
291254
401292
546949
683313
782830
833225
840338
812150
791200
722443
676317
676606
672381
719967
755489
811975
859068
866866
803483
676050
528556
377616
263755
235048
258927
284269
384459
393926
413719
475115
507031
513707
503796
482484
458043
440129
437698
455011
499019
563900
636984
702005
754122
788832
815485
824418
823785
824227
820915
823411
829716
834998
815431
770306
683693
559699
614278
443936
460986
462327
447680
433981
431151
451988
488237
542068
611761
656067
660363
623435
554196
506869
425258
345873
299148
279841
245433
244954
259944
293486
359708
454129
567611
623989
546959
356313
399191
342141
228805
315782
455394
586831
704735
796726
850437
860400
840597
788175
729168
669769
641877
634297
658556
708514
769709
840989
890407
840905
692443
518799
347787
231827
236876
259779
248836
223430
360439
492120
426203
562728
707833
813357
845478
811544
749884
646614
532767
501392
447414
423706
439605
494531
579296
690081
802335
816094
669205
456256
286468
273052
312153
339851
330963
296685
255736
226662
324569
360960
321091
402869
538062
669821
698961
579341
403014
253402
151436
93027.3
66014.4
53154.6
58520.3
62340.3
86845.5
136158
251385
389139
637602
750707
565110
357262
294951
321743
319248
286630
249734
229044
374668
458895
420645
648071
763594
681638
510810
342370
229993
153106
111832
94731.7
109352
151048
236198
379117
562227
708331
658492
466852
376585
375628
375454
371938
359948
339877
308798
279987
274836
298008
402516
501241
398165
484992
561140
595563
604349
603864
610790
618055
632829
640240
652431
653330
647724
634704
605166
571300
541217
532163
540966
556421
569462
579943
592346
603002
612984
622516
613147
572778
597601
310925
265646
226912
247213
348563
435641
491332
557719
630028
684209
717329
741983
754607
762219
766798
761864
750353
721049
690457
640932
570578
468271
353856
262497
221519
211535
218571
226213
221293
171740
220240
162584
177919
197254
212152
221528
225234
225489
222330
217971
212350
206333
197757
246263
263352
230411
253845
268495
270503
264872
253626
243601
245247
267293
304453
347994
394328
439728
487838
531224
563415
583752
595513
603637
609568
612287
607938
600043
582571
561305
524727
474111
405035
460784
428757
425604
427375
404352
367541
330655
308509
310348
334718
370066
411303
465080
538432
616541
673531
709991
728719
741879
740753
745087
745721
740908
738146
727401
715433
691021
651040
586742
495523
590391
611727
651917
679258
663842
629714
595544
570541
563387
569424
580779
585385
578851
571893
590131
645652
713441
756980
769473
762641
753011
748868
746275
749518
760511
770524
763547
729559
661746
564485
735704
397213
294086
256249
331541
492337
653930
772245
834040
843402
836836
828635
791324
766958
772263
738526
744569
732308
770315
796435
828377
860089
853904
778166
645184
489617
343839
241389
252856
292963
398808
409197
443915
474037
472986
448002
410873
376031
362017
381769
431833
501506
575693
650954
714700
761040
791291
813256
830459
843932
859238
861600
864069
862626
851839
844917
830435
801476
743329
643082
687160
468727
499968
456190
408246
386632
412410
474324
538992
608012
657916
646721
603065
558081
552788
536069
493880
507844
492143
440766
415970
389430
366127
346777
347340
391250
479683
587854
603103
465315
425340
367501
256688
377431
526621
664773
777526
841530
859687
853258
837020
798965
772834
741770
708940
700385
696855
721816
745636
780986
840701
880517
818028
662456
488019
320268
231727
266057
262837
232009
366097
618811
509993
653792
790506
842337
815536
752485
692840
600990
584492
512880
438711
425842
443159
468003
515865
586971
689854
804346
800642
634656
430329
301126
330402
374906
373225
335834
291775
262645
346946
402103
352341
462711
618878
706603
594402
394970
244248
154859
106523
76262.6
51884.1
38843.9
38389.3
53775.9
72462.7
85333.1
163423
262725
450909
693963
713148
482171
335023
346033
344314
308511
268398
247281
386018
546000
584068
763549
690100
449474
278316
179260
119881
84822.3
68141.7
64393
62990.8
70369.8
108609
194695
350027
551546
710863
606998
425340
388065
395197
399577
393989
373927
338399
293043
268022
297092
412047
573607
448207
537157
591967
611382
625807
647329
671406
690638
700083
708297
710977
706403
695683
678283
657523
630948
604477
588505
584016
579774
564088
527928
500708
515531
556528
590785
609334
600605
620347
322139
266735
241181
314306
410114
484144
551543
622787
679199
716577
745849
762890
779168
787766
789543
783013
777536
756755
738856
699152
647382
561002
432392
301100
212040
162883
166380
188679
197380
131901
228549
184221
204457
224526
235795
239316
236900
233251
228240
223655
221061
220845
220232
264379
274772
249200
261624
264604
254437
236191
215265
204172
218895
263242
321956
382477
439337
490122
542044
581079
598397
596017
582052
566452
558071
557822
562834
568298
567652
560987
539673
504059
448427
496118
433545
454338
428555
375324
310883
257259
248863
287122
347879
404816
458219
527219
613830
685814
722256
738598
732023
719334
707378
704130
696809
699837
701690
704448
703226
693959
671947
624950
546079
633083
633518
705769
694848
638494
563744
498225
467916
491259
545248
594525
622881
630313
637381
675268
736616
768752
760110
739985
724233
712955
707947
721776
732370
737873
751262
762701
754071
710915
630477
788480
422049
305713
267012
386746
571708
729025
819018
849217
840078
834522
823984
820547
815284
804182
803427
797566
813588
796310
806295
822372
836504
859858
832697
729827
575074
416795
291072
253072
292955
411293
416840
473952
476059
446589
394105
334263
291480
296246
357489
453772
547038
630023
702281
757519
787538
808277
811532
812422
807394
806111
817596
827518
843183
844638
846853
835973
818931
784103
716219
740078
487161
542319
461384
376167
345628
401008
497187
576220
646530
659909
596818
529642
531517
541672
556440
613152
655535
639839
640907
611982
564434
514479
461577
409039
388176
425842
533724
607651
530782
457420
393760
284186
425594
580103
722980
821361
857465
853569
841980
836603
818794
823606
815187
802818
774882
768025
744806
762388
769151
795289
851011
864136
763448
594681
420428
281398
273817
271070
237917
372040
725632
575881
720261
826967
828505
773175
714766
675460
638113
626180
558795
543804
519266
491009
482257
486088
528098
600944
720307
818530
751017
561738
395391
366173
404582
399754
357678
313335
294660
368915
475322
385834
515395
674255
667992
454226
275215
178186
126645
100170
76657.1
67098.5
69852.6
51838.5
50720.3
65211.1
84039.7
116850
188313
345979
551417
754943
596223
397888
365704
354227
312276
273217
262061
396680
766129
723406
754014
501709
277905
170025
118784
93417.1
73665.9
68644.9
58163
52208.8
55997.1
69663.4
116707
217122
391778
634041
687388
485590
414363
430247
449466
456038
444687
413757
362713
305984
305227
420582
617227
485334
568370
609282
631406
657912
684928
700023
706289
711883
712729
715351
718460
721002
717345
699016
675533
642143
619339
605869
598751
570833
492498
396501
392184
473528
560390
607719
619370
628702
328282
265614
278288
351027
438534
518208
596163
661248
704330
734934
751960
765801
767089
770437
777614
773343
782498
773625
763661
733878
687432
610759
493751
348512
231246
152162
134804
156970
170818
95144
234033
207782
230552
246154
249502
243594
234733
228180
224409
224154
227430
235520
242696
279164
283364
264607
269328
264285
244252
216156
187120
174841
201048
264950
339000
409249
472961
528035
583039
613755
610741
578875
536022
496429
472392
467485
487699
514835
540362
552518
548719
528078
485622
518961
425577
477706
434229
358965
271217
206010
223021
295511
371611
432407
492074
575608
666131
724257
743378
736463
705164
671551
643015
616500
606760
612724
634252
656368
678294
687376
682912
652652
587703
658693
638373
748954
714159
623382
507585
404690
364575
428797
531159
608718
648797
667572
689703
735104
769668
747863
711399
691804
687400
685435
685211
692193
714804
730995
736280
749717
759614
741271
684346
825509
454032
321739
290345
441820
632669
777322
841769
845694
836932
826367
799948
772707
747623
731396
731524
760532
782884
808587
809544
824819
828720
844291
848265
777240
631038
464662
329499
265267
290272
422671
415065
497594
480999
431819
362137
290510
250364
274593
362871
475232
573723
656134
727586
776362
798450
806407
788760
760202
715936
684914
675114
701302
745727
786793
822426
830660
827732
811228
772071
773135
491881
581385
475836
353272
308640
389150
508919
597103
665400
644677
548304
494429
486119
512738
599080
668103
688077
674718
668547
680532
685587
637966
558518
478107
428602
402124
481682
583721
560479
477088
426327
310457
457725
617242
762921
845332
854156
837807
837749
831230
813634
799598
765662
766040
788604
801550
803415
779514
757109
783180
819111
863347
817409
667794
490997
335045
285051
272980
243093
380652
792679
619257
759869
835960
804777
749258
699099
668362
657675
667455
657505
662027
645106
603761
551939
505062
503772
542026
650568
779912
798569
645962
469519
404058
422455
408128
358041
320902
323677
382957
567481
410957
555385
703619
580525
365677
213646
154478
131649
122450
130121
140889
128400
132768
112834
83770.6
101054
110686
143667
275573
456025
710196
666182
448462
373878
347442
299219
268430
277479
406403
950369
801475
635232
351160
197778
140971
106943
107157
116064
115905
88773
77698.6
68303.3
70209.9
89321.7
150645
297665
531760
706985
538024
458822
478823
506325
522836
523118
501059
453041
383297
334158
430733
637643
508882
586073
622765
650815
674213
682134
671432
654392
638775
637172
651676
680060
712126
731952
734502
708993
675753
635612
615184
603907
578699
498771
369067
330233
420207
539710
607539
626475
621211
334810
263382
299263
362439
450369
540720
623090
680498
716191
733021
735626
718650
699868
686120
694796
717404
749947
767036
777458
755546
714033
629732
527116
389716
253368
157145
122531
134674
147653
69058
238082
230108
250654
256743
247387
231488
215531
206717
207381
218801
233438
250739
263699
289330
291454
276710
277116
267819
242561
207609
172367
158589
193359
268786
350406
425752
493082
552453
609066
628430
601088
543270
476697
414723
370953
362038
402860
457789
511985
543698
556646
548749
515167
523395
414259
492006
439161
354202
264104
216072
249804
320152
388293
444774
511797
605664
696228
742612
745348
717398
669052
609465
550916
499152
478449
499940
549097
605073
652825
681497
693214
675587
615523
660220
622759
771950
728379
618954
474165
343699
300851
397967
523906
615277
662654
688086
722349
769379
748101
700395
682503
683171
682399
669504
647441
644618
667896
707271
726389
744266
755232
758185
722085
837559
484326
339865
322605
493399
679620
808315
851227
841615
832234
812895
764472
698993
623697
558122
540210
590873
681328
754996
802031
817540
828696
832477
847455
799941
657399
483175
340229
267744
287803
436739
408967
510591
483865
426087
352715
287804
261890
294349
378741
483086
574997
658557
732618
782505
796867
794882
763841
702853
613374
532542
491165
528687
616337
700630
777893
819441
833245
826188
806407
781276
489130
610249
497325
343537
275860
373370
506655
599378
673184
642735
531838
453199
437504
503030
593948
669741
662029
547304
473726
525092
626110
682273
629598
540853
442129
406790
446920
552957
569645
478767
463868
336458
478768
639095
787287
851410
840283
830744
824099
814809
793272
718501
632897
601752
652875
734082
782803
823653
780525
776337
794658
850294
839896
709335
530972
365920
292204
271983
253825
409659
824858
639608
780168
835258
788684
728982
666793
667297
681203
659839
584338
543547
591522
636579
631774
555584
514406
532083
607787
737407
807408
684159
508411
426701
425048
395119
338862
327319
355438
387436
648245
425701
587425
701714
525955
303900
201726
141290
137858
168084
206982
319396
336027
266876
226387
130321
135902
104190
140240
218119
400389
673802
689331
467618
366665
329177
291871
283297
306394
427810
1.01784e+06
803261
519076
292223
185571
140256
111654
165574
215912
275482
273477
187549
112166
86115.4
80342
126226
234944
453388
690690
586531
518604
527966
548962
564639
568762
559504
527969
468200
405080
472866
637106
519868
596016
633771
662558
676375
660285
617489
564215
521325
515608
553486
613880
682870
729346
754603
738321
699148
652232
615080
598307
577002
518530
419969
369457
420539
534388
606618
624300
601418
344950
259157
302672
359923
447144
548622
633480
688952
716148
720783
694102
642840
580135
543552
561019
618375
690771
739194
772882
767285
736247
647704
534283
413089
281088
171307
124799
126246
134978
60653.4
239347
246686
259878
254858
237723
213722
189284
175595
183167
211638
241132
266358
280125
294156
299635
281719
281354
271507
245435
208351
171293
157295
193823
270634
352549
430388
499304
562820
620660
626333
579803
505603
425343
342108
268107
258228
333972
420488
496350
543855
566390
565823
535140
514445
409080
495936
437478
355123
285203
263098
288698
338318
390545
441566
516111
618905
713088
747760
741044
699961
637368
553074
464868
380948
341620
391567
487422
577128
647678
691101
708642
692671
633871
652856
585724
783728
741688
623627
467468
336525
308067
400620
520194
608228
657536
694423
735088
768639
714016
672039
663786
677373
663111
583713
506486
509085
589337
674202
712342
739408
753939
765374
746152
824392
518436
371502
376449
548855
720115
828800
856662
839253
829680
806894
747863
656165
539136
421211
342049
418958
564924
685886
782823
808248
817823
831689
841936
801632
656394
473345
324362
264430
294710
453075
411263
512175
481975
424961
361360
313747
299861
325500
388332
471369
553104
639485
726060
774648
792725
788575
753194
675639
560542
431197
318611
369854
506139
629496
738001
807718
838476
832090
820498
760075
491253
625550
525506
360621
256357
351578
490446
585291
668325
658834
533524
440505
409422
461594
565325
658940
661369
497719
346435
397225
539369
648676
658456
569135
456183
396125
423850
544203
558950
473192
510005
364463
492364
651982
797924
848768
838372
806538
797359
829727
774109
657044
493451
379066
481353
626666
730947
798406
807362
778009
790108
839849
841104
725416
544418
374792
292364
278389
286451
477516
823696
651475
791151
835947
775413
692439
652042
679008
661006
624988
468521
366225
462173
586022
627557
590086
547773
525798
607765
720190
796892
679984
502562
418461
404755
366250
327531
352002
388199
407382
687848
438540
610141
699313
485952
293482
180169
158587
145243
236230
336046
491755
467767
465821
384194
206629
171726
108879
147229
198632
360792
661027
687680
456137
350152
325861
322319
333994
361818
498606
1.02914e+06
767384
490118
299488
195267
151716
127502
255264
363886
475036
456045
351456
184080
116108
82601.5
116004
198447
395325
665470
626203
573408
563391
565056
572243
576284
571675
554012
520451
479817
539991
626413
522846
599741
642624
672307
684688
660634
594317
501158
421819
410384
472602
565201
657834
729649
765581
757993
721657
658609
606176
580169
559768
521488
464229
426575
451327
535135
602579
625847
591620
377389
256462
281213
363312
435386
542209
633519
690387
715301
709448
666188
579823
468455
387817
431697
535208
641173
713784
762937
768277
749469
668995
533296
416891
298775
197500
144288
141925
150821
97774.7
238961
255130
259626
250072
228446
197105
165615
149565
167481
212713
252451
279489
290681
290026
327182
331944
284022
285167
286015
277643
255908
222277
187337
172473
202903
270563
346114
421226
490244
559565
619289
615258
559039
482445
399775
310131
218264
221656
324359
422878
503531
554789
578920
580205
545531
485099
420278
410318
439850
476930
418611
345158
295861
286647
306528
340426
378672
425534
508572
622935
721404
749223
740064
693879
630011
539992
443266
342173
292622
379405
500603
601947
674990
713818
723097
698288
624865
543504
535259
507973
668639
782062
741013
625702
479618
370891
351615
416854
510133
587653
636651
681888
738674
768308
697440
661553
658851
681541
646970
537810
419212
420538
553509
671657
713636
733275
750387
767406
748112
706853
572662
647674
605845
453379
470258
608563
754677
842238
857631
839609
824043
814331
765284
694394
582726
469098
377862
426093
558029
677293
778834
799792
810209
823411
842553
788700
633620
447961
309015
289292
319064
328309
454665
454224
461969
499403
467570
419837
372070
341000
331979
346971
384522
441307
511165
607968
707890
764226
783786
787867
768717
703448
607392
487523
375732
380210
489213
608048
722490
802842
839199
834326
823402
777409
569022
529356
597472
625883
548160
391567
269452
332522
462435
556015
645143
685681
576670
452838
407875
422896
525249
609774
693904
609192
499235
480976
565253
650026
641477
573293
444861
394639
434121
532743
559978
482457
534576
537293
402356
389200
494415
647337
794382
854029
831376
794783
791729
831641
787821
699991
544982
403006
440924
578318
700931
789214
789769
802406
793648
832360
835379
717524
525924
343269
294074
324986
383514
479954
661567
714310
535899
667782
795878
834438
759634
680149
660618
634257
637425
664823
562897
461714
492522
585215
632655
596312
563988
555262
624104
734627
778443
633005
451182
376375
363519
340323
349325
403699
445809
491295
645839
629548
429287
467010
627175
689479
492546
288043
192479
156885
168420
232024
359210
487056
407733
466897
452014
235400
195184
120843
150295
204180
381407
674596
656227
427281
352956
359724
375859
385398
390903
412288
631137
717539
755735
775388
545860
371811
228496
162161
174330
261026
401584
472637
449053
387273
221903
131322
86338.2
106074
181299
370310
629131
633997
606458
582099
554115
538770
537486
542886
545457
541618
524281
486809
529809
540114
498504
529492
600299
649389
679793
704488
702624
650635
557440
461542
431728
489695
579470
672124
741285
778243
773676
734875
664355
586685
543345
522793
502183
473550
449930
463252
524119
592647
620157
611311
536939
468306
356351
315680
294705
362542
439818
529797
624559
688915
717487
717568
677633
594761
479014
384535
430674
539887
642573
711640
761034
767718
758726
683712
543168
409438
302382
222058
183773
186225
198135
164941
99421.5
52230.1
237856
254148
255541
245983
221905
186832
153145
142999
174014
222631
261767
285358
289887
270735
196691
192199
255800
276363
281787
277107
261366
235412
207538
194509
215324
267383
330535
398176
467759
544559
605744
600081
547823
482303
415546
351158
304631
320451
387294
463934
527699
571628
590815
586687
536581
435576
243729
278907
451153
437450
382266
320486
286925
285042
303374
329236
356550
401278
492944
623110
724465
754145
746179
709387
660754
591783
521231
456160
447318
510716
595759
671978
722510
742930
738513
694588
599881
484921
303467
420877
762068
772689
723715
615260
491877
408100
390797
428183
492379
552718
598913
651361
730975
773242
703421
659962
657844
677983
684839
633131
569941
590591
659166
709262
720981
731868
754336
770432
736436
630075
503788
622808
661069
504291
520270
641053
770179
847226
852297
839991
823329
814972
789463
766024
705925
640622
594731
613415
676252
735507
801203
795346
814735
826204
834531
771479
606992
433850
331297
329852
351162
346070
325503
338172
467077
459542
427793
393654
365755
350081
346161
352469
368692
399229
459799
569259
681273
748018
774715
789011
795996
762279
704558
625670
559997
536442
576772
645363
732824
803561
831797
831764
826169
801046
387367
350309
574705
614948
562898
425546
297725
322018
427736
512899
599911
685184
632761
498644
423915
408549
456402
528941
647138
681036
663316
643478
658092
674815
623414
546961
427512
413275
452225
536120
549692
488085
349925
340217
357153
361695
464166
614677
771557
850820
835621
803811
787665
818119
803387
774821
696590
614857
598382
657555
727158
796263
787688
805438
813852
832600
820685
694046
495598
332029
301020
321970
347823
369661
388303
427932
519953
657699
784449
828001
774311
703810
620948
588766
621209
655033
629762
622755
614466
625134
631502
595020
563258
601202
658983
757738
741031
542037
376867
338458
340765
351284
395165
443942
465024
449733
388031
374379
378802
465492
618416
709505
520479
333867
205514
172474
158949
216028
284690
448300
476816
467693
388374
228865
182059
141244
171027
245186
437923
718009
606116
409782
364963
376040
385122
378984
364974
364208
403647
466299
675896
768664
618086
441311
285776
184844
180996
210610
274568
413083
401790
313759
206238
109070
87134.5
117837
185876
378206
594611
611601
620046
585920
513191
461020
447974
465044
491674
515496
523141
503195
425422
419803
476525
540984
602201
646613
675344
708797
742134
746711
711219
653787
614811
625643
674264
732665
775707
795755
779150
744514
670260
563628
496740
470862
459142
449125
437473
439545
476657
541966
593052
606889
477453
435299
424283
391328
343684
355550
454199
544241
623704
686327
724710
737157
725639
679767
620367
572855
582526
633950
698283
740286
769529
772182
759534
688617
549297
401877
300698
229010
210423
218073
223142
180468
70962.9
43564.5
237535
245927
249691
241930
221971
192232
167416
166923
197437
236930
269251
286010
281800
247490
171850
170626
227954
255826
267333
267963
260556
245591
228823
220215
231732
264709
309247
363297
433081
518865
583983
587692
550920
505066
464118
431343
415279
431597
470862
517331
559085
588261
598325
579247
510364
389402
239923
273374
408975
383748
330799
279796
258986
266588
286895
309158
329016
370366
471298
614540
722926
762356
762760
742775
718759
682381
650682
625871
632413
667910
712613
749479
768461
771707
753209
689722
579560
451689
317573
458029
747624
742302
684164
587436
492000
430863
413900
429807
467055
508521
548057
601299
703706
779399
728694
679426
652769
639441
659428
685449
698946
694541
708109
711271
710859
732150
765097
770216
716296
604583
569316
660394
662709
495689
522521
637391
760162
841951
850142
839340
813334
811938
797272
794224
777061
770736
770382
764170
775657
784729
813389
788118
821501
829885
826177
743512
591020
449261
370916
366258
381640
377478
355209
349452
427166
391960
365651
350764
345061
345675
346987
346458
346042
354811
406685
522746
645553
726232
764428
778226
803830
808016
794476
759060
715695
685190
687571
710710
759495
799326
819625
826476
816678
763645
379114
361633
543304
601080
573094
459490
336196
326766
400014
466277
537847
637212
684018
592420
484919
419761
416211
448408
513602
592428
621294
632641
642962
599107
555347
485271
428329
445710
479177
555988
538633
469317
335593
307630
323829
324047
416621
558047
717175
835040
849402
819087
790196
802691
800883
801904
786427
775827
763579
767573
777936
809082
784662
818363
813540
839506
797321
660153
469004
334728
306058
314140
319605
318382
326988
375618
481106
613293
742429
821599
810521
712554
628248
586610
552442
558400
565649
585577
597212
600118
578351
575427
590009
631606
710355
768888
673000
450861
336174
329831
349950
383654
427281
459896
457440
405432
323398
314147
344747
444489
580610
711084
599533
390663
253221
188454
155218
170301
206650
236765
276797
249783
250273
197588
190992
165868
216126
319603
552675
734390
553259
403568
367548
368721
361947
338852
322245
347376
419860
481274
641493
760776
690093
543696
375656
232073
164647
162177
143677
181900
189101
182572
127652
79791.1
98483.5
141122
225118
415061
570377
603113
629375
578049
474949
399921
391634
425494
474963
519002
548013
550361
503079
478573
498606