/*--------------------------------*- C++ -*----------------------------------*\
| =========                 |                                                 |
| \\      /  F ield         | OpenFOAM: The Open Source CFD Toolbox           |
|  \\    /   O peration     | Version:  2.1.1                                 |
|   \\  /    A nd           | Web:      www.OpenFOAM.org                      |
|    \\/     M anipulation  |                                                 |
\*---------------------------------------------------------------------------*/
FoamFile
{
    version     2.0;
    format      ascii;
    class       volScalarField;
    location    "0.001950000";
    object      fH;
}
// * * * * * * * * * * * * * * * * * * * * * * * * * * * * * * * * * * * * * //

dimensions      [0 0 0 0 0 0 0];

internalField   nonuniform List<scalar> 
12384
(
0.0255702
0.026192
0.0266218
0.02665
0.0266996
0.0257953
0.0253062
0.0238869
0.0237872
0.0250201
0.0266648
0.0280734
0.0291015
0.0290121
0.0230933
0.0206379
0.0191394
0.0191829
0.0192727
0.0192432
0.019249
0.0192575
0.0192622
0.0191992
0.0190714
0.0188771
0.0187274
0.0185572
0.0184515
0.0183642
0.0183931
0.0183081
0.0182147
0.0186905
0.0191782
0.020405
0.0228356
0.0255896
0.0274906
0.0288364
0.0294333
0.0292546
0.0291772
0.029122
0.0264171
0.0244753
0.0216861
0.019665
0.0190703
0.019056
0.0191984
0.0195986
0.0198945
0.0209656
0.0218586
0.0220116
0.0223731
0.0213617
0.020714
0.0189593
0.0180671
0.0172208
0.0174611
0.0178641
0.0194806
0.0204058
0.0227522
0.0238095
0.0264608
0.0273737
0.0290209
0.0292219
0.0291725
0.0291376
0.0274607
0.0262034
0.0255981
0.0242939
0.0233678
0.0223113
0.0221047
0.0220002
0.0221708
0.022769
0.0234912
0.02449
0.0254411
0.0263118
0.0270213
0.027629
0.0281209
0.0285022
0.0287435
0.0289396
0.0290129
0.0290629
0.0290717
0.0290583
0.0290833
0.0290592
0.0290866
0.0290868
0.029082
0.0290785
0.0285297
0.0284062
0.0284735
0.0285632
0.0286704
0.0287881
0.0288777
0.0289877
0.0290064
0.0290543
0.0290529
0.0290479
0.0290599
0.0290423
0.0290508
0.0290469
0.029041
0.0290554
0.0290372
0.0290592
0.0290421
0.0290576
0.0290454
0.0290564
0.0290504
0.0290544
0.0290531
0.029053
0.0290534
0.0290741
0.0290735
0.0290474
0.0290452
0.0290497
0.0290452
0.0290474
0.0290436
0.0290449
0.0290417
0.029042
0.029039
0.0290386
0.0290341
0.0290335
0.0290298
0.0290315
0.0290302
0.0290338
0.029033
0.0290363
0.0290346
0.0290379
0.0290361
0.029039
0.0290378
0.0290398
0.0290389
0.0290403
0.0290404
0.0290747
0.0290747
0.0290404
0.0290389
0.0290375
0.0290373
0.0290362
0.0290349
0.0290335
0.0290322
0.0290307
0.0290296
0.0290281
0.029026
0.0290242
0.0290226
0.0290223
0.0290233
0.0290257
0.0290284
0.0290302
0.0290317
0.0290331
0.0290341
0.0290351
0.0290361
0.029037
0.0290378
0.0290389
0.0290403
0.0290747
0.0290747
0.0290405
0.0290387
0.0290374
0.0290362
0.0290351
0.0290339
0.0290328
0.0290317
0.0290306
0.0290294
0.029028
0.0290258
0.0290238
0.0290222
0.0290223
0.0290237
0.0290258
0.029028
0.0290294
0.0290306
0.0290318
0.0290329
0.0290341
0.0290352
0.0290362
0.0290372
0.0290384
0.0290403
0.0290746
0.0290747
0.0290405
0.0290389
0.0290375
0.0290365
0.0290354
0.0290344
0.0290333
0.0290322
0.029031
0.0290299
0.0290284
0.029026
0.0290238
0.0290222
0.0290224
0.0290237
0.0290258
0.0290279
0.0290294
0.0290306
0.0290318
0.029033
0.0290342
0.0290353
0.0290363
0.0290373
0.0290384
0.0290403
0.0290746
0.0290746
0.0290408
0.0290389
0.0290372
0.0290362
0.029035
0.0290338
0.0290327
0.0290316
0.0290306
0.0290295
0.0290281
0.0290262
0.0290242
0.0290227
0.0290221
0.0290234
0.0290257
0.0290284
0.02903
0.0290311
0.0290326
0.0290338
0.0290349
0.0290358
0.0290369
0.0290379
0.0290392
0.0290407
0.0290747
0.0290746
0.0290403
0.0290386
0.0290374
0.0290363
0.0290352
0.0290342
0.029033
0.029032
0.0290308
0.0290297
0.0290283
0.029026
0.029024
0.0290223
0.0290222
0.0290235
0.0290257
0.0290278
0.0290294
0.0290307
0.0290319
0.029033
0.0290343
0.0290354
0.0290364
0.0290373
0.0290384
0.0290402
0.0290746
0.0290747
0.0290401
0.0290385
0.0290377
0.0290368
0.0290359
0.0290346
0.0290333
0.0290321
0.0290307
0.0290295
0.0290279
0.0290257
0.0290238
0.0290222
0.0290222
0.0290237
0.0290257
0.029028
0.0290295
0.0290307
0.0290319
0.029033
0.0290342
0.0290353
0.0290363
0.0290374
0.0290386
0.0290401
0.0290747
0.0290746
0.0290402
0.0290384
0.029037
0.029036
0.0290349
0.0290341
0.029033
0.0290322
0.029031
0.02903
0.0290285
0.0290265
0.0290243
0.0290225
0.0290222
0.0290234
0.0290256
0.0290277
0.0290292
0.0290306
0.0290319
0.0290332
0.0290343
0.0290355
0.0290364
0.0290374
0.0290383
0.0290401
0.0290746
0.0248733
0.0240205
0.0231761
0.0243146
0.0225147
0.0198783
0.0194714
0.0172538
0.0156591
0.0161936
0.0185694
0.0210675
0.0243405
0.0270304
0.0190637
0.0160519
0.0168504
0.0182234
0.0186629
0.019035
0.0195426
0.0195083
0.019583
0.0195393
0.0194348
0.0191161
0.0188413
0.0185068
0.0179718
0.0174092
0.016792
0.0164732
0.0157014
0.0148752
0.0134784
0.0126337
0.0144656
0.0154941
0.0199337
0.0236761
0.0271537
0.0288397
0.0294621
0.0292731
0.0238635
0.0185795
0.0161444
0.016879
0.0197955
0.0228161
0.0262257
0.0297403
0.0323323
0.0334533
0.0338978
0.0341001
0.0347547
0.0352187
0.035799
0.0348502
0.0311811
0.0258092
0.0188473
0.0142924
0.0118802
0.0107873
0.0115919
0.0113019
0.0143442
0.0165152
0.0213076
0.0263224
0.0288091
0.0292262
0.0174404
0.0145372
0.0125227
0.012377
0.0122486
0.0124252
0.0122986
0.0120182
0.0118944
0.0116276
0.011829
0.0117681
0.0125216
0.0130927
0.0142222
0.0151918
0.0163829
0.0175729
0.0188585
0.0201337
0.0216575
0.0231272
0.0248809
0.0262591
0.0272226
0.0278629
0.0281657
0.0283301
0.0283974
0.0286787
0.0174959
0.0171154
0.0174535
0.0179106
0.0183963
0.0190857
0.0198633
0.0207548
0.0215362
0.0224057
0.023017
0.0238172
0.0241704
0.0248361
0.0249754
0.0255837
0.0256698
0.0262239
0.0262396
0.0267283
0.0266901
0.0270856
0.0270569
0.0273457
0.027379
0.0275188
0.0275626
0.0276035
0.0276299
0.0284186
0.0274169
0.0266583
0.0266262
0.0266809
0.0267913
0.0268324
0.0269291
0.0269338
0.0270122
0.0269827
0.0270453
0.0269921
0.0270163
0.0269533
0.026962
0.0269546
0.0270076
0.0270428
0.0270949
0.0271165
0.0271421
0.0271719
0.0271852
0.027216
0.027226
0.0272525
0.0272568
0.0272595
0.0272904
0.0283354
0.0283611
0.0272481
0.0272196
0.0271858
0.0271766
0.0271601
0.0271185
0.0271082
0.027065
0.0270556
0.0270131
0.0270042
0.0269513
0.026925
0.0268858
0.0268904
0.0268967
0.0269579
0.0269945
0.0270462
0.0270635
0.0271098
0.0271152
0.0271536
0.0271586
0.027195
0.0271954
0.0272264
0.0272554
0.0283662
0.0283674
0.0272465
0.0271989
0.0271884
0.0271523
0.0271463
0.0271045
0.0270984
0.0270592
0.027053
0.0270131
0.0270036
0.0269486
0.0269181
0.0268778
0.0268889
0.0269032
0.0269603
0.026987
0.0270285
0.0270375
0.0270795
0.0270858
0.0271267
0.027136
0.0271741
0.0271834
0.0272068
0.0272597
0.0283319
0.0283351
0.02727
0.0272095
0.0272023
0.0271651
0.0271594
0.0271188
0.0271133
0.027074
0.0270667
0.0270255
0.0270117
0.0269538
0.0269189
0.0268784
0.0268902
0.0269041
0.0269594
0.0269859
0.0270276
0.0270369
0.0270794
0.0270861
0.0271274
0.0271368
0.0271748
0.0271841
0.027207
0.0272603
0.0283316
0.0283306
0.0272589
0.027211
0.0271757
0.0271685
0.02713
0.0271223
0.0270828
0.0270782
0.0270393
0.0270329
0.0269934
0.026971
0.0269145
0.0268983
0.0268768
0.0269088
0.0269439
0.0270084
0.0270394
0.0270588
0.0271017
0.0271109
0.0271505
0.0271555
0.0271927
0.0271936
0.0272267
0.0272544
0.028367
0.0283297
0.0272656
0.0272051
0.0271976
0.0271609
0.0271553
0.0271149
0.0271089
0.0270698
0.0270632
0.027023
0.0270107
0.0269555
0.0269221
0.02688
0.0268884
0.0269009
0.0269564
0.0269847
0.0270271
0.027037
0.0270802
0.0270875
0.027129
0.0271387
0.0271769
0.0271862
0.0272067
0.0272609
0.0283323
0.0283686
0.0272491
0.0272089
0.0271994
0.0271654
0.0271581
0.0271146
0.0271064
0.0270642
0.027055
0.0270119
0.0270007
0.0269464
0.0269173
0.0268815
0.0268814
0.0269147
0.0269474
0.0270029
0.0270149
0.0270566
0.0270647
0.0271053
0.0271126
0.0271541
0.0271597
0.0271958
0.0272056
0.0272478
0.0283684
0.0283335
0.0272631
0.0271993
0.0271919
0.0271522
0.0271481
0.0271058
0.0271028
0.0270627
0.0270608
0.0270192
0.0270108
0.0269587
0.0269289
0.0268837
0.0268882
0.0268999
0.026954
0.0269831
0.0270247
0.0270342
0.0270779
0.027085
0.0271278
0.0271365
0.027176
0.0271865
0.0272071
0.0272613
0.0283331
0.0226829
0.0194013
0.0170744
0.0166878
0.0146678
0.0131949
0.0120742
0.011185
0.0105269
0.0107566
0.0113865
0.0126233
0.0153544
0.0205141
0.0138308
0.0162164
0.0188035
0.0185544
0.0155077
0.0198703
0.0215123
0.0214751
0.0212655
0.020933
0.0208968
0.021006
0.0211545
0.0204086
0.0185366
0.0174315
0.0180626
0.0154259
0.0161783
0.0157543
0.0149683
0.0134302
0.0112157
0.009916
0.0114068
0.0147872
0.0199303
0.0261044
0.0292817
0.0292184
0.0175804
0.0139249
0.0164964
0.0208526
0.02691
0.0316304
0.0337708
0.033692
0.0309114
0.0272075
0.0253526
0.0251284
0.0268717
0.0294475
0.0346123
0.0404035
0.0455581
0.0472726
0.0448096
0.0363056
0.0253609
0.0167724
0.0122932
0.00927348
0.00930581
0.0090861
0.0106803
0.0151776
0.0227452
0.0267394
0.00954939
0.00974705
0.0110384
0.0136508
0.0171596
0.0209053
0.0208996
0.0207517
0.0179882
0.015
0.01237
0.0109439
0.00985094
0.00943083
0.00894074
0.00880117
0.0085973
0.00858327
0.00852806
0.00849686
0.00852294
0.00847175
0.00862648
0.00893698
0.00994216
0.0111655
0.0128917
0.0146421
0.0159654
0.0168154
0.00816889
0.00839499
0.00851951
0.00854077
0.00858383
0.00854266
0.00857745
0.00854002
0.00861493
0.00858754
0.00864922
0.00863721
0.00871637
0.00868483
0.00882646
0.00872435
0.00886698
0.00872206
0.0088138
0.0087084
0.00877388
0.0087375
0.00876219
0.00879637
0.0087627
0.00891292
0.00885406
0.00904682
0.00900637
0.00843099
0.0079215
0.00865246
0.00875338
0.00871751
0.00877567
0.00875771
0.00881946
0.00879977
0.00886385
0.00885086
0.00891634
0.00891244
0.00899518
0.00900312
0.00906034
0.00903594
0.00904439
0.00899002
0.00898528
0.00894878
0.00895408
0.00892138
0.00892569
0.00889995
0.00889981
0.00888006
0.00888064
0.00887105
0.00885978
0.00793918
0.00793998
0.00887128
0.00890745
0.00892912
0.00893264
0.00895248
0.00897433
0.00899307
0.00901306
0.0090318
0.00905206
0.00907087
0.00910231
0.00913514
0.00915706
0.00916412
0.00914861
0.00911033
0.00906973
0.00904129
0.00901701
0.00899339
0.00897805
0.00896222
0.00894814
0.00893355
0.00892339
0.00890588
0.0088652
0.00793942
0.00794129
0.00887814
0.00891597
0.00893704
0.00895311
0.00896771
0.0089859
0.00900066
0.00901703
0.00903312
0.00905128
0.009071
0.00910457
0.00914055
0.00916319
0.00916435
0.00914178
0.0091062
0.00907215
0.00905128
0.00903299
0.00901366
0.00899757
0.00898074
0.00896303
0.00894708
0.0089306
0.00891469
0.00887901
0.00793996
0.00794017
0.00886855
0.00891004
0.00892898
0.00894315
0.00895796
0.00897427
0.00898951
0.00900566
0.00902324
0.00904223
0.00906544
0.00910143
0.00914078
0.00916325
0.0091638
0.00914152
0.00910721
0.00907344
0.00905237
0.0090337
0.00901396
0.00899753
0.0089803
0.00896232
0.00894632
0.00893001
0.00891459
0.00887884
0.00793995
0.00793939
0.00887676
0.00891776
0.00893861
0.00895279
0.00896864
0.00898458
0.00900029
0.00901484
0.00903136
0.00904793
0.00906749
0.00909794
0.00913303
0.00915726
0.00916512
0.00915012
0.00911117
0.00906633
0.00903704
0.00902404
0.0089989
0.00898116
0.00896438
0.00895
0.00893484
0.00892381
0.00890655
0.00886707
0.00793954
0.0079404
0.00887439
0.00891389
0.00893223
0.00894596
0.00896061
0.00897698
0.0089927
0.00900869
0.00902546
0.00904383
0.00906577
0.00909958
0.00913781
0.00916172
0.00916512
0.00914406
0.0091097
0.00907456
0.00905304
0.00903402
0.00901366
0.00899683
0.00897942
0.00896119
0.00894448
0.00892794
0.00891394
0.00887781
0.00793991
0.00794048
0.00887741
0.00891472
0.00892527
0.00894317
0.00895938
0.00897927
0.00899586
0.00901442
0.00903282
0.00905267
0.00907354
0.00910587
0.00914057
0.00916469
0.00916423
0.0091422
0.00910536
0.00907184
0.00905051
0.00903128
0.00901389
0.00899618
0.00898062
0.00896201
0.00894755
0.00893043
0.00891463
0.00887939
0.00794078
0.00794052
0.0088762
0.00891833
0.00893694
0.0089517
0.00896589
0.00898205
0.00899675
0.00901169
0.00902673
0.00904467
0.00906532
0.00909541
0.0091325
0.00915836
0.00916663
0.00914616
0.00911232
0.00907663
0.00905571
0.0090364
0.0090158
0.00899832
0.00898028
0.00896229
0.00894521
0.00892811
0.00891456
0.00887872
0.00793996
0.0179536
0.0146508
0.0125574
0.0116369
0.010823
0.00915236
0.00881499
0.00971858
0.0098979
0.0100271
0.00998828
0.00986557
0.0104505
0.0130276
0.0134348
0.0183554
0.0197067
0.0235661
0.0246584
0.0270942
0.028385
0.0282195
0.0276087
0.0275958
0.0288427
0.0300024
0.0305209
0.0293696
0.0280092
0.027393
0.0254709
0.0212917
0.0184996
0.0189275
0.018265
0.0166097
0.0144152
0.0116925
0.0100583
0.00970495
0.0128544
0.0202728
0.0262889
0.0288788
0.0133452
0.0140932
0.0203904
0.0279167
0.0320777
0.032894
0.0304719
0.0255466
0.0205228
0.0185368
0.0197212
0.0189862
0.0195095
0.0203252
0.0223359
0.0261584
0.0336224
0.043042
0.0520532
0.0548289
0.0506684
0.0398785
0.0268281
0.0183505
0.0133542
0.0106787
0.00919537
0.00973579
0.0140403
0.02033
0.0103542
0.0150753
0.022546
0.0295137
0.033462
0.0356706
0.0369611
0.0385395
0.0385402
0.0341985
0.0275975
0.0213027
0.0172424
0.014603
0.0132123
0.0120111
0.0112817
0.0106099
0.0101458
0.0097602
0.00940403
0.00917237
0.00891807
0.00878517
0.00864356
0.00862533
0.00857885
0.00872581
0.00897885
0.00907249
0.010911
0.0116151
0.0112709
0.0109114
0.0105222
0.0102233
0.00989348
0.00965524
0.00940581
0.00926799
0.00911039
0.00903233
0.00894791
0.00888315
0.00885387
0.00879948
0.00878441
0.00874676
0.00872698
0.00871034
0.00868389
0.00868131
0.00865304
0.00865036
0.00863312
0.00862867
0.00861766
0.0086263
0.00859312
0.0084721
0.00861619
0.00870888
0.00869427
0.00871058
0.00868031
0.00868972
0.00866492
0.00867762
0.00865374
0.0086709
0.00864897
0.00866524
0.00864869
0.00866241
0.00865104
0.00865938
0.00865143
0.00865444
0.00865009
0.00865196
0.00864962
0.00865084
0.00864935
0.00865062
0.00864925
0.00865087
0.00864966
0.00865083
0.00864284
0.00848883
0.00848539
0.00864602
0.00865724
0.00865666
0.00865709
0.00865931
0.00865809
0.0086612
0.00865935
0.0086627
0.0086608
0.00866419
0.00866287
0.00866676
0.00866537
0.00866804
0.008665
0.00866573
0.00866172
0.00866315
0.0086597
0.00866138
0.00865804
0.00866007
0.0086567
0.00865896
0.00865558
0.00865735
0.00864567
0.00848501
0.00848518
0.00864605
0.00865485
0.0086583
0.00865681
0.00866001
0.00865812
0.00866137
0.0086594
0.00866267
0.00866086
0.00866414
0.00866307
0.00866695
0.00866579
0.00866804
0.00866474
0.00866546
0.00866176
0.00866331
0.00866016
0.00866185
0.00865882
0.00866049
0.00865747
0.008659
0.00865599
0.00865578
0.00864522
0.0084881
0.00848773
0.00864582
0.00865456
0.00865838
0.00865662
0.00865974
0.0086579
0.00866104
0.00865916
0.00866234
0.00866063
0.00866392
0.00866298
0.00866695
0.00866581
0.00866798
0.00866472
0.00866548
0.00866181
0.00866333
0.00866017
0.00866184
0.00865881
0.00866047
0.00865745
0.00865896
0.00865599
0.00865577
0.00864517
0.00848812
0.00848844
0.00864526
0.0086571
0.00865605
0.00865943
0.00865744
0.00866073
0.00865872
0.00866194
0.00865999
0.00866325
0.00866153
0.00866516
0.0086643
0.00866765
0.00866583
0.00866726
0.00866338
0.0086636
0.0086609
0.00865978
0.00866145
0.00865819
0.00866009
0.00865681
0.00865894
0.00865561
0.00865729
0.00864554
0.00848517
0.00848814
0.00864568
0.00865466
0.00865853
0.00865674
0.00865985
0.00865802
0.00866114
0.00865926
0.0086624
0.00866067
0.00866392
0.0086629
0.00866681
0.00866574
0.00866804
0.00866485
0.00866558
0.00866185
0.00866335
0.0086602
0.00866182
0.0086588
0.00866042
0.00865742
0.00865884
0.00865593
0.00865557
0.00864527
0.008488
0.00848525
0.00864563
0.00865684
0.00865809
0.00865647
0.00865995
0.0086579
0.00866134
0.00865929
0.00866268
0.00866082
0.00866417
0.00866303
0.00866687
0.00866588
0.00866589
0.00866693
0.00866304
0.00866408
0.00866078
0.00866262
0.0086593
0.00866132
0.00865799
0.00865999
0.00865669
0.00865837
0.0086558
0.00864577
0.00848528
0.00848793
0.00864585
0.00865476
0.00865867
0.00865678
0.00866008
0.00865808
0.00866138
0.00865927
0.00866259
0.00866058
0.00866402
0.00866267
0.00866672
0.00866549
0.00866818
0.00866498
0.00866581
0.00866202
0.00866367
0.00866046
0.00866222
0.00865905
0.0086608
0.00865766
0.0086591
0.0086561
0.00865579
0.00864525
0.00848799
0.0141586
0.0135276
0.012859
0.0123597
0.0142177
0.0175331
0.0178164
0.0169844
0.0159434
0.0149915
0.0119758
0.0107842
0.0105728
0.00936454
0.0150267
0.0200522
0.0284464
0.027424
0.0302447
0.032526
0.0337724
0.0336971
0.0336221
0.0344233
0.0366336
0.0390383
0.0400611
0.0384673
0.0368174
0.0360709
0.0334183
0.0290155
0.0261512
0.0249571
0.0235999
0.022064
0.0196649
0.0161328
0.0125508
0.009944
0.00988539
0.0139011
0.0221735
0.0278331
0.01129
0.0166773
0.0258874
0.032169
0.0322084
0.0289452
0.0241284
0.0208141
0.0193118
0.0198767
0.0203846
0.0217841
0.0228569
0.0233994
0.0229575
0.0229474
0.0250732
0.0311423
0.0403393
0.051461
0.0586694
0.0582433
0.0482468
0.0342162
0.0230144
0.0162176
0.0121705
0.00975717
0.0097307
0.0136294
0.0139078
0.0238932
0.0326683
0.035126
0.0337454
0.0325056
0.0348498
0.0388983
0.0442946
0.0473413
0.0459025
0.0380681
0.0292771
0.0233302
0.0196372
0.0176105
0.0160227
0.0149588
0.0140263
0.0133286
0.0127148
0.0121981
0.0117366
0.0112792
0.0108519
0.0103492
0.0098904
0.00946898
0.00919798
0.00901434
0.0154654
0.0180545
0.0175467
0.0164246
0.0153648
0.0144568
0.0137806
0.0131592
0.012781
0.0123316
0.0121585
0.0118233
0.0117664
0.0115214
0.0115154
0.0113261
0.0113408
0.011193
0.0112124
0.0110991
0.0111177
0.0110292
0.0110383
0.0109697
0.0109609
0.0109046
0.0108661
0.0108234
0.0107712
0.0107286
0.0111224
0.0111311
0.011118
0.0110634
0.011058
0.011018
0.0110155
0.0109844
0.0109883
0.0109596
0.010969
0.010945
0.0109545
0.010934
0.010947
0.0109291
0.0109392
0.0109256
0.0109337
0.0109226
0.0109302
0.010921
0.0109281
0.0109202
0.0109263
0.0109199
0.0109241
0.0109219
0.0109181
0.0109076
0.0109029
0.0109213
0.0109195
0.0109236
0.0109219
0.0109186
0.0109239
0.0109177
0.0109237
0.0109171
0.0109236
0.0109171
0.0109237
0.0109178
0.0109238
0.0109181
0.0109239
0.0109178
0.0109237
0.0109176
0.0109239
0.0109171
0.0109236
0.0109167
0.0109233
0.0109165
0.0109232
0.0109169
0.010921
0.0109003
0.0109027
0.0109193
0.0109221
0.0109175
0.0109237
0.0109171
0.0109237
0.010917
0.0109235
0.0109169
0.0109236
0.0109175
0.0109239
0.0109183
0.0109241
0.0109186
0.0109241
0.010918
0.0109237
0.0109174
0.0109236
0.0109174
0.0109239
0.0109177
0.0109239
0.010918
0.0109234
0.0109207
0.0109175
0.0109067
0.0109059
0.010917
0.0109237
0.0109174
0.0109239
0.0109172
0.0109237
0.0109171
0.0109235
0.0109171
0.0109237
0.0109177
0.010924
0.0109184
0.0109242
0.0109186
0.010924
0.010918
0.0109237
0.0109174
0.0109236
0.0109174
0.0109239
0.0109177
0.010924
0.0109181
0.0109234
0.0109209
0.0109175
0.0109067
0.0109045
0.0109168
0.0109183
0.0109233
0.010917
0.0109234
0.0109168
0.0109234
0.0109167
0.0109233
0.010917
0.0109235
0.0109177
0.0109238
0.0109183
0.010924
0.0109185
0.0109241
0.0109195
0.0109217
0.0109227
0.0109175
0.0109239
0.010917
0.0109235
0.0109168
0.0109233
0.0109167
0.0109209
0.0109007
0.0109062
0.0109169
0.0109239
0.0109174
0.0109239
0.0109172
0.0109237
0.0109171
0.0109235
0.010917
0.0109236
0.0109176
0.0109239
0.0109184
0.0109242
0.0109186
0.0109241
0.0109182
0.0109238
0.0109175
0.0109237
0.0109175
0.010924
0.0109178
0.010924
0.0109182
0.0109232
0.0109213
0.0109176
0.0109068
0.0109002
0.0109196
0.0109187
0.0109179
0.0109228
0.0109166
0.0109234
0.0109167
0.0109233
0.0109167
0.0109235
0.0109173
0.0109239
0.0109184
0.0109233
0.0109231
0.0109187
0.010924
0.0109175
0.0109236
0.0109168
0.0109234
0.0109169
0.0109236
0.010917
0.0109236
0.010918
0.0109192
0.0109194
0.0109012
0.010906
0.0109169
0.0109239
0.0109172
0.0109241
0.010917
0.010924
0.0109169
0.0109238
0.0109167
0.0109237
0.0109171
0.0109241
0.010918
0.0109244
0.0109186
0.0109245
0.0109184
0.0109241
0.0109175
0.0109239
0.0109174
0.0109242
0.0109178
0.0109242
0.010918
0.0109231
0.0109212
0.0109172
0.0109064
0.0145236
0.0162048
0.0169435
0.0178178
0.0234224
0.026622
0.0250419
0.0234238
0.0215634
0.0207842
0.0180913
0.0153083
0.012025
0.00966616
0.016879
0.0179922
0.029943
0.0321241
0.0336547
0.0339723
0.0344131
0.0355444
0.0371866
0.0393771
0.042673
0.0458342
0.0476073
0.0471762
0.0459719
0.0451383
0.0419754
0.0371302
0.0328229
0.0302727
0.028737
0.0273473
0.0241878
0.0212846
0.0171008
0.0132195
0.00997719
0.0102157
0.0173497
0.025736
0.0115256
0.0203235
0.0304559
0.0340234
0.0311477
0.0263284
0.0225805
0.0219737
0.0216622
0.0220592
0.0232182
0.0245972
0.0271461
0.0293004
0.0306862
0.0304211
0.0296756
0.0303392
0.0339796
0.0417028
0.0522964
0.0606482
0.062174
0.0543597
0.0392964
0.0264622
0.0180138
0.0127062
0.00970827
0.00987726
0.0180159
0.0292917
0.0326208
0.0277606
0.0238655
0.0214422
0.0237623
0.0290998
0.0368281
0.0460916
0.0527979
0.0529526
0.0456804
0.0361575
0.0292738
0.0250452
0.0226556
0.0207198
0.0194076
0.0181545
0.0172288
0.0163181
0.0155306
0.0147417
0.0139635
0.0131885
0.0123863
0.0115646
0.0107563
0.010012
0.0218808
0.0267681
0.0269607
0.025351
0.0229347
0.020756
0.019182
0.0180322
0.0172013
0.0165724
0.0160383
0.0156668
0.0153255
0.0150606
0.0148634
0.0146607
0.014512
0.0143887
0.0142475
0.0141874
0.0140402
0.0140249
0.0138688
0.0138747
0.013712
0.013711
0.0135619
0.01355
0.0134142
0.013233
0.0141221
0.0142197
0.0140923
0.0140761
0.0139553
0.0139412
0.0138512
0.01385
0.0137809
0.0137915
0.013735
0.0137519
0.0137061
0.013722
0.013692
0.0137008
0.0136819
0.0136862
0.0136746
0.0136764
0.0136694
0.0136706
0.0136659
0.0136674
0.0136635
0.0136653
0.0136616
0.0136644
0.0136508
0.0134925
0.0134956
0.0136581
0.0136654
0.0136675
0.013665
0.0136647
0.0136662
0.0136646
0.0136656
0.0136644
0.0136651
0.0136643
0.0136653
0.0136646
0.0136655
0.0136646
0.0136657
0.0136645
0.0136654
0.0136645
0.0136657
0.013664
0.013665
0.0136636
0.0136647
0.0136636
0.013665
0.0136634
0.0136546
0.0134899
0.0134914
0.0136543
0.0136641
0.0136639
0.0136655
0.0136639
0.0136651
0.0136637
0.0136649
0.0136637
0.0136652
0.0136642
0.0136658
0.0136649
0.0136662
0.013665
0.0136661
0.0136646
0.0136654
0.013664
0.0136652
0.0136639
0.0136652
0.0136642
0.0136657
0.0136645
0.0136658
0.0136645
0.0136541
0.0134898
0.0134894
0.0136544
0.0136653
0.0136645
0.0136656
0.0136639
0.013665
0.0136636
0.0136648
0.0136638
0.0136652
0.0136643
0.0136658
0.013665
0.0136662
0.0136649
0.013666
0.0136646
0.0136654
0.013664
0.0136651
0.0136639
0.0136652
0.0136642
0.0136657
0.0136645
0.0136658
0.0136647
0.0136541
0.0134898
0.0134887
0.0136527
0.0136641
0.0136656
0.013664
0.0136651
0.0136636
0.0136647
0.0136634
0.0136648
0.0136637
0.0136651
0.0136643
0.0136657
0.0136646
0.0136659
0.0136648
0.0136662
0.013665
0.0136649
0.0136649
0.013664
0.0136652
0.0136638
0.0136649
0.0136638
0.0136653
0.0136631
0.0136544
0.0134909
0.0134888
0.0136544
0.0136656
0.0136646
0.0136657
0.0136639
0.013665
0.0136636
0.0136648
0.0136637
0.0136651
0.0136642
0.0136658
0.0136649
0.0136661
0.013665
0.013666
0.0136646
0.0136654
0.0136641
0.0136652
0.013664
0.0136654
0.0136643
0.0136657
0.0136645
0.0136655
0.0136649
0.0136542
0.0134899
0.0134906
0.0136542
0.0136635
0.0136638
0.0136645
0.0136636
0.0136649
0.0136636
0.0136648
0.0136637
0.0136652
0.0136641
0.0136658
0.0136649
0.0136656
0.0136656
0.0136651
0.0136659
0.0136641
0.0136652
0.0136637
0.0136649
0.0136637
0.013665
0.0136638
0.0136653
0.0136643
0.013663
0.0136541
0.0134908
0.0134887
0.0136542
0.0136654
0.0136644
0.0136655
0.013664
0.013665
0.0136638
0.0136648
0.0136638
0.013665
0.0136643
0.0136659
0.0136652
0.0136668
0.0136656
0.0136668
0.0136654
0.0136661
0.0136647
0.0136655
0.0136644
0.0136657
0.0136647
0.0136659
0.0136642
0.0136653
0.0136646
0.0136536
0.0134892
0.0196011
0.0230008
0.0241463
0.0260161
0.0292106
0.0288496
0.0271888
0.0260569
0.0253484
0.0236202
0.0210681
0.0190356
0.0140945
0.0104143
0.0185282
0.0231173
0.031354
0.0344925
0.0341531
0.0322317
0.0316233
0.0336223
0.0364365
0.0399202
0.0436021
0.0475879
0.0509987
0.0534971
0.053376
0.0525957
0.0499229
0.0450715
0.0397453
0.0353515
0.0330714
0.0309337
0.0297898
0.025183
0.0215957
0.0180329
0.0135208
0.0103355
0.0130426
0.0222
0.0124332
0.0240604
0.0332388
0.034446
0.0317523
0.0276521
0.0248075
0.022321
0.0216089
0.0211408
0.0227533
0.0245878
0.0271539
0.028775
0.031424
0.0350482
0.0354882
0.0355017
0.0373552
0.040868
0.0458329
0.0548918
0.0629966
0.0646992
0.0576757
0.042913
0.0292701
0.0196723
0.013033
0.0100632
0.0212807
0.0303981
0.0301494
0.0243793
0.0183007
0.0171731
0.0181749
0.0230975
0.0311974
0.0410159
0.051222
0.0578776
0.0575142
0.0505985
0.0417207
0.0351503
0.030984
0.0284877
0.0264076
0.024888
0.0234812
0.0223261
0.021297
0.0202202
0.0192141
0.018043
0.0168178
0.015387
0.0137796
0.0118783
0.0278923
0.0320428
0.0351339
0.035789
0.0332105
0.0294324
0.0265593
0.0246128
0.0234167
0.0224471
0.0217933
0.0211923
0.0208256
0.0204162
0.0202114
0.0199101
0.0197919
0.0195623
0.0195091
0.019295
0.0192778
0.0191123
0.0190702
0.0189491
0.0188711
0.0187561
0.0186275
0.0184602
0.0182657
0.0180504
0.0196855
0.019493
0.0193411
0.0191873
0.019119
0.0190146
0.0189903
0.0189066
0.0189067
0.0188382
0.0188527
0.0187937
0.0188143
0.018765
0.018788
0.0187479
0.0187665
0.0187378
0.0187507
0.0187309
0.0187397
0.0187254
0.018732
0.0187215
0.0187263
0.0187181
0.0187196
0.0187152
0.0187128
0.0187648
0.0187745
0.0187161
0.0187141
0.0187139
0.0187116
0.0187104
0.0187129
0.0187095
0.0187121
0.0187087
0.0187115
0.018708
0.0187109
0.0187081
0.0187104
0.0187083
0.0187105
0.0187083
0.018711
0.0187087
0.0187117
0.0187084
0.0187115
0.0187084
0.0187117
0.018709
0.018712
0.0187093
0.0187129
0.0187652
0.0187667
0.0187107
0.0187102
0.0187098
0.0187126
0.0187089
0.0187118
0.018708
0.0187112
0.0187078
0.018711
0.0187081
0.0187108
0.0187084
0.0187106
0.0187086
0.0187106
0.0187082
0.0187108
0.018708
0.0187113
0.0187081
0.0187118
0.0187089
0.0187126
0.01871
0.0187121
0.0187105
0.0187115
0.0187645
0.0187641
0.0187118
0.0187126
0.01871
0.0187126
0.0187087
0.0187117
0.018708
0.0187111
0.0187079
0.018711
0.0187081
0.0187107
0.0187084
0.0187106
0.0187085
0.0187105
0.0187082
0.0187108
0.018708
0.0187112
0.0187081
0.0187118
0.0187089
0.0187126
0.0187099
0.018712
0.0187107
0.0187115
0.0187645
0.0187622
0.0187098
0.0187103
0.0187126
0.0187095
0.018712
0.0187083
0.0187112
0.0187077
0.0187109
0.0187077
0.0187106
0.018708
0.0187104
0.0187084
0.0187105
0.0187086
0.0187108
0.0187098
0.0187091
0.0187102
0.0187085
0.0187117
0.0187085
0.018712
0.0187092
0.0187124
0.018709
0.0187124
0.0187659
0.0187635
0.0187112
0.0187126
0.01871
0.0187126
0.0187087
0.0187115
0.0187079
0.0187109
0.0187078
0.0187109
0.0187081
0.0187107
0.0187084
0.0187105
0.0187086
0.0187105
0.0187082
0.0187108
0.0187081
0.0187114
0.0187083
0.0187119
0.018709
0.0187125
0.0187099
0.0187115
0.018711
0.0187115
0.0187645
0.0187657
0.0187113
0.0187097
0.0187093
0.0187113
0.0187087
0.0187118
0.0187081
0.0187113
0.0187079
0.0187111
0.0187078
0.0187109
0.0187085
0.0187098
0.0187095
0.0187086
0.0187107
0.0187078
0.018711
0.0187078
0.0187112
0.018708
0.0187117
0.0187088
0.0187121
0.01871
0.0187089
0.0187106
0.018766
0.0187635
0.0187113
0.0187127
0.0187098
0.0187129
0.0187086
0.0187122
0.0187078
0.0187116
0.0187074
0.0187111
0.0187073
0.0187107
0.0187079
0.0187106
0.0187082
0.0187102
0.0187077
0.0187104
0.0187074
0.0187109
0.0187074
0.0187114
0.0187081
0.0187122
0.018709
0.0187108
0.01871
0.0187102
0.018763
0.0270301
0.0290967
0.0303203
0.0312221
0.0303027
0.0289478
0.0286485
0.0286041
0.0277306
0.024914
0.020818
0.0172114
0.0133586
0.0116487
0.0198328
0.023555
0.0314174
0.0339715
0.0315059
0.0278603
0.0270549
0.0288111
0.0321734
0.0357776
0.0401963
0.0446169
0.0495815
0.0538155
0.0565943
0.0577244
0.0563578
0.0527563
0.0470959
0.0416648
0.038142
0.0352572
0.0324654
0.0313928
0.0268137
0.0215141
0.0187915
0.0145908
0.0115721
0.0187656
0.0142278
0.0259308
0.0322515
0.0315933
0.0263282
0.0204241
0.0179826
0.0167419
0.0182292
0.0208828
0.0243434
0.0276365
0.0298141
0.0320206
0.0346293
0.0367887
0.038776
0.0402618
0.0439217
0.0462862
0.0480307
0.0531603
0.0591288
0.0658781
0.0666294
0.0598934
0.0456556
0.0302708
0.0176925
0.00975209
0.0248834
0.0284286
0.0268224
0.0219388
0.0177426
0.0157145
0.0166234
0.0217112
0.0301079
0.0405948
0.0506175
0.058507
0.0624332
0.060789
0.0543714
0.0468699
0.0412696
0.0374764
0.0349699
0.0327671
0.0310885
0.0294128
0.0279761
0.026519
0.0250505
0.0235511
0.0217859
0.0196299
0.0167372
0.0135336
0.0272791
0.0304086
0.036852
0.0423753
0.0428943
0.0391181
0.0350494
0.0323318
0.0306127
0.0294573
0.0283961
0.0277469
0.0269831
0.0265989
0.0260627
0.0257866
0.0254595
0.0251947
0.0250179
0.0247483
0.0246567
0.0243968
0.0243341
0.0240748
0.0239874
0.0237277
0.023587
0.0232602
0.0229894
0.0226364
0.0256424
0.0253431
0.024878
0.0246461
0.0243986
0.024273
0.0241342
0.0240694
0.0239858
0.0239434
0.0238956
0.0238586
0.0238372
0.0238015
0.0237995
0.0237648
0.023771
0.0237416
0.0237503
0.0237263
0.0237355
0.023716
0.0237246
0.0237095
0.0237157
0.0237017
0.0237041
0.0236903
0.0236887
0.0237371
0.0237595
0.0237023
0.0236973
0.0237023
0.0237004
0.0237034
0.0237051
0.0237048
0.0237054
0.023705
0.0237051
0.0237047
0.0237044
0.0237046
0.0237041
0.0237044
0.0237043
0.0237045
0.0237048
0.0237053
0.0237052
0.0237046
0.0237044
0.0237039
0.023703
0.0237018
0.0236996
0.023696
0.0236956
0.0237529
0.0237541
0.023695
0.0236954
0.0236998
0.0237024
0.0237032
0.023704
0.0237039
0.0237041
0.023704
0.0237044
0.0237045
0.0237046
0.0237045
0.0237046
0.0237045
0.0237046
0.0237045
0.0237045
0.0237043
0.0237043
0.0237041
0.0237043
0.0237042
0.0237039
0.0237023
0.0237003
0.0236965
0.0236955
0.0237516
0.0237519
0.0236961
0.023697
0.0237002
0.0237023
0.0237031
0.0237039
0.0237038
0.023704
0.0237041
0.0237045
0.0237045
0.0237045
0.0237045
0.0237046
0.0237044
0.0237045
0.0237044
0.0237044
0.0237043
0.0237043
0.0237041
0.0237043
0.0237042
0.0237039
0.0237021
0.0237002
0.0236965
0.0236955
0.0237516
0.0237499
0.0236945
0.0236967
0.0237002
0.0237021
0.023703
0.0237036
0.0237037
0.0237037
0.0237038
0.023704
0.0237042
0.0237042
0.0237042
0.0237042
0.0237046
0.0237043