/*--------------------------------*- C++ -*----------------------------------*\
| =========                 |                                                 |
| \\      /  F ield         | OpenFOAM: The Open Source CFD Toolbox           |
|  \\    /   O peration     | Version:  2.1.1                                 |
|   \\  /    A nd           | Web:      www.OpenFOAM.org                      |
|    \\/     M anipulation  |                                                 |
\*---------------------------------------------------------------------------*/
FoamFile
{
    version     2.0;
    format      ascii;
    class       volScalarField;
    location    "0.001950000";
    object      rhoEu;
}
// * * * * * * * * * * * * * * * * * * * * * * * * * * * * * * * * * * * * * //

dimensions      [1 -1 -2 0 0 0 0];

internalField   nonuniform List<scalar> 
12384
(
-35356.6
-35509.8
-35339.7
-37227.3
-35673.8
-119007
-86924.9
-85187.4
-83902.5
-80076.9
-77078.9
-76286.6
-76770.6
-78078
-87875.7
-88129.3
-88513.3
-89387
-91930.4
-96485.1
-101458
-107558
-104657
-104508
-96766.9
-101252
-98961.6
-95849.8
-91284.9
-88728.5
-88211.3
-88254.5
-88206.2
-87994.9
-88716.2
-87602.3
-84196.8
-85045.6
-84871.1
-87232.4
-92784
-97421.5
-103889
-102216
-87768.2
-86211
-84801.7
-81564.9
-79407.6
-76571.5
-74482.1
-72926.9
-71934.3
-72688.7
-68223
-71849.8
-71264.5
-75392.9
-74504.9
-74057.6
-71459.1
-70299.1
-66617.1
-67330.8
-61125.9
-62489.9
-52892.9
-59125.8
-36938.4
-32961.5
-3012.3
-959.162
-580.262
-5234.35
-103687
-103652
-102992
-102988
-102770
-102256
-102392
-101731
-101532
-101056
-100672
-100114
-99838.9
-99387.7
-99185.5
-98889.3
-98698.3
-98538.1
-98392
-98142
-98368.6
-98051.8
-98629
-98569.6
-98817
-99001.9
-99460.1
-99924.4
-100384
-100776
-106954
-106923
-106907
-106881
-106852
-106842
-106798
-106875
-106825
-106924
-106900
-106963
-107026
-107032
-107125
-107149
-107220
-107280
-107307
-107388
-107400
-107464
-107481
-107524
-107542
-107571
-107587
-107604
-107612
-107618
-107545
-107543
-107544
-107544
-107537
-107539
-107534
-107534
-107527
-107529
-107521
-107522
-107517
-107517
-107511
-107514
-107507
-107511
-107501
-107505
-107502
-107499
-107501
-107498
-107498
-107494
-107497
-107494
-107495
-107494
-107489
-107488
-107488
-107489
-107488
-107489
-107488
-107489
-107487
-107488
-107486
-107486
-107487
-107488
-107488
-107489
-107488
-107488
-107486
-107487
-107488
-107487
-107487
-107488
-107487
-107487
-107487
-107488
-107488
-107488
-107488
-107488
-107488
-107488
-107486
-107488
-107488
-107488
-107487
-107487
-107486
-107487
-107487
-107488
-107488
-107488
-107488
-107488
-107485
-107487
-107488
-107487
-107487
-107488
-107488
-107486
-107487
-107486
-107488
-107488
-107487
-107488
-107487
-107487
-107486
-107488
-107488
-107488
-107486
-107487
-107486
-107487
-107489
-107488
-107488
-107488
-107488
-107488
-107486
-107487
-107488
-107487
-107487
-107488
-107488
-107486
-107488
-107486
-107488
-107488
-107487
-107486
-107488
-107488
-107486
-107487
-107488
-107486
-107487
-107488
-107487
-107486
-107488
-107489
-107488
-107488
-107488
-107489
-107487
-107487
-107488
-107488
-107487
-107488
-107488
-107486
-107487
-107488
-107488
-107488
-107488
-107488
-107487
-107488
-107486
-107488
-107488
-107488
-107486
-107487
-107486
-107487
-107487
-107488
-107488
-107488
-107488
-107488
-107485
-107487
-107488
-107487
-107487
-107488
-107488
-107486
-107488
-107486
-107488
-107488
-107489
-107486
-107487
-107489
-107485
-107489
-107488
-107487
-107488
-107487
-107486
-107487
-107487
-107488
-107488
-107487
-107488
-107488
-107486
-107485
-107488
-107487
-107487
-107487
-107488
-107486
-107488
-107488
-107488
-107489
-107488
-107489
-107486
-107488
-107486
-107488
-107487
-107488
-107487
-107487
-107487
-107487
-107488
-107488
-107486
-107487
-107486
-107487
-107488
-107488
-107488
-107488
-107487
-107488
-107487
-107486
-107487
-107488
-107487
-107487
-36090.6
-36422.7
-38332.8
-36492.9
-42721.7
-118755
-91402.6
-88471.1
-83592.6
-77749.2
-74205.5
-73434.8
-74297.8
-75650.6
-88395.9
-89821.9
-90859.9
-98675.9
-116132
-112890
-90120.4
-76014
-69994.5
-76421.5
-85802.4
-94290.4
-89301.7
-94721.2
-108856
-116068
-106788
-96844.9
-88402.7
-86905.7
-87726.4
-84881.8
-86695.5
-84485.8
-86366
-88236.5
-94598.7
-95481.9
-103588
-100891
-87398.3
-85146.5
-83617.7
-80161.7
-77243.4
-74727.3
-72911.1
-72472
-71488.4
-66978.4
-65318
-67663.4
-71464.8
-73246.3
-76678.5
-75694
-74368.6
-72644.7
-66884
-66854.9
-61774.9
-63473.8
-52948.6
-58143.5
-45417.5
-28012.4
-15121.4
-1724.3
-4201.62
-4943.49
-103136
-103012
-102680
-102687
-101905
-102020
-101378
-101224
-101260
-100268
-100140
-99672.9
-99308.5
-99290.3
-98927.7
-98941.9
-98694.9
-98646.1
-98591
-98598.6
-98399.4
-98487.2
-98517
-98632.4
-98774.9
-98974.9
-99390.2
-99931
-100356
-100780
-106940
-106889
-106880
-106857
-106799
-106769
-106768
-106781
-106812
-106858
-106918
-106940
-107022
-107036
-107117
-107153
-107215
-107282
-107314
-107376
-107409
-107456
-107486
-107517
-107546
-107566
-107587
-107602
-107612
-107618
-107552
-107551
-107554
-107537
-107547
-107533
-107539
-107530
-107532
-107526
-107527
-107522
-107519
-107520
-107510
-107517
-107505
-107513
-107501
-107509
-107498
-107504
-107496
-107501
-107494
-107498
-107494
-107493
-107496
-107493
-107488
-107486
-107492
-107486
-107488
-107491
-107485
-107492
-107484
-107492
-107485
-107492
-107485
-107491
-107486
-107491
-107485
-107492
-107485
-107491
-107484
-107491
-107484
-107492
-107484
-107492
-107484
-107491
-107487
-107487
-107488
-107487
-107486
-107490
-107485
-107491
-107484
-107491
-107484
-107491
-107484
-107491
-107486
-107491
-107486
-107491
-107486
-107491
-107485
-107490
-107484
-107491
-107484
-107491
-107484
-107491
-107485
-107486
-107488
-107486
-107486
-107488
-107483
-107491
-107484
-107492
-107484
-107491
-107484
-107491
-107484
-107491
-107486
-107491
-107486
-107491
-107485
-107491
-107485
-107491
-107484
-107491
-107484
-107491
-107484
-107491
-107485
-107485
-107488
-107486
-107487
-107487
-107489
-107485
-107491
-107484
-107491
-107484
-107491
-107484
-107491
-107486
-107491
-107485
-107490
-107485
-107491
-107485
-107490
-107486
-107485
-107491
-107485
-107492
-107484
-107492
-107484
-107491
-107485
-107488
-107486
-107488
-107483
-107491
-107484
-107491
-107484
-107491
-107484
-107491
-107484
-107491
-107486
-107491
-107485
-107491
-107486
-107491
-107485
-107490
-107484
-107491
-107484
-107491
-107484
-107491
-107485
-107485
-107488
-107486
-107488
-107487
-107491
-107490
-107485
-107491
-107484
-107491
-107484
-107491
-107484
-107491
-107485
-107490
-107486
-107486
-107491
-107486
-107491
-107485
-107491
-107485
-107491
-107485
-107490
-107484
-107490
-107489
-107487
-107488
-107487
-107489
-107484
-107490
-107484
-107492
-107484
-107492
-107484
-107491
-107484
-107492
-107484
-107491
-107485
-107490
-107485
-107491
-107485
-107491
-107484
-107490
-107484
-107491
-107484
-107491
-107485
-107486
-107487
-107486
-37063.1
-41051.9
-42162.2
-48446.5
-75295.1
-106984
-106929
-110036
-107474
-88296.2
-74666
-72553.7
-73352.4
-75818.6
-89868.4
-97413.8
-120888
-98552.9
-43752.3
-37707.3
-35757
-35668.8
-36577.3
-35086.9
-38490.1
-35565.8
-37021.4
-37347.4
-39506.6
-41010.6
-40536.3
-68754.7
-124753
-98603
-89826
-87620
-82708.5
-84280.7
-86183.8
-89514.9
-95837.9
-95997.3
-102328
-100423
-85466
-84380.8
-82305.2
-79975.5
-77645.5
-76319.5
-75437.3
-72432
-68057
-64045.1
-64284.6
-63862.3
-67757.2
-67461.5
-71088.2
-74767.9
-76569.5
-75445.4
-69489.4
-66658.5
-60026.4
-62199.8
-53639.4
-56845.2
-44973.5
-35320.3
-17675.6
-10829.3
-5671.24
-2417.27
-102756
-102408
-102193
-101515
-100915
-100152
-99780
-99334.6
-98422.5
-99084.4
-98641.1
-99112
-98825.4
-98400.2
-98698.3
-98465.9
-98730.4
-98709.5
-98809.3
-99019.4
-98885.8
-99068.7
-98965.1
-98949.8
-99109.4
-99280.5
-99560
-99994.5
-100314
-100690
-106911
-106783
-106780
-106728
-106685
-106680
-106655
-106708
-106741
-106836
-106931
-106966
-107076
-107099
-107167
-107242
-107260
-107353
-107362
-107435
-107454
-107503
-107524
-107561
-107579
-107599
-107616
-107628
-107638
-107642
-107568
-107568
-107567
-107571
-107562
-107565
-107558
-107556
-107553
-107551
-107548
-107546
-107541
-107540
-107538
-107533
-107533
-107529
-107531
-107525
-107527
-107521
-107524
-107519
-107523
-107517
-107520
-107518
-107518
-107518
-107512
-107512
-107511
-107512
-107511
-107511
-107511
-107509
-107510
-107510
-107512
-107511
-107512
-107510
-107511
-107509
-107511
-107509
-107510
-107509
-107510
-107509
-107511
-107510
-107512
-107509
-107511
-107510
-107512
-107510
-107511
-107511
-107511
-107511
-107511
-107510
-107511
-107509
-107510
-107510
-107511
-107511
-107512
-107509
-107511
-107509
-107510
-107510
-107512
-107510
-107512
-107509
-107511
-107510
-107511
-107509
-107511
-107511
-107511
-107512
-107511
-107509
-107511
-107510
-107511
-107510
-107511
-107510
-107510
-107510
-107511
-107510
-107512
-107510
-107511
-107509
-107510
-107510
-107512
-107510
-107512
-107509
-107511
-107510
-107511
-107509
-107511
-107511
-107511
-107512
-107511
-107510
-107510
-107512
-107509
-107511
-107510
-107511
-107509
-107512
-107510
-107512
-107510
-107511
-107510
-107510
-107510
-107511
-107509
-107510
-107511
-107509
-107511
-107510
-107512
-107509
-107511
-107510
-107511
-107510
-107512
-107509
-107512
-107510
-107511
-107510
-107511
-107510
-107510
-107510
-107511
-107510
-107512
-107509
-107510
-107509
-107510
-107509
-107512
-107510
-107512
-107509
-107511
-107510
-107511
-107509
-107512
-107511
-107511
-107512
-107512
-107512
-107510
-107510
-107511
-107511
-107511
-107509
-107510
-107510
-107511
-107509
-107511
-107510
-107511
-107511
-107510
-107511
-107510
-107511
-107509
-107511
-107510
-107511
-107510
-107511
-107509
-107511
-107511
-107511
-107511
-107511
-107511
-107509
-107511
-107509
-107512
-107509
-107511
-107509
-107510
-107510
-107511
-107509
-107510
-107509
-107510
-107509
-107510
-107509
-107511
-107510
-107510
-107509
-107513
-107509
-107510
-107511
-107510
-107511
-41659.2
-46225.5
-51656.4
-53020.7
-61659
-61704.6
-64004.7
-58883
-59366.1
-92217.6
-101222
-78406.1
-71765.6
-71856.3
-91003.9
-117948
-38743.3
-34792.5
-33992.3
-32587.8
-32297.5
-32044.7
-32240
-33150.6
-30897.9
-32739.5
-31602.6
-31980.2
-32263.1
-32890.8
-34161.2
-37293
-39983
-39449.8
-39536.6
-68691.5
-96403.9
-78573.1
-83664.7
-88186.6
-95763.3
-95207.5
-101241
-99196.4
-84377.7
-83280
-81792.3
-80390.4
-79331.5
-80396
-80194.9
-78010.4
-71009.9
-66703.8
-65906.2
-65528.9
-60846
-53508.8
-53883.6
-62055.8
-69176.8
-73491.7
-73185.3
-70594.3
-60841.6
-61320.7
-52556.3
-55664.4
-39815.9
-38262.5
-26853.7
-15384.9
-9293.11
-4269.51
-102252
-102043
-101628
-101044
-99988.3
-99162.3
-98313.5
-96620.8
-96170.4
-95387.2
-95967.4
-95680.4
-96921.2
-97219
-97283.1
-97768
-97865.7
-98354
-98496.1
-98737
-98998.3
-99004.9
-99043.3
-99126.1
-99098.1
-99370.4
-99611
-99892.1
-100241
-100479
-106915
-106609
-106592
-106531
-106474
-106458
-106460
-106504
-106599
-106657
-106815
-106881
-106983
-107092
-107115
-107233
-107240
-107336
-107358
-107419
-107459
-107487
-107531
-107546
-107579
-107592
-107610
-107626
-107632
-107639
-107574
-107571
-107574
-107560
-107568
-107556
-107563
-107553
-107553
-107549
-107548
-107543
-107541
-107541
-107533
-107537
-107528
-107529
-107527
-107525
-107522
-107522
-107520
-107520
-107518
-107517
-107516
-107515
-107516
-107515
-107510
-107508
-107510
-107509
-107508
-107511
-107508
-107512
-107507
-107511
-107507
-107511
-107507
-107511
-107506
-107511
-107507
-107511
-107507
-107510
-107507
-107510
-107507
-107511
-107508
-107510
-107508
-107511
-107507
-107509
-107509
-107509
-107507
-107511
-107507
-107511
-107508
-107511
-107506
-107511
-107506
-107511
-107506
-107510
-107506
-107510
-107506
-107509
-107506
-107511
-107506
-107510
-107507
-107511
-107508
-107510
-107507
-107508
-107509
-107509
-107508
-107510
-107507
-107510
-107507
-107511
-107507
-107511
-107506
-107511
-107506
-107511
-107506
-107510
-107507
-107510
-107506
-107510
-107506
-107511
-107506
-107510
-107507
-107511
-107508
-107510
-107507
-107508
-107509
-107509
-107509
-107508
-107510
-107507
-107511
-107508
-107511
-107507
-107511
-107506
-107511
-107506
-107511
-107506
-107509
-107506
-107509
-107508
-107509
-107507
-107507
-107510
-107507
-107511
-107508
-107510
-107507
-107510
-107507
-107509
-107509
-107510
-107507
-107511
-107507
-107511
-107507
-107511
-107506
-107511
-107506
-107511
-107506
-107510
-107506
-107510
-107506
-107509
-107507
-107511
-107506
-107510
-107507
-107511
-107508
-107510
-107508
-107508
-107509
-107509
-107510
-107508
-107510
-107510
-107507
-107512
-107507
-107511
-107507
-107510
-107507
-107511
-107507
-107510
-107507
-107507
-107510
-107507
-107510
-107507
-107510
-107507
-107512
-107507
-107512
-107507
-107510
-107509
-107507
-107510
-107509
-107509
-107507
-107511
-107507
-107511
-107506
-107511
-107506
-107511
-107507
-107511
-107507
-107511
-107507
-107511
-107507
-107510
-107507
-107512
-107506
-107510
-107507
-107511
-107508
-107511
-107506
-107508
-107510
-107509
-47435.1
-40108.8
-43355.6
-52205.1
-35661.1
-17274.6
-40765.3
-42180.4
-43849.1
-46481
-54427.4
-106614
-85366.5
-71833.1
-89929.4
-96311.2
-33084.2
-33096.1
-32267.6
-32525.6
-32415.6
-32593.2
-32316.7
-32279.6
-33626.7
-32800
-33292
-33129.7
-33036.8
-33481.5
-32987.6
-32737.3
-34402.3
-35279.4
-36752.3
-36341.1
-96942.8
-84435.7
-79622.9
-86537.4
-93118.5
-95805.7
-99717.2
-99392.4
-82475.1
-82621.5
-81327.2
-81751.9
-82363.1
-84473.8
-85030.8
-81717.1
-73559.9
-70198.1
-69282.6
-79437.8
-77690.5
-103623
-94574
-69877.8
-65220.1
-71029.2
-73230.6
-73609.8
-61907.3
-61383
-49592.7
-52124.9
-40306
-35470.3
-32178.9
-25413.4
-13713.4
-7893.06
-102387
-102023
-102062
-101509
-100995
-98937.4
-95919.9
-93539.2
-91581.2
-91567
-92005.6
-93738.7
-93928.9
-95462.5
-95990.1
-96382.5
-97105.4
-97434
-98052.2
-98320.7
-98610.4
-98945.5
-98965.8
-99120.9
-99235.2
-99292.8
-99544.9
-99834.8
-100071
-100194
-106957
-106433
-106317
-106211
-106196
-106163
-106214
-106272
-106347
-106498
-106595
-106800
-106842
-107027
-107040
-107174
-107207
-107297
-107334
-107397
-107431
-107479
-107505
-107542
-107561
-107587
-107602
-107618
-107627
-107634
-107560
-107564
-107556
-107566
-107556
-107563
-107552
-107557
-107547
-107547
-107544
-107541
-107540
-107533
-107535
-107529
-107531
-107524
-107527
-107520
-107523
-107517
-107521
-107515
-107517
-107513
-107515
-107513
-107514
-107511
-107506
-107507
-107506
-107507
-107506
-107505
-107507
-107506
-107506
-107505
-107506
-107505
-107507
-107506
-107507
-107505
-107507
-107505
-107508
-107505
-107506
-107505
-107507
-107505
-107506
-107505
-107507
-107505
-107507
-107505
-107506
-107506
-107506
-107505
-107507
-107505
-107507
-107506
-107507
-107504
-107507
-107504
-107507
-107505
-107507
-107505
-107507
-107504
-107507
-107504
-107507
-107504
-107507
-107504
-107506
-107505
-107506
-107506
-107506
-107506
-107506
-107505
-107506
-107505
-107506
-107505
-107507
-107506
-107506
-107504
-107506
-107504
-107507
-107505
-107507
-107505
-107507
-107504
-107507
-107504
-107506
-107504
-107507
-107505
-107506
-107505
-107506
-107506
-107506
-107506
-107506
-107506
-107505
-107506
-107505
-107507
-107505
-107508
-107504
-107506
-107504
-107507
-107504
-107507
-107505
-107507
-107504
-107507
-107505
-107505
-107507
-107504
-107507
-107505
-107506
-107505
-107506
-107505
-107507
-107505
-107506
-107505
-107506
-107505
-107507
-107505
-107507
-107506
-107507
-107504
-107507
-107504
-107507
-107505
-107507
-107505
-107507
-107504
-107507
-107504
-107507
-107504
-107507
-107504
-107506
-107505
-107506
-107506
-107506
-107506
-107505
-107506
-107505
-107505
-107505
-107505
-107507
-107505
-107506
-107504
-107507
-107505
-107506
-107505
-107506
-107506
-107505
-107506
-107505
-107506
-107504
-107507
-107505
-107507
-107505
-107507
-107505
-107506
-107506
-107505
-107507
-107505
-107507
-107505
-107507
-107505
-107507
-107505
-107508
-107505
-107506
-107504
-107507
-107504
-107507
-107505
-107506
-107504
-107507
-107505
-107506
-107505
-107507
-107506
-107506
-107505
-107507
-107506
-107507
-107507
1437.58
40044.9
44967.3
40655.3
71952.3
59185.3
5455.16
-35737.1
-37217.8
-38546.1
-42348.2
-47489.9
-110662
-78782.7
-99204.9
-41522.4
-33067.5
-32830.7
-32846
-32398.6
-32585.4
-32581.7
-32959.7
-33045.1
-33310.1
-33977.6
-34503.4
-34387.8
-35005
-34979.3
-34781.4
-34721.1
-34452.3
-35049
-34566.6
-35041.8
-35301.2
-110362
-81289.8
-82922.4
-90427.2
-94649.8
-97594.2
-99013.3
-81457.2
-81483.9
-82063.5
-83724.1
-85874.6
-86544.2
-84509.8
-76791.8
-69616.9
-86219
-102726
-79467.8
-39576.2
-31041.2
-31551.3
-36836.4
-69259.1
-100482
-79009
-70675.1
-65130.5
-60627.6
-50327.7
-45274.3
-41723.6
-35416.8
-29799.8
-31183
-29831.6
-30398.4
-101958
-102371
-102124
-102364
-100291
-96623.6
-92483
-88041.5
-86292.6
-85902.3
-86629
-88360.9
-91003.2
-92230.2
-94258.5
-95064.9
-95694.3
-96567.8
-97045.5
-97744.8
-98097.5
-98470.4
-98894.1
-98979.5
-99233.2
-99409.2
-99548
-99658.5
-99757.9
-99552.3
-106894
-106110
-105722
-105648
-105652
-105798
-105867
-105995
-106109
-106223
-106451
-106565
-106774
-106914
-106988
-107121
-107155
-107265
-107289
-107377
-107397
-107460
-107482
-107520
-107547
-107572
-107592
-107609
-107620
-107626
-107564
-107554
-107568
-107554
-107564
-107552
-107559
-107545
-107555
-107540
-107546
-107536
-107538
-107533
-107532
-107527
-107527
-107523
-107523
-107519
-107518
-107516
-107515
-107513
-107513
-107512
-107512
-107510
-107511
-107509
-107504
-107504
-107505
-107504
-107504
-107505
-107504
-107503
-107503
-107503
-107503
-107503
-107503
-107503
-107502
-107503
-107503
-107503
-107503
-107504
-107502
-107504
-107502
-107504
-107502
-107504
-107502
-107504
-107502
-107504
-107504
-107504
-107503
-107504
-107502
-107504
-107502
-107503
-107502
-107502
-107502
-107503
-107502
-107504
-107503
-107504
-107502
-107504
-107502
-107503
-107502
-107503
-107502
-107504
-107502
-107504
-107502
-107504
-107504
-107503
-107503
-107504
-107502
-107504
-107502
-107504
-107502
-107503
-107503
-107502
-107502
-107503
-107502
-107504
-107502
-107504
-107502
-107504
-107502
-107503
-107502
-107503
-107502
-107504
-107502
-107504
-107502
-107504
-107504
-107503
-107503
-107503
-107504
-107502
-107504
-107502
-107504
-107502
-107503
-107502
-107503
-107502
-107504
-107502
-107504
-107502
-107504
-107502
-107503
-107502
-107502
-107503
-107502
-107504
-107502
-107504
-107502
-107503
-107502
-107504
-107504
-107504
-107502
-107504
-107502
-107504
-107502
-107503
-107502
-107502
-107502
-107503
-107502
-107504
-107503
-107504
-107502
-107504
-107502
-107503
-107502
-107503
-107502
-107505
-107502
-107504
-107502
-107504
-107504
-107503
-107504
-107503
-107503
-107503
-107503
-107504
-107502
-107503
-107502
-107502
-107502
-107504
-107502
-107503
-107502
-107502
-107503
-107502
-107503
-107502
-107503
-107503
-107502
-107503
-107504
-107502
-107504
-107503
-107502
-107504
-107503
-107502
-107502
-107504
-107503
-107504
-107502
-107504
-107503
-107503
-107502
-107504
-107503
-107503
-107503
-107504
-107503
-107503
-107502
-107503
-107502
-107504
-107502
-107504
-107503
-107504
-107502
-107504
-107504
-107504
84510.6
110691
110579
109992
97464
52123.4
-9720.99
-34152.3
-34746.3
-36139.6
-38842.7
-41549.1
-80559.4
-84526.9
-108074
-36836.4
-33204.1
-33323.1
-32532.3
-32168.7
-31763
-32250.2
-32448.2
-33039
-33420.1
-34197.3
-34875.4
-35380
-36002.9
-36270.1
-36975.1
-36133.6
-36088.8
-35724.2
-35902.5
-34687.6
-32453.9
-32808
-114381
-81398.8
-86605.3
-92408.2
-94281.7
-95532.5
-80864.5
-81672.4
-83767.2
-85698.4
-86691.8
-83456
-79965.9
-88381.7
-107503
-69487.6
-31698
-24208.7
-39202.7
-33726.9
-33748
-25601.1
-34682.9
-37737.2
-41306.9
-108419
-69903.3
-58172.3
-48563.8
-47079.4
-35772.1
-37026.9
-33600.9
-31884.9
-35771.9
-29073
-103524
-102347
-101726
-99929.4
-95865.4
-90362.7
-83629.4
-79964.9
-78883.8
-79071.8
-80651.4
-83174.9
-86367
-89909
-91195.1
-93436.4
-94355.4
-95128.2
-96102.2
-96674.5
-97468.4
-97899.2
-98342.7
-98901.3
-99002.9
-99133.5
-99080.8
-99102.6
-99135.5
-97948.2
-106469
-105064
-104613
-104549
-104888
-105150
-105432
-105609
-105859
-105982
-106224
-106388
-106600
-106762
-106911
-107010
-107119
-107187
-107253
-107345
-107359
-107437
-107451
-107504
-107522
-107550
-107574
-107588
-107609
-107604
-107546
-107549
-107543
-107559
-107547
-107556
-107543
-107551
-107538
-107545
-107535
-107537
-107531
-107528
-107527
-107521
-107522
-107517
-107519
-107512
-107515
-107508
-107511
-107506
-107509
-107505
-107505
-107503
-107504
-107502
-107499
-107498
-107498
-107497
-107498
-107498
-107498
-107497
-107497
-107497
-107498
-107497
-107498
-107496
-107498
-107497
-107498
-107498
-107498
-107496
-107498
-107496
-107498
-107496
-107498
-107496
-107498
-107497
-107498
-107497
-107497
-107497
-107498
-107496
-107498
-107496
-107498
-107496
-107498
-107497
-107497
-107497
-107498
-107497
-107498
-107497
-107498
-107497
-107498
-107497
-107497
-107495
-107498
-107497
-107498
-107497
-107497
-107497
-107497
-107497
-107497
-107497
-107498
-107496
-107498
-107496
-107498
-107497
-107498
-107497
-107497
-107497
-107498
-107497
-107497
-107497
-107498
-107497
-107497
-107497
-107497
-107495
-107498
-107497
-107498
-107497
-107497
-107497
-107497
-107497
-107497
-107497
-107497
-107498
-107496
-107498
-107496
-107498
-107495
-107497
-107497
-107498
-107497
-107498
-107497
-107498
-107497
-107498
-107497
-107497
-107496
-107495
-107498
-107496
-107498
-107496
-107497
-107497
-107498
-107497
-107497
-107497
-107498
-107496
-107498
-107496
-107498
-107496
-107498
-107497
-107497
-107497
-107498
-107497
-107498
-107497
-107498
-107497
-107498
-107497
-107497
-107495
-107498
-107497
-107498
-107497
-107497
-107497
-107497
-107497
-107496
-107496
-107496
-107496
-107496
-107496
-107498
-107496
-107498
-107496
-107497
-107497
-107498
-107497
-107497
-107497
-107497
-107498
-107497
-107498
-107496
-107496
-107496
-107498
-107496
-107498
-107496
-107497
-107497
-107497
-107497
-107497
-107498
-107496
-107498
-107496
-107498
-107496
-107497
-107495
-107497
-107497
-107498
-107496
-107497
-107496
-107497
-107496
-107497
-107496
-107498
-107496
-107498
-107497
-107498
-107498
-107498
-107497
-107497
-107498
135598
131805
127559
104030
51513.7
-20471.6
-33753.2
-33479.1
-33888.1
-35387.1
-38992.2
-43877
-90202.7
-86463.6
-123076
-36648.2
-33443.7
-33158.8
-32415.5
-31911.3
-32237.8
-31579.1
-31758.5
-32035.2
-32711.1
-33477.7
-34435.7
-35523
-35989
-37242.7
-37569.2
-37856.1
-37455.7
-36906.5
-36215.3
-35471.6
-32439.6
-31099.9
-32224.6
-98800.8
-90805.2
-87405.1
-88862.2
-92703.4
-81697.2
-81339.1
-82309.8
-82718.3
-79926.9
-84302
-96104.3
-90695.5
-36359.9
-26412.8
-31323.2
-30318.6
-35165.1
-36993.8
-34878.1
-36149.3
-36734.8
-36390.1
-33019.6
-35194.4
-55314.5
-97938.6
-51545.2
-40263.1
-38254.1
-30866
-34973.1
-36707.4
-42169.1
-42587.1
-102027
-101103
-98296.7
-91600.4
-84799.2
-75023.4
-70926.5
-69392.5
-69724
-72020.7
-74877.5
-78316.4
-81709.6
-85316.4
-88996
-90655.2
-92799
-93803.6
-94701.3
-95788.2
-96441
-97313.8
-97863.4
-98328.1
-98788.6
-98939.5
-99169.4
-98978.9
-98489.2
-97011.4
-103269
-102665
-102634
-103001
-103681
-104395
-104854
-105198
-105475
-105733
-105997
-106183
-106465
-106573
-106838
-106879
-107057
-107118
-107212
-107285
-107334
-107399
-107428
-107480
-107503
-107536
-107561
-107576
-107588
-107575
-107518
-107501
-107550
-107532
-107555
-107539
-107550
-107538
-107545
-107532
-107538
-107526
-107533
-107521
-107526
-107517
-107519
-107513
-107514
-107508
-107510
-107506
-107506
-107503
-107504
-107501
-107501
-107499
-107500
-107498
-107493
-107493
-107493
-107493
-107494
-107494
-107493
-107493
-107492
-107492
-107492
-107493
-107493
-107493
-107494
-107493
-107493
-107493
-107492
-107492
-107492
-107492
-107493
-107492
-107493
-107493
-107492
-107492
-107492
-107492
-107492
-107492
-107492
-107492
-107493
-107493
-107491
-107493
-107492
-107492
-107492
-107492
-107493
-107493
-107493
-107493
-107493
-107493
-107492
-107492
-107492
-107494
-107492
-107492
-107492
-107493
-107492
-107492
-107492
-107492
-107492
-107492
-107492
-107492
-107493
-107493
-107491
-107494
-107492
-107492
-107492
-107492
-107493
-107493
-107493
-107494
-107493
-107493
-107492
-107492
-107492
-107494
-107492
-107493
-107492
-107493
-107492
-107492
-107492
-107492
-107492
-107492
-107492
-107492
-107493
-107493
-107492
-107492
-107494
-107492
-107492
-107492
-107493
-107494
-107494
-107493
-107494
-107493
-107492
-107491
-107492
-107494
-107492
-107492
-107492
-107493
-107492
-107492
-107492
-107492
-107492
-107492
-107492
-107492
-107493
-107493
-107491
-107493
-107492
-107492
-107492
-107492
-107493
-107493
-107493
-107493
-107493
-107493
-107492
-107492
-107492
-107493
-107492
-107492
-107492
-107493
-107492
-107492
-107492
-107492
-107492
-107492
-107492
-107492
-107492
-107493
-107492
-107493
-107492
-107493
-107492
-107493
-107493
-107493
-107494
-107494
-107493
-107494
-107493
-107492
-107492
-107492
-107493
-107492
-107493
-107493
-107492
-107492
-107492
-107492
-107492
-107492
-107492
-107492
-107493
-107492
-107492
-107494
-107492
-107492
-107493
-107493
-107492
-107494
-107492
-107492
-107492
-107493
-107492
-107493
-107493
-107493
-107492
-107493
-107491
-107492
-107492
-107492
-107493
-107492
134193
122659
104306
65178.8
9159.99
-31070.4
-34294.4
-33870.3
-34077.9
-33862.4
-39426.8
-48027.8
-58613.2
-111217
-45940.1
-40862.6
-37872.8
-37081.7
-33470.6
-32922
-32449.1
-34523.6
-34448.4
-33649.2
-32074.6
-31391.2
-31466.6
-32321.9
-33224.4
-34594.6
-36096.2
-37126
-38040.1
-38623.5
-38751.4
-37826.7
-37237.4
-36029.6
-34936.1
-31490.8
-31876
-30935.7
-73680.4
-102868
-81780.6
-78646.4
-64199.5
-65561.3
-75797.6
-76793.9
-75745
-76600.1
-81746.4
-113073
-73750.8
-37824.2
-33105.3
-29360
-32561.3
-34652.3
-34353
-35779.6
-37259
-38812.6
-36637.6
-36849.3
-35015.3
-36283.2
-37365.4
-67876.3
-85323.2
-42686.7
-33929.8
-35437.4
-33022.3
-40677.4
-39934.5
-15908
-46771.1
-75436.2
-76034.8
-71154.8
-66599.6
-59995.7
-55596.7
-54650.5
-55214.5
-58893.8
-62764.4
-66900.9
-70795.5
-73971.6
-77445.4
-81174.8
-84606.9
-88977.3
-89892.2
-92606.2
-93120
-94570.6
-95543.3
-96326.3
-97120.1
-97694.5
-98118.9
-98503.7
-98356.2
-97939.3
-96160.1
-87676.9
-91645.6
-95935.5
-97424.8
-98744.7
-99641.9
-101230
-102713
-103758
-104438
-104841
-105203
-105475
-105732
-106029
-106211
-106461
-106652
-106787
-106976
-107019
-107166
-107203
-107302
-107339
-107398
-107432
-107467
-107485
-107503
-107495
-107476
-107414
-107439
-107474
-107385
-107470
-107496
-107530
-107523
-107543
-107528
-107540
-107527
-107533
-107523
-107526
-107519
-107519
-107514
-107512
-107511
-107506
-107507
-107502
-107504
-107498
-107500
-107495
-107496
-107492
-107493
-107491
-107492
-107489
-107490
-107487
-107488
-107487
-107488
-107485
-107487
-107485
-107485
-107486
-107486
-107486
-107486
-107486
-107486
-107485
-107485
-107485
-107485
-107485
-107485
-107485
-107485
-107485
-107485
-107485
-107485
-107484
-107484
-107484
-107485
-107484
-107483
-107483
-107484
-107485
-107484
-107485
-107484
-107485
-107485
-107484
-107485
-107485
-107485
-107485
-107485
-107485
-107485
-107485
-107485
-107485
-107485
-107485
-107485
-107485
-107485
-107485
-107485
-107485
-107485
-107484
-107485
-107484
-107483
-107483
-107484
-107485
-107484
-107484
-107485
-107485
-107485
-107485
-107485
-107485
-107485
-107485
-107485
-107485
-107485
-107485
-107485
-107485
-107485
-107485
-107485
-107485
-107485
-107485
-107485
-107485
-107485
-107484
-107485
-107484
-107483
-107483
-107484
-107485
-107484
-107485
-107485
-107485
-107485
-107485
-107485
-107485
-107485
-107485
-107485
-107485
-107485
-107485
-107485
-107485
-107485
-107485
-107485
-107485
-107486
-107485
-107484
-107485
-107484
-107484
-107485
-107484
-107483
-107483
-107484
-107485
-107484
-107484
-107485
-107485
-107485
-107485
-107485
-107485
-107485
-107485
-107485
-107485
-107485
-107485
-107485
-107485
-107485
-107485
-107485
-107485
-107484
-107483
-107485
-107485
-107484
-107484
-107485
-107484
-107483
-107483
-107484
-107485
-107484
-107484
-107484
-107485
-107485
-107484
-107486
-107485
-107485
-107485
-107485
-107485
-107485
-107485
-107485
-107485
-107485
-107485
-107485
-107485
-107484
-107485
-107485
-107485
-107485
-107484
-107485
-107484
-107485
-107484
-107484
-107485
-107484
-107485
-107484
-107485
-107484
-107485
-107486
-107485
-107485
-107485
-107486
-107484
-107484
-107484
-107484
-107484
-107485
-107485
-107485
-107485
-107485
-107485
-107486
-107484
-107484
-107485
-107485
-107485
-107485
-107485
113050
100473
86666.7
58494.8
33610.2
10990
-4530.4
-27879.9
-36383
-34869.8
-33758.9
-41792.2
-52001
-49720.9
-41749.1
-41285.8
-38510.8
-36563
-33563.9
-33376.9
-35432.9
-35881
-35224.1
-34219.3
-33345.9
-32195
-31300.3
-31360.3
-32641.2
-34076.8
-35470.1
-37195
-37856.8
-39053.2
-39394.9
-39185.3
-38181.5
-37307.7
-35556.3
-33698.3
-33020
-32908.1
-31829.8
-31691.2
-78346.2
-96013.2
-78335.4
-81188.7
-77176.2
-77954.9
-78880.8
-90702.5
-104710
-42904.1
-28670.7
-32129.6
-32897.4
-33446.6
-34218
-35143.4
-36681.6
-40082.8
-41807.1
-40496.6
-39995.9
-37909
-36299.7
-36883.4
-40284.6
-56727.4
-101969
-41255.8
-34067.1
-30785.8
-33451.9
-34529.1
-39982
-25111.9
-23554.5
-36903.2
-36648.4
-34142.6
-31992.9
-31715.4
-32166
-36698.9
-44038.6
-51685.4
-58127.9
-63940.3
-67781.2
-70714.8
-73487.4
-76693
-80659.7
-84740.5
-88014.3
-90371.3
-91979.2
-93310.8
-94193.6
-95504.1
-96088.1
-97025.5
-97382.9
-97476.3
-97447.1
-96920.9
-95524.6
-90181
-88526.7
-90120.9
-92192.1
-95232.7
-98491.9
-100736
-102459
-103586
-104181
-104681
-104953
-105315
-105507
-105863
-106032
-106360
-106499
-106722
-106859
-106979
-107090
-107172
-107258
-107302
-107367
-107396
-107442
-107461
-107483
-107490
-107476
-107448
-107430
-107455
-107436
-107473
-107517
-107517
-107530
-107533
-107529
-107533
-107525
-107530
-107519
-107523
-107512
-107517
-107508
-107510