/*--------------------------------*- C++ -*----------------------------------*\
| =========                 |                                                 |
| \\      /  F ield         | OpenFOAM: The Open Source CFD Toolbox           |
|  \\    /   O peration     | Version:  2.1.1                                 |
|   \\  /    A nd           | Web:      www.OpenFOAM.org                      |
|    \\/     M anipulation  |                                                 |
\*---------------------------------------------------------------------------*/
FoamFile
{
    version     2.0;
    format      ascii;
    class       volScalarField;
    location    "0.001950000";
    object      rhoUnburned;
}
// * * * * * * * * * * * * * * * * * * * * * * * * * * * * * * * * * * * * * //

dimensions      [1 -3 0 0 0 0 0];

internalField   nonuniform List<scalar> 
12384
(
1.92331
1.94537
1.92997
2.02957
1.8794
2.0318
1.50617
1.48553
1.49254
1.51357
1.51347
1.49069
1.49141
1.48234
1.45049
1.48244
1.50041
1.48412
1.46956
1.49092
1.51142
1.52989
1.57155
1.48984
1.65077
1.4653
1.51954
1.51855
1.52152
1.5162
1.50105
1.49527
1.49384
1.48442
1.45999
1.44794
1.45903
1.42847
1.40722
1.36278
1.29149
1.19746
1.10935
1.12117
1.41943
1.44958
1.4846
1.52692
1.54108
1.54715
1.53833
1.52385
1.49529
1.47748
1.54832
1.52631
1.59708
1.60585
1.65449
1.69518
1.74065
1.75126
1.77481
1.73583
1.78003
1.71115
1.79971
1.68024
1.8881
1.86653
2.06548
2.08211
2.08553
2.05034
1.12954
1.14628
1.16081
1.18411
1.19042
1.22307
1.22434
1.24502
1.24636
1.24685
1.23692
1.22998
1.21242
1.20568
1.19105
1.18687
1.17952
1.17468
1.17505
1.1777
1.17503
1.18484
1.18133
1.19186
1.19546
1.20009
1.19807
1.19412
1.18845
1.18273
0.993713
0.995332
0.993536
0.991171
0.987934
0.983665
0.981606
0.971186
0.97347
0.961094
0.96454
0.95565
0.951109
0.952819
0.94188
0.945835
0.934171
0.93444
0.932757
0.923197
0.926806
0.91781
0.920964
0.913657
0.9163
0.911015
0.912881
0.909338
0.910579
0.909008
0.874365
0.874203
0.874433
0.874493
0.873539
0.87371
0.872697
0.872868
0.87175
0.872016
0.870818
0.87102
0.869895
0.870247
0.869042
0.869537
0.868297
0.868796
0.867713
0.868073
0.867535
0.867169
0.867357
0.866773
0.86699
0.866511
0.866698
0.866375
0.866484
0.866072
0.865214
0.865502
0.865503
0.865523
0.865511
0.86552
0.865517
0.865531
0.865519
0.86554
0.865527
0.865539
0.865549
0.865572
0.865571
0.865582
0.86556
0.865546
0.865515
0.865508
0.86549
0.865475
0.86547
0.865462
0.865454
0.865443
0.865439
0.86543
0.865419
0.865133
0.865133
0.865417
0.865432
0.865443
0.86545
0.865462
0.865472
0.865481
0.86549
0.865496
0.865506
0.865518
0.865534
0.865556
0.865563
0.865568
0.865551
0.865539
0.865509
0.865506
0.865499
0.865486
0.86548
0.86547
0.865461
0.86545
0.865444
0.865431
0.865419
0.865137
0.865133
0.865417
0.86543
0.865439
0.865447
0.865459
0.865468
0.865477
0.865483
0.865493
0.865502
0.865515
0.86554
0.865556
0.865563
0.865567
0.865551
0.865539
0.865519
0.865506
0.865499
0.865486
0.865479
0.865469
0.86546
0.865446
0.865444
0.865431
0.865419
0.865137
0.865134
0.865412
0.86543
0.865444
0.865447
0.865463
0.865473
0.865479
0.865488
0.865499
0.865505
0.865517
0.865536
0.865555
0.865565
0.86557
0.865559
0.865543
0.865515
0.865501
0.865495
0.865483
0.865473
0.865463
0.865456
0.865441
0.865439
0.865428
0.865415
0.865133
0.865137
0.865419
0.865433
0.865443
0.865449
0.865461
0.865469
0.865479
0.865485
0.865495
0.865504
0.865515
0.865532
0.865554
0.865563
0.865569
0.865553
0.86554
0.865511
0.865506
0.865498
0.865485
0.865479
0.865468
0.865459
0.865445
0.865444
0.865431
0.865419
0.865134
0.865141
0.865417
0.865439
0.865449
0.865442
0.865464
0.865466
0.865474
0.865487
0.865495
0.865505
0.865519
0.865531
0.865556
0.865563
0.86556
0.865551
0.865534
0.865509
0.865497
0.865498
0.86548
0.865476
0.865461
0.86546
0.865449
0.865443
0.865433
0.86542
0.865136
0.865142
0.865428
0.865431
0.865452
0.865451
0.865463
0.86547
0.865479
0.86548
0.865487
0.865496
0.865508
0.865528
0.865546
0.865549
0.86556
0.865542
0.865532
0.865512
0.865505
0.865488
0.865483
0.865469
0.865463
0.865453
0.86544
0.865434
0.865435
0.865412
0.865134
1.96828
1.97542
2.07004
1.95914
2.28222
2.11131
1.65772
1.63535
1.66428
1.692
1.6723
1.6446
1.58606
1.54894
1.49977
1.56066
1.55277
1.55943
1.73946
1.9019
1.87671
1.94439
1.84891
2.09337
2.0663
2.08979
1.87976
1.93063
1.94877
1.84635
1.73143
1.63267
1.5679
1.55587
1.58229
1.62953
1.57893
1.5883
1.50622
1.41964
1.28542
1.25075
1.09934
1.14923
1.46227
1.55173
1.58011
1.5657
1.5207
1.46873
1.41268
1.34323
1.29619
1.33577
1.355
1.363
1.37095
1.40146
1.39312
1.42828
1.49098
1.58245
1.74244
1.82094
1.92295
1.90539
2.01303
1.94576
2.06043
2.13712
2.15547
2.13932
2.0651
2.04777
1.27111
1.31069
1.34529
1.34196
1.3651
1.35624
1.38262
1.38862
1.39161
1.41516
1.41178
1.41123
1.40291
1.38235
1.37098
1.34744
1.33419
1.31406
1.29615
1.28018
1.26636
1.249
1.2342
1.22178
1.2163
1.21127
1.20743
1.20058
1.1954
1.18652
1.11093
1.11626
1.11136
1.10447
1.0973
1.08767
1.07406
1.06034
1.04675
1.03174
1.02076
1.009
0.998208
0.992832
0.980636
0.976451
0.969008
0.957658
0.95956
0.945185
0.948612
0.935869
0.939338
0.929243
0.9304
0.92554
0.924481
0.923085
0.922152
0.914329
0.889458
0.896288
0.895901
0.894378
0.893638
0.892463
0.891076
0.890969
0.889242
0.889625
0.887909
0.888603
0.887143
0.888049
0.886752
0.887134
0.885668
0.885619
0.884321
0.884305
0.883644
0.883028
0.882984
0.882239
0.88229
0.881656
0.881743
0.881447
0.881257
0.872244
0.87114
0.880617
0.880862
0.881162
0.88123
0.88136
0.88171
0.881796
0.882152
0.882236
0.882589
0.882668
0.883112
0.883339
0.883673
0.883636
0.88357
0.883046
0.882727
0.882274
0.882122
0.881725
0.881676
0.881348
0.881302
0.880991
0.880985
0.880712
0.880469
0.871009
0.871005
0.880542
0.880958
0.881039
0.881359
0.881411
0.881768
0.881824
0.882159
0.882215
0.882557
0.882636
0.883118
0.883376
0.883731
0.883629
0.883511
0.883011
0.882783
0.882418
0.882347
0.881987
0.88193
0.881579
0.881497
0.881171
0.881088
0.880881
0.880429
0.871307
0.87128
0.880337
0.880863
0.880928
0.881246
0.881298
0.881645
0.881695
0.882031
0.882097
0.88245
0.882566
0.883073
0.883369
0.883726
0.883618
0.8835
0.883019
0.882792
0.882435
0.882352
0.881987
0.881927
0.881573
0.88149
0.881165
0.881082
0.880879
0.880423
0.87131
0.871315
0.880435
0.880845
0.881155
0.881219
0.881548
0.881617
0.881955
0.881998
0.882331
0.882389
0.882731
0.882918
0.88341
0.883544
0.883737
0.883456
0.883156
0.882595
0.882327
0.882163
0.881795
0.881716
0.881377
0.881329
0.881011
0.881
0.880709
0.880474
0.871003
0.871326
0.880375
0.880901
0.880969
0.881282
0.881333
0.881679
0.881733
0.882068
0.882127
0.882472
0.882575
0.883058
0.883341
0.883709
0.883633
0.883531
0.883044
0.882803
0.88243
0.882351
0.881981
0.881915
0.88156
0.881473
0.881147
0.881064
0.880882
0.880418
0.871304
0.870995
0.880525
0.880874
0.88095
0.881243
0.881306
0.881681
0.881755
0.882116
0.882198
0.882568
0.882661
0.883137
0.88338
0.883696
0.883697
0.883405
0.883128
0.882642
0.882536
0.882179
0.882115
0.881758
0.881701
0.881335
0.881292
0.880975
0.8809
0.880531
0.870991
0.871302
0.880405
0.88096
0.881015
0.881357
0.881395
0.881757
0.881786
0.882129
0.882139
0.882499
0.882574
0.883022
0.883282
0.883671
0.883626
0.883531
0.883057
0.882811
0.882445
0.882369
0.881986
0.881931
0.881564
0.881487
0.881149
0.881056
0.880881
0.880406
0.871297
1.99808
2.14558
2.08722
2.42011
2.45573
2.38091
2.0244
2.13261
2.0761
1.89093
1.84011
1.8097
1.75417
1.65053
1.58696
1.60203
1.88166
1.93905
1.99999
1.89562
1.84789
1.84937
1.90245
1.80691
2.01928
1.85178
1.91743
1.91108
1.96286
2.00209
2.01978
2.0833
2.07429
1.69151
1.62179
1.61207
1.69698
1.70395
1.65655
1.54763
1.35919
1.28252
1.13254
1.16377
1.57801
1.62863
1.57993
1.49523
1.39537
1.32381
1.27466
1.2848
1.29141
1.37128
1.39134
1.4366
1.42747
1.43711
1.38996
1.33527
1.28508
1.28091
1.35403
1.45101
1.67915
1.78536
2.00514
1.98967
2.19132
2.27749
2.40605
2.31574
2.17596
2.10964
1.3989
1.40161
1.37762
1.34939
1.29255
1.26273
1.26641
1.27876
1.33269
1.36428
1.4117
1.42402
1.44258
1.46064
1.45391
1.46339
1.45697
1.45973
1.45771
1.45574
1.46303
1.46252
1.47098
1.47224
1.46105
1.44348
1.41493
1.38217
1.35784
1.33927
1.23364
1.23173
1.22957
1.22918
1.22848
1.22464
1.22432
1.21632
1.21473
1.20399
1.19729
1.19569
1.18053
1.18567
1.17041
1.16949
1.16552
1.15643
1.15832
1.14838
1.14925
1.14187
1.1423
1.13474
1.13671
1.12959
1.13057
1.12548
1.12586
1.13221
1.09747
1.08783
1.0868
1.08762
1.08534
1.08544
1.08391
1.08313
1.08227
1.0812
1.08028
1.07921
1.078
1.07697
1.07606
1.0755
1.07536
1.07517
1.07534
1.07494
1.07512
1.0747
1.07493
1.07453
1.07479
1.07447
1.07468
1.07443
1.0747
1.08645
1.08544
1.07338
1.07292
1.07263
1.07259
1.07232
1.07203
1.07178
1.07152
1.07127
1.07102
1.07076
1.07037
1.06992
1.06966
1.06955
1.06976
1.07022
1.07075
1.0711
1.07142
1.07171
1.07192
1.07211
1.07231
1.07247
1.07262
1.07284
1.07337
1.08532
1.0853
1.07319
1.07271
1.07244
1.07224
1.07204
1.07182
1.07162
1.07142
1.07121
1.07099
1.07073
1.07031
1.06983
1.06956
1.06953
1.06983
1.07028
1.07072
1.07098
1.07122
1.07145
1.07167
1.07187
1.07211
1.0723
1.07253
1.07273
1.07318
1.08532
1.08531
1.07331
1.07279
1.07254
1.07237
1.07216
1.07197
1.07176
1.07156
1.07133
1.0711
1.0708
1.07035
1.06984
1.06956
1.06954
1.06983
1.07026
1.0707
1.07096
1.07121
1.07145
1.07167
1.07188
1.07212
1.07231
1.07254
1.07273
1.07319
1.08532
1.08532
1.07321
1.07268
1.07243
1.07223
1.07204
1.07183
1.07164
1.07144
1.07124
1.07102
1.07078
1.07038
1.06995
1.06963
1.06953
1.06972
1.07023
1.07078
1.07116
1.07133
1.07164
1.07188
1.07208
1.07229
1.07246
1.07262
1.07283
1.07334
1.08532
1.08531
1.07324
1.07275
1.0725
1.07234
1.07213
1.07193
1.07172
1.07153
1.0713
1.07108
1.07079
1.07037
1.06987
1.06957
1.06952
1.0698
1.07022
1.07069
1.07095
1.07121
1.07145
1.07168
1.07189
1.07213
1.07233
1.07257
1.07274
1.0732
1.08532
1.08532
1.07321
1.07272
1.07259
1.07237
1.07216
1.07191
1.07168
1.07145
1.07121
1.07097
1.07068
1.07029
1.06983
1.06954
1.06954
1.06981
1.07029
1.07071
1.07099
1.07122
1.07146
1.07168
1.07189
1.07211
1.07231
1.07251
1.07273
1.07318
1.0853
1.08531
1.07323
1.07269
1.07244
1.07226
1.07206
1.07188
1.07167
1.07149
1.07128
1.07106
1.07079
1.07042
1.06993
1.06961
1.06949
1.06976
1.07018
1.07065
1.0709
1.07117
1.07142
1.07165
1.07187
1.07212
1.07232
1.07255
1.07272
1.07318
1.08532
2.13649
2.2176
2.33639
2.29699
2.6648
2.43919
2.47263
2.3863
2.39445
2.41611
2.13717
1.91603
1.86538
1.827
1.6102
1.83297
1.93888
1.84869
1.82119
1.76146
1.74978
1.73403
1.74245
1.80558
1.6898
1.76781
1.69455
1.74379
1.76842
1.80191
1.86267
1.95394
2.02279
2.03396
2.00799
2.05223
1.77622
1.73853
1.70243
1.64258
1.46938
1.36804
1.17218
1.19874
1.65174
1.63155
1.5085
1.38013
1.3116
1.27343
1.28395
1.31344
1.41015
1.44404
1.45371
1.4652
1.54043
1.63286
1.6334
1.52115
1.41501
1.30564
1.2259
1.22261
1.32255
1.43078
1.70957
1.82069
2.11696
2.20545
2.35586
2.43327
2.34045
2.22895
1.39549
1.31899
1.22005
1.13404
1.10469
1.08819
1.08779
1.0961
1.10263
1.16075
1.22855
1.31676
1.34565
1.37762
1.4027
1.40679
1.42222
1.42167
1.43236
1.4353
1.43922
1.45023
1.46003
1.46896
1.48009
1.48227
1.48267
1.47746
1.46733
1.46127
1.1903
1.18506
1.18953
1.19609
1.2005
1.2025
1.20567
1.20611
1.20119
1.20392
1.18953
1.19408
1.18128
1.17724
1.17756
1.16392
1.17039
1.15515
1.16128
1.14856
1.15019
1.14546
1.13974
1.14093
1.13466
1.13646
1.13104
1.13275
1.12972
1.13227
1.09082
1.0894
1.08927
1.08688
1.08774
1.08586
1.0866
1.0851
1.08462
1.08432
1.08323
1.08308
1.08205
1.08192
1.08095
1.08091
1.08012
1.07967
1.07954
1.07886
1.07892
1.07826
1.07838
1.0778
1.07791
1.07746
1.07756
1.07728
1.07741
1.07928
1.07828
1.07623
1.07606
1.07609
1.07605
1.07603
1.07603
1.076
1.07598
1.07596
1.07595
1.07592
1.0759
1.07588
1.07586
1.07585
1.07586
1.07588
1.0759
1.0759
1.07592
1.07592
1.07595
1.07594
1.07596
1.07595
1.07598
1.07598
1.0761
1.07818
1.07818
1.07611
1.07598
1.07596
1.07596
1.07594
1.07595
1.07592
1.07591
1.07591
1.0759
1.07589
1.07587
1.07584
1.07583
1.07583
1.07585
1.07586
1.07588
1.0759
1.0759
1.07591
1.07594
1.07594
1.07595
1.07595
1.07597
1.07599
1.07612
1.07814
1.07814
1.07612
1.07599
1.07596
1.07596
1.07595
1.07595
1.07593
1.07592
1.07591
1.0759
1.07589
1.07587
1.07584
1.07584
1.07583
1.07585
1.07586
1.07588
1.0759
1.0759
1.07591
1.07594
1.07594
1.07595
1.07595
1.07597
1.07599
1.07612
1.07814
1.07814
1.07612
1.07598
1.07597
1.07595
1.07595
1.07593
1.07594
1.07592
1.07591
1.0759
1.07589
1.07588
1.07585
1.07583
1.07583
1.07583
1.07588
1.07588
1.07591
1.07592
1.07592
1.07594
1.07594
1.07596
1.07595
1.07597
1.07597
1.0761
1.07818
1.07814
1.07612
1.07599
1.07596
1.07596
1.07594
1.07595
1.07593
1.07592
1.07591
1.0759
1.07589
1.07587
1.07584
1.07583
1.07583
1.07585
1.07586
1.07589
1.0759
1.0759
1.07592
1.07594
1.07594
1.07595
1.07595
1.07597
1.07599
1.07612
1.07814
1.07818
1.07611
1.07598
1.07596
1.07596
1.07595
1.07595
1.07592
1.07593
1.0759
1.0759
1.07589
1.07587
1.07584
1.07583
1.07583
1.07584
1.07587
1.07588
1.0759
1.0759
1.07592
1.07593
1.07594
1.07595
1.07595
1.07596
1.07597
1.0761
1.07818
1.07815
1.07612
1.07598
1.07597
1.07596
1.07594
1.07593
1.07592
1.07592
1.07591
1.0759
1.07588
1.07587
1.07585
1.07583
1.07582
1.07584
1.07585
1.07588
1.07589
1.07589
1.0759
1.07592
1.07592
1.07594
1.07595
1.07596
1.07598
1.07612
1.07814
2.26552
2.11181
2.18438
2.41362
2.01477
1.72708
2.19626
2.2134
2.22585
2.27866
2.38163
2.47241
1.97871
1.90451
1.58766
1.94317
1.78139
1.78641
1.72654
1.69963
1.66348
1.67473
1.66067
1.64273
1.67657
1.58146
1.58463
1.61101
1.63792
1.68876
1.73068
1.81019
1.89997
1.90112
1.96111
1.89305
2.01159
1.67448
1.71155
1.65369
1.55387
1.44202
1.25917
1.19233
1.69001
1.57266
1.41758
1.3078
1.28168
1.29545
1.32348
1.38243
1.44697
1.43044
1.46719
1.61598
2.02195
2.14543
2.03769
1.84508
1.57765
1.39704
1.30625
1.20501
1.23302
1.21953
1.42188
1.55546
1.89915
2.07814
2.21459
2.33048
2.41173
2.34534
1.31736
1.18431
1.08144
1.0582
1.06064
1.08885
1.10046
1.08651
1.06669
1.04603
1.06101
1.11691
1.21934
1.26636
1.30908
1.33784
1.34544
1.36381
1.3662
1.3799
1.38662
1.39392
1.40773
1.41842
1.43143
1.44539
1.45432
1.45906
1.46162
1.46162
1.12835
1.10221
1.10977
1.12424
1.13636
1.15067
1.15396
1.16073
1.16123
1.16005
1.15912
1.14961
1.15302
1.13915
1.14392
1.13236
1.13341
1.12614
1.12401
1.12015
1.11605
1.11342
1.111
1.10644
1.10727
1.10279
1.10404
1.1006
1.10213
1.10028
1.05795
1.05871
1.05749
1.05949
1.05759
1.05845
1.05656
1.05711
1.05573
1.0552
1.0551
1.05378
1.05404
1.05274
1.05295
1.05175
1.05206
1.05088
1.05127
1.05024
1.05058
1.04971
1.05001
1.0493
1.04954
1.04899
1.0492
1.04879
1.04901
1.0489
1.04808
1.04781
1.04785
1.04774
1.04777
1.04777
1.04772
1.04776
1.04769
1.04775
1.04767
1.04773
1.04766
1.04772
1.04764
1.0477
1.04763
1.0477
1.04763
1.0477
1.04762
1.0477
1.04762
1.04771
1.04762
1.04771
1.04763
1.04771
1.04766
1.04791
1.04788
1.04768
1.04764
1.0477
1.04762
1.0477
1.04762
1.04771
1.04763
1.0477
1.04762
1.04769
1.04762
1.04768
1.04762
1.04768
1.04762
1.04768
1.04762
1.04769
1.04762
1.04769
1.04762
1.04769
1.04762
1.04769
1.04762
1.04766
1.0477
1.04783
1.04784
1.0477
1.04762
1.0477
1.04762
1.0477
1.04762
1.04771
1.04762
1.04769
1.04762
1.04769
1.04762
1.04768
1.04762
1.04768
1.04762
1.04768
1.04762
1.04769
1.04762
1.04769
1.04762
1.0477
1.04762
1.04769
1.04762
1.04766
1.0477
1.04783
1.04786
1.04771
1.04769
1.04762
1.0477
1.04763
1.04771
1.04763
1.0477
1.04762
1.04769
1.04763
1.04769
1.04762
1.04768
1.04762
1.04768
1.04762
1.04766
1.04764
1.04764
1.04769
1.04762
1.0477
1.04762
1.04771
1.04762
1.04771
1.04766
1.0479
1.04783
1.04771
1.04762
1.0477
1.04762
1.0477
1.04762
1.04771
1.04763
1.04769
1.04762
1.04769
1.04762
1.04768
1.04762
1.04768
1.04762
1.04768
1.04762
1.04769
1.04762
1.04769
1.04762
1.04768
1.04762
1.04769
1.04763
1.04765
1.0477
1.04783
1.04791
1.04767
1.04768
1.04769
1.04763
1.04771
1.04763
1.04771
1.04762
1.0477
1.04763
1.04769
1.04761
1.04768
1.04762
1.04762
1.04768
1.04761
1.04769
1.04761
1.0477
1.04763
1.0477
1.04762
1.0477
1.04762
1.04769
1.04768
1.04768
1.0479
1.04785
1.04771
1.04763
1.0477
1.04763
1.0477
1.04762
1.0477
1.04763
1.0477
1.04761
1.04769
1.04761
1.04768
1.04761
1.04767
1.0476
1.04767
1.04761
1.04768
1.04761
1.04769
1.04761
1.04769
1.04761
1.04769
1.04763
1.04765
1.04771
1.04783
1.4827
1.13376
1.1072
1.11831
0.865338
0.846574
1.27676
2.08499
2.10808
2.14407
2.22051
2.31065
2.42932
1.90996
1.65874
2.01503
1.76717
1.72008
1.69988
1.67651
1.67628
1.64584
1.63003
1.58886
1.53743
1.50579
1.4947
1.48884
1.54237
1.55175
1.60905
1.73568
1.80066
1.8681
1.84628
1.89615
1.8463
1.98966
1.63086
1.6468
1.59021
1.51921
1.35553
1.22808
1.66621
1.50682
1.33759
1.27439
1.2798
1.31981
1.361
1.42443
1.49097
1.652
2.22794
2.4283
2.33799
2.07606
1.64704
2.38593
2.29505
1.84268
1.52933
1.28202
1.24194
1.19569
1.24036
1.36686
1.57673
1.85255
2.06832
2.1816
2.26311
2.23806
1.24508
1.09161
1.04542
1.07051
1.12474
1.16437
1.16594
1.16952
1.12401
1.06592
1.02307
1.02052
1.06044
1.15122
1.19614
1.23965
1.26882
1.27934
1.29933
1.30549
1.32133
1.33074
1.34096
1.35839
1.37129
1.38607
1.40077
1.41638
1.43032
1.44203
1.05354
1.00312
1.00682
1.02431
1.05436
1.0732
1.0933
1.10036
1.10848
1.11207
1.1084
1.11229
1.10232
1.10051
1.10163
1.09114
1.09575
1.08511
1.09036
1.07823
1.08489
1.07282
1.07943
1.0694
1.07342
1.06723
1.06968
1.06598
1.06735
1.06945
1.02594
1.02354
1.02597
1.02322
1.02534
1.02317
1.02476
1.02249
1.02399
1.02164
1.02266
1.02106
1.02122
1.0203
1.02016
1.0194
1.01939
1.01855
1.01868
1.01793
1.01805
1.01742
1.01755
1.01697
1.01714
1.01665
1.01682
1.01644
1.0167
1.01831
1.01739
1.01557
1.01542
1.01543
1.0154
1.01542
1.01536
1.01539
1.01534
1.01536
1.01533
1.01534
1.01531
1.01532
1.01529
1.01531
1.01529
1.0153
1.01528
1.01529
1.01527
1.0153
1.01528
1.0153
1.01528
1.0153
1.01528
1.01531
1.0154
1.0173
1.01728
1.01541
1.0153
1.0153
1.01527
1.0153
1.01528
1.0153
1.01528
1.01529
1.01528
1.01529
1.01527
1.01528
1.01527
1.01528
1.01527
1.01529
1.01527
1.01529
1.01528
1.01529
1.01528
1.0153
1.01527
1.01529
1.01527
1.01529
1.01541
1.0173
1.0173
1.01541
1.01528
1.01529
1.01527
1.0153
1.01528
1.0153
1.01528
1.01529
1.01528
1.01529
1.01527
1.01528
1.01527
1.01528
1.01527
1.01529
1.01527
1.01529
1.01528
1.01529
1.01528
1.0153
1.01527
1.01529
1.01527
1.01529
1.01541
1.0173
1.01731
1.01543
1.0153
1.01527
1.0153
1.01528
1.0153
1.01528
1.0153
1.01528
1.01529
1.01528
1.01529
1.01527
1.01529
1.01527
1.01528
1.01527
1.01528
1.01528
1.01528
1.01529
1.01528
1.0153
1.01528
1.0153
1.01528
1.01531
1.0154
1.01728
1.01731
1.01541
1.01527
1.01529
1.01527
1.0153
1.01528
1.0153
1.01528
1.01529
1.01528
1.01529
1.01527
1.01528
1.01527
1.01528
1.01527
1.01529
1.01527
1.01529
1.01528
1.01529
1.01527
1.0153
1.01527
1.01529
1.01527
1.01529
1.01541
1.0173
1.01729
1.01541
1.01531
1.0153
1.01529
1.0153
1.01528
1.0153
1.01528
1.01529
1.01528
1.01529
1.01526
1.01528
1.01527
1.01527
1.01528
1.01526
1.01529
1.01527
1.0153
1.01528
1.01529
1.01528
1.0153
1.01528
1.0153
1.01531
1.0154
1.01728
1.01731
1.01541
1.01528
1.0153
1.01528
1.0153
1.01528
1.0153
1.01528
1.01529
1.01527
1.01529
1.01527
1.01527
1.01526
1.01527
1.01526
1.01527
1.01526
1.01528
1.01527
1.01529
1.01526
1.01529
1.01527
1.0153
1.01528
1.01529
1.01542
1.01731
0.864679
0.735254
0.72021
0.699989
0.692232
0.866076
1.46038
2.01646
2.038
2.07141
2.143
2.1905
2.32601
1.87152
1.74674
1.92508
1.75415
1.70471
1.68593
1.72454
1.71886
1.69606
1.64194
1.59928
1.54324
1.49851
1.45994
1.42364
1.4491
1.4586
1.55068
1.60808
1.72602
1.79818
1.85267
1.8436
1.73912
1.73411
2.02461
1.57693
1.57961
1.55336
1.47087
1.30933
1.64472
1.43617
1.29379
1.26406
1.28216
1.33601
1.42153
1.66581
2.29577
2.13804
2.07249
1.95053
2.64153
2.03702
2.00103
1.68705
1.95173
1.90747
2.20686
1.86013
1.28552
1.21835
1.23566
1.22754
1.37935
1.54439
1.79158
1.96353
2.09757
2.20551
1.16233
1.0597
1.05023
1.09595
1.11187
1.14517
1.1967
1.20001
1.16313
1.1095
1.0418
0.997815
0.9914
1.01938
1.09662
1.13153
1.16982
1.1967
1.20638
1.22695
1.233
1.24994
1.25881
1.26708
1.28404
1.30158
1.32651
1.34954
1.37534
1.39829
0.988345
0.950556
0.927482
0.931682
0.951872
0.990317
1.01292
1.03384
1.03818
1.04792
1.04755
1.04701
1.04638
1.0402
1.04037
1.0358
1.02987
1.03311
1.02651
1.0207
1.02459
1.01521
1.01953
1.01089
1.0156
1.00773
1.01321
1.00726
1.01241
1.0105
0.966805
0.968434
0.968224
0.970648
0.969007
0.970245
0.968386
0.969136
0.967603
0.967915
0.966855
0.966638
0.966159
0.965365
0.965454
0.964358
0.964669
0.963607
0.963947
0.962997
0.963337
0.962524
0.962819
0.962157
0.962409
0.961871
0.96211
0.961673
0.961906
0.961087
0.960341
0.960826
0.960897
0.960805
0.960851
0.960804
0.960784
0.960779
0.960749
0.960768
0.96074
0.960754
0.960724
0.960731
0.960717
0.960726
0.9607
0.96072
0.960689
0.960706
0.960675
0.960709
0.960677
0.960709
0.960675
0.960703
0.960672
0.9607
0.960663
0.960128
0.960113
0.960686
0.960691
0.960691
0.960666
0.960704
0.960674
0.960707
0.96068
0.960709
0.960673
0.960706
0.960678
0.960703
0.96068
0.960701
0.96068
0.960705
0.960678
0.960707
0.96067
0.960703
0.960674
0.960704
0.960666
0.960693
0.960668
0.960688
0.960677
0.960135
0.960139
0.960674
0.960666
0.960689
0.960666
0.960706
0.960675
0.960716
0.960681
0.960708
0.960673
0.960706
0.960679
0.960703
0.96068
0.960702
0.960681
0.960705
0.960675
0.960707
0.960671
0.960703
0.960674
0.960704
0.960666
0.960694
0.960669
0.960686
0.960677
0.960135
0.960159
0.960695
0.96069
0.960666
0.960698
0.960672
0.96071
0.96068
0.960707
0.960674
0.96071
0.96068
0.960707
0.960682
0.960703
0.960681
0.960701
0.960678
0.960689
0.960696
0.960681
0.960699
0.960675
0.960708
0.960672
0.960701
0.960665
0.960703
0.960668
0.960121
0.960145
0.96068
0.960666
0.960689
0.960666
0.960706
0.960677
0.960714
0.960683
0.960709
0.960674
0.960706
0.960679
0.960703
0.960681
0.960701
0.960681
0.960705
0.960678
0.960706
0.960669
0.960701
0.960673
0.960697
0.960667
0.960694
0.960674
0.960682
0.960677
0.960135
0.960123
0.960676
0.960692
0.960697
0.960676
0.960706
0.960674
0.960712
0.960679
0.960708
0.960672
0.960709
0.960677
0.960702
0.960685
0.960692
0.960701
0.960679
0.960709
0.960676
0.960706
0.960671
0.960707
0.960675
0.960705
0.960671
0.960689
0.960704
0.960687
0.96012
0.960142
0.960679
0.960665
0.960691
0.960663
0.960707
0.96067
0.960715
0.960667
0.96071
0.960672
0.960714
0.960679
0.960699
0.960671
0.960695
0.960675
0.960701
0.960673
0.960704
0.960677
0.960713
0.960672
0.960706
0.96067
0.960706
0.960685
0.960693
0.960691
0.96015
0.644589
0.629977
0.630875
0.668923
0.879196
1.64468
1.99479
1.96911
1.98799
2.03837
2.13261
2.21923
2.29455
1.79962
2.03175
1.93884
1.77791
1.7235
1.76304
1.79709
1.81572
1.76997
1.72414
1.65857
1.59809
1.54066
1.48124
1.44453
1.40021
1.42721
1.45909
1.53425
1.63595
1.7247
1.76502
1.80172
1.73633
1.72081
1.89641
1.99619
1.52962
1.52907
1.56318
1.42978
1.62829
1.41671
1.31909
1.31191
1.37086
1.52887
1.76882
2.2679
2.05404
1.92718
2.19155
2.00643
1.9978
2.06424
1.97101
1.98855
1.87381
1.74393
1.66241
1.60411
1.54197
1.40619
1.21397
1.24615
1.24169
1.3619
1.49604
1.72006
1.87768
1.92844
1.11859
1.06362
1.07949
1.1009
1.11095
1.13825
1.19756
1.2097
1.1767
1.1113
1.0505
0.995936
0.967493
0.96696
0.988112
1.0458
1.07071
1.10096
1.1241
1.13196
1.15241
1.15857
1.17613
1.19048
1.2044
1.22356
1.24242
1.27803
1.31972
1.36816
0.957606
0.939718
0.908175
0.877053
0.882373
0.90716
0.941032
0.958375
0.974056
0.976849
0.983176
0.984534
0.981901
0.985921
0.975355
0.983123
0.971471
0.975656
0.970439
0.968151
0.968206
0.963014
0.965208
0.959244
0.962783
0.957702
0.96115
0.95866
0.962834
0.962804
0.909708
0.912471
0.917539
0.916275
0.919722
0.918286
0.919924
0.918417
0.919412
0.91771
0.918598
0.917018
0.91781
0.916237
0.916833
0.915703
0.915822
0.915108
0.91515
0.914485
0.914671
0.914032
0.914164
0.913728
0.913774
0.913449
0.913577
0.913288
0.913471
0.912805
0.91184
0.912464
0.912396
0.912394
0.91234
0.912319
0.912255
0.912252
0.912214
0.912215
0.912196
0.9122
0.912185
0.912183
0.912179
0.912173
0.912162
0.912166
0.912149
0.91215
0.912145
0.912151
0.912156
0.912157
0.912169
0.91218
0.912197
0.91223
0.912234
0.911705
0.911694
0.912239
0.912236
0.912195
0.912174
0.912167
0.912147
0.91216
0.912149
0.912147
0.912147
0.912143
0.912148
0.912146
0.912148
0.912149
0.912148
0.912146
0.912146
0.912144
0.912148
0.912158
0.912148
0.912154
0.912151
0.912175
0.91219
0.912225
0.912235
0.911717
0.911714
0.912229
0.912221
0.912191
0.912175
0.912168
0.912148
0.912161
0.91215
0.912146
0.912146
0.912143
0.912149
0.912146
0.912148
0.91215
0.912149
0.912147
0.912147
0.912144
0.912148
0.912158
0.912148
0.912154
0.912151
0.912177
0.912191
0.912225
0.912235
0.911717
0.911733
0.912244
0.912224
0.912191
0.912177
0.912169
0.91216
0.912153
0.912162
0.912152
0.912147
0.912148
0.912148
0.912152
0.912152
0.912148
0.912151
0.912138
0.912143
0.912142
0.912148
0.912154
0.912146
0.912155
0.912157
0.912178
0.912194
0.912232
0.912237
0.911697
0.911724
0.912234
0.912219
0.91219
0.912175
0.912169
0.912149
0.912162
0.912151
0.912148
0.912147
0.912143
0.912149
0.912149
0.912149
0.912149
0.912149
0.912147
0.912146
0.912143
0.912146
0.912148
0.912146
0.912153
0.912151
0.912177
0.912195
0.912224
0.912234
0.911718
0.911697
0.912237
0.912226
0.912202
0.912178
0.912169
0.912154
0.912159
0.912148
0.912153
0.912146
0.912148
0.912148
0.912149
0.91215
0.91215
0.912149
0.912147
0.912148
0.912146
0.912145
0.912148
0.912158
0.912148
0.912167
0.912174
0.91219
0.912235
0.912243
0.911699
0.911716
0.912231
0.912219
0.912192
0.912177
0.912163
0.912156
0.912157
0.912149
0.912144
0.912152
0.912146
0.912139
0.912147
0.912136
0.912138
0.912139
0.91214
0.912137
0.912146
0.912149
0.912146
0.912148
0.912156
0.912155
0.912187
0.912223
0.912299
0.912422
0.911898
0.617448
0.624334
0.658349
0.795773
1.18453
1.86255
1.89929
1.84365
1.8558
1.9499
2.12202
2.24354
2.32965
2.24313
2.15706
2.06573
1.99892
1.97598
1.83491
1.78494
1.83344
1.9198
1.90626
1.88343
1.82061
1.77135
1.70017
1.62779
1.54312
1.47215
1.43298
1.40535
1.4128
1.46526
1.54738
1.62445
1.68468
1.72376
1.78492
1.8219
1.79763
1.79481
1.91853
1.67633
1.59212
1.56127
1.50178
1.54852
1.58685
1.46761
1.42316
1.46154
1.57379
2.17267
2.18332
2.18148
2.09292
1.97609
1.90904
1.90001
1.75377
1.67085
1.64918
1.7041
1.64973
1.65369
1.56645
1.53837
1.47125
1.50124
1.31817
1.20929
1.24723
1.22236
1.3034
1.38296
1.56271
1.6676
1.04014
1.06245
1.16359
1.24532
1.18555
1.11056
1.13379
1.17501
1.20356
1.18684
1.14445
1.07966
1.02372
0.986144
0.957034
0.941912
0.944359
0.948489
1.00101
1.00452
1.0376
1.04656
1.05606
1.07213
1.07568
1.08897
1.10024
1.11638
1.14407
1.16719
1.19343
1.19241
1.0668
1.10703
1.02635
0.985051
0.925723
0.864668
0.837437
0.850741
0.871611
0.892983
0.899263
0.909512
0.908588
0.910931
0.915061
0.906024
0.909107
0.907794
0.898875
0.904543
0.894452
0.8996
0.890462
0.893451
0.888028
0.888126
0.88486
0.886261
0.882028
0.886416
0.882575
0.889053
0.864475
0.863657
0.846585
0.848585
0.848334
0.851424
0.848594
0.851577
0.848546
0.850217
0.848256
0.848819
0.847509
0.84772
0.846753
0.846663
0.846228
0.8457
0.845663
0.844968
0.845134
0.844383
0.844623
0.844015
0.844137
0.843681
0.843843
0.843439
0.843629
0.843313
0.843267
0.840736
0.83857
0.838265
0.840234
0.842438
0.842703
0.842573
0.842633
0.842533
0.842509
0.842493
0.842461
0.842475
0.842437
0.842448
0.842419
0.842424
0.842405
0.842415
0.842398
0.842401
0.842391
0.842397
0.842388
0.842395
0.842392
0.842406
0.842412
0.84243
0.842437
0.84244
0.842258
0.839846
0.837732
0.837733
0.839845
0.842272
0.842444
0.842444
0.842422
0.842419
0.842399
0.842399
0.842386
0.842397
0.842383
0.842389
0.842382
0.842386
0.842384
0.842386
0.842383
0.842388
0.842384
0.842393
0.842386
0.842396
0.842394
0.842406
0.842407
0.842429
0.84244
0.842439
0.842262
0.839857
0.837732
0.837732
0.839855
0.842258
0.84243
0.842441
0.842425
0.842419
0.8424
0.842399
0.842387
0.842396
0.842384
0.84239
0.842384
0.842386
0.842384
0.842387
0.842384
0.842388
0.842384
0.842393
0.842386
0.842396
0.842394
0.842406
0.842407
0.84243
0.84244
0.842438
0.842262
0.839856
0.837732
0.837732
0.839867
0.842272
0.842435
0.842437
0.842432
0.842413
0.842409
0.842397
0.842399
0.842388
0.842395
0.842384
0.842388
0.842384
0.842386
0.842383
0.842385
0.842381
0.842379
0.842392
0.842387
0.842392
0.842391
0.842404
0.842407
0.842432
0.842436
0.842439
0.842262
0.839843
0.837732
0.837733
0.839861
0.842262
0.84243
0.842441
0.842427
0.84242
0.842401
0.8424
0.842388
0.842398
0.842385
0.84239
0.842384
0.842387
0.842384
0.842386
0.842383
0.842388
0.842384
0.842392
0.842384
0.842395
0.842384
0.842397
0.842407
0.842429
0.842441
0.842436
0.842261
0.839858
0.837732
0.837732
0.839844
0.842269
0.842436
0.842447
0.842426
0.842419
0.842399
0.842398
0.842394
0.842395
0.842383
0.84239
0.842384
0.842386
0.842386
0.842387
0.842386
0.842384
0.84239
0.842387
0.842397
0.842387
0.842399
0.842399
0.842419
0.842425
0.84244
0.842441
0.842269
0.839844
0.837741
0.837737
0.839854
0.842257
0.842427
0.842445
0.842422
0.842421
0.842393
0.842406
0.842397
0.842403
0.842391
0.842401
0.842392
0.842387
0.842381
0.842382
0.842377
0.842381
0.842384
0.842396
0.842387
0.842403
0.842391
0.842417
0.842415
0.842435
0.842449
0.842451
0.842271
0.839881
0.837878
0.839676
0.627165
0.637977
0.68252
0.779444
0.92136
1.0716
1.189
1.49652
1.65052
1.72458
1.93698
2.13175
2.23191
2.20446
2.09832
2.08616
2.01183
1.97044
1.86348
1.87535
1.96126
1.96759
1.95147
1.91431
1.88879
1.84377
1.79931
1.72279
1.63368
1.53486
1.44726
1.42359
1.39217
1.41806
1.45819
1.52954
1.58271
1.64509
1.68687
1.78879
1.67885
1.78504
1.67705
1.83857
2.0094
1.79337
1.63775
1.67557
1.74265
1.68862
1.69106
1.75771
1.9883
2.32296
2.03553
2.07015
1.98147
1.84892
1.76739
1.62374
1.5329
1.53492
1.52422
1.47808
1.52295
1.52668
1.47219
1.465
1.49344
1.66685
1.36632
1.20892
1.20759
1.23247
1.19991
1.22948
1.25973
1.34339
1.09357
1.29983
1.19942
1.18526
1.2436
1.24177
1.21412
1.19654
1.1711
1.12619
1.08011
1.02638
0.988655
0.961317
0.945387
0.930406
0.918492
0.916795
0.924884
0.939585
0.956011
0.965973
0.984485
0.983983
1.00328
1.00515
1.02125
1.02951
1.03899
1.06076
1.07591
1.101
1.08411
1.03668
1.00575
0.942217
0.878669
0.830281
0.803932
0.804433
0.820844
0.828552
0.840397
0.840571
0.849252
0.844774
0.853277