/*--------------------------------*- C++ -*----------------------------------*\
| =========                 |                                                 |
| \\      /  F ield         | OpenFOAM: The Open Source CFD Toolbox           |
|  \\    /   O peration     | Version:  2.1.1                                 |
|   \\  /    A nd           | Web:      www.OpenFOAM.org                      |
|    \\/     M anipulation  |                                                 |
\*---------------------------------------------------------------------------*/
FoamFile
{
    version     2.0;
    format      ascii;
    class       volScalarField;
    location    "0.001950000";
    object      T;
}
// * * * * * * * * * * * * * * * * * * * * * * * * * * * * * * * * * * * * * //

dimensions      [0 0 0 1 0 0 0];

internalField   nonuniform List<scalar> 
12384
(
2407.61
2445.18
2447.28
2449.26
2348.32
668.771
374.612
357.664
357.579
360.695
362.882
364.194
365.15
364.772
352.342
352.083
352.2
351.079
354.918
371.758
392.2
409.349
416.581
405.469
418.134
382.081
385.126
381.466
371.679
359.657
353.132
350.82
350.028
349.731
348.523
349.687
354.659
354.061
355.506
352.351
344.455
335.881
323.302
325.861
353.775
354.516
353.894
354.924
354.743
355.104
354.326
353.395
352.435
351.845
359.773
358.185
364.468
364.276
367.226
368.919
370.849
370.851
373.091
370.592
375.875
372.931
382.356
374.607
396.334
395.396
415.202
417.049
416.314
414.003
324.321
323.721
325.755
325.165
326.285
327.201
327.93
329.329
330.064
330.628
330.801
331.262
330.773
330.99
330.471
330.659
330.468
330.522
330.769
331.334
331.098
332.3
331.91
333.089
333.483
333.984
333.833
333.378
332.727
332.075
309.109
309.145
308.998
308.84
308.532
308.164
307.976
306.836
307.098
305.614
306.042
304.895
304.355
304.521
303.148
303.639
302.127
302.188
301.932
300.729
301.167
300.018
300.408
299.47
299.804
299.118
299.36
298.892
299.059
298.872
294.247
294.194
294.22
294.243
294.103
294.134
293.986
294.016
293.857
293.897
293.729
293.76
293.597
293.648
293.478
293.549
293.376
293.451
293.302
293.357
293.277
293.236
293.256
293.182
293.209
293.149
293.169
293.13
293.143
293.127
293.01
293.011
293.009
293.009
293.008
293.007
293.006
293.005
293.005
293.004
293.004
293.003
293.001
293.001
293
293
292.999
292.999
293
293
292.999
292.998
293
292.998
293
292.999
293
292.998
292.999
292.999
292.999
292.999
292.999
292.998
293.001
292.999
292.999
292.998
293
292.998
293
292.999
292.999
292.998
292.998
292.998
292.998
292.998
293
292.999
292.999
292.998
293
292.998
292.999
293
293
293
292.999
292.999
293
292.999
293
292.998
293.001
292.998
292.999
292.998
293
292.998
293
292.999
292.999
292.998
292.998
292.998
292.998
292.998
293
292.999
292.999
292.998
293
292.998
292.999
293
292.999
293
292.999
292.999
293
293
292.999
292.999
292.999
293
292.998
293
292.998
292.999
292.999
293
292.998
292.999
292.998
292.999
292.998
292.999
292.999
292.999
292.999
292.999
293
292.998
292.999
293
293
292.998
292.999
292.999
292.999
292.999
293
292.999
293.001
292.998
292.999
292.998
293
292.998
293
292.999
292.999
292.998
292.998
292.998
292.998
292.998
293
292.999
292.999
292.998
293
292.998
292.999
293
292.999
293
292.999
292.999
292.999
293
293
292.999
293.001
292.999
292.999
292.999
292.999
292.998
293
292.999
292.999
292.998
292.998
292.998
292.998
292.998
292.999
293
292.998
292.999
292.998
292.999
292.998
293
292.998
292.999
292.999
292.999
293
292.999
293
292.999
293.001
292.998
293
292.998
292.999
292.998
292.999
292.998
292.998
292.997
292.999
292.998
292.999
292.997
292.998
292.997
292.998
292.997
292.999
292.997
292.999
292.999
292.999
292.999
292.999
293
2392.12
2349.89
2312.74
2322.17
2263.27
643.289
403.904
384.903
374.313
368.128
366.508
366.919
367.26
366.924
352.541
354.014
363.212
383.878
482.675
614.582
771.435
958.249
994.1
1029.52
893.123
812.693
766.509
740.568
641.622
520.323
458.704
400.674
360.008
350.101
349.829
353.188
350.868
355.415
352.993
350.349
341.47
340.711
323.511
330.125
353.867
355.254
354.448
354.714
354.704
354.059
352.957
350.924
349.325
355.508
359.363
360.861
362.558
365.023
364.124
366.425
367.896
368.482
372.019
371.217
373.917
372.585
381.053
376.926
388.988
400.597
408.743
415.172
414.552
413.592
325.833
325.952
326.392
325.767
327.713
327.009
329.239
329.649
329.409
331.609
331.154
331.483
331.489
330.826
331.062
330.518
330.796
330.576
330.629
330.735
331.296
331.617
332.257
332.755
333.326
333.799
333.639
333.058
332.594
331.909
308.835
309.017
308.925
308.718
308.709
308.422
307.968
307.448
306.93
306.219
305.683
305.241
304.396
304.504
303.19
303.441
302.515
301.905
301.986
300.904
301.15
300.107
300.427
299.519
299.7
299.196
299.19
298.955
298.968
298.742
294.404
294.43
294.37
294.124
294.237
294.054
294.058
293.989
293.893
293.88
293.743
293.764
293.601
293.647
293.489
293.531
293.392
293.435
293.311
293.347
293.273
293.243
293.237
293.185
293.195
293.147
293.159
293.135
293.127
293.123
292.993
293.003
292.989
293.009
293.002
292.99
293.007
292.986
293.006
292.983
293.003
292.982
293.001
292.982
292.999
292.982
292.999
292.98
292.999
292.979
292.999
292.978
292.999
292.977
292.999
292.977
292.999
292.976
292.992
292.981
292.984
292.988
292.996
292.979
292.999
292.978
293
292.978
293
292.978
292.999
292.978
292.998
292.979
292.998
292.98
292.998
292.979
292.998
292.978
292.999
292.978
293
292.978
293
292.98
292.998
292.99
292.987
292.992
292.992
292.984
293.001
292.978
293
292.977
293
292.978
292.999
292.978
292.999
292.978
292.998
292.98
292.998
292.98
292.998
292.979
292.998
292.978
292.999
292.978
293
292.978
293
292.979
292.998
292.991
292.987
292.992
292.986
292.989
292.98
292.998
292.978
292.999
292.978
292.999
292.978
292.999
292.978
292.998
292.979
292.998
292.98
292.998
292.98
292.998
292.981
292.992
292.997
292.979
292.999
292.978
292.999
292.977
292.999
292.976
292.993
292.98
292.992
292.984
293.001
292.978
293
292.978
293
292.978
292.999
292.978
292.999
292.978
292.998
292.98
292.998
292.98
292.998
292.979
292.998
292.978
292.999
292.978
293
292.978
293
292.98
292.997
292.992
292.987
292.992
292.979
292.99
292.982
292.98
292.998
292.977
292.999
292.978
292.999
292.978
292.999
292.979
292.999
292.98
292.995
292.995
292.98
292.998
292.978
292.998
292.978
292.999
292.977
292.999
292.978
292.999
292.979
292.988
292.988
292.98
292.992
292.985
293.002
292.978
293.001
292.977
293.001
292.977
293.001
292.976
292.999
292.977
292.999
292.978
292.998
292.979
292.997
292.977
292.997
292.977
292.999
292.977
293
292.977
292.999
292.978
292.997
292.991
292.987
292.992
2291.92
2115.84
1929.06
1937.13
1171.15
700.651
559.208
587.754
543.12
436.489
378.967
368.507
368.404
365.414
352.37
382.487
544.372
718.39
1737.33
2042.5
2149.16
2150.18
2149.26
2108.36
2148.43
2110.66
2133.98
2079.99
1959.83
1889.89
1937.2
1075.46
577.941
424.737
388.295
365.505
357.069
354.738
353.33
348.587
339.882
339.569
326.866
331.743
355.197
355.28
354.275
353.491
352.257
350.942
348.999
351.288
354.269
360.598
362.65
366.138
364.682
367.525
364.722
364.438
363.736
365.151
369.755
371.878
375.123
373.597
379.381
377.913
389.389
395.237
407.156
410.44
412.775
413.737
326.815
327.411
327.101
328.187
328.489
329.726
331.084
331.658
333.756
331.788
332.729
331.04
331.452
332.089
330.888
331.413
330.551
330.724
330.473
330.28
330.913
330.913
331.854
332.539
333.072
333.429
333.369
332.868
332.493
331.817
308.768
308.949
308.882
308.897
308.848
308.42
308.4
307.573
307.468
306.373
305.747
305.577
304.121
304.634
303.239
303.048
302.789
301.705
301.971
300.843
300.979
300.198
300.244
299.525
299.665
299.137
299.154
298.886
298.88
298.713
294.294
294.283
294.296
294.379
294.179
294.193
294.083
294.004
293.967
293.863
293.825
293.731
293.689
293.611
293.569
293.497
293.471
293.394
293.387
293.311
293.321
293.246
293.264
293.196
293.212
293.16
293.176
293.14
293.151
293.137
293.03
293.023
293.025
293.022
293.023
293.02
293.02
293.021
293.019
293.018
293.016
293.015
293.014
293.014
293.014
293.014
293.012
293.013
293.012
293.014
293.012
293.014
293.013
293.013
293.012
293.014
293.013
293.014
293.012
293.017
293.016
293.014
293.013
293.013
293.013
293.012
293.013
293.014
293.012
293.012
293.012
293.011
293.011
293.012
293.012
293.012
293.011
293.012
293.011
293.012
293.011
293.013
293.013
293.014
293.012
293.013
293.013
293.014
293.013
293.015
293.015
293.015
293.014
293.014
293.013
293.012
293.013
293.014
293.012
293.012
293.012
293.012
293.011
293.012
293.012
293.012
293.011
293.012
293.011
293.012
293.011
293.013
293.013
293.014
293.012
293.013
293.013
293.013
293.013
293.015
293.016
293.013
293.014
293.013
293.013
293.012
293.014
293.013
293.013
293.011
293.012
293.011
293.012
293.012
293.012
293.012
293.012
293.012
293.012
293.013
293.012
293.014
293.013
293.014
293.012
293.013
293.013
293.013
293.013
293.018
293.015
293.015
293.013
293.014
293.013
293.013
293.013
293.014
293.012
293.012
293.012
293.012
293.011
293.012
293.012
293.012
293.011
293.012
293.011
293.012
293.011
293.013
293.013
293.013
293.012
293.013
293.013
293.013
293.013
293.015
293.017
293.013
293.013
293.013
293.013
293.012
293.013
293.014
293.012
293.012
293.012
293.012
293.011
293.011
293.012
293.012
293.011
293.011
293.012
293.012
293.012
293.012
293.013
293.013
293.012
293.012
293.013
293.012
293.013
293.016
293.016
293.015
293.014
293.015
293.013
293.013
293.013
293.014
293.012
293.013
293.012
293.012
293.011
293.011
293.011
293.011
293.011
293.012
293.011
293.011
293.011
293.012
293.012
293.012
293.011
293.013
293.013
293.012
293.013
293.016
2029.82
1799.62
1637.44
1541.61
1514.24
1341.73
1308.92
1394.95
1391.35
873.062
547.527
407.112
371.122
369.739
355.256
520.117
2032.66
2275.74
2319.61
2423.36
2467.2
2455.78
2432.15
2449.24
2457.68
2498.37
2476.97
2483.38
2456.34
2441.46
2369.65
2147.76
1994.47
2028.54
1960.28
1069.34
445.821
358.363
354.244
349.865
339.178
340.212
328.224
334.429
355.559
354.926
353.615
351.495
350.648
348.353
349.05
351.071
358.629
361.247
363.573
360.087
371.399
384.822
382.875
369.383
364.399
361.661
363.551
366.359
374.817
373.248
379.744
378.252
391.773
393.989
401.379
407.698
409.597
411.786
327.764
327.477
327.511
327.596
328.876
329.254
330.673
333.953
334.068
336.489
334.857
336.043
332.914
332.555
332.547
331.363
331.559
330.549
330.84
330.497
330.36
330.951
331.467
332.006
332.826
332.949
332.995
332.757
332.3
331.87
308.329
308.837
308.784
308.897
308.841
308.577
308.483
308.111
307.336
307.358
305.715
306.044
304.621
304.109
304.087
302.596
303.236
301.593
302.202
300.843
300.978
300.472
299.834
299.952
299.265
299.446
298.864
299.043
298.695
298.773
294.56
294.54
294.513
294.256
294.321
294.116
294.176
294.018
293.947
293.923
293.787
293.782
293.658
293.651
293.542
293.539
293.451
293.4
293.383
293.308
293.316
293.242
293.257
293.191
293.205
293.155
293.167
293.138
293.14
293.128
293.013
293.017
293.01
293.017
293.012
293.01
293.013
293.008
293.01
293.006
293.008
293.004
293.006
293.003
293.005
293.002
293.004
293.001
293.004
293.001
293.004
293
293.004
293
293.003
293
293.003
293
293.003
293
293.002
293.001
293.004
293
293.004
293
293.003
293
293.003
293
293.003
293
293.004
293
293.003
293.001
293.004
293
293.003
293
293.003
293
293.004
293
293.003
293.001
293.003
293.003
293.001
293.003
293.003
293.001
293.004
293.001
293.004
293
293.004
293
293.004
293
293.003
293
293.004
293.001
293.003
293
293.004
293
293.003
293
293.003
293
293.004
293.001
293.003
293.001
293.004
293.003
293.001
293.003
293.002
293.002
293.001
293.003
293
293.003
293
293.004
293
293.004
293
293.003
293
293.003
293.001
293.004
293.001
293.003
293.001
293.003
293.003
293.001
293.004
293
293.003
293
293.004
293
293.002
293.001
293.003
293.001
293.004
293
293.004
293
293.004
293
293.004
293
293.003
293
293.004
293
293.003
293.001
293.004
293
293.003
293
293.004
293
293.004
293.001
293.003
293.001
293.003
293.003
293.001
293.003
293
293.003
293.001
293.001
293.004
293
293.004
293
293.004
293
293.003
293
293.003
293
293.003
293.003
293
293.003
292.999
293.003
292.999
293.003
293
293.003
292.999
293.003
293
293.001
293.002
293
293.003
293.002
293.004
293.001
293.004
292.999
293.004
293
293.004
293
293.003
292.999
293.002
292.999
293.002
292.998
293.001
292.998
293.002
292.998
293.003
292.999
293.003
293
293.003
293
293.003
293.003
293.001
293.002
1777.41
1745.14
1689.37
1659.51
1806.29
2101.48
2122.07
2040.38
1937.37
1839.35
1559.6
773.762
449.074
371.855
366.506
749.664
2464.31
2437.4
2487.81
2479.5
2457.54
2454.11
2445.86
2436.1
2431.44
2385.22
2373.47
2392.25
2408.82
2426.03
2464.03
2491.69
2402.88
2330.75
2273.4
2172.8
759.943
394.045
356.685
349.845
342.09
338.678
331.461
332.119
356.277
354.045
352.967
350.326
348.513
348.328
349.56
354.356
360.429
358.62
373.631
442.563
599.982
645.511
601.9
501.503
403.067
365.163
358.575
360.132
371.779
371.937
381.182
380.246
390.535
394.616
397.202
400.522
406.932
408.811
325.669
325.968
325.007
325.573
324.823
326.797
331.551
333.703
336.779
337.283
337.947
335.496
336.463
333.365
333.043
332.729
331.451
331.49
330.471
330.708
330.492
330.389
331.005
331.305
331.791
332.343
332.4
332.158
331.898
331.594
308.142
308.793
308.853
309.057
308.892
309.181
308.566
308.457
307.895
307.272
306.789
305.463
305.598
303.917
304.282
302.91
302.92
302.047
301.739
301.262
300.752
300.43
300.102
299.579
299.603
299.073
299.144
298.703
298.813
298.538
294.417
294.52
294.341
294.54
294.281
294.356
294.109
294.159
293.979
293.915
293.883
293.733
293.747
293.602
293.617
293.481
293.508
293.376
293.414
293.299
293.334
293.237
293.268
293.187
293.214
293.152
293.175
293.13
293.148
293.121
293.024
293.018
293.022
293.013
293.015
293.013
293.009
293.01
293.007
293.009
293.004
293.007
293.002
293.005
293
293.004
292.999
293.004
292.998
293.004
292.999
293.004
292.998
293.003
292.998
293.004
292.998
293.004
292.999
293.002
293.001
293.001
292.999
293.003
292.999
293.003
292.998
293.003
292.998
293.003
292.998
293.002
292.998
293.002
292.998
293.002
292.998
293.003
292.997
293.003
292.998
293.003
292.997
293.002
292.998
293.003
292.999
293
293.001
292.998
292.999
293.002
292.998
293.003
292.998
293.003
292.998
293.003
292.998
293.003
292.998
293.002
292.998
293.002
292.998
293.002
292.998
293.003
292.997
293.003
292.998
293.003
292.997
293.002
292.998
293.003
292.999
293
293.001
292.998
293
293.001
293.002
292.998
293.003
292.998
293.003
292.997
293.003
292.998
293.003
292.998
293.003
292.998
293.002
292.998
293.002
292.998
293.001
292.999
292.999
293.003
292.998
293.003
292.998
293.004
292.999
293.004
292.999
293.003
292.998
293.002
292.998
293.003
292.998
293.003
292.997
293.002
292.998
293.003
292.998
293.002
292.998
293.002
292.998
293.002
292.998
293.003
292.997
293.003
292.998
293.003
292.997
293.002
292.998
293.003
292.999
293
293.001
292.998
293.003
293.001
293.002
293.003
293
293.004
292.998
293.003
292.999
293.003
292.998
293.002
292.998
293.002
292.998
292.998
293.002
292.998
293.002
292.998
293.003
292.998
293.002
292.998
293.003
292.999
293.003
293.001
293
293.002
292.999
293.003
292.998
293.003
292.998
293.004
292.997
293.002
292.997
293.003
292.997
293.002
292.996
293.002
292.997
293.001
292.997
293.002
292.996
293.001
292.997
293.003
292.996
293.002
292.997
293.002
292.999
293
293
292.998
1825.21
1957.46
2021.98
2089.65
2421.69
2566.12
2574.75
2501.22
2359.52
2286.49
2063.26
1835.03
743.093
390.986
420.13
1918.65
2475.98
2475.75
2474.05
2480.68
2473.7
2443.64
2416.38
2386.58
2342.93
2304.77
2278.06
2272.03
2287.91
2289.07
2333.92
2417.39
2463.38
2470.67
2455.91
2450.58
2266.98
666.701
375.229
352.413
344.714
339.498
334.428
332.766
355.019
354.127
351.809
349.489
348.233
349.954
352.019
358.082
379.254
466.27
703.65
1073.82
2493.81
2485.32
2365.46
2548.12
1019.19
601.482
446.997
364.137
364.945
368.478
378.603
383.231
388.278
393.112
396.487
395.725
395.383
394.869
324.217
322.635
321.741
320.411
323.904
326.497
328.63
333.74
335.961
338.66
340.313
340.286
337.226
337.255
333.638
333.231
332.71
331.551
331.447
330.532
330.684
330.369
330.239
330.774
330.912
331.107
331.301
331.493
331.474
331.406
308.193
308.293
309.229
309.102
309.603
308.942
309.213
308.469
308.307
307.798
306.745
306.607
305.097
304.52
304.37
302.942
303.266
301.879
302.328
300.822
301.451
299.987
300.614
299.396
299.731
298.933
299.107
298.578
298.627
298.571
294.86
294.678
294.835
294.427
294.57
294.25
294.367
294.055
294.184
293.878
293.971
293.76
293.763
293.636
293.616
293.511
293.508
293.399
293.412
293.318
293.332
293.253
293.269
293.197
293.217
293.156
293.177
293.132
293.148
293.122
293.021
293.025
293.018
293.021
293.016
293.016
293.012
293.013
293.01
293.009
293.008
293.006
293.005
293.004
293.004
293.003
293.003
293.002
293.002
293.001
293.003
293.001
293.003
293.001
293.003
293.001
293.002
293.001
293.002
293.001
293.001
293.001
293.002
293.001
293.002
293.001
293.002
293.002
293.002
293.001
293.002
293
293.001
293
293.001
293
293.001
293
293.001
293
293.002
293.001
293.003
293.001
293.002
293.001
293.001
293.001
293.001
293.002
293.003
293.001
293.002
293.001
293.002
293.001
293.002
293.002
293.002
293.001
293.002
293
293.001
293
293.001
293
293.001
293
293.001
293
293.002
293.001
293.003
293
293.002
293.001
293.001
293.001
293.001
293.002
293.002
293.002
293.001
293.002
293.001
293.002
293.001
293.003
293.001
293.002
293
293.001
293
293.001
293
293.001
293
293.001
293.001
293.001
293.002
293.001
293.003
293.001
293.002
293.001
293.002
293.002
293.002
293.001
293.003
293.001
293.002
293.001
293.002
293.001
293.002
293.002
293.003
293.001
293.001
293
293.001
293
293.001
293
293.001
293
293.001
293
293.002
293.001
293.003
293
293.002
293.001
293.001
293.001
293.001
293.002
293.001
293.002
293.002
293.002
293.002
293.001
293.002
293.002
293.003
293.001
293.002
293
293.001
293.001
293.001
293.001
293.001
293.002
293.001
293.002
293.001
293.003
293.002
293.002
293.001
293.002
293.001
293.002
293.001
293.001
293.003
293.002
293.002
293.001
293.003
293.001
293.003
293.001
293.002
293
293.002
293
293.002
293
293.001
292.999
293
293
293.001
292.999
293.001
293
293.002
293
293.001
293
293.001
293.001
293.001
293.003
2172.6
2333.51
2381.07
2457.38
2558.26
2632.03
2668.89
2624.27
2582.93
2462.04
2278.89
2112.8
1020.22
413.641
478.005
2229.19
2483.4
2462.9
2485.66
2532.21
2540.32
2503.23
2454.19
2406.97
2357.36
2302.37
2249.95
2202.66
2196.68
2191.84
2232.68
2291.25
2369.44
2422.09
2454.21
2481.31
2472.39
2274.54
636.267
372.311
347.044
341.479
339.003
336.861
354.363
352.329
350.774
349.464
350.213
354.698
368.927
465.981
717.602
997.72
2229.09
2343.08
2600.82
2495.22
2474.58
2351.73
2436.62
2433.9
2467.97
679.405
394.215
366.272
374.802
378.775
389.37
389.048
390.915
391.867
390.001
393.455
319.807
320.591
319.799
321.28
319.02
323.417
329.393
332.911
335.197
338.141
340.854
342.218
340.891
337.274
337.287
333.575
333.224
332.639
331.412
331.345
330.403
330.532
329.998
329.464
329.774
330.036
330.731
330.911
330.887
330.773
308.48
308.705
309.062
309.919
309.416
309.754
309.057
309.256
308.212
308.243
307.253
306.558
305.878
304.768
304.389
303.584
302.638
302.81
301.86
301.021
301.345
300.102
300.517
299.351
299.825
298.704
299.256
298.259
298.685
298.145
294.994
294.942
294.683
294.845
294.508
294.576
294.261
294.308
294.06
294.074
293.901
293.861
293.77
293.666
293.656
293.516
293.54
293.404
293.438
293.317
293.353
293.251
293.283
293.198
293.226
293.157
293.185
293.127
293.153
293.116
293.036
293.026
293.03
293.02
293.02
293.015
293.014
293.012
293.01
293.009
293.006
293.007
293.003
293.004
293.002
293.003
293
293.002
292.999
293.002
292.999
293.002
292.998
293.002
292.998
293.002
292.998
293.001
292.999
293
293
293
292.999
293.002
292.999
293.002
292.998
293.002
292.999
293.001
292.998
293.001
292.998
293
292.998
293
292.998
293.001
292.998
293.001
292.998
293.002
292.998
293.001
292.998
293.001
292.999
293
293
292.999
292.999
293
292.999
293.002
292.998
293.002
292.998
293.002
292.999
293.001
292.998
293.001
292.998
293.001
292.999
293.001
292.998
293.001
292.998
293.001
292.998
293.002
292.998
293.001
292.998
293.001
292.999
293
293
292.999
293
293
293.001
292.999
293.002
292.998
293.002
292.998
293.002
292.998
293.001
292.998
293.001
292.998
293
292.998
293
292.998
292.999
293
292.999
293.002
292.998
293.002
292.998
293.002
292.998
293.001
292.999
293.001
292.999
293.001
292.999
293.002
292.998
293.002
292.998
293.002
292.999
293.001
292.998
293.001
292.998
293
292.998
293
292.998
293
292.998
293.001
292.998
293.002
292.998
293.001
292.998
293.001
292.999
293
293
292.999
293.002
293
293.001
293.001
293
293.002
292.998
293.002
292.999
293.002
292.998
293.001
292.998
293
292.999
292.999
293.001
292.998
293.001
292.998
293.001
292.999
293.002
292.998
293.002
292.999
293.001
293
293.001
293.001
292.999
293.001
292.999
293.002
292.998
293.002
292.998
293.002
292.998
293.002
292.997
293.001
292.998
293.001
292.997
293
292.997
293
292.998
293.001
292.997
293.002
292.997
293.001
292.997
293.001
292.999
293
293
292.998
2437.39
2479.11
2510.82
2571.66
2655.32
2719.06
2716.23
2700.04
2667.97
2523.57
2257.94
1975.88
885.227
403.489
606.081
2266.99
2499.17
2494.98
2554.32
2549.86
2519.24
2553.58
2542.66
2492.08
2427.9
2362.49
2286.16
2224.42
2169.24
2150.15
2154.64
2196.76
2274.24
2344.4
2380.79
2423.03
2461.98
2483.15
2417.56
715.633
377.523
343.651
345.413
344.012
354.14
352.46
352.626
353.182
357.611
401.647
495.119
843.003
1939.09
2132.06
2418.43
2529.94
2554.81
2547.5
2478.6
2443.01
2384.39
2338.47
2283.28
2235.49
1275.46
513.114
374.935
378.312
382.332
390.352
387.969
386.599
381.639
371.82
321.104
320.247
321.704
322.322
321.757
323.397
328.998
332.675
335.55
337.885
340.947
342.642
342.669
340.871
337.041
336.815
333.435
333.056
332.418
331.113
331.026
329.953
329.91
329.642
329.231
329.158
329.008
329.911
330.061
329.753
306.91
306.503
308.483
309.494
310.58
309.98
309.869
309.051
309.119
308.039
307.727
306.929
305.868
305.737
303.917
304.468
302.649
302.855
301.954
301.39
301.233
300.318
300.479
299.44
299.771
298.815
299.085
298.358
298.582
298.121
295.168
294.893
295.181
294.58
294.861
294.412
294.564
294.2
294.308
293.973
294.082
293.797
293.897
293.639
293.719
293.532
293.551
293.429
293.44
293.332
293.36
293.261
293.283
293.213
293.222
293.169
293.184
293.133
293.154
293.126
293.034
293.037
293.028
293.03
293.023
293.022
293.018
293.015
293.013
293.011
293.01
293.008
293.007
293.006
293.005
293.004
293.003
293.003
293.003
293.003
293.003
293.003
293.003
293.002
293.003
293.002
293.003
293.003
293.003
293.003
293.002
293.002
293.003
293.002
293.003
293.002
293.003
293.002
293.002
293.001
293.002
293.001
293.001
293.001
293.001
293.001
293.001
293.001
293.002
293.001
293.002
293.001
293.003
293.002
293.003
293.002
293.003
293.002
293.003
293.003
293.002
293.002
293.003
293.002
293.003
293.002
293.003
293.001
293.002
293.001
293.002
293.001
293.001
293.001
293.001
293.001
293.001
293.001
293.002
293.001
293.002
293.001
293.003
293.001
293.003
293.002
293.003
293.002
293.003
293.003
293.003
293.002
293.002
293.003
293.002
293.003
293.002
293.003
293.001
293.002
293.001
293.002
293.001
293.001
293.001
293.001
293.001
293.001
293.003
293.002
293.002
293.001
293.003
293.002
293.003
293.002
293.003
293.002
293.002
293.002
293.003
293.002
293.003
293.002
293.003
293.002
293.003
293.002
293.002
293.001
293.002
293.001
293.001
293.001
293.001
293.001
293.001
293.001
293.002
293.001
293.002
293.001
293.003
293.002
293.003
293.002
293.002
293.002
293.003
293.003
293.003
293.003
293.003
293.003
293.003
293.002
293.003
293.002
293.003
293.001
293.002
293.001
293.001
293.001
293.001
293.001
293.001
293.001
293.001
293.002
293.001
293.002
293.002
293.003
293.002
293.003
293.003
293.003
293.003
293.003
293.003
293.002
293.003
293.002
293.004
293.002
293.004
293.001
293.003
293.001
293.002
293.001
293.002
293.001
293.002
293.001
293.001
293
293.001
293.001
293.002
293.001
293.002
293.001
293.002
293.002
293.002
293.003
293.003
293.003
2513.29
2535.45
2578.07
2643.4
2705.38
2718.56
2677.99
2650.2
2646.9
2653.11
2203.07
1743.34
1385.15
685.995
1767.84
2031.25
2231.65
2247.28
2515.66
2546.9
2538.2
2351.99
2311.26
2388.4
2496.99
2577.19
2545.71
2469.01
2373.99
2276.6
2199.77
2143.05
2118.95
2132.98
2182.29
2252.47
2301.78
2345.57
2407.74
2483.66
2475.85
2427.24
938.119
442.731
358.09
351.993
364.695
365.353
358.959
357.122
359.301
368.277
394.221
625.871
956.012
2054.33
2382.89
2561.32
2557.84
2512.53
2414.99
2341.62
2293.58
2279.86
2278.3
2273.93
2233.84
2183.78
2088.54
1089.31
478.732
375.381
381.296
382.045
385.044
378.156
372.266
367.509
332.772
319.36
328.003
335.811
330.601
323.284
324.042
326.693
328.915
330.499
334.235
337.577
340.713
343.002
343.532
342.332
340.345
335.486
336.961
332.414
333.33
331.465
330.627
330.331
329.088
328.688
328.145
327.905
328.21
327.244
325.98
322.072
311.529
316.656
308.92
309.577
310.974
311
310.816
310.827
309.925
309.815
308.821
308.85
307.647
307.081
306.832
305.061
304.947
304.35
302.845
303.275
301.707
302.132
300.747
300.908
300.06
299.81
299.286
299.105
298.404
298.406
297.458
297.694
296.199
296.609
295.657
295.724
295.193
295.276
294.661
294.92
294.37
294.528
294.168
294.203
293.959
293.964
293.785
293.756
293.667
293.58
293.555
293.447
293.458
293.342
293.368
293.275
293.287
293.215
293.232
293.166
293.186
293.132
293.14
293.103
293.113
293.07
293.069
293.041
293.047
293.028
293.031
293.021
293.019
293.015
293.01
293.011
293.006
293.007
293.004
293.005
293.002
293.003
293.001
293.002
293
293.001
292.999
293.001
292.999
293.001
293
293.001
293
293
293
292.999
293.005
293.005
292.999
293
292.999
293
292.999
293.001
292.999
293.001
292.998
292.999
292.998
292.999
292.998
292.999
292.998
292.999
292.998
292.999
292.998
292.999
292.998
293
292.999
293.001
292.999
293.001
292.999
293
292.999
293
293.005
293.005
293
293
292.999
293
292.999
293.001
292.999
293
292.998
292.999
292.998
292.999
292.998
292.999
292.998
292.999
292.998
292.999
292.998
292.999
292.998
293
292.999
293.001
292.999
293.001
292.999
293
292.999
292.999
293.005
293.005
293
293
293
293
293.001
292.999
293.001
292.999
293
292.998
292.999
292.998
292.999
292.998
292.999
292.999
292.999
292.999
292.998
293
292.998
293
292.998
293
292.999
293.001
292.999
293
293
292.999
293.005
293.005
293
293
293
293
292.999
293
292.999
293
292.998
292.999
292.998
292.999
292.998
292.999
292.998
292.999
292.998
292.999
292.998
292.999
292.998
293
292.999
293.001
292.999
293.001
292.999
293
292.999
293
293.005
293.005
293
293
292.999
293
292.999
293.001
292.999
293.001
292.998
293
292.998
292.999
292.998
292.999
292.998
292.999
292.999
292.998
292.999
292.998
292.999
292.998
293.001
292.999
293.001
292.999
293
292.999
293
293
293.005
293.005
292.999
293
292.999
293.001
292.999
293.001
292.999
293.001
292.998
293
292.997
292.999
292.997
292.999
292.998
292.999
292.998
292.999
292.998
293
292.998
293
292.998
293
292.998
293.001
292.999
293.001
293
293.001
293.006
293.006
2511.57
2506.21
2552.92
2590.85
2617.39
2604.46
2527.36
2475.36
2432.92
2524.74
2648.86
2006.34
1540.12
1612.27
1958.98
1996.35
2170.69
2302.08
2532.71
2537.79
2325.88
2247.67
2285.56
2335.22
2405.68
2488.62
2587.59
2572.24
2464.7
2341.54
2230.56
2162.8
2114.44
2098.04
2110.12
2156.75
2210.08
2263.09
2321.14
2401.93
2381.12
2488.52
2450.77
2397.3
827.579
454.938
390.682
395.459
404.548
399.784
402.118
435.82
547.694
1756.55
2254.93
2481.91
2569.31
2475.73
2398.13
2310.22
2220
2148.58
2104.83
2097.84
2138.23
2168.59
2147.72
2117.7
2067.24
1620.31
569.007
386.575
375.784
382.349
380.497
377.169
366.909
355.497
319.962
334.078
325.398
324.867
330.184
329.613
327.914
327.769
328.982
330.849
334.963
338.047
341.013
342.766
343.847
343.191
341.14
338.815
336.225
334.279
332.853
331.55
331.504
329.475
329.902
328.338
328.179
326.949
326.083
325.876
324.493
322.844
320.008
314.677
314.134
312.58
312.009
312.094
311.396
310.744
310.635
309.48
309.591
308.283
308.543
306.76
307.343
304.983
305.489
304.048
303.403
302.88
302.223
301.644
301.043
300.852
299.978
300.079
299.042
299.282
298.231
298.538
297.513
297.806
296.427
296.481
296.082
295.374
295.664
294.953
294.981
294.798
294.501
294.543
294.201
294.283
293.958
294.061
293.764
293.859
293.621
293.675
293.49
293.541
293.387
293.399
293.346
293.292
293.291
293.223
293.236
293.178
293.181
293.141
293.143
293.106
293.11
293.071
293.072
293.046
293.05
293.034
293.032
293.026
293.023
293.017
293.018
293.011
293.012
293.009
293.009
293.006
293.007
293.005
293.005
293.004
293.004
293.002
293.002
293.002
293.003
293.003
293.003
293.003
293.003
293.002
293.002
293.002
293.002
293.002
293.002
293.002
293.002
293.002
293.003
293.002
293.003
293.002
293.002
293.001
293.001
293.001
293.002
293.001
293.001
293.001
293.002
293.001
293.002
293
293.001
293.001
293.002
293.002
293.003
293.002
293.003
293.002
293.002
293.002
293.002
293.002
293.002
293.002
293.002
293.003
293.003
293.002
293.003
293.002
293.002
293.001
293.001
293.001
293.002
293.001
293.001
293.001
293.002
293.001
293.002
293
293.001
293.001
293.002
293.002
293.003
293.002
293.003
293.002
293.002
293.002
293.002
293.002
293.002
293.002
293.002
293.003
293.002
293.003
293.002
293.003
293.001
293.001
293.001
293.002
293.001
293.002
293.001
293.001
293.002
293.001
293.002
293
293.001
293.001
293.002
293.001
293.003
293.002
293.003
293.002
293.002
293.002
293.002
293.002
293.002
293.003
293.002
293.003
293.003
293.002
293.003
293.002
293.002
293.001
293.001
293.001
293.002
293.001
293.001
293.001
293.002
293.001
293.002
293
293.001
293.001
293.002
293.002
293.003
293.002
293.003
293.002
293.002
293.002
293.002
293.002
293.002
293.002
293.003
293.003
293.003
293.002
293.003
293.002
293.002
293
293.001
293.001
293.002
293.001
293.001
293.001
293.001
293.002
293.001
293.001
293.001
293.002
293.001
293.003
293.002
293.003
293.002
293.003
293.002
293.003
293.002
293.002
293.003
293.003
293.002
293.003
293.003
293.003
293.003
293.002
293.002
293.002
293.002
293.001
293.001
293.001
293.001
293.001
293.001
293.001
293.002
293.001
293.003
293.002
293.003
293.002
293.003