/*--------------------------------*- C++ -*----------------------------------*\
| =========                 |                                                 |
| \\      /  F ield         | OpenFOAM: The Open Source CFD Toolbox           |
|  \\    /   O peration     | Version:  2.1.1                                 |
|   \\  /    A nd           | Web:      www.OpenFOAM.org                      |
|    \\/     M anipulation  |                                                 |
\*---------------------------------------------------------------------------*/
FoamFile
{
    version     2.0;
    format      ascii;
    class       volScalarField;
    location    "0.002250000";
    object      H2O2;
}
// * * * * * * * * * * * * * * * * * * * * * * * * * * * * * * * * * * * * * //

dimensions      [0 0 0 0 0 0 0];

internalField   nonuniform List<scalar> 
12384
(
3.49167e-07
3.59183e-07
3.48059e-07
3.61056e-07
3.60404e-07
3.55422e-07
3.43203e-07
4.80799e-08
2.24468e-09
1.30238e-10
1.34607e-11
4.06441e-13
1.23001e-14
3.95839e-16
6.15663e-12
8.60422e-11
4.6878e-10
2.94955e-09
1.31589e-08
2.41135e-08
3.32755e-08
4.12176e-08
4.2052e-08
4.18445e-08
4.23987e-08
4.19165e-08
3.78644e-08
3.74093e-08
3.24451e-08
3.14308e-08
2.36074e-08
2.10018e-08
1.50232e-08
6.64127e-09
2.1924e-09
7.44964e-10
6.4587e-11
2.61618e-11
1.29557e-11
7.68417e-13
3.6521e-15
1.32062e-17
6.95575e-20
4.13506e-22
2.53343e-16
5.19211e-14
1.92544e-11
3.87354e-09
1.93454e-08
4.25872e-08
6.28862e-08
8.13178e-08
8.64122e-08
8.31021e-08
6.82002e-08
5.54118e-08
4.64939e-08
3.45572e-08
2.5141e-08
1.91839e-08
4.15419e-09
1.80724e-09
8.62546e-10
2.34293e-10
2.46899e-11
5.82221e-13
1.17236e-14
2.56932e-17
5.63492e-20
1.04753e-22
1.59186e-25
2.15366e-28
6.81376e-31
1.40873e-30
3.32844e-37
2.97183e-35
6.39322e-33
2.43426e-32
3.41145e-32
3.91856e-32
7.71897e-32
5.05865e-31
5.48267e-30
7.90394e-29
2.53364e-26
6.91988e-24
1.08139e-20
9.87268e-20
2.61199e-19
1.1455e-19
1.61104e-20
1.9119e-22
6.94304e-25
6.4959e-28
2.59789e-31
7.31082e-35
2.41004e-38
8.57985e-42
3.14441e-45
1.00358e-48
3.55805e-52
1.21963e-55
4.46028e-59
1.61779e-62
1.036e-82
1.48757e-83
2.15268e-86
2.18109e-89
1.408e-92
8.48085e-96
3.81057e-99
1.6287e-102
6.58419e-106
2.94489e-109
1.34791e-112
4.13655e-116
1.21433e-119
3.67159e-123
1.13124e-126
3.55482e-130
1.05725e-133
3.26911e-137
1.03858e-140
3.05484e-144
9.8315e-148
2.91527e-151
8.89722e-155
3.11464e-158
1.39488e-161
5.81318e-165
2.20571e-168
7.66241e-172
1.63088e-177
2.89405e-183
8.73301e-197
2.62116e-199
3.19966e-204
2.1098e-209
1.15017e-214
5.50294e-220
2.3777e-225
9.1484e-231
3.19623e-236
9.99041e-242
2.95631e-247
8.24869e-253
2.19243e-258
5.59809e-264
1.32116e-269
2.99377e-275
6.65737e-281
1.44592e-286
3.05846e-292
6.35451e-298
1.27174e-303
2.49918e-309
4.78671e-315
9.0167e-321
0
0
0
0
0
0
0
0
0
0
0
0
0
0
0
0
0
0
0
0
0
0
0
0
0
0
0
0
0
0
0
0
0
0
0
0
0
0
0
0
0
0
0
0
0
0
0
0
0
0
0
0
0
0
0
0
0
0
0
0
0
0
0
0
0
0
0
0
0
0
0
0
0
0
0
0
0
0
0
0
0
0
0
0
0
0
0
0
0
0
0
0
0
0
0
0
0
0
0
0
0
0
0
0
0
0
0
0
0
0
0
0
0
0
0
0
0
0
0
0
0
0
0
0
0
0
0
0
0
0
0
0
0
0
0
0
0
0
0
0
0
0
0
0
0
0
0
0
0
0
0
0
0
0
0
0
0
0
0
0
0
0
0
0
0
0
0
0
0
0
0
0
0
0
0
0
0
0
0
0
0
0
0
0
0
0
0
0
0
0
0
0
0
0
0
0
0
0
0
0
0
0
0
0
0
0
0
0
0
0
0
0
0
0
0
0
3.54769e-07
3.63217e-07
3.40405e-07
3.19199e-07
3.03768e-07
3.02837e-07
2.60609e-07
2.00658e-08
2.77444e-09
7.23992e-10
2.23076e-10
8.4181e-12
5.24683e-13
1.44416e-14
1.76978e-10
2.4811e-09
1.39974e-08
4.40015e-08
1.7238e-07
1.70738e-07
1.7565e-07
1.98088e-07
1.89212e-07
1.89202e-07
1.86357e-07
1.83236e-07
1.75351e-07
1.67171e-07
1.60379e-07
1.46425e-07
1.36249e-07
1.25957e-07
1.10912e-07
4.49929e-08
2.14701e-08
1.03547e-08
3.96108e-09
1.15164e-09
2.86104e-10
8.91797e-12
1.7444e-13
1.14077e-15
3.22448e-18
1.50512e-20
2.95647e-15
1.12425e-12
6.44425e-10
2.66484e-08
9.18956e-08
2.83168e-07
3.46957e-07
3.65168e-07
3.84586e-07
4.03633e-07
4.19694e-07
4.10538e-07
4.18891e-07
4.06454e-07
3.70959e-07
2.61387e-07
5.28973e-08
1.00074e-08
3.42229e-09
2.29557e-09
1.8706e-09
6.55777e-10
1.58167e-11
8.25315e-15
4.88278e-18
4.77931e-21
1.52341e-23
7.02253e-26
3.87117e-28
5.55127e-28
1.66145e-34
2.28856e-33
5.28068e-31
2.38223e-30
5.57843e-30
9.9581e-30
4.71011e-29
2.19827e-28
1.79555e-27
1.98702e-26
6.68799e-24
2.62423e-21
2.27064e-18
2.91474e-17
7.84415e-17
4.10424e-17
8.3386e-18
7.01748e-19
9.43554e-21
4.84315e-24
2.83565e-28
3.70679e-33
4.52402e-37
1.06467e-41
3.73504e-44
1.74781e-47
1.2012e-50
4.92916e-54
1.40851e-57
4.6333e-61
1.04825e-79
6.16552e-81
6.55729e-84
5.87636e-87
3.71182e-90
2.71393e-93
9.82534e-97
4.09456e-100
1.29658e-103
4.79192e-107
1.76781e-110
3.5329e-114
2.28704e-118
6.12156e-122
2.47403e-125
1.20457e-128
5.48296e-132
2.45407e-135
6.31168e-139
1.61008e-142
4.3081e-146
1.23452e-149
3.46562e-153
4.74882e-155
3.98618e-158
1.56661e-161
5.45338e-165
1.64916e-168
4.88092e-172
9.23492e-178
6.20303e-191
1.58415e-193
2.85002e-198
1.72788e-203
8.89962e-209
4.37048e-214
1.92714e-219
8.16082e-225
2.93457e-230
1.00063e-235
3.04553e-241
9.1313e-247
2.49328e-252
6.21564e-258
1.48627e-263
3.39949e-269
7.57705e-275
1.61642e-280
3.41947e-286
6.72151e-292
1.33278e-297
2.45039e-303
4.56581e-309
8.03455e-315
1.43921e-320
0
0
0
0
0
0
0
0
0
0
0
0
0
0
0
0
0
0
0
0
0
0
0
0
0
0
0
0
0
0
0
0
0
0
0
0
0
0
0
0
0
0
0
0
0
0
0
0
0
0
0
0
0
0
0
0
0
0
0
0
0
0
0
0
0
0
0
0
0
0
0
0
0
0
0
0
0
0
0
0
0
0
0
0
0
0
0
0
0
0
0
0
0
0
0
0
0
0
0
0
0
0
0
0
0
0
0
0
0
0
0
0
0
0
0
0
0
0
0
0
0
0
0
0
0
0
0
0
0
0
0
0
0
0
0
0
0
0
0
0
0
0
0
0
0
0
0
0
0
0
0
0
0
0
0
0
0
0
0
0
0
0
0
0
0
0
0
0
0
0
0
0
0
0
0
0
0
0
0
0
0
0
0
0
0
0
0
0
0
0
0
0
0
0
0
0
0
0
0
0
0
0
0
0
0
0
0
0
0
0
0
0
0
0
0
3.42921e-07
2.46939e-07
1.42624e-07
7.15384e-08
7.2198e-08
1.03054e-07
3.38132e-08
7.86117e-09
3.09484e-09
1.48675e-09
6.30748e-10
4.33814e-11
6.44844e-12
3.8889e-13
9.8277e-10
1.60008e-08
8.78323e-08
1.39132e-07
1.41247e-07
1.46544e-07
2.50611e-07
3.3558e-07
3.80357e-07
3.8575e-07
3.38244e-07
2.84145e-07
2.74043e-07
2.69155e-07
2.67292e-07
2.83179e-07
2.60634e-07
1.47995e-07
1.20151e-07
1.06091e-07
9.42921e-08
7.5133e-08
2.46133e-08
1.12018e-08
3.07642e-09
6.56118e-10
2.56038e-11
1.41087e-13
1.02121e-15
1.37826e-18
4.61797e-15
2.07502e-12
8.95809e-10
2.43892e-08
4.82483e-08
1.57929e-07
2.14621e-07
2.26268e-07
2.24987e-07
2.5817e-07
2.98563e-07
3.29058e-07
3.43563e-07
3.82144e-07
4.08159e-07
4.1892e-07
2.9148e-07
1.10609e-07
2.80699e-08
2.19851e-08
9.50091e-09
8.00933e-10
4.22126e-10
7.55064e-11
7.50049e-14
7.59401e-19
1.98088e-22
9.79219e-24
2.59536e-25
2.24865e-25
5.97061e-32
1.19702e-31
7.09831e-29
1.02406e-27
4.28223e-27
3.77301e-27
4.1839e-27
1.58492e-26
3.40889e-25
2.28438e-23
1.25267e-20
6.91936e-18
5.07311e-15
1.37762e-13
1.56519e-13
2.8928e-14
1.65997e-15
3.88877e-17
2.04012e-19
6.26282e-22
7.2493e-24
1.64158e-26
4.86855e-31
1.11544e-36
3.46635e-41
3.63608e-46
1.16607e-49
2.72027e-52
8.14497e-55
5.71982e-58
2.78991e-77
1.2253e-77
4.98075e-80
1.99442e-82
3.67732e-85
4.94522e-88
2.32197e-91
8.18547e-95
1.55878e-98
1.99428e-102
3.07875e-106
3.6839e-110
3.14654e-115
5.18626e-119
1.16805e-122
2.82723e-126
6.54911e-130
1.91849e-133
2.13127e-138
5.4587e-142
1.66623e-145
5.18536e-149
1.64492e-152
5.09597e-154
1.18416e-156
5.28015e-160
3.62634e-163
1.34548e-166
5.078e-170
6.10102e-174
2.16403e-187
6.03457e-190
1.69874e-194
6.71247e-200
3.12798e-205
8.64359e-211
4.291e-216
1.2241e-221
5.77441e-227
1.53375e-232
6.34685e-238
1.76688e-243
6.15049e-249
1.60745e-254
4.29859e-260
1.07128e-265
2.55889e-271
5.84231e-277
1.24461e-282
2.58941e-288
5.08532e-294
9.43372e-300
1.67337e-305
2.937e-311
4.71266e-317
7.90505e-323
0
0
0
0
0
0
0
0
0
0
0
0
0
0
0
0
0
0
0
0
0
0
0
0
0
0
0
0
0
0
0
0
0
0
0
0
0
0
0
0
0
0
0
0
0
0
0
0
0
0
0
0
0
0
0
0
0
0
0
0
0
0
0
0
0
0
0
0
0
0
0
0
0
0
0
0
0
0
0
0
0
0
0
0
0
0
0
0
0
0
0
0
0
0
0
0
0
0
0
0
0
0
0
0
0
0
0
0
0
0
0
0
0
0
0
0
0
0
0
0
0
0
0
0
0
0
0
0
0
0
0
0
0
0
0
0
0
0
0
0
0
0
0
0
0
0
0
0
0
0
0
0
0
0
0
0
0
0
0
0
0
0
0
0
0
0
0
0
0
0
0
0
0
0
0
0
0
0
0
0
0
0
0
0
0
0
0
0
0
0
0
0
0
0
0
0
0
0
0
0
0
0
0
0
0
0
0
0
0
0
0
0
0
0
2.77796e-07
8.99873e-08
3.14543e-08
1.37484e-08
1.26862e-08
1.97402e-08
6.70962e-09
9.44538e-10
7.25299e-10
7.58901e-10
6.8344e-10
2.19586e-10
3.9053e-11
3.33027e-12
2.34772e-09
5.31495e-08
2.06577e-07
3.13362e-07
3.07218e-07
5.06707e-07
5.26031e-07
5.06807e-07
5.03161e-07
5.49339e-07
5.62202e-07
5.42949e-07
4.71249e-07
3.68279e-07
3.16989e-07
3.31194e-07
5.26108e-07
5.05709e-07
4.17596e-07
4.30816e-07
4.38025e-07
3.21902e-07
2.20829e-07
1.2707e-07
2.63054e-08
2.34536e-09
1.6259e-10
1.62419e-13
3.30511e-15
1.4236e-17
4.20236e-15
1.90223e-12
6.51176e-10
2.28293e-08
9.04877e-08
2.39874e-07
2.2285e-07
2.0572e-07
1.88493e-07
1.91142e-07
2.16161e-07
2.32016e-07
2.45106e-07
2.63985e-07
2.95399e-07
3.69947e-07
3.97813e-07
3.93885e-07
4.12212e-07
1.89405e-07
1.13107e-08
2.39066e-09
6.83556e-10
3.81626e-10
9.15012e-11
3.48604e-13
2.11293e-18
2.30626e-21
9.79957e-23
1.17812e-22
2.5381e-29
1.02693e-28
2.71498e-26
4.43777e-25
4.63949e-25
3.51059e-25
2.0255e-24
1.71446e-23
1.26546e-22
2.1309e-21
2.73002e-18
1.43325e-15
3.59738e-12
3.06021e-10
5.04365e-10
1.08565e-10
2.91543e-12
7.68824e-14
1.98772e-16
1.82817e-19
1.77216e-22
5.59705e-25
9.05081e-27
8.45332e-30
2.34094e-34
5.92076e-40
3.64372e-45
7.46011e-50
2.9391e-52
6.88215e-55
3.6374e-72
5.40055e-72
2.88813e-74
1.54136e-77
2.56004e-81
5.74058e-85
1.92003e-88
6.06037e-92
4.91297e-95
1.33775e-97
1.26894e-100
2.71532e-104
3.88777e-108
5.58813e-112
8.9275e-116
1.43205e-119
2.46556e-123
5.36326e-127
3.62575e-132
9.11563e-136
1.85029e-139
5.68914e-143
1.37945e-146
7.34144e-150
1.9589e-152
5.07326e-156
1.14762e-159
2.40503e-163
3.99759e-167
2.95234e-171
1.08829e-180
2.21195e-183
2.6027e-188
1.06665e-193
1.90422e-199
5.10829e-205
1.094e-210
3.72445e-216
1.08265e-221
4.10548e-227
1.25569e-232
4.96139e-238
1.49502e-243
5.03893e-249
1.36846e-254
4.2114e-260
1.07759e-265
2.86646e-271
6.61417e-277
1.49359e-282
3.03907e-288
5.82178e-294
1.02193e-299
1.71429e-305
2.60838e-311
3.86862e-317
5.43472e-323
0
0
0
0
0
0
0
0
0
0
0
0
0
0
0
0
0
0
0
0
0
0
0
0
0
0
0
0
0
0
0
0
0
0
0
0
0
0
0
0
0
0
0
0
0
0
0
0
0
0
0
0
0
0
0
0
0
0
0
0
0
0
0
0
0
0
0
0
0
0
0
0
0
0
0
0
0
0
0
0
0
0
0
0
0
0
0
0
0
0
0
0
0
0
0
0
0
0
0
0
0
0
0
0
0
0
0
0
0
0
0
0
0
0
0
0
0
0
0
0
0
0
0
0
0
0
0
0
0
0
0
0
0
0
0
0
0
0
0
0
0
0
0
0
0
0
0
0
0
0
0
0
0
0
0
0
0
0
0
0
0
0
0
0
0
0
0
0
0
0
0
0
0
0
0
0
0
0
0
0
0
0
0
0
0
0
0
0
0
0
0
0
0
0
0
0
0
0
0
0
0
0
0
0
0
0
0
0
0
0
0
0
0
1.36562e-07
4.12372e-08
1.96315e-08
1.47537e-08
1.30761e-08
1.0795e-08
7.58199e-09
9.42629e-09
5.4699e-09
1.47105e-09
4.48875e-10
4.29508e-10
1.63983e-10
1.12847e-11
5.41755e-09
1.3212e-07
3.66057e-07
4.38016e-07
4.06358e-07
2.42508e-07
1.61779e-07
1.44093e-07
1.42308e-07
1.41417e-07
9.16177e-08
5.59289e-08
3.36566e-08
2.37708e-08
2.16384e-08
3.70353e-08
1.01405e-07
3.00665e-07
4.1892e-07
4.22937e-07
4.6479e-07
4.53543e-07
3.99703e-07
3.03323e-07
1.27393e-07
1.15833e-08
6.24325e-10
4.19255e-14
3.93053e-16
9.80746e-17
3.03558e-15
1.27713e-12
2.58652e-10
1.74443e-08
1.08176e-07
2.69229e-07
2.14744e-07
1.65232e-07
1.50223e-07
2.09141e-07
2.97491e-07
3.32288e-07
3.31453e-07
3.15629e-07
2.91837e-07
3.17649e-07
3.09305e-07
3.16621e-07
3.2007e-07
3.9539e-07
1.87014e-07
2.70112e-08
1.07653e-09
5.45013e-10
3.96135e-10
1.81287e-10
1.16092e-12
6.84646e-18
3.68294e-20
6.37997e-20
1.31112e-26
3.37457e-25
2.93074e-23
4.22841e-23
4.03815e-23
2.15744e-22
1.06017e-21
1.86904e-21
3.10245e-20
2.90412e-18
6.20052e-15
3.95759e-12
8.87282e-10
9.354e-10
7.76805e-10
5.28877e-10
2.35245e-10
3.27551e-11
1.56207e-13
2.3733e-16
1.54723e-19
8.55139e-23
1.44301e-25
1.49801e-27
1.24634e-29
7.25601e-34
1.42224e-38
2.26648e-44
5.89663e-49
3.4883e-52
6.42058e-67
2.62558e-67
4.66326e-71
1.17414e-74
5.66265e-78
1.91644e-81
3.26855e-85
4.48622e-89
9.20935e-93
5.43025e-96
1.12416e-98
6.3192e-101
1.38809e-103
4.01026e-107
8.47605e-111
1.8132e-114
4.0055e-118
9.14339e-122
2.06945e-125
5.42494e-129
1.1826e-132
3.28494e-136
6.90084e-140
1.93404e-143
3.86148e-147
8.94481e-151
1.7069e-154
2.59985e-158
3.45972e-162
2.63091e-166
8.94384e-174
2.8735e-176
2.89115e-181
6.93209e-187
1.21206e-192
1.48654e-198
2.4064e-204
4.27265e-210
1.18834e-215
3.14488e-221
1.0326e-226
2.96551e-232
1.09791e-237
3.45091e-243
1.50752e-248
4.87388e-254
1.79467e-259
5.28769e-265
1.58536e-270
3.85682e-276
9.36286e-282
1.8641e-287
3.65318e-293
5.96398e-299
9.22746e-305
1.17235e-310
1.48144e-316
1.82804e-322
0
0
0
0
0
0
0
0
0
0
0
0
0
0
0
0
0
0
0
0
0
0
0
0
0
0
0
0
0
0
0
0
0
0
0
0
0
0
0
0
0
0
0
0
0
0
0
0
0
0
0
0
0
0
0
0
0
0
0
0
0
0
0
0
0
0
0
0
0
0
0
0
0
0
0
0
0
0
0
0
0
0
0
0
0
0
0
0
0
0
0
0
0
0
0
0
0
0
0
0
0
0
0
0
0
0
0
0
0
0
0
0
0
0
0
0
0
0
0
0
0
0
0
0
0
0
0
0
0
0
0
0
0
0
0
0
0
0
0
0
0
0
0
0
0
0
0
0
0
0
0
0
0
0
0
0
0
0
0
0
0
0
0
0
0
0
0
0
0
0
0
0
0
0
0
0
0
0
0
0
0
0
0
0
0
0
0
0
0
0
0
0
0
0
0
0
0
0
0
0
0
0
0
0
0
0
0
0
0
0
0
0
4.47675e-08
5.28971e-08
7.77216e-08
1.08078e-07
9.07787e-08
2.34476e-08
4.29481e-08
1.09065e-07
6.22852e-08
4.09684e-08
1.35795e-08
1.4976e-09
7.7308e-10
4.20797e-11
1.12227e-08
2.05626e-07
3.84505e-07
2.40183e-07
1.41479e-07
1.26089e-07
1.19153e-07
1.00534e-07
6.58727e-08
3.73442e-08
1.82799e-08
9.54504e-09
5.40699e-09
3.9528e-09
4.26514e-09
8.24713e-09
2.30854e-08
5.66786e-08
1.06802e-07
1.55078e-07
2.63347e-07
3.29549e-07
4.02843e-07
3.87892e-07
2.61745e-07
1.17517e-07
5.02329e-09
9.73917e-11
1.17062e-13
7.64583e-15
1.71941e-15
7.56552e-13
1.04381e-10
7.27453e-09
7.28697e-08
2.67167e-07
2.31203e-07
1.27317e-07
1.34111e-07
3.39395e-07
5.10302e-07
2.35237e-07
1.49068e-07
2.36011e-07
4.07755e-07
4.00473e-07
3.78686e-07
3.29028e-07
3.03506e-07
3.2735e-07
3.99958e-07
1.53185e-07
1.16188e-08
3.29255e-10
2.89375e-10
5.4363e-10
9.5947e-10
1.84876e-12
1.89862e-17
2.54817e-17
5.50406e-23
1.99116e-21
2.55378e-20
6.37552e-21
1.12295e-20
1.20953e-19
2.15231e-19
5.7633e-19
5.0818e-17
5.69607e-15
2.96795e-12
1.65688e-10
3.4615e-10
1.66274e-10
8.69065e-11
9.18049e-11
9.7805e-11
6.25726e-11
1.57591e-11
8.34363e-14
1.20793e-16
7.25839e-20
3.2257e-23
4.31556e-26
3.7637e-28
6.22979e-30
7.66426e-34
1.27932e-38
2.12008e-44
1.17396e-48
2.17464e-62
4.74115e-64
1.63756e-67
1.34429e-70
2.3249e-74
5.47562e-78
1.7006e-81
1.82538e-85
2.18137e-89
4.54579e-93
2.10461e-96
3.44852e-99
1.40388e-101
5.08636e-104
8.43703e-107
3.64854e-110
1.18904e-113
3.73374e-117
1.05372e-120
3.11366e-124
8.30517e-128
2.52311e-131
6.24796e-135
1.63035e-138
4.02254e-142
8.91164e-146
1.74001e-149
3.10364e-153
3.75332e-157
2.74383e-161
6.97982e-169
5.38386e-171
1.5497e-174
3.65732e-180
4.87837e-186
5.27582e-192
5.11061e-198
6.86381e-204
1.17578e-209
2.96561e-215
6.99899e-221
2.12007e-226
5.84158e-232
1.99816e-237
6.34847e-243
2.51436e-248
9.51116e-254
4.17855e-259
1.46926e-264
4.80872e-270
1.34051e-275
3.28241e-281
6.93457e-287
1.2679e-292
1.88587e-298
2.28739e-304
2.47679e-310
2.72476e-316
3.26083e-322
0
0
0
0
0
0
0
0
0
0
0
0
0
0
0
0
0
0
0
0
0
0
0
0
0
0
0
0
0
0
0
0
0
0
0
0
0
0
0
0
0
0
0
0
0
0
0
0
0
0
0
0
0
0
0
0
0
0
0
0
0
0
0
0
0
0
0
0
0
0
0
0
0
0
0
0
0
0
0
0
0
0
0
0
0
0
0
0
0
0
0
0
0
0
0
0
0
0
0
0
0
0
0
0
0
0
0
0
0
0
0
0
0
0
0
0
0
0
0
0
0
0
0
0
0
0
0
0
0
0
0
0
0
0
0
0
0
0
0
0
0
0
0
0
0
0
0
0
0
0
0
0
0
0
0
0
0
0
0
0
0
0
0
0
0
0
0
0
0
0
0
0
0
0
0
0
0
0
0
0
0
0
0
0
0
0
0
0
0
0
0
0
0
0
0
0
0
0
0
0
0
0
0
0
0
0
0
0
0
0
0
8.89008e-08
2.39319e-07
4.52479e-07
5.63746e-07
5.1057e-07
2.34778e-07
3.2333e-07
3.86229e-07
2.76682e-07
2.3322e-07
1.1465e-07
2.78274e-08
3.46338e-09
2.69316e-10
2.7129e-08
2.52213e-07
3.82353e-07
2.02543e-07
1.40795e-07
1.57146e-07
2.37943e-07
1.70562e-07
7.56786e-08
2.94632e-08
1.16896e-08
5.51921e-09
2.96186e-09
1.8692e-09
1.70078e-09
2.40489e-09
5.72537e-09
1.37687e-08
2.84066e-08
5.79781e-08
1.1845e-07
2.14415e-07
3.24949e-07
4.06066e-07
3.49572e-07
2.07144e-07
1.70225e-08
2.78974e-09
7.84893e-11
1.05138e-12
5.59758e-16
3.42609e-13
3.96853e-11
1.76409e-09
5.15195e-08
4.09718e-07
3.29438e-07
1.26004e-07
1.13507e-07
3.20857e-07
2.01434e-07
2.30874e-08
8.663e-09
6.9264e-09
1.41015e-08
5.28913e-08
2.06512e-07
3.96449e-07
3.4849e-07
3.16584e-07
3.35648e-07
4.14557e-07
2.48311e-08
1.77338e-09
6.45007e-11
2.37253e-10
1.25034e-09
7.7121e-09
5.66119e-13
9.0833e-15
3.72805e-19
3.22051e-18
1.51038e-17
3.12984e-18
3.49211e-18
3.29394e-17
7.10916e-17
8.51116e-16
2.57665e-14
1.38406e-12
5.49823e-11
3.64945e-10
1.8406e-10
6.53761e-11
1.6464e-11
2.40021e-11
4.04133e-11
5.89823e-11
1.25479e-11
4.31641e-12
2.24916e-14
3.46945e-17
1.88666e-20
9.32467e-24
9.18744e-27
6.29438e-29
1.0194e-30
5.29691e-34
1.04004e-38
5.07706e-44
2.10164e-58
1.49204e-60
8.45303e-64
1.26671e-67
2.94837e-72
7.56606e-77
6.86697e-80
6.03006e-82
1.12365e-85
1.49244e-89
2.50153e-93
1.06756e-96
1.5052e-99
4.02478e-102
1.14395e-104
2.07597e-107
2.56718e-110
1.84448e-113
9.88441e-117
4.25031e-120
1.63395e-123
5.92425e-127
1.95366e-130
6.30739e-134
1.96345e-137
5.0065e-141
1.2252e-144
2.24497e-148
2.93436e-152
2.02471e-156
6.38648e-165
1.90937e-167
8.35748e-171
3.9648e-174
8.70705e-180
9.94849e-186
9.11254e-192
8.97815e-198
1.29002e-203
2.43939e-209
5.64227e-215
1.34294e-220
3.62493e-226
1.00287e-231
3.14236e-237
1.02742e-242
3.74139e-248
1.5093e-253
6.8532e-259
3.01072e-264
1.1277e-269
3.50896e-275
9.07996e-281
1.87698e-286
2.93478e-292
3.44042e-298
3.48977e-304
3.44003e-310
3.61941e-316
4.00193e-322
0
0
0
0
0
0
0
0
0
0
0
0
0
0
0
0
0
0
0
0
0
0
0
0
0
0
0
0
0
0
0
0
0
0
0
0
0
0
0
0
0
0
0
0
0
0
0
0
0
0
0
0
0
0
0
0
0
0
0
0
0
0
0
0
0
0
0
0
0
0
0
0
0
0
0
0
0
0
0
0
0
0
0
0
0
0
0
0
0
0
0
0
0
0
0
0
0
0
0
0
0
0
0
0
0
0
0
0
0
0
0
0
0
0
0
0
0
0
0
0
0
0
0
0
0
0
0
0
0
0
0
0
0
0
0
0
0
0
0
0
0
0
0
0
0
0
0
0
0
0
0
0
0
0
0
0
0
0
0
0
0
0
0
0
0
0
0
0
0
0
0
0
0
0
0
0
0
0
0
0
0
0
0
0
0
0
0
0
0
0
0
0
0
0
0
0
0
0
0
0
0
0
0
0
0
0
0
0
0
0
4.08736e-07
6.99035e-07
6.90643e-07
5.94531e-07
5.28867e-07
5.15971e-07
4.03307e-07
3.46884e-07
3.63723e-07
3.51092e-07
2.60965e-07
1.14364e-07
1.69963e-08
7.16301e-10
2.62367e-07
2.21484e-07
3.42417e-07
4.38095e-07
3.35066e-07
3.19023e-07
4.74252e-07
5.22399e-07
3.15281e-07
7.9586e-08
2.72165e-08
1.07638e-08
4.58379e-09
1.99315e-09
1.02607e-09
1.01006e-09
1.53365e-09
3.30421e-09
8.12165e-09
1.91255e-08
5.36533e-08
1.34964e-07
3.59909e-07
3.52135e-07
2.64174e-07
1.64983e-07
3.34805e-08
8.16321e-09
4.27831e-10
2.16509e-11
5.54698e-15
9.9099e-14
8.98914e-12
4.73394e-10
2.46904e-08
5.56509e-08
4.07599e-07
1.59405e-07
1.03298e-07
2.25722e-07
2.45276e-07
1.35971e-08
2.5549e-09
1.05424e-09
1.06866e-09
3.27186e-09
2.02897e-08
1.62969e-07
4.10508e-07
3.65506e-07
3.45198e-07
4.01663e-07
1.78806e-07
3.91454e-09
3.32039e-10
1.29962e-10
3.07455e-10
4.21786e-09
2.61292e-09
5.87824e-12
4.22474e-15
5.86438e-15
6.27066e-15
1.6039e-15
1.05059e-15
2.97872e-15
1.26429e-14
2.3058e-13
3.6657e-12
5.68629e-11
3.73717e-10
3.30149e-10
1.23336e-10
1.56445e-11
1.09481e-11
1.12055e-11
1.65946e-11
2.04945e-11
1.2454e-11
3.68179e-12
1.38806e-12
3.87458e-15
3.12954e-18
1.34159e-21
5.19006e-25
5.33138e-28
2.829e-30
4.5559e-32
3.54183e-35
8.53508e-41
1.11018e-54
9.13052e-57
1.21239e-60
8.17136e-66
8.36773e-71
9.59495e-75
2.10188e-76
9.83333e-79
1.55234e-82
2.42582e-86
4.05311e-90
8.2585e-94
4.44011e-97
5.91479e-100
1.23885e-102
2.27049e-105
2.97711e-108
3.09981e-111
2.99606e-114
2.36884e-117
2.16535e-120
1.32665e-123
7.79965e-127
3.81162e-130
1.60371e-133
5.6533e-137
1.79217e-140
4.24792e-144
6.53217e-148
4.97714e-152
1.26561e-161
1.33243e-164
2.3088e-168
1.11979e-171
6.96647e-175
1.70332e-180
2.73782e-186
3.2748e-192
5.21595e-198
9.39883e-204
1.94841e-209
4.09174e-215
9.3718e-221
2.31411e-226
6.26518e-232
1.82885e-237
5.88678e-243
2.09654e-248
8.2192e-254
3.6268e-259
1.68548e-264
7.13878e-270
2.36223e-275
5.71909e-281
9.30811e-287
1.1468e-292
1.16567e-298
1.13335e-304
1.11665e-310
1.11449e-316
0
0
0
0
0
0
0
0
0
0
0
0
0
0
0
0
0
0
0
0
0
0
0
0
0
0
0
0
0
0
0
0
0
0
0
0
0
0
0
0
0
0
0
0
0
0
0
0
0
0
0
0
0
0
0
0
0
0
0
0
0
0
0
0
0
0
0
0
0
0
0
0
0
0
0
0
0
0
0
0
0
0
0
0
0
0
0
0
0
0
0
0
0
0
0
0
0
0
0
0
0
0
0
0
0
0
0
0
0
0
0
0
0
0
0
0
0
0
0
0
0
0
0
0
0
0
0
0
0
0
0
0
0
0
0
0
0
0
0
0
0
0
0
0
0
0
0
0
0
0
0
0
0
0
0
0
0
0
0
0
0
0
0
0
0
0
0
0
0
0
0
0
0
0
0
0
0
0
0
0
0
0
0
0
0
0
0
0
0
0
0
0
0
0
0
0
0
0
0
0
0
0
0
0
0
0
0
0
0
0
6.89032e-07
5.28691e-07
4.09212e-07
3.37406e-07
3.22172e-07
2.72967e-07
2.00809e-07
1.8723e-07
3.09796e-07
3.76557e-07
3.03209e-07
1.1632e-07
1.29792e-08
4.11611e-09
2.15585e-08
7.2418e-08
1.56125e-07
1.89316e-07
2.66839e-07
4.34784e-07
4.82478e-07
4.85857e-07
5.13991e-07
4.74325e-07
5.36661e-07
4.43073e-07
1.4767e-07
4.13572e-08
1.29556e-08
3.08233e-09
9.79054e-10
5.19981e-10
5.56351e-10
1.03883e-09
2.8937e-09
8.49683e-09
2.34665e-08
6.85805e-08
3.6833e-07
2.27622e-07
1.25985e-07
1.02577e-07
6.31074e-08
4.28433e-08
1.2531e-09
1.08506e-10
3.41762e-11
3.19238e-12
2.07111e-12
1.28443e-11
2.19518e-11
1.53524e-10
6.03802e-09
2.12823e-08
3.74124e-07
2.30407e-07
1.10522e-07
1.65862e-07
4.10805e-07
3.68308e-08
4.23753e-09
8.81984e-10
3.87507e-10
5.14061e-10
2.60811e-09
2.90586e-08
2.44641e-07
4.15876e-07
4.05979e-07
4.08305e-07
3.91364e-07
2.0278e-08
1.16677e-09
1.33299e-10
1.47817e-10
1.70387e-09
6.10521e-08
2.94877e-09
6.0591e-11
6.8476e-12
2.32314e-12
1.80742e-12
2.14617e-12
1.92609e-12
1.12271e-12
9.41218e-13
1.60578e-12
1.65942e-11
2.78676e-10
7.75631e-10
3.42424e-10
1.57165e-10
4.24956e-11
1.93059e-11
1.11724e-11
1.13885e-11
1.62761e-11
1.82043e-11
1.67005e-11
3.84287e-12
2.23779e-12
7.25385e-14
4.35092e-17
2.85069e-20
1.78379e-23
1.17174e-26
1.27591e-29
6.57091e-32
1.24763e-33
5.13573e-38
1.72556e-43
4.69666e-48
4.13691e-52
3.34514e-56
1.18748e-59
2.51458e-63
1.31041e-66
6.66479e-70
1.7122e-72
4.19997e-76
7.97852e-80
1.59339e-83
3.35687e-87
8.39137e-91
2.6775e-94
1.8264e-97
2.07946e-100
2.8493e-103
3.62728e-106
3.77235e-109
3.4603e-112
2.73529e-115
2.28631e-118
1.58469e-121
1.19965e-124
7.71931e-128
5.64481e-131
3.46034e-134
2.7064e-137
1.62146e-140
6.68081e-144
1.1106e-147
3.30469e-151
1.43312e-154
5.51105e-158
5.16638e-162
7.13774e-166
2.33655e-169
1.83643e-172
7.91723e-176
8.86891e-182
1.20419e-187
1.95774e-193
3.60106e-199
6.26714e-205
1.33291e-210
2.56346e-216
5.53467e-222
1.26925e-227
3.35057e-233
9.45029e-239
2.95109e-244
1.01582e-249
3.84974e-255
1.64117e-260
7.57737e-266
3.19137e-271
9.59886e-277
1.97536e-282
2.90127e-288
3.39398e-294
3.94541e-300
3.89923e-306
3.62293e-312
2.20435e-318
0
0
0
0
0
0
0
0
0
0
0
0
0
0
0
0
0
0
0
0
0
0
0
0
0
0
0
0
0
0
0
0
0
0
0
0
0
0
0
0
0
0
0
0
0
0
0
0
0
0
0
0
0
0
0
0
0
0
0
0
0
0
0
0
0
0
0
0
0
0
0
0
0
0
0
0
0
0
0
0
0
0
0
0
0
0
0
0
0
0
0
0
0
0
0
0
0
0
0
0
0
0
0
0
0
0
0
0
0
0
0
0
0
0
0
0
0
0
0
0
0
0
0
0
0
0
0
0
0
0
0
0
0
0
0
0
0
0
0
0
0
0
0
0
0
0
0
0
0
0
0
0
0
0
0
0
0
0
0
0
0
0
0
0
0
0
0
0
0
0
0
0
0
0
0
0
0
0
0
0
0
0
0
0
0
0
0
0
0
0
0
0
0
0
0
0
0
0
0
0
0
0
0
0
0
0
0
0
0
0
0
0
0
0
0
0
0
0
0
0
0
0
0
0
0
2.93797e-07
2.21969e-07
1.81073e-07
1.68335e-07
1.47311e-07
8.64608e-08
4.26561e-08
2.56923e-08
5.43574e-08
1.94337e-07
3.40152e-07
1.63872e-07
4.03229e-08
1.13096e-08
7.63077e-09
1.88771e-08
6.9119e-08
1.68757e-07
3.71568e-07
4.57029e-07
4.83781e-07
4.92971e-07
4.48078e-07
4.44989e-07
4.74265e-07
5.4732e-07
4.99054e-07
2.08658e-07
3.1822e-08
4.28206e-09
8.80033e-10
3.72517e-10
3.27784e-10
4.91793e-10
1.03474e-09
2.74082e-09
6.84959e-09
2.02598e-08
1.7745e-07
1.89394e-07
6.24959e-08
5.29237e-08
6.74937e-08
4.62811e-08
3.44886e-09
2.13172e-09
1.65318e-09
1.30901e-09
1.74838e-09
2.88547e-09
2.8909e-09
2.64597e-09
4.66527e-09
2.48091e-08
2.72576e-07
4.0556e-07
2.56684e-07
1.72543e-07
2.13065e-07
4.04703e-07
3.40601e-08
3.50367e-09
5.53886e-10
3.07387e-10
5.76763e-10
4.37401e-09
4.73747e-08
2.65638e-07
3.91786e-07
4.23596e-07
4.08651e-07
1.33636e-07
5.83783e-09
4.21134e-10
9.33511e-11
2.55028e-10
4.78613e-09
8.77024e-08
2.20295e-08
1.08838e-08
4.45006e-09
7.02604e-10
1.43265e-10
9.84858e-11
7.14135e-11
5.05014e-11
3.86836e-11
6.9271e-10
2.34443e-09
4.2013e-10
1.23517e-10
6.19269e-11
2.75445e-11
1.73264e-11
1.14444e-11
1.55191e-11
1.83165e-11
2.08242e-11
2.05018e-11
1.08296e-11
2.18798e-12
7.35075e-13
1.22904e-15
7.30043e-19
3.2717e-22
1.32325e-25
6.58654e-29
5.51442e-32
2.06089e-34
2.67757e-36
2.43179e-39
2.51523e-43
1.84749e-47
2.51849e-51
7.55242e-55
2.06558e-58
5.82902e-62
4.79926e-66
6.45669e-70
1.12991e-73
2.59738e-77
6.12748e-81
1.78704e-84
6.2104e-88
2.06724e-91
9.63733e-95
5.57084e-98
5.09884e-101
4.88677e-104
4.50605e-107
3.90554e-110
3.14836e-113
2.35319e-116
1.74142e-119
1.24376e-122
8.28821e-126
5.97552e-129
3.50606e-132
2.66555e-135
1.67315e-138
1.1482e-141
1.02953e-144
7.34328e-148
1.32201e-151
2.06931e-155
2.4114e-159
3.76977e-163
1.27449e-166
7.09979e-170
4.05026e-173
6.13629e-177
6.23192e-183
1.08564e-188
1.85542e-194
2.83518e-200
4.08767e-206
5.81138e-212
8.90708e-218
1.5021e-223
3.22958e-229
7.52997e-235
2.00223e-240
5.78875e-246
1.90753e-251
6.81602e-257
2.77616e-262
1.07338e-267
3.43756e-273
8.34424e-279
1.47454e-284
1.98361e-290
2.19783e-296
2.19758e-302
2.08342e-308
1.72104e-314
1.48417e-320
0
0
0
0
0
0
0
0
0
0
0
0
0
0
0
0
0
0
0
0
0
0
0
0
0
0
0
0
0
0
0
0
0
0
0
0
0
0
0
0
0
0
0
0
0
0
0
0
0
0
0
0
0
0
0
0
0
0
0
0
0
0
0
0
0
0
0
0
0
0
0
0
0
0
0
0
0
0
0
0
0
0
0
0
0
0
0
0
0
0
0
0
0
0
0
0
0
0
0
0
0
0
0
0
0
0
0
0
0
0
0
0
0
0
0
0
0
0
0
0
0
0
0
0
0
0
0
0
0
0
0
0
0
0
0
0
0
0
0
0
0
0
0
0
0
0
0
0
0
0
0
0
0
0
0
0
0
0
0
0
0
0
0
0
0
0
0
0
0
0
0
0
0
0
0
0
0
0
0
0
0
0
0
0
0
0
0
0
0
0
0
0
0
0
0
0
0
0
0
0
0
0
0
0
0
0
0
0
0
0
0
0
0
0
0
0
0
0
0
0
0
0
0
0
5.84041e-08
4.82623e-08
4.57874e-08
4.75991e-08
5.09265e-08
2.85634e-08
9.51262e-09
3.29032e-09
2.91269e-09
5.86672e-09
6.44426e-08
3.46908e-07
1.95947e-07
5.01729e-08
1.16143e-08
1.9148e-08
9.89562e-08
3.99723e-07
4.19963e-07
4.75198e-07
4.53895e-07
4.52385e-07
4.93465e-07
4.9903e-07
5.00009e-07
5.26591e-07
5.37297e-07
3.14435e-07
3.03838e-08
3.22601e-09
5.81845e-10
2.54794e-10
2.22716e-10
2.48668e-10
4.25567e-10
7.76901e-10
1.31668e-09
3.83905e-09
2.44731e-08
3.06782e-07
5.03204e-08
3.09409e-08
3.33648e-08
3.70813e-08
4.06506e-08
4.78668e-08
6.91087e-08
9.33254e-08
1.38873e-07
4.25025e-07
2.82182e-08
1.12585e-08
7.64542e-09
9.28009e-09
1.5334e-08
2.59741e-08
6.12384e-08
2.86383e-07
3.63326e-07
3.20565e-07
4.01365e-07
1.86831e-08
1.70351e-09
3.49504e-10
2.40049e-10
6.51282e-10
5.36954e-09
3.7407e-08
1.38203e-07
2.31619e-07
3.08874e-07
2.11507e-07
3.96104e-08
2.70205e-09
2.54308e-10
8.85717e-11
2.98872e-10
2.67969e-09
2.57759e-08
1.97426e-07
1.65144e-07
5.7872e-08
1.74856e-08
7.61961e-09
5.94785e-09
5.81089e-09
2.40398e-09
7.3933e-10
8.28513e-10
1.48804e-10
2.85863e-11
2.09416e-11
1.58502e-11
1.1403e-11
1.15738e-11
1.61919e-11
1.85919e-11
2.13464e-11
2.25912e-11
2.31605e-11
6.6746e-12
1.76759e-12
3.09442e-14
7.7848e-18
2.87875e-21
1.37427e-24
6.71989e-28
3.26215e-31
1.98142e-34
2.64539e-37
2.4018e-40
1.72362e-43
6.51131e-47
1.45264e-50
2.36082e-54
2.90942e-58
3.26671e-62
3.72057e-66
6.30887e-70
1.40587e-73
4.02116e-77
1.25138e-80
4.09012e-84
1.72442e-87
7.24528e-91
2.99977e-94
1.58747e-97
9.92006e-101
6.95708e-104
5.65892e-107
4.40931e-110
3.35705e-113
2.52939e-116
1.69736e-119
1.23816e-122
8.23499e-126
5.65656e-129
3.87181e-132
2.67996e-135
1.65535e-138
1.11739e-141
7.93284e-145
4.87051e-148
1.76363e-151
4.65125e-155
9.53796e-159
2.13852e-162
7.30511e-166
3.15108e-169
1.4537e-172
7.32004e-176
1.4315e-181
2.47726e-187
3.79073e-193
5.33405e-199
7.00864e-205
8.89406e-211
1.24831e-216
1.69202e-222
2.55333e-228
4.47263e-234
9.55771e-240
2.4161e-245
7.20782e-251
2.41221e-256
9.13948e-262
3.53583e-267
1.21887e-272
3.37135e-278
7.75472e-284
1.42351e-289
2.07146e-295
2.55777e-301
2.92513e-307
2.97255e-313
3.05733e-319
0
0
0
0
0
0
0
0
0
0
0
0
0
0
0
0
0
0
0
0
0
0
0
0
0
0
0
0
0
0
0
0
0
0
0
0
0
0
0
0
0
0
0
0
0
0
0
0
0
0
0
0
0
0
0
0
0
0
0
0
0
0
0
0
0
0
0
0
0
0
0
0
0
0
0
0
0
0
0
0
0
0
0
0
0
0
0
0
0
0
0
0
0
0
0
0
0
0
0
0
0
0
0
0
0
0
0
0
0
0
0
0
0
0
0
0
0
0
0
0
0
0
0
0
0
0
0
0
0
0
0
0
0
0
0
0
0
0
0
0
0
0
0
0
0
0
0
0
0
0
0
0
0
0
0
0
0
0
0
0
0
0
0
0
0
0
0
0
0
0
0
0
0
0
0
0
0
0
0
0
0
0
0
0
0
0
0
0
0
0
0
0
0
0
0
0
0
0
0
0
0
0
0
0
0
0
0
0
0
0
0
0
0
0
0
0
0
0
0
0
0
0
0
0
4.81997e-09
6.6108e-09
8.00093e-09
8.1693e-09
8.55586e-09
4.74199e-09
1.4804e-09
4.16966e-10
2.87137e-10
3.26572e-10
1.18272e-09
2.90638e-09
3.95112e-08
3.53106e-07
1.52469e-07
2.81822e-07
2.81191e-07
6.69482e-08
3.29983e-07
4.41252e-07
4.34674e-07
4.58314e-07
1.06808e-07
3.02328e-08
5.47437e-08
1.40151e-07
2.40721e-07
6.99071e-08
8.73697e-09
1.25041e-09
3.36858e-10
2.12958e-10
1.72224e-10
1.62592e-10
1.73377e-10
2.18048e-10
3.33088e-10
9.46218e-10
6.67229e-09
3.00944e-07
1.04603e-07
2.98933e-08
2.24032e-08
2.77533e-08
3.5816e-08
5.41749e-08
8.56475e-08
1.62062e-07
3.3991e-07
3.23507e-07
3.91701e-07
2.96542e-07
2.53637e-07
4.43033e-08
2.18513e-08
2.31801e-08
4.44324e-08
3.58084e-07
3.67782e-07
4.20163e-07
3.85639e-08
4.19429e-09
7.26182e-10
2.87668e-10
1.88906e-10
2.22908e-10
7.33011e-10
5.05737e-09
2.23615e-08
3.44385e-08
6.3365e-08
1.07745e-07
6.29761e-08
1.79415e-08
2.19972e-09
2.55574e-10
1.07957e-10
2.23242e-10
1.13864e-09
3.50331e-09
4.30702e-09
4.36393e-09
2.65629e-09
1.88105e-09
2.24428e-09
4.23546e-09
1.15014e-09
1.54316e-10
1.24268e-09
4.48338e-11
2.03563e-11
1.59034e-11
1.52006e-11
1.51806e-11
1.59111e-11
1.695e-11
1.87046e-11
2.09232e-11
2.28922e-11
2.43456e-11
2.36671e-11
4.08777e-12
7.5576e-13
6.61005e-16
2.02526e-19
5.90477e-23
1.72483e-26
4.13731e-30
8.62442e-34
1.60753e-37
3.67667e-41
1.00592e-44
1.77155e-48
4.00003e-52
5.56865e-56
1.02583e-59
1.16445e-63
2.22472e-67
3.38388e-71
1.03606e-74
3.055e-78
1.59962e-81
8.4638e-85
4.78448e-88
2.26798e-91
1.38268e-94
7.89964e-98
4.90511e-101
3.15781e-104
2.31056e-107
1.57693e-110
1.08875e-113
7.1103e-117
5.15703e-120
3.4947e-123
2.21407e-126
1.38332e-129
9.826e-133
5.87428e-136
3.626e-139
1.92523e-142
1.12824e-145
5.41268e-149
2.4889e-152
9.17071e-156
2.5205e-159
8.14828e-163
2.6931e-166
1.18079e-169
5.10887e-173
2.11211e-176
4.11294e-182
7.26507e-188
1.1429e-193
1.66383e-199
2.24197e-205
3.39263e-211
4.4443e-217
6.1191e-223
9.01835e-229
1.55965e-234
3.17444e-240
7.7376e-246
2.17233e-251
6.88585e-257
2.43053e-262
8.75434e-268
2.77805e-273
7.28142e-279
1.6179e-284
3.13644e-290
5.46337e-296
8.384e-302
1.16321e-307
1.46206e-313
1.80621e-319
0
0
0
0
0
0
0
0
0
0
0
0
0
0
0
0
0
0
0
0
0
0
0
0
0
0
0
0
0
0
0
0
0
0
0
0
0
0
0
0
0
0
0
0
0
0
0
0
0
0
0
0