/*--------------------------------*- C++ -*----------------------------------*\
| =========                 |                                                 |
| \\      /  F ield         | OpenFOAM: The Open Source CFD Toolbox           |
|  \\    /   O peration     | Version:  2.1.1                                 |
|   \\  /    A nd           | Web:      www.OpenFOAM.org                      |
|    \\/     M anipulation  |                                                 |
\*---------------------------------------------------------------------------*/
FoamFile
{
    version     2.0;
    format      ascii;
    class       volScalarField;
    location    "0.002250000";
    object      N2;
}
// * * * * * * * * * * * * * * * * * * * * * * * * * * * * * * * * * * * * * //

dimensions      [0 0 0 0 0 0 0];

internalField   nonuniform List<scalar> 
12384
(
0.747179
0.746788
0.746698
0.746893
0.746781
0.746796
0.746597
0.747739
0.748889
0.748627
0.747304
0.74603
0.744812
0.744764
0.750207
0.751928
0.752543
0.752477
0.752331
0.752301
0.752346
0.752328
0.75233
0.752355
0.75239
0.752496
0.752604
0.752725
0.752828
0.752916
0.753039
0.753102
0.753187
0.753331
0.753311
0.753395
0.753272
0.752804
0.75082
0.748437
0.746034
0.744743
0.744533
0.744635
0.748486
0.750663
0.749271
0.747829
0.748514
0.748731
0.74835
0.747972
0.74764
0.747336
0.747035
0.746825
0.74668
0.746563
0.746439
0.746457
0.747248
0.747397
0.747944
0.749524
0.751324
0.752866
0.753594
0.753284
0.751701
0.749269
0.746792
0.745126
0.744584
0.74466
0.746454
0.747941
0.750017
0.751503
0.752296
0.752524
0.752446
0.752213
0.751861
0.75157
0.750197
0.750581
0.749562
0.750257
0.750275
0.751203
0.752179
0.753118
0.753763
0.753773
0.752955
0.751775
0.750382
0.74876
0.746839
0.745488
0.744788
0.74467
0.744694
0.744732
0.746258
0.747339
0.747932
0.748492
0.749205
0.749683
0.750006
0.750042
0.749827
0.749371
0.748763
0.74801
0.747324
0.746747
0.746174
0.745782
0.74541
0.745122
0.744986
0.744792
0.7448
0.744762
0.744771
0.744762
0.744765
0.744755
0.744761
0.744756
0.74476
0.74475
0.744862
0.744907
0.744913
0.744854
0.744835
0.744792
0.744787
0.744763
0.744784
0.744763
0.744784
0.74477
0.744781
0.74478
0.744781
0.744785
0.744778
0.744786
0.744775
0.744783
0.744777
0.744778
0.744778
0.744777
0.744776
0.744777
0.744775
0.744777
0.744775
0.74475
0.74475
0.744779
0.74478
0.74478
0.744781
0.744781
0.744782
0.744784
0.744785
0.744787
0.744787
0.744789
0.744791
0.744793
0.744794
0.744795
0.744795
0.744793
0.744791
0.74479
0.744789
0.744788
0.744787
0.744787
0.744786
0.744786
0.744785
0.744784
0.744783
0.74475
0.74475
0.744783
0.744785
0.744786
0.744787
0.744788
0.744789
0.74479
0.744791
0.744792
0.744793
0.744794
0.744796
0.744797
0.744799
0.744799
0.744797
0.744796
0.744794
0.744793
0.744792
0.744791
0.74479
0.744789
0.744788
0.744787
0.744786
0.744785
0.744783
0.74475
0.74475
0.744783
0.744785
0.744786
0.744787
0.744787
0.744788
0.744789
0.74479
0.744791
0.744792
0.744793
0.744795
0.744797
0.744799
0.744799
0.744797
0.744796
0.744794
0.744793
0.744792
0.744791
0.74479
0.744789
0.744788
0.744787
0.744786
0.744785
0.744783
0.74475
0.74475
0.744783
0.744785
0.744786
0.744787
0.744788
0.744789
0.74479
0.744791
0.744792
0.744793
0.744794
0.744795
0.744797
0.744798
0.744799
0.744798
0.744796
0.744793
0.744792
0.744791
0.74479
0.744789
0.744788
0.744787
0.744786
0.744785
0.744784
0.744783
0.74475
0.74475
0.744783
0.744785
0.744786
0.744787
0.744788
0.744789
0.74479
0.74479
0.744791
0.744792
0.744794
0.744795
0.744797
0.744799
0.744799
0.744798
0.744796
0.744794
0.744793
0.744792
0.74479
0.74479
0.744788
0.744787
0.744787
0.744786
0.744785
0.744783
0.74475
0.74475
0.744783
0.744785
0.744786
0.744786
0.744787
0.744788
0.744789
0.74479
0.744792
0.744793
0.744794
0.744796
0.744797
0.744799
0.744799
0.744797
0.744796
0.744794
0.744793
0.744792
0.74479
0.74479
0.744789
0.744788
0.744787
0.744786
0.744785
0.744783
0.74475
0.74475
0.744783
0.744785
0.744786
0.744787
0.744788
0.744789
0.74479
0.74479
0.744791
0.744792
0.744793
0.744795
0.744797
0.744798
0.744799
0.744798
0.744796
0.744794
0.744793
0.744792
0.74479
0.744789
0.744788
0.744787
0.744787
0.744786
0.744785
0.744783
0.74475
0.747529
0.747904
0.748858
0.74956
0.749852
0.749769
0.750155
0.75138
0.752491
0.753177
0.751405
0.749948
0.747658
0.745866
0.752681
0.754304
0.753385
0.75281
0.752626
0.752667
0.752566
0.752239
0.752299
0.752329
0.752398
0.75248
0.752691
0.752869
0.753057
0.753203
0.753468
0.753735
0.753997
0.754411
0.754807
0.755486
0.755957
0.756439
0.756183
0.755029
0.751881
0.747713
0.744731
0.744517
0.749681
0.750524
0.748919
0.748641
0.750594
0.750725
0.749632
0.74937
0.74894
0.748532
0.747654
0.747151
0.747001
0.74662
0.746002
0.745001
0.744176
0.742094
0.739831
0.739346
0.741308
0.745795
0.751049
0.756034
0.757079
0.756137
0.752792
0.748638
0.745307
0.744577
0.748533
0.751714
0.753636
0.754144
0.753248
0.751395
0.748765
0.745586
0.74347
0.742357
0.742167
0.741134
0.741325
0.740452
0.73993
0.739719
0.740341
0.742903
0.747186
0.752549
0.75661
0.75835
0.758466
0.758265
0.756668
0.754028
0.750175
0.746362
0.744867
0.744694
0.754581
0.756476
0.75708
0.757436
0.757619
0.757533
0.757762
0.757807
0.757997
0.758001
0.758042
0.757738
0.757375
0.756612
0.756012
0.755063
0.754157
0.753206
0.752137
0.751034
0.750054
0.748924
0.748001
0.747184
0.746546
0.746079
0.745793
0.74561
0.745593
0.745146
0.751519
0.751826
0.751577
0.751381
0.750955
0.750398
0.750049
0.749362
0.749115
0.748451
0.748303
0.747776
0.747712
0.747314
0.747352
0.747
0.747069
0.746716
0.7468
0.746489
0.74661
0.746345
0.746457
0.746253
0.746316
0.746189
0.746199
0.74615
0.746128
0.74536
0.745647
0.74644
0.746459
0.746474
0.746443
0.746436
0.746437
0.746433
0.746444
0.746446
0.746464
0.746468
0.7465
0.74652
0.746544
0.746546
0.746535
0.746498
0.746465
0.746435
0.746418
0.746392
0.746387
0.746366
0.746364
0.746344
0.746348
0.746333
0.746306
0.745369
0.74537
0.746314
0.74636
0.746366
0.746393
0.746396
0.746428
0.746431
0.74646
0.746464
0.746494
0.7465
0.746541
0.746563
0.746593
0.746584
0.746574
0.746532
0.746513
0.746482
0.746476
0.746445
0.746441
0.74641
0.746404
0.746375
0.74637
0.74635
0.746302
0.7454
0.745398
0.746295
0.746351
0.746355
0.746383
0.746386
0.746416
0.74642
0.746449
0.746454
0.746484
0.746494
0.746537
0.746562
0.746592
0.746583
0.746574
0.746532
0.746514
0.746482
0.746476
0.746445
0.74644
0.746409
0.746403
0.746375
0.746369
0.746349
0.746302
0.745401
0.745401
0.746303
0.746349
0.746375
0.746379
0.746408
0.746413
0.746443
0.746445
0.746474
0.746479
0.746508
0.746524
0.746566
0.746577
0.746593
0.746569
0.746544
0.746497
0.746474
0.746459
0.746428
0.746422
0.746392
0.74639
0.746362
0.746362
0.746338
0.746308
0.745369
0.745403
0.746298
0.746354
0.746358
0.746386
0.746389
0.746419
0.746423
0.746452
0.746456
0.746486
0.746495
0.746536
0.74656
0.746591
0.746584
0.746576
0.746535
0.746515
0.746483
0.746476
0.746444
0.746439
0.746408
0.746402
0.746373
0.746368
0.74635
0.746301
0.7454
0.745366
0.74631
0.746352
0.746357
0.746383
0.746387
0.74642
0.746425
0.746456
0.746463
0.746495
0.746502
0.746543
0.746563
0.74659
0.74659
0.746565
0.746542
0.746501
0.746492
0.746461
0.746456
0.746426
0.746421
0.746391
0.746388
0.74636
0.746355
0.746311
0.745367
0.745399
0.7463
0.746358
0.746363
0.746392
0.746395
0.746427
0.746428
0.746458
0.746459
0.74649
0.746495
0.746534
0.746555
0.746589
0.746585
0.746577
0.746536
0.746515
0.746485
0.746478
0.746446
0.746441
0.746409
0.746404
0.746374
0.746368
0.746349
0.746301
0.745399
0.748226
0.750906
0.753017
0.754852
0.75483
0.753937
0.753825
0.75555
0.756943
0.757091
0.756115
0.755217
0.753015
0.749383
0.755311
0.754655
0.754585
0.75328
0.753236
0.753108
0.751255
0.750652
0.750431
0.750621
0.751064
0.751469
0.751628
0.751809
0.752088
0.75199
0.752129
0.753314
0.75388
0.754098
0.754454
0.754945
0.755539
0.756421
0.757828
0.758292
0.756958
0.753486
0.747534
0.744714
0.750481
0.750138
0.748747
0.749621
0.752321
0.753032
0.75196
0.751781
0.751824
0.751352
0.750538
0.750089
0.74975
0.749187
0.748561
0.74741
0.745114
0.74282
0.740116
0.739137
0.736321
0.734399
0.737398
0.745085
0.754291
0.758622
0.758472
0.754407
0.747972
0.744707
0.752927
0.755924
0.754708
0.752568
0.748881
0.744636
0.74216
0.741563
0.74264
0.745005
0.74708
0.747666
0.74616
0.74416
0.740869
0.737695
0.734752
0.732516
0.73143
0.73322
0.741128
0.75047
0.756271
0.759069
0.760203
0.760216
0.759291
0.755456
0.750254
0.747099
0.760022
0.759276
0.758305
0.756235
0.754203
0.751969
0.751912
0.752608
0.754544
0.756646
0.758021
0.759005
0.759524
0.759939
0.760147
0.760239
0.760374
0.760346
0.760371
0.760377
0.760336
0.760383
0.760269
0.760189
0.759758
0.759315
0.758407
0.757747
0.756917
0.756785
0.760874
0.760618
0.760296
0.760468
0.760266
0.760468
0.760237
0.760443
0.760199
0.760391
0.760182
0.760312
0.760168
0.7602
0.760137
0.760139
0.760139
0.760145
0.760168
0.760171
0.760172
0.760177
0.760182
0.760157
0.760194
0.760129
0.760192
0.760099
0.760165
0.76078
0.760938
0.76023
0.760183
0.760173
0.760163
0.760149
0.760124
0.760111
0.760086
0.760076
0.760048
0.76004
0.760003
0.759984
0.759955
0.759954
0.759956
0.759987
0.76001
0.760032
0.760044
0.760062
0.760067
0.760078
0.760083
0.760092
0.760094
0.760104
0.760137
0.760924
0.760922
0.760128
0.760092
0.760075
0.760064
0.760053
0.760039
0.760028
0.760016
0.760004
0.759991
0.759976
0.759951
0.759924
0.759908
0.759906
0.759923
0.759949
0.759975
0.75999
0.760004
0.760018
0.760031
0.760043
0.760056
0.760068
0.76008
0.760092
0.760127
0.760923
0.760923
0.760135
0.760096
0.760081
0.760071
0.76006
0.760048
0.760036
0.760025
0.760011
0.759997
0.75998
0.759953
0.759924
0.759908
0.759907
0.759924
0.759949
0.759974
0.75999
0.760004
0.760018
0.760031
0.760043
0.760057
0.760068
0.760081
0.760092
0.760127
0.760924
0.760924
0.760129
0.76009
0.760074
0.760063
0.760052
0.76004
0.760029
0.760017
0.760006
0.759993
0.759979
0.759956
0.75993
0.759912
0.759906
0.759917
0.759946
0.759979
0.760001
0.760011
0.760029
0.760043
0.760055
0.760066
0.760077
0.760085
0.760098
0.760136
0.760924
0.760923
0.760131
0.760093
0.760079
0.760069
0.760058
0.760046
0.760034
0.760022
0.76001
0.759996
0.759979
0.759955
0.759926
0.759909
0.759906
0.759922
0.759947
0.759973
0.759989
0.760004
0.760018
0.760031
0.760044
0.760058
0.76007
0.760082
0.760093
0.760128
0.760924
0.760923
0.760129
0.760092
0.760084
0.760071
0.760059
0.760044
0.760031
0.760018
0.760004
0.75999
0.759974
0.75995
0.759924
0.759906
0.759907
0.759923
0.75995
0.759975
0.759991
0.760005
0.760018
0.760031
0.760043
0.760057
0.760068
0.76008
0.760092
0.760127
0.760923
0.760923
0.760129
0.76009
0.760075
0.760065
0.760054
0.760042
0.760031
0.76002
0.760009
0.759996
0.75998
0.759958
0.75993
0.759911
0.759905
0.75992
0.759945
0.759972
0.759987
0.760002
0.760017
0.76003
0.760043
0.760057
0.760069
0.760082
0.760092
0.760127
0.760923
0.750051
0.754057
0.756502
0.757758
0.757909
0.757275
0.758741
0.760563
0.760828
0.75977
0.75887
0.758425
0.757014
0.75414
0.756376
0.755613
0.752012
0.750081
0.75047
0.748331
0.746898
0.746061
0.745956
0.746488
0.746884
0.746482
0.745522
0.744521
0.743697
0.744119
0.746371
0.749218
0.750509
0.750224
0.749846
0.750571
0.751864
0.753641
0.756942
0.758443
0.758903
0.757734
0.752071
0.745835
0.750892
0.749645
0.748213
0.749377
0.75038
0.751467
0.751818
0.752213
0.752452
0.752409
0.75205
0.751716
0.751505
0.7513
0.750746
0.749558
0.748702
0.74833
0.747549
0.744158
0.737217
0.73152
0.72982
0.733078
0.742617
0.752499
0.758821
0.757983
0.752335
0.745655
0.756101
0.756622
0.752997
0.747629
0.742925
0.741426
0.743606
0.747227
0.75145
0.754407
0.752794
0.752637
0.748579
0.746372
0.743658
0.740991
0.738062
0.734757
0.73114
0.72745
0.726097
0.731018
0.742265
0.751166
0.756193
0.758685
0.760067
0.759953
0.757135
0.752854
0.758674
0.754936
0.750006
0.744729
0.741694
0.739956
0.738877
0.738014
0.739424
0.743738
0.748681
0.7524
0.754815
0.75628
0.757249
0.758021
0.758614
0.759008
0.759462
0.759619
0.759953
0.760023
0.760227
0.760268
0.760372
0.760405
0.760434
0.760424
0.760419
0.760534
0.759356
0.759238
0.759575
0.759524
0.759813
0.759771
0.760018
0.759978
0.760174
0.760113
0.760265
0.760203
0.760318
0.760263
0.760348
0.76031
0.760366
0.760345
0.760377
0.760371
0.760386
0.760384
0.760398
0.760391
0.76041
0.760396
0.760418
0.760402
0.760428
0.760541
0.760497
0.760388
0.760384
0.760384
0.760388
0.760387
0.760391
0.760389
0.760393
0.760389
0.760393
0.760388
0.760392
0.760386
0.76039
0.760385
0.76039
0.760386
0.760392
0.760388
0.760393
0.76039
0.760393
0.76039
0.760393
0.76039
0.760393
0.76039
0.760401
0.760538
0.760538
0.7604
0.760392
0.760389
0.76039
0.760388
0.760389
0.760386
0.760388
0.760385
0.760387
0.760384
0.760385
0.760381
0.760382
0.76038
0.760383
0.760383
0.760386
0.760385
0.760387
0.760386
0.760388
0.760387
0.76039
0.760388
0.760391
0.760391
0.760401
0.760535
0.760535
0.760401
0.760392
0.760389
0.760391
0.760388
0.760389
0.760387
0.760388
0.760386
0.760387
0.760384
0.760385
0.760381
0.760382
0.76038
0.760383
0.760383
0.760386
0.760385
0.760387
0.760386
0.760388
0.760387
0.76039
0.760389
0.760391
0.760391
0.760401
0.760535
0.760535
0.760401
0.76039
0.760391
0.760388
0.76039
0.760387
0.760389
0.760386
0.760387
0.760385
0.760386
0.760383
0.760383
0.760381
0.760382
0.760381
0.760384
0.760384
0.760387
0.760388
0.760386
0.760389
0.760388
0.76039
0.760389
0.760391
0.76039
0.760401
0.760538
0.760535
0.760401
0.760392
0.760389
0.76039
0.760388
0.760389
0.760387
0.760388
0.760385
0.760387
0.760384
0.760385
0.760381
0.760382
0.76038
0.760383
0.760382
0.760386
0.760385
0.760387
0.760386
0.760389
0.760387
0.76039
0.760389
0.760391
0.760391
0.760401
0.760535
0.760538
0.760401
0.760391
0.760389
0.760391
0.760388
0.760389
0.760386
0.760388
0.760385
0.760387
0.760384
0.760385
0.760381
0.760382
0.760382
0.760381
0.760385
0.760384
0.760387
0.760385
0.760388
0.760386
0.760389
0.760388
0.76039
0.760389
0.760392
0.760401
0.760538
0.760535
0.760401
0.760392
0.760389
0.76039
0.760388
0.760389
0.760386
0.760388
0.760385
0.760387
0.760384
0.760385
0.760381
0.760382
0.76038
0.760383
0.760382
0.760385
0.760384
0.760387
0.760386
0.760388
0.760387
0.76039
0.760388
0.760391
0.760391
0.760401
0.760535
0.753031
0.755871
0.75727
0.757715
0.757846
0.758154
0.758553
0.758331
0.758976
0.760269
0.761164
0.760032
0.758987
0.757961
0.756033
0.753451
0.748887
0.746606
0.745303
0.743215
0.742257
0.741594
0.741467
0.741339
0.740249
0.738199
0.736211
0.734763
0.734557
0.736764
0.740547
0.743692
0.744882
0.744847
0.745538
0.746632
0.748337
0.750422
0.753609
0.756265
0.758173
0.758695
0.755675
0.748124
0.751231
0.749192
0.74712
0.748174
0.749519
0.751038
0.751983
0.752956
0.75316
0.752207
0.750814
0.750034
0.750045
0.750477
0.75071
0.75045
0.750317
0.75025
0.749998
0.748071
0.744046
0.73995
0.728249
0.725375
0.732725
0.742696
0.753053
0.758852
0.755729
0.747486
0.758478
0.756073
0.749603
0.743174
0.740455
0.742893
0.748033
0.752668
0.754651
0.755768
0.751016
0.74812
0.743048
0.738437
0.735717
0.734433
0.733368
0.732082
0.731047
0.729374
0.725615
0.722674
0.726003
0.737323
0.747957
0.754027
0.757404
0.75945
0.759746
0.758153
0.755383
0.747729
0.742427
0.740764
0.741599
0.741584
0.739319
0.7356
0.732285
0.731356
0.735419
0.741901
0.747193
0.750572
0.752636
0.753934
0.754935
0.755724
0.75639
0.75687
0.757388
0.757655
0.758083
0.758242
0.758571
0.758812
0.759106
0.759398
0.759642
0.759858
0.756266
0.755801
0.756044
0.756621
0.756871
0.757323
0.757464
0.757811
0.757864
0.758121
0.758119
0.758327
0.758277
0.758462
0.758386
0.75854
0.758467
0.758587
0.758523
0.75862
0.758565
0.758644
0.758599
0.758664
0.75863
0.758685
0.758658
0.758709
0.758695
0.758731
0.75863
0.758608
0.758619
0.758625
0.758634
0.758643
0.758644
0.758654
0.758652
0.758662
0.758657
0.758668
0.75866
0.75867
0.758662
0.758672
0.758663
0.758673
0.758664
0.758674
0.758665
0.758674
0.758667
0.758675
0.758668
0.758675
0.758668
0.758674
0.75867
0.758689
0.758687
0.758672
0.758669
0.758673
0.758668
0.758674
0.758668
0.758674
0.758668
0.758674
0.758668
0.758673
0.758668
0.758673
0.758668
0.758673
0.758668
0.758673
0.758668
0.758674
0.758669
0.758674
0.758668
0.758674
0.758668
0.758674
0.758669
0.758672
0.758674
0.758684
0.758685
0.758674
0.758668
0.758674
0.758668
0.758674
0.758668
0.758674
0.758669
0.758674
0.758668
0.758673
0.758668
0.758673
0.758668
0.758673
0.758668
0.758673
0.758668
0.758674
0.758669
0.758674
0.758668
0.758674
0.758668
0.758674
0.758669
0.758672
0.758674
0.758684
0.758686
0.758675
0.758673
0.758669
0.758674
0.758669
0.758674
0.758669
0.758674
0.758669
0.758674
0.758669
0.758673
0.758668
0.758673
0.758668
0.758673
0.758668
0.758672
0.75867
0.758669
0.758674
0.758668
0.758674
0.758669
0.758674
0.758669
0.758674
0.758671
0.758689
0.758684
0.758674
0.758668
0.758674
0.758668
0.758674
0.758668
0.758674
0.758669
0.758674
0.758668
0.758673
0.758668
0.758673
0.758668
0.758673
0.758668
0.758673
0.758668
0.758674
0.758668
0.758674
0.758668
0.758674
0.758668
0.758674
0.758669
0.758672
0.758674
0.758684
0.758689
0.758672
0.758673
0.758674
0.758669
0.758674
0.758669
0.758674
0.758669
0.758674
0.758669
0.758674
0.758668
0.758673
0.758669
0.758669
0.758673
0.758668
0.758673
0.758668
0.758674
0.758669
0.758674
0.758668
0.758674
0.758668
0.758673
0.758672
0.758672
0.758688
0.758685
0.758674
0.758668
0.758674
0.758668
0.758674
0.758668
0.758674
0.758668
0.758674
0.758668
0.758674
0.758668
0.758673
0.758668
0.758673
0.758668
0.758673
0.758668
0.758674
0.758668
0.758674
0.758668
0.758673
0.758668
0.758674
0.758669
0.758672
0.758674
0.758685
0.755639
0.756028
0.75576
0.755134
0.755207
0.757006
0.755955
0.753805
0.755179
0.756038
0.757783
0.760259
0.759446
0.759551
0.754918
0.751979
0.746237
0.743332
0.74178
0.741367
0.741225
0.740519
0.739205
0.737044
0.734263
0.731204
0.728835
0.727335
0.727958
0.731237
0.735755
0.738871
0.740662
0.741834
0.743462
0.745301
0.746899
0.748651
0.75113
0.753848
0.756604
0.758105
0.757028
0.751285
0.751808
0.74885
0.746168
0.746593
0.748926
0.751076
0.751665
0.753706
0.753575
0.750915
0.746333
0.743144
0.742538
0.743852
0.746457
0.748206
0.748953
0.749785
0.75031
0.7499
0.748285
0.743498
0.737344
0.723743
0.722836
0.733607
0.744049
0.754877
0.757938
0.750521
0.758593
0.754102
0.746754
0.741413
0.740956
0.745159
0.751055
0.754494
0.753178
0.753026
0.747364
0.742085
0.734961
0.727452
0.721287
0.720817
0.723397
0.724051
0.723386
0.725145
0.726015
0.723268
0.720218
0.72291
0.734232
0.745555
0.752712
0.756998
0.759328
0.76002
0.751904
0.743452
0.742735
0.746637
0.749841
0.749524
0.747363
0.742315
0.735606
0.728982
0.726439
0.729871
0.736652
0.742479
0.746316
0.748563
0.750146
0.751318
0.752355
0.75314
0.753936
0.754471
0.755119
0.755554
0.7561
0.756539
0.757032
0.757499
0.758
0.758556
0.751611
0.750272
0.751045
0.752036
0.753057
0.753662
0.754297
0.754602
0.755094
0.755193
0.755588
0.755594
0.7559
0.755876
0.756097
0.756078
0.756228
0.756226
0.756315
0.756334
0.756384
0.75641
0.756447
0.756472
0.756502
0.756536
0.756558
0.756593
0.756623
0.756771
0.756484
0.756401
0.756424
0.756443
0.756466
0.756482
0.756497
0.75651
0.75652
0.756526
0.756534
0.756536
0.756543
0.756543
0.756548
0.756548
0.75655
0.756552
0.756552
0.756554
0.756552
0.756555
0.756554
0.756556
0.756554
0.756556
0.756553
0.756556
0.756562
0.756698
0.756697
0.756562
0.756554
0.756554
0.756553
0.756554
0.756553
0.756554
0.756554
0.756554
0.756553
0.756554
0.756553
0.756554
0.756553
0.756554
0.756553
0.756554
0.756553
0.756554
0.756553
0.756555
0.756553
0.756554
0.756553
0.756554
0.756553
0.756555
0.756564
0.756699
0.756699
0.756563
0.756553
0.756554
0.756553
0.756555
0.756554
0.756555
0.756554
0.756555
0.756553
0.756554
0.756553
0.756554
0.756553
0.756554
0.756553
0.756554
0.756553
0.756554
0.756553
0.756555
0.756553
0.756554
0.756553
0.756554
0.756553
0.756554
0.756564
0.756699
0.7567
0.756565
0.756555
0.756553
0.756554
0.756553
0.756555
0.756554
0.756555
0.756554
0.756555
0.756553
0.756554
0.756553
0.756554
0.756553
0.756554
0.756553
0.756554
0.756554
0.756554
0.756554
0.756553
0.756555
0.756554
0.756555
0.756553
0.756555
0.756563
0.756698
0.7567
0.756563
0.756553
0.756554
0.756553
0.756555
0.756554
0.756555
0.756554
0.756555
0.756553
0.756554
0.756553
0.756554
0.756553
0.756554
0.756553
0.756554
0.756553
0.756554
0.756553
0.756554
0.756553
0.756554
0.756553
0.756554
0.756553
0.756554
0.756564
0.756699
0.756698
0.756563
0.756556
0.756555
0.756554
0.756555
0.756554
0.756555
0.756554
0.756555
0.756553
0.756554
0.756553
0.756554
0.756553
0.756553
0.756554
0.756553
0.756554
0.756553
0.756555
0.756553
0.756555
0.756553
0.756554
0.756553
0.756554
0.756555
0.756563
0.756698
0.7567
0.756563
0.756553
0.756554
0.756553
0.756554
0.756553
0.756555
0.756554
0.756555
0.756553
0.756554
0.756553
0.756553
0.756552
0.756553
0.756552
0.756553
0.756553
0.756554
0.756553
0.756554
0.756553
0.756554
0.756553
0.756554
0.756553
0.756554
0.756564
0.756699
0.755375
0.753736
0.751753
0.75025
0.750052
0.752592
0.75066
0.748586
0.750376
0.751218
0.753697
0.75675
0.759465
0.759976
0.753523
0.751143
0.745936
0.743098
0.742006
0.74242
0.74318
0.742541
0.739795
0.736321
0.732605
0.729375
0.726347
0.724168
0.723993
0.726307
0.730241
0.733965
0.736593
0.738936
0.741174
0.743542
0.745684
0.747674
0.749497
0.752042
0.755581
0.757144
0.757645
0.753474
0.752273
0.748795
0.745399
0.745112
0.746903
0.747275
0.74995
0.753733
0.753937
0.750705
0.742834
0.735405
0.730952
0.730519
0.734205
0.73942
0.744116
0.7475
0.74942
0.750143
0.749859
0.747101
0.739578
0.730284
0.716442
0.721763
0.735254
0.746819
0.755405
0.75329
0.757914
0.753321
0.746026
0.741533
0.741691
0.745407
0.749713
0.750971
0.750262
0.748764
0.74397
0.73806
0.729925
0.716578
0.709348
0.711555
0.713612
0.71579
0.716012
0.716953
0.721544
0.722782
0.720574
0.717989
0.720504
0.731153
0.742751
0.750858
0.756176
0.759503
0.749303
0.743458
0.745227
0.751272
0.753678
0.753523
0.750611
0.745936
0.739431
0.731898
0.724894
0.722886
0.726344
0.732608
0.738126
0.741693
0.743993
0.745602
0.746942
0.748083
0.749046
0.749891
0.750633
0.751335
0.751925
0.752674
0.753391
0.754322
0.755353
0.756631
0.74594
0.743943
0.74371
0.745465
0.747209
0.748719
0.749562
0.750305
0.750696
0.75116
0.751342
0.751667
0.751759
0.751986
0.75204
0.752191
0.752236
0.752328
0.752376
0.752425
0.75247
0.752512
0.75254
0.752587
0.752605
0.752662
0.752684
0.752763
0.752807
0.752886
0.752373
0.752469
0.752515
0.752561
0.752579
0.752614
0.752616
0.752647
0.752642
0.752668
0.752659
0.752681
0.752671
0.75269
0.752679
0.752695
0.752685
0.752698
0.752689
0.7527
0.752692
0.752702
0.752695
0.752703
0.752697
0.752703
0.752699
0.752704
0.7527
0.752659
0.752656
0.752701
0.752702
0.752702
0.7527
0.752703
0.752701
0.752704
0.752702
0.752705
0.752702
0.752705
0.752702
0.752704
0.752703
0.752704
0.752703
0.752705
0.752702
0.752705
0.752702
0.752705
0.752701
0.752704
0.752701
0.752703
0.752701
0.752703
0.752703
0.75266
0.75266
0.752702
0.752701
0.752703
0.752701
0.752704
0.752702
0.752705
0.752702
0.752705
0.752702
0.752705
0.752703
0.752704
0.752703
0.752704
0.752703
0.752705
0.752702
0.752705
0.752702
0.752705
0.752702
0.752704
0.752701
0.752703
0.752702
0.752703
0.752703
0.75266
0.752662
0.752704
0.752703
0.752701
0.752704
0.752701
0.752705
0.752702
0.752705
0.752702
0.752705
0.752703
0.752705
0.752703
0.752704
0.752703
0.752704
0.752702
0.752703
0.752704
0.752703
0.752704
0.752702
0.752704
0.752701
0.752704
0.752701
0.752704
0.752701
0.752659
0.752661
0.752702
0.752701
0.752703
0.752701
0.752704
0.752702
0.752705
0.752702
0.752705
0.752702
0.752705
0.752703
0.752704
0.752703
0.752704
0.752703
0.752705
0.752702
0.752705
0.752702
0.752704
0.752701
0.752704
0.752701
0.752703
0.752702
0.752703
0.752703
0.75266
0.752659
0.752702
0.752704
0.752704
0.752702
0.752704
0.752701
0.752705
0.752702
0.752705
0.752702
0.752705
0.752702
0.752704
0.752703
0.752704
0.752704
0.752702
0.752705
0.752702
0.752705
0.752702
0.752705
0.752701
0.752704
0.752701
0.752703
0.752704
0.752703
0.752658
0.752661
0.752702
0.752701
0.752703
0.752701
0.752704
0.752701
0.752705
0.752702
0.752705
0.752702
0.752705
0.752702
0.752705
0.752702
0.752705
0.752703
0.752705
0.752703
0.752705
0.752702
0.752705
0.752702
0.752704
0.752701
0.752704
0.752702
0.752704
0.752704
0.752661
0.75229
0.749027
0.746774
0.745283
0.745365
0.746438
0.746055
0.746325
0.747491
0.74863
0.750706
0.753707
0.757532
0.759213
0.750967
0.751656
0.749445
0.747274
0.744807
0.744425
0.746127
0.746702
0.744234
0.740075
0.735994
0.732251
0.728649
0.724568
0.722045
0.722
0.724611
0.728351
0.732063
0.7354
0.738743
0.742116
0.746016
0.749319
0.751
0.75278
0.756479
0.757389
0.757017
0.754586
0.753302
0.749202
0.745049
0.743933
0.744929
0.741531
0.747761
0.753054
0.754227
0.751874
0.744027
0.733491
0.725509
0.721712
0.722309
0.727766
0.735941
0.74303
0.747378
0.749316
0.749742
0.748639
0.74391
0.733322
0.723823
0.719317
0.72329
0.739395
0.751836
0.754319
0.755862
0.751104
0.745139
0.741703
0.74132
0.742873
0.744792
0.747203
0.748042
0.745608
0.740573
0.733742
0.723507
0.709126
0.708242
0.708438
0.709387
0.710525
0.710221
0.71058
0.714836
0.719982
0.719956
0.717667
0.716042
0.718855
0.729115
0.741326
0.751897
0.758922
0.747936
0.746267
0.750953
0.753641
0.754813
0.753413
0.749824
0.744467
0.738487
0.731894
0.725308
0.72045
0.719842
0.723642
0.729053
0.733598
0.73676
0.738856
0.7406
0.74195
0.743297
0.744335
0.74548
0.746392
0.747421
0.748419
0.749545
0.750851
0.752713
0.754829
0.743864
0.740291
0.737707
0.738157
0.740599
0.742681
0.744213
0.745009
0.74584
0.746249
0.746769
0.74703
0.747399
0.747549
0.747826
0.747903
0.748125
0.748151
0.748342
0.748336
0.7485
0.748487
0.748626
0.748624
0.748745
0.748772
0.748878
0.74895
0.749081
0.749189
0.748144
0.748399
0.748476
0.748597
0.748632
0.748701
0.748716
0.748759
0.748766
0.748794
0.748795
0.748816
0.748814
0.748831
0.748825
0.748841
0.748832
0.748847
0.748837
0.748849
0.748841
0.748851
0.748844
0.748852
0.748848
0.748854
0.748852
0.748859
0.748856
0.748811
0.748805
0.748856
0.748856
0.748853
0.74885
0.748851
0.74885
0.74885
0.74885
0.74885
0.74885
0.74885
0.74885
0.74885
0.74885
0.74885
0.74885
0.74885
0.74885
0.74885
0.74885
0.74885
0.74885
0.74885
0.74885
0.748852
0.748853
0.748856
0.748857
0.748809
0.748808
0.748856
0.748856
0.748853
0.748852
0.748851
0.74885
0.748851
0.74885
0.74885
0.74885
0.74885
0.74885
0.74885
0.74885
0.74885
0.74885
0.74885
0.74885
0.74885
0.74885
0.74885
0.74885
0.74885
0.74885
0.748852
0.748853
0.748856
0.748857
0.748809
0.74881
0.748858
0.748856
0.748853
0.748852
0.748851
0.748851
0.748851
0.748851
0.74885
0.74885
0.74885
0.74885
0.74885
0.74885
0.74885
0.74885
0.748849
0.74885
0.74885
0.74885
0.74885
0.74885
0.74885
0.748851
0.748852
0.748854
0.748857
0.748856
0.748806
0.748809
0.748856
0.748856
0.748853
0.748852
0.748851
0.748851
0.748851
0.74885
0.74885
0.74885
0.74885
0.74885
0.74885
0.74885
0.74885
0.74885
0.74885
0.74885
0.74885
0.74885
0.74885
0.74885
0.74885
0.74885
0.748852
0.748854
0.748856
0.748857
0.748809
0.748806
0.748857
0.748857
0.748854
0.748852
0.748851
0.74885
0.74885
0.74885
0.74885
0.74885
0.74885
0.74885
0.74885
0.74885
0.74885
0.74885
0.74885
0.74885
0.74885
0.74885
0.74885
0.74885
0.74885
0.748851
0.748851
0.748853
0.748857
0.748857
0.748806
0.748808
0.748856
0.748856
0.748853
0.748852
0.748851
0.74885
0.74885
0.74885
0.74885
0.74885
0.74885
0.74885
0.74885
0.74885
0.74885
0.74885
0.74885
0.74885
0.74885
0.74885
0.74885
0.74885
0.74885
0.748851
0.748853
0.748856
0.748862
0.748872
0.748824
0.746383
0.744144
0.742864
0.742743
0.743599
0.744203
0.744264
0.744373
0.74587
0.747651
0.750164
0.753686
0.757879
0.758346
0.757146
0.754833
0.75284
0.752227
0.751093
0.749017
0.746971
0.746752
0.74849
0.749704
0.748581
0.745607
0.741813
0.737971
0.733106
0.727188
0.721834
0.71932
0.720114
0.723467
0.727646
0.731873
0.735691
0.740333
0.74637
0.751614
0.753595
0.754113
0.755288
0.756117
0.755859
0.756031
0.757242
0.756763
0.753688
0.749021
0.744653
0.743325
0.743074
0.739007
0.746459
0.751677
0.753983
0.752952
0.74812
0.738768
0.728881
0.721219
0.717478
0.719205
0.727133
0.736972
0.743887
0.747226
0.748593
0.748554
0.746478
0.738863
0.728668
0.719483
0.720206
0.730148
0.746221
0.753353
0.754607
0.758042
0.757471
0.753366
0.749105
0.746153
0.744971
0.74566
0.748306
0.749633
0.747314
0.74212
0.734485
0.725614
0.713904
0.710181
0.708413
0.708578
0.709292
0.709857
0.709418
0.707733
0.710255
0.715846
0.717897
0.717049
0.71533
0.714712
0.717494
0.727716
0.741221
0.753976
0.757934
0.758374
0.756829
0.756879
0.756082
0.755487
0.753452
0.750311
0.745693
0.740267
0.734226
0.728492
0.723448
0.719174
0.716932
0.717616
0.721029
0.725182
0.728782
0.73136
0.733355
0.7349
0.73636
0.737541
0.738736
0.739766
0.740858
0.742004
0.743371
0.745145
0.747382
0.750709
0.750039
0.748823
0.744728
0.739232
0.734077
0.732334
0.733948
0.736209
0.737733
0.73874
0.739371
0.739992
0.740355
0.740793
0.741015
0.741319
0.741462
0.741667
0.741773
0.741907
0.741999
0.742084
0.742169
0.742224
0.742308
0.742351
0.742436
0.742493
0.742596
0.742723
0.742873
0.74297
0.742166
0.742104
0.741739
0.742093
0.742213
0.742338
0.742364
0.742446
0.742442
0.742502
0.742491
0.742536
0.742524
0.742558
0.742547
0.742572
0.742563
0.742581
0.742573
0.742588
0.742581
0.742594
0.742587
0.742598
0.742593
0.742602
0.742599
0.742608
0.742606
0.742612
0.742591
0.74234
0.742105
0.742106
0.74233
0.74259
0.74261
0.74261
0.742609
0.742608
0.742607
0.742607
0.742606
0.742607
0.742606
0.742607
0.742606
0.742606
0.742606
0.742606
0.742606
0.742607
0.742606
0.742607
0.742607
0.742608
0.742607
0.742608
0.742608
0.742611
0.742611
0.742612
0.742591
0.742337
0.742104
0.742104
0.742337
0.742591
0.742611
0.742612
0.74261
0.74261
0.742607
0.742608
0.742607
0.742608
0.742606
0.742607
0.742606
0.742607
0.742606
0.742607
0.742606
0.742607
0.742606
0.742607
0.742607
0.742608
0.742607
0.742608
0.742608
0.742611
0.742612
0.742612
0.742592
0.742337
0.742104
0.742104
0.742338
0.742593
0.742612
0.742611
0.742611
0.742609
0.742608
0.742607
0.742608
0.742607
0.742607
0.742606
0.742607
0.742606
0.742606
0.742606
0.742606
0.742606
0.742606
0.742607