/*--------------------------------*- C++ -*----------------------------------*\
| =========                 |                                                 |
| \\      /  F ield         | OpenFOAM: The Open Source CFD Toolbox           |
|  \\    /   O peration     | Version:  2.1.1                                 |
|   \\  /    A nd           | Web:      www.OpenFOAM.org                      |
|    \\/     M anipulation  |                                                 |
\*---------------------------------------------------------------------------*/
FoamFile
{
    version     2.0;
    format      ascii;
    class       volScalarField;
    location    "0.002250000";
    object      rhoEu;
}
// * * * * * * * * * * * * * * * * * * * * * * * * * * * * * * * * * * * * * //

dimensions      [1 -1 -2 0 0 0 0];

internalField   nonuniform List<scalar> 
12384
(
-39136.7
-33828.3
-36121.1
-73031.8
-139342
-184252
-191889
-128833
-84164.8
-83706.2
-87516.8
-86567.2
-82749.3
-82117.7
-42075.8
-51533.6
-60884.7
-68479
-99878.5
-109004
-115775
-120008
-119307
-117333
-117004
-116718
-114563
-111183
-109970
-103731
-98294.8
-93422.5
-79354.1
-46830.9
-28203.6
-23978.7
-21899.5
-27881.7
-27660.1
-35105.1
-34755.3
-35779.9
-37851.3
-32504.9
-9710.5
-32910.5
-42215.4
-45774.6
-65157.9
-103489
-128371
-145759
-151033
-147315
-136600
-127841
-119430
-97030.2
-85873.5
-56751.4
-46442.5
-45203.1
-52514.3
-51105.3
-44724.2
-33670.2
-19255.3
-11788.5
-16578.7
-29609
-35971.8
-40836.5
-42059.8
-41094.4
-97373.1
-97717
-97694.2
-96638.6
-93897
-88216
-81662.5
-73395.6
-66517.5
-61184.2
-47763.3
-55615.5
-41243.1
-48921.5
-40324.4
-42141.2
-37065.9
-33537.8
-29005
-24225.7
-21388
-19230
-16399.2
-9800.76
-4848.24
-905.652
2453.71
-3399.28
-16601.3
-25455.8
-103589
-103153
-103014
-102688
-101955
-101671
-100587
-99967.2
-98425.4
-97266.8
-95469.2
-94103
-92531.7
-91701.2
-90891
-91307.2
-91889.9
-93560.1
-94814.5
-97430.5
-97552.2
-98988.2
-99193.7
-99677.1
-100071
-100445
-100847
-101205
-101493
-101765
-107359
-107347
-107354
-107322
-107329
-107291
-107308
-107325
-107319
-107370
-107361
-107417
-107423
-107460
-107474
-107493
-107516
-107527
-107539
-107557
-107556
-107573
-107580
-107580
-107592
-107586
-107599
-107593
-107600
-107596
-107513
-107512
-107512
-107513
-107510
-107511
-107507
-107508
-107503
-107505
-107500
-107500
-107499
-107500
-107496
-107498
-107495
-107496
-107492
-107494
-107492
-107492
-107491
-107492
-107490
-107490
-107490
-107491
-107490
-107490
-107488
-107488
-107488
-107488
-107486
-107488
-107488
-107488
-107487
-107487
-107486
-107487
-107487
-107488
-107488
-107488
-107488
-107488
-107485
-107487
-107487
-107487
-107487
-107488
-107488
-107486
-107487
-107486
-107488
-107488
-107487
-107488
-107487
-107487
-107486
-107488
-107488
-107488
-107486
-107487
-107486
-107487
-107488
-107488
-107488
-107488
-107488
-107488
-107486
-107487
-107487
-107487
-107487
-107488
-107488
-107486
-107488
-107487
-107488
-107488
-107487
-107487
-107488
-107488
-107486
-107487
-107488
-107486
-107487
-107487
-107487
-107486
-107488
-107488
-107488
-107487
-107488
-107488
-107487
-107487
-107487
-107488
-107487
-107488
-107488
-107486
-107487
-107488
-107488
-107488
-107488
-107488
-107487
-107488
-107486
-107488
-107488
-107488
-107486
-107487
-107486
-107487
-107487
-107488
-107488
-107488
-107488
-107488
-107485
-107487
-107487
-107487
-107487
-107488
-107488
-107486
-107488
-107487
-107488
-107488
-107489
-107487
-107487
-107489
-107485
-107489
-107488
-107487
-107487
-107487
-107486
-107487
-107487
-107488
-107488
-107487
-107488
-107488
-107486
-107485
-107488
-107487
-107487
-107487
-107488
-107486
-107488
-107488
-107488
-107488
-107488
-107489
-107487
-107488
-107486
-107488
-107487
-107488
-107487
-107487
-107487
-107487
-107488
-107488
-107485
-107487
-107485
-107487
-107488
-107488
-107488
-107488
-107487
-107488
-107487
-107486
-107487
-107488
-107487
-107487
-38187.8
-35077.9
-39878.3
-50669.9
-117978
-177077
-196081
-113688
-87063.3
-89079.1
-86683.3
-84815.8
-83020.2
-82757.2
-49866.8
-65581.5
-96268.1
-145458
-199848
-168617
-143934
-125645
-111214
-113500
-123422
-134414
-134856
-135758
-133388
-146358
-144741
-166893
-176609
-142677
-112855
-95918.2
-55374
-34058.3
-35051.8
-33697.9
-39868.6
-39225.9
-34080.1
-30220
-14302.1
-25919.7
-28715.1
-73701
-163783
-231651
-235899
-231528
-227301
-223837
-213240
-217096
-221638
-225236
-230216
-243486
-164047
-111986
-111449
-102791
-67274.2
-41656.5
-35872.5
-28492.7
-29547.1
-32265.6
-41301.3
-44230.6
-43498.6
-42541
-95088.1
-94242.8
-92699.6
-91210.4
-87766.3
-81381.7
-72649
-66888.2
-58107.9
-54585.7
-47290.6
-44838.6
-36103.6
-38004.4
-34179.1
-34315.9
-31213.1
-26561.2
-21646.4
-15915.8
-13018.1
-13175.2
-15892.2
-16144.3
-13897.3
-10600.9
-6447.29
-7101.58
-13371.1
-21829.9
-103041
-103114
-102451
-101980
-101863
-100736
-100669
-99348.3
-98460
-96967.1
-95638
-94331.1
-93277.7
-92577.3
-92151.8
-92358.5
-92658.2
-94107.7
-94510.8
-96632.8
-97668.5
-98610.2
-99465.2
-99632.9
-100089
-100435
-100857
-101195
-101589
-101661
-107339
-107324
-107316
-107299
-107290
-107280
-107289
-107289
-107311
-107328
-107362
-107386
-107432
-107441
-107481
-107490
-107514
-107530
-107536
-107559
-107560
-107571
-107580
-107581
-107589
-107588
-107595
-107591
-107600
-107595
-107516
-107513
-107520
-107510
-107513
-107512
-107506
-107511
-107502
-107508
-107500
-107505
-107498
-107502
-107496
-107501
-107492
-107500
-107491
-107498
-107489
-107496
-107488
-107496
-107487
-107495
-107487
-107494
-107489
-107489
-107488
-107488
-107486
-107490
-107485
-107492
-107484
-107492
-107484
-107492
-107484
-107491
-107485
-107491
-107485
-107491
-107485
-107491
-107485
-107491
-107484
-107492
-107484
-107492
-107484
-107491
-107484
-107487
-107488
-107486
-107486
-107489
-107483
-107491
-107484
-107492
-107484
-107492
-107484
-107492
-107484
-107491
-107486
-107491
-107485
-107491
-107485
-107491
-107485
-107492
-107484
-107492
-107484
-107492
-107484
-107491
-107484
-107487
-107488
-107486
-107487
-107487
-107490
-107484
-107492
-107484
-107492
-107484
-107492
-107484
-107492
-107485
-107491
-107485
-107490
-107485
-107491
-107485
-107490
-107486
-107485
-107491
-107485
-107492
-107484
-107492
-107484
-107491
-107485
-107488
-107486
-107489
-107483
-107491
-107484
-107492
-107484
-107492
-107484
-107492
-107484
-107491
-107485
-107491
-107485
-107491
-107485
-107491
-107485
-107491
-107484
-107492
-107484
-107492
-107484
-107491
-107485
-107486
-107488
-107486
-107488
-107487
-107490
-107490
-107485
-107491
-107484
-107492
-107484
-107492
-107484
-107491
-107485
-107490
-107486
-107486
-107491
-107485
-107492
-107485
-107491
-107485
-107492
-107485
-107491
-107484
-107490
-107488
-107488
-107488
-107487
-107489
-107484
-107491
-107484
-107492
-107484
-107492
-107484
-107491
-107484
-107492
-107484
-107492
-107484
-107490
-107485
-107491
-107485
-107491
-107484
-107491
-107484
-107492
-107484
-107491
-107485
-107487
-107487
-107486
-39798.5
-42075
-42523.9
-68891.1
-129555
-173688
-146464
-120538
-111936
-100578
-90595
-83458.6
-82788.1
-84003.6
-61125.7
-109891
-194063
-171606
-146740
-80423.1
-51076.9
-23039.2
-11491
-3558.25
-13377.6
-25657.1
-27867.6
-24849.2
-17677.4
-13816.6
-21435.7
-50199.6
-89932.8
-103987
-130365
-151627
-107486
-87311.4
-77402
-53493.8
-41573.9
-39131.9
-33583.9
-29375.1
-17693.9
-22100.2
-19853.2
-66857.9
-150857
-242715
-236825
-222748
-210045
-208291
-215768
-222147
-226049
-224470
-223765
-220027
-209907
-210916
-220720
-238262
-206211
-114075
-49063.9
-38961.3
-37115.1
-37856.6
-41839
-43157.9
-47063.6
-44265.5
-92411.8
-91452.5
-90642.9
-87482.3
-82429.7
-76561
-69086.6
-62757.1
-59391.8
-53242.2
-48227.4
-40210.5
-28034.1
-25108.2
-21741.7
-24064.1
-24531.8
-22042
-15607.5
-10715.7
-6674.11
-6619.23
-10502.9
-16584.5
-20717.5
-20819.7
-17703.2
-14351.5
-13741.4
-10118.2
-102388
-101938
-102106
-100858
-100928
-99206.3
-99057
-97790.6
-97084.3
-96323
-95349.4
-94629.1
-93857.9
-93439.4
-92981.6
-92914
-93465.4
-93734.8
-95103.6
-95552.3
-98074.3
-98233.7
-99723.5
-100011
-100483
-100731
-101104
-101400
-101631
-101794
-107255
-107208
-107211
-107224
-107211
-107244
-107234
-107295
-107289
-107350
-107360
-107416
-107444
-107479
-107510
-107528
-107550
-107567
-107572
-107592
-107593
-107601
-107608
-107608
-107619
-107612
-107621
-107618
-107620
-107622
-107537
-107537
-107535
-107538
-107534
-107535
-107531
-107530
-107527
-107528
-107525
-107525
-107523
-107522
-107520
-107519
-107518
-107517
-107516
-107515
-107515
-107513
-107514
-107513
-107515
-107511
-107513
-107512
-107514
-107512
-107511
-107511
-107511
-107511
-107511
-107510
-107511
-107509
-107510
-107510
-107511
-107510
-107511
-107509
-107510
-107509
-107510
-107510
-107511
-107510
-107511
-107509
-107511
-107509
-107511
-107509
-107511
-107510
-107511
-107512
-107511
-107509
-107511
-107509
-107511
-107510
-107511
-107509
-107510
-107510
-107511
-107510
-107511
-107510
-107510
-107509
-107510
-107510
-107511
-107510
-107511
-107509
-107511
-107509
-107511
-107509
-107511
-107510
-107511
-107512
-107511
-107510
-107510
-107512
-107509
-107511
-107509
-107511
-107509
-107511
-107510
-107511
-107510
-107511
-107509
-107510
-107509
-107511
-107509
-107510
-107511
-107508
-107511
-107509
-107512
-107509
-107511
-107510
-107511
-107510
-107512
-107509
-107512
-107509
-107511
-107510
-107511
-107509
-107510
-107510
-107511
-107510
-107511
-107509
-107510
-107509
-107510
-107509
-107511
-107510
-107511
-107509
-107511
-107510
-107511
-107509
-107512
-107510
-107511
-107512
-107512
-107512
-107510
-107510
-107511
-107511
-107511
-107509
-107510
-107510
-107511
-107509
-107511
-107510
-107511
-107511
-107510
-107511
-107510
-107511
-107509
-107511
-107510
-107511
-107510
-107511
-107509
-107511
-107511
-107511
-107511
-107510
-107511
-107509
-107511
-107509
-107512
-107509
-107511
-107509
-107510
-107510
-107511
-107509
-107510
-107509
-107510
-107509
-107510
-107509
-107511
-107510
-107510
-107509
-107512
-107509
-107510
-107510
-107510
-107511
-41747.2
-49803.4
-51864.7
-63216.8
-108636
-160186
-157057
-134374
-133506
-114478
-99334
-86368
-83403.2
-83437.2
-80570.5
-189947
-151981
-94418
-40580.5
3883.07
14982.5
23831.5
25667.1
29718.4
26769.9
26361
27727.6
27123.8
32868.7
25488.5
21049.5
10640
2870.74
1360.12
-5174.44
-35736.3
-89547
-140179
-181868
-102420
-47698.7
-39445.4
-34646.1
-28777.9
-22171.6
-19420.3
-11311
-59813.9
-171200
-233845
-238546
-216272
-185159
-156838
-153849
-169954
-187695
-202552
-207984
-206630
-207749
-216457
-223983
-227047
-218912
-216208
-191054
-74153.2
-40190.1
-41768.4
-39744
-40725.8
-43900.9
-46329.4
-88777.9
-88096.7
-85802.2
-82182.9
-78999.9
-73994.9
-69253.5
-66936.9
-63313.7
-59667.8
-45337.1
-35543.9
-18338.9
-14301.5
-12974.6
-14932.1
-16065.7
-13103.4
-8713.67
-6142.28
-4665.21
-6221.79
-9759.92
-16250.7
-23631.3
-27105.8
-24342.8
-18566.9
-10529.7
-9525.83
-101712
-101268
-101017
-100293
-99481.4
-98468.8
-97422.6
-95649
-95084.2
-94479.6
-94053.2
-93708
-93586.7
-93133.8
-92965.2
-93181.8
-92836.9
-93335.3
-93987.1
-94711.4
-96669
-97761.2
-99192.2
-99739.5
-100469
-100718
-101154
-101445
-101699
-101829
-107189
-107036
-107057
-107059
-107090
-107096
-107161
-107172
-107259
-107260
-107353
-107354
-107438
-107442
-107500
-107510
-107538
-107555
-107568
-107582
-107592
-107593
-107608
-107604
-107614
-107611
-107616
-107616
-107616
-107620
-107542
-107538
-107541
-107534
-107535
-107533
-107531
-107530
-107527
-107527
-107524
-107524
-107521
-107521
-107518
-107519
-107516
-107518
-107513
-107516
-107511
-107515
-107511
-107515
-107511
-107513
-107510
-107513
-107509
-107511
-107509
-107509
-107507
-107511
-107507
-107511
-107508
-107511
-107506
-107511
-107506
-107511
-107506
-107510
-107506
-107509
-107506
-107509
-107506
-107511
-107506
-107510
-107507
-107511
-107508
-107510
-107507
-107509
-107509
-107509
-107508
-107510
-107506
-107510
-107507
-107511
-107507
-107511
-107506
-107511
-107506
-107511
-107506
-107510
-107507
-107510
-107506
-107510
-107506
-107511
-107506
-107510
-107507
-107511
-107508
-107510
-107507
-107509
-107509
-107509
-107509
-107508
-107510
-107507
-107511
-107508
-107511
-107507
-107511
-107506
-107511
-107506
-107511
-107506
-107509
-107506
-107509
-107507
-107509
-107507
-107507
-107510
-107507
-107511
-107508
-107510
-107506
-107510
-107507
-107509
-107509
-107510
-107506
-107511
-107507
-107511
-107507
-107511
-107506
-107511
-107506
-107511
-107506
-107510
-107506
-107509
-107506
-107509
-107507
-107511
-107506
-107510
-107507
-107511
-107508
-107510
-107508
-107509
-107509
-107509
-107509
-107508
-107509
-107510
-107506
-107512
-107507
-107511
-107506
-107510
-107507
-107511
-107507
-107510
-107507
-107507
-107510
-107507
-107510
-107507
-107510
-107507
-107511
-107507
-107512
-107507
-107510
-107508
-107508
-107510
-107509
-107509
-107507
-107511
-107507
-107511
-107506
-107511
-107506
-107511
-107507
-107511
-107507
-107511
-107507
-107510
-107507
-107510
-107507
-107511
-107506
-107510
-107507
-107511
-107508
-107511
-107506
-107509
-107509
-107510
-49846.7
-50292.6
-51433.7
-53089.5
-64591.5
-125082
-118654
-85392.9
-98654.9
-124408
-146664
-108374
-85386.6
-83762.1
-94838.8
-158256
-79107.7
-14696.3
12072.3
18241.9
18632.4
23532
25539.9
28201.7
29233.5
32874.4
33797.3
36768.3
34243.6
32212.7
26584.2
27472.2
28090.3
30544.8
23671.6
-16757.1
-81827.5
-142321
-174742
-134856
-66770.8
-45820.4
-40189.7
-31974.7
-26526.1
-15125.3
-11668.2
-56434.7
-174982
-231200
-234584
-198063
-125688
-64889.9
-42538.6
-52519.5
-77787
-103673
-143815
-167683
-184996
-197986
-211274
-218008
-214688
-219807
-211832
-204746
-77891.4
-42853.1
-41196.2
-37393
-40178.4
-44490.6
-87203
-84564
-82121
-80936.3
-77683.9
-76809
-74789.8
-75015.4
-73703.9
-76160.8
-48088.6
-31961.2
-13498.2
-26284
-50257.2
-47853
-22793.3
-7480.53
-7632.73
-4929.58
-1763.85
-4174.81
-10042.5
-16090.1
-21434.2
-25017.3
-28501.6
-21080.6
-13794.3
-4502.74
-100729
-100602
-100533
-100898
-99189.4
-97914.6
-94380.3
-92215.2
-91371.1
-91614.2
-91612.7
-92237.2
-92246.5
-92268.1
-92732.6
-92373.8
-92579.1
-92714.7
-93009.8
-93758.6
-95078.8
-96502
-98408.2
-99040.5
-100273
-100542
-101054
-101400
-101667
-101844
-107162
-106808
-106790
-106802
-106832
-106926
-106982
-107078
-107118
-107207
-107239
-107327
-107357
-107428
-107452
-107497
-107516
-107542
-107558
-107569
-107584
-107586
-107599
-107600
-107604
-107611
-107606
-107616
-107610
-107615
-107536
-107537
-107533
-107537
-107532
-107531
-107530
-107529
-107525
-107524
-107522
-107521
-107520
-107519
-107517
-107515
-107515
-107513
-107514
-107511
-107511
-107509
-107512
-107508
-107510
-107507
-107510
-107506
-107509
-107507
-107506
-107506
-107506
-107505
-107507
-107505
-107507
-107506
-107507
-107504
-107507
-107505
-107507
-107505
-107507
-107505
-107507
-107504
-107507
-107504
-107507
-107504
-107507
-107504
-107506
-107505
-107506
-107506
-107506
-107506
-107506
-107505
-107506
-107505
-107506
-107505
-107507
-107506
-107506
-107504
-107506
-107504
-107507
-107505
-107507
-107505
-107507
-107504
-107507
-107504
-107506
-107504
-107507
-107505
-107506
-107505
-107506
-107506
-107506
-107506
-107506
-107506
-107505
-107506
-107505
-107507
-107505
-107508
-107504
-107506
-107504
-107507
-107504
-107507
-107505
-107507
-107504
-107507
-107505
-107506
-107506
-107504
-107507
-107505
-107506
-107504
-107506
-107504
-107507
-107505
-107506
-107505
-107506
-107505
-107507
-107505
-107507
-107506
-107507
-107504
-107507
-107504
-107507
-107505
-107507
-107505
-107507
-107504
-107507
-107504
-107507
-107504
-107507
-107504
-107506
-107505
-107506
-107506
-107506
-107506
-107505
-107506
-107505
-107505
-107506
-107505
-107507
-107505
-107506
-107504
-107507
-107505
-107506
-107505
-107506
-107506
-107505
-107506
-107505
-107506
-107504
-107507
-107505
-107507
-107505
-107506
-107505
-107506
-107506
-107506
-107507
-107505
-107507
-107505
-107507
-107504
-107508
-107505
-107508
-107505
-107507
-107504
-107507
-107504
-107507
-107504
-107506
-107504
-107507
-107505
-107506
-107505
-107507
-107506
-107507
-107505
-107507
-107506
-107507
-107507
-44633.2
-22553
-4637.21
1490.61
-12459.5
-70210.2
-65051.4
-43159.9
-55376.7
-69278.6
-108047
-139668
-103851
-82108.6
-100592
-126441
-26617.5
14191.9
17951.9
17991.2
17313.4
22175
21638.5
26030.2
25407.9
28512.6
27597.4
26668.4
25084
22945.3
21903.6
22644.7
26234.2
27457.6
18226.8
-26213.1
-83708.1
-134247
-169028
-194554
-99952
-54403.4
-44756.4
-39508.9
-22126.3
-18707.6
-18966
-46359.9
-157302
-233190
-224894
-176100
-92822.9
-22501.7
9893.18
13908.9
8932.91
-9008.65
-35888.2
-73964.8
-99064.5
-136963
-175229
-202407
-214062
-213880
-215136
-204829
-198062
-93234.6
-47121.8
-39545.7
-34047.8
-39176.3
-86294.3
-84176.9
-83102.3
-81075.4
-81603.3
-80954.3
-80215.4
-83812.4
-79091.2
-65096.2
-43933.1
-31971.3
-43811.6
-91001.6
-143961
-151932
-134891
-79037.5
-17519.9
-1866.8
-1954.16
-3403.82
-8244.93
-13922.9
-18276
-21894.5
-25215.5
-23716.6
-16742.6
-7316.9
-100365
-100811
-101298
-99633.1
-97437.4
-91756
-87035.3
-85708.3
-84930.9
-85954.6
-88380.8
-89705.7
-90864.4
-91129.2
-91385.2
-91796.3
-91878.1
-91915.4
-92212.2
-92868
-94211.7
-94997.8
-97142.9
-98463.9
-99409.8
-100559
-100895
-101346
-101744
-101873
-107126
-106491
-106414
-106461
-106613
-106661
-106808
-106893
-107029
-107080
-107195
-107230
-107331
-107355
-107440
-107448
-107508
-107509
-107549
-107550
-107574
-107577
-107588
-107596
-107595
-107606
-107600
-107611
-107605
-107609
-107540
-107536
-107540
-107532
-107534
-107530
-107530
-107524
-107525
-107520
-107522
-107517
-107518
-107514
-107514
-107512
-107513
-107510
-107511
-107509
-107508
-107508
-107506
-107507
-107505
-107506
-107505
-107505
-107505
-107506
-107504
-107504
-107503
-107504
-107502
-107504
-107502
-107503
-107502
-107503
-107502
-107503
-107503
-107504
-107503
-107504
-107503
-107504
-107503
-107503
-107502
-107503
-107502
-107503
-107502
-107503
-107503
-107504
-107503
-107503
-107503
-107503
-107502
-107503
-107502
-107503
-107502
-107503
-107503
-107503
-107502
-107503
-107503
-107504
-107502
-107504
-107503
-107503
-107502
-107503
-107502
-107503
-107502
-107504
-107502
-107503
-107503
-107504
-107503
-107503
-107503
-107503
-107504
-107502
-107503
-107502
-107503
-107502
-107503
-107502
-107503
-107502
-107503
-107503
-107503
-107503
-107503
-107502
-107503
-107502
-107502
-107503
-107502
-107503
-107502
-107503
-107502
-107503
-107502
-107504
-107504
-107503
-107502
-107503
-107502
-107503
-107502
-107503
-107502
-107503
-107502
-107503
-107503
-107504
-107503
-107504
-107503
-107504
-107503
-107503
-107502
-107503
-107502
-107504
-107502
-107503
-107503
-107504
-107503
-107503
-107504
-107503
-107503
-107503
-107503
-107503
-107502
-107503
-107502
-107503
-107502
-107504
-107502
-107503
-107502
-107502
-107503
-107502
-107503
-107502
-107503
-107502
-107502
-107503
-107503
-107502
-107503
-107503
-107503
-107504
-107503
-107502
-107502
-107504
-107503
-107503
-107502
-107503
-107503
-107503
-107502
-107504
-107503
-107503
-107503
-107504
-107503
-107503
-107502
-107503
-107502
-107504
-107502
-107504
-107503
-107504
-107503
-107504
-107504
-107504
-7694.97
34668.7
59127.4
61205.1
39991.3
-2179.68
-11701.8
-20643.6
-35925.8
-39420.9
-60838.5
-108652
-145690
-97895
-117255
-95583.2
-19630.8
5911.91
12825.4
13302.8
17462.2
17734
21764.5
21548.3
24700.6
22400.3
23914.3
21531.8
20161.3
16340.5
14788.5
15179.2
19178.7
22814.9
20691.6
-6256.84
-51929.7
-107345
-155672
-180554
-143378
-84697.4
-53138.9
-45257.3
-20878
-21175.5
-18755.8
-39540.6
-136762
-226850
-224395
-191089
-109849
-36380.3
6741.92
27808
27257.7
23033.4
12016.3
6274.97
-26902.8
-66158.2
-119981
-166608
-199055
-212778
-211536
-209987
-196035
-219392
-154070
-58369.6
-39443.5
-28188.3
-87651.6
-85149.1
-83851.6
-83380.6
-83466.7
-83569.3
-82384.5
-82514.9
-70313.6
-47399.5
-33068.8
-35438.7
-84521.8
-162329
-167483
-177669
-181296
-173972
-100716
-25184.8
-4202.84
-2470.2
-4169.49
-8599.19
-13697.4
-17049.4
-19988.6
-22236.1
-20328
-5728.19
-102481
-101012
-100107
-95606.9
-86745.4
-78776.9
-74866.8
-73892.9
-75088.1
-78929.4
-82995.4
-86518.7
-88347
-89784.6
-90066.8
-90681.2
-90898.4
-91085.4
-91453.5
-91896.8
-92998.4
-93833.7
-96009
-97625
-98397.1
-100110
-100286
-101111
-101497
-100870
-106626
-105643
-105540
-105747
-106028
-106292
-106478
-106716
-106812
-107011
-107038
-107205
-107219
-107343
-107361
-107436
-107466
-107494
-107528
-107540
-107555
-107568
-107572
-107585
-107583
-107595
-107587
-107599
-107592
-107599
-107530
-107531
-107528
-107531
-107527
-107528
-107522
-107523
-107517
-107519
-107515
-107514
-107511
-107511
-107508
-107509
-107507
-107505
-107505
-107503
-107503
-107501
-107503
-107500
-107502
-107499
-107501
-107499
-107500
-107499
-107498
-107498
-107498
-107496
-107498
-107497
-107498
-107496
-107498
-107496
-107497
-107497
-107498
-107497
-107498
-107497
-107498
-107497
-107498
-107496
-107497
-107495
-107498
-107497
-107498
-107497
-107497
-107497
-107497
-107498
-107498
-107497
-107498
-107496
-107498
-107496
-107498
-107497
-107497
-107496
-107497
-107496
-107498
-107497
-107497
-107497
-107498
-107497
-107497
-107496
-107497
-107495
-107498
-107497
-107498
-107497
-107497
-107497
-107497
-107498
-107497
-107497
-107497
-107498
-107496
-107498
-107496
-107498
-107495
-107497
-107496
-107498
-107497
-107498
-107497
-107498
-107497
-107498
-107497
-107497
-107497
-107496
-107498
-107496
-107498
-107496
-107497
-107497
-107498
-107497
-107497
-107497
-107498
-107496
-107498
-107496
-107498
-107496
-107497
-107496
-107497
-107497
-107498
-107497
-107498
-107497
-107498
-107497
-107498
-107496
-107497
-107495
-107498
-107497
-107498
-107497
-107497
-107497
-107497
-107498
-107496
-107497
-107496
-107496
-107497
-107496
-107498
-107496
-107497
-107496
-107497
-107497
-107498
-107497
-107497
-107497
-107497
-107498
-107496
-107498
-107496
-107497
-107496
-107498
-107496
-107498
-107496
-107497
-107497
-107497
-107497
-107497
-107498
-107496
-107498
-107496
-107498
-107496
-107497
-107495
-107497
-107496
-107498
-107496
-107497
-107496
-107497
-107496
-107497
-107496
-107498
-107496
-107498
-107496
-107498
-107497
-107498
-107497
-107497
-107498
59051.2
88457.3
92084
90276.4
64253.2
33824.8
973.04
-26400.6
-33474
-35089.9
-41127
-81266.2
-140591
-100501
-173905
-113796
-50184.4
-19616.9
1611.69
11368.4
11722.3
16586.1
15974.4
21454.4
22372.8
23905.9
20787.3
20513.5
16176.4
14541.5
10975.8
9581.75
13553.2
19317.7
23239.5
12244.6
-34065.1
-93454.4
-151635
-185051
-193478
-168045
-53295.1
-56760.1
-13637.9
-19250.8
-24766.5
-39937.2
-120225
-230146
-230857
-198756
-133589
-60325.1
-14407.1
20712.6
24581.4
18183.9
14866.2
12691.3
7532.23
-13092.8
-47476
-106200
-159224
-199998
-213739
-206930
-204399
-210293
-215020
-144998
-44720.9
-18357.2
-88405.1
-87733.7
-87392.7
-85389.6
-83861.9
-81309.2
-80591.1
-67060.8
-43248.9
-29654.1
-30117.2
-61874.3
-133061
-164427
-163448
-162086
-164950
-173026
-167446
-96725
-15971.6
-3557.48
-458.33
-3655.32
-8250.58
-12282.2
-15146.7
-17838.4
-18638.1
-914.5
-100027
-97486.4
-86635
-77241.6
-63576.9
-58389.4
-57327.2
-59747
-65177.3
-70522.9
-76934.2
-82115
-85902.5
-87406.4
-88757.9
-89163.1
-89818.6
-90219.1
-90593.9
-91034.4
-91850.1
-92952.6
-94823.3
-96152.4
-97667.3
-99629.5
-99919.5
-101141
-100771
-100800
-104075
-103518
-104004
-104766
-105357
-105808
-106156
-106412
-106642
-106832
-106940
-107087
-107157
-107266
-107322
-107391
-107435
-107472
-107501
-107523
-107542
-107555
-107565
-107574
-107578
-107584
-107583
-107590
-107587
-107587
-107526
-107520
-107532
-107522
-107528
-107521
-107522
-107517
-107517
-107512
-107511
-107509
-107507
-107506
-107506
-107503
-107503
-107501
-107500
-107498
-107499
-107497
-107498
-107496
-107497
-107496
-107495
-107494
-107495
-107494
-107493
-107493
-107493
-107493
-107493
-107494
-107492
-107493
-107493
-107492
-107492
-107492
-107493
-107493
-107493
-107494
-107493
-107493
-107492
-107492
-107492
-107493
-107492
-107492
-107492
-107493
-107492
-107493
-107492
-107492
-107492
-107493
-107492
-107493
-107493
-107493
-107491
-107493
-107492
-107492
-107492
-107492
-107493
-107493
-107493
-107493
-107493
-107493
-107492
-107492
-107492
-107493
-107492
-107493
-107492
-107493
-107492
-107493
-107492
-107492
-107492
-107492
-107493
-107492
-107493
-107493
-107492
-107492
-107493
-107492
-107492
-107492
-107493
-107493
-107493
-107493
-107493
-107493
-107492
-107492
-107492
-107493
-107492
-107492
-107492
-107493
-107492
-107493
-107492
-107492
-107492
-107493
-107492
-107493
-107493
-107493
-107491
-107493
-107492
-107492
-107492
-107492
-107493
-107493
-107493
-107493
-107493
-107493
-107492
-107492
-107492
-107493
-107492
-107492
-107492
-107493
-107492
-107492
-107492
-107492
-107492
-107492
-107492
-107492
-107492
-107493
-107492
-107493
-107492
-107493
-107492
-107493
-107493
-107493
-107493
-107493
-107493
-107493
-107493
-107492
-107492
-107492
-107493
-107492
-107493
-107493
-107492
-107492
-107492
-107492
-107492
-107493
-107492
-107493
-107492
-107493
-107492
-107493
-107492
-107492
-107493
-107493
-107492
-107493
-107492
-107492
-107492
-107493
-107492
-107492
-107493
-107493
-107492
-107493
-107492
-107493
-107492
-107492
-107493
-107492
99710.6
100402
94662.1
72291.8
41884.4
6637.24
-23478.6
-34423.4
-33824.7
-31687.9
-32563.1
-79867.9
-141468
-120252
-126668
-110778
-119210
-74805.7
-34566
-10631.9
22.4877
3956.16
8361.23
12312
16633.9
16519.9
21563.5
21523.7
22754.3
17488.4
15835.8
10643.5
8376.31
6216.64
9634.1
19610.5
23364.3
13810.3
-36396.5
-93696.3
-153018
-190333
-203206
-204704
-63087.3
-49907.6
-47221.5
-44911.8
-12663.1
-22028.3
-29648.4
-38675.9
-84915.3
-231246
-238866
-217788
-160346
-95041.2
-47967.3
-7021.71
14290.2
14261
11871.2
9161.8
11979.5
15215.1
-3830.16
-42976.9
-104042
-170930
-210322
-211025
-205073
-201467
-209254
-206818
-136864
-38522.9
-57982.4
-44659
-58676.8
-73774.4
-78674.6
-77015.7
-70051.2
-61226
-49029
-32824.8
-21396.5
-28991.1
-55383.9
-120842
-166502
-162484
-158483
-156761
-156030
-166436
-183867
-146230
-53682.5
-1008.01
-2552.85
-439.428
-1745.45
-6336.38
-12258
-15427.4
-15160.1
6476.53
-27297.1
-45348.6
-47963.9
-43389.9
-41605.4
-35826.7
-33640.3
-34445.7
-40907.8
-48496.5
-56114.8
-64256.1
-71514.2
-77592.5
-81781.8
-85181.3
-86467
-87732
-88239.7
-88990
-89407.4
-89969.6
-90762.4
-91869.9
-93548.7
-95078
-96382.4
-98438.5
-98493.3
-99438.9
-98684.2
-93248.6
-96231.1
-99619.8
-100405
-100853
-102057
-103451
-104631
-105292
-105848
-106142
-106443
-106647
-106824
-106971
-107079
-107196
-107256
-107351
-107384
-107445
-107466
-107500
-107520
-107533
-107549
-107553
-107564
-107559
-107565
-107555
-107548
-107531
-107527
-107526
-107504
-107521
-107518
-107524
-107515
-107521
-107511
-107514
-107509
-107510
-107504
-107505
-107500
-107501
-107496
-107498
-107493
-107495
-107492
-107492
-107492
-107490
-107490
-107488
-107489
-107487
-107487
-107486
-107488
-107486
-107485
-107485
-107485
-107486
-107485
-107486
-107485
-107485
-107485
-107485
-107485
-107485
-107485
-107485
-107486
-107485
-107486
-107485
-107486
-107485
-107486
-107485
-107485
-107485
-107485
-107485
-107485
-107485
-107485
-107484
-107485
-107484
-107484
-107484
-107484
-107485
-107485
-107484
-107485
-107485
-107485
-107485
-107485
-107485
-107485
-107485
-107485
-107485
-107485
-107485
-107485
-107485
-107485
-107485
-107485
-107485
-107485
-107485
-107485
-107485
-107485
-107484
-107485
-107484
-107484
-107484
-107484
-107485
-107484
-107485
-107484
-107485
-107485
-107485
-107485
-107485
-107485
-107485
-107485
-107485
-107485
-107485
-107485
-107485
-107485
-107485
-107485
-107485
-107486
-107485
-107485
-107485
-107485
-107484
-107485
-107484
-107484
-107484
-107484
-107485
-107484
-107484
-107485
-107485
-107485
-107485
-107485
-107485
-107485
-107485
-107485
-107485
-107485
-107485
-107485
-107485
-107485
-107485
-107485
-107484
-107485
-107484
-107485
-107484
-107485
-107484
-107485
-107484
-107484
-107484
-107484
-107485
-107485
-107484
-107485
-107485
-107485
-107484
-107486
-107484
-107485
-107485
-107485
-107485
-107485
-107485
-107485
-107485
-107485
-107486
-107485
-107485
-107484
-107485
-107485
-107485
-107485
-107485
-107485
-107484
-107484
-107484
-107484
-107485
-107485
-107485
-107485
-107484
-107485
-107485
-107486
-107484
-107485
-107485
-107486
-107484
-107484
-107484
-107484
-107484
-107485
-107485
-107485
-107484
-107485
-107485
-107486
-107484
-107485
-107485
-107485
-107485
-107485
-107485
98738.9
94341.3
77350.9
47414.1
9703.84
-17804.6
-28766.4
-31167.6
-32091.9
-35631.4
-31727.4
-49033.1
-100972
-134398
-135398
-99427.2
-64776.7
-37859.1
-13180.5
-6638.13
-2218.64
1889.28
4027.4
10414.8
13884.5
19484.3
19793.9
21207.3
18624.7
18030.9
12707.4
11241.5
7824.98
7018.58
5981.48
11962.8
17644.9
15903.4
-36683.9
-95031.9
-153620
-189701
-203190
-206054
-82598.2
-71643.1
-52999
-35954.2
-21268.3
-39373
-48899
-54385.6
-86105.8
-241736
-240240
-232536
-205722
-162679
-115077
-72699.2
-25341.7
12524.8
16362.6
19541.4
21285.5
22940
22294.2
1708.74
-56670.7
-133280
-194729
-213716
-209091
-203858
-197417
-200746
-196728
-124474
-78021.5
-56742.2
-33531.1
-30801
-33205.3
-30731.6
-18628.2
-9388.71
-6794.31
-10454.5
-30718.6
-66573.7
-116527
-162343
-160817
-158580
-152999
-150235
-153215
-156740
-175273
-164335
-93210.3
-12404.4
536.471
982.222
-1949.87
-4527.72
-5886.85
-9925.77
-10702.4
9405.78
16030.2
23556.6
21536.2
20631.6
20418.5
12229.2
-2944.95
-16028.5
-30479.9
-40414.6
-51310.4
-59825.3
-67200.7
-73009.8
-78001.1
-81274
-84359.8
-85399.1
-86824.4
-87415.1
-88203.1
-88839.4
-89777.6
-90707.4
-92286.8
-94075.5
-95041.3
-97300.3
-97511.2
-99006.2
-97843.9
-95282.5
-94658
-96537.3
-98192
-100209
-102090
-103405
-104597
-105192
-105792
-105971
-106372
-106453
-106765
-106820
-107048
-107085
-107240
-107276
-107367
-107408
-107444
-107484
-107501
-107520
-107535
-107538
-107554
-107545
-107560
-107544