/*--------------------------------*- C++ -*----------------------------------*\
| =========                 |                                                 |
| \\      /  F ield         | OpenFOAM: The Open Source CFD Toolbox           |
|  \\    /   O peration     | Version:  2.1.1                                 |
|   \\  /    A nd           | Web:      www.OpenFOAM.org                      |
|    \\/     M anipulation  |                                                 |
\*---------------------------------------------------------------------------*/
FoamFile
{
    version     2.0;
    format      ascii;
    class       volScalarField;
    location    "0.005200000";
    object      H;
}
// * * * * * * * * * * * * * * * * * * * * * * * * * * * * * * * * * * * * * //

dimensions      [0 0 0 0 0 0 0];

internalField   nonuniform List<scalar> 
12384
(
0.000335714
0.000267474
0.00020046
0.000166978
0.000152605
0.000151361
0.000152691
0.000162034
0.000181246
0.000213765
0.000269693
0.000386754
0.000480183
0.000110799
3.5643e-06
3.78696e-06
3.40242e-06
3.42921e-06
4.15046e-06
5.12568e-06
6.72572e-06
8.01478e-06
8.75689e-06
9.8478e-06
9.29222e-06
9.94395e-06
9.49229e-06
9.64977e-06
1.0163e-05
1.00039e-05
1.04133e-05
1.02015e-05
1.03432e-05
9.90121e-06
9.7916e-06
9.28565e-06
8.75986e-06
9.36614e-06
9.00301e-06
8.55623e-06
7.96824e-06
6.25601e-06
7.37486e-06
7.76269e-06
7.81477e-05
7.92719e-05
8.0541e-05
8.96978e-05
9.54563e-05
8.93461e-05
6.6639e-05
4.59577e-05
4.517e-05
3.82445e-05
4.25127e-05
4.35086e-05
4.24499e-05
4.61017e-05
4.79073e-05
4.6407e-05
4.90544e-05
4.65591e-05
4.94509e-05
4.68921e-05
4.81031e-05
5.18207e-05
5.19712e-05
5.52516e-05
5.94353e-05
6.34805e-05
6.41104e-05
4.60548e-05
1.57395e-05
1.26028e-05
6.78066e-05
4.38671e-05
3.4135e-05
5.19887e-05
7.74248e-05
8.3535e-05
8.87894e-05
9.28293e-05
9.61969e-05
9.90592e-05
9.48027e-05
9.67357e-05
9.59528e-05
9.76376e-05
9.92959e-05
9.88508e-05
0.000100368
9.92923e-05
9.91909e-05
9.48215e-05
9.20425e-05
9.8034e-05
9.83431e-05
0.000102221
9.85974e-05
8.84222e-05
6.97851e-05
5.8126e-05
5.29455e-05
5.18327e-05
8.65148e-05
9.26068e-05
9.45959e-05
9.40501e-05
8.9993e-05
8.80984e-05
8.12363e-05
8.00741e-05
7.32563e-05
7.30756e-05
6.7232e-05
6.88321e-05
6.49661e-05
6.71289e-05
6.76358e-05
6.87934e-05
7.34576e-05
7.52514e-05
7.82798e-05
8.05939e-05
8.2561e-05
8.47026e-05
8.47757e-05
8.92633e-05
7.77829e-05
5.53841e-05
4.06648e-05
4.11162e-05
4.29568e-05
4.13869e-05
7.3724e-05
0.00010712
0.000111793
0.000111084
0.000108802
0.000107533
0.000105086
0.000102256
0.000100251
9.88503e-05
9.58775e-05
9.51979e-05
9.31156e-05
9.1434e-05
9.00332e-05
8.96365e-05
8.97852e-05
8.961e-05
9.02394e-05
9.12694e-05
9.18889e-05
9.43272e-05
9.65519e-05
0.000100301
0.000103396
0.000107865
0.000113796
0.000120126
0.000110887
7.59976e-05
7.99499e-05
8.54682e-05
6.54568e-05
4.15413e-05
3.68426e-05
3.26476e-05
2.73185e-05
2.7406e-05
2.94612e-05
3.87141e-05
4.29704e-05
4.84991e-05
5.10482e-05
4.74204e-05
4.82089e-05
4.32515e-05
4.15206e-05
3.83476e-05
3.4761e-05
3.03734e-05
2.12416e-05
1.4651e-05
9.78369e-06
6.91751e-06
5.60216e-06
5.3764e-06
5.68481e-06
9.18985e-06
1.61147e-05
1.86169e-05
2.91154e-05
2.88689e-05
3.66431e-05
6.07923e-05
8.77641e-05
9.34522e-05
9.94322e-05
9.86797e-05
9.44084e-05
9.69675e-05
8.94905e-05
9.30263e-05
8.49865e-05
8.83818e-05
8.26144e-05
8.54482e-05
8.34309e-05
8.5966e-05
8.99373e-05
9.07058e-05
9.42086e-05
9.34952e-05
9.43382e-05
9.53107e-05
9.19543e-05
9.11637e-05
0.000104999
0.000113863
0.000123211
0.000125846
6.05102e-05
6.7255e-05
7.20121e-05
7.41237e-05
7.44756e-05
7.58555e-05
7.50132e-05
7.68123e-05
7.5813e-05
7.91144e-05
7.78724e-05
8.04605e-05
8.00303e-05
8.02614e-05
8.02876e-05
7.96381e-05
8.02049e-05
8.25032e-05
8.64413e-05
8.60857e-05
8.77789e-05
8.44298e-05
6.85952e-05
6.21937e-05
6.04467e-05
5.7504e-05
6.02137e-05
5.72971e-05
5.87455e-05
5.50641e-05
4.40133e-05
5.02366e-05
6.25246e-05
6.59252e-05
6.96016e-05
7.04874e-05
7.08337e-05
6.82708e-05
6.83678e-05
6.63314e-05
6.25874e-05
6.38324e-05
6.10055e-05
6.08934e-05
6.24145e-05
6.39738e-05
6.7308e-05
7.04955e-05
7.49649e-05
8.15553e-05
8.38062e-05
9.3032e-05
9.25331e-05
9.7029e-05
9.34879e-05
8.48637e-05
7.99253e-05
7.87137e-05
7.84744e-05
7.78766e-05
6.28355e-05
6.65037e-05
6.9218e-05
7.05114e-05
7.09349e-05
7.17513e-05
6.57185e-05
6.71512e-05
5.99968e-05
5.94137e-05
5.68679e-05
5.61983e-05
5.68718e-05
5.7168e-05
5.91527e-05
5.70991e-05
6.49763e-05
6.80923e-05
7.52277e-05
7.5953e-05
7.45223e-05
6.88121e-05
7.00896e-05
7.24494e-05
7.47192e-05
7.62664e-05
7.64713e-05
7.79673e-05
7.87136e-05
7.8027e-05
2.31346e-05
5.219e-05
6.20438e-05
6.36367e-05
5.69701e-05
5.66952e-05
5.90048e-05
6.1785e-05
6.29158e-05
6.3871e-05
6.48044e-05
6.499e-05
6.38688e-05
6.42034e-05
6.40426e-05
6.3771e-05
6.41177e-05
6.24318e-05
6.12972e-05
6.02394e-05
5.69497e-05
5.77068e-05
5.33937e-05
5.40965e-05
5.29048e-05
5.3989e-05
5.61964e-05
5.7286e-05
5.44384e-05
5.33683e-07
1.99103e-08
2.09748e-08
2.5584e-08
2.90198e-08
3.55122e-08
6.76267e-08
5.55621e-05
4.2725e-05
4.34496e-05
4.31695e-05
4.30944e-05
4.23197e-05
4.42004e-05
4.28857e-05
4.54314e-05
4.39233e-05
4.72599e-05
4.77308e-05
4.83338e-05
5.2231e-05
5.27265e-05
5.8153e-05
6.20183e-05
6.65562e-05
6.70974e-05
6.72345e-05
6.60191e-05
5.44817e-05
1.05302e-06
1.07176e-07
7.98002e-05
6.25873e-05
5.70973e-05
6.28192e-05
7.52043e-05
9.06922e-05
9.67801e-05
9.6419e-05
9.25846e-05
0.000100937
0.000140618
0.000271552
0.000433803
0.000195469
3.36484e-06
3.47546e-06
3.54627e-06
4.43166e-06
7.66752e-06
1.18785e-05
1.61168e-05
1.79525e-05
1.68331e-05
1.45602e-05
1.34549e-05
1.34651e-05
1.33584e-05
1.529e-05
1.63186e-05
1.79546e-05
1.93443e-05
1.99153e-05
2.07473e-05
1.99381e-05
1.9325e-05
1.6952e-05
1.49692e-05
1.27131e-05
1.14278e-05
1.02203e-05
8.71972e-06
7.33419e-06
6.39956e-06
5.39035e-06
7.70865e-05
7.78862e-05
8.31851e-05
9.20761e-05
8.31314e-05
4.59031e-05
2.16114e-05
1.54289e-05
1.50144e-05
1.75386e-05
1.90553e-05
2.7177e-05
2.86637e-05
3.35923e-05
3.74502e-05
3.5147e-05
3.66893e-05
3.63683e-05
3.29708e-05
3.36102e-05
3.24999e-05
3.45087e-05
4.06345e-05
4.33532e-05
5.06875e-05
5.75827e-05
6.24236e-05
5.76693e-05
4.34668e-05
3.17507e-05
6.08412e-05
3.89202e-05
4.33295e-05
7.92523e-05
9.52855e-05
0.000101526
0.00010036
9.33247e-05
8.49813e-05
7.79149e-05
7.55916e-05
7.24704e-05
7.20455e-05
7.10479e-05
7.10669e-05
7.05129e-05
7.10222e-05
6.97808e-05
7.19983e-05
7.45567e-05
8.01449e-05
8.97046e-05
9.51529e-05
9.99718e-05
0.00010026
0.000104774
8.93143e-05
7.10726e-05
6.06663e-05
5.51043e-05
8.82965e-05
9.65331e-05
9.79516e-05
9.42577e-05
8.50032e-05
7.8945e-05
7.40788e-05
7.1855e-05
6.39729e-05
6.65483e-05
6.05946e-05
6.16909e-05
5.99805e-05
6.0531e-05
6.16479e-05
6.4819e-05
6.75998e-05
7.1574e-05
7.73723e-05
7.54517e-05
7.84436e-05
8.13887e-05
8.26349e-05
8.40472e-05
8.54533e-05
7.31787e-05
5.49055e-05
4.56596e-05
4.28594e-05
4.45582e-05
8.26608e-05
0.000108761
0.000109318
0.000105664
0.000101937
9.83618e-05
9.4804e-05
9.27868e-05
9.05428e-05
8.80252e-05
8.5436e-05
8.33366e-05
8.28594e-05
8.20629e-05
8.24273e-05
8.35478e-05
8.439e-05
8.47806e-05
8.47631e-05
8.37907e-05
8.41434e-05
8.39265e-05
8.44072e-05
8.81979e-05
9.27734e-05
9.95756e-05
0.000107185
0.000116078
0.000118605
0.000101752
8.77366e-05
8.13346e-05
5.06051e-05
4.60785e-05
4.68453e-05
4.27628e-05
4.14961e-05
6.71478e-05
7.9593e-05
8.71383e-05
8.68768e-05
8.20692e-05
8.00835e-05
7.78254e-05
7.69348e-05
7.7403e-05
7.72779e-05
7.78878e-05
7.67424e-05
7.11024e-05
6.60096e-05
4.54921e-05
2.58706e-05
1.19904e-05
6.38045e-06
4.73696e-06
4.83914e-06
6.39739e-06
1.18674e-05
1.90652e-05
8.84947e-05
9.92658e-05
0.000104676
0.000105071
0.000104484
0.000102522
9.64949e-05
9.49233e-05
9.01876e-05
8.97187e-05
8.56734e-05
8.4464e-05
8.255e-05
8.24144e-05
8.05503e-05
8.1856e-05
8.2817e-05
8.52788e-05
8.75694e-05
9.06862e-05
9.35225e-05
9.55973e-05
9.49936e-05
9.45736e-05
9.79532e-05
9.20783e-05
9.31747e-05
9.73042e-05
0.000110149
0.000120457
8.21801e-05
8.18007e-05
7.80897e-05
7.62227e-05
7.05598e-05
6.60554e-05
6.5096e-05
6.38825e-05
6.45101e-05
6.46336e-05
6.65683e-05
6.75608e-05
7.06242e-05
7.24805e-05
7.55173e-05
7.99879e-05
8.52959e-05
8.13504e-05
8.44044e-05
8.94104e-05
8.80609e-05
8.71281e-05
8.09148e-05
7.0311e-05
7.32806e-05
7.40659e-05
7.65535e-05
6.91085e-05
6.58928e-05
5.80566e-05
6.54935e-05
8.47659e-05
8.47832e-05
8.07461e-05
7.7527e-05
7.36622e-05
6.99165e-05
6.60696e-05
6.29772e-05
5.92954e-05
5.77516e-05
5.40161e-05
5.49068e-05
5.59491e-05
5.3596e-05
5.4213e-05
5.59021e-05
5.87339e-05
6.3025e-05
6.90786e-05
7.81384e-05
8.60872e-05
9.33871e-05
9.50947e-05
8.74693e-05
7.60671e-05
7.26472e-05
7.14767e-05
7.13311e-05
7.15261e-05
6.93287e-05
7.35284e-05
7.45146e-05
7.49876e-05
7.22335e-05
6.80855e-05
6.57092e-05
6.05482e-05
5.72249e-05
5.60493e-05
5.69257e-05
5.63837e-05
5.67566e-05
5.72051e-05
5.77724e-05
5.85857e-05
6.09614e-05
6.51527e-05
7.05441e-05
7.33382e-05
7.40242e-05
7.18198e-05
7.02975e-05
7.16484e-05
7.46215e-05
7.65101e-05
7.68139e-05
7.6229e-05
7.57163e-05
7.64399e-05
5.37855e-05
6.02218e-05
6.44373e-05
6.42249e-05
6.34997e-05
6.84819e-05
6.76008e-05
6.81249e-05
6.64364e-05
6.50082e-05
6.42557e-05
6.41074e-05
6.41978e-05
6.5011e-05
6.66272e-05
6.76414e-05
6.76762e-05
6.83742e-05
6.76803e-05
6.56437e-05
6.29521e-05
6.18869e-05
5.77827e-05
5.60767e-05
5.27307e-05
5.19292e-05
5.39508e-05
5.61182e-05
5.64181e-05
1.32675e-05
2.39685e-08
1.58753e-07
1.20353e-06
2.689e-06
4.31636e-06
3.29881e-05
4.66651e-05
4.38661e-05
4.34159e-05
4.38249e-05
4.45618e-05
4.47687e-05
4.57205e-05
4.65261e-05
4.94278e-05
4.86587e-05
4.98982e-05
4.8542e-05
4.86351e-05
4.63632e-05
4.75922e-05
4.89691e-05
5.2941e-05
7.01119e-05
7.32047e-05
7.37192e-05
7.0577e-05
6.719e-05
9.26805e-06
1.24344e-07
4.51361e-05
4.78933e-05
7.09529e-05
0.000132503
0.000196051
0.000235579
0.000248399
0.000230876
0.000184934
0.000124387
0.000100624
0.00016327
0.000349255
0.000262927
3.26953e-06
3.59299e-06
4.42617e-06
8.52879e-06
1.69507e-05
2.55368e-05
2.8086e-05
2.5435e-05
1.98144e-05
1.49534e-05
1.39373e-05
1.44148e-05
1.72907e-05
2.03648e-05
2.38986e-05
2.67727e-05
3.09078e-05
3.14877e-05
3.40433e-05
3.53374e-05
3.5499e-05
3.25439e-05
2.78298e-05
2.18406e-05
1.65635e-05
1.346e-05
1.0631e-05
8.49089e-06
6.59096e-06
5.08416e-06
7.39797e-05
7.48184e-05
8.37691e-05
9.11905e-05
6.91312e-05
2.87659e-05
1.69868e-05
1.43405e-05
1.45779e-05
1.84139e-05
2.00984e-05
3.34299e-05
3.83253e-05
4.803e-05
4.73612e-05
4.84403e-05
4.34938e-05
4.5365e-05
4.10802e-05
3.5494e-05
3.57202e-05
3.27787e-05
3.08114e-05
3.28898e-05
3.92112e-05
4.6457e-05
5.5598e-05
5.86095e-05
5.51616e-05
4.61484e-05
5.42145e-05
3.77747e-05
5.68492e-05
8.93768e-05
0.000104037
0.000101786
9.53046e-05
8.2388e-05
7.08233e-05
6.6329e-05
6.15361e-05
6.11061e-05
6.03357e-05
6.01005e-05
5.87352e-05
5.73943e-05
5.49423e-05
5.50123e-05
5.4179e-05
5.73399e-05
6.03365e-05
6.8443e-05
7.76992e-05
8.85577e-05
0.00010066
9.80763e-05
0.000101952
8.66927e-05
6.80639e-05
5.73946e-05
9.05032e-05
9.91675e-05
9.83108e-05
8.86161e-05
8.07508e-05
7.33854e-05
6.72073e-05
7.19825e-05
6.56194e-05
7.3898e-05
6.51888e-05
7.09284e-05
6.66225e-05
6.57402e-05
6.56095e-05
6.54258e-05
6.65266e-05
6.60028e-05
6.69474e-05
7.16119e-05
7.55234e-05
7.9805e-05
7.94343e-05
8.52509e-05
8.53589e-05
8.14572e-05
7.17994e-05
6.31145e-05
5.33341e-05
4.84944e-05
8.99412e-05
0.000108317
0.000106036
0.000101319
9.79959e-05
9.65242e-05
9.58427e-05
9.46965e-05
9.04785e-05
8.79837e-05
8.4631e-05
8.35227e-05
8.35285e-05
8.87177e-05
9.44612e-05
9.92983e-05
0.00010307
0.000105183
0.000105421
0.000104091
0.000101025
9.60089e-05
9.08718e-05
8.66095e-05
8.78316e-05
9.22471e-05
9.94837e-05
0.000110734
0.000119278
0.000113604
8.20974e-05
7.29757e-05
6.1375e-05
6.41024e-05
5.40076e-05
5.44357e-05
8.05921e-05
9.43963e-05
9.14011e-05
8.63847e-05
7.86893e-05
6.9846e-05
6.65476e-05
6.75501e-05
6.59393e-05
6.9244e-05
7.35155e-05
7.6626e-05
8.32514e-05
8.5519e-05
8.60281e-05
8.00478e-05
6.76009e-05
3.29292e-05
1.04441e-05
4.73853e-06
4.06259e-06
5.06843e-06
9.49967e-06
1.82678e-05
0.000101495
0.000105534
0.000105484
0.000103236
9.46879e-05
9.02139e-05
9.00395e-05
8.80383e-05
8.73974e-05
8.93566e-05
8.8845e-05
9.07794e-05
8.70965e-05
8.92139e-05
8.53553e-05
8.4706e-05
8.51213e-05
8.49111e-05
8.83635e-05
8.96197e-05
9.27017e-05
9.4312e-05
9.49093e-05
9.53791e-05
9.745e-05
9.65682e-05
9.47836e-05
9.28879e-05
9.96243e-05
0.0001146
7.20859e-05
6.47494e-05
5.736e-05
5.29034e-05
5.01059e-05
4.95604e-05
5.00253e-05
5.18669e-05
5.39051e-05
5.575e-05
5.80374e-05
5.74691e-05
5.7281e-05
5.69735e-05
5.66125e-05
5.74385e-05
6.04344e-05
6.66063e-05
7.59162e-05
8.17411e-05
9.01357e-05
8.84775e-05
8.57293e-05
7.95827e-05
8.09473e-05
8.50839e-05
8.93752e-05
8.42395e-05
7.44162e-05
6.17657e-05
8.87697e-05
8.22151e-05
7.94825e-05
7.78742e-05
7.52421e-05
7.14685e-05
6.78072e-05
6.36855e-05
6.09103e-05
5.73741e-05
5.57524e-05
5.39284e-05
5.50881e-05
5.41069e-05
5.19398e-05
4.95814e-05
4.88104e-05
4.95106e-05
5.17222e-05
5.58846e-05
6.43671e-05
8.14914e-05
9.30013e-05
9.33707e-05
8.65846e-05
7.66018e-05
7.28554e-05
7.24262e-05
7.16282e-05
7.08673e-05
7.05752e-05
7.4815e-05
7.32359e-05
6.94352e-05
6.40831e-05
5.85104e-05
5.29132e-05
5.05985e-05
4.4365e-05
4.05108e-05
3.60341e-05
3.41188e-05
3.39226e-05
3.39968e-05
3.78588e-05
4.2905e-05
5.17128e-05
5.68402e-05
6.49798e-05
6.87933e-05
7.12311e-05
7.01253e-05
6.94869e-05
7.03451e-05
7.27371e-05
7.50855e-05
7.48779e-05
7.24351e-05
7.11054e-05
7.41368e-05
5.82618e-05
6.43988e-05
6.49803e-05
6.71954e-05
7.03807e-05
7.34398e-05
7.10516e-05
7.01587e-05
6.92205e-05
6.74523e-05
6.57607e-05
6.54618e-05
6.61401e-05
6.78797e-05
6.90801e-05
6.98661e-05
7.0485e-05
6.92385e-05
6.73735e-05
6.45657e-05
5.81254e-05
5.62806e-05
5.7437e-05
5.96027e-05
5.69646e-05
5.34216e-05
5.12528e-05
5.46258e-05
5.66647e-05
4.16193e-05
2.94236e-07
2.38421e-05
5.64148e-05
5.73344e-05
5.70967e-05
4.79905e-05
4.37821e-05
4.40372e-05
4.35702e-05
4.63863e-05
5.01357e-05
5.23379e-05
5.37654e-05
5.41654e-05
5.49696e-05
5.52558e-05
5.36025e-05
5.46122e-05
5.41246e-05
5.24299e-05
4.78813e-05
4.55422e-05
4.79564e-05
6.29e-05
7.39152e-05
7.76402e-05
7.61159e-05
6.967e-05
3.0119e-05
1.95301e-07
4.16582e-05
6.57548e-05
0.000155249
0.000262688
0.000291553
0.000293048
0.000289991
0.000289547
0.000274197
0.000206867
0.000119798
0.000122965
0.000275506
0.000295435
2.95759e-06
4.10526e-06
7.16196e-06
1.63642e-05
3.25393e-05
4.17635e-05
4.0796e-05
3.2787e-05
2.09534e-05
1.51796e-05
1.41301e-05
1.66025e-05
2.11235e-05
2.48754e-05
2.79727e-05
3.25824e-05
3.62025e-05
4.40653e-05
5.13658e-05
5.67584e-05
5.78524e-05
5.41471e-05
4.4614e-05
3.65761e-05
2.65091e-05
1.7864e-05
1.33195e-05
9.92918e-06
7.40852e-06
5.084e-06
6.97474e-05
6.91138e-05
8.28704e-05
9.09075e-05
6.76202e-05
3.36659e-05
2.40203e-05
2.31233e-05
1.98811e-05
2.06338e-05
2.71842e-05
4.30011e-05
5.06863e-05
5.4179e-05
5.35635e-05
5.69848e-05
5.01047e-05
4.98697e-05
4.83966e-05
4.47187e-05
4.33083e-05
3.75908e-05
3.26135e-05
3.11111e-05
3.00546e-05
3.66612e-05
4.53302e-05
5.35168e-05
5.55122e-05
4.91319e-05
4.94883e-05
3.7936e-05
6.80645e-05
9.6891e-05
0.000103581
0.000102579
9.39581e-05
7.63984e-05
6.56532e-05
5.95909e-05
5.84357e-05
5.75451e-05
5.80309e-05
5.5413e-05
5.25927e-05
5.01417e-05
4.62561e-05
4.31728e-05
4.46693e-05
4.74349e-05
5.26559e-05
5.54516e-05
6.33428e-05
7.21197e-05
8.40051e-05
9.58359e-05
9.94416e-05
9.3185e-05
7.36805e-05
5.97229e-05
9.19407e-05
0.00010133
9.30237e-05
8.57051e-05
7.31612e-05
7.43437e-05
7.1129e-05
7.7649e-05
7.39784e-05
7.71632e-05
7.64061e-05
8.00459e-05
7.88534e-05
8.12576e-05
8.11405e-05
8.0011e-05
7.5631e-05
7.2542e-05
6.79413e-05
6.67558e-05
6.97289e-05
7.27941e-05
7.63147e-05
7.90193e-05
8.038e-05
8.09772e-05
7.75621e-05
7.13638e-05
6.17685e-05
5.1849e-05
9.41236e-05
0.000106487
0.00010271
9.82491e-05
9.69166e-05
9.73363e-05
9.81786e-05
9.55759e-05
9.20405e-05
8.89932e-05
8.59513e-05
8.70326e-05
9.33843e-05
0.000104026
0.000114852
0.000122736
0.000127075
0.000129339
0.00013021
0.000128459
0.000124964
0.000117177
0.000107346
9.68472e-05
9.11301e-05
9.11792e-05
9.61382e-05
0.000107161
0.000118037
0.000119888
8.01243e-05
7.43964e-05
7.33305e-05
6.49306e-05
6.17051e-05
8.78921e-05
9.69922e-05
9.04544e-05
8.40545e-05
6.48282e-05
5.17412e-05
5.44101e-05
5.79295e-05
6.39011e-05
6.69504e-05
6.87409e-05
7.00977e-05
7.4317e-05
7.93383e-05
8.58329e-05
8.94725e-05
9.09003e-05
8.48156e-05
6.30256e-05
1.92877e-05
5.55509e-06
3.65839e-06
4.33034e-06
8.34013e-06
1.81993e-05
0.000102106
0.000104565
0.000100069
8.95234e-05
8.6091e-05
8.84966e-05
9.22988e-05
9.69004e-05
0.000100661
9.93925e-05
9.91776e-05
9.71591e-05
9.46146e-05
9.40989e-05
8.9854e-05
9.01454e-05
8.83786e-05
8.84232e-05
8.76842e-05
9.09147e-05
9.03587e-05
9.49945e-05
9.45406e-05
9.67374e-05
9.66442e-05
9.73842e-05
9.81634e-05
9.49162e-05
9.65066e-05
0.000109967
6.34354e-05
5.75717e-05
5.39758e-05
5.30724e-05
5.51443e-05
5.84907e-05
6.41277e-05
6.9175e-05
7.43644e-05
7.65018e-05
7.7593e-05
7.63077e-05
7.44779e-05
7.1272e-05
6.77464e-05
6.24429e-05
5.74724e-05
5.50765e-05
5.8424e-05
6.96606e-05
8.23089e-05
8.83637e-05
8.74595e-05
8.53608e-05
8.47094e-05
8.87329e-05
9.25006e-05
9.18527e-05
8.1884e-05
6.25747e-05
8.46109e-05
8.15936e-05
7.70159e-05
7.53248e-05
7.41146e-05
6.91132e-05
6.42559e-05
5.90541e-05
5.30661e-05
4.65837e-05
4.41982e-05
4.2125e-05
4.10145e-05
4.24083e-05
4.42933e-05
4.52284e-05
4.49469e-05
4.45681e-05
4.50006e-05
4.64092e-05
5.25989e-05
6.70217e-05
8.44466e-05
9.09983e-05
8.71286e-05
7.8528e-05
7.56501e-05
7.47893e-05
7.33826e-05
7.16874e-05
7.16713e-05
7.35024e-05
6.87139e-05
6.33224e-05
5.77589e-05
5.27788e-05
4.66182e-05
3.92318e-05
3.23362e-05
2.29054e-05
1.87776e-05
1.56643e-05
1.45156e-05
1.56098e-05
1.69138e-05
2.0673e-05
2.98579e-05
3.98349e-05
5.40108e-05
6.39907e-05
6.74535e-05
6.87149e-05
6.951e-05
6.76287e-05
7.04812e-05
7.31747e-05
7.29708e-05
6.89924e-05
6.73256e-05
7.07791e-05
6.284e-05
6.47685e-05
6.71975e-05
7.42191e-05
7.69833e-05
7.88663e-05
7.62784e-05
7.55402e-05
7.44827e-05
7.16134e-05
6.8946e-05
6.7941e-05
6.70639e-05
6.80152e-05
6.81348e-05
6.98002e-05
6.92847e-05
6.82141e-05
6.70091e-05
6.10486e-05
4.47824e-05
3.37517e-05
3.22709e-05
5.03735e-05
5.79578e-05
5.48729e-05
5.15227e-05
5.34307e-05
5.57814e-05
5.49661e-05
6.22242e-06
5.00597e-05
4.47755e-05
4.95256e-05
4.83929e-05
4.31482e-05
4.18077e-05
4.40612e-05
4.84613e-05
5.40573e-05
5.79262e-05
6.14492e-05
6.27987e-05
6.4039e-05
6.20995e-05
5.99056e-05
5.81986e-05
5.58282e-05
5.68565e-05
5.47065e-05
5.2738e-05
4.61917e-05
4.48996e-05
5.40012e-05
7.13965e-05
7.57656e-05
7.74914e-05
7.05154e-05
3.6101e-05
2.14658e-07
4.38297e-05
0.000102979
0.000256281
0.000297617
0.000286538
0.00024224
0.000210259
0.000215805
0.000249551
0.000235163
0.000147082
0.000113969
0.000239546
0.000298635
3.25585e-06
5.16683e-06
1.09179e-05
2.69411e-05
5.02672e-05
5.96727e-05
5.84483e-05
4.01041e-05
2.18703e-05
1.50276e-05
1.56967e-05
1.82932e-05
2.31909e-05
2.50422e-05
2.85978e-05
3.14454e-05
4.15445e-05
5.47532e-05
6.58512e-05
7.87613e-05
8.44094e-05
7.82542e-05
6.87244e-05
5.15423e-05
3.79372e-05
2.47648e-05
1.66634e-05
1.1308e-05
7.79357e-06
5.42761e-06
6.3942e-05
6.18041e-05
8.16049e-05
9.36239e-05
7.82489e-05
5.88125e-05
5.23356e-05
4.38961e-05
2.8324e-05
2.58236e-05
3.31153e-05
5.31831e-05
5.38391e-05
5.85541e-05
5.45151e-05
4.65281e-05
4.51943e-05
4.3433e-05
4.30781e-05
4.69455e-05
4.55314e-05
4.34948e-05
3.89787e-05
3.20669e-05
2.99018e-05
3.03001e-05
3.73394e-05
4.64476e-05
5.33218e-05
5.21678e-05
4.6417e-05
3.84008e-05
7.57573e-05
9.72584e-05
9.9968e-05
9.87648e-05
9.28589e-05
6.88131e-05
6.09004e-05
5.73537e-05
5.68729e-05
5.90214e-05
5.66265e-05
5.42816e-05
4.80029e-05
4.21674e-05
3.50763e-05
3.49356e-05
3.36314e-05
3.53912e-05
4.11151e-05
4.98921e-05
5.31832e-05
6.09538e-05
7.0313e-05
8.22704e-05
9.25798e-05
9.08335e-05
7.57104e-05
5.80924e-05
9.3107e-05
9.61205e-05
9.08064e-05
7.67421e-05
7.3581e-05
7.54783e-05
7.62784e-05
8.04885e-05
7.8152e-05
8.48243e-05
8.40387e-05
8.7916e-05
9.01941e-05
9.46365e-05
9.5619e-05
9.46529e-05
9.13569e-05
8.36662e-05
7.74817e-05
6.96356e-05
6.66422e-05
6.80005e-05
6.96196e-05
7.21127e-05
7.4545e-05
7.62613e-05
7.60306e-05
7.34013e-05
6.49764e-05
5.04033e-05
9.67253e-05
0.000104082
9.92085e-05
9.70635e-05
9.88685e-05
0.000100252
9.76756e-05
9.71333e-05
9.42867e-05
8.97049e-05
8.81387e-05
9.1461e-05
0.000103179
0.000117287
0.000127244
0.000132245
0.00013602
0.000139831
0.000142552
0.000142982
0.00014239
0.000136386
0.000126178
0.000114982
0.000100878
9.65881e-05
9.75089e-05
0.00010587
0.000117309
0.000119263
7.72241e-05
7.29008e-05
7.6937e-05
7.33075e-05
8.77535e-05
9.84485e-05
9.48394e-05
8.16551e-05
5.15524e-05
4.06179e-05
4.5182e-05
5.97982e-05
6.73708e-05
7.51562e-05
7.78713e-05
7.88169e-05
7.97668e-05
7.91608e-05
8.02998e-05
8.4387e-05
8.88694e-05
9.15424e-05
9.08895e-05
7.60511e-05
3.54919e-05
7.95151e-06
3.73592e-06
4.20743e-06
8.33147e-06
1.81316e-05
0.000101815
0.000103163
8.97541e-05
8.24658e-05
8.75897e-05
9.52815e-05
0.00010075
0.000104316
0.000103727
0.000102725
0.000101108
0.000102169
9.73165e-05
9.48368e-05
9.12047e-05
9.09359e-05
8.96185e-05
8.98018e-05
9.09524e-05
8.97158e-05
9.13636e-05
9.32538e-05
9.55231e-05
9.59662e-05
9.71407e-05
9.72938e-05
9.87724e-05
9.75596e-05
9.63865e-05
0.000107848
6.3962e-05
5.80682e-05
5.8732e-05
6.34944e-05
6.95375e-05
7.20548e-05
7.56271e-05
7.97945e-05
8.15378e-05
8.56565e-05
7.81045e-05
7.41114e-05
6.69714e-05
6.58624e-05
6.65859e-05
6.70231e-05
6.3606e-05
5.72377e-05
5.13405e-05
5.51557e-05
7.2784e-05
8.44431e-05
8.76109e-05
8.70277e-05
8.75291e-05
8.9114e-05
9.2424e-05
9.50828e-05
8.59823e-05
6.40452e-05
8.2946e-05
7.88226e-05
7.66932e-05
7.69613e-05
7.04875e-05
6.31909e-05
5.0541e-05
4.21045e-05
3.9942e-05
3.48482e-05
3.4999e-05
3.23674e-05
3.26561e-05
3.11757e-05
3.33967e-05
3.4895e-05
3.80399e-05
4.06617e-05
4.03109e-05
4.07096e-05
4.45506e-05
5.57369e-05
7.5822e-05
8.90947e-05
8.78285e-05
8.2378e-05
7.8432e-05
7.79871e-05
7.54987e-05
7.28869e-05
7.31233e-05
7.04694e-05
6.68233e-05
6.15055e-05
5.65067e-05
5.24026e-05
4.02818e-05
3.23368e-05
1.96256e-05
1.43928e-05
1.05178e-05
8.35444e-06
7.63906e-06
6.61806e-06
8.09854e-06
9.84993e-06
1.43376e-05
2.26182e-05
3.72737e-05
5.43228e-05
6.54009e-05
6.71225e-05
6.65084e-05
6.65515e-05
6.81876e-05
7.00174e-05
7.0397e-05
6.71742e-05
6.43831e-05
7.10614e-05
6.43247e-05
6.54937e-05
7.25894e-05
7.94295e-05
8.25869e-05
8.31171e-05
8.50727e-05
8.35843e-05
8.34343e-05
7.93749e-05
7.61532e-05
7.23981e-05
6.72034e-05
6.64589e-05
6.72324e-05
6.74248e-05
6.61509e-05
6.64437e-05
6.55481e-05
5.5801e-05
2.67306e-05
1.32272e-05
1.24968e-05
2.822e-05
5.45048e-05
5.68956e-05
5.16074e-05
5.19078e-05
5.53219e-05
5.37771e-05
5.3551e-05
4.28791e-05
3.93946e-05
4.25545e-05
4.34219e-05
4.11577e-05
4.41578e-05
4.87713e-05
5.39574e-05
6.26009e-05
6.88168e-05
7.11198e-05
7.644e-05
7.57801e-05
7.36718e-05
6.64826e-05
6.49128e-05
6.05816e-05
5.74303e-05
5.67621e-05
5.27103e-05
4.73125e-05
4.35565e-05
4.83227e-05
6.63564e-05
7.46474e-05
7.81936e-05
7.22164e-05
2.86141e-05
1.85382e-07
4.75917e-05
0.000149393
0.000279991
0.000279754
0.000215156
0.000170805
0.000138833
0.000122637
0.000156757
0.000194191
0.000147432
0.000106879
0.000216312
0.000298451
3.54072e-06
6.78657e-06
1.60726e-05
3.90311e-05
6.06046e-05
6.87458e-05
6.68792e-05
5.14673e-05
2.37085e-05
1.46709e-05
1.54593e-05
1.95707e-05
2.26822e-05
2.45115e-05
2.69865e-05
3.22041e-05
4.58502e-05
5.99892e-05
8.10579e-05
9.79012e-05
0.000103404
0.000102363
8.53144e-05
6.65449e-05
4.46775e-05
3.0451e-05
1.83601e-05
1.25164e-05
8.40118e-06
5.30001e-06
6.17024e-05
5.84478e-05
8.01116e-05
9.80171e-05
9.6343e-05
9.35164e-05
9.24037e-05
6.98016e-05
3.82005e-05
3.02855e-05
3.71354e-05
5.51655e-05
5.84742e-05
5.57218e-05
4.54902e-05
3.58005e-05
3.59901e-05
3.42218e-05
4.08332e-05
4.34132e-05
4.49271e-05
4.77412e-05
4.4303e-05
3.73295e-05
3.10248e-05
2.79788e-05
2.95076e-05
4.12182e-05
5.0078e-05
5.06214e-05
4.40312e-05
3.83762e-05
7.43006e-05
9.50559e-05
9.75669e-05
9.88289e-05
9.01207e-05
6.31502e-05
5.98022e-05
5.63734e-05
5.94279e-05
6.07205e-05
5.92833e-05
5.26376e-05
4.77494e-05
3.58287e-05
3.0399e-05
2.8514e-05
2.93785e-05
3.26826e-05
3.67135e-05
4.34547e-05
5.06258e-05
5.40555e-05
6.11965e-05
7.07498e-05
8.20974e-05
8.48456e-05
7.12078e-05
5.7352e-05
9.19987e-05
9.08014e-05
7.97847e-05
7.46833e-05
7.50686e-05
7.70514e-05
7.92943e-05
7.91103e-05
8.33728e-05
8.65487e-05
8.6394e-05
9.28836e-05
9.67867e-05
9.90858e-05
0.000100955
0.000103283
0.00010074
9.56132e-05
8.4061e-05
7.58526e-05
6.78998e-05
6.38274e-05
6.43525e-05
6.57506e-05
6.82326e-05
7.19586e-05
7.34034e-05
7.20097e-05
6.40624e-05
4.92672e-05
9.52463e-05
0.000100855
9.7327e-05
9.78127e-05
0.000101265
0.000101696
0.000100284
0.000100514
9.60748e-05
9.12502e-05
9.00252e-05
9.62371e-05
0.000110391
0.000123254
0.000131396
0.000135124
0.000141224
0.000145548
0.000146487
0.00014869
0.000146501
0.000146029
0.000139435
0.000127585
0.000112534
0.000103161
0.000102069
0.00010757
0.000118959
0.000120418
7.77646e-05
7.57246e-05
7.80149e-05
8.49273e-05
9.95841e-05
9.48911e-05
8.68896e-05
6.01697e-05
3.621e-05
3.65611e-05
5.15698e-05
6.97417e-05
7.69227e-05
8.49706e-05
8.65312e-05
8.89695e-05
8.72648e-05
8.66692e-05
8.47402e-05
8.55376e-05
8.90923e-05
9.17755e-05
9.20149e-05
8.55079e-05
4.65267e-05
9.17198e-06
4.02671e-06
4.6817e-06
9.50323e-06
1.93338e-05
0.000100519
9.2855e-05
7.88106e-05
8.28169e-05
9.19182e-05
0.000100864
0.000105114
0.000103788
0.000103972
0.000104137
0.000102048
9.92045e-05
9.23315e-05
9.01434e-05
8.37639e-05
8.38308e-05
8.39022e-05
8.5599e-05
8.73052e-05
9.06359e-05
8.96585e-05
9.34019e-05
9.37288e-05
9.73825e-05
9.56814e-05
9.82393e-05
9.76146e-05
0.000100288
9.64925e-05
0.000107875
6.70918e-05
6.57125e-05
7.24341e-05
7.18153e-05
7.57711e-05
7.97533e-05
8.22289e-05
8.42385e-05
8.7009e-05
7.21711e-05
5.81368e-05
4.52413e-05
4.01629e-05
3.60915e-05
4.30664e-05
5.40001e-05
5.96723e-05
6.00419e-05
5.38257e-05
5.31497e-05
5.95884e-05
7.88169e-05
8.77111e-05
8.75473e-05
8.80959e-05
8.91324e-05
9.28913e-05
9.60813e-05
8.85111e-05
6.73861e-05
8.44651e-05
7.71395e-05
7.70329e-05
7.35183e-05
6.77144e-05
5.19575e-05
4.59139e-05
3.8046e-05
3.59977e-05
3.29381e-05
3.3037e-05
3.18905e-05
3.00342e-05
2.95673e-05
2.9052e-05
3.12177e-05
3.44251e-05
3.54933e-05
3.68499e-05
3.73978e-05
3.87664e-05
4.7441e-05
6.9594e-05
8.48388e-05
8.62225e-05
8.31866e-05
7.97325e-05
7.81307e-05
7.62474e-05
7.40491e-05
7.56919e-05
6.81864e-05
6.47853e-05
6.24231e-05
5.55796e-05
5.11437e-05
3.789e-05
2.78747e-05
1.51763e-05
1.08938e-05
7.35969e-06
5.73636e-06
5.08768e-06
4.93296e-06
5.18005e-06
6.0523e-06
8.93926e-06
1.34866e-05
2.57103e-05
4.23488e-05
5.8494e-05
6.60412e-05
6.73551e-05
6.66299e-05
6.66186e-05
6.77083e-05
6.72473e-05
6.441e-05
6.42015e-05
7.07232e-05
6.38089e-05
6.64179e-05
7.75735e-05
8.43283e-05
8.82546e-05
9.22823e-05
9.30225e-05
9.45322e-05
9.41247e-05
9.19985e-05
8.57707e-05
7.77889e-05
7.07038e-05
6.73463e-05
6.5025e-05
6.48875e-05
6.42073e-05
6.26089e-05
6.30259e-05
5.91126e-05
2.70334e-05
9.66484e-06
1.12379e-05
2.59791e-05
5.50101e-05
5.59215e-05
5.15526e-05
5.15815e-05
5.51905e-05
5.43824e-05
5.50816e-05
3.93736e-05
3.7252e-05
4.08458e-05
4.12887e-05
4.29127e-05
4.77374e-05
5.35827e-05
6.18092e-05
7.07705e-05
8.3005e-05
9.09499e-05
9.44479e-05
9.55353e-05
9.02176e-05
7.69021e-05
7.09126e-05
6.19034e-05
6.02443e-05
5.61807e-05
5.48345e-05
5.00753e-05
4.20458e-05
4.27346e-05
6.10597e-05
7.19159e-05
7.38716e-05
6.95542e-05
1.07586e-05
1.49899e-07
5.05794e-05
0.000178807
0.000278144
0.000227709
0.000164754
0.000133444
0.000116769
9.07466e-05
9.08193e-05
0.000131211
0.000117929
0.00010164
0.000211023
0.000296633
4.01866e-06
7.91607e-06
2.06103e-05
4.73833e-05
6.52872e-05
6.84751e-05
6.87602e-05
6.3356e-05
2.74218e-05
1.48175e-05
1.44895e-05
1.98864e-05
2.22704e-05
2.31118e-05
2.48947e-05
3.12314e-05
4.59449e-05
6.31249e-05
8.16834e-05
9.37056e-05
0.00010622
0.000104375
9.08447e-05
7.03196e-05
4.74149e-05
3.33453e-05
1.88408e-05
1.28708e-05
7.89954e-06
5.59848e-06
5.5877e-05
5.24422e-05
8.13107e-05
0.000100694
0.000104495
0.000106918
0.000104994
8.71139e-05
4.4844e-05
3.33734e-05
4.26679e-05
5.90419e-05
6.06319e-05
4.86546e-05
3.64152e-05
3.19745e-05
3.03732e-05
3.44682e-05
4.08173e-05
4.34983e-05
4.80991e-05
4.89527e-05
4.87649e-05
4.09477e-05
3.31775e-05
2.77314e-05
2.80108e-05
3.44812e-05
4.68032e-05
5.21309e-05
4.20578e-05
3.80431e-05
7.52434e-05
9.28277e-05
9.70731e-05
9.96525e-05
8.10438e-05
6.09317e-05
5.83461e-05
5.74964e-05
6.22659e-05
6.32218e-05
5.98936e-05
5.15214e-05
4.34589e-05
3.13303e-05
2.85235e-05
2.82191e-05
2.83488e-05
3.24104e-05
3.47839e-05
4.38773e-05
4.72619e-05
5.2604e-05
5.38629e-05
6.28779e-05
7.28514e-05
7.72635e-05
6.69348e-05
5.28131e-05
9.0493e-05
8.44268e-05
7.40271e-05
7.44054e-05
7.65805e-05
7.64991e-05
7.80003e-05
8.07559e-05
8.40718e-05
8.35179e-05
8.83323e-05
9.22911e-05
9.61902e-05
0.000102832
0.000106587
0.000109004
0.000102606
9.93199e-05
8.79765e-05
7.45983e-05
6.78154e-05
6.04008e-05
5.90243e-05
6.07989e-05
6.39594e-05
6.88233e-05
7.17155e-05
7.07828e-05
6.18224e-05
5.10478e-05
9.45413e-05
9.9956e-05
9.83834e-05
0.00010108
0.000105369
0.000105784
0.000102238
9.7551e-05
9.52315e-05
9.1262e-05
9.06427e-05
9.8069e-05
0.000113511
0.000124829
0.00013176
0.000138437
0.000144846
0.000149248
0.000152787
0.000153769
0.000150239
0.000149826
0.000145203
0.000135671
0.000121331
0.000110281
0.000106075
0.000112226
0.000122599
0.000120685
7.6303e-05
8.05058e-05
8.54185e-05
9.69658e-05
9.60839e-05
9.57358e-05
7.30155e-05
4.03611e-05
3.11962e-05
3.69665e-05
5.26599e-05
6.92897e-05
8.15134e-05
8.74403e-05
8.8399e-05
8.74939e-05
8.84555e-05
8.87358e-05
8.80839e-05
8.71609e-05
8.98226e-05
9.34874e-05
9.33363e-05
8.59585e-05
4.35391e-05
8.28835e-06
4.58391e-06
5.57123e-06
1.15758e-05
1.97838e-05
9.93589e-05
8.61202e-05
8.02406e-05
8.65119e-05
9.3819e-05
0.000101578
0.000106571
0.000104618
0.000104558
0.000103069
9.95442e-05
9.34198e-05