/*--------------------------------*- C++ -*----------------------------------*\
| =========                 |                                                 |
| \\      /  F ield         | OpenFOAM: The Open Source CFD Toolbox           |
|  \\    /   O peration     | Version:  2.1.1                                 |
|   \\  /    A nd           | Web:      www.OpenFOAM.org                      |
|    \\/     M anipulation  |                                                 |
\*---------------------------------------------------------------------------*/
FoamFile
{
    version     2.0;
    format      ascii;
    class       volScalarField;
    location    "0.005200000";
    object      H2O2;
}
// * * * * * * * * * * * * * * * * * * * * * * * * * * * * * * * * * * * * * //

dimensions      [0 0 0 0 0 0 0];

internalField   nonuniform List<scalar> 
12384
(
6.89246e-07
8.62856e-07
9.66299e-07
1.01768e-06
1.03685e-06
1.10063e-06
1.03043e-06
1.00716e-06
9.7454e-07
9.13032e-07
7.01693e-07
5.33316e-07
6.70924e-07
1.28624e-06
7.34842e-07
7.43874e-07
6.99195e-07
6.81774e-07
7.03691e-07
7.36665e-07
7.73603e-07
7.95328e-07
8.14814e-07
8.51567e-07
8.37909e-07
8.77095e-07
8.68861e-07
8.85341e-07
9.18073e-07
9.17523e-07
9.50219e-07
9.48462e-07
9.80565e-07
9.74921e-07
9.92097e-07
9.90313e-07
9.91993e-07
9.83244e-07
9.78506e-07
9.69417e-07
9.59444e-07
9.40678e-07
9.59076e-07
9.785e-07
5.05107e-07
4.67606e-07
4.99239e-07
5.05804e-07
4.7636e-07
5.04798e-07
6.53826e-07
9.14001e-07
1.00142e-06
1.05047e-06
1.02294e-06
9.92972e-07
9.15708e-07
8.05928e-07
7.95985e-07
6.5215e-07
6.68507e-07
5.32254e-07
5.41729e-07
3.88544e-07
3.64045e-07
3.42932e-07
3.10016e-07
2.7971e-07
2.50792e-07
2.24683e-07
2.35732e-07
4.78334e-07
8.00677e-07
8.13311e-07
3.50011e-07
5.50836e-07
5.72224e-07
3.46433e-07
2.40101e-07
1.54158e-07
1.67322e-07
1.93259e-07
2.85574e-07
3.49097e-07
3.60037e-07
3.97348e-07
3.99387e-07
4.21677e-07
4.13561e-07
4.16528e-07
3.7664e-07
3.63634e-07
3.14024e-07
2.13292e-07
1.9817e-07
2.15009e-07
2.13806e-07
2.24656e-07
2.48806e-07
4.3495e-07
5.63323e-07
7.82542e-07
9.3861e-07
9.79865e-07
1.30219e-07
1.36612e-07
1.4824e-07
1.48325e-07
1.4303e-07
1.49952e-07
1.36676e-07
1.51213e-07
1.19941e-07
1.40287e-07
1.06557e-07
1.22197e-07
1.0226e-07
1.12251e-07
1.10824e-07
1.14485e-07
1.17088e-07
1.24979e-07
1.29467e-07
1.39604e-07
1.47424e-07
1.6328e-07
1.73223e-07
2.70624e-07
3.55501e-07
6.62106e-07
9.27983e-07
9.48434e-07
9.2784e-07
8.5542e-07
1.43131e-07
8.42446e-08
7.21522e-08
6.92212e-08
6.48772e-08
6.12392e-08
5.55138e-08
4.90876e-08
4.61889e-08
3.87759e-08
3.68595e-08
3.56004e-08
3.48881e-08
3.85055e-08
3.92189e-08
4.23243e-08
4.42614e-08
4.51474e-08
4.703e-08
4.84095e-08
4.95572e-08
5.29193e-08
5.54905e-08
5.82921e-08
6.04755e-08
6.52842e-08
7.16677e-08
7.99879e-08
1.72116e-07
4.80362e-07
4.24263e-07
1.90492e-07
3.90295e-07
4.35934e-07
5.40445e-07
5.45278e-07
5.48924e-07
5.85397e-07
5.11033e-07
3.78416e-07
2.98353e-07
2.7955e-07
2.48742e-07
2.41773e-07
2.39673e-07
2.50739e-07
2.62094e-07
2.8979e-07
3.20076e-07
4.56535e-07
5.66393e-07
6.92645e-07
7.54218e-07
7.64669e-07
7.57366e-07
7.54619e-07
7.68935e-07
7.57619e-07
6.82479e-07
5.99839e-07
9.82698e-07
9.78316e-07
8.25191e-07
5.159e-07
3.39543e-07
1.66198e-07
1.27775e-07
8.11824e-08
6.92504e-08
6.429e-08
5.68369e-08
5.49074e-08
4.97959e-08
5.06758e-08
4.78094e-08
5.04856e-08
4.96473e-08
5.50509e-08
5.93614e-08
6.37544e-08
7.07424e-08
7.09649e-08
7.5071e-08
7.75769e-08
1.47954e-07
1.51324e-07
1.46286e-07
1.53801e-07
1.85924e-07
2.00484e-07
9.85059e-08
8.72331e-08
8.37417e-08
8.809e-08
9.17795e-08
9.78624e-08
9.94724e-08
1.05182e-07
1.08562e-07
1.13179e-07
1.17903e-07
1.17632e-07
1.21009e-07
1.1824e-07
1.198e-07
1.18874e-07
1.12833e-07
1.01241e-07
8.24559e-08
5.31432e-08
4.01803e-08
2.55674e-08
8.88783e-09
6.03731e-09
5.70307e-09
5.32648e-09
5.94631e-09
5.51384e-09
5.66301e-09
5.16446e-09
1.08743e-06
9.40298e-07
8.1052e-07
6.0685e-07
5.27327e-07
4.5844e-07
4.0519e-07
3.55797e-07
3.26688e-07
3.10212e-07
2.7253e-07
2.93235e-07
2.74361e-07
2.8003e-07
2.90806e-07
2.92767e-07
3.03319e-07
3.11544e-07
3.10194e-07
2.95258e-07
1.76019e-07
1.11466e-07
4.99819e-08
4.81435e-08
4.86929e-08
4.27773e-08
3.96155e-08
3.9855e-08
4.03995e-08
4.01747e-08
6.43824e-08
4.36661e-08
3.66845e-08
2.98505e-08
2.62438e-08
2.31472e-08
1.93877e-08
2.43542e-08
1.60356e-08
2.01821e-08
1.69807e-08
1.73207e-08
1.39737e-08
1.73052e-08
1.50659e-08
1.42215e-08
1.75433e-08
1.85783e-08
2.05794e-08
1.7691e-08
1.35728e-08
1.12941e-08
1.50397e-08
1.9629e-08
2.09995e-08
2.27918e-08
2.41039e-08
2.55736e-08
2.62191e-08
2.60194e-08
5.66785e-07
2.6668e-08
1.40941e-08
3.09118e-08
6.95558e-08
7.57433e-08
6.01226e-08
3.68344e-08
2.8135e-08
2.01044e-08
1.88575e-08
1.77677e-08
1.65736e-08
1.61115e-08
1.55795e-08
1.53632e-08
1.56479e-08
1.51302e-08
1.48682e-08
1.4745e-08
1.32571e-08
1.40946e-08
1.23028e-08
1.30013e-08
1.29908e-08
1.87422e-08
2.83362e-08
4.25553e-08
6.95042e-08
4.86262e-07
1.80086e-07
1.82674e-07
1.94198e-07
2.14808e-07
2.22634e-07
2.82105e-07
6.04759e-08
1.53134e-09
1.56692e-09
1.53551e-09
1.52301e-09
1.4719e-09
1.5895e-09
1.50839e-09
1.70416e-09
1.59984e-09
1.8674e-09
1.86627e-09
1.96434e-09
2.2623e-09
2.32114e-09
3.8873e-09
6.27034e-09
1.00276e-08
1.06719e-08
1.1028e-08
1.55509e-08
9.25378e-08
6.10946e-07
3.27058e-07
1.29385e-06
1.32839e-06
1.32401e-06
1.31882e-06
1.2692e-06
1.24543e-06
1.23545e-06
1.23765e-06
1.24173e-06
1.22514e-06
1.09171e-06
6.88953e-07
6.2836e-07
1.07697e-06
7.21204e-07
7.09682e-07
6.89487e-07
7.22172e-07
7.69903e-07
8.21609e-07
8.43194e-07
8.70818e-07
8.92345e-07
8.95758e-07
9.08272e-07
9.32179e-07
9.38526e-07
1.00157e-06
1.02767e-06
1.073e-06
1.10964e-06
1.12542e-06
1.15782e-06
1.15356e-06
1.16883e-06
1.13725e-06
1.13351e-06
1.10771e-06
1.04878e-06
1.02956e-06
9.82547e-07
9.60191e-07
9.54302e-07
9.33806e-07
5.09364e-07
4.80168e-07
5.0312e-07
4.86439e-07
5.35836e-07
8.86155e-07
1.14039e-06
1.16479e-06
1.16898e-06
1.18511e-06
1.17282e-06
1.1836e-06
1.09968e-06
1.06883e-06
9.98151e-07
9.06761e-07
8.5411e-07
8.33743e-07
7.45376e-07
7.52083e-07
6.51163e-07
5.94089e-07
5.29254e-07
3.87776e-07
3.29809e-07
2.71896e-07
2.4222e-07
3.02596e-07
5.01493e-07
6.69025e-07
3.94761e-07
5.74936e-07
4.03455e-07
2.3028e-07
1.3804e-07
1.52308e-07
2.0067e-07
3.60529e-07
4.58504e-07
4.90648e-07
5.12878e-07
5.07906e-07
5.19419e-07
5.16992e-07
5.23757e-07
5.13761e-07
5.02529e-07
4.74423e-07
4.52532e-07
4.11513e-07
3.87215e-07
3.68414e-07
3.42934e-07
2.43039e-07
2.31778e-07
3.78159e-07
4.55919e-07
5.60917e-07
7.84253e-07
9.04392e-07
1.32869e-07
1.39278e-07
1.40995e-07
1.47762e-07
1.5717e-07
1.76621e-07
2.96885e-07
3.46852e-07
3.2898e-07
3.66356e-07
3.31901e-07
3.42704e-07
3.26603e-07
3.19521e-07
3.04269e-07
2.91529e-07
2.5998e-07
2.37235e-07
2.18865e-07
1.45968e-07
1.47459e-07
1.56847e-07
1.6754e-07
1.7861e-07
2.91558e-07
3.87642e-07
5.37191e-07
7.41876e-07
7.63437e-07
7.44087e-07
1.37836e-07
7.80699e-08
6.52198e-08
5.76204e-08
4.98761e-08
3.84097e-08
3.57028e-08
3.33157e-08
3.17742e-08
2.98181e-08
2.9026e-08
2.90382e-08
3.61631e-08
4.13333e-08
4.64317e-08
5.10934e-08
5.43923e-08
5.66855e-08
5.76281e-08
5.71047e-08
5.71473e-08
5.58718e-08
5.52432e-08
5.62777e-08
5.77751e-08
6.19081e-08
6.77519e-08
7.51605e-08
1.00398e-07
2.16031e-07
3.60439e-07
3.20293e-07
4.12105e-07
4.1042e-07
3.91799e-07
4.5718e-07
4.3032e-07
3.2119e-07
1.15639e-07
8.77117e-08
8.34404e-08
7.75376e-08
8.19968e-08
8.04829e-08
7.51148e-08
7.35958e-08
7.33555e-08
7.70276e-08
8.84595e-08
1.02021e-07
1.86932e-07
2.93372e-07
5.14147e-07
7.22735e-07
7.65827e-07
7.47298e-07
7.47797e-07
7.64947e-07
7.23762e-07
6.52158e-07
2.12618e-07
1.62306e-07
9.38442e-08
8.24823e-08
6.88466e-08
5.13289e-08
3.64404e-08
3.21611e-08
2.78735e-08
2.73926e-08
2.46534e-08
2.46845e-08
2.34943e-08
2.4087e-08
2.30464e-08
2.42749e-08
2.56296e-08
2.8932e-08
3.68681e-08
4.63877e-08
5.67865e-08
6.57144e-08
7.1109e-08
7.4674e-08
1.12544e-07
1.43875e-07
1.73747e-07
1.62493e-07
1.60978e-07
1.77585e-07
6.78565e-08
1.15264e-07
1.51431e-07
2.80523e-07
3.22596e-07
3.48351e-07
3.67711e-07
3.81983e-07
3.92826e-07
4.00428e-07
4.08576e-07
4.03855e-07
3.98569e-07
3.77094e-07
3.49761e-07
3.16118e-07
2.73435e-07
1.60965e-07
1.34832e-07
8.93597e-08
5.18893e-08
3.1919e-08
1.56984e-08
1.02138e-08
1.17835e-08
1.23619e-08
1.32638e-08
1.00828e-08
7.16127e-09
5.53037e-09
6.41341e-07
4.37566e-07
1.99956e-07
1.54476e-07
1.23749e-07
1.07449e-07
9.78245e-08
9.01903e-08
8.71348e-08
8.09455e-08
8.60087e-08
7.94076e-08
8.8865e-08
1.47617e-07
1.84338e-07
2.1442e-07
2.48281e-07
2.79726e-07
3.03723e-07
3.12476e-07
2.95701e-07
1.51216e-07
6.2656e-08
4.58578e-08
4.33409e-08
3.57595e-08
3.40555e-08
3.41886e-08
3.56866e-08
3.6493e-08
4.29625e-08
2.45422e-08
2.31181e-08
2.49382e-08
3.42621e-08
3.75625e-08
4.09527e-08
5.05105e-08
5.8823e-08
6.48973e-08
7.02385e-08
7.24123e-08
7.00758e-08
6.59713e-08
5.79331e-08
4.65121e-08
3.24099e-08
3.0374e-08
2.64274e-08
2.09297e-08
1.75168e-08
1.2666e-08
1.19094e-08
1.8267e-08
2.22194e-08
2.43497e-08
2.5411e-08
2.45893e-08
2.44902e-08
2.54736e-08
4.54409e-08
1.6532e-08
2.75218e-08
5.2848e-08
4.14592e-08
2.73998e-08
1.62144e-08
1.18942e-08
1.07155e-08
1.00425e-08
9.74134e-09
9.83348e-09
1.01367e-08
1.09883e-08
1.23776e-08
1.69722e-08
1.95333e-08
2.17339e-08
2.19587e-08
2.53947e-08
2.16421e-08
1.77835e-08
1.43663e-08
1.25085e-08
1.07399e-08
1.13334e-08
1.75362e-08
2.80669e-08
5.09829e-08
7.05879e-07
2.1389e-07
3.64451e-07
5.87249e-07
6.84424e-07
7.33214e-07
3.35219e-07
3.57864e-09
1.54915e-09
1.51373e-09
1.51681e-09
1.5633e-09
1.6122e-09
1.68568e-09
1.7566e-09
1.96452e-09
1.92114e-09
2.06059e-09
1.94064e-09
1.90961e-09
1.66458e-09
1.45578e-09
1.52249e-09
2.89866e-09
1.13786e-08
1.85928e-08
1.42564e-08
1.24502e-08
2.53409e-08
8.06602e-07
3.78965e-07
1.34791e-06
1.32906e-06
1.28485e-06
1.11601e-06
9.35283e-07
8.86289e-07
8.73112e-07
9.11011e-07
9.8076e-07
1.15351e-06
1.17933e-06
9.7622e-07
7.17364e-07
1.00764e-06
7.10741e-07
6.9751e-07
7.26113e-07
7.74871e-07
8.20941e-07
8.26704e-07
8.14896e-07
8.60166e-07
8.87563e-07
8.99318e-07
9.24671e-07
9.40289e-07
1.01213e-06
1.07669e-06
1.14503e-06
1.18543e-06
1.24584e-06
1.26035e-06
1.29626e-06
1.3029e-06
1.3132e-06
1.30206e-06
1.29076e-06
1.2397e-06
1.20431e-06
1.11141e-06
1.04847e-06
9.89702e-07
9.51928e-07
9.28823e-07
5.21892e-07
5.03835e-07
5.00471e-07
4.83134e-07
6.02585e-07
1.07096e-06
1.14316e-06
1.15825e-06
1.16628e-06
1.20035e-06
1.19418e-06
1.1706e-06
1.07377e-06
1.04062e-06
9.36302e-07
8.63787e-07
7.3448e-07
7.62489e-07
6.9877e-07
6.89006e-07
6.97403e-07
7.16479e-07
6.64685e-07
6.16275e-07
5.20318e-07
3.65765e-07
2.95477e-07
2.80374e-07
3.39601e-07
5.26038e-07
4.1981e-07
5.6592e-07
3.30747e-07
1.31173e-07
1.18139e-07
1.45139e-07
2.02062e-07
4.13264e-07
4.93141e-07
5.05217e-07
4.95946e-07
4.97251e-07
4.85756e-07
4.97236e-07
5.05007e-07
5.1964e-07
5.17667e-07
5.15429e-07
4.94489e-07
4.81019e-07
4.59795e-07
4.50849e-07
4.27864e-07
3.8811e-07
3.68917e-07
2.41399e-07
4.04707e-07
4.70728e-07
5.92349e-07
8.16081e-07
1.34183e-07
1.30252e-07
1.36e-07
1.69075e-07
3.33828e-07
4.47186e-07
4.87472e-07
5.38303e-07
5.32296e-07
5.48308e-07
5.13582e-07
5.35736e-07
5.09631e-07
4.923e-07
4.74274e-07
4.5518e-07
4.3636e-07
3.88141e-07
3.39406e-07
3.06856e-07
2.65485e-07
2.43895e-07
1.65575e-07
2.56468e-07
2.74653e-07
3.08383e-07
3.78344e-07
4.48362e-07
5.20831e-07
6.73572e-07
1.26019e-07
7.07858e-08
5.87228e-08
5.18613e-08
4.77291e-08
4.88775e-08
5.11307e-08
4.97215e-08
4.34478e-08
4.06562e-08
3.75711e-08
4.09704e-08
4.84818e-08
6.11563e-08
7.23978e-08
7.99915e-08
8.51436e-08
8.62424e-08
8.64549e-08
8.44878e-08
9.26658e-08
9.02737e-08
8.08354e-08
6.36944e-08
6.14686e-08
6.24468e-08
6.52705e-08
7.21302e-08
8.72995e-08
1.69979e-07
2.00001e-07
3.26002e-07
3.51476e-07
3.51964e-07
4.25808e-07
4.46231e-07
1.36056e-07
6.43092e-08
5.91376e-08
7.62512e-08
1.07661e-07
1.13565e-07
1.17457e-07
1.18243e-07
1.07204e-07
1.04862e-07
9.73103e-08
8.44e-08
7.64255e-08
6.08595e-08
6.39001e-08
9.36582e-08
1.98655e-07
4.64699e-07
7.51731e-07
7.44902e-07
7.3716e-07
7.48608e-07
7.53935e-07
6.57775e-07
1.3741e-07
8.13224e-08
7.22864e-08
4.34877e-08
2.98643e-08
2.29529e-08
1.94301e-08
2.15792e-08
2.34007e-08
2.72161e-08
2.85149e-08
3.15368e-08
2.97235e-08
3.16293e-08
2.87995e-08
2.92016e-08
2.85089e-08
2.90432e-08
3.56784e-08
4.05687e-08
4.94892e-08
5.7648e-08
6.54646e-08
7.07341e-08
7.86639e-08
1.12101e-07
1.5342e-07
1.74748e-07
1.787e-07
1.75477e-07
3.71788e-07
4.02319e-07
4.21419e-07
4.32388e-07
4.37607e-07
4.47628e-07
4.45933e-07
4.53546e-07
4.51203e-07
4.63146e-07
4.59299e-07
4.84882e-07
4.86826e-07
4.99226e-07
4.95824e-07
4.89465e-07
4.67726e-07
4.19779e-07
3.39064e-07
1.52198e-07
8.65689e-08
4.90965e-08
2.81944e-08
1.87843e-08
2.01753e-08
2.60423e-08
3.16165e-08
2.36269e-08
1.26103e-08
6.3054e-09
3.64897e-07
1.75792e-07
1.18948e-07
8.35881e-08
7.4355e-08
7.35515e-08
7.85175e-08
8.36117e-08
8.78915e-08
8.61631e-08
8.91549e-08
8.57109e-08
1.45038e-07
1.53829e-07
1.72285e-07
1.92474e-07
2.17983e-07
2.53538e-07
2.93658e-07
3.22358e-07
3.29678e-07
2.66373e-07
9.66447e-08
4.90842e-08
4.04894e-08
3.42458e-08
3.12303e-08
3.32718e-08
3.55436e-08
3.54364e-08
2.71764e-08
2.34981e-08
3.45188e-08
4.43398e-08
6.83367e-08
8.0374e-08
8.77168e-08
1.83358e-07
2.38241e-07
2.71815e-07
3.11606e-07
3.27906e-07
3.30066e-07
3.96127e-07
2.9501e-07
2.51724e-07
1.74115e-07
7.39611e-08
4.1576e-08
3.11172e-08
2.09366e-08
1.51964e-08
1.17019e-08
1.28203e-08
2.0834e-08
2.35497e-08
2.28711e-08
2.07112e-08
2.05092e-08
2.42316e-08
2.24754e-08
2.41355e-08
4.11659e-08
3.94568e-08
2.13027e-08
1.41893e-08
1.24095e-08
1.20914e-08
1.16527e-08
1.13317e-08
1.12192e-08
1.17954e-08
1.52859e-08
1.97137e-08
2.70176e-08
3.75637e-08
4.23337e-08
4.41238e-08
5.74664e-08
7.76596e-08
8.93677e-08
8.46207e-08
6.27264e-08
2.91077e-08
1.45066e-08
1.11104e-08
1.13585e-08
2.04097e-08
3.0422e-08
2.60361e-07
4.08613e-07
5.3545e-07
2.87497e-08
4.42648e-08
3.13904e-08
5.2399e-09
1.59007e-09
1.52197e-09
1.51642e-09
1.7196e-09
2.01288e-09
2.19292e-09
2.71505e-09
2.79102e-09
2.85789e-09
2.93041e-09
2.79672e-09
2.99359e-09
2.96403e-09
2.27765e-09
1.84229e-09
1.31961e-09
1.47374e-09
5.64334e-09
3.09002e-08
3.47698e-08
1.48963e-08
1.803e-08
3.5763e-07
3.95869e-07
1.34158e-06
1.32803e-06
1.00256e-06
8.25136e-07
7.09815e-07
7.42551e-07
7.46152e-07
7.41232e-07
7.45195e-07
9.6051e-07
1.15926e-06
1.12158e-06
7.44843e-07
9.76625e-07
7.05027e-07
6.99131e-07
7.48744e-07
7.97642e-07
7.54681e-07
6.87441e-07
6.96938e-07
8.23874e-07
8.82453e-07
9.12547e-07
9.22682e-07
9.8688e-07
1.06448e-06
1.1516e-06
1.19849e-06
1.25354e-06
1.27011e-06
1.30425e-06
1.31343e-06
1.3398e-06
1.36294e-06
1.39011e-06
1.3745e-06
1.36847e-06
1.30879e-06
1.24503e-06
1.11863e-06
1.03861e-06
9.88868e-07
9.27713e-07
5.49896e-07
5.41865e-07
5.04882e-07
4.73584e-07
5.99926e-07
1.02035e-06
1.11252e-06
1.13433e-06
1.16813e-06
1.21058e-06
1.16462e-06
1.12327e-06
1.05093e-06
8.84753e-07
8.13826e-07
7.5006e-07
6.66281e-07
6.02399e-07
6.18266e-07
5.6326e-07
6.23427e-07
6.33648e-07
6.74172e-07
7.156e-07
6.52495e-07
5.55013e-07
3.82011e-07
3.22674e-07
3.17866e-07
4.14426e-07
4.38419e-07
5.54149e-07
2.65348e-07
1.05063e-07
7.77662e-08
1.11094e-07
1.8422e-07
4.45038e-07
4.95008e-07
4.69919e-07
4.70683e-07
4.50823e-07
4.58956e-07
4.654e-07
4.92523e-07
6.16033e-07
6.67497e-07
6.66031e-07
6.69508e-07
6.27923e-07
5.92034e-07
4.99466e-07
4.8797e-07
4.51863e-07
4.17488e-07
3.87377e-07
3.76868e-07
4.37718e-07
5.31535e-07
7.78869e-07
1.30351e-07
1.24619e-07
1.58445e-07
3.68665e-07
5.30736e-07
6.34504e-07
6.28242e-07
6.57626e-07
6.29884e-07
6.17562e-07
5.98129e-07
5.96947e-07
5.64364e-07
5.66783e-07
5.61296e-07
5.52785e-07
5.32299e-07
5.1678e-07
4.62574e-07
4.07379e-07
3.58738e-07
3.09282e-07
2.83758e-07
2.81341e-07
2.87374e-07
2.99387e-07
3.23141e-07
3.62017e-07
4.32944e-07
6.18785e-07
1.13067e-07
6.42755e-08
5.5321e-08
5.40275e-08
6.09652e-08
6.8767e-08
7.23904e-08
6.74578e-08
6.00616e-08
5.1177e-08
4.43771e-08
4.8546e-08
6.53045e-08
8.37199e-08
9.49778e-08
9.91346e-08
9.84621e-08
9.59131e-08
9.48831e-08
9.39607e-08
9.34149e-08
9.08203e-08
8.63194e-08
7.80541e-08
6.88236e-08
6.71822e-08
6.72112e-08
7.12308e-08
8.19902e-08
1.42051e-07
1.8846e-07
3.03197e-07
3.14476e-07
3.77224e-07
4.0804e-07
1.21542e-07
5.2695e-08
4.90845e-08
1.06438e-07
2.34528e-07
3.00826e-07
2.96326e-07
2.58311e-07
2.1228e-07
1.2296e-07
1.16892e-07
1.10311e-07
1.07355e-07
9.51529e-08
7.66119e-08
5.94023e-08
5.97325e-08
8.63159e-08
2.24153e-07
5.90328e-07
7.64495e-07
7.32021e-07
7.37483e-07
7.53336e-07
6.55552e-07
8.50542e-08
6.90286e-08
3.97482e-08
1.97817e-08
1.69553e-08
1.84694e-08
2.72572e-08
3.62248e-08
5.84001e-08
6.88144e-08
7.67987e-08
7.48142e-08
7.08047e-08
6.85291e-08
5.9945e-08
5.81267e-08
5.3894e-08
5.05005e-08
4.61173e-08
4.8037e-08
4.77604e-08
5.75319e-08
6.15337e-08
6.92393e-08
7.18118e-08
7.89287e-08
1.20812e-07
1.60927e-07
1.82584e-07
1.81247e-07
4.36878e-07
4.13742e-07
3.87611e-07
3.71982e-07
3.58778e-07
3.40615e-07
3.2744e-07
3.09963e-07
3.11211e-07
3.13825e-07
3.44111e-07
3.61029e-07
3.95448e-07
4.08664e-07
4.41321e-07
4.59635e-07
4.91013e-07
5.08082e-07
4.77277e-07
3.73406e-07
1.45813e-07
6.51666e-08
4.47066e-08
2.83018e-08
2.67429e-08
3.16736e-08
4.80312e-08
3.99396e-08
2.00561e-08
7.60224e-09
1.80545e-07
1.08614e-07
5.53025e-08
5.25979e-08
7.43745e-08
1.01271e-07
1.21467e-07
2.42763e-07
2.86516e-07
2.95511e-07
3.02737e-07
2.88771e-07
2.67444e-07
2.55037e-07
2.38764e-07
2.304e-07
2.32542e-07
2.50861e-07
2.87432e-07
3.23396e-07
3.46652e-07
3.20048e-07
1.33163e-07
5.6545e-08
3.99031e-08
3.26138e-08
3.14196e-08
3.24284e-08
3.63969e-08
3.42455e-08
2.01514e-08
3.55066e-08
4.62528e-08
6.92329e-08
7.95172e-08
8.93e-08
2.18013e-07
2.81955e-07
4.22372e-07
5.32751e-07
6.11833e-07
6.40105e-07
6.50122e-07
6.4347e-07
6.27925e-07
5.5689e-07
4.54643e-07
2.77083e-07
9.22936e-08
5.81559e-08
3.11666e-08
1.91014e-08
1.22192e-08
1.1322e-08
1.63865e-08
2.08291e-08
2.03681e-08
1.66266e-08
1.67363e-08
2.22656e-08
1.8853e-08
3.4803e-08
4.13082e-08
2.48866e-08
1.8603e-08
1.61154e-08
1.77144e-08
1.83621e-08
1.84264e-08
1.73801e-08
1.68299e-08
1.78637e-08
1.9927e-08
2.66571e-08
3.41945e-08
3.66175e-08
3.11241e-08
2.94798e-08
3.98619e-08
8.68498e-08
2.61748e-07
4.53836e-07
3.41e-07
1.84722e-07
3.13843e-08
1.28495e-08
1.01961e-08
1.32548e-08
2.58937e-08
1.44894e-07
7.60406e-07
9.78515e-09
3.40272e-09
6.55559e-09
4.16372e-09
1.63594e-09
1.37725e-09
1.53428e-09
1.86499e-09
2.29021e-09
3.21589e-09
3.69857e-09
3.84167e-09
3.93027e-09
3.62477e-09
3.29796e-09
3.12536e-09
3.03388e-09
3.43735e-09
3.30022e-09
2.3586e-09
1.40966e-09
1.2634e-09
2.40703e-09
2.01123e-08
4.63671e-08
2.28214e-08
1.87306e-08
3.17876e-07
4.02756e-07
1.35973e-06
1.19712e-06
8.19196e-07
7.07902e-07
9.11736e-07
1.04301e-06
1.11095e-06
1.06251e-06
9.47029e-07
9.51002e-07
1.12188e-06
1.15279e-06
8.92381e-07
9.66462e-07
7.06363e-07
7.32988e-07
7.81664e-07
7.57344e-07
6.08817e-07
4.9528e-07
5.8948e-07
7.54352e-07
8.97601e-07
9.10734e-07
9.43546e-07
9.96855e-07
1.10982e-06
1.16411e-06
1.22085e-06
1.24275e-06
1.26715e-06
1.30004e-06
1.28342e-06
1.31473e-06
1.3485e-06
1.35299e-06
1.42962e-06
1.41711e-06
1.40245e-06
1.31725e-06
1.19714e-06
1.07802e-06
9.92841e-07
9.51035e-07
5.73429e-07
6.01478e-07
5.13736e-07
4.50743e-07
5.24953e-07
7.63225e-07
8.05514e-07
8.86245e-07
1.10137e-06
1.16901e-06
1.16761e-06
1.0918e-06
9.21543e-07
8.20476e-07
7.82607e-07
6.51941e-07
6.61569e-07
5.6311e-07
5.21571e-07
5.1045e-07
5.12778e-07
5.48048e-07
6.19719e-07
6.7816e-07
7.29154e-07
6.90372e-07
5.58223e-07
3.80521e-07
3.41437e-07
4.23132e-07
4.42179e-07
5.4016e-07
2.15785e-07
7.13895e-08
6.09093e-08
7.30875e-08
1.9618e-07
4.77274e-07
4.73059e-07
4.54034e-07
4.33809e-07
4.22705e-07
4.05885e-07
4.42402e-07
4.77274e-07
6.23186e-07
7.0568e-07
8.04456e-07
7.90276e-07
7.29695e-07
6.77084e-07
6.40379e-07
5.15059e-07
4.97363e-07
4.5954e-07
4.21212e-07
3.9541e-07
4.1139e-07
5.01471e-07
7.1722e-07
1.26034e-07
1.3209e-07
3.38164e-07
5.67474e-07
6.69216e-07
6.89583e-07
6.73891e-07
6.80191e-07
6.14837e-07
6.44651e-07
5.84713e-07
5.85491e-07
5.64511e-07
5.66985e-07
5.6783e-07
5.66372e-07
5.76204e-07
5.55911e-07
5.48419e-07
4.8936e-07
4.22649e-07
3.77784e-07
3.37502e-07
3.21457e-07
3.16737e-07
3.13083e-07
3.19201e-07
3.40673e-07
3.99214e-07
5.05081e-07
1.02461e-07
5.90768e-08
5.44408e-08
6.15852e-08
7.18545e-08
7.63752e-08
7.56091e-08
7.62884e-08
7.06526e-08
5.6739e-08
4.77935e-08
5.54624e-08
8.06075e-08
9.84701e-08
1.0162e-07
9.735e-08
9.36976e-08
9.33398e-08
9.54675e-08
9.60639e-08
9.83858e-08
9.60665e-08
9.40165e-08
9.194e-08
7.9717e-08
7.46458e-08
7.18181e-08
7.187e-08
8.02245e-08
1.0974e-07
1.76584e-07
1.6647e-07
3.02709e-07
3.56273e-07
1.26596e-07
4.92137e-08
4.56945e-08
9.9284e-08
3.29416e-07
3.89529e-07
3.3371e-07
2.75416e-07
1.23399e-07
1.18318e-07
1.06952e-07
1.00608e-07
1.02948e-07
1.01463e-07
9.80961e-08
8.64734e-08
6.02642e-08
5.27238e-08
5.79714e-08
1.0344e-07
3.52421e-07
7.54401e-07
7.2819e-07
7.34031e-07
7.5303e-07
6.56107e-07
7.50327e-08
5.25534e-08
1.87488e-08
1.47903e-08
1.79386e-08
3.17376e-08
5.81599e-08
8.70236e-08
1.33046e-07
1.41235e-07
1.2856e-07
1.07032e-07
7.2744e-08
6.32713e-08
5.493e-08
5.22561e-08
5.053e-08
5.07448e-08
5.30309e-08
5.14102e-08
5.35207e-08
5.76006e-08
6.30814e-08
6.67506e-08
6.9113e-08
7.21286e-08
8.18718e-08
1.37189e-07
1.7835e-07
1.84092e-07
3.94993e-07
3.63528e-07
3.13967e-07
2.7109e-07
2.32192e-07
1.38911e-07
1.38901e-07
1.49213e-07
1.62015e-07
2.87205e-07
3.46993e-07
4.10118e-07
4.41963e-07
4.62728e-07
4.51573e-07
4.62609e-07
4.65202e-07
4.95519e-07
5.27837e-07
4.9144e-07
3.39598e-07
1.22675e-07
5.93824e-08
4.26001e-08
3.61222e-08
4.21219e-08
5.37324e-08
5.47952e-08
2.56732e-08
8.43816e-09
1.52601e-07
5.1872e-08
4.86838e-08
8.01104e-08
1.25514e-07
3.01716e-07
3.90838e-07
4.3857e-07
5.51818e-07
5.42477e-07
5.44911e-07
5.13264e-07
5.07717e-07
4.76554e-07
4.32626e-07
3.20228e-07
2.9255e-07
2.86044e-07
2.89181e-07
3.24807e-07
3.55432e-07
3.50452e-07
1.55865e-07
6.65234e-08
4.39495e-08
3.51038e-08
3.11627e-08
3.34049e-08
3.6509e-08
3.15465e-08
2.05308e-08
4.37641e-08
5.28949e-08
6.10821e-08
7.70276e-08
1.67252e-07
2.73226e-07
4.28082e-07
6.08878e-07
6.64e-07
6.90006e-07
7.02499e-07
6.94888e-07
6.95521e-07
7.05222e-07
6.96351e-07
6.65795e-07
5.38276e-07
2.99113e-07
9.09831e-08
5.26401e-08
2.59606e-08
1.55999e-08
1.08881e-08
1.16099e-08
1.62258e-08
1.66458e-08
1.36387e-08
1.37223e-08
2.18075e-08
2.02655e-08
4.00629e-08
3.62674e-08
2.32256e-08
2.17012e-08
2.42916e-08
2.73999e-08
2.71176e-08
2.6751e-08
2.46717e-08
2.28895e-08
2.14448e-08
2.0641e-08
2.51383e-08
3.0321e-08
2.55371e-08
1.83242e-08
1.83466e-08
3.0984e-08
8.88502e-08
5.33304e-07
7.43185e-07
7.18484e-07
4.84946e-07
7.0704e-08
1.50797e-08
9.7941e-09
1.1796e-08
2.31873e-08
7.59482e-08
1.5713e-07
2.23649e-09
1.73182e-09
2.6773e-09
2.03119e-09
1.33151e-09
1.50688e-09
1.87292e-09
2.67276e-09
3.82739e-09
4.79193e-09
6.08234e-09
7.23232e-09
7.01116e-09
5.29531e-09
4.27989e-09
3.85098e-09
2.7858e-09
3.2748e-09
3.54819e-09
3.15264e-09
1.87167e-09
1.19323e-09
1.48332e-09
1.0415e-08
4.53492e-08
2.62462e-08
2.25458e-08
5.13201e-07
3.9301e-07
1.35395e-06
1.02104e-06
6.90856e-07
8.86202e-07
1.0724e-06
1.28343e-06
1.3595e-06
1.39345e-06
1.2207e-06
1.03211e-06
1.1352e-06
1.1708e-06
9.22511e-07
9.69766e-07
7.03477e-07
7.44185e-07
7.79092e-07
6.40351e-07
4.52848e-07
4.16244e-07
4.74723e-07
7.19387e-07
9.11023e-07
9.34567e-07
9.34807e-07
1.01643e-06
1.10719e-06
1.18257e-06
1.20457e-06
1.23154e-06
1.27081e-06
1.27938e-06
1.30985e-06
1.34676e-06
1.33976e-06
1.3801e-06
1.40237e-06
1.46873e-06
1.43884e-06
1.37872e-06
1.27036e-06
1.11285e-06
1.0313e-06
9.45456e-07
7.05033e-07
7.53157e-07
5.23708e-07
4.02562e-07
3.96081e-07
4.0631e-07
4.09162e-07
5.7806e-07
1.01959e-06
1.16867e-06
1.1343e-06
9.73609e-07
8.82926e-07
8.04881e-07
7.48176e-07
6.85877e-07
6.9578e-07
5.64177e-07
5.57344e-07
4.78657e-07
4.05276e-07
4.85591e-07
5.53135e-07
6.49073e-07
7.3039e-07
7.47539e-07
6.57211e-07
5.26497e-07
3.76784e-07
4.154e-07
4.45571e-07
5.27283e-07
1.36135e-07
6.25241e-08
5.08735e-08
6.89163e-08
3.32583e-07
5.02572e-07
4.63714e-07
4.37734e-07
3.95594e-07
3.63768e-07
3.68621e-07
3.89765e-07
5.55508e-07
6.46282e-07
7.59933e-07
7.95597e-07
8.17125e-07
8.07873e-07
7.3139e-07
6.69182e-07
6.17253e-07
5.14276e-07
4.85372e-07
4.50257e-07
4.11155e-07
4.125e-07
4.72287e-07
7.09963e-07
1.19022e-07
1.79159e-07
5.33062e-07
6.72732e-07
6.94514e-07
6.90384e-07
6.73256e-07
6.43265e-07
6.31773e-07
6.32458e-07
5.70981e-07
5.95482e-07
5.69235e-07
5.48928e-07
5.38912e-07
5.47138e-07
5.55621e-07
5.74537e-07
5.44775e-07
5.26479e-07
4.66441e-07
4.11478e-07
3.84684e-07
3.65212e-07
3.51554e-07
3.40742e-07
3.27791e-07
3.36864e-07
3.8916e-07
4.95078e-07
8.7713e-08
5.48557e-08
5.62472e-08
6.37748e-08
6.62866e-08
6.46392e-08
7.09666e-08
9.16117e-08
9.10285e-08
6.09894e-08
5.0553e-08
6.32105e-08
9.18627e-08
1.03274e-07
1.00366e-07
9.4022e-08
9.34058e-08
9.54624e-08
9.73756e-08
1.01505e-07
9.86665e-08
1.00309e-07
9.87482e-08
9.69729e-08
8.92872e-08
8.30708e-08
7.69987e-08
7.39162e-08
8.16619e-08
1.09442e-07
1.67093e-07
1.58311e-07
1.80096e-07
1.43532e-07
5.61547e-08
3.46648e-08
6.3965e-08
3.03191e-07
5.06721e-07
3.92024e-07
3.01121e-07
2.07876e-07
1.0485e-07
8.50464e-08
6.92384e-08
7.8152e-08
8.10847e-08
8.84802e-08
9.18207e-08
8.65177e-08
6.14245e-08
5.00012e-08
4.93446e-08
7.89457e-08
2.99383e-07
7.48374e-07
7.3071e-07
7.35945e-07
7.45095e-07
6.39992e-07
6.50008e-08
2.90063e-08
1.27288e-08
1.52587e-08
2.71089e-08
5.39223e-08
8.8653e-08
1.45599e-07
1.55084e-07
1.31099e-07
8.08627e-08
6.1366e-08
3.97811e-08
3.02081e-08
2.4129e-08
2.38598e-08
2.46621e-08
2.79936e-08
3.66476e-08
4.66681e-08
5.00539e-08
5.81585e-08
6.11012e-08
6.80405e-08
6.52491e-08
6.84446e-08
7.28299e-08
1.17778e-07
1.70899e-07
1.82996e-07
3.76477e-07
3.05822e-07
2.22729e-07
1.23017e-07
1.14936e-07
1.1302e-07
1.22734e-07
1.46888e-07
2.79871e-07
4.04764e-07
5.26628e-07
7.03935e-07
7.68866e-07
7.75855e-07
7.19413e-07
6.21486e-07
5.02377e-07
4.91813e-07
5.22641e-07
6.28388e-07
4.55893e-07
1.67783e-07
9.63295e-08
5.47181e-08
4.62986e-08
4.82972e-08
5.8947e-08
6.16323e-08
2.90965e-08
9.8442e-09
9.50916e-08
4.32423e-08
5.59599e-08
1.18855e-07
3.02919e-07
4.16801e-07
5.8329e-07
5.99658e-07
6.11451e-07
5.69444e-07
5.41727e-07
5.12527e-07
4.99207e-07
5.11031e-07
5.13683e-07
5.06534e-07
4.39107e-07
3.29111e-07
3.13531e-07
3.40793e-07
3.59581e-07
3.67279e-07
2.84071e-07
1.03091e-07
4.9947e-08
3.73756e-08
3.30938e-08
3.47473e-08
3.35743e-08
2.4224e-08
2.4887e-08
4.26001e-08
3.88237e-08
5.31095e-08
7.35629e-08
1.78415e-07
2.94217e-07
4.78979e-07
6.49351e-07
7.0392e-07
6.95464e-07
6.91749e-07
6.81445e-07
6.8179e-07
6.83668e-07
6.98151e-07
7.0911e-07
6.71424e-07
5.05087e-07
2.55285e-07
7.84919e-08
3.58404e-08
1.89845e-08
1.15261e-08
1.07694e-08
1.14214e-08
1.14358e-08
1.05943e-08
1.32653e-08
2.20323e-08
2.0842e-08
3.87808e-08
2.73929e-08
2.47642e-08
2.79487e-08
3.4028e-08
3.53021e-08
3.60788e-08
3.58579e-08
3.36661e-08
2.96229e-08
2.52852e-08
2.23956e-08
2.54305e-08
2.88739e-08
2.07968e-08
1.56713e-08
1.36448e-08
1.88401e-08
7.40326e-08
5.11994e-07
7.4702e-07
7.32735e-07
5.10007e-07
6.55751e-08
1.39731e-08
9.23796e-09
1.14847e-08
2.21976e-08
7.05221e-08
2.35275e-08
1.32763e-09
1.2074e-09
1.76347e-09
1.41571e-09
1.39116e-09
1.76044e-09
2.23842e-09
3.80608e-09
6.08207e-09
9.29448e-09
1.45064e-08
1.72096e-08
1.69594e-08
1.30253e-08
7.37249e-09
4.89721e-09
2.9408e-09
2.89845e-09
3.36569e-09
3.51115e-09
2.1312e-09
1.12695e-09
1.1718e-09
5.80972e-09
4.25585e-08
3.54679e-08
3.59853e-08
7.92404e-07
3.8798e-07
1.36278e-06
9.69771e-07
7.05875e-07
9.58129e-07
1.15922e-06
1.25033e-06
1.3906e-06
1.4231e-06
1.35056e-06
1.20006e-06
1.18452e-06
1.17461e-06
9.30638e-07
9.81455e-07
7.2345e-07
7.73114e-07
7.59399e-07
5.8194e-07
4.04675e-07
3.82229e-07
4.62975e-07
6.86492e-07
9.29636e-07
9.43284e-07
9.40683e-07
1.02328e-06
1.11059e-06
1.18242e-06
1.18951e-06
1.23436e-06
1.26543e-06
1.31612e-06
1.36833e-06
1.37415e-06
1.39821e-06
1.39044e-06
1.4397e-06
1.46924e-06
1.47545e-06
1.41368e-06
1.28409e-06
1.13138e-06
1.02754e-06
9.79751e-07
7.61009e-07
7.99353e-07
5.17583e-07
2.39575e-07
2.05072e-07
1.7198e-07
1.75575e-07
4.48916e-07
9.85828e-07
1.16158e-06
1.10463e-06
9.23135e-07
8.90292e-07
7.88886e-07
7.66398e-07
7.86704e-07
7.29487e-07
5.94477e-07
5.49739e-07
3.99085e-07
3.95932e-07
4.00793e-07
5.10323e-07
6.07488e-07
7.45615e-07
7.62777e-07
7.48646e-07
6.05293e-07
4.15334e-07
4.62535e-07
4.40127e-07
5.17528e-07
1.29487e-07
5.60987e-08
4.6668e-08
7.35729e-08
3.91485e-07
5.14335e-07
4.44534e-07
4.12522e-07
3.56387e-07
3.2901e-07
3.39823e-07
3.93167e-07
5.70845e-07
6.88129e-07
7.83382e-07
8.14645e-07
8.02595e-07
8.01615e-07
7.01108e-07
6.72478e-07
5.96745e-07
5.9259e-07
4.97787e-07
4.70651e-07
4.24629e-07
4.20203e-07
4.83238e-07
6.53999e-07
1.24901e-07
4.41884e-07
6.53279e-07
6.65363e-07
6.77843e-07
6.79203e-07
6.51496e-07
6.63646e-07
6.304e-07
6.06069e-07
5.84617e-07
5.89967e-07
5.46139e-07
5.64416e-07
5.47013e-07
5.50742e-07
5.28987e-07
5.64427e-07
5.43006e-07
4.96912e-07
4.79186e-07
4.28435e-07
4.07952e-07
4.04706e-07
3.86881e-07
3.65673e-07
3.47547e-07
3.49404e-07
4.01774e-07
5.80826e-07
7.12219e-08
5.4622e-08
5.73483e-08
5.74115e-08
4.70893e-08
4.17939e-08
6.1166e-08
7.56471e-08
1.04719e-07
6.52728e-08
5.20252e-08
6.795e-08
9.67163e-08
1.03799e-07
9.89047e-08
9.50474e-08
9.4019e-08
1.0054e-07
1.07271e-07
1.09533e-07
1.03959e-07
1.03727e-07
1.00142e-07
9.99954e-08
9.49098e-08
8.9039e-08
8.00284e-08
7.77734e-08
8.55698e-08
1.11548e-07
1.53749e-07
1.53429e-07
1.42129e-07
6.64195e-08
3.40628e-08
4.33148e-08
1.24959e-07
4.13959e-07
5.28639e-07
3.90359e-07
2.83224e-07
1.23344e-07
8.13867e-08
5.28262e-08
4.88887e-08
5.28522e-08
5.93871e-08
7.46107e-08
8.67534e-08
7.99861e-08
5.81666e-08
4.46664e-08
4.34455e-08
6.00862e-08
3.07389e-07
7.48488e-07
7.32791e-07
7.57599e-07
7.18499e-07
5.81948e-07
5.1679e-08
1.66506e-08
1.26816e-08
1.74182e-08
3.11753e-08
6.20189e-08
1.13762e-07
1.49436e-07
1.39232e-07
8.53348e-08
5.6794e-08
3.16793e-08
2.23412e-08
1.72216e-08
1.36993e-08