/*--------------------------------*- C++ -*----------------------------------*\
| =========                 |                                                 |
| \\      /  F ield         | OpenFOAM: The Open Source CFD Toolbox           |
|  \\    /   O peration     | Version:  2.1.1                                 |
|   \\  /    A nd           | Web:      www.OpenFOAM.org                      |
|    \\/     M anipulation  |                                                 |
\*---------------------------------------------------------------------------*/
FoamFile
{
    version     2.0;
    format      ascii;
    class       volScalarField;
    location    "0.005200000";
    object      O;
}
// * * * * * * * * * * * * * * * * * * * * * * * * * * * * * * * * * * * * * //

dimensions      [0 0 0 0 0 0 0];

internalField   nonuniform List<scalar> 
12384
(
0.000566896
0.000620946
0.000701637
0.00073322
0.000749004
0.000744138
0.000740099
0.000725414
0.000696985
0.000648676
0.000574326
0.000494711
0.000683786
0.000849346
0.000173785
0.000171416
0.000151767
0.000146744
0.000161553
0.000176159
0.000200522
0.000217265
0.000231362
0.000250658
0.000241878
0.00025734
0.000251636
0.000259583
0.000272028
0.000272321
0.000283766
0.000282921
0.000290945
0.000285733
0.000289945
0.000285058
0.000280625
0.000289523
0.000282902
0.000273805
0.000261322
0.000239331
0.000258398
0.000266123
0.000170061
0.000152757
0.000167064
0.000170287
0.000152259
0.000168588
0.000266461
0.000349403
0.000361991
0.000379196
0.000371603
0.000359713
0.00034913
0.000310408
0.00030255
0.000236258
0.000245723
0.000184399
0.00018924
0.000150171
0.000135608
0.000125899
0.000111655
9.69134e-05
8.28259e-05
6.45419e-05
7.24234e-05
0.000168285
0.000260949
0.000252388
0.000100537
0.000166662
0.000166782
0.000107806
4.70473e-05
5.87391e-05
6.55798e-05
7.98356e-05
6.60008e-05
8.33852e-05
0.000103383
0.000115162
0.000115781
0.000115622
0.000109906
0.000110071
9.71219e-05
8.69546e-05
6.72892e-05
8.75276e-05
8.15315e-05
8.18574e-05
8.15377e-05
8.8172e-05
9.52563e-05
0.000106424
0.000181909
0.000244083
0.000327637
0.000348155
3.22735e-05
3.31115e-05
4.2329e-05
4.26376e-05
4.43195e-05
4.7718e-05
4.34428e-05
5.16625e-05
3.99937e-05
4.79574e-05
3.46868e-05
4.30449e-05
3.44522e-05
3.76048e-05
3.68748e-05
3.95469e-05
3.87499e-05
4.41574e-05
4.3829e-05
4.71024e-05
5.23998e-05
5.91238e-05
6.56321e-05
5.18922e-05
0.000102127
0.000227109
0.000336974
0.000354186
0.0003435
0.000329311
4.75801e-05
3.01297e-05
2.06249e-05
1.8547e-05
1.5279e-05
1.59682e-05
1.19706e-05
7.52346e-06
8.59912e-06
1.27312e-05
1.15041e-05
1.16234e-05
1.10928e-05
5.24753e-06
5.43759e-06
9.49938e-06
1.05684e-05
1.11171e-05
1.22614e-05
1.09781e-05
1.18296e-05
1.41217e-05
1.59698e-05
1.58136e-05
1.49459e-05
1.87593e-05
2.07265e-05
2.41903e-05
5.57732e-05
0.000159963
8.3739e-05
6.13709e-05
8.92062e-05
0.000127945
0.000125743
0.000131147
0.000137589
0.000149359
0.00012758
0.000108784
7.68524e-05
7.15554e-05
5.67142e-05
5.95952e-05
5.79741e-05
6.14918e-05
7.04822e-05
8.39401e-05
9.40206e-05
0.000115356
0.000151038
0.000170233
0.000175005
0.000162147
0.000157606
0.000154868
0.000156652
0.000172155
0.000167125
0.000159879
0.000295357
0.000291813
0.00025809
0.000160924
5.86641e-05
5.17632e-05
2.8356e-05
2.76164e-05
2.03265e-05
1.77047e-05
1.5314e-05
1.45763e-05
1.32532e-05
1.39805e-05
1.37787e-05
1.5347e-05
1.47861e-05
1.61545e-05
1.88925e-05
1.95266e-05
2.37019e-05
2.368e-05
2.38946e-05
2.76158e-05
4.13056e-05
4.38173e-05
3.76507e-05
3.08077e-05
4.87571e-05
5.13233e-05
3.05225e-05
2.40259e-05
2.04992e-05
1.98531e-05
2.2238e-05
2.59737e-05
2.68018e-05
2.6133e-05
2.80225e-05
3.12487e-05
3.38051e-05
3.39493e-05
3.59211e-05
2.9288e-05
3.4878e-05
3.40115e-05
3.04518e-05
1.88337e-05
8.35253e-06
1.4184e-05
7.52934e-06
6.66401e-06
1.2221e-06
1.12269e-06
1.13818e-06
9.56465e-07
1.19618e-06
9.99298e-07
1.19573e-06
9.81632e-07
0.000393
0.000348691
0.000279313
0.000225395
0.000179554
0.000142421
0.000117075
9.49097e-05
8.65966e-05
7.60168e-05
7.1787e-05
7.54785e-05
7.26828e-05
7.62324e-05
7.42125e-05
7.60966e-05
7.43675e-05
8.09383e-05
7.1388e-05
5.31743e-05
6.47322e-05
2.56558e-05
1.19603e-05
9.23357e-06
1.15334e-05
9.01995e-06
8.57885e-06
1.00915e-05
1.03278e-05
1.01809e-05
8.54687e-06
1.20695e-05
8.07084e-06
3.39447e-06
1.79609e-06
6.39493e-06
5.07575e-06
3.964e-06
4.20452e-06
3.80039e-06
3.35716e-06
3.27309e-06
3.64622e-06
3.56067e-06
3.57191e-06
3.51502e-06
3.88206e-06
4.51925e-06
4.46353e-06
2.32867e-06
3.18482e-06
2.06461e-06
1.59738e-06
3.77398e-06
4.55932e-06
5.46737e-06
6.06957e-06
6.8005e-06
7.11843e-06
6.98303e-06
0.000126125
5.31289e-06
1.89237e-06
3.91229e-06
1.16396e-05
1.46452e-05
7.74333e-06
8.07023e-06
4.38554e-06
4.46971e-06
4.03549e-06
3.60837e-06
2.36525e-06
2.18905e-06
1.95913e-06
1.85788e-06
2.73602e-06
2.45897e-06
2.31611e-06
2.79662e-06
2.58781e-06
2.90006e-06
2.47091e-06
2.71535e-06
2.94224e-06
3.09997e-06
7.10346e-06
6.19843e-06
1.83368e-05
5.28517e-05
7.21279e-06
7.48592e-06
8.66659e-06
9.23688e-06
1.03749e-05
1.58581e-05
1.44533e-05
2.23913e-07
2.37751e-07
2.29761e-07
2.26956e-07
2.10585e-07
2.49423e-07
2.2247e-07
2.42387e-07
2.06919e-07
2.40181e-07
2.97115e-07
2.71174e-07
3.77296e-07
4.33581e-07
5.93419e-07
1.15047e-06
1.42055e-06
2.08603e-06
2.20434e-06
2.19608e-06
2.32761e-05
8.15414e-05
2.20257e-05
0.000790719
0.000758766
0.00073224
0.000747316
0.000755955
0.000761997
0.000769038
0.000770572
0.000764822
0.000770193
0.000727198
0.000558191
0.000629371
0.000834116
0.000168054
0.000158187
0.000151082
0.000165263
0.000207295
0.000251355
0.000283304
0.000302132
0.000301824
0.000293558
0.000298109
0.000303832
0.000309513
0.000343204
0.000362468
0.000393625
0.000418093
0.000432742
0.000447179
0.000439308
0.000438981
0.000411137
0.000388953
0.00036078
0.0003341
0.00030849
0.000281477
0.00025644
0.000246213
0.000237351
0.000171912
0.00016138
0.000174027
0.000157526
0.000188158
0.000329291
0.000374351
0.000358172
0.000359421
0.000385704
0.000385656
0.000413603
0.0003951
0.000398788
0.000376382
0.000343608
0.000325163
0.000314402
0.000273994
0.000278375
0.000242974
0.000217793
0.000185673
0.000148695
0.000118125
8.81359e-05
7.45984e-05
0.000108576
0.000178164
0.000258691
0.000124034
0.00017079
0.000134433
4.19094e-05
4.37261e-05
5.11924e-05
8.45074e-05
0.00011018
0.000161613
0.000179372
0.00018926
0.000191951
0.000196301
0.000192424
0.000195199
0.000187822
0.000180101
0.000171394
0.00015769
0.000132854
0.00011852
9.4903e-05
7.99523e-05
9.37827e-05
9.22374e-05
6.27038e-05
0.00012221
0.000181903
0.000248456
0.000302418
3.44671e-05
3.6274e-05
3.14802e-05
4.18456e-05
5.12928e-05
6.19791e-05
6.12403e-05
9.27072e-05
9.45804e-05
0.000109779
0.000108027
0.000106764
0.000105654
0.000101003
9.09497e-05
8.37264e-05
6.45765e-05
5.17672e-05
3.13441e-05
5.31018e-05
5.46506e-05
5.7834e-05
6.10805e-05
6.90332e-05
6.39168e-05
0.000122032
0.000213173
0.000268865
0.000278891
0.000267486
4.34796e-05
2.66599e-05
1.5673e-05
1.34336e-05
1.09503e-05
1.24688e-05
1.07869e-05
1.03296e-05
9.37098e-06
9.0031e-06
8.41611e-06
8.23593e-06
7.03171e-06
9.59853e-06
1.2325e-05
1.49596e-05
1.68487e-05
1.81518e-05
1.8652e-05
1.8229e-05
1.82723e-05
1.76156e-05
1.57747e-05
1.68935e-05
1.65349e-05
1.77338e-05
1.99759e-05
1.99261e-05
3.72863e-05
8.36596e-05
6.07908e-05
4.04551e-05
0.00011101
0.000107054
0.000110287
0.000140622
0.000137351
7.20792e-05
3.3474e-05
1.43978e-05
1.19821e-05
1.30092e-05
1.97276e-05
1.84388e-05
1.54766e-05
1.46986e-05
1.45181e-05
1.68368e-05
2.22622e-05
3.14426e-05
2.49648e-05
7.58391e-05
0.000130348
0.000172573
0.000159858
0.00014707
0.000148377
0.000160057
0.000172785
0.000163661
7.52091e-05
4.41156e-05
3.34319e-05
2.65887e-05
1.8108e-05
7.06241e-06
9.66859e-06
8.56504e-06
6.14899e-06
7.01055e-06
5.53445e-06
5.47166e-06
5.83115e-06
6.08977e-06
6.28298e-06
6.89757e-06
7.55982e-06
8.55041e-06
6.57797e-06
9.75313e-06
1.5973e-05
2.11566e-05
2.18112e-05
2.38171e-05
1.95215e-05
3.89438e-05
5.8594e-05
4.59364e-05
4.16711e-05
4.06412e-05
6.32745e-06
3.51851e-05
5.23387e-05
5.45715e-05
7.76348e-05
0.000101658
0.000102783
0.00011131
0.00011808
0.000123119
0.00011827
0.000116296
0.000113472
0.000100727
8.30791e-05
6.26957e-05
3.65036e-05
5.27048e-05
4.15041e-05
1.43137e-05
1.39571e-05
9.01016e-06
4.3288e-06
1.80785e-06
2.54038e-06
2.79105e-06
3.25026e-06
1.71258e-06
1.5624e-06
1.0321e-06
0.000238817
0.000121189
7.21704e-05
4.55587e-05
3.51461e-05
2.87542e-05
2.62283e-05
2.47031e-05
2.24221e-05
2.16448e-05
2.37031e-05
2.22125e-05
2.6907e-05
1.3844e-05
3.25851e-05
4.18048e-05
5.42882e-05
6.65865e-05
7.5457e-05
7.57062e-05
6.0952e-05
4.88819e-05
1.91713e-05
7.41401e-06
9.70925e-06
7.66609e-06
7.82952e-06
7.75262e-06
8.43693e-06
8.84112e-06
1.11143e-05
6.56317e-06
6.05935e-06
6.85253e-06
7.61313e-06
9.92888e-06
1.1279e-05
8.94852e-06
1.53146e-05
1.74747e-05
2.14351e-05
2.20772e-05
2.11608e-05
1.93279e-05
1.54031e-05
9.8342e-06
8.81975e-06
6.55345e-06
3.78499e-06
5.1375e-06
2.99698e-06
2.71837e-06
2.7143e-06
3.13205e-06
5.09927e-06
6.18196e-06
6.65939e-06
6.84121e-06
6.74661e-06
7.20382e-06
4.04998e-06
3.24508e-06
2.40697e-06
7.97856e-07
1.02906e-05
3.10131e-06
2.56866e-06
2.53764e-06
2.05934e-06
1.75771e-06
1.61121e-06
1.62631e-06
1.72665e-06
2.05485e-06
2.60935e-06
2.8236e-06
3.91947e-06
4.87795e-06
5.54033e-06
3.77991e-06
1.93416e-06
4.1065e-06
3.08709e-06
2.33719e-06
1.54207e-06
2.09371e-06
2.66904e-06
6.98617e-06
1.00189e-05
0.000172138
8.36699e-06
2.67278e-05
8.17551e-05
0.000120043
0.000142779
9.9867e-05
5.13452e-07
2.39909e-07
2.29453e-07
2.34889e-07
2.50814e-07
2.21561e-07
2.45877e-07
2.67759e-07
3.37345e-07
3.20724e-07
3.12667e-07
2.72432e-07
2.64648e-07
1.8907e-07
2.34737e-07
2.56847e-07
2.31541e-07
2.10564e-06
3.2314e-06
3.32966e-06
2.50785e-06
2.17654e-06
0.000173529
2.5039e-05
0.000711831
0.000714235
0.000760297
0.000736979
0.000667502
0.000623556
0.000626705
0.000650941
0.000713436
0.000767651
0.000770385
0.000687965
0.000604145
0.000783013
0.000160785
0.000154493
0.000165595
0.000215727
0.000272708
0.000306139
0.000309472
0.000326537
0.000315025
0.000297602
0.000308881
0.000318709
0.000366901
0.000416934
0.000470445
0.000510941
0.000555861
0.000572902
0.000598432
0.000607811
0.000613843
0.000585301
0.000551518
0.000486429
0.00042897
0.000374324
0.000322762
0.000276846
0.000247598
0.000231708
0.000179387
0.000177385
0.000174089
0.00015438
0.000239393
0.000370605
0.000364006
0.000349823
0.00035704
0.000392108
0.000401856
0.000438144
0.000415694
0.000414081
0.00037371
0.000365751
0.000298092
0.000313441
0.000279078
0.00027602
0.000277016
0.000270864
0.00025358
0.000229844
0.000185678
0.000137353
0.000100935
9.50804e-05
0.000123476
0.000191667
0.000143044
0.000170837
9.43327e-05
4.14671e-05
3.37422e-05
4.60271e-05
8.31923e-05
0.000137875
0.000184897
0.000194885
0.000181478
0.000178546
0.000178579
0.000184717
0.000189469
0.000198806
0.000197529
0.000197038
0.00018399
0.000176588
0.000164871
0.000151375
0.000140063
0.000103502
7.82354e-05
9.75021e-05
8.0232e-05
0.000131282
0.000203691
0.000270557
3.58553e-05
2.3415e-05
3.48897e-05
5.38939e-05
7.43841e-05
0.000139897
0.000176014
0.000199986
0.000214381
0.000222899
0.000220367
0.000220998
0.000213121
0.000206467
0.000191328
0.000181925
0.000163705
0.000135023
0.000107944
8.62013e-05
6.10163e-05
4.97205e-05
6.28912e-05
5.12313e-05
5.23017e-05
7.36297e-05
0.000115252
0.000157322
0.00019988
0.000233761
3.37773e-05
2.21323e-05
1.42587e-05
1.20782e-05
9.04912e-06
9.496e-06
1.32813e-05
1.21982e-05
8.0036e-06
8.30035e-06
6.04004e-06
9.64903e-06
1.17517e-05
1.95003e-05
2.5089e-05
2.86436e-05
3.04163e-05
3.1711e-05
3.19057e-05
3.24879e-05
1.16019e-05
1.40869e-05
1.19339e-05
2.07815e-05
1.9681e-05
1.89595e-05
1.96764e-05
2.03136e-05
2.86851e-05
4.69763e-05
6.66425e-05
5.11488e-05
7.21063e-05
7.86863e-05
0.000124107
0.000129974
4.10297e-05
1.76822e-05
1.70035e-05
1.27734e-05
2.90797e-05
3.74711e-05
3.92906e-05
3.99032e-05
3.65278e-05
3.37325e-05
3.06345e-05
2.11036e-05
1.34773e-05
2.10866e-05
2.11941e-05
2.14865e-05
2.19138e-05
0.000111685
0.000177979
0.000147308
0.000139065
0.000151337
0.000173929
0.000165332
2.75187e-05
2.60347e-05
2.04928e-05
1.38772e-05
5.90131e-06
3.45503e-06
5.43914e-06
2.67956e-06
3.72818e-06
5.81151e-06
7.72951e-06
9.27012e-06
9.11328e-06
1.00566e-05
9.20307e-06
8.7259e-06
9.01937e-06
8.67186e-06
6.09763e-06
8.90003e-06
1.18191e-05
1.65967e-05
1.86909e-05
2.17565e-05
2.64564e-05
1.90767e-05
4.5406e-05
5.90282e-05
5.74064e-05
4.5703e-05
0.000106598
0.000130317
0.000135342
0.000145805
0.000146415
0.000151705
0.000151468
0.000157054
0.000150062
0.000158501
0.000158924
0.000165715
0.000168547
0.00017554
0.000173862
0.00016937
0.000156086
0.000126564
7.64135e-05
5.21379e-05
1.34133e-05
1.26957e-05
8.02318e-06
3.27191e-06
4.04796e-06
7.04934e-06
9.2372e-06
5.87014e-06
2.90547e-06
1.34226e-06
6.71922e-05
5.97607e-05
2.71461e-05
1.02162e-05
9.31047e-06
1.26861e-05
1.48063e-05
2.05886e-05
2.50583e-05
2.59919e-05
2.69841e-05
2.69342e-05
1.98377e-05
2.51322e-05
3.2009e-05
4.00194e-05
4.51706e-05
5.7738e-05
7.45494e-05
8.73846e-05
8.08855e-05
4.32117e-05
1.55862e-05
1.15638e-05
8.05082e-06
6.99044e-06
4.97312e-06
7.46432e-06
8.41955e-06
8.26268e-06
2.17052e-06
6.24917e-06
6.24696e-06
1.1962e-05
1.2185e-05
2.0128e-05
2.6971e-05
3.45101e-05
6.3319e-05
7.9316e-05
0.000101892
0.000107916
0.000110995
0.000113915
9.07983e-05
7.32199e-05
3.22139e-05
1.97016e-05
1.1476e-05
5.80253e-06
5.0074e-06
1.7386e-06
2.62339e-06
3.05408e-06
4.36874e-06
5.74312e-06
6.06658e-06
4.9926e-06
4.79992e-06
6.52773e-06
2.23772e-06
7.3729e-07
1.01692e-05
8.49172e-06
4.0535e-06
3.24664e-06
2.51511e-06
2.35148e-06
2.52004e-06
2.32215e-06
2.20149e-06
2.37607e-06
2.03243e-06
3.95091e-06
1.23846e-06
8.21398e-06
1.05767e-05
1.1383e-05
6.34695e-06
1.62205e-05
2.41703e-05
2.13466e-05
1.35808e-05
7.05112e-06
3.42501e-06
2.10544e-06
2.07504e-06
3.8723e-06
7.97033e-06
6.56865e-05
3.79026e-05
0.000140617
7.31324e-06
7.21551e-06
8.43764e-06
7.79085e-07
2.71691e-07
2.38171e-07
1.9069e-07
2.6068e-07
3.57308e-07
4.15912e-07
3.73064e-07
3.99742e-07
2.9796e-07
4.46874e-07
2.44391e-07
4.39416e-07
4.13939e-07
4.23869e-07
2.40051e-07
1.97008e-07
2.40352e-07
7.6823e-07
4.14679e-06
4.6131e-06
3.68199e-06
3.4813e-06
9.88123e-05
3.16657e-05
0.000703441
0.000767489
0.000706394
0.000579672
0.000589048
0.000620563
0.000640072
0.000632082
0.000624688
0.000703341
0.000765833
0.000739275
0.000625534
0.000763994
0.000148428
0.000159661
0.00019702
0.000261954
0.000290014
0.000284473
0.000289718
0.000318637
0.000317916
0.00030362
0.000306502
0.000349036
0.000414423
0.000482817
0.000522677
0.000575799
0.000595397
0.000639517
0.000677317
0.000705964
0.000716331
0.000718358
0.0006793
0.000640014
0.000544329
0.000456004
0.000375434
0.000308202
0.000264375
0.000230969
0.000197289
0.000202328
0.000177378
0.000147121
0.000236519
0.000359574
0.000365788
0.000378677
0.000379755
0.0004068
0.00041756
0.000441072
0.000421664
0.000377951
0.000333135
0.000306126
0.000256809
0.000228612
0.000233797
0.000215385
0.000243172
0.000249186
0.000266217
0.000265062
0.000248072
0.000201547
0.000146246
0.000115585
0.000115625
0.000168173
0.000150673
0.000163803
6.32365e-05
2.71987e-05
2.95105e-05
2.80813e-05
7.47545e-05
0.000153865
0.00018827
0.000170371
0.000166715
0.00016074
0.000164991
0.000168734
0.000185121
0.000207324
0.000228344
0.000236296
0.000233734
0.00022078
0.00020241
0.000188517
0.000173315
0.000151554
0.000119691
8.73867e-05
7.9335e-05
0.000114723
0.000166535
0.000247472
2.74418e-05
1.99209e-05
4.7981e-05
8.83837e-05
0.00018226
0.000248693
0.000270172
0.000290302
0.000280849
0.000276989
0.000280377
0.000274695
0.000263378
0.000267815
0.000261525
0.000251039
0.000234617
0.000218816
0.000177249
0.000139076
0.000111421
7.83739e-05
6.3184e-05
6.37052e-05
6.97307e-05
6.74576e-05
8.20483e-05
0.000114831
0.000155015
0.000203835
2.72219e-05
1.79147e-05
1.45191e-05
1.29866e-05
1.69945e-05
2.16964e-05
2.38587e-05
2.2655e-05
1.77926e-05
1.42458e-05
1.00089e-05
1.2393e-05
2.08291e-05
2.94779e-05
3.64725e-05
3.83476e-05
3.58183e-05
3.49759e-05
3.46756e-05
3.3774e-05
3.59528e-05
3.51605e-05
3.23313e-05
2.72361e-05
2.43809e-05
2.15519e-05
2.01923e-05
2.20614e-05
2.48724e-05
2.86702e-05
6.41352e-05
3.87713e-05
4.77103e-05
8.8916e-05
0.000109349
2.78426e-05
1.1158e-05
1.11355e-05
2.4182e-05
4.25212e-05
8.33893e-05
7.49136e-05
6.7058e-05
4.63906e-05
4.3373e-05
4.05885e-05
3.74801e-05
3.38897e-05
2.79576e-05
1.47465e-05
1.94706e-05
1.9719e-05
1.86622e-05
3.37639e-05
0.000158347
0.000156807
0.000134183
0.000142578
0.000169451
0.000166247
2.78707e-05
1.85359e-05
1.16601e-05
5.01314e-06
4.18251e-06
4.95421e-06
5.92661e-06
1.09855e-05
1.53043e-05
2.15491e-05
2.65824e-05
2.71702e-05
2.48869e-05
2.34558e-05
2.00934e-05
1.9083e-05
1.65317e-05
1.45525e-05
1.20429e-05
1.3249e-05
1.08693e-05
1.67177e-05
1.89411e-05
2.11073e-05
2.25396e-05
2.65603e-05
2.48326e-05
5.01919e-05
5.90395e-05
4.79035e-05
0.000143878
0.000138331
0.000123797
0.000112279
0.000105533
9.74803e-05
8.42667e-05
7.84533e-05
7.26317e-05
7.83122e-05
8.76776e-05
0.000100786
0.000122329
0.00013042
0.000148923
0.000157826
0.000174182
0.000182287
0.000161971
0.000108208
4.86531e-05
2.1493e-05
1.03033e-05
8.07674e-06
7.35731e-06
9.91586e-06
1.0954e-05
6.26643e-06
4.07278e-06
9.34024e-07
5.85625e-05
2.119e-05
1.50967e-05
1.50637e-05
9.14922e-06
2.77162e-05
3.82321e-05
5.05878e-05
7.3071e-05
8.36545e-05
8.63704e-05
8.34663e-05
7.73134e-05
7.01919e-05
6.31038e-05
5.81267e-05
5.77352e-05
5.89892e-05
7.17726e-05
8.64526e-05
9.82426e-05
7.67763e-05
4.14132e-05
1.53528e-05
7.8076e-06
4.70193e-06
5.50079e-06
5.94786e-06
9.08763e-06
7.8342e-06
4.67747e-06
6.80368e-06
1.27666e-05
1.54014e-05
1.94675e-05
2.56422e-05
5.09507e-05
7.95971e-05
0.000115664
0.00015484
0.00017634
0.000181056
0.000182914
0.00018032
0.000179401
0.000165618
0.000123491
7.90121e-05
2.78612e-05
1.06442e-05
5.71651e-06
4.10212e-06
3.06523e-06
2.41761e-06
3.07935e-06
5.10629e-06
4.89338e-06
3.07408e-06
2.99388e-06
5.51524e-06
3.76417e-06
5.84945e-06
9.33162e-06
5.84801e-06
2.49722e-06
3.87751e-06
2.16457e-06
2.39463e-06
3.29772e-06
2.61314e-06
2.12865e-06
3.2679e-06
4.01383e-06
2.81556e-06
6.40175e-06
7.75025e-06
5.24408e-06
4.49913e-06
9.29033e-06
2.0426e-05
6.07777e-05
0.000104792
0.000100502
3.24501e-05
7.88237e-06
2.77683e-06
1.71024e-06
3.06766e-06
6.12864e-06
1.42791e-05
0.00016005
1.48773e-06
5.28952e-07
1.31672e-06
7.7611e-07
2.71213e-07
1.44871e-07
2.00114e-07
3.11593e-07
4.54121e-07
5.7943e-07
6.64685e-07
7.33129e-07
7.75901e-07
6.56266e-07
3.69509e-07
2.74494e-07
3.55458e-07
4.64877e-07
5.07845e-07
4.39675e-07
2.1524e-07
1.82962e-07
4.26871e-07
4.47583e-06
1.20487e-05
4.54605e-06
3.07199e-06
7.6087e-05
3.34402e-05
0.000715686
0.000780273
0.000557045
0.00059126
0.000666962
0.0008209
0.000889029
0.000826152
0.000715221
0.000695386
0.000765585
0.000757071
0.000642856
0.000753721
0.000151597
0.000172826
0.000225411
0.000274226
0.00024431
0.000222862
0.000238841
0.000321949
0.000330294
0.000303039
0.000319187
0.000360546
0.000448749
0.000490141
0.000539229
0.000560773
0.000607711
0.000673929
0.000709766
0.000749713
0.000779646
0.000785126
0.000794792
0.000729768
0.000659032
0.000537202
0.00043587
0.000336983
0.000271541
0.000243803
0.00022199
0.000231176
0.000183415
0.000131047
0.000188362
0.00026956
0.000290089
0.000337481
0.000394881
0.000414928
0.000434112
0.000446996
0.000386403
0.000346803
0.00031231
0.000249331
0.000244278
0.000204004
0.000186055
0.00018787
0.000189921
0.000205107
0.000242745
0.000268141
0.000268362
0.000251235
0.000197351
0.000145803
0.000127048
0.00016918
0.000157062
0.00015618
3.88804e-05
2.61885e-05
1.87809e-05
2.58265e-05
8.20217e-05
0.000180147
0.000175026
0.000163082
0.000148414
0.000141429
0.000138001
0.000151712
0.000179686
0.000212193
0.000249004
0.000277747
0.000279691
0.000274164
0.000249165
0.000222672
0.000198507
0.00017795
0.00015488
0.000120281
9.0618e-05
9.81226e-05
0.000162218
0.000223188
2.50075e-05
3.07768e-05
6.96831e-05
0.000198966
0.000280191
0.000294224
0.000297171
0.000306726
0.000282287
0.000299422
0.000276754
0.000280618
0.000273949
0.000269059
0.000271249
0.000267623
0.000267933
0.00025659
0.00023306
0.000190889
0.000150771
0.000123478
9.57889e-05
8.65279e-05
8.5524e-05
8.56254e-05
9.00933e-05
0.000102693
0.00013564
0.000195755
2.14417e-05
1.44118e-05
1.35876e-05
1.75294e-05
2.39595e-05
2.68559e-05
2.6086e-05
2.80488e-05
2.42256e-05
1.5484e-05
1.22716e-05
1.4971e-05
2.73737e-05
3.63864e-05
3.76177e-05
3.21205e-05
3.08585e-05
3.19176e-05
3.43717e-05
3.52066e-05
3.65885e-05
3.35836e-05
3.67549e-05
3.49648e-05
2.91154e-05
2.6777e-05
2.32246e-05
2.22513e-05
2.3603e-05
4.36734e-05
5.59796e-05
5.30263e-05
4.73222e-05
6.9234e-05
3.07151e-05
9.09634e-06
9.55109e-06
2.37506e-05
8.96668e-05
0.000122126
9.88052e-05
6.8238e-05
4.39956e-05
4.0769e-05
3.56777e-05
3.27714e-05
3.40511e-05
3.28929e-05
2.681e-05
2.07491e-05
2.00087e-05
1.42843e-05
1.87494e-05
3.00336e-05
0.000107124
0.000167761
0.000135555
0.000141264
0.000169463
0.000166367
2.17314e-05
8.07487e-06
5.11295e-06
3.09778e-06
4.69144e-06
8.46175e-06
1.20212e-05
3.06862e-05
3.12529e-05
3.69782e-05
3.57565e-05
2.14406e-05
2.66098e-05
2.08097e-05
1.77576e-05
1.61465e-05
1.51164e-05
1.52222e-05
1.63982e-05
1.53001e-05
1.64331e-05
1.68422e-05
2.00722e-05
1.97535e-05
2.1083e-05
2.26359e-05
2.83283e-05
3.51909e-05
5.61434e-05
4.94893e-05
0.000124128
0.000104118
8.02975e-05
5.64104e-05
3.71542e-05
4.93539e-05
4.7505e-05
5.14939e-05
6.06115e-05
5.72416e-05
9.59332e-05
0.000124586
0.000154639
0.000157219
0.000161212
0.0001579
0.000166881
0.000181015
0.000196143
0.000171219
8.90794e-05
3.5122e-05
1.83334e-05
9.17159e-06
5.78679e-06
9.28319e-06
1.42061e-05
1.52325e-05
6.09199e-06
1.29423e-06
4.46429e-05
1.35535e-05
1.32477e-05
1.30692e-05
3.83145e-05
6.78642e-05
0.000118372
0.000145686
0.000163746
0.000164489
0.000165114
0.000153481
0.000148771
0.000136469
0.000114471
0.000100093
8.56156e-05
7.59847e-05
7.63573e-05
8.89357e-05
0.000103158
9.52571e-05
5.26637e-05
2.24595e-05
1.007e-05
6.62266e-06
3.97863e-06
5.05998e-06
8.04883e-06
6.7452e-06
4.94768e-06
1.18209e-05
4.3538e-06
1.08627e-05
2.04952e-05
2.50591e-05
7.73332e-05
0.000111339
0.000173702
0.000179461
0.000187534
0.000177138
0.000175463
0.000171347
0.000175722
0.000183951
0.000179176
0.000154397
8.82374e-05
2.73634e-05
8.1473e-06
3.24326e-06
2.52799e-06
2.51667e-06
2.81721e-06
3.00172e-06
3.18661e-06
1.71744e-06
1.56182e-06
5.85267e-06
4.42529e-06
8.48962e-06
6.11452e-06
4.76241e-06
3.3245e-06
4.71874e-06
6.39167e-06
6.21294e-06
6.95845e-06
5.66642e-06
5.36746e-06
5.08986e-06
4.36725e-06
1.97123e-06
4.45751e-06
2.33924e-06
4.02592e-06
3.43374e-06
6.35881e-06
2.33679e-05
0.000133848
0.000182432
0.000171476
0.000121876
1.90857e-05
3.61862e-06
1.5955e-06
2.53772e-06
5.04859e-06
2.12604e-05
1.96973e-05
3.65395e-07
2.29111e-07
2.02418e-07
2.89044e-07
1.75445e-07
1.96542e-07
3.16507e-07
3.71302e-07
8.18169e-07
1.10717e-06
1.08104e-06
1.62582e-06
1.25523e-06
1.33444e-06
8.03062e-07
6.2682e-07
5.95716e-07
4.41495e-07
6.07458e-07
4.27735e-07
2.38989e-07
1.60676e-07
2.45272e-07
1.96521e-06
1.13826e-05
6.92483e-06
5.51672e-06
0.000112054
3.09494e-05
0.000724168
0.00073013
0.000564636
0.000641395
0.000836603
0.000969258
0.00102399
0.000976801
0.000885126
0.00078417
0.000782797
0.000763339
0.000668048
0.000758411
0.000153648
0.00019048
0.000253297
0.000248806
0.000193391
0.000174492
0.000210584
0.000313874
0.000342504
0.00030878
0.000314931
0.000375768
0.000447938
0.000497166
0.00051814
0.000556836
0.000621937
0.000687646
0.000755077
0.000806747
0.000819632
0.000845685
0.000823429
0.000803633
0.000716477
0.000605313
0.000472978
0.000358662
0.000286634
0.000241213
0.000243315
0.000262004
0.000189878
0.000112761
0.000104867
0.000109305
0.000109587
0.000221003
0.000365671
0.000422811
0.000440925
0.000421225
0.000374288
0.000328665
0.000289488
0.000259312
0.000256094
0.000203804
0.000200883
0.000170072
0.000163678
0.000178175
0.000210579
0.000253401
0.000275465
0.000270865
0.000246774
0.000182256
0.000140871
0.000168632
0.000157176
0.00014885
4.68098e-05
2.0762e-05
1.46859e-05
2.31225e-05
9.27619e-05
0.000191538
0.000164042
0.000150203
0.000132145
0.00011209
0.000114447
0.000133457
0.00017598
0.000219713
0.000259979
0.000271828
0.000290167
0.000286587
0.000273763
0.00023946
0.000209202
0.000196822
0.000178239
0.000147963
0.000112388
0.000112546
0.0001548
0.00021825
2.72921e-05
6.14887e-05
0.000186548
0.000279828
0.000296287
0.000299014
0.000301908
0.00029379
0.000293178
0.00029627
0.000274373
0.000287726
0.000279042
0.000268035
0.000262545
0.000269599
0.00026955
0.000270789
0.00024806
0.000221271
0.000178664
0.000146907
0.000124871
0.00011207
0.000105283
0.000101876
9.5467e-05
0.000100693
0.000129646
0.000189424
1.22726e-05
1.44443e-05
1.69661e-05
1.92427e-05
2.14083e-05
2.05954e-05
2.39362e-05
1.04617e-05
1.49597e-05
2.01257e-05
1.41278e-05
2.02638e-05
3.3412e-05
3.77005e-05
3.76875e-05
3.04882e-05
3.18989e-05
3.0387e-05
3.30383e-05
3.67092e-05
3.42464e-05
3.47199e-05
3.63635e-05
3.5455e-05
3.28888e-05
2.89952e-05
2.71518e-05
2.39474e-05
2.4886e-05
4.37047e-05
5.53487e-05
4.97217e-05
6.00184e-05
4.00486e-05
1.30348e-05
1.00774e-05
2.04946e-05
6.655e-05
0.000131022
0.000121136
8.62996e-05
3.72258e-05
3.40311e-05
2.08481e-05
1.32429e-05
1.91249e-05
2.05202e-05
2.46121e-05
2.50633e-05
2.17272e-05
2.08104e-05
1.2969e-05
1.24409e-05
1.48154e-05
8.1799e-05
0.000173473
0.000139174
0.000147366
0.000175269
0.000166027
1.87038e-05
6.88046e-06
2.08714e-06
3.34722e-06
5.85928e-06
1.25078e-05
3.18561e-05
3.99697e-05
4.74452e-05
3.10403e-05
2.99755e-05
1.77933e-05
7.28321e-06
8.93733e-06
7.21444e-06
6.41866e-06
7.45999e-06
8.46992e-06
7.30824e-06
1.29672e-05
1.45794e-05
1.73078e-05
1.89606e-05
2.0806e-05
1.88048e-05
2.05748e-05
2.29492e-05
2.2981e-05
5.13872e-05
5.76274e-05
0.000111734
7.06785e-05
3.19838e-05
3.96605e-05
3.24764e-05
3.29224e-05
3.56595e-05
5.1937e-05
5.43108e-05
0.000132802
0.000198423
0.000252593
0.00027676
0.000286891
0.000257067
0.000209735
0.000190588
0.000182639
0.000196497
0.00019917
0.000149426
6.18479e-05
1.9576e-05
1.58348e-05
1.1383e-05
1.26669e-05
1.71948e-05
1.93425e-05
7.97744e-06
1.92803e-06
1.37121e-05
8.83613e-06
1.54894e-05
3.08125e-05
6.03156e-05
0.000127695
0.000169786
0.000184938
0.000189008
0.000172826
0.000163522
0.00015409
0.000146143
0.00015049
0.000149856
0.000143728
0.000116356
9.81117e-05
8.82651e-05
9.54023e-05
0.000107249
0.000106461
5.57546e-05
2.27595e-05
1.30996e-05
7.84226e-06
5.17326e-06
5.83901e-06
6.71343e-06
6.68089e-06
6.91939e-06
1.09593e-05
9.95399e-06
7.07952e-06
1.87185e-05
3.12741e-05
8.80516e-05
0.000130879
0.000180422
0.000186927
0.000174276
0.000165315
0.000157665
0.000155587
0.000158686
0.000168915
0.00017845
0.000181063
0.000139282
6.90816e-05
1.97591e-05
8.99025e-06
4.5523e-06
2.72817e-06
2.46789e-06
2.72946e-06
2.71695e-06
2.32462e-06
2.06152e-06
5.38116e-06
4.6504e-06
8.08733e-06
7.23597e-06
4.9194e-06
6.93297e-06
9.28097e-06
1.01869e-05
1.07957e-05
1.05952e-05
1.01833e-05
8.47797e-06
6.55834e-06
5.38248e-06
2.21771e-06
5.06263e-06
4.88845e-06
2.1625e-06
2.01966e-06
4.58524e-06
1.6415e-05
0.000122805
0.000174892
0.000172671
0.000132067
1.67359e-05
3.20987e-06
1.40777e-06
2.42445e-06
4.66469e-06
1.88509e-05
5.09429e-06
1.87544e-07
1.48426e-07
1.98382e-07
1.89515e-07
1.60588e-07
2.83962e-07
4.39673e-07
7.02845e-07
1.0655e-06
2.54648e-06
3.40633e-06
4.83918e-06
4.72218e-06
2.66926e-06
1.69031e-06
9.16079e-07
6.0898e-07
5.70188e-07
5.56294e-07
5.54041e-07
3.68652e-07
1.37444e-07
1.12464e-07
9.84586e-07
9.59362e-06
6.3622e-06
7.55202e-06
0.000180979
2.76578e-05
0.000741789
0.000679097
0.000581894
0.000708388
0.000831665
0.000884689
0.000971637
0.000950722
0.00087013
0.000829879
0.000794039
0.000766957
0.000670872
0.000773444
0.000163543
0.00020563
0.000253749
0.000221904
0.000166793
0.000153848
0.000201566
0.000305778
0.000370984
0.0003214
0.000313502
0.000378963
0.000448485
0.000488127
0.000500733
0.000548426
0.000618563
0.000720302
0.000803919
0.000838366
0.000867623
0.0008547
0.000854683
0.000823652
0.000744586
0.000636891
0.000477329
0.000368908
0.000282247
0.000254419
0.000262249
0.000288323
0.000186361
0.000101303
7.71149e-05
5.38525e-05
5.5586e-05
0.000137206
0.000359124
0.000431593
0.000438168
0.000403311
0.000370761
0.000316884
0.00029537
0.000286572
0.000253026
0.000218515
0.000197069
0.000158907
0.000155653
0.000161407
0.00018924
0.000239963
0.000282733
0.000281991
0.00026737
0.00022062
0.000161415
0.000188138
0.000152859
0.000150605
4.62129e-05
1.85272e-05
1.20333e-05
2.59332e-05
0.000127848
0.000195493
0.000157643
0.000141802
0.000107688
9.05296e-05
0.000104851
0.000134891
0.000181284
0.0002416
0.000269116
0.00028581
0.000282846
0.000287526
0.00026418
0.000243897
0.000207159
0.000201065
0.000184437
0.000167922
0.00013079
0.000127739
0.000160681
0.000206147
3.126e-05
0.000133706
0.000262249
0.000278647
0.000284006
0.000290726
0.000298488
0.000300073
0.000296359
0.000285937
0.000288207
0.000283402
0.000265357
0.00027317
0.000266027
0.000269096
0.000255252
0.000268208
0.000241592
0.000211473
0.000187721
0.000156742
0.000138116
0.000135661
0.000126585
0.000117239
0.000107867
0.000108859
0.000136944
0.000191739
2.47896e-05
1.41009e-05
1.54502e-05
1.62148e-05
8.04535e-06
1.44286e-05
1.85692e-05
2.80944e-05
2.38735e-05
2.08447e-05
1.51199e-05
2.12765e-05
3.72684e-05
3.83897e-05
3.6832e-05
3.18506e-05
2.85627e-05
3.57352e-05
3.7371e-05
3.95643e-05
3.97554e-05
3.86793e-05
3.46795e-05
3.59001e-05
3.56785e-05
3.16284e-05
2.76289e-05
2.43508e-05
2.8158e-05
4.5119e-05
4.74217e-05
4.85194e-05
3.90797e-05
1.85044e-05
8.58747e-06
5.09321e-06
4.03001e-05
0.000126576
0.000142401
0.000120174
7.70305e-05
4.33548e-05
2.19758e-05
1.78553e-05
1.63346e-05
1.82988e-05
2.1809e-05
1.74301e-05
2.31919e-05
1.88313e-05
1.92829e-05
1.03636e-05
9.45918e-06
2.05842e-05
8.4542e-05
0.000169975
0.000146357
0.000157906
0.000175483
0.000158232
1.0471e-05
4.09593e-06
2.12697e-06
4.45872e-06
8.17584e-06
1.47226e-05
1.83619e-05
4.3353e-05
3.6966e-05
3.03356e-05
1.51895e-05
9.78606e-06
5.74045e-06
2.97134e-06