/*--------------------------------*- C++ -*----------------------------------*\
| =========                 |                                                 |
| \\      /  F ield         | OpenFOAM: The Open Source CFD Toolbox           |
|  \\    /   O peration     | Version:  2.1.1                                 |
|   \\  /    A nd           | Web:      www.OpenFOAM.org                      |
|    \\/     M anipulation  |                                                 |
\*---------------------------------------------------------------------------*/
FoamFile
{
    version     2.0;
    format      ascii;
    class       volScalarField;
    location    "0.005200000";
    object      p;
}
// * * * * * * * * * * * * * * * * * * * * * * * * * * * * * * * * * * * * * //

dimensions      [1 -1 -2 0 0 0 0];

internalField   nonuniform List<scalar> 
12384
(
753242
752451
752556
753077
753750
753630
754208
753628
754200
752967
752502
752189
751670
751653
718611
717923
719100
718347
721489
721696
729051
728297
731696
744394
737343
753897
750206
756005
769216
766281
779005
776152
790823
788447
800787
802940
806454
815591
818825
819026
823051
822171
821997
822844
888405
890350
891542
893100
893696
893872
895524
897042
898318
899386
897800
884859
887124
845551
852938
792463
811226
753423
773928
732214
735188
733236
724469
721723
723659
719598
720210
719172
720818
720276
835874
833380
831410
826579
825201
820152
821548
833794
827957
849413
845158
863288
863555
877502
879309
882629
875711
870074
855116
859220
846575
883487
880958
905978
927611
933700
951875
953364
968842
968313
915213
912220
908653
903203
889671
894729
864428
873353
826863
843723
795019
815878
782920
800726
802830
798400
820720
818138
834207
836881
842649
847232
848665
849020
848072
846599
845070
847104
847229
847604
880624
881165
881996
882882
882443
882187
881255
878286
874895
876674
874652
875399
875423
875045
873719
871015
871226
866991
865931
869634
866264
867893
867518
873187
874765
875627
882441
882086
885401
888203
984153
975012
966409
948027
932805
922012
892880
902645
869222
881783
847928
851172
840300
819863
827185
813153
824196
817149
839660
835640
850615
853253
860808
864188
865285
864799
865434
864395
865192
864330
946289
945174
944733
942744
938241
935100
928236
918698
901184
906076
874144
884328
850082
863684
836525
849769
840502
853893
866947
871375
886498
887173
896546
892224
905444
899740
919306
917270
932956
933453
852143
855738
855528
858001
856304
862255
859137
870011
867461
880034
878281
888090
887472
891575
892648
894190
895072
898060
898337
896083
892320
885741
880620
878795
873764
872961
876478
876148
877068
868576
931932
931352
928268
922892
915009
902285
892178
870903
866532
849909
824996
835747
816433
817810
827469
832483
844120
856307
866304
874347
877887
877522
875371
872766
870557
868433
864534
866668
866677
863540
898835
900817
900929
898570
891254
882253
850666
860191
811338
815758
772169
792284
773731
765847
816529
790145
857744
854368
887722
891821
897645
898264
897874
895629
893688
891418
888564
891525
894176
893418
957678
953959
948530
947729
933531
936961
922037
927174
919900
922789
926045
929777
933288
935446
935767
934560
927764
920421
913107
902707
881176
887997
862244
870881
855985
860582
852528
854521
850486
851185
848395
847343
845748
845634
843964
845231
846543
846363
846538
846082
846490
841871
852224
844725
865911
857749
883365
877600
890613
903338
898924
912512
909388
918828
916674
920757
918625
919834
918430
919756
752015
753312
753241
753947
753597
754029
753909
753982
753185
753387
752251
752759
751612
751953
717437
717357
718936
717966
721187
725911
724610
730324
737538
736731
743242
752779
749020
764069
763170
770324
777323
778992
790128
789312
802187
799631
809502
816049
816236
823182
823203
826364
828353
826983
889107
889816
891066
891242
891583
890508
892769
895469
895758
896089
893396
889572
865062
862959
839436
798277
788386
775141
741831
748198
731923
723443
729186
719285
723646
722529
720741
721938
718261
722233
838292
833995
830947
826481
822768
819088
827372
823076
837004
837340
850583
851221
862799
864349
871625
867409
864881
851701
850121
837753
845142
867125
870433
910246
910315
931449
941131
951268
958543
968268
918566
916208
911692
908838
893747
891888
863598
870995
821732
840430
794243
802434
787430
788448
792492
802548
806370
813837
827129
831752
838413
844263
847476
847197
846041
843875
841759
841864
842236
842799
881588
880781
880952
879813
879599
879285
877400
874299
876012
872717
873780
874207
874442
873749
872391
870122
867593
865216
864630
864160
865883
864202
864436
867370
870213
875926
880753
884058
887484
889711
979953
972421
959639
949234
924051
925814
887888
900331
870253
865887
859197
838768
832953
825074
815348
816873
816868
817588
833929
835709
847152
852592
859132
861599
863238
863793
862454
861838
861535
863627
942945
941420
939826
937379
935872
930442
920286
918019
901218
896681
876597
873478
854244
853755
840451
842711
842057
851610
854649
868600
875385
884174
892188
892680
904565
900975
917004
918024
930608
932805
852093
853593
855042
854227
856888
855828
860977
862460
869206
871332
879707
878406
886519
882987
884624
886088
887984
888952
891484
892869
890815
887661
881921
876116
873624
873741
872065
872963
876133
868247
930693
929332
926397
920687
911800
900533
887649
869192
860935
835542
838728
814334
822697
816485
819280
827634
838492
850020
861704
872141
879147
881606
880031
876099
870771
867366
864563
862873
863375
863699
896360
896253
895673
892971
881246
868114
857323
836971
800426
815359
768276
779348
774825
775282
785201
799980
830560
848687
874838
885766
895064
897637
896873
894490
890270
888033
888344
886703
889449
889130
956760
954127
948900
946300
933877
934999
921806
924347
920869
921843
924511
928345
931886
934016
934775
930843
923628
922108
904316
897345
882103
881771
862098
863272
857262
854629
854995
853133
852498
851743
846623
848847
845454
844978
844502
845759
846595
846719
844972
842981
840063
843311
843519
844733
859607
856779
878177
876501
895331
892408
904204
904724
910742
914755
917615
918574
919141
918720
918372
918818
755193
753925
754385
753799
754531
753972
753930
754266
752793
753267
752432
752292
751828
751985
722219
721630
722711
721480
724178
728717
723974
735071
735049
736570
749655
745880
756741
761050
768751
769490
781035
779332
789348
792029
799536
801287
813635
811911
821563
820970
826800
825221
824742
829530
886563
887592
887447
889265
889691
889987
890915
892082
893142
894598
892821
880392
866657
855810
821510
813929
767054
777136
749530
726564
738559
722577
721525
721219
722635
721297
724500
721736
725870
724476
836859
833463
829701
826102
823003
820746
827583
825563
831763
842417
842224
851930
850000
856786
854680
855361
844601
840628
828142
832822
830551
851062
867281
882067
906686
916202
935967
940764
952521
953082
923384
919806
915058
911526
895489
895376
858795
864728
821021
834573
783731
806023
777808
777824
780383
786454
803357
807109
812281
828614
832091
835805
840898
843252
841899
839793
837579
837917
838295
839832
879894
879028
877964
877361
875478
873907
871817
874432
870094
871776
872846
873346
873484
873036
871295
867698
866219
860932
860150
859047
856099
860463
858898
861864
865697
875286
877176
883763
886634
889650
973119
966739
953973
943488
923107
919644
889103
892599
871293
856796
858734
835971
823619
825224
804010
808912
813470
811307
827968
831359
844434
849792
856157
859225
860048
858664
858045
859414
858894
857511
938990
935266
934203
934009
929949
922267
918003
911233
894390
895395
869811
876880
845424
857507
831019
838848
837060
838839
853108
855512
870364
875711
884348
889012
901659
899567
915187
918211
929395
933736
850418
851920
851399
853683
852475
856769
855265
862903
861304
870104
868502
876419
871101
877415
873397
875011
876774
880110
881999
883517
884895
883012
878688
875193
871652
872242
871504
874530
872679
870378
929780
927715
924001
918696
909746
895214
884403
864345
854126
830411
831393
810550
813958
805586
814561
821186
832179
843278
857834
868159
877104
880443
879993
876480
869140
868103
865674
861843
862827
862593
892786
893553
889816
882935
871706
864153
835205
831828
801743
794224
764266
770844
756995
750560
787404
776550
818732
833880
856148
871682
881325
887586
889835
888913
887929
885176
882090
883860
885649
888561
956268
953543
948696
943594
934066
933021
919690
921010
917906
919994
921609
926075
929625
932490
930012
926257
924326
913277
895367
900310
876978
872957
857541
861305
851218
853876
850722
852140
851042
851151
850128
848246
848943
846871
844768
844384
844875
842781
841005
838076
837199
832357
840242
838208
855519
854533
870507
873431
892745
888548
905681
902224
909525
914466
914036
918844
918774
918556
918455
918373
754394
755366
754845
755305
754611
754836
753713
754285
752252
753482
752047
752401
752192
752204
718447
719230
719658
721316
722046
726591
725698
736804
732668
744601
744129
751961
755943
766753
765853
777219
776036
785734
787787
794096
797283
809085
807871
819104
819154
827795
826757
831687
834973
828543
886566
883915
885785
886129
886510
885646
887738
889682
891483
892549
881667
879691
867512
829710
820502
801616
772907
749892
753907
722397
734183
718339
718500
720698
719972
724764
723491
728312
724573
722458
836259
832454
828476
826310
824459
825164
826088
829863
836135
834982
843790
839409
847059
839531
839097
834045
830584
815090
815005
809773
820584
831063
853875
867601
886255
907063
916031
934399
937016
948537
923354
923921
916249
911752
896314
894259
852044
862901
817748
813119
788078
787006
766875
769629
772951
776175
779707
798880
803823
811864
827976
831167
833061
836258
836784
835880
833175
831507
831231
832385
875952
874174
872776
870146
865415
865641
869727
864777
867134
868472
870134
872592
873228
872924
870471
867292
863081
856330
852421
849479
848520
849436
856572
861956
859341
871035
877027
882368
885886
888443
966243
957869
950441
932029
925818
906111
895277
873120
879517
854655
836547
839689
816848
808045
805579
802978
799694
809675
818753
824829
838240
845768
851033
854511
855530
855240
856185
852618
850024
850542
929212
927624
928811
925661
920874
918559
911526
900507
894042
883688
872691
862360
847360
847467
827305
830699
828787
835539
835581
851952
853644
873191
871784
889342
892558
902774
909837
919916
927084
933371
854368
853227
853811
852871
853706
852076
856812
855045
861455
857616
865770
859790
866903
859833
865709
860817
863879
869443
873581
875661
878544
878340
876361
874321
869492
871559
871125
870655
872602
870665
927636
926526
922041
915541
905975
891727
876832
857159
849722
823321
819104
807805
795176
805764
804612
813782
822172
837463
853197
862849
874028
878996
879362
877062
869534
866075
864350
860052
860602
861194
888328
887455
883013
874326
864251
851413
824469
822856
782283
784614
755752
748265
744355
755295
749124
774458
798482
812941
838475
852027
866471
876000
882366
885567
884007
881999
883694
882758
882968
881442
953592
951598
946018
941697
931237
928827
915907
915700
912721
912887
917879
921512
926149
925131
925216
926674
914103
903804
900223
889849
866972
869161
857845
848015
851548
846897
850108
848844
850481
850863
851662
852592
849083
849582
845809
844070
842879
839340
835416
830906
828118
832578
827653
838607
838076
853566
866954
864924
890081
886754
900771
902078
910430
909505
916325
915149
918864
917772
918593
918080
758908
757430
757408
755706
755955
754713
754001
754198
752656
753042
751807
752564
751616
752002
728007
726462
727316
728195
728444
730812
731429
735707
737806
741957
751163
748756
763764
761855
773895
774146
780350
789245
787537
794247
805148
802703
816235
816297
826723
825972
831142
832825
831531
838174
881949
884284
885116
885815
884971
886880
886321
886779
890271
882003
881954
876049
848188
825548
826426
766643
786346
738033
731670
731548
719280
714287
718854
717108
723511
722624
729705
726809
730825
737838
833878
831032
827199
828515
826859
824597
831327
831134
833044
838466
835753
841038
829565
834768
824080
813009
806896
806931
793892
793412
794077
817955
828083
852748
868268
886720
904953
912803
925209
921046
922964
919881
915401
910633
891810
882405
852375
853697
800167
819138
771142
777009
759061
763865
763781
766670
775332
779272
799012
805601
810851
826898
828740
830107
831684
829426
828361
828213
826696
824612
873458
868938
864705
861295
861397
862233
856369
861569
865406
867042
868376
870789
873254
873032
871318
866041
859576
854369
850206
846511
848667
846357
844996
860431
857487
869570
875767
881008
884111
888193
955029
949898
938108
935415
910585
906277
889093
877871
856327
860649
826306
834591
799367
808821
794017
785940
793946
795131
810161
817008
831080
838959
846244
848559
848911
849488
846547
848472
849653
849733
926310
927187
923294
918710
917044
910863
900592
897735
884561
882163
863375
863576
840658
840800
820658
825136
819988
821909
833525
833506
845995
858011
868889
881200
890793
899051
910457
917313
925148
930200
851253
850704
849229
850195
849453
851876
851771
856114
852297
857551
848665
857426
846484
851858
846208
854087
850579
852424
858495
865438
869375
872993
874030
872662
870906
871835
869792
871518
873134
869587
927876
924556
920448
914007
900033
887645
868505
849284
841155
810056
814104
790620
796934
785778
791244
800721
812907
835352
842346
857786
870155
876065
877687
874356
871437
863790
863925
863810
861132
859727
887283
883876
879068
867999
854944
845211
812054
809705
770357
775564
733388
745385
725512
720090
749719
743090
778241
794224
816327
836118
853401
864532
872844
876108
878769
880287
882647
883396
880729
878442
951357
947524
943497
935482
929285
918156
916126
906324
904298
905018
909933
916384
917411
920468
924420
915108
906524
908586
888678
874899
871219
863946
847414
851274
844147
847934
845784
848625
848164
848820
851035
850958
850505
849202
849692
844756
841120
837825
830546
824841
821421
813537
823118
826335
831273
835183
866802
859157
880298
885555
898494
898259
910986
907642
915431
915373
916733
918184
917759
918371
758311
758910
757774
758025
756329
756238
755550
754076
754301
752387
752816
752264
751921
752142
723293
724197
723733
725997
726009
730318
730042
737979
736748
748546
745597
757381
759394
769948
771834
778451
787203
786563
791508
801928
798754
812939
812321
825134
824796
833110
838447
836497
843988
834730
884170
883934
884827
883081
883567
884546
885917
886732
882260
881357
881342
856757
849713
819760
810694
760724
781398
719106
742934
716710
712053
717095
714054
720906
719802
729057
727842
736635
734453
730804
831105
827932
828902
829049
825929
831711
834774
833793
840866
838309
837160
833076
831232
813549
816676
798609
785369
779763
781342
782265
789963
797125
812824
835083
852963
868583
885300
898144
899909
917105
912380
915188
912033
901858
886239
879522
847600
831931
804911
804850
758578
776224
754071
746581
743820
751044
759050
778372
778900
800429
807871
813551
824225
825841
824842
825273
820781
819429
818033
817104
858362
855651
852717
853034
851560
848833
854306
858512
856830
860145
866378
869030
872852
873489
872180
865420
860977
852424
839939
840757
836317
845671
844771
853874
856382
870004
876352
878438
884948
889255
949221
939305
937896
920084
917630
894144
884458
882372
849820
851171
821892
825364
797437
804810
780891
788644
784777
789027
802942
808284
825130
832252
839371
844480
846522
844956
845659
841885
840273
839733
909172
909464
909085
910752
907660
899668
897704
887545
882424
874877
858729
861394
832137
840960
810388
817971
809699
812872
814981
830471
832311
854053
856083
881173
881343
900903
904312
916772
920316
925413
860470
857259
858121
856605
857771
855409
853460
853433
854569
846834
849320
832419
841748
829269
836366
833893
847714
850195
855016
862653
866854
871530
872731
872169
871501
870554
871481
869482
870025
872543
925722
924070
919511
909740
897596
876053
867030
834599
832901
802421
798460
784204
769223
775697
777792
798823
806582
821758
832848
855913
862737
871012
873689
873412
869541
868114
863487
860997
860951
861342
886601
883660
876949
865677
848064
837232
803193
804226
758677
764048
724720
729940
721910
726741
724741
736065
762959
771121
808613
813810
845823
859740
868325
876638
881751
881944
880886
878947
879374
886445
943776
942142
936047
931356
917633
913779
895906
890421
894828
898266
901631
905302
912103
920429
912813
907829
910552
893651
879395
882432
864846
850421
853171
845380
846068
844994
846405
848608
846472
848689
856841
857375
854917
851383
847763
847728
842172
829023
828155
815600
814495
817420
808683
820901
828776
821548
857454
855055
879268
877883
899141
895900
908067
908904
912297
915423
916398
916904
918172
917267
761613
759922
759925
758102
757034
756039
754599
754943
753042
753606
752353
752465
751704
752533
733940
733685
734792
735315
735092
736462
736582
739423
743728
749651
746750
763113
759575
772353
774491
786029
785436
791454
800352
796754
810138
808365
822742
822169
831772
838401
836075
845466
843150
843939
884576
881019
884934
885022
886600
884643
884954
882655
883934
878618
873892
845651
854855
803459
801875
766261
755858
723781
736542
707112
717996
711705
718203
716275
727526
726198
737387
735019
741238
751980
824157
827441
829155
826868
831871
836590
832387
840488
837648
836482
837693
833653
826095
812229
805422
790398
785248
778318
767856
770660
766517
795787
789582
823611
833904
856825
867716
882217
892160
884908
904552
904393
900239
890620
885026
871645
833975
840557
794821
791830
762087
770698
739133
753203
746341
753847
744900
772694
781226
782596
808770
809518
814495
822430
822452
821374
820668
817783
815506
818068
858796
856796
855415
848094
847124
849587
850559
847914
854842
858112
862451
868108
871591
874564
871065
869364
860074
846005
841008
837988
830497
840563
842162
851410
856446
872042
873014
881405
888991
890330
933499
937430
922708
921567
905794
904270
873765
882693
844985
853124
817227
825546
793807
799783
780892
778238
779668
779399
802771
800690
819699
828026
834918
839658
839878
839535
837477
840944
840609
843881
913186
913063
913646
906843
899707
896779
887629
885353
875900
871850
860226
856381
833457
831171
808484
812911
795934
798078
809588
815049
830149
839591
854647
869208
883202
892637
905091
909691
917034
916150
861479
861700
859561
858747
855899
857733
860927
855372
852486
850956
834332
831288
816868
825527
814357
819738
825070
837724
846711
852219
865475
868443
871204
875819
873831
873258
870527
872655
869227
870546
922888
921860
913856
908971
885142
874714
854210
825867
819504
792241
786116
770938
776765
774939
768233
793301
790653
812721
832113
845848
856691
864546
870081
870151
870369
869349
865177
864157
856364
857338
886105
882579
876303
863636
843467
831508
799548
798586
747834
762329
712794
726708
697596
700677
721766
710604
752966
769000
788150
809015
845970
851905
861975
879200
883996
882347
883032
886675
892220
891466
942384
935934
932222
917564
912971
889918
881559
878456
876396
880648
888158
898793
908962
906688
906409
910850
898379
887049
889294
872448
856210
857053
852987
844696
844192
846425
849353
848360
851113
849890
858243
855759
856454
857026
850770
844919
844845
828776
825010
811597
810780
799731
807832
802054
830360
814936
853076
846858
879091
874125
898038
895210
907238
907750
912605
912947
916521
915177
915013
917408
759786
761074
760385
759930
760266
758690
758636
757019
756767
755246
754040
753417
753001
752883
736218
732626
731166
731939
733030
736421
736523
744316
742849
748135
757855
758267
767311
774931
780022
785532
791201
798788
796579
807533
805561
819141
818769
829431
835887
835755
849724
849390
846907
836705
886389
887976
889807
888347
888686
887262
884227
881618
882962
871892
866795
844635
850266
791610
807542
747797
759361
721838
729896
711063
713099
717304
714474
726101
724115
737286
735986
743858
752753
742856
827697
828195
827426
832329
837831
835535
845958
848869
847269
849858
843200
832369
828661
812300
801797
787163
775410
773243
761217
764533
766280
783930
793846
809290
827903
841389
856837
862739
867655
882809
875660
891640
891810
888750
880003
859799
840683
829649
790312
799574
756060
768049
738083
744491
740457
745905
749760
759504
785810
780654
798319
812164
811841
813200
813588
812886
812067
808333
810026
807921
824671
829919
829284
827931
827608
829169
830643
838528
845269
852711
858548
865132
870216
872640
874623
870687
857496
850810
845950
832541
829792
843111
839082
853300
861464
870022
875863
886375
890658
891897
935914
926795
925885
913174
911409
897801
878964
876211
854819
851899
819506
830535
793497
805132
780279
785146
787684
780589
799957
803199
814348
822722
832788
834467
838251
838835
839080
837933
837872
844783
897059
898556
896225
893720
892019
886800
885848
877860
873908
872746
857113
858475
831132
834982
803677
809546
794791
801283
803691
809310
823090
837610
844684
867405
875048
891334
895586
905059
906273
913664
881974
871976
869797
866627
866509
865079
861298
863458
855802
847477
839956
817441
824529
808850
818697
820525
821141
837394
843348
854166
860689
868366
874711
875748
876555
873745
870580
868711
868505
867288
932654
920066
910822
896624
880737
862111
846972
816425
810700
779587
778261
758700
756054
764222
758273
783280
786711
820303
820622
840096
850258
860230
862761
868151
869390
869049
866291
859750
848829
838719
902040
893200
877263
860663
841777
828331
794868
794375
745943
760197
705107
720876
699703
697580
716078
710696
746142
767571
774838
822205
836650
843579
871247
882376
882115
889409
892474
892564
891350
891032
924964
925134
916716
915202
896075
881294
883232
869981
867433
867029
876756
887520
901135
902351
909449
901666
894483
895101
882223
864902
865110
859004
849741
847678
849727
848233
849723
851321
851061
852276
857175
861880
861851
857985
855924
847442
839825
833475
826228
804185
809735
799976
803363
794493
821129
817595
841864
847840
876158
874106
896976
897341
906041
910122
911203
913711
914229
917160
916419
914816
762863
761324
761128
761063
758886
758185
756660
756552
755300
754645
754442
754576
751232
750793
749678
747822
742059
744180
743356
741954
742443
740820
744899
743643
746103
756422
754248
763902
772519
776317
785259
789102
798904
796389
805783
803665
815727
814335
826239
834100
834859
850204
852278
853141
862519
841618
859155
829077
867969
875012
884134
893182
888978
886642
886595
879673
880796
866937
862653
847641
828900
794269
805871
741412
760225
719752
733568
714087
722695
714750
726000
722634
737387
735107
744233
757529
756073
774752
776153
777146
804064
818048
830932
836476
835036
845660
848407
845956
853240
853296
847298
839722
830085
818731
802940
794639
776095
769214
758114
765986
760890
788383
782031
813723
816240
838116
843901
858368
865170
863696
859058
873882
880962
887505
888623
885326
870408
865319
837414
829559
797337
797267
762743
767976
733619
748521
745409
742152
757230
757743
783145
781965
798651
803980
813675
812500
815784
814147
810486
808451
798971
784123
773334
733051
823521
829300
833594
833427
830784
828637
831949
834577
838736
845191
853217
859081
867926
872966
874210
868214
861650
857390
843965
838120
836017
845521
841258
862739
859357
875482
882683
888264
892951
897493
892560
892367
913995
922091
916320
916766
901869
902905
881889
879411
855284
859192
826260
832529
809125
802590
791722
792392
784599
784646
799150
809068
816076
823970
829417
835778
835153
836301
838534
838795
843818
853867
858271
850605
886996
891559
895415
892873
887423
885995
880664
879454
875676
870491
862450
860873
834561
838455
805191
813011
788924
795596
804117
804784
819177
834166
842781
857950
875706
882689
895576
897527
901836
896550
895502
886153
878115
872352
869699
871185
872383
872643
873273
866327
863768
851240
842542
824489
817039
812509
809377
820079
815988
831419
847591
851500
862259
871453
876889
877395
878308
878610
875539
876483
874131
876418
872029
880709
891175
895625
891085
883502
870799
852817
833991
809467
802088
768242
767935
751402
758367
761014
762784
774863
793071
813968
820795
835464
847613
852981
859647
865882
870478
872927
872014
866295
853018
847367
838097
830588
852844
859543
858224
852464
839600
820414
797206
795312
745917
755968
706766
724111
698063
697453
706126
739533
730703
767145
786154
825563
819496
860458
874320
878669
890494
893748
896094
897918
897646
898303
913034
895038
925410
916968
917969
898196
887755
871277
861087
844821
842157
856525
876096
879540
891571
904772
901063
898774
899821
890338
876574
875451
868748
854875
853342
850768
849941
852803
853157
854388
855951
856594
853750
861452
863336
864966
863019
861081
859150
853781
842509
831309
831595
807550
809897
800914
806333
792311
821758
814840
839500
847510
877933
873269
899698
896811
909141
908386
913443
912730
914728
913851
912980
914356
911338
911677
759815
760945
761781
761659
763062
762568
762596
761460
760191
760390
757723
754800
755301
755017
750030
750038
744971
742458
741512
741949
741156
744398
743973
747554
751783
751316
762939
765183
777388
777618
789684
796557
796194
804164
801452
813315
810060
824028
829785
831516
849146
852395
856496
870928
865206
865811
876759
863155
878099
893772
897533
892556
893250
886018
884429
879719
873287
861979
863871
834398
820883
806747
782709
747984
761699
724144
734087
723270
719838
729297
725451
739811
735584
746417
756637
756944
770844
769546
790501
795679
809630
823685
836149
832571
845456
850849
850492
862240
861793
857405
854209
849402
839976
825708
812816
801690
792030
788495
773665
773397
772435
786840
789764
809227
819301
829951
842586
848326
856351
866823
861899
873386
876750
880996
882803
873917
869735
864561
842728
827077
811437
803486
763782
778089
735603
748794
748605
739733
764009
760953
782808
783736
801806
803173
807721
812365
809771
809325
807814
803572
799771
788293
784140
778012
798153
802698
802623
804204
805092
810859
818749
822684
829779
837585
845529
854806
859047
866000
870154
870700
866657
857920
847145
844539
842153
846871
850354
863149
867126
881547
885689
896002
899813
901139
900458
897217
920014
916648
918993
911950
906693
897383
895547
877816
866186
865446
837195
835514
814028
821367
806434
801238
801662
809114
806592
808279
821346
824121
830832
833268
834587
838039
835880
845093
844733
857037
858034
863078
871239
872924
872548
874361
879133
880489
881668
880758
880809
876466
867490
863122
848883
839838
816183
818422
793951
802551
802602
809248
817820
831291
844188
857448
867632
882268
884048
892787
891055
895433
880195
882870
877564
876066
879301
881106
882552
883856
879803
877769
866609
862786
841931
827222
827817
819544
817471
821655
818841
837530
847559
855559
865669
874865
879394
882767
879271
878630
877040
874223
872518
869514
872527
870689
884229
880307
880627
872374
860558
844029
825702
806245
792504
760952
767628
763114
754380
777138
770933
791949
800053
810525
825282
836778
841110
851550
855923
859511
863408
863884
862087
853958
849609
841301
835198
835451
854271
851844
853495
848496
834887
821013
801403
788345
747701
760847
711956
728329
703607
713865
714801
743175
730476
785523
789608
810271
838224
866769
870552
887208
894506
897845
897033
897929
901443
900391
912828
909022
911679
914913
902854
897663
877706
861204
861760
835779
845752
839129
868060
879710
884545
899326
900303
901790
896453
886784
885167
877473
862110
860977
859437
855655
856080
855474
856979
858639
858960
862068
860044
866833
866472
866630
866996
867729
861322
858172
850074
835240
830903
818852
808675
802661
802556
803519
811603
831740
830025
860241
869813
877890
899941
899099
910674
910410
913165
914940
914311
915849
914853
917070
912778
914278
763510
763875
762711
763216
761446
761245
760118
760222
759717
758724
759145
759381
756881
756995
752751
750624
750901
748217
747640
746145
747270
747456
747290
753255
748982
762358
758148
774277
776630
782543
795550
795181
802644
801735
809698
808086
818682
827262
826891
846033
848141
854218
870630
867453
874064
880640
872717
882510
901970
896251
898045
897308
890733
886909
882089
873529
869610
861526
852021
826859
819757
806243
768348
765967
758176
731225
739429
730249
735874
730969
743386
738560
748717
757134
759102
766621
782411
778975
800509
792284
820526
829955
829855
844133
852035
850072
863723
866786
866579
866934
865399
859950
849889
838590
826447
814169
801761
793422
789009
785209
782565
797152
787111
817489
811955
834197
835705
848573
852726
862446
859126
867525
867270
871163
868138
871443
867596
859111
850092
835209
820979
820132
770744
783639
748568
744273
747152
747634
769177
762799
789811
785940
801881
801909
806389
807971
811172
807379
805618
804027
794892
794444
781940
778928
806072
810067
814862
814090
815000
812464
811981
819799
823635
830000
835840
845062
855953
865002
866245
868965
867268
861220
856608
851328
853507
854890
856142
870328
874640
884299
894066
899302
901328
906922
901999
906513
916325
916885
914593
914180
906585
903036
895414
888612
878945
867297
855314
847630
836120
819357
825542
816832
815000
808161
820769
822371
824411
829556
831435
836344
834694
837495
842856
842409
851055
854389
860097
856301
873328
869511
876589
880751
878911
881420
883590
887347
884768
883120
878514
871609
857980
854435
825841
822111
807912
801726
806573
806371
828099
826128
850229
855426
867116
873651
884772
883343
887011
878407
883035
877489
878400
879869
882872
887248
891450
890861
890195
881273
878755
860549
849498
839068
833566
816878
820671
822697
834136
834796
856752
858964
870242
878211
881371
881532
882241
878794
874739
873867
865699
867412
858195
865535
864092
865884
861163
858977
851111
838649
821661
808714
793756
774736
779091
760994
770140
767886
786097
796925
811278
817087
833349
836983
841776
848301
853888
855811
856045
856363
851497
847657
841167
832706
830550
832825
840748
841334
844300
838247
833374
822301
802213
779573
766109
760696
721171
732091
714101
727375
714225
743227
745164
795934
781990
828626
850744
861776
877597
891543
897300
900001
902753
903723
904732
904180
908193
904135
916035
908750
905089
896624
874579
865382
856353
837617
839426
849409
852782
879795
887793
894464
902660
898265
893060
891855
884574
871151
868596
867002
858538
857765
857861
859168
861387
860709
864022
864625
866344
866662
866030
867429