/*--------------------------------*- C++ -*----------------------------------*\
| =========                 |                                                 |
| \\      /  F ield         | OpenFOAM: The Open Source CFD Toolbox           |
|  \\    /   O peration     | Version:  2.1.1                                 |
|   \\  /    A nd           | Web:      www.OpenFOAM.org                      |
|    \\/     M anipulation  |                                                 |
\*---------------------------------------------------------------------------*/
FoamFile
{
    version     2.0;
    format      ascii;
    class       volScalarField;
    location    "0.005200000";
    object      rhoEu;
}
// * * * * * * * * * * * * * * * * * * * * * * * * * * * * * * * * * * * * * //

dimensions      [1 -1 -2 0 0 0 0];

internalField   nonuniform List<scalar> 
12384
(
382068
337301
302974
283263
274352
271189
273632
277902
288784
304135
334025
405936
491611
273732
-16330.6
-33030.7
-63563.9
-79267.5
-77741.8
-72706.4
-57607.6
-48705.7
-40413.8
-24068.9
-29893.2
-13966.9
-15504.3
-7626.28
7956.76
11149
26595.3
29140.7
42907.3
41658.1
48708.4
48083.5
45337
49020.2
45668.1
39483.3
32789.3
37411.4
43253.9
51582.1
51239.3
43249.6
55234.5
76410.6
80951.6
78806.8
79428.7
79821.4
79785.5
83019.8
81397.2
74441.6
73173.2
50041.7
54112.9
10591.8
23684.8
-16655.3
-7895.31
-37169
-41417
-43481.3
-56453.1
-59991.2
-61495.6
-61824.3
-57196
-46471
-41271.4
-40457.7
-19123.5
-44767.9
-67659.9
-53579.2
-19837.4
2065.92
17421.4
33947.4
30399.8
48993.2
44328.3
58525.9
60051.7
72868.8
79118.5
84816.2
83722.4
82889
72647.3
75278.8
56429.3
74641.5
65777.3
70846.8
73392.2
55044.5
56502
58479.6
100674
112253
-371.838
16912.4
24754.9
23443.3
11735
14257
-4745.35
5941.16
-17572.2
-470.857
-21270.2
-7866.69
-20936.9
-15578.5
-14952.1
-17871
-14296.3
-16716.9
-14589.5
-10809.8
-8770.87
202.303
2404.58
5621
6733.77
21378.3
52879.6
63399.6
57771.5
50777
-34723.1
44526.4
58542
58495.3
54830.8
50818.6
45268
37260.7
29105.7
24867.1
16820.6
11495.4
6697.69
4402.81
4821.48
6813.36
13560.8
18579.9
24435.4
33106.4
34064
38344.4
39423.2
46227.8
49796.2
53150.1
65869.1
79385
65485
42244.2
35610.7
27950.4
-13308.1
-67196.3
-89681.4
-103539
-119381
-107062
-120864
-95189.8
-108018
-89151.4
-89247
-93110.4
-87379.5
-94605.6
-96279
-106014
-109791
-126061
-137106
-153252
-167912
-184044
-201150
-216455
-226240
-224188
-191945
-140821
26072.5
23364
17351.4
20617.8
27891
38746.4
43052.3
45005.6
39499.4
56079.7
38227.2
57610.1
37940.1
54243.3
39316.3
48867.4
41492.7
43748.1
50193.8
40350
39167.5
24301.9
21763.1
13764.9
19087.4
17280.3
51410.8
74266.9
106628
116690
-93422.1
-76015.1
-60686.4
-47827.1
-39636.2
-25890.7
-19205.2
-1618.04
5675.13
23327.1
28698.2
39333.1
42372.3
42185.9
38741.9
30511.8
19561.9
10344.4
458.712
-4042.93
-4607.1
-7035.93
-12555.6
-19579.3
-29915.6
-39003.2
-36189.9
-44153.9
-45177.6
-58368.7
107538
96700.7
81490
65777.7
52569.2
39294.6
33054.8
22115.5
26405.4
24072.3
16863.7
32519
22673
27344.9
28971
25702.1
24940.4
22253.7
16086.8
11824.2
11578.7
7070
3989.84
17251.7
6425.46
-17742.4
-33244.2
-39465
-41288.7
-44205.6
-97159.7
-85306
-68512.6
-55724.2
-47290.1
-39217.7
-46010.2
-22757.1
-37492.7
-22689.2
-31790.5
-14545.4
-11919.3
-22439.5
-5639.05
-28790.6
-12835.9
-23136.7
-11589.1
-11867.8
-15142
-24612.7
-35809.9
-36866.8
-30397.4
-27886.2
-29649.7
-27950.1
-28861
-32821.9
-292150
-145874
-65259.9
-82051.1
-112693
-109538
-107187
-91505.7
-85029
-75754.6
-69133.4
-65874.7
-62724.7
-59932.6
-58078
-56672.6
-58116.1
-60022.2
-61335.6
-68523.5
-81417.2
-81011.8
-101564
-104233
-121405
-132431
-152017
-160482
-163047
-163413
-211656
-202670
-192496
-173206
-154932
-159255
-167405
-19240.4
-14030.3
-8548.12
-2164.5
69.5244
9815.95
4933.86
17769.6
9165.57
23103.3
13691.7
17942.9
26419.6
11402.6
13196.3
-16450.8
-20491.7
-28641.4
-30637.1
-53493.6
-113331
-98777.1
-68556.7
234710
220358
213404
216773
223027
232469
236817
237341
234039
238379
258506
333160
454800
331788
-23115.4
-52529.1
-74660.7
-78315.2
-62314.1
-37018.5
-18271.1
-5695.52
-573.276
-2291.11
1169.42
13360.2
19382
47719.8
63382.7
85677.6
105178
115179
130053
128042
134849
121259
114638
102637
82225.7
69304
48574.3
40250.5
46432.9
71877.6
50660.9
45117.5
63987.5
77561.6
76029.6
70606.1
82541.3
94717.7
97734.5
105833
96394.8
106709
83289.1
94931.7
77481.1
52531.1
42236.4
33521.9
3207.93
6065.68
-17036.3
-28298.6
-35912.4
-51922
-55171.6
-59194.5
-58173.3
-51991.2
-46650.4
-28350.9
-21235.5
-51908.1
-59428.5
-20521.8
22268.7
39330.7
50084.7
46191.5
55379.2
49894.9
52324.1
46924
53267.3
54613.7
62162.9
63468.3
67409.4
62958.1
66814.2
60276.6
62246.5
74361.4
69228
90637.3
79101.7
76133.1
67665.9
59388
65683
92437.6
4918.67
27311.3
32377.7
26959.8
9047.13
8779.79
-1125.4
19447.4
6370.2
33040.2
17669.8
26178.2
23940.9
18415.7
12473.9
10282.8
-1230.37
-7920.78
-9018.38
-10503.4
-9826.81
-3976.39
169.062
4132.71
4039.68
6015.84
11891.7
22279.6
22182.8
20025.9
-11927.1
49707.3
54883.8
45518
35954.9
28395
20895.3
12808.7
7275.82
-3799.6
-11789.8
-19292.6
-24237.8
-25218.5
-21095
-13650.1
-6176.97
287.437
4327.77
3820.99
5764.86
4207.13
6057.61
12952.6
23438.2
38664.5
55025.4
75220
78712.4
60977.2
34433
2950.71
-47727.4
-62141.3
-64146.3
-51663.5
-64535.6
-31204.1
-29058
-14458.7
-13822.9
-22670.6
-20642.3
-19721.3
-19489.9
-14918.7
-13909.1
-15586.6
-18933
-35618.8
-60332
-89751.6
-122460
-151474
-178608
-204156
-224586
-231686
-214599
-160119
39517.8
47026.8
51129.5
52740.7
53607
51572.8
47800
51670.9
47599.5
51630
48124.6
53046.6
50513.9
55440.3
52994.8
54146.6
52817.6
56615.8
52615.2
54728.7
52813.9
48145.4
40756.2
28341.6
28461.3
19378.1
32165
38875.8
70158.2
98647.4
-39485.8
-22386.7
-14541.9
-11571.7
-5781.97
-429.537
9396.81
18645.5
31749.9
40957
54231.5
59756.1
69697
68241.3
64262.1
61330.9
54569.5
45138.8
32272.3
17459.3
7125.84
1779.22
-5977.71
-15342.4
-14705.2
-15447.8
-11420.4
-20278.6
-21748.3
-41455.6
72607.8
50384
24496.7
1382.55
-15284.9
-25565.5
-31195.5
-36248.3
-33968.7
-38398.5
-32448.9
-36619
-29601.7
-32726
-27999.4
-23385.7
-15118.2
-7161.61
99.7884
5504.74
9030.8
11901.4
8671.05
13540
-11615
-47586.9
-59689.1
-63261.9
-63602.8
-63880.9
-71724.2
-49964.7
-39262.7
-36659.2
-41402.1
-46456.7
-43430.7
-51374.5
-57706.4
-41994.8
-51310.1
-40707.1
-38920.5
-36347.2
-35253.3
-32560.5
-28400.5
-23067.5
-17836.7
-13591.7
-13041.6
-16508.4
-27676.8
-38068.6
-35528.7
-32440.5
-33316.7
-38657.6
-40042.1
-40702.7
-175433
-86052.1
-77365.2
-92375.1
-86582.8
-58176
-39448.5
-23298.3
-22966.2
-25311.2
-28074.9
-31046.6
-34209
-37840
-41453.4
-46774.9
-51367.2
-51510.5
-60644.8
-65677.5
-72565.4
-73406.8
-85503
-88118.3
-99675.6
-113079
-133195
-151955
-158385
-190468
-154206
-154206
-165520
-172735
-177737
-186402
-75281.9
-4264.69
531.92
9196.2
14543.9
20504.3
22712.4
23374.4
29377.8
23036.3
30502.5
25383.2
32065.2
32031.5
42134.6
43357.7
18667.2
-15948
-29722.6
-20428.4
-20892.6
-71065.5
-125590
-72475.9
212427
209761
222615
255605
293705
316600
326009
318526
293549
257889
238970
270775
397058
369951
-35939.9
-69034.6
-78245.3
-62556.1
-30418.4
-2488.04
751.299
8542.09
3589.35
-200.074
10149.6
20865.1
54313.9
87734.5
119995
139839
164846
172689
188322
193447
197397
189571
185600
161162
142271
109782
80993.4
51421.8
43247.2
74148.6
49034.6
47465.6
66629.3
76828.7
69683.5
72567
84301.2
92299.6
97721.9
111935
107192
114478
106742
113025
83572.2
83635.4
39371.4
51725.3
21132.6
7985.48
7736.32
-6814.68
-18548.6
-29778
-43341.7
-54307.3
-56309.6
-55487.5
-47601.6
-32801.7
-27956
-55217.3
-46463
5089.27
32032.1
35512.7
39148.4
39765
38809.1
36374.7
22508.1
24053.5
20492
25888.7
27650
33383.4
30685
35824
32345.6
40873.2
40709.8
54610.8
66618.3
70277.5
82920.4
80743.1
82229.2
67527.8
63499.8
69414.2
11291.6
32494.1
32992.1
26253.4
19415
48253.9
52537.2
87810.2
78491.4
106008
83218.5
103755
88366.3
79737.9
71545.6
60272.2
52158.8
29979.9
8283.93
3141.38
-6089.72
-8470.26
-4388.73
-300.548
1112.25
1014.96
-487.332
1231.2
1776.44
7652.61
4550.48
50795.2
46943.5
34700
26285.1
21768.5
17260.9
13771.2
1396.48
-7441.2
-16564.3
-22004.3
-19413
-4249.56
16130.5
34433.6
50825.1
58587.9
61927.6
58430.3
43518.2
30781.5
13137
4909.62
6203.68
19769.2
37446.8
65410.7
82700.5
72839.6
22497.8
-16872
-39441.9
-29144
-29107.7
-21614.6
-15003.3
16695.8
3179.03
-15083.7
-20768.4
-39848.6
-40904.6
-33402.8
-36590.5
-25318.5
-15667.5
-12961.9
-1658.03
1979.28
1167.66
-19213.8
-59556.2
-111216
-150719
-187813
-220198
-235853
-227739
-175823
43307.1
52135.1
52483
50747.7
45669.2
41490.9
44983.2
46519.5
44910.7
52957.4
47198.7
56243.7
45161.8
55833.4
45636
49103.9
50059.9
48686.8
53195.5
50314.8
54973.5
53190.2
50742.2
42442.5
39898.3
25451.2
31229.4
31907.7
51157.8
85668
-635.985
-3571.51
-12891.8
-16773
-19192.1
-12776.1
-7167.97
5846.38
15782.2
29755.4
39482.4
50566.9
54634.8
61066.8
61446.3
60434.8
59024.2
54601
44676
32135.4
20154.1
10262.6
-346.879
-9022.09
-10861.8
-8942.57
-560.868
-5742.98
-14438.2
-36214.9
33779.7
8943.78
-15674.8
-29743.1
-36761.7
-42495.5
-42753.5
-46764.5
-44780.9
-48927.3
-45882
-51789.7
-50968.1
-55319.3
-54614.6
-54613.1
-50470.7
-44160
-31578.2
-18622.7
-5283.84
5265.62
9346.57
9205.13
-13645.3
-46134.6
-56992.7
-59480.5
-60257.8
-63416.7
-60048
-39978.1
-44431.8
-55222.3
-64778.2
-68329.3
-80562.9
-74849.2
-79216.3
-78115.2
-80050.3
-74814.8
-69768.3
-70170.9
-60632.7
-63848.5
-58291.1
-44691.8
-34940.8
-25499.5
-20063.1
-19964.4
-24399.9
-34997.4
-40384.6
-38671.2
-42489.2
-44578.4
-46353.6
-42886.5
-106308
-76098.6
-81937.4
-66778.1
-34194.9
-5539.85
-4555.49
-4542.17
-13016.5
-20263.4
-29842.6
-38380.8
-46689.9
-52832.1
-59274.5
-61840.5
-60016
-65441.9
-76906.3
-75539.8
-92476.2
-97705.8
-103770
-98536.3
-100320
-103515
-117672
-139437
-152177
-181473
-175496
-201273
-159618
-162181
-153465
-97492.6
-16500.8
8075.74
14297.9
20564.9
24598.8
25192.5
32799.2
31391.4
39941.1
33002.8
32524.8
23675.2
24444.9
16712.3
33375.2
46425.2
43477
7748.95
-48099.8
-34592.7
-14132.4
-45293.6
-135966
-77382.4
209082
222892
268481
327735
353309
360435
359083
358158
345809
309085
253968
248790
347479
387519
-51341
-80616.8
-73474.2
-40824
-8632.33
5164.9
5677.23
12201.4
2913.95
5328.65
10278.7
41090
80582.7
123947
144688
168684
178174
197794
210596
223669
230266
237732
223671
214895
186713
158112
113059
73156.1
55683.5
71379.5
50829
49513
68688.3
74665.5
65663
65391.9
69052.6
80008
90606
112701
106927
129777
121190
98957.6
84295.4
67101
30392.3
13666.2
11023.4
-8006.08
2525.74
-8918.64
-10508
-15837.2
-28005.3
-41272.9
-52813.8
-53830.2
-51660
-39061.1
-32187.9
-57100.3
-37408.3
12693.1
27927.5
25931.8
30556.1
38463.2
34292.6
14725.2
13529.8
5759.15
9549.68
5087.61
5835.48
8826.87
16090.7
12178.5
20032.5
19900.5
26984.5
34582.3
49162.8
56535.2
66659.9
77152.5
73954
74972.2
56829.8
61359
15082.9
37744.3
32005.1
43684
72095.7
115138
108607
138284
118140
123671
119542
122986
113133
117471
113456
106278
87617.9
74654.7
46360.8
19985.5
9075.22
-3148.26
-7393.31
-4597.48
-1515.27
-695.965
-3530.13
-5658.33
-6453.08
-2389.89
13143.6
49172.7
38988.9
27006
21687.5
21685.8
23092.3
12253.8
4413.48
-5430.85
-12210.7
-8098.85
11634.8
44723.8
73284.1
93797.8
105781
110656
112601
110109
102224
83592.8
60910.6
34202.7
11493.2
14819.2
30744
58036.9
83430.8
78858.4
10466.1
-21151.3
-19363.9
-17777.8
-14698.4
2018.98
23426.7
6530.44
-9103.67
-51005.3
-61598.5
-52046.4
-52141.1
-47794.5
-36446.3
-32469.2
-28447.8
-17391
-9356.14
-1195.09
11196.1
11413.7
-12608.4
-66180.3
-126187
-170994
-213405
-239730
-236691
-186137
42283.6
48436.8
43940
37494.6
35702.3
40667.9
44927.8
47552.9
55011.2
53913.4
55512
51094.7
49058.9
51358.2
42303.8
44405.4
40638.1
42706.5
38916.8
46452.3
43840.6
55301.5
49081.4
53292.2
45053.6
36799.9
31318.3
33522.4
45023
77440.1
2435.91
-14994
-30932.4
-37506.7
-34496.8
-29076.9
-16297.9
-5263.63
11723.7
22577.1
37778.9
44096.3
54805.2
54113.9
58590.2
54033.2
52888.2
53376.6
50901.8
41827.7
31218.6
19615.9
7508.58
-2339.01
-8885.69
-6763.86
3414.26
2787.55
-5765.23
-33573.7
16637.1
-14492.3
-30556.6
-34791
-36929.7
-37980.6
-39154.1
-41999
-36595.7
-44254.7
-43784.8
-47606.5
-56282
-54696.4
-61280.2
-65779.5
-70538.4
-67034.3
-57478.3
-46394.4
-26469.4
-5695.76
6708.4
6923.4
-10519.1
-38107.4
-48519.9
-48609.9
-53456.4
-58678.2
-46810
-47013.3
-60699.8
-72072.2
-78833.2
-86446.3
-96675.5
-92041.8
-103422
-93093
-93179.9
-88885.6
-89304.8
-81514.4
-84639.2
-80154.4
-78010.8
-72213.5
-60860.3
-45179.5
-32843.3
-26987.4
-25697.5
-29854
-40216.2
-44368.4
-44249.3
-48142.5
-50453.2
-48974.5
-75814.6
-76351.8
-66841.3
-25946.1
4368.1
16056.9
6173.17
3448.15
-5361.13
-15977.5
-26773.1
-40233.8
-51953.6
-62470.3
-64549.7
-59609.4
-62176.6
-65257.8
-72439.9
-89519.5
-110110
-110209
-119497
-121061
-109282
-104775
-109602
-129155
-145635
-170756
-197580
-124910
-90803.6
-114794
-88091.6
-30979.7
10369
17968.8
23913.2
28359.8
32891.1
40438.4
42002.8
49646.6
47034.6
53856.3
52964.8
34924.7
30706.3
11326.3
14435.5
37002.5
53351.3
29220.2
-44443.7
-45856.9
-18769.4
-39339.8
-128074
-78836.9
216101
245562
320535
358077
360576
355231
344112
337732
341062
329126
272536
247194
322474
387329
-57973.5
-79180.1
-61184.3
-23878.6
1337.09
9062.57
13760.2
20736.4
11204.8
5321.45
20518.4
48510.9
103623
131334
156377
163883
180896
206278
221628
243634
261972
257271
261600
242534
225605
188857
145324
92858.6
57759
83569.9
48967.6
54763.1
71205
74587.9
65196.6
58705.1
55769.9
63947
83906.5
106801
116148
138499
109790
93839.8
72503.6
15967.5
12876.2
-21430.2
-31572.3
-23595.7
-27786.4
-21906.5
-12620.7
-13606.7
-16481.4
-29144.4
-41420.1
-51806.5
-49821.7
-29319.7
-36416.6
-58498.8
-32392.3
12542
19721.9
16952.5
33510.2
36723.4
21268.3
9769.03
2975.59
5020.05
-7244.95
-3635.99
-9073.58
-11823.4
-8285.65
5108.06
2068.21
8246.69
10608.1
22821.9
25790.7
40715.2
50391.9
60302.4
68707.9
63184.6
55473.3
39441.4
17068.5
29980.8
43282.5
92286.4
122688
136977
131588
141797
112065
136907
110023
118461
114964
119303
120932
118507
115379
95231
81756.6
47824.5
18066.7
5825.22
-4902.34
-6840.46
-4594.41
-3892.3
-5252.48
-6861.19
-9584.25
-10536.8
20913.8
47755.2
32431.3
24358
26109.9
27371.1
18971.1
15849.5
9162.94
-586.395
-4687.4
8226.39
43962.8
81931.9
104783
115265
120546
125932
128707
128895
128887
118853
95800.4
75473
38187.5
26560.2
34176.8
57406.1
84855.9
84842.2
-1793.89
-19376.3
-12031.5
-4303.4
2735.87
30847.5
18620.5
-16553.2
-55834.4
-63770.5
-69486.8
-47424.8
-49198.8
-27683.1
-27106.2
-26074.7
-21098.3
-20855.7
-15083.2
-7332.43
6768.34
15188.6
7678.04
-33751.3
-104902
-160534
-213088
-240582
-236292
-189379
41058.2
44975
34335.2
30927.8
36852.9
43070.9
48975.1
58322.4
56950.9
59840.9
51004.8
51799.4
39531.4
38400.9
28675.4
29879.9
29801.1
29431.9
33287.3
30025.1
35254.6
43971.1
49967.9
52543.9
50044.7
41161.5
36454.6
33158.9
43262.7
73062.1
-7476.76
-29719.5
-43152.8
-44508
-40641.2
-28030.5
-15368.5
2393.64
12496.3
27206.7
31428.3
43284.9
40579.6
45591.7
48166
54720.7
51122.6
47202.8
45870.1
44422.5
35868.4
25590
14041.4
2784.52
-4507.31
-5139.65
2929.57
10039.2
1006.36
-33783.1
3009.94
-26384.6
-30865.1
-28548.5
-26154.7
-23394.9
-23044.4
-27611.6
-24770.4
-38093.5
-33789.6
-46810.2
-46090.8
-57191.2
-65275.3
-72823.1
-77365.3
-73849.5
-77827.2
-67702.8
-46634.6
-21568.8
-1142.55
2190.08
-6397.23
-27099.4
-36607.3
-35202.4
-43591.1
-54103.8
-41523.5
-59465.4
-70995.1
-78500.4
-85347.2
-94249.2
-108774
-107399
-112659
-100770
-106889
-96460.2
-96273
-97795.4
-92074.8
-96885.2
-95025.4
-88705.3
-85496.3
-66388.3
-48330.6
-36436.4
-30456.9
-31449.5
-38322.7
-43543.7
-44832.2
-47353.7
-53495.5
-50228
-72245.2
-72680
-39583.5
5614.38
25505.8
23999.7
26358.4
20477.4
15755.3
4723.4
-9641.06
-27641.4
-49837
-62304.4
-62481.8
-63128.8
-59108.5
-55009.8
-81844.2
-107614
-115321
-112876
-121562
-127753
-121003
-105523
-106715
-121643
-141200
-164049
-194017
-70241.6
-62096
-76437
-37134.3
3646.28
22846
28159.6
31382
35663.4
38207.9
37308.2
45429.9
48582.3
48951.6
49777.2
66371.9
51375.6
40706.1
17456.6
6615.73
24128.1
53412.6
45087.8
-30714.9
-48800.9
-28410
-46708.2
-127228
-71775
217244
268760
341932
352204
340295
334179
325638
305615
305848
313015
276929
244070
310165
388228
-65069.7
-77584.2
-50705.5
-16791.3
-1192.11
5298.59
17913.7
35926.4
19200.9
13835.6
18007.3
58937.3
106333
142054
150207
161584
187582
212073
244373
273591
276556
289371
276763
270301
243053
215167
170247
105364
72899.1
83379.3
54255
61376.2
73130.4
72399.1
63332.7
56189.4
52658.9
58976.6
74524.7
111118
123232
128022
111781
82104.4
39347.6
-1846.1
-5829.34
-47343.4
-33480.3
-49104.3
-46215
-32619.5
-21746.5
-11311.1
-12894.9
-17339.6
-31839.8
-42481.9
-45407.1
-34209.1
-39128.5
-60681.2
-28252.4
7594.2
11690.4
17973.7
36700.1
34213.1
18917.9
7051.92
3305.46
-4745.38
-6906.35
-20301.7
-12644
-20720.4
-18546.1
-15822.5
-4627.85
-977.121
5484.88
7371.75
14458.7
24947.2
36179.9
45282.1
53357
56155
39668.1
39152.5
10745.5
36873
85412.4
125645
135322
140316
131503
122057
120507
122574
99011.1
117922
110796
106899
105522
112271
110904
112207
84184.4
64050
31753.3
4145.67
-4432.31
-8210.19
-8337.98
-4627.6
-8097.6
-11471.7
-15251.4
-16492.6
17921.6
41146.4
27179.4
26034
29632.8
27941.5
25404
18450.5
7884.63
233.128
1425.8
22120
65631.9
99216.5
114770
121010
129046
131773
126882
130046
124849
128828
119191
99951.6
66536.4
47719.3
45821.1
62641.4
91101.6
89849.8
-5320.47
-14065.1
805.752
2917.78
33989.5
25396.6
-2801.54
-41959.6
-73165.6
-74340.7
-61511.5
-45285.1
-33809
-22314.3
-28189.5
-20493.4
-22404.2
-18073.9
-16573.1
-11939.7
2681.03
14160.5
13088
-16299.9
-88112.4
-157293
-213255
-240613
-237209
-190454
31743.2
26923.5
23035.2
29000.1
36632
44392.6
57160.1
56705.1
59739.7
51982.1
42136.5
38518.8
17701
20281.1
1840.39
6592.09
1805
6666.73
10114.9
22388.1
20573.5
37820.1
38860.4
54855.2
45078.1
46349.2
34929.3
34112.7
40868.2
70664.8
-5028.32
-29544.9
-37692.2
-35434.6
-25725.1
-15732.1
-4936.45
9276.78
21116.2
27216.7
33986.2
27443.2
34460.4
29529.3
30376.4
31226.5
43354.2
47057.3
45399.1
46871.8
41637.5
30034.9
18461.5
7199.14
-774.328
-4229.06
4589.11
12167
2354.08
-29491
-14131.5
-28387.7
-25528.7
-18797.3
-12151.1
-12576.4
-7901.36
-25445.8
-27087.7
-48642.5
-57392.2
-65828.1
-74174.6
-68983.8
-70043.5
-67373
-75691
-83840.6
-88145.9
-76748.9
-64941.1
-38101.7
-12830
-3418.14
-9835.4
-23674.3
-32387.9
-33455.7
-40342.4
-49580.6
-43360.9
-65992.2
-71340.3
-77603.1
-89056.4
-100721
-115218
-112907
-119144
-111389
-116947
-111097
-111713
-107413
-110457
-105398
-105300
-102373
-95485.8
-87901.4
-62962.3
-44048.9
-36247.2
-32239
-34238.9
-41523.8
-47324.4
-52860.9
-57406.6
-47761.8
-74533.9
-65468.2
-14869.6
27091
35174.4
43569
40215.8
42985.8
43231
35606.2
16904.6
-9361.62
-36007.6
-55658.4
-71244
-66851.3
-51131.2
-62151.4
-84114.4
-101900
-124921
-124621
-122876
-130059
-121397
-105569
-104308
-119553
-139590
-159617
-152489
-30815.1
-36930.1
-43814.9
-8983.91
23735
31056.1
30588.2
37802
37275
41256.1
46911
42576.8
48701.2
53951.4
41842.8
66543.2
58369.1
57605
22493.2
7651.45
13748.2
48964.9
55219.2
-11948.7
-56891
-48069.7
-65237.7
-118160
-66045.4
223662
285454
344198
326867
300040
292407
301629
286632
263512
276404
259226
240177
307465
390119
-63316.2
-72409.4
-43554.5
-13974.2
-5220.63
-4978.93
18342.1
50214.6
38347.1
22711.8
19390.7
62779.4
110467
143695
145903
162484
186597
226917
264965
277137
296553
291468
293704
274227
257148
230970
172374
114309
76701
102380
61664.7
66017.4
75429.8
73324.5
67060.1
57541.9
53192.4
54456.4
77004.8
111690
123098
121957
117737
60447.3
25659.9
2409.89
-27081.5
-39780.4
-41239.4
-56537.9
-45409.4
-40405.7
-25919.9
-14925.2
-5968.94
-11621.7
-19763.6
-35466.4
-41691.4
-16373.8
-42932.2
-60651.9
-28766.9
-244.718
10728.4
21774.1
35332
34311.1
12657.7
5657.24
2709.94
-2199.02
-7518.01
-14453.2
-15861.2
-16935.5
-13285
-6865.03
-13929.1
-5163.43
-11170.7
5687.94
-1028.98
14228.4
20925
34570
40022.3
45378.8
37687.6
16559.1
9751.56
62975
113029
123730
134672
131553
121907
130360
113856
105955
101686
106695
95410.2
110694
110826
116930
99843.9
107869
87070.8
49818.6
31093.5
484.621
-11401.5
-8934.94
-7360.34
-4558.48
-5529.53
-10137.7
-16235.9
-14468
32918.7
46337.7
35940.6
33890.5
39993.2
40407
28155.2
13661.7
10233.5
2811.3
3050.21
30440.2
74258
105263
118340
131465
137346
135701
138427
135812
126632
130369
127424
114186
86587.2
67839.7
57974.6
77073.1
101615
90929
-11699.1
-1457.27
5542.66
27726.9
36132.5
26310.3
-30281.5
-55901.5
-79606.8
-72564.1
-63155.1
-43836.5
-30477.1
-18094.4
-21460.7
-27742.5
-25942.7
-24850.4
-14996.1
-14436.6
1856.65
17274.5
16358.6
-12861.6
-93956.6
-167840
-220571
-235234
-229103
-182260
30722.8
28047
30697.7
30239.7
36165.6
49130.7
53234.2
59006.8
53199.5
45803.5
33400.6
21618.4
4347.85
-4351.51
-16354.7
-16031.4
-22022
-15779.5
-4585.11
4107.29
13607
23002.7
34478.8
45279.5
46451.8
41237.4
36494.8
29825
41549.9
69458.4
-4697.26
-23065.7
-25361.9
-21693.8
-15958.9
-4997.75
9605.86
18117.9
28262.5
35925.5
26793.1
23076.3
11444.7
12415.6
9056.38
13792.2
20613.5
35409.5
42060
42131.1
43164.4
33124.2
20533
12844.4
3172.41
-169.968
6315.35
16733.7
1895.23
-32068.5
-18906.4
-25791
-21152.4
-7411.22
-6438.34
559.798
-7841.74
-29113.5
-46431.8
-77098.9
-94020.4
-106256
-98235.3
-89236.9
-85643.3
-73610.9
-83126.2
-89545.7
-87479.2
-87584.7
-76500.3
-52464.2
-23798.4
-10982.3
-13380.9
-20867.4
-25240.7
-29168.5
-41110
-50244.7
-47113.5
-66369.2
-67695.1
-74756.2
-88899.5
-101118
-114940
-117385
-124931
-116092
-126289
-120919
-130797
-127453
-125278
-123056
-116772
-103553
-111186
-98865.6
-71262.2
-57106.3
-46371.3
-32716.8
-32666.4
-39531.6
-44219.6
-46855.9
-50267.1
-45464.9
-72444.9
-53851.6
5919.62
35493.7
50176.3
47623.1
55923.5
60540.2
59246.5
52985.8
39673.2
18386.9
-12238.8
-54035.3
-75468.5
-69787
-61000.8
-61885.8
-66721.3
-92994.2
-120567
-125702
-130019
-126305
-112710
-101634
-103562
-121645
-136317
-156968
-130781
-16959.3
-20084.4
-18289.6
9527.64
28570
39179.6
36084.8
40041.6
39730.7
42437.9
38573.3
45308.7
39588.4
58392.6
40624.5
65712.2
56416.5
66478.2
31916.6
9225.17
10361.6
45874.4
59075.3
6165.04
-70430.9
-73211.5
-90398.8
-101402
-47121.7
221819
283368
327542
293159
245907
223415
251165
275519
244321
235005
236086
234330
313886
393813
-62717.6
-69045.1
-42091.7
-19480.2
-16945.6
-26445.1
11760.3
64194.7
57308.5
34406.4
29997
56057
118754
143797
144859
155082
189519
234973
256470
277335
279852
293732
282281
278071
262530
225703
176163
109570
87616.5
99186
70052.9
77296.6
79503.3
75009.1
68733.2
60607.9
53033.4
53165.3
75449.6
106599
120063
125110
115951
48962.4
34776.1
-8723.06
-15730.2
-31827.1
-38211.9
-46818.7
-43919.5
-34834.1
-25992.5
-9320.98
-6203.77
-2135.8
-14314.2
-29684.4
-27583.6
-19451.9
-37541.2
-59011.5
-32539
-1393.06
13093.2
21703.5
45573.7
36055.6
17898.7
15025
9298.24
5225.38
6684.44
-2777.33
-5148.63
-9217.45
-7957.43
-5743.5
-10528.5
-9826.79
-8769.99
-2640.59
2698.47
4865.65
15777.1
22061.1
32012.3
30904.9
18249
18261.9
6586.67
82884.4
111370
118218
127169
121498
128946
119556
109474
107826
90562.5
95065.1
86257.4
93584.6
95150.7
97434.7
87677.8
75545.2
67313
26399.7
7799.47
-2443.71
-10034
-10862.9
-6325.39
-5708.45
-8175.36
-15232.8
-20570.5
-21405.1
19018.8
35886.1
26912.8
34925.8
43808.4
38038.3
18910
10747.4
7861.61
2679.92
2321.31
29775.2
72267.7
102118
123415
138643
141964
149613
151779
139165
134654
140127
129951
121426
100156
80278.3
78227.1
95582.7
105233
88054.7
176.284
5204.12
24341.1
36497.5
42922.4
11408.3
-39278.1
-64291.3
-75476
-75990.2
-69821.7
-47118.5
-29545.5
-8219.23
-13264.5
-14014.4
-17533.7
-21890.7
-11069.3
-4978.51
10346.5
22198.2
17465.2
-32621
-122676
-186260
-218513
-226255
-215863
-177403
23313.3
24206.1
25706.4
25581.6
33497.9
44770.4
55726.6
54019.5
52322
42648.3
25564.8
14691.1
-3925.2
-9177.49
-25519.1
-23229.2
-28559.3
-20923.2
-15256.9
-5644.07
4209.26
17676
24648
40801.6
39450.8
38963.2
28845.2
28061.2
37778.4
74826.5
8229.49
-3522.3
-4034.88
-2335.96
2131.02
8899.13
16436.9
29978.5
36046.8
37782.3
27259.6
254.027
-499.944
-10505.2
-6736.5
2196.44
7819.14
28730
37520.2
43150.9
40830.2
33312.6
24092.3
13614.5
6489.19
2835.75
12511.7
14897.4
-6096.09
-35071.2
-13877.5
-21680.7
-17829.7
-7075.46
801.091
2050.48
-5576.91
-33720.9
-61189.8
-100760
-121394
-140844
-136133
-121900
-105996
-87068.3
-88446.3
-82880.1
-96609.8
-93807
-83427.6
-61229.4
-34365.4
-18152.4
-18477.8
-24568
-26885.1
-35404.9
-49494.7
-62726
-34653.3
-55089
-59798.4
-68745.7
-81493.3
-94801.1
-112931
-117531
-125950
-118270
-132648
-128693
-131079
-133980
-129800
-127276
-125005
-106881
-123249
-93020.2
-84196.5
-70911.9
-44296.2
-33852.9
-38305.1
-37564.3
-40623.2
-46921.8
-56493.3
-49868.1
-80010
-46510
12614.3
49001.7
53092.3
62793.6
79502.7
75604.9
70000.2
61456.3
54588.5
36671.2
7435.47
-37757.8
-71596.9
-88408.8
-73559.9
-55490.6
-64647.1
-82110.7
-88344.6
-99316.5
-108023
-104997
-100801
-102662
-110940
-125724
-138957
-156548
-144197
-3929.57
-1727.05
-3275.91
22501.1
34069.5
37501.3
43830.9
44223.1
37712.7
45985.8
43326.1
48065.3
37368
56697.1
45547.6
60191.1
59828.4
69528.4
39195.2
12103.3
10379.6
44328.2
64987.5
14856
-83590.9
-109716
-110118
-73067
-42238.1
224813
274097
305297
251840
185417
152912
182913
243232
238157
212535
216298
242891
329839
384173
257793
45312.8
-58600.9
-60124.7
-38116.1
-23462.2
-28115.7
-31338.7
19703.2
74859.4
82587.6
60652.7
31355
56135.3
122031
141937
144618
150030
185990
221405
254880
258266
272713
271294
277623
276271
256329
224081
154814
114448
108847
68022.5
52188.8
27410.9
72316.2
69231.4
73723.9
77228.6
68766.3
62397.2
57032
51290.4
73173.4
101506
118249
131100
100773
57565.9
38530.5
-8980.56
-6012.79
-24116.9
-22850.1
-33620.6
-28702.5
-26979.3
-12750.1
-7694.04
2278.72
-3358.5
-12133.3
-15335.7
-23050.1
11517.8
29864
-9341.14
-56217.8
-66065.4
-31993.2
-2839.63
7559.07
30060.4
46935.4
30244.8
21456.7
20506
20415
20885.6
19325.7
12350.3
6799.34
7703.35
1759.06
347.412
-7985.33
-4946.18
-9388.3
2651.17
-3795.32
10447.3
9032.05
20476.1
22921.7
23559.8
11406.2
4073.15
-8759.19
2802.47
34879.2
86541.2
100834
109181
114045
126304
121173
119332
108134
100849
85915.9
80876.1
60611.3
70193.2
63761.6
54036.8
49022.1
31468.5
25509.4
5066.7
-1241.58
-4935.45
267.196
238.517
4060.73
-662.617
-8728.84
-16965.5
-28307.1
-37118.1
-47445.3
-33979.6
35616.6
40665.2
37176.1
50482.1
54873.7
41858.8
21058.9
6740.85
4220.63
-2195.17
-2403.57
22043.5
65536.4
99416.8
122683
138168
150947
161030
156992
154409
149278
148930
132529
128953
103969
99944.2
101924
108083
109389
94722.1
28858.1
-4767.05
-4100.78
19593.7
34692.7
48771.4
35011.2
10921.7
-39976.6
-62845.5
-77667.8
-72474.7
-78424.3
-59382.2
-36741.5
-9074.63
1750.23
4614.26
-1910.62
-4537.01
6453.31
16641.6
23371.9
18426.7
-14621.1
-92315.8
-160924
-198134
-209496
-212922
-198979
-149395
-29763.1
-799.898
29102.6
37636.4
36155.9
29229
30825.2
46326.5
53931
58815.9
54784.9
42504.8
29466.8
16405.7
-1271.18
-7239.97
-23051.8
-20620.8
-31599.7
-24093.9
-14866.6
-11343.3
-88.0802
13513.1
22120.4
31034.3
36855.2
30030
28073.7
30149.2
55320
58657.9
42134.3
22910.7
13860.7
12787.2
13228.7
15405.3
16211.6
21224.2
30980.9
36510.8
44465.7
43132.7
27760.2
5535.53
-6844.35
-10479.8
-11170.1
932.467
4985.81
24940.8
40287.2
41025.7
40445.1
35253.2
24705
14153.8
8507.72
13454.9
20656.6
-3744.65
-36063.8
-52594.9
-54075.1
-39162.6
-25236.4
-22029.7
-21037.8
-9661.97
2256.64
4664.54
-6352.12
-30991.3
-61198.5
-105395
-129941
-145870
-140208
-124397
-113893
-98087.4
-92841.6
-91831.6
-101101
-97423.7
-85528
-64732.7
-37482.6
-22238.3
-20723.3
-23063.3
-26842.8
-34013.8
-50731.5
-55002
-56407.9
-56777.3
-44980.1
-53780.5
-55906.5
-60303.5
-71974
-89480.1
-105110
-109819
-126092
-119801
-131893
-126632
-133284
-136322
-136289
-117523
-133324
-116443
-115017
-94386.6
-98178.4
-63300.5
-44946.8
-42429.3
-35807.2
-37507.6
-40336.6
-46749.8
-55991.8
-45689
-43009
-74475.6
-75621.6
-41441.4
25169.7
45450.6
58164.8
66217.2
67671.1
56770.3
53541
60268.1
67443.7
49206.8
20984.8
-13842.7
-66854.5
-99767.3
-90825.8
-73147.4
-72293.4
-70340.4
-77555.8
-90986.4
-95306.7
-100134
-103877
-108212
-118847
-128406
-136386
-147212
-176333
-186380
-195260
-31924.7
9172.77
7733.9
28602.5
40879.9
40538.8
42502.5
50968.6
40765.4
48370.6
46582.5
52798.5
37381.1
60153.2
44835.3
59393.7
60286.2
73482.8
40989.1
16429.2
10570.5
49645.5
67090.9
21011.3
-91630.5
-114598
-92415.3
-74329.3
-88632.9
98186.4
135274
217294
251435
280206
229237
167388
123500
130014
202418
248835
222452
214963
257677
359377
387989
274520
56726.7
-53617.3
-56464.8
-41716.8
-35045.3
-33669.4
-3484.3
48232
95419.7
109073
79999
47956.1
51558.4
121160
140378
144562
148440
165339
208388
236903
260640
257588
271623
274728
265999
256528
197095
143152
134549
113845
82144.4
75414.7
66265.4
80241.6
82592.7
81321.5
73703.6
71246.7
60533.9
55190.9
51407.4
65293.8
94805.8
118162
120907
102256
80472.8
25331.5
1694.03
1174.31
-15107.6
-9425.73
-14055.7
-14194.6
-6232.82
-5597.97
3815.69
-1953.94
-3769.44
-5927.71
-19559.4
-6423.61
10581
40664.3
8385.22
-55485.8
-62895.2
-31462.4
-10343.1
14312.5
34570.1
48953.9
42518.6
27789.6
25614.6
31047.1
36957.5
36434.6
26928.7
22966.4
21584.4
22563.3
22663.6
10131.1
7454.98
5275.78
8244.7
4266.41
11799.5
12516.9
14318.9
15694.6
7212.02
-2065.55
2665.1
-7341.49
7591.62
53214.7
76401.1
86191.5
92072.8
108121
121580
120093
113005
113216
101368
73629.6
77365.7
40576
42770.1
33226.6
18746.1
23203
11461.2
11378.8
5265.62
9039.14
9751.92
13204.7
14097.9
8628.08
196.185
-10975.2
-24038.9
-33251.2
-38384.4
-23062.4
-5210.84
28820.3
29955.3
25482.6
38678
39343.4
28896.2
10874.1
-419.786
1722.13
-5128.28
-11280.3
11873.1
47252.7
80755.5
109011
136016
154353
159874
159579
160934
154877
148537
139383
130983
118538
118360
112395
109855
95760.8
57660.3
7190.35
-866.836
16299.8
37548.2
51578.9
49985.7
38291.5
8992.5
-29191.9
-62159.4
-67313.3
-66596.8
-79946.4
-79818.6
-67629.9
-26571.2
-2585.5
11258.4
14609.6
22240.8
16307.6
12040.4
4613.87
-33783.5
-94895.1
-149270
-180295
-193157
-199164
-197192
-188038
-130479
-10573
13874.9
33726.8
49447.5