/*--------------------------------*- C++ -*----------------------------------*\
| =========                 |                                                 |
| \\      /  F ield         | OpenFOAM: The Open Source CFD Toolbox           |
|  \\    /   O peration     | Version:  2.1.1                                 |
|   \\  /    A nd           | Web:      www.OpenFOAM.org                      |
|    \\/     M anipulation  |                                                 |
\*---------------------------------------------------------------------------*/
FoamFile
{
    version     2.0;
    format      ascii;
    class       volScalarField;
    location    "0.004850000";
    object      H2O;
}
// * * * * * * * * * * * * * * * * * * * * * * * * * * * * * * * * * * * * * //

dimensions      [0 0 0 0 0 0 0];

internalField   nonuniform List<scalar> 
12384
(
0.242691
0.242779
0.242024
0.241566
0.241287
0.241361
0.24141
0.241861
0.242618
0.242811
0.24264
0.241239
0.23492
0.218894
0.197283
0.202078
0.203864
0.20458
0.205167
0.206443
0.208284
0.209851
0.211328
0.211719
0.211705
0.21138
0.21081
0.210163
0.209578
0.209099
0.208781
0.208386
0.20817
0.208059
0.208087
0.208133
0.208032
0.207677
0.207146
0.206215
0.197325
0.194553
0.207814
0.210461
0.249335
0.250586
0.250575
0.25031
0.249787
0.248958
0.247501
0.246113
0.247051
0.248674
0.250758
0.251129
0.251082
0.251058
0.251018
0.250966
0.250937
0.251336
0.250767
0.250536
0.250219
0.250045
0.249875
0.249708
0.249491
0.249164
0.248141
0.243771
0.22755
0.215676
0.25146
0.250541
0.249153
0.248414
0.247895
0.245791
0.244159
0.243139
0.242288
0.242154
0.242388
0.242949
0.243693
0.244648
0.245498
0.246502
0.246989
0.247763
0.247506
0.247764
0.24737
0.247185
0.24691
0.246625
0.246401
0.246191
0.246183
0.246171
0.24195
0.241098
0.250383
0.250764
0.250796
0.251069
0.250917
0.250726
0.250657
0.250567
0.250689
0.250689
0.251105
0.250891
0.251012
0.250802
0.250624
0.251099
0.250641
0.251011
0.250885
0.250634
0.250646
0.250758
0.250882
0.250774
0.250748
0.250096
0.244266
0.23413
0.235187
0.236386
0.250965
0.251243
0.251301
0.251146
0.251501
0.251193
0.251064
0.251085
0.251011
0.250972
0.250886
0.250828
0.250678
0.250705
0.250667
0.250613
0.250777
0.250839
0.250865
0.250936
0.251166
0.251048
0.251271
0.251137
0.251162
0.251079
0.251182
0.25102
0.246824
0.244844
0.248386
0.251599
0.252072
0.251643
0.249819
0.249631
0.249006
0.246332
0.242652
0.238099
0.234537
0.231522
0.228882
0.22703
0.225778
0.225448
0.226186
0.227596
0.229941
0.232435
0.234177
0.236015
0.238383
0.24041
0.242162
0.243057
0.243514
0.242869
0.240542
0.240155
0.207939
0.225798
0.250684
0.251686
0.251715
0.251739
0.251653
0.251408
0.251294
0.251231
0.251338
0.251288
0.251304
0.25136
0.251379
0.251306
0.251103
0.251081
0.250873
0.250855
0.250871
0.250914
0.251027
0.251123
0.25142
0.251562
0.251777
0.251799
0.251392
0.250705
0.202451
0.206353
0.244111
0.251823
0.251184
0.251158
0.251236
0.251361
0.251537
0.251599
0.251774
0.25178
0.251842
0.25184
0.251783
0.251838
0.251709
0.251695
0.251611
0.251569
0.251541
0.251587
0.251364
0.251241
0.251028
0.250547
0.249979
0.249602
0.249606
0.250465
0.226136
0.23146
0.239687
0.244674
0.246504
0.248952
0.251104
0.251709
0.252089
0.251925
0.251892
0.251883
0.251891
0.251854
0.251887
0.251794
0.251823
0.251781
0.25181
0.251656
0.25164
0.251579
0.251595
0.251729
0.251736
0.251583
0.251393
0.251261
0.251233
0.251298
0.252141
0.251872
0.251178
0.25084
0.250707
0.250688
0.250618
0.250629
0.250642
0.25059
0.250603
0.250614
0.250619
0.250646
0.250646
0.25072
0.250766
0.250744
0.250806
0.250747
0.25075
0.25077
0.250848
0.251024
0.251314
0.251573
0.251608
0.251518
0.251345
0.251239
0.221327
0.252306
0.250556
0.250307
0.251087
0.251636
0.252005
0.252167
0.252444
0.252282
0.252167
0.252139
0.252087
0.252073
0.252104
0.252172
0.252203
0.25232
0.252355
0.252453
0.252387
0.252408
0.252313
0.252222
0.25213
0.251972
0.251677
0.251563
0.239618
0.162741
0.15217
0.15016
0.149401
0.158537
0.188445
0.252353
0.248378
0.24682
0.246644
0.246821
0.246998
0.247139
0.247278
0.247434
0.247599
0.247801
0.248044
0.24839
0.248773
0.249216
0.249651
0.249981
0.250301
0.250689
0.251302
0.252043
0.247435
0.194992
0.159092
0.157283
0.236094
0.229307
0.225317
0.223089
0.223079
0.223932
0.224815
0.22617
0.231559
0.238475
0.24239
0.242046
0.23835
0.225737
0.197255
0.203918
0.206226
0.207753
0.211819
0.216214
0.218814
0.219889
0.219286
0.218094
0.215908
0.213476
0.211083
0.208978
0.207589
0.206853
0.206605
0.206722
0.207023
0.207462
0.207984
0.208349
0.208469
0.208246
0.207683
0.207241
0.202305
0.19372
0.190347
0.195526
0.249109
0.250368
0.249888
0.249319
0.248457
0.246484
0.245475
0.248827
0.251398
0.251689
0.251612
0.251438
0.251215
0.2511
0.251033
0.250211
0.249109
0.248049
0.24701
0.245607
0.244131
0.243893
0.24443
0.246126
0.247463
0.248109
0.248104
0.246846
0.240158
0.229446
0.251263
0.249825
0.248168
0.245724
0.24257
0.239625
0.238707
0.23847
0.240342
0.24234
0.244653
0.247021
0.248773
0.249321
0.249747
0.249845
0.249757
0.249622
0.249411
0.249248
0.249116
0.249121
0.249121
0.249074
0.248856
0.248281
0.247117
0.246817
0.244297
0.242474
0.250451
0.250847
0.250828
0.251025
0.250699
0.2506
0.250589
0.250523
0.250613
0.251053
0.250798
0.25025
0.249656
0.249535
0.249524
0.249084
0.249054
0.248709
0.24864
0.248384
0.248539
0.248562
0.248918
0.249413
0.249953
0.25001
0.248233
0.240486
0.236941
0.238089
0.251151
0.251185
0.251082
0.251557
0.251196
0.251184
0.251185
0.251154
0.251088
0.251027
0.250931
0.25088
0.250743
0.250805
0.250786
0.250814
0.250752
0.250866
0.250919
0.250917
0.251
0.251036
0.251162
0.251166
0.251148
0.251128
0.251141
0.251342
0.250767
0.248533
0.250615
0.251874
0.251834
0.251549
0.250255
0.24913
0.242978
0.238788
0.236093
0.233866
0.228694
0.222604
0.216815
0.212302
0.209658
0.209275
0.210428
0.214202
0.219668
0.225791
0.231558
0.236456
0.239977
0.243097
0.244943
0.246387
0.246724
0.245688
0.242581
0.240424
0.23988
0.25075
0.251348
0.251445
0.25142
0.251551
0.251249
0.251014
0.251163
0.251422
0.251532
0.251578
0.251416
0.251397
0.251368
0.251365
0.251568
0.25148
0.251459
0.25143
0.251064
0.25091
0.25084
0.250953
0.251073
0.251344
0.251513
0.251677
0.251661
0.250985
0.252172
0.251913
0.25136
0.251367
0.251513
0.251757
0.251769
0.251724
0.251778
0.251701
0.251684
0.251505
0.251518
0.251473
0.251439
0.251322
0.251364
0.251436
0.251556
0.251465
0.251448
0.251463
0.251478
0.25152
0.251249
0.251042
0.250586
0.250052
0.249631
0.250039
0.238352
0.240938
0.243851
0.248633
0.251699
0.251893
0.251794
0.251757
0.251749
0.251795
0.251844
0.251869
0.251902
0.251978
0.251951
0.251956
0.251912
0.251902
0.25182
0.251791
0.251757
0.251699
0.251685
0.251683
0.251703
0.251678
0.251663
0.251586
0.25153
0.251423
0.252273
0.25147
0.251221
0.251087
0.250849
0.250698
0.250583
0.250571
0.250563
0.250626
0.250698
0.250803
0.250908
0.251005
0.251051
0.25112
0.251162
0.251185
0.25122
0.251211
0.251132
0.251058
0.251026
0.251072
0.251233
0.251429
0.251575
0.251503
0.251274
0.251179
0.252321
0.251496
0.250441
0.250983
0.252015
0.252379
0.251053
0.250264
0.250357
0.251503
0.252335
0.252027
0.252025
0.252051
0.252122
0.252246
0.252403
0.252151
0.252048
0.252005
0.251977
0.25201
0.252057
0.252042
0.252021
0.251903
0.251682
0.251538
0.252342
0.203155
0.149061
0.155066
0.196453
0.252243
0.250664
0.248812
0.246981
0.246559
0.246569
0.246715
0.246804
0.246856
0.246869
0.246893
0.246936
0.246988
0.247068
0.247254
0.247669
0.248358
0.249305
0.250387
0.250887
0.250527
0.249997
0.249944
0.25085
0.251838
0.183342
0.157267
0.222364
0.218721
0.21794
0.221394
0.226716
0.228832
0.228097
0.225043
0.22329
0.227428
0.238055
0.242499
0.239541
0.230751
0.198581
0.207776
0.21319
0.218693
0.223524
0.225809
0.227138
0.227811
0.225365
0.222052
0.217669
0.2136
0.210443
0.208515
0.208065
0.20836
0.209297
0.210031
0.210772
0.211405
0.211724
0.211605
0.210908
0.20974
0.208426
0.207755
0.205507
0.198231
0.187643
0.190478
0.249107
0.249692
0.247543
0.244549
0.243322
0.244862
0.249489
0.251712
0.251894
0.251667
0.250972
0.248996
0.248735
0.2489
0.248462
0.247147
0.243549
0.239009
0.235168
0.232776
0.231612
0.230736
0.231398
0.233161
0.237662
0.243438
0.247303
0.247456
0.245147
0.236502
0.25104
0.249089
0.246576
0.242856
0.240719
0.240366
0.241906
0.244215
0.247393
0.249339
0.250176
0.251045
0.251445
0.251827
0.251413
0.250812
0.250087
0.249425
0.248724
0.247549
0.246566
0.246461
0.247138
0.248377
0.248826
0.248891
0.248611
0.247626
0.245857
0.243642
0.250523
0.250942
0.251396
0.251175
0.25096
0.251034
0.250956
0.250826
0.250729
0.25055
0.25014
0.249094
0.248283
0.248313
0.247906
0.248438
0.248024
0.248188
0.247829
0.247568
0.247364
0.247045
0.247366
0.247749
0.248576
0.249397
0.248851
0.246114
0.241457
0.239364
0.251295
0.251166
0.251363
0.251202
0.251245
0.251306
0.2513
0.251178
0.251113
0.25102
0.250972
0.250971
0.250886
0.250937
0.250878
0.250816
0.250716
0.250685
0.250805
0.250697
0.250811
0.250909
0.251008
0.251001
0.251051
0.251088
0.251124
0.251187
0.251228
0.250848
0.251971
0.251872
0.251759
0.251136
0.250118
0.24974
0.250812
0.251752
0.250691
0.248474
0.238495
0.224694
0.214148
0.207876
0.205302
0.20581
0.208262
0.212298
0.217803
0.224882
0.232132
0.237355
0.240103
0.241445
0.243032
0.245283
0.247306
0.247838
0.244655
0.241036
0.249539
0.251716
0.25141
0.251373
0.251315
0.251096
0.250923
0.251506
0.25148
0.251109
0.250842
0.250617
0.250569
0.250533
0.250504
0.250482
0.250481
0.250536
0.250748
0.251112
0.251442
0.251644
0.251152
0.250886
0.250957
0.25099
0.251285
0.251565
0.251538
0.251103
0.251852
0.251412
0.251415
0.251598
0.251752
0.251605
0.251521
0.251009
0.250994
0.249467
0.248614
0.247884
0.247598
0.247531
0.247651
0.247856
0.248569
0.249522
0.251011
0.250799
0.251169
0.251517
0.25136
0.251429
0.251437
0.251231
0.251011
0.250449
0.24987
0.249946
0.239554
0.241643
0.25023
0.251969
0.251711
0.251683
0.251703
0.251947
0.251635
0.251744
0.250687
0.249911
0.249756
0.249568
0.249607
0.249997
0.250478
0.251425
0.251649
0.25167
0.251819
0.251942
0.25176
0.251727
0.251754
0.251716
0.251681
0.251735
0.251651
0.251567
0.251915
0.251635
0.251376
0.25095
0.250635
0.250524
0.25056
0.250693
0.250906
0.251153
0.251343
0.251458
0.251618
0.251719
0.251775
0.251864
0.251891
0.251912
0.251912
0.251921
0.251764
0.251657
0.251476
0.251366
0.25133
0.251384
0.251518
0.251541
0.251458
0.251278
0.251566
0.250687
0.251221
0.252224
0.251497
0.249513
0.250443
0.252143
0.252055
0.251862
0.251761
0.25176
0.251794
0.251811
0.251632
0.25143
0.251148
0.250687
0.250496
0.250449
0.250476
0.2505
0.250608
0.250858
0.251188
0.251384
0.251467
0.251464
0.251978
0.234972
0.1508
0.194514
0.252032
0.249582
0.247845
0.246792
0.246469
0.246482
0.246623
0.246838
0.247026
0.24718
0.247273
0.247302
0.247245
0.247111
0.246949
0.246801
0.246769
0.246985
0.247704
0.249381
0.251366
0.251968
0.251767
0.25114
0.250787
0.251998
0.205902
0.158425
0.21867
0.21744
0.223365
0.23445
0.239062
0.240213
0.238755
0.235615
0.228125
0.224013
0.231696
0.241503
0.240461
0.232864
0.20111
0.214733
0.222706
0.2272
0.230547
0.234119
0.236586
0.234465
0.229083
0.223452
0.217497
0.212886
0.210479
0.210063
0.210901
0.212199
0.21329
0.214048
0.214579
0.214987
0.215579
0.21595
0.21537
0.213429
0.210752
0.208498
0.206957
0.201668
0.191889
0.191046
0.249027
0.248335
0.240251
0.238124
0.242425
0.24889
0.25175
0.251959
0.251787
0.249952
0.244492
0.242059
0.246698
0.247892
0.246962
0.241674
0.235332
0.231376
0.22986
0.229431
0.229187
0.229085
0.228387
0.228058
0.229616
0.235491
0.243561
0.247178
0.246186
0.239659
0.250865
0.24859
0.245647
0.243988
0.244762
0.247485
0.249392
0.250624
0.252243
0.251899
0.251966
0.25193
0.251921
0.251912
0.251846
0.251119
0.249585
0.247475
0.244338
0.242011
0.240215
0.239644
0.240688
0.243099
0.246288
0.248806
0.24893
0.248533
0.246758
0.24454
0.250655
0.2516
0.250978
0.251166
0.251236
0.251078
0.251063
0.250833
0.250479
0.249503
0.247258
0.246003
0.244833
0.244565
0.2447
0.24571
0.245733
0.246571
0.246712
0.246712
0.246652
0.246669
0.246411
0.246667
0.247382
0.248198
0.248593
0.248022
0.244455
0.240551
0.25128
0.251323
0.251311
0.251192
0.251235
0.251271
0.251102
0.251217
0.251241
0.251175
0.251113
0.251136
0.251041
0.250941
0.250917
0.25086
0.250664
0.250648
0.250471
0.250386
0.250546
0.250587
0.250738
0.250919
0.250981
0.251031
0.251113
0.251152
0.251409
0.250849
0.251626
0.251816
0.251806
0.25212
0.251966
0.252104
0.251641
0.251692
0.251565
0.245304
0.22666
0.214089
0.208935
0.212299
0.218213
0.222851
0.225074
0.224925
0.223713
0.223075
0.224863
0.227278
0.229369
0.230069
0.232742
0.23781
0.244913
0.247888
0.246095
0.241797
0.250971
0.251342
0.251334
0.251277
0.251452
0.251241
0.251455
0.251197
0.250824
0.250615
0.250668
0.250776
0.250821
0.250872
0.250808
0.250741
0.250568
0.250428
0.250438
0.250621
0.251083
0.251419
0.251666
0.251108
0.25088
0.250948
0.251034
0.251309
0.251566
0.251138
0.251588
0.251352
0.251561
0.251673
0.251678
0.250736
0.249329
0.247056
0.244026
0.241507
0.239905
0.238403
0.237201
0.236686
0.236644
0.237972
0.240638
0.244247
0.247052
0.248977
0.250485
0.250875
0.251391
0.251288
0.251375
0.251488
0.251158
0.250739
0.250105
0.249979
0.240648
0.24846
0.251939
0.251629
0.251609
0.251504
0.250122
0.24774
0.243596
0.240939
0.240525
0.240469
0.242169
0.242328
0.243145
0.243982
0.244942
0.245952
0.247969
0.248744
0.250327
0.251929
0.251646
0.251916
0.251776
0.251744
0.251727
0.251737
0.251725
0.251666
0.251855
0.251729
0.25095
0.250478
0.250435
0.250635
0.250936
0.251223
0.251557
0.251873
0.25206
0.252157
0.252209
0.252257
0.252251
0.252246
0.25224
0.252253
0.252252
0.252236
0.252215
0.252166
0.252021
0.2519
0.251646
0.251551
0.251556
0.251721
0.251678
0.251395
0.250903
0.251075
0.252173
0.250934
0.24947
0.252181
0.252098
0.251551
0.251301
0.251216
0.251201
0.251243
0.251291
0.251313
0.251209
0.250788
0.250341
0.249998
0.250092
0.250444
0.250611
0.250522
0.250361
0.250283
0.250449
0.250756
0.251179
0.251329
0.251689
0.249773
0.160594
0.250719
0.249575
0.247555
0.246679
0.246369
0.246408
0.246632
0.246981
0.247422
0.24781
0.248138
0.248354
0.24845
0.248331
0.248054
0.247721
0.247279
0.246893
0.24663
0.246575
0.247101
0.249182
0.251875
0.251832
0.251679
0.25112
0.25187
0.216966
0.158692
0.216835
0.219849
0.233801
0.241484
0.242093
0.241595
0.24058
0.237368
0.231645
0.223863
0.226932
0.23924
0.240521
0.233603
0.204477
0.222025
0.229482
0.233118
0.238228
0.242421
0.242737
0.238933
0.230331
0.223095
0.216011
0.212084
0.210988
0.211952
0.213401
0.214917
0.215764
0.216305
0.215758
0.215588
0.216127
0.217733
0.218704
0.217281
0.213606
0.209757
0.207642
0.203752
0.195334
0.192813
0.248868
0.244526
0.236598
0.238071
0.24744
0.251614
0.252024
0.252079
0.251558
0.244275
0.230448
0.232673
0.245353
0.24724
0.24201
0.23376
0.229912
0.230169
0.231303
0.232093
0.232461
0.232356
0.231511
0.229566
0.22814
0.231435
0.239999
0.246504
0.246374
0.240965
0.250746
0.248316
0.247081
0.24858
0.249927
0.251892
0.251938
0.252112
0.251883
0.251843
0.251797
0.251777
0.251857
0.252019
0.251922
0.250162
0.247965
0.243126
0.239798
0.237368
0.235798
0.234754
0.234829
0.237067
0.242488
0.24774
0.249071
0.248817
0.247537
0.245105
0.250716
0.251567
0.250974
0.251206
0.250935
0.250986
0.250966
0.250684
0.250416
0.247101
0.244955
0.242816
0.242855
0.24341
0.244025
0.244372
0.244238
0.244809
0.245341
0.245729
0.245885
0.246152
0.246214
0.246001
0.246304
0.247255
0.248019
0.247754
0.246005
0.241683
0.251511
0.251429
0.251307
0.251265
0.251154
0.251065
0.251005
0.251034
0.251074
0.251215
0.251184
0.251253
0.251178
0.251139
0.25093
0.250882
0.250715
0.250494
0.25036
0.250294
0.25035
0.250332
0.250594
0.250763
0.250935
0.251076
0.251024
0.251112
0.251613
0.251018
0.251687
0.251811
0.251847
0.252005
0.2517
0.251238
0.251327
0.251953
0.248738
0.226581
0.213869
0.215143
0.229431
0.24304
0.248478
0.249239
0.249246
0.249146
0.248463
0.243594
0.234048
0.227306
0.226434
0.227602
0.228818
0.232992
0.241297
0.2472
0.246271
0.241697
0.251611
0.251295
0.251389
0.251277
0.251585
0.251402
0.251175
0.250787
0.250788
0.251019
0.251205
0.251232
0.251208
0.251157
0.25108
0.25107
0.251063
0.250901
0.250815
0.250826
0.251074
0.251485
0.251485
0.251238
0.25102
0.250855
0.250841
0.251001
0.25143
0.251074
0.251449
0.251405
0.251598
0.251423
0.250549
0.246894
0.242332
0.238097
0.235612
0.235178
0.235052
0.235257
0.234191
0.232343
0.230254
0.228703
0.230282
0.233762
0.240354
0.2462
0.248408
0.250871
0.250893
0.251403
0.251277
0.25136
0.251223
0.250821
0.250221
0.25009
0.245915
0.252034
0.251601
0.25157
0.250409
0.246785
0.239174
0.235263
0.234615
0.235738
0.239466
0.242388
0.244545
0.245698
0.24665
0.246469
0.246363
0.24558
0.244766
0.244551
0.246346
0.248328
0.249996
0.251375
0.251671
0.252025
0.251776
0.251734
0.251719
0.251697
0.251859
0.251356
0.250341
0.250378
0.250657
0.251109
0.251481
0.251847
0.252143
0.252178
0.25219
0.251381
0.250507
0.250317
0.250558
0.251218
0.252051
0.252164
0.252232
0.25225
0.252289
0.252317
0.252359
0.252254
0.252085
0.251882
0.251788
0.25175
0.251704
0.251443
0.250929
0.251824
0.252114
0.24922
0.252232
0.251951
0.251335
0.251126
0.251058
0.25102
0.251062
0.251049
0.251128
0.251085
0.250853
0.250453
0.250036
0.250017
0.250874
0.251868
0.252139
0.252407
0.251889
0.251057
0.250572
0.250551
0.25084
0.251209
0.251542
0.250871
0.175765
0.251613
0.247906
0.246714
0.246342
0.246333
0.246558
0.247021
0.247628
0.248287
0.248827
0.249354
0.249579
0.249613
0.249471
0.249124
0.248617
0.24807
0.247508
0.246957
0.246584
0.246464
0.247085
0.250486
0.25193
0.251838
0.251436
0.252021
0.213526
0.157098
0.215885
0.22464
0.240249
0.242956
0.242102
0.239839
0.236056
0.232415
0.227512
0.222204
0.224527
0.237617
0.240313
0.234172
0.20844
0.228091
0.234537
0.239362
0.244557
0.245739
0.245491
0.242916
0.232215
0.223227
0.215648
0.21264
0.212712
0.213918
0.215507
0.21753
0.219351
0.219943
0.21859
0.216188
0.215731
0.217643
0.219915
0.219891
0.215922
0.210878
0.208188
0.204956
0.1981
0.194629
0.248647
0.243595
0.237478
0.241911
0.249848
0.251874
0.251882
0.252097
0.250847
0.23269
0.217023
0.226495
0.246227
0.245251
0.234599
0.229382
0.230682
0.23289
0.234553
0.235875
0.236538
0.23617
0.234937
0.232594
0.229576
0.230607
0.23847
0.246096
0.246251
0.241188
0.250703
0.248457
0.248667
0.250653
0.251906
0.252138
0.251801
0.251755
0.25172
0.251704
0.251721
0.251717
0.251813
0.252003
0.251966
0.248945
0.244205
0.239988
0.23813
0.236285
0.234987
0.233436
0.232586
0.233726
0.239058
0.246239
0.249237
0.248963
0.247864
0.245285
0.250693
0.251642
0.251376
0.250963
0.250814
0.250682
0.25088
0.25056
0.248956
0.245852
0.244178
0.244662
0.246541
0.246411
0.246783
0.245791
0.245487
0.245038
0.244763
0.244892
0.245256
0.245466
0.245755
0.245984
0.246006
0.246167
0.246673
0.247224
0.246176
0.242024
0.25143
0.251514
0.251327
0.251275
0.251116
0.250996
0.250953
0.25091
0.2511
0.251277
0.251308
0.251316
0.251271
0.251207
0.25104
0.25097
0.250834
0.250662
0.250367
0.250375
0.25033
0.250377
0.250555
0.25062
0.250917
0.25099
0.251027
0.251062
0.251198
0.251012
0.251684
0.251837
0.25204
0.251675
0.251082
0.250972
0.251436
0.251745
0.236578
0.219269
0.222171
0.245024
0.251631
0.251382
0.251499
0.251424
0.251855
0.251616
0.251926
0.251494
0.250183
0.246634
0.238089
0.234227
0.231625
0.231567
0.238475
0.245664
0.245528
0.241612
0.251307
0.251047
0.25133
0.251286
0.251371
0.251257
0.250999
0.25098
0.251198
0.25136
0.251459
0.251256
0.251051
0.250847
0.250801
0.250854
0.250907
0.251072
0.251089
0.251173
0.251243
0.251507
0.251503
0.251438
0.251036
0.250807
0.25073
0.250946
0.251323
0.250817
0.251421
0.251574
0.251516
0.249457
0.245292
0.239993
0.236254
0.234464
0.236064
0.239285
0.24102
0.241755
0.239293
0.234921
0.229097
0.225049
0.223862
0.226466
0.232784
0.241143
0.246671
0.249388
0.250627
0.251043
0.251186
0.251344
0.251247
0.250838
0.250348
0.250192
0.250216
0.251701
0.251634
0.249718
0.24492
0.236698
0.233617
0.233766
0.238202
0.243417
0.246668
0.249129
0.24933
0.249582
0.249452
0.249496
0.249437
0.249134
0.248578
0.245668
0.243744
0.243995
0.24742
0.249083
0.251604
0.251624
0.252079
0.251795
0.251785
0.251687
0.25181
0.250655
0.250259
0.250599
0.251107
0.251526
0.251909
0.252093
0.251755
0.249005
0.244136
0.238803
0.235497
0.233853
0.234063
0.236401
0.242357
0.246785
0.250027
0.251289
0.252535
0.252218
0.252266
0.252296
0.252459
0.252175
0.251995
0.251844
0.251764
0.251472
0.251156
0.252392
0.24977
0.250781
0.252108
0.251383
0.251079
0.251043
0.251066
0.251075
0.25105
0.25104
0.251024
0.250918
0.25071
0.250282
0.250016
0.250491
0.251935
0.250537
0.241887
0.239343
0.250187
0.252127
0.251209
0.250685
0.250812
0.251162
0.251518
0.252116
0.190875
0.250497
0.247146
0.246438
0.246306
0.246444
0.246872
0.247571
0.24837
0.249191
0.249873
0.250294
0.250551
0.250535
0.250375
0.249931
0.24938
0.248679
0.248027
0.24739
0.246834
0.246466
0.246412
0.248124
0.252212
0.252043
0.252
0.251995
0.199051
0.153186
0.215409
0.229374
0.242287
0.243068
0.240428
0.233617
0.226925
0.223228
0.221357
0.220134
0.223046
0.236245
0.240111
0.234564
0.212952
0.233454
0.239563
0.24379
0.246553
0.247116
0.246868
0.244877
0.234089
0.223325
0.215958
0.213922
0.2143
0.215081
0.217426
0.220747
0.224509
0.225358
0.223008
0.218534
0.215944
0.217522
0.220725
0.221364
0.217743
0.21207
0.208141
0.205701
0.200793
0.196708
0.24862
0.24499
0.241376
0.247533
0.251875
0.251993
0.251881
0.252097
0.249428
0.220951
0.208024
0.225316
0.247134
0.2405
0.229562
0.230135
0.233633
0.236467
0.238984
0.241343
0.242231
0.241504
0.239305
0.235736
0.231929
0.232441
0.240566
0.24647
0.245767
0.241127
0.250685
0.248792
0.249825
0.251872
0.251969
0.251729
0.251528
0.251494
0.251694
0.251741
0.251779
0.251844
0.251839
0.251934
0.250363
0.246062
0.242298
0.239465
0.239252
0.237777
0.236029
0.233632
0.232155
0.232843
0.238013
0.245927
0.249234
0.249064
0.247732
0.245483
0.250664
0.251421
0.251253
0.250598
0.248597
0.25055
0.250762
0.250414
0.248281
0.246009
0.246306
0.24736
0.247781
0.247569
0.247218
0.246136
0.245812
0.245106
0.244844
0.244552
0.244383
0.245053
0.245864
0.245848
0.245315
0.245334
0.246049
0.246514
0.245111
0.241743
0.251481
0.251577
0.251317
0.25133
0.251031
0.25085
0.250789
0.250802
0.251042
0.251232
0.251232
0.251146
0.251135
0.251305
0.251177
0.251088
0.25106
0.250843
0.250438
0.250447
0.250412
0.250436
0.250628
0.250648
0.25092
0.250918
0.250985
0.251008
0.251505
0.251091
0.251703
0.251983
0.251726
0.251145
0.250772
0.250839
0.251622
0.251521
0.235817
0.228854
0.247389
0.251468
0.251982
0.251787
0.251667
0.251446
0.251694
0.251216
0.251475
0.251366
0.25152
0.251962
0.249447
0.244931
0.239239
0.232845
0.236641
0.244544
0.244174
0.240814
0.251258
0.250936
0.251322
0.251344
0.251399
0.251139
0.251095
0.251305
0.251228
0.251342
0.251304
0.250969
0.25076
0.250637
0.250622
0.250561
0.250672
0.250856
0.251089
0.25122
0.2514
0.251535
0.251525
0.251356
0.251026
0.250756
0.250647
0.250931
0.251193
0.250731
0.251388
0.251372
0.25041
0.244532
0.240623
0.237002
0.235044
0.237026
0.240634
0.244275
0.24562
0.246042
0.24268
0.237406
0.228462
0.221174
0.219834
0.22201
0.229518
0.237958
0.246381
0.249072
0.250553
0.250869
0.251359
0.251266
0.251181
0.250791
0.250544
0.250341
0.251376
0.251469
0.250964
0.247822
0.239663
0.235535
0.235751
0.240608
0.24494
0.248183
0.249038
0.249182
0.248986
0.248781
0.248492
0.248843
0.249263
0.249663
0.249512
0.248749
0.245216
0.242241
0.242938
0.246737
0.249141
0.251331
0.251849
0.251817
0.251782
0.251668
0.251501
0.250343
0.250457
0.250852
0.251377
0.251821
0.252026
0.251203
0.248056
0.240444
0.234238
0.229737
0.225767
0.223348
0.221498
0.221408
0.223278
0.229203
0.239039
0.24703
0.250415
0.251598
0.252239
0.252589
0.252278
0.252383
0.25212
0.251929
0.251804
0.251458
0.251515
0.252259
0.249876
0.252304
0.251621
0.251121
0.251103
0.251147
0.251181
0.251185
0.251135
0.251102
0.251084
0.251032
0.250694
0.25026
0.250053
0.250875
0.252228
0.240568
0.22429
0.221871
0.229452
0.252107
0.251777
0.250975
0.250964
0.251242
0.251647
0.251826
0.202406
0.249763
0.246876
0.246407
0.246337
0.246613
0.24724
0.248087
0.249069
0.249902
0.250569
0.250774
0.250963
0.251023
0.250802
0.250506
0.249847
0.249081
0.24835
0.247729
0.247122
0.246613
0.246314
0.246591
0.251122
0.249515
0.250418
0.23471
0.17822
0.149091
0.214804
0.232278
0.242729
0.242459
0.236914
0.229635
0.224223
0.22123
0.220038
0.220216
0.222986
0.234315
0.239876
0.235122
0.216057
0.235466
0.241299
0.244999
0.246761
0.247423
0.247017
0.2452
0.234509
0.223141
0.217106
0.215416
0.215289
0.215824
0.21907
0.22444
0.228142
0.22928
0.226405
0.220676
0.21801
0.219523
0.22246
0.222497
0.21758
0.211985
0.208392
0.205815
0.201591
0.197966
0.248295
0.24783
0.246164
0.249257
0.25175
0.251888
0.251832
0.252072
0.247609
0.210682
0.203383
0.227918
0.247399
0.234571
0.228606
0.23244
0.236176
0.239968
0.243345
0.246486
0.247093
0.24657
0.242941
0.238109
0.234743
0.236833
0.243538
0.246626
0.244776
0.24082
0.2508
0.249113
0.250949
0.252035
0.251786
0.251523
0.251421
0.251465
0.251721
0.251764
0.251135
0.251463
0.251919
0.25185
0.249047
0.243907
0.241761
0.24123
0.241386
0.240089
0.237347
0.23443
0.232597
0.233696
0.239223
0.246735
0.249428
0.248912
0.247484
0.245038
0.250087
0.251519
0.251039
0.247975
0.247362
0.24966
0.250653
0.250326
0.248066
0.246499
0.247372
0.248191
0.248003
0.247736
0.246669
0.246202
0.245923
0.24523
0.244486
0.244104
0.244412
0.24474
0.24531
0.245638
0.24546
0.244994
0.244449
0.244287
0.244022
0.241979
0.251514
0.251542
0.251387
0.251319
0.251
0.250769
0.250694
0.250655
0.250883
0.251208
0.251273
0.251181
0.251097
0.251154
0.25127
0.251248
0.251203
0.250942
0.250527
0.250437
0.25046
0.250418
0.250711
0.250732
0.250874
0.250937
0.250951
0.251013
0.251464
0.251032
0.251713
0.252028
0.251442
0.250841
0.250684
0.25095
0.2516
0.251805
0.245162
0.243398
0.251698
0.251626
0.251549
0.251564
0.25167
0.251755
0.251827
0.251543
0.251536
0.251449
0.251349
0.251585
0.251553
0.250016
0.246268
0.234897
0.23624
0.243153
0.242439
0.239958
0.251351
0.250882
0.251301
0.251341
0.251478
0.251194
0.251184
0.251193
0.251254
0.251373
0.251268
0.251027
0.25083
0.250867
0.250787
0.250671
0.250603
0.250767
0.251027
0.251319
0.251612
0.251583
0.251802
0.251272
0.250935
0.250705
0.250742
0.250797
0.250759
0.250256
0.251379
0.251288
0.245572
0.241798
0.239631
0.236987
0.236676
0.239453
0.242791
0.246189
0.246978
0.247321
0.245082
0.240469
0.232603
0.225737
0.223387
0.226714
0.233395
0.242498
0.247751
0.250049
0.250614
0.250841
0.251347
0.251386
0.251103
0.251012
0.250755
0.250431
0.251494
0.251523
0.248993
0.245929
0.241827
0.240006
0.242269
0.244682
0.246843
0.248322
0.248158
0.247565
0.24572
0.244431
0.243571
0.244508
0.248269
0.249635
0.250024
0.24928
0.247113
0.242245
0.240966
0.243153
0.247611
0.250818
0.251802
0.251819
0.251811
0.251644
0.25121
0.250257
0.250612
0.251083
0.251527
0.251913
0.25184
0.249956
0.244933
0.237746
0.2319
0.227879
0.223046
0.220055
0.217543
0.214657
0.214574
0.216849
0.226176
0.23681
0.24829
0.250379
0.251357
0.251524
0.252164
0.252333
0.252331
0.251984
0.251812
0.251417
0.251745
0.251357
0.251018
0.252075
0.251309
0.251119
0.251234
0.251393
0.251265
0.251231
0.251319
0.251169
0.25112
0.251071
0.250783
0.250344
0.250019
0.25092
0.252156
0.240318
0.225399
0.221473
0.23303
0.251261
0.251901
0.251315
0.251204
0.251418
0.25198
0.251117
0.201457
0.249564
0.246823
0.246428
0.246409
0.246802
0.247556
0.248509
0.249571
0.250287
0.250816
0.250689
0.250787
0.250579
0.250852
0.250742
0.250165
0.249231
0.248514
0.247897
0.247346
0.246777
0.246341
0.246169
0.249204
0.246955
0.23611
0.210567
0.181011
0.173654
0.214049
0.232002
0.24258
0.242218
0.236605
0.231557
0.228351
0.225748
0.22349
0.222873
0.225818
0.235592
0.238227
0.231523
0.22274
0.217207
0.221406
0.23377
0.235591
0.237528
0.24116
0.245906
0.246519
0.244734
0.233681
0.22262
0.218539
0.216962
0.215954
0.216112
0.219868
0.225613
0.229946
0.231068
0.229283
0.225213
0.222731
0.223936
0.224174
0.222184
0.216884
0.211422
0.207905
0.20559
0.204321
0.199917
0.200391
0.206555
0.226
0.244554
0.248316
0.250171
0.251661
0.251808
0.251867
0.251804
0.238731
0.202545
0.201873
0.232873
0.246804
0.231598
0.230093
0.233843
0.238183
0.242802
0.246463
0.247492
0.247979
0.24741
0.244144
0.240343
0.239449
0.242488
0.245744
0.245824
0.243342
0.243621
0.249625
0.251828
0.250655
0.249495
0.25153
0.252072
0.251738
0.251481
0.251438
0.251588
0.251785
0.25107
0.250013
0.251297
0.251751
0.25091
0.24767
0.243128
0.242323
0.243111
0.243429
0.242629
0.239114
0.23503
0.233689
0.23565
0.242074
0.248543
0.249364
0.2486
0.246737
0.246843
0.248722
0.248515
0.250801
0.251255
0.249882
0.24624
0.24714
0.249283
0.250611
0.250319
0.248197
0.247038
0.247931
0.248049
0.24769
0.246656
0.24627
0.245893
0.245484
0.245076
0.244758
0.244448
0.244151
0.244716
0.245916
0.246026
0.244786
0.243416
0.242164
0.242557
0.243087
0.241806
0.242929
0.246195
0.251239
0.251687
0.251411
0.251362
0.250986
0.250751
0.250468
0.250479
0.250749
0.251193
0.251558
0.251246
0.251057
0.251115
0.251444
0.251383
0.251406
0.251183
0.250705
0.250417
0.250526
0.250449
0.250591
0.250796
0.250818
0.250884
0.250975
0.251112
0.25129
0.250988
0.251004
0.25149
0.251745
0.251797
0.251171
0.250723
0.250705
0.250949
0.251216
0.251791
0.25059
0.248479
0.251486
0.251552
0.251271
0.251056
0.251073
0.251212
0.251678
0.251796
0.251648
0.251435
0.251408
0.251601
0.251665
0.251506
0.248845
0.236519
0.235545
0.240668
0.23989
0.243725
0.251356
0.25117
0.251076
0.250886
0.251138
0.251349
0.251228
0.251207
0.251269
0.251151
0.250922
0.251545
0.251452
0.251272
0.251159
0.251159
0.251144
0.251094
0.251049
0.251153
0.251339
0.251602
0.251644
0.251663
0.251534
0.251166
0.250895
0.250728
0.250617
0.250552
0.250512
0.25128
0.251216
0.251428
0.251385
0.245876
0.243404
0.241974
0.24068
0.239017
0.238126
0.239672
0.242863
0.246626
0.247734
0.248031
0.247782
0.246518
0.242692
0.239271
0.238349
0.24079
0.244999
0.248088
0.24959
0.250532
0.250804
0.25124
0.251332
0.251333
0.251296
0.251377
0.250891
0.250788
0.251502
0.251411
0.251272
0.251241
0.24886
0.248193
0.246756
0.246037
0.246512
0.247091
0.247667
0.248405
0.247823