/*--------------------------------*- C++ -*----------------------------------*\
| =========                 |                                                 |
| \\      /  F ield         | OpenFOAM: The Open Source CFD Toolbox           |
|  \\    /   O peration     | Version:  2.1.1                                 |
|   \\  /    A nd           | Web:      www.OpenFOAM.org                      |
|    \\/     M anipulation  |                                                 |
\*---------------------------------------------------------------------------*/
FoamFile
{
    version     2.0;
    format      ascii;
    class       volScalarField;
    location    "0.004850000";
    object      mut;
}
// * * * * * * * * * * * * * * * * * * * * * * * * * * * * * * * * * * * * * //

dimensions      [1 -1 -1 0 0 0 0];

internalField   nonuniform List<scalar> 
12384
(
0.000813299
0.00410551
0.00388118
0.00345701
0.00287768
0.00239439
0.0018946
0.00146523
0.00119425
0.00105999
0.000986402
0.000916013
0.000972916
0.000601305
0.00642051
0.0117619
0.0146418
0.0163967
0.0177827
0.0185297
0.0194506
0.0199097
0.0208848
0.0123704
0.00819922
0.0063936
0.00548883
0.00501949
0.0047304
0.00452561
0.00433008
0.00411945
0.00380713
0.00359246
0.00343332
0.00333199
0.00326431
0.00315597
0.00288765
0.00234908
0.00177125
0.00182982
0.0027179
0.0036392
0.0118052
0.014828
0.0162756
0.0172755
0.0181454
0.0188997
0.0157933
0.0107428
0.00912745
0.00873157
0.00898201
0.010448
0.0146211
0.0256526
0.0276668
0.0237901
0.0169975
0.0137404
0.0121024
0.0108382
0.00991783
0.0085247
0.00763078
0.007014
0.00674694
0.00643183
0.00586544
0.0049757
0.0030889
0.000981772
0.0108626
0.0148135
0.013648
0.0126791
0.0120663
0.0121321
0.0128819
0.0146513
0.0176116
0.0231306
0.0339235
0.0353425
0.0364594
0.028931
0.0182561
0.0136241
0.0110854
0.00971275
0.00873015
0.00806471
0.00722355
0.00653781
0.0061168
0.00592173
0.00589818
0.00583057
0.00508207
0.00320724
0.00219149
0.00332436
0.00721282
0.00623977
0.00558904
0.0056831
0.00632051
0.00775189
0.0106767
0.017443
0.0374691
0.045539
0.0273304
0.0185653
0.0145439
0.0127672
0.0116501
0.0104103
0.010144
0.00970027
0.00969258
0.00980955
0.0097589
0.00978908
0.010121
0.0110211
0.0122126
0.0131797
0.0102586
0.00386312
0.00246215
0.00333892
0.00633812
0.00492527
0.00418661
0.0035631
0.00312657
0.00289483
0.0031168
0.00367683
0.00479706
0.0071918
0.014079
0.0235147
0.0141143
0.0102874
0.00894728
0.008122
0.00759227
0.00729515
0.00680989
0.00631331
0.00517094
0.00486422
0.00458865
0.00491588
0.00558079
0.0071261
0.0109578
0.0226831
0.0176909
0.0105175
0.00587996
0.00738211
0.00586485
0.00541249
0.00566612
0.00656936
0.00909293
0.0159162
0.0230759
0.0191417
0.0104933
0.00705964
0.00522295
0.00421811
0.00360219
0.00322988
0.0029959
0.00287944
0.00282161
0.00287963
0.00297052
0.00315122
0.00335995
0.0035636
0.00375309
0.00410459
0.00496427
0.00652548
0.00982053
0.0122598
0.00353085
0.00366041
0.00617719
0.0102743
0.0128021
0.0130598
0.0115999
0.00968093
0.00765874
0.00592765
0.00480982
0.0040483
0.00373519
0.00353025
0.00351515
0.00353641
0.00368599
0.00384885
0.00385942
0.00382362
0.00387779
0.0040622
0.00449621
0.00546466
0.00741702
0.0115898
0.0203728
0.0202495
0.0176536
0.0138494
0.00123267
0.00121966
0.00343948
0.00559481
0.00621947
0.00586386
0.00525256
0.00481388
0.00444041
0.00449897
0.00436338
0.00464704
0.00443134
0.00448814
0.00427628
0.00424513
0.00462845
0.00508217
0.00578203
0.00670147
0.00804253
0.0102049
0.0140858
0.0223615
0.0237903
0.0204877
0.0164652
0.0106706
0.00427731
0.000830689
0.00548511
0.00676778
0.0107481
0.0116761
0.0106452
0.0086406
0.00691542
0.00591614
0.00554036
0.00556888
0.005753
0.00607165
0.00616627
0.00651172
0.00648263
0.00669342
0.00677695
0.00718976
0.00734201
0.00791291
0.00867947
0.0105991
0.0142785
0.0237543
0.0329838
0.0213492
0.01343
0.0108925
0.0114478
0.0198459
0.00851722
0.0105796
0.011534
0.0101081
0.00801523
0.00612522
0.00502957
0.00450965
0.00460902
0.0049041
0.00503535
0.00541063
0.00547531
0.00573692
0.00584046
0.00627177
0.00675044
0.00762266
0.00857787
0.0102306
0.0123901
0.0159022
0.0218525
0.0335493
0.0406444
0.0336531
0.0151898
0.00948694
0.00884939
0.0153144
0.00674826
0.0105733
0.0139769
0.0136011
0.0122054
0.011085
0.00978411
0.00908095
0.00846271
0.00835361
0.00884863
0.0105804
0.0150123
0.027173
0.0280194
0.0153824
0.0103927
0.00831446
0.00733457
0.00670451
0.00635828
0.00595605
0.00579458
0.00567646
0.0057668
0.00578053
0.005404
0.00385087
0.00153843
0.000261318
9.0168e-05
0.000125319
0.000195678
0.000217317
0.000383067
0.000823712
0.00279522
0.00554964
0.00452082
0.00398286
0.0037482
0.00360005
0.00368811
0.00414611
0.00509401
0.00568068
0.00600266
0.00594716
0.00568085
0.00501273
0.00388445
0.00119879
6.79863e-05
1.41757e-05
8.65032e-06
5.65223e-06
4.40169e-06
4.81375e-06
5.10861e-06
6.721e-06
0.00125511
0.00283547
0.00321797
0.00378582
0.00434377
0.00485416
0.00523563
0.00547542
0.00547503
0.00516772
0.00457263
0.0037262
0.00276653
0.00496158
0.00275055
0.0028854
0.00325697
0.00355656
0.00374445
0.00382795
0.00398669
0.0041221
0.00457817
0.0051994
0.00619563
0.0074665
0.00903911
0.0107459
0.0124871
0.0140885
0.0155211
0.0165556
0.0173556
0.0177807
0.0178426
0.0176405
0.0170808
0.0160524
0.0143957
0.0118848
0.0087527
0.0054646
0.00295035
0.002824
0.0115304
0.00277992
0.00284341
0.00316925
0.0037104
0.00441096
0.00521532
0.00556018
0.00565121
0.00537872
0.00518728
0.00518117
0.00556813
0.00641176
0.00758736
0.00890008
0.0102961
0.0116833
0.0129765
0.0140687
0.0149012
0.0151934
0.0152983
0.0149643
0.0142897
0.0131915
0.0114635
0.00910213
0.00601924
0.00819912
0.00473251
0.00546756
0.00665352
0.00769003
0.008429
0.00896329
0.00911016
0.00912748
0.00880672
0.00845425
0.00803698
0.00779628
0.00792452
0.00877702
0.0103143
0.0124514
0.0148894
0.0175533
0.0201121
0.0221631
0.023607
0.0245179
0.0247022
0.0244799
0.0235304
0.0218206
0.018733
0.0143984
0.00967788
0.00702005
0.00355757
0.0089002
0.0098875
0.0107885
0.0116886
0.0122455
0.0122788
0.0123844
0.0124
0.0127444
0.0130674
0.0140019
0.015331
0.0161795
0.0179981
0.0189442
0.0206015
0.0214251
0.0221333
0.022512
0.0221384
0.0217219
0.0208835
0.0197024
0.0181154
0.0157891
0.0128279
0.00939741
0.00503925
0.00800623
0.00537191
0.00485756
0.00652993
0.00783636
0.00861153
0.00893152
0.00890162
0.00861823
0.00834997
0.00830437
0.00868352
0.00969561
0.0112027
0.0132282
0.0155524
0.0180737
0.0205503
0.0228287
0.0244245
0.0258963
0.026239
0.0268119
0.0257694
0.0248917
0.023261
0.0203906
0.0164373
0.0118978
0.00732274
0.0202456
0.00751029
0.00394219
0.00515638
0.00612192
0.0066044
0.0068495
0.00689756
0.00696888
0.00701398
0.00725477
0.00770887
0.00864213
0.00991608
0.0115758
0.0134485
0.0153918
0.0172186
0.0186923
0.0197488
0.0202081
0.0206494
0.0203191
0.0201275
0.0196404
0.019093
0.01858
0.0174874
0.0156386
0.0123729
0.0155087
0.0170937
0.00585
0.00670032
0.0071367
0.00733362
0.00732397
0.00735582
0.00751875
0.00821617
0.00944074
0.011829
0.0143011
0.0176713
0.0201656
0.0227528
0.0243641
0.0254736
0.0254901
0.024834
0.0236249
0.0219802
0.0199951
0.0177547
0.0153653
0.0130345
0.0109648
0.00930238
0.00781015
0.00641535
0.020133
0.00776858
0.004333
0.0048807
0.00542153
0.00605562
0.00728804
0.00933875
0.012375
0.0155472
0.0191778
0.0217977
0.0247546
0.0267528
0.0282073
0.0289758
0.0294894
0.0290416
0.028168
0.026624
0.0244298
0.021986
0.0191372
0.016175
0.0132689
0.0107458
0.0087189
0.00713881
0.00587599
0.0047825
0.00886287
0.014073
0.00408265
0.00416925
0.00461661
0.00531795
0.00681938
0.00936672
0.0125855
0.0159458
0.0186591
0.0215291
0.0235424
0.0259038
0.0272521
0.0289059
0.0295917
0.0301123
0.0297195
0.0292806
0.028066
0.0267486
0.0251229
0.0228337
0.0198747
0.016277
0.0121562
0.00807484
0.00568283
0.00518216
0.0156892
0.0194406
0.00419871
0.00443909
0.00507502
0.00626964
0.0086089
0.0118926
0.0153502
0.0184116
0.0217547
0.0237266
0.0269384
0.028192
0.0302405
0.0311753
0.0318827
0.0320691
0.0315344
0.0307414
0.0295448
0.0278423
0.0258295
0.0232899
0.0202453
0.016815
0.0133507
0.0100441
0.00690785
0.00561294
0.0146314
0.0161065
0.00364486
0.00448217
0.0056406
0.00665584
0.00761678
0.00821124
0.00846908
0.00843365
0.00830001
0.00790995
0.00745033
0.00698499
0.00674853
0.00697727
0.00764683
0.00864773
0.00990163
0.0112517
0.012615
0.0136933
0.0147071
0.0152019
0.0154215
0.0153064
0.0147355
0.0133605
0.0110512
0.00821432
0.00882489
0.000611594
0.00153438
0.00263288
0.00345081
0.00480452
0.00686322
0.0097263
0.0131179
0.0165606
0.0188758
0.0205778
0.0211193
0.0212207
0.0207761
0.020019
0.0186391
0.0169394
0.0148831
0.0126884
0.0103343
0.00757023
0.00356983
0.000398561
8.08368e-05
4.48774e-05
2.84553e-05
2.00441e-05
1.48114e-05
1.3282e-05
1.15429e-05
0.00166372
0.00352875
0.00374174
0.00404852
0.0042878
0.00456883
0.00483258
0.00511412
0.0052859
0.00524537
0.0048543
0.00419986
0.00342947
0.0063227
0.00252944
0.00321083
0.00354609
0.00383756
0.0040707
0.00424482
0.00444761
0.00467133
0.00524884
0.00592632
0.00681262
0.0078076
0.00897453
0.0102409
0.0114949
0.0127157
0.0137362
0.0145955
0.0151317
0.0153431
0.0153512
0.0151973
0.0149817
0.0146023
0.013855
0.0124263
0.0101316
0.00722977
0.0043771
0.00203033
0.0124832
0.00271181
0.00292983
0.00336268
0.00403583
0.00482681
0.00543549
0.00559627
0.00553555
0.00529503
0.00541648
0.00600285
0.00705609
0.0082427
0.00949729
0.0106973
0.0118312
0.0128622
0.0137543
0.0144264
0.0149509
0.0151458
0.0152614
0.0149725
0.0145172
0.0136699
0.0124257
0.0105636
0.00782227
0.00870007
0.00314821
0.00569122
0.00673101
0.00774543
0.00850004
0.00906631
0.00925995
0.00923533
0.00897116
0.00864959
0.00842253
0.00856379
0.00927094
0.0108064
0.0127742
0.0149988
0.0168459
0.0187614
0.0202721
0.0216331
0.0228232
0.0233636
0.0231614
0.0226478
0.0218969
0.0208745
0.0191683
0.0162897
0.0122577
0.0108832
0.0024158
0.00790529
0.00875618
0.0101737
0.0115913
0.0126988
0.0132791
0.0139053
0.0141339
0.0143183
0.0146294
0.0149117
0.0157302
0.0159842
0.0176899
0.0179313
0.0196629
0.0200964
0.0208376
0.0212547
0.0209818
0.0208587
0.0201368
0.0196708
0.0189337
0.017484
0.015414
0.0123236
0.00846565
0.0151271
0.00453096
0.00572811
0.00713694
0.00813757
0.00877953
0.00911125
0.00922603
0.00935999
0.0098149
0.0105525
0.0114738
0.0125394
0.0136224
0.0147099
0.0157309
0.0168121
0.0180294
0.0192132
0.0201171
0.021584
0.0219847
0.0226545
0.0225589
0.0226462
0.0219099
0.0205583
0.0178174
0.0138862
0.00944125
0.0244257
0.0111268
0.00471382
0.00591504
0.00670456
0.00706196
0.00719001
0.0072422
0.00724015
0.00745441
0.0079181
0.00865953
0.00975014
0.0109788
0.0122887
0.0135977
0.0147939
0.0159091
0.016694
0.0171982
0.0172128
0.0167305
0.0164466
0.0158007
0.0155213
0.0152488
0.0150665
0.0149323
0.014284
0.0126172
0.0105242
0.0243569
0.00681634
0.00744089
0.00770541
0.00782696
0.0078713
0.0080865
0.00860522
0.0100897
0.0124153
0.0153021
0.017606
0.0204057
0.0219728
0.0240708
0.024902
0.0253359
0.0251781
0.0243796
0.0230023
0.0213842
0.0194768
0.017412
0.0152163
0.012932
0.0109852
0.00930579
0.00801417
0.00685032
0.0230433
0.0167608
0.00508544
0.00542364
0.00597347
0.0070684
0.00918402
0.0119353
0.0150963
0.0179891
0.0206777
0.0229698
0.0253282
0.0268828
0.0282278
0.029443
0.0295146
0.0295745
0.0283666
0.0269554
0.0250769
0.0228014
0.0203398
0.0176323
0.0148367
0.0121954
0.0098805
0.00799992
0.00652589
0.0053169
0.0131982
0.0159338
0.00424125
0.00419946
0.0047044
0.00596746
0.00855749
0.0117918
0.0148202
0.0174792
0.0197463
0.0217306
0.0235714
0.0255186
0.0266472
0.0281811
0.0290297
0.0294968
0.029528
0.0286473
0.0281465
0.0267611
0.0259205
0.0241746
0.0223616
0.0194785
0.0157516
0.0113699
0.00752577
0.00561231
0.0146691
0.0211854
0.00435279
0.00447641
0.00550656
0.00779707
0.0112312
0.0144057
0.0173653
0.0195756
0.0223558
0.0238741
0.0269363
0.0275481
0.03001
0.0307031
0.0311806
0.031569
0.0309623
0.0304035
0.0291934
0.0280113
0.0262394
0.0244645
0.0222442
0.0195072
0.0163596
0.0129711
0.00965044
0.00698404
0.0166473
0.018513
0.00440724
0.00543926
0.00698324
0.00841497
0.00972292
0.0105337
0.0110286
0.0111043
0.0112001
0.0109158
0.010394
0.0097142
0.00911596
0.00882117
0.00880437
0.00887137
0.00907619
0.00961971
0.0104828
0.0112948
0.0121446
0.01269
0.0130983
0.0133764
0.0135341
0.0131746
0.0118281
0.00967545
0.00782088
0.00147636
0.00219876
0.00335174
0.00500892
0.00724873
0.0102982
0.0136729
0.0168072
0.0195447
0.0209202
0.021879
0.022422
0.0223726
0.022088
0.0212967
0.0199886
0.0184553
0.0166663
0.0147916
0.012603
0.0101984
0.00682701
0.00153273
0.000191852
8.7505e-05
4.39962e-05
2.55842e-05
1.6927e-05
1.36065e-05
1.66284e-05
0.00185812
0.00399758
0.00403053
0.00402873
0.00402806
0.00406597
0.00419143
0.00443102
0.00479611
0.00512335
0.00515166
0.00478486
0.0042483
0.0063122
0.0026434
0.00373408
0.00407207
0.00442351
0.00463925
0.00471734
0.00491961
0.00546114
0.00633341
0.00719641
0.0080558
0.00882234
0.00959175
0.0103181
0.0110421
0.0117109
0.0123602
0.012885
0.0131981
0.0133467
0.0132558
0.0130925
0.0129994
0.0131076
0.0131613
0.0126744
0.0111885
0.00864648
0.00567598
0.00179901
0.0136899
0.00301878
0.0035075
0.00430098
0.00515116
0.00578522
0.00592636
0.00572032
0.00534946
0.00532689
0.00618722
0.00747334
0.00869249
0.0099109
0.0110566
0.0120864
0.0128677
0.0133754
0.0135519
0.0136989
0.0136626
0.0138101
0.0138357
0.0140012
0.0139975
0.0137865
0.0130396
0.011663
0.00926388
0.00639962
0.00264029
0.00673526
0.00739372
0.0081004
0.0086236
0.00895351
0.00901837
0.00891903
0.00869577
0.00864401
0.00885335
0.00967984
0.0110768
0.0131999
0.015503
0.0175144
0.018728
0.0195634
0.0203852
0.0206135
0.0211694
0.0212021
0.0210888
0.0208516
0.0203391
0.0201308
0.0195447
0.017742
0.014567
0.0109414
0.00217589
0.00826607
0.00833913
0.00977979
0.0115481
0.0131815
0.0145845
0.015621
0.0162204
0.0166324
0.0168565
0.0165706
0.0164004
0.0163019
0.0170143
0.0169207
0.0183796
0.0187997
0.019348
0.0198838
0.0199097
0.0196682
0.0196325
0.0195337
0.0194089
0.0191172
0.0176486
0.014716
0.0111567
0.0148854
0.00442192
0.00707396
0.00806813
0.0087614
0.00907591
0.00921455
0.00941454
0.00998799
0.0111294
0.0125236
0.01383
0.014929
0.0158001
0.0163377
0.0165357
0.0165316
0.0164011
0.0161877
0.0161132
0.0165317
0.0164501
0.0176699
0.0184893
0.019282
0.0200396
0.0199976
0.0185117
0.015496
0.0112842
0.0180541
0.0144999
0.00586838
0.00689418
0.00726098
0.00737558
0.00732116
0.00739875
0.00786237
0.00842632
0.0091445
0.0102246
0.0112699
0.0122061
0.012983
0.013767
0.0146007
0.0153679
0.0160621
0.0163535
0.0162152
0.0153784
0.0141352
0.013294
0.01237
0.0121357
0.0123309
0.0128038
0.0133336
0.0130326
0.00813275
0.0302514
0.00787252
0.00820673
0.0083208
0.00844035
0.00857607
0.00912799
0.0105781
0.0131903
0.0160576
0.018496
0.0195894
0.0210081
0.021514
0.022514
0.0229734
0.0233338
0.0228054
0.0224434
0.0214167
0.0201176
0.0185958
0.0169339
0.0149327
0.0129164
0.0108726
0.00931375
0.00824305
0.00741031
0.0249762
0.0260633
0.00582217
0.00613087
0.00696199
0.00888003
0.0116039
0.0143576
0.0165373
0.0187984
0.019974
0.0218782
0.0227298
0.0244161
0.0255056
0.0263262
0.0271916
0.0269354
0.0267943
0.0254616
0.0242127
0.0225335
0.0204292
0.0180941
0.0155537
0.0129688
0.0105997
0.00863159
0.00710225
0.0059254
0.0176104
0.0177963
0.0045251
0.00459411
0.00549256
0.00778203
0.0109145
0.0137421
0.0159172
0.0177224
0.0188336
0.0203193
0.0210277
0.0226623
0.0233553
0.024752
0.0254448
0.0263059
0.0265703
0.0267742
0.0262545
0.0256365
0.0253677
0.0247828
0.0236827
0.0218345
0.0189425
0.014623
0.0100556
0.00684481
0.0170284
0.0225385
0.00477278
0.00511459
0.00696734
0.0101744
0.0133255
0.0157416
0.0179953
0.019406
0.0214359
0.0227467
0.0251645
0.025819
0.0282825
0.0285676
0.0292449
0.0295269
0.0294901
0.0291634
0.027883
0.0271334
0.0258461
0.0247503
0.0233448
0.0215849
0.0190196
0.0158712
0.0122505
0.00886799
0.0268761
0.0136628
0.00583976
0.00758686
0.00951624
0.0112427
0.0123913
0.0131526
0.0137709
0.0141409
0.0142809
0.0141269
0.0136408
0.0128265
0.0119393
0.0113013
0.010912
0.0104195
0.0098095
0.00955136
0.00958893
0.00983089
0.0102134
0.0107447
0.0111828
0.0118366
0.0124702
0.012952
0.0127074
0.0109823
0.00590832
0.00351553
0.00287547
0.00464178
0.00689337
0.00990183
0.0133911
0.0167173
0.0193953
0.0212658
0.0219878
0.0222429
0.0224391
0.022142
0.0216144
0.0208446
0.02009
0.0188616
0.0176596
0.0161883
0.0143938
0.0121031
0.00907091
0.00363962
0.000375104
0.000145792
6.58438e-05
3.46997e-05
2.27274e-05
1.80396e-05
2.8284e-05
0.00195495
0.00425563
0.00411926
0.00400449
0.00387403
0.00369807
0.00362187
0.00381417
0.00425323
0.00489209
0.00536603
0.00541999
0.00515206
0.00695304
0.00268013
0.00435662
0.00463752
0.00488114
0.00485342
0.00484793
0.00525168
0.00621753
0.00739481
0.00839419
0.00917398
0.00972747
0.0101472
0.0104548
0.0106333
0.0107767
0.0108688
0.0109222
0.0110063
0.0110546
0.0111129
0.0111573
0.0112678
0.0116624
0.0122955
0.0126249
0.0118961
0.00975372
0.00680848
0.00165338
0.0148456
0.00354455
0.00427369
0.00523058
0.00591521
0.00621324
0.0059309
0.00532714
0.0049551
0.00562504
0.0073559
0.00893781
0.0100106
0.0111397
0.0123025
0.0131095
0.0133574
0.0131304
0.0126718
0.0121298
0.0117087
0.0114291
0.0116376
0.0120948
0.0128756
0.0133907
0.0133803
0.0125238
0.0104435
0.00514402
0.00245334
0.00809096
0.0081356
0.00829652
0.00841395
0.00842087
0.00835406
0.00826803
0.00827871
0.00869797
0.00957504
0.0110227
0.0128723
0.015336
0.0176332
0.0193192
0.0196407
0.0197723
0.0192698
0.0185802
0.0180543
0.0180814
0.0184539
0.0185773
0.0189455
0.019396
0.0195822
0.0191663
0.016483
0.0105182
0.00223634
0.00897672
0.0081099
0.00934519
0.0114613
0.0137807
0.0157926
0.0172104
0.0184027
0.0191268
0.0190235
0.0182467
0.0171856
0.0162397
0.0158037
0.0154943
0.0162314
0.016573
0.0172646
0.0178794
0.0183842
0.0185366
0.0186303
0.0191565
0.0197443
0.0198139
0.0190533
0.0170434
0.0135122
0.00945254
0.00478023
0.00860415
0.00916412
0.009339
0.00925795
0.0091176
0.00935301
0.0102746
0.011955
0.0138793
0.0154973
0.0166867
0.0174952
0.0178843
0.0177747
0.017276
0.0163852
0.0151332
0.013403
0.0117064
0.0110265
0.0123182
0.0139062
0.0160702
0.0179006
0.0189249
0.0187966
0.016484
0.0126938
0.0130344
0.00966367
0.00724109
0.00782613
0.0077745
0.00744254
0.00743049
0.00782966
0.00864573
0.00972649
0.0109333
0.0117668
0.0122621
0.0125694
0.0130194
0.0139521
0.0149017
0.0158433
0.0162435
0.0163149
0.0158677
0.0154347
0.0143831
0.0125435
0.0111249
0.00997555
0.0101833
0.0112175
0.0127917
0.0139492
0.00695407
0.0258731
0.00892254
0.008911
0.00888475
0.00900582
0.0094059
0.0105731
0.013221
0.0164983
0.0188753
0.0198795
0.0194936
0.0195386
0.0186984
0.0187976
0.0186233
0.0187534
0.0189327
0.0187573
0.018427
0.0178363
0.0169786
0.0158349
0.0144152
0.0125142
0.0106379
0.00921144
0.00841443
0.00794712
0.0262923
0.0295273
0.006595
0.0069555
0.00841617
0.0109911
0.0136679
0.0157389
0.0168256
0.0175909
0.017591
0.0181353
0.0181521
0.0185368
0.019353
0.0203244
0.0210454
0.022133
0.0223653
0.0224149
0.0215756
0.0207612
0.0192981
0.0176027
0.0152873
0.0130512
0.0107889
0.00888079
0.00746155
0.00648953
0.0188006
0.0223976
0.00497874
0.00525294
0.00695184
0.00997716
0.0130016
0.0149545
0.0159225
0.0164036
0.0163654
0.0166049
0.0165998
0.0175107
0.0179899
0.0192983
0.0202049
0.0211661
0.0219494
0.0225404
0.0235007
0.0232015
0.023888
0.0239418
0.0238322
0.0229594
0.0208004
0.0169517
0.0121271
0.00813764
0.0263386
0.0264616
0.00517661
0.00603007
0.00880153
0.0122164
0.0148062
0.0163861
0.0177909
0.0185145
0.0201943
0.0207593
0.0225213
0.0234309
0.0249675
0.0257455
0.0265407
0.0270421
0.0268028
0.0269452
0.026022
0.0255065
0.024645
0.0240805
0.023313
0.0223198
0.0205705
0.0178518
0.0142185
0.0104393
0.0362736
0.0109349
0.00786863
0.0101022
0.0123374
0.0137408
0.0150007
0.0158591
0.0164632
0.0170007
0.0173412
0.017192
0.0168325
0.0159844
0.0147714
0.0137153
0.0130943
0.0123474
0.0113246
0.0104882
0.0096408
0.008938
0.00841777
0.00867734
0.00947552
0.01046
0.0116869
0.0129842
0.0133718
0.0120387
0.00443927
0.00987099
0.00383279
0.00589132
0.00866458
0.0120537
0.0155623
0.0186278
0.0207015
0.0216565
0.0218784
0.0216717
0.0210588
0.0204771
0.0198766
0.0192288
0.018672
0.0183645
0.0177358
0.0169368
0.0156352
0.0136007
0.0107854
0.00601199
0.000716357
0.000205462
8.81327e-05
4.48138e-05
3.00506e-05
2.62319e-05
7.19294e-05
0.00199389
0.00431723
0.00413768
0.00402427
0.00378059
0.00339951
0.00312897
0.00325279
0.00380947
0.00466185
0.00552128
0.00600759
0.00609015
0.00836464
0.00270037
0.00505722
0.00506052
0.0049922
0.00475731
0.00482044
0.00552061
0.00682234
0.00817915
0.00920329
0.00993826
0.010292
0.0104739
0.0104863
0.0102651
0.00986389
0.00924541
0.00873007
0.00840147
0.00849673
0.00878982
0.00919037
0.00972997
0.0105172
0.0116095
0.0125005
0.0122985
0.0105528
0.00778402
0.00153623
0.0160427
0.00408335
0.00486536
0.00572761
0.00621482
0.00615621
0.00550815
0.00466559
0.00463649
0.00628836
0.00852959
0.0100567
0.0108937
0.0120258
0.0131284
0.0135455
0.0132162
0.0124953
0.0114162
0.0102935
0.00919895
0.00877506
0.00909622
0.010206
0.0116101
0.0129599
0.0136801
0.0132264
0.011307
0.00420233
0.00236239
0.00951631
0.00887163
0.00840576
0.00793687
0.00756539
0.00734075
0.00739025
0.00792656
0.0090332
0.0105678
0.0123829
0.0144394
0.0168967
0.0191075
0.0201407
0.0198787
0.0189659
0.0173887
0.0155322
0.0146037
0.0142693
0.0149105
0.0162081
0.0175391
0.018486
0.0200289
0.0201065
0.0182421
0.0107955
0.00241707
0.00988044
0.00795539
0.00908943
0.0117024
0.0144075
0.0166777
0.0186378
0.0202904
0.0212284
0.0208246
0.0197822
0.0173883
0.016321
0.0143859
0.0140691
0.0136146
0.0139191
0.0147201
0.0155526
0.0162646
0.0171809
0.0179219
0.0183821
0.0192526
0.0203684
0.020762
0.0189755
0.0155259
0.00762822
0.00557194
0.010102
0.0101336
0.00992271
0.00927654
0.00867906
0.00875718
0.0100716
0.0121441
0.0146443
0.016416
0.0176945
0.0185519
0.019025
0.0188831
0.0183703
0.017534
0.0158908
0.0131243
0.00954192
0.00705839
0.00767558
0.0103358
0.0134279
0.0160212
0.0180884
0.0187671
0.0171227
0.0137957
0.0111202
0.00712574
0.00873671
0.00873112
0.00811831
0.00761405
0.00758626
0.00841514
0.00968436
0.0112493
0.0124364
0.012687
0.0123561
0.0131962
0.0145322
0.0155973
0.0163937
0.0168535
0.0172515
0.0171546
0.0170676
0.0161061
0.014788
0.0132514
0.011028
0.00949675
0.00915679
0.0106631
0.0128559
0.0146057
0.00659558
0.0180933
0.0101175
0.00969916
0.00952512
0.00969686
0.0104346
0.0125518
0.0160177
0.0192364
0.0203938
0.0201622
0.018445
0.0173387
0.0153998
0.0146439
0.0137235
0.0136999
0.0137347
0.0143136
0.0147933
0.0151143
0.0151417
0.0148344
0.0137695
0.0121228
0.0103479
0.00905249
0.00860896
0.00848222
0.0269717
0.0326038
0.00753055
0.00816656
0.0104192
0.0133014
0.0152891
0.0164633
0.0164652
0.0161279
0.0152217
0.0144896
0.0135093
0.0130089
0.0125374
0.0127613
0.0139154
0.0153314
0.0170618
0.0178731
0.0184947
0.0181345
0.0176924
0.0162171
0.0145628
0.0125278
0.010517
0.00888673
0.00768236
0.00704719
0.0197175
0.0276513
0.00567271
0.0064175
0.00906368
0.0124197
0.0146895
0.0156417
0.0154885
0.0149574
0.0140696
0.0137932
0.0131515
0.0134369
0.0131949
0.0138758
0.0142378
0.015414
0.0163709
0.0175035
0.0190586
0.0203535
0.0215047
0.0223007
0.0231768
0.0230543
0.0216619
0.0182949
0.013401
0.0090645
0.0335812
0.0277197
0.00565523
0.00722663
0.0107517
0.0138858
0.0160136
0.0171356
0.0177758
0.0182434
0.0193408
0.0194057
0.0200152
0.020485
0.0213392
0.0223486
0.023113
0.0236432
0.0233583
0.0238968
0.0233863
0.0234784
0.0227907
0.0229753
0.0225009
0.02221
0.0211778
0.0189805
0.0156077
0.0114443
0.0381903
0.00960014
0.0103336
0.0128442
0.0147762
0.0162433
0.0171012
0.0180814
0.0185976
0.0188958
0.0193419
0.0197021
0.0195364
0.0188303
0.0174369
0.0158846
0.0149814
0.0141775
0.0130061
0.0119108
0.0103503
0.00858304
0.00670843
0.00625584
0.00764438
0.00955441
0.0114672
0.0132609
0.0141365
0.0127918
0.00249752
0.0136019
0.0046877
0.00694999
0.0100069
0.0135094
0.0168452
0.0193998
0.0211048
0.0210984
0.0207506
0.0196144
0.0185706
0.0171357
0.0164469
0.0162532
0.0165758
0.0170158
0.0173187
0.0171343
0.0163682
0.0146972
0.012005
0.00793929
0.00144729
0.000261156
0.000114638
6.08948e-05
4.29774e-05
4.36897e-05
0.000158988
0.00204552
0.00424124
0.00410724
0.00404699
0.00377474
0.00330794
0.00289127
0.00293461
0.00351639
0.00450973
0.00563542
0.00652586
0.00703916
0.011626
0.00269888
0.00573555
0.00532404
0.00497857
0.00461383
0.00476482
0.0057314
0.00721509
0.00858571
0.00964315
0.0102994
0.0105455
0.0106512
0.0105001
0.00994936
0.00902536
0.00779332
0.00670433
0.00589552
0.00594804
0.00666648
0.00756341
0.00850066
0.0096817
0.0110408
0.0122544
0.0124438
0.0109787
0.00852379
0.00144267
0.0173735
0.00468522
0.00523898
0.00596874
0.00620005
0.00583207
0.00481968
0.00404296
0.00462387
0.00702327
0.00944929
0.0107093
0.0113612
0.012632
0.0136165
0.0135438
0.0128774
0.0117235
0.0101161
0.00818484
0.00662969
0.00606794
0.00702284
0.00878167
0.010946
0.0129254
0.0140463
0.0137953
0.0118725
0.00371075
0.00229738
0.0108633
0.00951032
0.00835617
0.00729614
0.00650383
0.00614005
0.00654187
0.00773008
0.00950357
0.0114764
0.0134289
0.0154754
0.0178747
0.0197529
0.0204427
0.0194247
0.0174625
0.0150679
0.0124417
0.0105423
0.0102083
0.0117574
0.0141214
0.0160245
0.0184593
0.0201774
0.0211509
0.0198636
0.0109941
0.00253151
0.0107722
0.00799547
0.00915436
0.0120228
0.0148506
0.0174201
0.0196278
0.0217393
0.022717
0.0225062
0.0206267
0.0185221
0.0163398
0.0141246
0.0128421
0.0115326
0.0113806
0.0119342
0.0131177
0.0147141
0.0158078
0.016692
0.0179661
0.0195246
0.0208451
0.0212505
0.0202876
0.0176141
0.00660228
0.00702173
0.0115356
0.0111878
0.0103912
0.00927098
0.0081389
0.00791241
0.00914043
0.0117638
0.014695
0.0167819
0.0179838
0.0189388
0.0194938
0.0195105
0.0193495
0.0186423
0.0172992
0.0149392
0.0112486
0.00783159
0.00657042
0.00872883
0.0120866
0.0151423
0.0177255
0.0186459
0.0174401
0.0144507
0.0107447
0.00627475
0.010299
0.00960621
0.00850189
0.00769565
0.00774936
0.00873743
0.0103883
0.0120674
0.0128493
0.0127042
0.0134576
0.015005
0.0164955
0.0174146
0.0173874
0.0168789
0.0162802
0.0164991
0.0162663
0.0158357
0.0150848
0.0136371
0.0118497
0.00982382
0.00929542
0.0106113
0.0132628
0.0155948
0.00633266
0.0140837
0.0116332
0.0106722
0.0103055
0.0105706
0.0118368
0.0146796
0.0186298
0.0212557
0.021231
0.020228
0.0179853
0.016123
0.0136676
0.0120073
0.010163
0.00943761
0.009362
0.0100737
0.0114715
0.0128786
0.0138338
0.0141664
0.0133517
0.0118606
0.0100607
0.00908662
0.00886671
0.00887834
0.0274316
0.0271707
0.00876718
0.00999411
0.0129353
0.0155711
0.0168887
0.0174162
0.0166862
0.0160547
0.014664
0.0136301
0.0118865
0.0104874
0.00880796
0.0077991
0.00778727
0.00985238
0.0119497
0.0140182
0.0152195
0.0159661
0.0156449
0.0150035
0.0136378
0.0118493
0.0102341
0.00880838
0.00792097
0.00753681
0.0199942
0.0294987
0.00676562
0.00829655
0.0116933
0.0147584
0.0162763
0.0164961
0.0159633
0.0151473
0.0142411
0.0136665
0.0128301
0.0122063
0.0109845
0.0102319
0.00911128
0.00911784
0.0105411
0.012449
0.0147003
0.016814
0.0189032
0.0205246
0.0220285
0.0226792
0.0218485
0.0188629
0.0139816
0.00966909
0.0345681
0.0285793
0.00630116
0.00883513
0.012647
0.0155284
0.0173465
0.0183997
0.0191038
0.0191153
0.0194113
0.0191936
0.0177733
0.0170191
0.0169022
0.0164698
0.0171333
0.018266
0.0191097
0.0200736
0.0202224
0.0210881
0.0209254
0.021557
0.0214914
0.0217556
0.0213084
0.0196661
0.0162975
0.0120393
0.0315426
0.00907644
0.0130777
0.0153743
0.0170304
0.0180892
0.0188973
0.0189063
0.0191099
0.0193104
0.0197462
0.0206339
0.0213752
0.0210376
0.0195939
0.0175905
0.0164008
0.0155357
0.0144533
0.0132277
0.0115931
0.0090889
0.00615891
0.00500282
0.00684564
0.00950078
0.0119593
0.0138794
0.0147143
0.0130258
0.0013792
0.00969666
0.00543474
0.0077693
0.0108499
0.0142992
0.0174553
0.0194149
0.020596
0.0199703
0.0190103
0.0168125
0.0150003
0.0129717
0.0121738
0.0129336
0.0141227
0.0157449
0.0166986
0.0171734
0.0167598
0.015346
0.0128109
0.00909106
0.00283729
0.000347354
0.000148383
0.000103601
8.90791e-05
0.000113739
0.000189167
0.00210549
0.00408013
0.00403302
0.00403912
0.0038329
0.00343841
0.00302987
0.00295046
0.00334674
0.00428594
0.00557761
0.0068588
0.00793415
0.0157479
0.00295821
0.00661681
0.00545965
0.00482378
0.00451472
0.00481573
0.00592384
0.00733676
0.00862023
0.00963197
0.0102565
0.0105276
0.0106533
0.0104635
0.0096933
0.0085163
0.00702645
0.00556077
0.00441804
0.00434033
0.00525946
0.006543
0.00785287
0.00932175
0.0109119
0.0121241
0.0121761
0.011006
0.0093672
0.00143585
0.0188091
0.00521262
0.00540496
0.00585022
0.00588892
0.00525693
0.00425045
0.00372863
0.00495874
0.00763211
0.0098146
0.0107465
0.0113751
0.0127912
0.0135119
0.0133098
0.0125042
0.0111045
0.00907558
0.00675719
0.00508596
0.00493463
0.00638443
0.0087781
0.0113675
0.0134638
0.0145278
0.0141399
0.0120086
0.00378407
0.00216792
0.0121435
0.0100531
0.00826876
0.00665529
0.00543411
0.00506225
0.00595639
0.00776885
0.00997279
0.0121053
0.0138867
0.0158004
0.0181498
0.0198788
0.0199975
0.0186866
0.015887
0.0130835
0.00977996
0.00734565
0.00717008
0.00957586
0.0124256
0.0155824
0.0184009
0.0206004
0.0222346
0.0208141
0.0133586
0.0024546
0.0114969
0.00801624
0.00936271
0.0124155
0.0152889
0.0177439
0.0202077
0.0226092
0.0239291
0.0236194
0.0218413
0.0198347
0.0170486
0.0150132
0.0127107
0.010821
0.0101257
0.0105859
0.0118897
0.0133709
0.0150961
0.0169075
0.0181702
0.0192272
0.0206732
0.0218946
0.0214795
0.019096
0.0060407
0.00991215
0.0126966
0.0119091
0.0108179
0.00913788
0.00739215
0.00666919
0.00783642
0.010724
0.0142276
0.0165045
0.0176207
0.0187134
0.0193209
0.0196174
0.0196607
0.0193398
0.0185081
0.0167512
0.0140195
0.0111812
0.00967664
0.0101154
0.0127001
0.0154528
0.0177676
0.0184867
0.0174588
0.0147952
0.01251
0.00600192
0.0119242
0.0103837
0.00875706
0.00764658
0.0075991
0.00877769
0.0105239
0.0122098
0.0130205
0.013454
0.0150334
0.0171339
0.0184377
0.0182482
0.0173922
0.0158588
0.0144235
0.0129121
0.0128102
0.0135802
0.0136072
0.0131653
0.0118541
0.0104801
0.010046
0.0116666
0.0142129
0.016379
0.00806513
0.0124141
0.0134092
0.0116084
0.0110743
0.0115576
0.013344
0.0168086
0.0205852
0.0229791
0.022131
0.0209693
0.0186839
0.0171686