/*--------------------------------*- C++ -*----------------------------------*\
| =========                 |                                                 |
| \\      /  F ield         | OpenFOAM: The Open Source CFD Toolbox           |
|  \\    /   O peration     | Version:  2.1.1                                 |
|   \\  /    A nd           | Web:      www.OpenFOAM.org                      |
|    \\/     M anipulation  |                                                 |
\*---------------------------------------------------------------------------*/
FoamFile
{
    version     2.0;
    format      ascii;
    class       volVectorField;
    location    "0.004850000";
    object      U;
}
// * * * * * * * * * * * * * * * * * * * * * * * * * * * * * * * * * * * * * //

dimensions      [0 1 -1 0 0 0 0];

internalField   nonuniform List<vector> 
12384
(
(0.347769 -6.36803 0)
(5.33472 -9.50216 0)
(14.6581 -9.91827 0)
(24.1478 -9.88836 0)
(36.2272 -9.47428 0)
(44.3766 -7.1172 0)
(52.1639 -5.33594 0)
(54.0172 -2.40203 0)
(48.7825 0.929035 0)
(40.6305 3.69073 0)
(28.5219 4.2398 0)
(15.1604 3.31101 0)
(4.68888 0.938252 0)
(0.919584 -3.34733 0)
(-3.3974 7.30742 0)
(-3.36691 7.08003 0)
(-5.43539 6.91264 0)
(-11.5314 7.4041 0)
(-13.8126 6.3728 0)
(-19.1945 3.14829 0)
(-13.9003 2.46468 0)
(-1.71783 -2.66603 0)
(15.5376 -4.96447 0)
(41.1831 -7.99315 0)
(68.2055 -9.99564 0)
(101.72 -10.9944 0)
(133.464 -11.6909 0)
(164.305 -11.8314 0)
(194.237 -10.6183 0)
(221.13 -9.72001 0)
(243.823 -7.23492 0)
(260.233 -5.62091 0)
(272.273 -0.599795 0)
(273.231 1.2557 0)
(265.978 5.90072 0)
(250.634 10.7992 0)
(223.172 17.6023 0)
(185.872 23.7076 0)
(140.468 27.1501 0)
(92.0776 26.463 0)
(50.0216 21.0774 0)
(20.4687 13.7927 0)
(5.41599 7.13508 0)
(-2.60915 1.00055 0)
(1.29842 0.200216 0)
(5.99978 -2.57163 0)
(10.5897 -1.29078 0)
(9.04698 0.400735 0)
(4.61267 4.99205 0)
(-11.9259 6.21026 0)
(-30.8138 9.29758 0)
(-53.9388 5.7926 0)
(-69.8603 7.30671 0)
(-77.1876 -4.02137 0)
(-81.5034 -6.70445 0)
(-68.1941 -14.3766 0)
(-49.815 -17.4514 0)
(-22.8356 -20.4836 0)
(6.84287 -20.4737 0)
(38.9181 -21.5412 0)
(72.0894 -19.9382 0)
(103.824 -17.9218 0)
(132.706 -13.3523 0)
(153.293 -11.3735 0)
(168.541 -3.92697 0)
(170.395 -1.09267 0)
(162.673 9.23412 0)
(146.154 12.8215 0)
(114.419 21.5431 0)
(76.0109 22.3278 0)
(36.1562 22.1904 0)
(5.55528 15.204 0)
(-10.3125 1.90801 0)
(-8.42036 -8.01314 0)
(-4.18449 9.5259 0)
(-13.757 11.4306 0)
(-26.5777 12.1219 0)
(-39.5722 11.6502 0)
(-54.8853 9.77696 0)
(-63.3427 7.48335 0)
(-71.3432 4.447 0)
(-71.3835 0.9726 0)
(-66.4507 -2.44356 0)
(-55.6003 -5.09565 0)
(-37.9219 -9.45242 0)
(-14.3032 -12.18 0)
(17.7716 -16.4605 0)
(56.2943 -19.9657 0)
(104.58 -26.0468 0)
(160.431 -26.6402 0)
(220.377 -30.7862 0)
(279.09 -24.9639 0)
(336.898 -24.8947 0)
(378.016 -17.6675 0)
(415.301 -9.89912 0)
(430.075 -2.29287 0)
(428.418 7.393 0)
(403.985 16.4509 0)
(352.2 29.0947 0)
(275.293 37.9344 0)
(185.701 37.4462 0)
(99.3345 27.5968 0)
(36.8907 10.0133 0)
(6.59685 -11.9534 0)
(-40.0354 26.1547 0)
(-104.314 23.2354 0)
(-160.416 15.2455 0)
(-191.768 4.66019 0)
(-198.002 -3.40029 0)
(-181.178 -11.047 0)
(-149.524 -17.9803 0)
(-97.8711 -19.2106 0)
(-44.641 -24.2041 0)
(18.8111 -22.021 0)
(87.0722 -25.012 0)
(141.235 -20.854 0)
(213.239 -16.1724 0)
(246.787 -16.9512 0)
(284.027 -5.33369 0)
(331.782 -9.27984 0)
(335.767 3.89448 0)
(359.019 2.29159 0)
(334.21 12.7867 0)
(326.946 13.8978 0)
(306.341 19.5332 0)
(264.31 22.6148 0)
(220.189 30.4619 0)
(167.401 34.6265 0)
(105.942 34.4492 0)
(50.8429 30.3518 0)
(8.32942 22.0037 0)
(-17.366 9.65348 0)
(-21.1958 -1.01466 0)
(-11.7217 -17.1584 0)
(-5.62218 4.60589 0)
(-22.882 7.73916 0)
(-46.0623 13.0308 0)
(-75.957 11.3276 0)
(-101.634 14.6095 0)
(-125.313 4.50398 0)
(-130.926 3.77458 0)
(-123.851 -6.9954 0)
(-113.508 -11.8445 0)
(-78.5678 -18.919 0)
(-37.9544 -22.864 0)
(9.73063 -26.6202 0)
(61.5211 -29.6357 0)
(119.001 -32.1007 0)
(175.475 -32.3171 0)
(239.896 -30.7335 0)
(301.183 -28.9159 0)
(360.72 -25.1758 0)
(395.393 -23.3854 0)
(429.867 -6.3379 0)
(455.683 -6.80371 0)
(422.64 11.524 0)
(407.579 16.2444 0)
(332.637 35.2095 0)
(250.591 41.0159 0)
(155.401 40.2776 0)
(73.6116 30.5077 0)
(16.8438 17.0339 0)
(-6.70439 0.479101 0)
(-7.66735 -13.2716 0)
(-7.89182 -14.0513 0)
(-15.6331 -3.87697 0)
(-28.7935 -5.66432 0)
(-44.543 1.77459 0)
(-48.2975 -6.57604 0)
(-50.0676 -3.99887 0)
(-42.5768 -9.47144 0)
(-24.5962 -9.91508 0)
(-3.07062 -15.1753 0)
(23.6044 -14.5782 0)
(54.594 -15.8069 0)
(87.5981 -17.6199 0)
(122.754 -18.4678 0)
(158.502 -19.1808 0)
(192.778 -19.3561 0)
(224.3 -18.8697 0)
(250.703 -15.6612 0)
(270.839 -15.3986 0)
(278.325 -10.6901 0)
(282.399 -9.88786 0)
(276.16 -10.3487 0)
(264.32 -6.84079 0)
(252.257 -8.51539 0)
(232.442 -2.27321 0)
(213.15 0.579276 0)
(178.897 9.74896 0)
(135.65 17.5531 0)
(81.2952 16.1301 0)
(32.4444 9.89027 0)
(7.47235 -8.12689 0)
(11.4629 -8.6147 0)
(28.8111 -1.50332 0)
(37.8039 -2.18357 0)
(48.4191 -1.03851 0)
(59.2356 -5.40228 0)
(71.4974 -6.63875 0)
(94.2123 -11.311 0)
(117.036 -15.8916 0)
(155.184 -22.8471 0)
(193.994 -23.5835 0)
(244.196 -30.4886 0)
(291.844 -27.8622 0)
(330.027 -27.0357 0)
(371.79 -25.8933 0)
(379.28 -19.8079 0)
(388.921 -20.974 0)
(364.838 -12.7174 0)
(350.411 -10.6698 0)
(316.736 -5.078 0)
(284.357 -0.987437 0)
(247.182 4.52746 0)
(209.584 7.29578 0)
(166.512 9.00506 0)
(126.115 11.9957 0)
(80.3567 7.79533 0)
(48.2487 8.94571 0)
(25.662 2.18968 0)
(8.13973 -0.269426 0)
(-0.246245 -3.32225 0)
(-2.91414 -11.0653 0)
(17.6073 -8.50263 0)
(42.9088 -2.87506 0)
(62.9248 -2.30737 0)
(83.9816 -7.7391 0)
(108.607 -11.6255 0)
(141.484 -16.2498 0)
(175.485 -17.0685 0)
(218.632 -21.1345 0)
(263.054 -21.4488 0)
(300.78 -20.7149 0)
(346.733 -21.1268 0)
(369.335 -14.7024 0)
(403.003 -14.5791 0)
(406.761 -16.0775 0)
(406.262 1.83129 0)
(396.942 -2.85104 0)
(355.137 11.6814 0)
(325.378 9.61766 0)
(262.809 20.9032 0)
(214.286 22.4196 0)
(157.013 22.5083 0)
(106.506 20.4482 0)
(63.2119 14.7764 0)
(29.987 9.28292 0)
(7.80346 3.86866 0)
(-5.42176 -1.42045 0)
(-12.2459 -4.24655 0)
(-12.2573 -5.3483 0)
(-7.79419 -7.48579 0)
(-4.1398 -8.59764 0)
(11.8289 -15.983 0)
(26.8195 -11.1599 0)
(37.8765 -8.67745 0)
(53.8825 -11.3685 0)
(70.6564 -15.3559 0)
(97.1948 -15.241 0)
(131.13 -20.9939 0)
(170.576 -18.058 0)
(213.08 -24.699 0)
(257.028 -16.3778 0)
(296.754 -21.6661 0)
(332.679 -10.8972 0)
(370.087 -14.2487 0)
(392.243 -8.76451 0)
(400.745 -5.99371 0)
(406.79 3.28859 0)
(400.829 2.6299 0)
(377.647 15.2533 0)
(353.081 14.7465 0)
(310.452 30.7042 0)
(257.961 30.7753 0)
(186.881 40.4774 0)
(117.162 35.5968 0)
(47.6473 32.4299 0)
(-7.75449 23.2861 0)
(-47.3121 16.9202 0)
(-66.034 4.71556 0)
(-67.1824 3.01477 0)
(-48.1126 -8.55609 0)
(-18.4833 -12.6949 0)
(9.72302 -9.91447 0)
(26.6649 -7.13352 0)
(44.7444 -10.0794 0)
(66.7517 -11.9846 0)
(97.6664 -16.7815 0)
(135.308 -20.5459 0)
(175.792 -24.3875 0)
(233.092 -23.5101 0)
(273.804 -26.0402 0)
(321.888 -21.6894 0)
(374.666 -21.928 0)
(404.58 -13.9272 0)
(449.812 -13.9174 0)
(455.952 -3.50924 0)
(477.457 -2.91068 0)
(466.203 9.80259 0)
(452.658 4.30531 0)
(413.89 21.1044 0)
(381.271 15.7723 0)
(315.587 30.1859 0)
(259.276 34.6041 0)
(188.074 38.5856 0)
(120.727 36.7304 0)
(60.2692 31.8249 0)
(11.3607 26.0035 0)
(-27.301 20.4065 0)
(-55.2884 13.3056 0)
(-67.6123 1.89284 0)
(-56.7053 -12.4362 0)
(-24.1122 -23.6182 0)
(-4.71216 0.804923 0)
(-8.10387 6.06068 0)
(-21.9914 3.37434 0)
(-35.7348 9.57941 0)
(-54.225 4.64712 0)
(-69.7583 8.63312 0)
(-85.2525 2.11488 0)
(-94.8572 3.09715 0)
(-98.0413 -4.47714 0)
(-99.8949 -5.46335 0)
(-85.4586 -10.1996 0)
(-69.9396 -12.3014 0)
(-45.8689 -14.7708 0)
(-17.3695 -16.4654 0)
(15.919 -17.7117 0)
(53.759 -19.1113 0)
(93.2732 -20.0388 0)
(132.555 -17.9448 0)
(167.206 -16.9107 0)
(197.019 -13.6063 0)
(222.505 -7.14184 0)
(222.868 -4.60242 0)
(222.823 4.82407 0)
(214.683 8.52646 0)
(182.212 18.5774 0)
(139.718 22.5355 0)
(91.5537 25.2545 0)
(48.1423 16.0105 0)
(14.4583 7.48786 0)
(1.87365 -8.76997 0)
(6.10032 -6.78612 0)
(20.9616 -7.44773 0)
(34.1291 -11.8124 0)
(43.4819 -4.02414 0)
(47.8133 -3.3722 0)
(42.85 6.33649 0)
(26.262 14.2771 0)
(-14.7085 22.5599 0)
(-66.9919 27.6422 0)
(-121.703 30.865 0)
(-184.365 25.4639 0)
(-226.017 20.3256 0)
(-253.347 4.9896 0)
(-261.217 1.42169 0)
(-246.103 -7.41822 0)
(-226.366 -16.5477 0)
(-190.922 -18.5235 0)
(-151.522 -23.7861 0)
(-107.743 -21.4746 0)
(-65.2851 -22.8803 0)
(-26.6665 -16.9764 0)
(3.6315 -15.2275 0)
(26.8439 -8.87241 0)
(38.8296 -4.99753 0)
(42.7759 -2.41234 0)
(43.5802 -1.88311 0)
(36.062 -0.658138 0)
(31.0675 -2.58083 0)
(21.6315 -1.17051 0)
(10.301 0.664557 0)
(2.22842 -19.2731 0)
(9.56143 -27.1825 0)
(16.9093 -29.0261 0)
(26.8917 -28.7009 0)
(37.3601 -27.8554 0)
(46.0482 -21.6512 0)
(53.1039 -15.6019 0)
(54.5301 -8.46384 0)
(54.5123 0.324326 0)
(48.8021 8.27447 0)
(39.6635 12.6569 0)
(27.6903 11.0135 0)
(14.9311 7.16044 0)
(4.91683 -0.152725 0)
(-3.32344 24.9782 0)
(-9.53094 23.1742 0)
(-16.2526 23.9646 0)
(-25.8571 22.7223 0)
(-30.4012 21.5446 0)
(-35.5694 8.54834 0)
(-29.5685 6.41269 0)
(-15.913 -10.0596 0)
(2.92563 -15.2863 0)
(30.1388 -25.3811 0)
(59.3367 -29.7877 0)
(92.0116 -33.4525 0)
(123.523 -34.2275 0)
(154.395 -34.5207 0)
(183.57 -30.38 0)
(209.612 -27.5239 0)
(230.954 -20.4132 0)
(249.082 -14.092 0)
(258.658 -4.81128 0)
(262.5 4.97319 0)
(259.545 16.1221 0)
(248.561 28.8742 0)
(231.913 44.0088 0)
(208.323 59.7725 0)
(178.06 72.5298 0)
(140.905 75.82 0)
(98.5463 66.9486 0)
(58.6125 48.7675 0)
(27.895 29.1482 0)
(5.67536 11.5086 0)
(1.82149 -0.93927 0)
(5.36038 -5.60276 0)
(5.35549 -0.482805 0)
(-2.36169 7.05945 0)
(-15.0777 18.0562 0)
(-37.3009 20.0486 0)
(-56.1665 27.4362 0)
(-74.3716 12.9627 0)
(-82.4965 7.5624 0)
(-81.2849 -15.6475 0)
(-70.114 -24.6902 0)
(-48.2691 -45.3138 0)
(-25.9499 -53.8355 0)
(5.02833 -59.9705 0)
(36.6558 -61.5675 0)
(69.1324 -61.3092 0)
(100.619 -58.1787 0)
(130.678 -50.2589 0)
(156.481 -40.5116 0)
(175.563 -28.6146 0)
(188.212 -13.0755 0)
(191.603 2.29252 0)
(185.571 21.7244 0)
(173.908 37.2966 0)
(152.627 53.8287 0)
(122.681 63.0834 0)
(87.2751 64.4846 0)
(50.8137 50.6423 0)
(19.9467 23.179 0)
(2.08546 -3.72815 0)
(-9.61563 34.0057 0)
(-26.2896 37.507 0)
(-43.6479 37.8836 0)
(-58.4285 35.0092 0)
(-72.8482 29.171 0)
(-79.9247 22.1452 0)
(-87.1899 12.3172 0)
(-86.8171 4.17353 0)
(-81.4773 -9.28932 0)
(-67.5023 -15.5425 0)
(-45.1757 -31.0757 0)
(-15.3403 -39.0619 0)
(23.2995 -52.1492 0)
(67.949 -63.9001 0)
(121.941 -75.9511 0)
(181.05 -81.6549 0)
(242.708 -85.8634 0)
(301.619 -75.2448 0)
(353.944 -68.3824 0)
(398.016 -47.8068 0)
(430.79 -28.8057 0)
(445.627 -7.20739 0)
(441.276 15.1974 0)
(420.684 41.4151 0)
(385.883 71.4616 0)
(332.805 96.1724 0)
(263.123 104.639 0)
(180.313 88.3316 0)
(96.4963 53.073 0)
(28.3598 1.98684 0)
(-46.2251 83.7054 0)
(-113.506 69.4614 0)
(-163.843 41.1877 0)
(-187.811 11.7456 0)
(-192.269 -11.3835 0)
(-176.977 -33.5647 0)
(-145.036 -48.7143 0)
(-100.054 -56.513 0)
(-47.6365 -68.8955 0)
(13.7661 -66.4128 0)
(83.7706 -69.5369 0)
(140.793 -61.947 0)
(202.358 -47.2249 0)
(244.668 -44.4817 0)
(284.099 -17.1233 0)
(324.86 -20.264 0)
(331.751 9.10452 0)
(348.595 7.78243 0)
(333.413 31.4289 0)
(322.531 39.1631 0)
(310.207 50.7193 0)
(279.213 60.0852 0)
(252.075 77.9559 0)
(212.917 88.2519 0)
(167.417 96.4117 0)
(115.92 92.0764 0)
(60.6044 72.4952 0)
(19.2028 43.4461 0)
(-3.48066 17.3588 0)
(-8.17057 -15.7672 0)
(-11.483 18.3174 0)
(-35.3761 27.2487 0)
(-62.5017 34.8903 0)
(-88.2942 36.1155 0)
(-112.203 33.9485 0)
(-129.84 15.8901 0)
(-133.046 8.23613 0)
(-129.043 -19.7973 0)
(-112.009 -34.8816 0)
(-82.8507 -53.0282 0)
(-46.5687 -64.7956 0)
(-3.91322 -75.2301 0)
(42.5666 -83.2652 0)
(93.503 -87.4896 0)
(148.173 -88.6105 0)
(205.123 -86.9067 0)
(261.47 -82.6727 0)
(316.89 -74.6672 0)
(361.475 -63.1034 0)
(404.308 -25.024 0)
(427.062 -20.2412 0)
(414.123 22.2642 0)
(409.225 50.3692 0)
(363.934 81.9543 0)
(303.208 107.891 0)
(233.38 113.644 0)
(154.971 95.4105 0)
(84.6808 61.5555 0)
(32.2107 21.8701 0)
(3.8364 -12.4912 0)
(-7.45606 -19.3089 0)
(-24.7136 -4.6084 0)
(-41.8719 -6.43809 0)
(-56.7964 2.40436 0)
(-65.2951 -7.97088 0)
(-59.7495 -13.2762 0)
(-49.5099 -27.8936 0)
(-33.0426 -28.1449 0)
(-7.27119 -38.0158 0)
(19.0808 -40.9242 0)
(46.9738 -42.3109 0)
(78.3694 -46.8424 0)
(111.602 -49.4348 0)
(144.291 -49.2624 0)
(175.309 -49.4654 0)
(203.803 -45.5608 0)
(225.568 -40.1889 0)
(240.868 -34.11 0)
(250.334 -27.011 0)
(247.913 -19.8668 0)
(245.677 -19.6618 0)
(231.495 -17.8981 0)
(214.192 -10.5141 0)
(203.074 -7.06828 0)
(186.186 6.29413 0)
(172.337 21.406 0)
(148.272 43.617 0)
(116.272 52.7184 0)
(70.9491 45.7212 0)
(22.2932 20.7168 0)
(4.21488 -12.3265 0)
(8.63591 -0.414205 0)
(12.0933 -1.69439 0)
(19.3133 -4.45015 0)
(30.0666 -15.8167 0)
(46.0801 -22.3821 0)
(71.3269 -36.3099 0)
(105.298 -52.9542 0)
(151.62 -72.6765 0)
(203.614 -78.0514 0)
(259.749 -93.8487 0)
(321.085 -85.3919 0)
(359.762 -84.2764 0)
(402.477 -75.04 0)
(411.147 -59.8037 0)
(419.056 -54.8792 0)
(403.381 -29.1833 0)
(381.913 -21.9533 0)
(346.129 -3.86174 0)
(312.273 6.40165 0)
(277.445 17.6512 0)
(241.328 23.2023 0)
(204.369 29.6111 0)
(164.764 32.2249 0)
(126.328 28.4013 0)
(89.9184 25.975 0)
(59.2725 14.5344 0)
(36.5205 9.04651 0)
(17.6609 0.429469 0)
(4.29775 -6.91615 0)
(4.4356 -26.2346 0)
(15.9058 -16.5225 0)
(33.3544 -16.9398 0)
(59.8493 -29.8388 0)
(96.8549 -39.3991 0)
(142.329 -54.0772 0)
(185.521 -58.3798 0)
(236.005 -64.4007 0)
(285.736 -65.8883 0)
(328.603 -62.1077 0)
(377.662 -58.0202 0)
(403.918 -49.4688 0)
(430.087 -37.7645 0)
(450.125 -30.8286 0)
(451.33 -5.82454 0)
(433.959 1.63817 0)
(405.454 29.9759 0)
(373.134 36.5711 0)
(335.393 54.2803 0)
(293.778 64.0717 0)
(251.775 67.7762 0)
(205.98 62.8264 0)
(159.046 51.3201 0)
(118.491 35.9563 0)
(84.4372 20.8017 0)
(59.6234 6.97821 0)
(41.2738 -4.26267 0)
(26.5909 -9.00265 0)
(15.999 -15.1129 0)
(5.37816 -21.4538 0)
(2.34403 -30.0675 0)
(10.2457 -27.3323 0)
(22.3775 -28.3084 0)
(41.9926 -37.8615 0)
(72.491 -47.2521 0)
(108.574 -52.7464 0)
(151.55 -62.2873 0)
(195.66 -62.8036 0)
(243.3 -66.0909 0)
(290.955 -57.6382 0)
(331.622 -56.561 0)
(372.396 -38.635 0)
(399.304 -36.9676 0)
(432.408 -23.2049 0)
(439.886 -13.3314 0)
(446.133 2.63214 0)
(438.193 14.4464 0)
(424.035 37.208 0)
(402.85 50.4512 0)
(376.082 75.5512 0)
(333.731 89.2894 0)
(285.429 107.102 0)
(224.203 108.212 0)
(152.357 99.2458 0)
(87.7613 81.0044 0)
(31.8839 56.9206 0)
(-4.80372 20.2456 0)
(-22.7183 0.946454 0)
(-23.9042 -30.5559 0)
(-11.851 -44.0918 0)
(6.18915 -21.5312 0)
(20.5153 -20.9013 0)
(41.9302 -29.4675 0)
(73.7042 -42.32 0)
(111.067 -55.4876 0)
(157.352 -67.2616 0)
(208.192 -72.7844 0)
(265.6 -74.168 0)
(310.522 -74.4611 0)
(360.189 -67.0874 0)
(415.441 -59.221 0)
(443.999 -44.999 0)
(488.962 -34.307 0)
(498.878 -9.94808 0)
(520.702 -4.2613 0)
(511.869 20.9522 0)
(494.049 19.4934 0)
(468.014 57.9587 0)
(429.807 51.519 0)
(386.862 79.9165 0)
(342.708 90.8018 0)
(292.891 104.63 0)
(236.766 106.791 0)
(172.702 100.595 0)
(109.268 86.5589 0)
(53.8403 69.3383 0)
(12.6504 46.2621 0)
(-13.4425 15.4119 0)
(-20.3832 -21.9937 0)
(-11.0208 -53.3498 0)
(-5.69232 7.33427 0)
(-18.4229 20.1597 0)
(-40.197 18.0619 0)
(-62.7662 30.5725 0)
(-89.1297 21.3996 0)
(-110.229 29.0306 0)
(-126.292 10.5165 0)
(-138.793 12.6827 0)
(-140.698 -9.24172 0)
(-136.78 -15.8936 0)
(-122.273 -29.6258 0)
(-103.791 -36.1454 0)
(-77.666 -43.2906 0)
(-47.0263 -46.9645 0)
(-12.3901 -51.1546 0)
(25.4441 -55.8355 0)
(64.0182 -57.2531 0)
(102.57 -51.942 0)
(135.675 -48.251 0)
(166.066 -37.1682 0)
(189.535 -24.8395 0)
(199.892 -11.813 0)
(205.909 8.00541 0)
(201.83 21.4791 0)
(182.618 40.7513 0)
(157.136 56.164 0)
(121.479 63.9468 0)
(76.1055 54.0758 0)
(32.5069 35.6211 0)
(7.03983 3.28915 0)
(4.90224 -15.3323 0)
(13.3378 -16.0375 0)
(19.6462 -12.7993 0)
(22.565 -3.05922 0)
(11.5142 5.57018 0)
(-16.9466 32.3081 0)
(-57.6907 53.0825 0)
(-112.746 74.8919 0)
(-174.292 83.3803 0)
(-224.452 82.9235 0)
(-269.74 64.6453 0)
(-295.965 49.2237 0)
(-306.114 14.2118 0)
(-306.122 -6.67893 0)
(-293.315 -26.3177 0)
(-268.904 -46.0593 0)
(-231.385 -56.8153 0)
(-188.733 -69.1329 0)
(-142.527 -66.9007 0)
(-96.408 -67.0129 0)
(-53.5318 -53.0238 0)
(-18.3162 -45.8981 0)
(8.33495 -28.6356 0)
(26.3397 -16.3621 0)
(36.8076 -10.1261 0)
(41.8574 -6.35875 0)
(39.2201 -2.07448 0)
(33.259 -2.83294 0)
(20.3622 -2.29667 0)
(9.34308 4.57095 0)
(2.36093 -33.4745 0)
(9.09359 -44.506 0)
(16.7151 -46.7757 0)
(25.5595 -46.3876 0)
(33.6055 -44.491 0)
(41.326 -34.4576 0)
(47.1314 -27.4061 0)
(50.2845 -13.5946 0)
(51.8166 -3.65332 0)
(47.6907 10.0266 0)
(41.7777 17.7873 0)
(31.5166 19.6355 0)
(18.4311 14.9997 0)
(5.65501 6.80342 0)
(-5.83393 42.9227 0)
(-14.9733 43.0764 0)
(-26.2984 43.3672 0)
(-37.7145 41.6804 0)
(-44.0684 36.4272 0)
(-49.3825 16.3677 0)
(-41.6666 7.39474 0)
(-26.6088 -18.117 0)
(-3.9445 -28.5209 0)
(25.2709 -44.45 0)
(54.2831 -50.3441 0)
(86.2541 -55.6918 0)
(116.092 -55.9951 0)
(146.386 -55.5472 0)
(174.541 -49.7204 0)
(199.634 -44.8872 0)
(221.759 -32.579 0)
(237.052 -22.2432 0)
(247.729 -8.00181 0)
(250.473 8.63651 0)
(244.64 25.0721 0)
(233.381 44.2525 0)
(218.084 64.0715 0)
(200.143 85.2908 0)
(178.247 105.097 0)
(150.671 116.676 0)
(116.42 113.467 0)
(78.2123 93.2919 0)
(41.8038 63.4503 0)
(12.0243 38.2711 0)
(1.54109 -3.29959 0)
(3.2358 -5.71994 0)
(-0.548654 4.3347 0)
(-12.4926 19.0345 0)
(-30.0875 33.8377 0)
(-53.4408 34.9084 0)
(-69.6376 42.1855 0)
(-80.1639 14.8119 0)
(-82.3421 2.86311 0)
(-70.2509 -33.8078 0)
(-52.818 -51.706 0)
(-25.4196 -80.889 0)
(-1.80981 -91.7638 0)
(28.1666 -100.193 0)
(57.165 -102.966 0)
(86.8981 -101.869 0)
(115.244 -95.9035 0)
(139.581 -83.3528 0)
(160.88 -66.4816 0)
(176.17 -46.0041 0)
(185.276 -20.3299 0)
(184.983 2.17429 0)
(180.388 29.5069 0)
(171.212 53.7327 0)
(155.795 78.2902 0)
(135.157 97.286 0)
(105.571 102.71 0)
(72.2125 90.4231 0)
(38.7896 58.5934 0)
(11.4521 18.0513 0)
(-11.692 66.6736 0)
(-31.0043 68.6012 0)
(-49.518 65.8425 0)
(-64.2906 58.956 0)
(-77.8488 48.4342 0)
(-84.9264 36.1699 0)
(-89.893 19.0421 0)
(-86.2645 8.10592 0)
(-76.7354 -18.6274 0)
(-57.6273 -30.8872 0)
(-29.4961 -57.6109 0)
(6.29635 -73.4384 0)
(48.1488 -93.9626 0)
(96.2259 -112.922 0)
(150.595 -128.705 0)
(205.073 -137.798 0)
(264.236 -140.634 0)
(315.259 -123.538 0)
(363.161 -108.893 0)
(398.751 -75.6379 0)
(421.801 -47.0278 0)
(433.631 -10.7612 0)
(429.699 25.6523 0)
(409.512 62.2784 0)
(375.728 100.468 0)
(329.307 134.518 0)
(272.384 157.177 0)
(201.218 150.114 0)
(117.594 109.31 0)
(38.1553 44.0467 0)
(-39.188 144.223 0)
(-100.742 109.218 0)
(-146.975 62.6258 0)
(-170.72 16.7482 0)
(-179.432 -23.7655 0)
(-165.298 -53.2279 0)
(-135.535 -76.6346 0)
(-98.5947 -94.7645 0)
(-47.4456 -108.425 0)
(10.5659 -113.645 0)
(75.4087 -108.894 0)
(131.412 -106.742 0)
(190.763 -76.3542 0)
(229.581 -70.9481 0)
(266.987 -36.0177 0)
(306.342 -23.9104 0)
(310.548 7.35327 0)
(327.351 16.5782 0)
(315.302 41.5532 0)
(302.208 59.247 0)
(291.142 75.7955 0)
(265.006 93.1706 0)
(244.213 110.097 0)
(216.433 130.523 0)
(187.572 146.594 0)
(146.847 147.19 0)
(104.662 131.319 0)
(62.6278 91.2776 0)
(26.1373 46.1055 0)
(4.59947 -5.06881 0)
(-12.3081 38.2082 0)
(-39.1033 51.5058 0)
(-65.5218 56.8565 0)
(-91.7592 57.7137 0)
(-115.393 46.896 0)
(-128.362 28.8303 0)
(-135.156 1.52265 0)
(-132.075 -30.5318 0)
(-116.998 -60.5844 0)
(-94.5552 -87.159 0)
(-65.3085 -105.949 0)
(-30.289 -121.959 0)
(7.95588 -133.524 0)
(50.0852 -140.209 0)
(96.0938 -142.538 0)
(144.463 -140.577 0)
(193.56 -134.95 0)
(246.753 -122.539 0)
(292.69 -100.715 0)
(333.644 -68.4863 0)
(356.839 -32.1624 0)
(363.82 19.1507 0)
(360.866 65.5926 0)
(328.151 111.002 0)
(292.181 150.595 0)
(238.194 170.985 0)
(176.928 159.066 0)
(112.428 116.33 0)
(58.4021 61.7975 0)
(17.6622 6.66381 0)
(-11.7709 -11.676 0)
(-35.0782 1.14515 0)
(-59.7417 3.29582 0)
(-71.5722 5.49021 0)
(-75.1084 -14.7736 0)
(-73.9807 -20.8593 0)
(-57.748 -48.1212 0)
(-37.3023 -54.8641 0)
(-13.1187 -64.9604 0)
(14.2763 -72.5171 0)
(42.8188 -75.3355 0)
(71.8818 -79.5781 0)
(103.375 -82.8247 0)
(135.12 -82.1422 0)
(165.385 -81.2701 0)
(190.745 -74.0176 0)
(212.373 -64.1098 0)
(226.886 -53.9135 0)
(231.334 -40.9252 0)
(228.06 -31.8954 0)
(209.088 -17.9183 0)
(196.922 -17.8696 0)
(177.493 -8.54622 0)
(158.325 -3.02513 0)
(147.799 3.40409 0)
(135.206 22.8736 0)
(124.922 49.2649 0)
(99.903 76.791 0)
(65.0021 83.5549 0)
(24.5612 65.5956 0)
(-2.69423 -3.50151 0)
(-5.23239 7.5728 0)
(-4.82826 4.30335 0)
(-2.10736 -8.96701 0)
(11.1219 -22.2295 0)
(31.0316 -43.8924 0)
(60.0052 -64.817 0)
(106.504 -97.9289 0)
(164.817 -132.179 0)
(221.98 -141.736 0)
(283.471 -160.534 0)
(345.607 -149.229 0)
(376.736 -142.311 0)
(422.193 -123.004 0)
(415.369 -98.9852 0)
(428.052 -76.6167 0)
(411.94 -45.7334 0)
(385.245 -22.4794 0)
(353.407 -0.113673 0)
(314.464 19.2142 0)
(278.669 33.8185 0)
(243.242 43.7953 0)
(205.752 50.965 0)
(169.165 53.0919 0)
(134.804 51.2577 0)
(102.825 41.0597 0)
(78.1721 33.2236 0)
(54.666 21.3881 0)
(32.4696 12.1318 0)
(11.2868 1.29849 0)
(4.198 -31.2959 0)
(17.7516 -26.7242 0)
(36.7842 -37.1701 0)
(66.9753 -57.6303 0)
(104.257 -76.0223 0)
(151.222 -93.7468 0)
(201.731 -107.703 0)
(248.646 -103.131 0)
(291.481 -112.473 0)
(331.991 -97.8591 0)
(368.649 -94.1275 0)
(396.654 -81.5977 0)
(425.889 -59.1431 0)
(436.47 -40.8434 0)
(444.612 -16.2407 0)
(438.011 3.01588 0)
(410.65 36.3758 0)
(385.371 58.4237 0)
(349.472 82.4054 0)
(318.384 95.6888 0)
(278.897 104.414 0)
(239.813 102.128 0)
(200.482 90.4352 0)
(159.22 69.4307 0)
(123.316 47.7891 0)
(90.5211 26.0245 0)
(62.9207 8.62186 0)
(40.4783 -3.64216 0)
(20.2616 -11.7022 0)
(5.64375 -19.6789 0)
(0.570007 -38.5475 0)
(4.39662 -39.3758 0)
(16.5063 -49.0779 0)
(40.1341 -66.3245 0)
(73.3474 -84.4284 0)
(114.739 -97.1479 0)
(159.953 -107.54 0)
(205.5 -106.705 0)
(249.377 -107.293 0)
(286.843 -92.1021 0)
(325.88 -87.6151 0)
(354.33 -69.1606 0)
(379.934 -58.0031 0)
(413.16 -40.2224 0)
(419.026 -17.9578 0)
(431.129 3.11783 0)
(427.777 30.1095 0)
(419.687 54.0686 0)
(405.019 81.9772 0)
(381.706 107.844 0)
(352.838 131.609 0)
(313.198 154.748 0)
(268.84 166.625 0)
(212.129 164.611 0)
(154.781 144.784 0)
(94.7995 108.279 0)
(42.6607 58.2856 0)
(5.94222 12.379 0)
(-7.36403 -35.1107 0)
(-9.3979 -63.3268 0)
(4.09845 -27.5956 0)
(16.7947 -35.9068 0)
(39.0724 -54.4844 0)
(74.4598 -76.4071 0)
(119.178 -100.016 0)
(168.561 -114.116 0)
(217.704 -121.662 0)
(269.73 -124.192 0)
(312.445 -121.413 0)
(357.648 -108.716 0)
(412.577 -93.9924 0)
(435.874 -76.2757 0)
(489.926 -51.66 0)
(489.219 -23.8703 0)
(507.234 -2.64799 0)
(502.022 22.8634 0)
(489.271 44.5736 0)
(468.488 73.5264 0)
(428.974 89.3229 0)
(398.52 115.394 0)
(360.703 132.201 0)
(324.926 154.415 0)
(283.105 165.9 0)
(236.765 167.282 0)
(182.09 154.515 0)
(127.334 129.212 0)
(76.513 91.148 0)
(35.3031 45.5925 0)
(8.42136 -8.29348 0)
(-2.21456 -59.567 0)
(-10.712 20.9507 0)
(-32.4434 36.3888 0)
(-63.4206 40.9259 0)
(-91.0305 54.1893 0)
(-119.735 44.4222 0)
(-148.566 50.1965 0)
(-167.993 26.8231 0)
(-181.378 17.8719 0)
(-186.862 -11.8391 0)
(-181.525 -26.9901 0)
(-163.653 -51.4484 0)
(-141.322 -63.0359 0)
(-111.439 -73.8222 0)
(-77.7725 -80.9744 0)
(-42.402 -86.717 0)
(-4.98357 -93.2245 0)
(33.3228 -94.6565 0)
(71.5329 -86.823 0)
(105.601 -80.5479 0)
(136.013 -61.1025 0)
(160.861 -47.0049 0)
(171.194 -16.9844 0)
(176.575 5.89155 0)
(173.175 27.9472 0)
(158.67 52.3921 0)
(142.658 79.074 0)
(119.616 92.2429 0)
(88.7388 89.9566 0)
(53.2492 70.1053 0)
(19.948 27.5096 0)
(1.3859 -19.3845 0)
(4.82712 -18.3575 0)
(4.43694 -9.69719 0)
(-7.36303 10.1513 0)
(-34.0638 35.4798 0)
(-76.4457 73.1132 0)
(-123.043 104.784 0)
(-179.595 129.712 0)
(-230.764 133.54 0)
(-268.566 124.67 0)
(-299.697 91.6633 0)
(-321.327 61.4533 0)
(-329.954 22.4311 0)
(-325.39 -14.5348 0)
(-307.598 -48.8745 0)
(-283.741 -78.5229 0)
(-249.201 -96.3465 0)
(-207.733 -114.982 0)
(-161.867 -116.004 0)
(-115.722 -113.265 0)
(-72.7739 -94.9306 0)
(-34.7296 -76.6584 0)
(-5.78647 -53.9641 0)
(11.8512 -29.483 0)
(22.9618 -23.0598 0)
(29.2744 -12.484 0)
(26.435 -5.79994 0)
(23.1958 -4.13682 0)
(15.6501 -2.56172 0)
(8.28795 4.922 0)
(2.95931 -49.3507 0)
(6.39556 -60.7446 0)
(11.8742 -60.4423 0)
(18.6976 -62.9622 0)
(25.4023 -57.3728 0)
(32.1808 -48.2792 0)
(37.3209 -36.3198 0)
(40.2873 -20.5928 0)
(41.2732 -6.72027 0)
(39.0563 9.17843 0)
(34.3677 20.7637 0)
(27.3403 26.2735 0)
(17.5799 23.028 0)
(6.77683 14.3903 0)
(-6.85258 65.6199 0)
(-21.6017 65.1143 0)
(-37.1559 65.082 0)
(-47.1977 61.5856 0)
(-52.1935 48.367 0)
(-52.618 26.4295 0)
(-42.5743 4.19648 0)
(-26.2942 -28.0371 0)
(-1.85519 -43.9529 0)
(26.3105 -62.5545 0)
(52.9195 -69.6998 0)
(81.1647 -74.5464 0)
(108.825 -76.2704 0)
(136.765 -74.5187 0)
(163.376 -69.1414 0)
(188.51 -59.7581 0)
(209.224 -46.1697 0)
(223.891 -29.1759 0)
(232.356 -8.17103 0)
(233.103 13.6339 0)
(228.999 35.7843 0)
(216.896 58.9427 0)
(200.127 83.6399 0)
(182.21 108.533 0)
(163.55 132.614 0)
(142.981 150.177 0)
(117.384 153.291 0)
(84.1411 136.354 0)
(48.709 104.167 0)
(15.6674 71.6184 0)
(0.101548 -3.31817 0)
(-2.68089 -5.44043 0)
(-10.8863 11.5888 0)
(-24.5628 31.0535 0)
(-44.4081 47.2919 0)
(-60.3409 50.9371 0)
(-71.8455 41.3873 0)
(-74.2538 13.8768 0)
(-66.4554 -16.2914 0)
(-54.5148 -55.104 0)
(-32.1715 -86.3185 0)
(-9.58663 -112.374 0)
(14.2106 -128.146 0)
(40.4462 -136.789 0)
(66.5356 -142.515 0)
(91.3475 -139.55 0)
(113.972 -130.777 0)
(134.419 -112.503 0)
(149.734 -89.3839 0)
(160.753 -59.8285 0)
(165.347 -28.3613 0)
(165.133 3.93363 0)
(161.474 34.6515 0)
(150.579 67.5454 0)
(138.105 97.9089 0)
(118.542 123.17 0)
(96.4142 135.315 0)
(69.4612 127.184 0)
(39.8496 95.8219 0)
(12.416 47.8518 0)
(-11.5032 103.604 0)
(-31.0342 101.634 0)
(-48.7921 94.5545 0)
(-62.6208 83.5955 0)
(-75.2743 67.2406 0)
(-81.3003 50.6115 0)
(-81.9846 25.1031 0)
(-74.9433 5.73562 0)
(-59.083 -30.0855 0)
(-34.0848 -52.8266 0)
(-2.10797 -88.5021 0)
(36.2906 -111.673 0)
(79.1296 -137.189 0)
(125.439 -157.892 0)
(174.391 -179.438 0)
(222.456 -187.081 0)
(275.147 -187.977 0)
(316.671 -164.27 0)
(350.133 -141.012 0)
(385.38 -102.267 0)
(396.449 -55.7776 0)
(408.023 -5.60313 0)
(399.504 37.8532 0)
(376.709 83.6067 0)
(343.105 123.595 0)
(301.965 168.014 0)
(253.288 198.796 0)
(187.429 199.731 0)
(116.948 165.471 0)
(39.6139 91.4985 0)
(-34.0288 195.202 0)
(-86.5819 144.144 0)
(-126.764 82.1214 0)
(-151.336 21.3151 0)
(-158.73 -31.6743 0)
(-149.551 -69.0121 0)
(-130.303 -103.857 0)
(-97.531 -127.078 0)
(-51.2823 -146.701 0)
(1.36476 -154.525 0)
(55.7981 -151.741 0)
(110.113 -135.599 0)
(164.351 -110.651 0)
(197.965 -89.6863 0)
(233.61 -54.5205 0)
(268.685 -26.9815 0)
(276.888 2.38604 0)
(292.118 26.4882 0)
(285.104 52.1103 0)
(272.395 80.6098 0)
(261.218 97.1726 0)
(236.772 122.256 0)
(221.882 139.256 0)
(203.068 161.581 0)
(178.03 181.51 0)
(155.36 192.821 0)
(120.876 180.451 0)
(77.837 135.742 0)
(42.6761 86.093 0)
(14.6327 26.2329 0)
(-14.4939 56.9199 0)
(-39.6085 71.4508 0)
(-65.6864 75.9672 0)
(-86.8005 74.1732 0)
(-105.088 57.3677 0)
(-121.696 33.9248 0)
(-128.498 -4.27879 0)
(-127.941 -41.6686 0)
(-119.336 -85.3434 0)
(-102.365 -118.592 0)
(-80.1522 -143.877 0)
(-53.4919 -162.524 0)
(-23.6483 -176.349 0)
(9.10768 -183.749 0)
(45.4821 -187.924 0)
(84.1461 -187.494 0)
(126.345 -182.018 0)
(174.82 -167.701 0)
(211.393 -145.423 0)
(250.228 -108.196 0)
(280.81 -47.744 0)
(286.716 10.2228 0)
(291.109 70.7037 0)
(266.427 134.325 0)
(239.088 179.757 0)
(205.209 210.749 0)
(159.261 205.395 0)
(112.928 166.474 0)
(63.0973 103.963 0)
(19.2747 38.4242 0)
(-14.7684 5.09437 0)
(-39.1138 18.0613 0)
(-57.9871 16.5372 0)
(-74.8236 10.6743 0)
(-76.7261 -14.2341 0)
(-71.8427 -36.2621 0)
(-61.1044 -59.169 0)
(-40.9414 -81.9472 0)
(-19.7327 -90.1106 0)
(3.82454 -98.841 0)
(30.999 -104.475 0)
(60.8925 -113.68 0)
(90.7762 -119.077 0)
(123.812 -118.853 0)
(158.553 -117.725 0)
(192.505 -105.411 0)
(218.423 -88.7712 0)
(233.305 -68.3838 0)
(233.727 -50.1736 0)
(218.538 -28.7011 0)
(204.294 -10.4585 0)
(175.33 0.550256 0)
(154.008 2.50892 0)
(132.6 1.63779 0)
(111.521 10.8802 0)
(99.7637 22.0036 0)
(86.6721 58.4203 0)
(81.2856 92.4538 0)
(60.7682 112.339 0)
(24.5804 96.2521 0)
(-8.60119 16.3919 0)
(-17.6799 23.604 0)
(-21.0642 11.248 0)
(-18.488 -10.245 0)
(-4.73885 -31.8274 0)
(20.6129 -69.5637 0)
(57.8715 -103.518 0)
(110.268 -151.126 0)
(175.105 -194.059 0)
(228.255 -210.165 0)
(280.107 -217.899 0)
(328.285 -207.652 0)
(351.05 -184.914 0)
(384.664 -160.987 0)
(381.696 -124.63 0)
(390.063 -89.4641 0)
(376.977 -51.0959 0)
(353.639 -16.3129 0)
(322.83 14.2026 0)
(292.982 38.1496 0)
(258.13 56.4108 0)
(222.444 67.8407 0)
(188.086 76.0182 0)
(155.017 77.5632 0)
(122.316 71.4523 0)
(94.8181 59.8324 0)
(67.563 47.7383 0)
(44.2294 36.5635 0)
(23.8323 27.3378 0)
(7.2467 15.1909 0)
(-1.93251 -25.5533 0)
(3.83694 -28.8292 0)
(26.186 -54.2536 0)
(63.3879 -89.0916 0)
(107.272 -115.241 0)
(147.475 -131.001 0)
(188.942 -143.718 0)
(224.461 -138.807 0)
(254.207 -141.677 0)
(290.031 -125.955 0)
(308.258 -120.602 0)
(341.611 -105.447 0)
(360.378 -83.3664 0)
(378.959 -57.021 0)
(384.497 -28.9872 0)
(380.143 2.81976 0)
(371.746 39.1622 0)
(346.24 75.0807 0)
(325.353 106.085 0)
(295.559 126.491 0)
(268.507 134.663 0)
(234.522 136.577 0)
(198.116 121.827 0)
(166.001 103.168 0)
(135.799 75.7136 0)
(108.789 50.1138 0)
(84.393 25.9695 0)
(61.1466 10.0115 0)
(38.9937 -0.628254 0)
(13.0377 -9.98181 0)
(-4.10883 -39.7035 0)
(-1.90838 -46.3055 0)
(13.5186 -69.2495 0)
(40.0318 -98.2149 0)
(75.028 -122.347 0)
(112.449 -136.881 0)
(148.173 -145.712 0)
(176.731 -139.157 0)
(209.098 -137.316 0)
(239.119 -120.93 0)
(266.769 -111.918 0)
(298.88 -93.2549 0)
(320.278 -77.0077 0)
(353.368 -50.4441 0)
(360.585 -28.1178 0)
(374.22 2.31948 0)
(376.306 39.6038 0)
(374.093 73.3328 0)
(367.184 104.654 0)
(353.447 133.411 0)
(325.012 168.487 0)
(299.946 187.574 0)
(267.698 206.881 0)
(224.923 211.937 0)
(178.655 196.305 0)
(132.856 163.224 0)
(83.6236 108.213 0)
(43.0373 47.6315 0)
(15.1556 -14.3301 0)
(0.797043 -57.4129 0)
(1.99657 -29.9959 0)
(15.4074 -50.6204 0)
(40.533 -82.3768 0)
(73.8022 -112.705 0)
(112.388 -139.649 0)
(158.748 -156.606 0)