/*--------------------------------*- C++ -*----------------------------------*\
| =========                 |                                                 |
| \\      /  F ield         | OpenFOAM: The Open Source CFD Toolbox           |
|  \\    /   O peration     | Version:  2.1.1                                 |
|   \\  /    A nd           | Web:      www.OpenFOAM.org                      |
|    \\/     M anipulation  |                                                 |
\*---------------------------------------------------------------------------*/
FoamFile
{
    version     2.0;
    format      ascii;
    class       volScalarField;
    location    "0.004850000";
    object      Xi;
}
// * * * * * * * * * * * * * * * * * * * * * * * * * * * * * * * * * * * * * //

dimensions      [0 0 0 0 0 0 0];

internalField   nonuniform List<scalar> 
12384
(
4.61818
9.48719
11.5258
13.366
14.4571
14.7646
13.9519
12.4582
10.7005
8.92339
7.25668
5.67863
4.37758
5.35388
23.9889
33.1717
42.3225
50.4728
56.1338
60.7546
62.5193
64.9154
65.9429
68.4686
70.1196
72.2335
74.945
77.1245
79.5244
81.3728
82.8772
82.7044
82.4504
81.4991
79.247
76.9726
73.8747
68.6597
60.5593
48.0613
32.2681
25.6692
20.7111
16.4511
52.9459
67.7315
73.9276
76.277
74.8489
74.4751
71.9493
74.6936
73.2859
73.8309
70.3161
68.5892
67.7873
68.4569
71.4453
75.3
80.0907
85.5377
90.4933
93.9566
95.0174
92.7674
87.3328
82.548
74.1483
64.0502
50.1191
32.3721
24.0975
19.8525
47.3381
51.9551
60.2934
72.6921
87.1384
100.503
115.867
122.674
128.257
133.173
137.098
140.835
144.248
148.959
154.197
160.118
166.058
171.98
176.647
179.55
178.08
174.196
169.737
164.176
156.27
142.761
118.175
70.1705
40.5275
31.678
39.2962
47.1224
52.5307
56.7642
60.3956
64.9842
69.5108
74.9692
82.9232
88.8737
103.887
107.913
124.923
139.105
141.771
165.915
159.606
170.063
161.358
155.414
149.534
141.475
130.974
119.086
109.784
93.157
59.411
32.4476
27.6538
27.8273
34.9641
33.9277
37.9978
40.2319
39.4975
39.6306
39.208
41.0034
41.3669
41.8031
41.9315
43.4772
46.0296
49.5781
53.4246
58.2813
63.5911
68.6147
72.2473
72.853
77.495
71.0699
73.6505
68.4148
64.1167
59.0722
56.9083
56.872
49.4034
39.1727
32.0667
35.1964
38.0561
47.6432
52.978
60.26
68.2701
81.7322
91.6792
97.8195
100.48
102.992
104.758
106.834
108.571
110.325
111.543
112.413
112.35
112.553
112.465
112.623
112.129
107.695
99.1131
94.0444
83.7131
70.4938
51.2996
37.6312
26.4626
31.312
36.876
46.2613
56.5881
61.9086
67.5261
68.5597
70.092
72.9147
71.7324
77.1743
74.9365
81.3043
79.1112
81.5977
77.8163
75.1334
71.2397
67.9595
65.3453
63.3571
61.9232
60.4893
59.8662
57.586
55.2866
48.7214
41.1687
32.5493
27.4232
33.1015
55.9373
59.0552
62.7661
66.9069
71.6196
76.001
84.0246
86.1086
97.6319
98.2163
105.972
106.448
97.693
98.7465
89.9839
86.3365
81.8398
76.2881
72.5539
67.8383
63.6356
58.798
53.4778
47.164
40.2527
32.0526
23.5884
16.4784
30.8324
37.1962
46.2759
52.9014
58.2771
64.4773
70.0672
76.3995
84.4999
94.4383
104.263
112.92
125.026
128.534
134.687
129.33
132.403
123.867
124.187
115.099
111.054
101.136
94.9152
88.5331
82.35
69.6998
56.5755
49.7974
46.032
46.3264
44.7617
49.9547
53.5922
58.5025
61.7192
65.8069
68.0299
76.9138
86.3264
92.4071
112.621
114.643
135.045
133.297
145.331
146.632
150.853
141.478
142.323
130.579
124.984
116.917
111.312
104.279
94.6854
84.175
75.2317
67.3825
60.7671
61.4485
40.0884
50.0847
55.8916
59.8395
72.0662
79.5391
87.6279
89.0338
92.7779
90.313
87.4014
84.1133
82.3987
82.6927
85.4658
90.2964
97.3901
105.12
113.628
119.912
122.247
120.186
117.623
113.087
105.531
92.4674
71.092
46.2989
31.6153
11.0365
13.2763
16.9683
19.727
21.0656
27.038
29.2101
24.3346
29.0333
36.1062
43.8935
48.7291
53.1164
56.9747
59.7366
63.9114
65.3076
62.4827
58.6163
51.6091
43.0193
30.7335
16.3954
7.05194
5.00088
4.47429
4.45152
4.83331
4.78942
4.51748
3.85731
10.4497
14.5658
17.4498
19.9909
22.1775
23.7575
24.8893
25.1726
23.6058
19.3195
14.6303
10.9295
8.49034
11.0887
26.2806
24.1914
29.9693
33.0347
33.4758
34.0226
34.1708
35.4875
36.9703
40.7816
45.3139
51.4348
57.5553
63.5557
68.5522
72.7505
75.7841
78.8533
80.6967
82.4395
83.9422
85.1508
86.2755
85.9861
82.111
72.3866
54.3408
36.169
23.2568
24.2669
51.6653
36.7256
37.9926
39.4811
40.9645
45.8441
48.0977
50.1039
46.5088
44.5285
41.8199
41.9159
43.3297
47.6401
53.4221
60.402
68.371
77.0543
86.1066
94.1667
99.5897
105.022
104.998
103.346
97.9277
88.5835
78.0311
61.3595
40.9276
30.4935
48.5776
42.6009
54.4333
71.157
88.3756
94.0523
96.3528
96.8652
94.711
91.6603
88.0917
85.6805
86.2796
92.1228
102.235
116.109
134.979
152.777
169.812
183.832
193.584
198.993
199.291
195.788
188.219
176.046
156.017
121.815
76.2875
55.9311
38.0263
36.8995
40.5907
44.5346
48.7992
51.4584
54.5171
57.0125
60.3727
63.9619
72.2939
80.2751
88.0237
105.334
113.372
132.155
135.932
142.168
141.319
136.251
133.213
127.107
122.991
120.763
116.351
110.167
94.9808
65.1609
36.2773
35.6938
43.4655
32.6244
37.63
39.7307
40.6795
41.5479
41.2445
40.012
37.6466
36.2973
35.8441
37.5767
40.5954
44.9447
50.1608
56.1737
62.7721
69.7456
77.0597
83.3145
89.1892
91.2821
94.1855
91.2906
85.5706
76.9137
65.7138
55.1341
42.4902
51.6727
39.2118
31.2231
38.6151
47.9553
57.3162
69.4124
72.919
73.9526
74.4495
76.2978
80.1199
87.4553
97.0978
109.05
121.792
134.15
145.189
153.218
158.171
160.036
160.63
158.26
155.88
152.05
147.666
142.434
128.231
102.902
71.654
61.9132
43.1861
33.8538
36.0928
39.301
40.148
40.5625
41.8524
43.8911
46.2019
52.3871
59.5401
71.637
81.1413
93.3283
101.829
105.911
105.801
103.549
100.626
96.4412
92.6628
87.9705
82.532
76.4536
69.0599
61.8658
53.7286
45.7779
36.5714
43.8467
51.3508
35.3373
36.1401
39.3527
44.1301
50.6186
60.0008
70.0266
85.3948
96.4855
115.188
122.587
133.849
140.217
143.399
136.423
131.396
121.582
112.17
103.363
93.4676
83.6981
73.4686
63.7512
54.5814
46.5056
39.7943
34.6046
30.2206
37.6877
46.5872
26.5279
28.4905
34.1191
40.6734
50.3429
63.1719
78.3894
93.0769
109.081
123.218
138.151
148.501
162.101
164.727
167.938
162.677
160.529
150.648
144.29
134.065
123.221
112.856
100.381
86.0865
68.2987
49.6315
37.0297
32.4683
55.7108
60.8575
29.7186
30.5645
34.5651
40.8447
51.4099
66.912
83.8958
101.328
115.647
141.442
153.534
181.667
194.219
203.567
207.251
207.685
204.173
188.402
172.717
158.176
141.816
124.908
108.017
90.9246
75.8335
62.7277
48.9131
39.7495
68.0027
68.2181
39.9125
37.3698
44.6831
59.8123
70.9658
78.8154
81.8331
81.7385
71.9612
65.2281
59.4527
55.6199
54.0485
55.5519
59.948
66.3097
74.2082
83.3797
92.6066
103.689
110.297
119.305
119.775
116.137
106.34
92.1739
73.1423
72.4086
61.4027
25.0898
23.8439
33.088
37.5204
33.6082
37.4204
42.9964
53.4831
63.2622
72.9497
77.0912
80.8255
81.891
81.1355
78.2387
74.369
68.4287
62.4448
56.0208
49.5589
41.1517
27.0255
8.75527
4.13288
3.10163
2.68034
2.50135
2.8947
2.79751
4.62251
16.2172
19.0421
20.87
21.2462
21.0102
21.0083
22.1368
23.9181
25.3483
24.1307
19.1985
13.5665
10.2332
12.6191
33.1137
29.5178
32.8164
32.704
33.5291
34.6869
34.543
34.8671
36.5428
40.8889
45.2752
49.8578
53.2781
55.3752
56.7022
57.6185
58.7823
59.6835
60.4055
61.2146
61.9408
63.8199
67.3034
72.349
76.6497
75.6496
64.7965
46.9067
30.1968
28.8914
55.2694
36.6226
38.5169
41.3964
44.9084
50.1702
50.9417
49.481
46.1477
45.7492
45.9551
50.0832
54.5675
60.091
66.1838
72.7673
79.1628
84.6515
88.9623
93.7349
97.5903
103.062
105.119
106.923
104.242
98.7214
88.7569
74.3846
52.4876
38.9731
51.6633
46.9129
61.8746
80.5403
91.2
95.895
97.7034
97.1049
94.65
91.2537
84.0819
80.6342
81.7322
88.9943
103.12
119.436
141.301
159.414
173.546
183.771
191.879
195.718
194.414
189.918
183.309
175.393
163.99
144.733
101.39
80.9015
39.3523
35.6729
37.8619
43.0831
48.691
53.8272
59.4
62.1157
65.2931
69.2407
73.4992
80.4794
85.7467
100.609
102.491
120.685
120.32
128.522
126.842
121.941
117.856
111.623
110.655
109.87
112.098
116.421
109.661
90.4174
61.7959
46.4631
48.5363
36.8396
39.2121
40.5277
42.0168
43.3114
43.5756
43.0338
42.8937
44.1434
45.44
47.0869
48.7631
50.6061
52.3694
54.6387
57.1281
60.6151
65.6947
68.5104
74.0746
79.2046
82.7049
81.9975
82.5592
79.203
71.8672
61.8126
49.4546
58.7009
43.4307
36.9026
47.1607
57.1541
69.6126
74.008
64.9808
59.4018
60.8742
65.3657
74.1711
85.885
99.6511
116.044
125.358
132.966
139.239
143.189
144.691
142.961
138.911
134.41
130.925
124.408
122.892
125.686
123.445
117.085
87.5644
74.206
53.3106
36.7017
39.1909
40.1922
41.1745
43.2485
44.8668
47.6429
51.9642
59.1867
68.692
79.5355
87.5837
98.9149
103.32
107.673
107.947
103.468
99.1367
94.1968
89.712
85.475
81.5284
76.071
70.6592
61.924
55.3213
47.784
40.1812
48.9164
60.8949
37.3614
40.3593
44.1585
47.9301
53.4898
63.7075
75.6652
89.1443
103.528
118.813
128.399
141.473
148.639
148.496
145.067
134.102
127.506
116.656
106.457
97.4286
87.3802
77.9506
68.741
59.8982
51.5714
44.4637
38.4813
33.4977
42.5462
53.2723
30.0722
35.9533
40.7211
45.3036
55.8224
68.6535
84.3595
101.407
118.21
138.843
152.501
165.458
180.481
184.553
185.857
180.756
171.763
169.144
154.188
146.45
130.11
121.981
110.521
100.46
86.1666
66.6273
49.3816
38.4275
63.4996
63.2991
31.2096
32.6387
37.544
47.3289
60.0582
74.7342
88.7701
106.021
120.629
147.547
157.301
189.082
200.413
206.211
209.62
210.998
208.544
204.227
193.217
175.016
162.231
145.448
129.186
112.023
94.2418
77.7535
61.6578
47.7242
72.6976
76.1383
39.1395
49.9498
67.4518
82.1083
93.4178
97.9837
84.8786
74.5768
68.2107
64.395
61.9544
59.6901
57.6638
56.792
56.4453
56.407
56.7394
60.0175
64.7817
71.7919
76.2626
83.7001
88.4327
92.6457
93.3245
90.7158
80.5176
72.28
77.532
34.3031
29.1734
31.9029
31.5852
36.931
44.9461
54.7609
65.2241
71.893
78.4735
81.8688
82.942
84.2444
83.1282
80.3418
76.7794
71.8163
66.2432
59.8074
53.8162
47.1357
38.8636
18.8577
7.35136
4.62945
3.23427
2.65223
2.73015
2.95135
5.12556
19.8975
21.2339
20.6875
17.9987
16.0218
15.3468
15.9772
18.0949
21.7412
24.5967
22.8218
16.71
12.3247
13.9898
41.1262
33.2684
33.9781
35.0561
36.2501
34.9091
33.058
34.8987
38.9813
44.6189
49.7653
52.9537
52.6289
50.9422
49.1877
48.8251
49.0817
49.9052
50.6645
50.5481
50.2131
50.3011
52.7062
58.6295
67.2452
73.9581
70.7184
55.3009
35.8658
32.5776
59.0852
40.0625
43.1482
48.5046
53.5509
55.3518
53.3661
49.1523
47.0021
48.9733
53.5424
60.9118
66.4864
70.5165
76.4058
81.1894
82.8713
83.2578
84.1356
85.5257
88.5097
90.8989
95.2976
98.6251
102.116
101.327
95.7104
83.6414
61.7
44.1795
56.3177
54.6777
69.6122
85.0913
91.4845
93.6947
93.5207
87.4107
79.9667
75.0489
72.9405
74.9347
82.4689
96.2607
115.596
135.253
158.701
170.257
177.117
181.29
185.739
187.089
186.087
182.753
177.351
172.691
167.181
155.707
119.969
98.1712
43.0424
37.7436
37.2953
42.5604
50.3964
58.6388
64.1608
67.5947
71.2508
74.7689
78.1842
83.9704
89.2942
95.7566
95.9187
110.351
105.83
112.728
113.563
109.38
105.493
103.149
98.955
100.393
106.435
111.44
115.456
106.568
77.805
57.101
53.977
42.2241
42.2463
42.597
43.9444
44.7021
44.3569
45.6858
48.3354
51.636
54.5078
56.3254
57.1843
57.2602
56.3957
55.3376
54.3004
53.8512
53.5296
53.6308
58.8552
62.1606
66.9305
71.9899
75.3676
77.2153
74.3863
65.7481
55.1795
62.5359
48.6841
44.9346
54.4668
62.4898
60.4157
51.6261
47.4064
48.9116
57.9862
72.7423
83.3208
94.0116
105.816
112.587
117.327
123.29
132.583
137.436
139.292
138.106
132.374
124.556
115.766
112.499
106.394
107.741
112.16
114.212
106.525
85.3438
59.9403
39.8062
40.9434
41.8526
44.3117
46.5958
48.0208
51.9238
59.9611
68.8722
76.9083
85.4983
91.1715
97.8618
101.783
105.381
104.447
103.122
97.8246
93.0973
87.8235
83.6077
79.6053
75.9731
68.8857
62.1378
54.4403
48.4425
42.4653
52.1196
67.4018
41.4269
44.4088
44.9674
48.8045
58.9946
72.4817
88.5778
98.4983
115.249
119.647
135.378
137.802
144.556
150.642
148.051
144.165
131.828
123.88
111.411
100.257
90.3061
79.8823
70.3248
61.6584
53.7429
46.6769
40.7233
35.9864
44.5776
59.3645
36.4415
41.2953
40.2586
48.1573
64.8654
86.489
108.28
126.349
142.952
150.936
169.507
171.036
190.378
191.581
203.493
198.692
190.357
177.298
169.006
158.126
140.216
127.575
119.021
109.745
96.6309
81.1599
62.2891
46.7878
68.7408
65.7778
34.4163
35.7565
41.3351
52.8366
67.1391
81.2375
92.8082
112.883
130.043
160.131
173.499
185.782
197.482
202.089
205.652
206.737
206.086
202.647
196.179
190.152
179.491
163.919
148.869
131.227
113.753
94.2447
75.0736
57.9035
79.9177
76.9624
52.0154
71.7385
90.9112
104.541
108.726
90.3565
76.5821
72.0145
70.515
68.9962
67.9435
67.368
66.1609
64.3794
62.3792
59.201
56.3785
56.7537
59.6461
63.8855
66.8349
69.1227
72.0282
74.0655
80.212
85.1647
80.942
74.3126
79.5361
43.7373
34.838
29.6255
34.6563
42.9922
52.6376
62.8505
71.2427
76.3313
80.4718
83.2813
82.7156
83.3954
82.4684
80.2508
76.2827
73.6607
69.5757
64.6108
58.6128
51.2121
42.3973
26.5587
10.4071
6.65138
3.9843
3.0079
2.90971
3.25006
5.52551
22.2611
21.7369
18.6639
15.0225
13.7881
13.3791
13.6534
15.1915
18.8299
23.5567
24.6969
20.0519
14.6168
15.4025
48.4887
36.2343
36.3158
37.2614
36.0919
32.2913
32.6212
37.1539
42.9089
49.4498
55.1428
55.4984
51.6223
47.2731
44.6315
43.4986
42.9495
43.0992
43.4614
43.9128
43.6702
43.026
43.9959
49.0379
59.0576
70.7642
73.5444
61.4258
40.7417
35.4577
63.5081
43.8527
48.3535
54.6467
58.9271
56.0862
51.6419
47.622
46.5489
52.976
62.1207
70.2412
74.7281
78.467
83.1819
83.87
81.0073
78.5443
76.9399
76.4922
76.3787
78.7378
81.7831
88.277
94.6404
100.647
99.4677
90.1834
68.4424
45.9145
61.6333
63.823
76.0081
83.8438
81.9358
78.8031
73.1547
68.9203
66.3365
66.9276
70.0538
76.2351
88.576
105.928
131.155
151.761
171.196
172.606
171.279
168.762
167.817
166.181
161.378
165.623
163.4
168.016
168.406
164.65
138.11
108.414
48.2465
41.4352
37.108
42.9885
54.1296
63.5759
68.7482
72.8931
77.4136
81.9479
88.4694
93.2585
95.589
94.6544
92.9462
94.9355
91.2422
95.4535
96.2935
96.5237
93.8338
92.8458
92.0194
91.2938
96.4671
108.308
117.324
110.271
89.6062
67.0315
59.8476
48.3039
45.5965
45.542
45.1647
44.1931
43.8427
47.1535
52.4532
57.6312
61.5906
64.0503
64.8258
64.0497
61.8794
59.6561
56.4839
51.4216
45.8125
42.742
43.0037
45.6176
54.1658
60.8099
68.0463
74.1772
73.7986
68.3863
59.5228
64.3729
54.4839
53.0517
58.6907
56.7438
49.4148
44.0233
46.4562
56.921
76.0978
91.6079
99.5841
100.174
95.6481
92.6137
91.526
93.6343
97.8193
104.325
114.294
127.982
132.566
126.492
114.988
100
94.0108
97.6492
103.677
112.258
118.601
90.2048
64.9415
42.3905
42.5847
44.24
46.7918
47.8511
51.567
58.7173
68.6653
76.6655
83.7469
87.5763
87.8999
90.8385
91.4977
93.8281
95.7521
93.9085
93.9107
88.9645
84.7853
80.4931
78.0888
73.6993
68.8478
60.8596
53.3614
48.3682
44.7806
54.3923
72.3297
45.26
43.5911
44.7844
56.2007
72.2709
86.0322
97.7919
101.443
108.643
105.62
113.037
118.168
120.648
125.213
129.958
129.005
127.397
119.743
113.061
100.492
90.2584
79.0089
70.1908
60.6611
53.359
47.2399
42.0391
38.6063
48.011
67.1011
41.1561
37.5893
42.6262
63.9924
91.3903
113.789
126.096
129.163
132.732
134.947
143.262
147.961
159.799
165.896
171.121
177.981
177.253
174.169
161.356
162.608
145.632
133.874
123.963
114.922
104.121
89.1035
70.2182
52.2315
72.2995
67.8006
36.138
36.5616
46.1863
60.6857
75.0919
89.813
102.441
124.849
135.373
163.435
175.806
185.28
195.127
200.254
203.173
203.572
200.46
197.06
191.241
186.414
180.613
175.508
165.559
148.695
130.466
108.84
86.4126
65.1451
85.2072
82.594
72.4347
93.7789
112.524
118.009
95.6617
82.3523
78.3354
75.7953
74.8468
75.3788
74.9531
74.6991
74.3939
72.9589
70.2349
66.2103
63.2096
64.0916
69.6191
70.6216
71.8624
67.4088
65.4195
67.598
72.716
78.5848
82.3686
76.9871
78.1299
52.9363
31.6288
31.326
38.5618
48.2265
58.3118
67.2137
73.6168
77.956
79.2806
78.9077
78.8227
77.173
74.6454
73.6791
72.8819
71.0801
70.3381
67.7759
63.3085
56.607
46.8418
32.5076
12.5542
8.35458
4.80399
3.4445
3.37997
3.79359
6.10781
23.7322
21.184
16.3432
13.9359
13.4171
13.3111
13.5319
15.0981
18.385
23.2815
25.8255
22.772
16.9329
17.0374
54.8378
40.1418
38.641
38.0609
33.8314
31.2904
34.3394
39.9938
46.0924
53.557
58.2527
55.8285
49.7873
44.9299
42.0464
39.5693
37.2234
35.2405
34.8403
35.674
36.8791
37.5436
38.5385
42.8482
53.0347
67.4455
74.7337
65.7367
44.8957
37.9997
67.18
48.8139
53.0304
58.8178
58.7554
53.8141
48.2003
43.9159
45.8182
57.0852
69.2939
76.8187
79.3481
83.5342
86.7411
82.4073
77.1006
74.1059
71.8307
68.784
67.0088
66.1118
70.5397
77.6462
89.296
99.0592
101.372
94.6924
72.0885
44.0218
67.0722
73.1453
79.7829
77.4741
70.0835
63.9294
60.0421
59.7442
61.7023
65.6567
71.4911
79.6847
93.7726
116.376
145.783
166.977
175.266
164.763
154.998
147.759
131.464
131.41
140.585
143.71
148.848
165.861
170.563
170.981
149.18
112.073
53.9699
45.6888
38.3053
45.1389
58.4861
68.1445
73.3523
76.6101
82.9813
91.4128
102.399
103.883
107.638
91.808
89.7765
76.2542
74.6516
74.0728
75.4528
79.3402
82.9608
81.8902
81.543
85.5996
91.8282
99.5802
107.173
111.953
101.004
70.1375
65.294
54.3317
50.1388
47.6558
45.7137
43.1025
42.7238
45.8443
54.5876
61.3513
66.5386
69.4064
70.5643
69.4749
67.6328
66.1017
61.6736
54.6503
45.823
37.2919
30.4108
32.7565
43.3823
52.1701
63.1243
70.5165
72.6732
69.5833
62.2728
65.4149
61.4801
60.8954
59.4838
52.1052
44.6085
44.1514
50.0027
69.7007
92.1304
98.7445
98.0103
87.7273
78.4866
79.0971
86.828
92.8134
96.7244
98.6007
99.7508
96.65
102.416
117.128
116.318
104.18
85.7138
88.3146
100.299
113.589
124.508
100.458
68.7391
45.1897
44.5459
46.2598
48.3724
50.7215
56.3566
66.4977
76.7645
83.6936
86.4623
86.4031
82.7118
81.9143
78.215
78.9239
76.818
80.9558
80.5367
81.6633
79.4751
78.0839
75.3822
73.4581
67.5252
59.1333
51.8753
47.965
45.1593
54.6267
76.3135
46.7367
42.7287
52.9893
70.5636
87.9006
94.6559
98.3664
95.1187
92.7328
89.9155
90.9604
90.7214
94.7038
96.2331
96.9287
104.522
106.309
109.371
103.372
97.7131
85.8261
77.5378
67.05
58.5377
51.8255
46.3465
43.1336
40.6832
48.6917
71.2407
40.3403
38.6315
58.8675
91.3651
114.43
122.579
124.396
121.524
118.894
119.563
124.821
125.332
124.73
128.572
131.939
139.628
146.996
155.797
150.098
145.044
143.673
135.384
124.318
118.807
108.785
93.9726
74.8419
56.2536
74.2369
68.9876
36.1867
38.8888
53.7791
71.5145
84.8003
97.2583
114.303
136.049
142.797
166.362
173.544
179.641
186.414
192.896
197.204
197.275
193.881
189.877
183.792
179.485
174.715
172.938
169.133
163.111
143.647
121.533
94.7985
71.0317
88.7604
93.7134
91.321
115.142
126.742
110.56
91.1519
82.8581
81.2686
81.7381
80.667
80.389
81.6522
81.5438
80.8396
80.0355
77.8914
73.6789
72.6558
79.3806
89.8161
80.0249
71.2006
66.0119
64.8826
65.0575
70.3653
78.4614
83.0303
78.2278
62.3313
60.5374
31.7988
33.4812
41.7537
51.732
61.3873
69.2762
72.6883
75.7869
74.9969
73.3088
69.6686
68.3142
65.5746
65.1878
65.844
67.0906
68.3562
68.6685
66.5394
60.9538
51.7251
37.7705
15.5163
9.21945
6.17364
4.40886
4.23845
4.66062
6.77041
24.5612
20.1234
15.1338
13.9646
14.1638
14.1418
14.0324
15.5397
18.7944
23.1937
26.6459
25.0417
19.3653
19.1255
62.6313
45.4537
40.98
37.2871
32.8658
32.476
36.0722
41.1483
47.7875
55.4933
59.6215
54.9555
48.2271
43.9097
40.2989
36.0491
31.3449
27.219
25.5048
26.9054
29.78
32.2786
34.8907
39.7863
50.5728
66.0396
74.1973
67.3377
48.3263
40.3172
70.9174
51.9874
55.7957
58.0302
55.2754
49.5885
44.2639
39.4836
46.5032
61.675
72.3113
79.0285
80.9084
85.0429
84.467
78.1455
74.2641
72.7553
67.8811
61.7041
54.2066
53.7076
60.1893
73.2457
88.424
100.704
103.951
96.1862
71.3254
40.6955
71.8346
81.4099
81.2609
72.4692
61.392
54.5543
52.227
54.4816
60.2169
66.6319
73.2204
81.7001
97.284
125.74
160.049
167.911
171.772
156.666
138.573
118.004
101.972
102.68
112.114
123.58
146.217
151.409
172.108
177.372
147.788
112.96
61.4835
49.5951
39.7842
48.4126
62.6259
72.9806
76.0333
79.9792
88.751
102.943
113.154
116.612
106.416
90.7543
76.6773
61.911
57.9229
56.2391
59.5477
64.1674
68.1222
73.5629
77.032
77.7649
81.4823
91.8896
106.445
112.268
101.21
67.9342
70.5709
60.2628
53.6681
50.1978
45.0623
39.6534
38.0262
42.9784
53.1141
63.5821
69.0279
72.1384
73.7423
73.519
72.7967
71.5198
68.7835
60.9729
50.6459
42.3322
32.7748
29.476
38.932
48.5191
60.7116
68.2726
71.7553
69.6962
64.5499
64.2472
68.6339
66.9098
58.6101
49.2566
44.6193
44.4284
54.4352
77.1384
98.397
100.151
89.0159
74.9342
78.7653
86.1636
92.1438
96.4251
101.774
101.925
94.0191
92.7722
91.4286
92.9004
100.884
95.8507
88.0698
89.0937
101.365
117.266
130.814
92.4717
72.4255
48.94
47.6932
49.1057
50.7172
54.1458
62.2337
73.1909
83.7077
89.3908
88.4198
85.0945
80.8386
75.1693
67.8333
64.3819
62.9339
62.6972
67.9048
70.6257
74.4266
74.6054
74.908
73.3812
66.5249
57.6724
50.5392
47.8534
46.3333
55.0377
79.7495
45.9219
49.5656
67.5271
85.6761
97.0009
99.8893
100.04
93.4978
90.3695
84.1488
85.6555
79.5685
78.1148
68.7453
67.6606
75.4716
84.9687
93.9454
94.7765
89.6146
83.5549
72.6917
63.5105
56.3928
49.8559
46.7028
44.2411
43.547
49.599
71.5705
40.7963
50.0518
84.167
111.561
124.33
128.598
124.84
123.613
125.014
126.399
121.293
116.726
109.877
103.907
96.2545
95.0157
104.099
118.327
131.901
128.629
132.904
129.326
124.293
120.042
112.043
97.0287
77.3989
58.5882
74.8216
68.2378
35.9373
45.0389
63.4825
80.4935
94.9313
108.297
122.648
145.702
155.603
152.684
164.509
161.765
161.559
161.207
165.546
171.656
174.745
175.043
172.372
170.122
167.107
167.534
166.69
165.488
154.413
129.25
102.567
74.3522
88.9636
109.252
112.025
131.676
136.152
101.892
88.5571
86.5821
83.108
81.9869
83.2372
84.2982
85.7801
87.3483
86.6959
84.8747
83.164
79.9472
80.7131
94.1692
98.6899
81.7563
63.4688
54.5533
64.5907
67.4902
72.9912
80.468
83.1688
78.9875
49.2322
67.6173
33.1052
35.2484
43.9836
53.7089
62.1365
68.9406
70.8153
71.5333
68.4181
65.6312
58.7382
54.2882
51.9578
53.4774
58.9671
62.3923
66.5869
68.5183
68.3684
64.2477
55.0965
41.9887
20.3406
9.19078
8.1574
6.57056
6.71687
7.03127
11.0232
24.9644
19.1647
14.6528
14.3037
14.8307
14.536
14.0335
14.8645
17.7065
22.0481
26.4262
26.7085
21.9771
21.133
70.6548
49.8791
42.8501
38.9736
35.5432
35.6091
36.3473
40.1865
47.3258
55.6173
59.4148
53.4623
47.3261
43.2585
39.2112
33.6348
27.6052
22.6874
19.9687
20.8556
24.8036
28.6319
32.5851
38.8163
50.1094
65.0788
73.0615
65.4575
49.4793
42.6479
72.0404
55.9064
54.491
56.1644
52.4652
46.4837
38.9184
37.402
48.5409
62.4368
73.433
79.2555
79.7159
84.0862
80.9635
74.6107
73.8602
72.458
63.546
53.3972
44.9862
45.6892
58.8934
74.5127
92.5126
104.711
105.69
92.9637
66.5434
37.5458
75.2413
87.6266
82.1852
68.7476
55.6707
48.0808
46.0103
50.9921
59.571
66.8145
73.3231
82.1168
99.7892
133.841
163.56
166.882
159.599
145.281
119.575
95.7094
74.5562
75.551
91.3578
118.329
132.116
148.693
174.555
174.187
146.39
100.17
70.8282
57.2742
42.79
51.0712
65.6288
75.5806
78.3106
82.3308
94.0914
110.37
123.101
121.962
104.2
87.1925
67.0042
55.9651
49.3566
45.6722
47.2572
53.4732
62.8585
67.064
67.9453
71.6797
80.0866
90.4659
99.7286
105.133
100.569
69.4227
76.6908
66.0613
57.6557
51.5498
44.8443
36.9781
33.028
37.127
48.5909
62.1564
70.1288
72.2411
73.5846
75.4915
75.8005
76.3958
75.4704
67.3219
56.6602
49.7113
43.6749
38.2533
43.4461
50.573
60.6548
67.3997
70.8038
69.7998
66.1781
62.6655
75.3106
71.9018
58.0893
48.3688
43.8559
44.0857
52.5462
73.6368
94.4576
95.3777
82.9169
76.8186
82.2116
87.4222
93.2236
93.0285
96.2335
90.0764
87.4519
82.7347
77.0454
80.9225
84.5201
87.8036
82.9116
94.7767
108.349
123.66
130.347
92.3309
77.6188
52.6002
50.0295
50.7381
53.1554
58.1504
67.5916
79.6206
87.8187
93.6283
90.3267
88.9538
81.9588
78.4345
69.6348
64.2765
58.1181
59.247
61.1888
68.1072
74.6827
76.1286
78.3525
74.0168
65.7344
56.5266
50.4852
47.2535
44.7106
53.3106
84.4242
49.4722
59.9797
80.9654
97.6419
106.779
107.865
108.853
100.083
99.5403
91.933
94.6411
90.7151
89.2341
78.7882
69.6234
74.9426
80.8896
93.1596
89.9384
89.1511
77.1845
68.7734
61.0737
54.1033
50.3429
47.5885
46.218
45.5598
51.3088
74.5247
45.5822
66.903
100.484
122.644
132.571
135.618
134.958
141.041
144.286
141.448
137.463
133.146
124.287
112.547
94.8841
78.179
74.8573
91.4581
108.886
113.204
122.029
125.34
123.696
121.997
115.329
99.6541
78.5092
60.2121
73.8601
67.9016
39.1194
53.8825
71.7295
88.7441
104.744
117.723
135.302
159.688
163.84
151.293
161.656
150.399
136.673
127.598
124.123
128.196
139.862
152.014
157.916
160.915
160.309
163.297
164.716
167.007
161.076
134.089
102.336
74.5602
86.2563
122.31
131.802
144.072
124.036
97.2524
89.1096
84.6156
81.4443
76.5345
77.3205
82.725
87.5701
90.3233
90.3975
87.3006
85.4916
82.2773
83.8356
98.4716
103.783
86.9675
73.3503
69.9638
77.6287
76.1092
78.4205
82.0712
84.7441
81.981
39.7942
73.639
35.1382
36.6357
44.5357
53.9355
62.0261
66.1474
68.3224
67.163
61.6143
57.1356
47.2179
38.9524
36.5789
44.2079
53.1604
60.7274
64.9435
68.9587
69.5949
66.2712
57.3654
44.532
26.345
10.6304
10.1044
11.1132
11.8409
14.47
22.7466
24.8956
18.5808
14.4901
14.3994
15.1014
14.8986
14.4505
14.7345
16.263
19.7894
24.8243
26.478
24.8665
28.9435
49.2178
76.0606
73.9446
54.1735
42.8355
38.6761
38.4622
38.4201
35.5679
38.2729
46.1423
54.3194
58.1731
52.2938
46.7166
43.1578
38.9689
33.534
27.2871
22.7359
19.742
20.2234
23.5602
27.8885
33.0124
41.1361
52.8792
65.1011
69.1829
63.2684
53.3441
47.8742
57.7438
61.7242
63.9386
61.6284
58.5524
54.0024
49.0286
41.5144
37.1624
37.1999
50.8425
62.0767
69.2612
74.2885
76.0233
78.9694
75.6775
72.4755
73.5598
70.983
62.3943
52.5082
48.9685
53.3023
68.2551
85.7317
101.921
108.878
103.971
84.6419
60.2882
41.6244
58.5594
80.6675
91.593
91.3024
81.6384
65.9846
53.0511
44.6527
43.6253
50.6215
59.43
66.3414
71.8118
79.0828
99.927
137.772
157.441
159.696
149.658
135.003
107.998
86.7669
65.1959
65.8397
87.1907
107.564
130.339
151.231
170.317
170.276
136.315
102.606
83.7512
93.0299
81.8711
61.3589
47.8662
56.4689
68.7385
77.6414
78.9478
82.6391
96.7873
115.103
129.235
121.734
104.789
81.9541
67.4669
57.1222
49.7538
46.9603
49.6444
56.1269
60.2234
63.7913
68.9716
73.039
76.6715
83.0052
92.264
99.353
97.1829
75.2663
66.8707
68.7057
83.4425
72.4364
60.3717
53.0313
43.9679
34.5692
28.6575
32.1291
42.7003
58.286
70.1364
68.7572
70.9392
74.7051
76.9543
79.3436
81.0423
74.1012
62.4707
55.3077
53.1859
49.4354
50.7474
56.8952
62.4781
68.3368
70.6072
69.9266
65.099
57.5823
63.0866
83.3453
87.7888
75.113
58.7347
48.5847
42.9448
42.0136
48.466
63.8844
83.5617
91.2939
82.6922
79.654
82.5473
84.0201
86.0541
82.5548
89.1321
85.1559
68.9437
59.6702
62.3139
66.0199
74.9509
76.6897
85.4478
103.122
118.146
131.981
122.596
92.8509
90.9558
96.8882
83.421
60.5626
55.2495
53.9721
55.8076
61.57
71.4953
83.3794
91.6806
95.4475
93.5315
94.4906
90.5976
89.5443
86.9291
84.5206
78.747
79.7968
81.1911
81.3148
83.0256
84.2017
81.3715
75.1962
65.3037
55.7284
49.5553
46.9133
45.5209
55.5412
93.4843
110.353
88.1357
71.6276
81.2719
95.8212
109.727
119.833
122.603
122.656
117.849
114.66
111.108
109.288
109.884
115.564
110.947
108.109
108.634
102.033
101.183
96.499
82.4629
74.8403
67.3757
59.859
55.3168
52.8334
50.1671
49.3052
46.1961
50.5371
82.9221
90.5847
77.2678
69.2703
87.9662
111.39
129.043
136.35
141.472
146.889
153.716
162.402
162.719
162.196
161.958
156.623
148.141
133.793
119.101
109.519
110.212
107.649
115.516
121.481
127.736
125.772
126.479
118.339
99.8542
78.2992
60.6215
56.5583
78.2452
79.1392
55.4977
51.306
63.9633
80.1539
96.472
110.188
127.683
153.273
169.514
168.091
173.055
174.284
153.05
135.711
130.128
112.73
109.522
117.13
134.97
151.748
157.976
159.816
164.189
168.207
171.405
161.643
134.198
101.884
72.0636
63.0492
88.0823
108.981
136.745
148.117
152.416
113.797
95.3904
87.344
79.1823
69.1869
64.0709
65.6148
73.9224
84.5339
91.6103
91.0807
85.4838
84.0072
81.5405
81.8744
94.9268
106.183
98.9318
92.3057
90.4945
87.9745
84.438
84.2709
85.8121
82.4863
77.7873
62.7279
88.5205
103.451
73.6721
38.5092
37.4955
44.6866
52.6893
59.6094
63.9425
64.8183
62.2235
57.5438
50.9765
39.6457
29.3544
30.498
42.6853
53.5776
60.6134
66.3495
69.5651
70.9063
67.232
58.1919
45.3934
29.9641
13.2553
11.5547
17.0302
22.1421
21.0856
15.2446
6.93802
3.19304
24.4651
18.2567
14.3541
14.3223
15.4698
15.9484
16.6131
17.8564
18.4078
19.4629
22.5999
25.8388
26.3178
30.7073
37.1694
47.2341
50.2679
32.3952
28.0177
29.3026
35.3113
38.1843
32.5606
35.0372
43.3347
51.0462
55.8792
51.4189
46.5986
43.4155
40.0012
35.7115
30.3067
26.2015
23.6437
24.1077
26.8657
31.1056
37.2423
46.1623
56.0904
63.121
62.6264
54.9284
48.0269
52.7542
53.1193
57.6431
64.241
64.0581
59.6526
55.0943
46.2943
40.4966
35.1525
40.0546
50.5987
58.7029
64.7525
69.7769
71.7089
73.2446
71.4036
70.6575
72.0914
71.676
66.9901
61.7216
63.6929
71.3918
83.5962
98.0855
109.245
108.474
95.4822
75.0906
56.7203
47.4297
47.858
66.7711
100.671
86.2146
76.9902
63.0511
51.8863
45.5239
46.6038
53.0435
60.0567
65.2945
68.8912
75.5335
97.7643
132.515
148.035
148.819
144.794
128.857
104.986
89.5392
75.1715
77.8065
92.4118
107.865
134.362
149.108
165.79
168.321
126.586
101.528
82.2557
97.7493
99.2511
61.0898
51.8782
56.4816
68.198
78.0063
77.8745
80.6285
95.2369
117.523
129.196
124.44
102.776
84.0521
71.6685
64.4129
62.3494
61.9316
62.4285
62.7158
65.9785
70.2686
70.7901
71.2697
75.3667
81.2502
86.6828
89.7496
88.1106
78.7037
64.3961
63.3154
77.2505
75.9745
63.7624
53.622
44.4458
34.9986
29.0116
30.3274
39.2551
54.8012
64.7356
63.4221
66.955
71.1743
74.7619
80.2678
84.0637
81.0128
69.3567
59.8099
58.0357
59.017
57.444
61.977
65.4102
69.504
70.9804
69.5539
63.2153
56.0322
54.6599
72.7739
88.7921
72.4042
58.0761
48.0531
40.7185
37.8695
41.8979
52.3121
70.2558
86.4062
85.6484
79.0324
79.5817
81.062
83.3651
84.0204
87.1641
84.0918
71.7419
54.7285
54.6851
59.6385
69.0424
75.3967
90.875
116.85
129.445
125.724
104.748
71.933
64.3985
81.3658
81.3803
64.3889
58.04
55.1828
57.1834
63.9328
73.8295
84.1451
92.996
97.9258
97.2241
97.457
100.426
106.214
105.172
115.607
110.215
110.75
109.543
100.786
101.124
93.0417
86.972
75.9752
64.4855
56.1308
52.5417
53.6478
65.0378
84.7406
97.8055
101.328
89.2852
84.2074
91.1659
105.176
121.027
132.637
138.637
141.029
144.306
137.213
131.18
128.026
127.742
127.696
128.385
130.555
125.48
111.711
108.322
92.4532
84.3312
76.667
68.914
64.7481
62.1304
58.9907
56.4342
53.5142
55.8051
64.1349
74.6632
83.8934
81.0129
77.6939
89.5017
108.134
126.869
135.603
141.787
149.799
162.513
172.569
181.259
184.28
189.396
189.929
190.323
181.178
172.479
162.042
154.852
139.98
139.586
140.331
138.978
133.943
133.646