/*--------------------------------*- C++ -*----------------------------------*\
| =========                 |                                                 |
| \\      /  F ield         | OpenFOAM: The Open Source CFD Toolbox           |
|  \\    /   O peration     | Version:  2.1.1                                 |
|   \\  /    A nd           | Web:      www.OpenFOAM.org                      |
|    \\/     M anipulation  |                                                 |
\*---------------------------------------------------------------------------*/
FoamFile
{
    version     2.0;
    format      ascii;
    class       volScalarField;
    location    "0.006200000";
    object      G;
}
// * * * * * * * * * * * * * * * * * * * * * * * * * * * * * * * * * * * * * //

dimensions      [0 0 0 0 0 0 0];

internalField   nonuniform List<scalar> 
12384
(
1
1
1
1
1
1
1
1
1
1
1
1
1
1
1
1
1
1
1
1
1
1
1
1
1
1
1
1
0.999998
0.999996
0.999989
0.999976
0.999978
0.999976
0.999992
0.999996
0.999998
0.999999
1
1
1
1
1
1
1
1
1
1
1
1
1
1
1
1
1
0.999999
0.999997
0.999972
0.999947
0.999768
0.999722
0.999374
0.999452
0.99939
0.999591
0.999735
0.999868
0.999941
0.999982
0.999997
1
1
1
1
1
1
1
0.999999
0.999999
0.999999
0.999998
0.999995
0.999975
0.999904
0.999669
0.998954
0.997191
0.993618
0.988962
0.984245
0.983665
0.982032
0.989327
0.989197
0.996333
0.997603
0.999354
0.999812
0.999986
1
1
1
1
1
1
1
0.999982
0.999843
0.999328
0.997956
0.995401
0.99205
0.989944
0.990594
0.992567
0.996613
0.997385
0.998674
0.998786
0.999183
0.999424
0.999651
0.999735
0.999882
0.999973
0.999994
1
1
1
1
1
1
1
1
1
1
1
1
1
1
1
1
1
1
1
0.999998
0.999986
0.999957
0.999811
0.999728
0.999355
0.999431
0.999028
0.999144
0.998851
0.999025
0.998986
0.999384
0.99963
0.999907
0.999985
0.999999
1
1
1
1
0.999999
0.999997
0.99999
0.99991
0.999319
0.997313
0.988337
0.97261
0.941709
0.914892
0.882527
0.876011
0.867889
0.89445
0.902576
0.932086
0.941409
0.961603
0.976038
0.988067
0.995969
0.999299
0.999402
0.999817
0.999924
0.999971
0.999988
0.999985
1
1
1
1
0.999997
0.999945
0.999629
0.998214
0.996017
0.98747
0.985519
0.973442
0.978532
0.981925
0.983836
0.992072
0.995198
0.997298
0.998784
0.99954
0.999851
0.999971
0.999998
1
1
1
1
1
1
1
1
1
0.999995
0.999873
0.998926
0.995488
0.987215
0.973421
0.963183
0.943645
0.950946
0.950944
0.973836
0.974832
0.99014
0.994341
0.997892
0.999298
0.999865
0.999973
0.999994
1
1
1
1
1
1
1
1
1
1
1
1
1
0.999999
0.999981
0.999781
0.998468
0.993516
0.979392
0.956786
0.924441
0.922835
0.909772
0.937273
0.954819
0.955156
0.98083
0.993012
0.996235
0.998981
0.999893
0.999999
1
1
1
1
1
1
1
1
1
0.999998
0.999983
0.999827
0.998661
0.993594
0.977148
0.948722
0.881146
0.865395
0.76572
0.794537
0.790523
0.82626
0.873183
0.914205
0.948547
0.971435
0.986858
0.996325
0.999793
0.999997
0.999999
1
1
1
1
0.999999
1
1
1
0.999999
0.999997
0.999999
0.999998
0.999972
0.999908
0.99964
0.999605
0.999359
0.999266
0.998769
0.998056
0.99772
0.998078
0.998275
0.998334
0.997862
0.99655
0.994084
0.990575
0.986427
0.984246
0.987334
0.989856
0.994237
0.997862
0.999831
1
1
1
1
1
1
0.999587
0.981692
0.999993
0.999995
0.999981
0.999952
0.999917
0.99987
0.999808
0.999743
0.999698
0.999753
0.999897
0.999973
0.999996
1
1
1
1
1
1
1
1
1
1
1
1
1
1
1
1
1
1
1
1
1
1
1
1
1
1
1
1
1
1
1
1
1
1
1
0.999997
0.999973
0.999813
0.998841
0.995755
0.985262
0.968467
0.945795
0.922551
0.912295
0.912264
0.92656
0.945295
0.962256
0.982766
0.997053
0.999913
1
1
1
1
1
1
1
1
1
1
0.999999
0.999986
0.999894
0.999031
0.995647
0.979903
0.948747
0.878756
0.80819
0.71342
0.651768
0.595671
0.578628
0.607671
0.664475
0.763022
0.864085
0.945916
0.988314
0.999117
0.999997
1
1
0.999993
0.999981
0.999982
0.999981
0.999966
0.999912
0.999606
0.997624
0.987213
0.947622
0.846052
0.672411
0.476142
0.314147
0.204534
0.129118
0.10056
0.0883721
0.114647
0.147223
0.230533
0.359745
0.560411
0.812972
0.974867
0.999816
1
1
1
1
0.99949
0.987789
0.935706
0.825012
0.670971
0.508881
0.369968
0.268969
0.204809
0.176966
0.171288
0.184772
0.219117
0.301227
0.396126
0.535286
0.677332
0.815896
0.936554
0.992149
0.999646
0.99998
0.999992
0.999983
0.999977
0.999989
0.999996
0.999999
1
1
1
1
1
1
1
1
0.999999
0.999946
0.998834
0.991077
0.963028
0.892152
0.804549
0.67229
0.596197
0.491652
0.467299
0.433042
0.456668
0.492199
0.561517
0.658171
0.763134
0.876113
0.959757
0.994572
0.9998
0.999999
1
1
1
1
0.999994
0.998186
0.948739
0.717372
0.433914
0.225197
0.107612
0.0515063
0.0258196
0.0142591
0.00884638
0.00634988
0.00554589
0.00696058
0.00971311
0.0185442
0.0386436
0.0896409
0.209486
0.4465
0.774381
0.929785
0.983542
0.999591
0.999931
0.999812
0.99961
1
1
1
0.999799
0.992354
0.946655
0.822227
0.645067
0.471171
0.307175
0.220691
0.155868
0.128099
0.130655
0.155736
0.185658
0.262255
0.382915
0.541691
0.729173
0.896469
0.978951
0.998646
0.99998
0.999999
0.999999
0.999999
1
1
1
1
0.999977
0.994511
0.924875
0.730076
0.484273
0.290647
0.164333
0.0844877
0.0557194
0.0348936
0.0327983
0.0347372
0.0521971
0.087501
0.158825
0.312935
0.540309
0.823948
0.973526
0.998595
0.999982
1
1
1
1
1
1
1
1
1
1
1
1
0.999653
0.985641
0.887758
0.659305
0.387094
0.177399
0.0846146
0.0322894
0.0185556
0.0129189
0.0106268
0.0180791
0.0486715
0.0976492
0.202769
0.418925
0.675894
0.904691
0.992973
0.999957
1
1
1
1
1
1
1
1
1
0.999702
0.97841
0.83139
0.547703
0.254335
0.119468
0.0428199
0.0166662
0.00572926
0.00453972
0.0044143
0.00588364
0.011229
0.0272553
0.0699472
0.181842
0.420121
0.748815
0.948563
0.996966
0.999911
0.999975
0.99997
0.999979
0.999987
0.999989
0.999999
1
1
1
0.999993
0.999542
0.983033
0.832466
0.623739
0.461049
0.40129
0.361445
0.370048
0.401772
0.472613
0.564449
0.689785
0.809098
0.894792
0.942009
0.957765
0.954445
0.934913
0.899176
0.847449
0.776328
0.726536
0.736994
0.794301
0.930465
0.999405
1
1
1
1
0.999279
0.794762
0.988787
0.996631
0.97627
0.917119
0.845167
0.787614
0.763714
0.754311
0.770557
0.823228
0.880817
0.926183
0.967558
0.99011
0.998499
0.999962
1
1
1
1
1
1
1
1
1
1
1
1
1
1
1
1
1
1
1
1
1
1
1
1
1
1
1
1
1
1
1
0.999999
0.999997
0.999991
0.999949
0.999793
0.998939
0.996772
0.988664
0.979819
0.965039
0.954688
0.952211
0.955935
0.965045
0.969768
0.97479
0.977351
0.989109
0.99834
0.999973
1
1
1
1
1
1
1
1
0.999998
0.999979
0.999605
0.99846
0.994624
0.991002
0.980881
0.970737
0.938728
0.910389
0.852393
0.811765
0.750529
0.715854
0.68548
0.696966
0.726489
0.794174
0.882337
0.954659
0.991263
0.999647
1
1
0.999965
0.999974
0.999978
0.999937
0.999717
0.998795
0.995311
0.983286
0.952959
0.892376
0.78736
0.638762
0.481976
0.335034
0.222655
0.159425
0.117243
0.107324
0.107519
0.154693
0.19787
0.304183
0.418137
0.624963
0.864272
0.988224
0.999987
1
1
1
0.990999
0.914222
0.771923
0.641596
0.546692
0.461463
0.384484
0.329635
0.294405
0.273564
0.24036
0.233172
0.272678
0.301547
0.386574
0.476691
0.583834
0.697445
0.823129
0.944186
0.992889
0.999534
0.999979
0.999997
0.999999
0.999997
0.999988
0.999992
1
1
1
1
1
1
1
0.999998
0.999924
0.999097
0.995076
0.985889
0.966623
0.932722
0.893436
0.819021
0.775584
0.676533
0.645812
0.574312
0.568386
0.542272
0.578515
0.599445
0.684527
0.75915
0.878014
0.960432
0.996539
0.999919
0.999998
1
1
1
0.999759
0.959007
0.779317
0.544877
0.355748
0.218623
0.141348
0.0929639
0.0634952
0.0422401
0.0327105
0.0235132
0.0198144
0.0186457
0.0198803
0.0226203
0.0317121
0.053134
0.102254
0.217971
0.465021
0.761961
0.897923
0.983461
0.999848
0.999906
0.999127
1
1
0.99996
0.994759
0.948754
0.840559
0.699152
0.55446
0.433878
0.302639
0.253784
0.181037
0.171456
0.150089
0.174475
0.204712
0.249212
0.331411
0.425313
0.554976
0.71825
0.879557
0.974547
0.998264
0.999969
1
1
1
0.999998
1
1
0.997207
0.920489
0.706704
0.485556
0.327622
0.222119
0.13344
0.0983794
0.0617387
0.0476945
0.0367327
0.042662
0.0450138
0.0745434
0.102857
0.181681
0.30252
0.534038
0.816988
0.970353
0.997903
0.999989
1
1
1
1
1
1
1
1
1
1
0.999872
0.983523
0.850686
0.597197
0.34044
0.169788
0.0709868
0.0350291
0.0115587
0.00721099
0.00556663
0.00820343
0.00912341
0.0174094
0.0387909
0.0910021
0.183573
0.387086
0.645973
0.894
0.992504
0.999983
1
1
1
1
1
1
1
0.999968
0.987606
0.825357
0.518306
0.250732
0.115363
0.0620443
0.0161527
0.00802165
0.00439427
0.00255691
0.00176446
0.00259664
0.00434799
0.0100133
0.0230826
0.058401
0.152211
0.379344
0.716188
0.939351
0.997606
0.99998
0.999997
0.999991
0.999955
0.999875
0.999999
1
1
0.999998
0.99975
0.986617
0.873527
0.66501
0.571716
0.537504
0.514204
0.503654
0.510264
0.519386
0.562483
0.623015
0.677837
0.755321
0.809288
0.845758
0.869906
0.88384
0.904297
0.917458
0.914044
0.89216
0.853855
0.815114
0.776636
0.847994
0.997559
1
1
1
1
0.946075
0.918358
0.990372
0.962623
0.888963
0.812984
0.767862
0.740542
0.733318
0.750764
0.769772
0.793637
0.847968
0.89753
0.934546
0.968563
0.989182
0.998208
0.999962
1
1
1
1
1
1
1
1
1
1
1
1
1
1
1
1
1
1
1
1
1
1
1
1
1
1
1
1
1
0.999998
0.999994
0.999979
0.99995
0.999834
0.999526
0.998387
0.996851
0.992662
0.991359
0.988134
0.9902
0.989895
0.991357
0.991571
0.992232
0.989983
0.987151
0.985573
0.994777
0.999647
1
1
1
1
1
1
1
1
0.999995
0.999848
0.997844
0.99286
0.986107
0.985469
0.98306
0.981759
0.974578
0.966048
0.950635
0.930524
0.908285
0.875825
0.849849
0.811188
0.80277
0.813049
0.855698
0.918637
0.973954
0.996887
1
1
0.999666
0.999935
0.999951
0.999812
0.998863
0.994494
0.979254
0.942788
0.881766
0.7994
0.697107
0.593505
0.492542
0.390731
0.322684
0.267103
0.234623
0.195671
0.205898
0.204084
0.251794
0.296149
0.386695
0.512829
0.745189
0.942115
0.998992
1
1
0.999999
0.941702
0.745802
0.596942
0.533662
0.524326
0.522585
0.529548
0.532697
0.506668
0.459825
0.437083
0.434159
0.408146
0.436841
0.450889
0.5079
0.571839
0.658464
0.750334
0.864644
0.960004
0.99296
0.999519
0.999993
1
1
0.999977
0.999975
1
1
1
1
1
1
0.999999
0.999962
0.999277
0.996643
0.992111
0.987603
0.981101
0.971945
0.962149
0.940352
0.9225
0.89193
0.860956
0.824389
0.772415
0.743521
0.692212
0.685641
0.680056
0.731354
0.797507
0.907829
0.980448
0.999162
0.999989
0.999998
1
0.999997
0.98699
0.855759
0.682249
0.526125
0.489114
0.410444
0.305136
0.23154
0.172024
0.139483
0.111326
0.105226
0.0883586
0.0806498
0.0769151
0.0743861
0.0690903
0.0696977
0.0897527
0.143505
0.279641
0.542798
0.790139
0.927828
0.997553
0.999926
0.999051
1
1
0.998999
0.968727
0.86439
0.752247
0.648115
0.564999
0.485479
0.415721
0.355465
0.315028
0.269921
0.259378
0.24933
0.292714
0.327911
0.36711
0.423217
0.483424
0.581633
0.738786
0.89259
0.979121
0.998644
0.999982
1
1
0.999996
1
0.999994
0.966123
0.766184
0.533035
0.381769
0.293166
0.222425
0.179209
0.139673
0.0971571
0.0746175
0.075519
0.0641573
0.0834137
0.0936139
0.114924
0.155359
0.211779
0.35026
0.597798
0.858575
0.976732
0.998645
0.999996
1
1
1
1
1
1
1
1
0.999998
0.995301
0.877407
0.59131
0.329048
0.168793
0.0881573
0.0403467
0.0192367
0.0099456
0.00690752
0.00517855
0.00317229
0.00731402
0.012771
0.0251737
0.0540377
0.106679
0.199922
0.417231
0.687403
0.920225
0.997209
0.999999
1
1
1
1
1
0.999999
0.998631
0.904545
0.573082
0.274338
0.140232
0.0734691
0.0291654
0.0112273
0.00919726
0.00318613
0.00130697
0.00135445
0.00161325
0.00294527
0.00589876
0.0127436
0.0279749
0.0643596
0.170309
0.41888
0.758622
0.961216
0.999345
0.999998
0.999998
0.99991
0.999207
0.999999
0.999999
1
0.99994
0.994542
0.920279
0.722899
0.644329
0.626034
0.639044
0.600149
0.600565
0.564728
0.577218
0.588971
0.63421
0.64763
0.684455
0.724802
0.741245
0.741052
0.751014
0.812392
0.89197
0.935987
0.952486
0.933673
0.882597
0.798487
0.761222
0.995577
1
1
1
0.996372
0.882043
0.970189
0.95967
0.895001
0.818846
0.776122
0.759023
0.768715
0.772093
0.780665
0.81365
0.836584
0.846275
0.878278
0.910355
0.941123
0.974454
0.994196
0.999599
0.999999
1
1
1
1
1
1
1
1
1
1
1
1
1
1
1
1
1
1
1
1
1
1
1
1
1
1
1
0.999998
0.999988
0.999966
0.9999
0.999778
0.999357
0.998418
0.996315
0.994968
0.994681
0.997485
0.99881
0.999613
0.99973
0.999737
0.999587
0.999052
0.997896
0.993825
0.988334
0.989632
0.99828
1
1
1
1
1
1
1
1
0.999986
0.999509
0.993109
0.983256
0.974335
0.979534
0.980963
0.988089
0.986845
0.988279
0.982609
0.978793
0.967715
0.957726
0.938828
0.921752
0.890205
0.863795
0.866307
0.895074
0.950878
0.98846
0.999998
1
0.997394
0.99971
0.999886
0.999563
0.99735
0.986162
0.951943
0.881452
0.792634
0.697286
0.604817
0.528759
0.485827
0.497982
0.518094
0.503918
0.459147
0.429676
0.37403
0.366873
0.346798
0.36337
0.376285
0.472783
0.643917
0.884675
0.993192
0.999998
1
0.999958
0.830535
0.597497
0.512721
0.505543
0.571471
0.658449
0.757088
0.791343
0.786235
0.780159
0.752433
0.685499
0.676308
0.607656
0.579551
0.598115
0.601708
0.664104
0.714151
0.798151
0.900103
0.967453
0.994363
0.999851
1
1
0.999958
0.999962
1
1
1
1
1
1
0.999992
0.999678
0.997323
0.993602
0.989939
0.988546
0.987297
0.985641
0.985619
0.980513
0.981595
0.973665
0.970515
0.954195
0.941034
0.901012
0.859415
0.795275
0.760352
0.736785
0.776319
0.852452
0.954641
0.996238
0.999976
0.999993
1
0.999245
0.941815
0.807384
0.744965
0.687235
0.564728
0.420866
0.332325
0.281359
0.285812
0.288821
0.305486
0.29271
0.299058
0.261105
0.235282
0.213361
0.179703
0.137283
0.121513
0.12871
0.196563
0.383326
0.664716
0.874462
0.990419
0.999878
0.999116
1
0.999992
0.992735
0.916132
0.792048
0.709505
0.655323
0.62311
0.614141
0.561573
0.567792
0.501721
0.500456
0.481732
0.470702
0.441303
0.466531
0.46741
0.465421
0.479013
0.513197
0.61335
0.77826
0.927262
0.990279
0.99967
0.999998
0.999999
0.999993
1
0.999929
0.896772
0.638747
0.444695
0.345184
0.301984
0.262772
0.229176
0.196591
0.172416
0.171072
0.132729
0.144654
0.126608
0.156995
0.15836
0.176743
0.195068
0.262491
0.429731
0.693712
0.910667
0.987054
0.99966
1
1
1
1
1
1
1
1
0.9999
0.961298
0.688252
0.367102
0.185938
0.0915284
0.0552463
0.0287877
0.0216748
0.0144097
0.0092502
0.00675649
0.00799057
0.00657061
0.011487
0.0217214
0.0407349
0.0754372
0.132125
0.239618
0.486857
0.769008
0.965115
0.999677
1
1
0.999999
1
0.999998
0.99999
0.985226
0.741007
0.353407
0.170775
0.0917599
0.036326
0.0213607
0.0162516
0.00708134
0.002901
0.00301794
0.00186735
0.00223827
0.00259983
0.00551826
0.00854202
0.0194885
0.0327685
0.0842799
0.222652
0.520395
0.854752
0.989409
0.99996
0.999999
0.999846
0.99704
0.999998
0.999997
0.999995
0.999102
0.968764
0.809787
0.66948
0.688755
0.695912
0.718088
0.689139
0.689112
0.690454
0.690545
0.690766
0.6828
0.644534
0.627352
0.634206
0.654667
0.641982
0.618478
0.691573
0.835809
0.941725
0.984382
0.97899
0.92592
0.774495
0.687432
0.994225
1
1
0.999769
0.959208
0.922875
0.962038
0.912283
0.838975
0.793757
0.790433
0.810515
0.838554
0.874305
0.888007
0.900704
0.914569
0.912651
0.894866
0.900724
0.917303
0.953719
0.987375
0.999088
0.99999
1
1
1
1
1
1
1
1
1
1
1
1
1
1
1
1
1
1
1
1
1
1
1
1
1
1
1
0.999994
0.999968
0.999901
0.999665
0.999201
0.997745
0.995129
0.99053
0.990439
0.995287
0.999368
0.999955
0.999998
1
1
0.999996
0.999965
0.999625
0.997752
0.989984
0.986319
0.994667
1
1
0.999999
1
1
1
1
1
0.999968
0.998871
0.986966
0.974852
0.963313
0.973003
0.979616
0.989739
0.991935
0.994435
0.993941
0.994427
0.993557
0.990812
0.985207
0.972656
0.9484
0.915641
0.88575
0.885597
0.925813
0.973008
0.999996
0.999999
0.986464
0.998927
0.999764
0.999351
0.995617
0.976467
0.920782
0.819956
0.703474
0.606879
0.510818
0.453936
0.483838
0.578937
0.682573
0.798096
0.851967
0.810816
0.725691
0.604646
0.508594
0.440561
0.41404
0.440122
0.599516
0.827868
0.985833
0.999985
1
0.999026
0.674735
0.505705
0.462292
0.514992
0.66168
0.796326
0.905465
0.942865
0.964551
0.960196
0.941121
0.917572
0.862444
0.808857
0.730952
0.695684
0.664355
0.693242
0.704313
0.758907
0.841847
0.929161
0.980019
0.998623
0.999994
0.999998
0.999926
0.999968
1
1
1
1
1
0.999999
0.999927
0.998632
0.993723
0.988506
0.983968
0.983485
0.984085
0.987149
0.990693
0.994242
0.997233
0.997848
0.998116
0.996655
0.991942
0.981621
0.951154
0.905835
0.832964
0.785233
0.764849
0.823902
0.922138
0.991337
0.999968
0.999982
0.999988
0.991431
0.907848
0.857917
0.814311
0.669742
0.465298
0.339321
0.299726
0.365459
0.463699
0.590526
0.663403
0.716252
0.697973
0.677615
0.590169
0.469941
0.380538
0.271647
0.189519
0.148423
0.166531
0.293364
0.555092
0.842456
0.98648
0.999798
0.999375
1
0.999895
0.976951
0.866269
0.743221
0.689553
0.664367
0.681586
0.705464
0.732682
0.769648
0.789337
0.791566
0.760197
0.746032
0.670819
0.640758
0.600726
0.545184
0.503521
0.493643
0.541897
0.683767
0.86271
0.972623
0.998318
0.99998
0.999996
0.999995
1
0.999682
0.831344
0.561107
0.40763
0.339211
0.314261
0.294825
0.285901
0.335713
0.34541
0.321923
0.336507
0.296894
0.271631
0.250639
0.229629
0.221001
0.215278
0.232018
0.336021
0.559816
0.818404
0.962943
0.997286
0.999981
1
0.999999
1
1
1
1
1
0.99827
0.881826
0.518003
0.231404
0.10156
0.0597934
0.0410451
0.0340965
0.0435717
0.0450951
0.0508357
0.0494094
0.0387381
0.0324995
0.0319881
0.0298208
0.0420354
0.0633285
0.0981487
0.170263
0.325969
0.641176
0.914806
0.997144
0.999992
0.999998
1
1
0.999994
0.999863
0.939167
0.556846
0.242298
0.110751
0.0434212
0.0279497
0.025297
0.0128844
0.0137923
0.0179311
0.0132842
0.0106044
0.00705959
0.00578855
0.00763402
0.00734436
0.0173936
0.0218624
0.0481708
0.128705
0.345325
0.712641
0.958069
0.999342
0.999996
0.999631
0.991523
0.999993
0.999991
0.999948
0.994442
0.916997
0.733512
0.694711
0.742547
0.76404
0.795259
0.792373
0.842917
0.856493
0.885252
0.860534
0.793131
0.704142
0.595112
0.567472
0.590494
0.581741
0.546375
0.59239
0.779087
0.91931
0.995134
0.99409
0.928747
0.755019
0.624315
0.995674
1
1
0.999364
0.964141
0.959905
0.938937
0.873527
0.816512
0.813144
0.845547
0.89156
0.931227
0.96072
0.978889
0.982113
0.974467
0.96556
0.943415
0.918849
0.904467
0.930455
0.974714
0.998041
0.999986
1
1
1
1
1
1
1
1
1
1
1
1
1
1
1
1
1
1
1
1
1
1
1
1
1
1
1
0.999994
0.99996
0.999826
0.999253
0.997901
0.994475
0.989326
0.980831
0.984766
0.996081
0.999831
0.999997
1
1
1
1
0.999998
0.999943
0.998829
0.992354
0.9816
0.990095
1
1
0.999995
1
1
1
1
1
0.999952
0.998269
0.982922
0.969847
0.95486
0.968437
0.976816
0.990064
0.992787
0.996261
0.997042
0.998945
0.999516
0.999754
0.998991
0.994188
0.977738
0.94555
0.898878
0.879082
0.900506
0.953472
0.999997
0.999996
0.960186
0.997026
0.999638
0.999382
0.995687
0.97282
0.900305
0.783151
0.661909
0.557366
0.45378
0.418653
0.462191
0.56679
0.762488
0.944772
0.994675
0.994363
0.947112
0.822008
0.658087
0.53356
0.440152
0.44987
0.567439
0.814085
0.979431
0.999967
1
0.995367
0.628996
0.470169
0.458624
0.518511
0.69875
0.845457
0.962833
0.992498
0.998853
0.999296
0.99822
0.989547
0.967044
0.920054
0.852596
0.804042
0.723496
0.730915
0.709958
0.749089
0.8031
0.898738
0.965349
0.996181
0.999922
0.999974
0.999875
0.999982
1
1
0.999998
1
1
0.999996
0.999721
0.996777
0.988581
0.978789
0.969252
0.968247
0.97228
0.98137
0.991237
0.99755
0.99968
0.999958
0.999994
0.999979
0.999834
0.998032
0.989022
0.954159
0.893116
0.811754
0.771712
0.794191
0.900321
0.987037
0.999983
0.999969
0.999126
0.971484
0.914206
0.892033
0.791
0.570906
0.339057
0.241923
0.275264
0.418857
0.623355
0.797223
0.915658
0.965826
0.98191
0.961704
0.90377
0.774764
0.605324
0.436128
0.266645
0.18002
0.161938
0.248769
0.499391
0.825905
0.986858
0.999803
0.999754
1
0.999059
0.952445
0.81646
0.697375
0.653366
0.647843
0.692632
0.754679
0.827702
0.914331
0.958536
0.987007
0.987517
0.966363
0.902601
0.807447
0.718316
0.623574
0.534278
0.475469
0.503483
0.619743
0.806288
0.955366
0.997003
0.999953
0.999995
0.999995
1
0.998995
0.786759
0.521449
0.388366
0.322908
0.309468
0.314662
0.358096
0.48624
0.591191
0.723099
0.741811
0.690252
0.523816
0.44973
0.333145
0.285248
0.255154
0.230992
0.296363
0.478815
0.739353
0.933347
0.993624
0.999903
0.999997
0.999999
1
1
1
1
0.999999
0.992295
0.800815
0.390621
0.147134
0.0631804
0.0415455
0.0292703
0.0385463
0.0849923
0.130105
0.245258
0.253492
0.205018
0.0953772
0.0881006
0.0460751
0.0692365
0.0620387
0.0789622
0.137557
0.240969
0.477352
0.841809
0.991062
0.999913
0.999993
0.999999
1
0.999984
0.998355
0.856808
0.449271
0.162738
0.0560192
0.0321305
0.0220412
0.0146746
0.026696
0.0534456
0.0558001
0.0781514
0.0619521
0.0478688
0.0189203
0.0176283
0.00891191
0.0148829
0.0191816
0.0352963
0.0792618
0.248229
0.590827
0.915097
0.997876
0.99997
0.998464
0.978334
0.999949
0.999974
0.999695
0.982576
0.855862
0.720827
0.729264
0.793268
0.827531
0.869231
0.901945
0.955041
0.976013
0.982313
0.964001
0.913391
0.78025
0.615026
0.535647
0.537611
0.561677
0.500855
0.551174
0.742577
0.896307
0.994956
0.990623
0.891692
0.680093
0.603392
0.997318
1
1
0.999772
0.9882
0.963638
0.919363
0.857889
0.826343
0.849391
0.904395
0.950227
0.983992
0.996111
0.999045
0.999354
0.997717
0.990757
0.967616
0.943207
0.907538
0.91089
0.957834
0.995591
0.999982
1
1
1
1
1
1
1
1
1
1
1
1
1
1
1
1
1
1
1
1
1
0.999998
1
1
1
1
1
0.999998
0.999975
0.999847
0.999072
0.996447
0.991015
0.983097
0.970983
0.98088
0.996911
0.999918
0.999999
1
1
1
1
1
0.999973
0.999243
0.991661
0.980357
0.98309
1
1
0.999974
1
1
1
1
1
0.99996
0.998384
0.983464
0.968568
0.950939
0.965063
0.972998
0.988402
0.991679
0.995671
0.997357
0.999508
0.999953
0.999999
0.999987
0.999053
0.987287
0.95419
0.897573
0.863165
0.879219
0.93811
0.999999
0.999986
0.90689
0.992531
0.999611
0.99963
0.996985
0.978253
0.90699
0.776084
0.65207
0.541794
0.442988
0.401785
0.421472
0.533253
0.716908
0.92187
0.993824
0.998554
0.982106
0.894923
0.725725
0.585973
0.448554
0.458843
0.580327
0.813716
0.985551
0.999951
1
0.988714
0.625763
0.474286
0.436942
0.496123
0.6868
0.856028
0.971417
0.996717
0.99991
0.999996
0.999982
0.999457
0.992955
0.970579
0.909959
0.86544
0.778992
0.768161
0.732104
0.752447
0.799882
0.894663
0.962929
0.995829
0.999816
0.999915
0.99987
0.999994
1
1
0.999988
0.999999
1
0.999987
0.999313
0.994027
0.979144
0.959525
0.940649
0.940609
0.949311
0.964039
0.98648
0.996161
0.999779
0.999993
1
1
0.999998
0.99976
0.994949
0.97144
0.902418
0.818813
0.752821
0.77769
0.890389
0.987419
0.999992
0.99991
0.991125
0.941165
0.935691
0.883025
0.73537
0.472036
0.24012
0.179729
0.231171
0.406732
0.643787
0.843738
0.954815
0.996141
0.999926
0.999882
0.990049
0.909468
0.74991
0.528466
0.33009
0.191082
0.165874
0.231215
0.48664
0.836596
0.989844
0.999826
0.99998
0.999997
0.994421
0.921152
0.763462
0.644792
0.601331
0.607736
0.658908
0.732381
0.837216
0.927915
0.985811
0.999587
0.999997
0.999315
0.977963
0.895156
0.792415
0.656008
0.552328
0.47963
0.47916
0.588321
0.788777
0.948672
0.996931
0.999967
0.999995
0.999943
0.999996
0.997407
0.769611
0.50599
0.35922
0.297961
0.280185
0.31197
0.374709
0.568957
0.758605
0.954531
0.996249
0.978379
0.827018
0.662884
0.452484
0.366344
0.282816
0.245115
0.29137
0.451635
0.704835
0.921407
0.993433
0.999878
0.999998
1
1
1
1
0.999999
0.999886
0.977402
0.735309
0.314234
0.108788
0.0441337
0.0302338
0.018634
0.0537238
0.0894329
0.235382
0.527462
0.836122
0.790858
0.433032
0.14428
0.128562
0.0589726
0.0836534
0.0712843
0.101922
0.207138
0.451254
0.810008
0.991718
0.999953
0.999998
0.999998
0.999999
0.999917
0.991856
0.811143
0.345375
0.0931667
0.0448732
0.0172069
0.0109059
0.0240858
0.0384646
0.0647003
0.173731
0.44453
0.543281
0.275125
0.0733854
0.0436205
0.0148716
0.0170087
0.0157524
0.0372337
0.054778
0.192678
0.512122
0.879325
0.995825
0.999821
0.992037
0.940213
0.99925
0.999943
0.999178
0.971707
0.829577
0.731632
0.772443
0.841896
0.878668
0.928095
0.964015
0.994516
0.999214
0.999603
0.996475
0.964707
0.858366
0.654677
0.506338
0.551651
0.600543
0.550909
0.5776
0.712138
0.849082
0.971411
0.940723
0.777648
0.642329
0.680409
0.999269
1
1
0.999946
0.994878
0.969404
0.915418
0.86635
0.861541
0.883951
0.939109
0.983475
0.997865
0.999951
1
0.999998
0.999814
0.997328
0.977862
0.946875
0.906379
0.900888
0.94263
0.992238
0.999956
1
1
1
1
1
1
1
1
1
1
1
1
1
1
1
1
1
1
1
1
1
1
0.999914
0.999992
1
1
1
1
1
1
0.999997
0.999957
0.999503
0.996933
0.990004
0.979726
0.966292
0.979649
0.997493
0.999909
0.999997
1
1
1
1
1
0.999975
0.999018
0.992094
0.977631
0.984655
0.998095
0.999999
0.999998
0.999861
0.999872
0.999999
1
1
1
1
0.999981
0.99907
0.987323
0.974128
0.953351
0.964364
0.968638
0.985051
0.986582
0.992674
0.994495
0.998635
0.999804
0.999991
0.999974
0.9987
0.983984
0.941393
0.879246
0.844179
0.857585
0.930589
0.998448
0.999997
0.999881
0.9376
0.861533
0.986448
0.99961
0.999875
0.99885
0.986673
0.93187
0.811516
0.678211
0.586456
0.491603
0.422475
0.424641
0.479588
0.627802
0.808267
0.925769
0.966209
0.945145
0.863129
0.708968
0.575626
0.471627
0.490975
0.625494
0.858487
0.98641
0.999498
0.999862
0.999981
0.999828
0.906922
0.705912
0.521642
0.425366
0.457816
0.617548
0.77815
0.933426
0.98191
0.998313
0.99986
0.999904
0.999328
0.992301
0.97668
0.92074
0.884468
0.804123
0.794788
0.751395
0.775071
0.821872
0.908962
0.975991
0.997887
0.999865
0.999889
0.999884
0.999981
0.999998
1
0.999995
0.999593
0.999895
0.999991
0.999996
0.999952
0.998909
0.991636
0.971328
0.938693
0.907902
0.903013
0.911749
0.934767
0.966244
0.986438
0.998109
0.999746
0.999982
0.999996
0.999952
0.999135
0.989891
0.955878
0.873793
0.778376
0.722891
0.771977
0.909148
0.990311
0.999002
0.997858
0.98293
0.739311
0.82257
0.906218
0.915248
0.856286
0.693851
0.419709
0.188665
0.123189
0.162598
0.306203
0.528402
0.741407
0.89862
0.980339
0.997981
0.998461
0.986171
0.903459
0.738834
0.528687
0.303482
0.183481
0.153237
0.243834
0.520939
0.878823
0.997442
0.99998
0.999842
0.999968
0.999806
0.988357
0.965675
0.860589
0.698699
0.589068
0.543203
0.55486
0.58585
0.656732
0.750197
0.846215
0.932339
0.986037
0.998007
0.994706
0.962531
0.889356
0.768158
0.637283
0.540646
0.469855
0.47248
0.581525
0.778744
0.947481
0.997921
0.999957
0.998805
0.975571
0.966535
0.999374
0.998151
0.881064
0.650011
0.435821
0.322548
0.264861
0.247762
0.270232
0.321691
0.47401
0.657325
0.893493
0.989663
0.990178
0.887791
0.734661
0.507428
0.416808
0.292949
0.268949
0.310714
0.46507
0.720191
0.931353
0.996381
0.999977
1
1
1
0.999997
0.999905
0.999925
0.999858
0.998713
0.997865
0.96184
0.705685
0.292934
0.0926398
0.038804
0.0169789
0.0188755
0.0237775
0.0658755
0.124402
0.3816
0.66399
0.742107
0.48616
0.176244
0.123726
0.0866422
0.0589667
0.0725383
0.0969202
0.172252
0.439552
0.831964
0.994045
0.999997
0.99999
0.999372
0.993665
0.999415
0.998879
0.985257
0.968315
0.699502
0.247635
0.0861325
0.0289626
0.00945937
0.0135956
0.0129001
0.0243871
0.0703339
0.156955
0.426096
0.734915
0.546444
0.125986
0.0646634
0.0177486
0.0232385
0.0130901
0.0335012
0.0535545
0.158605
0.478299
0.84549
0.991755
0.999102
0.985899
0.913634
0.936136
0.999978
0.999979
0.998833
0.996723
0.956037
0.813262
0.747146
0.807181
0.869579
0.912908
0.956829
0.985864
0.999404
0.999997
0.999998
0.999287
0.982691
0.890157
0.675731
0.545441
0.574698
0.651799
0.610796
0.660936
0.789297
0.842771
0.887828
0.83508
0.714454
0.624187
0.647036
0.885304
0.999983
1
0.999991
0.999995
0.999933
0.99737
0.978381
0.930514
0.886146
0.88856
0.917048
0.956524
0.991623
0.999471
0.999997
1
1
0.99978
0.996426
0.973836
0.942239
0.892159
0.889187
0.931824
0.989058
0.999903
1
1
1
1
1
1
1
1
1
1
1
1
1
1
1
1
1
1
1
1
1
1
1
1
0.999926
0.999982
1
1
1
1
1
1
1
0.999999
0.999967
0.999045
0.992932
0.982477
0.968947
0.981571
0.997474
0.999834
0.999987
0.999999
1
1
1
0.999998
0.999924
0.998509
0.991876
0.984294
0.991067
0.995898
0.999952
0.999958
0.999647
0.999719
0.999993
1
1
1
1
0.999997
0.999612
0.993942
0.980486
0.965736
0.963451
0.969053
0.977651
0.979339
0.981661
0.984558
0.988805
0.995374
0.997783
0.996811
0.988982
0.957249
0.907852
0.848904
0.825677
0.84927
0.934957
0.996262
0.999966
0.998781
0.848645
0.859099
0.97741
0.999599
0.999969
0.999767
0.995582
0.96328
0.873775
0.758595
0.67323
0.562344
0.49596
0.449872
0.448459
0.501022
0.59748
0.719305
0.782828
0.760538
0.700653
0.621164
0.539828
0.506612
0.552792
0.700386
0.898874
0.988187
0.999219
0.999939
0.999959
0.999291
0.934638
0.771264
0.551564
0.437341
0.412996
0.531498
0.630309
0.795442
0.882242
0.939688
0.966256
0.975734
0.97161
0.957325
0.935095
0.876501
0.864005
0.79769
0.790759
0.783313
0.801746
0.85762
0.941983
0.991328
0.999707
0.999993
0.999997
0.999998
1
0.999998
0.99997
0.999717
0.998213
0.999549
0.999957
0.999985
0.999933
0.998942
0.991781
0.967875
0.925415
0.878125
0.858098
0.870237
0.882812
0.919375
0.947976
0.978274
0.99058
0.995566
0.995757
0.994139
0.980921
0.951858
0.880517
0.789307
0.705763
0.709515
0.803033
0.938058
0.984475
0.964631
0.780494
0.563381
0.530023
0.796641
0.916964
0.914083
0.860515
0.709334
0.444522
0.181646
0.0909497
0.0949333
0.185014
0.320639
0.50578
0.668335
0.805563
0.883875
0.887034
0.858503
0.728551
0.595281
0.379378
0.221543
0.145329
0.156234
0.26561
0.568097
0.909377
0.998787
0.999728
0.997543
0.993519
0.993137
0.993807
0.971257
0.858191
0.685169
0.558373
0.497763
0.489969
0.506925
0.549874
0.595238
0.664283
0.732582
0.790428
0.837313
0.840203
0.797316
0.760746
0.640263
0.576041
0.496062
0.459443
0.472631
0.589825
0.777434
0.942897
0.997056
0.999859
0.999212
0.993157
0.979865
0.974988
0.95456
0.856033
0.616611
0.412196
0.303187
0.242092
0.211998
0.215814
0.226249
0.304972
0.385482
0.55196
0.67407
0.738699
0.654726
0.60954
0.427545
0.389244
0.290882
0.300732
0.342075
0.520886
0.763817
0.953804
0.998286
0.999999
1
0.999996
0.999882
0.99933
0.998653
0.998292
0.998647
0.999457
0.998838
0.971637
0.760317
0.340633
0.109421
0.0346936
0.0169959
0.0133835
0.0118688
0.0260315
0.0352117
0.0826326
0.139596
0.210518
0.117813
0.137183
0.066592
0.0650763
0.0532145
0.0612542
0.0905497
0.194354
0.443214
0.858796
0.998291
0.999996
0.999929
0.998462
0.994308
0.992584
0.99583
0.99812
0.978891
0.699647
0.293531
0.0742702
0.0219941
0.0148321
0.00738236
0.00593033
0.0149635
0.0238391
0.0369521
0.0997038
0.13228
0.174455
0.0536958
0.0576595
0.014242
0.0231082
0.0166931
0.0286611
0.0645188
0.158711
0.443037
0.821495
0.986881
0.999734
0.998916
0.974674
0.967269
0.998633
0.999618
0.999485
0.997561
0.965945
0.841613
0.774066
0.827561
0.889933
0.932426
0.964551
0.988069
0.999233
0.999971
0.999948
0.998412
0.979607
0.876417
0.705395
0.567547
0.636764
0.774377
0.751571
0.790242
0.864462
0.88058
0.858717
0.752324
0.578281
0.437155
0.427721
0.69009
0.984227
0.998613
0.999897
0.999992
0.999985
0.999451
0.990358
0.9561
0.918343