/*--------------------------------*- C++ -*----------------------------------*\
| =========                 |                                                 |
| \\      /  F ield         | OpenFOAM: The Open Source CFD Toolbox           |
|  \\    /   O peration     | Version:  2.1.1                                 |
|   \\  /    A nd           | Web:      www.OpenFOAM.org                      |
|    \\/     M anipulation  |                                                 |
\*---------------------------------------------------------------------------*/
FoamFile
{
    version     2.0;
    format      ascii;
    class       volScalarField;
    location    "0.006200000";
    object      N2;
}
// * * * * * * * * * * * * * * * * * * * * * * * * * * * * * * * * * * * * * //

dimensions      [0 0 0 0 0 0 0];

internalField   nonuniform List<scalar> 
12384
(
0.74531
0.745632
0.745737
0.745635
0.745464
0.7453
0.745169
0.745082
0.745034
0.745035
0.745055
0.745105
0.744737
0.743517
0.74881
0.74796
0.747779
0.747767
0.747777
0.747829
0.747935
0.748077
0.748193
0.748255
0.748283
0.74829
0.748279
0.748259
0.748231
0.748222
0.748157
0.748204
0.748125
0.748197
0.748172
0.748219
0.748225
0.748246
0.748279
0.748246
0.748142
0.748285
0.74924
0.749478
0.746424
0.746646
0.746145
0.7458
0.745561
0.745317
0.745167
0.744982
0.744831
0.744675
0.744462
0.744389
0.744217
0.744277
0.74415
0.744249
0.744179
0.744266
0.744281
0.744358
0.744461
0.744575
0.744687
0.744824
0.744996
0.745189
0.745445
0.745756
0.745455
0.745018
0.743868
0.744037
0.743946
0.743868
0.74383
0.743813
0.743814
0.743822
0.743831
0.743837
0.743852
0.743864
0.743886
0.743884
0.743873
0.743819
0.743851
0.743902
0.743903
0.743987
0.743887
0.743892
0.743865
0.743906
0.743934
0.744202
0.744162
0.743877
0.743735
0.743705
0.74151
0.741457
0.741793
0.742081
0.742298
0.74247
0.742599
0.742682
0.742708
0.742703
0.742736
0.742547
0.742499
0.742114
0.74205
0.741799
0.741484
0.741324
0.741589
0.742344
0.743457
0.744216
0.744191
0.743744
0.743569
0.743492
0.743458
0.743526
0.743669
0.743777
0.739354
0.738462
0.738604
0.739088
0.739521
0.739882
0.74012
0.740155
0.740147
0.740079
0.740141
0.740063
0.74017
0.740111
0.740178
0.740118
0.740178
0.740144
0.740166
0.740165
0.740187
0.740212
0.740234
0.740252
0.740265
0.740227
0.740065
0.740456
0.74091
0.740751
0.743154
0.743484
0.743944
0.743597
0.743011
0.742573
0.742399
0.742413
0.742534
0.74263
0.742728
0.742794
0.742866
0.742851
0.742895
0.742805
0.742843
0.742749
0.742734
0.742658
0.742575
0.742528
0.742496
0.742761
0.745575
0.746609
0.746651
0.746698
0.746729
0.746717
0.743507
0.742106
0.740257
0.739343
0.739209
0.739242
0.739286
0.739359
0.739409
0.739491
0.73942
0.739486
0.739419
0.739424
0.739409
0.739402
0.739381
0.739382
0.739402
0.739407
0.739254
0.739423
0.740924
0.741394
0.741361
0.7413
0.741223
0.741176
0.741192
0.741239
0.742009
0.741116
0.740835
0.740922
0.74108
0.741226
0.741351
0.741426
0.741513
0.741534
0.741587
0.741626
0.741557
0.741626
0.741521
0.741493
0.741363
0.741228
0.741027
0.739884
0.735202
0.734182
0.734996
0.735883
0.736373
0.736556
0.736385
0.735945
0.735077
0.734336
0.742774
0.740891
0.740044
0.739743
0.739703
0.739792
0.739945
0.740122
0.740289
0.740429
0.740537
0.740539
0.740682
0.74065
0.74072
0.740698
0.740725
0.740637
0.740645
0.740639
0.740645
0.740501
0.739293
0.738684
0.738555
0.738526
0.738535
0.738545
0.73851
0.738474
0.738954
0.738651
0.738644
0.738574
0.738551
0.738588
0.73866
0.738739
0.738825
0.738833
0.739012
0.738945
0.739086
0.739093
0.739101
0.739112
0.739122
0.739141
0.739206
0.739309
0.738949
0.737604
0.737255
0.737146
0.736978
0.736772
0.736634
0.736661
0.736804
0.737042
0.740341
0.740839
0.740866
0.739824
0.738116
0.738081
0.739792
0.740522
0.740558
0.740599
0.740469
0.74035
0.740244
0.740161
0.740149
0.740212
0.740299
0.740398
0.740449
0.740428
0.740322
0.740197
0.740062
0.739953
0.739881
0.739849
0.739765
0.73956
0.738712
0.739078
0.741062
0.740847
0.742186
0.745407
0.749083
0.751934
0.749483
0.731816
0.723432
0.723129
0.723591
0.724162
0.724731
0.72529
0.725821
0.726347
0.726928
0.727584
0.728305
0.729018
0.729549
0.729694
0.728521
0.726443
0.724317
0.722938
0.722775
0.722975
0.724626
0.738531
0.747094
0.746842
0.746161
0.745621
0.745234
0.74497
0.744749
0.744518
0.744338
0.744283
0.744422
0.744762
0.744701
0.743696
0.748758
0.747876
0.74767
0.747652
0.747706
0.747911
0.748241
0.748447
0.748469
0.748391
0.748244
0.748058
0.747857
0.747646
0.747458
0.747299
0.747214
0.747183
0.747229
0.747302
0.747432
0.74758
0.74776
0.747955
0.748132
0.74824
0.748202
0.748195
0.748583
0.749201
0.746434
0.746498
0.745858
0.745443
0.745145
0.744969
0.744853
0.74466
0.744398
0.744005
0.743713
0.743494
0.743469
0.743468
0.743588
0.743612
0.743722
0.743751
0.743785
0.743797
0.743828
0.743918
0.744052
0.744274
0.744558
0.74488
0.745209
0.745589
0.745709
0.745214
0.743873
0.744002
0.743856
0.743772
0.743789
0.743827
0.743859
0.743875
0.743882
0.743899
0.743929
0.743991
0.744068
0.744153
0.744214
0.744255
0.744336
0.7444
0.744436
0.744372
0.744291
0.744194
0.744096
0.74402
0.743958
0.744065
0.744236
0.743941
0.743461
0.743434
0.741178
0.741754
0.742284
0.742714
0.743096
0.743392
0.743635
0.74382
0.743939
0.744024
0.744067
0.74406
0.743947
0.743693
0.743279
0.742759
0.742145
0.741611
0.741464
0.741825
0.7426
0.743754
0.74412
0.74334
0.742926
0.742843
0.742885
0.742903
0.742969
0.743213
0.739259
0.738512
0.739039
0.739801
0.740245
0.740381
0.740248
0.739999
0.739852
0.739846
0.739867
0.739932
0.739928
0.739999
0.739939
0.73998
0.739966
0.739995
0.740013
0.740052
0.740088
0.740128
0.74016
0.74021
0.740253
0.740272
0.740159
0.740073
0.740212
0.739953
0.743167
0.743559
0.743098
0.742004
0.741774
0.742262
0.742878
0.743317
0.743526
0.743656
0.743724
0.743775
0.743808
0.743833
0.743862
0.743846
0.743829
0.743755
0.743644
0.743461
0.743211
0.742941
0.742698
0.742636
0.743774
0.746122
0.74705
0.747065
0.746863
0.746921
0.741375
0.739181
0.738815
0.739055
0.739286
0.739412
0.739378
0.739378
0.739281
0.739283
0.739199
0.739152
0.739135
0.73913
0.73915
0.739193
0.73924
0.739296
0.739355
0.739407
0.739355
0.739226
0.739989
0.741255
0.741329
0.741102
0.740843
0.740625
0.740546
0.740686
0.741328
0.740641
0.740929
0.741361
0.741692
0.741927
0.742066
0.742191
0.742277
0.742353
0.742442
0.742474
0.742461
0.742407
0.742339
0.742157
0.741898
0.74162
0.741347
0.74079
0.73833
0.734948
0.736481
0.738076
0.738301
0.738094
0.738011
0.738113
0.737952
0.736992
0.742932
0.740711
0.739726
0.739638
0.739889
0.740345
0.740849
0.741284
0.741633
0.741907
0.742072
0.742206
0.742246
0.742214
0.742172
0.742025
0.741836
0.74156
0.741292
0.741058
0.740843
0.740722
0.740212
0.739102
0.738518
0.738548
0.738736
0.738882
0.738815
0.738568
0.739064
0.738609
0.738447
0.738398
0.738564
0.738844
0.739114
0.739398
0.739587
0.739788
0.739964
0.740107
0.740123
0.740085
0.740014
0.739898
0.739741
0.739563
0.739431
0.739391
0.739291
0.738443
0.737224
0.736407
0.735893
0.735705
0.735782
0.735952
0.736081
0.73618
0.738743
0.739076
0.739342
0.738411
0.738117
0.739378
0.740367
0.740435
0.740004
0.739439
0.738939
0.738618
0.738431
0.738392
0.738444
0.738612
0.73893
0.739374
0.739792
0.740035
0.739961
0.739596
0.739275
0.73908
0.739088
0.739222
0.739424
0.739476
0.738892
0.738944
0.733146
0.733064
0.733513
0.737403
0.747041
0.74988
0.737231
0.725482
0.723412
0.723848
0.724579
0.725219
0.725741
0.726123
0.726403
0.726664
0.727035
0.727655
0.728675
0.730248
0.732281
0.734114
0.734634
0.732379
0.728039
0.724487
0.722996
0.723127
0.725212
0.740136
0.747056
0.746434
0.74598
0.745883
0.745902
0.745831
0.745649
0.745355
0.744928
0.744465
0.744167
0.744328
0.744551
0.74381
0.748679
0.747763
0.747512
0.747487
0.747648
0.748143
0.748525
0.748557
0.748346
0.748047
0.747734
0.747382
0.746986
0.746595
0.746264
0.746059
0.74604
0.746167
0.746408
0.746667
0.746908
0.747101
0.747302
0.747539
0.747823
0.748076
0.748203
0.748182
0.748275
0.748891
0.746413
0.746331
0.745647
0.745315
0.745208
0.745234
0.745217
0.744989
0.744535
0.744031
0.743474
0.743128
0.743217
0.743384
0.743704
0.744076
0.744356
0.744521
0.744567
0.744512
0.744376
0.744217
0.744126
0.744161
0.744302
0.744567
0.744927
0.745363
0.745696
0.745411
0.743872
0.743964
0.743801
0.743786
0.743862
0.743931
0.743945
0.743924
0.743895
0.743882
0.743917
0.744023
0.744182
0.744365
0.744526
0.744644
0.744753
0.744835
0.744878
0.744905
0.744812
0.744644
0.744419
0.744246
0.744073
0.744015
0.74417
0.74413
0.743652
0.743426
0.741456
0.742045
0.74252
0.743015
0.743474
0.743832
0.744082
0.74423
0.744316
0.744373
0.744414
0.744451
0.744465
0.744412
0.744179
0.743723
0.743025
0.742218
0.74162
0.741556
0.741984
0.742991
0.744003
0.743243
0.742774
0.74283
0.742946
0.742772
0.742476
0.742653
0.73917
0.738707
0.739562
0.740273
0.74043
0.740076
0.739679
0.739559
0.739598
0.739717
0.739832
0.739854
0.739824
0.739789
0.739758
0.739714
0.739721
0.739773
0.739857
0.739917
0.73999
0.740045
0.740092
0.740147
0.740213
0.740277
0.740262
0.740123
0.739976
0.739733
0.74324
0.743177
0.741317
0.741687
0.742957
0.743668
0.743806
0.74356
0.743302
0.74315
0.743117
0.743136
0.743166
0.743225
0.743304
0.743407
0.743518
0.743624
0.74371
0.743744
0.743644
0.743409
0.743089
0.742766
0.74294
0.744564
0.746379
0.746621
0.746265
0.746704
0.738985
0.738714
0.739121
0.739411
0.73936
0.739239
0.739054
0.738936
0.738862
0.738729
0.738694
0.738605
0.738552
0.738561
0.73859
0.738672
0.738791
0.738949
0.739122
0.739284
0.739372
0.739231
0.739325
0.740529
0.741311
0.741261
0.740875
0.740371
0.739945
0.740009
0.740347
0.740882
0.741479
0.741854
0.742052
0.742211
0.742334
0.742489
0.742624
0.742754
0.74286
0.742954
0.742947
0.742921
0.742827
0.74268
0.742479
0.742149
0.741763
0.741358
0.74026
0.737173
0.736458
0.738219
0.738257
0.737686
0.737566
0.738083
0.738596
0.738346
0.742895
0.740292
0.739639
0.739881
0.740541
0.741287
0.741912
0.742423
0.742803
0.743104
0.743303
0.743449
0.743512
0.74349
0.743428
0.743257
0.743033
0.74269
0.742243
0.741784
0.741341
0.741021
0.740726
0.73991
0.738789
0.738534
0.738813
0.73913
0.739168
0.738788
0.73911
0.738591
0.738296
0.73854
0.738983
0.739395
0.739766
0.740158
0.7405
0.740874
0.741141
0.741347
0.741469
0.741487
0.741333
0.741073
0.740729
0.740348
0.739966
0.739679
0.739525
0.739089
0.73794
0.736526
0.735636
0.735489
0.735825
0.736275
0.736441
0.736168
0.738271
0.738273
0.738133
0.738
0.739031
0.740202
0.740324
0.739622
0.738702
0.738055
0.737725
0.737586
0.737557
0.73756
0.737571
0.73765
0.737848
0.738251
0.738941
0.739588
0.739743
0.739126
0.738633
0.738522
0.738608
0.738766
0.739053
0.739359
0.738982
0.738848
0.73391
0.733385
0.734641
0.739697
0.74711
0.741065
0.727379
0.723596
0.723962
0.724778
0.725446
0.725937
0.726242
0.726397
0.72646
0.726423
0.726342
0.726298
0.726414
0.727046
0.728795
0.732406
0.735708
0.736284
0.732808
0.727529
0.724574
0.724806
0.728499
0.743525
0.74694
0.746658
0.746969
0.747079
0.746873
0.746598
0.746372
0.746157
0.74583
0.74526
0.744523
0.744165
0.74436
0.743847
0.748599
0.747621
0.747306
0.747293
0.747716
0.748411
0.748631
0.748504
0.748238
0.74798
0.747647
0.747145
0.746505
0.745864
0.745389
0.745238
0.745421
0.745843
0.746321
0.746738
0.747032
0.747187
0.74725
0.747342
0.747537
0.747855
0.748115
0.748191
0.748174
0.748688
0.746373
0.746214
0.745578
0.745404
0.745467
0.745646
0.745639
0.7454
0.744873
0.74418
0.743248
0.742756
0.742966
0.743454
0.74406
0.744627
0.745031
0.745289
0.745403
0.745395
0.745298
0.74507
0.744752
0.744469
0.74437
0.744482
0.744751
0.745179
0.745631
0.745498
0.743861
0.743935
0.743798
0.743855
0.743964
0.744004
0.743968
0.74391
0.743843
0.743811
0.743844
0.744012
0.744269
0.744547
0.74478
0.74496
0.745084
0.745131
0.745188
0.745152
0.745107
0.745004
0.744797
0.744529
0.74425
0.744048
0.74411
0.744211
0.743934
0.743523
0.742094
0.742283
0.742833
0.743443
0.743922
0.744216
0.744365
0.744407
0.744406
0.744396
0.744399
0.744404
0.744461
0.744506
0.744515
0.744266
0.743718
0.742869
0.741992
0.74152
0.74169
0.742404
0.743683
0.743447
0.742786
0.74296
0.743288
0.743021
0.742215
0.742104
0.739118
0.738982
0.740022
0.740422
0.740091
0.739506
0.739354
0.73948
0.739676
0.739742
0.739725
0.739668
0.739514
0.739445
0.739385
0.739355
0.739364
0.739414
0.739514
0.739641
0.739795
0.739916
0.740015
0.740099
0.740172
0.740257
0.740302
0.740224
0.739983
0.739672
0.743177
0.741898
0.741114
0.743224
0.743917
0.743325
0.742457
0.741956
0.741916
0.742072
0.742265
0.742371
0.742422
0.742399
0.742411
0.742461
0.742602
0.742814
0.743085
0.743372
0.743559
0.743592
0.743394
0.743035
0.742835
0.743524
0.745184
0.745809
0.745508
0.746395
0.737869
0.739031
0.739379
0.739306
0.739136
0.738937
0.738791
0.738616
0.738528
0.738403
0.73828
0.738214
0.738145
0.738119
0.738148
0.738202
0.738311
0.738514
0.738766
0.739032
0.739258
0.739287
0.739184
0.739696
0.740847
0.741334
0.741131
0.740362
0.739641
0.739501
0.740976
0.741429
0.741768
0.741981
0.742156
0.742369
0.742659
0.742962
0.743272
0.743491
0.743652
0.743673
0.743651
0.743534
0.743381
0.743192
0.742955
0.742624
0.742196
0.741732
0.741149
0.739266
0.737025
0.737535
0.738253
0.73757
0.737406
0.737934
0.738604
0.738714
0.742661
0.739908
0.739791
0.740436
0.74135
0.742124
0.742711
0.743193
0.743608
0.743942
0.744205
0.744342
0.744425
0.74439
0.744318
0.744205
0.743975
0.743609
0.743145
0.742586
0.742
0.741454
0.741079
0.740503
0.739388
0.738614
0.738629
0.739077
0.739148
0.738798
0.738885
0.738234
0.738413
0.738956
0.739423
0.73985
0.740355
0.740962
0.741605
0.742196
0.74271
0.742987
0.743185
0.743129
0.742892
0.742465
0.74195
0.741365
0.740752
0.740193
0.739813
0.73948
0.738664
0.737312
0.735796
0.735454
0.735852
0.736597
0.736928
0.736694
0.73793
0.73772
0.737727
0.738583
0.739881
0.740345
0.739697
0.738569
0.737858
0.737578
0.737612
0.737724
0.737802
0.737783
0.737678
0.737547
0.737521
0.737698
0.738295
0.739211
0.739665
0.739023
0.738396
0.738609
0.738941
0.739086
0.739174
0.739377
0.739028
0.738755
0.736057
0.735201
0.739148
0.743166
0.743233
0.731261
0.724012
0.723946
0.72487
0.725823
0.726646
0.727384
0.727986
0.72836
0.728454
0.728275
0.727878
0.727367
0.726811
0.726317
0.726208
0.727822
0.73262
0.737041
0.736586
0.732986
0.729666
0.72953
0.734164
0.746303
0.747237
0.747622
0.747799
0.747361
0.746725
0.746359
0.746281
0.746271
0.746169
0.745847
0.745044
0.744277
0.744232
0.743847
0.74852
0.747445
0.747053
0.747126
0.747851
0.748543
0.748695
0.748619
0.748507
0.748343
0.747959
0.747249
0.746301
0.745369
0.744842
0.744887
0.745368
0.746095
0.746711
0.747108
0.747281
0.747311
0.74724
0.747196
0.747329
0.747631
0.748006
0.748179
0.748168
0.74858
0.74633
0.746151
0.745588
0.74555
0.745709
0.745882
0.745874
0.745588
0.745063
0.744158
0.742911
0.742477
0.742915
0.743672
0.744362
0.744993
0.745353
0.7456
0.74569
0.745723
0.74571
0.745617
0.745383
0.745033
0.744708
0.744599
0.74474
0.745089
0.74558
0.745526
0.743853
0.743917
0.743829
0.743938
0.744042
0.744016
0.743918
0.743823
0.743759
0.743724
0.743765
0.744006
0.744361
0.744705
0.744966
0.745182
0.745304
0.745377
0.745393
0.745391
0.745331
0.745232
0.745041
0.744758
0.744413
0.744114
0.744079
0.744223
0.74409
0.743618
0.742003
0.742506
0.743231
0.743833
0.744198
0.74436
0.744376
0.744328
0.744277
0.744246
0.74424
0.744266
0.744317
0.744394
0.744517
0.74449
0.744107
0.743358
0.742365
0.741615
0.74155
0.742058
0.743288
0.743663
0.742982
0.74305
0.743593
0.743405
0.74216
0.741655
0.739109
0.739294
0.740251
0.740229
0.73955
0.739212
0.739335
0.739532
0.739648
0.73964
0.739544
0.739491
0.739347
0.739334
0.73926
0.739202
0.739153
0.739145
0.739191
0.739332
0.739513
0.73972
0.73989
0.740019
0.740124
0.740229
0.740316
0.740288
0.740041
0.739657
0.742793
0.741093
0.742762
0.743857
0.742748
0.741387
0.740796
0.741081
0.741652
0.742094
0.742268
0.742201
0.74203
0.741871
0.741732
0.741706
0.741777
0.741962
0.742279
0.742705
0.743142
0.743434
0.743493
0.743263
0.74292
0.743094
0.744156
0.744898
0.744944
0.746067
0.737877
0.739104
0.739254
0.739191
0.738995
0.738758
0.738619
0.738442
0.738368
0.738209
0.738071
0.737984
0.737845
0.737816
0.737795
0.737812
0.737912
0.738103
0.738389
0.738728
0.739062
0.739261
0.739192
0.739251
0.740108
0.740992
0.741041
0.740213
0.739492
0.739249
0.741312
0.741583
0.74184
0.742054
0.742334
0.742762
0.74327
0.743771
0.744198
0.744484
0.744665
0.744736
0.744591
0.74442
0.744078
0.743714
0.74339
0.743032
0.742597
0.742075
0.741602
0.740562
0.738402
0.737443
0.737688
0.737423
0.737484
0.738125
0.738732
0.738861
0.741964
0.739794
0.740131
0.741094
0.741978
0.742616
0.743155
0.743679
0.744148
0.744538
0.744786
0.744911
0.745008
0.745
0.744954
0.744832
0.744624
0.744284
0.743831
0.743278
0.742607
0.741938
0.741408
0.740909
0.739957
0.738954
0.738721
0.739043
0.738867
0.738591
0.738514
0.738122
0.738745
0.739266
0.73969
0.740263
0.741045
0.742015
0.74296
0.743767
0.744403
0.744847
0.745
0.744941
0.744592
0.744061
0.743292
0.742494
0.741658
0.74085
0.740204
0.739771
0.739182
0.738135
0.736436
0.73551
0.735769
0.736844
0.737173
0.737011
0.73771
0.737542
0.738072
0.739326
0.740247
0.740069
0.738939
0.737934
0.737609
0.737718
0.738017
0.738248
0.738324
0.738273
0.738132
0.737906
0.73765
0.737562
0.737858
0.738792
0.739508
0.739086
0.738411
0.739393
0.740214
0.740207
0.739811
0.739616
0.73907
0.738728
0.737411
0.736227
0.740695
0.741955
0.736519
0.726533
0.723973
0.724708
0.725932
0.727133
0.7283
0.729381
0.730207
0.73069
0.730761
0.730393
0.729696
0.7289
0.728095
0.727324
0.7265
0.725903
0.727606
0.734217
0.73781
0.735889
0.734569
0.73518
0.739866
0.748377
0.747777
0.748376
0.747957
0.746799
0.746002
0.745861
0.746066
0.746315
0.746383
0.746185
0.745509
0.744499
0.744176
0.743812
0.748454
0.747295
0.746789
0.746909
0.747825
0.74859
0.748808
0.748869
0.748898
0.748805
0.748424
0.747595
0.746373
0.745154
0.744637
0.744905
0.745801
0.746694
0.747211
0.747347
0.74726
0.747096
0.746981
0.74697
0.747113
0.747466
0.747894
0.748177
0.748159
0.748527
0.746292
0.746139
0.745621
0.745655
0.745841
0.745939
0.745789
0.745377
0.744981
0.743957
0.742634
0.74241
0.74314
0.74404
0.744756
0.745304
0.745578
0.745716
0.745725
0.74574
0.745737
0.745735
0.745671
0.745454
0.745109
0.744842
0.744839
0.745101
0.745571
0.745533
0.743842
0.743909
0.743859
0.744014
0.74407
0.743903
0.743685
0.743576
0.743632
0.743665
0.743694
0.743978
0.744404
0.744787
0.745074
0.745338
0.745505
0.745595
0.745616
0.745582
0.745502
0.745389
0.745205
0.744911
0.744534
0.744165
0.744068
0.744208
0.744159
0.743655
0.742206
0.742814
0.743494
0.744002
0.744269
0.744344
0.744294
0.744215
0.744163
0.744131
0.744139
0.744159
0.744223
0.744315
0.744451
0.744512
0.744263
0.743618
0.742616
0.74174
0.741512
0.741892
0.742951
0.743659
0.743345
0.743346
0.74384
0.743599
0.74215
0.741284
0.73914
0.739622
0.740334
0.7398
0.739161
0.739104
0.73932
0.739501
0.739605
0.739602
0.739545
0.739484
0.739407
0.739337
0.739263
0.739139
0.73907
0.739034
0.739043
0.739106
0.73928
0.739506
0.739741
0.739922
0.740071
0.740205
0.740316
0.74033
0.740077
0.739626
0.742343
0.741495
0.74349
0.74269
0.740795
0.739922
0.740275
0.741258
0.742093
0.742366
0.742222
0.741887
0.741529
0.741247
0.741064
0.741001
0.741054
0.741229
0.741549
0.742027
0.742601
0.743112
0.7434
0.743375
0.743049
0.742967
0.743527
0.744153
0.744473
0.745622
0.738476
0.739079
0.739255
0.739114
0.738879
0.738667
0.738548
0.738373
0.738244
0.73803
0.737794
0.7376
0.737482
0.737439
0.737445
0.737481
0.737592
0.73778
0.738074
0.738455
0.738857
0.739173
0.73921
0.739126
0.739591
0.740391
0.740491
0.739876
0.73941
0.739319
0.741313
0.741657
0.741912
0.742181
0.742638
0.7433
0.74396
0.744592
0.74504
0.745317
0.745476
0.745459
0.745346
0.745141
0.744736
0.744297
0.743813
0.743371
0.742918
0.742372
0.741874
0.741261
0.739725
0.738122
0.737423
0.737319
0.73769
0.738478
0.739046
0.739019
0.741018
0.73982
0.740592
0.741555
0.742265
0.742831
0.743398
0.744
0.744507
0.744906
0.745088
0.74516
0.745171
0.745151
0.745133
0.745102
0.744977
0.744712
0.74432
0.743766
0.743105
0.74235
0.741717
0.741176
0.740315
0.739382
0.739092
0.739129
0.738546
0.738248
0.738271
0.738405
0.738963
0.739378
0.739916
0.74076
0.741868
0.743144
0.744249
0.745141
0.745812
0.746102
0.746311
0.746169
0.745907
0.745366
0.744564
0.743641
0.742575
0.741544
0.740653
0.740041
0.739522
0.738752
0.737166
0.735728
0.735935
0.737164
0.737366
0.737197
0.737602
0.737637
0.738626
0.739874
0.740349
0.739617
0.738381
0.737676
0.73769
0.738083
0.738431
0.738606
0.738611
0.738527
0.738402
0.738235
0.737957
0.73762
0.737642
0.738418
0.739365
0.739225
0.738908
0.740793
0.742117
0.741678
0.740614
0.739876
0.739022
0.738629
0.738194
0.735516
0.738463
0.737773
0.730826
0.724843
0.724362
0.72558
0.72704
0.728547
0.730081
0.731487
0.732585
0.733229
0.733267
0.732634
0.731459
0.730141
0.728987
0.728182
0.727479
0.726459
0.725539
0.728897
0.737937
0.737923
0.737114
0.73924
0.743954
0.750122
0.748305
0.74871
0.747503
0.745892
0.745359
0.745496
0.745846
0.746287
0.746495
0.746381
0.745783
0.744663
0.74416
0.74381
0.748424
0.747141
0.746517
0.746617
0.747592
0.748494
0.748887
0.74905
0.749141
0.749134
0.748887
0.748094
0.746673
0.745151
0.744608
0.745175
0.74642
0.747219
0.747451
0.747308
0.747073
0.746845
0.746742
0.746756
0.746951
0.747339
0.747855
0.748161
0.748183
0.748503
0.746258
0.746157
0.745623
0.745691
0.745831
0.745716
0.745156
0.744766
0.744657
0.743754
0.742503
0.742486
0.743493
0.744436
0.745117
0.745535
0.745679
0.745702
0.74566
0.745627
0.745642
0.745679
0.745705
0.74564
0.745392
0.745084
0.74499
0.745192
0.745619
0.745509
0.743839
0.743912
0.7439
0.744033
0.743969
0.743619
0.743214
0.743128
0.743378
0.743618
0.743615
0.743867
0.744347
0.744768
0.7451
0.7454
0.745586
0.745691
0.745701
0.745661
0.745585
0.745467
0.745288
0.744983
0.744578
0.744185
0.744069
0.744211
0.744169
0.743614
0.742272
0.74289
0.743543
0.744032
0.744279
0.744312
0.74425
0.744191
0.744147
0.744115
0.744114
0.744146
0.744213
0.744308
0.744419
0.744477
0.744238
0.743682
0.742709
0.74183
0.741525
0.741837
0.742715
0.743571
0.743621
0.743754
0.744033
0.743606
0.741922
0.74093
0.739202
0.739859
0.740222
0.739439
0.738976
0.739021
0.739243
0.739477
0.739645
0.739678
0.739632
0.739565
0.739481
0.73934
0.73914
0.739011
0.738892
0.738869
0.738898
0.738971
0.73912
0.739348
0.739611
0.739837
0.740021
0.740191
0.74033
0.74035
0.740058
0.739556
0.742034
0.742254
0.743023
0.74092
0.739442
0.739268
0.740337
0.741716
0.742418
0.742393
0.741977
0.741474
0.741053
0.740779
0.7406
0.740539
0.740549
0.740698
0.741008
0.741502
0.742145
0.742792
0.743238
0.743379
0.743139
0.742953
0.743222
0.743688
0.744157
0.744882
0.738789
0.739147
0.739244
0.739051
0.738824
0.738657
0.738553
0.738349
0.738115
0.737768
0.737422
0.737108
0.736954
0.736969
0.73708
0.737205
0.73733
0.737529
0.737844
0.738253
0.738702
0.739085
0.73921
0.739089
0.739297
0.739864
0.73989
0.739606
0.739813
0.739735
0.741284
0.741743
0.741966
0.742328
0.742969
0.743794
0.744484
0.745172
0.745493
0.745755
0.745875
0.745886
0.745777
0.745587
0.745177
0.744731
0.744168
0.743656
0.743174
0.742613
0.742076
0.741622
0.74065
0.739124
0.738054
0.737729
0.738225
0.738917
0.739329
0.739167
0.740233
0.740011
0.740891
0.74171
0.742337
0.742896
0.743509
0.744184
0.74469
0.745051
0.745142
0.745187
0.745174
0.745174
0.745179
0.745178
0.745117
0.744945
0.744584
0.744083
0.743413
0.742649
0.741948
0.741372
0.740588
0.739804
0.739624
0.738979
0.73808
0.737898
0.738186
0.738584
0.73893
0.739451
0.740172
0.741261
0.742589
0.744061
0.745125
0.74604
0.746526
0.746894
0.747054
0.747068
0.746814
0.746316
0.745531
0.744603
0.743382
0.742189
0.741085
0.740312
0.739769
0.739157
0.737691
0.735908
0.736468
0.737405
0.737542
0.737372
0.737571
0.737879
0.739158
0.740208
0.740267
0.739207
0.738083
0.737645
0.737907
0.738425
0.738763
0.738934
0.738885
0.738677
0.738458
0.738373
0.738211
0.737798
0.737545
0.738141
0.739336
0.739412
0.739524
0.742041
0.743243
0.74284
0.741085
0.739907
0.738896
0.738551
0.739085
0.73392
0.734526
0.732894
0.727354
0.724478
0.724885
0.726382
0.728053
0.729847
0.731738
0.733549
0.735062
0.735946
0.73589
0.734847
0.733198
0.731265
0.72958
0.728515
0.727986
0.727331
0.725726
0.725022
0.735672
0.740914
0.739088
0.741928
0.74729
0.751531
0.748698
0.748762
0.746726
0.745203
0.745
0.745186
0.745439
0.74586
0.746319
0.746405
0.745862
0.744678
0.744145
0.743741
0.748411
0.747073
0.746294
0.746161
0.746997
0.748071
0.748737
0.749037
0.749187
0.749235
0.749141
0.74857
0.747086
0.745259
0.744683
0.745557
0.746926
0.747493
0.747467
0.747262
0.74704
0.746797
0.746679
0.746706
0.746889
0.747367
0.747862
0.748196
0.748182
0.748538
0.746196
0.74618
0.745589
0.745581
0.745595
0.745035
0.744134
0.743945
0.744242
0.743631
0.742472
0.742622
0.743801
0.744728
0.745344
0.745625
0.745671
0.745611
0.745525
0.745453
0.745468
0.74556
0.745658
0.745678
0.745538
0.745258
0.745147
0.745333
0.745661
0.745511
0.743817
0.743921
0.743906
0.744076
0.743837
0.743178
0.742645
0.742583
0.742965
0.74349
0.743538
0.743709
0.744173
0.744637
0.745027
0.745325
0.745546
0.745661
0.74569
0.745652
0.745586
0.74547
0.745283
0.744966
0.744551
0.744165
0.744069
0.744219
0.744177
0.743504
0.742264
0.742799
0.743468
0.743999
0.744277
0.744299
0.744246
0.744211
0.74418
0.744155
0.744161
0.744188
0.744284
0.744365
0.744418
0.744411
0.744096
0.743597
0.742601
0.741818
0.741573
0.74187
0.742598
0.743422
0.743737
0.744037
0.744072
0.743285
0.741471
0.740536
0.739284
0.740013
0.740087
0.739178
0.738878
0.738922
0.739141
0.739443
0.739697
0.739773
0.73972
0.739637
0.739542
0.739348
0.739072
0.738865
0.738769
0.738792
0.738839
0.738909
0.739047
0.739279
0.739543
0.739792
0.740004
0.740202
0.740354
0.740362
0.739965
0.739445
0.741859
0.742446
0.74192
0.73964
0.738658
0.738958
0.740444
0.741941
0.742508
0.742365
0.741822
0.741256
0.740852
0.740563
0.740367
0.740235
0.74025
0.740368
0.740665
0.741207
0.741882
0.742597
0.74313
0.743362
0.743193
0.742967
0.743088
0.743437
0.743843
0.74339
0.738862
0.739147
0.739214
0.739054
0.738831
0.738687
0.738577
0.738329
0.738034
0.737501
0.737071
0.736602
0.73645
0.73644
0.736729
0.736943
0.737141
0.737378
0.737726
0.738163
0.738631
0.739035
0.739203
0.73907
0.739152
0.739502
0.739535
0.739969
0.740381
0.740223
0.741375
0.741773
0.741982
0.742442
0.743189
0.744059
0.744749
0.745389
0.745699
0.745954
0.746019
0.74603
0.745941
0.745809
0.745408
0.744983
0.744394
0.743866
0.74336
0.742792
0.742224
0.741812
0.741175
0.739932
0.738914
0.738628
0.738996
0.739323
0.739419
0.739232
0.739818
0.740189
0.74089
0.741638
0.742292
0.742852
0.7435
0.744187
0.744757
0.745037
0.745139
0.745162
0.745158
0.745159
0.74517
0.745188
0.745151
0.745028
0.744729
0.744221
0.743569
0.742805
0.742086
0.741468
0.740741
0.740146
0.739759
0.738311
0.737733
0.737803
0.738193
0.738448
0.738826
0.739524
0.740367
0.741586
0.743047
0.74459
0.745519
0.74645
0.746886
0.747259
0.747452
0.747373
0.74724
0.746868
0.746121
0.74526
0.743937
0.742656
0.741406
0.740533
0.739957
0.739405
0.73785
0.736062
0.73687
0.737506
0.737707
0.737506
0.737549
0.737962
0.739481
0.740343
0.740159
0.738968
0.737965
0.737675
0.738088
0.738662
0.739068
0.739261
0.739209
0.738835
0.738434
0.738382
0.738376
0.737995
0.737519
0.737959
0.739367
0.739544
0.739841
0.742351
0.743318
0.74277
0.740883
0.739437
0.73857
0.738441
0.740178
0.733093
0.730917
0.72912
0.725675
0.724497
0.725362
0.726984
0.728794
0.73079
0.732931
0.734965
0.736737
0.737629
0.737446
0.736132
0.734204
0.731918
0.729914
0.728629
0.728086
0.727734
0.72654
0.724515
0.73083
0.743015
0.742636
0.74509
0.749757
0.751604
0.748924
0.748608
0.745983
0.744848
0.744823
0.745042
0.745168
0.745357
0.745818
0.746084
0.745628
0.744591
0.744129
0.74378
0.74477
0.746776
0.748248
0.747099
0.746106
0.745704
0.746289
0.747286
0.748086
0.748563
0.748857
0.749035
0.749117
0.74885
0.747535
0.745457
0.744795
0.745882
0.747214
0.747602
0.747501
0.747342
0.747138
0.746884
0.746743
0.74677
0.747014
0.747468
0.747961
0.748208
0.748211
0.748575
0.748408
0.747504
0.746344
0.746213
0.745669
0.74537
0.745105
0.744106
0.743076
0.743168
0.743852
0.743595
0.742501
0.74272
0.743929
0.744858
0.745426
0.745644
0.745621
0.745517
0.745406
0.74534
0.745363
0.745477
0.745617
0.745652
0.745564
0.745359
0.745296
0.745492
0.745659
0.745138
0.744104
0.743775
0.74383
0.743932
0.743946
0.744012
0.743631
0.742777
0.742251
0.742211
0.742544
0.743282
0.743477
0.743498
0.743905
0.74439
0.744838
0.745176
0.745397
0.745528
0.745581
0.74557
0.745514
0.745397
0.745186
0.744862
0.744457
0.744125
0.744091
0.744261
0.744043
0.742771
0.741441
0.741658
0.742182
0.742651
0.743327
0.743899
0.744214
0.744288
0.744263
0.74425
0.744237
0.744245
0.744257
0.744335
0.744361
0.74441
0.744319
0.744255
0.743796
0.743316
0.742373
0.741785
0.741667
0.741985
0.7426
0.743297
0.743711
0.744073
0.743788
0.742385
0.740894
0.740199
0.739971
0.739768
0.739417
0.739986
0.739806
0.739015
0.738849
0.73886
0.739007
0.73934
0.739691
0.739854
0.739808
0.739719
0.739636
0.739437
0.739139
0.738879
0.738776
0.738785
0.738828
0.738905
0.739062
0.739295
0.739562
0.739807
0.740042
0.740268
0.740392
0.740239
0.739796
0.739906
0.741534
0.741966
0.742081
0.741955
0.740191
0.738731
0.738174
0.738629
0.740226
0.7419
0.742561
0.742432
0.741891
0.741311
0.740862
0.740523
0.740268
0.740129
0.740112
0.740314
0.740604
0.741187
0.741864
0.742585
0.743128
0.743362
0.743203
0.742987
0.743131
0.743166
0.740773
0.739189
0.738519
0.738676
0.738736
0.738856
0.73917
0.739102
0.73888
0.73874
0.738632
0.738392
0.738046
0.737473
0.736982
0.736531
0.73637
0.73638
0.73658
0.736828
0.737062
0.737347
0.737728
0.738186
0.738657
0.739039
0.739178
0.739054
0.739087
0.739274
0.739772
0.740188
0.740349
0.740581
0.740813
0.741092
0.741508
0.741737
0.741946
0.742435
0.743217
0.744069
0.744794
0.745342
0.745704
0.745934
0.746008
0.746038
0.745946
0.745803
0.745442
0.745039
0.744462
0.743972
0.743459
0.742887
0.742305
0.741906
0.741432
0.740404
0.739253
0.739168
0.739429
0.739433
0.739418
0.739374
0.739554
0.739667
0.739857
0.740037
0.740589
0.741432
0.742156
0.742744
0.743371
0.744102
0.744679
0.745021
0.74512