/*--------------------------------*- C++ -*----------------------------------*\
| =========                 |                                                 |
| \\      /  F ield         | OpenFOAM: The Open Source CFD Toolbox           |
|  \\    /   O peration     | Version:  2.1.1                                 |
|   \\  /    A nd           | Web:      www.OpenFOAM.org                      |
|    \\/     M anipulation  |                                                 |
\*---------------------------------------------------------------------------*/
FoamFile
{
    version     2.0;
    format      ascii;
    class       volScalarField;
    location    "0.006200000";
    object      O;
}
// * * * * * * * * * * * * * * * * * * * * * * * * * * * * * * * * * * * * * //

dimensions      [0 0 0 0 0 0 0];

internalField   nonuniform List<scalar> 
12384
(
0.00103004
0.00102798
0.00102922
0.00101359
0.00099356
0.000976634
0.000956956
0.000954202
0.000948084
0.000947261
0.000953845
0.000961702
0.000940085
0.000901269
0.000332862
0.0003972
0.00044515
0.000464631
0.000492682
0.000513899
0.000517014
0.000515103
0.000502495
0.000501725
0.000493598
0.000496741
0.000496171
0.000497547
0.000493477
0.000499602
0.000496103
0.000486336
0.000499777
0.000485895
0.000496183
0.000489772
0.000496146
0.000490451
0.000488363
0.000480519
0.000483123
0.000421861
0.000285874
0.000266864
0.000442442
0.000488613
0.000499018
0.00048905
0.000456059
0.000399319
0.000380759
0.000332958
0.000311306
0.000274884
0.000248927
0.000227422
0.000210914
0.000204472
0.000190355
0.00019013
0.00019117
0.000188331
0.000197201
0.000200653
0.00021704
0.000233451
0.000249972
0.000269967
0.000297836
0.000328318
0.000367104
0.000398029
0.000340739
0.00029882
0.00014171
0.000140625
0.000137256
0.000134993
0.000128982
0.000136276
0.000142623
0.000142823
0.000150375
0.000156102
0.000152079
0.000154052
0.000154756
0.000160098
0.000156114
0.000150597
0.000152885
0.00014802
0.00015345
0.00015077
0.000158454
0.000158136
0.000167081
0.000172392
0.000182852
0.000193205
0.000170737
0.000149797
0.000146202
0.000144764
4.32749e-05
4.68985e-05
6.55606e-05
8.23708e-05
9.11121e-05
9.43643e-05
9.44384e-05
7.52895e-05
7.17302e-05
6.47949e-05
7.41405e-05
8.27851e-05
7.83467e-05
6.7457e-05
6.84206e-05
5.57352e-05
5.10794e-05
4.54958e-05
4.76714e-05
7.15612e-05
0.000121115
0.00018092
0.000180634
0.000142245
0.000126268
0.000120029
0.000118046
0.000126079
0.000139486
0.000148237
1.83788e-05
9.69719e-06
8.79669e-06
1.41623e-05
2.03309e-05
2.32014e-05
2.62296e-05
2.57943e-05
2.49189e-05
2.5451e-05
2.50679e-05
2.39593e-05
2.23862e-05
2.2518e-05
2.15151e-05
2.21232e-05
2.09841e-05
2.01084e-05
1.95478e-05
2.01796e-05
1.91239e-05
1.99315e-05
1.93212e-05
2.01826e-05
1.98999e-05
2.13224e-05
2.08585e-05
1.55797e-05
2.03695e-05
1.8038e-05
4.1441e-05
5.52675e-05
7.53479e-05
5.95085e-05
3.46567e-05
2.63716e-05
2.5366e-05
2.73291e-05
2.78736e-05
2.94684e-05
1.73204e-05
2.17428e-05
2.50381e-05
2.58262e-05
2.79096e-05
2.653e-05
2.85081e-05
2.00192e-05
2.02987e-05
3.56116e-05
3.45169e-05
3.60833e-05
3.75755e-05
2.08712e-05
0.000176407
0.000206304
0.000209993
0.000209327
0.000209101
0.000207992
7.00019e-05
3.69223e-05
1.82556e-05
1.41374e-05
1.29215e-05
1.40511e-05
1.46431e-05
1.38713e-05
1.46758e-05
1.42874e-05
1.4613e-05
1.43282e-05
1.27466e-05
1.29118e-05
1.42306e-05
1.50009e-05
1.3941e-05
1.5244e-05
1.71855e-05
1.61189e-05
1.49586e-05
1.78559e-05
2.69249e-05
3.62936e-05
3.03381e-05
3.27093e-05
2.98053e-05
2.92831e-05
3.01743e-05
3.11077e-05
3.68138e-05
2.47791e-05
2.29385e-05
2.51822e-05
2.71523e-05
2.84644e-05
2.84867e-05
3.25181e-05
3.38166e-05
3.03465e-05
3.24649e-05
3.05704e-05
3.05363e-05
3.47541e-05
3.26219e-05
3.59253e-05
3.40676e-05
3.54962e-05
2.79743e-05
2.15603e-05
3.06832e-06
1.78923e-06
2.84491e-06
2.74063e-06
4.15358e-06
4.56887e-06
4.00381e-06
2.6112e-06
2.78098e-06
2.32629e-06
5.06687e-05
2.15406e-05
2.12735e-05
2.03668e-05
2.14757e-05
2.21581e-05
2.1562e-05
2.25021e-05
2.25989e-05
2.13191e-05
8.30916e-06
9.45011e-06
1.17472e-05
1.33774e-05
1.12739e-05
1.35595e-05
1.25605e-05
1.33347e-05
1.63519e-05
1.64227e-05
1.07963e-05
7.22438e-06
1.16309e-05
6.75319e-06
7.85784e-06
9.04779e-06
6.30914e-06
6.97862e-06
6.42064e-06
5.66158e-06
6.85768e-06
5.09803e-06
6.06053e-06
7.00599e-06
7.07383e-06
6.86073e-06
6.72163e-06
5.72018e-06
7.47631e-06
7.13535e-06
8.10431e-06
6.83856e-06
6.18467e-06
7.3036e-06
6.64731e-06
8.02726e-06
7.76243e-06
9.4192e-06
8.87873e-06
9.93403e-06
7.54381e-06
5.36447e-06
4.37891e-06
4.12358e-06
3.91627e-06
3.62915e-06
3.5019e-06
3.63256e-06
3.85151e-06
4.07412e-06
8.80163e-06
5.57812e-06
5.3021e-06
7.75343e-06
1.38008e-06
1.98574e-06
7.83402e-06
8.92229e-07
2.43023e-06
3.23009e-06
5.27555e-06
7.99202e-06
8.32082e-06
7.41047e-06
7.29212e-06
7.60629e-06
8.42633e-06
8.68464e-06
4.97194e-06
8.75966e-06
7.79565e-06
7.53861e-06
7.13862e-06
6.86429e-06
6.68193e-06
6.3794e-06
6.30363e-06
6.0501e-06
4.24819e-06
4.8844e-06
1.0483e-05
8.40314e-06
2.12453e-05
0.000137641
0.000111553
3.2228e-05
9.56053e-05
9.29602e-07
2.12323e-07
1.97461e-07
2.09492e-07
1.2002e-07
1.56863e-07
2.82784e-07
3.43223e-07
3.79527e-07
4.07086e-07
3.12664e-07
4.38281e-07
5.54895e-07
7.65416e-07
8.04666e-07
5.26641e-07
3.63439e-07
1.8156e-07
1.77701e-07
1.72102e-07
1.90354e-07
2.35538e-07
4.35459e-06
0.000972673
0.000995892
0.000986119
0.000963356
0.00090716
0.000861786
0.000834534
0.000822174
0.000816726
0.000851608
0.000900483
0.000943667
0.000942236
0.000902508
0.000337114
0.000411772
0.000459577
0.000499007
0.000546048
0.000566644
0.000532715
0.000511683
0.000499016
0.00050081
0.000498586
0.0005101
0.000507373
0.000494467
0.000486687
0.000486537
0.000478895
0.000482804
0.000483656
0.000493401
0.000508452
0.00052665
0.000549481
0.000550419
0.000529939
0.000505328
0.00049334
0.0004663
0.000378023
0.000298568
0.000446035
0.000497636
0.000495696
0.000447249
0.000400439
0.000353984
0.000322109
0.000279337
0.000240564
0.000180807
0.0001545
0.000123227
0.000119723
0.000120706
0.00013121
0.000124594
0.00013393
0.000138155
0.000140257
0.000137711
0.000140378
0.0001443
0.000162922
0.000190933
0.000230978
0.000277275
0.00033205
0.000385147
0.000384571
0.000323817
0.000148458
0.000142613
0.00013248
0.000126742
0.000136864
0.000142459
0.000153927
0.000161673
0.000159138
0.000163597
0.000166413
0.000169595
0.000171082
0.00017995
0.000179802
0.000178993
0.000183629
0.000187853
0.000190075
0.000189364
0.000185193
0.000180534
0.000180348
0.000181627
0.000175746
0.00018609
0.000190576
0.000159051
0.000130715
0.000122618
4.06795e-05
6.89479e-05
9.10862e-05
7.96619e-05
0.000122955
0.000144211
0.00016094
0.000172229
0.000185216
0.000188166
0.000191401
0.000191622
0.000181825
0.000159142
0.000128019
8.0357e-05
7.61476e-05
5.36028e-05
4.92647e-05
5.67848e-05
8.27262e-05
0.000147866
0.000176102
0.000105855
6.68613e-05
5.9043e-05
6.52821e-05
7.09307e-05
8.01509e-05
0.000101868
1.75935e-05
9.3017e-06
1.28223e-05
2.20581e-05
2.63978e-05
2.6939e-05
2.5028e-05
2.12484e-05
1.9451e-05
1.90419e-05
1.92046e-05
1.98288e-05
2.06111e-05
2.13842e-05
1.90544e-05
1.96519e-05
1.90636e-05
1.92193e-05
1.78961e-05
1.78774e-05
1.7447e-05
1.74467e-05
1.76748e-05
1.79158e-05
1.87178e-05
1.97892e-05
2.05726e-05
2.09546e-05
2.0204e-05
1.77548e-05
4.19564e-05
5.84912e-05
3.88385e-05
2.30472e-05
2.03841e-05
2.43518e-05
2.80098e-05
4.6428e-05
5.52279e-05
6.07227e-05
6.34399e-05
6.56237e-05
6.69191e-05
6.80163e-05
6.90913e-05
6.27237e-05
6.42979e-05
6.2401e-05
6.13721e-05
4.94795e-05
4.24745e-05
3.52167e-05
1.85661e-05
3.94533e-05
7.81839e-05
0.000196274
0.000201344
0.000200352
0.000205099
0.000202195
2.5194e-05
1.17901e-05
1.06431e-05
1.444e-05
1.63154e-05
1.70023e-05
1.52898e-05
1.41064e-05
1.46778e-05
1.28582e-05
1.19393e-05
1.25431e-05
1.21214e-05
1.25014e-05
1.15315e-05
1.19935e-05
1.36521e-05
1.31007e-05
1.50912e-05
1.69713e-05
1.52513e-05
1.67265e-05
2.15658e-05
3.15166e-05
3.1126e-05
2.24697e-05
1.71245e-05
1.35167e-05
1.37445e-05
1.85276e-05
2.70703e-05
1.33608e-05
2.44338e-05
2.90896e-05
3.66533e-05
3.80847e-05
3.87187e-05
3.92983e-05
4.0716e-05
4.20154e-05
4.17631e-05
4.33986e-05
4.39533e-05
4.42106e-05
4.68646e-05
4.49183e-05
4.24585e-05
4.23565e-05
3.85192e-05
2.70286e-05
8.29607e-06
2.78626e-06
4.76013e-06
3.25903e-06
4.78785e-06
6.28097e-06
8.74547e-06
5.6358e-06
8.22184e-06
5.64681e-06
5.2333e-05
1.65144e-05
2.14455e-05
2.19334e-05
2.3367e-05
2.63947e-05
1.59384e-05
2.61146e-05
3.18515e-05
3.39174e-05
3.60804e-05
3.50745e-05
3.38304e-05
3.18404e-05
2.99176e-05
3.06999e-05
3.19767e-05
2.71534e-05
2.2016e-05
2.54136e-05
1.84286e-05
1.8673e-05
2.1868e-05
1.04495e-05
7.90543e-06
7.3034e-06
1.01125e-05
1.17695e-05
1.125e-05
8.82503e-06
6.65041e-06
4.608e-06
6.56992e-06
4.05359e-06
7.07557e-06
7.50976e-06
7.56224e-06
8.59441e-06
1.01607e-05
9.40517e-06
1.00432e-05
9.07041e-06
9.38863e-06
9.29413e-06
9.3377e-06
9.72579e-06
9.26543e-06
9.96783e-06
9.59328e-06
1.10079e-05
9.90183e-06
4.57088e-06
4.57836e-06
2.9116e-06
2.15313e-06
2.20305e-06
1.45337e-06
1.94721e-06
2.05015e-06
2.87305e-06
4.16119e-06
5.05245e-06
6.06205e-06
2.38605e-06
1.83649e-06
6.15193e-06
9.46326e-06
3.2705e-07
8.1046e-06
6.98294e-06
5.86526e-06
3.5472e-06
3.16025e-06
3.20083e-06
3.01136e-06
5.06507e-06
5.34035e-06
5.69248e-06
7.34393e-06
7.58038e-06
7.39271e-06
6.65199e-06
6.03215e-06
5.75482e-06
5.62844e-06
5.81127e-06
6.2542e-06
6.13458e-06
4.88173e-06
4.78824e-06
8.85357e-07
8.35192e-07
9.96643e-07
3.30664e-06
0.000170666
8.49816e-05
2.83782e-06
2.98591e-07
2.24146e-07
2.37521e-07
2.17206e-07
2.95095e-07
3.81686e-07
4.26176e-07
4.51098e-07
4.95781e-07
5.32831e-07
3.27477e-07
6.60408e-07
2.65552e-07
1.25799e-06
1.91001e-06
2.37003e-06
1.45606e-06
5.16161e-07
2.34887e-07
1.92254e-07
2.01187e-07
2.87837e-07
9.40975e-06
0.000968635
0.000986764
0.000961436
0.000898047
0.000823128
0.000780416
0.0007469
0.000721181
0.000721441
0.000748476
0.000813302
0.000896137
0.000934814
0.000910703
0.000331419
0.000432235
0.000490289
0.000554142
0.00059319
0.000561838
0.000501067
0.00047966
0.000484584
0.000491302
0.000480278
0.000470242
0.000455477
0.000437398
0.000406034
0.000394346
0.000384872
0.000399721
0.000421854
0.000454578
0.000494541
0.000522935
0.000562052
0.000581171
0.000596935
0.000551929
0.000518781
0.000488318
0.000439795
0.000343267
0.000446574
0.000499819
0.000477868
0.000433859
0.000403864
0.000387806
0.000372501
0.00031681
0.000256643
0.000184137
0.000128217
9.79829e-05
0.000110311
0.000119838
0.000154924
0.000181504
0.000211371
0.00021911
0.000223433
0.000209353
0.000198062
0.000176414
0.000167758
0.000172641
0.000190007
0.000231684
0.000286357
0.00035258
0.000391074
0.000346362
0.000145131
0.000139395
0.000129147
0.000133341
0.000142734
0.000158098
0.000164682
0.000160038
0.000160428
0.000159854
0.000160431
0.000171797
0.000177463
0.000186593
0.000192938
0.00020097
0.000207253
0.000206231
0.000212432
0.000216145
0.000216976
0.000212339
0.000202248
0.000191124
0.000185329
0.000178766
0.000187222
0.000179292
0.000146438
0.000127687
5.16589e-05
8.11351e-05
0.000102
0.000106364
0.00014305
0.000175989
0.000198898
0.000211496
0.000220687
0.000228042
0.000233965
0.000230244
0.000234003
0.00023021
0.000204477
0.000166821
9.87989e-05
7.94129e-05
5.24469e-05
5.03735e-05
6.21656e-05
7.87011e-05
0.000170116
9.6208e-05
5.1456e-05
5.62672e-05
6.98328e-05
6.01005e-05
7.50692e-05
8.15732e-05
1.62742e-05
1.06815e-05
1.79959e-05
2.71508e-05
1.4973e-05
2.09937e-05
1.87212e-05
1.82111e-05
1.73098e-05
1.93542e-05
2.22661e-05
2.3557e-05
2.40126e-05
2.28205e-05
2.33853e-05
2.15133e-05
2.06746e-05
2.08286e-05
2.00725e-05
1.92377e-05
1.86677e-05
1.81655e-05
1.79624e-05
1.83586e-05
1.80562e-05
1.9422e-05
1.9029e-05
2.04905e-05
1.93928e-05
1.713e-05
4.50654e-05
4.19091e-05
1.75241e-05
2.01551e-05
3.22006e-05
6.19312e-05
6.79977e-05
5.68778e-05
4.58153e-05
3.34848e-05
3.51658e-05
3.89125e-05
4.16035e-05
4.65621e-05
4.98932e-05
5.48312e-05
5.99361e-05
6.46153e-05
6.75292e-05
6.98037e-05
6.05187e-05
5.23635e-05
4.14232e-05
2.20041e-05
3.61684e-05
0.000114276
0.00019628
0.000200475
0.000196427
0.000196191
9.91949e-06
9.48247e-06
1.51315e-05
1.72846e-05
1.57633e-05
1.38064e-05
1.12387e-05
1.21311e-05
1.10711e-05
8.35312e-06
8.56337e-06
9.01615e-06
9.3898e-06
8.82305e-06
7.60726e-06
8.85381e-06
1.02055e-05
1.259e-05
1.21487e-05
1.42983e-05
1.59907e-05
1.55897e-05
1.59672e-05
1.42642e-05
3.14102e-05
2.52212e-05
1.59997e-05
1.9461e-05
1.759e-05
1.96392e-05
2.24397e-05
2.40813e-05
2.98563e-05
3.76021e-05
3.88299e-05
4.07364e-05
4.25761e-05
4.55441e-05
4.68445e-05
3.9487e-05
4.60779e-05
4.98609e-05
4.35206e-05
4.19141e-05
4.51204e-05
3.89823e-05
5.30476e-05
4.65957e-05
4.53951e-05
3.78161e-05
2.54104e-05
6.24729e-06
4.67304e-06
4.76976e-06
4.73275e-06
8.04549e-06
7.67504e-06
6.4558e-06
8.84661e-06
6.69698e-06
5.86746e-05
2.31892e-05
2.24084e-05
2.31089e-05
1.37685e-05
3.04393e-05
4.2052e-05
4.49187e-05
3.15203e-05
4.77396e-05
6.15865e-05
6.461e-05
6.5914e-05
6.41383e-05
5.97175e-05
4.97409e-05
4.43963e-05
2.35653e-05
3.79175e-05
3.41381e-05
2.80901e-05
1.88098e-05
1.45536e-05
1.75115e-05
8.77602e-06
9.02054e-06
1.1995e-05
1.18522e-05
1.32247e-05
1.00699e-05
6.61231e-06
5.85497e-06
3.89936e-06
7.02222e-06
7.84081e-06
1.04676e-05
1.03904e-05
1.22431e-05
6.78992e-06
1.03097e-05
1.24592e-05
1.40748e-05
1.76722e-05
1.67243e-05
1.63656e-05
1.07853e-05
9.26302e-06
1.14045e-05
1.11597e-05
1.00635e-05
1.11739e-05
8.33451e-06
5.92788e-06
3.31872e-06
1.92772e-06
2.72208e-06
2.0481e-06
3.16497e-06
3.4191e-06
2.28522e-06
1.20467e-06
1.72569e-06
1.83002e-06
4.80379e-06
5.00461e-06
9.91553e-06
1.00483e-05
7.72587e-06
6.169e-06
6.02179e-06
5.6335e-06
5.94955e-06
5.96737e-06
5.94424e-06
5.69555e-06
5.69822e-06
5.37449e-06
3.27424e-06
5.4099e-06
7.18459e-06
7.2284e-06
5.9155e-06
3.49881e-06
3.42695e-06
3.80524e-06
4.26965e-06
5.00397e-06
6.47554e-06
5.3412e-06
4.6976e-06
1.42649e-06
9.97857e-07
1.5639e-06
7.53565e-06
0.000169028
1.04869e-05
3.06417e-07
2.35674e-07
2.55084e-07
2.8588e-07
3.10011e-07
4.13087e-07
4.89095e-07
5.64399e-07
5.83824e-07
5.5322e-07
5.66409e-07
5.57746e-07
4.99923e-07
5.58094e-07
6.79963e-07
1.32819e-06
2.18695e-06
3.51332e-06
1.68626e-06
4.26043e-07
2.40515e-07
2.73348e-07
4.96257e-07
4.2658e-05
0.000978013
0.000963274
0.000869202
0.000776211
0.000755943
0.000741638
0.000732055
0.000715885
0.00071435
0.000705636
0.000765842
0.000858661
0.000909947
0.000913014
0.000338777
0.000436812
0.000525446
0.000601736
0.000602216
0.000518191
0.000467927
0.000467338
0.000465523
0.000471745
0.000458293
0.000448979
0.000422697
0.000378404
0.000319334
0.000304081
0.000320244
0.000378585
0.00041643
0.000481338
0.000519195
0.000568095
0.000601954
0.000637835
0.000640515
0.00062207
0.00055292
0.000513672
0.000473089
0.000374579
0.000443803
0.000496399
0.000471838
0.000452246
0.000452986
0.000454877
0.000440642
0.000373225
0.000287691
0.000208385
0.00011128
7.30377e-05
8.59347e-05
0.000132172
0.000195777
0.000250795
0.000285926
0.000313408
0.000324555
0.000321664
0.000307362
0.000274466
0.000235773
0.00020848
0.000200134
0.000217242
0.000261562
0.000321546
0.000384886
0.000360401
0.000140547
0.000135264
0.000124301
0.000141287
0.000154056
0.000164758
0.000166521
0.000164198
0.000153075
0.000149676
0.000156172
0.00016266
0.000176692
0.000197818
0.000204966
0.000219963
0.000231035
0.000237846
0.000240623
0.000244019
0.000238808
0.000235791
0.000222975
0.000209529
0.000190621
0.000184619
0.000182626
0.000190054
0.000167475
0.000134485
8.29939e-05
9.19376e-05
8.21487e-05
0.000133409
0.000180544
0.000215424
0.000235494
0.000242371
0.000251276
0.000250639
0.000248979
0.00024748
0.000252121
0.000247922
0.00025136
0.000221571
0.000168702
9.47161e-05
6.92563e-05
5.25804e-05
5.28046e-05
7.49905e-05
0.000145069
0.000115827
5.2543e-05
6.86831e-05
0.000100309
8.23998e-05
6.84668e-05
6.73515e-05
1.59206e-05
1.30689e-05
2.31765e-05
2.66202e-05
2.21203e-05
1.63078e-05
1.62804e-05
1.60033e-05
2.031e-05
2.14288e-05
2.53592e-05
2.50709e-05
2.60676e-05
2.47646e-05
2.71109e-05
2.39998e-05
2.56966e-05
2.39105e-05
2.40898e-05
2.25686e-05
2.03184e-05
1.85599e-05
1.8513e-05
1.80042e-05
1.7953e-05
1.78718e-05
1.92703e-05
1.92099e-05
1.95011e-05
1.69334e-05
4.22302e-05
2.1324e-05
1.23527e-05
4.34476e-05
7.32865e-05
4.73069e-05
2.61575e-05
2.35955e-05
2.33676e-05
2.61986e-05
2.96766e-05
3.15437e-05
3.32981e-05
3.34572e-05
3.32384e-05
3.36737e-05
3.52836e-05
2.32403e-05
4.44165e-05
5.42878e-05
5.97081e-05
6.11409e-05
5.32124e-05
3.99588e-05
2.63978e-05
6.36043e-05
0.000148183
0.000187949
0.000171944
0.000189946
8.65234e-06
1.44162e-05
1.71777e-05
1.51435e-05
1.23738e-05
1.05182e-05
1.1574e-05
1.01337e-05
8.88454e-06
7.49669e-06
6.08658e-06
5.45165e-06
7.18731e-06
4.26423e-06
7.09099e-06
6.1215e-06
7.55824e-06
9.38646e-06
1.18164e-05
1.13716e-05
1.35722e-05
1.45147e-05
1.40066e-05
1.73374e-05
2.34171e-05
2.72597e-05
2.19329e-05
1.9113e-05
1.51187e-05
1.48887e-05
2.56856e-05
3.01628e-05
3.64703e-05
3.81084e-05
4.07111e-05
4.50216e-05
4.9778e-05
5.15137e-05
7.09755e-05
8.03584e-05
8.92016e-05
9.471e-05
9.04546e-05
9.02559e-05
8.12055e-05
7.22714e-05
5.17642e-05
5.57729e-05
4.89588e-05
4.65495e-05
3.25802e-05
1.65249e-05
6.46141e-06
7.82931e-06
5.18792e-06
7.92289e-06
7.46556e-06
9.71089e-06
9.26126e-06
9.51328e-06
4.14215e-05
2.2899e-05
2.36751e-05
1.18665e-05
3.0517e-05
4.51289e-05
3.62624e-05
5.36479e-05
7.76923e-05
9.21327e-05
9.81482e-05
0.000103886
0.000106666
0.000103117
9.8331e-05
9.96145e-05
8.84186e-05
7.56474e-05
5.06544e-05
4.28729e-05
3.60539e-05
2.82565e-05
2.45226e-05
1.33822e-05
1.27815e-05
8.60774e-06
8.62289e-06
1.25614e-05
1.27257e-05
1.03875e-05
6.59526e-06
3.15572e-06
6.63288e-06
7.7349e-06
1.06532e-05
1.10432e-05
1.37371e-05
1.37854e-05
2.18867e-05
2.57234e-05
1.90124e-05
3.22866e-05
3.55421e-05
3.41076e-05
2.40009e-05
2.83121e-05
2.20093e-05
1.72806e-05
7.13336e-06
1.19749e-05
1.08014e-05
1.11279e-05
5.6439e-06
5.10757e-06
2.19311e-06
2.71914e-06
2.22167e-06
3.96916e-06
4.52541e-06
3.71095e-06
4.40736e-06
4.49284e-06
4.58883e-06
3.70573e-06
9.2854e-06
1.04876e-05
9.06716e-06
5.39598e-06
6.88216e-06
6.50232e-06
7.64436e-06
7.82436e-06
8.17178e-06
7.75259e-06
7.29647e-06
6.64094e-06
5.69958e-06
5.48775e-06
3.28442e-06
5.76365e-06
7.27076e-06
5.72031e-06
3.05429e-06
3.9697e-06
5.2922e-06
5.81731e-06
6.09152e-06
6.19419e-06
5.72233e-06
4.5839e-06
2.10702e-06
2.09857e-06
5.62771e-06
3.34047e-05
3.62579e-05
6.52767e-07
1.45659e-07
2.46266e-07
2.15603e-07
3.96378e-07
5.54276e-07
5.30228e-07
7.63699e-07
9.07259e-07
8.11921e-07
7.71308e-07
7.82944e-07
3.23751e-07
6.08749e-07
5.53499e-07
4.5398e-07
3.46826e-07
1.55709e-06
4.27927e-06
3.13563e-06
7.38604e-07
8.02253e-07
7.39707e-07
1.93387e-06
0.00016515
0.000942886
0.000852318
0.000749946
0.000722603
0.000765147
0.000791115
0.00081159
0.000786801
0.000744391
0.000728612
0.000740941
0.000841508
0.000902785
0.000910404
0.000346315
0.000459034
0.000562786
0.000629788
0.000602448
0.000493995
0.000455034
0.000448128
0.00044463
0.000447312
0.000454466
0.000447383
0.000408874
0.000329373
0.000264766
0.000268265
0.000315054
0.000410982
0.000485129
0.000562726
0.000613305
0.000670849
0.00070115
0.000709914
0.000715254
0.000669386
0.000604325
0.00053289
0.000497392
0.000388491
0.000436482
0.000489473
0.000473918
0.000470558
0.000490658
0.000497075
0.000471202
0.000395165
0.00031553
0.000205057
8.16812e-05
8.60984e-05
8.87667e-05
0.00015798
0.000230587
0.000286713
0.000336459
0.000356656
0.000370977
0.000369045
0.000368156
0.00034851
0.00032067
0.000266272
0.000234325
0.000229315
0.000253749
0.000310562
0.000376604
0.000364841
0.000137644
0.000132272
0.000132921
0.000149135
0.000159253
0.000163791
0.000159179
0.000154451
0.000150965
0.000148044
0.000145818
0.0001574
0.000182871
0.000202935
0.000221674
0.000243631
0.000252587
0.000256525
0.000262422
0.000261369
0.000258007
0.000251161
0.000242594
0.000224392
0.000200614
0.000181665
0.000179524
0.000190698
0.000179952
0.000143125
8.39893e-05
9.20175e-05
0.00011944
0.000167426
0.000207561
0.000236905
0.000248529
0.000261979
0.000265156
0.000258962
0.000259753
0.000255663
0.000249228
0.00025918
0.000258202
0.000249038
0.0002114
0.000139134
8.43286e-05
5.03221e-05
4.92574e-05
6.28248e-05
0.000111404
0.000136778
7.0991e-05
7.80391e-05
0.000127922
0.000116316
6.74058e-05
5.5122e-05
1.49444e-05
1.5619e-05
2.43353e-05
2.35183e-05
1.60685e-05
1.42085e-05
1.66555e-05
1.81302e-05
2.10121e-05
2.53361e-05
2.70436e-05
2.75524e-05
2.91428e-05
2.8351e-05
2.65609e-05
2.89594e-05
2.95025e-05
2.58872e-05
2.49338e-05
2.61347e-05
2.30177e-05
2.15466e-05
1.89394e-05
1.83059e-05
1.77558e-05
1.77937e-05
1.82243e-05
1.87475e-05
1.92578e-05
1.71243e-05
2.5405e-05
1.37567e-05
2.40367e-05
7.04387e-05
2.29031e-05
1.67283e-05
1.08172e-05
1.60404e-05
2.26371e-05
2.83437e-05
3.10205e-05
3.02307e-05
3.00631e-05
3.0657e-05
2.97923e-05
2.81641e-05
2.80256e-05
2.9618e-05
3.5805e-05
2.39919e-05
4.80589e-05
5.77679e-05
5.7733e-05
4.79614e-05
2.64823e-05
4.05088e-05
9.71852e-05
0.000129667
0.000132332
0.000183737
9.09096e-06
1.5691e-05
1.5036e-05
1.28795e-05
1.07767e-05
9.29481e-06
8.06772e-06
9.50706e-06
8.80384e-06
6.01803e-06
5.38358e-06
8.15326e-06
7.60655e-06
7.64566e-06
7.82976e-06
7.70273e-06
8.63852e-06
6.78744e-06
8.83206e-06
1.13549e-05
1.35219e-05
1.28346e-05
1.27599e-05
1.31646e-05
2.05492e-05
2.31491e-05
2.15888e-05
1.77989e-05
1.37944e-05
1.30113e-05
2.90768e-05
3.06685e-05
3.68209e-05
3.98823e-05
4.55536e-05
4.37283e-05
7.4853e-05
0.000105407
0.000129562
0.00014699
0.000162402
0.000162342
0.000158459
0.000145157
0.000124878
0.000100484
8.13413e-05
5.84031e-05
5.69664e-05
4.87622e-05
4.00459e-05
1.42078e-05
7.11949e-06
7.41149e-06
8.22963e-06
7.22843e-06
7.64636e-06
5.40416e-06
1.27287e-05
9.63698e-06
4.45027e-05
2.44902e-05
2.54246e-05
2.68754e-05
4.2793e-05
4.86925e-05
5.29711e-05
8.00493e-05
0.000104034
0.000117663
0.000122586
0.000125259
0.000130658
0.00012796
0.000129798
0.00011964
0.000116405
0.000103377
8.76015e-05
5.78942e-05
4.46841e-05
3.36938e-05
2.5528e-05
1.77152e-05
1.63981e-05
1.07259e-05
9.40832e-06
1.17022e-05
1.05226e-05
9.60484e-06
4.30327e-06
2.95715e-06
7.05261e-06
1.0106e-05
1.06753e-05
1.28554e-05
1.64779e-05
2.7667e-05
3.36779e-05
7.49114e-05
0.000102291
0.000113851
0.000127198
0.00011946
0.000105136
8.00875e-05
4.95914e-05
2.898e-05
2.21082e-05
8.16886e-06
1.24511e-05
1.11855e-05
9.98757e-06
2.21029e-06
3.51436e-06
2.69336e-06
2.0663e-06
4.44561e-06
4.87292e-06
4.34665e-06
4.33547e-06
4.39086e-06
2.2622e-06
6.2932e-06
1.03263e-05
9.86122e-06
7.60682e-06
7.35347e-06
7.40193e-06
8.56338e-06
1.02238e-05
8.70859e-06
8.7664e-06
7.25008e-06
4.59819e-06
8.0294e-06
6.84771e-06
5.42288e-06
5.09442e-06
5.45501e-06
7.05931e-06
4.54451e-06
3.19442e-06
6.71668e-06
9.5612e-06
9.74788e-06
8.75419e-06
7.22937e-06
4.9419e-06
4.66986e-06
3.60063e-06
2.29182e-06
3.15526e-06
1.89917e-05
2.45567e-06
3.60174e-07
2.50348e-07
2.12753e-07
4.19089e-07
6.49987e-07
8.83612e-07
1.34847e-06
9.54486e-07
1.41262e-06
1.49884e-06
1.36941e-06
1.56775e-06
1.02089e-06
6.4522e-07
5.48906e-07
5.83066e-07
4.36412e-07
2.82795e-07
1.66292e-06
5.28002e-06
1.80747e-06
2.269e-06
2.67184e-06
8.64839e-06
0.000140758
0.000897838
0.000725943
0.000699468
0.000793507
0.000862359
0.00092426
0.000950535
0.000920375
0.000842096
0.000773083
0.000772858
0.000849825
0.000907207
0.000908569
0.000352099
0.000470025
0.000585148
0.000652873
0.00060511
0.00048259
0.000451856
0.000438378
0.000427568
0.000432692
0.000430145
0.000447323
0.000410283
0.000304101
0.000246092
0.00027042
0.000374909
0.000485437
0.000579295
0.000658497
0.000729767
0.000782345
0.000808476
0.000820823
0.000778865
0.000731586
0.000637537
0.000556186
0.000504554
0.000412668
0.000425607
0.000479091
0.000474213
0.00048592
0.000511486
0.000502517
0.000454955
0.000362296
0.000302733
0.000183294
9.23095e-05
8.57491e-05
0.000115172
0.000200054
0.000277312
0.000327827
0.000360822
0.000373461
0.000370797
0.000373737
0.000370341
0.000370823
0.000358693
0.000326846
0.000279771
0.000248778
0.000260917
0.000308622
0.00037295
0.000363668
0.000132016
0.000128959
0.000135221
0.00015448
0.000159803
0.000147913
0.000132636
0.000127852
0.000135925
0.000138306
0.000135835
0.000155527
0.000178877
0.0002042
0.000232313
0.000254312
0.000271536
0.000282544
0.000281533
0.000284571
0.000274988
0.000266617
0.000252825
0.00023231
0.000208669
0.000183408
0.00017969
0.000191362
0.000184765
0.000142515
8.20424e-05
7.68574e-05
0.000134278
0.000184681
0.00021589
0.000244112
0.000254154
0.000272916
0.00026886
0.000268602
0.000264397
0.000253996
0.00025541
0.000255718
0.000259642
0.000256718
0.0002267
0.000154104
9.33394e-05
6.07931e-05
4.85093e-05
5.68146e-05
8.26568e-05
0.000139337
0.000105858
0.00010641
0.000150826
0.0001347
6.85628e-05
4.52658e-05
1.57002e-05
1.86951e-05
2.42424e-05
1.77232e-05
1.2803e-05
1.32321e-05
1.43681e-05
1.94744e-05
2.2982e-05
2.46975e-05
2.64869e-05
3.00625e-05
3.00016e-05
3.10373e-05
3.27082e-05
2.93447e-05
3.15714e-05
3.21982e-05
2.86365e-05
2.74896e-05
2.64455e-05
2.24941e-05
2.04917e-05
1.94414e-05
1.73975e-05
1.74533e-05
1.81271e-05
1.92263e-05
1.93282e-05
1.66204e-05
2.54317e-05
1.81326e-05
5.50871e-05
2.02252e-05
1.12826e-05
1.09535e-05
1.20852e-05
1.87768e-05
2.81363e-05
3.17499e-05
3.11998e-05
3.07203e-05
2.74052e-05
2.59186e-05
2.08183e-05
1.93797e-05
2.18126e-05
2.23323e-05
2.80583e-05
3.26623e-05
3.90487e-05
3.90386e-05
5.55465e-05
5.21377e-05
3.95252e-05
3.08343e-05
6.14808e-05
9.29839e-05
0.000110242
0.00016905
1.04918e-05
1.50107e-05
1.40162e-05
1.22203e-05
1.01861e-05
9.23152e-06
7.86627e-06
9.52103e-06
7.41363e-06
8.48606e-06
7.45507e-06
7.23563e-06
6.77258e-06
6.45079e-06
7.11082e-06
7.09371e-06
7.46675e-06
8.42271e-06
6.52762e-06
9.04285e-06
1.16431e-05
1.36654e-05
1.42904e-05
1.38908e-05
1.66406e-05
2.07908e-05
1.07238e-05
1.56675e-05
1.41105e-05
1.41612e-05
2.94904e-05
3.61959e-05
3.83573e-05
4.3943e-05
5.35967e-05
8.15965e-05
0.000119724
0.000156499
0.000187765
0.000205693
0.000212092
0.000215781
0.000207125
0.000196375
0.000170848
0.000140724
0.000109862
8.17015e-05
5.26682e-05
5.46089e-05
4.78434e-05
3.19913e-05
1.94718e-05
3.62641e-06
7.28375e-06
6.61156e-06
7.90562e-06
8.6833e-06
1.82881e-05
1.42754e-05
2.33288e-05
2.5554e-05
9.65458e-06
3.12918e-05
4.45478e-05
3.63943e-05
6.54303e-05
9.77465e-05
0.00011558
0.000131661
0.000141812
0.000145138
0.000144631
0.000142716
0.00014088
0.000137839
0.000134701
0.000123593
0.000107607
8.53689e-05
4.7008e-05
4.02232e-05
2.99519e-05
2.09237e-05
1.87354e-05
1.28735e-05
1.16002e-05
1.27672e-05
9.95993e-06
5.61825e-06
5.19959e-06
6.41155e-06
6.9121e-06
9.57907e-06
1.16723e-05
7.51701e-06
2.36723e-05
4.66388e-05
0.000102703
0.000139889
0.000185014
0.00019352
0.000193229
0.000187992
0.000183244
0.000151559
0.000109043
6.45795e-05
3.28291e-05
2.01041e-05
7.12612e-06
1.14259e-05
1.0822e-05
5.85284e-06
4.2687e-06
1.35772e-06
2.45645e-06
4.90429e-06
4.91113e-06
4.58291e-06
4.29966e-06
4.51448e-06
4.01851e-06
9.40362e-06
1.10535e-05
8.73671e-06
5.86245e-06
7.34839e-06
8.91383e-06
5.56701e-06
8.41559e-06
1.01104e-05
1.18896e-05
1.22847e-05
7.16256e-06
5.59171e-06
7.40507e-06
5.9651e-06
5.32917e-06
3.12192e-06
5.83614e-06
5.08472e-06
5.30167e-06
6.10734e-06
2.39744e-05
1.76092e-05
6.54712e-06
8.9287e-06
4.99815e-06
3.14885e-06
3.26703e-06
2.10995e-06
2.51563e-06
3.60719e-06
4.67897e-07
2.57374e-07
1.78872e-07
3.66879e-07
6.40002e-07
1.00978e-06
1.56144e-06
2.2802e-06
3.62283e-06
2.97749e-06
3.05528e-06
3.77614e-06
2.2151e-06
1.21269e-06
1.15324e-06
8.44227e-07
5.16935e-07
5.47797e-07
3.80109e-07
5.49534e-07
5.36923e-06
5.77748e-06
4.07378e-06
7.15062e-06
6.28867e-05
8.9882e-05
0.000812601
0.000662266
0.000730218
0.000873637
0.000960191
0.00100112
0.00103359
0.00101621
0.000948737
0.000850238
0.000839985
0.000882072
0.000919416
0.000908706
0.000355038
0.00048156
0.000596816
0.00066681
0.000618439
0.000495393
0.000444905
0.000421552
0.000408522
0.000406394
0.00041703
0.000439594
0.000424045
0.000302661
0.000241934
0.000299262
0.000441904
0.000568888
0.000657493
0.000734993
0.000793711
0.000842488
0.000880633
0.000870399
0.000860992
0.000766002
0.000674079
0.000564857
0.00052086
0.000417357
0.000423941
0.000473916
0.000474131
0.000488264
0.000507017
0.00046372
0.000360457
0.000292786
0.000272232
0.000163032
8.94905e-05
8.51838e-05
0.0001553
0.00023741
0.000313658
0.000357454
0.000378317
0.000371406
0.000368801
0.000358621
0.000363685
0.000361127
0.000364006
0.00035002
0.00032149
0.000281819
0.00028278
0.000318654
0.0003759
0.000357048
0.000133131
0.000129442
0.000138912
0.000153048
0.000154137
0.000127381
9.63325e-05
9.32873e-05
0.000109906
0.000133843
0.000127927
0.000143107
0.000173849
0.000206019
0.000228618
0.000259906
0.00027961
0.000288914
0.000296948
0.000291386
0.000285212
0.000273902
0.000261903
0.000234672
0.000211362
0.000178952
0.000179563
0.000183875
0.000180567
0.000143996
7.96637e-05
8.14001e-05
0.000133382
0.000187522
0.000216187
0.000243113
0.000254633
0.000271763
0.000276795
0.0002848
0.000272607
0.000265693
0.000256677
0.000258736
0.000254048
0.000256625
0.000228932
0.000165538
7.55261e-05
6.17547e-05
4.91449e-05
5.40305e-05
6.2674e-05
0.000134346
0.000135114
0.000146315
0.0001712
0.000137955
6.27049e-05
2.67061e-05
1.56296e-05
2.02128e-05
2.30366e-05
1.44505e-05
1.15623e-05
1.28782e-05
1.47387e-05
2.03565e-05
2.38566e-05
2.51772e-05
2.67205e-05
3.07267e-05
3.1302e-05
3.32386e-05
3.07709e-05
3.28149e-05
2.99986e-05
3.20713e-05
3.08707e-05
2.92495e-05
2.63221e-05
2.39367e-05
2.21371e-05
1.96293e-05
1.77137e-05
1.78763e-05
1.79403e-05
1.93814e-05
1.91484e-05
1.61846e-05
2.23434e-05
2.44376e-05
3.4728e-05
1.11765e-05
8.12681e-06
8.88363e-06
1.27461e-05
2.4016e-05
3.12213e-05
3.29891e-05
3.06101e-05
2.66685e-05
2.08202e-05
2.06799e-05
1.24655e-05
1.23406e-05
1.70442e-05
1.90668e-05
2.10067e-05
2.90718e-05
3.44558e-05
2.69356e-05
5.00585e-05
5.19741e-05
4.1523e-05
2.81518e-05
4.51697e-05
6.97918e-05
9.52027e-05
0.000124516
1.11724e-05
1.46181e-05
1.36945e-05
1.1929e-05
1.01783e-05
9.3344e-06
7.95723e-06
9.30836e-06
6.30885e-06
7.71591e-06
6.55092e-06
5.82671e-06
5.69417e-06