/*--------------------------------*- C++ -*----------------------------------*\
| =========                 |                                                 |
| \\      /  F ield         | OpenFOAM: The Open Source CFD Toolbox           |
|  \\    /   O peration     | Version:  2.1.1                                 |
|   \\  /    A nd           | Web:      www.OpenFOAM.org                      |
|    \\/     M anipulation  |                                                 |
\*---------------------------------------------------------------------------*/
FoamFile
{
    version     2.0;
    format      ascii;
    class       volScalarField;
    location    "0.006200000";
    object      O2;
}
// * * * * * * * * * * * * * * * * * * * * * * * * * * * * * * * * * * * * * //

dimensions      [0 0 0 0 0 0 0];

internalField   nonuniform List<scalar> 
12384
(
0.0116159
0.0130113
0.0134524
0.012942
0.0121109
0.0113256
0.0106703
0.0102777
0.0100438
0.0100928
0.0101649
0.0104159
0.00878977
0.00611908
0.0374443
0.0289228
0.027182
0.0271097
0.0272128
0.0277729
0.028833
0.0302049
0.0313183
0.0319205
0.0321839
0.0322492
0.0321313
0.0319566
0.0316643
0.0315783
0.030956
0.0314084
0.0306448
0.0313436
0.0310956
0.0315528
0.0316091
0.0318165
0.0321312
0.0318124
0.0308046
0.0321414
0.0419166
0.0443958
0.0152755
0.0170944
0.0136162
0.0110627
0.00950606
0.00800062
0.00718804
0.00593212
0.00507553
0.00427748
0.0037824
0.00350101
0.00316006
0.00316351
0.00290315
0.00300211
0.00293674
0.00300556
0.00310287
0.00321857
0.00347922
0.00375449
0.00404271
0.00460855
0.00567665
0.00684422
0.00834383
0.00999035
0.00815273
0.00579036
0.00214571
0.00229507
0.00217512
0.00208191
0.00198055
0.00203727
0.00210288
0.00210694
0.00218913
0.0022505
0.0022247
0.00225587
0.00228702
0.0023379
0.00228913
0.00218262
0.00223724
0.00224219
0.00229309
0.00235341
0.00232063
0.0023238
0.00237387
0.00246705
0.00259038
0.00297081
0.00271651
0.00221915
0.00203477
0.00198977
0.000229031
0.000234717
0.00036498
0.000487313
0.0005565
0.000589881
0.000601118
0.000278275
0.000274985
0.000205673
0.000361311
0.000527486
0.000497756
0.000405128
0.00040927
0.000312309
0.000268707
0.000224817
0.00025461
0.00044626
0.00151916
0.0028789
0.00284201
0.00202165
0.0016902
0.00155189
0.00149887
0.00164421
0.00191799
0.00211156
5.85231e-05
2.04104e-05
1.83477e-05
4.13528e-05
6.68183e-05
7.93318e-05
9.2309e-05
9.1085e-05
8.79002e-05
8.95493e-05
8.8687e-05
8.41106e-05
7.93801e-05
7.93673e-05
7.65843e-05
7.83341e-05
7.49292e-05
7.13244e-05
6.97107e-05
7.1969e-05
6.83247e-05
7.13627e-05
6.93174e-05
7.25124e-05
7.15809e-05
7.64611e-05
7.3852e-05
2.52987e-05
7.41423e-05
5.29201e-05
0.000563511
0.000937162
0.00147106
0.00105668
0.000388528
0.000176394
0.000166483
0.000179469
0.000185364
0.000197564
-4.08658e-05
5.73589e-05
0.000144117
0.00014592
0.000199952
0.000128026
0.00017734
-2.14227e-05
-2.74332e-05
0.000237867
0.000228853
0.000237587
0.000246282
-5.44555e-05
0.00718474
0.0155334
0.0158948
0.01629
0.0165492
0.0164379
0.00108485
0.000229897
6.57216e-05
4.54285e-05
3.91707e-05
4.34433e-05
4.58642e-05
4.36165e-05
4.68376e-05
4.68651e-05
4.76085e-05
4.77363e-05
4.09184e-05
4.15383e-05
4.69965e-05
4.88897e-05
4.40243e-05
4.86763e-05
5.57466e-05
5.09383e-05
4.55705e-05
5.82825e-05
0.000106526
0.000186883
0.000148616
0.000166617
0.000145366
0.000140153
0.000146338
0.000154112
0.000224033
0.000109735
8.65767e-05
0.000104177
0.000122993
0.000137278
0.000142632
0.000176146
0.000187426
0.000166468
0.000181652
0.000171222
0.000164033
0.00019743
0.000170425
0.000189414
0.000165266
0.00016648
0.000100748
7.41485e-05
5.48451e-06
2.83424e-06
5.01268e-06
4.07528e-06
8.13817e-06
9.3828e-06
7.78844e-06
3.83872e-06
4.92309e-06
3.92362e-06
0.000202477
7.08533e-05
7.43215e-05
6.79011e-05
7.146e-05
7.47185e-05
7.40435e-05
7.93549e-05
8.11718e-05
7.75751e-05
-1.7281e-05
-1.02383e-06
1.85054e-05
3.54572e-05
1.69323e-05
3.03908e-05
2.51588e-05
1.80278e-05
2.73747e-05
2.75151e-05
-1.69384e-05
-4.68551e-05
3.50529e-05
1.33985e-05
1.64545e-05
2.05001e-05
8.85114e-06
1.13144e-05
9.03695e-06
6.04104e-06
1.90997e-05
1.02358e-05
1.3664e-05
1.67111e-05
1.6846e-05
1.62647e-05
1.61292e-05
1.29352e-05
2.08011e-05
2.05861e-05
2.47392e-05
2.07076e-05
1.80753e-05
2.28501e-05
1.98036e-05
2.48288e-05
2.31168e-05
2.91676e-05
2.66526e-05
3.09669e-05
2.0551e-05
1.28071e-05
1.00828e-05
9.36061e-06
8.70231e-06
7.81429e-06
7.37852e-06
7.7224e-06
8.38627e-06
9.14492e-06
3.21116e-05
6.92965e-06
5.66082e-06
2.69583e-05
-2.89319e-06
-8.27177e-07
2.68899e-05
-3.51862e-05
-1.88061e-05
-1.28403e-05
3.27526e-06
2.92157e-05
3.02109e-05
2.66108e-05
2.61517e-05
2.74554e-05
3.07148e-05
3.18714e-05
9.37825e-07
3.22111e-05
2.84292e-05
2.71698e-05
2.53634e-05
2.40845e-05
2.3235e-05
2.20539e-05
2.15566e-05
2.01028e-05
1.13432e-05
1.46071e-05
4.71028e-05
2.99299e-05
0.000136157
0.00590636
0.0405764
0.0711798
0.0448373
1.25307e-06
1.73094e-07
1.59441e-07
1.71519e-07
7.35078e-08
1.17765e-07
2.53099e-07
3.18106e-07
3.59722e-07
3.93552e-07
2.66513e-07
4.40842e-07
6.04399e-07
8.73674e-07
9.23964e-07
5.51832e-07
3.43301e-07
1.35256e-07
1.41094e-07
1.35541e-07
1.51696e-07
1.92092e-07
9.38039e-06
0.0225266
0.0205826
0.01598
0.012651
0.0107114
0.0093564
0.00826669
0.00775211
0.00738826
0.00745882
0.00796762
0.008857
0.00872632
0.00650579
0.0369104
0.0280977
0.0260732
0.0259885
0.0265378
0.0286649
0.0318063
0.0337741
0.0339841
0.0332291
0.0318149
0.0299977
0.0280455
0.0259301
0.0242589
0.0228614
0.0220594
0.0217974
0.0222384
0.0229032
0.0240878
0.0254165
0.0271677
0.0290495
0.0307476
0.0317813
0.0313857
0.0312924
0.0350695
0.0415064
0.0153622
0.0160766
0.0115755
0.00891105
0.00720361
0.00605403
0.00530468
0.00429442
0.00363292
0.00265202
0.00209398
0.00157244
0.00151331
0.00153504
0.00175641
0.00171898
0.00191964
0.0019973
0.0020505
0.00203663
0.00209408
0.00221852
0.00253478
0.00303697
0.00372728
0.00498149
0.00696429
0.0091157
0.00967749
0.00689252
0.00221991
0.00228209
0.00204451
0.00190383
0.00202301
0.00211089
0.00225402
0.0023449
0.00232469
0.00238402
0.00244175
0.00253668
0.00263258
0.00280116
0.00286084
0.00289597
0.00301546
0.00311893
0.0031759
0.00311342
0.00299012
0.00285164
0.00274409
0.00267313
0.0025543
0.00276411
0.00298051
0.00237303
0.00160203
0.0014899
0.000186555
0.000381843
0.000554022
0.000291834
0.00113284
0.00165377
0.00207545
0.00238481
0.00263808
0.00275791
0.00283344
0.00282818
0.00261667
0.00213697
0.00140573
0.000409383
0.000458812
0.000285967
0.00025641
0.000324452
0.000529665
0.00208267
0.00272685
0.00126255
0.000468719
0.000309179
0.000411639
0.000483894
0.000640257
0.00109533
5.49656e-05
1.94123e-05
3.61918e-05
7.52305e-05
9.40779e-05
9.72653e-05
8.94005e-05
7.39253e-05
6.63395e-05
6.48338e-05
6.55898e-05
6.83332e-05
7.16051e-05
7.48554e-05
6.61333e-05
6.85525e-05
6.67875e-05
6.75132e-05
6.28845e-05
6.3048e-05
6.17209e-05
6.1958e-05
6.29654e-05
6.41312e-05
6.72665e-05
7.12301e-05
7.33793e-05
7.42478e-05
7.23746e-05
6.20609e-05
0.000577712
0.00102307
0.000495911
0.000143748
0.000121984
0.000157218
0.000220029
0.000717697
0.000954803
0.00110274
0.00117775
0.00123606
0.00127221
0.00130125
0.00133193
0.00123024
0.00124124
0.00117191
0.00109228
0.000813046
0.000562397
0.000296368
-0.000102569
0.000262012
0.00137696
0.0113591
0.0196792
0.0198213
0.0178506
0.0184167
0.000128009
3.60525e-05
2.83081e-05
4.35398e-05
5.18393e-05
5.5167e-05
4.8817e-05
4.45914e-05
4.70178e-05
4.0508e-05
3.67192e-05
3.96296e-05
3.80291e-05
3.93707e-05
3.49664e-05
3.68739e-05
4.30978e-05
4.0424e-05
4.7944e-05
5.50116e-05
4.74245e-05
5.28881e-05
7.54625e-05
0.00015077
0.000157975
9.46304e-05
5.05749e-05
1.90502e-05
1.71436e-05
5.27957e-05
0.000132856
9.63448e-06
9.9832e-05
0.000146787
0.000211636
0.000229106
0.000238122
0.000246297
0.00025955
0.000270141
0.000271343
0.000282662
0.000285806
0.000284975
0.000299108
0.000278409
0.000248982
0.000234971
0.00019142
9.0621e-05
1.65404e-05
4.89065e-06
9.75325e-06
-3.21761e-06
3.79696e-06
9.85009e-06
2.14048e-05
7.64831e-06
2.00547e-05
1.2562e-05
0.000340064
3.12438e-05
7.23858e-05
7.24903e-05
7.99227e-05
9.49997e-05
2.55228e-05
0.000118185
0.000174671
0.000201824
0.000223406
0.000222706
0.000215848
0.00020228
0.000188904
0.000189924
0.000190068
0.000146817
9.93348e-05
0.000110523
4.96095e-05
4.5241e-05
7.80003e-05
2.95061e-05
1.63775e-05
1.25095e-05
2.40316e-05
3.11064e-05
2.87086e-05
1.80835e-05
1.88266e-05
8.26133e-06
1.45069e-05
3.61221e-06
1.69183e-05
1.98901e-05
2.14421e-05
2.72949e-05
3.42683e-05
3.22762e-05
3.54665e-05
3.23865e-05
3.35909e-05
3.31318e-05
3.30684e-05
3.41112e-05
3.15959e-05
3.34825e-05
3.10373e-05
3.59635e-05
3.0757e-05
7.30149e-06
1.05427e-05
5.73127e-06
3.41367e-06
3.3662e-06
1.23482e-06
2.62217e-06
3.01052e-06
5.43188e-06
1.03201e-05
1.45798e-05
1.90624e-05
1.81648e-06
-1.237e-06
1.8968e-05
3.45727e-05
-4.0789e-05
2.85314e-05
2.27235e-05
1.71332e-05
6.80204e-06
4.72494e-06
4.7292e-06
4.2342e-06
1.32237e-05
1.52008e-05
1.78477e-05
2.54059e-05
2.68997e-05
2.60249e-05
2.23816e-05
1.92939e-05
1.77794e-05
1.73396e-05
1.8354e-05
2.04891e-05
2.01899e-05
1.41137e-05
1.39094e-05
1.08975e-06
9.79829e-07
1.37482e-06
7.6831e-06
0.0195009
0.0490954
6.50262e-06
2.70773e-07
1.82722e-07
1.95781e-07
1.73776e-07
2.58778e-07
3.50362e-07
3.99165e-07
4.27511e-07
4.74617e-07
5.1603e-07
2.65932e-07
7.12965e-07
3.82263e-08
1.73337e-06
3.02712e-06
4.03016e-06
2.02618e-06
5.20411e-07
1.89374e-07
1.53384e-07
1.61487e-07
2.51525e-07
3.3512e-05
0.0222126
0.0177051
0.0147647
0.0138178
0.0136283
0.0129526
0.011705
0.0102694
0.00841112
0.00726857
0.00704914
0.0077554
0.0083859
0.00677118
0.0360192
0.0269837
0.0247385
0.0246582
0.026128
0.030887
0.0345207
0.0348203
0.0327816
0.0298815
0.0266796
0.0235567
0.0199935
0.0165074
0.0138942
0.0123187
0.0120762
0.0131458
0.0150341
0.017111
0.0193739
0.0212245
0.0230794
0.0251804
0.0278347
0.0302479
0.0314242
0.0311942
0.0320654
0.0382707
0.0152115
0.0148903
0.0100605
0.00823818
0.00756364
0.00754419
0.00732641
0.00580688
0.00393255
0.00271208
0.00158814
0.000952076
0.00116061
0.00142984
0.00209528
0.00274041
0.00331395
0.00356318
0.00365119
0.00346232
0.00320132
0.00283216
0.00265589
0.00273858
0.00305852
0.00374373
0.00526915
0.00782818
0.00965814
0.0080105
0.00218569
0.00221417
0.00196079
0.00198429
0.00215006
0.00236847
0.00244576
0.0023793
0.00235152
0.00233213
0.00237394
0.00259046
0.00280552
0.0030779
0.0033023
0.00348284
0.00364982
0.00402543
0.00428242
0.00444048
0.00404591
0.00360769
0.00329214
0.0030032
0.00276388
0.00264451
0.00289009
0.00276355
0.0019508
0.00152684
0.000255852
0.000474202
0.000638874
0.000894125
0.00173511
0.00242952
0.00291605
0.00319687
0.00337749
0.00350762
0.00360653
0.00361523
0.00365606
0.0035692
0.00307915
0.00223157
0.000842002
0.000483621
0.000279767
0.000268894
0.000366936
0.000630865
0.00255279
0.00107228
0.000166137
0.000269094
0.00051699
0.000248496
0.000475556
0.000525938
4.95475e-05
2.5894e-05
5.88388e-05
9.71743e-05
-2.95941e-06
7.36427e-05
6.31035e-05
6.04545e-05
5.66674e-05
6.49142e-05
7.6222e-05
8.09992e-05
8.24038e-05
7.7147e-05
7.96685e-05
7.18259e-05
6.97258e-05
7.06904e-05
6.92445e-05
6.6671e-05
6.55288e-05
6.40469e-05
6.38681e-05
6.55658e-05
6.482e-05
7.00522e-05
6.84497e-05
7.28737e-05
6.80707e-05
5.85192e-05
0.000660974
0.000581208
9.45165e-05
0.000118773
0.000324185
0.00112802
0.00128901
0.000997377
0.000701116
0.000426538
0.000430451
0.000492084
0.000546505
0.000647998
0.000740049
0.00086714
0.00100133
0.00112654
0.00121563
0.00126588
0.00107294
0.000816959
0.00047058
-1.30974e-05
0.000282628
0.0023667
0.0135372
0.0155984
0.0125686
0.0162826
2.81819e-05
2.34632e-05
4.64731e-05
5.61692e-05
5.03784e-05
4.25534e-05
3.20961e-05
3.58424e-05
3.16054e-05
2.10839e-05
2.16269e-05
2.41911e-05
2.52635e-05
2.32714e-05
1.75907e-05
2.2541e-05
2.80902e-05
3.75656e-05
3.58209e-05
4.46133e-05
5.12735e-05
4.88639e-05
5.08668e-05
9.65461e-06
0.000159047
0.000118416
4.49349e-05
7.06017e-05
6.13788e-05
6.9109e-05
8.10928e-05
9.56527e-05
0.000156456
0.000223407
0.000238301
0.000256027
0.000272072
0.000296759
0.000309436
0.00017611
0.00033279
0.00044783
0.00034088
0.000303161
0.000262463
7.61996e-05
0.000342355
0.000286539
0.000260523
0.000187745
9.08872e-05
1.40613e-05
9.512e-06
3.16669e-06
3.30182e-06
1.9287e-05
1.82324e-05
1.04164e-05
2.20157e-05
1.28281e-05
0.000395432
8.32742e-05
7.41942e-05
7.89428e-05
-4.73793e-06
0.000144825
0.000249612
0.000288895
7.70791e-05
0.000521289
0.000850892
0.00100758
0.00106514
0.00102876
0.000916627
0.00067508
0.000453916
-7.21237e-05
0.000239039
0.000198676
0.000139008
6.05603e-05
2.00922e-05
6.03442e-05
2.13692e-05
2.04815e-05
3.30369e-05
3.33997e-05
3.86029e-05
2.42986e-05
1.88898e-05
1.26598e-05
2.45964e-06
1.66033e-05
2.17796e-05
3.40258e-05
3.53475e-05
4.38807e-05
-3.98754e-06
3.40212e-05
5.39868e-05
6.91565e-05
9.82991e-05
9.25192e-05
8.71532e-05
4.16648e-05
2.39149e-05
4.15458e-05
3.92615e-05
3.37992e-05
3.71387e-05
2.41031e-05
1.44663e-05
6.83392e-06
2.6309e-06
4.95318e-06
2.73365e-06
5.94065e-06
6.73831e-06
3.6786e-06
-2.9693e-06
-1.07689e-06
-1.2062e-06
1.17968e-05
1.35518e-05
3.56965e-05
3.65599e-05
2.55632e-05
1.65869e-05
1.482e-05
1.3518e-05
1.4142e-05
1.4155e-05
1.41008e-05
1.35057e-05
1.36654e-05
1.30518e-05
4.47601e-06
1.54853e-05
2.42965e-05
2.48599e-05
1.84806e-05
7.60797e-06
7.00786e-06
8.64458e-06
1.08154e-05
1.43642e-05
2.11255e-05
1.60194e-05
1.33309e-05
2.24559e-06
1.34803e-06
2.66043e-06
2.58486e-05
0.0201757
4.71791e-05
2.70282e-07
1.93073e-07
2.10764e-07
2.43179e-07
2.70972e-07
3.79627e-07
4.58673e-07
5.3421e-07
5.54117e-07
5.239e-07
5.35082e-07
5.25849e-07
4.7221e-07
5.40589e-07
7.4042e-07
1.84711e-06
2.94146e-06
6.79493e-06
2.40107e-06
3.95636e-07
1.96132e-07
2.31366e-07
5.15716e-07
0.000751296
0.021321
0.0190232
0.0212245
0.0218346
0.0200463
0.0178084
0.0162644
0.0147694
0.0125784
0.00973727
0.00746706
0.00725195
0.0079012
0.00685777
0.0352198
0.0255975
0.0230111
0.0230933
0.0267223
0.0334306
0.035528
0.0343085
0.031727
0.0291909
0.0258695
0.021397
0.0157608
0.0107991
0.00768811
0.00686519
0.00781771
0.0105649
0.0143642
0.0177398
0.0206202
0.0220944
0.0227388
0.0236198
0.0252896
0.0282043
0.0306137
0.0313051
0.0311094
0.0361
0.0149069
0.0140431
0.00971093
0.00876248
0.0090575
0.00990345
0.00975545
0.00815893
0.00506203
0.00309651
0.00118711
0.000326823
0.000649253
0.00161109
0.00285557
0.00398287
0.00576086
0.00717735
0.00779541
0.00773569
0.00714103
0.00581794
0.00396381
0.00339649
0.00321622
0.00350401
0.00421776
0.00674818
0.00931288
0.00851728
0.00212988
0.00214539
0.00190432
0.00213139
0.00236344
0.0025073
0.00248781
0.00240676
0.00222917
0.00216233
0.00226022
0.00249107
0.00288566
0.0033571
0.00374802
0.00474055
0.00542868
0.00570814
0.00600834
0.00585746
0.00559984
0.00511691
0.00402159
0.00347553
0.00300243
0.00272988
0.00278388
0.00294995
0.00244615
0.00169674
0.000489748
0.000560508
0.000474475
0.00161422
0.00257145
0.0032148
0.00356486
0.00368636
0.00376424
0.00374933
0.00373135
0.00372396
0.0038257
0.00383916
0.00387525
0.00333075
0.00224361
0.000660185
0.000406812
0.000280083
0.000292037
0.000470763
0.00198887
0.00146736
0.000189039
0.000520188
0.00115684
0.00071513
0.000419313
0.00040562
4.78714e-05
3.66172e-05
8.1e-05
9.64832e-05
7.81131e-05
5.32861e-05
5.21378e-05
5.10626e-05
6.79878e-05
7.17371e-05
8.55399e-05
8.30158e-05
8.49078e-05
7.81339e-05
8.72429e-05
7.43567e-05
8.20371e-05
7.62619e-05
7.91657e-05
7.58651e-05
6.9076e-05
6.42658e-05
6.51247e-05
6.40565e-05
6.42398e-05
6.43802e-05
6.96365e-05
6.8876e-05
6.85012e-05
5.74546e-05
0.000586709
0.000130518
5.29053e-05
0.000627438
0.00142511
0.000735613
0.000173125
0.000146318
0.000142141
0.000163973
0.000190787
0.000205273
0.00021774
0.000218267
0.000216529
0.000220675
0.000234714
4.21868e-05
0.000512573
0.000822157
0.00100964
0.00104809
0.000818552
0.000417977
8.90778e-05
0.00102425
0.00495666
0.00868104
0.00680525
0.0136463
2.10025e-05
4.32954e-05
5.55691e-05
4.779e-05
3.67175e-05
2.87135e-05
3.29835e-05
2.67931e-05
2.17969e-05
1.60911e-05
1.03124e-05
7.64765e-06
1.52998e-05
2.8294e-06
1.49669e-05
9.97085e-06
1.5763e-05
2.35148e-05
3.3711e-05
3.24203e-05
4.18455e-05
4.54146e-05
4.28904e-05
5.8337e-05
8.99886e-05
0.000134214
9.25817e-05
6.93014e-05
5.07212e-05
4.82463e-05
0.000109564
0.000156307
0.000213215
0.000231188
0.000253888
0.000288726
0.000329114
0.000445893
0.000913177
0.00119486
0.00142377
0.00150241
0.00143678
0.00133993
0.00111435
0.000862177
0.000412959
0.000365376
0.000303341
0.000266157
0.000144336
5.24337e-05
1.45892e-05
1.85692e-05
4.89947e-06
1.8841e-05
1.75189e-05
2.36271e-05
2.18893e-05
2.51038e-05
4.79411e-06
7.84559e-05
8.01138e-05
-2.21118e-05
0.00014838
0.000277631
5.6243e-05
0.000636983
0.00124764
0.00167028
0.00192732
0.00208619
0.00217538
0.00210733
0.00199716
0.00194358
0.00164902
0.0012374
0.000585844
0.000282577
0.000218525
0.000144769
0.000105891
1.24737e-05
3.98309e-05
1.95618e-05
1.97188e-05
3.68861e-05
3.6666e-05
2.55218e-05
1.78598e-05
-5.73996e-07
1.45675e-05
2.12628e-05
3.48122e-05
3.80643e-05
4.99975e-05
5.31148e-05
0.00012531
0.000163672
-5.76335e-05
0.000315423
0.000478069
0.000424796
0.000147818
0.000186866
0.000134069
9.01494e-05
4.99172e-06
4.30385e-05
3.7036e-05
3.67786e-05
1.22806e-05
1.19153e-05
3.42465e-06
4.93827e-06
3.1861e-06
8.24795e-06
9.95982e-06
7.72101e-06
1.07726e-05
1.08229e-05
1.10643e-05
7.22173e-06
3.24218e-05
3.82152e-05
3.06855e-05
1.21754e-05
1.67066e-05
1.53864e-05
1.82116e-05
1.87951e-05
1.974e-05
1.86949e-05
1.74486e-05
1.57888e-05
1.34612e-05
1.31931e-05
4.67494e-06
1.76034e-05
2.48102e-05
1.75026e-05
5.26595e-06
9.24205e-06
1.50619e-05
1.74171e-05
1.86798e-05
1.96784e-05
1.7524e-05
1.26745e-05
3.72903e-06
3.77325e-06
1.7485e-05
0.000436611
0.000513391
8.16245e-07
9.60458e-08
2.03375e-07
1.69127e-07
3.61385e-07
5.29125e-07
4.60046e-07
7.65324e-07
9.5329e-07
8.28726e-07
7.69102e-07
7.81054e-07
1.87802e-07
5.83198e-07
5.22124e-07
4.2402e-07
2.96353e-07
2.20294e-06
9.47321e-06
5.91563e-06
3.80207e-07
9.16874e-07
8.38944e-07
3.16109e-06
0.0126821
0.0235952
0.0264418
0.0278802
0.0240144
0.0187493
0.0164477
0.0160063
0.0158198
0.015
0.0127447
0.00901777
0.00738421
0.00760395
0.0068466
0.034443
0.0240782
0.0209196
0.0217618
0.028148
0.0346942
0.036153
0.0354129
0.0343231
0.0327307
0.0289522
0.0223162
0.0141808
0.0076609
0.00465884
0.00489692
0.00756008
0.012659
0.0175603
0.0214048
0.0230609
0.0234521
0.0229443
0.0225943
0.0237147
0.02614
0.0296277
0.0311996
0.0310585
0.0350339
0.0145631
0.0135693
0.00976714
0.0095776
0.0104264
0.0116844
0.0115252
0.00918698
0.00614855
0.0030425
0.000547576
0.000541378
0.000618483
0.00208661
0.00351548
0.00558728
0.00763747
0.0089541
0.00948143
0.00962666
0.00955677
0.00897928
0.00764333
0.00558081
0.00390343
0.00374034
0.00413609
0.00620556
0.0090133
0.00867789
0.00209231
0.00209844
0.00202787
0.00228971
0.00249278
0.00251011
0.00236666
0.0022251
0.00212641
0.00206204
0.0020816
0.00243422
0.00302921
0.00356015
0.00478067
0.00600073
0.00666534
0.00704901
0.00717297
0.0071565
0.0068658
0.0063391
0.00534809
0.00383812
0.00326887
0.00277473
0.00272257
0.00297074
0.00272839
0.00188078
0.000490897
0.000579167
0.0012701
0.00235376
0.00312414
0.00357228
0.00370586
0.00377437
0.00374284
0.00365552
0.00365483
0.00364975
0.0036497
0.00382191
0.00394394
0.00382945
0.00306113
0.00159511
0.000523574
0.000266929
0.000261898
0.000375668
0.00126714
0.0018889
0.000565778
0.000702382
0.00173141
0.00142929
0.000409486
0.00030356
4.43248e-05
4.82122e-05
8.69696e-05
8.40694e-05
5.2744e-05
4.37534e-05
5.33485e-05
5.90701e-05
6.93758e-05
8.46638e-05
8.86583e-05
8.8506e-05
9.23577e-05
8.76081e-05
8.03365e-05
8.79035e-05
9.13005e-05
7.63539e-05
7.56924e-05
8.32735e-05
7.53739e-05
7.2861e-05
6.5448e-05
6.44118e-05
6.32944e-05
6.39557e-05
6.59463e-05
6.7589e-05
6.79704e-05
5.80513e-05
0.000139897
6.14676e-05
0.000103597
0.00135158
7.86938e-05
9.06241e-05
3.56621e-05
7.58311e-05
0.000131427
0.000178301
0.000199565
0.000191727
0.000186144
0.000185689
0.000176494
0.000162193
0.000163531
0.000179352
0.000229428
-2.32259e-05
0.000595671
0.000905547
0.000941127
0.000666925
0.000148719
0.000442925
0.001874
0.00334712
0.00365195
0.010849
2.20387e-05
4.8354e-05
4.70462e-05
3.89029e-05
3.00344e-05
2.31051e-05
1.77668e-05
2.35254e-05
2.05663e-05
9.6569e-06
6.55599e-06
1.99649e-05
1.84361e-05
1.84944e-05
1.89148e-05
1.86279e-05
2.10316e-05
1.17741e-05
2.07912e-05
3.18339e-05
4.15755e-05
3.92334e-05
3.84961e-05
4.03512e-05
7.29622e-05
9.43708e-05
8.67352e-05
6.37158e-05
4.50968e-05
3.98025e-05
0.000144656
0.000165859
0.000218003
0.000244995
0.000290778
0.000197519
0.00095528
0.00170233
0.00231572
0.00274209
0.00305945
0.00311663
0.00295578
0.00266988
0.00216521
0.0015914
0.00110529
0.000550628
0.000371624
0.000296334
0.000214862
-1.97885e-08
1.28403e-05
1.74355e-05
1.97395e-05
1.69635e-05
1.80585e-05
2.43604e-06
3.34168e-05
2.50062e-05
0.000264045
8.22502e-05
8.98427e-05
0.00011366
0.000257013
0.000320419
0.000598686
0.00132852
0.00195827
0.00238898
0.00272524
0.00338228
0.00387698
0.0038091
0.00359578
0.00288082
0.00243033
0.00204776
0.00153904
0.000770568
0.000294524
0.000201472
0.000125947
5.65207e-05
5.71199e-05
3.08426e-05
2.47391e-05
3.48677e-05
2.81749e-05
2.29892e-05
6.69461e-06
-1.94106e-06
1.77453e-05
3.21651e-05
3.60476e-05
4.63765e-05
7.25046e-05
0.000171965
0.000291562
0.00134166
0.00209844
0.00290033
0.00380115
0.0034292
0.00225027
0.0015978
0.000729747
0.000191474
0.000127948
1.4248e-05
4.47993e-05
3.82397e-05
3.13887e-05
-2.73867e-06
7.23123e-06
4.90665e-06
2.71735e-06
9.67509e-06
1.10692e-05
9.61122e-06
1.043e-05
1.04392e-05
1.35196e-07
1.92883e-05
3.73253e-05
3.49128e-05
2.17312e-05
1.79393e-05
1.75141e-05
2.05085e-05
2.49964e-05
1.74451e-05
1.81852e-05
1.24096e-05
1.94307e-06
1.95238e-05
1.64032e-05
1.28293e-05
1.23757e-05
1.51901e-05
2.3632e-05
1.27954e-05
5.81901e-06
2.16239e-05
3.44733e-05
3.51292e-05
3.03003e-05
2.41706e-05
1.4189e-05
1.29153e-05
8.40888e-06
4.3091e-06
-1.14701e-05
0.000117564
5.11484e-06
3.43339e-07
2.06888e-07
1.63372e-07
3.85343e-07
6.30593e-07
9.22441e-07
1.52331e-06
7.61557e-07
1.5209e-06
1.65931e-06
1.39148e-06
1.78948e-06
1.10166e-06
6.10596e-07
4.77808e-07
5.54055e-07
4.01373e-07
2.11746e-07
2.61302e-06
1.27386e-05
1.79597e-06
3.82586e-06
4.77631e-06
2.97762e-05
0.0330806
0.0280006
0.0332736
0.0293277
0.0195739
0.0144644
0.0138283
0.0152232
0.0166705
0.0168172
0.0152014
0.0112048
0.00786602
0.00750546
0.00677795
0.0337871
0.0227887
0.0185
0.0200169
0.0278953
0.0351399
0.0373964
0.0380251
0.0383242
0.0373786
0.0335129
0.0253945
0.0147271
0.0064662
0.00395115
0.00499921
0.0103205
0.017442
0.0223288
0.0237285
0.0231992
0.0219947
0.0211049
0.0210352
0.0221242
0.0249008
0.0286161
0.0312082
0.0309962
0.0345167
0.0142488
0.0134441
0.0099255
0.0101502
0.0115186
0.0121089
0.0105432
0.00797908
0.00567246
0.00262423
0.000590504
0.000534534
0.00110666
0.00287397
0.00438001
0.00734904
0.00889955
0.00962401
0.00966201
0.00973734
0.00970389
0.00969472
0.0093043
0.00802565
0.00604215
0.00454294
0.00461524
0.00625115
0.00894993
0.00870438
0.00202611
0.00205767
0.00207908
0.00241712
0.00252733
0.00224396
0.0018769
0.00171959
0.00185435
0.00191026
0.0019136
0.00239009
0.0030313
0.00377342
0.00538754
0.00684361
0.0077917
0.008312
0.00842579
0.00828514
0.00782186
0.00721337
0.0062187
0.00464399
0.00345904
0.00284527
0.00270647
0.00296089
0.00284707
0.00191802
0.000498402
0.000433369
0.00168904
0.00269904
0.00328179
0.00362767
0.00366911
0.00373299
0.00364052
0.00360236
0.00357593
0.00351305
0.0035979
0.00370575
0.00389133
0.00392604
0.00337373
0.00200375
0.00059538
0.000343744
0.000255048
0.000329025
0.000649631
0.00191013
0.00126955
0.00127518
0.00220169
0.00180269
0.000415839
0.000220785
4.72704e-05
6.18138e-05
8.73037e-05
6.03875e-05
3.83799e-05
3.9525e-05
4.39624e-05
6.3616e-05
7.59806e-05
8.09763e-05
8.54257e-05
9.72745e-05
9.44624e-05
9.71147e-05
0.000101966
8.60256e-05
9.52504e-05
9.69356e-05
8.45754e-05
8.36633e-05
8.38375e-05
7.34642e-05
6.92795e-05
6.79237e-05
6.14658e-05
6.26133e-05
6.55998e-05
6.96257e-05
6.84333e-05
5.60588e-05
0.000166527
0.00010191
0.00093684
8.94418e-06
4.3724e-05
3.8655e-05
4.37728e-05
9.75373e-05
0.000176959
0.000206501
0.000198487
0.000186552
0.000151915
0.000133808
8.97171e-05
7.84644e-05
9.55707e-05
0.000105112
0.000156674
0.000200606
0.000258733
0.000440548
0.000854661
0.000793426
0.000421572
0.000235986
0.00100092
0.00182144
0.00225571
0.00735406
2.54261e-05
4.57496e-05
4.34066e-05
3.60128e-05
2.71227e-05
2.2256e-05
1.65576e-05
2.31754e-05
1.48524e-05
2.08132e-05
1.80027e-05
1.73136e-05
1.60576e-05
1.52271e-05
1.68432e-05
1.684e-05
1.77725e-05
2.03384e-05
1.06713e-05
2.19372e-05
3.36264e-05
4.27487e-05
4.52037e-05
4.32772e-05
5.58872e-05
7.55034e-05
-3.77764e-06
5.40794e-05
4.57496e-05
4.43959e-05
0.000147221
0.000207457
0.00023026
0.000275102
0.000352304
0.00105632
0.00201324
0.00293517
0.00473453
0.00625852
0.00710028
0.00704746
0.00641489
0.0053083
0.00321085
0.00252479
0.00177554
0.00109336
0.000391583
0.000347562
0.000281043
0.000146971
6.61423e-05
-1.58452e-06
1.70983e-05
1.5329e-05
1.88694e-05
1.47042e-05
5.41165e-05
4.26779e-05
8.81521e-05
8.70754e-05
-2.6782e-05
0.000163093
0.000279966
0.00015333
0.000945994
0.00177831
0.00234927
0.00341812
0.00442525
0.00478319
0.00483399
0.00471529
0.00460692
0.00446055
0.00380452
0.00257965
0.00212537
0.00146659
0.000513369
0.000258272
0.000170005
8.761e-05
6.76112e-05
4.1079e-05
3.47927e-05
3.91947e-05
2.39398e-05
4.12893e-06
8.69972e-06
1.37286e-05
1.83457e-05
3.07539e-05
4.06173e-05
1.32319e-06
0.000140609
0.000576545
0.00200801
0.00467535
0.00869965
0.0111902
0.0129575
0.0117379
0.0094216
0.00588432
0.00228479
0.00113905
0.000218065
0.000112444
2.2919e-06
4.02713e-05
3.58613e-05
1.34762e-05
9.58807e-06
9.44413e-07
3.84711e-06
1.1137e-05
1.13693e-05
1.03873e-05
1.02614e-05
1.08142e-05
8.50794e-06
3.28283e-05
4.02781e-05
2.87201e-05
1.16223e-05
1.74856e-05
2.12194e-05
2.66632e-06
1.32957e-05
2.09786e-05
2.73342e-05
3.019e-05
1.09169e-05
6.20127e-06
1.80676e-05
1.4215e-05
1.27548e-05
4.53236e-06
1.83393e-05
1.51829e-05
1.49928e-05
4.83699e-06
0.000151631
9.92291e-05
3.56776e-06
3.11308e-05
1.42429e-05
6.32352e-06
5.40164e-06
3.85045e-06
3.50671e-06
8.7328e-06
4.87215e-07
2.16615e-07
1.24213e-07
3.28388e-07
6.19209e-07
1.08279e-06
1.80978e-06
2.9319e-06
5.0843e-06
3.36155e-06
3.53533e-06
5.31253e-06
2.77067e-06
1.11203e-06
1.26055e-06
8.69711e-07
4.49967e-07
5.19241e-07
3.40259e-07
5.93394e-07
1.31125e-05
1.40741e-05
9.04976e-06
2.20782e-05
0.00127853
0.0516428
0.0327044
0.0364736
0.025205
0.0137962
0.0115162
0.0122876
0.0142116
0.0168773
0.0179422
0.0168302
0.0127612
0.00834852
0.00752668
0.00677413
0.0334917
0.021453
0.0166472
0.0176318
0.0257051
0.0342132
0.0382048
0.0398717
0.0408109
0.0407428
0.0382046
0.0302721
0.0170174
0.00644026
0.00388195
0.00653465
0.0152341
0.0223762
0.0246041
0.0236094
0.0218301
0.02012
0.0192801
0.0193379
0.0210145
0.0239484
0.0283151
0.0310596
0.0312329
0.0342783
0.0139471
0.0135028
0.0099087
0.0103301
0.0114355
0.0102576
0.00696688
0.00453769
0.00421142
0.00221705
0.000563165
0.000536975
0.00186031
0.00366301
0.00640026
0.00865294
0.00949223
0.00954254
0.00934439
0.00910177
0.00920262
0.00936123
0.00950655
0.00910045
0.00769162
0.00593788
0.00549612
0.00675255
0.00919554
0.00854632
0.00203479
0.00206517
0.00215506
0.00242154
0.00237156
0.00176819
0.00106987
0.000957777
0.00134631
0.00181955
0.00175852
0.00216034
0.00292609
0.00365083
0.00548778
0.00718733
0.00826664
0.00884447
0.00895428
0.00872116
0.00830306
0.0076464
0.00668947
0.00500604
0.00352953
0.00282567
0.00270634
0.00289646
0.00282099
0.00189419
0.000488923
0.000554465
0.00173383
0.00275793
0.0032983
0.00358494
0.00362012
0.00370001
0.00368873
0.00371189
0.00361321
0.00359732
0.00359819
0.00372575
0.00380793
0.00388894
0.00336701
0.00218909
0.000312687
0.00035532
0.000259701
0.000308799
0.000219125
0.00177305
0.00183044
0.00207208
0.00259394
0.00184191
0.00036616
7.64472e-05
4.75232e-05
6.91316e-05
8.23046e-05
4.61946e-05
3.2672e-05
3.76831e-05
4.46662e-05
6.65713e-05
7.94616e-05
8.3495e-05
8.73353e-05
0.000100626
0.000100097
0.000104875
9.1026e-05
9.60486e-05
8.43263e-05
9.11472e-05
9.03666e-05
8.57122e-05
7.97252e-05
7.57019e-05
7.41134e-05
6.75539e-05
6.23062e-05
6.40648e-05
6.49959e-05
7.02823e-05
6.76778e-05
5.40847e-05
0.000139757
0.000158528
0.000394814
4.54773e-05
2.642e-05
2.85231e-05
4.63886e-05
0.000141769
0.000204279
0.000215122
0.000188235
0.000145566
8.9377e-05
7.86221e-05
1.2013e-05
8.6502e-06
4.7582e-05
6.55285e-05
8.88425e-05
0.000161604
0.000215656
7.22939e-05
0.000681282
0.000794068
0.000505333
0.000192722
0.000589258
0.00121461
0.00185208
0.00322119
2.83511e-05
4.48087e-05
4.21783e-05
3.45378e-05
2.67133e-05
2.25562e-05
1.69145e-05
2.22741e-05
1.01243e-05
1.8606e-05
1.53258e-05
1.33496e-05
1.28606e-05
1.25105e-05
1.38281e-05
1.48509e-05
1.45819e-05
1.75468e-05
2.05478e-05
1.40662e-05
2.53177e-05
3.76135e-05
4.23457e-05
3.90186e-05
4.52837e-05
5.97276e-05
5.76169e-05
5.04262e-05
6.23595e-05
5.88847e-05
0.00014925
0.000190261
0.000245357
0.000309993
0.000419076
0.00173783
0.00280856
0.00546679
0.00725121
0.00867097
0.00970353
0.00979185
0.00884213
0.00777419
0.00555777
0.00322316
0.00233343
0.00155327
0.000770634
0.00037289
0.000298463
0.000249748
6.25052e-05
3.76828e-05
2.22285e-05
1.81877e-05
1.51629e-05
5.34654e-05
7.42369e-05
4.89469e-05
8.17863e-05
8.59699e-05
7.53783e-05
0.000216658
0.00029186
0.000309126
0.00102469
0.00196837
0.00253281
0.00420417
0.00472219
0.00492377
0.00486006
0.00480446
0.00484775
0.00479658
0.00457142
0.00357717
0.00249465
0.00183483
0.000982495
0.000282144
0.000204505
0.00011338
2.57941e-05
5.30551e-05
4.68734e-05
2.84885e-05
-1.4015e-06
2.11624e-05
-1.67525e-06
1.09949e-05
2.28762e-05
3.29292e-05
4.40673e-05
7.73465e-05
0.000225119
0.00176057
0.00458996
0.0106799
0.0148446
0.018161
0.0197212
0.0198573
0.017387
0.0129567
0.0068848
0.00230672
0.000782862
0.000176263
4.55857e-05
4.5997e-05
3.93972e-05
2.33678e-05
1.31542e-05
2.73081e-06
7.32972e-06
1.20758e-05
1.31835e-05
1.23044e-05
9.88665e-06
1.15333e-05
1.6427e-05