/*--------------------------------*- C++ -*----------------------------------*\
| =========                 |                                                 |
| \\      /  F ield         | OpenFOAM: The Open Source CFD Toolbox           |
|  \\    /   O peration     | Version:  2.1.1                                 |
|   \\  /    A nd           | Web:      www.OpenFOAM.org                      |
|    \\/     M anipulation  |                                                 |
\*---------------------------------------------------------------------------*/
FoamFile
{
    version     2.0;
    format      ascii;
    class       volScalarField;
    location    "0.006200000";
    object      omega;
}
// * * * * * * * * * * * * * * * * * * * * * * * * * * * * * * * * * * * * * //

dimensions      [0 0 -1 0 0 0 0];

internalField   nonuniform List<scalar> 
12384
(
13194.9
21308.4
25096.3
28232.7
30969.1
33196.9
34332.4
34201.3
33010
30962.7
27914.8
23497.8
17281.1
9898.38
24772.7
32172.2
36736.5
39279.9
40747.3
41389.5
41851.4
42663.7
44647.5
48132.7
53040.5
58770.2
65101.3
71739.3
78486.2
84874.9
90458.4
94606.3
96140
94448.8
88435
83608.5
79465.6
75493.9
70726.2
64008.2
53935.1
38137.7
20621.7
15792.5
37553.3
43746.9
48910.9
52332.3
54515.6
55718.3
55986.4
56212.2
57209.3
60422.6
65823.1
73356.7
80720.9
88926.2
95751.2
102813
107491
111760
113006
112403
110125
107014
103251
98559.2
92401
83720.7
70302.6
48960.8
27195
26872.6
41878.1
50100
54537.7
56322.7
57305.5
59845.4
64460.7
72340.7
82884.8
94243.9
106644
120152
133609
146580
156150
163976
164406
160879
152507
146675
140275
132721
123209
109683
90237.2
65921.7
48940.7
40999.9
39652.2
44560.6
40733.9
69740
98358.1
120112
137789
152381
163470
170287
172057
166620
157451
142705
136148
132413
130139
127059
123093
117502
109998
100333
87322.9
73529.4
60753.6
51051
43462
39762.3
41124.3
42943.5
42248.7
37082.8
27872.8
35952.4
41845.3
45552.5
47730.4
48673.8
48807.4
49571.6
51910.5
57161.4
63512.6
72190.2
79939.1
88628.7
94871.3
100278
102672
103216
103870
104036
104210
103849
102271
98685.2
92855.9
84953.6
74414.2
60211.5
45540.6
41049.5
23228.8
26860.7
30447.2
33043.5
37440.4
45311.7
55475.2
66615
78066.3
89316.7
99747.8
108598
115957
119207
120776
118497
116387
114578
112426
109516
104989
98306.6
88055
72969.7
54361.3
46238.7
43492.3
39951.7
37112.1
37732.7
26327.9
26341.2
35064.3
50657
68743.4
86321.1
103251
118406
131067
142359
148366
153106
150811
147235
143260
138089
132915
127015
119910
110977
99788.4
85176.4
67402.7
51652.7
43811.2
41040
39770
39572.7
40097.6
39971.1
34540.4
49090
68082.1
87648.6
105907
122327
136640
148463
155929
160831
158661
153558
148188
143802
139114
133507
126338
116450
103811
88648.9
69925.7
53848.3
44347.6
40007.9
37603.2
36598.2
35667.9
33661.4
30878
28452.5
34723.8
42573
51510.8
61733.2
76117.3
92980.1
110966
128647
144781
158109
168165
173805
173629
170001
164083
159576
156282
151375
144278
133451
117899
95670.4
65106.3
50181.9
47364.6
46496.4
46228.2
46165.9
46102.4
46652.7
36219.6
47646.9
59290.9
71349.1
86661
104667
123978
142446
158198
172894
179428
186202
182225
179388
176814
172745
166985
158936
148038
133327
112220
80895.7
57703.5
50945.2
49488.3
49919.4
51093.4
52036.3
52189
50147.8
25746.3
28081.5
36069.8
42546.6
47056.5
50377.1
52933.6
55059.1
56604.4
57568.2
58462.1
59815.1
62749.9
66307.7
67156.2
66321.6
64866.3
64451.8
66106.5
69762.9
74633.3
80057.2
84510.5
86797.3
84587.1
81053.2
76481.7
70089.4
58345.3
36306.1
9526.86
13182.5
12382.9
11008.2
11485.9
20617.9
44528.2
67318.3
80856
89367.9
95701.1
99989
103140
105887
110085
111375
107977
100256
89210.6
76077.2
62284.6
49726.2
40834.5
34576.5
28291.9
21219.8
14123.7
8072.92
3843.57
1833.22
20562.3
74271.3
92661.4
111843
131602
150299
166010
176567
178506
171585
156171
133595
104740
22981.2
26054.7
103813
125272
137526
142215
140618
140512
147105
161478
181480
205997
235861
271033
312294
359872
412671
468462
524151
575984
619849
651310
659873
642117
602541
541859
459660
357995
246540
144630
29257.9
42113.7
153652
181475
201695
214239
218178
214138
212687
219612
241069
274332
318994
368850
426804
488839
551511
610535
662047
703605
731659
741931
730098
701558
656830
598414
526421
439135
332419
203604
42766.3
45392.8
164406
184604
197390
207400
224354
247494
283778
339241
411574
501900
609736
730666
858403
985905
1.10424e+06
1.20278e+06
1.2721e+06
1.30247e+06
1.28182e+06
1.21657e+06
1.11842e+06
990537
832316
643278
432751
234889
128243
118566
54244.1
44228.6
335240
489172
618532
737931
854851
970323
1.07868e+06
1.17207e+06
1.24483e+06
1.29254e+06
1.30727e+06
1.28939e+06
1.23299e+06
1.15627e+06
1.05423e+06
936712
804289
659904
510399
373595
265790
204533
197091
212850
222680
213505
201944
175636
45901
35952.8
112442
128970
137608
140163
142756
155688
188350
237695
301292
372251
450312
530293
609185
680672
739344
779534
798202
793747
767765
726430
671557
607921
537450
462514
383942
306800
234073
165176
52687.2
26820.2
70905.9
84407.5
111892
164711
230811
303530
382557
467076
555517
643869
728057
803037
865149
909454
930739
926770
898058
850530
785521
704674
609773
501100
384294
272192
177170
117712
106152
104825
45561.5
35509
92469.3
161896
259003
367158
477634
590520
702640
812524
913852
1.00225e+06
1.07086e+06
1.11477e+06
1.12506e+06
1.10407e+06
1.05422e+06
981466
888397
780695
661405
533465
405814
286455
193978
155203
154489
154668
150766
141770
44898.9
46416.2
198077
316978
433916
550735
668113
785846
900194
1.00569e+06
1.09566e+06
1.16338e+06
1.19991e+06
1.19781e+06
1.16394e+06
1.09831e+06
1.00552e+06
891049
754132
597764
436478
298073
194609
152190
153979
162168
157758
147356
132435
110034
36227.7
38092.9
105494
134555
206277
309081
427014
550090
674507
798222
917587
1.02825e+06
1.1248e+06
1.19886e+06
1.24153e+06
1.24747e+06
1.21291e+06
1.15004e+06
1.05721e+06
945115
812757
663060
501243
345010
211066
142086
147123
150385
147976
136733
49460.8
38252.4
116605
160541
243247
362705
499587
643432
787469
928244
1.06198e+06
1.18131e+06
1.27599e+06
1.33723e+06
1.34871e+06
1.31638e+06
1.24797e+06
1.14758e+06
1.02047e+06
868766
697632
527101
381520
258037
190837
182773
192128
190601
184089
167079
54064.3
35720
82742.6
105708
137885
185601
250570
327420
407398
483112
546451
593698
616146
610147
575126
518837
449972
378405
315323
271230
252454
257751
281405
312028
344299
372415
381969
367369
332710
274093
64564.1
17898.3
78333.7
83682.5
85683.8
103094
147081
231289
340386
453899
559296
646695
711690
753721
769792
756398
714145
652793
576648
490351
398805
305718
218660
150531
111962
99114.2
91618.1
77981.3
63395.7
47086.5
2459.37
25983.7
92868.2
115054
135180
151948
164862
174608
181287
184469
183024
175262
160288
137686
28970.8
28594.3
124932
135520
137779
138530
143061
156306
175193
194763
212077
229008
248211
272988
302883
338287
378270
420787
464083
506007
544460
577577
600649
610256
605602
583951
537700
459484
350853
227669
41660
45224.4
179284
192501
199716
203651
207075
215248
234668
265677
309399
353562
391942
421171
450188
482862
520172
560799
600735
637144
666500
685541
691107
684041
666186
637592
595872
533562
441424
311191
60241.4
48400.9
197554
199427
207910
231800
268519
310177
361011
423682
492318
565164
643937
727542
815278
906038
994794
1.07434e+06
1.13605e+06
1.17439e+06
1.17935e+06
1.15485e+06
1.10854e+06
1.0414e+06
945514
805648
614598
395025
206055
129763
57440.3
59550.7
464019
650859
773196
856418
920281
979729
1.03893e+06
1.09459e+06
1.14191e+06
1.17678e+06
1.19579e+06
1.19403e+06
1.17166e+06
1.13175e+06
1.07645e+06
1.00627e+06
917935
805650
668453
519697
382688
278615
221636
198508
188832
197460
219417
211603
50485.4
41197.5
129199
136800
138474
141697
156030
190497
243241
301589
360806
419064
478828
540421
602156
659744
710306
748482
771013
774153
761188
733895
696205
651202
600169
541452
472689
394304
309471
224335
63817.7
30286.8
80866.1
99006.9
145444
210367
275314
340172
407866
478826
552926
627297
699124
764338
819742
861330
886752
892319
879463
850099
808328
756260
692509
610727
508427
392666
277364
179023
118322
113318
48825.1
41452.7
128199
231938
352725
469656
573023
666030
751601
832083
905894
972250
1.02644e+06
1.06678e+06
1.08537e+06
1.08104e+06
1.05417e+06
1.00916e+06
949564
877765
791207
684131
557951
424113
296786
201519
149084
131011
144990
161344
47284.6
58059.2
287772
430509
551285
655924
748451
834046
914873
990735
1.05657e+06
1.11093e+06
1.14675e+06
1.1587e+06
1.14602e+06
1.11263e+06
1.06252e+06
995298
903867
779809
623857
459110
313865
206108
151072
135216
136639
147624
148042
127895
39350.3
42220.5
118750
174587
287456
425135
561080
682654
788235
882292
968065
1.04733e+06
1.11738e+06
1.17532e+06
1.21313e+06
1.2252e+06
1.21074e+06
1.17401e+06
1.11713e+06
1.04283e+06
949017
829322
680930
514156
351058
211802
137183
134657
154041
157759
51264.4
43071.9
139757
213638
341738
498333
651047
789181
909940
1.01826e+06
1.11511e+06
1.20165e+06
1.27143e+06
1.32454e+06
1.34692e+06
1.33705e+06
1.29994e+06
1.23981e+06
1.15814e+06
1.05035e+06
908536
738496
563395
404307
264535
186407
173116
186397
205446
208460
56817.5
41410.5
106945
141935
193395
261785
341725
426357
508844
584311
647430
692918
715539
711580
682607
634442
572781
503261
431832
368639
326219
311744
314996
322012
329341
344110
362318
372856
368765
337103
75659.6
24366.5
95897.4
85607.5
108732
165407
254531
378466
504881
618542
710606
776211
817881
839628
843815
828569
794575
745066
683343
608958
521643
420758
311554
206204
123857
77069.4
62318.1
61131.8
60266.6
54213.3
2069.69
29418.8
111114
136876
155678
166459
170611
171693
173005
175822
179341
181199
177672
165829
33594.9
32012.1
144865
143108
136879
137839
151090
174601
199276
219703
235594
250761
268376
290573
316453
342571
367754
390058
411874
434751
459228
485892
511812
534571
553421
563709
553760
508413
420294
298684
50887.7
48343.1
200737
196499
190383
188403
195279
216512
255250
307763
369435
422799
454651
464641
465054
468131
479040
498994
524364
552439
579628
602914
618273
624977
624657
618578
604716
572301
506088
390955
72512.8
52055
232858
215479
220331
253102
302423
360666
427918
503807
575875
638217
692375
736507
774509
812642
856308
904666
951277
990657
1.00931e+06
1.01133e+06
1.00261e+06
984019
946697
866392
719473
512847
296179
159934
57702
82585.9
590589
782767
878300
917226
927132
930794
940589
959309
983235
1.00631e+06
1.02358e+06
1.02945e+06
1.02586e+06
1.0135e+06
993024
963998
919097
851095
750676
623819
489394
371121
280897
209794
162997
177656
230063
236964
52859.2
45797
143986
142352
140111
148735
178713
231987
295909
354988
406592
452151
495091
538657
581681
622229
657841
686566
705942
711237
705285
688622
664624
635843
603260
564269
513141
446125
363538
271401
71621
33581
91644.7
118535
180693
248491
310918
372281
433965
494018
552218
607901
660755
710434
754595
791031
816117
825064
818380
799451
772385
740636
703446
652421
578055
477730
360842
245394
156081
123238
50085.4
45030.8
168678
300897
434941
548705
634650
700055
752391
797361
838296
877130
912044
941759
960332
966680
960334
941968
914847
880201
833436
763441
662087
534888
400287
278503
189223
138141
147442
175807
48245
68667.6
369442
521182
635628
721046
783256
831234
873284
913886
952594
989010
1.01821e+06
1.03477e+06
1.03842e+06
1.03089e+06
1.01497e+06
989959
947521
871873
750953
596058
435721
298736
197871
134367
122064
149611
160510
138853
40909.4
45616.7
133868
224061
370274
530531
672615
780980
856791
910040
950819
989068
1.02622e+06
1.06308e+06
1.09345e+06
1.11245e+06
1.11507e+06
1.09941e+06
1.07044e+06
1.03029e+06
976872
899979
788051
640264
474320
315254
184890
129010
158458
173671
51986.3
49007.2
165092
276361
441358
620618
773664
891532
975196
1.03783e+06
1.08855e+06
1.1357e+06
1.17673e+06
1.21511e+06
1.23864e+06
1.24342e+06
1.23285e+06
1.2072e+06
1.16813e+06
1.11065e+06
1.01985e+06
886568
719968
542415
377093
240063
169091
171172
216534
247016
58447.8
47133
131932
180938
247857
328027
413565
499089
580310
652430
710544
749004
766470
763368
740944
706506
662678
608058
540833
467175
405631
374909
363029
344220
313787
300019
316093
348474
379246
382324
82028.3
28947.8
108577
105104
161104
250240
373614
507786
625053
718847
783398
820971
839741
845862
842418
827061
803215
773146
735482
684657
614033
517979
398084
268667
158146
86359.2
59652.3
56155.2
58684.8
56059.8
1934.19
31410.3
127380
154333
169855
173928
168980
160370
154785
157014
167393
181918
192851
194104
37421.3
35777.5
166300
152039
137427
138985
159154
188025
214695
235783
253592
273058
296594
323997
352118
373161
383628
381684
374471
368660
370020
384566
412212
447374
487599
525888
547885
533920
470241
361059
57371.9
51570.5
223611
201855
181779
174377
185238
218590
272778
342100
416854
476978
503320
497502
474751
453990
443513
445357
455782
472162
493373
516824
538528
556701
571968
585442
595236
590274
551277
456141
80451.7
56362.9
276104
237919
234484
269171
325868
398332
481668
571437
650380
708605
746269
758146
749263
729058
710322
705847
724520
762233
802920
838438
870128
897033
909988
881911
777480
590796
364910
193410
57907.6
108903
703196
868871
927580
926989
893237
849013
812761
793041
792098
804372
822784
841046
857849
870555
880550
883860
875005
845721
785211
691763
575971
458808
355377
256346
171752
172717
238081
249759
54798.9
50000.5
160176
149853
145774
162205
207506
274167
343327
401049
447289
483926
512963
537048
553567
567402
579858
594032
608704
617527
621474
618966
610949
598658
583060
561882
528587
476336
402252
309125
76355.9
36779.8
104333
142411
213491
282417
347280
411515
470717
518995
557360
587288
611883
634370
656325
679329
701725
717288
723662
721761
713705
702258
687110
661765
614095
533212
422441
298625
191922
134681
50666.6
47586.9
210504
361986
500017
604547
670216
707321
723333
727291
728951
733009
743537
760281
780292
799610
815356
827736
835800
838646
830873
799166
728516
617433
482995
351560
241166
167974
161083
184192
48929.4
79524
437472
588594
691798
755458
785483
793960
793604
793195
799876
815980
839242
862819
884838
904239
922003
934662
935716
907588
828665
698663
540593
388659
264137
173415
136959
161283
169473
143642
42076.1
49089.2
153349
274776
444896
619454
760571
848279
888270
894801
885334
875378
874026
884398
905071
930779
950628
964107
969611
965861
951701
916375
844390
725379
569994
402943
252460
157392
168369
181906
52190.6
56984.9
194326
340708
533328
725406
868051
955326
992883
1.00175e+06
999222
999236
1.00724e+06
1.02891e+06
1.05545e+06
1.07841e+06
1.09636e+06
1.10884e+06
1.1137e+06
1.1055e+06
1.06785e+06
982377
842873
665039
480220
320105
202011
163249
223352
279400
60610.4
52647.7
156157
218316
296215
382514
469485
552853
628033
688010
729274
749635
753128
743810
729763
719209
706210
679024
627793
553195
477376
433486
412717
374439
301036
245206
258978
321308
389607
423613
85534.7
32256.8
120549
143094
223167
339880
477499
604891
703052
769203
802254
809662
801868
786510
769270
751494
741656
738312
733099
714694
670850
591613
473160
327853
192677
101930
64295.2
56684
57784.2
54999.7
1918.8
32533.5
140324
166372
177883
175568
162364
144592
131330
133250
152198
180933
207317
222002
40814.5
39469.6
188204
162320
138339
138990
162826
193481
221057
243437
265128
291501
324303
360761
394712
414209
412735
388843
354256
317627
287112
279658
305900
356993
420656
485551
535225
548248
507840
415748
61483
54555.7
247178
209705
175592
162269
176447
219334
284979
366163
449417
514180
536599
520583
482396
446540
422279
410036
403446
399677
401220
415249
442621
477433
513623
549612
582218
602094
587508
510513
83809.3
61274.3
325335
264180
246554
276860
337180
420247
518138
619488
706423
764744
793845
785659
744321
676645
594390
518068
483362
515264
584340
661721
738493
809012
864560
876796
804749
634318
405576
217374
58235.9
136069
784657
909634
939534
913763
849851
766557
685973
622775
590157
587992
611815
645614
685639
724320
762199
793058
813014
814230
788377
727583
635132
526798
418886
308391
208615
193973
247231
248995
56870.1
54376.2
179146
159949
155107
180067
238328
313585
385773
444177
489933
522523
542060
548384
536383
514761
487738
469595
468470
481772
503464
524862
540965
550187
553085
548749
531985
494505
430262
337787
77477.9
40082.1
122281
170617
244770
316295
388335
459200
516826
552724
570199
572047
563777
550143
536277
530212
539024
561914
590395
617918
638227
651845
658118
654184
627772
564016
461006
333836
216215
144321
50799.6
50747.9
251524
412885
550949
646592
695048
707989
692042
659104
621600
584499
559306
551312
565532
599024
642837
690271
735735
775713
803727
806284
764476
671493
541756
404076
282413
197109
178124
186204
50110.2
91161.4
488106
634781
727559
771812
772383
744622
704474
661460
629508
616967
628779
660338
705182
754718
807265
855687
894186
905771
864346
762438
615835
459719
321112
215056
168733
179181
175805
144459
43303.4
53953.6
177561
321326
507284
691521
829357
895606
901866
864075
806334
745786
698189
672701
675747
706962
750641
797195
840000
875634
899095
901853
866165
775788
634798
465584
303160
194414
183837
185081
53155.5
65887.4
225967
400905
613923
812104
937569
990406
980729
937388
883829
834831
803069
799778
823109
865699
917405
970944
1.02169e+06
1.06063e+06
1.0729e+06
1.03483e+06
928505
761477
566482
388560
249546
178208
233815
305312
64924.1
57453.3
179418
251004
334911
422808
507585
584942
647168
685458
697739
688304
669549
654872
658378
682477
708790
715506
686665
617665
531244
476136
450265
401885
297827
195670
211264
312265
411008
454455
84756
34814.6
133398
180928
281744
415041
555025
667425
742746
779126
778752
752042
710354
666574
632378
616008
627939
659198
692313
710287
697162
640523
532233
380575
224058
115271
67595.6
56803.3
56394
52786.2
2022.48
32937.8
148443
172638
180825
173983
155333
131661
112984
114819
141149
181921
221469
247273
43347.4
43231.1
209775
173661
138780
135222
159472
190245
218269
242670
268583
301978
343736
389748
431263
451592
442526
402564
349700
292384
233976
195325
213188
279822
366016
453740
524148
556871
534531
460109
62487.6
57305.5
269487
219944
172230
151576
167451
216940
289998
378249
466804
535078
556386
536385
491378
449242
418298
396903
373311
343296
310231
294988
326536
389737
457155
520465
576114
616723
619879
552612
80823.7
66600.2
376853
290656
252559
273359
334480
424858
533715
644309
736980
799085
827726
813585
759303
667953
545665
405471
293903
305646
407949
525729
638832
742993
827633
864395
810754
648140
416960
227443
59225.7
159291
822731
920094
940451
904196
820630
709936
592125
484822
409290
383920
411365
464959
531146
593649
655993
708626
750139
773116
771853
736987
666219
568334
459330
344746
245780
227606
258741
242754
57630.4
59058.6
199695
171839
166194
198031
265250
346179
421798
484584
534296
567927
583407
577566
543276
487997
418628
355827
318391
326695
368337
422855
470666
505220
527139
537955
534773
508965
450600
354465
74056.6
43955.9
146282
200786
277520
354094
433861
510847
568628
594836
595840
574284
537591
488794
432361
380408
352748
378465
438415
506145
561012
601700
628162
640634
628657
576895
478460
348217
224726
148755
50592.8
57489.3
297313
459368
596434
686414
724022
721206
684090
624882
554787
476966
404196
350480
344843
395763
474315
560159
642061
714861
771601
799822
780072
702161
576567
433795
303333
212110
186861
186587
53844.1
103326
523708
666803
754200
785369
764523
709620
637007
554792
478068
421166
408421
449669
523826
607372
692918
771784
839310
881776
869310
792890
659108
502978
355692
240973
190252
189504
176103
142494
45834.2
59648.1
208629
363493
556547
747820
883647
934329
916349
845517
749035
643544
545739
469356
438809
472381
543893
629601
712172
784673
841762
875437
868092
800517
671169
499619
326868
213207
193417
186633
56602.1
73242.8
263585
455905
681233
880788
988962
1.0126e+06
964378
880471
784919
687791
605055
557572
569695
632224
723776
821243
916474
998006
1.05296e+06
1.05594e+06
980822
828580
630618
438514
283072
203193
257565
327749
73612.1
61370.4
200118
276506
362466
448550
528400
596198
640494
650970
626557
578047
530237
512553
545704
614050
682969
723167
716875
655857
560867
495674
467591
415150
303194
192565
215089
336932
438809
460568
80659.7
36395.1
143594
211290
326665
467366
601940
698218
751348
760797
729143
667942
588112
508566
452348
447013
495324
569381
641551
692561
705999
670257
574539
422871
251979
125991
69557.4
56326.3
54922.6
50862.3
2866.66
32811.4
151270
174016
180027
170388
150427
127252
109263
110296
138107
185705
235149
268054
46148.5
46751.7
227894
187060
139104
126275
148864
179323
207821
233947
263496
302275
351025
405014
454715
477912
466022
416877
355605
291736
225712
170227
169252
238832
337016
436923
517765
560803
550407
491459
59934.2
59862.5
286997
233680
172288
141183
156634
209675
286556
377759
469214
540689
565063
546751
503092
461852
431010
405829
371868
323285
260522
209280
234807
325093
423098
511085
585865
638386
646363
571009
75151.7
71311.5
430798
316716
250658
257374
317531
411858
527456
644196
740567
807332
841380
833190
784140
696006
573086
427786
300068
268864
354226
473633
597413
714711
809408
849555
797204
630566
400852
235893
66964.8
172427
819977
913911
942702
907407
817795
698600
564900
431513
319016
255710
269939
337398
422314
502345
579824
644761
698332
732945
744911
725048
669323
579406
469995
354570
264096
250494
264470
232912
57364
64447.3
221157
180865
172843
212137
285792
369880
449529
519172
576117
615460
633394
624457
582055
512713
422715
327841
246496
224585
273643
357885
433881
487205
521559
540682
543798
521787
460709
355568
69925.7
49939.1
179638
233967
311501
392911
480287
563101
621469
643516
636862
603042
550699
481154
396263
304807
222559
224008
323102
430218
512161
571779
610728
631319
624501
575836
475284
342390
221161
150903
51403.6
75514.4
359947
509853
641451
728248
761932
753490
709131
640396
557145
458514
353024
247638
177468
252681
368312
481887
587279
679776
752935
793379
784309
714011
589447
441901
304650
210859
191948
205915
67103
119440
551747
694173
780945
806451
774636
706635
618171
513119
402900
295200
216277
260464
375595
494553
605593
705651
791433
850591
854730
795610
671744
516152
362781
244308
190727
184658
170518
146559
54373.1
70156.9
261302
407498
596217
787327
922450
969213
941736
855769
740955
609272
474692
348782
258014
275014
385609
508151
622423
721544
801381
854070
863094
808892
682922
504008
323970
211786
194326
195723
66619
83639.9
319346
505805
731910
930079
1.02732e+06
1.03353e+06
963526
856540
735785
604199
474008
361788
322406
410805
554689
696635
827896
940169
1.02559e+06
1.05777e+06
1.00789e+06
870525
673828
471739
305655
229587
295275
360654
88368.8
64647
214591
290736
375931
459114
533270
589749
616073
601195
542252
452850
370274
353983
430186
543384
647091
711941
722356
667408
563566
488271
461270
414863
318027
237081
270152
381657
460960
446698
74132.4
37696.2
143966
220662
344896
488386
616978
700870
737407
729195
675885
588592
474545
354302
268146
295554
396193
511383
612142
683406
711729
687638
600265
450769
273365
134879
71906.1
57074.7
55983.6
52666.3
7167.04
32181.3
148638
171023
176060
166254
149385
132324
121322
123975
148490
194869
246049
280298
219247
66346.1
64948.6
190157
242979
203854
146456
119310
135803
163822
191685
218663
249978
291669
344470
404088
461601
491029
479811
428814
367665
307504
249611
202287
193920
248546
338904
434610
513020
556935
552018
500029
289918
67203.5
70616.4
237724
303373
254279
183385
137377
145339
197027
273818
364407
456511
531361
562994
552073
516940
483238
458852
436923
403558
352883
288193
236083
248193
331963
436367
533513
613495
664483
665432
574911
293727
77243.7
92565.4
385490
464977
338883
249184
237496
289148
381748
498840
617055
714619
786380
830564
836296
804352
738659
644548
535368
439909
396418
430634
514131
616658
720167
801672
827368
762995
588597
385390
283185
242793
102204
122797
609118
782547
895966
943737
920837
842626
735971
615773
493703
383452
304783
288258
331709
404075
479152
551492
613219
664899
699814
714623
700147
650072
561500
449878
336441
263055
258902
268630
248294
216123
68668.5
84696.8
259591
254795
208121
197155
232177
300034
382121
464479
541097
606918
656049
682854
681196
647361
587214
507917
421816
343815
309833
335460
398228
462767
511669
544013
560582
559576
529556
456799
343557
193757
70150.2
79752.4
290119
284029
307431
356768
429355
518052
606540
670308
695306
688985
655013
603272
534916
451941
363393
287809
275550
342793
435473
513888
573147
611744
629455
617855
563122
456873
320394
203838
183652
205948
90085
102551
397145
454517
564824
683050
767675
803878
799180
761187
700765
625811
536360
441233
346420
284627
309914
393910
493902
593320
683014
753861
791434
781731
712368
588347
438533
299212
226236
277301
354987
333908
98001.3
111660
469498
602505
728381
810850
835192
804874
741210
657606
556312
447382
332955
238179
245322
345254
460653
572211
674558
762489
824158
832171
778551
658046
501091
342388
216975
160919
176496
196117
220981
221018
94758
98867.8
310688
335630
443108
616350
804113
942936
997922
975471
895309
786185
658142
525434
395431
292571
275004
365860
484375
600503
705464
790392
846471
857221
803898
672580
483274
295597
188551
211862
256288
254233
93274.9
98112.9
335150
392175
548564
761289
954188
1.05207e+06
1.05753e+06
985924
878224
756299
620671
480131
340488
254989
328441
484501
640092
783250
907772
1.00505e+06
1.04947e+06
1.01613e+06
890403
698436
497226
333453
259782
323731
404523
347427
63178.9
58843.4
191515
233286
299644
379058
456482
523643
571510
588131
561613
484031
367107
256319
252217
368969
504182
619215
691845
707956
653136
540222
455237
432867
403486
339250
301027
346961
436687
484726
442690
247822
43470.2
45150.3
193995
204371
245395
347181
481312
603937
681480
711557
698793
639396
545062
423393
290985
196792
268682
394121
519062
622163
693021
720866
695183
610168
465408
288246
140331
74600.4
64940.1
68152.8
67413.5
49870.9
7912.39
3012.94
31137.7
140976
164123
170235
163161
151172
139034
130747
132405
153086
195074
243172
276744
266110
191790
184310
232377
249814
215046
156563
117145
122168
145376
171850
198909
229843
270883
324147
386313
450126
489693
483592
438505
384388
335100
292385
261514
258111
295240
363834
440571
503959
537946
529923
474806
357403
231195
227469
292714
313074
267829
193773
137342
134960
179960
251855
338041
428593
506972
549729
552492
532072
510950
498249
487948
467805
432742
387840
353657
360255
416232
498715
582832
651749
689014
673881
567652
363557
235893
272645
485547
472952
353403
246435
213738
253401
339019
451251
566365
661698
736449
791951
818208
812352
779047
724620
658644
597904
562819
566708
609241
674220
744071
793445
790411
706895
542356
388733
320344
291331
286440
359053
585532
742568
872959
940863
940331
886719
807852
719355
631897
553683
495014
466526
468565
496505
535633
579537
620112
655868
679693
686909
667568
614436
521960
402749
288305
220718
217335
221971
205474
223853
247664
284878
335291
280798
229838
213962
239586
298329
376476
459964
542649
617944
679996
721299
735606
723135
688524
639391
585542
536062
505444
503470
523757
551345
575649
590617
592828
576287
529621
445018
338699
269283
293322
344342
371078
326569
331802
370937
440415
531756
628768
704569
740993
743018
720112
682647
634017
576736
518156
471925
454761
475382
521107
568844
607951
632086
636208
610727
544257
435433
314287
249551
285935
348491
378937
393693
401413
464727
577322
696503
789911
840175
849708
828962
789478
738707
677879
616049
556692
517249
510740
541345
596739
662298
726350
776202
797221
775234
700273
577627
433457
304481
246568
280128
337494
377618
388938
412396
494540
620840
745864
833871
868707
852843
806757
743638
666618
586400
505629
445131
425553
460805
527426
607956
688330
759138
806015
805871
749291
628234
470729
313514
200635
189360
242455
289405
317766
329615
329035
323837
311754
324288
430889
595568
783694
936293
1.01396e+06
1.01347e+06
957108
872393
771861
670002
573818
502400
474155
503832
572617
656110
740040
809375
851552
849451
784493
644209
454055
278992
209727
247658
298956
329215
330133
323279
318634
387438
544396
751307
947283
1.06176e+06
1.08209e+06
1.02838e+06
940069
839953
730116
622295
522259
461628
476640
561219
674038
793099
904195
992809
1.03473e+06
1.00664e+06
889717
709365
518467
349002
238856
258094
344469
347029
250155
214095
204505
229618
290321
366411
440691
503601
547657
562499
539790
472279
371445
287705
300307
398523
511287
607964
669189
678543
617883
495185
400805
385283
380189
356503
359685
418088
492220
519585
471739
359475
272336
256855
239295
221905
238834
316479
440260
564160
646524
680565
674776
628648
554702
466344
388678
361612
410677
498165
592415
670929
721902
733468
695549
604654
462157
291265
142929
74054.6
64551.7
68454.5
67794.3
57451.1
32392.4
2434.26
29839.5
129969
154447
164219
162263
155318
146488
138554
137525
152408
186206
227125
257234
259045
185324
178730
231719
245271
217388
163665
119495
112678
128044
151429
177638
206309
242677
291397
351989
419499
472094
478615
446834
405432
370538
344874
329453
330114
353269
396982
448246
489639
506858
487747
422781
330672
212249
210695
284266
302974
266328
197548
139463
129308
162943
223120
299723
385895
467710
524011
546073
545913
541880
545373
552680
555078
545799
527971
512852
514110
541733
590137
643388
684541
695293
653616
530978
350246
236658
275993
483111
462491
359177
250085
194680
216017
290535
391536
495439
584502
660016
725775
773426
796615
797824
781984
755253
725880
703546
695000
706830
733379
761704
770462
735522
640911
505420
401076
345016
312197
314026
378276
543979
694412
831641
921708
952330
934288
891380
839377
788388
741314
702267
672904
653881
646311
647102
654716
664536
674255
676497
665742
631905
567108
465960
344366
233256
183465
194719
215998
237450
273608
304724
337261
356744
287212
236804
216021
230905
278164
349344
431584
518032
602427
678310
737502
773580
787363
782602
765986
742715
717438
691550
674406
665244
659675
653858
642825
621626
582976
519789
433617
351937
324748
352726
381168
370273
314987
316938
353593
420230
512088
617418
709653
766891
787330
782885
766743
744431
717186
687321
660997
641398