/*--------------------------------*- C++ -*----------------------------------*\
| =========                 |                                                 |
| \\      /  F ield         | OpenFOAM: The Open Source CFD Toolbox           |
|  \\    /   O peration     | Version:  2.1.1                                 |
|   \\  /    A nd           | Web:      www.OpenFOAM.org                      |
|    \\/     M anipulation  |                                                 |
\*---------------------------------------------------------------------------*/
FoamFile
{
    version     2.0;
    format      ascii;
    class       volScalarField;
    location    "0.006200000";
    object      sL;
}
// * * * * * * * * * * * * * * * * * * * * * * * * * * * * * * * * * * * * * //

dimensions      [0 1 -1 0 0 0 0];

internalField   nonuniform List<scalar> 
12384
(
9.058
8.631
8.45238
8.49177
8.59229
8.70158
8.74996
8.84516
8.86652
8.92118
8.86921
8.85297
9.24392
11.2004
2.70046
3.055
3.35761
3.50671
3.68253
3.84677
3.9069
3.91224
3.8479
3.85078
3.80302
3.82305
3.78377
3.82197
3.75769
3.79443
3.7617
3.70392
3.77679
3.69626
3.75709
3.72109
3.76353
3.73182
3.72644
3.67665
3.68122
3.26999
2.47527
2.41665
3.72484
4.01091
4.39447
4.44984
4.44642
4.19429
4.2083
3.87377
3.85358
3.57937
3.51481
3.30886
3.33056
3.12091
3.18666
2.99402
3.08046
2.95256
3.03152
2.98231
3.04748
3.09515
3.19304
3.28066
3.41422
3.53842
3.65695
3.56312
3.34088
3.39899
2.77982
2.53055
2.50011
2.54579
2.59865
2.69667
2.76548
2.8497
2.9237
2.98122
3.01343
3.02159
3.00418
2.97238
2.93554
2.92504
2.91625
2.81034
2.87694
2.75994
3.04921
3.03614
3.26383
3.27686
3.35939
3.11617
2.93712
3.00837
3.11739
3.13205
2.9928
3.37374
3.60325
3.68197
3.66829
3.58927
3.48701
3.37543
3.30032
3.22425
3.14606
3.15389
3.09866
3.25841
3.22646
3.28
3.28645
3.29123
3.15481
3.11122
3.08918
2.94451
2.89765
2.92908
2.93213
2.94257
2.95514
2.97626
2.97923
2.96542
3.18124
3.18689
3.0709
3.09817
3.19571
3.26418
3.27434
3.23767
3.20343
3.16746
3.11426
3.09932
2.95963
2.99885
2.80948
2.87603
2.69601
2.74767
2.61056
2.6517
2.57157
2.60949
2.55695
2.59963
2.57052
2.67181
2.71285
2.63466
2.48196
2.52057
1.29038
1.26947
1.2425
1.26051
1.29623
1.3323
1.36838
1.4303
1.39839
1.41314
1.38615
1.40257
1.39777
1.41953
1.41731
1.46334
1.46282
1.55024
1.56498
1.64703
1.70694
1.77406
1.83134
1.83793
1.41381
1.37665
1.3974
1.38214
1.37369
1.36673
1.83254
2.05903
2.43504
2.68077
2.79982
2.84356
2.86298
2.78092
2.80111
2.6042
2.65953
2.49395
2.5428
2.55078
2.52314
2.69411
2.7736
2.84732
2.94792
3.02318
3.03261
2.97788
2.83285
2.75435
2.6394
2.5944
2.56739
2.58307
2.59596
2.5906
2.17937
2.49836
2.61698
2.62165
2.57839
2.52415
2.45081
2.38025
2.36592
2.25812
2.28611
2.21178
2.38046
2.32461
2.5917
2.68327
2.87107
2.98929
3.1293
3.05951
2.74325
2.69068
2.74292
2.75726
2.7681
2.75564
2.74346
2.71708
2.69783
2.67112
2.64537
2.78719
3.00847
3.2397
3.31067
3.29328
3.18255
3.01584
2.84207
2.62287
2.45924
2.28353
2.26946
2.15126
2.2344
2.31372
2.26866
2.53321
2.80016
2.80443
2.87644
2.90173
2.75072
2.76884
2.89203
2.97339
3.02048
3.05062
3.04149
3.02191
2.14776
2.31351
2.37622
2.46734
2.47944
2.44765
2.40697
2.30207
2.22389
2.0431
2.05478
1.84028
1.86835
1.82977
1.89863
2.00703
2.11794
2.23228
2.306
2.33879
2.33196
2.27213
2.22974
2.22464
2.24805
2.27061
2.29694
2.31015
2.29856
2.25393
1.51475
1.44625
1.42486
1.58733
1.92037
1.97811
1.68114
1.57664
1.4279
1.44081
1.39655
1.41056
1.40677
1.41724
1.41023
1.41922
1.40303
1.3986
1.39616
1.39707
1.40205
1.41888
1.42657
1.43587
1.44326
1.42463
1.44638
1.49049
1.6
1.53892
1.36635
1.37548
1.31242
1.11908
0.845218
0.620488
0.813396
2.59786
3.56221
3.55833
3.52243
3.49517
3.44371
3.39007
3.41344
3.38257
3.31953
3.31223
3.26699
3.21215
3.17919
3.19061
3.30483
3.46697
3.58267
3.67124
3.68223
3.70675
3.61939
1.99535
6.9893
7.21465
7.7768
8.17196
8.32399
8.38132
8.46702
8.74246
9.04287
9.41684
9.4993
9.22783
9.3146
10.9105
2.71321
3.13345
3.51147
3.82216
4.12495
4.22789
4.06176
3.92732
3.85453
3.8582
3.82773
3.84496
3.79882
3.78038
3.71376
3.73134
3.64901
3.67524
3.70982
3.75806
3.87298
3.96035
4.0505
4.08202
3.98076
3.85278
3.74869
3.56021
3.01853
2.57371
3.74336
4.14435
4.52803
4.49617
4.38864
4.12847
3.9947
3.64426
3.51256
3.25929
3.20731
3.09403
3.08357
2.97267
2.96976
2.86322
2.85724
2.77768
2.76965
2.72764
2.72575
2.76907
2.8318
2.97452
3.14377
3.34911
3.54898
3.61914
3.50099
3.4277
2.76404
2.50671
2.52784
2.62567
2.71841
2.83106
2.92332
2.99331
3.0467
3.07787
3.07822
3.0489
2.98488
2.91415
2.8505
2.79629
2.70252
2.68869
2.67738
2.79422
2.83401
2.96271
3.06845
3.16886
3.25953
3.25876
3.05926
3.0395
3.23039
3.28685
3.29577
3.68537
3.76436
3.69378
3.5901
3.48752
3.3944
3.30524
3.22375
3.15886
3.14731
3.15568
3.17414
3.19609
3.30676
3.34075
3.40723
3.37845
3.26967
3.17535
3.1533
3.06747
2.91871
2.93754
2.92334
2.92092
2.94865
2.99437
3.02959
3.02411
3.17906
3.13999
3.05442
3.1376
3.21246
3.16707
3.05965
3.0033
2.98971
2.97229
2.96668
2.9645
2.89251
2.90142
2.79375
2.80745
2.68155
2.67798
2.58488
2.5652
2.52075
2.50032
2.49759
2.48557
2.51003
2.55986
2.65422
2.71564
2.60332
2.57984
1.28947
1.26512
1.29288
1.44973
1.45557
1.39215
1.30039
1.27328
1.2603
1.25214
1.24718
1.24413
1.24156
1.24014
1.23768
1.23952
1.27208
1.29672
1.3593
1.42729
1.51657
1.61875
1.71754
1.81877
1.655
1.37009
1.27535
1.26895
1.28442
1.26707
2.2406
2.6058
2.86113
2.9538
2.95424
2.93032
2.85142
2.78325
2.73154
2.61374
2.58804
2.51643
2.49337
2.52271
2.58599
2.59543
2.67813
2.77081
2.85471
2.93586
3.00724
3.00122
2.90109
2.73046
2.53932
2.46089
2.48072
2.51744
2.5689
2.60392
2.43134
2.67767
2.59788
2.46205
2.34658
2.2525
2.19204
2.13681
2.04836
2.04467
1.989
2.01979
2.0404
2.14154
2.25191
2.38599
2.59028
2.75994
2.98001
3.09687
2.97972
2.74168
2.81019
2.82143
2.8001
2.78418
2.76577
2.73648
2.71754
2.73678
2.65842
2.7816
3.17344
3.36232
3.29442
3.09994
2.86233
2.63631
2.41618
2.18868
2.0625
1.88235
1.82469
1.78207
1.7435
1.84142
2.07055
2.2051
2.37132
2.60113
2.73035
2.81332
2.8563
2.7681
2.90636
3.0562
3.10484
3.11584
3.12485
3.12744
2.08938
2.29897
2.49274
2.54048
2.47256
2.38114
2.2696
2.07854
2.00661
1.8623
1.75869
1.62139
1.63984
1.64641
1.67685
1.75497
1.87211
1.99964
2.13756
2.25629
2.34649
2.35602
2.27293
2.27311
2.3186
2.39168
2.43333
2.44867
2.41976
2.3449
1.75759
1.71428
1.7085
1.89247
1.95427
1.82072
1.61324
1.59311
1.62124
1.72319
1.79462
1.8701
1.90739
1.92489
1.8909
1.84193
1.7545
1.63553
1.53304
1.47502
1.48216
1.53426
1.58301
1.616
1.60072
1.57151
1.55225
1.52528
1.59927
1.57494
2.38314
2.38849
2.32082
1.89611
1.00197
0.781866
1.75007
3.38382
3.61212
3.58587
3.5853
3.59337
3.64385
3.64365
3.62886
3.6582
3.64822
3.52378
3.40247
3.20564
2.95576
2.78392
2.7548
3.03681
3.41202
3.64595
3.70831
3.7143
3.59216
1.7866
6.9852
7.54989
7.7957
7.4103
6.90965
6.65397
6.6333
6.80814
7.36648
8.27538
9.35684
9.62218
9.50859
10.6922
2.73406
3.24641
3.75202
4.21071
4.44283
4.22055
3.87437
3.75603
3.72911
3.73351
3.65076
3.63063
3.52665
3.49777
3.3799
3.3881
3.2727
3.37047
3.41758
3.559
3.76912
3.99984
4.25104
4.35837
4.37051
4.13353
3.92849
3.71736
3.41191
2.78177
3.75445
4.24484
4.57181
4.52556
4.4102
4.18836
4.03117
3.67777
3.5175
3.26086
3.28759
3.19455
3.23772
3.14981
3.19472
3.07491
3.10284
3.00416
3.00627
2.91628
2.88097
2.80928
2.8105
2.82769
2.93665
3.14113
3.38034
3.56982
3.56533
3.47642
2.72706
2.50513
2.53757
2.68146
2.7959
2.89128
2.94939
3.0074
3.04379
3.0536
3.0266
2.95981
2.86159
2.77726
2.68448
2.59889
2.56337
2.5146
2.5392
2.54925
2.70866
2.77407
2.96051
3.02801
3.15423
3.23109
3.16457
3.05173
3.1991
3.34532
3.60174
3.78701
3.68261
3.50127
3.38743
3.33991
3.29763
3.25723
3.24956
3.26019
3.27514
3.19702
3.16498
3.24578
3.23348
3.34275
3.39045
3.41268
3.34922
3.2272
3.1712
3.11527
2.96772
2.92685
2.90469
2.90273
2.93709
3.00348
3.09597
3.1001
3.1572
3.11165
3.05567
3.14607
3.08159
2.94999
2.92331
2.95463
3.0113
3.05042
3.13263
3.18297
3.21183
3.28211
3.20069
3.25258
3.07497
3.06006
2.8667
2.79554
2.63193
2.57933
2.46483
2.46767
2.41418
2.47464
2.5162
2.6658
2.66549
2.64496
1.2852
1.28715
1.54725
1.4871
1.29882
1.25388
1.24589
1.25876
1.27421
1.31438
1.35602
1.39369
1.40744
1.43552
1.42363
1.42107
1.41406
1.40686
1.38977
1.39977
1.43707
1.50218
1.59304
1.70917
1.75644
1.51401
1.31439
1.29964
1.34043
1.24624
2.5844
2.84528
2.9587
2.94617
2.8881
2.82872
2.77673
2.72788
2.69807
2.58355
2.61577
2.51587
2.56811
2.52347
2.60105
2.64239
2.67272
2.7514
2.79358
2.84561
2.8967
2.93335
2.91644
2.77859
2.55408
2.43495
2.4328
2.51777
2.60253
2.69237
2.75831
2.61698
2.41302
2.28222
2.20443
2.16436
2.14171
2.06692
2.0849
2.01978
2.01689
1.9841
2.04819
2.04721
2.18087
2.23288
2.39629
2.53063
2.74122
2.95728
3.05699
2.87655
2.80629
2.83673
2.81628
2.79584
2.79245
2.79918
2.71049
2.69445
2.62303
2.88865
3.38055
3.28321
3.01444
2.73954
2.50898
2.27681
2.0809
1.88639
1.78857
1.60447
1.5732
1.56318
1.6562
1.66053
1.76934
1.91792
2.1112
2.26874
2.50022
2.62941
2.71468
2.76716
2.82174
2.95543
2.9882
2.99202
3.04
3.07347
2.06792
2.38558
2.57604
2.47961
2.3453
2.22265
2.06244
1.94606
1.90282
1.6584
1.60585
1.56012
1.50964
1.46619
1.52294
1.58209
1.69468
1.8054
1.93726
2.07107
2.21246
2.32368
2.33305
2.30035
2.3673
2.46382
2.5066
2.51765
2.49771
2.42324
1.85917
1.89642
1.9538
1.99369
1.85703
1.71221
1.67441
1.83517
2.04927
2.22815
2.36486
2.45905
2.46962
2.46611
2.42628
2.30757
2.19058
1.98758
1.75734
1.58586
1.53858
1.61743
1.70474
1.73468
1.73577
1.718
1.68108
1.59352
1.61174
1.59797
2.36976
2.35826
2.21206
1.59095
0.996934
1.36591
3.13991
3.62354
3.63336
3.66945
3.75192
3.80647
3.85988
3.94887
3.96693
3.92448
3.96776
3.96645
3.8463
3.69499
3.39385
2.95868
2.59233
2.58925
3.04275
3.4442
3.63822
3.65094
3.28061
1.27224
7.08158
7.19146
6.41304
5.78726
5.68949
5.78032
5.87729
5.92489
6.14022
6.75978
8.30324
9.64644
9.72091
10.648
2.76622
3.37557
4.02939
4.56264
4.51666
3.99692
3.69839
3.64808
3.60449
3.57658
3.4923
3.47776
3.39774
3.36139
3.23105
3.24641
3.15457
3.31192
3.41279
3.74384
3.98303
4.30317
4.53004
4.76354
4.73595
4.54795
4.14478
3.90105
3.63006
3.01852
3.75236
4.28104
4.59491
4.56916
4.50887
4.32999
4.18613
3.79078
3.54857
3.34498
3.34438
3.30868
3.36655
3.31292
3.31978
3.26294
3.27951
3.26423
3.2493
3.23315
3.1534
3.08537
2.93867
2.89763
2.9081
3.02832
3.23834
3.49147
3.57644
3.50743
2.68438
2.48269
2.57234
2.69852
2.81219
2.88654
2.94312
2.97781
3.01643
3.01723
2.9659
2.8704
2.76767
2.66455
2.5584
2.53419
2.52503
2.54752
2.51907
2.58933
2.58154
2.7049
2.78019
2.92615
3.02053
3.1745
3.17373
3.07626
3.1265
3.30846
3.77266
3.68168
3.43807
3.32029
3.28892
3.31859
3.3478
3.41837
3.49893
3.49609
3.41868
3.39619
3.39446
3.30112
3.34198
3.30869
3.36473
3.37999
3.3881
3.28991
3.18366
3.13397
3.01431
2.93623
2.90307
2.90861
2.92769
2.99888
3.14442
3.19814
3.16582
3.09154
3.07772
3.04216
2.90224
2.87335
2.94615
3.00435
3.11723
3.25639
3.44028
3.57459
3.69275
3.81774
3.79673
3.82608
3.73812
3.63131
3.45347
3.19716
3.00993
2.74815
2.60792
2.46125
2.4265
2.38081
2.45067
2.54251
2.67019
2.66036
1.28826
1.43377
1.58777
1.28253
1.24092
1.27482
1.32296
1.49459
1.58564
1.60145
1.6229
1.63003
1.66141
1.67351
1.72386
1.71032
1.69225
1.65967
1.612
1.53762
1.47974
1.48024
1.52319
1.61195
1.71162
1.66003
1.42042
1.36172
1.41651
1.257
2.79503
2.96268
2.95538
2.88031
2.80145
2.79324
2.76493
2.75154
2.71282
2.67828
2.64513
2.63509
2.59035
2.60264
2.58361
2.68547
2.72821
2.75104
2.78912
2.79365
2.8072
2.85399
2.86547
2.80775
2.62775
2.43748
2.42683
2.49949
2.59375
2.76457
2.60111
2.44861
2.30042
2.2252
2.19393
2.18118
2.13814
2.12627
2.09728
2.01951
1.98646
2.0393
2.0047
2.1093
2.13732
2.1954
2.28921
2.37488
2.55471
2.78586
2.97955
2.98688
2.8343
2.824
2.8422
2.82367
2.82539
2.99165
2.89945
2.69664
2.63901
3.2564
3.35367
3.039
2.70095
2.45879
2.2286
2.02187
1.85881
1.68185
1.55336
1.46292
1.43769
1.41766
1.35344
1.50562
1.60197
1.72556
1.88925
2.05018
2.1983
2.43725
2.56398
2.63025
2.75982
2.89408
2.88823
2.89212
3.0234
3.08035
2.1544
2.55789
2.50704
2.34979
2.22588
2.07407
1.98856
1.88545
1.69894
1.54217
1.55849
1.40353
1.30314
1.32675
1.35508
1.44116
1.54064
1.66045
1.7861
1.91196
2.06861
2.22722
2.33072
2.33001
2.35714
2.47347
2.52312
2.52423
2.48992
2.45179
1.94909
2.03045
2.04352
1.9262
1.77595
1.70499
1.91065
2.19775
2.50946
2.64228
2.78331
2.75684
2.77536
2.72461
2.70865
2.57425
2.44615
2.26092
1.97185
1.69223
1.5682
1.63401
1.7492
1.74915
1.7431
1.73393
1.72709
1.67322
1.63111
1.61937
2.10102
2.16154
1.59387
1.2592
1.2552
2.54086
3.5708
3.70258
3.72756
3.80445
3.8717
3.97338
3.99781
4.01141
4.10344
4.12652
4.04652
4.0695
4.0558
3.95468
3.82014
3.50204
2.92496
2.43383
2.5924
3.00874
3.3032
3.27422
2.62963
1.05052
6.77975
6.08584
5.35263
5.3704
5.87363
6.32813
6.50172
6.31356
6.13835
6.21289
7.3518
9.29467
9.88354
10.6307
2.8001
3.52961
4.33189
4.79803
4.46076
3.83783
3.59686
3.54997
3.48195
3.47855
3.43552
3.4596
3.38933
3.33854
3.22216
3.21019
3.20651
3.48303
3.77893
4.28521
4.62783
4.99133
5.21972
5.27823
5.28136
4.91337
4.46227
4.00985
3.7769
3.11742
3.71985
4.26469
4.59718
4.60576
4.58449
4.43916
4.27188
3.77832
3.59852
3.33141
3.39162
3.37542
3.44872
3.33994
3.41388
3.31648
3.40293
3.32714
3.36496
3.31188
3.31942
3.24202
3.18921
3.04812
2.96882
3.03114
3.17268
3.43179
3.55794
3.51657
2.66044
2.46332
2.54796
2.70356
2.78783
2.86272
2.91185
2.95782
2.98637
2.99274
2.92969
2.81972
2.68051
2.56555
2.54777
2.55521
2.52453
2.48969
2.53387
2.52413
2.59988
2.63011
2.73516
2.79239
2.95545
3.06825
3.1724
3.06377
3.0932
3.29367
3.75375
3.51763
3.28347
3.2517
3.25701
3.36473
3.50262
3.73906
3.81192
3.77964
3.7949
3.73481
3.54978
3.57736
3.39197
3.33492
3.38052
3.33364
3.39229
3.30546
3.20478
3.12996
3.03996
2.94428
2.90858
2.91896
2.92243
2.98558
3.15985
3.26417
3.1185
3.07021
3.01595
2.90758
2.83655
2.88999
2.97398
3.08045
3.28645
3.48549
3.72723
3.90807
4.04267
4.16785
4.11538
4.2417
4.1308
4.15291
3.92006
3.76315
3.39344
3.10238
2.77644
2.59008
2.4313
2.38888
2.37586
2.48873
2.62841
2.67949
1.309
1.642
1.31063
1.24373
1.30939
1.5031
1.68913
1.72813
1.6767
1.65569
1.65667
1.73292
1.80399
1.89788
1.93634
2.00433
1.96291
1.9163
1.85712
1.75302
1.62005
1.54301
1.50649
1.54941
1.64788
1.69228
1.53943
1.44441
1.48564
1.26985
2.92668
2.99799
2.89039
2.80343
2.78177
2.80909
2.80548
2.78848
2.78062
2.66823
2.69809
2.5852
2.63297
2.64935
2.68393
2.65961
2.75441
2.77608
2.77405
2.77717
2.7566
2.76284
2.79065
2.78372
2.69889
2.53458
2.46694
2.48861
2.57974
2.76959
2.48947
2.37382
2.2704
2.22896
2.215
2.20844
2.15011
2.08297
2.00934
1.9693
2.00244
1.93775
2.01987
2.00385
2.13414
2.17116
2.24621
2.29888
2.42022
2.62247
2.84468
2.96269
2.87556
2.80122
2.81786
2.78455
2.81896
3.1242
3.19
2.79884
2.63918
3.50743
3.15475
2.7727
2.48634
2.25591
2.0489
1.82997
1.67897
1.49852
1.42473
1.34663
1.28209
1.25541
1.31278
1.29873
1.41252
1.55202
1.70367
1.87073
2.02307
2.17139
2.39495
2.492
2.56285
2.67953
2.70853
2.69861
2.86499
2.94643
2.31364
2.59299
2.3943
2.25053
2.11395
2.03101
1.9297
1.69119
1.57143
1.51514
1.35699
1.23054
1.26066
1.2182
1.25989
1.29455
1.42537
1.50947
1.68208
1.76867
1.94496
2.1117
2.26016
2.33118
2.36338
2.44754
2.52982
2.50751
2.4552
2.43416
2.00491
2.06739
2.0074
1.8516
1.72993
1.8324
2.21236
2.54975
2.86343
2.94886
3.02746
3.0437
3.00647
2.94842
2.8758
2.71779
2.57002
2.39224
2.14349
1.81337
1.60027
1.63579
1.75505
1.7075
1.65276
1.66845
1.72914
1.67256
1.67323
1.63607
1.94719
2.08273
1.40134
1.32384
1.88438
3.29621
3.71063
3.75749
3.81551
3.91425
4.00769
4.08492
4.20554
4.20363
4.20998
4.2928
4.28135
4.12396
4.09265
4.01356
3.96187
3.86039
3.49962
2.67775
2.30994
2.66917
2.74604
2.56411
1.82748
0.980537
6.25145
5.2499
5.08672
5.96632
7.11172
7.62568
7.60244
7.17943
6.64417
6.29346
6.95295
9.00393
10.0047
10.7593
2.82484
3.65068
4.57564
5.02163
4.47339
3.77829
3.53386
3.46725
3.40692
3.41299
3.38195
3.4296
3.3668
3.32823
3.21059
3.21127
3.34632
3.83306
4.369
4.91309
5.41256
5.78821
5.96394
6.04277
5.76755
5.37737
4.66979
4.17845
3.84892
3.26234
3.6603
4.19946
4.56149
4.60516
4.62265
4.44636
4.13914
3.72267
3.57122
3.32162
3.45945
3.41587
3.48053
3.37661
3.43571
3.37007
3.43274
3.35566
3.36635
3.33347
3.30559
3.31452
3.27534
3.17282
3.09264
3.07461
3.18363
3.4021
3.53522
3.49879
2.60495
2.42921
2.54371
2.68554
2.763
2.79996
2.85283
2.91263
2.94625
2.93989
2.88967
2.74481
2.59187
2.54492
2.55001
2.509
2.51504
2.53351
2.5384
2.59923
2.59105
2.62412
2.67382
2.76122
2.8531
3.03349
3.09712
3.08514
3.06857
3.24312
3.46916
3.25172
3.15948
3.15572
3.2525
3.50334
3.69698
3.9544
3.95631
4.05077
3.93548
3.81122
3.77178
3.60947
3.521
3.37718
3.36063
3.3094
3.37286
3.28884
3.2127
3.12217
3.06146
2.97362
2.92544
2.9331
2.9228
2.9906
3.18919
3.32115
3.1414
3.05725
2.97043
2.80325
2.8355
2.88536
2.99803
3.15934
3.39457
3.59775
3.83583
4.0078
4.18109
4.25588
4.33483
4.45035
4.40015
4.44647
4.30435
4.06514
3.79802
3.36747
3.03526
2.69675
2.51091
2.37511
2.37
2.4321
2.61667
2.66276
1.33341
1.49776
1.26748
1.31191
1.56549
1.82747
1.85316
1.733
1.64896
1.63519
1.74983
1.88982
2.06986
2.16814
2.26277
2.25562
2.29804
2.21819
2.0788
1.96867
1.79933
1.64368
1.53997
1.5196
1.59343
1.66457
1.62868
1.55308
1.52561
1.30467
3.01613
2.97373
2.83529
2.80509
2.80398
2.84741
2.82643
2.81828
2.74881
2.68059
2.63212
2.58822
2.55906
2.52363
2.62877
2.61153
2.71377
2.77646
2.77276
2.75649
2.73455
2.71165
2.73305
2.74733
2.70472
2.5787
2.51636
2.51588
2.63412
2.80691
2.50176
2.35653
2.2703
2.26067
2.24784
2.20647
2.10067
1.99225
1.98549
1.9257
1.85327
1.90593
1.9158
1.98156
2.04633
2.1201
2.20046
2.26781
2.33448
2.49586
2.72322
2.892
2.92223
2.81673
2.79154
2.74091
2.8701
3.3123
3.45461
2.976
2.73818
3.4152
2.88215
2.58792
2.35911
2.12179
1.87921
1.71317
1.54794
1.42198
1.38607
1.3195
1.30396
1.29921
1.29569
1.32868
1.39509
1.43958
1.5751
1.72522
1.87423
2.03509
2.19588
2.41784
2.53751
2.61934
2.67162
2.72524
2.99239
3.10374
2.46819
2.49497
2.29086
2.1619
2.09073
1.97136
1.73485
1.60732
1.5283
1.33052
1.29376
1.30661
1.25368
1.24013
1.22237
1.24146
1.33493
1.38078
1.59669
1.66821
1.83503
2.01886
2.18695
2.30637
2.36472
2.43638
2.53145
2.46201
2.3924
2.404
2.03134
2.05768
1.93381
1.78817
1.75085
2.02996
2.47927
2.82847
3.11328
3.15909
3.3317
3.30759
3.39174
3.2715
3.07891
2.88388
2.617
2.45129
2.25452
1.91464
1.65186
1.63191
1.75814
1.59311
1.48168
1.55858
1.6863
1.72516
1.69552
1.68199
1.85197
2.16318
1.69472
1.74204
2.70802
3.60283
3.77924
3.81048
3.92025
4.04282
4.1595
4.23903
4.33381
4.48865
4.48427
4.37093
4.41961
4.3224
4.19428
4.0174
3.94835
3.91441
3.85087
3.23405
2.18363
2.34172
2.37883
1.93954
1.24621
0.936646
5.75055
4.81511
5.37179
7.26215
8.53229
8.58944
8.3537
7.81855
7.23768
6.68833
7.09214
8.94861
10.1079
10.7632
2.83805
3.73717
4.8073
5.26007
4.63381
3.84135
3.51298
3.41365
3.35794
3.34308
3.31609
3.36359
3.33079
3.31998
3.1986
3.26135
3.59206
4.31016
4.8841
5.42752
5.85585
6.23565
6.56298
6.49375
6.31388
5.63565
4.90946
4.22452
3.95132
3.2864
3.615
4.1016
4.50351
4.58311
4.5978
4.27359
3.99051
3.64616
3.52837
3.32963
3.50906
3.43138
3.51829
3.39315
3.49569
3.39855
3.47877
3.3487
3.41136
3.30835
3.34118
3.28333
3.28359
3.23128
3.18603
3.1326
3.23153
3.39879
3.51218
3.46609
2.62069
2.43217
2.5469
2.64971
2.72345
2.76539
2.80929
2.85925
2.91652
2.93918
2.88074
2.71114
2.59164
2.53904
2.48773
2.50526
2.55646
2.53826
2.60065
2.58459
2.60486
2.61554
2.68018
2.71425
2.83805
2.96316
3.0958
2.99736
3.00734
3.18846
3.3796
3.2253
3.09331
3.15187
3.23596
3.51884
3.67117
4.02399
4.10551
4.22054
4.10393
4.00771
3.72092
3.63947
3.49307
3.40484
3.40833
3.25931
3.33692
3.24164
3.21624
3.10244
3.07659
3.007
2.96713
2.958
2.94759
3.01771
3.22922
3.37056
3.10382
3.01146
2.88187
2.80048
2.85506
2.90583
3.04336
3.21472
3.41253
3.5746
3.79255
3.98432
4.18124
4.33422
4.49651
4.64929
4.61205
4.70488
4.46993
4.36831
4.00703
3.64921
3.17739
2.83569
2.54896
2.40858
2.35106
2.43396
2.61379
2.66936
1.41436
1.33649
1.29395
1.50903
1.86689
1.99114
1.87917
1.6911
1.59732
1.6599
1.84324
2.07473
2.265
2.41225
2.46748
2.50155
2.43703
2.4172
2.30122
2.13361
1.95741
1.72517
1.5815
1.51224
1.55215
1.64101
1.65218
1.61077
1.57486
1.40273
3.07208
2.92102
2.82463
2.81953
2.82997
2.85695
2.82862
2.814
2.74084
2.67403
2.65446
2.54893
2.59036
2.55825
2.59585
2.60717
2.64965
2.73062
2.75865
2.73075
2.67475
2.67238
2.68231
2.69395
2.69073
2.61404
2.56447
2.60173
2.68033
2.77949
2.53249
2.35473
2.29431
2.29825
2.25034
2.17983
2.05225
1.9545
1.92763
1.8434
1.84659
1.82212
1.90635
1.90682
2.03785
2.06134
2.15526
2.24588
2.278
2.41006
2.62613
2.80893
2.89104
2.83344
2.78836
2.71322
3.01679
3.53005
3.69372
3.14063
2.89096
3.17049
2.78551
2.52245
2.26509
2.00951
1.78143
1.6329
1.43882
1.36281
1.36657
1.28703
1.29981
1.23012
1.24883
1.20539
1.35227
1.33978
1.56115
1.62475
1.7504
1.94005
2.06587
2.19937
2.38763
2.46704
2.44911
2.61232
2.8527
2.8911
2.55937
2.34762
2.21654
2.16881
2.03073
1.81141
1.68351
1.53304
1.34483
1.354
1.35789
1.23494
1.22201
1.19778
1.25204
1.20989
1.31311
1.29876
1.48526
1.61069
1.77262
1.91787
2.13627
2.27537
2.35975
2.47347
2.52309
2.41933
2.32816
2.33701
2.01244
2.01768
1.85969
1.7349
1.83158
2.19312
2.68229
3.03045
3.28324
3.35535
3.55443
3.57437
3.60079
3.46791
3.34987
3.0211
2.68662
2.47937
2.28155
1.99142
1.65777
1.63624
1.74423
1.55031
1.44662
1.52175
1.69457
1.71
1.70758
1.69354
1.75814
2.41933
2.27134
2.46178
3.2104
3.7256
3.8291
3.87456
3.99418
4.14925
4.21888
4.34237
4.40756
4.46253
4.60026
4.54509
4.50943
4.33965
4.336
4.07991
3.91853
3.85951
3.90065
3.74955
2.3851
1.78278
2.05518
1.54913
1.06091
0.868198
5.38271
4.73449
6.20674
8.6232
9.25146
8.98326
8.77536
8.56881
7.99475
7.3898
7.65053
9.38114
10.2901
10.975
2.81428
3.74786
4.90152
5.57393
5.13677
4.19419
3.6227
3.43763
3.35359
3.32249
3.28111
3.29808
3.30591
3.30743
3.19631
3.35575
3.87354
4.6833
5.14899
5.61442
5.91598
6.41609
6.66811
6.75143
6.42606
5.81501
4.89318
4.31034
3.93537
3.36057
3.54019
3.94503
4.40985
4.54803
4.43778
4.08128
3.87575
3.63485
3.54292
3.36386
3.52798
3.44312
3.5429
3.41319
3.54576
3.45705
3.50686
3.37132
3.42016
3.28295
3.30766
3.24406
3.28356
3.22094
3.22805
3.18852
3.2661
3.41428
3.47617
3.43598
2.57389
2.40811
2.51768
2.60531
2.65608
2.70358
2.79588
2.85412
2.88413
2.92502
2.87221
2.72489
2.60486
2.51774
2.50183
2.48809
2.51184
2.51113
2.55021
2.56625
2.59832
2.60604
2.6986
2.67402
2.81194
2.94836
3.00888
3.0132
3.03746
3.25262
3.23799
3.17361
3.0821
3.09615
3.18301
3.46327
3.67203
3.99498
4.0005
4.03879
3.90534
3.77783
3.68582
3.56764
3.5007
3.34244
3.38715
3.23307
3.30021
3.20449
3.17431
3.10051
3.1068
3.03599
3.02763
2.99802
3.0077
3.07573
3.32006
3.47706
3.10873
2.99418
2.84795
2.78186
2.86457
2.90179
3.03821
3.16063
3.31597
3.46136
3.70655
3.92518
4.09671
4.39108
4.50331
4.86258
4.79141
4.8438
4.62506
4.4714
4.13628
3.69984
3.30108
2.86173
2.58836
2.40032
2.36522
2.44622
2.6556
2.67303
1.48443
1.32536
1.35237
1.79497
2.05466
2.07758
1.89285
1.66014
1.59242
1.68354
1.91133
2.16565
2.36783
2.44795
2.56574
2.61096
2.63537
2.52033
2.39429
2.24829
2.02453
1.79412
1.58442
1.51129
1.51857
1.60984
1.64022
1.62411
1.60414
1.75414
3.15314
2.96633
2.87801
2.83989
2.84727
2.85801
2.84229
2.82052
2.74208
2.72769
2.63947
2.59114
2.57753
2.55913
2.57175
2.5658
2.60062
2.71626
2.71147
2.71376
2.66702
2.63018
2.64803
2.69106
2.67757
2.61484
2.60577
2.73645
2.6938
2.6395
2.64079
2.41823
2.35252
2.31252
2.25328
2.14541
2.04127
1.93377
1.92113
1.82677
1.84856
1.82694
1.85831
1.88189
2.02789
2.03109
2.14781
2.19447
2.24098
2.35889
2.56855
2.7554
2.87173
2.86389
2.76446
2.84808
3.39205
3.79442
3.76462
3.26086
2.95909
2.98505
2.73816
2.50851
2.21158
1.95586
1.72848
1.58888
1.36062
1.42897
1.31285
1.29662
1.25668
1.25415
1.28373
1.29705
1.23134
1.43962
1.40852
1.64377
1.68092
1.80909
2.00095
2.18126
2.29982
2.45055
2.5349
2.85583
2.96823
2.88263
2.5613
2.42483
2.31335
2.10865
1.88962
1.8021
1.55774
1.39103
1.4187
1.36454
1.25646
1.24129
1.26324
1.23584
1.24056
1.2076
1.32107
1.28602
1.44154
1.5306
1.79054
1.83322
2.0874
2.25491
2.36713
2.49385
2.51281
2.3558
2.23712
2.18673
1.99035
1.99725
1.82716
1.73123
1.89411
2.3211
2.83014
3.14938
3.40769
3.4553
3.69478
3.62934
3.66688
3.64816
3.44398
3.17513
2.74341
2.42849
2.34949
2.079
1.71159
1.65679
1.69191
1.50931
1.46686
1.51988
1.64746
1.7374
1.79937
1.79399
1.63504
2.55298
2.76265
2.98546
3.50215
3.77973
3.87559
3.9808
4.0255
4.15214
4.35227
4.40454
4.51536
4.48067
4.54328
4.49159
4.62138
4.35475
4.31707
4.09816
3.92931
3.80745
3.84924
3.84277
2.98889
1.37446
1.47398
1.15217
0.968925
0.846209
5.19584
4.82727
7.25454
9.36768
9.46271
8.71075
8.68238
9.1007
8.93554
8.3501
8.60277
9.87307
10.5007
10.9497
8.92136
5.07889
2.96127
3.64419
4.86757
5.76934
5.79215
4.94914
4.14886
3.74177
3.53691
3.45064
3.35132
3.32077
3.29511
3.28882
3.21829
3.45302
4.11414
4.8261
5.16866
5.49156
5.86039
6.37785
6.69789
6.61678
6.4385
5.62103
4.89381
4.23927
4.05636
3.35995
3.21071
3.17095
3.45889
3.71076
4.16411
4.39387
4.2923
3.97453
3.83003
3.65019
3.60284
3.39338
3.57338
3.46106
3.57447
3.44225
3.60376
3.47994
3.56763
3.39059
3.41115
3.26046
3.28393
3.24251
3.23085
3.22138
3.24189
3.23818
3.31385
3.40536
3.44391
3.36136
3.15896
2.83927
2.58925
2.39289
2.5105
2.58414
2.65283
2.68334
2.75362
2.85241
2.87967
2.89451
2.91916
2.8114
2.65828
2.57699
2.51132
2.53713
2.56971
2.57087
2.61842
2.6432
2.65877
2.63076
2.68352
2.69832
2.81983
2.94716
2.99745
2.90157
3.00626
3.23144
3.73352
3.72296
3.38864
3.26458
3.14909
3.06004
3.11075
3.32707
3.47698
3.7978
3.75152
3.83419
3.72917
3.5948
3.55537
3.38004
3.45267
3.25108
3.31692
3.16415
3.24823
3.13766
3.14402
3.09736
3.09311
3.08699
3.08064
3.06751
3.06511
3.16493
3.32552
3.42901
3.42094
3.39946
3.25331
3.01101
2.84345
2.82234
2.88136
2.91936
3.01527
3.1177
3.2224
3.35809
3.59876
3.82066
4.03653
4.28201
4.43841
4.82907
4.82417
4.77189
4.72005
4.39847
4.11628
3.64103
3.24926
2.83764
2.55544
2.39403
2.38816
2.52221
2.66846
2.34496
1.55663
1.3561
1.36822
1.35172
1.65654
1.97964
2.16231
2.15232
1.94421
1.67431
1.56992
1.65956
1.88054
2.1366
2.32957
2.44485
2.55684
2.5891
2.57091
2.54374
2.38776
2.22945
2.03041
1.75166
1.5647
1.46947
1.50806
1.59477
1.63018
1.73067
2.57856
3.06871
3.12128
3.03689
3.0292
2.95412
2.85012
2.82145
2.84654
2.85475
2.86887
2.82149
2.7819
2.75887
2.67696
2.61323
2.58245
2.59623
2.5749
2.54501
2.64166
2.67324
2.68014
2.69182
2.64017
2.60879
2.6288
2.65949
2.65753
2.68848
2.79781
2.76241
2.61816
2.50349
2.52698
2.56817
2.4259
2.34097
2.32045
2.31485
2.25101
2.14777
2.04938
1.95177
1.92041
1.84622
1.82774
1.80641
1.89119
1.87094
2.02047
2.01416
2.15297
2.14181
2.23394
2.34683
2.5444
2.73826
2.8477
2.86707
2.73465
3.3242
3.83842
3.5598
3.42389
3.17891
2.98369
2.93894
2.99905
2.95367
2.76629
2.52031
2.21086
1.93175
1.73475
1.50259
1.41896
1.32404
1.33536
1.23989
1.27056
1.20264
1.21038
1.27993
1.22987
1.37922
1.48194
1.52197
1.67139
1.77965
1.89986
2.12482
2.26259
2.28938
2.6346
2.87338
2.67482
2.45749
2.37891
2.3395
2.42166
2.50125
2.22408
1.98438
1.90515
1.71107
1.46327
1.46434
1.32624
1.30745
1.3091
1.23753
1.17676
1.15788
1.26294
1.18458
1.31162
1.25975
1.46485
1.46486
1.74657
1.83801
2.03053
2.26277
2.37413
2.53785
2.49665
2.39031
2.26068
2.15323
2.1147
1.96053
1.96218
1.89957
1.76336
1.70659
1.91193
2.3736
2.85708
3.20601
3.46171
3.50446
3.71588
3.68227
3.72778
3.62801
3.52543
3.20184
2.71687
2.4591
2.34842
2.09919
1.69142
1.68476
1.79094
1.59542
1.51084
1.62275
1.7697
1.80499
1.724
1.51284
1.40519
2.20731
2.68535
3.07862
3.15941
3.31788
3.65617
3.8296
3.88638
4.01136
4.10746
4.13759
4.36807
4.44738
4.47465
4.48658
4.60253
4.44442
4.57378
4.33569
4.32552
4.04058
3.88241
3.75156
3.80075
3.82892
3.42414
1.35677
1.08908
1.0037
1.02205
1.96557
4.29096
4.41127
5.11431
5.1141
7.96761
9.55956
9.14406
7.62137
7.48781
8.83702
9.7746
9.60723
9.67053
10.4626
10.6249
10.9884
9.33129
5.34763
3.13675
3.53841
4.65537
5.69475
6.3167
6.1547
5.46864
4.89835
4.46239
4.15602
3.81388
3.51663
3.32862
3.29005
3.25669
3.54361
4.22808
4.8232
5.07901
5.30441
5.65642
6.112
6.40709
6.34709
6.00703
5.29874
4.70972
4.26588
4.11494
3.55328
3.33398
3.1493
3.40477
3.55402
3.92839
4.23705
4.1532
3.93943
3.85945
3.77638
3.61406
3.49315
3.55266
3.55211
3.56537
3.55235
3.6131
3.57676
3.5606
3.48239
3.34595
3.30933
3.24022
3.20981
3.24274
3.21053
3.27112
3.28754
3.36271
3.41918
3.43169
3.32665
3.08758
2.81411
2.55606
2.41018
2.44279
2.54946
2.62413
2.68544
2.78231
2.85863
2.89511
2.91285
2.97762
2.86387
2.77604
2.65022
2.55281
2.51047
2.50821
2.5707
2.60009
2.55792
2.57482
2.62489
2.67116
2.7483
2.85168
2.94884
2.96178
2.9457
3.18807
3.60388
3.66759
3.65487
3.41888
3.32426
3.14819
3.07318
3.03324
3.2112
3.24284
3.47087
3.4857
3.47697
3.40934
3.37276
3.31048
3.28628
3.27667
3.11006
3.21739
3.075
3.13242
3.12417
3.09747
3.08286
3.11372
3.14559
3.15106
3.14007
3.20955
3.35404
3.44696
3.45703
3.42467
3.35725
3.21662
2.93325
2.84475
2.83115
2.89758
2.90679
2.9771
3.03738
3.11736
3.22461
3.43653
3.71948
3.8804
4.11133
4.24521
4.52983
4.6481
4.65212
4.43931
4.28614
3.83094
3.47937
3.05398
2.73727
2.4981
2.43399
2.48541
2.64472
2.47348
1.80605
1.41159
1.34412
1.356
1.49953
1.83628
2.06019
2.24064
2.25335
2.06587
1.73996
1.56349
1.58301
1.78807
1.98906
2.20378
2.33628
2.4398
2.49098
2.43151
2.42732
2.25561
2.14757
1.88331
1.65209
1.49637
1.4601
1.49668
1.58946
1.69929
2.34365
3.22729
3.28303
3.2468
3.27518
3.29982
3.13296
2.91436
2.84329
2.84829
2.8602
2.87026
2.85082
2.82772
2.78038
2.73464
2.68409
2.59055
2.56674
2.55776
2.55762
2.68512
2.62297
2.69298
2.66323
2.6353
2.59178
2.61086
2.61662
2.59932
2.64184
2.76929
2.76929
2.72853
2.6888
2.67641
2.57597
2.46033
2.34744
2.32911
2.3336
2.27603
2.17177
2.08296
1.97408
1.94962
1.87924
1.88498
1.85443
1.89987
1.89043
2.04496
1.98819
2.13924
2.12761
2.26087
2.34818
2.5761
2.74002
2.85069
2.8093
3.00895
3.96611
3.47644
3.28921
3.15686
3.1266
3.07925
3.09872
3.12244
3.04919
2.82706
2.59262
2.26953
1.98846
1.72774
1.55135
1.43038
1.30914
1.32041
1.22954
1.23764
1.21702
1.26694
1.17591
1.35948
1.32746
1.46648
1.52509
1.62704
1.73923
1.9139
2.04938
2.21385
2.46709
2.96345
2.90583
2.72969
2.65991
2.60868
2.68698
2.83399
2.64065