/*--------------------------------*- C++ -*----------------------------------*\
| =========                 |                                                 |
| \\      /  F ield         | OpenFOAM: The Open Source CFD Toolbox           |
|  \\    /   O peration     | Version:  2.1.1                                 |
|   \\  /    A nd           | Web:      www.OpenFOAM.org                      |
|    \\/     M anipulation  |                                                 |
\*---------------------------------------------------------------------------*/
FoamFile
{
    version     2.0;
    format      ascii;
    class       volScalarField;
    location    "0.000850000";
    object      H;
}
// * * * * * * * * * * * * * * * * * * * * * * * * * * * * * * * * * * * * * //

dimensions      [0 0 0 0 0 0 0];

internalField   nonuniform List<scalar> 
12384
(
5.02552e-07
2.41219e-07
5.31367e-08
2.40233e-09
8.79143e-11
2.19539e-12
6.33254e-14
1.11474e-15
1.75626e-17
2.5968e-19
3.97382e-21
5.86998e-23
7.7201e-25
9.57209e-27
3.60789e-39
1.04306e-39
3.001e-41
2.55256e-43
1.96458e-45
1.27736e-47
7.35043e-50
3.91818e-52
1.97627e-54
9.69851e-57
4.55493e-59
2.09655e-61
9.43652e-64
4.04043e-66
1.68304e-68
6.79288e-71
2.60285e-73
9.85311e-76
3.7318e-78
1.43701e-80
5.68817e-83
2.30256e-85
9.30687e-88
3.69884e-90
1.42091e-92
5.3842e-95
1.94498e-97
7.00509e-100
2.45014e-102
8.63533e-105
2.21806e-112
5.91726e-114
2.27929e-116
8.04577e-119
2.80796e-121
9.88174e-124
3.54168e-126
1.30693e-128
5.03839e-131
2.09758e-133
9.6114e-136
4.91601e-138
2.71141e-140
1.56669e-142
9.09698e-145
5.24789e-147
2.97147e-149
1.65331e-151
9.05514e-154
4.89036e-156
2.6165e-158
1.38947e-160
7.34745e-163
3.88609e-165
2.0582e-167
1.02975e-169
6.849e-174
2.17937e-177
1.03514e-179
8.04154e-183
2.90996e-194
1.95003e-192
8.03293e-195
1.71356e-197
2.75376e-200
3.56646e-203
3.90048e-206
3.76763e-209
3.27456e-212
2.63666e-215
2.00804e-218
1.48622e-221
1.11278e-224
8.96382e-228
6.42903e-231
4.1662e-234
2.34416e-237
1.04206e-240
4.17451e-244
1.6271e-247
6.28569e-251
2.47242e-254
9.87454e-258
4.01181e-261
1.63415e-264
6.69964e-268
2.71705e-271
1.12573e-274
4.47353e-278
3.88257e-282
3.02141e-304
4.62055e-302
1.10072e-304
1.37386e-307
1.27344e-310
9.25423e-314
6.03674e-317
3.54492e-320
1.97626e-323
0
0
0
0
0
0
0
0
0
0
0
0
0
0
0
0
0
0
0
0
0
0
0
0
0
0
0
0
0
0
0
0
0
0
0
0
0
0
0
0
0
0
0
0
0
0
0
0
0
0
0
0
0
0
0
0
0
0
0
0
0
0
0
0
0
0
0
0
0
0
0
0
0
0
0
0
0
0
0
0
0
0
0
0
0
0
0
0
0
0
0
0
0
0
0
0
0
0
0
0
0
0
0
0
0
0
0
0
0
0
0
0
0
0
0
0
0
0
0
0
0
0
0
0
0
0
0
0
0
0
0
0
0
0
0
0
0
0
0
0
0
0
0
0
0
0
0
0
0
0
0
0
0
0
0
0
0
0
0
0
0
0
0
0
0
0
0
0
0
0
0
0
0
0
0
0
0
0
0
0
0
0
0
0
0
0
0
0
0
0
0
0
0
0
0
0
0
0
0
0
0
0
0
0
0
0
0
0
0
0
0
0
0
0
0
0
0
0
0
0
0
0
0
0
0
0
0
0
0
0
0
0
0
0
0
0
0
0
0
0
0
0
0
0
0
0
0
0
0
0
0
0
0
0
0
0
0
0
0
0
0
1.21529e-08
4.58318e-08
9.32464e-09
5.7768e-10
3.54935e-11
3.21901e-13
1.68978e-14
6.55964e-16
1.70263e-17
3.82062e-19
6.94165e-21
1.24208e-22
1.70892e-24
1.64736e-26
2.31329e-39
3.36443e-40
1.43034e-41
1.82056e-43
2.05186e-45
2.04884e-47
1.77999e-49
1.43829e-51
1.08305e-53
7.77647e-56
5.76015e-58
3.65062e-60
2.15582e-62
1.25538e-64
6.4371e-67
2.94939e-69
1.37996e-71
5.40344e-74
2.41339e-76
1.0914e-78
5.01505e-81
2.36437e-83
1.00793e-85
4.47157e-88
1.75711e-90
6.54745e-93
2.44752e-95
8.01199e-98
2.77834e-100
9.80996e-103
3.52843e-110
8.7164e-112
2.65775e-114
9.23669e-117
3.2144e-119
1.22266e-121
4.57771e-124
1.69425e-126
6.58079e-129
2.39447e-131
9.83696e-134
3.84713e-136
1.75323e-138
7.93697e-141
4.05904e-143
2.16201e-145
1.16077e-147
6.61503e-150
3.57894e-152
2.03483e-154
1.11556e-156
6.24698e-159
3.50059e-161
1.96265e-163
1.12511e-165
6.44479e-168
3.16881e-170
4.64207e-174
1.68229e-176
1.72792e-179
4.19899e-190
6.60564e-189
2.83118e-191
6.3724e-194
1.05381e-196
1.39206e-199
1.54777e-202
1.50803e-205
1.31321e-208
1.04885e-211
7.82451e-215
5.60671e-218
3.97538e-221
2.915e-224
2.06095e-227
1.34797e-230
7.83826e-234
3.87034e-237
1.67091e-240
6.87897e-244
2.79507e-247
1.14942e-250
4.76235e-254
1.99074e-257
8.29001e-261
3.42546e-264
1.38329e-267
5.62848e-271
2.2609e-274
3.98039e-278
6.37405e-300
2.80923e-298
6.57385e-301
8.25809e-304
7.69595e-307
5.68851e-310
3.7282e-313
2.18907e-316
1.1866e-319
5.92879e-323
0
0
0
0
0
0
0
0
0
0
0
0
0
0
0
0
0
0
0
0
0
0
0
0
0
0
0
0
0
0
0
0
0
0
0
0
0
0
0
0
0
0
0
0
0
0
0
0
0
0
0
0
0
0
0
0
0
0
0
0
0
0
0
0
0
0
0
0
0
0
0
0
0
0
0
0
0
0
0
0
0
0
0
0
0
0
0
0
0
0
0
0
0
0
0
0
0
0
0
0
0
0
0
0
0
0
0
0
0
0
0
0
0
0
0
0
0
0
0
0
0
0
0
0
0
0
0
0
0
0
0
0
0
0
0
0
0
0
0
0
0
0
0
0
0
0
0
0
0
0
0
0
0
0
0
0
0
0
0
0
0
0
0
0
0
0
0
0
0
0
0
0
0
0
0
0
0
0
0
0
0
0
0
0
0
0
0
0
0
0
0
0
0
0
0
0
0
0
0
0
0
0
0
0
0
0
0
0
0
0
0
0
0
0
0
0
0
0
0
0
0
0
0
0
0
0
0
0
0
0
0
0
0
0
0
0
0
0
0
0
0
0
0
0
0
0
0
0
0
0
0
0
0
0
0
0
0
0
0
0
1.38811e-12
3.80451e-12
1.12129e-13
2.28445e-14
1.11747e-14
1.52767e-15
3.48483e-17
6.76271e-19
3.491e-21
1.8043e-23
2.99673e-26
3.33766e-28
5.43753e-30
1.3812e-31
4.43049e-43
1.82713e-43
4.0697e-45
3.42853e-47
2.38274e-49
1.18179e-51
5.14038e-54
1.96763e-56
7.74403e-59
3.09291e-61
1.07849e-63
4.96402e-66
1.88923e-68
8.71077e-71
3.05382e-73
1.42936e-75
5.10546e-78
1.84579e-80
7.36544e-83
3.00707e-85
1.41556e-87
8.13263e-90
3.50033e-92
1.78385e-94
6.69861e-97
2.41618e-99
3.48691e-101
7.44539e-104
4.25822e-106
9.32925e-109
9.15263e-117
7.3542e-118
1.48475e-120
5.16827e-123
1.6967e-125
6.66359e-128
2.23762e-130
9.07772e-133
2.86927e-135
1.19191e-137
3.82054e-140
1.57604e-142
5.58813e-145
2.31405e-147
9.20116e-150
3.85938e-152
1.60593e-154
7.04431e-157
3.06393e-159
1.46606e-161
6.6551e-164
3.39464e-166
1.66574e-168
9.20889e-171
5.13901e-173
3.14551e-175
2.02294e-177
1.32738e-179
4.0224e-182
1.02931e-185
1.8338e-195
2.40637e-194
1.04718e-196
2.43702e-199
4.02786e-202
5.31238e-205
5.98882e-208
5.86547e-211
5.15803e-214
4.10125e-217
3.0085e-220
2.06044e-223
1.38764e-226
9.31214e-230
6.15746e-233
3.70495e-236
1.93917e-239
9.02341e-243
4.02728e-246
1.78592e-249
7.97602e-253
3.50304e-256
1.5302e-259
6.49859e-263
2.70682e-266
1.09905e-269
4.30708e-273
1.65162e-276
6.14614e-280
2.16089e-284
4.33659e-305
1.94356e-303
4.31048e-306
5.24993e-309
4.70536e-312
3.43738e-315
2.25142e-318
1.31916e-321
0
0
0
0
0
0
0
0
0
0
0
0
0
0
0
0
0
0
0
0
0
0
0
0
0
0
0
0
0
0
0
0
0
0
0
0
0
0
0
0
0
0
0
0
0
0
0
0
0
0
0
0
0
0
0
0
0
0
0
0
0
0
0
0
0
0
0
0
0
0
0
0
0
0
0
0
0
0
0
0
0
0
0
0
0
0
0
0
0
0
0
0
0
0
0
0
0
0
0
0
0
0
0
0
0
0
0
0
0
0
0
0
0
0
0
0
0
0
0
0
0
0
0
0
0
0
0
0
0
0
0
0
0
0
0
0
0
0
0
0
0
0
0
0
0
0
0
0
0
0
0
0
0
0
0
0
0
0
0
0
0
0
0
0
0
0
0
0
0
0
0
0
0
0
0
0
0
0
0
0
0
0
0
0
0
0
0
0
0
0
0
0
0
0
0
0
0
0
0
0
0
0
0
0
0
0
0
0
0
0
0
0
0
0
0
0
0
0
0
0
0
0
0
0
0
0
0
0
0
0
0
0
0
0
0
0
0
0
0
0
0
0
0
0
0
0
0
0
0
0
0
0
0
0
0
0
0
0
0
0
0
0
1.58437e-08
8.37253e-08
6.27852e-09
5.32856e-11
4.02695e-12
4.10105e-12
2.83352e-12
1.04145e-13
1.05018e-16
1.61711e-20
1.04513e-23
1.91992e-27
3.29155e-30
8.69814e-33
6.91272e-37
1.28664e-36
1.56411e-38
7.09773e-41
4.0301e-43
1.3298e-45
2.91281e-48
8.75583e-51
2.34912e-53
5.82407e-56
1.24065e-58
4.61085e-61
1.58201e-63
5.65296e-66
1.91562e-68
6.6371e-71
1.87202e-73
6.00691e-76
1.54281e-78
5.58452e-81
1.84242e-83
6.98831e-86
2.40692e-88
1.08309e-90
2.60255e-93
9.77061e-96
2.78649e-98
9.24435e-101
2.58809e-103
7.08844e-106
1.34404e-111
3.11715e-113
6.61825e-116
1.62926e-118
5.40116e-121
1.51732e-123
5.02822e-126
1.42969e-128
4.77706e-131
1.36411e-133
4.91198e-136
1.42267e-138
5.48158e-141
1.64416e-143
7.29253e-146
2.45934e-148
1.14442e-150
4.19922e-153
1.97573e-155
7.99772e-158
3.6614e-160
1.65626e-162
7.8161e-165
3.75972e-167
1.87838e-169
9.84466e-172
5.45831e-174
3.22682e-176
2.07287e-178
2.08615e-181
1.4189e-190
5.89723e-191
2.51124e-193
5.95223e-196
9.70126e-199
1.23289e-201
1.31532e-204
1.23396e-207
1.03928e-210
8.0175e-214
5.70394e-217
3.79527e-220
2.37171e-223
1.40921e-226
7.98471e-230
4.35768e-233
2.29341e-236
1.17308e-239
5.82272e-243
2.82268e-246
1.33198e-249
6.154e-253
2.77276e-256
1.22489e-259
5.28653e-263
2.23919e-266
9.29123e-270
3.78093e-273
1.47654e-276
2.52083e-280
5.71208e-300
1.18174e-299
2.30565e-302
2.52359e-305
2.0714e-308
1.41461e-311
8.48551e-315
4.62282e-318
2.32705e-321
0
0
0
0
0
0
0
0
0
0
0
0
0
0
0
0
0
0
0
0
0
0
0
0
0
0
0
0
0
0
0
0
0
0
0
0
0
0
0
0
0
0
0
0
0
0
0
0
0
0
0
0
0
0
0
0
0
0
0
0
0
0
0
0
0
0
0
0
0
0
0
0
0
0
0
0
0
0
0
0
0
0
0
0
0
0
0
0
0
0
0
0
0
0
0
0
0
0
0
0
0
0
0
0
0
0
0
0
0
0
0
0
0
0
0
0
0
0
0
0
0
0
0
0
0
0
0
0
0
0
0
0
0
0
0
0
0
0
0
0
0
0
0
0
0
0
0
0
0
0
0
0
0
0
0
0
0
0
0
0
0
0
0
0
0
0
0
0
0
0
0
0
0
0
0
0
0
0
0
0
0
0
0
0
0
0
0
0
0
0
0
0
0
0
0
0
0
0
0
0
0
0
0
0
0
0
0
0
0
0
0
0
0
0
0
0
0
0
0
0
0
0
0
0
0
0
0
0
0
0
0
0
0
0
0
0
0
0
0
0
0
0
0
0
0
0
0
0
0
0
0
0
0
0
0
0
0
0
0
0
0
9.98917e-05
0.000116687
7.01888e-05
4.1596e-06
3.96272e-08
4.81394e-09
2.05907e-09
1.05487e-09
3.78131e-11
2.90592e-14
3.87197e-18
8.21858e-22
1.6732e-25
3.21358e-29
5.44114e-31
2.19875e-30
3.23725e-32
2.00464e-34
6.43784e-37
1.55273e-39
3.14911e-42
8.59137e-45
1.6731e-47
4.79528e-50
1.21069e-52
3.15981e-55
1.13785e-57
3.95e-60
1.3772e-62
4.24325e-65
1.29583e-67
4.51318e-70
8.45117e-73
3.16349e-75
1.06785e-77
4.53229e-80
1.85783e-82
7.0911e-85
2.7352e-87
9.2224e-90
2.70293e-92
7.59897e-95
1.76914e-97
4.96356e-100
1.22901e-105
2.74832e-107
4.79553e-110
1.26782e-112
3.79233e-115
1.29116e-117
4.19434e-120
1.43786e-122
4.61046e-125
1.58459e-127
5.14041e-130
1.81411e-132
6.06876e-135
2.23807e-137
7.99526e-140
3.09558e-142
1.21063e-144
4.88892e-147
2.07044e-149
8.73708e-152
3.85993e-154
1.70432e-156
7.63536e-159
3.52861e-161
1.60691e-163
7.74492e-166
3.7346e-168
1.92303e-170
1.04079e-172
4.65928e-175
5.09132e-184
1.86361e-185
6.72696e-188
1.58789e-190
2.71893e-193
3.50288e-196
3.68628e-199
3.33653e-202
2.72344e-205
2.01965e-208
1.39616e-211
8.95291e-215
5.44429e-218
3.12027e-221
1.71771e-224
9.03844e-228
4.62183e-231
2.27937e-234
1.10192e-237
5.16264e-241
2.38221e-244
1.06748e-247
4.71839e-251
2.02904e-254
8.60405e-258
3.56085e-261
1.45048e-264
5.80175e-268
2.22762e-271
4.18425e-275
3.89524e-293
1.11778e-293
1.8047e-296
1.72225e-299
1.25515e-302
7.75872e-306
4.27391e-309
2.14535e-312
1.00949e-315
4.45697e-319
1.87745e-322
0
0
0
0
0
0
0
0
0
0
0
0
0
0
0
0
0
0
0
0
0
0
0
0
0
0
0
0
0
0
0
0
0
0
0
0
0
0
0
0
0
0
0
0
0
0
0
0
0
0
0
0
0
0
0
0
0
0
0
0
0
0
0
0
0
0
0
0
0
0
0
0
0
0
0
0
0
0
0
0
0
0
0
0
0
0
0
0
0
0
0
0
0
0
0
0
0
0
0
0
0
0
0
0
0
0
0
0
0
0
0
0
0
0
0
0
0
0
0
0
0
0
0
0
0
0
0
0
0
0
0
0
0
0
0
0
0
0
0
0
0
0
0
0
0
0
0
0
0
0
0
0
0
0
0
0
0
0
0
0
0
0
0
0
0
0
0
0
0
0
0
0
0
0
0
0
0
0
0
0
0
0
0
0
0
0
0
0
0
0
0
0
0
0
0
0
0
0
0
0
0
0
0
0
0
0
0
0
0
0
0
0
0
0
0
0
0
0
0
0
0
0
0
0
0
0
0
0
0
0
0
0
0
0
0
0
0
0
0
0
0
0
0
0
0
0
0
0
0
0
0
0
0
0
0
0
0
0
0
0.000160922
0.000159057
0.00015114
9.47125e-05
1.20446e-05
1.45438e-06
1.07286e-06
2.10585e-07
6.04509e-08
1.78617e-09
9.13683e-13
2.23082e-16
3.32652e-20
4.05207e-24
1.26475e-25
1.6283e-25
3.15835e-27
3.07397e-29
1.35065e-31
3.2432e-34
7.35709e-37
1.55429e-39
3.81481e-42
8.59961e-45
2.54736e-47
6.74791e-50
2.20332e-52
7.21351e-55
2.08344e-57
7.17459e-60
2.57722e-62
7.74269e-65
2.12283e-67
6.83674e-70
1.65153e-72
6.99481e-75
2.56956e-77
1.01282e-79
3.67679e-82
1.23316e-84
3.87008e-87
1.06496e-89
2.10745e-92
5.43816e-95
3.26753e-100
6.53868e-102
1.52037e-104
3.71056e-107
1.05633e-109
2.8468e-112
8.83051e-115
2.83894e-117
9.29508e-120
2.93351e-122
9.92429e-125
3.11989e-127
1.10775e-129
3.57132e-132
1.33964e-134
4.64015e-137
1.83871e-139
6.92252e-142
2.92448e-144
1.16953e-146
5.24367e-149
2.17022e-151
1.00621e-153
4.30796e-156
2.00223e-158
8.90509e-161
4.17223e-163
1.95619e-165
9.57631e-168
4.09623e-170
2.9367e-178
1.51513e-180
3.58292e-183
7.26702e-186
1.24781e-188
1.74063e-191
1.92605e-194
1.74505e-197
1.38479e-200
9.99743e-204
6.66538e-207
4.1557e-210
2.44025e-213
1.35955e-216
7.22563e-220
3.69109e-223
1.82024e-226
8.71814e-230
4.06605e-233
1.85469e-236
8.27852e-240
3.62375e-243
1.55501e-246
6.55426e-250
2.70836e-253
1.10039e-256
4.39166e-260
1.72003e-263
6.47747e-267
1.08085e-270
4.8356e-287
2.36288e-288
3.06734e-291
2.47661e-294
1.58511e-297
8.76244e-301
4.37398e-304
2.0226e-307
8.78787e-311
3.63519e-314
1.44037e-317
5.50883e-321
0
0
0
0
0
0
0
0
0
0
0
0
0
0
0
0
0
0
0
0
0
0
0
0
0
0
0
0
0
0
0
0
0
0
0
0
0
0
0
0
0
0
0
0
0
0
0
0
0
0
0
0
0
0
0
0
0
0
0
0
0
0
0
0
0
0
0
0
0
0
0
0
0
0
0
0
0
0
0
0
0
0
0
0
0
0
0
0
0
0
0
0
0
0
0
0
0
0
0
0
0
0
0
0
0
0
0
0
0
0
0
0
0
0
0
0
0
0
0
0
0
0
0
0
0
0
0
0
0
0
0
0
0
0
0
0
0
0
0
0
0
0
0
0
0
0
0
0
0
0
0
0
0
0
0
0
0
0
0
0
0
0
0
0
0
0
0
0
0
0
0
0
0
0
0
0
0
0
0
0
0
0
0
0
0
0
0
0
0
0
0
0
0
0
0
0
0
0
0
0
0
0
0
0
0
0
0
0
0
0
0
0
0
0
0
0
0
0
0
0
0
0
0
0
0
0
0
0
0
0
0
0
0
0
0
0
0
0
0
0
0
0
0
0
0
0
0
0
0
0
0
0
0
0
0
0
0
0
0.000156738
0.000150813
0.000146867
0.000126476
7.12668e-05
5.69634e-05
2.35897e-05
8.36472e-06
6.32603e-06
8.62918e-07
2.6984e-08
1.6717e-11
6.06248e-15
3.69635e-19
2.57195e-21
2.6757e-22
2.00524e-24
2.32514e-26
3.21073e-28
2.97412e-30
1.29331e-32
3.92276e-35
1.16408e-37
3.74672e-40
1.22377e-42
4.16559e-45
1.43121e-47
5.52329e-50
1.92065e-52
6.97223e-55
2.60019e-57
9.04599e-60
2.99943e-62
9.31236e-65
2.98227e-67
1.167e-69
4.47315e-72
1.88402e-74
6.83487e-77
2.32166e-79
7.64902e-82
1.83664e-84
4.58396e-87
1.03136e-89
5.35603e-95
9.33946e-97
2.20108e-99
6.38362e-102
1.81608e-104
5.96097e-107
1.85614e-109
6.3907e-112
2.07086e-114
6.98449e-117
2.28127e-119
7.66863e-122
2.55785e-124
8.81651e-127
3.01377e-129
1.11324e-131
3.94672e-134
1.58379e-136
5.96623e-139
2.5671e-141
1.0284e-143
4.61473e-146
1.94862e-148
8.83738e-151
3.8813e-153
1.75423e-155
7.90462e-158
3.59465e-160
1.67511e-162
8.18096e-165
5.60586e-172
4.8767e-175
5.43693e-178
7.73802e-181
1.14231e-183
1.60405e-186
1.97143e-189
1.92411e-192
1.53836e-195
1.08887e-198
7.06405e-202
4.26785e-205
2.42873e-208
1.31054e-211
6.74989e-215
3.33765e-218
1.59362e-221
7.38367e-225
3.33557e-228
1.4732e-231
6.38295e-235
2.71287e-238
1.13402e-241
4.65795e-245
1.88193e-248
7.47709e-252
2.92233e-255
1.12277e-258
4.17369e-262
8.227e-266
2.13034e-280
1.3405e-282
1.29711e-285
8.61819e-289
4.73343e-292
2.30992e-295
1.03664e-298
4.36672e-302
1.74872e-305
6.7139e-309
2.48839e-312
8.93998e-316
3.12828e-319
1.08694e-322
0
0
0
0
0
0
0
0
0
0
0
0
0
0
0
0
0
0
0
0
0
0
0
0
0
0
0
0
0
0
0
0
0
0
0
0
0
0
0
0
0
0
0
0
0
0
0
0
0
0
0
0
0
0
0
0
0
0
0
0
0
0
0
0
0
0
0
0
0
0
0
0
0
0
0
0
0
0
0
0
0
0
0
0
0
0
0
0
0
0
0
0
0
0
0
0
0
0
0
0
0
0
0
0
0
0
0
0
0
0
0
0
0
0
0
0
0
0
0
0
0
0
0
0
0
0
0
0
0
0
0
0
0
0
0
0
0
0
0
0
0
0
0
0
0
0
0
0
0
0
0
0
0
0
0
0
0
0
0
0
0
0
0
0
0
0
0
0
0
0
0
0
0
0
0
0
0
0
0
0
0
0
0
0
0
0
0
0
0
0
0
0
0
0
0
0
0
0
0
0
0
0
0
0
0
0
0
0
0
0
0
0
0
0
0
0
0
0
0
0
0
0
0
0
0
0
0
0
0
0
0
0
0
0
0
0
0
0
0
0
0
0
0
0
0
0
0
0
0
0
0
0
0
0
0
0
0.000151779
0.00014761
0.000151595
0.000153434
0.00011611
0.00010083
7.02883e-05
5.06549e-05
4.06669e-05
3.78714e-05
3.74102e-06
6.93041e-08
4.72359e-11
5.64976e-15
2.22248e-18
1.13461e-19
4.27189e-22
2.19704e-24
2.15421e-26
3.08999e-28
3.99571e-30
3.5743e-32
2.49198e-34
1.30276e-36
5.94613e-39
2.46562e-41
9.65625e-44
3.92721e-46
1.47158e-48
5.99177e-51
2.11575e-53
8.05358e-56
2.76693e-58
8.67223e-61
3.12717e-63
1.26284e-65
4.66052e-68
2.02508e-70
6.798e-73
2.69097e-75
8.37699e-78
2.43581e-80
6.00154e-83
1.44028e-85
7.34469e-91
9.42342e-93
2.69931e-95
8.27133e-98
2.45507e-100
8.22976e-103
2.70872e-105
8.8924e-108
2.94302e-110
9.3837e-113
3.11952e-115
9.99702e-118
3.42904e-120
1.16456e-122
3.92049e-125
1.40542e-127
4.90529e-130
1.88371e-132
6.99529e-135
2.87857e-137
1.1523e-139
4.96474e-142
2.12237e-144
9.37915e-147
4.16085e-149
1.84937e-151
8.32746e-154
3.69847e-156
1.67702e-158
7.69135e-161
6.27496e-168
3.49728e-170
1.37476e-173
1.04568e-176
1.09087e-179
1.31396e-182
1.59674e-185
1.68902e-188
1.44753e-191
1.03762e-194
6.62098e-198
3.89414e-201
2.14772e-204
1.12287e-207
5.60062e-211
2.68174e-214
1.23898e-217
5.55357e-221
2.42542e-224
1.03664e-227
4.34653e-231
1.79227e-234
7.27611e-238
2.91001e-241
1.14613e-244
4.44706e-248
1.69912e-251
6.38484e-255
2.32498e-258
4.78358e-262
8.86472e-275
8.31497e-278
5.49166e-281
2.8847e-284
1.33214e-287
5.65446e-291
2.25908e-294
8.60802e-298
3.15684e-301
1.12087e-304
3.87018e-308
1.30395e-311
4.29845e-315
1.39015e-318
4.39718e-322
0
0
0
0
0
0
0
0
0
0
0
0
0
0
0
0
0
0
0
0
0
0
0
0
0
0
0
0
0
0
0
0
0
0
0
0
0
0
0
0
0
0
0
0
0
0
0
0
0
0
0
0
0
0
0
0
0
0
0
0
0
0
0
0
0
0
0
0
0
0
0
0
0
0
0
0
0
0
0
0
0
0
0
0
0
0
0
0
0
0
0
0
0
0
0
0
0
0
0
0
0
0
0
0
0
0
0
0
0
0
0
0
0
0
0
0
0
0
0
0
0
0
0
0
0
0
0
0
0
0
0
0
0
0
0
0
0
0
0
0
0
0
0
0
0
0
0
0
0
0
0
0
0
0
0
0
0
0
0
0
0
0
0
0
0
0
0
0
0
0
0
0
0
0
0
0
0
0
0
0
0
0
0
0
0
0
0
0
0
0
0
0
0
0
0
0
0
0
0
0
0
0
0
0
0
0
0
0
0
0
0
0
0
0
0
0
0
0
0
0
0
0
0
0
0
0
0
0
0
0
0
0
0
0
0
0
0
0
0
0
0
0
0
0
0
0
0
0
0
0
0
0
0
0
0
0.000154556
0.000165269
0.000196209
0.000166355
0.00014347
0.000145897
0.000138423
0.000118802
0.000103499
0.000113241
0.000107623
2.59677e-05
1.65614e-06
1.94066e-09
5.09342e-12
1.49649e-14
1.95731e-16
7.39017e-18
1.02102e-19
3.18845e-22
1.14493e-24
8.54031e-27
8.58622e-29
6.36564e-31
3.63288e-33
1.94101e-35
1.05558e-37
6.00487e-40
3.64313e-42
2.22282e-44
1.3698e-46
8.29568e-49
4.79527e-51
2.83569e-53
1.60073e-55
8.87532e-58
4.83084e-60
2.45695e-62
1.21384e-64
5.4867e-67
2.41983e-69
1.00123e-71
3.79925e-74
1.34463e-76
4.41912e-79
1.16263e-81
7.75292e-84
4.55666e-86
7.85745e-88
5.29215e-90
2.88735e-92
1.288e-94
5.33486e-97
2.0802e-99
7.9215e-102
2.87958e-104
1.04457e-106
3.62735e-109
1.27407e-111
4.31923e-114
1.49478e-116
5.06962e-119
1.75502e-121
6.11959e-124
2.16977e-126
7.98404e-129
2.96977e-131
1.17577e-133
4.65838e-136
1.97222e-138
8.35016e-141
3.66637e-143
1.63063e-145
7.25443e-148
3.26911e-150
1.45339e-152
6.49132e-155
2.8954e-157
1.31585e-159
6.12271e-162
2.98838e-164
1.36963e-166
6.08244e-169
2.05416e-172
7.52526e-176
5.63635e-179
5.52795e-182
5.81617e-185
5.53686e-188
4.32321e-191
2.79364e-194
1.60497e-197
8.56261e-201
4.32184e-204
2.08292e-207
9.64249e-211
4.30853e-214
1.86703e-217
7.88203e-221
3.25567e-224
1.32034e-227
5.2718e-231
2.07573e-234
8.06717e-238
3.09503e-241
1.17216e-244
4.38042e-248
1.60759e-251
5.66259e-255
1.95171e-258
3.84672e-262
2.33586e-266
6.66867e-270
2.84042e-273
1.15606e-276
4.59326e-280
1.74937e-283
6.3828e-287
2.25066e-290
7.71415e-294
2.5799e-297
8.44311e-301
2.70964e-304
8.54298e-308
2.64994e-311
8.09835e-315
2.44124e-318
7.26276e-322
0
0
0
0
0
0
0
0
0
0
0
0
0
0
0
0
0
0
0
0
0
0
0
0
0
0
0
0
0
0
0
0
0
0
0
0
0
0
0
0
0
0
0
0
0
0
0
0
0
0
0
0
0
0
0
0
0
0
0
0
0
0
0
0
0
0
0
0
0
0
0
0
0
0
0
0
0
0
0
0
0
0
0
0
0
0
0
0
0
0
0
0
0
0
0
0
0
0
0
0
0
0
0
0
0
0
0
0
0
0
0
0
0
0
0
0
0
0
0
0
0
0
0
0
0
0
0
0
0
0
0
0
0
0
0
0
0
0
0
0
0
0
0
0
0
0
0
0
0
0
0
0
0
0
0
0
0
0
0
0
0
0
0
0
0
0
0
0
0
0
0
0
0
0
0
0
0
0
0
0
0
0
0
0
0
0
0
0
0
0
0
0
0
0
0
0
0
0
0
0
0
0
0
0
0
0
0
0
0
0
0
0
0
0
0
0
0
0
0
0
0
0
0
0
0
0
0
0
0
0
0
0
0
0
0
0
0
0
0
0
0
0
0
0
0
0
0
0
0
0
0
0
0
0
0
0
0
0
0
0
0
0
0
0
0
0
0
0
0
0
0
0
0.000212048
0.000212644
0.000152498
0.000102589
9.96802e-05
0.000129284
0.000152829
0.000162357
0.000132693
0.000126901
0.000131036
0.000128728
6.60081e-05
9.4631e-06
5.11129e-07
5.6513e-10
2.14169e-12
1.27551e-14
4.14963e-17
8.37699e-20
1.58566e-22
3.86224e-25
1.14484e-27
3.70688e-30
1.22417e-32
4.35953e-35
1.85407e-37
9.10837e-40
5.40018e-42
3.50457e-44
2.40731e-46
1.67282e-48
1.16269e-50
7.94232e-53
5.28492e-55
3.42403e-57
2.15507e-59
1.32339e-61
7.82439e-64
4.54832e-66
2.54319e-68
1.40601e-70
7.46734e-73
3.92417e-75
2.00749e-77
9.86051e-80
4.92899e-82
2.38846e-84
1.07198e-86
4.78183e-89
2.20461e-91
9.86245e-94
4.28622e-96
1.82356e-98
7.62392e-101
3.13707e-103
1.2699e-105
5.08704e-108
2.0167e-110
7.93326e-113
3.11448e-115
1.21788e-117
4.79949e-120
1.90032e-122
7.65777e-125
3.13275e-127
1.3129e-129
5.61983e-132
2.46268e-134
1.10031e-136
5.0045e-139
2.30263e-141
1.07185e-143
5.01217e-146
2.35822e-148
1.11125e-150
5.25274e-153
2.48915e-155
1.17908e-157
5.63463e-160
2.70774e-162
1.30109e-164
6.26031e-167
2.939e-169
5.48057e-173
2.36035e-176
1.68125e-179
1.45179e-182
1.2461e-185
9.20518e-189
5.62086e-192
3.02927e-195
1.52198e-198
7.28722e-202
3.35514e-205
1.49144e-208
6.4191e-212
2.68327e-215
1.0933e-218
4.35898e-222
1.70698e-225
6.58624e-229
2.50968e-232
9.4571e-236
3.52612e-239
1.30076e-242
4.7452e-246
1.71097e-249
6.0945e-253
2.14372e-256
7.29251e-260
2.42125e-263
8.10417e-267
2.70891e-270
8.94238e-274
2.91453e-277
9.37883e-281
2.98004e-284
9.35039e-288
2.89743e-291
8.86817e-295
2.68145e-298
8.01217e-302
2.36656e-305
6.91274e-309
1.99782e-312
5.71578e-316
1.61979e-319
4.44659e-323
0
0
0
0
0
0
0
0
0
0
0
0
0
0
0
0
0
0
0
0
0
0
0
0
0
0
0
0
0
0
0
0
0
0
0
0
0
0
0
0
0
0
0
0
0
0
0
0
0
0
0
0
0
0
0
0
0
0
0
0
0
0
0
0
0
0
0
0
0
0
0
0
0
0
0
0
0
0
0
0
0
0
0
0
0
0
0
0
0
0
0
0
0
0
0
0
0
0
0
0
0
0
0
0
0
0
0
0
0
0
0
0
0
0
0
0
0
0
0
0
0
0
0
0
0
0
0
0
0
0
0
0
0
0
0
0
0
0
0
0
0
0
0
0
0
0
0
0
0
0
0
0
0
0
0
0
0
0
0
0
0
0
0
0
0
0
0
0
0
0
0
0
0
0
0
0
0
0
0
0
0
0
0
0
0
0
0
0
0
0
0
0
0
0
0
0
0
0
0
0
0
0
0
0
0
0
0
0
0
0
0
0
0
0
0
0
0
0
0
0
0
0
0
0
0
0
0
0
0
0
0
0
0
0
0
0
0
0
0
0
0
0
0
0
0
0
0
0
0
0
0
0
0
0
0
0
0
0
0
0
0
0
0
0
0
0
0
0
0
0
0
0.000152227
0.000105409
6.46264e-05
4.77922e-05
6.02467e-05
8.16465e-05
0.00012511
0.000145286
0.000143718
0.000126494
0.000124883
0.000125318
0.000116126
3.72593e-05
5.86118e-06
2.0187e-07
2.46826e-10
3.10395e-13
4.14146e-16
5.32299e-19
7.59208e-22
1.32221e-24
2.80109e-27
6.68907e-30
1.64778e-32
4.21342e-35
1.16182e-37
3.75118e-40
1.34497e-42
5.86308e-45
2.98616e-47
1.71922e-49
1.06199e-51
6.82565e-54
4.47445e-56
2.84183e-58
1.80156e-60
1.10813e-62
6.692e-65
3.94613e-67
2.28357e-69
1.33097e-71
7.71314e-74
4.53606e-76
2.6272e-78
1.58899e-80
7.41232e-83
3.31463e-85
1.3617e-87
5.77406e-90
2.47725e-92
1.07126e-94
4.58383e-97
1.93167e-99
8.0276e-102
3.26728e-104
1.31097e-106
5.16131e-109
2.02061e-111
7.79065e-114
3.01072e-116
1.15528e-118
4.48077e-121
1.74513e-123
6.94167e-126
2.80407e-128
1.1661e-130
4.9652e-133
2.17652e-135
9.76613e-138
4.48605e-140
2.09136e-142
9.91407e-145
4.72435e-147
2.27529e-149
1.09589e-151
5.30714e-154
2.56927e-156
1.24894e-158
6.06878e-161
2.95327e-163
1.44676e-165
7.11324e-168
2.91107e-170
2.56425e-174
6.04251e-178
4.491e-181
4.53065e-184
4.63194e-187
4.34544e-190
3.45442e-193
2.25044e-196
1.24859e-199
6.26441e-203
2.93119e-206
1.3036e-209
5.58448e-213
2.32677e-216
9.4951e-220
3.81238e-223
1.50999e-226
5.90587e-230
2.2812e-233
8.69844e-237
3.27279e-240
1.21472e-243
4.4471e-247
1.60603e-250
5.72265e-254
2.00465e-257
6.9473e-261
2.38596e-264
8.05975e-268
2.69141e-271
8.88969e-275
2.89565e-278
9.30586e-282
2.95223e-285
9.24844e-289
2.8617e-292
8.74992e-296
2.6447e-299
7.90591e-303
2.33858e-306
6.84897e-310
1.98715e-313
5.71549e-317
1.63091e-320
4.94066e-324
0
0
0
0
0
0
0
0
0
0
0
0
0
0
0
0
0
0
0
0
0
0
0
0
0
0
0
0
0
0
0
0
0
0
0
0
0
0
0
0
0
0
0
0
0
0
0
0
0
0
0
0
0
0
0
0
0
0
0
0
0
0
0
0
0
0
0
0
0
0
0
0
0
0
0
0
0
0
0
0
0
0
0
0
0
0
0
0
0
0
0
0
0
0
0
0
0
0
0
0
0
0
0
0
0
0
0
0
0
0
0
0
0
0
0
0
0
0
0
0
0
0
0
0
0
0
0
0
0
0
0
0
0
0
0
0
0
0
0
0
0
0
0
0
0
0
0
0
0
0
0
0
0
0
0
0
0
0
0
0
0
0
0
0
0
0
0
0
0
0
0
0
0
0
0
0
0
0
0
0
0
0
0
0
0
0
0
0
0
0
0
0
0
0
0
0
0
0
0
0
0
0
0
0
0
0
0
0
0
0
0
0
0
0
0
0
0
0
0
0
0
0
0
0
0
0
0
0
0
0
0
0
0
0
0
0
0
0
0
0
0
0
0
0
0
0
0
0
0
0
0
0
0
0
0
0
0
0
0
0
0
0
0
0
0
0
0
0
0
0
0
5.37142e-05
3.81052e-05
3.13067e-05
2.81305e-05
3.13308e-05
4.84106e-05
6.31343e-05
9.06872e-05
0.000102259
0.000110079
0.000107262
0.000107686
0.000101036
3.83082e-05
5.85975e-06
2.90277e-07
4.05146e-10
4.38172e-13
4.64434e-16
5.57726e-19
7.43845e-22
1.21178e-24
2.17839e-27
4.26807e-30
8.62815e-33
1.72019e-35
3.39746e-38
7.1752e-41
1.64583e-43
4.32938e-46
1.36687e-48
5.16802e-51
2.36024e-53
1.25088e-55
7.33533e-58
4.33851e-60
2.63998e-62
1.58241e-64
9.21837e-67
5.36733e-69
3.00901e-71
1.67322e-73
9.06561e-76
4.79665e-78
2.52071e-80
1.32483e-82
6.3929e-85
3.00935e-87
1.28842e-89
5.5202e-92
2.37242e-94
1.01491e-96
4.27777e-99
1.77784e-101
7.29477e-104
2.92266e-106
1.16328e-108
4.53292e-111
1.77093e-113
6.81004e-116
2.64504e-118
1.02046e-120
4.00715e-123
1.58427e-125
6.42637e-128
2.65723e-130
1.13289e-132
4.94375e-135
2.22383e-137
1.01751e-139
4.77231e-142
2.25561e-144
1.08525e-146
5.22447e-149
2.54444e-151
1.23682e-153
6.05197e-156
2.96077e-158
1.45526e-160
7.16499e-163
3.53993e-165
1.75916e-167
8.38002e-170
8.64955e-174
1.87777e-177
1.22835e-180
1.3221e-183
1.54252e-186
1.74753e-189
1.82467e-192
1.64249e-195
1.20004e-198
7.25089e-202
3.88973e-205
1.92795e-208
9.0288e-212
4.05279e-215
1.76118e-218
7.46147e-222
3.097e-225
1.26332e-228
5.074e-232
2.00844e-235
7.83829e-239
3.01657e-242
1.14496e-245
4.28647e-249
1.58314e-252
5.76989e-256
2.07552e-259
7.37485e-263
2.58577e-266
8.94827e-270
3.06061e-273
1.03433e-276
3.45405e-280
1.14005e-283
3.72041e-287
1.20088e-290
3.83582e-294
1.21311e-297
3.80098e-301
1.18067e-304
3.63852e-308
1.11326e-311
3.38446e-315
1.02319e-318
3.06321e-322
0
0
0
0
0
0
0
0
0
0
0
0
0
0
0
0
0
0
0
0
0
0
0
0
0
0
0
0
0
0
0
0
0
0
0
0
0
0
0
0
0
0
0
0
0
0
0
0
0
0
0
0
0
0
0
0
0
0
0
0
0
0
0
0
0
0
0
0
0
0
0
0
0
0
0
0
0
0
0
0
0
0
0
0
0
0
0
0
0
0
0
0
0
0
0
0
0
0
0
0
0
0
0
0
0
0
0
0
0
0
0
0
0
0
0
0
0
0
0
0
0
0
0
0
0
0
0
0
0
0
0
0
0
0
0
0
0
0
0
0
0
0
0
0
0
0
0
0
0
0
0
0
0
0
0
0
0
0
0
0
0
0
0
0
0
0
0
0
0
0
0
0
0
0
0
0
0
0
0
0
0
0
0
0
0
0
0
0
0
0
0
0
0
0
0
0
0
0
0
0
0
0
0
0
0
0
0
0
0
0
0
0
0
0
0
0
0
0
0
0
0
0
0
0
0
0
0
0
0
0
0
0
0
0
0
0
0
0
0
0
0
0
0
0
0
0
0
0
0
0
0
0
0
0
0
0
0
0
0
0
0
0
0
0
0
0
0
0
0
0
0
0
1.77511e-05
1.76361e-05
1.84613e-05
2.10473e-05
2.22305e-05
2.47338e-05
3.06946e-05
4.25024e-05
6.10123e-05
7.32927e-05
8.14975e-05
8.57594e-05
7.87985e-05
2.69399e-05
3.30911e-06
9.16834e-08
8.62851e-11
7.95341e-14
8.01454e-17
9.34936e-20
1.21468e-22
1.70128e-25
2.7053e-28
4.48451e-31
7.67988e-34
1.32256e-36
2.16518e-39
3.59039e-42
5.90233e-45
1.07204e-47
2.18475e-50
5.83673e-53
2.13712e-55
1.02498e-57
5.72429e-60
3.30125e-62
1.93593e-64
1.11519e-66
6.40485e-69
3.54839e-71
1.94093e-73
1.03563e-75
5.4658e-78
2.77005e-80
1.40872e-82
6.97671e-85
3.28171e-87
1.52654e-89
6.61221e-92
2.85709e-94
1.20305e-96
5.05112e-99
2.07751e-101
8.42395e-104
3.38071e-106
1.31936e-108
5.18661e-111
1.98347e-113
7.71105e-116
2.9427e-118
1.14508e-120
4.43989e-123
1.76169e-125
7.09082e-128
2.92824e-130
1.24355e-132
5.41374e-135
2.42561e-137
1.11144e-139
5.18511e-142
2.46582e-144
1.17971e-146
5.72845e-149
2.77819e-151
1.36101e-153
6.65094e-156
3.27081e-158
1.6072e-160
7.94363e-163
3.93531e-165
1.95541e-167
9.56082e-170
1.00246e-173
2.02323e-177
1.23515e-180
1.41307e-183
1.82833e-186
2.35309e-189
2.9176e-192
3.39594e-195
3.46396e-198
2.85933e-201
1.90309e-204
1.09062e-207
5.70214e-211
2.79703e-214
1.30875e-217
5.9068e-221
2.59119e-224
1.11075e-227
4.66911e-231
1.92919e-234
7.84548e-238
3.14295e-241
1.24088e-244
4.83017e-248
1.85432e-251
7.02323e-255
2.62548e-258
9.68523e-262
3.53287e-265
1.27229e-268
4.52582e-272
1.59398e-275
5.55065e-279
1.91317e-282
6.53009e-286
2.20841e-289
7.40468e-293
2.46311e-296
8.1344e-300
2.66905e-303
8.70745e-307
2.82642e-310
9.13463e-314
2.94107e-317
9.43665e-321
4.94066e-324
0
0
0
0
0
0
0
0
0
0
0
0
0
0
0
0
0
0
0
0
0
0
0
0
0
0
0
0
0
0
0
0
0
0
0
0
0
0
0
0
0
0
0
0
0
0
0
0
0
0
0
0
0
0
0
0
0
0
0
0
0
0
0
0
0
0
0
0
0
0
0
0
0
0
0
0
0
0
0
0
0
0
0
0
0
0
0
0
0
0
0
0
0
0
0
0
0
0
0
0
0
0
0
0
0
0
0
0
0
0
0
0
0
0
0
0
0
0
0
0
0
0
0
0
0
0
0
0
0
0
0
0
0
0
0
0
0
0
0
0
0
0
0
0
0
0
0
0
0
0
0
0
0
0
0
0
0
0
0
0
0
0
0
0
0
0
0
0
0
0
0
0
0
0
0
0
0
0
0
0
0
0
0
0
0
0
0
0
0
0
0
0
0
0
0
0
0
0
0
0
0
0
0
0
0
0
0
0
0
0
0
0
0
0
0
0
0
0
0
0
0
0
0
0
0
0
0
0
0
0
0
0
0
0
0
0
0
0
0
0
0
0
0
0
0
0
0
0
0
0
0
0
0
0
0
0
0
0
0
0
0
0
0
0
0
0
0
0
0
0
0
0
1.22553e-05
1.40923e-05
1.63268e-05
1.71217e-05
1.75094e-05
1.80843e-05
1.869e-05
1.03276e-05
8.94612e-06
1.08146e-05
1.48385e-05
1.86866e-05
1.31934e-05
3.8143e-06
5.03079e-07
1.05262e-09
1.43536e-12
1.65479e-15
1.86751e-18
2.011e-21
2.33994e-24
3.16499e-27
4.85916e-30
8.12819e-33
1.34515e-35
2.15049e-38
3.25577e-41
4.74194e-44
7.02091e-47
1.09852e-49
2.05091e-52
5.31243e-55
2.0249e-57
9.92226e-60
5.37764e-62
3.08126e-64
1.72579e-66
9.66959e-69
5.2813e-71
2.85137e-73
1.48158e-75
7.72519e-78
3.83732e-80
1.92114e-82
9.20965e-85
4.45611e-87
2.05828e-89
9.45125e-92
4.12556e-94
1.76385e-96
7.39728e-99
3.02477e-101
1.22964e-103
4.83506e-106
1.90671e-108
7.293e-111
2.82109e-113
1.07028e-115
4.11572e-118
1.57207e-120
6.11577e-123
2.39422e-125
9.62109e-128
3.93922e-130
1.6646e-132
7.20771e-135
3.21481e-137
1.46661e-139
6.83085e-142
3.23682e-144
1.55058e-146
7.50191e-149
3.65295e-151
1.78415e-153
8.7531e-156
4.29441e-158
2.11517e-160
1.0426e-162
5.16136e-165
2.56175e-167
1.25982e-169
1.17869e-173
2.01738e-177
1.10375e-180
1.3318e-183
1.87771e-186
2.67151e-189
3.71175e-192
4.97121e-195
6.2354e-198
6.99367e-201
6.47935e-204
4.76618e-207
2.91531e-210
1.6019e-213
8.19398e-217
3.98044e-220
1.85949e-223
8.42415e-227
3.72245e-230
1.61059e-233
6.84081e-237
2.85706e-240
1.17457e-243
4.75665e-247
1.89867e-250
7.47377e-254
2.90265e-257
1.11286e-260
4.21369e-264
1.57699e-267
5.83462e-271
2.13535e-274
7.73729e-278
2.77621e-281
9.87105e-285
3.48001e-288
1.21721e-291
4.22653e-295
1.4578e-298
4.99752e-302
1.70375e-305
5.77903e-309
1.95116e-312
6.55949e-316
2.19637e-319
7.41098e-323
0
0
0
0
0
0
0
0
0
0
0
0
0
0
0
0
0
0
0
0
0
0
0
0
0
0
0
0
0
0
0
0
0
0
0
0
0
0
0
0
0
0
0
0
0
0
0
0
0
0
0
0
0
0
0
0
0
0
0
0
0
0
0
0
0
0
0
0
0
0
0
0
0
0
0
0
0
0
0
0
0
0
0
0
0
0
0
0
0
0
0
0
0
0
0
0
0
0
0
0
0
0
0
0
0
0
0
0
0
0
0
0
0
0
0
0
0
0
0
0
0
0
0
0
0
0
0
0
0
0
0
0
0
0
0
0
0
0
0
0
0
0
0
0
0
0
0
0
0
0
0
0
0
0
0
0
0
0
0
0
0
0
0
0
0
0
0
0
0
0
0
0
0
0
0
0
0
0
0
0
0
0
0
0
0
0
0
0
0
0
0
0
0
0
0
0
0
0
0
0
0
0
0
0
0
0
0
0
0
0
0
0
0
0
0
0
0
0
0
0
0
0
0
0
0
0
0
0
0
0
0
0
0
0
0
0
0
0
0
0
0
0
0
0
0
0
0
0
0
0
0
0
0
0
0
0
0
0
0
0
0
0
0
0
0
0
0
0
0
0
0
0
0
1.51643e-05
1.65452e-05
9.02613e-06
4.13705e-06
3.05922e-06
2.15493e-06
1.5115e-06
7.72687e-07
5.80096e-07
6.81721e-07
8.75572e-07
9.66642e-07
6.59154e-07
1.86323e-07
3.2233e-09
2.66293e-12
2.9703e-15
3.79894e-18
4.71761e-21
6.31176e-24
9.28539e-27
1.53874e-29
2.78348e-32
4.95221e-35
8.31189e-38
1.325e-40
2.00843e-43
2.84818e-46
4.30816e-49
7.12704e-52
1.55231e-54
4.93371e-57
2.16173e-59
1.11249e-61
5.96119e-64
3.33459e-66
1.81815e-68
9.77005e-71
5.24047e-73
2.68978e-75
1.36693e-77
6.76706e-80
3.28132e-82
1.57083e-84
7.3192e-87
3.40751e-89
1.54464e-91
6.86656e-94
2.97517e-96
1.24927e-98