/*--------------------------------*- C++ -*----------------------------------*\
| =========                 |                                                 |
| \\      /  F ield         | OpenFOAM: The Open Source CFD Toolbox           |
|  \\    /   O peration     | Version:  2.1.1                                 |
|   \\  /    A nd           | Web:      www.OpenFOAM.org                      |
|    \\/     M anipulation  |                                                 |
\*---------------------------------------------------------------------------*/
FoamFile
{
    version     2.0;
    format      ascii;
    class       volScalarField;
    location    "0.004800000";
    object      N2;
}
// * * * * * * * * * * * * * * * * * * * * * * * * * * * * * * * * * * * * * //

dimensions      [0 0 0 0 0 0 0];

internalField   nonuniform List<scalar> 
12384
(
0.739284
0.740124
0.740896
0.741584
0.741917
0.742003
0.741789
0.741315
0.740466
0.739467
0.738755
0.739024
0.742497
0.747659
0.749926
0.749461
0.749317
0.749291
0.749261
0.749194
0.749042
0.748907
0.748779
0.748722
0.748721
0.748747
0.74879
0.748836
0.748884
0.748921
0.748941
0.748957
0.748958
0.748962
0.748969
0.749
0.749033
0.749097
0.749163
0.74928
0.750443
0.750157
0.748946
0.748693
0.744005
0.743546
0.743534
0.743639
0.743822
0.744101
0.744503
0.744893
0.744967
0.744582
0.743767
0.743033
0.742647
0.742479
0.742421
0.742436
0.742527
0.742674
0.742866
0.743062
0.743251
0.743347
0.743544
0.743543
0.743712
0.74389
0.744336
0.745033
0.746803
0.74838
0.743075
0.743071
0.743597
0.744047
0.74446
0.744809
0.745171
0.745395
0.745617
0.745683
0.745726
0.745671
0.745593
0.745478
0.745329
0.745292
0.745131
0.745158
0.7451
0.745096
0.745155
0.745169
0.745143
0.745174
0.745199
0.74515
0.744952
0.745044
0.745803
0.745752
0.742783
0.741537
0.741069
0.740968
0.741015
0.741175
0.741492
0.741771
0.742111
0.742421
0.74265
0.742929
0.74302
0.743244
0.743265
0.743393
0.743359
0.743415
0.743359
0.743384
0.743363
0.743347
0.743377
0.743452
0.743593
0.743945
0.745233
0.746415
0.746295
0.746115
0.743625
0.74231
0.74291
0.742301
0.741306
0.740701
0.740268
0.7399
0.739616
0.739431
0.739329
0.739279
0.739247
0.739263
0.739204
0.739266
0.739187
0.739302
0.7393
0.739268
0.73946
0.739517
0.739649
0.739569
0.739868
0.740001
0.740319
0.741959
0.744465
0.745077
0.744407
0.7421
0.740314
0.742312
0.743697
0.743901
0.744144
0.744836
0.745478
0.74603
0.746486
0.746656
0.747024
0.746876
0.747109
0.746799
0.746886
0.746508
0.746398
0.746306
0.746067
0.745899
0.745738
0.745582
0.745474
0.745419
0.745455
0.745619
0.745784
0.745791
0.7492
0.746615
0.741265
0.740384
0.740732
0.740902
0.741086
0.741363
0.741659
0.742012
0.742183
0.74233
0.742282
0.742497
0.742265
0.742635
0.742414
0.742609
0.742474
0.742487
0.74245
0.742339
0.742155
0.741956
0.741645
0.741353
0.740853
0.740352
0.740651
0.741464
0.750382
0.749239
0.742167
0.736129
0.735664
0.73622
0.736942
0.737508
0.737934
0.738207
0.738432
0.738647
0.738676
0.738819
0.738763
0.738839
0.73884
0.738806
0.738738
0.738604
0.738372
0.737938
0.737418
0.736611
0.735552
0.734072
0.732185
0.730667
0.730378
0.733513
0.747356
0.746354
0.745011
0.744421
0.743981
0.743168
0.741713
0.740636
0.739562
0.738983
0.738492
0.738318
0.738068
0.737949
0.737873
0.737865
0.737902
0.737952
0.737954
0.738007
0.738014
0.738015
0.73816
0.73829
0.738271
0.738318
0.738384
0.738334
0.738292
0.738338
0.742431
0.73817
0.735618
0.73463
0.734219
0.734104
0.734037
0.733936
0.733908
0.733869
0.733747
0.733847
0.733749
0.734053
0.73398
0.734281
0.734284
0.7345
0.734588
0.734756
0.734851
0.735117
0.735519
0.736072
0.73684
0.737985
0.737918
0.737876
0.73727
0.736635
0.748131
0.741995
0.733188
0.732367
0.734926
0.737012
0.738279
0.739354
0.740302
0.741079
0.741531
0.74181
0.741937
0.741987
0.741994
0.741946
0.741872
0.741636
0.741366
0.74088
0.74038
0.739915
0.73915
0.738711
0.738038
0.737583
0.737135
0.737324
0.747344
0.753108
0.753978
0.754178
0.754261
0.753162
0.749149
0.737235
0.725719
0.722564
0.721608
0.72156
0.721852
0.722212
0.72254
0.722906
0.723292
0.723874
0.724695
0.725812
0.727162
0.728633
0.730166
0.731509
0.733111
0.735118
0.7378
0.741483
0.746614
0.751187
0.753605
0.753532
0.744248
0.745639
0.746359
0.746773
0.746913
0.746795
0.746686
0.746165
0.744996
0.742843
0.740443
0.73921
0.741163
0.746777
0.749946
0.749332
0.749124
0.749036
0.748723
0.7483
0.74801
0.747938
0.748017
0.748192
0.748416
0.748657
0.748868
0.748994
0.749056
0.749048
0.748997
0.748928
0.748883
0.748856
0.74886
0.748877
0.748915
0.748972
0.749078
0.749157
0.749741
0.750586
0.750897
0.750118
0.744087
0.743608
0.743892
0.744176
0.744466
0.744995
0.745289
0.744779
0.743166
0.741719
0.741226
0.741341
0.74162
0.741907
0.742208
0.742611
0.743136
0.743717
0.744261
0.744702
0.745029
0.745161
0.745137
0.744907
0.744565
0.744215
0.744259
0.744648
0.745555
0.746941
0.743055
0.743293
0.744131
0.744866
0.745491
0.745893
0.746143
0.74622
0.74616
0.746041
0.745752
0.745437
0.745121
0.744819
0.744608
0.744455
0.744384
0.744342
0.744367
0.744359
0.744349
0.744414
0.744492
0.744648
0.744836
0.745003
0.744974
0.744968
0.745371
0.745521
0.74289
0.741233
0.740495
0.740366
0.740776
0.741194
0.741675
0.74203
0.742487
0.742798
0.743235
0.74351
0.743794
0.743992
0.744174
0.744285
0.7444
0.744449
0.744442
0.74444
0.744405
0.744305
0.744178
0.744032
0.743966
0.74406
0.7446
0.745422
0.745984
0.745897
0.743457
0.742358
0.742293
0.741114
0.740146
0.739504
0.738992
0.73863
0.738555
0.738625
0.738742
0.738831
0.738821
0.738771
0.738676
0.738585
0.738535
0.738529
0.738547
0.738589
0.738645
0.738731
0.738931
0.739128
0.739448
0.739779
0.74003
0.740849
0.742516
0.743805
0.74346
0.741233
0.741499
0.742884
0.743433
0.744284
0.745614
0.746594
0.747214
0.747691
0.748069
0.748423
0.748569
0.748703
0.748534
0.748236
0.747753
0.747286
0.746733
0.746326
0.745944
0.745606
0.745301
0.745087
0.744973
0.744927
0.745059
0.745357
0.74571
0.745802
0.745971
0.742543
0.740195
0.740209
0.740281
0.740727
0.741489
0.742236
0.742623
0.742594
0.741991
0.741288
0.740682
0.740523
0.740471
0.740875
0.741201
0.74161
0.742017
0.742242
0.742412
0.742577
0.742592
0.742451
0.742135
0.741719
0.74121
0.740614
0.740544
0.741235
0.743779
0.739988
0.73664
0.73703
0.737743
0.738464
0.739166
0.73981
0.74037
0.740827
0.741198
0.741415
0.741556
0.741623
0.741524
0.741403
0.74109
0.740805
0.740363
0.739965
0.739514
0.738998
0.738437
0.737636
0.736649
0.735371
0.733713
0.731941
0.730662
0.732238
0.745798
0.745193
0.744879
0.743823
0.741412
0.739207
0.737932
0.737563
0.737761
0.738
0.738467
0.73882
0.739329
0.73962
0.739928
0.740012
0.740124
0.740105
0.740068
0.739988
0.739821
0.739526
0.739196
0.738946
0.738651
0.738382
0.738328
0.738451
0.738611
0.738697
0.740796
0.737209
0.735907
0.735199
0.73454
0.733955
0.733557
0.733477
0.733593
0.733936
0.734372
0.734923
0.735463
0.735964
0.736331
0.736665
0.736894
0.737109
0.737068
0.73711
0.736916
0.736713
0.736565
0.736553
0.736907
0.737513
0.737992
0.737658
0.736407
0.735767
0.741116
0.735912
0.733006
0.73502
0.738123
0.740808
0.743057
0.744386
0.744649
0.744515
0.744105
0.743805
0.743602
0.743443
0.743266
0.743004
0.742591
0.742052
0.741195
0.740362
0.739455
0.738781
0.738222
0.737759
0.737286
0.737075
0.736907
0.73706
0.741933
0.749657
0.754256
0.753908
0.750256
0.741677
0.732801
0.726511
0.722432
0.721236
0.720885
0.720915
0.721141
0.721422
0.721666
0.721864
0.722037
0.722189
0.722504
0.723179
0.724501
0.726789
0.729668
0.73226
0.733101
0.731966
0.731015
0.732051
0.737075
0.745263
0.752134
0.753569
0.746809
0.747449
0.747662
0.747429
0.746984
0.746755
0.746847
0.747063
0.746963
0.745809
0.743015
0.740124
0.740524
0.745762
0.749848
0.748994
0.748513
0.747908
0.747397
0.747255
0.747231
0.747236
0.747444
0.74785
0.748307
0.748705
0.748947
0.748995
0.748896
0.748726
0.748556
0.748389
0.748277
0.748214
0.748294
0.748465
0.748656
0.748818
0.748966
0.749075
0.749342
0.750065
0.750781
0.750447
0.744111
0.74396
0.744876
0.745425
0.745647
0.745493
0.744329
0.742304
0.740767
0.740653
0.74164
0.742551
0.74292
0.743117
0.743454
0.744069
0.74487
0.74564
0.746229
0.746574
0.74679
0.746888
0.746819
0.746602
0.746042
0.74519
0.744522
0.744522
0.744931
0.746011
0.743067
0.743606
0.744614
0.74532
0.745709
0.745842
0.745839
0.745755
0.745557
0.745286
0.744959
0.744638
0.744361
0.744164
0.744118
0.744199
0.744332
0.744564
0.744671
0.744819
0.744774
0.74468
0.744441
0.744308
0.744393
0.744684
0.744885
0.744919
0.7451
0.74532
0.743019
0.741099
0.740332
0.740329
0.740752
0.741036
0.741431
0.741628
0.742067
0.742421
0.742843
0.743213
0.743516
0.743869
0.744038
0.744218
0.744272
0.744328
0.744333
0.744348
0.744373
0.744434
0.744485
0.744532
0.744462
0.744378
0.7445
0.744812
0.745435
0.745765
0.743364
0.742196
0.741434
0.740122
0.739338
0.738763
0.738357
0.73829
0.738541
0.738808
0.738965
0.738997
0.738866
0.738657
0.738446
0.738337
0.738286
0.738351
0.738413
0.73851
0.738541
0.738657
0.738484
0.738803
0.739113
0.739473
0.739734
0.740274
0.741388
0.742952
0.742815
0.741385
0.742206
0.742928
0.743653
0.744671
0.745006
0.745144
0.745544
0.746154
0.747232
0.748136
0.748673
0.748921
0.748802
0.748279
0.747707
0.746763
0.74642
0.745896
0.745767
0.745666
0.745587
0.745464
0.745245
0.744938
0.744816
0.745056
0.745577
0.74581
0.743531
0.740501
0.73928
0.739212
0.739939
0.741378
0.74232
0.742451
0.741397
0.739199
0.736739
0.735335
0.734597
0.734313
0.734632
0.735221
0.736471
0.737828
0.739282
0.740451
0.741361
0.741984
0.742402
0.742637
0.742551
0.742165
0.741662
0.741027
0.740619
0.741165
0.73981
0.737159
0.737065
0.737926
0.738949
0.739978
0.74091
0.74161
0.742265
0.742734
0.743162
0.743401
0.743537
0.743505
0.743379
0.743178
0.742811
0.742495
0.74192
0.741441
0.740785
0.740206
0.739532
0.738764
0.737784
0.736565
0.734975
0.733122
0.73131
0.731925
0.74557
0.745314
0.743651
0.739695
0.737542
0.737537
0.738322
0.739527
0.740553
0.74156
0.742127
0.742776
0.743017
0.743323
0.743407
0.743492
0.74341
0.743298
0.743119
0.742815
0.742456
0.741965
0.741296
0.740527
0.739724
0.738956
0.738474
0.738425
0.73868
0.738906
0.740224
0.737821
0.737099
0.735414
0.733997
0.733471
0.733698
0.734447
0.735361
0.73625
0.737212
0.737885
0.738622
0.739118
0.739682
0.740079
0.740462
0.740683
0.740807
0.740716
0.740548
0.739986
0.739363
0.738582
0.73793
0.737799
0.738049
0.73817
0.737521
0.736177
0.736363
0.73375
0.735675
0.73981
0.743209
0.745133
0.745395
0.744282
0.742634
0.741444
0.740796
0.740604
0.740636
0.740631
0.740463
0.739886
0.738894
0.737361
0.735755
0.73451
0.733729
0.733467
0.733361
0.73368
0.734349
0.735268
0.736056
0.736646
0.739038
0.746654
0.754192
0.751071
0.740647
0.730466
0.725007
0.722163
0.72097
0.720686
0.720953
0.721627
0.722491
0.723243
0.723675
0.723796
0.723552
0.723068
0.72254
0.722246
0.722262
0.723595
0.726931
0.732938
0.738627
0.740151
0.738489
0.735479
0.735188
0.741302
0.750294
0.75354
0.747342
0.747728
0.747277
0.745837
0.744466
0.743904
0.744453
0.74566
0.746781
0.746838
0.745068
0.741528
0.740412
0.74492
0.749645
0.748347
0.747436
0.746946
0.746827
0.746555
0.74615
0.746292
0.746875
0.747539
0.748184
0.748647
0.748794
0.748643
0.748387
0.748171
0.748024
0.747919
0.747787
0.747641
0.747511
0.747637
0.748028
0.748485
0.748829
0.749018
0.749177
0.749684
0.750343
0.75031
0.744135
0.744587
0.745885
0.746247
0.74585
0.744434
0.742165
0.740533
0.740486
0.742058
0.743609
0.744239
0.744008
0.743816
0.744183
0.745032
0.74598
0.74661
0.74693
0.747048
0.74704
0.747118
0.747086
0.747166
0.746856
0.746098
0.745014
0.744555
0.744702
0.745506
0.743105
0.743843
0.744734
0.745022
0.744919
0.744614
0.744339
0.744163
0.743954
0.743764
0.743566
0.743423
0.743401
0.74356
0.743935
0.744363
0.744846
0.745279
0.745639
0.745871
0.745852
0.745651
0.745194
0.744597
0.744235
0.744347
0.74469
0.744859
0.744968
0.745195
0.743363
0.741261
0.740211
0.740296
0.740573
0.74081
0.741027
0.741291
0.741603
0.742192
0.742705
0.743277
0.743942
0.744381
0.744603
0.744679
0.74466
0.744572
0.744471
0.744347
0.744226
0.744207
0.744325
0.744505
0.744652
0.744709
0.744724
0.744789
0.745161
0.7456
0.743301
0.741878
0.740697
0.73949
0.738796
0.738219
0.73802
0.738227
0.73856
0.738804
0.738981
0.73897
0.738779
0.738526
0.738312
0.738276
0.738314
0.738579
0.738813
0.738915
0.738986
0.738918
0.738731
0.738701
0.738861
0.739169
0.739512
0.739994
0.740893
0.742385
0.742495
0.741613
0.742284
0.742453
0.742519
0.741989
0.741188
0.741279
0.74258
0.744535
0.746585
0.748215
0.749121
0.749537
0.74938
0.749094
0.748499
0.747939
0.747435
0.747177
0.747066
0.747073
0.747036
0.746819
0.746306
0.745558
0.744964
0.744927
0.745474
0.745824
0.741953
0.739106
0.73823
0.738838
0.740515
0.741736
0.741684
0.740016
0.736816
0.733969
0.732919
0.732568
0.732598
0.732734
0.732862
0.733234
0.73408
0.735466
0.737147
0.738806
0.740162
0.741157
0.741876
0.742448
0.742672
0.742486
0.742039
0.741389
0.740792
0.741205
0.738258
0.736838
0.737625
0.739008
0.740238
0.741299
0.742245
0.743106
0.743885
0.744569
0.745028
0.745369
0.745515
0.745537
0.745326
0.744988
0.744517
0.74395
0.743272
0.742677
0.741893
0.741246
0.740474
0.739729
0.738759
0.737517
0.735857
0.733868
0.732006
0.732064
0.745561
0.74448
0.739848
0.737203
0.738261
0.740164
0.741682
0.743062
0.743949
0.744643
0.745037
0.745289
0.745391
0.745321
0.745345
0.74528
0.745305
0.745243
0.745099
0.744885
0.744597
0.744141
0.743385
0.742466
0.741293
0.740047
0.739013
0.738526
0.738708
0.739021
0.740154
0.738781
0.736458
0.733938
0.733308
0.733926
0.73513
0.736256
0.737331
0.738176
0.73895
0.739601
0.740164
0.7407
0.741002
0.741402
0.741684
0.741942
0.742204
0.742412
0.742487
0.742419
0.741919
0.741137
0.739979
0.73901
0.738571
0.738549
0.738165
0.736807
0.7345
0.735304
0.739892
0.7439
0.745285
0.744605
0.742254
0.739781
0.738213
0.737707
0.737598
0.73773
0.738047
0.738309
0.738197
0.737403
0.735657
0.733335
0.732221
0.731852
0.732211
0.732459
0.73259
0.732801
0.733225
0.734078
0.735243
0.736283
0.737973
0.744703
0.753611
0.745764
0.731988
0.724562
0.721926
0.720935
0.720655
0.721096
0.722277
0.723768
0.72521
0.726319
0.727062
0.72725
0.726836
0.725909
0.724622
0.723273
0.722128
0.721589
0.721957
0.725578
0.733828
0.740804
0.741519
0.737828
0.736048
0.739901
0.749096
0.75349
0.747638
0.747578
0.74595
0.743213
0.741829
0.7419
0.742802
0.744402
0.74624
0.747089
0.746168
0.742842
0.74064
0.744339
0.749331
0.747596
0.746708
0.746461
0.746023
0.74524
0.745017
0.745647
0.74674
0.74757
0.748309
0.748705
0.748635
0.74831
0.748053
0.747924
0.747886
0.747899
0.747879
0.747706
0.747389
0.747203
0.747463
0.748051
0.748621
0.748954
0.749104
0.749469
0.749969
0.750124
0.744218
0.74518
0.746254
0.746199
0.744976
0.742631
0.740592
0.740067
0.741396
0.743745
0.745335
0.745409
0.74447
0.744104
0.744807
0.745933
0.746699
0.746937
0.746891
0.746779
0.746689
0.746683
0.746764
0.746933
0.746951
0.746464
0.745396
0.744645
0.744619
0.745252
0.743149
0.743941
0.744485
0.74408
0.743176
0.742344
0.741766
0.74144
0.741191
0.741129
0.741231
0.741449
0.741991
0.74289
0.743947
0.744705
0.745436
0.745928
0.746343
0.746523
0.74663
0.746492
0.746031
0.745209
0.744421
0.74418
0.744482
0.744795
0.744925
0.745103
0.743775
0.741718
0.740334
0.74034
0.740616
0.741072
0.741186
0.741313
0.741616
0.742194
0.742999
0.744034
0.744861
0.74509
0.745132
0.744998
0.744888
0.744792
0.744718
0.744599
0.744357
0.744053
0.743995
0.7442
0.744553
0.744888
0.745021
0.74501
0.745132
0.745459
0.743193
0.741569
0.740185
0.739092
0.738345
0.737782
0.737643
0.737911
0.738246
0.738604
0.738858
0.738918
0.73876
0.738549
0.738417
0.738505
0.738705
0.73893
0.739084
0.739103
0.73908
0.73906
0.738975
0.738817
0.738785
0.738998
0.739379
0.739871
0.740681
0.742055
0.742342
0.741723
0.741833
0.741082
0.739872
0.73824
0.737789
0.739044
0.74175
0.745163
0.747682
0.749167
0.749706
0.749623
0.749124
0.748509
0.748004
0.747713
0.747525
0.74758
0.747456
0.74734
0.747201
0.747173
0.746998
0.746386
0.745441
0.745039
0.74546
0.74587
0.74083
0.737884
0.737462
0.73892
0.740488
0.740912
0.739486
0.73647
0.733627
0.732562
0.733112
0.734372
0.73499
0.735192
0.734967
0.734971
0.735218
0.735932
0.737082
0.738345
0.73963
0.74052
0.741297
0.742089
0.742564
0.742607
0.742267
0.741613
0.740949
0.741337
0.737505
0.736897
0.738516
0.739949
0.741002
0.742503
0.743794
0.744833
0.745685
0.746173
0.746532
0.746734
0.746869
0.747018
0.746981
0.746725
0.746225
0.745526
0.744618
0.743746
0.74278
0.741995
0.741206
0.740465
0.739499
0.738204
0.736309
0.734229
0.732672
0.732455
0.74519
0.741602
0.737597
0.738871
0.741126
0.742955
0.744246
0.745389
0.745992
0.746275
0.746151
0.746069
0.745678
0.74554
0.745279
0.745255
0.745306
0.745501
0.745628
0.745695
0.745634
0.745436
0.744955
0.744178
0.742891
0.741336
0.739829
0.738811
0.738812
0.739137
0.740234
0.738104
0.733765
0.733055
0.733875
0.735193
0.736401
0.737431
0.738443
0.739413
0.740388
0.741336
0.742048
0.742682
0.743076
0.743215
0.7432
0.743148
0.743012
0.742936
0.74299
0.743123
0.743215
0.742826
0.741919
0.740619
0.739562
0.739066
0.738685
0.737152
0.734667
0.738187
0.743288
0.745199
0.744329
0.74141
0.738218
0.736849
0.7364
0.736299
0.736336
0.736486
0.736753
0.737058
0.737034
0.736089
0.733908
0.731726
0.73186
0.734086
0.737037
0.738322
0.73841
0.736402
0.734925
0.734475
0.735194
0.736276
0.737763
0.743645
0.752658
0.7404
0.726666
0.722216
0.721053
0.720715
0.721105
0.722498
0.724541
0.726779
0.728807
0.730472
0.731466
0.731611
0.730981
0.72961
0.727716
0.725655
0.723665
0.722096
0.721329
0.721446
0.726185
0.737022
0.742302
0.738918
0.737227
0.740078
0.748916
0.75364
0.747766
0.747109
0.744056
0.741204
0.741097
0.742191
0.743712
0.745156
0.746481
0.747232
0.746719
0.743909
0.741052
0.744016
0.748973
0.746989
0.746216
0.745805
0.744972
0.744276
0.744386
0.745197
0.746685
0.747635
0.748389
0.748661
0.748373
0.748047
0.747874
0.747731
0.747636
0.747725
0.747908
0.74789
0.747561
0.74712
0.747123
0.74773
0.748427
0.748877
0.749055
0.749336
0.749642
0.749935
0.744321
0.745337
0.746091
0.745557
0.743586
0.741179
0.739928
0.740173
0.74232
0.745413
0.746839
0.746263
0.744576
0.744376
0.745602
0.746675
0.746926
0.746747
0.746537
0.746409
0.746318
0.746275
0.746322
0.746523
0.746696
0.746439
0.745467
0.744688
0.744611
0.745126
0.743197
0.74392
0.743965
0.742744
0.741097
0.739806
0.739043
0.738752
0.738784
0.739094
0.739476
0.739922
0.740983
0.742667
0.74429
0.745122
0.745926
0.74632
0.746629
0.746784
0.74689
0.746877
0.746542
0.745719
0.744682
0.744124
0.744316
0.744715
0.744855
0.745049
0.744309
0.742204
0.740367
0.740457
0.741225
0.741862
0.741884
0.741418
0.741644
0.742366
0.743517
0.744833
0.745316
0.745294
0.745
0.744735
0.744576
0.744499
0.744485
0.744557
0.744516
0.744156
0.743806
0.743903
0.74434
0.744907
0.745267
0.745248
0.745199
0.745379
0.743147
0.741285
0.739837
0.738769
0.737904
0.737281
0.737108
0.737338
0.737807
0.738295
0.738667
0.738806
0.73875
0.738653
0.738683
0.738828
0.738969
0.739043
0.739121
0.739072
0.738991
0.738953
0.73897
0.738885
0.738809
0.738973
0.739351
0.739852
0.740569
0.74189
0.742265
0.741621
0.740858
0.739041
0.73706
0.735769
0.736293
0.738919
0.743152
0.747
0.748933
0.749505
0.748904
0.74715
0.745679
0.744614
0.744257
0.744115
0.744448
0.745002
0.74564
0.74607
0.746314
0.746569
0.746885
0.746829
0.745998
0.745337
0.745554
0.745831
0.739876
0.736886
0.736858
0.738777
0.740042
0.739664
0.737335
0.734486
0.733263
0.73456
0.736586
0.7373
0.736864
0.736222
0.736035
0.735989
0.736253
0.736462
0.737091
0.738031
0.739132
0.740032
0.74092
0.741815
0.742418
0.742562
0.742292
0.741682
0.741078
0.741575
0.737188
0.737515
0.739266
0.740428
0.742488
0.74422
0.745326
0.746157
0.746577
0.746684
0.74666
0.74675
0.74701
0.747465
0.747634
0.747711
0.747436
0.7468
0.745786
0.744643
0.743426
0.742475
0.741645
0.740922
0.739994
0.738501
0.736222
0.734488
0.733585
0.732917
0.743941
0.739093
0.738601
0.741496
0.743067
0.744742
0.745993
0.74672
0.746772
0.746352
0.745696
0.745045
0.744588
0.744303
0.744159
0.744179
0.744198
0.744314
0.744672
0.745077
0.745558
0.74578
0.745818
0.745261
0.744147
0.742483
0.740625
0.739161
0.738977
0.739282
0.739953
0.735583
0.732555
0.733632
0.734763
0.735995
0.737281
0.738528
0.740203
0.741657
0.743313
0.744506
0.745375
0.746054
0.746231
0.746535
0.746221
0.745749
0.745091
0.744369
0.743726
0.743484
0.743564
0.74362
0.743132
0.741987
0.740606
0.739686
0.739048
0.73729
0.735568
0.740862
0.744601
0.744608
0.741797
0.73816
0.736479
0.736172
0.736238
0.736263
0.736181
0.736069
0.736097
0.736291
0.736338
0.735407
0.733013
0.731415
0.73339
0.738924
0.743066
0.745089
0.744955
0.742172
0.738756
0.736383
0.736022
0.736717
0.737935
0.743357
0.751741
0.736319
0.724241
0.721522
0.720919
0.721039
0.722186
0.724363
0.727113
0.729982
0.732559
0.734517
0.735513
0.735622
0.734616
0.732966
0.730586
0.72796
0.725373
0.723151
0.721691
0.721084
0.721868
0.731135
0.742158
0.741014
0.739306
0.742256
0.74978
0.753901
0.747833
0.746529
0.742427
0.740671
0.741883
0.744098
0.745707
0.746664
0.747158
0.74738
0.746995
0.744747
0.741593
0.74375
0.748586
0.74651
0.745749
0.745186
0.744353
0.74388
0.743964
0.74475
0.746566
0.747644
0.748375
0.74852
0.748144
0.747925
0.747714
0.747325
0.747002
0.747086
0.747561
0.747826
0.747548
0.747024
0.746928
0.747518
0.748312
0.748813
0.749026
0.749243
0.74939
0.749823
0.744343
0.745138
0.745492
0.744403
0.74225
0.740335
0.739722
0.740422
0.743371
0.74698
0.748063
0.746783
0.744476
0.744786
0.746416
0.747001
0.746726
0.746411
0.746245
0.746063
0.745839
0.745691
0.745696
0.745961
0.746286
0.746108
0.745272
0.744657
0.744643
0.74508
0.743203
0.743803
0.743414
0.741491
0.739374
0.73801
0.737478
0.737491
0.737979
0.738719
0.7392
0.739443
0.740654
0.742876
0.74471
0.745493
0.746162
0.746392
0.746547
0.746623
0.74683
0.746805
0.746653
0.745918
0.744856
0.744096
0.74422
0.744603
0.744775
0.744964
0.744883
0.742617
0.740596
0.740976
0.74242
0.743136
0.74262
0.741778
0.741715
0.742731
0.744101
0.745103
0.745365
0.745016
0.744585
0.744294
0.744117
0.743898
0.744099
0.744169
0.744417
0.744299
0.743822
0.743627
0.744151
0.744936
0.745465
0.745471
0.745258
0.745303
0.743034
0.741058
0.739578
0.738462
0.73747
0.73671
0.736466
0.736705
0.737412
0.738078
0.738417
0.738622
0.738691
0.738757
0.738967
0.739132
0.739167
0.739127
0.739147
0.739143
0.739047
0.738959
0.738946
0.738907
0.73888
0.739056
0.739429
0.73991
0.740536
0.741845
0.742194
0.741199
0.73947
0.73702
0.735364
0.734913
0.736063
0.739558
0.74461
0.748045
0.748962
0.74788
0.745151
0.742643
0.741911
0.741754
0.741979
0.741745
0.741744
0.741666
0.742219
0.743234
0.744196
0.745016
0.746038
0.746877
0.746439
0.745654
0.745756
0.745935
0.738881
0.73597
0.736671
0.73868
0.739412
0.738588
0.736219
0.734493
0.735156
0.73759
0.738539
0.737441
0.73595
0.734991
0.734619
0.734612
0.734728
0.735142
0.735855
0.737087
0.738495
0.739664
0.740663
0.741697
0.742318
0.742399
0.742122
0.741618
0.741322
0.741892
0.737117
0.738118
0.739535
0.741856
0.744186
0.745252
0.746065
0.746543
0.746516
0.746169
0.745894
0.745945
0.746354
0.747043
0.747762
0.748058
0.747911
0.747362
0.746277
0.744919
0.743579
0.742548
0.741851
0.741221
0.740129
0.73801
0.735937
0.7354
0.734696
0.73327
0.742479
0.738632
0.74065
0.742672
0.744424
0.745959
0.746751
0.746909
0.746413
0.745485
0.744721
0.744155
0.743972
0.743948
0.744201
0.744253
0.74407
0.743789
0.743876
0.744276
0.744934
0.745472
0.745967
0.745813
0.74497
0.743294
0.741169
0.739381
0.739215
0.739456
0.738687
0.733686
0.732914
0.734024
0.735225
0.736777
0.738372
0.740324
0.742587
0.74437
0.745937
0.746718
0.747437
0.747756
0.74812
0.748228
0.748332
0.748067
0.747405
0.746299
0.745133
0.744193
0.743876
0.743956
0.743793
0.742852
0.741403
0.740195
0.739322
0.737127
0.736721
0.742763
0.744808
0.742983
0.739103
0.73676
0.736406
0.736915
0.737384
0.737398
0.737091
0.736594
0.736123
0.735942
0.735945
0.735115
0.73266
0.731444
0.735164
0.742266
0.746375
0.747508
0.747525
0.745622
0.741687
0.738411
0.737251
0.737433
0.738457
0.743701
0.750812
0.733819
0.723319
0.721423
0.721118
0.721701
0.723436
0.726148
0.7295
0.732773
0.735659
0.737687
0.738843
0.738711
0.737588
0.735436
0.732726
0.729641
0.726794
0.72417
0.722225
0.721133
0.720825
0.723903
0.739293
0.744134
0.742937
0.745736
0.751482
0.754267
0.747903
0.746055
0.741706
0.740939
0.743022
0.74521
0.74645
0.747083
0.747313
0.747322
0.746983
0.745317
0.742207
0.74356
0.748306
0.746656
0.745853
0.745227
0.744509
0.743932
0.743763
0.744466
0.746506
0.747649
0.748305
0.748323
0.748025
0.747864
0.747463
0.746757
0.746263
0.746314
0.746916
0.747379
0.747139
0.746689
0.746821
0.747571
0.74835
0.748802
0.749003
0.749102
0.749187
0.749788
0.744323
0.744713
0.744641
0.74337
0.741318
0.739974
0.739786
0.740872
0.744825
0.748329
0.74888
0.746921
0.74432
0.745339
0.746928
0.746891
0.746415
0.746194
0.745978
0.745558
0.745027
0.74474
0.744867
0.745366
0.74579
0.745631
0.744928
0.744637
0.744704
0.745071
0.74319
0.743665
0.743049
0.740691
0.738405
0.737277
0.736982
0.737223
0.738423
0.739624
0.739859
0.739572
0.74078
0.743298
0.745066
0.745656
0.746183
0.746255
0.746233
0.746278
0.746541
0.746667
0.74651
0.745853
0.744772
0.743989
0.744172
0.744602
0.744762
0.744942
0.745349
0.742698
0.74077
0.742229
0.743875
0.743978
0.743342
0.74199
0.741768
0.742801
0.744392
0.745245
0.745147
0.744619
0.74418
0.743952
0.743715
0.743591
0.743517
0.743862
0.744128
0.744089
0.743726
0.743641
0.744109
0.745034
0.745687
0.745503
0.745265
0.74521
0.742862
0.740824
0.739354
0.738228
0.737053
0.736202
0.735787
0.736124
0.737272
0.738238
0.738275
0.738357
0.738487
0.738715
0.739125
0.739381
0.739404
0.739282
0.739204
0.739222
0.739208
0.739091
0.739015
0.739001
0.739019
0.739249
0.739599
0.740008
0.740584
0.741849
0.742168
0.740839
0.738189
0.735699
0.734801
0.734884
0.736105
0.73966
0.744986
0.747781
0.747517
0.744446
0.741372
0.741031
0.741956
0.742864
0.743027
0.742697
0.742125
0.741432
0.740948
0.741147
0.741905
0.742954
0.744558
0.746431
0.746745
0.746057
0.74596
0.745977
0.738148
0.7353
0.736417
0.738258
0.738871
0.738142
0.736317
0.735513
0.737266
0.739059
0.738768
0.73631
0.734412
0.733728
0.73357
0.733562
0.733606
0.733962
0.734837
0.736543
0.738482
0.73965
0.740792
0.741745
0.742173
0.742086
0.741865
0.741644
0.741737
0.74227
0.737084
0.738284
0.740769
0.743534
0.744853
0.74561
0.746221
0.746418
0.74613
0.745568
0.74519
0.745145
0.745478
0.746102
0.746906
0.7473
0.747324
0.746765
0.745687
0.744388
0.743248
0.74254
0.741986
0.74114
0.739242
0.737318
0.73668
0.737496
0.735352
0.733468
0.741674
0.739082
0.741735
0.743411
0.745119
0.746281
0.74679
0.746525
0.74583
0.745051
0.744509
0.744307
0.744381
0.744709
0.745126
0.745328
0.745133
0.744512
0.744092
0.744072
0.74468
0.745146
0.745986
0.746196
0.745392
0.743631
0.741209
0.739444
0.739563
0.739602
0.737585
0.733119
0.733361
0.734185
0.735721
0.737522
0.739562
0.741861
0.744328
0.745713
0.746824
0.747231
0.74787
0.748067
0.748461
0.748729
0.748817
0.748933
0.748616
0.747692
0.746307
0.745081
0.744376
0.744266
0.74416
0.743306
0.741751
0.7405
0.73942
0.736771
0.73761
0.743531
0.744256
0.741052
0.737651
0.736575
0.737326
0.738469
0.738961
0.738823
0.738231
0.737509
0.736681
0.736029
0.735756
0.735094
0.732609
0.731464
0.735828
0.743078
0.746772
0.747943
0.747937
0.746242
0.742828
0.73975
0.73833
0.738109
0.739332
0.744641
0.750993
0.733327
0.723157
0.721569
0.721544
0.722436
0.724479
0.727497
0.73116
0.734594
0.737751
0.739736
0.740823
0.740716
0.739362
0.736743
0.733898
0.730453
0.727554
0.724892
0.722742
0.721333
0.720672
0.721067
0.733842
0.74533
0.746213
0.748847
0.751761
0.75337
0.747992
0.746028
0.741707
0.74123
0.743411
0.745033
0.745795
0.746208
0.746625
0.746749
0.74662
0.74555
0.742846
0.743496
0.745029
0.746906
0.747696
0.746922
0.746844
0.746404
0.745502
0.744353
0.743767
0.744409
0.746576
0.747646
0.74816
0.74815
0.747977
0.747809
0.747273
0.746426
0.745863
0.745736
0.746034
0.746395
0.746415
0.746412
0.746962
0.747785
0.748464
0.748826
0.748947
0.748951
0.749101
0.749572
0.749075
0.747351
0.74515
0.744292
0.743997
0.74263
0.740943
0.739994
0.74001
0.742128
0.746506
0.749373
0.749302
0.746735
0.744153
0.74596
0.747094
0.746694
0.746265
0.746024
0.745641
0.744964
0.744305
0.744064
0.744369
0.7449
0.745245
0.745092
0.74469
0.744692
0.744824
0.744909
0.743545
0.74245
0.74319
0.743552
0.742895
0.740516
0.738298
0.737275
0.737068
0.73788
0.739692
0.741047
0.740807
0.739848
0.74116
0.743815
0.745227
0.745705
0.746104
0.746039
0.74589
0.745948
0.746176
0.746331
0.746134
0.745453
0.744513
0.743921
0.744153
0.744565
0.74477
0.74495
0.743745
0.74408
0.744858
0.7419
0.741966
0.744052
0.74449
0.744504
0.743721
0.742212
0.741728
0.74292
0.744451
0.745087
0.744842
0.744272
0.743991
0.743813
0.743637
0.743435
0.743396
0.743528
0.743735
0.743728
0.743631
0.743715
0.744475
0.745302
0.745703
0.745547
0.745235
0.745196
0.744876
0.744128
0.742897
0.740765
0.739229
0.738041
0.736784
0.735854
0.73535
0.735637
0.737312
0.739027
0.738448
0.738069
0.738075
0.738366
0.739017
0.739506
0.739631
0.739546
0.739367
0.739273
0.739309
0.739283
0.739223
0.73919
0.73927
0.739494
0.739771
0.740124
0.740697
0.74198
0.742163
0.742248
0.74188
0.739978
0.736965
0.735087
0.73481
0.735184
0.735975
0.738763
0.743871
0.746746
0.745679
0.742158
0.740622
0.741596
0.743249
0.744004
0.743773
0.743248
0.742443
0.741834
0.741144
0.740494
0.740551
0.741233
0.743024
0.745918
0.746934
0.746321
0.746164
0.745904
0.744009
0.738817
0.736606
0.73472
0.736171
0.737728
0.73845
0.738153
0.737033
0.736608
0.738397
0.739988
0.738942
0.735986
0.734332
0.734088
0.734707
0.734971
0.734825
0.734862
0.735782
0.737388
0.738943
0.740079
0.741032
0.741643
0.74174
0.741631
0.741732
0.742023
0.742385
0.741674
0.738173
0.736753
0.737718
0.739767
0.742451
0.744223
0.745032
0.745619
0.746109
0.746282
0.746027
0.74548
0.74492
0.744639
0.744672
0.744958
0.74537
0.745727
0.745653
0.745205
0.74446
0.743621
0.742947
0.742293
0.741414
0.739959
0.7387
0.738519
0.73979
0.738527
0.735535
0.735683
0.741616
0.740949
0.740745
0.740476
0.742382
0.743581
0.744969
0.745964
0.746353
0.746166
0.745652
0.745133
0.744824
0.744654
0.744826
0.745046
0.745429
0.745676