/*--------------------------------*- C++ -*----------------------------------*\
| =========                 |                                                 |
| \\      /  F ield         | OpenFOAM: The Open Source CFD Toolbox           |
|  \\    /   O peration     | Version:  2.1.1                                 |
|   \\  /    A nd           | Web:      www.OpenFOAM.org                      |
|    \\/     M anipulation  |                                                 |
\*---------------------------------------------------------------------------*/
FoamFile
{
    version     2.0;
    format      ascii;
    class       volScalarField;
    location    "0.004800000";
    object      O2;
}
// * * * * * * * * * * * * * * * * * * * * * * * * * * * * * * * * * * * * * //

dimensions      [0 0 0 0 0 0 0];

internalField   nonuniform List<scalar> 
12384
(
0.00131873
0.00150115
0.00175726
0.00225906
0.0024464
0.00244407
0.00231253
0.00193983
0.00122641
0.00123151
0.00111132
0.00146937
0.00502327
0.0261562
0.0491075
0.0441901
0.0427244
0.0424989
0.0422073
0.0415075
0.0399223
0.0384999
0.0371411
0.0365593
0.0365328
0.0368018
0.0372431
0.0377204
0.0382274
0.0386304
0.0388319
0.0390077
0.039025
0.0390838
0.0391558
0.0394966
0.0398319
0.0405006
0.0411892
0.0423821
0.0545939
0.0516426
0.0388793
0.0361977
0.00187957
0.00107684
0.00112669
0.00121425
0.00155229
0.00198997
0.00264147
0.00375708
0.00413286
0.00276235
0.00164607
0.000601044
0.000292232
0.000265493
0.000262121
0.000257299
0.000272362
0.000107491
0.000349114
0.000713222
0.000924748
0.00106935
0.00143109
0.00145275
0.00176328
0.00223316
0.00299578
0.00565583
0.017921
0.0330545
0.000622275
0.000794926
0.00163173
0.00233588
0.00282832
0.0033676
0.00528354
0.00643213
0.00762693
0.0079484
0.00814324
0.0077807
0.00725286
0.0065735
0.00565914
0.00540147
0.00447132
0.00468772
0.0043409
0.00437274
0.00468539
0.00480206
0.00464148
0.00481653
0.00495002
0.00466088
0.00352898
0.00418728
0.00856901
0.00817793
0.000128648
0.000100604
5.12692e-05
4.96801e-05
8.17183e-05
7.99567e-05
0.000170156
0.000211515
0.000267496
0.00043918
0.000471433
0.000553191
0.000739952
0.00129668
0.0013439
0.00169298
0.001659
0.00179866
0.00156141
0.00164892
0.00154195
0.00149617
0.00149654
0.00158813
0.00182342
0.0024906
0.00684747
0.0152528
0.0144456
0.0131534
0.000999945
0.000261149
0.000399349
0.000327507
0.000148578
1.29621e-05
0.000107867
9.61155e-05
7.59292e-05
7.54004e-05
5.68437e-05
6.65621e-05
5.49203e-05
6.63253e-05
5.26671e-05
6.70548e-05
5.80181e-05
6.62488e-05
6.13131e-05
5.60785e-05
7.76192e-05
7.53827e-05
9.93109e-05
0.000115645
0.00013748
0.000147743
0.000149793
0.000380092
0.00345343
0.0057371
0.00269502
0.000269283
7.94318e-05
0.000286528
0.00142584
0.00160806
0.00188514
0.00282822
0.00631034
0.0103304
0.0142884
0.0157771
0.0193311
0.0178791
0.0201744
0.0171247
0.0179793
0.0145261
0.0135668
0.0127753
0.0106922
0.0092347
0.00790935
0.00700039
0.0063876
0.00606361
0.00626183
0.00719448
0.00814408
0.00816716
0.0414563
0.0161476
0.000220067
0.000129944
-1.99403e-05
5.78351e-05
0.000109139
0.000178239
0.00024687
0.000305024
0.000352746
0.000313602
0.000318657
0.0002922
0.00027368
0.000242544
0.000247327
0.000211926
0.000220085
0.000216571
0.000213208
0.000222261
0.000201982
0.000197534
0.000171078
0.000130689
5.93793e-05
8.78193e-05
6.38579e-05
0.000283177
0.054133
0.0420375
0.000256854
3.84528e-06
1.42542e-06
6.99123e-06
1.24856e-05
1.3807e-05
1.71063e-05
8.62449e-06
9.70031e-06
1.23991e-05
1.32304e-05
1.618e-05
1.78516e-05
1.87916e-05
1.6654e-05
2.1135e-05
2.15222e-05
1.50104e-05
7.07693e-06
1.55787e-05
1.21384e-05
8.4104e-06
6.17991e-06
3.34112e-06
1.91519e-06
7.13387e-07
5.90947e-07
1.28571e-06
0.0231265
0.0146145
0.00619569
0.00407084
0.00296608
0.0010835
0.000292657
3.16618e-05
4.96106e-05
2.72211e-05
6.72549e-06
7.33487e-06
1.54691e-05
1.31436e-05
1.37362e-05
1.31228e-05
1.37175e-05
1.36677e-05
1.48538e-05
1.65433e-05
1.84312e-05
1.90824e-05
-6.09597e-06
-4.30572e-07
-6.12084e-07
8.47398e-06
2.35889e-05
2.72681e-05
1.81624e-05
1.60809e-05
0.000205159
2.59747e-06
-2.79265e-06
5.83524e-06
3.62554e-06
2.66198e-06
2.6133e-06
2.34966e-06
1.95633e-06
2.61784e-06
1.91325e-06
2.00157e-06
1.50387e-06
2.12896e-06
1.4004e-06
1.94768e-06
1.84067e-06
2.16316e-06
2.52793e-06
3.49604e-06
3.86839e-06
4.79197e-06
6.52898e-06
5.83791e-06
1.12057e-05
2.54361e-05
2.2093e-05
2.03966e-05
1.58837e-05
8.31081e-06
0.0305291
0.00010687
1.7996e-07
1.63055e-06
4.23246e-06
7.44189e-06
-1.32675e-06
1.5134e-05
2.92528e-05
4.56955e-05
8.02478e-05
0.000103801
0.000113599
0.000116472
0.000117503
0.000111808
0.000106569
7.11727e-05
4.66204e-05
1.61938e-06
3.36647e-05
3.43076e-05
1.46769e-05
8.91963e-06
1.49925e-05
1.41647e-05
1.1867e-05
1.25699e-05
0.0225642
0.0836254
0.0932358
0.0953445
0.0961627
0.0842416
0.0412193
9.54351e-06
3.3265e-07
1.56958e-07
1.09477e-07
7.65719e-08
8.41743e-08
1.40752e-07
1.65981e-07
1.76661e-07
2.00656e-07
2.23733e-07
2.11826e-07
3.03199e-07
1.10556e-07
6.05808e-07
5.23384e-07
1.04421e-06
1.09977e-06
4.10828e-06
1.0257e-05
7.95102e-05
0.0154021
0.0631269
0.0891359
0.0883534
0.00636388
0.0114974
0.0160098
0.0187818
0.0199824
0.0189812
0.0181205
0.0145247
0.0082142
0.0029924
0.00126034
0.0013573
0.00317644
0.0192003
0.0493504
0.0429177
0.0407977
0.0398885
0.0365853
0.032236
0.0293177
0.0285975
0.0294125
0.0311638
0.0334081
0.0358018
0.038046
0.0393322
0.0399764
0.0398856
0.039357
0.0386472
0.0381846
0.0379205
0.0379608
0.0381648
0.0385609
0.0391806
0.0402835
0.0411095
0.0471877
0.056121
0.0594616
0.0512003
0.00200207
0.00122841
0.00152692
0.00203883
0.00245213
0.00420976
0.00590035
0.00301901
0.000828592
0.000191946
0.000135226
0.000134719
0.000165608
0.000188669
0.000223448
0.000262337
0.000753921
0.00149505
0.0021882
0.00276745
0.00430087
0.00519399
0.0051213
0.00390686
0.00304492
0.00267592
0.00279156
0.00376632
0.00871859
0.019271
0.000566128
0.00108743
0.00251555
0.00375201
0.00697598
0.00951241
0.011536
0.0121766
0.0116607
0.0106506
0.00816593
0.00639027
0.00461819
0.00288966
0.00240038
0.00210711
0.00201664
0.0020135
0.00203899
0.00207138
0.00208397
0.00214674
0.00224588
0.00242068
0.00288878
0.00382994
0.00365856
0.00361729
0.00606219
0.00691379
0.000120452
7.68635e-05
-4.03244e-07
4.69969e-05
4.59886e-05
0.000105604
0.00022225
0.000277649
0.000439258
0.000253838
0.00109054
0.0017887
0.00238184
0.0029767
0.00348206
0.00390142
0.00432274
0.00449096
0.00447028
0.00437162
0.00418876
0.00385071
0.00344904
0.00302621
0.00269268
0.00276518
0.00388503
0.00795462
0.0119695
0.011666
0.000838086
0.00030062
0.000340284
0.00013943
0.000102486
8.18181e-05
5.24839e-05
2.68838e-05
2.95705e-05
4.07399e-05
3.68882e-05
3.95582e-05
4.78836e-05
3.73669e-05
4.69228e-05
3.01111e-05
3.54467e-05
3.02497e-05
4.27147e-05
3.67924e-05
4.79155e-05
5.57869e-05
6.48365e-05
7.44879e-05
0.000104078
0.000133569
0.000136705
0.000133639
0.000528379
0.00224713
0.00115354
0.000107362
0.000170694
0.000133199
0.00091455
0.00189622
0.00706872
0.015221
0.0212058
0.0259181
0.0298751
0.0335767
0.0350949
0.0365092
0.0347366
0.0316137
0.0265368
0.0219292
0.0164716
0.0129496
0.00962924
0.00715696
0.00542198
0.00419529
0.00353355
0.00326838
0.00401242
0.00570375
0.0077059
0.0083755
0.0110057
0.000594678
0.000127898
0.00012089
0.000127266
4.417e-07
0.000225371
0.000386246
0.000530949
0.00044289
0.000316075
0.000127095
2.65485e-05
2.20504e-05
-1.97139e-05
7.59387e-05
0.00010468
0.000149159
0.00018876
0.000221278
0.000229549
0.000275456
0.000278698
0.00028992
0.000255062
0.000215756
0.0001313
3.5055e-05
-1.06785e-05
0.000246133
0.00162203
6.69745e-05
1.11038e-05
1.2249e-05
1.79387e-05
4.56755e-06
3.7678e-05
6.06353e-05
8.03261e-05
7.71785e-05
0.000110713
0.000184744
0.000175768
0.000202574
0.000179659
0.000143345
0.000109243
6.37649e-05
6.99914e-05
6.11695e-05
4.88568e-05
3.25126e-05
1.86539e-05
1.57588e-05
9.70045e-06
6.57431e-06
2.99575e-06
1.78056e-06
6.98572e-07
1.42008e-06
0.0102788
0.00717109
0.00529961
0.00233895
0.000185516
3.0251e-05
1.8612e-05
1.75622e-05
1.88784e-05
2.12564e-05
2.07461e-05
2.4996e-05
3.86812e-05
5.05594e-05
5.46269e-05
5.70785e-05
5.46756e-05
6.14956e-05
5.95042e-05
5.94609e-05
6.01677e-05
4.61273e-05
3.63651e-05
2.42428e-05
1.29639e-05
3.19788e-06
6.8927e-06
1.5695e-05
2.16672e-05
3.77101e-05
2.26527e-05
1.57772e-05
3.93954e-06
6.37462e-06
4.68701e-06
2.21499e-06
1.26936e-06
1.70564e-06
1.42261e-06
2.6397e-06
2.86058e-06
3.46244e-06
3.37721e-06
2.92983e-06
3.90312e-06
4.29494e-06
5.11659e-06
5.43825e-06
6.13987e-06
6.77966e-06
6.3986e-06
6.22202e-06
5.56212e-06
6.17262e-06
1.01589e-05
1.72436e-05
2.49178e-05
1.97231e-05
6.69732e-06
1.39061e-06
3.72725e-05
3.25178e-07
5.86275e-07
4.3865e-06
1.17297e-06
1.27589e-05
0.00024846
0.00180199
0.00210785
0.00196711
0.00149631
0.0011513
0.00091961
0.000730348
0.000525311
0.000217934
0.000163152
0.000119571
3.88879e-05
3.29436e-05
2.40841e-05
1.18118e-05
8.51827e-07
1.1918e-05
1.0179e-05
1.07601e-05
8.63693e-06
1.30806e-05
0.000147274
0.0465659
0.0961595
0.0923717
0.0530252
8.03133e-05
2.09453e-06
4.19728e-07
1.50154e-07
1.05824e-07
7.20917e-08
8.19575e-08
9.5691e-08
1.3464e-07
1.43473e-07
1.8159e-07
1.90145e-07
2.01045e-07
2.0829e-07
2.18904e-07
1.20292e-07
4.6929e-07
9.63437e-07
2.01852e-06
1.29325e-07
1.81346e-06
1.02686e-06
1.67495e-06
6.15105e-06
0.00510155
0.0732881
0.0887474
0.0193894
0.0245964
0.0263314
0.0243544
0.0206734
0.0186899
0.0195219
0.0212402
0.0203598
0.0120823
0.00337269
0.00149609
0.00220426
0.0130681
0.0483642
0.0394362
0.0344057
0.0282726
0.0233589
0.0220461
0.0218657
0.0219506
0.0239
0.0277999
0.0323261
0.0363571
0.0388383
0.0393106
0.0383018
0.0365851
0.0348456
0.0332596
0.0321812
0.0315519
0.0322888
0.033923
0.0357963
0.0375388
0.0391019
0.0402512
0.043018
0.0505732
0.0581282
0.0546112
0.0020512
0.00163497
0.00338023
0.00654033
0.00787869
0.00703266
0.00237395
0.000258266
7.68982e-05
5.82849e-05
0.000165629
0.000261141
0.000369494
0.000731856
0.00115979
0.00192562
0.00335534
0.00773797
0.0124213
0.0153729
0.017192
0.0182431
0.0175736
0.0156959
0.0112025
0.00571111
0.00314974
0.00341543
0.00527494
0.0120535
0.000671668
0.00164956
0.00315634
0.00610366
0.00808691
0.0090737
0.00896144
0.00821577
0.00714617
0.00568431
0.00393109
0.00274012
0.00244195
0.00204086
0.00199256
0.00198976
0.00199928
0.00226087
0.00241189
0.00278483
0.00258072
0.00246059
0.00219577
0.00203845
0.00212853
0.00245162
0.00316074
0.00334647
0.00446551
0.00579603
0.000405721
5.07826e-05
4.28611e-05
4.79878e-05
2.22545e-05
8.25579e-05
0.00017553
0.000219501
0.000318199
0.000422736
0.000292718
0.00120192
0.00189343
0.0027371
0.00327414
0.00382007
0.00408143
0.00436831
0.00437947
0.00440626
0.00441532
0.00446898
0.00448172
0.00438982
0.00402276
0.0035873
0.003723
0.00456168
0.00813069
0.01037
0.000734867
0.000286321
0.000202228
9.62781e-05
7.3534e-05
3.52291e-05
9.4072e-06
1.78243e-05
3.47414e-05
4.66944e-05
5.43878e-05
5.93735e-05
5.20817e-05
2.99593e-05
3.34115e-05
2.31389e-05
1.88772e-05
3.90705e-05
4.1292e-05
3.91306e-05
3.94931e-05
4.98667e-05
4.14264e-05
6.39454e-05
8.91315e-05
0.000109701
0.000123748
0.000149557
0.000229466
0.000576707
7.83328e-05
0.000116831
0.000265263
0.000261646
0.00120809
0.00224798
0.00361148
0.00442998
0.00668525
0.0114049
0.0213823
0.0305729
0.0361899
0.0388409
0.037564
0.0320626
0.0260785
0.016739
0.0137539
0.00921411
0.00807777
0.00750142
0.0070519
0.00633924
0.0050924
0.0033323
0.00263466
0.00399204
0.00695675
0.00844108
0.00207764
-0.000121567
7.03354e-05
6.65129e-05
0.000115035
0.00024316
0.000452694
0.00044878
0.000181462
4.81551e-05
1.54433e-05
6.62192e-06
5.20911e-06
3.6109e-06
4.30606e-06
4.17953e-06
6.94601e-06
1.2601e-05
2.98977e-05
-5.84274e-06
0.000138488
0.000220793
0.000282579
0.000333741
0.000339616
0.000303314
0.000203062
0.000126977
5.91112e-05
0.000197416
4.84652e-05
1.53561e-05
1.38627e-05
1.7971e-05
2.39926e-05
7.09131e-05
0.00010624
0.000299864
0.000447526
0.000287498
0.000943021
0.0013296
0.00144126
0.00138031
0.00121826
0.000804116
0.00037467
0.000350925
0.000276112
0.000196893
6.35217e-05
8.26005e-05
5.509e-05
2.30355e-05
2.01321e-05
8.79642e-06
5.30106e-06
1.83137e-06
1.23201e-06
1.24277e-06
0.00908159
0.00749708
0.00177673
4.93781e-05
1.61919e-05
1.85575e-05
7.27463e-06
6.77191e-05
-1.0461e-05
0.000199275
0.000327442
0.000128172
0.000518836
0.000927525
0.00107483
0.00119689
0.00103062
0.000957838
0.000661801
0.000240666
0.000329313
0.000254808
0.000115176
-3.13162e-05
4.80339e-05
3.0465e-05
1.43117e-05
1.34372e-05
2.46078e-05
3.35665e-05
6.10259e-05
2.1885e-05
1.18323e-05
6.26792e-06
2.31833e-06
1.75069e-06
2.16109e-06
3.43219e-06
5.84016e-06
5.97801e-06
9.29429e-06
1.19321e-05
7.71364e-06
1.52124e-05
2.52828e-05
2.99224e-05
1.57455e-05
3.08443e-05
3.81985e-05
2.63583e-05
-1.6415e-05
3.3526e-05
2.0983e-05
6.12825e-06
1.44896e-05
1.76767e-05
2.3095e-05
3.08122e-06
2.09895e-05
7.3341e-06
2.15427e-06
1.54968e-06
-1.00062e-07
2.87973e-05
0.000409063
0.00429205
0.00579303
0.0016895
0.000182739
6.26282e-05
3.91817e-06
-2.20713e-05
5.22789e-06
-6.20189e-07
-2.20106e-05
2.74857e-05
9.9426e-06
7.37493e-06
2.28828e-06
3.03055e-06
1.69515e-06
8.12948e-07
1.25276e-06
1.31553e-06
2.96125e-06
5.3739e-06
2.29083e-06
9.03589e-06
2.51385e-05
0.0158646
0.0954494
0.0617647
-2.7443e-05
1.4441e-07
2.83396e-07
1.34133e-07
1.00817e-07
-1.97169e-08
2.81242e-08
8.36936e-08
1.79759e-07
2.96829e-07
3.14004e-07
3.49552e-07
3.36498e-07
2.44062e-07
1.88765e-07
2.21251e-07
2.01114e-07
2.68626e-07
4.71769e-07
2.46976e-06
6.34289e-06
4.88801e-05
1.2356e-05
6.19433e-06
4.44449e-06
6.79161e-05
0.0535379
0.0884276
0.0237885
0.026912
0.0231394
0.0126756
0.00696138
0.00579654
0.00706252
0.0117465
0.018858
0.0193213
0.00853811
0.00216853
0.00210519
0.00958381
0.0462489
0.0327179
0.0236591
0.0191915
0.0180872
0.0157693
0.0129098
0.0142266
0.0189497
0.0248396
0.031114
0.0356965
0.0372412
0.0356562
0.0332553
0.0312548
0.0299095
0.0289315
0.0276454
0.0262815
0.0251628
0.0260776
0.0296772
0.0341067
0.037658
0.0396657
0.041304
0.046568
0.0534104
0.053131
0.0020393
0.00249386
0.00951431
0.012591
0.00926635
0.00252062
0.000243928
4.73324e-05
3.44832e-05
0.000208103
0.00133001
0.00217608
0.00183633
0.00155309
0.0020832
0.00428946
0.0103245
0.0156822
0.0186512
0.0197954
0.0197132
0.0205012
0.0201554
0.0209652
0.0179975
0.0116539
0.00488993
0.00329918
0.00418014
0.00892302
0.000642215
0.00204743
0.00323939
0.00442422
0.00374664
0.00266129
0.00230046
0.00208944
0.00187545
0.00158289
0.00139968
0.00113044
0.00116944
0.00132878
0.00177745
0.00216631
0.00296236
0.00545968
0.00746824
0.00911551
0.00888122
0.00756175
0.00495866
0.00238222
0.00195659
0.00207521
0.00245788
0.0030136
0.00364729
0.00510535
0.000811736
6.10192e-05
3.90305e-05
5.17798e-05
1.66854e-05
4.40918e-05
8.27152e-05
0.000133982
0.000182913
0.000331686
8.84829e-05
0.00126982
0.00285532
0.00390911
0.00461546
0.00498229
0.00506097
0.00491613
0.00480779
0.00449738
0.00426319
0.00417752
0.00440314
0.00465905
0.0047496
0.00458579
0.00433984
0.00445121
0.00659876
0.00939748
0.000717173
0.000264964
3.76969e-05
8.42067e-05
4.38461e-05
7.11827e-06
3.23975e-05
7.7252e-06
3.79446e-05
4.77942e-05
5.07219e-05
5.14028e-05
3.88361e-05
2.99799e-05
2.10112e-05
1.7412e-05
3.27579e-05
4.88117e-05
7.57887e-05
8.82942e-05
9.69423e-05
9.26222e-05
7.38994e-05
6.04989e-05
7.98178e-05
9.50901e-05
0.000116862
0.000131753
0.00011197
0.000509837
0.000326421
0.000182652
0.000271438
0.000286956
0.000253394
0.000194928
8.39531e-05
0.000115675
0.000298133
0.0023499
0.0152091
0.0313938
0.0409755
0.0454096
0.0437334
0.0406833
0.0343604
0.0285058
0.0233987
0.0208587
0.0197609
0.0198321
0.01946
0.01732
0.0127664
0.00687179
0.00347585
0.00326635
0.00636942
0.00856256
0.000471284
4.84395e-05
-8.75607e-06
3.46312e-05
-4.43515e-05
0.000295525
0.000303179
9.20824e-05
1.49099e-05
3.98837e-06
2.95595e-06
2.26708e-06
2.20559e-06
1.86426e-06
1.85222e-06
1.5693e-06
2.50533e-06
4.54982e-06
1.01953e-05
2.25732e-05
5.2132e-05
0.000100889
0.000215519
0.000323043
0.000110157
0.000375551
0.000322562
0.000182513
4.34626e-05
0.000202591
3.83882e-06
1.162e-05
1.67538e-05
2.55735e-05
9.6247e-05
0.000224098
0.000535991
0.000923151
0.00230895
0.00333549
0.00495002
0.00663231
0.00745718
0.00736357
0.00623758
0.00428353
0.00276736
0.00198403
0.00098222
6.96663e-05
0.000303477
0.000176534
8.04776e-06
6.93092e-05
2.57668e-05
2.04124e-05
3.20563e-06
2.50882e-06
1.77028e-06
1.46891e-06
0.0088372
0.00334574
4.97669e-05
1.26506e-05
-3.18547e-06
0.000112571
0.000279809
0.000752036
0.00208926
0.00298031
0.00454231
0.00584684
0.00634229
0.0059466
0.00599844
0.00566879
0.0056982
0.00543645
0.00469639
0.00359737
0.00275816
0.00219736
0.00109222
0.000338066
0.000125506
5.98339e-05
2.63901e-05
7.79211e-06
1.94719e-05
3.33457e-05
5.8656e-05
1.80521e-05
7.70036e-06
1.92567e-06
6.70295e-07
2.65825e-06
6.27843e-06
7.66602e-06
1.21903e-05
-3.39467e-07
1.96054e-05
2.35627e-05
3.09885e-05
3.21579e-05
5.70281e-05
9.33581e-05
0.000113082
0.000134583
0.000153075
0.000166232
0.000167399
0.000162059
0.000110103
6.12384e-05
3.44933e-05
2.30602e-05
1.31573e-05
1.7625e-05
-1.55977e-07
1.31172e-05
2.56262e-06
4.2545e-06
2.81759e-05
0.00120316
0.00515362
0.00203522
0.000157133
3.62783e-05
-1.45688e-06
1.38956e-05
1.18388e-05
1.22625e-05
1.25976e-05
6.4662e-06
2.03939e-06
8.42079e-06
1.37591e-06
1.25237e-06
1.49452e-06
1.17378e-06
1.595e-06
1.85718e-06
2.01857e-06
2.241e-06
1.5382e-06
3.33467e-06
5.8259e-06
5.60084e-06
1.82167e-05
0.00247883
0.0891718
0.00797836
1.45985e-06
5.95287e-08
1.21689e-07
9.24994e-09
-8.65542e-09
5.59407e-08
2.25216e-07
3.55515e-07
3.26278e-07
6.6918e-07
8.75399e-07
5.14362e-07
8.77668e-07
6.5157e-07
3.3182e-07
3.12634e-07
2.06766e-07
1.61418e-07
1.35616e-07
2.92137e-07
2.53695e-06
2.97616e-05
0.000103582
1.58345e-05
3.00134e-06
2.62728e-05
0.0407071
0.0878715
0.0262478
0.025687
0.0134535
0.00414561
0.00248379
0.00259346
0.00339417
0.00699186
0.015342
0.021462
0.014637
0.00308212
0.00202043
0.00815208
0.0429599
0.0251198
0.0168677
0.0149287
0.0115573
0.00699727
0.00626336
0.00971514
0.0177243
0.0251322
0.0323494
0.0363417
0.0355817
0.032544
0.0301839
0.0289839
0.0286285
0.0287039
0.0285221
0.0268428
0.0242201
0.0226628
0.0245915
0.0298685
0.0354569
0.0389847
0.0405488
0.0442985
0.0494364
0.0511198
0.00215763
0.00506482
0.0126369
0.0121834
0.00409484
0.000296573
5.64076e-05
4.86331e-05
0.000124207
0.00149774
0.00608319
0.00648959
0.00244694
0.00194491
0.00303119
0.00993897
0.0164683
0.0187769
0.0183497
0.017224
0.0164769
0.0163994
0.0171123
0.018736
0.0189015
0.0146708
0.00688704
0.00341294
0.00399819
0.00772763
0.000737649
0.00219279
0.00284025
0.00206965
0.000720565
0.000284773
0.000219639
0.000150562
0.000123023
0.000129763
0.000126388
0.000181321
0.000270764
0.000375645
0.00172697
0.00269387
0.00636296
0.00961332
0.0131846
0.0147379
0.0156509
0.0144519
0.010449
0.00505454
0.00218687
0.00189137
0.00223123
0.00264913
0.00338642
0.00451568
0.00129653
0.000122001
4.03934e-05
4.90757e-05
6.22602e-06
8.30202e-05
9.9679e-05
0.000131962
0.000193883
0.000340173
0.000753936
0.00286553
0.00498865
0.0065566
0.00692095
0.00650907
0.00612371
0.00576512
0.0054031
0.0052231
0.00469076
0.00397028
0.00379341
0.00417717
0.00481357
0.00569824
0.00604933
0.00572812
0.00640388
0.0085961
0.000638855
0.000215085
0.000103997
5.99036e-05
8.1654e-06
3.20416e-05
3.35536e-05
3.42923e-05
1.00407e-05
2.90159e-05
4.32841e-05
4.83725e-05
3.48877e-05
3.00651e-05
2.67516e-05
3.80311e-05
5.33466e-05
6.9315e-05
9.6268e-05
9.67349e-05
0.000115911
0.000100289
0.000106351
8.88521e-05
8.142e-05
9.01997e-05
0.000111972
0.000130271
6.06084e-05
0.000411334
0.000311981
0.000191141
0.000217961
0.000103578
6.15983e-05
1.34154e-05
2.67759e-05
4.26481e-05
0.00020816
0.00494726
0.02583
0.0414672
0.0472214
0.0463279
0.0410072
0.0344694
0.0291871
0.0261458
0.0242914
0.0248368
0.023613
0.0224616
0.0210904
0.0208098
0.0190825
0.0134547
0.00620225
0.00388655
0.00628725
0.00895402
6.424e-05
4.37401e-05
3.92803e-05
4.17844e-05
-8.10381e-05
9.05638e-05
7.38809e-05
8.63641e-06
2.32815e-06
2.7728e-06
8.73457e-07
4.56104e-06
6.00993e-06
5.28221e-06
4.20546e-06
3.5762e-06
3.95852e-06
4.94765e-06
9.59653e-06
1.22004e-05
4.07707e-05
1.72174e-05
0.000146352
0.00026968
0.000357209
0.000400344
0.000392759
0.00026932
0.000105182
0.000237126
1.53684e-05
9.76948e-06
1.61068e-05
8.47975e-05
0.000172603
0.000599719
0.00225832
0.00416973
0.00861583
0.0123971
0.0152451
0.0168642
0.0181781
0.0195417
0.0191874
0.0166601
0.0124622
0.00723289
0.0029511
0.00168799
0.0002776
0.00032205
0.000158349
-1.10975e-05
6.0882e-05
5.93465e-06
8.42755e-06
3.4215e-06
2.20965e-06
1.69139e-06
0.00649038
0.000172893
1.57611e-05
4.01985e-05
0.000190524
0.00059243
0.00255013
0.00656662
0.0105701
0.0128239
0.0118105
0.0110287
0.00793436
0.00704656
0.00556657
0.00535246
0.00577851
0.00679487
0.00754924
0.0080597
0.00778324
0.00673074
0.00421216
0.00223914
0.000172336
0.000105119
4.62141e-05
2.29195e-05
1.56406e-05
3.83879e-05
6.31074e-05
3.21354e-06
2.62397e-06
1.01031e-06
3.68227e-06
6.84504e-06
5.22727e-06
1.20002e-05
3.36002e-06
2.14878e-05
3.74869e-05
8.00115e-05
0.000140102
-9.10181e-06
0.000493357
0.000632515
0.000647948
0.000565514
0.000397293
0.000293542
0.000336787
0.000454478
0.000557822
5.85307e-05
0.000117188
-1.6417e-05
3.14567e-05
2.23509e-05
1.09437e-05
1.46964e-05
2.93586e-06
3.70082e-07
0.000499467
0.00466406
0.00171596
8.92983e-05
-4.48798e-07
1.22527e-05
1.03144e-05
8.82195e-06
7.57935e-06
8.39083e-06
8.15216e-06
7.96502e-06
6.72001e-06
3.06111e-06
1.69104e-06
1.16178e-06
1.10099e-06
2.74687e-06
7.84191e-06
6.58983e-06
2.06265e-06
5.07529e-06
5.11793e-06
3.94029e-06
5.92347e-06
4.74194e-06
1.59878e-05
0.00105904
0.07886
4.08028e-05
4.57767e-07
1.36609e-07
2.59231e-08
7.77055e-10
5.45095e-08
2.39165e-07
3.29227e-07
8.08424e-07
1.58535e-06
1.26695e-06
3.91879e-06
3.48131e-06
2.13484e-06
1.91748e-06
8.51007e-07
5.34101e-07
3.15889e-07
1.79305e-07
1.21665e-07
9.23086e-08
4.02352e-07
9.79973e-06
0.000174563
2.36753e-05
1.13383e-05
2.93458e-05
0.0387766
0.0894987
0.0274613
0.0218403
0.00602316
0.00201004
0.00190528
0.00287097
0.00556986
0.00966285
0.0169824
0.0227022
0.0183586
0.00548135
0.00240634
0.00743098
0.0392108
0.0194434
0.0129498
0.00972797
0.00524196
0.00366365
0.00407845
0.00729909
0.0172985
0.0256967
0.0331442
0.0358288
0.0330984
0.0301242
0.02852
0.02707
0.0262883
0.0269889
0.028791
0.0286225
0.0256428
0.021941
0.0218141
0.0267218
0.0335302
0.0381585
0.0400359
0.0429296
0.0460059
0.0491566
0.00223458
0.00596525
0.0112487
0.00734858
0.00136143
9.93622e-05
4.70631e-05
4.76093e-05
0.000231864
0.00647718
0.0177627
0.0127244
0.00259108
0.00233671
0.00759735
0.0162744
0.018685
0.0170203
0.0152978
0.0141875
0.0134107
0.0130291
0.0134202
0.015014
0.0165224
0.014393
0.00724288
0.00349062
0.00403368
0.00717363
0.000822723
0.00215815
0.0020668
0.000163562
8.96911e-05
5.92588e-05
3.64857e-05
2.98531e-05
2.66504e-05
4.1188e-05
5.12902e-05
6.60741e-05
0.000105255
2.14758e-05
0.00217306
0.00470944
0.00959203
0.0130875
0.0156424
0.0169786
0.0180386
0.0179109
0.0148858
0.00795618
0.00249061
0.00184195
0.00204176
0.00249799
0.00299714
0.0042114
0.00191912
0.000160346
4.00831e-05
-7.64814e-06
9.39887e-05
0.00015396
0.000164021
0.000124891
0.00018186
0.000385019
0.00169203
0.00457935
0.0073849
0.00729321
0.0060612
0.00504586
0.00516891
0.00521275
0.0053207
0.00530116
0.0050946
0.00418192
0.00340253
0.00354743
0.00447759
0.00595502
0.00752652
0.00711307
0.00673964
0.00810083
0.000564189
0.00014904
9.9165e-05
4.30912e-05
3.77675e-05
3.15101e-05
2.83272e-05
2.73842e-05
3.4832e-05
2.0116e-05
2.64993e-05
4.31426e-05
3.77289e-05
2.80691e-05
4.0188e-05
4.43809e-05
6.49343e-05
8.01976e-05
8.90496e-05
0.000103035
9.43296e-05
0.000102479
9.71104e-05
0.000101338
8.10151e-05
9.37581e-05
0.000114039
0.000132169
2.8827e-05
0.000367059
0.000290452
0.000177833
4.68407e-05
3.71128e-05
1.86928e-05
3.04201e-06
9.23127e-06
3.69284e-05
0.000574413
0.0192229
0.0389249
0.045046
0.0386504
0.0206077
0.00753393
0.00221376
0.00180235
0.00167317
0.00203789
0.00373913
0.00735959
0.0107214
0.0128338
0.0150535
0.0179649
0.0174148
0.0100841
0.00560161
0.00682729
0.0086319
0.000114341
2.83293e-05
2.18112e-05
2.76269e-05
0.000114654
8.04408e-05
2.35582e-05
5.86803e-06
1.43133e-06
5.91517e-06
1.08578e-05
1.95439e-05
1.21277e-05
7.08861e-06
4.07786e-06
3.94527e-06
6.19335e-06
6.24769e-06
9.59773e-06
1.57324e-05
2.89496e-05
6.00242e-05
7.01398e-05
0.000221714
0.000356156
0.000427503
0.000419927
0.000288129
0.00016211
0.000312874
1.29238e-05
1.49996e-05
5.47004e-05
0.000146111
0.000584966
0.00295471
0.00674723
0.012269
0.0156643
0.0165025
0.0163175
0.0169998
0.0195121
0.0238237
0.0254404
0.0261668
0.0235197
0.0173834
0.00878269
0.00290187
0.00125508
0.000420286
0.000274447
8.48732e-05
9.75453e-05
2.20891e-05
7.91723e-06
3.97222e-06
2.31868e-06
1.94102e-06
0.00230116
3.10622e-05
2.52414e-05
0.000291189
0.000698852
0.00313871
0.0105809
0.0165424
0.0169708
0.0134633
0.00804533
0.00437029
0.00243053
0.00201278
0.0017525
0.00175978
0.00180715
0.00205649
0.00260458
0.00451252
0.00736877
0.0086333
0.00919452
0.00585878
0.00216498
0.000288192
6.22926e-06
2.80172e-05
2.54301e-05
3.7655e-05
4.77335e-05
-9.74749e-07
2.38828e-06
1.79375e-06
5.18916e-06
5.63977e-06
1.17825e-05
4.54706e-06
3.90277e-05
9.9875e-05
0.000696742
0.00205031
0.00584928
0.0105842
0.0121307
0.014776
0.0120476
0.00800969
0.00424824
0.00195577
0.00120244
0.000897199
0.000966626
0.00100372
0.00041453
0.000117099
1.05771e-05
4.51422e-05
2.83747e-05
1.70627e-05
4.49369e-06
1.40436e-05
0.0020254
0.00203764
0.000125007
-6.02003e-06
1.22684e-05
6.16016e-06
1.10767e-05
7.13319e-06
8.89786e-06
4.54176e-06
4.15853e-06
6.02807e-06
3.69927e-06
3.93211e-06
7.52883e-07
1.03292e-06
1.45166e-06
1.50435e-05
0.000262703
0.0044124
0.00365775
0.00017907
1.7601e-05
6.68237e-06
1.81943e-06
7.81229e-06
1.65913e-05
0.000640593
0.0690192
4.0156e-06
2.1933e-08
1.48868e-07
1.46145e-08
5.21216e-08
2.13953e-07
2.96816e-07
8.98314e-07
2.20143e-06
5.30192e-06
1.17673e-05
1.93253e-05
9.24723e-06
1.30918e-05
2.20852e-06
1.27956e-06
9.03574e-07
4.68484e-07
2.44688e-07
1.29806e-07
9.23593e-08
1.5317e-07
1.21076e-06
0.000156664
4.502e-05
2.69469e-05
0.00013788
0.0479835
0.0923134
0.0280965
0.017377
0.00283507
0.00145233
0.00264766
0.00670537
0.0124945
0.018427
0.0221801
0.0239506
0.0207518
0.00741868
0.00282541
0.00688779
0.0351489
0.0151763
0.00912747
0.00614555
0.00337288
0.0027235
0.00308187
0.00481927
0.0163861
0.0257581
0.0330047
0.0344604
0.0309522
0.0289894
0.0269288
0.0237445
0.0211896
0.0218289
0.0256861
0.0280211
0.0255396
0.0212048
0.0201893
0.024875
0.0323806
0.0374972
0.0397381
0.0419335
0.043359
0.0479427
0.00227416
0.00482591
0.00691567
0.00241881
0.000244807
5.70905e-05
3.87697e-05
5.05492e-05
0.00100128
0.0190667
0.0297963
0.0171201
0.00246933
0.00299301
0.0140918
0.0193985
0.0168958
0.0143237
0.012904
0.0112815
0.00941384
0.00822855
0.00824003
0.010421
0.0130853
0.0116373
0.00619982
0.00350569
0.00419222
0.00710691
0.000827132
0.0020326
0.00123349
0.000163659
4.33053e-05
2.06586e-05
1.76494e-05
1.77776e-05
2.26909e-05
2.5044e-05
5.29943e-05
5.16701e-05
6.10512e-05
0.000286596
0.00272504
0.00669218
0.0116691
0.0136795
0.0149353
0.0156385
0.0174433
0.0172026
0.0158601
0.00946694
0.0030508
0.00180982
0.00194824
0.00236514
0.00256332
0.00364564
0.00308899
0.000196724
2.69138e-05
5.39785e-05
0.000192186
0.000447794
0.000211311
0.000150709
0.000190461
0.000122518
0.002731
0.00577672
0.00728404
0.00545536
0.00397832
0.00413593
0.00418959
0.00400695
0.0044239
0.00454964
0.00491509
0.00467743
0.00354157
0.00309237
0.00423808
0.00619781
0.00870397
0.00834324
0.00701681
0.0076338
0.000425604
0.00013519
7.93496e-05
3.42617e-05
3.42304e-05
2.47755e-05
1.95496e-05
2.47609e-05
3.04113e-05
-3.25783e-06
2.03121e-05
2.558e-05
3.24692e-05
2.94067e-05
3.68799e-05
5.95049e-05
5.28331e-05
6.81762e-05
8.82915e-05
9.87639e-05
0.000100535
0.000104424
8.74602e-05
8.72551e-05
8.74001e-05
8.67776e-05
0.000121691
0.000136685
2.04487e-05
0.000351973
0.000274763
0.00012331
5.30927e-05
1.90427e-05
1.06027e-05
9.07064e-06
6.47466e-06
5.82027e-05
0.00255901
0.029607
0.0392158
0.0279142
0.00495177
0.000327748
0.00021166
0.000196373
0.000216035
0.000166974
0.000178229
0.000133897
0.000171003
0.000654038
0.00176323
0.0037804
0.0104324
0.0178846
0.0139005
0.00735457
0.00793149
0.00971717
3.15387e-05
4.36373e-06
1.85846e-05
3.57209e-05
7.2154e-05
2.97147e-05
7.20278e-06
5.77062e-06
7.83392e-06
2.24707e-05
2.33303e-05
1.63329e-05
5.24985e-06
4.26709e-06
3.6439e-06
2.9992e-06
3.38891e-06
3.53116e-06
2.73668e-06
1.00243e-05
2.1267e-05
5.0701e-05
6.08741e-05
0.000209198
0.000356643
0.000399301
0.000383049
0.000301204
0.000196382
0.000398915
1.23444e-05
4.11337e-06
8.23565e-05
0.000385233
0.00290057
0.00631966
0.0114669
0.0153483
0.0151272
0.0123718
0.0100118
0.010304
0.0136439
0.019721
0.0267215
0.0297558
0.0282391
0.0228191
0.0129888
0.00386866
0.00150293
0.00046149
0.000360372
0.000219335
0.000105056
2.65458e-05
3.74286e-06
6.34666e-06
4.18692e-06
1.1836e-06
0.000407919
2.80448e-05
5.22e-05
0.000114212
0.00268923
0.0102152
0.0167898
0.0183593
0.0139625
0.00677485
0.00263196
0.00175114
0.00149211
0.00151554
0.00181282
0.00190034
0.00168037
0.00134825
0.00137688
0.00205552
0.00380464
0.00688853
0.0103992
0.0091355
0.00415623
0.000703938
5.77167e-05
2.81675e-05
2.70285e-05
4.00481e-05
1.00151e-05
2.28425e-06
3.41561e-06
3.9703e-06
6.01601e-06
9.16503e-06
1.00102e-05
4.11673e-05
0.000224789
0.00185004
0.00964452
0.016337
0.0234199
0.0265712
0.0303996
0.0315202
0.0326102
0.0298406
0.023115
0.0127162
0.00449259
0.00172983
0.00135646
0.00140715
0.00119941
-5.32925e-05
6.74244e-05
5.00754e-05
3.26983e-05
1.38594e-05
5.63576e-06
-8.83079e-05
0.00244434
8.73318e-05
2.61996e-05
1.55802e-05
1.15296e-05
1.81925e-05
2.6013e-05
2.6315e-05
2.00174e-05
1.42737e-05
6.15359e-06
2.41345e-06
1.42732e-06
3.54943e-06
1.51392e-06
1.0616e-06
4.37315e-06
0.000171879
0.0135444
0.0241711
0.0243277
0.00748272
0.000120303
-1.86025e-06
1.32504e-05
1.30831e-05
4.22746e-06
0.00104153
0.0590364
2.08797e-06
2.51693e-07