/*--------------------------------*- C++ -*----------------------------------*\
| =========                 |                                                 |
| \\      /  F ield         | OpenFOAM: The Open Source CFD Toolbox           |
|  \\    /   O peration     | Version:  2.1.1                                 |
|   \\  /    A nd           | Web:      www.OpenFOAM.org                      |
|    \\/     M anipulation  |                                                 |
\*---------------------------------------------------------------------------*/
FoamFile
{
    version     2.0;
    format      ascii;
    class       volScalarField;
    location    "0.004800000";
    object      sL;
}
// * * * * * * * * * * * * * * * * * * * * * * * * * * * * * * * * * * * * * //

dimensions      [0 1 -1 0 0 0 0];

internalField   nonuniform List<scalar> 
12384
(
14.3523
13.039
11.8292
10.7458
10.1927
9.97598
10.2229
10.7481
11.8611
13.4885
14.8951
15.9305
14.3804
3.88754
2.5063
2.62258
2.42551
2.15008
2.07737
2.02121
2.09008
2.15635
2.23978
2.31205
2.37866
2.41669
2.43232
2.41522
2.37439
2.30784
2.25527
2.18735
2.09354
2.02739
2.01924
1.96441
1.96458
1.9891
1.99421
2.19097
2.42655
2.14731
2.2423
2.26333
1.6907
1.45773
1.42546
1.46585
1.54901
1.65881
1.72304
1.76733
1.71549
1.72415
1.78848
1.79571
1.84377
1.82226
1.8431
1.80887
1.8225
1.81027
1.77039
1.86524
1.79627
1.92722
2.11296
2.25189
2.28317
2.57415
2.60438
3.04922
2.72399
1.97727
2.01737
2.63113
2.64644
2.45372
2.1774
1.95388
1.82027
1.68824
1.62855
1.56512
1.50994
1.4549
1.34648
1.31138
1.24533
1.16018
1.16877
1.18254
1.18181
1.1973
1.18791
1.19713
1.19513
1.19182
1.1872
1.18838
1.20121
1.32379
1.24529
1.24894
1.3097
1.46596
1.61274
1.64967
1.95819
1.99755
2.34639
2.56205
2.51954
3.16088
2.96273
3.44119
3.43435
3.72695
3.87455
4.11197
4.1612
4.17744
4.02741
3.92031
3.68882
3.68008
3.61373
3.54439
3.48389
3.31614
3.41431
3.8329
3.99274
4.08995
1.23964
2.15415
2.39194
2.57513
2.88101
3.13929
3.36687
3.45661
3.37168
3.49334
3.30167
3.46891
3.31271
3.45619
3.30221
3.46736
3.21221
3.26895
3.35673
3.13812
3.62742
3.40189
4.07395
4.30862
4.44949
4.44156
4.1065
3.52279
3.12124
3.02221
2.29598
2.57863
2.83246
2.38198
2.06574
1.9165
1.6888
1.31896
1.11343
1.07977
1.04556
1.03952
1.01033
1.02918
1.00897
1.04053
1.03114
1.06664
1.0713
1.08299
1.09842
1.10924
1.12244
1.12786
1.13656
1.1369
1.13377
1.12157
1.13678
1.10871
2.50195
2.87331
4.029
3.94977
3.61725
3.43277
3.42836
3.17039
3.14129
2.8667
2.89376
2.51025
2.56807
2.05432
2.20975
1.63128
1.84147
1.4474
1.61428
1.58689
1.59037
1.77223
1.78539
1.99588
2.08549
2.25647
2.50715
2.86936
3.32773
3.65075
1.82849
1.74502
2.51163
3.14128
3.25801
3.01443
2.955
2.59866
2.58676
2.49713
2.16985
2.31614
1.92164
2.09694
1.81928
1.96464
1.91465
1.87984
2.07737
2.1758
2.13009
2.36801
2.37901
2.49884
2.72224
2.81431
2.90785
2.84168
2.67239
2.10744
3.12375
3.51184
4.05125
4.11081
3.86014
3.44133
3.22334
2.83349
2.81386
2.42646
2.53553
2.18724
2.32641
2.12695
2.20279
2.08284
2.19077
2.09312
2.33938
2.42502
2.54823
2.67056
2.78652
2.80267
2.81166
2.92032
3.54288
4.09654
4.28216
4.21959
1.87592
2.96076
3.39785
3.35294
3.22929
3.15155
2.95722
2.96086
2.69315
2.63534
2.54039
2.33588
2.07443
2.13193
1.80847
1.86797
1.70805
1.85677
1.92985
2.34288
2.38573
2.70314
2.83663
3.04264
3.12967
3.21056
2.99484
2.93651
3.00163
3.12156
0.904854
1.30149
2.69602
2.91914
2.58414
2.19739
1.89877
1.61439
1.45988
1.36121
1.3387
1.32743
1.32086
1.31668
1.31709
1.31669
1.32126
1.37158
1.37951
1.59047
1.61082
1.9368
2.02385
2.34386
2.51164
2.67282
2.9035
3.01308
1.36974
1.01944
0.451027
0.588106
0.830839
0.948965
1.13435
2.27431
3.8284
4.20105
4.26948
4.18104
4.14106
4.01951
4.03768
3.99528
3.99614
3.9505
3.87551
3.74593
3.57304
3.33704
3.17817
2.94489
2.61342
2.35939
1.85493
1.34573
1.03527
0.742505
0.656746
0.64588
7.59042
6.15793
5.41023
5.02119
4.84554
4.90688
4.94983
5.29492
6.38906
8.79758
12.003
14.7621
15.1633
5.73168
2.37894
2.22941
1.89667
1.82738
2.02047
2.19751
2.37438
2.43839
2.51889
2.57199
2.60617
2.64352
2.69562
2.7672
2.84717
2.91509
2.94754
2.91706
2.88724
2.70703
2.4825
2.34243
2.23236
2.13201
2.05752
2.11943
2.35266
2.42868
2.3593
2.27026
1.69198
1.43307
1.4384
1.55422
1.59767
1.64429
1.65723
1.69942
1.84115
1.95636
1.99724
1.91983
1.89308
1.82145
1.79719
1.72828
1.66381
1.61126
1.56034
1.55592
1.52034
1.67748
1.74623
1.85972
2.13902
2.43929
2.4792
2.84002
3.26269
2.85357
2.13406
2.65743
2.48845
2.02413
1.68558
1.44589
1.33958
1.29088
1.30254
1.31133
1.36381
1.38823
1.40912
1.39416
1.40151
1.27032
1.2234
1.23671
1.23439
1.24523
1.25206
1.24437
1.2418
1.22988
1.21466
1.20068
1.20041
1.19988
1.32494
1.31381
1.32075
1.50294
1.67036
1.86969
2.10672
2.25153
2.53941
2.58888
2.98786
2.96845
3.30349
3.46637
3.69492
3.97303
4.15767
4.4092
4.643
4.68082
4.66412
4.48203
4.35886
4.17984
3.99953
3.83326
3.63799
3.43221
3.40051
3.48808
3.81094
4.29497
1.38475
2.36049
2.63389
3.01254
3.37882
3.67768
3.66178
3.60411
3.45337
3.55894
3.41463
3.60153
3.49995
3.60257
3.57597
3.63138
3.49992
3.66155
3.58404
3.69503
3.80062
4.05016
4.22798
4.39195
4.45107
4.47961
4.3145
3.88123
3.40878
3.27295
2.41169
2.66883
2.5394
2.22974
1.97595
1.45775
1.10092
1.03489
0.988865
0.957065
0.92678
0.904555
0.891942
0.88765
0.898859
0.930213
0.964529
1.00827
1.04642
1.08144
1.10718
1.13106
1.15239
1.165
1.17047
1.17201
1.16193
1.14007
1.11438
1.10687
3.07605
3.76957
4.07508
3.86469
3.87757
3.66128
3.58463
3.18224
3.27469
2.92008
3.04181
2.83036
2.74687
2.37736
2.47661
1.97526
2.06631
1.74587
1.79215
1.80751
1.73911
1.90955
1.91109
2.06083
2.20867
2.34751
2.52294
2.81234
3.17471
3.59284
2.35961
2.97803
3.22542
3.08498
2.85554
2.77788
2.69573
2.83093
2.77579
2.82051
2.62723
2.56838
2.41089
2.33369
2.30178
2.23199
2.31456
2.32173
2.48895
2.4773
2.50193
2.6423
2.52548
2.61568
2.72972
2.86204
2.8964
2.92688
2.84006
2.44039
3.79282
4.03153
3.84407
3.37706
2.98259
2.73609
2.79471
2.78665
2.86968
2.77008
2.77168
2.62674
2.58076
2.4948
2.39967
2.40323
2.29601
2.43771
2.42479
2.56971
2.68649
2.7723
2.82301
2.7943
2.80002
2.80521
2.88646
3.16709
3.597
3.72547
2.33312
3.18042
3.28007
3.1883
3.07471
2.93539
2.94958
2.81822
2.71858
2.61406
2.33414
2.27788
1.96447
1.86861
1.66163
1.58085
1.58554
1.54232
1.75035
1.78876
2.1294
2.19643
2.39804
2.63238
2.87073
3.07303
3.1837
3.11917
3.15198
3.22308
1.34266
2.16604
2.82534
2.58138
2.0317
1.50357
1.25305
1.17892
1.1627
1.17373
1.19955
1.21787
1.23032
1.23841
1.24838
1.26197
1.28373
1.31031
1.42799
1.6035
1.78482
1.96179
2.20215
2.3288
2.57847
2.70836
2.84699
2.99744
2.09561
1.29924
0.621367
0.875377
1.09143
1.69192
2.96879
3.77149
4.21021
4.3387
4.31222
4.33407
4.32165
4.37581
4.34606
4.41849
4.40573
4.40556
4.35793
4.23938
4.01827
3.76597
3.35522
3.08347
2.92877
3.08664
3.07708
2.85715
1.90167
1.13169
0.740399
0.661017
5.44164
4.75922
4.45983
4.56458
4.91909
5.08799
4.97962
4.68741
4.64243
5.55079
8.50318
13.0177
15.3179
7.42144
2.18414
1.8585
1.86824
2.23775
2.50731
2.51779
2.63712
2.79067
2.92904
2.89191
2.84767
2.86809
3.03277
3.30755
3.6339
3.91121
4.12659
4.20863
4.19628
4.03043
3.75264
3.26718
2.7662
2.41804
2.17541
2.09775
2.23088
2.5151
2.66433
2.50162
1.71085
1.45519
1.4998
1.5208
1.59738
1.62646
1.70994
1.9053
2.00665
1.98937
1.88358
1.76419
1.72617
1.67526
1.64106
1.56416
1.48286
1.46295
1.45242
1.53417
1.50317
1.5922
1.55154
1.71508
1.95512
2.09341
2.37392
2.69305
3.26674
3.48486
2.22196
2.64846
2.24946
1.78889
1.53862
1.42448
1.39249
1.38768
1.47001
1.55578
1.66251
1.75398
1.86672
1.74424
1.76473
1.51706
1.28891
1.22031
1.21953
1.21435
1.22527
1.22854
1.24727
1.25514
1.24727
1.22481
1.20861
1.20449
1.27598
1.34955
1.29754
1.43142
1.73946
1.89909
2.21646
2.25524
2.53877
2.55378
2.73026
2.98701
3.11248
3.4828
3.69676
3.99907
4.2633
4.47451
4.68298
4.91067
4.8311
4.80567
4.7299
4.61084
4.44071
4.17924
3.92662
3.62149
3.45088
3.44911
3.63156
4.18097
1.5085
2.41711
2.80182
3.31429
3.69462
3.61562
3.58364
3.48122
3.53725
3.51316
3.50285
3.54625
3.52689
3.59156
3.54487
3.71677
3.68316
3.89157
3.86302
3.98756
4.22115
4.23492
4.56
4.53133
4.54572
4.48232
4.41763
4.12989
3.63123
3.34671
2.45892
2.58629
2.38052
2.12699
1.72578
1.27405
1.1428
1.15747
1.10873
1.07067
0.990078
0.927034
0.882777
0.869803
0.87729
0.926359
0.968103
1.04744
1.06952
1.11306
1.11987
1.12679
1.13308
1.13879
1.1533
1.17187
1.17939
1.16164
1.12441
1.10623
3.54091
4.13046
4.18135
4.16973
4.11932
3.75414
3.43293
3.17714
3.33539
3.14785
3.35033
2.97542
3.06555
2.59709
2.61373
2.25387
2.26347
2.00636
2.10967
2.05079
1.95585
2.05387
2.0474
2.16641
2.2536
2.47028
2.59849
2.82677
3.12069
3.50443
2.68574
3.00977
2.98076
2.7757
2.79575
3.00809
3.30219
3.45939
3.17856
3.10716
2.75666
2.5689
2.41617
2.28948
2.20756
2.2447
2.2758
2.30807
2.51787
2.56757
2.75208
2.86468
2.85456
2.81338
2.89053
2.90362
2.9293
2.9258
2.87877
2.54929
3.84971
3.60513
2.94679
2.63182
2.74679
3.104
3.37068
3.36034
3.21712
2.83216
2.71173
2.29803
2.3043
2.0488
2.07059
1.93238
2.01989
2.00048
2.12471
2.20076
2.38451
2.47305
2.62314
2.70197
2.71161
2.70826
2.70522
2.71548
2.94742
3.33139
2.55562
3.14733
3.05579
2.96234
2.93579
3.05392
3.01659
2.90423
2.77992
2.54879
2.19186
2.01606
1.68729
1.51307
1.44608
1.42894
1.41941
1.40598
1.39629
1.39225
1.42244
1.74254
1.85263
2.09074
2.37109
2.71658
2.97383
3.19093
3.24475
3.29519
2.11271
2.71234
2.45665
1.75464
1.24184
1.12578
1.11019
1.18662
1.40984
1.54299
1.61603
1.5954
1.52387
1.50151
1.47633
1.5741
1.6781
1.91279
2.12525
2.35898
2.52323
2.68832
2.79563
2.92639
2.90939
2.90981
2.9188
2.9854
2.64178
1.44939
0.720641
1.08233
1.80755
3.21215
3.92383
4.22059
4.37955
4.38485
4.44501
4.4311
4.47821
4.45195
4.54728
4.48572
4.50257
4.50835
4.4891
4.45025
4.38717
4.1594
3.7288
3.03906
2.27582
2.16276
2.43793
2.7795
2.38687
1.3584
0.776236
0.667545
5.0388
4.48096
4.78917
6.08856
7.53623
8.29684
7.74842
6.35162
5.06098
4.80698
6.31017
10.7043
14.796
8.84066
1.99855
1.92385
2.25742
2.51647
2.51786
2.70128
3.2256
3.55789
3.50529
3.22233
2.97802
3.03259
3.40924
3.95257
4.44369
4.73689
4.85837
4.92403
4.9323
5.03336
4.94609
4.42919
3.65164
2.87266
2.37105
2.11511
2.17542
2.47509
2.88204
2.6418
1.66626
1.45565
1.49706
1.53223
1.59832
1.70469
1.92675
2.01213
1.98005
1.82514
1.7006
1.63749
1.63002
1.62267
1.5672
1.4948
1.48247
1.53452
1.58778
1.63556
1.64282
1.65498
1.63711
1.74341
1.73899
1.93467
2.29803
2.50438
3.21307
3.84982
2.26617
2.61148
2.12901
1.79706
1.69324
1.71161
1.76739
1.82429
1.92831
2.01442
2.14512
2.21451
2.15417
2.05162
1.81033
1.46027
1.24848
1.26918
1.16078
1.14771
1.14893
1.16615
1.19884
1.23849
1.26042
1.25049
1.22435
1.21092
1.20808
1.3681
1.27991
1.40165
1.6925
1.99821
2.08747
2.26376
2.27066
2.4821
2.583
2.77778
3.16113
3.37547
3.82141
3.97348
4.28716
4.4949
4.66676
4.74148
4.953
4.93963
4.94431
4.96666
4.82878
4.62338
4.29758
3.92462
3.61819
3.46156
3.5916
4.10319
1.70843
2.69705
3.24392
3.73021
3.70045
3.65562
3.60793
3.64942
3.56454
3.53446
3.44541
3.46213
3.41062
3.46116
3.46778
3.68703
3.83423
4.05686
4.17787
4.42937
4.45842
4.67011
4.64922
4.80021
4.64015
4.55594
4.51907
4.28596
3.762
3.38864
2.47573
2.49967
2.34447
2.20236
2.03061
2.15026
2.41855
2.46616
2.14491
1.56023
1.16538
0.920122
0.847165
0.820103
0.830169
0.860943
0.905467
0.957349
0.993007
1.0175
1.02358
1.02415
1.02509
1.04159
1.07687
1.13115
1.16896
1.17171
1.13118
1.1073
3.86709
4.30297
4.43858
4.36566
4.02344
3.54925
3.46673
3.39045
3.47446
3.33493
3.30011
3.04347
2.89805
2.59109
2.47228
2.20506
2.14506
2.17715
2.08366
2.18687
2.10537
2.22946
2.09709
2.32374
2.26021
2.56861
2.7325
2.90238
3.14055
3.48549
2.89623
2.97169
2.73696
2.7845
3.28171
3.70752
3.6872
3.34707
3.03011
2.59034
2.33415
2.04034
2.04606
1.75839
1.84523
1.79515
1.8971
2.05635
2.28115
2.35515
2.76255
2.80654
3.05111
3.0783
3.06855
3.03907
2.95691
2.95662
2.90453
2.62473
3.59888
2.97525
2.55714
2.85366
3.55213
3.73706
3.33996
2.82106
2.44639
2.03566
1.85798
1.7074
1.59801
1.60264
1.49462
1.54341
1.40986
1.51811
1.61833
1.74285
1.87375
2.05325
2.31278
2.44219
2.50984
2.59373
2.61051
2.56959
2.65895
3.06462
2.54391
2.82347
2.77867
2.89918
3.20461
3.20635
3.04994
2.84408
2.46786
2.14168
1.8386
1.65945
1.42588
1.40505
1.39353
1.3835
1.36516
1.35398
1.33646
1.31983
1.30812
1.31185
1.39148
1.54223
1.86999
2.22041
2.64506
2.93845
3.14847
3.24196
2.43398
2.45671
1.70545
1.20147
1.11511
1.16143
1.55529
2.10695
2.34157
2.41641
2.33612
2.2033
2.02592
1.83624
1.7853
1.85907
2.09056
2.37146
2.6183
2.71535
2.79626
2.83753
2.99026
3.01015
3.12884
3.06838
2.98153
2.97707
2.81774
1.58604
0.784702
1.24518
2.98216
3.92995
4.23398
4.40506
4.41788
4.4818
4.4549
4.5101
4.5789
4.63913
4.51665
4.57542
4.58745
4.55968
4.50808
4.49428
4.43103
4.41427
4.25598
3.77258
2.81646
1.91673
1.96096
2.47546
2.43701
1.61463
0.84501
0.722866
4.86232
4.71476
6.05336
8.99627
10.7151
10.7502
9.81062
7.85367
5.70724
4.70112
5.43351
8.94804
14.1426
9.94842
1.93201
2.07354
2.44282
2.5198
2.68508
3.36868
3.97029
3.97317
3.70788
3.25861
2.94252
3.13031
3.7939
4.5009
4.90448
5.00393
5.00575
4.91042
4.94145
4.99556
5.1698
5.22392
4.49829
3.39861
2.57701
2.16038
2.16208
2.47321
3.07701
2.82389
1.66713
1.44343
1.49431
1.52632
1.6377
1.88258
2.02012
1.99397
1.84275
1.67459
1.565
1.55456
1.57716
1.60016
1.52622
1.51685
1.60678
1.71626
1.79148
1.79386
1.78849
1.73433
1.83199
1.70626
1.71795
1.95174
2.11945
2.42445
3.19911
4.09534
2.28609
2.57057
2.14551
1.98858
2.07734
2.18218
2.322
2.41439
2.49048
2.56372
2.64331
2.51361
2.45117
2.16326
1.65096
1.51739
1.25972
1.18191
1.13238
1.1358
1.09656
1.10682
1.14261
1.20053
1.25226
1.26343
1.24148
1.21664
1.20568
1.30887
1.2575
1.37449
1.672
1.90747
2.02076
1.89648
2.08084
2.13161
2.4781
2.68354
3.08619
3.47466
3.5084
3.90812
4.07203
4.48371
4.75383
4.94586
4.85263
4.99782
5.10357
5.15289
5.1235
4.97586
4.65678
4.26461
3.82223
3.52536
3.54212
4.06646
1.92768
2.91242
3.38705
3.6957
3.85198
3.73206
3.86897
3.73894
3.66237
3.41654
3.43821
3.27633
3.38198
3.23037
3.48264
3.56329
3.81043
4.22526
4.37184
4.53726
4.75085
4.80546
4.75255
4.94677
4.70068
4.63394
4.56772
4.36289
3.80937
3.3916
2.4515
2.44815
2.46811
2.58055
2.81507
3.25116
3.4324
3.15875
2.47508
1.56314
1.13489
0.844324
0.800814
0.812282
0.85118
0.906825
0.944905
0.974614
0.987082
0.986199
0.995077
1.0031
1.01417
1.01349
1.02695
1.06989
1.13867
1.16093
1.13214
1.09955
4.0421
4.52577
4.66436
4.36626
3.94358
3.51443
3.68058
3.38881
3.49622
3.36201
3.25688
3.04548
2.89732
2.58446
2.35433
2.11046
2.12182
1.9844
2.06317
2.20854
2.14055
2.32711
2.17214
2.38482
2.36372
2.55686
2.88922
3.01556
3.20844
3.47121
2.70422
2.6697
2.71129
3.32417
3.84704
3.7005
3.18799
2.73476
2.3547
2.2046
2.01548
1.92985
1.85516
1.69453
1.69492
1.58378
1.5964
1.6774
1.96931
2.09214
2.60342
2.74309
3.14922
3.2457
3.26413
3.1373
3.01327
2.95155
2.89263
2.62117
3.22139
2.63685
2.82413
3.87078
3.79428
3.04483
2.40767
1.92611
1.73742
1.56529
1.6105
1.49059
1.55869
1.41425
1.42882
1.32593
1.48709
1.37155
1.40017
1.57104
1.67339
1.75376
2.0216
2.12889
2.23427
2.40807
2.49695
2.48321
2.54339
2.89328
2.57331
2.74983
2.87472
3.34831
3.35973
3.10871
2.84945
2.4206
2.08569
1.83183
1.57825
1.37229
1.34349
1.31037
1.29975
1.28674
1.29513
1.29307
1.2979
1.2984
1.29123
1.27572
1.26988
1.2808
1.42715
1.81867
2.25987
2.71533
2.98264
3.14129
2.43996
1.98648
1.23724
1.12103
1.17869
1.83583
2.59553
2.97772
3.08483
3.05214
2.97433
2.76198
2.46647
2.18727
1.97151
2.05372
2.27023
2.59375
2.67765
2.58744
2.345
2.2414
2.32487
2.65839
2.85336
2.99544
3.01108
2.93056
2.80229
1.68335
0.857269
1.85513
3.65994
4.21361
4.42013
4.42762
4.47504
4.4459
4.52569
4.65814
4.62517
4.5006
4.68642
4.73395
4.73984
4.68513
4.60224
4.48044
4.41345
4.35602
4.35097
4.23807
3.649
2.33336
1.68242
2.25776
2.33703
1.60881
0.915456
0.734075
4.83346
5.13834
7.95819
11.3735
11.6044
10.5688
8.86015
7.19373
5.58831
4.72953
4.98164
7.74366
13.4794
10.4096
1.87523
2.18445
2.46833
2.60206
3.04141
3.79793
4.03592
4.03337
3.67492
3.1759
2.879
3.30642
4.20392
4.86496
5.04399
5.11609
5.17103
5.01474
4.85502
4.83656
5.09033
5.23245
4.86233
3.77942
2.80264
2.26664
2.16476
2.43093
3.07451
2.77463
1.59752
1.44828
1.48781
1.58013
1.77579
2.01157
2.0257
1.92343
1.72024
1.51635
1.50528
1.50638
1.56884
1.59832
1.55078
1.62181
1.80953
1.93551
1.93828
1.85939
1.83654
1.77407
1.7878
1.66391
1.81959
1.82274
2.06789
2.42495
3.25461
4.25973
2.28639
2.57151
2.24122
2.20785
2.4254
2.63218
2.6654
2.71699
2.83462
2.87643
2.80685
2.76998
2.55683
1.96972
1.60421
1.43534
1.16441
1.30678
1.09227
1.08734
1.07796
1.07593
1.10257
1.164
1.23584
1.27116
1.2531
1.22553
1.21342
1.30813
1.22575
1.34917
1.59129
1.83963
1.70556
1.65573
1.68955
2.04046
2.25318
2.71209
2.99361
3.18636
3.35009
3.37366
3.86396
4.27902
4.95692
5.29374
5.49712
5.21706
5.04781
5.05293
5.08681
5.07737
4.84675
4.43176
3.96778
3.60721
3.49183
3.9669
2.06866
3.11437
3.68516
3.94929
3.9882
4.14129
4.11796
3.95054
3.82185
3.51117
3.34212
3.28273
3.22916
3.14253
3.28752
3.43953
3.59545
4.07219
4.2619
4.62759
4.59601
4.91982
4.64998
4.99765
4.66067
4.68104
4.60347
4.39258
3.82077
3.40888
2.42553
2.46917
2.72872
3.09586
3.48395
3.76123
3.70948
3.15804
2.05631
1.31348
1.09726
0.905649
0.923117
1.04312
1.14434
1.19355
1.27512
1.23301
1.2075
1.17736
1.13007
1.09982
1.07922
1.06043
1.0333
1.03783
1.09663
1.14484
1.12635
1.10717
4.17824
4.71642
4.76946
4.34211
3.89932
3.62855
3.57442
3.37646
3.53811
3.32833
3.17138
3.08548
2.73792
2.55407
2.22988
2.24233
1.9748
2.04575
1.95985
2.21857
2.14489
2.41022
2.26366
2.40119
2.47081
2.69154
2.95889
3.16166
3.28385
3.48704
2.71755
2.68118
3.21471
3.89385
3.6716
3.02952
2.54346
2.22169
2.15834
2.06629
2.07197
1.91958
1.82381
1.66429
1.64933
1.57119
1.58156
1.52935
1.79845
1.84774
2.4485
2.72201
3.14139
3.38099
3.41415
3.18635
3.03101
2.9336
2.84161
2.61067
2.90738
2.82381
3.89991
3.89966
2.94303
2.10409
1.769
1.56038
1.53032
1.54314
1.5893
1.59364
1.44777
1.42506
1.29602
1.28333
1.23643
1.38045
1.49224
1.50823
1.686
1.68095
1.84489
1.92493
2.06075
2.1823
2.3312
2.39288
2.44036
2.80954
2.46834
2.67148
3.25836
3.44261
3.1861
2.84837
2.47354
2.07475
1.837
1.5744
1.27007
1.19244
1.14953
1.10324
1.09049
1.07453
1.09471
1.12937
1.1719
1.21459
1.25208
1.26073
1.25102
1.24199
1.26451
1.49941
1.95262
2.43739
2.80983
3.02952
2.31191
1.48402
1.16082
1.1613
1.7675
2.78566
3.33088
3.41667
3.3762
3.40467
3.30561
3.16606
2.91502
2.53229
2.18341
2.14272
2.37322
2.61859
2.58859
2.10468
1.64001
1.49358
1.50519
1.8958
2.43926
2.75931
2.89024
2.87627
2.74865
1.67584
0.8991
2.44411
3.95328
4.40049
4.41679
4.48424
4.44017
4.53337
4.65875
4.54642
4.52653
4.77178
4.83825
4.86479
4.82705
4.83152
4.74077
4.54722
4.47648
4.31528
4.2971
4.31759
4.12342
3.12989
1.69524
1.85514
2.01217
1.36694
0.918822
0.771508
4.89866
5.68678
9.79357
12.0367
10.9202
8.81313
7.04813
5.81764
4.99804
4.62247
4.89771
7.07717
12.4285
10.9391
1.90183
2.23827
2.49711
2.69638
3.1884
3.62607
3.91203
3.93775
3.65684
3.08441
2.84712
3.48188
4.4793
4.96621
5.13463
5.4047
5.77949
5.56044
5.22245
4.81671
5.09517
5.33189
4.99238
3.858
2.82261
2.22032
2.16155
2.55701
3.28232
2.87101
1.60556
1.446
1.51686
1.65735
1.87871
2.05237
1.94293
1.83169
1.60497
1.44991
1.45808
1.49092
1.59058
1.60248
1.60318
1.78559
2.0323
2.06086
1.94722
1.79591
1.79466
1.68503
1.67338
1.80004
1.74212
1.80519
2.12539
2.52533
3.34741
4.49287
2.27453
2.56846
2.32268
2.41816
2.60207
2.68653
2.76361
2.7644
2.81577
2.83626
2.98574
2.82912
2.41653
1.92106
1.55231
1.26902
1.25353
1.25293
1.10326
1.19494
1.08372
1.08669
1.09949
1.15118
1.22788
1.27308
1.26372
1.23212
1.22062
1.22714
1.1925
1.33343
1.5515
1.63982
1.46268
1.30685
1.51444
1.78799
2.24451
2.52629
2.92187
2.79092
2.87895
3.00126
3.31
4.38507
5.0513
5.63013
5.51939
5.4385
5.08764
5.19135
5.39342
5.35617
5.17537
4.50775
4.06942
3.58318
3.41578
3.88647
2.27416
3.27763
3.79129
4.07703
4.26958
4.42645
4.63503
4.23291
3.87537
3.62405
3.43458
3.14374
3.19961
3.10469
3.06238
3.28445
3.30998
3.69637
4.07063
4.34694
4.43402
4.73984
4.57396
4.84366
4.66292
4.74827
4.60991
4.38784
3.83092
3.40398
2.41733
2.56756
3.06434
3.51766
3.80739
3.84802
3.72934
2.935
1.69287
1.30546
1.19352
1.27411
1.62895
2.18037
2.20449
2.12251
2.06532
1.87051
1.93002
1.76674
1.52964
1.28536
1.22717
1.16808
1.09449
1.03072
1.06041
1.1109
1.10226
1.29061
4.3099
4.88536
4.80159
4.23685
3.88601
3.51174
3.47024
3.35494
3.46776
3.09431
3.16865
2.7149
2.55762
2.35192
2.3482
2.08347
2.14096
1.9595
2.00015
2.09489
2.31744
2.43496
2.41708
2.44538
2.63042
2.79822
3.07858
3.26414
3.35878
3.45556
2.57103
2.95339
3.85104
3.76346
3.04289
2.52511
2.1248
2.07795
2.0609
2.18606
2.04441
1.89706
1.76078
1.55865
1.55533
1.54344
1.59982
1.61068
1.75092
1.79237
2.32352
2.88108
3.24343
3.53715
3.42356
3.19425
2.95417
2.8258
2.73843
2.55905
2.84961
3.45344
4.09478
3.12342
2.19869
1.69459
1.54295
1.40249
1.53875
1.49692
1.51593
1.31338
1.23838
1.25132
1.23664
1.2399
1.24945
1.26507
1.27326
1.4667
1.64671
1.66907
1.77243
1.81675
1.8906
1.96966
2.16609
2.28848
2.34484
2.74486
2.53911
3.04209
3.58372
3.32816
2.97515
2.52658
2.26456
1.83075
1.71004
1.21139
1.17154
1.04537
1.0034
0.973206
0.957757
0.945448
0.944697
0.960622
1.0109
1.08705
1.17033
1.2206
1.23881
1.22503
1.23095
1.29853
1.73169
2.25748
2.72344
2.9483
2.02598
1.26944
1.14812
1.44344
2.55194
3.34107
3.51452
3.51849
3.59989
3.60785
3.50734
3.34726
3.21527
2.90277
2.39534
2.24844
2.39488
2.62441
2.50316
1.69614
1.42553
1.4486
1.42191
1.53615
2.10299
2.49834
2.74106
2.80362
2.59749
1.58794
0.940316
2.77716
4.16988
4.42799
4.49703
4.43549
4.45353
4.64623
4.52525
4.6709
4.79211
4.82343
4.6814
4.642
4.59528
4.73567
4.81369
4.64466
4.49722
4.33599
4.27891
4.25435
4.29664
3.82769
1.97597
1.35156
1.42633
1.09436
0.930712
0.773344
4.92247
6.08758
10.6069
11.7098
9.94468
8.28267
6.96085
5.88475
5.21225
4.90432
5.14268
6.49574
11.5007
11.4292
2.05686
2.34682
2.46319
2.59746
2.88303
3.28387
3.88642
4.04349
3.58748
3.03615
2.85586
3.67933
4.5654
4.97606
5.33926
5.84654
6.50169
6.37792
5.90443
5.28669
5.40738
5.58678
4.93381
3.76809
2.82893
2.3506
2.27104
2.69882
3.20596
2.61045
1.47824
1.44831
1.53077
1.74884
1.97583
2.01249
1.91134
1.75105
1.46867
1.40687
1.44398
1.49178
1.6373
1.6365
1.68484
1.97177
2.20292
2.0514
1.86965
1.80242
1.83649
1.76823
1.9131
1.74548
1.82183
1.87208
2.30357
2.56284
3.65944
4.61612
2.27369
2.65331
2.45075
2.5753
2.67043
2.66246
2.65213
2.7281
2.79121
3.00579
3.09778
2.76607
2.4083
1.83598
1.4112
1.30811
1.24923
1.18531
1.1278
1.27909
1.11098
1.13315
1.11003
1.16028
1.23172
1.28457
1.26641
1.2347
1.22103
1.24382
1.16106
1.32798
1.50108
1.42964
1.25618
1.24366
1.28325
1.73015
2.11386
2.53357
2.58694
2.63793
2.31624
2.57996
3.20669
3.96611
5.16114
5.69883
6.0707
5.91917
5.5689
5.26852
5.23515
5.44283
5.10794
4.65641
3.96059
3.60692
3.40004
3.73013
2.43096
3.37602
3.9003
4.27567
4.6852
4.87903
5.00396
4.73182
4.1547
3.58805
3.59899
3.26078
3.05632
3.13599
3.00151
2.98918
3.1005
3.32245
3.66401
4.21142
4.43371
4.61854
4.48707
4.62252
4.80872
4.78492
4.64588
4.3805
3.76444
3.49973
2.40063
2.69594
3.34477
3.72065
3.84931
3.83616
3.73476
2.81485
1.71437
1.41591
1.47351
1.91386
2.67207
2.65524
2.30346
1.92217
1.92908
1.79461
2.12116
1.98033
2.07245
1.9501
1.79026
1.57437
1.28158
1.05859
1.03288
1.08344
1.11962
1.44507
4.45329
5.04353
4.7925
4.28007
3.81171
3.41419
3.40379
3.29719
3.13598
3.05894
2.67388
2.59372
2.41776
2.47976
2.34728
2.46161
2.30195
2.40794
2.264
2.36697
2.34196
2.6074
2.47153
2.59762
2.68223
2.98399
3.17668
3.30233
3.37694
3.38598
2.69068
3.38624
3.90721
3.36756
2.67518
2.19653
1.99546
2.00233
2.0757
2.18335
2.13627
1.94008
1.83304
1.60939
1.59007
1.57485
1.5563
1.50417
1.745
1.99443
2.55547
3.07563
3.48573
3.46843
3.36267
3.00892
2.82201
2.62884
2.61625
2.50293
2.90343
3.86631
3.80478
2.61826
1.8863
1.50485
1.40713
1.37911
1.41965
1.27867
1.20416
1.21919
1.22013
1.20417
1.17769
1.16433
1.1792
1.22366
1.24157
1.43166
1.69056
1.7071
1.75279
1.67066
1.70904
1.7878
2.04544
2.18778
2.24144
2.74104
2.67199
3.51406
3.60047
3.19399
2.77512
2.38913
2.06963
1.75072
1.40442
1.20406
1.04859
1.00583
0.971643
0.954538
0.931232
0.912159
0.903192
0.896593
0.915261
0.989988
1.08606
1.16886
1.20919
1.21033
1.21081
1.25421
1.6114
2.16278
2.5586
2.82901
1.90251
1.2286
1.18634
2.00822
3.06854
3.58975
3.71268
3.75672
3.55161
3.5021
3.49921
3.36979
3.46225
3.16052
2.71951
2.34589
2.50833
2.69925
2.37465
1.64856
1.48303
1.46765
1.4864
1.54389
1.93031
2.46135
2.57142
2.71077
2.40636
1.42398
0.934296
2.84835
4.20271
4.50096
4.45903
4.46533
4.51035
4.63191
4.53232
4.83839
4.57731
4.5221
4.35572
4.50158
4.62142
4.69612
4.8319
4.61768
4.53508
4.35179
4.23588
4.27871
4.32491
4.18535
2.82314
1.22333
1.14403
1.05659
0.912758
0.846327
4.93839
6.10682
10.6484
11.3723
9.81833
8.85133
8.34281
7.90222
6.9877
6.44952
6.03406
6.80961
10.9757
11.8255
10.5801
5.39785
3.33041
4.13509
3.84953
2.95032
2.58791
3.01485
4.15718
4.20913
3.57223
2.96898
2.8544
3.71934
4.54497
4.96373
5.43435
6.09033
6.86977
6.89104
6.66602
6.13378
5.95395
5.48374
4.56312
3.36319
2.59296
2.25006
2.37021
2.895
3.17782
2.81308
2.09723
2.00581
1.76088
1.57934
1.62053
1.82351
1.99438
1.94716
1.79473
1.6481
1.41704
1.41042
1.47203
1.50992
1.6736
1.67309
1.77258
2.14376
2.23189
2.01794
1.85201
1.89078
1.98708
2.08383
1.99309
1.85519
1.87109
2.14214
2.3514
2.91169
4.02119
4.79329
3.7153
2.67444
2.2833
2.6499
2.55411
2.63566
2.67901
2.67894
2.67228
2.64069
2.8646
3.10645
3.12789
2.83841
2.32973
1.63683
1.44871
1.32796
1.21765
1.22588
1.15485
1.24745
1.13872
1.12466
1.14027
1.18841
1.25162
1.28646
1.26957
1.23682
1.22086
1.25723
1.28298
1.26191
1.20309
1.38028
1.37056
1.25039
1.21537
1.21534
1.25804
1.57729
2.11537
2.38964
2.52177
2.19921
2.12707
2.26567
2.89622
3.8455
4.76887
5.47578
5.64566
5.47464
5.41917
5.36272
5.50801
5.26514
5.06084
4.40076
3.92936
3.43474
3.30236
3.6841
3.83476
3.87572
2.74819
3.44924
3.94722
4.33047
4.95628
5.31215
5.54678
5.08198
4.4247
3.63494
3.5431
3.44608
3.125
2.94288
3.05108
2.84021
2.70888
2.95253
3.17943
3.79127
4.07803
4.3799
4.61492
4.44863
5.0158
4.72304
4.62378
4.25047
3.74599
3.58543
3.32395
2.50439
2.52681
2.86149
3.5121
3.8168
3.77852
3.84351
3.70378
3.06368
1.94645
1.57895
1.76765
2.57152
2.88041
2.47672
2.02875
1.6632
1.75399
1.74381
2.10777
2.15683
2.23547
2.47187
2.36713
2.26151
1.88741
1.24628
1.02438
1.18236
1.51989
1.82041
2.63285
4.03291
4.45407
4.95113
4.75656
4.28534
3.69695
3.38143
3.32274
3.06554
3.1116
2.79625
2.60464
2.33777
2.43036
2.42234
2.53769
2.44928
2.3245
2.22345
2.28723
2.34433
2.55409
2.50433
2.69687
2.62213
2.90883
3.04582
3.28673
3.29429
3.30689
3.13034
2.58076
2.23408
2.93292
3.7154
3.55589
3.06904
2.52917
2.11379
1.93326
1.91938
1.99206
2.09482
2.28447
2.2437
2.03871
1.82446
1.69652
1.70918
1.7902
1.91121
2.05743
2.59672
3.06097
3.41883
3.56506
3.46432
3.02278
2.71512
2.40213
2.38441
2.49978
2.53481
2.63709
2.6979
3.32434
3.91124
3.18852
2.39202
1.72686
1.44537
1.3399
1.26314
1.20148
1.15963
1.18071
1.2035
1.19104
1.18495
1.15672
1.14408
1.15177
1.17746
1.20528
1.36858
1.60835
1.58694
1.60031
1.51853
1.53166
1.69052
1.98903
2.10366
2.20848
2.79392
2.71276
2.66923
3.25996
3.76712
3.5037
3.1032
2.67714
2.32015
2.00901
1.685
1.27539
1.19937
1.036
1.00274
0.978065
0.95682
0.935823
0.904328
0.880438
0.867753
0.874602
0.952589
1.04575
1.14021
1.18484
1.19539
1.20032
1.25818
1.60967
2.14535
2.61407
2.71827
2.42298
2.07584
1.57616
1.21356
1.31991
2.43081
3.47127
3.64849
3.71456
3.48974
3.50203
3.67499
3.6729
3.42816
3.49273
3.35164
3.06468
2.44967
2.54105
2.74871
2.56142
1.8545
1.46435
1.49065
1.56952
1.69773
1.98417
2.42023
2.54475
2.55356
2.15181
1.26258
0.941572
0.818985
0.961539
2.86308
4.23696
4.49072
4.49574
4.46889
4.53548
4.62551
4.57258
4.75553
4.45552
4.5974
4.33003
4.5186
4.47565
4.74212
4.64466
4.62208
4.53297
4.31675
4.21434
4.21712
4.30155
4.31252
3.57376
1.37372
1.17278
1.14697
1.42246
2.28241
4.46637
4.53459
4.92995
5.66148
10.1423
11.2726
9.95902
9.381
9.06719
8.28657
7.70035
7.15972
7.22693
7.64794
10.1394
11.8859
12.1478
11.4643
9.46897
10.5734
9.25071
5.61981
3.23622
3.28732
4.70911
4.39904
3.48238
2.97561
2.84123
3.64828
4.40561
4.90727
5.26943
5.85305
6.67765
6.83878
7.02056
6.44221
5.86223
4.89047
3.82338
3.02498
2.61723
2.53481
2.7271
2.9145
2.72483
2.41134
2.0885
1.76801
1.66868
1.55136
1.65748
1.79834
1.92278
1.84215
1.76587
1.45549
1.42519
1.44987
1.49701
1.54312
1.69905
1.69295
1.87657
2.20584
2.25896
2.01721
1.89645
1.98097
2.20521
2.10886
2.16552
1.99082
2.17717
2.2331
2.66309
3.28767
4.46315
4.71362
3.52208
2.68257
2.39089
2.77273
2.7119
2.71834
2.7958
2.69864
2.70549
2.75831
2.98361
3.13247
3.2418
2.83653
2.13081
1.59533
1.45751
1.34933
1.21355
1.27203
1.17862
1.26083
1.17887
1.16907
1.18594
1.22814
1.27082
1.2905
1.26496
1.23681
1.21868
1.26556
1.3106
1.29253
1.27693
1.35341
1.24314
1.21728
1.21406
1.20542
1.23506
1.52841
2.04134
2.39839
2.33072
2.11803
1.89415
2.07587
2.49403
3.4431
4.39438
5.10659
5.34166
5.49641
5.29067
5.48532
5.18558
5.04766
4.58546
4.10028
3.6305
3.45522
3.47746
3.80331
3.86014
3.84448
3.01209
3.4674
3.992
4.41825
5.07026
5.45415
5.74644
5.38515
4.4892
3.7025
3.61088
3.46614
3.28459
2.9945
2.83609
2.8321
2.50299
2.47732
2.69969
3.08544
3.82976
4.26124
4.50312
4.51647
4.91635
4.6292
4.49176
4.1054
3.77396
3.77332
3.21463
2.61558
2.71295
3.21411
3.64611
3.80125
3.7594
3.75764
3.76668
3.424
2.40691
1.77652
1.95817
2.71093
2.95024
2.53458
2.14203
1.96144
1.97778
1.92551
2.26071
2.45498
2.71599
2.80295
2.87197
2.89895
2.51513
1.5172
1.28487
1.45829
1.76436
2.15208
3.74956
4.60279
4.83525
5.10166
4.84517
4.37061
3.79673
3.41089
3.03797
3.17867
2.86115
2.85332
2.43611
2.45171
2.26682
2.23666
2.20379
2.44109
2.51838
2.63939
2.49421
2.64509
2.58125
2.76692
2.60341
2.82667
2.98127
3.26016
3.33818
3.34237
3.19126
2.81711
2.54072
2.72497
3.41482
3.61218
3.40959
3.05773
2.58354
2.17519
1.94989
1.91225
1.99432
2.04983
2.20068
2.36109
2.48515
2.46446
2.3728
2.27229
2.38299
2.58334
2.95164
3.14909
3.53664
3.55002
3.32272
2.91968
2.45921
2.17911
2.30405
2.49359
2.67984
2.85116
3.14085
3.40635
3.99341
3.95052
3.39605
2.55791
1.84581
1.44312
1.26252
1.1651
1.12982
1.15532
1.17976
1.18782
1.20026