/*--------------------------------*- C++ -*----------------------------------*\
| =========                 |                                                 |
| \\      /  F ield         | OpenFOAM: The Open Source CFD Toolbox           |
|  \\    /   O peration     | Version:  2.1.1                                 |
|   \\  /    A nd           | Web:      www.OpenFOAM.org                      |
|    \\/     M anipulation  |                                                 |
\*---------------------------------------------------------------------------*/
FoamFile
{
    version     2.0;
    format      ascii;
    class       volScalarField;
    location    "0.002550000";
    object      H2O;
}
// * * * * * * * * * * * * * * * * * * * * * * * * * * * * * * * * * * * * * //

dimensions      [0 0 0 0 0 0 0];

internalField   nonuniform List<scalar> 
12384
(
0.218416
0.216296
0.209363
0.204596
0.205559
0.209007
0.206439
0.206904
0.20538
0.197417
0.0616995
0.00588635
4.52147e-05
2.29872e-07
0.000317123
0.00322419
0.0133181
0.0388484
0.171145
0.170425
0.169592
0.169388
0.169543
0.170001
0.169195
0.167535
0.165975
0.164461
0.163477
0.163082
0.162941
0.16255
0.162289
0.161668
0.0397919
0.0203304
0.0129217
0.0073919
0.000602883
9.31224e-06
6.69045e-07
3.39e-08
1.2383e-09
6.31042e-11
0.00196332
0.0298064
0.214268
0.218043
0.216151
0.217132
0.222445
0.226919
0.229966
0.231325
0.23286
0.233111
0.233851
0.234034
0.232019
0.230738
0.228022
0.226678
0.225451
0.222861
0.217128
0.214523
0.203339
0.0581699
0.0189218
0.00932969
0.00110005
1.27108e-05
6.38306e-08
2.52407e-10
0.0023822
0.0119637
0.186711
0.238319
0.249042
0.251172
0.251461
0.251442
0.251433
0.251379
0.251579
0.250914
0.25043
0.250016
0.249478
0.246305
0.24379
0.240585
0.0700414
0.024506
0.0151545
0.0106724
0.00848787
0.0021516
0.000116956
6.01005e-07
3.39484e-10
2.09486e-13
1.08262e-16
9.22003e-20
7.76473e-28
1.66665e-26
8.86386e-25
7.41399e-24
2.19666e-23
5.26177e-23
1.25724e-22
3.32242e-22
1.80466e-21
2.56343e-20
5.64216e-19
9.11027e-18
9.75034e-16
6.09111e-14
1.76855e-11
8.85519e-11
1.91209e-10
5.58706e-11
6.08403e-12
5.4804e-14
1.77547e-16
1.36226e-19
6.75245e-23
1.95725e-26
6.25184e-30
2.56234e-33
1.13997e-36
4.84643e-40
1.75356e-43
6.1559e-47
5.83112e-65
1.8909e-65
3.41638e-68
2.91706e-71
1.76766e-74
8.12072e-78
3.20177e-81
9.8048e-85
2.44534e-88
5.11704e-92
9.57489e-96
1.73611e-99
3.13155e-103
5.69538e-107
1.0549e-110
1.94789e-114
3.60822e-118
6.65131e-122
1.24735e-125
2.32856e-129
4.46713e-133
8.58935e-137
1.70732e-140
3.44034e-144
7.21352e-148
1.55968e-151
3.45156e-155
7.8302e-159
1.77339e-162
4.00566e-166
4.85965e-183
3.40674e-185
1.0435e-189
2.17722e-194
2.15914e-199
1.53773e-204
8.35937e-210
3.54918e-215
1.23024e-220
3.71901e-226
9.74057e-232
2.28104e-237
4.77182e-243
9.24294e-249
1.66115e-254
2.8763e-260
4.79311e-266
7.92757e-272
1.29202e-277
2.11365e-283
3.43187e-289
5.60733e-295
9.17917e-301
1.53105e-306
2.62205e-312
4.76278e-318
0
0
0
0
0
0
0
0
0
0
0
0
0
0
0
0
0
0
0
0
0
0
0
0
0
0
0
0
0
0
0
0
0
0
0
0
0
0
0
0
0
0
0
0
0
0
0
0
0
0
0
0
0
0
0
0
0
0
0
0
0
0
0
0
0
0
0
0
0
0
0
0
0
0
0
0
0
0
0
0
0
0
0
0
0
0
0
0
0
0
0
0
0
0
0
0
0
0
0
0
0
0
0
0
0
0
0
0
0
0
0
0
0
0
0
0
0
0
0
0
0
0
0
0
0
0
0
0
0
0
0
0
0
0
0
0
0
0
0
0
0
0
0
0
0
0
0
0
0
0
0
0
0
0
0
0
0
0
0
0
0
0
0
0
0
0
0
0
0
0
0
0
0
0
0
0
0
0
0
0
0
0
0
0
0.211428
0.181232
0.151133
0.132926
0.131173
0.137382
0.141509
0.146238
0.157574
0.163762
0.0312481
0.00225318
2.42497e-05
3.72078e-07
0.00352153
0.0261336
0.158528
0.164457
0.16846
0.168742
0.16861
0.167246
0.167478
0.167178
0.166349
0.165045
0.16381
0.163291
0.161927
0.159988
0.159336
0.159772
0.160606
0.159611
0.159354
0.157588
0.154445
0.149592
0.0143925
0.000365875
2.14557e-05
1.22878e-06
4.28314e-08
1.74404e-09
0.0164653
0.197755
0.211722
0.216147
0.214152
0.215907
0.221773
0.227414
0.230273
0.232196
0.233308
0.234732
0.235673
0.236076
0.236996
0.237992
0.242406
0.246375
0.247818
0.248268
0.238919
0.235129
0.233611
0.23181
0.206774
0.167818
0.0254496
0.0020627
1.0474e-05
5.45952e-08
0.0217984
0.186161
0.192755
0.220401
0.237097
0.248954
0.25148
0.251347
0.251389
0.249777
0.249304
0.249528
0.249683
0.249686
0.249713
0.248818
0.24796
0.244926
0.234951
0.241641
0.250193
0.252194
0.252036
0.0724565
0.0231013
0.00182194
3.91917e-07
2.08887e-10
1.56658e-13
1.13996e-16
3.6094e-25
7.56044e-24
3.72496e-22
3.41724e-21
1.38254e-20
4.20299e-20
1.01553e-19
2.737e-19
1.12046e-18
2.28281e-17
3.01163e-16
7.73859e-15
6.63504e-13
5.05141e-11
1.18609e-08
9.49887e-08
3.84831e-07
9.97511e-08
1.57803e-08
3.08743e-10
1.4443e-12
1.07305e-15
3.24192e-19
2.35447e-23
9.46308e-28
1.29133e-31
2.82902e-35
1.24509e-38
9.77014e-42
5.04497e-45
1.47747e-61
4.8649e-62
8.70247e-65
7.85216e-68
5.5498e-71
2.76427e-74
1.17962e-77
3.4089e-81
7.48294e-85
1.23218e-88
1.56872e-92
1.69921e-96
7.33644e-101
4.03586e-105
2.69609e-109
2.43517e-113
3.30316e-117
6.43213e-121
1.67697e-124
4.12472e-128
1.23647e-131
4.89373e-134
8.11618e-138
3.04973e-141
7.86161e-145
1.9745e-148
4.76849e-152
1.12797e-155
2.54298e-159
5.59642e-163
3.13423e-177
2.43366e-179
7.8654e-184
1.72869e-188
1.70937e-193
1.24572e-198
7.06029e-204
3.02622e-209
1.09462e-214
3.32091e-220
9.08211e-226
2.09434e-231
4.50877e-237
8.43468e-243
1.52015e-248
2.50325e-254
4.06235e-260
6.30103e-266
9.79824e-272
1.50078e-277
2.3161e-283
3.57258e-289
5.59737e-295
8.87829e-301
1.45666e-306
2.51387e-312
4.78278e-318
0
0
0
0
0
0
0
0
0
0
0
0
0
0
0
0
0
0
0
0
0
0
0
0
0
0
0
0
0
0
0
0
0
0
0
0
0
0
0
0
0
0
0
0
0
0
0
0
0
0
0
0
0
0
0
0
0
0
0
0
0
0
0
0
0
0
0
0
0
0
0
0
0
0
0
0
0
0
0
0
0
0
0
0
0
0
0
0
0
0
0
0
0
0
0
0
0
0
0
0
0
0
0
0
0
0
0
0
0
0
0
0
0
0
0
0
0
0
0
0
0
0
0
0
0
0
0
0
0
0
0
0
0
0
0
0
0
0
0
0
0
0
0
0
0
0
0
0
0
0
0
0
0
0
0
0
0
0
0
0
0
0
0
0
0
0
0
0
0
0
0
0
0
0
0
0
0
0
0
0
0
0
0
0.180545
0.1451
0.125946
0.119818
0.115704
0.112938
0.112681
0.115716
0.119239
0.132665
0.059599
0.0142899
0.00122374
1.20611e-05
0.0136979
0.143979
0.152345
0.161969
0.16831
0.170945
0.173365
0.174063
0.172265
0.171868
0.172483
0.173576
0.176311
0.178598
0.174955
0.168491
0.162435
0.15951
0.157354
0.155841
0.151243
0.145839
0.141519
0.138319
0.0222979
0.00349936
0.000659471
4.57377e-05
8.64736e-07
1.4992e-08
0.0270133
0.201335
0.210482
0.213077
0.209318
0.211191
0.217704
0.223715
0.224813
0.226238
0.226453
0.230558
0.229368
0.232059
0.23257
0.246892
0.251941
0.251983
0.251843
0.25176
0.251856
0.251753
0.25183
0.252101
0.248749
0.212546
0.137595
0.00867515
0.000375067
4.19864e-06
0.19041
0.188928
0.195192
0.210168
0.236301
0.248919
0.251302
0.250365
0.247887
0.241428
0.239019
0.24313
0.245457
0.247208
0.247495
0.247822
0.247657
0.247408
0.246762
0.246492
0.250042
0.252116
0.251258
0.250359
0.25039
0.0492723
0.00224134
3.21078e-07
2.23536e-10
2.06623e-13
1.79199e-22
5.99449e-21
3.94704e-19
3.491e-18
1.20984e-17
2.73102e-17
5.45253e-17
1.45153e-16
6.31335e-16
1.31169e-14
1.68603e-13
3.14249e-12
3.27061e-10
2.07357e-08
3.7836e-06
7.11902e-05
0.00037365
9.22919e-05
1.08044e-05
4.30959e-07
2.58866e-09
3.64069e-12
3.37596e-15
1.58141e-18
2.06927e-22
1.42163e-27
3.33445e-32
1.24981e-35
1.3247e-38
7.16828e-42
1.13983e-57
6.50223e-58
1.6004e-60
1.85765e-63
1.63908e-66
8.98865e-70
4.12272e-73
1.31872e-76
2.73649e-80
4.10246e-84
4.31476e-88
3.80977e-92
1.15772e-97
7.77727e-102
6.76233e-106
7.18739e-110
1.15938e-113
2.1892e-117
5.14057e-121
1.08355e-124
2.97932e-128
1.33712e-130
1.52853e-135
6.09201e-138
1.06544e-141
2.45338e-145
4.4555e-149
1.10188e-152
1.65735e-156
1.96911e-160
1.03743e-171
8.7961e-174
2.69595e-178
5.99765e-183
5.50608e-188
4.06903e-193
2.21918e-198
9.96481e-204
3.43399e-209
1.12643e-214
2.957e-220
7.32361e-226
1.51158e-231
2.96881e-237
5.13593e-243
8.42751e-249
1.28955e-254
1.88892e-260
2.7244e-266
3.85189e-272
5.53201e-278
7.88357e-284
1.16056e-289
1.71128e-295
2.64964e-301
4.23265e-307
7.52498e-313
1.54542e-318
0
0
0
0
0
0
0
0
0
0
0
0
0
0
0
0
0
0
0
0
0
0
0
0
0
0
0
0
0
0
0
0
0
0
0
0
0
0
0
0
0
0
0
0
0
0
0
0
0
0
0
0
0
0
0
0
0
0
0
0
0
0
0
0
0
0
0
0
0
0
0
0
0
0
0
0
0
0
0
0
0
0
0
0
0
0
0
0
0
0
0
0
0
0
0
0
0
0
0
0
0
0
0
0
0
0
0
0
0
0
0
0
0
0
0
0
0
0
0
0
0
0
0
0
0
0
0
0
0
0
0
0
0
0
0
0
0
0
0
0
0
0
0
0
0
0
0
0
0
0
0
0
0
0
0
0
0
0
0
0
0
0
0
0
0
0
0
0
0
0
0
0
0
0
0
0
0
0
0
0
0
0
0.146107
0.142269
0.150867
0.159495
0.150231
0.136554
0.13296
0.131387
0.125689
0.113611
0.0932223
0.035888
0.00676592
0.000159138
0.0236346
0.137103
0.158193
0.172217
0.177208
0.183627
0.190684
0.19443
0.203595
0.210938
0.219473
0.223599
0.223332
0.222129
0.215347
0.209806
0.202158
0.191654
0.181902
0.17692
0.165797
0.150738
0.137815
0.12726
0.102142
0.0198448
0.00388864
0.000304397
5.7482e-06
8.71173e-08
0.032745
0.200234
0.209167
0.209455
0.204663
0.202425
0.206888
0.21217
0.214408
0.210242
0.209367
0.20875
0.211083
0.205666
0.206723
0.216537
0.240354
0.251952
0.251979
0.251824
0.25172
0.251535
0.251435
0.251474
0.252254
0.225506
0.155994
0.0253113
0.00207085
8.11484e-05
0.191808
0.189272
0.199217
0.217875
0.236026
0.247951
0.249489
0.248755
0.238458
0.225846
0.223887
0.228661
0.23259
0.233412
0.233273
0.236029
0.240076
0.243721
0.246966
0.248436
0.2505
0.252172
0.251317
0.250341
0.249411
0.24967
0.0527261
0.00178734
3.82098e-07
3.6293e-10
2.17075e-19
1.12056e-17
4.9044e-16
2.95724e-15
6.5868e-15
1.08665e-14
2.2344e-14
6.48637e-14
2.95983e-13
7.54825e-12
9.20932e-11
1.91234e-09
1.64853e-07
1.14788e-05
0.00159864
0.00915208
0.0159198
0.0132353
0.00534528
0.000469212
3.1893e-06
4.74267e-09
4.49106e-12
3.54977e-15
2.29123e-18
4.72429e-22
3.41562e-26
1.60161e-31
4.94678e-35
1.0319e-38
5.509e-53
3.42288e-53
4.75231e-56
3.14559e-59
1.4526e-62
6.00799e-66
2.41878e-69
9.54937e-73
3.54769e-76
1.0894e-79
2.02875e-83
2.32537e-87
2.07723e-91
1.62885e-95
1.33189e-99
1.17555e-103
1.76625e-107
2.97929e-111
7.29816e-115
1.41245e-118
3.93548e-122
7.55008e-126
1.8819e-129
3.34861e-133
6.86539e-137
1.11312e-140
1.91217e-144
3.04389e-148
4.24471e-152
4.77873e-156
1.43295e-165
8.89382e-168
2.15761e-172
3.53013e-177
3.51179e-182
2.51014e-187
1.54879e-192
6.88762e-198
2.66568e-203
8.90233e-209
2.62551e-214
6.54017e-220
1.47433e-225
2.88312e-231
5.2116e-237
8.39416e-243
1.27602e-248
1.78948e-254
2.44993e-260
3.22825e-266
4.2831e-272
5.63547e-278
7.60179e-284
1.03649e-289
1.46462e-295
2.14092e-301
3.3879e-307
6.11322e-313
1.43701e-318
0
0
0
0
0
0
0
0
0
0
0
0
0
0
0
0
0
0
0
0
0
0
0
0
0
0
0
0
0
0
0
0
0
0
0
0
0
0
0
0
0
0
0
0
0
0
0
0
0
0
0
0
0
0
0
0
0
0
0
0
0
0
0
0
0
0
0
0
0
0
0
0
0
0
0
0
0
0
0
0
0
0
0
0
0
0
0
0
0
0
0
0
0
0
0
0
0
0
0
0
0
0
0
0
0
0
0
0
0
0
0
0
0
0
0
0
0
0
0
0
0
0
0
0
0
0
0
0
0
0
0
0
0
0
0
0
0
0
0
0
0
0
0
0
0
0
0
0
0
0
0
0
0
0
0
0
0
0
0
0
0
0
0
0
0
0
0
0
0
0
0
0
0
0
0
0
0
0
0
0
0
0.14704
0.18188
0.204145
0.212303
0.213136
0.218122
0.225009
0.225452
0.210221
0.153443
0.13426
0.100703
0.0262967
0.00303498
0.0533764
0.133439
0.17846
0.191986
0.198202
0.211478
0.228752
0.244281
0.247405
0.248649
0.24875
0.248638
0.24847
0.248846
0.248715
0.24902
0.248211
0.246652
0.239685
0.23059
0.214333
0.183471
0.151369
0.127059
0.108798
0.0741188
0.0110786
0.000913286
1.00208e-05
1.70471e-07
0.0329302
0.200034
0.207244
0.207011
0.201305
0.197017
0.194378
0.195531
0.196033
0.194575
0.189728
0.185688
0.185757
0.191716
0.20443
0.214553
0.221344
0.234701
0.243857
0.247908
0.248689
0.250195
0.252014
0.25187
0.251966
0.241076
0.171373
0.10216
0.00639825
0.000337147
0.193427
0.193813
0.200228
0.221317
0.238874
0.246041
0.246695
0.238475
0.226541
0.220079
0.221357
0.223901
0.224476
0.224766
0.225093
0.225381
0.227293
0.231909
0.236125
0.243023
0.249322
0.252096
0.251847
0.250409
0.248986
0.247841
0.24918
0.0450084
0.000940289
4.54837e-07
4.25576e-16
2.19822e-14
4.73586e-13
1.82485e-12
3.71547e-12
5.67819e-12
9.5919e-12
2.98983e-11
1.56658e-10
5.07157e-09
9.68346e-08
1.99013e-06
0.000131754
0.0041462
0.019456
0.0661053
0.103682
0.118289
0.0736668
0.0256165
0.00308868
5.26285e-06
5.24332e-09
3.86478e-12
2.59543e-15
1.64099e-18
4.54459e-22
3.24149e-26
1.21309e-30
5.09436e-35
1.90064e-48
4.21799e-49
2.4291e-52
8.84597e-56
2.81412e-59
9.27222e-63
3.38735e-66
1.29165e-69
4.84785e-73
1.75803e-76
6.03819e-80
1.71376e-83
3.12659e-87
3.81782e-91
4.00637e-95
4.51323e-99
7.22621e-103
1.58274e-106
3.9097e-110
9.3035e-114
2.59423e-117
5.57075e-121
1.3824e-124
2.73214e-128
5.51005e-132
9.33916e-136
1.50485e-139
2.23068e-143
2.92043e-147
3.36296e-151
9.27623e-161
6.08367e-163
1.36138e-166
1.84592e-171
1.53215e-176
1.0691e-181
6.30235e-187
3.22439e-192
1.37764e-197
5.63638e-203
1.83427e-208
5.38536e-214
1.30884e-219
2.91595e-225
5.48405e-231
9.59247e-237
1.44984e-242
2.09164e-248
2.71902e-254
3.49716e-260
4.23634e-266
5.24064e-272
6.34064e-278
7.98572e-284
1.00258e-289
1.32384e-295
1.83176e-301
2.87481e-307
5.45492e-313
1.45062e-318
0
0
0
0
0
0
0
0
0
0
0
0
0
0
0
0
0
0
0
0
0
0
0
0
0
0
0
0
0
0
0
0
0
0
0
0
0
0
0
0
0
0
0
0
0
0
0
0
0
0
0
0
0
0
0
0
0
0
0
0
0
0
0
0
0
0
0
0
0
0
0
0
0
0
0
0
0
0
0
0
0
0
0
0
0
0
0
0
0
0
0
0
0
0
0
0
0
0
0
0
0
0
0
0
0
0
0
0
0
0
0
0
0
0
0
0
0
0
0
0
0
0
0
0
0
0
0
0
0
0
0
0
0
0
0
0
0
0
0
0
0
0
0
0
0
0
0
0
0
0
0
0
0
0
0
0
0
0
0
0
0
0
0
0
0
0
0
0
0
0
0
0
0
0
0
0
0
0
0
0
0.186674
0.218036
0.227883
0.237696
0.246436
0.248115
0.248481
0.248489
0.245045
0.221274
0.191611
0.162661
0.0864532
0.0133006
0.121667
0.146072
0.190354
0.217098
0.231055
0.243612
0.248783
0.248933
0.248777
0.2489
0.249121
0.249145
0.249114
0.2488
0.248814
0.249052
0.249555
0.249742
0.249329
0.247589
0.241994
0.222658
0.174116
0.13459
0.109648
0.0913417
0.0111936
0.00319861
0.000262793
4.99322e-06
0.0295982
0.198655
0.205142
0.206016
0.202063
0.197241
0.191489
0.188515
0.186586
0.183561
0.176187
0.174701
0.189738
0.227115
0.245684
0.248884
0.248336
0.248969
0.244547
0.241944
0.244431
0.241869
0.237968
0.25191
0.252068
0.22787
0.155069
0.0960261
0.00604971
0.000642737
0.193987
0.190568
0.202727
0.222101
0.229169
0.22907
0.225039
0.218004
0.213134
0.215285
0.221092
0.224536
0.228532
0.231642
0.229981
0.225754
0.222412
0.222325
0.225733
0.232169
0.244402
0.25133
0.252036
0.251194
0.249622
0.247879
0.247723
0.250602
0.0103035
3.89414e-06
1.58299e-12
2.68937e-11
2.99349e-10
9.1156e-10
2.15887e-09
4.01801e-09
8.0108e-09
1.83447e-08
1.52982e-07
2.72139e-06
5.69361e-05
0.000820943
0.00606014
0.0272491
0.0927403
0.243968
0.243709
0.243578
0.244477
0.245285
0.0545561
0.00415755
4.56907e-06
3.52121e-09
2.19223e-12
1.33303e-15
8.28967e-19
2.52256e-22
1.76431e-26
5.35029e-31
2.31436e-44
1.86575e-45
6.45679e-49
1.23279e-52
2.18032e-56
4.54577e-60
1.49257e-63
6.03706e-67
2.42034e-70
9.24173e-74
3.35199e-77
1.18901e-80
3.92286e-84
1.07494e-87
2.34128e-91
4.68451e-95
1.1095e-98
3.09802e-102
9.04359e-106
2.60852e-109
7.74829e-113
1.89337e-116
5.07637e-120
1.08485e-123
2.38453e-127
4.14985e-131
7.20696e-135
1.03324e-138
1.39485e-142
1.56302e-146
3.1755e-156
1.89934e-158
4.78352e-162
8.63124e-166
5.7394e-171
2.91625e-176
1.40081e-181
6.44343e-187
3.13855e-192
1.47582e-197
6.24622e-203
2.21777e-208
6.81231e-214
1.74611e-219
3.90321e-225
7.3977e-231
1.24013e-236
1.83085e-242
2.47672e-248
3.09503e-254
3.67831e-260
4.23952e-266
4.81918e-272
5.508e-278
6.22823e-284
7.22669e-290
8.74201e-296
1.1729e-301
1.82782e-307
3.51378e-313
0
0
0
0
0
0
0
0
0
0
0
0
0
0
0
0
0
0
0
0
0
0
0
0
0
0
0
0
0
0
0
0
0
0
0
0
0
0
0
0
0
0
0
0
0
0
0
0
0
0
0
0
0
0
0
0
0
0
0
0
0
0
0
0
0
0
0
0
0
0
0
0
0
0
0
0
0
0
0
0
0
0
0
0
0
0
0
0
0
0
0
0
0
0
0
0
0
0
0
0
0
0
0
0
0
0
0
0
0
0
0
0
0
0
0
0
0
0
0
0
0
0
0
0
0
0
0
0
0
0
0
0
0
0
0
0
0
0
0
0
0
0
0
0
0
0
0
0
0
0
0
0
0
0
0
0
0
0
0
0
0
0
0
0
0
0
0
0
0
0
0
0
0
0
0
0
0
0
0
0
0.22289
0.233561
0.241294
0.247817
0.247289
0.247399
0.24895
0.24885
0.217552
0.183194
0.165646
0.165383
0.122795
0.0188843
0.131047
0.180048
0.228058
0.243379
0.247771
0.248743
0.247981
0.247461
0.247519
0.247446
0.247609
0.246798
0.246486
0.246749
0.247666
0.249063
0.249918
0.250583
0.25019
0.246832
0.242661
0.235306
0.196266
0.146844
0.115762
0.10268
0.013688
0.0266867
0.00192719
3.9706e-05
0.0293138
0.19841
0.205143
0.207622
0.207223
0.20442
0.202672
0.198472
0.190595
0.180803
0.17376
0.194523
0.239929
0.247717
0.248516
0.249259
0.249631
0.249272
0.249691
0.248912
0.24796
0.208925
0.186455
0.209646
0.219465
0.183479
0.145257
0.11642
0.0112595
0.00390482
0.193292
0.192531
0.208082
0.219736
0.216371
0.208504
0.201686
0.199711
0.201137
0.206509
0.21394
0.223646
0.232804
0.234612
0.227834
0.222033
0.222603
0.230027
0.235905
0.242214
0.248514
0.251995
0.252053
0.25147
0.250725
0.249152
0.247238
0.248165
0.0758221
0.00312997
5.09044e-09
2.87023e-08
1.41451e-07
3.58319e-07
1.01838e-06
2.18939e-06
4.1189e-06
8.8768e-06
3.39792e-05
0.000440608
0.00515411
0.0157667
0.03235
0.103027
0.243524
0.243382
0.242413
0.242186
0.242607
0.243241
0.243565
0.043418
0.00229945
2.22458e-06
1.5103e-09
8.30843e-13
4.74404e-16
2.8875e-19
9.14127e-23
3.89731e-27
1.59619e-40
5.88405e-42
1.09354e-45
1.64866e-49
4.29493e-54
2.75074e-58
8.88237e-62
4.24324e-65
2.04603e-68
1.01395e-71
4.95213e-75
2.43279e-78
1.25382e-81
6.55041e-85
3.27021e-88
1.50625e-91
6.443e-95
2.56816e-98
9.51102e-102
3.23771e-105
1.09234e-108
3.142e-112
9.10841e-116
2.24749e-119
5.36927e-123
1.08076e-126
2.00079e-130
3.12169e-134
4.15178e-138
4.78368e-142
4.56418e-152
2.71645e-154
6.7973e-158
1.47786e-161
2.63328e-165
1.04368e-170
3.59352e-176
1.34055e-181
5.04135e-187
2.09788e-192
8.78228e-198
4.07371e-203
1.63572e-208
5.77176e-214
1.57671e-219
3.70022e-225
6.9449e-231
1.16247e-236
1.64531e-242
2.16743e-248
2.554e-254
2.92226e-260
3.15717e-266
3.36676e-272
3.39261e-278
3.457e-284
3.64268e-290
4.22494e-296
5.47283e-302
8.06684e-308
0
0
0
0
0
0
0
0
0
0
0
0
0
0
0
0
0
0
0
0
0
0
0
0
0
0
0
0
0
0
0
0
0
0
0
0
0
0
0
0
0
0
0
0
0
0
0
0
0
0
0
0
0
0
0
0
0
0
0
0
0
0
0
0
0
0
0
0
0
0
0
0
0
0
0
0
0
0
0
0
0
0
0
0
0
0
0
0
0
0
0
0
0
0
0
0
0
0
0
0
0
0
0
0
0
0
0
0
0
0
0
0
0
0
0
0
0
0
0
0
0
0
0
0
0
0
0
0
0
0
0
0
0
0
0
0
0
0
0
0
0
0
0
0
0
0
0
0
0
0
0
0
0
0
0
0
0
0
0
0
0
0
0
0
0
0
0
0
0
0
0
0
0
0
0
0
0
0
0
0
0.237577
0.242269
0.246998
0.246367
0.245093
0.247642
0.24962
0.202296
0.168934
0.156363
0.137514
0.142849
0.130576
0.0645124
0.147693
0.218727
0.244749
0.248241
0.248504
0.247596
0.246987
0.246545
0.246361
0.245719
0.245277
0.244862
0.245516
0.247952
0.250681
0.248914
0.228767
0.21437
0.218325
0.224275
0.232331
0.23151
0.195074
0.146768
0.117056
0.106191
0.106135
0.131692
0.0102428
0.000224699
0.0309424
0.197826
0.207204
0.212918
0.216601
0.224393
0.229107
0.22453
0.209152
0.179598
0.185548
0.238194
0.247024
0.24925
0.250342
0.250715
0.250222
0.249469
0.248792
0.249392
0.247736
0.17428
0.153657
0.157649
0.160548
0.153971
0.151662
0.14523
0.0502724
0.0245037
0.192286
0.199433
0.208359
0.216824
0.213534
0.203289
0.200697
0.20741
0.209852
0.207567
0.209102
0.218388
0.230538
0.232046
0.227139
0.230668
0.248163
0.251996
0.251772
0.251704
0.251799
0.251808
0.251652
0.25139
0.25117
0.250314
0.248356
0.247587
0.25061
0.0165565
1.26238e-05
1.86374e-05
2.67094e-05
5.12865e-05
0.000175427
0.000478566
0.000917805
0.00152037
0.00393159
0.0117735
0.0263577
0.0788852
0.124212
0.243403
0.24401
0.242969
0.242161
0.242046
0.242252
0.242576
0.242815
0.135504
0.0238825
0.000779266
3.94742e-07
1.85314e-10
9.60039e-14
6.47321e-17
4.3321e-20
3.22683e-24
6.29506e-37
1.37587e-38
1.22094e-42
1.63888e-47
3.66723e-52
1.00914e-56
8.67501e-60
1.22022e-62
1.16413e-65
8.59184e-69
5.29964e-72
2.92647e-75
1.75239e-78
1.05232e-81
6.33757e-85
3.56883e-88
1.88876e-91
9.31397e-95
4.17187e-98
1.73818e-101
6.72413e-105
2.27092e-108
7.27788e-112
2.0241e-115
5.27539e-119
1.16841e-122
2.38252e-126
4.00823e-130
5.94288e-134
7.33801e-138
3.02005e-148
1.58148e-150
3.91529e-154
8.83647e-158
1.84473e-161
3.60435e-165
9.08956e-171
2.61258e-176
8.20272e-182
2.74813e-187
9.77612e-193
3.69859e-198
1.48827e-203
6.52648e-209
2.5392e-214
7.7138e-220
1.79985e-225
3.50387e-231
5.58731e-237
7.9222e-243
9.77858e-249
1.13518e-254
1.21388e-260
1.21872e-266
1.11062e-272
1.02101e-278
9.64163e-285
9.97232e-291
1.10459e-296
1.29623e-302
5.13828e-322
0
0
0
0
0
0
0
0
0
0
0
0
0
0
0
0
0
0
0
0
0
0
0
0
0
0
0
0
0
0
0
0
0
0
0
0
0
0
0
0
0
0
0
0
0
0
0
0
0
0
0
0
0
0
0
0
0
0
0
0
0
0
0
0
0
0
0
0
0
0
0
0
0
0
0
0
0
0
0
0
0
0
0
0
0
0
0
0
0
0
0
0
0
0
0
0
0
0
0
0
0
0
0
0
0
0
0
0
0
0
0
0
0
0
0
0
0
0
0
0
0
0
0
0
0
0
0
0
0
0
0
0
0
0
0
0
0
0
0
0
0
0
0
0
0
0
0
0
0
0
0
0
0
0
0
0
0
0
0
0
0
0
0
0
0
0
0
0
0
0
0
0
0
0
0
0
0
0
0
0.243711
0.245654
0.24638
0.24423
0.244887
0.249379
0.228473
0.192789
0.197423
0.204908
0.17409
0.142377
0.129855
0.088549
0.0934306
0.137953
0.163993
0.234967
0.247552
0.248634
0.248109
0.247451
0.246726
0.245781
0.245036
0.244115
0.243874
0.245068
0.248366
0.251431
0.190551
0.154413
0.148687
0.15854
0.180689
0.201988
0.214881
0.204884
0.172592
0.138643
0.120288
0.115123
0.128694
0.153238
0.00878205
0.000248146
0.000227769
0.00434684
0.0439669
0.200778
0.210907
0.219692
0.230271
0.241908
0.2476
0.243988
0.203527
0.178211
0.208492
0.242521
0.249646
0.251124
0.249755
0.250812
0.251128
0.249804
0.248537
0.249146
0.246563
0.17102
0.145602
0.141195
0.145227
0.15081
0.155803
0.16018
0.159381
0.065901
0.0792634
0.189793
0.195275
0.198028
0.210935
0.21903
0.21802
0.21395
0.216591
0.227279
0.231867
0.220012
0.211674
0.217444
0.230047
0.23286
0.232535
0.245834
0.252044
0.250266
0.248826
0.248918
0.249732
0.250511
0.250967
0.251054
0.250818
0.250339
0.249128
0.247433
0.24788
0.23837
0.0617632
0.00942121
0.00941148
0.00748745
0.00296171
0.00308029
0.00631574
0.0114925
0.0179828
0.0339415
0.048121
0.0671686
0.0898809
0.243719
0.245733
0.243888
0.242986
0.242583
0.24228
0.242233
0.242389
0.242632
0.242854
0.243027
0.0901359
0.01066
1.31078e-05
1.32297e-08
1.15712e-11
8.26282e-15
5.52493e-18
2.44047e-21
4.11552e-25
7.41706e-29
1.97669e-33
1.09495e-37
6.46454e-42
4.25404e-46
3.53238e-50
1.76834e-53
2.1086e-56
2.35056e-59
1.81837e-62
1.23251e-65
7.09052e-69
4.59747e-72
3.92926e-75
2.53426e-78
1.50302e-81
8.31272e-85
4.44447e-88
2.25385e-91
1.0364e-94
4.73007e-98
1.92479e-101
7.25311e-105
2.49241e-108
7.95459e-112
2.19241e-115
5.7875e-119
1.31123e-122
2.72615e-126
4.92009e-130
7.39724e-134
1.40841e-137
3.87557e-141
1.27246e-144
4.6749e-148
1.6353e-151
5.45373e-155
1.68396e-158
5.06134e-162
1.44123e-165
4.03401e-171
1.11923e-176
3.18988e-182
9.5981e-188
3.08293e-193
1.06286e-198
3.97835e-204
1.62534e-209
6.07046e-215
1.75605e-220
3.95914e-226
7.23096e-232
1.10746e-237
1.47163e-243
1.74545e-249
1.90747e-255
1.89722e-261
1.71126e-267
1.47865e-273
1.288e-279
1.14838e-285
1.03701e-291
9.31946e-298
8.36134e-304
7.58825e-310
6.91364e-316
6.17582e-322
0
0
0
0
0
0
0
0
0
0
0
0
0
0
0
0
0
0
0
0
0
0
0
0
0
0
0
0
0
0
0
0
0
0
0
0
0
0
0
0
0
0
0
0
0
0
0
0
0
0
0
0
0
0
0
0
0
0
0
0
0
0
0
0
0
0
0
0
0
0
0
0
0
0
0
0
0
0
0
0
0
0
0
0
0
0
0
0
0
0
0
0
0
0
0
0
0
0
0
0
0
0
0
0
0
0
0
0
0
0
0
0
0
0
0
0
0
0
0
0
0
0
0
0
0
0
0
0
0
0
0
0
0
0
0
0
0
0
0
0
0
0
0
0
0
0
0
0
0
0
0
0
0
0
0
0
0
0
0
0
0
0
0
0
0
0
0
0
0
0
0
0
0
0
0
0
0
0
0
0
0
0
0
0
0
0
0
0
0
0
0.245184
0.245755
0.244756
0.243359
0.245498
0.249398
0.229245
0.210059
0.215801
0.220231
0.213067
0.165259
0.138593
0.106217
0.10197
0.128053
0.165195
0.235811
0.24769
0.248629
0.248556
0.247762
0.246406
0.244786
0.243798
0.24342
0.244596
0.248332
0.25136
0.172844
0.139744
0.135762
0.142941
0.154379
0.169309
0.17887
0.175432
0.162202
0.14549
0.134082
0.130645
0.1385
0.158141
0.158299
0.00571405
0.0028993
0.00377299
0.0120827
0.0657331
0.20868
0.220526
0.229219
0.23952
0.247665
0.249557
0.244773
0.208411
0.178903
0.196052
0.22919
0.245662
0.247598
0.247614
0.249215
0.251407
0.249533
0.248363
0.248899
0.251765
0.217485
0.176182
0.156588
0.150811
0.152578
0.157583
0.16139
0.175174
0.180848
0.0764168
0.19048
0.196203
0.207936
0.216944
0.227179
0.228283
0.227277
0.230654
0.23742
0.24151
0.232028
0.220027
0.223071
0.231915
0.231928
0.235856
0.250003
0.251528
0.249169
0.246898
0.24699
0.248079
0.249175
0.249824
0.249752
0.249034
0.247924
0.247368
0.246763
0.246884
0.248658
0.247618
0.251508
0.236681
0.208827
0.0891135
0.0394212
0.0425066
0.0754463
0.210854
0.248082
0.251172
0.250852
0.249734
0.247823
0.245704
0.243864
0.242734
0.2424
0.242235
0.242276
0.242484
0.242633
0.242881
0.243062
0.243082
0.0498936
0.00306951
2.33315e-06
1.48791e-09
8.76699e-13
4.41393e-16
2.33401e-19
5.51118e-23
1.08271e-26
1.69906e-30
2.21157e-34
2.72919e-38
2.83119e-42
3.91427e-46
8.93334e-50
4.82255e-53
3.57706e-56
2.48245e-59
1.48686e-62
8.03432e-66
3.99891e-69
1.86815e-72
8.32248e-76
3.61506e-79
1.55353e-82
6.67005e-86
2.82849e-89
1.17547e-92
4.79864e-96
1.90675e-99
7.22246e-103
2.71897e-106
9.71372e-110
3.4014e-113
1.166e-116
3.83672e-120
1.24372e-123
3.86394e-127
1.11744e-130
3.31621e-134
9.67312e-138
3.0908e-141
9.81106e-145
3.13414e-148
9.69163e-152
2.97091e-155
8.82267e-159
2.58774e-162
7.37793e-166
1.70184e-171
3.49515e-177
8.19362e-183
2.1303e-188
6.04695e-194
1.88157e-199
6.39792e-205
2.14118e-210
5.88458e-216
1.29104e-221
2.28427e-227
3.44055e-233
4.48071e-239
5.24523e-245
5.60587e-251
5.6459e-257
5.32714e-263
4.73706e-269
4.11855e-275
3.6415e-281
3.28275e-287
2.97732e-293
2.72257e-299
2.52915e-305
2.3826e-311
2.32854e-317
4.94066e-324
0
0
0
0
0
0
0
0
0
0
0
0
0
0
0
0
0
0
0
0
0
0
0
0
0
0
0
0
0
0
0
0
0
0
0
0
0
0
0
0
0
0
0
0
0
0
0
0
0
0
0
0
0
0
0
0
0
0
0
0
0
0
0
0
0
0
0
0
0
0
0
0
0
0
0
0
0
0
0
0
0
0
0
0
0
0
0
0
0
0
0
0
0
0
0
0
0
0
0
0
0
0
0
0
0
0
0
0
0
0
0
0
0
0
0
0
0
0
0
0
0
0
0
0
0
0
0
0
0
0
0
0
0
0
0
0
0
0
0
0
0
0
0
0
0
0
0
0
0
0
0
0
0
0
0
0
0
0
0
0
0
0
0
0
0
0
0
0
0
0
0
0
0
0
0
0
0
0
0
0
0
0
0
0
0
0
0
0
0
0.244532
0.244859
0.243797
0.243095
0.24541
0.249263
0.231767
0.213908
0.217578
0.22158
0.21501
0.186482
0.152998
0.121344
0.127691
0.162866
0.204808
0.243992
0.246961
0.248135
0.248915
0.247581
0.245548
0.24382
0.243219
0.243997
0.247861
0.251681
0.188173
0.142526
0.132339
0.136032
0.142158
0.147486
0.150218
0.148247
0.144379
0.141722
0.143365
0.149851
0.160432
0.170828
0.174799
0.171207
0.171714
0.181943
0.187417
0.194439
0.187871
0.201837
0.219512
0.232821
0.242083
0.247185
0.248299
0.248097
0.233258
0.193142
0.186312
0.212284
0.241605
0.249174
0.252235
0.251481
0.24974
0.248066
0.247558
0.248897
0.250634
0.251844
0.246134
0.210044
0.170782
0.152509
0.157575
0.169371
0.173956
0.175525
0.179285
0.198998
0.202347
0.213225
0.223386
0.228799
0.231272
0.232099
0.233377
0.237416
0.241074
0.238707
0.233228
0.23285
0.232789
0.230282
0.235719
0.251206
0.251832
0.249889
0.247729
0.246026
0.245781
0.246365
0.246848
0.246693
0.24584
0.24483
0.244475
0.244586
0.245216
0.245956
0.246326
0.247094
0.248746
0.251229
0.251545
0.250228
0.251206
0.249492
0.249834
0.249389
0.249447
0.249768
0.249529
0.248385
0.246157
0.244057
0.242712
0.24241
0.242219
0.242265
0.242425
0.242657
0.242867
0.243087
0.243204
0.124309
0.0218864
0.000662144
1.63876e-07
3.98834e-11
1.41285e-14
5.67072e-18
1.41322e-21
2.00116e-25
2.87547e-29
3.87637e-33
4.97274e-37
6.74896e-41
8.74131e-45
1.87414e-48
5.54312e-52
2.74912e-55
1.368e-58
7.15666e-62
3.39833e-65
1.57244e-68
6.94291e-72
2.96774e-75
1.23277e-78
5.0579e-82
2.05353e-85
8.37602e-89
3.35732e-92
1.33986e-95
5.23785e-99
1.98254e-102
7.56577e-106
2.75239e-109
1.0096e-112
3.61273e-116
1.28187e-119
4.56565e-123
1.58977e-126
5.59785e-130
1.91634e-133
6.49386e-137
2.17873e-140
7.06681e-144
2.27462e-147
7.20765e-151
2.27791e-154
7.09829e-158
2.20239e-161
6.71387e-165
7.51629e-169
4.84989e-175
3.49222e-181
3.80646e-187
7.39389e-193
2.13577e-198
7.47005e-204
2.8171e-209
9.37446e-215
2.46921e-220
5.26778e-226
9.36484e-232
1.42729e-237
1.9033e-243
2.29534e-249
2.54091e-255
2.65535e-261
2.64761e-267
2.54022e-273
2.36897e-279
2.21842e-285
2.0953e-291
2.01294e-297
1.97559e-303
1.99388e-309
2.09858e-315
2.32705e-321
0
0
0
0
0
0
0
0
0
0
0
0
0
0
0
0
0
0
0
0
0
0
0
0
0
0
0
0
0
0
0
0
0
0
0
0
0
0
0
0
0
0
0
0
0
0
0
0
0
0
0
0
0
0
0
0
0
0
0
0
0
0
0
0
0
0
0
0
0
0
0
0
0
0
0
0
0
0
0
0
0
0
0
0
0
0
0
0
0
0
0
0
0
0
0
0
0
0
0
0
0
0
0
0
0
0
0
0
0
0
0
0
0
0
0
0
0
0
0
0
0
0
0
0
0
0
0
0
0
0
0
0
0
0
0
0
0
0
0
0
0
0
0
0
0
0
0
0
0
0
0
0
0
0
0
0
0
0
0
0
0
0
0
0
0
0
0
0
0
0
0
0
0
0
0
0
0
0
0
0
0
0
0
0
0
0
0
0
0
0.243586
0.243875
0.243282
0.243041
0.245152
0.249037
0.235442
0.218453
0.220308
0.225204
0.221847
0.207553
0.181587
0.160898
0.1919
0.217802
0.232622
0.23829
0.238578
0.246946
0.248787
0.246438
0.244426
0.243265
0.243201
0.246071
0.251059
0.211689
0.155167
0.134532
0.129921
0.133419
0.138455
0.140505
0.141825
0.14164
0.142432
0.145303
0.152231
0.163727
0.174753
0.18035
0.182742
0.184634
0.18812
0.193441
0.203722
0.209007
0.208827
0.206812
0.220549
0.233278
0.240647
0.245556
0.246815
0.248976
0.249014
0.229552
0.21616
0.230833
0.248299
0.251709
0.251428
0.249353
0.247094
0.246097
0.247079
0.2492
0.250628
0.251847
0.250108
0.220299
0.179518
0.164656
0.171902
0.185416
0.189398
0.193469
0.20189
0.206399
0.208364
0.209116
0.210519
0.213302
0.21838
0.223049
0.230282
0.236493
0.244318
0.244189
0.240713
0.235819
0.229238
0.22319
0.234953
0.250594
0.2519
0.25133
0.250463
0.249051
0.247523
0.246183
0.245229
0.244603
0.244181
0.243999
0.244088
0.244458
0.244631
0.244985
0.245106
0.244839
0.245193
0.245332
0.246771
0.247837
0.248205
0.247501
0.247124
0.246211
0.245793
0.246196
0.247048
0.246834
0.24568
0.244118
0.242943
0.242437
0.242293
0.242421
0.242536
0.242718
0.242921
0.243102
0.243249
0.243307
0.0730468
0.00800674
4.12692e-06
1.9903e-09
7.31419e-13
2.13038e-16
2.7536e-20
3.51235e-24
3.56965e-28
4.14761e-32
5.04712e-36
5.53176e-40
6.22322e-44
6.70979e-48
1.27031e-51
3.18665e-55
1.32647e-58
5.46174e-62
2.54054e-65
1.1055e-68
4.7593e-72
1.98869e-75
8.12642e-79
3.23104e-82
1.2713e-85
4.92008e-89
1.89293e-92
7.29138e-96
2.74773e-99
1.0295e-102
3.83078e-106
1.38362e-109
5.11833e-113
1.83656e-116
6.67811e-120
2.41149e-123
8.63494e-127
3.13002e-130
1.10394e-133
3.83763e-137
1.31224e-140
4.31618e-144
1.41143e-147
4.49094e-151
1.43371e-154
4.47132e-158
1.39693e-161
4.26972e-165
8.97289e-171
2.03606e-176
4.93342e-182
1.29902e-187
3.66045e-193
1.12698e-198
3.73456e-204
1.29021e-209
3.90035e-215
9.41343e-221
1.84864e-226
3.07279e-232
4.41784e-238
5.67313e-244
6.67033e-250
7.31832e-256
7.69275e-262
7.86236e-268
8.00372e-274
8.1945e-280
8.53509e-286
9.04327e-292
9.84886e-298
1.09998e-303
1.26472e-309
1.50235e-315
1.83792e-321
0
0
0
0
0
0
0
0
0
0
0
0
0
0
0
0
0
0
0
0
0
0
0
0
0
0
0
0
0
0
0
0
0
0
0
0
0
0
0
0
0
0
0
0
0
0
0
0
0
0
0
0
0
0
0
0
0