/*--------------------------------*- C++ -*----------------------------------*\
| =========                 |                                                 |
| \\      /  F ield         | OpenFOAM: The Open Source CFD Toolbox           |
|  \\    /   O peration     | Version:  2.1.1                                 |
|   \\  /    A nd           | Web:      www.OpenFOAM.org                      |
|    \\/     M anipulation  |                                                 |
\*---------------------------------------------------------------------------*/
FoamFile
{
    version     2.0;
    format      ascii;
    class       volScalarField;
    location    "0.002550000";
    object      rhoUnburned;
}
// * * * * * * * * * * * * * * * * * * * * * * * * * * * * * * * * * * * * * //

dimensions      [1 -3 0 0 0 0 0];

internalField   nonuniform List<scalar> 
12384
(
1.34673
1.39026
1.63029
2.25106
3.6369
3.53701
3.556
3.52858
3.61196
3.85435
3.75668
2.44646
2.41655
2.47893
1.96207
2.21268
2.44443
3.19049
3.45224
3.27041
3.19249
3.24064
3.09131
3.12362
3.10764
3.09756
3.11466
3.08149
3.03751
3.09484
2.97525
3.05857
3.46338
2.96643
3.12963
2.53739
2.2988
2.20993
2.05208
1.92199
1.77746
1.66402
1.58959
1.6259
1.70643
2.45563
2.39992
2.38619
2.42147
2.31823
2.53626
2.37384
2.83079
2.54047
3.34141
3.05212
3.8159
4.17664
4.25955
4.5557
4.1037
4.24357
4.10405
3.35871
3.94051
4.94284
7.06857
4.83951
3.69672
3.34875
3.33559
3.45985
3.33304
3.24462
3.78486
3.65906
6.93495
4.43611
4.47947
4.28204
3.51722
3.34966
3.34641
3.35094
3.30138
3.38682
3.29164
3.49453
3.32389
3.39864
3.44964
3.89891
4.11566
3.46252
3.716
4.03873
4.44569
4.35499
4.55865
4.13564
3.8328
2.39255
2.36998
2.26246
1.56427
1.57494
1.60015
1.61527
1.60742
1.59764
1.60375
1.54408
1.63775
1.4702
1.7976
1.50567
1.98743
2.00305
2.09189
2.43395
2.43121
2.57463
2.72925
2.86811
3.02021
3.19077
3.268
3.24392
3.16371
3.04483
2.96962
2.71104
2.40503
2.52266
1.23946
1.2492
1.29592
1.297
1.36121
1.37838
1.42988
1.45302
1.47795
1.48316
1.47738
1.45952
1.43655
1.37692
1.34137
1.30034
1.23432
1.24755
1.22017
1.20444
1.21165
1.18239
1.19147
1.16532
1.14401
1.15541
1.11962
1.13531
1.11319
1.12072
0.919584
0.91884
0.918521
0.917812
0.915722
0.913071
0.912132
0.90764
0.907249
0.90232
0.902073
0.897082
0.897365
0.892185
0.893166
0.887882
0.889275
0.884418
0.885505
0.881581
0.882483
0.879081
0.88011
0.877285
0.878139
0.876025
0.876741
0.875313
0.875822
0.874805
0.866614
0.86702
0.866993
0.867015
0.866894
0.866884
0.866766
0.866739
0.866602
0.866609
0.866434
0.866497
0.866315
0.866401
0.866217
0.866288
0.866097
0.866145
0.865977
0.866009
0.865931
0.865876
0.865882
0.86581
0.865809
0.865761
0.865758
0.865722
0.8657
0.865259
0.865173
0.865606
0.865631
0.865642
0.86565
0.865664
0.865673
0.865684
0.86569
0.865703
0.865712
0.865728
0.865754
0.865776
0.865789
0.865789
0.865775
0.865755
0.86573
0.865717
0.865707
0.865693
0.865684
0.865672
0.865661
0.865646
0.865641
0.865627
0.865603
0.86517
0.865166
0.865595
0.865626
0.865642
0.865647
0.865663
0.865675
0.865683
0.865694
0.865706
0.865715
0.865727
0.86575
0.865771
0.865785
0.865789
0.865779
0.865757
0.865726
0.865709
0.865701
0.865687
0.865675
0.865665
0.865655
0.86564
0.865635
0.865624
0.865599
0.865166
0.865168
0.8656
0.865627
0.865639
0.865646
0.865661
0.865671
0.865683
0.86569
0.865702
0.865712
0.865727
0.865752
0.865773
0.865789
0.865791
0.865777
0.865756
0.86573
0.865718
0.865707
0.865693
0.865684
0.865672
0.86566
0.865645
0.865641
0.865628
0.865604
0.865167
0.865163
0.865598
0.865626
0.865637
0.865638
0.865656
0.865667
0.865677
0.865692
0.865704
0.865715
0.865732
0.865754
0.865777
0.865792
0.865789
0.865779
0.865758
0.865731
0.865716
0.86571
0.865695
0.865684
0.865672
0.865664
0.865649
0.865643
0.86563
0.865606
0.86517
0.865168
0.865604
0.865627
0.865643
0.865651
0.865666
0.865674
0.865687
0.865696
0.865706
0.865716
0.865732
0.865754
0.865778
0.865789
0.865797
0.865781
0.865764
0.865745
0.865731
0.865717
0.865704
0.865688
0.86568
0.865667
0.865652
0.865644
0.865637
0.865608
0.865173
1.38126
1.55893
1.75395
2.01786
2.64505
3.85561
3.86484
3.79349
3.93998
3.75097
3.458
2.55029
2.47342
2.4948
2.19617
2.91441
3.56283
3.40185
3.43556
3.30456
3.32926
3.18961
3.23073
3.10443
3.15716
3.14099
3.10323
3.10218
3.0483
3.0361
3.02858
2.9249
2.94616
3.51378
2.94535
2.93895
3.03393
3.08409
2.42259
2.02819
1.84707
1.77267
1.60459
1.62813
2.05717
2.47995
2.4201
2.42647
2.39138
2.36664
2.51921
2.42476
2.81232
2.57615
3.28557
3.26394
3.83753
3.99312
4.53935
4.44543
4.73114
4.69024
4.2268
4.65309
4.96176
5.00452
6.60872
6.17207
5.48294
4.86731
3.52625
3.11284
3.11455
2.87403
4.24852
6.77975
5.81782
5.11621
5.27544
3.6725
4.10406
3.15046
3.30323
3.61276
3.60942
3.66235
3.70248
3.66302
3.81848
3.66321
3.90367
4.4023
4.12807
5.50016
5.69365
6.1314
5.5638
5.49679
4.51434
4.15778
4.07685
3.11427
2.34656
2.29118
1.61378
1.6785
1.69141
1.65326
1.60712
1.54541
1.48362
1.45368
1.38405
1.37618
1.5224
1.38442
1.78123
1.684
1.96926
2.03396
2.09622
2.19431
2.25033
2.38237
2.58752
2.91844
3.24957
3.42356
3.45267
3.35439
3.05222
2.83362
2.64668
2.59284
1.37095
1.41907
1.42695
1.45652
1.48693
1.52328
1.5528
1.59414
1.61624
1.63853
1.64382
1.64168
1.60849
1.58979
1.52263
1.49509
1.40322
1.37377
1.34848
1.30564
1.29413
1.26092
1.23844
1.21654
1.18004
1.17521
1.14205
1.14939
1.13093
1.12974
0.982605
0.984499
0.984184
0.974726
0.971104
0.962177
0.95536
0.950297
0.941541
0.939262
0.929836
0.929821
0.920989
0.922011
0.915814
0.915286
0.910975
0.909024
0.906065
0.903792
0.902052
0.900003
0.898324
0.897387
0.89547
0.895237
0.893801
0.893714
0.892787
0.882329
0.875657
0.886014
0.886645
0.886343
0.886584
0.886354
0.886546
0.886468
0.886554
0.886594
0.886661
0.886819
0.887011
0.887358
0.887462
0.887491
0.887179
0.886819
0.886489
0.886168
0.886091
0.885726
0.885676
0.885324
0.885233
0.884931
0.884855
0.884603
0.883984
0.873184
0.873082
0.883818
0.884554
0.884583
0.884889
0.884917
0.885252
0.885282
0.885603
0.885648
0.885984
0.886085
0.886558
0.886823
0.88716
0.887054
0.886953
0.886501
0.8863
0.885956
0.885893
0.885544
0.885503
0.88516
0.885104
0.884792
0.884734
0.884492
0.883877
0.873082
0.873084
0.883891
0.884508
0.8848
0.884837
0.885154
0.885203
0.885531
0.885556
0.885875
0.885916
0.886242
0.886409
0.886867
0.886985
0.887168
0.886901
0.886637
0.88611
0.88587
0.885694
0.885365
0.885306
0.884982
0.884957
0.884654
0.884669
0.884402
0.88396
0.872681
0.873117
0.883841
0.884578
0.884611
0.884913
0.884943
0.885277
0.885312
0.885632
0.885674
0.886002
0.886091
0.886544
0.886798
0.887146
0.887069
0.886982
0.886527
0.886311
0.885958
0.885891
0.885537
0.885491
0.885147
0.885089
0.884775
0.884719
0.884493
0.883875
0.87308
0.872642
0.883968
0.884563
0.884594
0.884893
0.884923
0.88528
0.885333
0.885679
0.885741
0.886094
0.886176
0.886621
0.886841
0.887131
0.887137
0.886863
0.886613
0.88616
0.886073
0.885731
0.88568
0.885347
0.885307
0.884968
0.884948
0.884639
0.884596
0.88399
0.872672
0.873072
0.883858
0.884622
0.884656
0.88499
0.885007
0.885363
0.88537
0.885707
0.885705
0.88605
0.886103
0.886532
0.886757
0.887129
0.887078
0.886992
0.88655
0.886328
0.885988
0.885923
0.885569
0.885525
0.885174
0.885123
0.884797
0.884733
0.884506
0.88388
0.873077
1.53716
1.70356
1.73281
1.78368
2.17872
2.94377
3.5398
4.11567
3.9209
4.33987
4.46781
3.0414
2.67597
2.53874
2.61163
3.74597
3.50114
3.51754
3.41401
3.35553
3.29342
3.20017
3.19032
3.17171
3.12006
3.11759
3.09108
2.81964
2.92727
2.99554
3.00702
2.98977
2.87241
3.00793
2.89528
2.9701
3.02801
3.12055
2.67682
2.17589
1.99817
1.8742
1.68897
1.6048
2.39158
2.43736
2.45091
2.40563
2.46514
2.39521
2.6247
2.40045
2.84634
2.72968
3.3668
3.25456
3.94012
4.36118
4.40048
4.75919
4.77278
4.47259
4.74018
4.79825
5.31542
4.86265
4.95554
5.43103
4.7904
4.34443
5.17153
3.06781
2.61706
2.44985
5.40536
5.16028
5.86243
5.60541
5.1508
4.66759
3.92453
3.97916
3.84288
4.02383
4.15013
3.85828
3.79604
3.794
3.79008
4.11747
3.96482
4.41174
4.45888
4.7097
5.7881
5.19599
5.46933
6.08599
5.71641
4.80358
4.00607
3.83762
2.7869
2.5371
1.74285
1.7725
1.68937
1.58646
1.4861
1.41279
1.35789
1.34242
1.40974
1.29567
1.59411
1.38594
1.83187
1.67926
2.06359
2.03101
2.12115
2.06511
2.10281
2.08398
2.1315
2.2468
2.51665
2.90946
3.18285
3.1825
3.19151
3.14098
2.91597
2.8605
1.46556
1.43748
1.41991
1.36543
1.35699
1.34688
1.37437
1.41877
1.49415
1.55413
1.60337
1.62141
1.6567
1.65211
1.65822
1.6316
1.6107
1.54037
1.54295
1.48966
1.48552
1.47691
1.45031
1.44953
1.41761
1.41545
1.38198
1.37384
1.35278
1.35733
1.15829
1.14517
1.14586
1.14008
1.13931
1.13469
1.13247
1.12704
1.12498
1.11928
1.11723
1.11156
1.10943
1.10377
1.10212
1.09749
1.09634
1.09322
1.09272
1.08993
1.08954
1.08786
1.08539
1.0868
1.08302
1.08507
1.08174
1.08355
1.0817
1.09575
1.08621
1.0724
1.07166
1.0712
1.07093
1.07058
1.07024
1.06987
1.06951
1.06917
1.06875
1.06843
1.06779
1.06735
1.06682
1.06682
1.06685
1.0673
1.06752
1.06778
1.06787
1.06804
1.06822
1.06835
1.06855
1.06871
1.0689
1.06908
1.06977
1.0842
1.08409
1.06978
1.06903
1.06877
1.06862
1.06842
1.06825
1.06804
1.06787
1.06764
1.06743
1.06713
1.06673
1.06624
1.06599
1.06597
1.06625
1.06664
1.06706
1.06729
1.06754
1.06774
1.06797
1.06815
1.06839
1.06855
1.06877
1.06895
1.06965
1.08409
1.0841
1.06968
1.0689
1.06867
1.06848
1.06831
1.0681
1.06793
1.06773
1.06756
1.06734
1.06713
1.06675
1.06635
1.06604
1.06597
1.06613
1.06661
1.06712
1.06748
1.06765
1.06792
1.06816
1.06834
1.06854
1.06869
1.06885
1.06904
1.06981
1.08409
1.08408
1.0697
1.06898
1.06872
1.06858
1.06838
1.06821
1.068
1.06783
1.06761
1.06741
1.06713
1.06675
1.06627
1.06601
1.06595
1.06622
1.0666
1.06704
1.06728
1.06753
1.06775
1.06798
1.06816
1.0684
1.06857
1.0688
1.06896
1.06967
1.08409
1.08408
1.06968
1.06895
1.06881
1.06862
1.0684
1.06818
1.06796
1.06776
1.06752
1.06731
1.06704
1.06668
1.06624
1.06598
1.06598
1.06623
1.06668
1.06706
1.06734
1.06754
1.06778
1.06796
1.06817
1.06837
1.06857
1.06875
1.06897
1.06966
1.08407
1.08407
1.06968
1.06892
1.06867
1.06851
1.06832
1.06816
1.06796
1.0678
1.0676
1.06741
1.06714
1.0668
1.06635
1.06606
1.06594
1.0662
1.06658
1.06703
1.06726
1.06751
1.06774
1.06796
1.06816
1.0684
1.06857
1.0688
1.06895
1.06966
1.0841
1.62819
1.40654
1.24866
1.2256
1.40602
1.74923
1.91923
2.00712
2.416
3.97975
4.67148
3.34634
2.77709
2.69717
2.97412
3.75164
3.63006
3.48075
3.05191
2.23835
1.88381
1.88496
2.01945
1.90567
1.77533
1.65181
1.57584
1.54254
1.60462
1.67627
1.83205
2.23416
2.86261
2.85008
2.93587
3.0086
3.09527
3.16578
3.37025
2.70727
2.24146
2.07345
1.88151
1.75484
2.39969
2.48631
2.44588
2.51525
2.53234
2.46873
2.63494
2.53591
3.01227
2.7372
3.46202
3.90442
3.93689
4.61567
4.95317
4.78041
4.83175
5.0128
4.7416
5.19993
5.13523
4.48667
4.43157
4.441
4.09316
4.56354
4.87576
3.61409
2.48674
2.02355
3.91713
4.68077
5.50908
5.92725
5.60472
5.21968
4.90479
4.72299
5.07091
5.07271
4.98792
4.72713
4.45612
4.54495
4.64463
4.57639
4.80468
4.70676
5.1894
5.1619
5.43595
5.74217
6.00194
5.62737
5.95842
5.40712
4.60688
3.90825
3.42082
2.73474
1.79783
1.75495
1.64564
1.51147
1.43547
1.36683
1.38034
1.38727
1.37915
1.39208
1.5518
1.55531
1.727
1.78861
1.97997
2.13019
2.14957
2.11999
2.02971
2.0011
1.99237
1.99693
2.01363
2.16049
2.43749
2.7941
3.04237
3.06645
3.31167
3.40617
1.39808
1.29865
1.19296
1.15985
1.13486
1.1499
1.1584
1.18727
1.21379
1.29688
1.38489
1.47346
1.5191
1.56559
1.58859
1.6009
1.59384
1.55766
1.53841
1.48814
1.46345
1.46427
1.44772
1.43945
1.42832
1.42024
1.40632
1.39851
1.39437
1.38761
1.14113
1.14736
1.14376
1.14249
1.14076
1.13599
1.1352
1.12969
1.12862
1.12281
1.12194
1.11599
1.11551
1.10975
1.10954
1.10428
1.10428
1.09979
1.09988
1.09611
1.09607
1.09314
1.09273
1.09083
1.09032
1.0891
1.08861
1.08789
1.08776
1.08987
1.08011
1.07781
1.07766
1.07735
1.07734
1.07705
1.07702
1.07675
1.07671
1.07646
1.07642
1.07619
1.07614
1.07594
1.0759
1.07573
1.07576
1.07562
1.07567
1.07555
1.0756
1.07549
1.07553
1.07547
1.07548
1.07546
1.07547
1.07548
1.07566
1.07812
1.07802
1.07555
1.07537
1.07534
1.07533
1.07531
1.07531
1.07529
1.07528
1.07526
1.07525
1.07523
1.0752
1.07517
1.07516
1.07515
1.07518
1.0752
1.07523
1.07524
1.07526
1.07526
1.07529
1.07529
1.07531
1.07531
1.07534
1.07535
1.07554
1.078
1.078
1.07554
1.07535
1.07533
1.07531
1.07531
1.07529
1.07529
1.07526
1.07526
1.07524
1.07523
1.0752
1.07518
1.07515
1.07515
1.07516
1.0752
1.07522
1.07526
1.07527
1.07527
1.0753
1.0753
1.07532
1.07532
1.07534
1.07535
1.07553
1.07805
1.078
1.07554
1.07536
1.07533
1.07532
1.0753
1.0753
1.07528
1.07527
1.07526
1.07525
1.07523
1.07521
1.07517
1.07516
1.07515
1.07517
1.07519
1.07523
1.07524
1.07526
1.07526
1.07529
1.07529
1.07531
1.07532
1.07534
1.07536
1.07554
1.078
1.07804
1.07553
1.07535
1.07533
1.07532
1.0753
1.0753
1.07528
1.07527
1.07525
1.07525
1.07522
1.07521
1.07517
1.07516
1.07516
1.07517
1.07521
1.07522
1.07525
1.07525
1.07528
1.07528
1.0753
1.07531
1.07532
1.07533
1.07536
1.07553
1.07805
1.07801
1.07554
1.07535
1.07532
1.07532
1.0753
1.0753
1.07528
1.07528
1.07526
1.07525
1.07523
1.07522
1.07518
1.07517
1.07516
1.07518
1.0752
1.07523
1.07524
1.07526
1.07527
1.07529
1.0753
1.07532
1.07532
1.07534
1.07536
1.07555
1.07801
1.29022
0.987161
0.904978
0.924272
1.0884
1.21535
1.30664
1.34653
1.43276
1.90911
2.39111
3.16893
3.00931
2.73489
3.9362
3.81806
3.55732
2.12309
1.60225
1.46728
1.40354
1.38228
1.31009
1.2479
1.24865
1.25881
1.27926
1.27526
1.27813
1.29017
1.30509
1.37352
1.54146
1.69634
2.27391
2.94236
3.0615
3.21283
3.27008
3.56275
2.54677
2.2363
2.01948
1.7876
2.44973
2.46641
2.50535
2.56399
2.52604
2.73031
2.62807
2.85646
2.86619
3.00932
4.04345
3.91297
4.77491
3.94429
3.341
3.09063
3.69548
4.64
4.70369
4.87604
4.10874
3.91531
4.54591
4.0219
4.26439
4.52237
4.79036
5.08065
2.70257
2.14127
4.00286
4.51909
5.19216
5.80652
5.99412
5.79173
5.76441
5.86792
5.9582
6.07352
5.67733
5.36387
5.02721
4.77439
4.81276
5.09192
5.06155
5.35211
5.25282
5.64741
5.5607
5.75741
5.64144
5.96692
5.71692
5.53408
5.33313
4.56529
3.71018
3.19102
1.84278
1.73345
1.58161
1.47482
1.41977
1.41691
1.43852
1.41582
1.47181
1.39334
1.57249
1.52188
1.6396
1.75063
2.01875
2.70537
2.64594
2.81944
2.82745
2.11332
1.89424
1.87803
1.89006
1.9143
2.06302
2.34496
2.68894
2.95354
3.38655
3.6614
1.29839
1.17149
1.11763
1.06117
1.12316
1.13602
1.15757
1.14503
1.12695
1.13171
1.1915
1.28731
1.37456
1.43786
1.4781
1.50719
1.51467
1.52305
1.47177
1.44682
1.44096
1.39214
1.41631
1.38072
1.39857
1.36847
1.38702
1.35702
1.3765
1.35355
1.10281
1.10064
1.10247
1.10411
1.1038
1.10533
1.10138
1.10085
1.09645
1.09487
1.09067
1.08847
1.08483
1.08236
1.0793
1.07685
1.07446
1.0722
1.07037
1.06838
1.06689
1.06526
1.06403
1.06276
1.06181
1.06091
1.06031
1.05979
1.05946
1.05938
1.04998
1.04967
1.04949
1.04957
1.0493
1.04936
1.04908
1.0491
1.04882
1.04884
1.04857
1.04859
1.04836
1.04838
1.04818
1.0482
1.04803
1.04806
1.04792
1.04796
1.04783
1.04787
1.04775
1.04781
1.0477
1.04778
1.04767
1.04775
1.04774
1.04795
1.04784
1.04766
1.04755
1.04764
1.04755
1.04763
1.04755
1.04763
1.04754
1.04762
1.04754
1.04762
1.04754
1.04761
1.04753
1.0476
1.04753
1.04761
1.04754
1.04762
1.04754
1.04762
1.04754
1.04762
1.04754
1.04762
1.04754
1.04762
1.04764
1.04784
1.04786
1.04765
1.04762
1.04754
1.04763
1.04755
1.04763
1.04755
1.04763
1.04754
1.04762
1.04754
1.04761
1.04754
1.04761
1.04753
1.0476
1.04753
1.04759
1.04756
1.04755
1.04762
1.04754
1.04763
1.04754
1.04763
1.04755
1.04763
1.04758
1.04792
1.04783
1.04764
1.04754
1.04763
1.04754
1.04763
1.04754
1.04763
1.04754
1.04762
1.04754
1.04761
1.04754
1.04761
1.04753
1.0476
1.04753
1.04761
1.04754
1.04762
1.04754
1.04762
1.04754
1.04762
1.04754
1.04762
1.04755
1.04761
1.04764
1.04784
1.0479
1.0476
1.0476
1.04762
1.04754
1.04763
1.04754
1.04763
1.04754
1.04762
1.04754
1.04762
1.04753
1.04761
1.04755
1.04754
1.0476
1.04753
1.04762
1.04754
1.04762
1.04754
1.04763
1.04754
1.04762
1.04754
1.04762
1.04759
1.04761
1.04789
1.04784
1.04764
1.04754
1.04763
1.04754
1.04763
1.04754
1.04763
1.04754
1.04763
1.04754
1.04762
1.04754
1.04761
1.04754
1.04761
1.04753
1.04761
1.04754
1.04762
1.04754
1.04762
1.04754
1.04763
1.04754
1.04763
1.04755
1.04761
1.04765
1.04785
0.941907
0.810372
0.83113
0.960262
1.05957
1.10353
1.1478
1.24569
1.37204
1.50203
1.58843
1.89398
3.41672
3.02918
3.91856
3.76991
2.53091
1.40841
1.29133
1.2206
1.16246
1.10461
1.11208
1.14673
1.17664
1.19118
1.18949
1.16374
1.14925
1.15806
1.1878
1.22268
1.29459
1.4048
1.65055
2.40971
3.02227
3.18678
3.27693
3.43481
2.56435
2.33636
2.20464
1.98841
2.57783
2.57901
2.65438
2.5825
2.79483
2.73611
2.85302
3.03781
3.02551
3.72174
3.90046
4.53604
2.69243
2.12988
1.78647
1.78753
2.02091
2.44339
2.81146
2.73384
3.67592
4.31777
4.24793
4.38316
4.05558
4.41661
4.56927
5.0255
2.82372
2.54376
3.35046
3.63588
5.15491
5.53741
6.18481
6.26697
6.22781
6.3223
6.4726
6.3251
6.09911
5.59355
5.27263
5.17254
5.14374
5.1758
5.40276
5.3999
5.59963
5.48903
5.8213
5.63006
5.62012
5.65704
5.75987
5.24385
5.47082
8.08924
4.0757
3.56224
1.76269
1.67352
1.55212
1.47254
1.44566
1.44838
1.46379
1.41411
1.46464
1.31577
1.53179
1.45134
1.61045
1.96408
2.26072
2.26051
2.13402
2.36093
2.46906
2.80405
2.36284
1.71273
1.70399
1.73224
1.78281
1.92413
2.27537
2.75236
3.2511
3.68855
1.27306
1.10429
1.13766
1.13315
1.1604
1.20127
1.2288
1.2002
1.155
1.10307
1.09066
1.13522
1.21724
1.29847
1.35645
1.39324
1.41436
1.43981
1.39907
1.40209
1.38495
1.32907
1.35273
1.32765
1.33999
1.3206
1.33802
1.3163
1.3341
1.31725
1.04926
1.04849
1.05447
1.06071
1.06248
1.06239
1.06285
1.06085
1.05983
1.05662
1.05505
1.05153
1.04993
1.0464
1.04505
1.04158
1.04055
1.03746
1.03671
1.03394
1.03368
1.03094
1.03142
1.02849
1.02948
1.02678
1.02803
1.02589
1.02707
1.0279
1.0185
1.01708
1.01673
1.01678
1.01658
1.01655
1.01638
1.0163
1.01615
1.01605
1.01592
1.01582
1.01571
1.01562
1.01552
1.01545
1.01538
1.01532
1.01526
1.01521
1.01516
1.01512
1.01508
1.01505
1.01502
1.01501
1.015
1.015
1.01516
1.01727
1.01719
1.01504
1.01487
1.01489
1.01486
1.01489
1.01486
1.01489
1.01487
1.01488
1.01485
1.01487
1.01485
1.01487
1.01484
1.01487
1.01485
1.01487
1.01485
1.01488
1.01485
1.01488
1.01485
1.01488
1.01485
1.01487
1.01485
1.01489
1.01504
1.01717
1.01719
1.01506
1.01488
1.01485
1.01488
1.01486
1.01488
1.01486
1.01488
1.01486
1.01488
1.01485
1.01487
1.01485
1.01487
1.01485
1.01487
1.01484
1.01486
1.01487
1.01486
1.01488
1.01485
1.01488
1.01486
1.01488
1.01486
1.01489
1.01501
1.01715
1.01719
1.01502
1.01486
1.01487
1.01485
1.01488
1.01486
1.01488
1.01486
1.01488
1.01485
1.01487
1.01485
1.01487
1.01485
1.01487
1.01485
1.01487
1.01485
1.01487
1.01485
1.01488
1.01485
1.01488
1.01485
1.01488
1.01486
1.01489
1.01504
1.01717
1.01715
1.01502
1.0149
1.01488
1.01486
1.01488
1.01485
1.01488
1.01486
1.01488
1.01485
1.01488
1.01485
1.01487
1.01486
1.01486
1.01487
1.01485
1.01488
1.01485
1.01488
1.01486
1.01488
1.01486
1.01487
1.01485
1.01487
1.01489
1.01502
1.01715
1.01718
1.01502
1.01486
1.01487
1.01485
1.01488
1.01486
1.01488
1.01486
1.01488
1.01486
1.01488
1.01485
1.01487
1.01484
1.01487
1.01484
1.01486
1.01485
1.01487
1.01485
1.01487
1.01485
1.01487
1.01485
1.01488
1.01486
1.01489
1.01505
1.01718
0.791757
0.772783
0.902758
1.04991
1.07823
1.12429
1.27269
1.67745
2.00188
2.07559
2.022
1.89743
2.75508
2.96725
3.86293
3.39256
1.43464
1.178
1.1309
1.08912
1.06307
1.07916
1.10907
1.13471
1.14951
1.12002
1.09565
1.09162
1.13312
1.28436
1.38986
1.55716
1.68865
1.73596
1.74467
2.18718
2.96187
3.1581
3.24999
3.37062
2.58088
3.00989
2.29599
2.09845
2.57202
2.69961
2.65514
2.82297
2.7817
2.87339
3.07877
2.97926
3.60459
3.59099
4.83622
2.43706
1.68769
1.40941
1.39832
1.51773
1.5779
1.63007
1.64883
1.84167
3.21041
4.3719
4.60924
4.13193
4.10803
4.29525
4.00317
4.44866
2.99006
2.63058
3.26851
3.64304
4.7443
5.39089
5.8031
6.07706
6.28148
6.3229
6.1166
6.11045
5.67856
5.51491
5.15924
5.1198
5.19964
5.29727
5.24543
5.32892
5.13047
5.34685
5.16067
5.58676
5.30829
5.74486
5.64115
5.65818
5.25535
5.66144
5.27908
3.84359
1.77003
1.63336
1.4774
1.42716
1.41279
1.39249
1.36153
1.34244
1.29717
1.43878
1.52344
1.69741
1.91159
2.08505
1.98933
2.02715
2.10277
2.23729
2.30763
2.45509
2.86021
2.03568
1.65235
1.68117
1.76358
1.76879
1.99704
2.2942
2.91518
3.4506
1.24472
1.17818
1.14805
1.21417
1.10181
1.28113
1.22921
1.24857
1.19011
1.12154
1.06848
1.05749
1.0946
1.16224
1.22686
1.27384
1.30072
1.3324
1.31708
1.31701
1.30775
1.26474
1.27269
1.2442
1.26833
1.24175
1.26587
1.24813
1.27058
1.26479
0.975992
0.973712
0.981793
0.994536
0.999895
1.00467
1.00526
1.00532
1.00363
1.00168
0.999502
0.996452
0.994732
0.991223
0.990181
0.986515
0.985536
0.982357
0.981319
0.979108
0.978151
0.976227
0.975719
0.974173
0.973575
0.972654
0.972275
0.971737
0.971715
0.971016
0.961897
0.962469
0.962463
0.962524
0.962397
0.962412
0.962222
0.962193
0.961996
0.961958
0.961765
0.961726
0.961561
0.961532
0.961389
0.96137
0.961249
0.96125
0.961129
0.961156
0.96103
0.961079
0.96096
0.961013
0.960906
0.96094
0.960891
0.960923
0.960904
0.960317
0.960223
0.960798
0.960789
0.960814
0.960781
0.960823
0.960785
0.960828
0.960787
0.960824
0.960785
0.96082
0.960789
0.960818
0.960789
0.960816
0.960789
0.960818
0.960783
0.960818
0.960778
0.960815
0.960773
0.960811
0.960766
0.960805
0.960773
0.960812
0.960803
0.960217
0.96025
0.960823
0.960806
0.960767
0.960805
0.960772
0.960816
0.960779
0.960819
0.960781
0.960821
0.960786
0.960819
0.96079
0.960816
0.960788
0.960813
0.960782
0.960801
0.960812
0.960798
0.960811
0.960775
0.960814
0.960772
0.960809
0.960771
0.960816
0.960768
0.960187
0.960222
0.960791
0.960773
0.960802
0.960769
0.960814
0.960778
0.960822
0.960783
0.960821
0.960783
0.960819
0.960787
0.960816
0.960789
0.960815
0.960788
0.960817
0.960784
0.960816
0.960776
0.960813
0.960772
0.96081
0.960769
0.960806
0.960779
0.960809
0.960799
0.960216
0.960182
0.960785
0.960821
0.960812
0.960774
0.960811
0.960771
0.960816
0.960776
0.960817
0.960778
0.96082
0.960784
0.960816
0.960803
0.960805
0.960815
0.960786
0.960819
0.960781
0.960817
0.960775
0.960815
0.960772
0.960807
0.960765
0.9608
0.960819
0.960795
0.960175
0.960217
0.960787
0.960772
0.960801
0.960764
0.960811
0.960768
0.960819
0.960772
0.96082
0.96078
0.960824
0.960786
0.960818
0.960786
0.960816
0.960791
0.960819
0.960787
0.960821
0.960783
0.96082
0.960775
0.960813
0.960767
0.960811
0.960783
0.960815
0.960812
0.960236
0.711088
0.795633
0.948866
1.03248
1.06031
1.20577
1.6628
1.93548
2.06913
2.2655
2.65558
2.32396
2.67601
4.51364
3.71194
1.82132
1.15505
1.09501
1.06708
1.05474
1.06707
1.08864
1.10997
1.09648
1.07896
1.04825
1.05896
1.26343
1.78623
2.77697
2.86734
2.86393
2.88089
2.68658
2.33943
2.84202
2.99526
3.16188
3.25898
3.27077
3.42403
3.30896
2.54294
2.20889
2.66335
2.74046
2.85002
2.80253
2.88481
3.03649
2.9225
3.35385
3.17938
4.47679
2.706
1.6778
1.37587
1.59872
2.01034
2.21692
1.87962
1.54367
1.38863
1.54833
4.46264
4.70425
4.52525
4.28449
4.12353
3.9273
3.55616
3.66666
3.72645
2.98437
3.21814
4.02062
4.29542
5.05071
5.35715
5.72924
5.84538
5.77666
5.79771
5.3836
5.30481
5.047
4.91935
5.06426
5.12321
5.1155
5.0288
4.61353
4.53457
4.27967
4.67527
4.8074
5.07462
5.25846
5.51413
5.56681
4.94332
5.697
5.73162
4.41281
1.62575
1.61237
1.4813
1.40801
1.35506
1.3241
1.33081
1.36754
1.45815
1.6554
1.89515
2.06876
1.7675
1.92582
1.96176
1.95523
2.06569
2.16587
2.29102
2.32547
2.28255
2.23223
1.69111
1.60597
1.62112
1.76132
1.78767
2.0499
2.4752
3.23299
1.29197
1.14485
1.27124
1.10661
1.29086
1.17798
1.3579
1.21083
1.18802
1.11567
1.06203
1.02847
1.02643
1.06078
1.113
1.15543
1.19523
1.22127
1.22419
1.21993
1.23388
1.19232
1.20065
1.16519
1.18863
1.17566
1.19359
1.18843
1.21912
1.21655
0.912876
0.904011
0.920868
0.928225
0.942479
0.943499
0.948551
0.946964
0.948309
0.94544
0.946102
0.941208
0.943157
0.937115
0.940103
0.933071
0.936983
0.929628
0.932066
0.927612
0.9283
0.926016
0.925601
0.924212
0.924095
0.922599
0.923125
0.922324
0.92292
0.921914
0.911011
0.912893
0.913233
0.913258
0.913294
0.913195
0.913136
0.913044
0.912948
0.912822
0.912775
0.912628
0.912559
0.91246
0.912376
0.912313
0.912229
0.912184
0.912108
0.91208
0.912016
0.911999
0.911948
0.911927
0.9119
0.9119
0.911896
0.911938
0.911924
0.911284
0.911201
0.911822
0.911826
0.911802
0.911777
0.911773
0.911753
0.91176
0.911751
0.911751
0.911742
0.911745
0.911743
0.911746
0.911743
0.911748
0.911742
0.911745
0.91174
0.911742
0.91174
0.911747
0.911741
0.911744
0.911748
0.91177
0.911784
0.911826
0.911824
0.911185
0.911209
0.911838
0.911818
0.911781
0.911768
0.911756
0.91175
0.911747
0.911751
0.911744
0.911745
0.911741
0.911746
0.911744
0.911748
0.911741
0.911746
0.911733
0.911736
0.911747
0.911744
0.911746
0.911739
0.911746
0.911752
0.911771
0.911786
0.911825
0.911811
0.911148
0.911193
0.911811
0.911811
0.911786
0.911766
0.911762
0.911746
0.911753
0.911747
0.911747
0.91174
0.911742
0.911741
0.911746
0.911742
0.911746
0.911742
0.911744
0.911739
0.911741
0.911737
0.911743
0.911739
0.911743
0.911748
0.91177
0.911789
0.911823
0.91182
0.911185
0.911151
0.911815
0.911835
0.911797
0.911769
0.91176
0.911742
0.911747
0.911742
0.911743
0.911738
0.911744
0.91174
0.911746
0.911749
0.911748
0.911747
0.911741
0.911745
0.911739
0.911743
0.911741
0.911746
0.91174
0.911754
0.91176
0.911783
0.911835
0.91182
0.91115
0.911181
0.911806
0.911809
0.911785
0.911763
0.911753
0.911741
0.911745
0.911741
0.911741
0.911743
0.911742
0.911739
0.911742
0.911735
0.91174
0.911737
0.911741
0.911735
0.911739
0.911738
0.91174
0.911735
0.911743
0.911745
0.911774
0.91181
0.91189
0.911999
0.911362
0.719399
0.800422
0.947342
1.02353
1.07602
1.35365
1.73905
1.70278
1.67438
1.76998
2.33625
2.69931
2.87704
3.90433
3.83558
3.63434
3.64738
1.59787
1.10965
1.07908
1.06291
1.06976
1.08171
1.0851
1.07682
1.04697
1.02249
1.05732
1.30195
2.86726
3.10556
3.26193
3.19044
3.12857
3.0646
3.00664
2.94434
2.98743
3.06737
3.17249
3.19513
3.24689
3.13094
3.08446
2.44862
2.20708
2.08079
1.97655
2.87339
2.85169
2.81277
2.8223
3.01223
2.89071
3.06032
3.18505
3.63717
3.75216
2.04784
1.59772
1.9523
3.43823
3.99088
4.00392
2.75464
1.65048
1.34884
1.51809
4.44239
4.57601
4.33507
4.12569
3.88068
3.69569
3.27274
3.07049
3.14323
2.98233
2.58757
2.3909
3.39155
3.28122
4.18233
4.20766
4.59941
4.92235
5.28544
5.36501
4.92505
4.89848
4.78654
4.67552
4.76919
4.65926
4.84771
4.76024
4.32702
3.94863
3.64927
3.95167
3.9233
4.15869
4.71408
4.76312
5.24453
5.30155
5.33134
5.22097
5.0932
9.17748
4.45271
2.39917
1.89938
1.78452
1.57265
1.42637
1.45137
1.55233
1.74021
2.13943
2.20658
2.15507
1.89595
1.90525
1.77624
1.82526
1.92211
1.88294
1.99915
2.08938
2.2478
2.32092
2.3502
2.25603
2.41286
1.60723
1.61541
1.61353
1.76385
1.81063
2.00406
2.12277
1.10143
1.15821
1.10943
1.37322
1.13666
1.32679
1.18238
1.39404
1.26706
1.27886
1.1293
1.08699
1.03816
1.00923
0.99559
1.00134
1.02756
1.05867
1.0993
1.11234
1.13832
1.12107
1.15317
1.09152
1.13468
1.07265
1.09292
1.089
1.07861
1.09747
1.08674
1.1005
1.03071
1.00962
0.927216
0.893553
0.867073
0.871489
0.879891
0.87907
0.883479
0.879263
0.880323
0.877408
0.876253
0.873284
0.872017
0.868921
0.86787
0.86502
0.864074
0.861759
0.860124
0.85919
0.85706
0.856555
0.855183
0.854074
0.853429
0.852868
0.852152
0.852035
0.851644
0.849091
0.843218
0.84287
0.842204
0.844033
0.844918
0.84429
0.844564
0.844111
0.844168
0.843904
0.843838
0.843713
0.843569
0.843532
0.843355
0.843363
0.843197
0.843218
0.843078
0.843097
0.842995
0.843001
0.842932
0.842932
0.842879
0.842885
0.842848
0.842871
0.842842
0.842855
0.842597
0.839803
0.837207
0.837207
0.839736
0.842521
0.842753
0.842762
0.842743
0.842734
0.842709
0.842714
0.842698
0.842705
0.842691
0.842696
0.842687
0.84269
0.842686
0.84269
0.842684
0.842691
0.842684
0.842696
0.842687
0.842701
0.842689
0.842709
0.842706
0.842738
0.842744
0.842753
0.842515
0.839721
0.837149
0.83715
0.839739
0.842533
0.842743
0.842738
0.842737
0.84271
0.842711
0.842692
0.842704
0.84269
0.842698
0.842684
0.84269
0.842683
0.842687
0.842682
0.842687
0.842678
0.842682
0.8427
0.842697
0.842694
0.84269
0.842704
0.84271
0.842738
0.842741
0.842746
0.8425
0.839699
0.837149
0.837149
0.839725
0.842506
0.842732
0.842751
0.842729
0.842727
0.8427
0.842709
0.842692
0.842703
0.842687
0.842694
0.842683
0.842689
0.842684
0.842688
0.842682
0.842689
0.842683
0.842695
0.842684
0.842699
0.842685
0.842706
0.842705
0.842736
0.842746
0.842749
0.842511
0.839721
0.837148
0.83715
0.839702
0.842513
0.842756
0.842758
0.842728
0.842724
0.842696
0.842704
0.842689
0.842699
0.842684
0.842693
0.842683
0.842688
0.84269
0.84269
0.842688
0.842683
0.842693
0.842686
0.842702
0.842688
0.842704
0.842693
0.84272
0.842721
0.842745
0.842753
0.842513
0.839697
0.837152
0.837146
0.839713
0.8425
0.842728
0.842752
0.842721
0.842722
0.842688
0.842705
0.842689
0.842706
0.842689
0.842703
0.842689
0.842694
0.842683
0.842687
0.84268
0.842687
0.842682
0.842697
0.842686
0.842707
0.84269
0.84272
0.842711
0.842746
0.842755
0.842762
0.842512
0.839737
0.837313
0.839382
0.747034
0.821713
0.973283
1.02405
1.09321
1.35051
1.52372
1.46435
1.42959
1.51785
1.89563
2.6775
3.06187
3.94908
3.87561
3.77029
3.58975
1.75186
1.12176
1.09771
1.08886
1.08891
1.08194
1.06479
1.0379
1.014
1.03997
1.33601
2.79283
3.25339
3.37544
3.30977
3.29305
3.25477
3.18906
3.14258
3.1463
3.12905
3.16599
3.12539
3.1301
3.12613
3.04459
3.27644
2.34033
2.23051
2.10371
2.19056
2.8035
2.70185
2.8181
2.88102
2.84389
3.00081
2.86682
3.47104
4.01701
3.19139
2.16013
2.18943
4.02117
4.17224
4.07445
3.9184
2.57063
1.55933
1.30142
1.46923
3.22928
4.11742
4.11327
3.93125
3.76067
3.59491
3.27378
3.21414
2.59053
2.50598
2.59708
2.5522
2.91971
3.45966
3.29345
4.01507
4.17898
4.69107
4.90616
4.84404
4.8793
4.58874
4.33935
4.41664
4.18665
4.51868
4.45641
4.16702
4.01842
3.5681
3.28958
3.37351
3.65456
3.91259
4.05376
4.57644
4.3795
3.82418
3.95625
4.40423
4.94837
4.99855
4.7039
3.22003
4.05289
3.42979
2.96856
2.16506
1.69575
1.59669
2.75416
2.26702
1.84914
1.70309
1.75209
1.85375
1.83488
1.86022
1.85359
1.83068
1.9645
1.9745
2.16877
2.26179
2.36212
2.45378
2.51895
2.03952
1.50107
1.61376
1.60897
1.74802
1.69526
1.81248
1.3759
1.51718
1.42072
1.19078
1.31512
1.16294
1.28656
1.23558
1.30123
1.18313
1.14606
1.02434
1.01377
0.987774
0.975929
0.971974
0.981071
0.990827
1.02422
1.03254