/*--------------------------------*- C++ -*----------------------------------*\
| =========                 |                                                 |
| \\      /  F ield         | OpenFOAM: The Open Source CFD Toolbox           |
|  \\    /   O peration     | Version:  2.1.1                                 |
|   \\  /    A nd           | Web:      www.OpenFOAM.org                      |
|    \\/     M anipulation  |                                                 |
\*---------------------------------------------------------------------------*/
FoamFile
{
    version     2.0;
    format      ascii;
    class       volVectorField;
    location    "0.002550000";
    object      U;
}
// * * * * * * * * * * * * * * * * * * * * * * * * * * * * * * * * * * * * * //

dimensions      [0 1 -1 0 0 0 0];

internalField   nonuniform List<vector> 
12384
(
(1.88196 8.6205 0)
(12.8657 3.60227 0)
(26.2885 1.65307 0)
(45.02 0.902851 0)
(68.3185 -0.577291 0)
(72.291 -2.46441 0)
(81.9996 -1.40054 0)
(78.9619 -7.37251 0)
(58.4676 -6.64782 0)
(44.6629 -22.1177 0)
(23.7656 2.28553 0)
(3.99522 -5.7886 0)
(-22.686 11.7189 0)
(-2.96683 2.83971 0)
(18.0191 25.4239 0)
(49.3075 37.4144 0)
(66.5877 13.5295 0)
(75.2022 19.4993 0)
(105.245 24.135 0)
(136.5 -7.01328 0)
(128.749 -9.39438 0)
(126.673 0.200955 0)
(127.001 0.738063 0)
(116.362 4.3053 0)
(105.824 5.42173 0)
(109.308 1.92777 0)
(117.048 1.65735 0)
(132.057 -3.66832 0)
(135.632 -3.87916 0)
(121.482 -4.33858 0)
(94.3408 2.14994 0)
(70.9644 11.8829 0)
(7.0146 -14.6024 0)
(25.9838 78.3812 0)
(53.6505 -0.169269 0)
(10.0707 16.3628 0)
(2.82577 9.58101 0)
(4.78471 14.7755 0)
(-0.147172 9.03228 0)
(-8.89076 10.5137 0)
(-24.6688 6.7175 0)
(-18.4959 8.57429 0)
(-16.8713 4.88464 0)
(-11.5251 4.48037 0)
(-9.60231 5.21906 0)
(-18.8678 13.4519 0)
(-38.3053 18.0677 0)
(-65.1226 10.5669 0)
(-72.6758 12.5281 0)
(-98.0845 5.76356 0)
(-103.75 24.4343 0)
(-147.859 -6.94283 0)
(-152.315 21.7869 0)
(-206.413 -17.5915 0)
(-191.129 10.6322 0)
(-260.847 -39.9588 0)
(-302.957 2.95554 0)
(-324.796 -39.648 0)
(-362.775 -10.3611 0)
(-325.478 -16.0408 0)
(-316.483 -8.81926 0)
(-272.835 19.7219 0)
(-265.449 16.0184 0)
(-367.734 42.6297 0)
(-261.701 150.271 0)
(-199.669 96.4947 0)
(66.1672 133.569 0)
(235.272 29.7814 0)
(93.7538 25.3221 0)
(7.5328 15.7113 0)
(-1.25957 1.13985 0)
(-2.55738 -12.483 0)
(-10.6038 -13.7123 0)
(-7.80118 -31.5468 0)
(59.6462 2.46952 0)
(165.565 -8.95801 0)
(269.843 40.2361 0)
(562.384 46.9971 0)
(439.625 -30.8488 0)
(375.212 55.5825 0)
(346.23 10.4543 0)
(333.726 36.3015 0)
(352.472 39.5485 0)
(370.84 37.744 0)
(349.599 35.1352 0)
(232.6 41.6588 0)
(112.186 51.4728 0)
(47.5446 70.4869 0)
(-0.421576 29.7665 0)
(-13.3457 64.0341 0)
(-20.9645 -6.8632 0)
(-48.331 30.5043 0)
(-19.1921 36.384 0)
(44.5215 50.6608 0)
(107.013 24.202 0)
(129.402 -2.41381 0)
(159.027 -51.9004 0)
(170.841 -59.5991 0)
(166.858 -67.2071 0)
(179.3 -51.1825 0)
(107.057 -24.7956 0)
(15.2207 -16.2347 0)
(-20.1566 9.92604 0)
(-8.40248 6.9463 0)
(-6.50652 11.3681 0)
(-17.8089 14.0581 0)
(-35.6626 14.5636 0)
(-58.8552 16.6544 0)
(-91.407 16.5107 0)
(-130.292 18.1677 0)
(-160.051 17.3537 0)
(-198.086 14.4766 0)
(-216.419 21.5649 0)
(-277.172 2.78769 0)
(-240.913 10.7267 0)
(-303.725 -14.5942 0)
(-219.955 -0.925873 0)
(-210.664 -21.1993 0)
(-180.091 -21.0636 0)
(-113.651 -35.1716 0)
(-70.0914 -29.3955 0)
(-26.332 -32.3705 0)
(18.7894 -19.2351 0)
(48.7589 -19.2298 0)
(70.2878 -13.0351 0)
(86.4231 -10.5182 0)
(100.578 -6.95628 0)
(120.818 -7.37814 0)
(138.458 -6.42785 0)
(156.585 -8.53048 0)
(152.065 -11.6841 0)
(146.812 -4.27053 0)
(101.736 -25.2977 0)
(22.2018 -4.5882 0)
(-4.85913 10.959 0)
(-18.0466 5.70801 0)
(-21.7125 7.81351 0)
(-22.5186 -0.544348 0)
(-20.362 0.618934 0)
(-7.97893 -5.76875 0)
(6.15599 -6.31109 0)
(25.7656 -9.27871 0)
(45.1802 -10.4536 0)
(64.0911 -11.2668 0)
(80.5438 -13.0626 0)
(94.8057 -13.553 0)
(103.876 -12.2895 0)
(112.095 -13.0904 0)
(107.882 -10.3406 0)
(105.697 -6.78969 0)
(104.444 -4.96022 0)
(99.7143 -2.25268 0)
(99.9224 -2.36923 0)
(98.0507 -1.98122 0)
(92.7528 -1.67291 0)
(90.6281 -1.11293 0)
(80.3446 -1.59135 0)
(74.5466 -0.0036532 0)
(63.3985 -1.13555 0)
(51.8851 0.84181 0)
(41.8101 0.284047 0)
(28.1113 1.60363 0)
(16.8154 0.972564 0)
(4.02668 1.76011 0)
(0.879785 -3.78042 0)
(2.53125 -3.18973 0)
(4.65107 -3.35266 0)
(6.92926 -1.7855 0)
(9.01209 -2.43804 0)
(10.1109 -1.4948 0)
(11.1081 -1.5792 0)
(11.3456 -1.25554 0)
(11.6825 -0.960166 0)
(11.3112 -0.975374 0)
(11.3331 -0.569968 0)
(10.6345 -0.902424 0)
(10.3474 -0.113957 0)
(9.77584 -0.801192 0)
(9.28211 0.0721165 0)
(8.69111 -0.601602 0)
(8.0738 0.0680994 0)
(7.45234 -0.422383 0)
(6.86391 0.0391378 0)
(6.19514 -0.312613 0)
(5.5944 0.0631004 0)
(5.01498 -0.238364 0)
(4.38357 0.0898656 0)
(3.84623 -0.158321 0)
(3.21939 0.106312 0)
(2.69695 -0.0765476 0)
(2.06991 0.110071 0)
(1.56022 -0.014774 0)
(0.942065 0.117759 0)
(0.45246 -0.0097159 0)
(0.0192781 -0.140071 0)
(0.0707161 -0.107739 0)
(0.112233 -0.139119 0)
(0.177025 -0.0441611 0)
(0.243168 -0.10793 0)
(0.274482 -0.0271501 0)
(0.292315 -0.0713711 0)
(0.299041 -0.0163587 0)
(0.274781 -0.04769 0)
(0.271527 -0.00808187 0)
(0.256446 -0.0349353 0)
(0.241583 -0.00575521 0)
(0.223555 -0.0233261 0)
(0.203023 -0.0046051 0)
(0.186832 -0.0141039 0)
(0.163589 -0.00506794 0)
(0.15402 -0.00765219 0)
(0.127791 -0.00306225 0)
(0.124113 -0.00133389 0)
(0.0998313 -0.00592926 0)
(0.0940342 0.00673215 0)
(0.0784017 -0.009727 0)
(0.0661405 0.0114169 0)
(0.0562643 -0.00880209 0)
(0.0436669 0.00999252 0)
(0.0383662 -0.00561527 0)
(0.0257032 0.00632374 0)
(0.0202779 -0.00305993 0)
(0.0109891 0.000824858 0)
(0.00546509 0.000581628 0)
(0.000348218 -0.000902197 0)
(0.000764272 -0.00126829 0)
(0.00040066 -0.000692421 0)
(0.000119437 -0.00113549 0)
(-0.000169816 -0.000408025 0)
(-0.000746153 -0.000770031 0)
(-0.000998251 -0.000219446 0)
(-0.00147787 -0.000594438 0)
(-0.00160896 -5.68649e-05 0)
(-0.00186964 -0.000516774 0)
(-0.00180619 0.000159217 0)
(-0.00180936 -0.000471779 0)
(-0.001506 0.000401252 0)
(-0.000987528 -0.000781003 0)
(-0.000176598 0.00042572 0)
(0.000678186 -0.000868237 0)
(0.00158348 0.000275462 0)
(0.00200098 -0.000585091 0)
(0.00231279 7.31537e-05 0)
(0.00232246 -0.000396893 0)
(0.00227704 -0.000127111 0)
(0.00202138 -0.000344422 0)
(0.00141103 -8.83996e-05 0)
(0.000733795 -0.000469244 0)
(-0.000130656 -0.000198814 0)
(-0.000638113 -0.000877934 0)
(-0.00102407 -0.000254741 0)
(-0.00181048 -0.00094488 0)
(-3.60798e-05 -0.0020166 0)
(0.00154041 0.000676336 0)
(-0.00189316 0.00071221 0)
(-0.000310433 -0.0019911 0)
(0.00198417 -0.0014609 0)
(0.00218555 -0.000376649 0)
(0.00194635 -0.000727745 0)
(0.00132061 -7.96177e-05 0)
(0.000381124 -0.000386748 0)
(-0.000385507 6.67604e-06 0)
(-0.00106105 -0.000359815 0)
(-0.00148316 1.11752e-05 0)
(-0.00167814 -0.000405773 0)
(-0.0017217 0.000193758 0)
(-0.0014581 -0.000389811 0)
(-0.00118041 0.000555118 0)
(-0.00053014 -0.000584018 0)
(5.00451e-05 0.000737149 0)
(0.00065403 -0.000428173 0)
(0.00125947 0.000710495 0)
(0.00175305 -0.000113848 0)
(0.00239404 0.00113897 0)
(0.00135865 0.00147667 0)
(0.0010427 0.000479039 0)
(0.000827966 0.000500926 0)
(0.000318235 -1.92228e-05 0)
(-0.000356324 -0.000104008 0)
(-0.00088067 -0.000687229 0)
(-0.00134489 -0.000256363 0)
(-0.00132686 -0.00132175 0)
(-0.00104176 -0.000542108 0)
(-0.00076659 -0.00064836 0)
(0.000256476 -0.00043576 0)
(0.000613636 -0.000761988 0)
(0.000139106 -0.000155702 0)
(-0.000312797 -0.000840699 0)
(-0.000665377 -0.000182277 0)
(-0.00108354 -0.00058918 0)
(-0.00141923 -0.000166483 0)
(-0.00170164 -0.000481031 0)
(-0.00187522 -0.000126294 0)
(-0.00189183 -0.000454553 0)
(-0.00193091 4.02162e-05 0)
(-0.00169537 -0.000524705 0)
(-0.0014474 0.000257711 0)
(-0.00074414 -0.000841805 0)
(3.33107e-06 0.000308054 0)
(0.000868837 -0.000968957 0)
(0.00166467 0.000196659 0)
(0.00211208 -0.000710474 0)
(0.0024069 1.69988e-05 0)
(0.00240595 -0.000454525 0)
(0.00230354 -0.000118976 0)
(0.00199009 -0.000378182 0)
(0.00137321 -9.35753e-05 0)
(0.000689077 -0.000493465 0)
(-0.000172117 -0.000203831 0)
(-0.000715916 -0.000884714 0)
(-0.00116161 -0.000260797 0)
(-0.00177375 -0.0010995 0)
(0.00010683 -0.00212804 0)
(0.00167595 0.000463781 0)
(-0.000702463 0.002802 0)
(-0.00162739 0.00116689 0)
(-0.00138145 -0.00060523 0)
(0.000276081 -0.00143056 0)
(0.0013193 -0.000361578 0)
(0.0016061 -0.000274755 0)
(0.0012369 0.000177521 0)
(0.000815138 7.62189e-05 0)
(0.000183744 0.000316764 0)
(-0.00014392 3.41365e-05 0)
(-0.000545574 0.000282697 0)
(-0.000522421 -0.000180011 0)
(-0.00065525 0.000416914 0)
(-0.000290699 -0.000559072 0)
(0.000273756 0.000673403 0)
(-0.00058018 0.000634032 0)
(-6.80561e-06 -0.000711975 0)
(0.000513637 0.000426998 0)
(0.000731119 -0.000487892 0)
(0.000859318 0.000201973 0)
(0.000704511 -0.000349595 0)
(0.000469194 4.83254e-05 0)
(0.000161791 -0.000437365 0)
(-3.51951e-05 -0.000174148 0)
(-3.15018e-05 -0.000765589 0)
(0.000108027 -0.000394576 0)
(0.000448439 -0.0010497 0)
(0.000472087 0.000400792 0)
(-0.00103952 0.000335759 0)
(-0.00105676 -0.000119996 0)
(0.000307402 -0.000685896 0)
(0.000390371 -0.00085405 0)
(-0.00102942 -0.000581367 0)
(-0.00165809 -0.00070056 0)
(-0.00242941 -0.000522865 0)
(-0.00286937 -0.000375054 0)
(-0.00355686 -0.00049557 0)
(-0.00375403 -0.000242067 0)
(-0.00417897 -0.000448089 0)
(-0.0040683 -0.00024092 0)
(-0.00430589 -0.000271891 0)
(-0.00392685 -0.000371468 0)
(-0.0038507 -1.53206e-05 0)
(-0.00306467 -0.000630314 0)
(-0.00237655 0.000100042 0)
(-0.0010036 -0.00105652 0)
(0.000255239 0.00018235 0)
(0.00142168 -0.00114073 0)
(0.00237352 1.94319e-05 0)
(0.0026697 -0.000605264 0)
(0.00282734 -0.000176054 0)
(0.00258794 -0.00034623 0)
(0.00208622 -0.000145038 0)
(0.00126524 -0.000350646 0)
(0.000441896 -0.000242985 0)
(-0.000332689 -0.000763023 0)
(-0.000819493 -0.000245829 0)
(-0.00149381 -0.000944215 0)
(0.000560446 -0.00199355 0)
(0.00226307 0.00109719 0)
(6.19129 20.253 0)
(19.7572 8.88419 0)
(30.8605 5.4752 0)
(40.2358 3.6456 0)
(53.0765 -3.87501 0)
(58.9908 -5.3283 0)
(63.4193 -7.50441 0)
(61.1793 -23.418 0)
(63.0469 -14.7467 0)
(36.72 -65.353 0)
(19.4874 11.6222 0)
(12.9034 -5.2717 0)
(-17.7447 22.0545 0)
(-3.68948 18.0172 0)
(36.1861 51.6411 0)
(45.221 38.9617 0)
(93.4648 56.9189 0)
(139.63 28.3671 0)
(162.287 53.1565 0)
(165.735 -0.771264 0)
(141.952 8.61452 0)
(129.424 -5.06523 0)
(108.483 11.1623 0)
(108.016 2.02084 0)
(95.6365 6.37348 0)
(106.002 3.65824 0)
(120.959 -0.385814 0)
(134.673 -8.6514 0)
(141.489 -9.96524 0)
(131.551 -8.76872 0)
(107.751 4.43281 0)
(69.4453 16.7946 0)
(41.2843 2.67957 0)
(10.7828 82.3715 0)
(-19.1054 15.6726 0)
(-31.3237 37.2078 0)
(-24.8349 29.6388 0)
(-1.80227 37.783 0)
(5.77801 24.8082 0)
(1.89306 22.7655 0)
(-12.0461 22.0415 0)
(-18.3969 22.7437 0)
(-15.0799 19.0101 0)
(-9.91964 18.6732 0)
(-9.20995 16.7647 0)
(-10.8747 27.3452 0)
(-22.5752 43.9155 0)
(-43.8759 36.9979 0)
(-58.7138 26.0137 0)
(-90.5729 23.3561 0)
(-100.847 41.7665 0)
(-152.021 12.9445 0)
(-170.046 35.7178 0)
(-228.362 -3.89557 0)
(-236.256 -0.168407 0)
(-302.544 -58.9633 0)
(-363.309 -38.2172 0)
(-380.43 -64.7867 0)
(-374.436 -45.3869 0)
(-374.625 -71.6211 0)
(-353.361 -60.7841 0)
(-343.513 -46.4578 0)
(-319.789 -60.0782 0)
(-236.011 -39.0147 0)
(-168.463 104.793 0)
(-84.1819 131.284 0)
(108.343 266.024 0)
(215.948 151.873 0)
(110.693 25.2333 0)
(-1.25397 73.7741 0)
(-18.101 49.4431 0)
(-11.0019 38.425 0)
(-9.90283 20.0861 0)
(-10.1629 -1.16703 0)
(96.5652 35.155 0)
(270.81 41.9789 0)
(471.597 103.265 0)
(568.721 24.3373 0)
(483.527 33.9942 0)
(499.655 62.1083 0)
(351.929 69.1786 0)
(407.066 79.2846 0)
(363.24 91.4447 0)
(362.145 106.668 0)
(331.581 102.214 0)
(240.493 108.725 0)
(144.707 139.235 0)
(76.2551 131.257 0)
(51.1214 117.052 0)
(50.5841 105.424 0)
(50.0506 47.3595 0)
(27.5951 62.1879 0)
(-20.8327 117.51 0)
(49.9859 156.07 0)
(113.915 137.692 0)
(111.402 112.794 0)
(161.921 49.5247 0)
(204.719 -14.3544 0)
(207.474 -96.538 0)
(190.271 -118.495 0)
(130.358 -91.0241 0)
(58.2469 -48.3008 0)
(-3.64242 10.7331 0)
(-12.5653 16.2341 0)
(-6.8104 35.1815 0)
(-23.3814 39.7891 0)
(-46.8098 43.2998 0)
(-76.0057 47.029 0)
(-112.317 49.4964 0)
(-149.626 51.2176 0)
(-184.692 53.3613 0)
(-214.993 45.7333 0)
(-253.571 43.6919 0)
(-280.744 26.3306 0)
(-269.205 28.396 0)
(-317.842 -10.9974 0)
(-250.58 -17.4841 0)
(-217.04 -62.5232 0)
(-157.051 -78.6962 0)
(-89.5497 -87.9806 0)
(-43.2593 -90.4912 0)
(2.14032 -78.9345 0)
(34.5315 -60.3002 0)
(60.8885 -49.5406 0)
(80.5138 -36.1496 0)
(92.4411 -25.3902 0)
(101.808 -18.8126 0)
(108.747 -13.3898 0)
(116.062 -12.8872 0)
(118.02 -23.9495 0)
(124.591 -19.804 0)
(118.163 -33.4138 0)
(92.6577 -43.7367 0)
(44.5779 -22.4157 0)
(-10.5834 28.8637 0)
(-19.7075 21.4562 0)
(-26.1936 16.4245 0)
(-30.6366 5.71973 0)
(-25.9806 -4.21521 0)
(-15.7705 -14.6753 0)
(0.335081 -24.0417 0)
(18.4893 -28.3836 0)
(37.6844 -31.6978 0)
(55.4874 -31.4902 0)
(70.6922 -33.3206 0)
(83.5877 -32.9625 0)
(92.2758 -35.3096 0)
(97.1195 -33.6441 0)
(101.63 -31.533 0)
(98.0062 -21.9314 0)
(98.9957 -18.2684 0)
(93.2703 -9.84662 0)
(91.6458 -6.84051 0)
(92.0312 -6.88604 0)
(87.4072 -4.00863 0)
(84.6026 -4.1871 0)
(77.5478 -4.14887 0)
(70.7358 -0.822933 0)
(62.588 -3.33415 0)
(51.9473 1.9769 0)
(42.3801 0.116244 0)
(29.4469 4.34623 0)
(18.5813 3.16083 0)
(4.91248 5.29583 0)
(1.34658 -7.98715 0)
(4.26266 -7.76173 0)
(7.29545 -7.58936 0)
(8.26548 -6.26474 0)
(9.17524 -5.61846 0)
(10.2611 -5.17723 0)
(10.989 -3.70921 0)
(11.4522 -4.2328 0)
(11.6198 -2.10283 0)
(11.6533 -3.3756 0)
(11.392 -0.92298 0)
(11.0236 -2.89913 0)
(10.4097 -0.0642916 0)
(9.87707 -2.40702 0)
(9.16853 0.235181 0)
(8.61854 -1.83339 0)
(7.88041 0.244804 0)
(7.35681 -1.32137 0)
(6.62336 0.249647 0)
(6.20492 -1.03618 0)
(5.42681 0.402161 0)
(5.06825 -0.881652 0)
(4.28814 0.541722 0)
(3.84252 -0.639043 0)
(3.19099 0.476113 0)
(2.67224 -0.35205 0)
(2.08012 0.386273 0)
(1.55004 -0.102884 0)
(0.941039 0.286043 0)
(0.333015 0.0925802 0)
(0.0792498 -0.302925 0)
(0.186928 -0.266571 0)
(0.268362 -0.271213 0)
(0.303022 -0.17649 0)
(0.308949 -0.194633 0)
(0.318345 -0.134344 0)
(0.310959 -0.130843 0)
(0.325799 -0.104808 0)
(0.303286 -0.0904349 0)
(0.304206 -0.0674823 0)
(0.272115 -0.0634713 0)
(0.262586 -0.0443355 0)
(0.234617 -0.0442886 0)
(0.216285 -0.0340986 0)
(0.196054 -0.0249055 0)
(0.168689 -0.0302049 0)
(0.159813 -0.0121121 0)
(0.126788 -0.0266745 0)
(0.120504 -0.00456759 0)
(0.0964135 -0.0255466 0)
(0.0843492 -0.00331394 0)
(0.073796 -0.0240582 0)
(0.0542044 -0.00603184 0)
(0.0473796 -0.022789 0)
(0.0323997 -0.00996921 0)
(0.0205567 -0.0211343 0)
(0.00877432 -0.0125213 0)
(-0.00304495 -0.0187386 0)
(-0.0147904 -0.0125556 0)
(-0.0211437 -0.0181264 0)
(0.0132136 -0.0179836 0)
(0.022611 -0.0150668 0)
(0.0200316 -0.0165222 0)
(0.018055 -0.0143767 0)
(0.0160521 -0.0161913 0)
(0.0145502 -0.013459 0)
(0.0129874 -0.0155889 0)
(0.0118076 -0.0128169 0)
(0.0104228 -0.0150449 0)
(0.00936911 -0.0123854 0)
(0.00806084 -0.0143977 0)
(0.00689935 -0.0121988 0)
(0.00544913 -0.013853 0)
(0.00374972 -0.012262 0)
(0.00187719 -0.0134996 0)
(-0.000157993 -0.0123341 0)
(-0.0020312 -0.0136 0)
(-0.00360247 -0.0121131 0)
(-0.00495151 -0.0138187 0)
(-0.0061751 -0.012104 0)
(-0.00726348 -0.0143489 0)
(-0.00837804 -0.012134 0)
(-0.00950653 -0.014499 0)
(-0.0107387 -0.0123532 0)
(-0.0122689 -0.0149682 0)
(-0.0139847 -0.0131242 0)
(-0.0159935 -0.0148132 0)
(-0.0187624 -0.0140123 0)
(-0.021085 -0.0149827 0)
(-0.0232417 -0.0156805 0)
(0.0227723 -0.0156303 0)
(0.0203108 -0.0150088 0)
(0.017746 -0.0141584 0)
(0.0150974 -0.015183 0)
(0.0133046 -0.0129343 0)
(0.0117792 -0.0147379 0)
(0.0104629 -0.0123435 0)
(0.00939065 -0.0144272 0)
(0.00840557 -0.0121676 0)
(0.00745257 -0.0141889 0)
(0.00652003 -0.0121595 0)
(0.00544228 -0.013871 0)
(0.0042497 -0.0121098 0)
(0.00281677 -0.0134383 0)
(0.00102458 -0.0121388 0)
(-0.000860844 -0.0132248 0)
(-0.00269012 -0.0119918 0)
(-0.00441922 -0.0134921 0)
(-0.00659219 -0.0122528 0)
(-0.00721367 -0.0127828 0)
(-0.0107471 -0.0127672 0)
(-0.0120688 -0.0123154 0)
(-0.0135286 -0.014465 0)
(-0.014749 -0.0123717 0)
(-0.0157767 -0.0150618 0)
(-0.01666 -0.0131947 0)
(-0.017703 -0.0159247 0)
(-0.0179924 -0.0146579 0)
(-0.0157369 -0.0166662 0)
(-0.00899617 -0.0140059 0)
(0.0127793 -0.0163966 0)
(0.0222837 -0.0137508 0)
(0.01984 -0.015498 0)
(0.017408 -0.0132409 0)
(0.0157061 -0.0151534 0)
(0.01391 -0.0128228 0)
(0.0125665 -0.0148532 0)
(0.0112322 -0.0125452 0)
(0.0100791 -0.0145754 0)
(0.00893189 -0.01235 0)
(0.00780153 -0.0140994 0)
(0.00655414 -0.0122642 0)
(0.00515719 -0.0137763 0)
(0.00342524 -0.0123833 0)
(0.00157933 -0.0135167 0)
(-0.000374934 -0.0124424 0)
(-0.00223834 -0.0136467 0)
(-0.00384518 -0.0122694 0)
(-0.00520555 -0.0139106 0)
(-0.00642857 -0.0122224 0)
(-0.00753762 -0.0143391 0)
(-0.00867903 -0.0122323 0)
(-0.00982862 -0.0145146 0)
(-0.0110642 -0.0124483 0)
(-0.0125754 -0.0150083 0)
(-0.0142682 -0.0132071 0)
(-0.0162853 -0.0148572 0)
(-0.0190668 -0.0140104 0)
(-0.0213321 -0.0150926 0)
(-0.0234237 -0.0159732 0)
(0.00991729 -0.0108808 0)
(0.0183064 -0.0161374 0)
(0.015859 -0.0150799 0)
(0.0125554 -0.0146337 0)
(0.0116254 -0.0164237 0)
(0.0106057 -0.0132546 0)
(0.0101135 -0.0150929 0)
(0.00930593 -0.0123299 0)
(0.00881781 -0.0145496 0)
(0.00803708 -0.0120981 0)
(0.00727717 -0.0142941 0)
(0.00624533 -0.0121499 0)
(0.0050438 -0.0139006 0)
(0.00316091 -0.0124244 0)
(0.00240118 -0.0123852 0)
(-0.000555988 -0.0129579 0)
(-0.00203714 -0.012447 0)
(-0.00388495 -0.0137942 0)
(-0.00551516 -0.0124353 0)
(-0.00679711 -0.014208 0)
(-0.00785919 -0.0124238 0)
(-0.00879126 -0.0145653 0)
(-0.00970432 -0.0127646 0)
(-0.0108227 -0.0152396 0)
(-0.0118515 -0.0135922 0)
(-0.0132344 -0.0161256 0)
(-0.0148327 -0.0143906 0)
(-0.0165997 -0.0150906 0)
(-0.0167157 -0.0154931 0)
(-0.00813023 -0.0126914 0)
(0.0120986 -0.016824 0)
(0.0208845 -0.0142651 0)
(0.0179714 -0.0165963 0)
(0.0148934 -0.0134382 0)
(0.0129138 -0.0164316 0)
(0.0109096 -0.0127397 0)
(0.00964706 -0.0163728 0)
(0.00821753 -0.0123624 0)
(0.00754953 -0.0160805 0)
(0.00658119 -0.0121458 0)
(0.0061054 -0.0154432 0)
(0.0053038 -0.0120721 0)
(0.004681 -0.0146241 0)
(0.00374266 -0.0122184 0)
(0.0026789 -0.0142425 0)
(0.00104848 -0.0124737 0)
(-0.000594991 -0.0137629 0)
(-0.00268791 -0.0125103 0)
(-0.00429431 -0.0138212 0)
(-0.00562661 -0.0122362 0)
(-0.00671401 -0.0143715 0)
(-0.00775368 -0.0121501 0)
(-0.00891493 -0.0146489 0)
(-0.00992518 -0.0122244 0)
(-0.0113678 -0.0151449 0)
(-0.0127275 -0.0128957 0)
(-0.0149288 -0.0150794 0)
(-0.0173574 -0.0136687 0)
(-0.019933 -0.0150335 0)
(-0.0226017 -0.0154806 0)
(6.83104 26.4731 0)
(19.849 12.5632 0)
(30.2884 11.6406 0)
(31.9394 -1.55836 0)
(42.2787 -0.198414 0)
(49.2185 -10.0248 0)
(52.4199 -9.35819 0)
(63.673 -20.5001 0)
(35.8255 -27.5196 0)
(23.346 -30.8572 0)
(23.4904 15.8849 0)
(7.94854 6.48804 0)
(-3.78283 31.5312 0)
(4.13788 36.7691 0)
(19.3816 54.8433 0)
(73.2253 68.7074 0)
(121.737 91.1779 0)
(124.791 45.7946 0)
(139.55 49.6128 0)
(130.412 21.1205 0)
(118.093 17.8419 0)
(105.302 -1.5868 0)
(89.2643 8.32303 0)
(82.5544 1.68792 0)
(85.4029 2.46621 0)
(91.8121 1.13545 0)
(106.455 -1.48401 0)
(125.655 -14.5846 0)
(131.489 -11.4558 0)
(125.744 -14.9466 0)
(99.7036 -2.39043 0)
(80.0227 4.62421 0)
(42.3474 20.2403 0)
(27.7303 55.9759 0)
(17.9196 26.423 0)
(-17.7554 47.594 0)
(-21.6357 37.7213 0)
(-18.1863 59.9654 0)
(-16.9677 30.4644 0)
(-14.9824 27.4141 0)
(-12.4323 37.1816 0)
(-7.75292 26.197 0)
(-2.91829 30.0431 0)
(-4.14532 28.2104 0)
(1.59205 36.9216 0)
(-15.6812 38.7199 0)
(-24.922 69.1298 0)
(-43.5591 51.5091 0)
(-51.5653 45.1399 0)
(-75.178 44.2733 0)
(-92.8087 50.9729 0)
(-145.108 36.0586 0)
(-161.539 44.084 0)
(-226.418 12.0387 0)
(-264.609 -9.34292 0)
(-321.823 -50.7525 0)
(-360.198 -65.289 0)
(-373.665 -118.146 0)
(-422.324 -113.451 0)
(-396.604 -111.678 0)
(-397.747 -99.1869 0)
(-402.251 -75.3272 0)
(-327.243 -11.2517 0)
(-250.678 20.519 0)
(-162.589 86.2556 0)
(-30.7817 134.534 0)
(100.059 177.471 0)
(42.6911 -31.5773 0)
(15.9909 -55.3235 0)
(-15.0212 43.8212 0)
(-48.1746 65.1284 0)
(-35.6044 32.9603 0)
(-43.834 31.6996 0)
(-20.5176 16.7145 0)
(138.699 194.842 0)
(350.943 179.141 0)
(490.412 109.361 0)
(541.453 52.7409 0)
(584.125 58.9171 0)
(499.896 -14.4103 0)
(374.409 60.4865 0)
(352.725 49.0074 0)
(380.468 78.9099 0)
(347.508 100.325 0)
(256.755 95.7619 0)
(159.108 116.233 0)
(74.4004 136.886 0)
(52.0654 114.857 0)
(81.0401 142.101 0)
(108.015 119.261 0)
(144.367 109.757 0)
(135.758 130.632 0)
(151.046 181.456 0)
(138.852 249.395 0)
(218.333 192.005 0)
(212.49 192.994 0)
(144.769 223.556 0)
(190.703 110.359 0)
(165.827 -17.3805 0)
(187.84 -114.7 0)
(179.265 -132.42 0)
(117.242 -58.7323 0)
(44.0693 -16.3943 0)
(-11.3849 29.0214 0)
(-10.5976 56.3531 0)
(-32.1482 59.8073 0)
(-55.7891 67.0021 0)
(-83.4687 75.7019 0)
(-117.615 82.656 0)
(-148.864 85.9796 0)
(-178.33 83.6893 0)
(-213.058 75.6339 0)
(-219.677 60.7165 0)
(-255.603 40.0862 0)
(-208.146 14.4813 0)
(-198.06 -37.0881 0)
(-120.391 -67.2336 0)
(-45.5371 -139.102 0)
(3.93953 -144.231 0)
(52.9804 -162.397 0)
(73.322 -130.972 0)
(100.122 -111.972 0)
(113.224 -90.57 0)
(119.823 -74.3739 0)
(117.701 -59.2863 0)
(119.848 -44.3528 0)
(122.714 -30.8677 0)
(122.694 -27.613 0)
(118.732 -28.6117 0)
(116.42 -34.5593 0)
(107.288 -42.362 0)
(98.1445 -51.3125 0)
(93.6066 -40.6171 0)
(50.3843 -53.0044 0)
(-5.04385 40.834 0)
(-23.7711 35.4478 0)
(-37.5034 23.8143 0)
(-47.6565 8.52439 0)
(-47.8216 -12.939 0)
(-34.7455 -30.7736 0)
(-14.7645 -50.8397 0)
(11.3288 -58.0638 0)
(35.1252 -60.7369 0)
(55.2226 -59.2057 0)
(70.4539 -55.2976 0)
(81.286 -52.7625 0)
(89.1603 -50.5319 0)
(96.6409 -46.0293 0)
(99.5209 -44.4306 0)
(98.8495 -35.4624 0)
(94.6186 -30.3751 0)
(90.09 -19.2173 0)
(82.6707 -16.4226 0)
(80.2876 -9.65412 0)
(75.7016 -11.5926 0)
(70.8989 -5.61063 0)
(66.539 -10.0439 0)
(59.61 -2.0046 0)
(53.0087 -6.12562 0)
(44.0848 2.03479 0)
(35.4391 -0.599541 0)
(25.3109 5.58345 0)
(15.3598 4.51817 0)
(4.21521 7.64471 0)
(0.899057 -12.0855 0)
(2.79441 -12.8433 0)
(4.25106 -11.7994 0)
(6.62581 -9.91755 0)
(8.29514 -9.34228 0)
(9.26916 -8.02095 0)
(9.99478 -6.50923 0)
(10.2731 -6.188 0)
(10.3416 -4.14555 0)
(10.0991 -4.73239 0)
(9.9394 -2.44378 0)
(9.32333 -3.82888 0)
(9.26829 -1.23182 0)
(8.50129 -2.97946 0)
(8.13027 -0.562451 0)
(7.31028 -2.3002 0)
(6.90636 -0.185918 0)
(6.23444 -1.74616 0)
(5.63077 0.0305256 0)
(5.21979 -1.27507 0)
(4.4879 0.165082 0)
(4.23706 -0.888223 0)
(3.59966 0.230821 0)
(3.15269 -0.592752 0)
(2.76359 0.288084 0)
(2.21043 -0.332198 0)
(1.81518 0.31049 0)
(1.27608 -0.0894671 0)
(0.822895 0.32301 0)
(0.286474 0.20108 0)
(0.00325688 -0.470536 0)
(0.0545081 -0.419903 0)
(0.0788531 -0.405731 0)
(0.14489 -0.29948 0)
(0.204691 -0.292426 0)
(0.232913 -0.221674 0)
(0.249271 -0.194314 0)
(0.2509 -0.158346 0)
(0.243242 -0.130515 0)
(0.232234 -0.109261 0)
(0.218931 -0.0898102 0)
(0.202644 -0.0731185 0)
(0.188214 -0.0610842 0)
(0.16847 -0.0539737 0)
(0.157796 -0.0369173 0)
(0.135191 -0.0455768 0)
(0.129758 -0.0181176 0)
(0.109813 -0.040078 0)
(0.106508 -0.00712984 0)
(0.0870032 -0.0339034 0)
(0.0836918 -0.00591013 0)
(0.0727444 -0.0256697 0)
(0.0622644 -0.00875049 0)
(0.0631384 -0.0219935 0)
(0.0522686 -0.0113681 0)
(0.0503201 -0.0183132 0)
(0.0427139 -0.0134112 0)
(0.0375089 -0.0138749 0)
(0.0245956 -0.00981918 0)
(0.0120559 -0.0248463 0)
(-0.00550631 -0.0237879 0)
(-0.014498 -0.0117648 0)
(-0.0172415 -0.0191007 0)
(-0.0181573 -0.00998454 0)
(-0.0187009 -0.0189154 0)
(-0.0182116 -0.00922355 0)
(-0.0175862 -0.0183379 0)
(-0.016167 -0.00861832 0)
(-0.0147793 -0.0177026 0)
(-0.0127246 -0.00808328 0)
(-0.0108061 -0.016869 0)
(-0.00837809 -0.00766344 0)
(-0.00622011 -0.0159813 0)
(-0.00385516 -0.00713884 0)
(-0.00182113 -0.0152985 0)
(0.000363047 -0.00693838 0)
(0.00252185 -0.015542 0)
(0.00473917 -0.00710223 0)
(0.00718243 -0.0161462 0)
(0.00945913 -0.00732925 0)
(0.0117588 -0.0168241 0)
(0.0137192 -0.00739793 0)
(0.0156001 -0.0170652 0)
(0.0169649 -0.00741386 0)
(0.018128 -0.0173178 0)
(0.0187703 -0.00763046 0)
(0.0190376 -0.0167059 0)
(0.018942 -0.00762299 0)
(0.0144369 -0.00973751 0)
(0.00679451 -0.020683 0)
(-0.00696314 -0.0207506 0)
(-0.0148587 -0.00957105 0)
(-0.0192948 -0.00803697 0)
(-0.0191757 -0.0173125 0)
(-0.0188058 -0.00755512 0)
(-0.0181309 -0.0171706 0)
(-0.0169703 -0.00745819 0)
(-0.0156107 -0.0170478 0)
(-0.0137974 -0.00748766 0)
(-0.0118869 -0.0167658 0)
(-0.00961513 -0.00747049 0)
(-0.00737471 -0.016252 0)
(-0.00494397 -0.00722724 0)
(-0.00272676 -0.0154734 0)
(-0.000535637 -0.00686608 0)
(0.00147556 -0.0151161 0)
(0.003357 -0.00689512 0)
(0.00543544 -0.0156899 0)
(0.00776071 -0.00756138 0)
(0.00947608 -0.0151402 0)
(0.0152352 -0.0146799 0)
(0.0167591 -0.00757693 0)
(0.0180355 -0.0170342 0)
(0.0189964 -0.00764111 0)
(0.0200098 -0.0177424 0)
(0.0206327 -0.00829102 0)
(0.0212928 -0.0187752 0)
(0.0216453 -0.00978109 0)
(0.0215519 -0.0197783 0)
(0.023438 -0.0101886 0)
(-0.00516248 -0.0217905 0)
(-0.0147059 -0.0087684 0)
(-0.0177588 -0.0177664 0)
(-0.0187489 -0.00771814 0)
(-0.0192885 -0.0175946 0)
(-0.0188349 -0.00772321 0)
(-0.0180421 -0.0174624 0)
(-0.0166724 -0.00775231 0)
(-0.0150792 -0.0171788 0)
(-0.0130733 -0.00767175 0)
(-0.0109556 -0.0166102 0)
(-0.00857098 -0.00747687 0)
(-0.0062478 -0.0159743 0)
(-0.00390345 -0.00719323 0)
(-0.00172293 -0.0154141 0)
(0.000381307 -0.00709849 0)
(0.00261383 -0.015684 0)
(0.00481025 -0.00732829 0)
(0.00721904 -0.0162934 0)
(0.00945609 -0.007542 0)
(0.0117169 -0.0168678 0)
(0.0136483 -0.00757989 0)
(0.0155015 -0.0171248 0)
(0.016861 -0.00759641 0)
(0.0180116 -0.0174082 0)
(0.018651 -0.00781376 0)
(0.0189144 -0.0167761 0)
(0.0188127 -0.00779976 0)
(0.0143722 -0.0100409 0)
(0.00681409 -0.0211089 0)
(-0.0190012 -0.010946 0)
(-0.0180662 -0.0172401 0)
(-0.0170471 -0.0140464 0)
(-0.0190209 -0.00918585 0)
(-0.0191195 -0.0191308 0)
(-0.0188966 -0.00878332 0)
(-0.0181158 -0.0180103 0)
(-0.0168258 -0.00812107 0)
(-0.0151699 -0.0174296 0)
(-0.0133325 -0.00786663 0)
(-0.0113188 -0.016934 0)
(-0.00930582 -0.00769533 0)
(-0.00723067 -0.0162117 0)
(-0.00520113 -0.00752571 0)
(-0.00340194 -0.0145253 0)
(0.00247975 -0.0148824 0)
(0.00490313 -0.00749404 0)
(0.00696811 -0.0160799 0)
(0.00883954 -0.00773367 0)
(0.010829 -0.0168117 0)
(0.0126226 -0.00795586 0)
(0.0143598 -0.0173124 0)
(0.0157284 -0.00821469 0)
(0.01681 -0.0179265 0)
(0.0172377 -0.00878856 0)
(0.0172527 -0.0187178 0)
(0.0167535 -0.00903513 0)
(0.0161337 -0.0177197 0)
(0.0181847 -0.0177165 0)
(0.0185017 -0.0110769 0)
(-0.0053285 -0.0219544 0)
(-0.0152091 -0.0099455 0)
(-0.0187259 -0.0188365 0)
(-0.0200943 -0.00859756 0)
(-0.0206147 -0.0190564 0)
(-0.0205358 -0.00846477 0)
(-0.0197303 -0.0191812 0)
(-0.0186586 -0.00836991 0)
(-0.0169297 -0.0189885 0)
(-0.0150619 -0.00818366 0)
(-0.012694 -0.0182613 0)
(-0.0103374 -0.00793125 0)
(-0.00767001 -0.0171517 0)
(-0.00523642 -0.00762834 0)
(-0.00270199 -0.0161896 0)
(-0.000492777 -0.0072672 0)
(0.00193489 -0.0155505 0)
(0.00426715 -0.00717129 0)
(0.0067882 -0.0160657 0)
(0.00921798 -0.0074484 0)
(0.0115505 -0.0169052 0)
(0.0136814 -0.00754742 0)
(0.0155938 -0.0173388 0)
(0.017175 -0.00755111 0)
(0.0184052 -0.0176604 0)
(0.0191943 -0.00757845 0)
(0.019511 -0.0169529 0)
(0.0194557 -0.00732297 0)
(0.0150053 -0.00966362 0)
(0.00726188 -0.0210016 0)
(1.1723 24.3601 0)
(13.4472 16.4343 0)
(23.4975 7.441 0)
(36.1463 -1.85238 0)
(45.8718 -5.33718 0)
(54.0561 -14.9585 0)
(63.4488 -14.9532 0)
(60.9634 -21.5463 0)
(60.7172 -31.0746 0)
(30.0054 5.05818 0)
(21.5865 32.6155 0)
(25.7484 24.0839 0)
(-1.00809 32.0091 0)
(-7.16645 45.7312 0)
(17.0255 52.2812 0)
(51.6955 100.271 0)
(90.6351 79.8153 0)
(98.5986 54.5641 0)
(105.464 45.2786 0)
(104.794 32.6898 0)
(92.3395 14.6425 0)
(86.2041 4.77533 0)
(73.5819 1.7047 0)
(79.3504 -3.23548 0)
(78.3446 -1.76268 0)
(91.2714 -8.37119 0)
(104.732 -4.89448 0)
(120.776 -16.8383 0)
(136.328 -15.11 0)
(130.388 -18.2982 0)
(103.935 -7.16 0)
(79.2514 2.6968 0)
(58.904 15.1928 0)
(23.0106 39.0185 0)
(-6.97488 18.789 0)
(-25.5607 44.051 0)
(-39.9928 38.9802 0)
(-53.7687 69.0954 0)
(-35.3153 51.5792 0)
(-15.6668 26.033 0)
(-14.4372 41.1915 0)
(-14.1253 23.6038 0)
(-8.17805 35.6663 0)
(-3.36609 35.6816 0)
(3.58666 50.7363 0)
(-1.45796 61.0144 0)
(-25.8565 85.0963 0)
(-41.7796 64.7417 0)
(-49.4412 60.3336 0)
(-67.7195 39.1833 0)
(-75.8202 57.0811 0)
(-109.171 23.0306 0)
(-122.464 59.2646 0)
(-205.979 -5.86724 0)
(-234.35 2.93081 0)
(-282.697 -79.9665 0)
(-354.485 -123.494 0)
(-338.351 -167.576 0)
(-324.69 -177.687 0)
(-333.813 -164.34 0)
(-321.623 -121.988 0)
(-294.651 -86.9448 0)
(-274.094 -5.93387 0)
(-185.083 28.6779 0)
(-95.6636 53.3384 0)
(7.6756 67.8078 0)
(-9.12433 -119.291 0)
(-36.8582 -150.237 0)
(-63.0138 -115.714 0)
(-72.8892 -26.5672 0)
(-46.5068 71.4408 0)
(-49.7878 -11.6677 0)
(-46.0188 23.1276 0)
(-26.7105 30.0228 0)
(137.538 210.195 0)
(329.924 206.871 0)
(445.993 178.587 0)
(504.397 135.893 0)
(469.767 39.7342 0)
(461.837 -26.4942 0)
(429.146 -65.9572 0)
(385.17 -42.8687 0)
(314.879 -6.99434 0)
(256.8 -24.1481 0)
(186.522 -22.9937 0)
(115.897 20.6081 0)
(59.1332 34.4964 0)
(32.149 81.7434 0)
(73.437 67.4747 0)
(122.029 80.3537 0)
(183.068 80.2933 0)
(220.638 123.001 0)
(271.153 202.548 0)
(313.459 185.703 0)
(320.863 211.118 0)
(338.917 167.863 0)
(323.205 246.948 0)
(254.945 153.717 0)
(193.061 113.028 0)
(198.485 39.8221 0)
(191.928 -85.3023 0)
(178.158 -66.8056 0)
(106.432 -15.7544 0)
(14.7455 30.9644 0)
(-6.97074 64.9986 0)
(-23.1287 75.2938 0)
(-42.8123 85.1178 0)
(-69.1173 98.2937 0)
(-97.0995 109.241 0)
(-121.012 111.056 0)
(-131.383 99.9843 0)
(-124.699 86.1473 0)
(-127.933 58.3506 0)
(-117.02 19.3333 0)
(-53.6605 -27.3859 0)
(9.88577 -110.921 0)
(60.2714 -148.065 0)
(118.409 -217.47 0)
(135.05 -226.021 0)
(165.224 -232.808 0)
(197.58 -181.104 0)
(209.182 -134.129 0)
(214.664 -109.953 0)
(203.468 -97.7765 0)
(189.277 -81.948 0)
(171.089 -65.7956 0)
(155.644 -52.9574 0)
(145.415 -44.1049 0)
(138.369 -45.6288 0)
(117.573 -46.8323 0)
(104.817 -46.1331 0)
(100.899 -40.1044 0)
(66.8615 -48.7668 0)
(26.983 -66.637 0)
(-16.0776 53.3466 0)
(-37.3629 50.6097 0)
(-59.5761 38.1103 0)
(-70.4604 13.0011 0)