/*--------------------------------*- C++ -*----------------------------------*\
| =========                 |                                                 |
| \\      /  F ield         | OpenFOAM: The Open Source CFD Toolbox           |
|  \\    /   O peration     | Version:  2.1.1                                 |
|   \\  /    A nd           | Web:      www.OpenFOAM.org                      |
|    \\/     M anipulation  |                                                 |
\*---------------------------------------------------------------------------*/
FoamFile
{
    version     2.0;
    format      ascii;
    class       volScalarField;
    location    "0.007200000";
    object      HO2;
}
// * * * * * * * * * * * * * * * * * * * * * * * * * * * * * * * * * * * * * //

dimensions      [0 0 0 0 0 0 0];

internalField   nonuniform List<scalar> 
12384
(
1.21242e-05
1.2386e-05
1.25908e-05
1.26388e-05
1.26485e-05
1.25038e-05
1.22585e-05
1.194e-05
1.15736e-05
1.06227e-05
1.01978e-05
9.97583e-06
9.84884e-06
8.72662e-06
1.06887e-05
1.15013e-05
1.19092e-05
1.18882e-05
1.1434e-05
1.09947e-05
1.06098e-05
1.05621e-05
1.05555e-05
1.05389e-05
1.03248e-05
9.7664e-06
9.52151e-06
9.38885e-06
9.2916e-06
9.33506e-06
9.40758e-06
9.7931e-06
9.81325e-06
9.83416e-06
9.80891e-06
9.73303e-06
9.65803e-06
9.55045e-06
9.40188e-06
8.82317e-06
8.36514e-06
8.49714e-06
1.04388e-05
1.04543e-05
4.26869e-06
2.3435e-06
1.86989e-06
1.58461e-06
1.4453e-06
1.44219e-06
1.40016e-06
1.47327e-06
1.53854e-06
1.6847e-06
1.8237e-06
1.9937e-06
2.158e-06
2.31613e-06
2.47722e-06
2.6172e-06
2.70922e-06
2.77443e-06
2.78464e-06
2.82196e-06
2.80763e-06
2.76104e-06
2.79156e-06
2.71996e-06
2.6378e-06
2.44769e-06
2.02293e-06
1.69994e-06
2.82053e-06
4.28225e-06
2.00787e-06
1.59753e-06
1.21622e-06
1.15858e-06
1.22674e-06
1.31855e-06
1.3631e-06
1.44003e-06
1.48186e-06
1.52589e-06
1.55584e-06
1.57715e-06
1.57768e-06
1.5611e-06
1.54263e-06
1.53984e-06
1.53261e-06
1.52918e-06
1.52157e-06
1.50913e-06
1.50759e-06
1.55406e-06
1.47054e-06
1.52704e-06
1.51002e-06
1.53027e-06
1.51296e-06
1.50271e-06
1.53275e-06
1.54247e-06
6.33954e-07
6.60723e-07
6.44325e-07
6.38806e-07
6.23817e-07
6.16151e-07
6.12918e-07
6.22669e-07
6.18237e-07
6.34869e-07
6.4418e-07
6.49833e-07
6.54544e-07
6.51411e-07
6.62978e-07
6.57079e-07
6.58177e-07
7.11579e-07
7.03284e-07
7.06763e-07
7.33891e-07
7.74347e-07
1.19743e-06
1.44447e-06
1.17013e-06
7.21439e-07
6.9117e-07
6.7826e-07
6.94144e-07
1.14508e-06
1.25772e-07
1.44224e-07
1.44771e-07
1.51253e-07
1.48035e-07
1.39546e-07
1.37554e-07
1.25887e-07
1.26686e-07
1.21248e-07
1.21293e-07
1.2246e-07
1.24489e-07
1.2705e-07
1.29834e-07
1.3112e-07
1.30771e-07
1.29831e-07
1.31356e-07
1.33629e-07
1.38049e-07
1.36102e-07
1.38261e-07
1.40618e-07
1.47595e-07
1.56443e-07
1.60014e-07
1.69322e-07
1.88931e-07
1.94033e-07
3.15352e-07
2.2819e-07
2.49432e-07
3.02345e-07
3.1849e-07
3.31706e-07
3.38777e-07
3.24893e-07
3.33042e-07
3.46882e-07
3.5862e-07
3.66101e-07
3.77287e-07
3.75726e-07
3.73749e-07
4.90553e-07
5.68984e-07
5.2468e-07
6.21504e-07
5.63412e-07
6.05531e-07
6.45535e-07
6.84603e-07
6.36484e-07
5.43858e-07
3.64698e-06
5.66053e-06
5.24739e-06
4.89438e-06
4.2849e-06
1.67731e-07
1.06892e-07
1.00447e-07
8.1005e-08
7.08472e-08
6.45441e-08
5.99261e-08
5.5217e-08
5.71032e-08
6.03465e-08
5.11183e-08
5.50348e-08
6.24281e-08
5.79143e-08
6.3527e-08
7.51942e-08
7.83242e-08
7.56493e-08
8.37122e-08
8.92175e-08
1.12617e-07
1.49696e-07
1.43762e-07
1.41502e-07
1.41489e-07
1.41083e-07
1.39955e-07
1.39149e-07
1.40931e-07
1.46867e-07
3.38121e-07
3.31111e-07
3.6328e-07
3.86535e-07
4.0069e-07
4.02469e-07
3.93608e-07
4.07531e-07
3.99397e-07
3.92107e-07
3.83935e-07
4.24824e-07
4.3409e-07
4.46704e-07
4.66161e-07
4.866e-07
4.08289e-07
1.2757e-07
4.57977e-08
4.58765e-08
4.839e-08
5.22805e-08
5.56522e-08
5.89273e-08
5.40151e-08
5.93848e-08
5.55636e-08
5.51287e-08
4.10269e-08
2.13241e-08
1.84005e-07
2.00562e-07
2.27945e-07
2.41493e-07
2.54556e-07
2.62261e-07
2.66265e-07
2.67333e-07
2.6573e-07
2.67108e-07
2.81219e-07
2.81945e-07
2.7924e-07
2.94734e-07
2.93107e-07
2.69834e-07
2.08299e-07
1.75846e-07
1.08608e-07
6.47655e-08
6.7718e-08
7.43312e-08
8.30814e-08
8.92817e-08
8.44481e-08
8.54835e-08
8.33336e-08
8.02334e-08
7.47879e-08
6.84942e-08
8.05231e-08
1.20489e-07
1.57734e-07
2.03832e-07
1.96763e-07
2.13113e-07
2.53442e-07
2.5351e-07
2.49374e-07
2.53643e-07
2.53762e-07
2.33362e-07
1.23787e-07
5.57057e-08
2.68075e-08
2.19262e-08
2.26495e-08
2.29285e-08
2.42312e-08
2.20988e-08
1.89679e-08
1.96692e-08
1.79067e-08
1.62399e-08
1.69824e-08
1.61896e-08
1.51788e-08
1.60896e-08
1.4223e-08
1.20672e-08
3.55825e-08
4.19483e-08
3.17316e-08
1.95963e-08
1.75909e-08
2.52735e-08
2.56621e-08
2.61728e-08
2.61205e-08
2.6246e-08
2.9045e-08
2.75093e-08
2.99762e-08
3.13322e-08
3.16592e-08
3.23847e-08
3.33937e-08
3.38441e-08
3.42567e-08
3.4598e-08
3.46884e-08
3.47865e-08
3.52912e-08
3.45604e-08
3.57943e-08
2.83125e-08
2.6911e-08
2.65273e-08
2.89163e-08
3.58949e-08
1.22353e-08
1.2373e-08
1.1232e-08
9.22188e-09
8.07361e-09
1.22938e-08
3.34334e-09
1.1883e-09
9.22494e-10
8.0774e-10
9.16123e-10
9.00599e-10
7.94369e-10
7.83585e-10
7.41624e-10
7.20855e-10
6.92843e-10
7.08665e-10
6.83871e-10
6.40529e-10
6.07699e-10
6.72922e-10
8.62613e-10
9.40536e-10
9.44586e-10
1.0429e-09
1.23449e-09
2.17077e-09
2.31461e-09
8.48251e-10
1.3195e-05
1.39242e-05
1.40625e-05
1.40455e-05
1.38421e-05
1.36113e-05
1.33115e-05
1.30307e-05
1.23035e-05
1.17857e-05
1.11322e-05
9.87309e-06
9.66786e-06
8.73326e-06
1.08277e-05
1.17227e-05
1.19254e-05
1.16293e-05
1.11561e-05
1.09658e-05
1.09555e-05
1.12023e-05
1.06038e-05
9.72315e-06
9.05192e-06
8.66618e-06
8.5574e-06
8.65824e-06
9.08194e-06
9.66961e-06
1.03757e-05
1.07059e-05
1.09562e-05
1.10677e-05
1.11034e-05
1.10303e-05
1.0854e-05
1.05152e-05
1.0144e-05
9.67162e-06
8.75543e-06
8.36379e-06
9.50657e-06
1.07656e-05
4.10313e-06
2.23284e-06
1.76224e-06
1.44943e-06
1.3057e-06
1.31065e-06
1.35979e-06
1.52323e-06
1.7292e-06
1.96815e-06
2.19248e-06
2.40973e-06
2.64547e-06
2.8881e-06
3.08862e-06
3.70967e-06
3.84715e-06
3.91655e-06
3.9902e-06
4.01056e-06
4.06791e-06
4.11397e-06
4.08761e-06
3.98154e-06
3.2628e-06
2.9676e-06
2.52782e-06
1.93955e-06
2.0955e-06
2.84961e-06
1.92884e-06
1.44257e-06
1.20373e-06
1.30285e-06
1.49369e-06
1.66212e-06
1.76382e-06
1.76876e-06
1.79751e-06
1.81603e-06
1.8524e-06
1.89127e-06
1.91825e-06
1.91636e-06
1.87051e-06
1.80794e-06
1.76429e-06
1.74659e-06
1.72961e-06
1.77366e-06
1.81015e-06
1.8133e-06
1.80172e-06
1.82591e-06
1.80418e-06
1.74922e-06
1.67715e-06
1.59128e-06
1.56384e-06
1.56768e-06
6.26057e-07
6.50385e-07
6.35824e-07
6.32236e-07
6.10776e-07
5.92019e-07
5.91965e-07
6.28601e-07
6.73382e-07
7.4367e-07
8.05556e-07
1.25431e-06
1.36905e-06
1.44704e-06
1.47162e-06
1.50454e-06
1.41191e-06
1.2858e-06
1.15754e-06
8.29287e-07
7.89842e-07
7.74209e-07
8.25858e-07
1.3222e-06
1.33652e-06
6.73925e-07
6.08389e-07
5.68516e-07
5.60146e-07
5.81547e-07
1.30639e-07
1.44696e-07
1.48029e-07
1.46553e-07
1.41396e-07
1.25562e-07
1.18918e-07
1.08385e-07
9.27877e-08
9.28014e-08
9.5501e-08
9.72504e-08
1.13782e-07
1.16352e-07
1.20386e-07
1.24357e-07
1.28463e-07
1.31265e-07
1.32976e-07
1.36117e-07
1.38298e-07
1.43943e-07
1.4316e-07
1.52032e-07
1.58027e-07
1.60253e-07
1.64383e-07
1.67018e-07
1.82169e-07
1.91292e-07
3.08764e-07
2.33209e-07
2.73426e-07
2.98528e-07
2.60722e-07
2.05629e-07
1.64892e-07
1.3583e-07
2.17062e-07
2.70766e-07
3.14909e-07
3.42064e-07
3.67731e-07
3.70216e-07
3.60758e-07
5.50359e-07
5.69572e-07
5.79981e-07
5.99954e-07
6.36407e-07
6.86606e-07
6.42103e-07
6.80784e-07
6.66526e-07
6.11263e-07
1.37949e-06
4.69721e-06
5.2128e-06
3.7783e-06
3.10938e-06
1.72125e-07
1.03468e-07
8.38312e-08
6.34533e-08
5.76994e-08
5.72147e-08
6.03471e-08
4.9353e-08
5.17757e-08
6.56785e-08
6.27569e-08
6.00634e-08
5.74003e-08
5.90763e-08
6.10347e-08
6.34111e-08
7.06565e-08
7.97281e-08
8.77488e-08
8.35566e-08
9.7711e-08
1.36818e-07
1.49238e-07
1.47645e-07
1.51227e-07
1.52066e-07
1.46291e-07
1.39864e-07
1.31641e-07
1.28181e-07
3.36935e-07
3.44871e-07
3.91216e-07
4.32343e-07
4.6617e-07
4.89231e-07
5.16717e-07
5.18464e-07
5.16441e-07
5.17862e-07
5.15889e-07
5.08141e-07
5.1026e-07
5.21369e-07
5.10014e-07
5.10547e-07
4.9825e-07
3.01364e-07
8.71978e-08
4.67637e-08
4.89191e-08
5.00974e-08
5.08219e-08
5.52427e-08
5.68547e-08
8.26215e-08
1.02379e-07
9.31367e-08
5.91649e-08
3.12285e-08
2.2381e-07
2.49277e-07
2.56623e-07
2.65486e-07
2.802e-07
2.97695e-07
3.15037e-07
3.3585e-07
4.91131e-07
5.88762e-07
6.54162e-07
7.09994e-07
7.13937e-07
5.60081e-07
3.79463e-07
3.42337e-07
2.86526e-07
2.05284e-07
1.24345e-07
1.0564e-07
6.87876e-08
7.55921e-08
8.4916e-08
9.04686e-08
8.67865e-08
8.86777e-08
8.6908e-08
8.47038e-08
8.14126e-08
7.23657e-08
7.27545e-08
1.1357e-07
1.58951e-07
2.17783e-07
2.53538e-07
2.81479e-07
3.05035e-07
3.43757e-07
3.57907e-07
3.59903e-07
3.33084e-07
3.07193e-07
2.35142e-07
1.09349e-07
3.56778e-08
2.2503e-08
2.49125e-08
2.39853e-08
1.80017e-08
1.55745e-08
1.97601e-08
1.58736e-08
1.72845e-08
1.53517e-08
1.46025e-08
1.52602e-08
1.483e-08
1.52152e-08
1.5765e-08
1.22681e-08
3.49887e-08
3.52343e-08
2.68108e-08
2.03272e-08
2.76795e-08
2.96483e-08
3.12327e-08
3.12283e-08
3.19164e-08
3.14764e-08
3.13407e-08
3.18129e-08
3.08498e-08
2.9938e-08
3.07021e-08
2.98082e-08
2.94114e-08
2.92872e-08
2.92711e-08
3.02486e-08
3.22674e-08
3.50394e-08
3.79161e-08
4.03118e-08
4.18644e-08
4.04678e-08
3.19468e-08
2.81042e-08
2.84186e-08
3.63367e-08
1.42133e-08
8.77936e-09
1.48475e-08
8.71259e-09
1.03053e-08
6.12107e-09
1.80567e-09
1.0489e-09
9.17965e-10
9.27789e-10
9.28327e-10
8.64227e-10
8.35346e-10
8.00859e-10
7.39275e-10
7.43454e-10
6.91327e-10
6.28515e-10
6.22069e-10
5.88145e-10
5.6117e-10
5.87091e-10
4.32083e-10
5.51185e-10
8.17731e-10
9.82908e-10
1.39483e-09
2.40947e-09
2.39058e-09
8.15918e-10
1.41543e-05
1.45119e-05
1.4524e-05
1.42624e-05
1.38251e-05
1.32786e-05
1.24941e-05
1.21402e-05
1.19888e-05
1.18436e-05
1.14938e-05
1.06646e-05
9.53111e-06
8.62994e-06
1.09339e-05
1.18231e-05
1.18423e-05
1.13592e-05
1.10752e-05
1.11781e-05
1.16642e-05
1.1567e-05
9.79808e-06
8.17339e-06
7.51511e-06
7.28913e-06
7.96811e-06
8.6825e-06
1.00098e-05
1.07435e-05
1.13346e-05
1.18353e-05
1.20051e-05
1.21515e-05
1.22913e-05
1.22883e-05
1.22071e-05
1.17913e-05
1.12433e-05
1.05483e-05
9.71888e-06
8.54943e-06
8.69505e-06
1.06004e-05
4.03518e-06
2.20926e-06
1.66493e-06
1.27842e-06
1.09737e-06
1.10862e-06
1.2355e-06
1.5458e-06
1.91661e-06
2.27864e-06
2.50933e-06
2.64476e-06
2.80105e-06
3.01095e-06
3.17222e-06
3.78925e-06
3.85841e-06
3.94602e-06
4.00695e-06
4.09336e-06
4.21315e-06
4.33601e-06
4.39932e-06
4.49086e-06
4.44485e-06
4.1152e-06
3.06216e-06
2.40449e-06
1.96513e-06
2.38707e-06
1.82354e-06
1.34798e-06
1.25558e-06
1.48968e-06
1.72191e-06
1.79171e-06
1.73474e-06
1.59928e-06
1.5029e-06
1.51087e-06
1.61452e-06
1.7541e-06
1.89459e-06
1.99296e-06
1.97572e-06
1.89609e-06
1.83809e-06
1.82206e-06
1.86479e-06
1.9808e-06
2.0472e-06
2.05743e-06
2.11346e-06
2.11062e-06
2.10114e-06
2.03803e-06
1.92602e-06
1.77236e-06
1.62975e-06
1.5963e-06
6.05202e-07
6.37767e-07
6.40958e-07
6.48578e-07
6.06548e-07
5.80276e-07
6.12143e-07
6.83626e-07
1.07945e-06
1.45065e-06
1.68621e-06
1.88719e-06
2.03991e-06
2.16111e-06
2.24423e-06
2.29504e-06
2.27276e-06
2.20507e-06
1.99655e-06
1.6755e-06
1.31011e-06
8.30395e-07
8.05214e-07
8.42311e-07
1.3728e-06
1.08877e-06
7.00908e-07
7.11487e-07
6.92348e-07
5.88848e-07
1.29207e-07
1.45529e-07
1.45921e-07
1.45166e-07
1.29273e-07
1.16678e-07
9.42424e-08
8.89386e-08
7.24048e-08
7.19758e-08
9.8484e-08
1.00916e-07
1.02548e-07
1.15023e-07
1.17391e-07
1.25941e-07
1.34124e-07
1.42106e-07
1.53843e-07
1.54476e-07
1.53608e-07
1.5659e-07
1.58404e-07
1.58476e-07
1.65131e-07
1.62475e-07
1.59856e-07
1.66132e-07
1.76329e-07
1.8737e-07
3.00454e-07
2.30181e-07
2.36348e-07
1.99187e-07
1.11851e-07
9.01536e-08
8.3596e-08
9.82331e-08
1.24439e-07
2.33117e-07
3.03112e-07
3.55095e-07
3.65783e-07
3.59433e-07
3.5078e-07
3.43089e-07
3.34831e-07
3.30399e-07
3.33917e-07
3.4722e-07
3.58674e-07
5.26462e-07
6.17145e-07
6.67683e-07
5.93027e-07
8.23409e-07
1.90536e-06
4.78478e-06
4.22182e-06
2.92269e-06
1.34951e-07
8.62476e-08
6.24217e-08
5.47505e-08
5.63321e-08
5.67561e-08
6.64229e-08
8.29265e-08
8.1144e-08
7.08823e-08
6.6421e-08
7.17328e-08
6.86096e-08
6.43508e-08
6.72482e-08
5.87424e-08
6.35929e-08
7.10592e-08
7.92673e-08
8.74154e-08
8.39987e-08
1.05626e-07
1.42909e-07
1.24566e-07
1.72806e-07
1.74908e-07
1.3835e-07
1.53618e-07
1.46851e-07
1.17818e-07
3.21012e-07
3.79569e-07
4.29536e-07
4.84623e-07
5.50536e-07
9.30372e-07
1.16127e-06
1.33085e-06
1.49194e-06
1.52157e-06
1.46809e-06
1.43059e-06
1.25359e-06
1.10522e-06
9.47535e-07
5.65091e-07
5.36625e-07
4.57711e-07
1.77303e-07
6.04079e-08
4.6866e-08
4.63315e-08
4.69396e-08
5.06552e-08
4.91568e-08
8.41865e-08
1.04558e-07
1.0872e-07
9.23567e-08
4.37436e-08
2.58725e-07
2.44602e-07
2.4312e-07
2.54532e-07
2.80203e-07
3.12669e-07
3.50299e-07
7.02508e-07
8.85508e-07
1.04546e-06
1.15857e-06
1.23978e-06
1.22115e-06
1.18883e-06
1.01955e-06
7.2562e-07
3.558e-07
2.73702e-07
2.34452e-07
1.01878e-07
9.74418e-08
7.07632e-08
7.51602e-08
8.04493e-08
7.77892e-08
8.26138e-08
8.15236e-08
7.79409e-08
7.68514e-08
7.42943e-08
6.13943e-08
1.15893e-07
1.69126e-07
2.14293e-07
2.90199e-07
3.43253e-07
3.97325e-07
7.35623e-07
8.75334e-07
8.79146e-07
7.29509e-07
4.10551e-07
3.49156e-07
1.7161e-07
7.90316e-08
2.83938e-08
2.46464e-08
2.5185e-08
1.49053e-08
1.47567e-08
1.30788e-08
1.19912e-08
1.65211e-08
1.49465e-08
1.37218e-08
1.54038e-08
1.49981e-08
1.51493e-08
1.4921e-08
1.20674e-08
3.37772e-08
2.58822e-08
2.19853e-08
2.32197e-08
2.64242e-08
3.0236e-08
3.2441e-08
3.36993e-08
3.27878e-08
3.33987e-08
3.03422e-08
2.9108e-08
3.41382e-08
3.00574e-08
2.78082e-08
2.52634e-08
2.21355e-08
2.03104e-08
2.17865e-08
2.57037e-08
3.20953e-08
3.90083e-08
4.45565e-08
4.7118e-08
4.90976e-08
4.82302e-08
4.22484e-08
2.99976e-08
2.8178e-08
3.57382e-08
1.14068e-08
1.79001e-08
2.54649e-08
9.29943e-09
7.64713e-09
2.76694e-09
1.26332e-09
1.05233e-09
1.03195e-09
1.05593e-09
9.57774e-10
1.23536e-09
9.72458e-10
1.23602e-09
9.75554e-10
9.20617e-10
7.65887e-10
7.01299e-10
6.33275e-10
5.71236e-10
5.2982e-10
5.58147e-10
4.37291e-10
8.21522e-10
9.42256e-10
1.26506e-09
2.36079e-09
2.38412e-09
2.21424e-09
4.71349e-10
1.49282e-05
1.47366e-05
1.44261e-05
1.37389e-05
1.24293e-05
1.14732e-05
1.03334e-05
1.01303e-05
1.02441e-05
1.12141e-05
1.13991e-05
1.08801e-05
9.51387e-06
8.55665e-06
1.0962e-05
1.18417e-05
1.17334e-05
1.12637e-05
1.11096e-05
1.15313e-05
1.21346e-05
1.09312e-05
8.71666e-06
7.739e-06
7.04495e-06
6.86059e-06
7.89482e-06
9.19355e-06
1.06433e-05
1.1557e-05
1.19784e-05
1.21504e-05
1.23348e-05
1.23504e-05
1.24494e-05
1.26005e-05
1.28097e-05
1.27203e-05
1.2345e-05
1.14884e-05
1.04548e-05
9.01138e-06
8.47258e-06
1.01128e-05
4.10412e-06
2.25564e-06
1.62423e-06
1.11679e-06
8.42535e-07
6.22531e-07
1.05146e-06
1.64704e-06
2.288e-06
2.8056e-06
3.06642e-06
3.01603e-06
2.98718e-06
3.07033e-06
3.16225e-06
3.68744e-06
3.79735e-06
3.95685e-06
4.13697e-06
4.40537e-06
4.56141e-06
4.67122e-06
4.72266e-06
4.75312e-06
4.80101e-06
4.63467e-06
4.12561e-06
2.86172e-06
2.09398e-06
2.19245e-06
1.7648e-06
1.31434e-06
1.32517e-06
1.6203e-06
1.79644e-06
1.70615e-06
1.41569e-06
1.14176e-06
1.04497e-06
1.10663e-06
1.28688e-06
1.54463e-06
1.80129e-06
1.98753e-06
1.99433e-06
1.88635e-06
1.83307e-06
1.90035e-06
2.08945e-06
2.21267e-06
2.30461e-06
2.40453e-06
2.44688e-06
2.42347e-06
2.40281e-06
2.30789e-06
2.17795e-06
1.97646e-06
1.741e-06
1.62131e-06
5.73563e-07
6.10294e-07
6.62756e-07
6.42829e-07
5.76343e-07
5.73063e-07
6.47007e-07
7.68801e-07
1.47401e-06
1.81892e-06
2.01627e-06
2.21874e-06
2.37486e-06
2.49988e-06
2.63868e-06
2.69916e-06
2.78156e-06
2.75291e-06
2.59535e-06
2.30714e-06
1.83105e-06
1.39481e-06
8.34818e-07
8.26091e-07
1.19402e-06
1.30612e-06
1.23243e-06
1.52995e-06
1.49402e-06
7.48881e-07
1.31744e-07
1.43075e-07
1.45829e-07
1.39955e-07
1.27198e-07
9.54449e-08
7.35886e-08
6.93173e-08
7.37142e-08
7.11528e-08
9.55216e-08
9.93893e-08
1.03751e-07
1.15028e-07
1.19811e-07
1.30891e-07
1.44098e-07
1.56411e-07
1.61544e-07
1.73385e-07
1.63853e-07
1.67829e-07
1.75743e-07
1.73506e-07
1.68377e-07
1.74414e-07
1.68776e-07
1.67033e-07
1.73472e-07
1.83934e-07
2.922e-07
2.18818e-07
1.84444e-07
1.07947e-07
6.74399e-08
4.75467e-08
3.98079e-08
8.10319e-08
1.13933e-07
2.3489e-07
3.13808e-07
3.53737e-07
3.52196e-07
3.44108e-07
3.35293e-07
3.26054e-07
3.03479e-07
3.04964e-07
2.98329e-07
3.14728e-07
3.35782e-07
3.52598e-07
3.69126e-07
6.00812e-07
5.98783e-07
6.21158e-07
1.24589e-06
3.25005e-06
4.17033e-06
2.96202e-06
1.20077e-07
8.39535e-08
5.39463e-08
5.49753e-08
6.47973e-08
8.07135e-08
8.99671e-08
8.44167e-08
6.97081e-08
6.0409e-08
4.81343e-08
5.70016e-08
5.40999e-08
4.16936e-08
5.71181e-08
5.98436e-08
5.40031e-08
6.32825e-08
7.19253e-08
8.042e-08
8.84979e-08
9.05642e-08
1.30381e-07
1.2089e-07
1.85284e-07
1.82922e-07
1.38556e-07
1.35014e-07
1.56446e-07
1.28716e-07
3.44637e-07
3.95131e-07
4.48675e-07
5.30807e-07
9.57312e-07
1.33671e-06
1.66138e-06
1.94846e-06
2.1205e-06
2.23512e-06
2.33214e-06
2.20302e-06
2.02289e-06
1.75666e-06
1.48958e-06
1.15649e-06
5.81934e-07
5.21158e-07
3.60212e-07
1.40758e-07
6.15154e-08
4.51784e-08
4.43895e-08
5.18127e-08
8.26712e-08
1.08525e-07
1.2473e-07
1.35348e-07
1.1917e-07
5.30852e-08
2.41349e-07
2.29291e-07
2.29199e-07
2.49039e-07
2.91667e-07
3.4468e-07
7.54728e-07
1.06811e-06
1.33448e-06
1.50298e-06
1.61238e-06
1.67251e-06
1.73287e-06
1.62653e-06
1.49226e-06
1.19555e-06
7.73032e-07
3.43734e-07
2.59953e-07
2.20756e-07
1.31348e-07
9.14878e-08
7.5313e-08
7.94008e-08
8.88966e-08
8.89891e-08
7.57035e-08
6.99454e-08
6.87112e-08
7.23754e-08
7.44809e-08
1.27408e-07
1.64353e-07
2.41884e-07
3.1744e-07
7.35716e-07
1.27611e-06
1.65276e-06
1.82512e-06
1.78057e-06
1.54844e-06
1.11277e-06
5.99056e-07
3.014e-07
1.10192e-07
3.64569e-08
2.38206e-08
2.65164e-08
1.76998e-08
2.27494e-08
1.92864e-08
1.42202e-08
1.15796e-08
1.58178e-08
1.36215e-08
1.50541e-08
1.44431e-08
1.56593e-08
1.4618e-08
1.22147e-08
3.22315e-08
2.79319e-08
2.41378e-08
2.81592e-08
2.67297e-08
3.16442e-08
3.50915e-08
2.66243e-08
2.8776e-08
2.69618e-08
3.46418e-08
2.79351e-08
3.30653e-08
2.9591e-08
3.01142e-08
2.49824e-08
2.08421e-08
1.76203e-08
1.90047e-08
2.76979e-08
3.93001e-08
5.05536e-08
6.67669e-08
7.83842e-08
6.8194e-08
4.78608e-08
4.71555e-08
3.16627e-08
2.74136e-08
3.55887e-08
6.62197e-09
1.57906e-08
3.08558e-08
1.03019e-08
6.05941e-09
1.77546e-09
1.24414e-09
8.45715e-10
1.10875e-09
1.5219e-09
2.06445e-09
2.13896e-09
2.36021e-09
2.05551e-09
1.7733e-09
1.49539e-09
9.73972e-10
7.97352e-10
6.83221e-10
6.01929e-10
5.42716e-10
5.55013e-10
8.03499e-10
1.16529e-09
1.9481e-09
2.57666e-09
2.22186e-09
2.2829e-09
1.02405e-09
4.23191e-10
1.49106e-05
1.46719e-05
1.3906e-05
1.20176e-05
1.0737e-05
9.4179e-06
9.11637e-06
9.1836e-06
9.47485e-06
9.84796e-06
1.10451e-05
1.09242e-05
9.61383e-06
8.48682e-06
1.0975e-05
1.18237e-05
1.1662e-05
1.12153e-05
1.1233e-05
1.18562e-05
1.25252e-05
1.09847e-05
8.77223e-06
7.83166e-06
6.90113e-06
6.74433e-06
7.9398e-06
9.91639e-06
1.11774e-05
1.18355e-05
1.19974e-05
1.18248e-05
1.18267e-05
1.19912e-05
1.22842e-05
1.25065e-05
1.28126e-05
1.29097e-05
1.29176e-05
1.23403e-05
1.11031e-05
9.69695e-06
8.42475e-06
9.84976e-06
4.28167e-06
2.39684e-06
1.73111e-06
1.08083e-06
6.16506e-07
5.99276e-07
1.08375e-06
1.96066e-06
2.92965e-06
4.02073e-06
4.4264e-06
4.12624e-06
3.67831e-06
3.11531e-06
3.12365e-06
3.62833e-06
3.83209e-06
4.12622e-06
4.5331e-06
4.90215e-06
5.09101e-06
5.17255e-06
5.16395e-06
5.12053e-06
5.02497e-06
4.96663e-06
4.60773e-06
3.21775e-06
2.31766e-06
2.12635e-06
1.73868e-06
1.30097e-06
1.37381e-06
1.69011e-06
1.80763e-06
1.60708e-06
1.26601e-06
9.99078e-07
9.23917e-07
9.62703e-07
1.14558e-06
1.47514e-06
1.80774e-06
2.02692e-06
1.99172e-06
1.83427e-06
1.86742e-06
2.09042e-06
2.29802e-06
2.44691e-06
2.62437e-06
3.19172e-06
3.23815e-06
3.22733e-06
3.11376e-06
2.56752e-06
2.40075e-06
2.16255e-06
1.85334e-06
1.6446e-06
5.39106e-07
5.89227e-07
9.73359e-07
6.08082e-07
5.45264e-07
5.77464e-07
6.89843e-07
1.25754e-06
1.70321e-06
1.95335e-06
2.1701e-06
2.30765e-06
2.48411e-06
2.67469e-06
2.84266e-06
2.98207e-06
2.99109e-06
3.03189e-06
3.00147e-06
2.79735e-06
2.36761e-06
1.8414e-06
1.2615e-06
8.28314e-07
8.55767e-07
1.34774e-06
1.33626e-06
1.81983e-06
1.69047e-06
1.08294e-06
1.27509e-07
1.42571e-07
1.42962e-07
1.39456e-07
1.26268e-07
9.5284e-08
9.29564e-08
6.72237e-08
6.68623e-08
8.21021e-08
9.92458e-08
1.0371e-07
1.15611e-07
1.15945e-07
1.23054e-07
1.38536e-07
1.55314e-07
1.72169e-07
1.7368e-07
1.84996e-07
1.81565e-07
1.78567e-07
1.78917e-07
1.84991e-07
1.84765e-07
1.76389e-07
1.77942e-07
1.69943e-07
1.71133e-07
1.80362e-07
2.8784e-07
1.66286e-07
1.19446e-07
7.89254e-08
4.43598e-08
4.01602e-08
4.65749e-08
7.65327e-08
1.10493e-07
2.42739e-07
3.32021e-07
3.41951e-07
3.39739e-07
3.33971e-07
3.03596e-07
2.95816e-07
2.88681e-07
2.83286e-07
2.83186e-07
2.89672e-07
2.8653e-07
3.1321e-07
3.56844e-07
5.01123e-07
5.84439e-07
5.62573e-07
9.1289e-07
1.86329e-06
3.63292e-06
2.86885e-06
1.04274e-07
5.63919e-08
5.15229e-08
6.51462e-08
8.70527e-08
8.72481e-08
8.25502e-08
7.24081e-08
5.4862e-08
4.70503e-08
4.88995e-08
4.60122e-08
4.55374e-08
4.38982e-08
4.56572e-08
4.7264e-08
3.8324e-08
5.26483e-08
6.30413e-08
7.46693e-08
8.13343e-08
9.23921e-08
1.16539e-07
1.43783e-07
1.76061e-07
1.67101e-07
1.39754e-07
1.53354e-07
1.72077e-07
1.35158e-07
3.50839e-07
3.70884e-07
4.56959e-07
5.43336e-07
1.18524e-06
1.65454e-06
2.08574e-06
2.44425e-06
3.19244e-06
3.46662e-06
3.44687e-06
3.34971e-06
2.64585e-06
2.35268e-06
2.00664e-06
1.57218e-06
1.10349e-06
5.55709e-07
4.64474e-07
2.38092e-07
1.05051e-07
4.95634e-08
4.97548e-08
6.86953e-08
1.14673e-07
1.48389e-07
1.61446e-07
1.4159e-07
1.33305e-07
5.45027e-08
2.23768e-07
2.08664e-07
1.80152e-07
2.50692e-07
3.0773e-07
6.28861e-07
1.01654e-06
1.36222e-06
1.64961e-06
1.83421e-06
2.37685e-06
2.47271e-06
2.42757e-06
2.00912e-06
1.85658e-06
1.5703e-06
1.14244e-06
5.25635e-07
3.19077e-07
2.4276e-07
1.54104e-07
1.2601e-07
1.02675e-07
1.03833e-07
9.94638e-08
8.98952e-08
8.21002e-08
6.32417e-08
6.03651e-08
6.73387e-08
1.18213e-07
1.50862e-07
1.94089e-07
2.75308e-07
5.53687e-07
1.35809e-06
2.03018e-06
3.28962e-06
3.75601e-06
3.5946e-06
2.81552e-06
1.75403e-06
1.11869e-06
3.6285e-07
1.56764e-07
4.32045e-08
2.42165e-08
2.68559e-08
2.11072e-08
1.85649e-08
2.46133e-08
2.08888e-08
1.97161e-08
1.36586e-08
1.55003e-08
1.41931e-08
1.3986e-08
1.30612e-08
1.32403e-08
1.19377e-08
3.11133e-08
2.25577e-08
2.7218e-08
2.5981e-08
3.31865e-08
3.16541e-08
2.76937e-08
3.61054e-08
3.41107e-08
3.21974e-08
2.79043e-08
3.19522e-08
3.23604e-08
3.32733e-08
2.96523e-08
2.79671e-08
2.11345e-08
1.65947e-08
1.74477e-08
2.86763e-08
4.35062e-08
6.17338e-08
1.20812e-07
1.35883e-07
1.15348e-07
7.09476e-08
4.85798e-08
3.20453e-08
3.29545e-08
3.50744e-08
4.58142e-09
1.37245e-08
3.80694e-08
8.75072e-09
3.76844e-09
1.45823e-09
1.00452e-09
1.21017e-09
1.89215e-09
2.61381e-09
3.19951e-09
4.36412e-09
4.58524e-09
3.92123e-09
2.94215e-09
2.23033e-09
1.66732e-09
9.64208e-10
8.0136e-10
6.3141e-10
5.72884e-10
6.3824e-10
9.18679e-10
1.96737e-09
2.29188e-09
2.54054e-09
1.47215e-09
9.6259e-10
4.33967e-10
3.96288e-10
1.48403e-05
1.44646e-05
1.22107e-05
1.03536e-05
9.41994e-06
9.08975e-06
9.02883e-06
8.69806e-06
9.0584e-06
9.55235e-06
1.01136e-05
1.08391e-05
9.60429e-06
8.37881e-06
1.07944e-05
1.17585e-05
1.16317e-05
1.12473e-05
1.13216e-05
1.18504e-05
1.25333e-05
1.17879e-05
9.78964e-06
8.0696e-06
7.0302e-06
6.69217e-06
8.04922e-06
1.02935e-05
1.15927e-05
1.18219e-05
1.14402e-05
1.12819e-05
1.14642e-05
1.18965e-05
1.22777e-05
1.25302e-05
1.27453e-05
1.29239e-05
1.30423e-05
1.27769e-05
1.16169e-05
1.00208e-05
8.4197e-06
9.70299e-06
4.5766e-06
2.67787e-06
2.09316e-06
1.42989e-06
1.0052e-06
9.90175e-07
1.58117e-06
2.76799e-06
4.36563e-06
5.06878e-06
5.1992e-06
4.64646e-06
3.82452e-06
3.12352e-06
3.08479e-06
3.13566e-06
3.94068e-06
4.45763e-06
5.00072e-06
5.27069e-06
5.38225e-06
5.44733e-06
5.42457e-06
5.36031e-06
5.25066e-06
5.17523e-06
4.87686e-06
4.05884e-06
2.50189e-06
2.11965e-06
1.74159e-06
1.29917e-06
1.37442e-06
1.71238e-06
1.80076e-06
1.66137e-06
1.39697e-06
1.18812e-06
1.07264e-06
1.00913e-06
1.18199e-06
1.52556e-06
1.88862e-06
2.08202e-06
1.9418e-06
1.79894e-06
1.98287e-06
2.24813e-06
2.48654e-06
3.12814e-06
3.5469e-06
3.67803e-06
3.82366e-06
3.74332e-06
3.60203e-06
3.32618e-06
2.57575e-06
2.32162e-06
1.95045e-06
1.66441e-06
4.96722e-07
5.83594e-07
9.65088e-07
5.64415e-07
5.51446e-07
5.89767e-07
7.18914e-07
1.44289e-06
1.79301e-06
1.96361e-06
2.18257e-06
2.43779e-06
2.79727e-06
3.04839e-06
3.17967e-06
3.19551e-06
3.2924e-06
3.27236e-06
3.22458e-06
3.10752e-06
2.73765e-06
2.15417e-06
1.51083e-06
8.46921e-07
8.51054e-07
1.27556e-06
1.44372e-06
1.94137e-06
1.56354e-06
7.07643e-07
1.29839e-07
1.41401e-07
1.39115e-07
1.39982e-07
1.29272e-07
1.16105e-07
8.94556e-08
9.07134e-08
8.21125e-08
9.40918e-08
8.53566e-08
9.5674e-08
1.12837e-07
1.16432e-07
1.26737e-07
1.53489e-07
1.67546e-07
1.8234e-07
1.80721e-07
1.80227e-07
1.82893e-07
1.93444e-07
1.82896e-07
1.81612e-07
1.90458e-07
1.86288e-07
1.73711e-07
1.73421e-07
1.70378e-07
1.76075e-07
2.84441e-07
1.38574e-07
1.0381e-07
4.20633e-08
3.97553e-08
3.80137e-08
4.02561e-08
7.62737e-08
1.11152e-07
2.5285e-07
3.22135e-07
3.34345e-07
3.34898e-07
3.15751e-07
2.9817e-07
2.75698e-07
2.51047e-07
2.37716e-07
2.43123e-07
2.51809e-07
2.58615e-07
2.94553e-07
3.29943e-07
3.62831e-07
5.53392e-07
5.36588e-07
7.46592e-07
1.50373e-06
2.89399e-06
2.61609e-06
8.98587e-08
4.53137e-08
6.06567e-08
9.60135e-08
9.31644e-08
7.79546e-08
7.57514e-08
4.99968e-08
5.08357e-08
5.16429e-08
4.38776e-08
4.186e-08
4.00766e-08
4.1229e-08
4.13196e-08
4.41726e-08
4.55158e-08
4.14314e-08
5.48465e-08
6.77575e-08
7.59345e-08
8.71242e-08
1.09405e-07
1.37617e-07
1.44225e-07
1.34015e-07
1.22049e-07
1.59167e-07
1.85623e-07
1.43852e-07
2.88866e-07
3.46867e-07
4.62164e-07
8.59986e-07
1.44392e-06
1.93682e-06
2.35755e-06
3.32459e-06
3.82085e-06
4.184e-06
4.32267e-06
4.21906e-06
3.88953e-06
3.33826e-06
2.4051e-06
1.9144e-06
1.37984e-06
8.41863e-07
5.05283e-07
3.57959e-07
1.51749e-07
8.87043e-08
6.83939e-08
1.10359e-07
1.17416e-07
1.98587e-07
1.65715e-07
1.47954e-07
1.40452e-07
6.92267e-08
2.13621e-07
1.48584e-07
1.66777e-07
2.62089e-07
3.32816e-07
7.73963e-07
1.21082e-06
1.56909e-06
1.87957e-06
2.56376e-06
2.80855e-06
2.8621e-06
2.871e-06
2.71842e-06
2.55301e-06
1.87472e-06
1.43955e-06
9.07216e-07
3.64314e-07
2.60686e-07
2.33198e-07
1.32948e-07
1.36843e-07
1.27932e-07
1.07904e-07
8.73574e-08
7.71247e-08
5.47178e-08
5.12626e-08
6.46859e-08
1.29144e-07
1.43658e-07
1.82353e-07
3.10984e-07
1.03904e-06
1.95449e-06
3.78757e-06
5.17534e-06
5.61999e-06
5.48673e-06
4.29712e-06
2.79085e-06
1.49272e-06
5.97441e-07
1.91935e-07
5.43393e-08
2.41153e-08
2.57431e-08
1.89427e-08
2.14877e-08
2.35832e-08
2.75782e-08
2.06655e-08
2.34813e-08
1.64451e-08
1.90726e-08
1.51768e-08
1.30262e-08
1.22377e-08
1.22789e-08
3.04849e-08
2.35956e-08
2.19742e-08
3.14921e-08
3.3679e-08
3.50601e-08
3.51624e-08
4.18623e-08
3.81943e-08
4.88084e-08
3.37662e-08
3.52017e-08
3.48748e-08
3.13968e-08
3.19948e-08
3.27864e-08
2.39625e-08
1.59253e-08
1.56464e-08
2.70865e-08
4.24162e-08
5.99481e-08
1.24704e-07
1.52298e-07
1.19499e-07
6.49504e-08
4.57208e-08
3.48769e-08
3.32788e-08
3.43738e-08
3.19796e-09
1.06924e-08
4.00709e-08
9.19523e-09
3.02709e-09
1.50343e-09
1.15998e-09
1.68076e-09
2.48785e-09
4.01165e-09
5.93045e-09
7.79677e-09
8.10362e-09
7.67675e-09
5.66075e-09
3.16129e-09
2.21945e-09
1.51018e-09
9.21092e-10
7.27555e-10
6.20386e-10
6.59911e-10
9.29475e-10
2.51181e-09
2.5766e-09
1.48376e-09
5.39208e-10
3.40464e-10
2.92457e-10
4.1563e-10
1.49393e-05
1.34849e-05
1.06516e-05
9.23679e-06
8.86528e-06
8.78784e-06
8.86425e-06
9.01554e-06
8.8724e-06
9.44001e-06
1.00785e-05
1.08519e-05
9.58767e-06
8.28817e-06
1.07056e-05
1.16813e-05
1.17261e-05
1.13856e-05
1.13847e-05
1.16329e-05
1.23709e-05
1.21941e-05
1.05464e-05
8.43693e-06
7.22829e-06
6.7319e-06
8.11643e-06
1.06475e-05
1.16314e-05
1.13963e-05
1.08991e-05
1.09626e-05
1.15659e-05
1.23708e-05
1.27903e-05
1.29329e-05
1.30005e-05
1.31074e-05
1.31762e-05
1.28841e-05
1.18801e-05
1.01116e-05
8.33063e-06
9.66616e-06
4.86904e-06
3.00427e-06
2.60974e-06
2.16802e-06
1.90698e-06
2.0613e-06
2.94831e-06
4.6144e-06
5.5113e-06
5.72153e-06
5.6544e-06
4.91534e-06
3.81941e-06
3.1028e-06
3.04709e-06
3.12621e-06
4.13809e-06
4.83646e-06
5.29242e-06
5.3815e-06
5.37074e-06
5.40481e-06
5.40536e-06
5.45153e-06
5.38537e-06
5.28564e-06
5.08118e-06
4.29347e-06
2.61648e-06
2.1365e-06
1.77477e-06
1.32394e-06
1.34094e-06
1.66396e-06
1.82364e-06
1.80124e-06
1.66137e-06
1.57662e-06
1.33013e-06
1.14114e-06
1.29705e-06
1.64765e-06
1.99121e-06
2.09414e-06
1.87979e-06
1.81782e-06
2.12482e-06
2.38233e-06
2.66556e-06
3.51922e-06
3.9493e-06
4.1655e-06
4.26892e-06
4.20227e-06
3.96385e-06
3.66379e-06
3.21975e-06
2.42976e-06
2.01735e-06
1.69571e-06
4.84248e-07
6.0656e-07
6.10797e-07
5.51122e-07
5.73927e-07
5.97105e-07
7.43989e-07
1.52903e-06
1.77497e-06
1.91811e-06
2.24174e-06
2.59771e-06
3.01893e-06
3.16041e-06
3.26213e-06
3.33385e-06
3.38132e-06
3.3674e-06
3.44279e-06
3.23575e-06
3.01556e-06
2.34392e-06
1.71389e-06
8.56457e-07
8.51906e-07
1.27821e-06
1.53249e-06
2.00987e-06
1.28769e-06
6.44579e-07
1.23478e-07
1.39789e-07
1.35729e-07
1.36611e-07
1.33108e-07
1.22506e-07
1.10582e-07
1.03836e-07
1.00973e-07
8.6779e-08
9.59793e-08
1.02373e-07
1.14634e-07
1.16578e-07
1.3753e-07
1.55183e-07
1.76614e-07
1.78517e-07
1.84887e-07
1.89886e-07
1.82638e-07
1.852e-07
1.83782e-07
1.8633e-07
1.87351e-07
1.82383e-07
1.74481e-07
1.74221e-07
1.70982e-07
1.72816e-07
2.84507e-07
1.09178e-07
9.14392e-08
4.67509e-08
3.80365e-08
3.66219e-08
4.59537e-08
8.95921e-08
1.13634e-07
2.57166e-07
3.22289e-07
3.31042e-07
3.20289e-07
2.95419e-07
2.86958e-07
2.5878e-07
2.25535e-07
2.15642e-07
2.06304e-07
2.24586e-07
2.44516e-07
2.76863e-07
3.32224e-07
3.59777e-07
5.33024e-07
5.12373e-07
6.51847e-07
1.2581e-06
1.93019e-06
1.94523e-06
6.30135e-08
3.91093e-08
6.89974e-08
1.07884e-07
9.21838e-08
7.56514e-08
6.90495e-08
4.67697e-08
4.92881e-08
4.89524e-08
3.98366e-08