/*--------------------------------*- C++ -*----------------------------------*\
| =========                 |                                                 |
| \\      /  F ield         | OpenFOAM: The Open Source CFD Toolbox           |
|  \\    /   O peration     | Version:  2.1.1                                 |
|   \\  /    A nd           | Web:      www.OpenFOAM.org                      |
|    \\/     M anipulation  |                                                 |
\*---------------------------------------------------------------------------*/
FoamFile
{
    version     2.0;
    format      ascii;
    class       volScalarField;
    location    "0.007200000";
    object      omegaC_burn;
}
// * * * * * * * * * * * * * * * * * * * * * * * * * * * * * * * * * * * * * //

dimensions      [1 -3 -1 0 0 0 0];

internalField   nonuniform List<scalar> 
12384
(
156604
193913
212822
229389
243937
256668
265154
268708
267016
260748
249650
230276
197985
149317
256332
285262
300023
309437
318829
328677
337275
346123
353414
361676
367789
376924
391394
417174
454045
492324
530153
563405
588871
602497
604530
590809
579678
568583
554848
534149
501371
438219
318410
209992
351388
400511
428234
442693
450394
456418
462053
471631
481547
491157
504014
523894
552687
598779
650706
702250
749579
789424
814135
821630
805625
773910
749149
722531
696058
661390
613800
534899
385226
293664
394075
438861
485442
531056
570891
603007
627501
651884
677608
697771
699377
695793
692668
697281
714222
750980
803656
859967
915087
964307
992920
1.00671e+06
984213
957977
925095
885073
821748
707122
517953
401078
464128
549057
600612
633513
663488
706064
769083
841486
921286
999253
1.06847e+06
1.12068e+06
1.15773e+06
1.16333e+06
1.15159e+06
1.11214e+06
1.08357e+06
1.06513e+06
1.03033e+06
992657
925426
807052
613609
421362
382610
382197
389143
389159
382851
364271
331748
379017
404751
420345
437298
461331
494281
528148
566815
603323
632853
659113
687636
722640
768516
820223
871585
918876
960359
982983
988520
962329
932435
891963
848856
790398
704359
574042
428510
388712
310953
346790
396210
458526
524709
588218
646330
692042
737345
797994
864499
931701
996858
1.05383e+06
1.09734e+06
1.12208e+06
1.1226e+06
1.10837e+06
1.07657e+06
1.04852e+06
1.01264e+06
966435
900970
800432
642178
455970
391279
379086
380580
403207
311844
357190
451102
554078
660161
755646
852120
935855
1.01003e+06
1.0648e+06
1.10015e+06
1.11094e+06
1.09519e+06
1.06363e+06
1.0385e+06
1.01499e+06
974896
930492
864360
775679
649990
508017
426908
396636
389579
391242
388040
378501
370975
367417
395177
571370
770047
905735
1.01201e+06
1.09121e+06
1.14695e+06
1.17461e+06
1.17429e+06
1.14315e+06
1.0895e+06
1.05364e+06
1.01378e+06
977073
927228
857534
763492
658321
561459
485018
434966
415720
419621
421755
411589
392383
368144
345497
325964
311945
360913
433898
606195
778853
919893
1.03342e+06
1.11685e+06
1.16814e+06
1.18833e+06
1.18661e+06
1.15506e+06
1.11305e+06
1.06953e+06
1.05508e+06
1.02191e+06
979046
902593
821607
738512
652787
566763
492958
458067
457236
459523
448830
431541
416389
408945
411096
484630
696507
931098
1.11079e+06
1.2226e+06
1.28294e+06
1.2987e+06
1.27106e+06
1.17334e+06
1.08883e+06
1.02309e+06
968936
917468
854046
792421
755666
719294
674253
631099
596809
572454
560116
554538
536636
517756
498829
478416
462247
444533
426807
329994
336819
416909
506056
607150
689960
755601
809797
855524
897303
906092
889185
860430
815567
763824
710924
666327
640104
634564
642385
656300
666162
657734
646382
639808
633714
622412
599767
562886
494410
226037
261340
243947
215064
200037
278571
433785
516697
587045
634512
660626
690498
712671
744109
752188
735982
702940
657218
602530
542665
479479
433334
394298
359982
329612
303148
276532
243710
185781
103575
192145
135275
147840
166788
184716
201542
215169
224883
229970
229050
220952
205066
181538
211604
260516
207429
229063
257218
287072
310753
321153
317896
306479
292064
278954
276257
289519
322090
365355
414662
466383
517497
564206
601742
626878
639215
641122
630532
607555
568903
513956
437954
339378
355233
387261
372980
431033
471910
494923
503017
496121
475922
446219
416930
396142
391456
412205
462743
527129
598884
666634
715894
740368
736105
731636
729671
743741
769461
779801
755284
686251
571134
425761
460479
471398
457778
574538
668991
726410
750678
755368
747441
735838
709587
664674
607984
553463
514975
502762
530962
590469
661674
719497
740471
726419
681805
620535
620655
642880
688152
734572
725943
613465
631701
410443
324591
317565
343298
393593
471679
570163
682393
789777
866263
887896
855695
782522
710946
667462
652669
699901
758703
856355
939737
974341
929878
783346
588670
373839
253283
253787
258196
269660
398507
354020
338975
410807
481470
542922
584754
606013
608500
596304
571269
543745
520541
511965
525847
570644
632514
705505
775084
824329
847950
851275
856824
854460
883378
894690
876331
816399
695103
524531
501751
354715
404947
467957
506904
521204
516416
510446
514602
538855
595571
666251
713010
691354
593105
447031
329655
256364
211321
192119
205085
245604
317777
438445
611029
741650
637055
406136
232079
258966
434800
347757
252514
309646
409923
538017
667390
787160
857346
868564
798586
711939
626481
569361
565564
587642
642122
732218
827443
878549
853028
722663
542354
366851
314252
312835
301272
286638
264271
247596
383238
439927
510397
692437
819523
850396
772011
627550
475834
367915
306145
305314
326015
401664
536478
701312
866130
890393
734400
526671
389834
354815
345495
335809
335774
331280
314568
287931
259511
238360
337629
362307
434982
598859
689584
672628
549150
378792
223828
124554
75697
57185.5
49189.6
67543
104310
199222
370338
684303
870199
749295
531039
405996
380246
373782
361873
353607
337503
308963
278035
260833
414836
442385
551702
769524
853675
789712
649667
503470
395374
354810
383035
484745
650344
830130
852206
655676
489488
481919
506181
515458
514904
497984
473041
448965
417680
381574
341481
309934
289979
290319
424229
393473
406617
560591
625023
572356
485194
418452
369880
364055
372847
418172
470806
518320
554184
563329
533775
501273
493075
513877
550126
580947
589438
571667
556435
575567
607577
624634
578757
484430
572288
305395
263296
245134
230756
286427
442024
543335
631088
678452
669196
648699
619273
600226
604256
609627
613150
605025
571322
516463
445957
372264
310886
280339
271152
270609
270843
269497
255205
205648
130251
218900
155416
169858
189118
205662
219054
229198
235199
237937
237213
231454
219698
200682
240574
268914
211593
230382
256195
279140
291581
290064
283822
277642
277260
291378
320189
357638
400164
439776
478117
512498
544751
572297
596525
614155
622172
623892
618457
605898
583275
546341
488269
401901
434108
401103
385813
418452
434341
437109
431731
421465
410679
403263
405890
420085
447785
497454
560284
623266
675348
709428
731650
735026
724892
721602
723963
722747
741700
759482
761122
731443
653657
523264
563448
513476
507645
602279
662458
689633
697991
695760
684778
664821
637149
610130
590227
580017
579637
593578
635697
693909
737127
741122
717160
671095
593755
565397
553596
555372
598705
655124
711709
697181
769862
409597
294363
301834
361291
455971
564625
683063
789570
858691
878948
859644
808417
753681
703925
658480
662499
678357
738162
810311
876326
927921
948809
898747
755499
558429
350391
244635
259918
289453
423134
369720
350247
403461
458319
500184
523216
531733
529709
527109
523686
531101
549471
580933
626458
686283
738844
781566
812022
844172
856945
875601
883373
883154
885112
890691
875241
845332
772897
631469
631000
380558
445377
472729
487121
493214
501238
525953
572609
635113
701145
727022
697544
632949
549391
472076
410283
355580
308456
284607
290372
293783
313300
363749
456813
621535
700341
579406
357158
244832
443368
380775
282881
365013
510227
669157
794747
863779
853996
824199
716865
666399
583698
545196
510911
537953
589517
647799
729132
805491
856255
827978
695159
510733
338891
267601
270679
292144
281978
256016
393416
581227
688844
830266
826267
731015
603887
484059
376029
300409
258171
225770
262821
311940
396067
524403
685727
844835
858732
696981
498464
368019
322254
338383
380116
394123
376270
342188
301469
267734
357623
398091
559001
680063
689335
584595
424406
272162
162781
96003.6
64694.3
45670.3
49838.5
44507.9
62917.4
102057
168503
332239
625493
842755
735658
527421
389751
332588
340294
379569
384709
353562
312063
280511
425281
524422
726542
834322
653875
457324
325156
245056
201911
192349
221516
276246
381873
566094
789043
805638
590848
476324
490506
509229
526590
537186
529509
525976
505961
460123
394922
326032
274771
270442
437579
493650
530221
613106
576013
501282
471768
465194
473841
465556
485970
477534
500920
528550
530520
563307
575866
566601
556757
557755
559874
561394
567606
575228
576647
582917
589791
594875
574159
505865
609796
340891
274670
229124
267771
428395
546122
619351
668336
682290
659182
670684
639694
640388
640959
628690
630830
617693
605790
579899
538174
460029
366833
286618
235562
209021
200133
203483
198177
167271
104052
233248
175033
191519
211244
226337
235056
239382
240527
240951
240839
239827
235915
225974
264372
282126
228353
238269
256534
269264
269522
260958
253940
254872
274384
316808
369055
418882
461411
496278
523914
546240
560881
571950
580796
586630
592136
592428
591299
588146
580539
563037
526943
458714
491246
410841
410257
412315
398278
376257
356843
348415
353336
372260
403837
447643
503399
570067
639065
691815
717638
729311
733241
724991
729760
726201
728361
724760
734934
750230
752772
751088
709553
607687
637760
542598
556746
618885
643588
641373
625173
600680
574966
557763
557152
573668
600093
625262
646141
670358
711125
746499
738434
706056
645881
586464
554294
540457
518169
536076
546410
589841
656065
718130
864289
451540
300206
310108
400197
520763
646849
767226
846186
866860
848301
816469
794709
774436
751959
750051
715955
748333
775971
805611
862294
900747
930560
932411
857103
687373
481356
286991
255030
299326
438513
389608
378208
404625
434070
454595
457010
452502
448983
457950
483482
528449
586403
649875
718279
778259
813035
828368
845839
847935
856248
858757
866929
876057
874582
873842
872195
858967
817941
713127
714487
410062
506105
485904
466135
460670
486526
549449
630795
712924
750451
700984
626162
572858
555281
557846
558795
553342
547002
508884
468427
462074
429456
404662
417640
521211
665231
657606
478915
289715
440395
408736
316543
432209
611390
774820
856561
857474
835295
787356
752475
698427
664266
630308
632680
617844
622958
663076
710663
761584
819030
852766
796904
643684
452837
295484
269193
307316
300066
264303
398922
733004
824078
831211
725953
611781
528415
446244
381058
314333
283471
303858
291581
319005
362313
455497
569431
729028
858486
815482
638497
463725
366962
388580
444347
458387
433182
390575
348069
312503
375208
462022
630304
707990
643573
478103
310894
196854
141123
96354.4
70577.3
59767.5
48169.5
64470.7
58248.6
73177.9
108186
193523
369292
671392
836628
703595
513552
388661
383227
432790
435037
394430
343020
306290
436851
756808
849608
633624
356177
221752
168095
151313
142300
140776
155246
194016
255185
370005
589140
811577
736807
550370
511271
521502
548169
583082
572209
560815
572806
538452
483557
387135
296032
274843
452479
587291
589623
605450
548736
541470
566410
595430
602869
622450
617714
609153
563439
555866
536693
528896
553755
580971
585816
586650
578547
558086
522349
495383
502717
533678
561850
576722
572046
533027
636127
353932
275215
246037
372123
527433
606640
661490
685299
691322
693459
715406
693448
706557
684841
683198
655839
638260
613993
598130
575069
527924
430317
326177
248485
193542
153805
142063
144697
128715
72756.8
241402
193394
213415
233117
244692
248142
246018
240970
237554
239052
244191
251045
252787
284326
296979
248986
248083
255080
257146
247957
233989
226987
238302
276716
340848
409926
465311
506991
536829
560975
573301
574420
564066
550488
542553
541627
546069
552395
560220
567354
569018
555552
509971
533439
414294
437349
415282
372178
321880
285666
281593
306797
351408
407098
472217
545990
623413
691060
726046
734136
736599
723216
714254
710762
703401
705350
714101
728589
734790
750741
755989
742824
678421
692560
560698
602931
633618
625943
591378
540560
487434
448595
451304
495880
562433
626532
670011
694865
716573
744503
741572
693767
635027
567265
561356
563354
531317
538849
526260
537178
541473
582912
670212
931869
512051
311468
325097
439061
575417
708897
816713
855811
837187
810217
805063
798237
792513
795419
799582
824771
812832
824095
842361
866517
889203
913368
926776
902792
772596
573159
357035
253471
302119
453453
405874
412086
413642
418761
417281
401188
382890
376342
398732
453518
533800
623211
709118
786338
830190
845478
863236
860390
839311
814611
794620
783407
792088
812437
832697
856119
865651
846231
775073
763809
440140
573858
506160
446037
431372
475845
573442
681794
757371
738083
627350
542258
545575
598169
643177
688390
716004
727217
719545
698500
632942
580205
507009
434827
471411
606801
682695
553115
348231
443453
433386
344173
500889
699853
833696
869866
849099
836847
806863
803863
784027
763625
746563
717615
714136
718872
713293
735171
747789
789817
831857
837255
734811
552115
374524
305894
326919
313508
272793
405322
864569
861136
741268
616752
535517
496233
471161
468788
457299
428550
367979
361202
387929
397393
442737
512333
638647
795186
853947
729701
552177
436031
445385
492411
494124
454761
407821
372937
354273
390236
563279
669206
710302
576815
369864
229404
160751
133382
117286
105878
94380.9
92518.4
76748.4
91682
84830.4
82972.9
131303
258613
475406
765123
812088
636744
484279
445419
472455
459647
405034
351052
324639
447060
1.06479e+06
794277
399279
192195
131658
127891
139487
165826
179561
174669
162586
187643
245900
405903
694262
801063
653805
567701
550312
577428
618099
584957
562401
542314
537160
555366
487839
361567
296462
462558
656637
599308
582812
563132
599972
654536
692163
719979
709379
706687
701249
666145
608143
553445
529641
511876
550166
580499
585530
576212
562560
497445
402825
380149
448012
521314
562957
574014
553244
652879
358390
275038
301755
455759
584617
643763
684436
696233
714601
730697
739958
746718
747936
735124
718190
696650
659788
631917
603034
587626
560493
484599
371722
281700
205012
139945
107667
108140
104583
55441.5
245444
210790
233812
252491
261006
257939
248023
236181
229093
232808
246937
266009
279566
300796
309762
268234
257782
252989
245398
228819
210549
204609
226192
280348
359064
438640
498505
537181
566202
589561
597487
578181
539531
497268
468427
462572
476044
500800
526904
552085
572598
579835
554672
560193
409119
458295
424403
363322
288894
233688
231147
276135
341380
414260
490610
573962
657145
719361
738972
740860
733085
708187
680277
644618
622189
628110
655304
691557
722215
744128
755307
765289
730674
729716
562491
639336
647632
615655
551614
468746
386703
335389
371390
470357
576605
656583
700671
721539
736061
747691
714132
623520
568712
543741
593244
584080
602983
579282
563884
528427
502203
510293
581086
972770
567646
320612
341726
471601
618081
751114
838625
838904
802425
784056
797004
810744
820619
813742
797908
790637
817338
834916
845405
868526
879338
902492
913751
917911
822680
632148
408880
260519
304340
470273
423105
441320
427013
414048
395388
366625
335316
324966
356544
434987
539552
652455
749274
821939
845763
869702
878563
865256
808045
740139
675327
647245
662674
716248
778465
834467
868722
867628
817947
778573
465682
635575
528493
429727
403151
465232
592413
713888
778621
700613
536041
490036
552526
614100
697352
744243
717483
687502
697632
734846
743508
693126
600876
476456
454663
564755
684478
588353
385928
452023
478272
372540
566135
763230
860214
866170
845053
854130
804855
830634
780706
785952
763559
773809
776196
782885
766538
769548
757487
770726
805888
843617
785295
612897
429444
343046
339958
318126
277850
412769
973151
842195
661334
553836
500391
514868
514584
551844
548110
569713
557261
514741
484066
444733
465687
493487
599227
736591
842934
765007
591669
468490
467412
501468
484907
430331
383535
378723
392633
395974
692508
692263
705239
514857
293955
182614
148114
130014
168682
181289
228368
191176
164702
124557
129207
105615
100106
197678
391412
649116
828315
713912
545491
474913
476570
445285
379564
334793
334877
456286
1.28825e+06
616914
232686
124568
106659
118267
183539
277852
345210
323197
234630
174996
177340
260943
521304
778621
734799
635174
590705
599624
631782
636188
565261
515308
478742
525824
550680
469544
351035
479348
699205
574369
564211
591417
669199
716846
721722
700564
695503
702552
712356
716888
685658
600005
535859
510574
519978
558652
575351
565384
566257
515396
390463
317671
406765
505369
559136
573505
563483
656565
362751
276477
347924
510586
617423
667810
695099
707697
736456
740156
741969
728117
713068
712784
718429
713315
692927
650247
620519
597114
576028
517994
404320
308271
222031
144866
98578.3
94514.7
99753.8
48751.6
247097
227741
253551
270022
269278
255189
235054
217184
210253
222542
250184
281300
304220
312272
321703
285801
270253
255509
238178
214800
192682
187368
216690
283834
369513
455081
516408
553484
584263
612354
612976
573849
503518
430198
375546
362955
397282
448061
496663
541089
578010
603079
590963
565641
408312
468068
430953
368027
290842
224328
216375
268363
341773
420009
499128
587106
675079
731186
745309
741610
724582
681785
617252
541091
488096
497117
559890
639355
699769
735746
760314
773989
765044
745262
543109
660047
657934
612565
530960
429184
328484
282161
361020
491476
605146
678516
713257
727139
741837
747831
670956
566858
563029
560982
619400
621570
601418
618814
599506
537783
459716
439701
487261
978512
606356
328506
358069
498897
648893
776177
840508
811971
769860
766029
803407
810362
761400
678030
613336
609426
669216
745665
814385
844315
883209
881675
910182
916324
848002
662771
431260
265633
309260
493213
437178
461634
441244
419047
392396
357271
319890
303352
337939
424016
541982
663793
767873
832778
859118
878550
897048
851601
767223
645860
537410
480352
528913
628333
738135
825588
874402
882948
843081
751209
485510
682714
548417
413637
373653
449944
601640
724876
776428
666139
497170
474303
533494
628847
736960
711536
592190
484975
497883
608046
709083
726881
673106
505460
453969
547422
684925
600476
407550
465324
534701
407674
620878
801589
875375
872442
836560
858040
810517
800477
720504
654932
597632
616282
692578
759029
784696
792651
772510
759600
785839
830320
798432
635442
449473
355043
338350
314716
293881
444485
1.05762e+06
780109
603564
507558
491700
533223
560951
633491
625392
594632
601695
620594
605965
536187
502748
507762
589319
710225
828225
763642
582416
446373
446219
474685
443263
375314
356482
396440
426961
398455
823792
702376
686629
465212
248509
157159
129285
137998
222653
335323
444319
449030
361333
235290
150086
153835
108420
169623
356224
600946
797731
740250
557312
456928
448083
417091
368840
348325
362066
475260
1.41706e+06
434075
155691
111536
111542
159089
331368
493491
519210
438842
304110
171851
146488
201481
388094
708677
747491
694453
629339
608387
641212
642323
635500
563095
529255
471236
528755
546011
450383
532734
710807
534572
544194
595866
696707
719043
670573
601214
559954
590906
657802
708411
710410
670804
564514
523678
527238
553378
578161
562660
562761
550680
476855
413929
456501
523597
561797
569708
563187
654224
369381
271271
373531
541935
637798
679279
705946
714326
746583
728065
697188
630410
584015
598092
654852
703262
705483
675318
634525
611431
586243
537564
421324
319801
237997
160310
110245
104432
112827
57463.2
246409
240679
267784
277271
266819
240703
211272
187800
185043
213015
255552
297171
323864
317194
334698
296961
281482
262127
236280
207592
182284
177030
211354
284810
372079
458164
520172
555080
593767
625604
622613
564751
470759
366624
276691
255134
325323
406578
478120
539985
590818
628529
617638
554656
411432
462586
429874
379720
321586
267686
249218
284601
348068
420349
495419
585460
677854
735762
744460
743057
712121
648555
553086
437204
341938
365838
474016
589532
682578
739188
760115
778211
783858
735138
528782
667796
661178
612966
532722
437079
354038
339820
423225
537007
630422
686340
712117
723124
741644
738851
641064
558814
564290
578350
633356
532626
431392
540712
617535
553023
422640
375490
420673
929820
632171
345159
379995
521560
669549
786568
839432
794074
745955
756907
804803
794393
695028
552269
417060
401632
508440
630858
752354
808121
883916
867349
910747
907824
856922
671528
433552
270761
323657
513307
456692
472372
449005
428144
402375
369152
333689
315549
342386
423597
536590
661144
763613
837837
858922
897405
891359
842675
724385
580145
420268
340177
448429
597677
738402
843246
888619
892179
855738
725135
486645
716163
565918
399122
341406
428379
596260
722598
772276
656774
491699
454248
525814
648951
738517
694803
545593
391602
400613
542194
681521
723445
681130
510827
459499
558811
692652
586161
411385
498961
600302
473877
671833
829053
883385
879094
840791
850070
815349
784436
670083
540746
388844
408444
560568
693869
767531
800400
779081
749050
778576
821216
798198
624353
431383
331521
338158
345761
373050
548087
1.13625e+06
764138
581247
510256
482297
548854
576437
635056
549236
414739
447875
568508
627960
566984
554474
520527
590844
710548
817757
736603
533741
395840
425439
462645
436910
396673
410936
446242
462991
442825
936126
714259
695209
444563
228090
132801
111080
121362
263108
407043
497145
476088
495929
378221
212148
208529
113297
181766
336162
579230
787452
729624
528084
431180
450362
455159
453109
447314
454723
590448
1.45278e+06
325178
146014
124755
145682
232640
490900
534658
499685
518335
290130
188678
124066
144204
342023
616607
736119
714624
657267
608419
603832
630991
654360
616339
605991
543271
514874
548040
526207
582368
692174
474811
507285
615571
718129
708389
615538
490482
393057
449407
576857
684592
712884
704011
599580
567767
544289
564677
586714
571622
557533
565401
549887
524928
529098
550618
563849
560128
551417
643447
380335
259145
378331
556001
648046
688589
706569
725934
744023
710417
636344
520863
419725
440108
554009
657593
705527
687263
648280
627540
600079
547976
433092
317123
249747
186649
142257
141547
162739
109027
244795
249978
275449
274891
251565
219535
186221
163014
169057
211514
264877
310821
336968
326579
362959
371398
311574
304388
293882
274471
245523
212120
183859
178141
213194
282798
364918
448090
508886
547062
591483
630579
625001
562512
461427
351652
241348
203985
298935
395555
478802
551152
610211
649367
628519
539076
444167
428884
397233
425924
402748
371700
338949
309045
295081
311228
354020
411224
477931
566659
666586
732110
749092
738250
701039
627204
526634
406647
295532
324763
445290
576289
684827
742237
762097
785116
794839
764468
600435
543020
572545
654592
651189
611624
547189
478424
430665
440109
503280
582243
645410
680795
695810
700062
725528
742155
639193
567515
585549
603278
614912
457840
355252
510556
614220
533542
389332
342262
389856
824484
591379
611050
565755
382614
412670
541719
678821
786797
832994
789095
737664
761813
794912
792490
693980
549299
397356
353030
458169
586695
722719
795016
875205
856597
909548
896970
858397
669654
440537
319794
370704
425367
515558
508123
429162
446104
436846
431464
417445
393632
365666
347526
363666
425739
523997
636394
745391
823934
872625
894161
894611
828902
721055
579638
442956
398581
511143
657531
790065
876901
899614
891861
836046
676607
598686
590703
641424
724139
565883
388730
323497
411100
577927
703844
769441
671433
501081
455734
520945
630010
720438
725454
644764
543186
539920
630182
723114
710437
630037
504279
484445
603888
696531
560192
445301
493080
613453
659151
519074
560882
717603
853258
888231
879009
848941
851430
818399
816276
716026
608505
473720
459137
570550
692399
766331
797012
767148
746606
771158
821679
782155
587033
395958
384985
443071
490631
526925
571922
764212
881921
824775
760154
620001
517259
507682
534730
587583
633456
578291
464309
464066
563644
630666
575215
564929
548292
608596
727657
811917
697005
488155
395980
453519
496948
508611
515938
536383
562137
597972
663023
830217
871337
643758
720835
678180
439629
225305
128027
92284.3
124724
202118
361816
500867
463820
508646
395073
265978
242190
137320
219675
336162
586749
784725
700526
509515
479837
526820
557179
567326
559222
540014
539792
852732
1.01254e+06
817393
390437
216549
152636
196391
328143
539606
489322
467414
526446
279096
168098
116564
138307
302165
582628
684998
715931
678253
590026
535135
544270
589172
630676
629938
606420
581712
545112
547516
448522
524630
569533
617442
411238
483572
603700
712448
708915
603396
460154
345493
407201
549203
672629
711672
718663
626560
595276
574000
574364
583714
587865
564998
557930
562815
566865
565137
563739
557840
541609
516925
505674
481296
426245
283433
263259
363484
556984
655233
691881
702791
725821
743834
702806
612267
475675
336934
355917
504500
630412
693665
691486
665087
634172
599820
546509
440680
309575
256764
216692
198090
212170
222749
185761
103028
47250
241504
250587
272911
263383
239755
207800
174807
156841
173944
221759
274502
319334
338636
317985
212956
205297
276079
299270
298489
284496
259160
226692
198281
191338
221282
280231
351778
424999
483149
525363
578876
624283
627013
571422
485490
393601
316256
289806
342712
420653
499394
574076
635997
667348
628646
511333
290125
285275
372546
364377
353414
345249
338946
333872
329065
333980
355337
393405
447686
532711
640664
721470
744669
734555
695863
633266
557063
472520
408375
420071
503709
606970
697949
745574
769490
788130
792212
732876
364033
314671
550621
617065
623841
599127
558360
520249
503704
520887
561879
609629
645340
660303
660126
654296
688629
743791
677058
592602
589836
617287
621223
551642
513599
584479
605757
495001
371877
331387
389600
766252
400274
425014
523964
368184
406986
538574
671083
771670
833302
799781
749866
756415
791416
803218
751322
661366
564804
522270
567316
650670
755053
807003
871213
853243
898850
898012
850011
675382
459759
337414
361684
393823
370696
363750
400736
397747
411064
426223
431132
423296
405245
389296
391587
431130
502746
598514
704348
805802
858365
896571
882994
843149
753239
658881
577579
578100
659822
771941
866849
907120
907850
885161
791050
605250
427976
540886
711111
702213
536705
371512
315713
399118
550071
669479
749804
704288
545756
467379
495222
582653
662534
710221
731065
718325
715690
733914
731279
653237
532615
499410
527214
656696
678581
541136
457687
470830
478507
495745
491182
557902
719229
857270
899016
876414
845537
855443
804453
844756
778287
752632
692335
677014
709627
753828
788734
776621
752329
753865
779719
822505
760371
564868
422902
421610
455322
482795
493256
486114
475140
547236
791597
791913
657981
563602
515058
537894
536899
618969
627688
615712
604858
611024
607801
580151
579620
553345
654988
750781
804805
666268
481048
428160
480272
530375
554678
568073
584309
598630
601132
575173
527179
527957
591312
711288
729802
499032
250659
129730
99414.8
97408.6
139236
218759
353352
431052
415989
395169
226047
204663
220286
242496
353971
647375
770509
680688
521372
491281
522402
548602
555672
540009
513325
507722
589135
710295
826617
461208
283818
221449
231048
343818
519570
570586
573063
452622
255456
149123
126284
170112
345338
560900
681165
717385
680694
574030
473278
419391
455966
546794
618160
626307
615302
591721
552085
480882
355149
414581
532974
330417
441908
571071
692721
725890
648969
546972
482481
519680
609275
695772
716397
713380
636685
606977
588142
555835
553868
581773
580736
557307
557789
562143
564468
562719
548093
513666
458142
386912
285321
263489
254846
254629
345769
550482
648007
693376
697488
734050
730748
713394
643791
539981
460293
470621
558761
646117
695127
696207
668438
639067
599025
531399
441627
310199
256033
225924
219973
228890
224433
205599
63031.8
38895.2
238697
244754
264195
252701
233595
206998
181094
171727
192746
235648
283032
319430
331294
297243
192055
183063
247089
284367
295959
291316
275314
251098
228033
219917
239863
281413
333848
390760
444060
492292
553129
610785
627340
595818
529375
462264
410120
390690
416043
467759
533649
604206
661021
676531
621525
498433
288534
275266
318743
301647
302131
313005
326898
337874
341839
343272
349868
368891
407893
485805
603360
698324
734331
731791
704432
664885
619147
574869
542074
550375
594044
661492
717674
753075
777266
796123
784469
679033
316145
289306
481583
552661
571910
567516
553300
543242
546722
563439
589801
616121
630281
626469
606398
586122
633538
732809
711526
645281
580285
612507
628689
612500
617838
626626
581448
466330
372752
342474
425341
758900
369848
373351
456896
329060
385600
518706
640224
741302
821925
827094
776837
754530
771108
801600
799775
777469
744812
719257
733158
757023
813538
822218
876030
848717
883945
900795
831529
668188
460568
333967
341916
373649
357480
349009
348996
357626
388355
420576
441495
448537
441789
429861
422671
435896
476824
547151
649824
762390
845586
879762
891217
865771
826113
772087
745942
763840
821788
884937
917474
918660
906167
861735
746647
586482
472851
580981
721497
640757
479024
350112
321555
397188
514489
616564
704401
738884
603170
492737
479590
511013
564478
608341
648844
665383
673921
646571
611241
536925
470715
513497
576361
677135
657291
527099
445006
440740
436614
433135
433179
518192
683079
835063
904416
890166
843745
841790
798256
814478
785838
794516
766196
785333
769721
787470
774208
737361
745036
758663
795590
819891
729707
557094
450195
426844
426577
426200
421390
415242
446908
541388
750661
812433
722899
618376
553905
533474
522798
523580
522421
563725
572619
564618
577122
556397
587888
593493
683345
792564
792642
648788
491663
427546
448173
494075
529752
545572
559350
558035
540255
488546
432125
442573
521362
655201
747059
582296
319491
172238
102326
92813.4
89250.6
135057
175582
202293
265511
232173
170622
235222
217033
312051
423229
670545
768089
671258
535701
473949
460058
457984
448792
434994
431076
482065
600970
733308
854438
548906
367275
326529
296356
308978
340769
406861
404055
308548
206076
152032
152556
230958
427388
603072
695385
725522