/*--------------------------------*- C++ -*----------------------------------*\
| =========                 |                                                 |
| \\      /  F ield         | OpenFOAM: The Open Source CFD Toolbox           |
|  \\    /   O peration     | Version:  2.1.1                                 |
|   \\  /    A nd           | Web:      www.OpenFOAM.org                      |
|    \\/     M anipulation  |                                                 |
\*---------------------------------------------------------------------------*/
FoamFile
{
    version     2.0;
    format      ascii;
    class       volScalarField;
    location    "0.007200000";
    object      omega;
}
// * * * * * * * * * * * * * * * * * * * * * * * * * * * * * * * * * * * * * //

dimensions      [0 0 -1 0 0 0 0];

internalField   nonuniform List<scalar> 
12384
(
12889.9
17752.3
20333.6
22633.2
24677.8
26455.4
27630.4
28087.3
27793
26846.8
25257.4
22519.4
18103.8
11853.2
22530.3
27077.7
29602.1
30934.1
31731.5
32537.6
33517.9
34787.7
36140.6
37487.7
38466
39597.1
41573.6
45198.6
50688.6
56556.5
62630.7
68154.6
72530.6
74798.2
74998.1
72431.2
70165.4
67820.6
64882.1
60872.2
55019.2
45832.9
30741.1
17582.6
31430.7
36243.1
39418.8
41186.7
42229.1
43058.5
44008.8
45282.1
46867.1
48265.4
50288.8
53264.9
57661.8
64626.3
72779.6
81091.3
89033.5
95764.9
100336
101558
99004.5
93826.8
89170.9
84736.1
79958.6
74148
66174
54155.9
35372.8
24841.7
34571.9
40129
46025.2
52071.5
57551.2
62053.6
65746.7
69235.1
72985.3
75971.4
76114.3
75475.9
74950.5
75579.2
78078.7
83629.4
91830.9
100877
110113
118446
124495
126585
123769
118833
113582
106889
96723.2
79003.7
51644.9
35744
44643.9
55866.1
62983
67141.7
71388.5
77332.5
86638.9
97700.6
110405
123525
135773
145661
153000
154730
152622
145479
139644
134471
128618
120908
109407
90998.5
62603.4
36386
31697.1
31646.2
32478.4
32504
31770.1
29620
25700.5
30814.2
33934.6
35858.7
37914.4
40934.7
44962.2
49674.4
54688.7
59804.3
63815.9
67377
71263.1
76127.9
82709.2
90381.7
98279.4
105916
112478
116815
117664
113854
108378
102271
95140.5
86213.4
73841.9
56168.8
37635.2
32888.7
21221.2
25379.1
30693.7
37426.1
45006.5
52579.8
59839.2
65697
71497.8
79432.8
88447.3
97907.9
107705
117097
125139
130680
132662
129196
123491
117486
111012
103379
93586.5
79930.4
59358.4
36574.7
30255.9
28780.7
28770.7
31034.5
22975.2
28697.6
40186.9
53766.5
68817.5
83301.4
98321.1
112223
124368
134856
140357
143787
140102
134869
130247
125037
118668
110716
100140
86236.7
66801.1
46772.7
36762.5
33309.8
32525
32775.4
32430.8
31353.8
30494.1
30078.9
32867.9
54717
82565
103147
120133
133575
143801
149703
150373
145089
135888
128512
121865
114949
106597
95648.4
81592.2
65766.3
52932.1
43375.1
37354.2
35167.9
35622.6
35940.6
34752.2
32616.6
29879.6
27324.4
25045.5
23601.6
28336.4
36691.4
57833
81118.6
101589
119675
135106
147107
154262
155112
148279
134533
127001
121859
116861
109964
100207
87996.8
74723.9
63096.8
51887.2
42779
38530.5
38304.5
38473.5
37188.7
35220.4
33545.3
32748.2
32925.6
39828.9
66309.9
98255.3
125241
142719
152767
155883
151009
134345
120706
110539
102615
95410.7
87350.3
79846.4
74799.7
69635.7
63721.7
57580.8
52627.2
50041.2
48520.5
47434
45668.3
43726.6
41547.3
39712.9
38298.1
36828.9
35344
22328.9
22946.8
30876
42286.4
53675.8
63303.5
71238.9
78041.6
84262
90016.4
90979.2
88273.6
83226.8
76826.6
70044.5
63291.1
57943.9
54897.5
54275.9
55241
56927.3
58142.9
57200.2
55938.6
55322.7
54930.8
54053.2
51630.3
46391.7
37360.1
13538
16528.2
15143.9
12840.8
11622.9
17954.9
39200.3
59143.9
71725.7
79724.3
85717.3
90601.7
96135.7
101421
103617
100187
94097
85452.5
75893
65441.9
55280.8
47765.4
41861.3
36569.8
32162.9
28074.6
23774.6
18589.1
12468.1
6189.08
17637.1
51750.6
64666.9
77881
90253.5
101842
111393
117991
119848
116438
108191
94717.9
77157.7
20015.2
23172.4
80969.6
96994
113811
131295
147812
159642
165204
161954
152119
142501
139221
146884
169697
202269
242545
287663
334521
379521
418291
445807
457551
449045
425576
388537
340871
284734
223246
158433
36223.7
35823
147268
186066
217678
239603
251447
252306
241362
223923
207863
197265
196825
212952
250801
301287
360884
425211
490440
551742
603058
637887
648181
633593
597280
541305
468188
380426
284092
189191
45187
44244.5
194332
271356
343774
403962
449065
476399
484203
464726
427677
383293
338384
299901
273599
265428
286105
331434
391747
459404
527992
591439
642776
676019
678178
651938
600753
527124
430540
311496
67107.4
37670.5
121930
138608
159804
192503
243273
311604
398562
497720
603972
711638
816269
911466
989344
1.04196e+06
1.06524e+06
1.04778e+06
997878
920396
821455
704065
568953
421083
273101
140734
97503.4
99001.6
99156.4
92698.8
33749.8
28060.7
112708
152839
196660
239335
275886
302245
316618
315346
301394
284331
269794
264030
271952
301916
347166
404350
469101
535826
597652
647462
678089
678452
652525
604042
536746
451801
348475
228002
46732.8
25523.9
131055
176388
212444
234887
242193
242936
246743
261087
296835
349919
416308
493241
576509
660847
739414
804745
850944
867771
851263
809131
744199
657928
549497
417355
267909
129397
71973.7
75779.6
34373.8
26673.6
91024.6
133366
196366
281755
378462
480324
580817
679374
771128
851910
915205
956737
965544
945230
896325
826025
736869
630441
508036
372463
237142
137191
122330
128009
123181
115718
103442
87664.6
32162.7
38123.2
233950
375337
504048
624449
739487
849737
950167
1.03282e+06
1.08808e+06
1.10606e+06
1.08103e+06
1.0224e+06
933468
817886
676561
516365
355624
221003
156641
147533
147514
143300
142838
139762
130061
115529
97877.5
79217.7
26358.7
28477.3
168202
294784
405522
513350
623774
736921
850023
957153
1.04954e+06
1.11693e+06
1.14963e+06
1.1364e+06
1.07954e+06
993383
875545
724135
540627
357434
221145
160725
153873
156810
150855
145750
136443
120773
104051
88923.5
33474.6
35017.5
255210
422006
570485
691876
791079
872001
932585
961733
935708
864018
752836
606540
441235
285332
199465
201252
219159
230739
230127
221246
207671
191748
174192
155714
135504
118284
104723
94199.8
35008.8
28428
124700
228250
320545
395410
453355
494426
517764
521329
501882
468212
424904
376483
327342
281616
243468
217286
211257
224704
250765
283999
319039
349773
363667
353994
327345
286454
233688
174537
45865.4
20362.6
75893.5
76916.8
74736.3
86518.1
162219
280046
394830
492047
569012
628088
662683
675054
654117
611595
553390
485453
413581
341888
274452
215558
169403
145587
134589
128893
120853
109257
91571.5
68891
8588.52
21466.2
64942.5
81111.5
94842
106017
114936
121753
126040
127956
126712
121615
111902
97490.6
24114.7
24377.7
95134.4
108597
123750
137967
148095
152134
150703
146235
144385
151354
168813
196023
229309
264802
301977
338205
372368
403450
430531
450419
461019
460152
448274
425402
390906
344055
284871
215692
47236.3
37604.7
174991
197431
209558
213164
211279
206920
202210
201404
206595
218888
239943
278385
328828
384066
437085
485194
529053
568981
603570
630322
644671
643309
627473
596407
547710
476769
382499
272832
58840.8
49767.4
250216
320370
372646
404014
418022
418629
407555
386714
363512
344253
331365
325318
326132
338561
374129
428795
491776
552548
606112
650787
685278
706557
710993
698953
670347
621194
543767
429852
88128
37577.3
127190
139185
176734
238730
313901
405647
506961
606840
699553
782951
858262
924845
981106
1.02222e+06
1.04475e+06
1.04247e+06
1.01756e+06
971827
908240
825516
718567
584708
430796
269956
136981
95384.6
103086
106966
36783.8
29841.3
136099
167683
201789
232317
255298
269927
277043
278481
279344
285174
297950
319110
350108
391791
435176
478700
520995
562043
600475
633453
656318
663389
653989
630584
593086
535549
448743
327732
63971.9
28203.4
171485
198172
217639
231995
245044
265300
294245
334120
386638
441759
496054
548911
601511
654524
706303
752717
790035
812024
813006
796829
766785
721463
653293
550268
409470
249272
120960
79534.3
35269.4
30428.4
115452
172170
267832
381949
490663
587827
671085
744952
810463
868607
916661
951001
966186
959904
934457
891183
831866
753628
651527
522805
376628
236094
139083
105573
107609
119755
115198
97815.8
33460.7
56431.7
352035
526116
654308
752296
832071
902966
967402
1.02411e+06
1.06726e+06
1.08926e+06
1.08314e+06
1.05343e+06
1.00227e+06
929019
826455
688690
524266
358643
228247
159308
136395
144644
167082
174974
164834
145551
123517
101769
28623
32579.9
261055
391784
507063
612274
706708
791752
870632
944142
1.01043e+06
1.06379e+06
1.09924e+06
1.10849e+06
1.0953e+06
1.06287e+06
1.00723e+06
911626
761191
570061
381734
242571
168143
138617
141727
161190
162945
145893
124005
104982
34776.4
44065
376158
612261
793222
904822
966528
999849
1.01828e+06
1.02209e+06
1.00529e+06
968642
902237
791279
632411
445752
281807
216175
219892
230650
238791
244277
246288
242004
227997
202667
167238
131151
105325
99251.3
36525.6
38785.9
214372
327723
414591
475712
515648
539038
549200
546569
530928
504786
471268
433056
392013
350720
312301
282079
265725
263374
264258
265423
269911
281632
296989
306890
307384
293530
261150
210718
50199.8
24286.3
86034
71318.7
87708.8
163501
279317
404894
511465
591983
648587
686570
706570
710148
696097
666343
625331
575363
516975
449141
372127
290354
213253
152589
112786
90587
80777.5
78738.5
77871.9
74369.3
6469.55
23855
77960.8
96567.6
110119
119599
125194
128247
129531
130199
130087
128536
124373
116210
27569.2
26207.5
108480
115710
125653
134360
137873
136032
131868
131366
142397
167799
203070
242106
280314
317213
350797
377216
396073
409233
420178
430198
438251
440230
436119
425434
405816
373779
326029
262808
55441.1
38999.9
195997
197722
188376
174900
164482
162218
169294
186598
212278
244689
284729
336726
398000
455382
498342
526036
543603
556978
570248
584801
597290
603514
603197
594508
572169
526657
449586
343717
69235.5
53715.3
291316
340756
364918
366404
354045
335953
317088
303964
304420
318415
340230
362966
383664
407938
451815
515190
579074
628804
661103
680015
691570
699478
700581
696343
686296
664302
616695
526327
103307
43007.8
133925
145574
202580
284260
378710
488101
598590
692875
763526
812727
848738
878390
905641
930174
949991
957140
950501
931471
900166
853774
784291
681021
542457
377677
216097
109025
101878
116138
38746.4
31992.7
156251
172998
192001
207971
217701
222749
226766
235247
253820
284579
325040
371827
423970
474251
516141
545326
563144
574012
582934
592833
603302
609065
609176
604461
593407
566095
506126
400461
75824.4
31301.7
211246
212278
212923
221732
244284
285998
339560
401298
466050
523037
565294
593562
612757
628788
646258
666737
689246
708535
719168
721700
718439
708383
681139
616901
501308
342444
187972
98057.1
34919.8
33789.2
135355
216922
340610
468310
574601
655205
712550
754835
789144
819697
846856
871968
889398
893583
887031
868841
839147
794521
725235
621994
486999
337526
203859
118742
107033
128656
125752
104815
34222.8
78343.2
475228
652469
756795
816476
850267
873508
895419
920060
946843
970443
980579
977902
962666
932501
876914
780660
640317
475984
322734
211937
160336
173799
205698
213985
198351
173349
148470
127397
30861
40001.9
328014
464094
587043
690911
767361
818233
853441
883475
914456
947144
979731
1.00336e+06
1.01634e+06
1.02247e+06
1.01582e+06
978296
882441
724545
534840
362014
237800
168302
166391
192830
193247
169212
141149
119953
36215.3
72997.5
527987
810988
978174
1.04241e+06
1.0413e+06
1.01268e+06
984149
970967
962379
957264
941187
885742
765633
584989
392035
264191
235066
238474
254714
276166
295287
303522
294897
265869
219205
164632
118012
100190
38232.7
49248.3
288773
396412
468117
510615
533158
543687
546823
542886
531445
516085
496472
472116
441259
405424
367440
335988
317069
307538
291338
263260
231431
212754
219192
240589
264067
276840
268235
234023
53184.8
26676.2
91532.8
77846.9
134714
243594
370940
489102
575881
632297
665500
685249
694743
695338
686085
672039
654348
629555
591234
534165
455212
359463
261185
176335
114750
74849.3
56818.4
58803.8
69214.3
78234.4
4128.89
25326.4
90994.5
111041
123874
130766
131911
129995
127446
126895
128672
132290
135726
135709
30526.6
28182.9
122890
122651
125664
128214
125841
119484
114718
120672
145282
186485
234078
279448
320985
359445
389791
405834
407498
399597
390439
386966
390988
397373
404096
407930
405224
390506
358239
306118
61794.8
39670.9
216393
201182
172526
142054
122887
123614
143752
178371
221755
270662
322619
384335
454025
510284
539919
544428
533071
516805
505562
505040
515216
531677
550480
566508
572106
554620
500557
408198
77377.6
56238.3
327827
354834
352305
326554
289764
253562
228862
229824
261237
310477
361435
403665
433986
462466
513930
585589
646806
679409
682961
668889
651958
645428
647402
659359
675978
687315
675668
617434
114650
51053.1
140797
155428
228830
324963
433773
556767
672256
755706
798377
806952
796619
782913
775866
780052
795226
813632
830437
843185
846479
835829
803021
733177
617276
458635
286666
141854
100821
121806
40528.1
33915.6
176247
179449
183786
186377
184007
179591
180437
195958
231489
284481
348493
416997
484036
541369
580535
595663
588476
566742
541144
522990
518908
525742
540655
559166
575869
578204
546024
459465
83109.4
34548.9
254395
228074
207344
209094
241292
303578
378107
455233
528649
587211
618635
624672
612186
589826
566974
553038
554773
570976
594063
620080
646471
670091
679273
649968
559369
407352
241386
124505
35177
37650.5
155233
264391
404864
534368
629588
687780
714809
721173
718909
715637
718478
730084
748644
768481
786349
799112
803081
793408
758581
685111
568788
421367
272054
160684
127616
140685
133707
109642
34957.7
98415.7
585409
745931
816810
834991
822337
796967
774165
763330
769523
791875
819196
846848
869502
881939
871706
817658
707811
556129
397555
267604
200618
209117
236259
236133
211900
182981
163281
151998
32855
52325.7
374133
518620
649732
752151
809729
824262
810820
789523
777584
784523
811045
849030
890382
932433
967434
978590
934682
820035
649929
469230
317808
222278
202430
217080
208166
176303
146221
130591
37546.7
118880
700992
980697
1.09601e+06
1.09128e+06
1.01952e+06
927259
853875
822842
833593
874393
918666
926895
857396
699649
498874
335494
270752
258374
275739
308818
341956
362389
361986
335936
285743
218331
149091
103209
39485.8
57601.4
353308
449243
502229
523701
526247
520170
512141
505018
499488
499589
499566
493131
474975
445324
407246
373736
354677
343902
320888
275009
213949
159834
149775
184101
229687
263422
271537
251478
54933.1
28278.3
95576.4
100980
184447
309497
439472
545254
609447
639635
647068
643164
635467
628225
624439
629840
640180
645066
632329
592140
518362
415841
303323
201911
126063
77562.9
54512.6
56361.2
69417.1
79525.9
2963.94
26033
103073
123909
134908
137704
133221
125503
118874
117291
122873
134306
147102
155861
33026.9
29945.8
137183
130365
125583
121784
114387
104920
100633
113303
149872
202558
256882
306221
350229
390895
418607
424713
407759
375348
341625
320412
319691
334564
357829
380834
397532
401291
385576
345588
66011.6
39320.1
233204
209803
168897
124201
94968.9
97068.4
128366
176337
232014
289690
348229
417693
493240
545834
560282
541626
502316
456340
417983
400196
409083
439889
482518
526629
560965
571267
541376
466371
83052.3
56523.1
358174
367322
344202
296917
239461
186702
157620
178751
242894
319675
387126
435710
466605
496667
556117
636156
690770
700721
669834
615914
563656
539403
550663
593313
649856
702050
728408
703578
121831
58590.8
146303
165783
251673
358448
477686
610907
728180
798058
810934
778712
721461
661875
614940
594332
604397
637956
681645
728975
768677
794409
795233
756607
663486
514347
338018
174465
103118
124757
42550.8
35774.2
192885
187687
181268
173653
162211
149836
147064
167387
215534
284555
365231
447913
524860
587996
624171
626413
595626
541183
477776
425779
405194
420310
460460
509898
556849
586285
578032
506765
85457.4
37364.2
297468
244935
201380
194136
235087
315050
404928
491199
570864
631422
654931
643556
605351
548775
483738
425915
397433
410453
454078
512323
572043
628173
667594
665192
593035
446265
274093
145194
35961.3
43626.1
177187
307434
454879
581188
663009
699341
697372
669036
628244
584666
553048
544487
563159
603285
652800
703285
744249
769680
767558
721950
623720
479792
320706
195625
149473
149253
136835
112034
35986.9
115867
667245
803286
843598
828008
776169
706486
637618
585538
567522
589557
636765
695539
755122
806134
834867
816312
733938
596443
437769
297406
221539
223235
242008
230919
196672
169837
167513
173590
33568.9
69642.1
406700
557568
696086
797476
838255
820515
760849
685409
621345
594146
614981
670536
742214
819803
891752
942244
940204
864350
719625
542254
376178
260239
219822
219112
200137
162944
138529
136023
38677.5
158752
862756
1.10053e+06
1.14437e+06
1.06972e+06
935097
789853
676865
633832
671665
764693
871031
941242
922468
792123
592642
413682
320725
286308
294179
329261
369727
400224
411063
395713
351898
282759
198730
122339
41377.6
62875.6
409270
492167
525783
524153
501828
470829
442547
428092
431858
454258
480590
496136
492931
469820
430619
392735
372727
364214
344082
295741
225298
151455
116832
160459
218677
260570
273845
258969
55162.4
29911
99985.4
123799
224139
358913
488439
581071
623311
625947
603839
569864
536844
516516
519054
547667
590210
627464
642767
623139
560056
456378
334606
222141
137516
84804.3
60004.3
60612.4
71674.2
77155.6
2511.57
26226.1
114248
134458
142291
139917
129259
115432
104160
102242
114295
136302
159284
175483
34756.8
31375.7
148595
139781
128026
117598
105672
93535.2
89944.7
108190
153411
212487
269676
320956
367145
410810
437310
434930
400676
344164
282651
237875
232054
261981
308289
353847
390442
411662
410804
379400
67040.9
39605
240341
217670
175628
127360
91709.5
91425.9
126057
178213
237433
297615
359331
434527
514226
562003
561977
523878
461525
389009
320759
281882
293132
345607
416566
489132
549702
583843
574714
515692
85420.5
53958
377908
377326
342777
283509
213960
151502
125588
170930
254652
338821
406078
451354
477726
507683
576969
665572
710707
696138
630459
533241
436722
388685
425554
518556
624786
718635
778493
780997
122854
63932.9
151316
176295
270439
383861
509750
649532
766816
824058
811900
746303
649562
546621
453385
398178
403045
457499
533835
616871
690460
748478
777529
764548
690003
548519
368634
194657
106447
127495
45350.2
37524.5
201951
195821
184485
171577
155286
138397
132327
153328
206066
282074
370751
460812
544856
612975
647060
639082
588821
506601
407139
315052
275549
313496
392329
476843
551168
599818
606344
538457
81517.6
39581.3
336482
260292
194228
177283
225364
318005
416658
507465
591644
655192
675475
654111
600239
520744
421843
317007
246676
259557
334755
427828
518344
600401
659214
670739
607105
461117
287190
159008
37389
51393.4
201161
343382
492130
614809
686503
707013
683504
628062
553939
469091
391646
344265
361443
433028
521533
611031
686440
742270
766157
741199
654920
510975
343561
211235
156540
147841
133954
116088
39842.4
130923
714522
826370
847617
811463
732996
629960
519080
418360
363256
386894
463435
557310
650194
731495
788274
793721
731478
604167
443658
293459
209630
210148
225498
206978
167469
156140
176857
191205
34380.1
88477
425891
580267
725683
828975
859487
818846
724207
602109
481918
405167
416093
495156
599817
708149
810214
890310
918309
870953
749018
577219
401387
265903
208188
202661
185598
158872
145583
141936
41229.5
186384
980457
1.15263e+06
1.12934e+06
1.00332e+06
823413
636012
486011
441179
521461
670532
831585
951668
973828
865279
668644
488229
375961
317671
305390
329415
370165
407677
431029
432553
404889
346152
260638
164835
46410.2
64510.8
455292
528179
545282
521800
472449
409874
349955
317183
333117
387848
446398
485407
496991
479976
438173
392560
369700
365584
354390
316466
257982
196756
162605
185433
230185
263084
271488
251566
54815.8
31949.5
102836
138661
249675
391677
521240
603611
627385
605199
554208
486290
419208
375136
383291
443070
521218
589954
630619
631022
581536
480741
353670
234002
144692
90887.2
66325.9
65139.5
72880
73027
2730.64
26006.1
122793
141262
145631
138359
121971
102653
87383.7
86566
107695
141147
172524
192086
35563.5
33069.2
154331
149647
134252
117288
100870
86506.1
83534.9
105372
154306
214390
271521
322890
371250
418777
446233
438924
392660
318440
232742
158142
143583
199190
271734
338006
391313
425748
434736
400840
65507.5
40431.7
234495
220275
187142
148725
117389
111483
136612
181951
236317
293415
354841
434385
517636
561350
550724
499919
423996
334245
238725
173396
193652
274060
371128
466253
545912
596324
601294
552977
83802.1
52051.7
380443
381237
343979
284577
218300
165152
156439
206619
283985
357898
414284
448958
466465
495675
577270
674576
710938
676490
583650
449942
306465
229435
319364
468681
617644
743330
826001
843300
114354
67366.9
161721
189212
285733
400293
528071
670025
787282
837292
810466
725336
606098
474823
339588
235189
231570
315537
425141
535263
634397
715056
763896
767310
704589
565532
381455
202905
111000
133451
47865.7
39854.3
202991
199925
190008
177295
160946
143813
136172
153514
201976
275390
363352
455454
544182
617215
651782
637959
576219
478313
356464
231971
177043
254830
371696
481773
570444
622643
627110
542952
77694.9
39671.5
370151
273805
186154
158257
211656
310641
411622
503826
592164
659380
681583
659440
603002
518366
409278
285008
186544
198696
293240
402607
507381
598691
660621
669501
601720
449149
278924
164442
41157.8
60735.9
239489
377616
521925
641404
708272
722087
689063
620473
528818
417446
299595
189364
201610
314546
437288
553788
652040
726610
764558
748740
665274
514686
339208
202055
143202
146535
150944
151800
53503.5
144098
722172
819889
838871
796684
708283
590598
456917
317419
211878
238773
349996
469759
583349
681876
751847
766453
712701
588415
423537
265368
181548
196730
220847
210108
185736
188156
206371
204969
39790
105790
437729
590296
739390
846097
875323
826295
716378
570165
409174
272361
255174
357286
491542
621349
742762
839625
883477
852930
746233
579188
396578
246995
193480
206648
214978
213143
201134
178266
55461.9
203219
1.02227e+06
1.1313e+06
1.06859e+06
916204
717225
504751
317288
279560
424101
623986
822121
971287
1.01464e+06
916945
728232
551524
426620
346214
306175
305155
334609
374733
410965
433399
430453
392942
319484
217806
50218.7
62270.5
486600
556012
563949
525221
454336
362913
266736
199609
231359
325006
413032
470289
492305
478720
432497
375603
346017
347649
350111
331317
295157
256698
232281
233108
252044
265737
261702
232668
53661.2
34764.6
103491
144667
261430
408905
540939
617220
629769
590837
518126
421585
317438
234198
246444
346912
457972
550317
608724
623793
585790
489865
360506
236904
145880
93095.4
70024.2
67811.8
73012.7
70514
5197.35
25534.3
127983
144220
145595
134566
113962
91217.1
75621
79465.7
108902
149719
184360
202678
143232
41944.5
41188.4
114549
158566
158140
143822
123236
102657
86382.7
83521.7
105405
151825
208258
262162
312425
363117
414683
445405
438135
389402
311800
219682
130704
103709
178487
263420
340001
402230
442348
453202
412784
238923
47539.4
44183.5
151286
216959
206767
187243
165288
146444
140185
153620
185295
228333
277243
335569
418559
505485
548095
533000
479241
403233
314242
216588
142223
166918
255956
361503
465287
552097
608084
618296
570218
339837
64258.4
55248
221116
371248
374441
343488
295254
245541
213502
219650
261512
319045
372943
410932
429027
434074
462998
559520
664914
697922
654996
553273
409397
255990
186778
303877
471970
637866
777320
867190
877572
487360
62662.5
65420.6
226747
187106
209098
298452
408309
531009
669016
786102
837282
810079
723926
605960
474704
335558
216638
196461
279552
391703
507752
615216
704058
760179
767826
707962
566338
379647
208021
136477
158546
158732
47553.4
46528.6
151051
193334
194654
192438
185826
174257
160228
152321
163291
201248
263782
343481
432999
524657
603150
642389
628184
567165
472064
357366
249092
217188
299591
417340
525689
607671
646456
629978
525755
265122
56346.1
52830.7
278897
382182
276870
179934
147521
198923
294069
390712
481145
572819
646314
676321
662068
616190
545417
454903
358566
288400
288599
354565
446663
539454
618653
664511
655965
574078
419287
260904
181267
163025
63743.6
70987.4
250381
298852
411973
545416
660499
727502
744122
714614
651341
564707
458466
346640
249702
241821
327703
439341
553548
652840
728017
763978
744487
654373
496040
314897
184143
179978
219269
246395
254909
228274
84412.4
102260
530974
695854
791278
821907
788280
708480
600053
475908
345356
246351
253846
348840
460609
571137
667962
733911
744409
687435
560022
392399
239509
181654
214445
249792
263603
268171
276518
287602
283116
232808
89927.5
98334
352678
456832
594840
738017
845417
880519
837669
735689
598069
442997
298532
240746
318602
448119
577551
701346
799362
846013
821197
721301
557474
374876
241784
226198
258823
282281
288571
278380
256172
223051
88848.9
111433
716708
990559
1.05471e+06
987831
839027
649858
446839
260868
244636
428728
643480
846013
994297
1.03446e+06
943462
766478
594898
463782
366363
297908
261470
263314
299014
348785
395744
422149
412020
360275
272346
174201
43357.4
48560.5
263275
500391
573633
580311
537749
459119
357478
250473
171920
206041
306272
400169
461474
485575
470406
418813
349161
306958
310979
328645
331568
318516
299866
284258
274204
270593
263481
245776
216242
149311
41464.5
38713.3
113792
115789
147668
261902
410837
545656
622074
633019
590210
510333
403784
285478
175116
184853
306527
427428
525189
588650
609110
576201
484847
355826
231519
142418
93771.8
74239.2
73696.3
78411.6
76339.6
46299.1
7996.95
3444.67
24946.4
128151
143035
143427
130803
108688
85766.4
73465.7
83972.4
117500
158608
191322
205666
172779
98153.9
93777.3
128878
156612
161780
152406
133410
111614
94247.6
90661.6
109600
148824
196550
242620
289567
342604
398918
436240
435464
395443
330169
255583
191819
171373
214504
285273
357771
419820
459539
466640
415309
281047
126733
121153
169227
182076
178920
174661
170427
166125
163732
168686
185835
214262
251770
304478
390599
481436
526044
514529
469497
407767
338421
269922
223573
232969
297077
386845
480789
560934
612005
619373
566434
404706
154159
127208
259358
343536
352844
334519
304156
276137
265078
278017
307754
344778
377404
394957
393994
385213
415652
528911
639492
675907
641724
556741
442122
337794
304383
380469
520306
673814
808680
893715
892038
616867
175016
181093
248690
179278
205017
295927
399029
512241
643027
761507
822442
809991
741803
646291
542172
439814
360714
331208
368116
445964
540369
634396
713996
763492
765033
700925
559756
380066
219826
147334
160114
177033
160777
155507
165344
173423
183312
192338
195231
191273
182134
174688
178324
202503
248719
314324
397535
489652
574507
622792
618467
573065
501092
419741
356365
352319
415276
508731
595266
652452
661496
608723
479783
290098
169783
206773
380513
363735
260064
169309
141754
187845
271082
356685
441245
535152
617742
661785
664952
640490
596909
540550
483525
444480
441927
477322
537034
599866
649153
665497
629665
529758
380044
248767
201351
215319
222240
240868
257313
297129
412455
544013
662213
739420
769138
755486
712243
649776
573947
497920
438283
421202
456675
525819
609428
686370
743217
762708
727747
625701
465339
298545
202948
205995
231422
249019
253493
244536
242023
292242
505811
647095
751646
800057
787245
730570
648515
556517
467727
407172
398545
445359
522054
607175
682593
729258
725838
659916
529661
367990
237079
199190
230238
270002
295996
311316
320953
323563
311988
283666
262036
275353
331516
437889
571740
709076
821165
872000
851074
775134
668281
550916
446662
390898
409628
489116
588623
691600
773226
809156
780796
683527
528466
361723
251296
232053
252966
272637
277509
267648
250578
247705
300074
383900
682102
893985
965372
917725
794585
644729
492477
378958
387985
523125
706364
883868
1.00668e+06
1.03095e+06
940589
775342
611898
481391
376337
290970
225725
191417
208314
265303
335387
390573
407679
378260
303321
206825
133669
147601
342809
506078
578366
587473
551156
481309
394098
311121
265419
287128
351825
420352
466599
481033
458592
400761
321135
262099
260839
290000
311356
317167
313081
304616
292295
276531
255404
227579
195023
157415
131044
125108
124135
118904
149664
257273
401869
536171
616538
633534
598094
527379
434174
338622
268994
276766
351792
444180
524002
576363
591062
556100
467409
340153
217253
133676
91281.9
75027.1
75140.5
79412.6
77756.4
59765
25928.8
2682.19
24340.7
122850
138777
139942
128733
109503
91123
84358.6
97598
128515
164305
191593
200503
169863
93268.5
86988.6
120164
147308
158730
156904
144708
127237
111757
107311
120527
148237
182208
215694
256304
310842
372755
420077
433588
411871
367888
317474
276052
259454
279116
326561
384388
438404
473268
474038
413747
285435
136574
126557
150348
146439
149226
157130
165803
171972
174140
175652
181782
196110
220362
265823
355899
448233
499280
502921
477272
438169
395307
355472
330062
333632
371386
433821
505038
567578
605745
603387
541069
391715
144747
122615
233829
296456
313405
311274
301601
294598
297898
311206
331304
353596
369292
368454
349155
326521
360872
485901
602400
654861
647514
598317
526953
464652
444995
490031
589574
712812
827517
897885
877830
625625
178701
174556
224596
154835
191773
279852
369855
467638
589654
712229
791472
807018
771394
712062
646138
584249
535869
511908
519638
558095
616847
681338
736878
767132
753473
680057
540807
371732
220944
146091
150017
167017
156925
152091
150618
156938
174648
192478
204126
207920
204282
198143
195320
204771
231829
279538
351602
443433
536803
599056
615401
597278
559632
519396
495363
505336
549868
611938
664603
685990
657981
571144
431163
282445
202037
255233
388609
317541
225369
156098
142646
181763
246561
313860
387262
481626
574907
637142
663328
665727
653948
633402
610975
595033
591932
605218
631781
658485
670787
651999
588703
478504
345081
245491
214322
223900
224254
224016
223793
271343
383657
513159
638790
733280
785608
798145
784336
754927
715703
674503
639719
621318
627083
655876
697676
737715
762349
753833
696745
584129
432729
293468
220991
209773
212780
212591
208889
204601
224804
291091
457390
587861
701897
770480
785972
761431
715034
660653
609243
573116
561862
578754
618645
668462
711455
729301
704267
626243
498663
353323
242210