/*--------------------------------*- C++ -*----------------------------------*\
| =========                 |                                                 |
| \\      /  F ield         | OpenFOAM: The Open Source CFD Toolbox           |
|  \\    /   O peration     | Version:  2.1.1                                 |
|   \\  /    A nd           | Web:      www.OpenFOAM.org                      |
|    \\/     M anipulation  |                                                 |
\*---------------------------------------------------------------------------*/
FoamFile
{
    version     2.0;
    format      ascii;
    class       volScalarField;
    location    "0.007200000";
    object      rhoEu;
}
// * * * * * * * * * * * * * * * * * * * * * * * * * * * * * * * * * * * * * //

dimensions      [1 -1 -2 0 0 0 0];

internalField   nonuniform List<scalar> 
12384
(
355409
347216
340266
332404
325837
320778
319821
321725
326322
332922
342760
353376
361132
386379
115407
154371
166875
165148
150516
136536
130276
135534
144836
159439
163615
163172
159351
155207
150388
147645
144934
143950
142169
141494
139395
136064
132519
126593
120374
110349
102154
104117
120292
95331.5
53564
30797.4
25869.5
25853.9
24053.5
24988.6
21996.8
24617.5
22232.9
24589.3
24007
26329.6
27479
30502.2
33497.5
37450.5
40218.2
43669.9
44980
47577.8
50636
47411.5
51993.1
48367.4
47341.5
43862.6
36357.9
29045.6
40052.4
56389.3
24099.7
28180.7
29919.8
30560.9
30719.8
31959.7
29843.2
32161.1
31219.5
29935.9
28706.1
28062.3
26970
25907.9
24863.5
23753.4
22502.2
21983.8
21118.7
20137.8
16503.3
19186.1
12020.9
12965.6
9850.76
8858.71
7076.73
7127.49
4654.11
-8429.35
43336.7
40225.9
35070.6
36612
36205.7
38107.7
40894.3
45403.9
51272.5
57556.5
64225.6
70034.9
76235.2
79355.9
83008.9
84243.8
79416.1
88684.4
80394.6
77974.4
76552.4
76851.4
74899.4
48649.5
43480.1
46484.6
46755.7
45406.5
44173.5
40742.9
24044.9
24296.9
25668
29178.5
26078.3
23642.3
25166.5
21175.6
25040.6
23042.1
22896.5
21876.3
20841.3
20198.4
20291.1
20320.7
20581.4
21075.7
24156.1
22473.2
26922.8
25543.6
30527.9
29728.1
29703.1
30821.4
34511.4
38127.5
42166.9
44545.4
-73002.1
-51153.4
-46252.6
-47233.6
-47698.8
-45365.8
-41153.4
-39813.5
-39126.3
-38486.9
-38690.3
-39044.6
-39283.4
-38546
-37145.2
-37364.5
-36847
-32969
-34128.5
-35392.8
-36900.8
-38138.2
-40657.3
-39952.1
-40493.9
-76256.3
-79020.1
-78468.2
-77422.9
-77471.3
-22582.2
2025.48
11219.3
17838.2
23680.2
27687.5
30717.7
28898.9
33991.5
26966.4
33639.2
25974.5
29918.4
25877
23475.8
25769.8
20667.5
21141.7
19228.4
18315
13195
2524.6
2099.33
3841.45
5278.13
6682.4
7490.62
7714.32
7418.21
7581.66
8686.44
15341
21147.1
25671.8
29399.3
32548.5
35484.6
39003.7
42389.3
43599.5
40264
46333.3
41171.8
40556.3
36068.2
34844.2
34843.7
20630.6
7692.22
9993.7
13769.9
16516.4
18997.8
21848.8
23563.2
25430.9
25798.4
20889.3
8905.66
-2851.1
-47371.9
-44743.3
-43264.2
-43316.5
-41859.7
-39663.4
-36423.8
-31936.3
-27067.2
-20678.3
-19711.7
-9729.42
-14519.5
-5209.32
-10699.6
-5637.29
1526.31
1944.47
-13347
-20159.9
-15711
-13446.7
-9144.18
-6138.71
-1626.58
1356.89
3430.47
5861.7
7061.24
5859.76
-36322.1
-24376.8
-12282.5
-7133.16
-1550.06
2777.78
6069.17
9142.94
10170.7
9106.23
4647.61
-2109.38
-9423.05
-20880.6
-33878.9
-37033.1
-52160
-66699.6
-68657.9
-85910.2
-101031
-98289
-107344
-115831
-111150
-114664
-116536
-109571
-106832
-104937
-164000
-166009
-130698
-102534
-106369
-108829
-110415
-111479
-113612
-116092
-114325
-119438
-118353
-118248
-118923
-118880
-117328
-116017
-114534
-112792
-111296
-109938
-108130
-108801
-105324
-105172
-101902
-99762.4
-109276
-126179
-120028
-120180
-118592
-117682
-119850
-124975
-67064.1
-22337.5
-20132
-20003.7
-21607.6
-20025.5
-23945.7
-25101
-29219.3
-32945.1
-37480.9
-41497.9
-46031.5
-48814.8
-52908.7
-52883.2
-57506.4
-57583.1
-62471.6
-65975.6
-77144.1
-94239.9
-101047
-81082.2
329470
320566
304426
287564
280742
278466
278098
278315
279068
286520
303374
329100
353268
384116
120902
161180
167065
155724
139512
134203
144476
179778
209424
219511
209820
194727
179178
164190
155022
152170
154670
158969
164180
166916
169029
167728
164125
155430
143992
129407
112868
104603
114268
112077
51717.4
30183.1
26406
25337
23213.6
23670.5
20486.4
21581.6
20580.7
22482.5
24439.1
27066
31583.4
36859.5
42406.1
46540.9
49529.7
51105
54039.6
54085.4
56642.6
58497.2
58797.3
59783.7
59398.6
53623.7
47901
36182.3
33683.2
42764.6
27178
29889.4
30287.9
30114.7
28365
27340
27046.3
23635.9
23947.2
23556.4
23115.6
22728.1
22708.8
22524.6
22149.1
21848.9
22521.9
23232.7
21452.5
20972.1
21181.6
17793.8
14150
14069.9
11739.8
9868.38
8567.31
7887.75
7354.09
595.105
43916.6
38679.7
32409.8
32957.2
32776.1
36428
41670.8
50144.7
60017.5
70078
79139.3
86953.9
92570.6
97612.3
100782
103154
105627
102394
101057
97946.6
90725
84212.8
82501.5
68181.6
51567.3
46786.5
49143.2
50931.2
51092.2
49190.4
26341
25162.9
27880
26446.7
26558.7
24815.3
31985.8
34369.8
39253.6
39436.2
37308.1
33114.5
28993.3
25111.5
21931.8
20721.2
21946.4
23475.5
25993.4
30053.9
32280.8
36489.3
34964.3
38300.4
40156.7
38200.4
36857.5
39193.9
43204.4
44563.2
-69335.9
-47964.7
-44342.7
-43560.2
-37152.3
-29796.9
-24126.2
-21989.9
-24242.2
-28787.7
-32913.5
-36862.1
-38614.9
-39465.1
-40827.7
-39419.2
-36844.3
-36661.9
-36832.9
-36583.5
-37427.8
-39048
-39781.6
-39888.7
-38400.8
-55827.6
-76864.7
-75748.9
-71674
-69470.6
-19239.9
10494.4
19392.9
28909.1
35325.1
36590.6
36684.9
33431.4
34066
30925.5
30440
30806.8
28524.3
28845.9
27919.1
25099.9
24566.1
24336
22255.1
21453.6
19252.3
11006.9
1775.87
1937.7
4354.17
6714.45
8480.96
9758.08
10560.4
10123.2
8502.54
17913.8
25090.5
29273.5
32149.6
34455.2
37223.1
39410.3
42563.5
44468.6
46988.3
45799.1
45037.2
45738.1
43941.8
43268.3
41523.8
35806.5
19976.7
10393.9
11351
13737.7
14170.4
18142.3
21435.3
26238.2
31290.2
36226.3
25212.2
3240.39
-47374.3
-46066.5
-45367.2
-44501.6
-43073.5
-41215.2
-38862.7
-36807.9
-34256.6
-30248.3
-25538.6
-23456.6
-19611.3
-17106.3
-11677.3
-8577.27
493.3
3142.81
604.272
-11423.2
-18256.9
-16074.5
-12219.1
-8199.71
-3189.98
46.5775
2521.02
4230.99
8821.22
8258.17
-42397.6
-27674.9
-10013.8
-1294.02
3897.77
7248.82
9797.23
11609.1
13235.2
13118.9
11279.2
6527.19
-1103.64
-9981.97
-24218.2
-38362.9
-51883
-75743.3
-85804.7
-92134.5
-110575
-114112
-114955
-122327
-123233
-120148
-122531
-118277
-107956
-104232
-160043
-140551
-109733
-101165
-104230
-104659
-104376
-105376
-105762
-107965
-111164
-113332
-117260
-121246
-120713
-121557
-121059
-118790
-116350
-114700
-113905
-113536
-113447
-113758
-112366
-110326
-106030
-100843
-106023
-122495
-120648
-127026
-126016
-114775
-117566
-89617.2
-32021.5
-13490
-8872.32
-8586.36
-3003.84
-5422.46
-5448.31
-7791.32
-13193.3
-18864.7
-25640.3
-34226
-41896.9
-47835.8
-52528.2
-52512.1
-56202
-55614.1
-58897.6
-63865.2
-79124.3
-98012
-100539
-79541.1
315268
293913
276201
270030
273033
280922
286478
288982
283444
275417
276144
294944
335981
380830
126286
164532
163126
145676
135289
138968
178109
224013
239406
230459
197527
170721
154465
144883
145209
151234
162514
175966
183902
191840
197436
197611
194857
186402
172419
153443
130668
110582
108661
116455
50199.9
29862.4
26312.3
24399.6
21729.4
20937.6
17916.6
21159
22011.1
26153.9
26163.3
27786.2
31394.9
38511.3
44028.6
47484.8
48367.1
51246
50756.6
52010.2
54848.8
58392.3
58542.5
61501.8
64507.4
63735.1
55832.5
46110.9
36630.9
37586
27368.6
29746.4
29487.9
27606.2
25360.3
22735.4
20857.3
20570.3
20809.7
20979.2
21706.4
21637.7
21825.9
21507.6
20939.6
22016.8
23660.2
23128.4
22602.1
23002.3
20467.4
14995.9
16113.6
13062.8
10498.2
10006.2
8942.58
8359.31
8176.34
4881.33
43286.6
37853.4
29620.3
31459.9
31902.5
37358.7
46452.9
58503.2
70778
81501.7
89816.7
95200.8
101029
105539
106435
109428
111007
114044
113904
110055
102030
93811.1
87284.1
80004.6
65929.7
50266.3
48551.4
51577.7
53099.2
52939
25383.6
26443.2
26815.2
26977
24242.9
32700.8
43110.8
50451.7
55203.6
51284.5
47895.8
41707.4
36091.6
29888.4
22778.3
22497.7
25058.1
30517
39991.8
42331
48379.9
51058.2
52523.8
49373.1
51092.5
46932
41189.3
41319.8
43272.5
44485.8
-66581.5
-44934.1
-40030.4
-33286.7
-20271
-8428.16
-6931.58
-11675.9
-16377.9
-24972
-33398.4
-37978.4
-40129.4
-40823.5
-38861
-35977.2
-34438.7
-33564.9
-33751.9
-33556.6
-35091.8
-37796
-39015.4
-39863.8
-38500.5
-43687.1
-67518.1
-75003.2
-74126.5
-67889.3
-19500.3
12803.4
28310.4
37938.2
38200.4
35782.1
33615.8
29172.1
30820.6
23537.9
27018.9
23516.7
23533.8
20479.8
21564.7
23430.6
23271.3
23560.7
23444.5
22104.4
20846.7
16449.5
6091.41
-1468.52
409.426
3018.27
6104.15
8911.63
12035.4
12549.8
14212.6
23388.1
26153.6
27931.2
29732.3
30934.9
33224.8
34594.7
36080.2
38707.9
37074.3
41428
42348.3
42653.8
44044.6
43911.5
44031
41477.9
31685.1
16519.1
9217.6
7871.25
9198.58
12787.1
17237.5
20893.3
23196.5
31792.6
35267.6
8927.21
-43726.5
-45038.7
-43477.9
-41349.3
-39992.7
-39970.4
-40530.1
-39958.6
-39200.3
-35925.4
-35217.4
-28530.8
-29102.4
-26147.3
-19707
-14002.8
-7436.3
269.865
2986.78
167.341
-11599.1
-17766.9
-13329
-9525.76
-4439.79
-2260.78
659.427
3146.68
6430.75
9677.86
-46702.4
-22393.8
-4619.02
1824.67
4744.6
5719.86
5807.74
5344.5
5437.62
7258.16
7672.67
6746.49
3109.25
-5235.56
-17110.6
-34742.6
-51304.8
-74492.6
-91645.1
-92691
-109159
-119723
-115660
-121110
-122089
-113090
-117217
-117757
-106330
-103922
-151329
-120647
-99780.8
-98396.3
-97208.8
-91950.7
-87094.9
-83639.5
-84329.8
-84775.3
-91912.9
-98132.7
-102873
-111989
-116150
-117183
-116658
-114795
-112397
-112319
-112955
-113401
-113049
-114200
-113943
-112024
-109578
-104483
-105579
-121088
-113410
-130274
-132141
-115351
-100931
-52434.2
-12497.6
-3400.51
3234.06
4085.66
12274.2
5754.5
8584.32
5277.28
-152.727
-4950.82
-14429.2
-24299.3
-37009
-46731.9
-53800.1
-53703
-57465.4
-58402.2
-65544
-76306
-92947.6
-101691
-96745.5
-72991.8
294421
273414
269398
277953
288691
300953
312744
325763
325287
308404
284356
281705
314865
375112
127725
164715
157517
139256
132047
150728
199924
238881
245560
226326
180052
148861
142272
139871
147457
163852
180494
190702
201735
211109
217883
223364
222270
215967
201664
178925
150862
121198
108472
114616
50608.6
30219.3
25833.8
23452.4
20101.6
19856.8
20289.1
28691.3
36942.7
42049.5
40621.7
33339.2
34426.5
40274.6
45367.4
45845.8
48869
49678.3
49747.8
55274.3
55990.7
58187.2
58836.4
60227.2
66788.9
66136.5
63637.6
55279.7
40608.9
37558
27537
29635.4
28080.6
25303.6
22238.6
18412.4
16463.5
17152.5
18082.3
19183.8
21008
22291.3
23065.6
22559.6
22941.3
24220.8
24113.8
23360.7
24907.3
19840.3
16246.8
16296.2
13675
10806.8
11648.6
9696.21
9597.62
9299.25
9589.2
7953.93
41563
35898
28746.9
29888.6
32300.3
39741.1
52158.5
65980.5
77491.5
85748.3
90897.4
96190.1
99351.4
101053
108183
107039
112580
114916
114744
115808
110977
101091
92123.8
85839.3
74349.5
59941.8
48311.3
50584.6
52717.7
53424.4
28315.7
25813.2
27805.2
24358.1
26919.6
34683.9
51160
55770.2
58286.9
50786.3
43683.3
37978.5
36022.3
31530.7
24715.6
25356.5
32381.1
46891.6
51688.7
62093.6
63505.5
66198.9
70455.1
68018.3
61809.5
56513.8
49473.4
44477.9
43938.3
44625.4
-64538.7
-41349.7
-33269.2
-20420.8
-5496.95
275.138
-1835.25
-9903.24
-16060.6
-24865.9
-33864.4
-39189.8
-40500.1
-37413.4
-33149.6
-29062.9
-25114.4
-21239.4
-22970.9
-27340.5
-28344.8
-31921.1
-35992.3
-39088.8
-38303
-39051.8
-53706.7
-73580.3
-76003.1
-69574
-5165.12
21753
40768.3
40402.2
36614.2
32380.8
28376.6
29405.1
24488.3
25360.8
20927.2
20220.8
19276.2
21888.7
19778.2
18365.1
20589.9
22310.5
23032.6
22383.1
21307.3
19135.6
10940.8
-859.114
-4490.4
-1139.4
2578.14
4336.87
8660.33
9488.03
20775.9
24340.9
25888.4
27584.9
27540
28308.8
26806.9
26834.5
25522.2
26796.3
35192.4
33105.6
34959.4
35404.4
39410.9
41352.2
42059
41992.5
36809.3
25577.1
12911.7
6356.75
6619.71
11736.9
13441.6
14657.5
16423.9
27291.5
35697.5
14188
-43330.8
-43056.2
-39050.5
-37525.9
-38277.2
-41187.4
-44061.3
-43693.7
-45904
-46964.6
-44178.4
-44599.3
-34771.2
-34464.9
-30631.8
-22494.7
-12355.9
-4157.92
106.04
2454.63
-385.575
-13812.3
-13850.1
-10317.9
-5786.2
-6271.98
-4466.52
-252.551
4624.97
9857.93
-42662.3
-13619.9
68.3275
4373.08
4187.07
1472.92
-914.661
-4441.34
-5996.05
-5572.22
-1330.91
2281.31
2205.62
-1980.73
-12299.9
-28697.3
-51669
-68812.3
-89412.2
-93405.6
-100456
-118218
-117550
-117083
-121751
-110237
-107395
-107817
-104143
-102055
-143343
-108895
-94179.3
-90408.6
-81584.5
-72052.3
-64258.2
-60963.8
-58614.7
-61765.4
-66089.8
-79070
-88978.8
-99503.7
-109713
-115857
-114632
-112969
-112363
-113779
-115425
-116252
-115831
-115068
-115613
-114052
-110984
-106565
-107299
-120754
-101470
-128192
-133694
-112241
-78769.5
-27798.3
-460.948
6260.44
11581.4
15761.1
18692.2
13984.4
16753.9
10147.9
10156.8
2863.99
-3164.48
-14122
-26762.5
-42673.4
-52838.2
-56375
-60876.9
-71552.4
-88214.9
-98554.3
-100210
-98075.5
-82468.7
-66866.1
272962
270351
279515
286617
286393
277963
281779
304696
335171
336080
311456
283927
302624
369442
128492
163726
155198
135619
132434
157091
204724
241290
251737
234747
180512
144617
138146
139596
154644
175092
185638
195159
205765
216305
229760
238958
244432
239781
225786
201787
169023
132628
109673
113166
52815.2
31523.9
27095
22465.2
21302.9
19453.9
26507.5
39615.6
56308
64320.5
60651.9
44465.3
39113
42899.6
45117
46457.4
49689.3
48953.6
54299
58389.7
59057.7
59711
60476.1
64095
64181.5
68656.1
68936.5
60570.8
47170
38477.8
27565.2
29191
27151.9
23602.1
19651.5
14612.9
16175.7
16163.4
17499.6
19360.5
20402
21394.8
24582.4
25608.2
24618.8
23972.8
24499.8
24561.2
22354.9
15028.1
15366.5
12023.5
6046.72
7100.67
6649.48
9993.58
10384.8
10868.8
11380.5
10931.6
39907.7
35061.7
25412.8
29403.6
33045
42300.5
56629
69839.1
79873.4
85445.8
89631.1
89228
89338.6
93430.4
96131.7
105337
105105
108800
114808
116553
115203
107397
95335.9
88229.8
80565.6
66886.7
51138.4
49986.5
51650.5
51294.6
27564.2
26995.1
27629.7
24560.1
24861.7
32732.9
48225
51494.8
49635.4
38817.2
31195.1
27263.6
32253.5
31027.5
25618.8
30963.8
47348
59171.1
68757.3
76763.5
83001.2
81939.4
80218.9
82809.5
74541.3
65728.5
57810.4
48785.5
44902.5
44381.3
-62616.5
-37269.2
-25820.7
-9882.48
3915.91
3281.92
-6566.13
-13092.7
-14902.2
-25968.8
-35946.5
-40414.2
-37272.1
-32135.6
-28437.1
-22441.2
-18158.7
-15339
-13718.1
-14306.9
-22877.3
-26578.7
-29968.9
-36910
-37253
-36990.6
-45237
-68510.7
-76040.2
-70793
9471
34510.7
43959.5
37602.9
32602.3
32775.3
28107.4
30665.2
22284.5
23918.7
16718.5
14288.7
11703.6
7769.04
10109.5
13930
15240.8
19467.5
20577.3
21941.9
20416.1
18606.3
12749.5
1605.98
-4700.52
-2848.26
2855.76
4199.69
7476.68
12084.9
20746.4
23339.9
23805.2
24573.3
23027.5
22053.8
19820.3
19793.3
18730
18182.2
13133.7
17040.3
23627.9
27609.3
31676.4
35506.3
38121.5
39106.1
38309.6
29888.6
18096.6
9420.3
10909.7
11258.9
8640.4
9329
13858.1
14811.5
28583.6
16804.3
-42932.7
-39984.4
-35975.2
-35930.7
-39316.7
-43145
-46660.8
-50008.8
-53567.2
-56487.2
-58067.5
-55428.2
-55572.8
-43408.7
-36590.2
-32256.8
-23618.7
-7176.07
-1768.63
80.2778
4122.27
-4860.63
-11566.5
-7902.33
-7725.31
-9410.93
-9335.62
-3786.67
2724.53
8732.38
-22731.2
-1599.9
6753.45
6535.38
2149.82
-3303.53
-10582.6
-12952
-13404
-13796.6
-14355.7
-7973.78
-3166.62
-2592.3
-8743.47
-26813.8
-48562.6
-65700.5
-84076.8
-87278.1
-93884.1
-110526
-110268
-118894
-125159
-119063
-113043
-105041
-101635
-101590
-139055
-102071
-87758.8
-79582
-67278.2
-53846.2
-43540.6
-35114.4
-37041.4
-39269.5
-45480.6
-55222.8
-71192.7
-88567.9
-100116
-112758
-115720
-112678
-111818
-116047
-118400
-119132
-118555
-117051
-115648
-115334
-112599
-106644
-108940
-122420
-90806.1
-123101
-134710
-106600
-60584.8
-12660.8
8344.57
12685.7
18871.6
20806.3
18875.7
21440.9
18179.2
15761
10665.6
8296.29
2025.96
-4428.92
-16823.8
-33368.1
-51304.3
-59083.8
-67844.4
-86850.9
-100219
-99401.9
-88596.8
-75629.5
-60521.9
-62019.3
267916
275911
280106
261205
230467
210405
210042
238004
293495
336325
327445
291665
297471
364083
119920
161128
151786
133724
131307
151984
194542
236488
254218
244059
194243
143976
136384
140597
163485
176706
183263
189454
203075
221280
237985
250778
255661
254783
242416
219346
184606
142037
111167
112191
56172.6
34366.6
29530.7
25760.8
22450.4
22859.1
33089.7
52771.3
71691.7
82888.7
77119.5
52764.4
41996.1
45140.4
45673.7
47354.8
49444
52168.7
59800.7
59524.8
60608.6
62949
62453.1
63199.4
65587.6
70694.3
69830.9
67223.9
51692.5
39965.5
27313.8
28481.5
26306.7
22918.6
16305.9
13820.8
14209.4
12032.4
13616.1
18180.4
21528.5
21856.9
26543.3
27903
25086.9
24477.6
26192.4
21306.2
19590.3
12724.3
13232.5
3828.48
5821.02
1540.28
4437.48
7017.39
10153.2
12791.4
14098.2
13881.4
36392.1
32469.6
24677.6
28677.1
32452.8
43728.1
59600.8
72579.5
80553.5
83051.7
83978.4
87211.2
94305.2
99842
103127
99961.1
109577
109699
110703
114519
114766
110443
98176.7
90358.6
83091.6
70489.2
54389.1
49823.6
49861.1
50191.1
31665.7
27853.9
27423.9
26175.2
22190.9
26817.9
33579.4
41165.7
34622
27845
18057.5
19192.6
28002.7
29040.6
27014.2
42012.8
57439.4
74126.9
82234.5
91859.8
93647.2
98593.7
92921.7
90498.3
86385
74814.7
62845.4
52836
46635.5
43372.3
-60765.5
-33931.7
-20029.4
-2679.74
6682.04
4128.33
-12202.9
-19827.8
-14093.5
-26877.4
-39424.5
-38700.1
-33332.7
-31557
-22198.2
-13505.3
-12340.6
-9415.28
-6837.75
-6237.04
-10107.9
-20339.8
-24740.4
-33222.3
-35633.4
-35736.9
-40726.3
-62349.6
-76587.5
-72071.8
25936
49743.5
45333.3
36029.4
32260.3
32998.8
29857.6
31578.5
16359.7
22525.4
4452.3
7045.35
-67.4939
2854.3
1851.7
5769.98
9444.92
15028.8
18230.6
19968.2
19506.5
19198.6
15280.8
4698.5
-4240.26
-2509.29
-325.949
728.781
3390.61
7337.63
20544.3
24825.5
23543.8
22921.4
19631.2
18577.5
10062.4
8188.63
2479.97
5792.71
9014.71
9601.63
12091.3
13981.9
22284.5
27058
33656.1
33992
34830.9
29816.2
20941.8
14733.8
10064.5
6444.98
3060.2
4218.99
-743.542
7902.26
30722
18815.9
-40151.3
-35216.5
-33009.2
-35061.7
-40049.8
-44257.7
-48457.3
-58331.1
-59637.9
-68460.9
-65144.5
-67051
-61923.1
-59893.4
-45926.5
-33753.6
-32499.3
-15500.1
-2065.62
-1531.67
1653.83
371.879
-6137.62
-8074.66
-10289.8
-13454.8
-11036.1
-5592.65
810.371
9134.4
-9294.86
6804.03
9298.41
6829.21
-2114.17
-14540.8
-17505.6
-18318.8
-15585.9
-12763.4
-13147.8
-12684.4
-7693.68
-7780.68
-11221.8
-22325.5
-47075.2
-65812.3
-71842.4
-84420.8
-82647.5
-92921.2
-102197
-109053
-118927
-127047
-129644
-120023
-104814
-100316
-135815
-97523.1
-81393.5
-68369.5
-50680.9
-35477.4
-25344.4
-22706.4
-16614.8
-18565.8
-28719.5
-37915.6
-51173.2
-73119.2
-92796.9
-106785
-115135
-114549
-111958
-116086
-119509
-119583
-118995
-117888
-116561
-115848
-112447
-108526
-111224
-125456
-79993.6
-114398
-135140
-101896
-48562.2
-2357.05
12688.3
17695.6
23618
20777
23902.8
22873.5
19102.3
17620.4
13830.9
9049.47
6307.03
-357.465
-7673.02
-23078.7
-45630.8
-62814.9
-69796.9
-90946
-102253
-86444.5
-64435.3
-55858.7
-58316.9
-73193.8
275388
279937
253292
208239
185265
177104
183115
203924
256919
324189
334961
300213
295950
362246
116960
158953
155445
137540
132686
143409
175304
218913
252595
248295
203409
145342
133469
143143
165098
173700
174757
186613
208975
239775
262113
272871
276810
271850
256611
230636
192034
145298
110663
111233
60208.8
39596.2
33966.5
32159.5
32919.7
35753.4
51194
68510.8
85895.5
91434.6
85050.3
55223.5
43518.1
45888.3
46614.5
47170.6
51263.7
57280
62008.5
58637.8
58650.9
61033.3
59687.9
64076
67138.1
68927.7
73512.8
70325
55024.7
42074.1
26265.1
28379.5
26686
22458.3
16323.6
15473
13363.4
14069.4
15807.1
18330.8
20828.8
24416.9
28391
27642.8
25772.8
25961.8
24107.1
19158.6
20526.2
9269.16
7772.59
2924.23
1065.04
3789.4
2993.23
7382.98
9810.92
14151.2
16619.1
17749.3
31748.7
30351.1
23583.6
25817.5
30715.4
43308.3
60659.5
72975.9
78441.3
79768.3
83878.3
86610.8
89641.1
88923.9
93509.1
99579.8
105011
105480
117073
109006
119039
107200
101253
90203.2
84146.1
71853.5
55729
48971.9
48526.8
49337.4
31244.1
27211.7
26993.1
27691.9
23188.1
20860.7
21586.5
23396.2
23506.4
16193.3
13538.3
13836.6
27578
27402.5
32733.1
49226.7
71209.5
81356.9
95177.7
99052.5
105103
105442
105221
94862.2
94115.4
81830.4
65188
54362.9
48299
42188.5
-58680.4
-30739.1
-14509.9
1472.9
7301.32
2656.9
-16904.7
-23854.6
-17271.6
-28573.8
-37925.6
-37257.1
-34159.7
-27443.2
-15000.7
-14125.6
-10934.1
-5025.77
-6158.94
-4868.47
-4668.35
-18041.7
-17990.4
-30199.6
-33858.9
-35105.5
-38517
-57556.4
-74858.2
-68823.8
33733.3
54141.7
38564.5
36828
35184.8
35637.8
28669.8
33289.6
15396.7
17466.4
-4087.31
-1980.63
-12829.4
-14051.9
-9188.97
-4107.93
3709.36
11813.5
16606.7
17621
18344.4
17296.2
13569.3
4734.06
-1087.44
830.013
2631.07
4342.52
6258.2
10064.9
20304.1
20502.6
20233.2
18187.7
16431
13831.3
3389.35
5222.46
1002.03
1358.98
-476.891
1714.44
8145.52
9277.33
13856.6
20031.3
28290.6
28729.3
30831.3
28119.8
19750.2
12839.6
6279.45
2749.96
1786.82
-5511.69
-4218.96
9035.54
21423.4
8476.22
-37483.9
-33182.8
-33767.4
-35748.1
-40299.6
-44647.7
-51629
-62446.3
-64857.3
-71510.3
-71955.3
-70335.8
-67141.3
-61435.2
-61143.8
-37150.6
-34881.1
-22955.5
-6392.2
781.245
-1838.46
-1272.72
-3653.03
-8507.16
-17682.7
-15326.7
-8670.44
-4186.74
1771.71
5477.66
1040.98
10909.1
9325
4508.84
-8553.49
-19463.9
-16573
-20270.6
-24508.5
-25453.4
-18430
-17897.6
-11568.8
-5634.38
-11170.9
-22754
-47709.4
-59742.8
-68802.4
-74791.4
-70794.9
-83981.2
-81949.3
-95028.1
-100458
-117541
-129750
-136678
-129317
-111272
-135666
-95091.3
-76968.7
-61768.4
-40745.2
-25928.4
-16690.6
-7189.98
-8619.65
-9488.64
-13744.9
-23541.3
-42013
-55843.1
-83863.8
-101531
-113531
-115185
-111119
-115733
-119945
-120286
-118849
-117454
-117848
-114925
-111575
-110955
-116705
-126946
-69308.7
-100779
-133772
-102330
-42637.1
1473.41
17424.1
19665
26414.3
21758.8
28128
21246.4
23913.5
21803.4
19195.2
14055.8
7222.6
2712.52
-4170.6
-14043.1
-37373.5
-64767.5
-74245.2
-90232.9
-107629
-86223.8
-60319.8
-56802.3
-68398.1
-93333.2
280269
261198
207644
181899
189138
217558
234810
250651
281691
328834
336380
302112
297681
366256
98625.1
149062
155568
139490
132336
137801
153036
186820
235941
244147
207883
142925
131319
144003
164569
165567
167538
183402
218883
252435
277542
288429
287752
279840
263062
235224
193467
143291
110514
110608
64533.7
47387.8
40202.4
41002.9
45380.7
53174
70051.4
82689.1
92213.4
94724.9
86165.6
54516.8
43733.5
46765.5
44875.3
48923.8
54150.7
61530.6
61752.1
57164.4
56673.4
55944.2
60435.2
63854.5
65292.6
72632.4
75305.2
71317.2
56565.7
43005.3
24645
27667.5
25931
22584.6
18172.1
15164.7
12804.4
14627.7
16229.6
19349.1
20566.9
26126.5
31324.5
29668.5
25764.4
23955.4
23449.1
19710.9
16955.2
6277.48
8666.92
-291.871
858.703
-2566.17
1825.02
10426.1
11558.5
14676.3
19892
18201.8
29979.7
27905.8
25275.3
21431.9
27388.8
41729.6
61010
72853.3
76224.6
77962.6
83212.7
84797
88645.2
99841.5
105695
104327
113131
100308
121352
103379
122017
104421
102948
87976.2
83141.1
71754.8
53870.1
47211.4
47614.5
46247.5
34209.2
30464.3
27171.6
25871
25299.9
22560.7
18841.9
17518.7
14550.2
14237.8
9583.52
15598
26336.7
29191.3
35430.2
60223.6
73955.3
91712.3
97160.1
109033
108194
110939
110383
98685.9
96307.9
83955.1
66236.9
54897
47866
41130.3
-58887.9
-29468.9
-11759.5
2422.11
8157.38
1963.89
-22778.5
-26800.7
-17711.8
-29324
-38209
-38279.8
-32090.8
-22861.6
-15943.8
-14746.9
-5258.16
-348.481
-507.954
-1781.5
-314.887
-17465.9
-16918.6
-28601.6
-32866.2
-34118.8
-37892.3
-56016.7
-72197.9
-61693.2
44759.1
52249.9
38994.4
37785.1
38168.1
39253.6
30415.8
31947
16797.6
15274.9
-7955.64
-4574.88
-19034.5
-17572.2
-14305.7
-9091.98
-1552.99
9867.22
16109.1
15201.4
17721.7
16245.8
13553.1
6415.42
1127.24
-910.667
763.559
3005.33
4584.83
5116.81
20744.2
20020.4
16758.8
16624.9
12044.1
11186.1
-1943.27
263.146
-7510.61
-7421.85
-8139.3
-8371.06
2707.41
734.332
10952.7
14111.1
21079.3
23608.2
26047.8
24239.3
15271.3
13107.7
998.482
-2534.95
-2585.13
-48.507
480.065
6923.84
20147
14740.1
-32125.5
-26643.2
-30991.8
-35771.4
-39916.4
-46753
-54938.2
-65211.9
-65365
-77195.8
-73473.5
-78361.1
-73222.6
-62966.2
-65966.5
-37075.5
-41748.5
-25938.7
-11266.4
-2789.11
-2415.09
-3737.19
-6600.01
-13077.4
-21807.8
-13712.3
-3470.89
648.975
1824.88
7852.05
-3036.23
10563.6
6634.98
-817.91
-14106.2
-22419.6
-18836.8
-30930.2
-29462.2
-25946.8
-30162.9
-19269.9
-10892.3
-12130.5
-9782.51
-23870.3
-43922.3
-60654.1
-61673.2
-65741.5
-74086.3
-73398.6
-77738.2
-84801.6
-84932.9
-97960
-112475
-131889
-140886
-137145
-137286
-96734.3
-75013.5
-53920.4
-34003.6
-19755.7
-7126.05
-2121.26
862.433
441.429
-9629.34
-10238.5
-35304.8
-45475
-77513.3
-94180.7
-112932
-116676
-111559
-114714
-120770
-120836
-118807
-117659
-116658
-114349
-113648
-115858
-123312
-129532
-58222.3
-81571.8
-128697
-107265
-43230.7
4159.71
17863
23363.5
26324.6
25204.2
27705.6
24794.3
28814.3
22747.9
18935.2
14768.5
10769.8
3815.87
-3516.76
-8382
-25338.5
-62943.8
-77626
-86849.4
-113643
-104455
-80987.8
-81086.8
-107808
-144949
282601
237706
189869
203787
266450
308771
323644
324198
327867
342229
338582
297135
302076
366141
314075
200049
109380
132834
155072
148235
139271
137608
142736
165879
212214
235385
204402
141461
128310
145739
159700
159369
159247
183622
223052
264330
286355
292359
293845
285371
262113
230482
185698
133082
106535
108238
75713.9
71260.6
69765.9
56286.9
50995.3
52573.8
59295.1
67633.4
79459.8
87495.4
94121.4
94549.3
84458.4
49165.6
43175.3
46107.8
45968.9
49712.7
59009.5
63121.4
60947.8
59737.1
53988.7
57568.6
59439.1
63574.8
68975.4
75685.5
76251.8
72455.9
57449.7
44801.6
42616.3
29760.5
24156.3
26385.6
25933
23751.9
20734.1
18889.8
16909.3
19142
21045.1
21500.1
22795.9
29618.8
33714.3
29300.2
25111.8
24416.5
21961.2
19603.8
17297.7
7579.53
6333.38
-570.391
-421.421
-1445.41
2395.13
11927.1
13547
18228.6
22833.1
23439.5
20682.6
17753
24547.8
22653
17743.5
16160.8
20733.3
38346.5
58631
71283
75279
78329.5
79966.9
83875.2
87343.4
96572.4
101610
102977
114696
101208
118371
103621
117882
101434
101761
84489.4
82149.4
68503.9
51737.5
46970.1
49102.8
45926.4
47253.6
36890.2
32867.8
30050.1
27179.6
27543.5
25437.3
21502.3
19459.6
16672.9
14661.2
9972.44
11550.1
14836.8
28187.6
26555.1
43898.6
62472.7
80969.8
89728.7
104796
108034
113801
113684
111505
100500
95577.5
80289.8
63573.7
52888.1
44933.9
37807.6
-20895.7
-62723.8
-56041.2
-27140.5
-10961.8
1941.61
7325.53
-1452.51
-28184.4
-30396.9
-17834
-30606.4
-39079.4
-38301.2
-31441.2
-23332.3
-17925.2
-14481.3
-5064.15
-2407.16
-789.82
-2533.34
-3213.58
-18050.1
-20848.3
-28436.8
-32425.5
-33556.5
-38619.6
-59105.5
-64114.5
-26155.6
48340
58223.8
51426.4
47698.3
42351.7
40656.9
39273.6
42156.1
35607.5
32665.9
20419.4
19981
-4253.32
-4248.85
-17771.7
-14725.2
-14097.2
-8010.52
-938.243
10547.8
13756.1
14728.7
15968
15290.3
11745
5043.75
2524.16
4884.81
6511.91
8088.93
9616.23
10977.2
11215.1
14636.7
16557.7
15893.5
16140.6
13158.3
13019.9
7359.14
102.817
-2532.95
-7114.61
-7244.47
-8090.73
-8478.42
2154.19
-2476.86
7373.96
12125.4
16708.6
18749
22796.7
19244.4
13153.5
1795.62
-10905.9
-1818.05
8872.14
10653.1
5912.32
9554.52
-852.854
-26535.5
-34653.7
-33312.4
-23198.3
-23616.4
-32949.9
-36284.3
-40233.5
-47255.9
-56532.8
-60739.3
-70443.8
-75399
-75394.9
-77535
-71291.8
-68156.6
-65742.5
-38530
-44131.1
-24820.2
-16913.6
-7030.65
-5173.91
-5747.26
-11957.5
-24448.1
-24980.8
-15312
-10926.2
-6734.57
-5850.28
-4471.72
-3085.93
2499.02
13443.3
14608.7
6101.19
-10556.5
-15821.2
-22620.9
-23157
-34670.6
-35612.8
-27915.9
-30791.4
-20559.7
-12465.2
-11885.2
-13344.4
-22824.4
-46709.9
-56698.8
-57527.9
-68039.8
-72328.8
-70953.8
-83519.4
-79126.7
-83842.6
-85151.7
-93858
-113759
-137071
-143210
-142303
-143196
-137261
-102605
-74702.4
-52943
-33324.1
-17945
-5960.8
-2491.87
-2263.34
3330.2
-10268.9
-6798.09
-32242.4
-40581.5
-72747.3
-91096.3
-110800
-117797
-114602
-113185
-119701
-122638
-122284
-120350
-119292
-119108
-120344
-123758
-126569
-126698
-90787.9
-64148
-45555.3
-56884.8
-108354
-112484
-54878.2
1848.16
16385.2
24894.8
26856.4
25834.5
29244
26446.4
29454.7
23769.7
20623.6
18075.2
11930.5
4257.63
-1437.79
-7358.05
-18496.3
-58755.1
-87358.1
-83239.1
-119737
-126304
-115624
-123568
-152273
-158229
-16089.1
36270
276953
210832
191331
274845
351398
371278
368688
365694
353663
346609
328170
292143
299314
365400
329944
230352
108165
116238
146403
152033
144685
138595
140784
156498
194860
222353
198038
137513
125237
143045
155905
151474
153320
174948
220746
255442
280154
287295
287900
277895
252257
216892
168873
123197
105484
98755.3
70117.5
71544.5
73053.3
66664.5
63693.8
66205.2
70057.6
76937.1
81800.1
88276.6
91752
92530.7
77487.1
43115.2
43726.3
46187.9
45437
51828.2
60907.6
64846.4
63490.4
59326.7
61091.8
58888.6
65284.9
64990
72553.8
76186.5
78139
70900.2
54963.1
44751.7
41236.9
27723.4
24227.4
24802.4
25245.4
23679.8
22077.4
20618.6
18405.5
19243
20148
20168.8
25274
33374.5
35541.6
26242.5
22970.4
25720.8
23546.3
18660.9
16673.1
11060.7
3693.2
4666.61
1424.77
-824.373
5805.67
12483.3
17050.5
22336.2
25705.1
28080.2
20704.7
20319.8
24316.1
18395.2
16776.7
13038.3
18322.5
32302
56330.8
69280
74490.8
75797.5
79002.3
82032.9
87044.7
93401.1
96706.8
101101
107893
102451
114623
103076
112656
97066
95535.6
84137
77463.3
64112.7
47653.1
46454.6
48227.4
47323.5
47508
42992.9
40284.9
34741.6
30863
25277.6
24061.8
22466.1
19751.3
16293.5
13258.8
11572.7
10954.7
19799
27398
30190.8
43350.6
67778.5
76507.4
93521.2
99585.8
110692
110367
111269
103638
97475.6
89466.5
73424.3
61266.3
52465.3
42980.9
17576.6
-54619
-64057.5
-51521.6
-24452
-10214.3
288.461
4708.61
-9468.01
-31848.7
-31656.1
-19489.7
-30446.9
-38809.4
-40008.5
-33703.3
-25209.1
-21509.1
-19031
-12811.5
-9076.89
-9150.75
-10090.9
-13514.3
-18787.7
-27361.8
-28921.4
-32639.2
-34635.5
-45862.6
-56679.3
-23727.2
36045.8
63957.1
66165.8
61634.1
54247.5
45216.3
43474.8
42217.5
42272.6
40073.2
37407.7
22163.4
26035.2
2165.3
2886.56
-8229.68
-10748.2
-6896.7
-4641.49
6030.44
11587
12970.6
16005.8
15747.4
13669.6
10278
5863.29
2901.95
3210.86
3652.16
4894.78
7200.71
8420.42
9523.71
13237.5
15268.8
15014.2
13230.9
13779.7
10714.9
8941.72
-2171.15
1575.8
-3581.26
-3109.03
-5494.2
-5918.72
-3281.73