/*--------------------------------*- C++ -*----------------------------------*\
| =========                 |                                                 |
| \\      /  F ield         | OpenFOAM: The Open Source CFD Toolbox           |
|  \\    /   O peration     | Version:  2.1.1                                 |
|   \\  /    A nd           | Web:      www.OpenFOAM.org                      |
|    \\/     M anipulation  |                                                 |
\*---------------------------------------------------------------------------*/
FoamFile
{
    version     2.0;
    format      ascii;
    class       volScalarField;
    location    "0.007200000";
    object      sL;
}
// * * * * * * * * * * * * * * * * * * * * * * * * * * * * * * * * * * * * * //

dimensions      [0 1 -1 0 0 0 0];

internalField   nonuniform List<scalar> 
12384
(
7.93193
7.65347
7.42816
7.21606
7.06092
6.98195
7.02221
7.14679
7.35138
7.62218
7.96443
8.29211
8.53017
9.31845
3.18652
3.66247
3.75413
3.72332
3.61293
3.50799
3.46902
3.56449
3.73957
4.01176
4.15698
4.21141
4.19966
4.15688
4.08721
4.02661
3.95891
3.90705
3.84702
3.80841
3.76636
3.71535
3.67948
3.62257
3.56812
3.48011
3.4344
3.45084
3.36685
2.68192
3.14699
2.99132
2.98338
3.01142
2.99244
2.99648
2.95377
2.98047
2.94556
2.9721
2.96175
2.98602
2.99183
3.01523
3.03037
3.0495
3.04617
3.04569
3.02173
3.01969
3.03426
2.99872
3.07689
3.07099
3.11764
3.13669
3.11728
3.06129
3.07093
3.19871
2.93192
3.04775
3.1175
3.11197
3.06903
3.03708
2.97087
2.97702
2.95731
2.95021
2.95845
2.97845
2.99319
3.00453
3.00712
2.99888
2.9793
2.95615
2.9217
2.87731
2.79426
2.79568
2.69214
2.7055
2.69395
2.72235
2.74198
2.77259
2.74261
2.5589
3.42614
3.34863
3.26585
3.28447
3.28746
3.32346
3.37049
3.42407
3.47645
3.50768
3.52216
3.51115
3.50628
3.47111
3.47135
3.46993
3.46025
3.64211
3.62838
3.71324
3.76452
3.80409
3.74087
3.31795
3.27758
3.34106
3.36741
3.35977
3.33051
3.25111
3.38123
3.3535
3.37053
3.4038
3.34807
3.29461
3.30818
3.25673
3.31259
3.30473
3.32066
3.32625
3.32703
3.32567
3.32189
3.30463
3.27347
3.23323
3.22847
3.15721
3.18437
3.15466
3.23324
3.24561
3.30262
3.37228
3.4618
3.53951
3.5905
3.62045
1.90789
2.22981
2.26886
2.2045
2.17372
2.19739
2.25704
2.28943
2.3137
2.32563
2.31138
2.27911
2.22925
2.17705
2.1298
2.06759
2.02175
2.0332
2.0205
2.03484
2.05894
2.10934
2.14795
2.22146
2.24981
1.63169
1.51533
1.54359
1.57475
1.58874
2.64039
3.08238
3.2321
3.35111
3.45645
3.51637
3.53419
3.45954
3.46396
3.2938
3.31907
3.15788
3.19149
3.12231
3.13058
3.21834
3.22672
3.30827
3.33342
3.34852
3.25002
3.02228
3.02158
3.0519
3.07537
3.10163
3.12023
3.12797
3.12141
3.11376
3.01113
3.10429
3.17827
3.21244
3.19801
3.14157
3.06299
2.99454
2.94958
2.90626
2.84676
2.95387
2.95788
3.05729
3.10888
3.19891
3.29922
3.31435
3.2602
3.30019
3.3434
3.37641
3.40424
3.43937
3.45645
3.47854
3.48759
3.43231
3.29477
3.16751
2.29157
2.31954
2.32499
2.31355
2.30727
2.28551
2.24582
2.2022
2.15725
2.14084
2.09974
2.22008
2.18481
2.40527
2.46542
2.6853
2.91599
2.9805
2.83397
2.78584
2.84403
2.86063
2.91163
2.95114
3.01828
3.06685
3.10453
3.14626
3.17115
3.15989
2.52943
2.62367
2.75898
2.81921
2.84979
2.82252
2.75603
2.701
2.66897
2.68281
2.70885
2.73157
2.76587
2.76791
2.68655
2.66887
2.47088
2.23495
2.19988
2.00132
1.77787
1.80794
1.71623
1.58862
1.64355
1.61038
1.5724
1.66495
1.71427
1.74903
1.44584
1.43112
1.44985
1.73576
1.6795
1.62945
1.5862
1.5537
1.51311
1.49022
1.51934
1.47045
1.50526
1.52068
1.52002
1.5303
1.55032
1.5609
1.56841
1.57251
1.57009
1.56745
1.57922
1.57375
1.62735
1.65195
1.72546
1.77261
1.65307
1.44922
1.59738
1.59288
1.6182
1.64099
1.61972
1.53113
2.34705
2.98565
2.9905
2.96918
2.90851
2.90436
2.8367
2.82255
2.78546
2.75838
2.72047
2.68731
2.63449
2.59874
2.53618
2.53071
2.45869
2.45737
2.38823
2.34438
2.1924
1.95498
1.86287
2.15581
7.01255
6.69397
6.24458
5.83861
5.72896
5.74948
5.83848
5.93372
6.0714
6.36988
6.92155
7.70072
8.36963
9.25455
3.25024
3.72092
3.74599
3.64431
3.50565
3.466
3.64084
4.22512
4.88312
5.25377
5.20469
4.98861
4.71993
4.43216
4.19666
4.04226
3.96562
3.93753
3.94559
3.95088
3.96393
3.95976
3.93764
3.87061
3.77721
3.65045
3.51723
3.46375
3.47273
3.05374
3.13172
2.99175
2.99954
3.01898
3.00033
3.00148
2.9499
2.94481
2.91133
2.91577
2.92426
2.94068
2.97712
3.01672
3.05387
3.06865
3.06326
3.03735
3.03023
2.9981
3.00884
3.02202
3.04347
3.09517
3.13863
3.14492
3.16751
3.10996
3.07379
3.10242
2.98434
3.0827
3.0986
3.05526
2.97752
2.9177
2.8856
2.83695
2.84303
2.85094
2.86241
2.87691
2.89443
2.90826
2.91935
2.92313
2.92461
2.91483
2.85837
2.80123
2.76179
2.68935
2.61184
2.61816
2.61403
2.63187
2.67229
2.7229
2.75777
2.67653
3.43399
3.33007
3.23058
3.23584
3.24376
3.3063
3.37558
3.46049
3.53263
3.5792
3.59444
3.59052
3.56557
3.55382
3.55086
3.57432
3.63918
3.66605
3.74139
3.79686
3.79866
3.80426
3.83155
3.61555
3.37442
3.38426
3.4594
3.49773
3.50706
3.47984
3.40661
3.35963
3.38963
3.35677
3.35059
3.34058
3.44855
3.51265
3.5965
3.61582
3.58934
3.52986
3.46618
3.41011
3.34173
3.28976
3.26325
3.23969
3.22636
3.23736
3.24591
3.29131
3.27678
3.35293
3.40119
3.41028
3.43942
3.51839
3.59864
3.62173
1.95259
2.26109
2.27264
2.25532
2.34866
2.48028
2.59761
2.63413
2.58581
2.49301
2.39732
2.29481
2.21434
2.14599
2.06872
2.03093
2.0172
1.99765
1.98445
1.99418
2.01182
2.03162
2.07034
2.13111
2.21535
1.96144
1.58687
1.57223
1.66985
1.72529
2.68663
3.21368
3.37108
3.55387
3.65022
3.63397
3.56818
3.44637
3.36526
3.23981
3.16771
3.11119
3.06873
3.07881
3.08922
3.10029
3.15723
3.22349
3.26597
3.32322
3.32406
3.17882
3.01152
3.01639
3.04684
3.08402
3.12573
3.16116
3.19076
3.19024
3.00915
3.13721
3.19134
3.16187
3.08454
2.98306
2.88454
2.79045
2.73225
2.69949
2.7258
2.73488
2.79551
2.89261
2.97963
3.09605
3.20839
3.3217
3.31503
3.28722
3.30661
3.33548
3.3398
3.38667
3.41241
3.45829
3.52132
3.60418
3.47877
3.2321
2.26502
2.2715
2.27269
2.25789
2.22718
2.17486
2.10679
2.02228
1.94524
1.90487
1.90065
1.90167
1.98511
2.07033
2.23637
2.3993
2.68032
2.87216
2.94699
2.86323
2.81661
2.83452
2.87143
2.93503
3.00451
3.04353
3.08501
3.11468
3.19167
3.19342
2.45281
2.60474
2.78585
2.80892
2.74978
2.6487
2.54594
2.4678
2.44408
2.4587
2.51197
2.57831
2.65363
2.75339
2.74601
2.63471
2.45566
2.11734
1.95922
1.89715
1.66636
1.6043
1.61071
1.52286
1.4995
1.54185
1.50927
1.55195
1.69292
1.75701
1.44729
1.44686
1.63487
1.72671
1.66327
1.62797
1.60834
1.57913
1.57073
1.54307
1.5256
1.51455
1.48691
1.46658
1.4912
1.49177
1.50687
1.53685
1.55978
1.5659
1.55541
1.54303
1.52583
1.5124
1.53173
1.57005
1.64777
1.74155
1.68817
1.49194
1.57263
1.48475
1.49937
1.6834
1.63865
2.01654
2.83512
3.06524
3.09387
3.06608
3.11009
3.06379
3.04913
3.02149
2.96543
2.90944
2.84254
2.75165
2.6644
2.59721
2.53546
2.53919
2.48598
2.49456
2.44786
2.38125
2.16819
1.8987
1.86832
2.17396
6.4721
5.83434
5.39687
5.34495
5.55611
5.90733
6.18712
6.32774
6.23615
6.10177
6.20313
6.83049
7.95655
9.17763
3.30923
3.74289
3.70003
3.53701
3.4328
3.48626
4.08081
5.02707
5.65383
5.67283
5.1481
4.68908
4.37128
4.07942
3.89237
3.80262
3.84695
3.96463
4.04645
4.14122
4.21095
4.21684
4.19685
4.12396
4.00737
3.84777
3.6609
3.51266
3.47868
3.2553
3.10918
2.98738
3.00902
3.03244
3.01561
3.00307
2.94393
2.95315
2.92286
2.93534
2.90741
2.91139
2.93908
3.00078
3.03622
3.04376
3.01343
3.01277
2.97779
2.95629
2.97341
3.00589
3.00899
3.06332
3.12772
3.17009
3.16475
3.16274
3.11342
3.09219
2.99431
3.07811
3.06481
2.98865
2.91126
2.86153
2.84527
2.8578
2.88331
2.89489
2.89989
2.88979
2.88388
2.87327
2.8684
2.88412
2.89578
2.85858
2.79627
2.75006
2.67919
2.5708
2.5648
2.53737
2.52097
2.55214
2.58923
2.65088
2.72218
2.72081
3.42838
3.32272
3.18768
3.20591
3.22705
3.31075
3.40798
3.50392
3.57065
3.60193
3.60582
3.58263
3.57907
3.5804
3.56614
3.60633
3.63943
3.72242
3.79319
3.8299
3.82145
3.81473
3.82079
3.7696
3.57426
3.38986
3.39912
3.43485
3.46849
3.52362
3.38757
3.37193
3.37117
3.36662
3.34269
3.48479
3.6913
3.83255
3.91538
3.85675
3.78778
3.67463
3.56902
3.45183
3.31477
3.26571
3.26396
3.30069
3.40834
3.42425
3.50236
3.53953
3.55412
3.53994
3.57109
3.51903
3.47082
3.51186
3.57951
3.62069
1.98034
2.29371
2.33626
2.44731
2.69705
2.91818
2.94153
2.85985
2.7367
2.54003
2.35958
2.24176
2.16928
2.12082
2.10727
2.11349
2.11141
2.10066
2.0937
2.09829
2.07609
2.05193
2.05116
2.07026
2.14755
2.11891
1.76853
1.6
1.62348
1.75139
2.70122
3.26105
3.54894
3.70213
3.65184
3.53358
3.4141
3.27527
3.23673
3.07911
3.08656
3.00741
3.00142
2.96111
3.00348
3.05646
3.0932
3.14823
3.19824
3.24764
3.29551
3.2662
3.08201
2.95847
2.9667
3.0037
3.06783
3.1218
3.18947
3.23405
3.09626
3.18878
3.12009
3.01216
2.90263
2.79485
2.71218
2.63244
2.58076
2.5603
2.52035
2.59978
2.65565
2.73309
2.8395
2.94864
3.0845
3.21931
3.3144
3.28696
3.26193
3.25402
3.27186
3.30884
3.3363
3.35912
3.37884
3.5052
3.58699
3.29021
2.29494
2.28778
2.29605
2.27963
2.21983
2.12314
2.01296
1.91582
1.83781
1.80581
1.77638
1.8428
1.82875
1.90647
2.02415
2.15447
2.36379
2.6277
2.84121
2.92077
2.86454
2.82283
2.88304
2.92957
2.98989
3.01463
3.06289
3.10785
3.16113
3.21495
2.39635
2.66752
2.77351
2.67108
2.52766
2.39171
2.28441
2.21343
2.1978
2.24077
2.29908
2.38515
2.49542
2.61791
2.7096
2.64228
2.45245
2.13665
1.88831
1.87414
1.68969
1.53804
1.59096
1.54476
1.5168
1.63383
1.58361
1.56002
1.71317
1.76118
1.45019
1.50051
1.73614
1.72556
1.70902
1.75141
1.79659
1.8347
1.8188
1.81523
1.73515
1.68243
1.64355
1.55388
1.53462
1.54496
1.56462
1.59659
1.62146
1.60553
1.57357
1.54852
1.53323
1.50752
1.51234
1.53942
1.58995
1.68208
1.68662
1.50309
1.6825
1.47438
1.45966
1.67203
1.84902
2.5358
3.07165
3.16012
3.23278
3.21447
3.32192
3.2262
3.25
3.21639
3.13676
3.08526
2.968
2.8504
2.69583
2.58643
2.50315
2.51949
2.47194
2.46472
2.36477
2.21271
1.97234
1.84679
1.92257
2.2572
5.71652
5.19549
5.23203
5.69732
6.24708
6.74949
7.16083
7.51683
7.49168
7.00032
6.41133
6.46692
7.44223
9.04013
3.32459
3.73757
3.62975
3.44213
3.34502
3.56198
4.37766
5.41299
5.89592
5.67689
4.90034
4.36318
4.15817
3.90437
3.75738
3.8275
3.99926
4.15386
4.33549
4.49666
4.60641
4.66846
4.62208
4.50337
4.31984
4.08489
3.82972
3.59855
3.4951
3.32679
3.09994
2.97957
3.00672
3.04385
3.03478
3.03873
3.01927
3.07155
3.10607
3.10697
3.03993
2.93057
2.93749
2.99152
3.02538
2.99697
2.99942
2.98874
2.95505
2.99814
2.99167
3.00904
3.01202
3.04285
3.12341
3.14361
3.18443
3.19386
3.13299
3.1074
2.9904
3.065
3.02619
2.9405
2.87621
2.84879
2.86435
2.91353
2.942
2.94901
2.94938
2.92675
2.90027
2.86658
2.86607
2.88536
2.86103
2.79455
2.74791
2.6416
2.55068
2.52068
2.49545
2.45938
2.48569
2.48492
2.52513
2.58486
2.67486
2.72777
3.40878
3.30649
3.16626
3.18403
3.23934
3.32988
3.44007
3.52011
3.55365
3.5537
3.54509
3.56126
3.57755
3.58406
3.64624
3.61864
3.7103
3.75375
3.78193
3.84822
3.85231
3.81759
3.80405
3.80709
3.68763
3.49856
3.35228
3.33157
3.36249
3.44365
3.41853
3.3588
3.38315
3.33742
3.39769
3.55838
3.85395
3.95812
3.99561
3.86665
3.72014
3.59962
3.53807
3.43261
3.28665
3.25374
3.32082
3.51523
3.60043
3.75202
3.79424
3.84977
3.91302
3.86786
3.77623
3.68677
3.57826
3.52729
3.56305
3.61131
1.99488
2.33656
2.45557
2.70766
3.00051
3.12688
3.07106
2.89053
2.73814
2.50638
2.30168
2.19001
2.14852
2.17054
2.22018
2.27075
2.31672
2.36096
2.32883
2.26896
2.24587
2.17509
2.10376
2.06078
2.10093
2.14669
1.96673
1.66197
1.60637
1.73283
2.94416
3.40046
3.75625
3.69731
3.53292
3.38034
3.25799
3.23383
3.15414
3.14386
3.08345
3.06447
3.04626
3.08648
3.05805
3.04672
3.09043
3.12781
3.15782
3.19284
3.24187
3.26647
3.15673
2.96148
2.88679
2.93893
3.01341
3.04452
3.11934
3.18449
3.19212
3.1574
3.02256
2.89789
2.77754
2.69565
2.59799
2.52712
2.44961
2.43697
2.52296
2.50599
2.55657
2.61004
2.72316
2.82323
2.94936
3.09665
3.22487
3.28871
3.25242
3.2149
3.21881
3.26308
3.23986
3.22702
3.23833
3.41759
3.57578
3.33494
2.31057
2.32464
2.35406
2.30241
2.1869
2.0392
1.90714
1.83527
1.75319
1.70605
1.70473
1.68777
1.80187
1.79724
1.86091
1.97724
2.16488
2.38697
2.6352
2.84246
2.92746
2.84151
2.87975
2.92265
2.96512
2.95421
2.98954
3.06744
3.14479
3.21975
2.4464
2.74189
2.68349
2.48245
2.30106
2.16695
2.08702
2.02498
2.00205
2.02276
2.10704
2.21166
2.32735
2.48064
2.63115
2.65822
2.43448
2.20033
1.9276
1.84706
1.78213
1.55146
1.53811
1.57394
1.51508
1.66006
1.71141
1.69641
1.7427
1.78674
1.44892
1.62525
1.78025
1.79258
1.87992
1.99269
2.09274
2.13002
2.16353
2.12308
2.06353
1.90023
1.79776
1.68401
1.5796
1.54221
1.57933
1.60812
1.61286
1.57468
1.53007
1.49112
1.47243
1.47086
1.47278
1.50556
1.56337
1.64433
1.65786
1.50063
1.86098
1.47844
1.44826
1.70136
2.14974
2.85989
3.20589
3.27203
3.34189
3.38841
3.45866
3.37323
3.41544
3.31673
3.31139
3.20071
3.11328
2.96594
2.80475
2.61293
2.49824
2.47388
2.42378
2.2854
2.04935
1.89497
1.86879
1.90293
2.12943
2.33115
5.03504
5.10782
5.67939
6.30405
6.58507
6.55937
6.70131
7.22058
7.90033
7.85448
7.11357
6.5109
7.11798
8.9021
3.33133
3.72143
3.58439
3.36662
3.28195
3.55948
4.40881
5.46011
6.01506
5.84946
4.94063
4.30251
4.07622
3.79624
3.72919
3.91792
4.10933
4.32654
4.55062
4.75321
4.95826
5.08438
5.10649
4.95058
4.67105
4.33845
3.99792
3.68994
3.50632
3.35509
3.10757
2.97072
3.00958
3.0392
3.06935
3.05823
3.12148
3.20555
3.3202
3.35342
3.24531
3.01711
2.95921
2.99635
2.99627
2.98452
3.00415
2.97372
3.00633
3.04703
3.03856
3.0391
3.05129
3.0896
3.09053
3.15431
3.19182
3.19398
3.16939
3.10806
2.97779
3.04559
2.99901
2.91202
2.86032
2.83369
2.90785
2.94898
2.97257
2.98015
2.95704
2.91327
2.8992
2.87478
2.8645
2.85716
2.81057
2.74155
2.65039
2.52153
2.49624
2.46069
2.38556
2.40231
2.40051
2.45327
2.47853
2.53195
2.62332
2.71462
3.39185
3.30311
3.10812
3.19963
3.25617
3.34351
3.44669
3.48733
3.49551
3.49029
3.51942
3.51324
3.52526
3.58126
3.63737
3.75177
3.73965
3.77384
3.83173
3.86156
3.87055
3.84029
3.77791
3.79129
3.75146
3.58623
3.37045
3.28273
3.31888
3.39863
3.4046
3.37079
3.38133
3.34388
3.37597
3.53776
3.81521
3.90163
3.85948
3.66712
3.50941
3.4072
3.43871
3.38541
3.24788
3.27923
3.50496
3.71378
3.89188
4.06548
4.18617
4.18984
4.18224
4.19123
4.03008
3.867
3.70594
3.56694
3.54885
3.58947
2.00232
2.39012
2.59357
2.91531
3.20308
3.20494
3.01849
2.83844
2.72742
2.44963
2.23776
2.14535
2.17781
2.26245
2.33357
2.43002
2.50858
2.56006
2.57506
2.5428
2.40447
2.31721
2.21621
2.09226
2.08657
2.13754
2.07144
1.75722
1.62929
1.72488
3.19377
3.65359
3.79323
3.57943
3.38251
3.32406
3.24543
3.27216
3.1891
3.21728
3.14924
3.11601
3.08822
3.03356
3.05953
3.09365
3.09055
3.13225
3.13163
3.16194
3.18334
3.22287
3.17708
2.99878
2.88509
2.92144
3.01865
3.03451
3.08291
3.20492
3.18254
3.09323
2.92153
2.78899
2.67441
2.593
2.51461
2.4792
2.4418
2.40601
2.32916
2.37109
2.45984
2.52289
2.61615
2.71327
2.83707
2.98037
3.13912
3.22901
3.24449
3.20909
3.24634
3.21062
3.11271
3.0709
3.14745
3.21073
3.45765
3.34146
2.32713
2.38015
2.39438
2.28972
2.11749
1.958
1.83657
1.75115
1.68245
1.63603
1.61808
1.65022
1.63909
1.75776
1.8027
1.83453
1.98381
2.24321
2.46812
2.69753
2.90274
2.88701
2.87053
2.92972
2.92357
2.91021
2.92102
3.02131
3.12716
3.20816
2.65912
2.811
2.58389
2.31567
2.13285
2.03019
1.94217
1.91613
1.90919
1.91289
1.92746
2.03797
2.16521
2.33994
2.54534
2.6055
2.44927
2.23326
1.98466
1.91498
1.84105
1.61517
1.59953
1.51968
1.48886
1.53809
1.63783
1.74607
1.78848
1.79524
1.45247
1.68577
1.83315
1.91064
2.0611
2.2423
2.39023
2.51731
2.48344
2.44385
2.36649
2.21984
2.00416
1.80418
1.67255
1.54827
1.54681
1.60262
1.60711
1.53016
1.47722
1.43564
1.41053
1.42143
1.45053
1.4787
1.54451
1.64371
1.62898
1.47621
2.01875
1.54682
1.43655
1.76489
2.39985
3.04573
3.30908
3.35538
3.45873
3.50788
3.50235
3.54181
3.51062
3.45572
3.3674
3.30798
3.19238
3.08971
2.91993
2.71372
2.50082
2.42766
2.32623
2.06409
1.87205
1.88669
2.04516
2.22764
2.41724
2.39157
4.9243
5.43195
6.11865
6.11076
5.63633
5.28668
5.2859
5.82739
6.97236
7.91782
7.58721
6.70158
6.98621
8.77412
3.24099
3.70143
3.52994
3.30481
3.20942
3.42119
4.1491
5.2576
5.99812
6.01042
5.18139
4.30096
4.0188
3.70832
3.76772
3.97055
4.18216
4.38449
4.64115
4.94103
5.22231
5.42182
5.46581
5.34344
5.00751
4.58633
4.15745
3.76862
3.51524
3.3623
3.12525
2.96799
2.99497
3.046
3.0621
3.0801
3.1565
3.29694
3.44095
3.53483
3.41415
3.07736
2.97107
3.00454
2.98641
2.98964
3.00164
3.00961
3.08424
3.08249
3.09155
3.11537
3.10085
3.09985
3.12026
3.16245
3.17634
3.226
3.17704
3.10829
2.96145
3.024
2.98141
2.90529
2.82684
2.82512
2.88379
2.8827
2.91061
2.96372
2.95811
2.89116
2.89563
2.88316
2.85511
2.83111
2.7768
2.64703
2.55829
2.46597
2.47224
2.36959
2.39076
2.34324
2.37236
2.39565
2.43547
2.49503
2.58377
2.69474
3.34814
3.26313
3.09916
3.20957
3.24073
3.33671
3.43539
3.45182
3.4468
3.43793
3.47558
3.52568
3.65541
3.76262
3.83149
3.81108
3.92625
3.89496
3.86675
3.87732
3.869
3.85078
3.77377
3.77835
3.7593
3.6275
3.40216
3.26413
3.31057
3.41226
3.45594
3.37786
3.38021
3.36953
3.33358
3.43142
3.57587
3.71007
3.60538
3.47444
3.29658
3.26159
3.35112
3.31492
3.21609
3.4022
3.65086
3.96734
4.17059
4.40424
4.47735
4.57185
4.46966
4.42085
4.28563
4.037
3.79364
3.61269
3.54612
3.55726
2.00832
2.43803
2.70514
3.06482
3.27573
3.23234
2.92411
2.73447
2.71974
2.39976
2.1602
2.13966
2.23173
2.29437
2.4438
2.6166
2.68404
2.74935
2.78711
2.76603
2.64778
2.46264
2.32352
2.1522
2.09323
2.12913
2.11785
1.85384
1.65475
1.72303
3.46025
3.92949
3.75054
3.47285
3.33531
3.30754
3.27467
3.32543
3.16699
3.29002
3.08398
3.14525
3.05532
3.10219
3.07259
3.09856
3.09993
3.13457
3.12913
3.13402
3.14727
3.20111
3.19741
3.04694
2.90553
2.94006
2.97889
2.98148
3.0159
3.12797
3.19406
3.06858
2.85348
2.71839
2.60426
2.54606
2.42208
2.37556
2.29289
2.32373
2.34951
2.35061
2.3852
2.40819
2.52484
2.61357
2.76195
2.87868
3.04036
3.15133
3.2131
3.24148
3.19462
3.07469
2.95778
2.973
2.93066
3.08044
3.47571
3.36719
2.37571
2.46433
2.43179
2.26929
2.06548
1.90812
1.80043
1.66505
1.64444
1.5636
1.60691
1.58056
1.62851
1.63177
1.76114
1.82334
1.84927
2.10215
2.39043
2.58022
2.80115
2.89828
2.87595
2.88086
2.87033
2.85504
2.90593
3.00864
3.10996
3.21975
2.83446
2.7993
2.43627
2.19102
2.02661
1.88983
1.869
1.88328
1.92562
1.95519
1.94255
1.95618
2.05173
2.18465
2.41145
2.58741
2.44709
2.20591
2.13046
1.95857
1.94291
1.82386
1.67643
1.59078
1.48283
1.48071
1.49123
1.55352
1.75557
1.81735
1.45421
1.72034
1.89322
2.04149
2.28278
2.51298
2.67966
2.72569
2.82064
2.78614
2.62084
2.48656
2.27845
1.98425
1.7466
1.60077
1.52814
1.57039
1.60115
1.52276
1.45798
1.42684
1.40198
1.40011
1.43851
1.47801
1.55405
1.62655
1.59867
1.43489
2.17577
1.67752
1.43195
1.81729
2.55868
3.17026
3.36117
3.42611
3.55657
3.54815
3.62396
3.64421
3.58636
3.55204
3.45506
3.3514
3.27645
3.1514
3.0391
2.84001
2.56351
2.36654
2.29625
2.00534
1.84433
2.07724
2.37798
2.47543
2.43712
2.24934
5.13399
5.83316
5.87723
5.22259
4.84726
4.70894
4.81515
5.18763
6.21281
7.6435
7.77884
6.89868
6.95208
8.74293
3.20144
3.69163
3.55586
3.31002
3.18698
3.25208
3.74135
4.77546
5.80277
6.02896
5.33793
4.31648
3.95261
3.65672
3.77244
3.98904
4.17077
4.41714
4.77157
5.24638
5.65007
5.86935
5.91018
5.72445
5.30775
4.77373
4.24446
3.79662
3.50978
3.3495
3.15866
2.99721
2.98453
3.03624
3.09723
3.13023
3.23946
3.36968
3.54021
3.59524
3.48168
3.08022
2.98245
3.00363
2.99363
2.99252
3.02407
3.07381
3.13166
3.10165
3.1109
3.14189
3.11412
3.14449
3.14486
3.14474
3.20226
3.22571
3.186
3.11811
2.936
3.01155
2.99175
2.91033
2.82694
2.83736
2.84302
2.86119
2.90374
2.93959
2.92521
2.89752
2.89587
2.86775
2.85623
2.82898
2.70645
2.57462
2.54635
2.43331
2.42081
2.38248
2.37599
2.39543
2.35999
2.38688
2.3976
2.46252
2.55273
2.69917
3.28087
3.21298
3.1168
3.16947
3.18633
3.30635
3.40963
3.40679
3.39425
3.39385
3.49111
3.55556
3.66209
3.70216
3.81607
3.92157
3.99737
3.95586
4.02162
3.85581
3.93978
3.79898
3.79456
3.74445
3.75121
3.63742
3.407
3.24812
3.33814
3.4406
3.45683
3.36751
3.37723
3.39397
3.34349
3.3334
3.36278
3.40293
3.40282
3.28466
3.21299
3.16811
3.32036
3.25962
3.26449
3.49528
3.86828
4.12615
4.44896
4.61735
4.78133
4.81615
4.75974
4.55698
4.46699
4.16195
3.83122
3.62723
3.55476
3.52996
2.0186
2.48444
2.80659
3.15415
3.29711
3.21921
2.84262
2.65053
2.66532
2.35362
2.15083
2.15086
2.22368
2.34438
2.56756
2.67256
2.7653
2.88296
2.87415
2.86609
2.78721
2.53965
2.4397
2.19508
2.10772
2.1253
2.14092
1.92737
1.69639
1.77144
3.60367
3.9995
3.58027
3.43846
3.36086
3.34338
3.26002
3.37033
3.19346
3.2904
3.03737
3.11329
2.9811
2.96415
3.00922
3.0442
3.09699
3.14195
3.14029
3.11088
3.1239
3.15514
3.15435
3.05619
2.97061
3.00834
3.02097
3.02425
3.05314
3.15848
3.2056
2.97741
2.78224
2.64298
2.5604
2.49902
2.36586
2.37754
2.33003
2.33972
2.31365
2.33326
2.39159
2.39485
2.45611
2.55342
2.70429
2.81534
2.98146
3.10986
3.17381
3.2013
3.09233
2.95435
2.93578
2.85525
2.8761
3.11165
3.36665
3.21153
2.42933
2.51254
2.41904
2.24019
2.03388
1.88282
1.7499
1.62893
1.60519
1.56715
1.59177
1.62372
1.643
1.64989
1.63446
1.82722
1.81928
2.00006
2.31429
2.55157
2.69835
2.8386
2.86662
2.84979
2.77683
2.8372
2.96535
3.04864
3.13423
3.17986
2.96106
2.69599
2.30852
2.1263
1.95588
1.85297
1.90337
1.90341
1.87757
1.86642
1.91422
1.90317
1.98667
2.14861
2.33567
2.54059
2.39802
2.26422
2.16074
2.06457
2.10821
1.92014
1.919
1.75029
1.67482
1.49064
1.4751
1.48429
1.49769
1.67253
1.45528
1.73399
1.93517
2.11586
2.42246
2.66933
2.8278
2.97979
2.96897
2.95336
2.86502
2.69564
2.42507
2.21453
1.84969
1.64804
1.5371
1.55133
1.61179
1.53349
1.45781
1.43503
1.43344
1.4398
1.45089
1.51618
1.58129
1.60067
1.53445
1.43156
2.32853
1.88294
1.43661
1.79745
2.63206
3.21056
3.42142
3.46073
3.62258
3.59194
3.7434
3.65841
3.69408
3.66487
3.59483
3.47248
3.31999
3.20996
3.09155
2.95909
2.66749
2.33659
2.23405
2.01057
1.769
2.08298
2.42213
2.46266
2.31912
1.99118
5.40456
5.79882
5.19145
4.81385
4.95113
5.45564
5.77485
6.07067
6.69201
7.70629
7.79575
6.94229
7.02059
8.849
2.99697
3.61645
3.58165
3.31633
3.1624
3.15817
3.38104
4.11017
5.29881
5.86629
5.39236
4.27256
3.88734
3.61754
3.76551
3.95098
4.13164
4.41268
4.90774
5.4693
5.97994
6.23411
6.19913
5.94332
5.46563
4.85559
4.26407
3.7841
3.50274
3.33567
3.18889
3.05957
3.00114
3.04177
3.11266
3.18712
3.34059
3.47117
3.58534
3.61247
3.47565
3.05563
2.98731
3.01467
2.98089
3.02348
3.06321
3.12954
3.14586
3.11041
3.12275
3.11845
3.15369
3.15512
3.14547
3.18913
3.2072
3.22158
3.18889
3.12251
2.90801
2.99484
2.99187
2.9279
2.85853
2.82944
2.81409
2.8507
2.89264
2.9287
2.89244
2.89496
2.91657
2.89165
2.86827
2.78618
2.6593
2.56399
2.50906
2.40298
2.44726
2.38379
2.40745
2.35243
2.37267
2.41625
2.38799
2.43015
2.54677
2.69398
3.24356
3.152
3.16941
3.07419
3.10707
3.26003
3.39155
3.37963
3.35204
3.37111
3.49023
3.55514
3.66832
3.87682
4.03209
4.05621
4.15549
3.94246
4.13415
3.80179
4.00008
3.7553
3.80921
3.69049
3.72748
3.62618
3.36657
3.24247
3.39835
3.45454
3.49338
3.41502
3.3767
3.38105
3.37621
3.3454
3.31105
3.30398
3.25561
3.24323
3.15045
3.19429
3.29654
3.26876
3.29239
3.66217
3.93887
4.32008
4.53982
4.84659
4.91301
4.97741
4.89905
4.64931
4.5018
4.19207
3.83326
3.62272
3.547
3.52391
2.00282
2.50333
2.85815
3.17732
3.31286
3.20904
2.74572
2.59522
2.64729
2.33359
2.1446
2.13138
2.23451
2.39737
2.56719
2.6684
2.85593
2.97998
2.9745
2.92848
2.85717
2.54737
2.45527
2.20903
2.11756
2.13829
2.15669
1.96505
1.73481
1.88549
3.7966
3.90954
3.54972
3.44135
3.38259
3.38031
3.28342
3.34847
3.22623
3.28455
3.01622
3.11537
2.9364
2.9565
2.98594
2.99924
3.06527
3.1437
3.15004
3.08512
3.11607
3.13454
3.15378
3.09171
3.02805
3.00169
2.99812
3.01672
3.046
3.08806
3.21637
2.94381
2.72573
2.62878
2.51065
2.48265
2.31973
2.34396
2.26564
2.27585
2.26471
2.26028
2.37028
2.33654
2.46045
2.51184
2.65175
2.7815
2.94231
3.07396
3.14225
3.21138
2.96318
2.89252
2.93079
2.9663
2.98871
3.12727
3.35907
3.29683
2.52369
2.62042
2.46445
2.23497
2.0241
1.84284
1.70646
1.58174
1.61158
1.52113
1.59391
1.55528
1.60793
1.66699
1.60899
1.8457
1.75847
1.97691
2.24402
2.49481
2.66537
2.771
2.81162
2.80953
2.73113
2.87498
3.0599
3.11838
3.13745
3.2175
2.80749
2.55149
2.24409
2.08666
1.93558
1.84783
1.92311
1.82471
1.85651
1.87432
1.81152
1.91508
1.96887
2.05844
2.33578
2.4928
2.42142
2.23633
2.23071
2.19983
2.07984
2.06152
2.01131
1.88712
1.87166
1.70798
1.55048
1.47325
1.48068
1.49137
1.45521
1.69915
1.93975
2.214
2.52756
2.76659
2.97763
3.08557
3.1388
3.12685
2.95884
2.90773
2.52844
2.35749
1.93709
1.73347
1.54054
1.52822
1.6137
1.55845
1.4632
1.44932
1.4649
1.4779
1.50192
1.54598
1.56904
1.5449
1.4619
1.43201
2.48405
2.16049
1.45767
1.71613
2.61443
3.23896
3.41844
3.51728
3.6276
3.66452
3.75825
3.72035
3.79336
3.69774
3.62245
3.51916
3.39844
3.24016
3.10752
3.04308
2.83239
2.35993
2.19419
2.06667
1.6706
1.82941
2.16108
2.16043
1.77911
1.44962
5.6139
5.53407
4.9318
5.26343
6.53245
7.41254
7.65889
7.63219
7.66893
7.94228
7.75186
6.83559
7.12022
8.86864
7.4273
4.88626
3.16311
3.43603
3.62224
3.42746
3.22752
3.15407
3.23301
3.68973
4.71843
5.58685
5.3044
4.22638
3.82528
3.62134
3.72561
3.90754
4.06247
4.4147
4.94771
5.62556
6.13398
6.32201
6.30376
6.01729
5.43925
4.78568
4.19114
3.69584
3.45856
3.30273
2.9495
3.11904
3.23546
3.14706
3.10007
3.12092
3.19723
3.28343
3.41754
3.51764
3.60156
3.6019
3.4355
2.98469
2.99519
3.01741
3.01001
3.0434
3.12536
3.15647
3.14247
3.15086
3.10395
3.14939
3.15169
3.16196
3.19382
3.21376
3.2137
3.23688
3.19944
3.1447
3.13161
2.97525
2.90525
2.97402
2.99632
2.9665
2.91442
2.88917
2.86685
2.91478
2.95635
2.93532
2.89307
2.91768
2.95092
2.90174
2.87595
2.78519
2.634
2.56148
2.52021
2.42294
2.43695
2.39666
2.40563
2.36858
2.37798
2.41926
2.39067
2.44278
2.55419
2.78341
3.05734
3.08872
3.12862
3.07061
3.04675
2.94944
2.97066
3.19313
3.35962
3.35862
3.33023
3.37812
3.44228
3.54293
3.64436
3.84163
3.9828
4.04409
4.18109
3.95003
4.09938
3.80331
3.94741
3.72088
3.78873
3.64379
3.70174
3.5543
3.31655
3.33611
3.47383
3.50366
3.60055
3.54927
3.48293
3.42397
3.37981
3.39765
3.38431
3.33725
3.31523
3.28494
3.25516
3.18181
3.1728
3.18383
3.32314
3.23505
3.41837
3.71284
4.05845
4.32443
4.67604
4.85899
5.00756
5.01316
4.90601
4.65222
4.44426
4.1013
3.77353
3.59642
3.53415
3.50512
2.62505
2.02463
2.03669
2.54501
2.87306
3.16949
3.30076
3.15284
2.64838
2.53937
2.65538
2.32744
2.13621
2.12534
2.22958
2.37302
2.51178
2.62623
2.8167
2.90257
2.92569
2.86637
2.77871
2.49443
2.37017
2.19855
2.1296
2.16684
2.17163
1.93521
1.85485
2.46616
3.90731
4.08208
3.94926
3.81231
3.59575
3.47701
3.38464
3.39393
3.33412
3.3477
3.24424
3.34037
3.05157
3.10357
2.94346
2.98775
2.9768
3.00163
3.06534
3.13744
3.11402
3.0797
3.09097
3.12662
3.13344
3.08508
3.05789
3.07242
3.11731
3.119
3.12925
3.16222
3.18901
3.23269
3.17459
2.89689
2.74161
2.60564
2.53915
2.45137
2.35908
2.32983
2.27979
2.29584
2.28687
2.28182
2.38759
2.32983
2.44654
2.52772
2.64179
2.76919
2.9381
3.05843
3.17822
3.00604
2.78116
2.9367
3.13074
3.18875
3.12549
3.17615
3.002
2.58993
2.46854
2.52286
2.67043
2.66925
2.442
2.23072
2.01799
1.8334
1.67236
1.62129
1.54999
1.52198
1.55385
1.54572
1.61425
1.6031
1.61426
1.84008
1.75345
2.00288
2.18692
2.45122
2.62544
2.72096
2.74724
2.68746
2.68683
2.82795
2.90535
2.96599
2.97991
2.99102
2.97724
2.9991
2.89466
2.58892
2.30549
2.04131
1.95164
1.89032
1.91598
1.8236
1.82556
1.88691
1.82522
1.90298
1.97264
2.0743
2.30945
2.51049
2.36869
2.26926
2.29754
2.18483
2.12039
2.15179
1.97605
1.99875
1.91687
1.87074
1.764
1.54866
1.4725
1.47706
1.48656
1.48543
1.46169
1.62129
1.93458
2.22016
2.52368
2.78616
2.99758
3.07647
3.09362
3.17496
2.95183
2.96768
2.57365
2.43008
2.00276
1.77576
1.57217
1.51391
1.58182
1.59757
1.49408
1.4437
1.44586
1.47377
1.49141
1.50293
1.49773
1.46549
1.44097
1.4444
1.99735
2.39327
2.65415
2.50142
1.75657
1.62876
2.4393
3.20107
3.3853
3.53547
3.63101
3.67685
3.77134
3.74283
3.79968
3.70024
3.64566
3.57894
3.42284
3.25844
3.14916
3.05967
2.92964
2.41789
2.05818
2.12354
1.56487
1.52146
1.6528
1.52711
1.39266
1.26784
2.94772
3.38976
5.67918
5.18621
5.05546
6.75545
8.45714
8.81139
8.61107
8.39354
8.06775
7.88549
7.44098
6.7342
7.12104
8.84433
7.90818
5.42787
3.20212
3.26232
3.5973
3.54859
3.33366
3.18912
3.22461
3.54366
4.39074
5.29461
5.14357
4.14254
3.77312
3.59548
3.68677
3.83074
3.99533
4.30401
4.88615
5.45198
5.95355
6.16313
6.12219
5.79842
5.21287
4.60637
4.04612
3.61232
3.40623
3.16943
2.96248
3.18218
3.28773
3.26069
3.24089
3.2694
3.3112
3.38951
3.44793
3.52744
3.56374
3.56205
3.32629
2.91802
3.02314
3.03396
3.02373
3.08071
3.15335
3.17591
3.1691
3.13775
3.17361
3.14834
3.20461
3.16884
3.21134
3.21433
3.2416
3.23517
3.18276
3.15043
3.1062
2.94655
2.90575
2.94809
2.98762
2.98047
2.95792
2.93674
2.91197
2.92754
2.9278
2.88937
2.89672
2.95457
2.98911
2.89244
2.86949
2.80348
2.67549
2.56417
2.51403
2.45934
2.40023
2.43351
2.41564
2.36895
2.39863
2.40825
2.41179
2.47125
2.58322
2.88045
3.05237
3.08841
3.10893
3.02349
3.00255
2.86599
2.88995
3.0895
3.34442
3.35423
3.32742
3.35119
3.41747
3.50728
3.60941
3.75237
3.8498
3.93205
4.02154
3.90511
3.99287
3.77403
3.86197
3.67194
3.70961
3.63758
3.62092
3.45868
3.25292
3.33084
3.44894
3.52006
3.58249
3.58805
3.58715
3.50626
3.44224
3.36846
3.3607
3.34962
3.31955
3.27855
3.22921
3.20051
3.1759
3.25964
3.33095
3.29938
3.43284
3.80142
4.00637
4.36378
4.57771
4.84383
4.88712
4.88574
4.70444
4.51007
4.27468
3.94085
3.72014
3.61599
3.54411
3.19227
2.13586
2.00246
2.10925
2.60663
2.90155
3.1457
3.2582
3.01931
2.5846
2.52136
2.65591
2.35083
2.15481
2.10999
2.18558
2.31606
2.41344
2.49253
2.61694
2.70332
2.70364
2.64973
2.56164
2.40569
2.23248
2.18253
2.14978
2.18703
2.10169
1.97947
2.51792
3.62215
4.20671
4.24124
4.15115
3.95429
3.66493
3.52044
3.42397
3.38316
3.35484
3.38235
3.21823
3.35571
3.07728
3.12998
3.00128
2.9715
2.9978
3.0023
3.11412
3.10066
3.08161
3.08843
3.08928
3.11241
3.13037
3.09362
3.04622
3.09375
3.13821
3.14012
3.14976
3.20478
3.25728
3.27526
3.18193
2.92244
2.74427
2.64641
2.54188
2.48938
2.34176
2.38065
2.32352
2.33813
2.31117
2.29875
2.33041
2.37367
2.505
2.51534
2.68829
2.78868
2.94876
3.08786
3.05374
2.81458
2.74029
2.89115
3.06703
3.19867
3.23045
3.12832
2.72983
2.5175
2.56454
2.74742
2.97819
2.96855
2.59487
2.28581
2.02741
1.83221
1.71159
1.59627
1.54272
1.50238
1.51453
1.53851
1.53345
1.67897
1.59123
1.71316
1.88427
2.01426
2.13461
2.48374
2.56134
2.65958
2.70763