/*--------------------------------*- C++ -*----------------------------------*\
| =========                 |                                                 |
| \\      /  F ield         | OpenFOAM: The Open Source CFD Toolbox           |
|  \\    /   O peration     | Version:  2.1.1                                 |
|   \\  /    A nd           | Web:      www.OpenFOAM.org                      |
|    \\/     M anipulation  |                                                 |
\*---------------------------------------------------------------------------*/
FoamFile
{
    version     2.0;
    format      ascii;
    class       volScalarField;
    location    "0.003950000";
    object      G;
}
// * * * * * * * * * * * * * * * * * * * * * * * * * * * * * * * * * * * * * //

dimensions      [0 0 0 0 0 0 0];

internalField   nonuniform List<scalar> 
12384
(
1
1
1
1
1
1
1
1
1
1
1
1
1
1
1
1
1
1
0.999999
0.999999
0.999998
0.999998
0.999997
0.999998
0.999999
1
1
1
1
1
1
1
1
1
1
1
1
1
1
1
1
1
1
1
1
0.999724
0.995356
0.981759
0.960258
0.94291
0.928249
0.94994
0.948885
0.964575
0.975246
0.986705
0.993854
0.996993
0.997748
0.9977
0.995128
0.995825
0.999916
1
1
1
1
1
1
1
1
1
1
1
0.999988
0.995183
0.963604
0.906717
0.828474
0.74728
0.664807
0.591374
0.525803
0.473181
0.426168
0.39463
0.36391
0.328994
0.36327
0.329667
0.386653
0.387618
0.432471
0.451385
0.492832
0.556725
0.657691
0.809551
0.949306
0.99653
0.999772
0.999969
0.999999
1
0.999879
0.992962
0.97328
0.932993
0.860897
0.762066
0.662842
0.577106
0.54511
0.528545
0.541087
0.569141
0.549614
0.705903
0.550733
0.758585
0.666627
0.785768
0.668154
0.821894
0.807325
0.932091
0.974332
0.997191
0.999826
0.999994
1
1
1
1
1
1
1
0.999999
0.999837
0.999411
0.998433
0.99693
0.996106
0.993745
0.984278
0.98291
0.883046
0.805116
0.739664
0.441841
0.418955
0.319682
0.322208
0.275655
0.286906
0.303959
0.337895
0.386537
0.459957
0.588411
0.814514
0.998797
0.999993
1
1
0.999756
0.998916
0.997678
0.972724
0.839247
0.87471
0.958957
0.977482
0.979953
0.979792
0.980187
0.978411
0.976777
0.974132
0.968904
0.963673
0.955049
0.945515
0.931927
0.921872
0.920152
0.968758
0.974311
0.982237
0.984118
0.996755
0.999269
0.995947
0.999973
1
0.999999
0.999959
0.999775
0.99988
0.999999
1
1
1
0.999998
0.999965
0.998867
0.90014
0.922977
0.587992
0.789256
0.764009
0.843405
0.884113
0.901206
0.90203
0.904347
0.857545
0.870729
0.898324
0.947172
0.983272
0.998949
0.999999
1
1
1
1
1
1
1
1
1
0.999933
0.998709
0.990391
0.960649
0.901046
0.819197
0.725752
0.685493
0.662861
0.704625
0.783275
0.891733
0.97252
0.998709
0.999998
1
1
1
1
1
1
1
1
1
1
1
1
1
1
1
1
1
1
1
0.999916
0.996889
0.943677
0.872431
0.633258
0.812361
0.710472
0.904515
0.958685
0.983557
0.991806
0.994554
0.995659
0.995065
0.995546
0.997975
0.99993
1
1
1
1
1
1
1
1
1
1
1
1
1
1
0.999987
0.999929
0.999658
0.999667
0.999622
0.999396
0.998581
0.994888
0.977043
0.897998
0.633051
0.253704
0.221009
0.34052
0.673062
0.988592
1
1
1
1
1
1
1
1
1
1
1
0.999573
0.999731
0.992238
0.999507
0.998903
0.999927
0.999972
0.999999
1
1
1
1
1
1
1
1
1
1
1
1
1
1
1
1
1
1
1
1
1
1
1
1
1
1
1
1
1
1
1
1
1
1
1
1
1
1
1
1
1
1
1
1
1
1
1
1
1
1
1
1
1
1
1
1
1
0.999972
0.99996
0.999811
0.999351
0.997803
0.993439
0.98378
0.966325
0.951307
0.939191
0.935376
0.947715
0.977203
0.993609
0.999119
0.999873
0.999957
0.999912
0.999463
0.998591
0.998828
0.999679
0.999927
0.999933
0.999293
0.994195
0.996571
0.999999
1
0.999966
0.418371
0.137535
0.0413059
0.0114021
0.00363771
0.00158767
0.000489839
0.000655546
0.000789031
0.00165105
0.00396136
0.0108887
0.0288078
0.0577116
0.0623651
0.0740851
0.0383697
0.0747493
0.381645
0.874957
0.996165
0.999949
0.999999
1
1
1
0.999999
0.999769
1
0.999736
0.439394
0.125637
0.0363162
0.0123144
0.00468035
0.00194413
0.000899232
0.000446125
0.000234544
0.000130758
7.37007e-05
5.1808e-05
3.92161e-05
4.49182e-05
5.26067e-05
8.8392e-05
0.000144121
0.000273608
0.000510127
0.00106483
0.00258713
0.00766284
0.0285109
0.108141
0.35286
0.697918
0.90123
0.980162
0.999999
0.999088
0.702085
0.374075
0.145488
0.0430681
0.0116855
0.00384218
0.00141173
0.00107315
0.00056362
0.000395287
0.0011226
0.000833818
0.00455531
0.00332948
0.0127048
0.0100508
0.0250551
0.0165249
0.0483482
0.0400911
0.0967587
0.148333
0.304575
0.500786
0.745171
0.940512
0.995606
0.999855
1
0.999997
0.996304
0.979278
0.93022
0.882356
0.902618
0.852478
0.838318
0.77182
0.777831
0.732561
0.755896
0.709515
0.538851
0.521097
0.151838
0.120171
0.00552572
0.0055485
0.000798728
0.0004679
0.000342784
0.000383015
0.000609374
0.00128907
0.00395623
0.0199466
0.250395
0.748233
0.997939
0.999869
0.881485
0.769787
0.605742
0.254243
0.176235
0.373397
0.494759
0.522281
0.525673
0.522112
0.503428
0.454591
0.379018
0.281249
0.17081
0.085274
0.0338788
0.0127731
0.00583637
0.00328072
0.00351034
0.00567609
0.0238762
0.0630102
0.115631
0.256665
0.455406
0.322951
0.867434
0.999974
0.800198
0.281878
0.166709
0.342898
0.321802
0.267839
0.324509
0.377453
0.399238
0.317553
0.170198
0.0222446
0.0307257
0.00368721
0.0403066
0.0629803
0.159982
0.302303
0.442775
0.521202
0.526847
0.455454
0.358879
0.281965
0.176762
0.183852
0.220147
0.386272
0.999722
1
1
0.865652
0.208231
0.111427
0.350694
0.165396
0.0380687
0.00953322
0.00273367
0.00102931
0.000396229
0.000216671
0.00016258
0.000164902
0.00030446
0.000983205
0.00236395
0.00454172
0.00723508
0.0126919
0.0647724
0.289393
0.775361
0.997868
1
1
1
1
1
1
1
1
1
0.999951
0.823652
0.540996
0.558036
0.8191
0.709374
0.22916
0.0937433
0.0692079
0.0405795
0.0245571
0.0120926
0.0204315
0.0358175
0.0905108
0.174351
0.335959
0.460904
0.552406
0.595012
0.61695
0.672583
0.669379
0.655342
0.759142
0.999391
1
1
1
1
0.990208
0.782594
0.670549
0.927446
0.991375
0.919373
0.513722
0.149666
0.107197
0.170061
0.177472
0.265391
0.345262
0.42263
0.437923
0.375954
0.215457
0.0592362
0.00588313
0.000143914
1.28147e-05
5.51618e-06
7.83443e-06
3.45236e-05
0.000346952
0.791569
1
1
0.988369
0.921671
0.929437
0.893965
0.758886
0.522031
0.240333
0.177675
0.0545985
0.0754649
0.0893802
0.26352
0.44451
0.672408
0.847676
0.956882
0.992405
0.999341
0.99999
1
1
1
1
1
1
1
1
1
1
1
1
0.999837
0.996421
0.983164
0.979493
0.993041
0.999232
0.999981
1
1
1
1
1
1
1
1
1
1
1
1
1
1
1
1
1
1
1
1
1
1
1
1
1
1
1
1
1
1
1
1
1
1
1
0.999962
0.999363
0.997289
0.992874
0.989178
0.979668
0.962354
0.949956
0.933817
0.926461
0.904422
0.913004
0.944704
0.987745
0.998747
0.999932
0.999992
0.999994
0.999957
0.999502
0.998507
0.999383
0.999934
0.999985
0.999909
0.997701
0.991074
0.99997
1
0.998898
0.128084
0.0431526
0.016934
0.00776749
0.00417915
0.00232902
0.00240899
0.00100844
0.000861998
0.000801787
0.000963864
0.00165592
0.00387582
0.00841463
0.0178244
0.0209283
0.0215426
0.0121605
0.0301598
0.189108
0.705496
0.985449
0.99984
0.999999
1
1
1
0.999211
0.999991
0.995975
0.0623976
0.0116079
0.0050822
0.00340125
0.00193514
0.00127834
0.000603573
0.000359909
0.000149755
9.51647e-05
3.9752e-05
2.79749e-05
1.89966e-05
1.80681e-05
2.39654e-05
3.41278e-05
7.63501e-05
0.000133001
0.000250458
0.000457867
0.000850286
0.00200471
0.00638727
0.0230133
0.101374
0.360822
0.662829
0.877612
0.999954
0.996556
0.441638
0.199542
0.0763571
0.0254192
0.0133512
0.00570527
0.00372908
0.00193866
0.00326825
0.00133037
0.00884543
0.00396658
0.0272147
0.017178
0.0459349
0.0325124
0.0639195
0.0461415
0.107828
0.09912
0.176869
0.222339
0.294517
0.367617
0.513102
0.740588
0.957312
0.998161
0.999989
0.999865
0.976762
0.934293
0.937433
0.899543
0.879876
0.668447
0.537784
0.411283
0.478571
0.579114
0.73501
0.828716
0.756822
0.830666
0.55933
0.598446
0.218729
0.192375
0.0205824
0.0170302
0.00210688
0.00181218
0.00155891
0.00173799
0.00263832
0.00713845
0.0462009
0.602298
0.994792
0.99841
0.77271
0.585382
0.363063
0.196273
0.323328
0.440777
0.459768
0.466041
0.467757
0.458327
0.420574
0.341242
0.215906
0.0978988
0.0326137
0.0107182
0.0042744
0.00220319
0.00125997
0.00104873
0.00125295
0.00882998
0.0170652
0.0261757
0.0748862
0.17223
0.273302
0.130911
0.700969
0.998059
0.485526
0.123536
0.17155
0.255735
0.174022
0.174149
0.262503
0.299197
0.347622
0.252689
0.147711
0.0101048
0.0109803
0.00161263
0.0152849
0.0352942
0.111199
0.219566
0.318923
0.378543
0.436165
0.496663
0.555716
0.592523
0.68071
0.552166
0.31946
0.242964
0.999689
1
0.923684
0.220472
0.0451785
0.11156
0.1951
0.0528244
0.0128291
0.00401028
0.00155884
0.000741466
0.000407036
0.000289813
0.000246336
0.000239574
0.000262592
0.000299541
0.000368995
0.000753103
0.00116265
0.00242769
0.0106484
0.0549386
0.237974
0.673877
0.988572
1
1
1
1
1
1
1
1
0.910567
0.373896
0.583716
0.756622
0.779435
0.418877
0.161624
0.126291
0.107466
0.118413
0.0702025
0.102844
0.0969127
0.1331
0.182185
0.229967
0.248632
0.191263
0.150074
0.132046
0.124629
0.198969
0.649825
0.874429
0.607254
0.997845
1
1
1
0.999996
0.966392
0.579154
0.378483
0.874815
0.992041
0.969645
0.661686
0.153419
0.291863
0.237971
0.256719
0.217622
0.25001
0.224267
0.163558
0.0723006
0.00945924
0.000172026
2.09776e-06
1.45876e-07
1.06571e-07
2.38134e-07
6.7503e-07
3.09061e-06
1.44756e-05
0.224903
1
0.99821
0.9009
0.831441
0.895957
0.80051
0.603648
0.370277
0.121025
0.0781771
0.0293749
0.0424037
0.0529952
0.129606
0.190481
0.433287
0.594368
0.791635
0.927509
0.985395
0.998079
0.999925
1
1
1
1
1
1
1
1
1
1
0.999986
0.998333
0.993355
0.99558
0.998674
0.999922
0.999998
0.999999
1
1
1
1
1
1
1
1
1
1
1
1
1
1
1
1
1
1
1
1
1
1
1
1
1
1
1
1
1
1
1
1
1
1
1
0.996282
0.964076
0.94009
0.957069
0.976843
0.98599
0.987846
0.985989
0.991857
0.994907
0.994651
0.985592
0.984927
0.994874
0.999695
0.999991
1
1
0.999997
0.999854
0.998929
0.999497
0.999974
0.999997
0.999961
0.993729
0.975377
0.999246
1
0.982412
0.0484971
0.0185904
0.00750149
0.00412118
0.00325629
0.00309281
0.00160696
0.00263122
0.002514
0.00175866
0.00114095
0.000898004
0.00110543
0.002693
0.00445454
0.00744809
0.0099417
0.00483725
0.00301307
0.0110863
0.11412
0.665036
0.986524
0.999881
0.999999
1
1
0.997519
0.99986
0.926524
0.00897998
0.00413212
0.00543095
0.00782565
0.0103528
0.00799978
0.00600852
0.00284986
0.00142433
0.000562624
0.000237186
0.000110013
6.29907e-05
3.87593e-05
3.64848e-05
4.25276e-05
7.43238e-05
0.00011128
0.000188293
0.000270786
0.000433831
0.00081207
0.00231732
0.00878541
0.0388005
0.243661
0.438043
0.680451
0.998892
0.980331
0.282726
0.134905
0.0575378
0.0162352
0.00703825
0.00503128
0.00399203
0.00586531
0.00499962
0.00636462
0.0183016
0.0158261
0.0831271
0.0708494
0.158161
0.120467
0.177685
0.131337
0.240366
0.22723
0.314771
0.348564
0.371222
0.368349
0.408843
0.573441
0.867034
0.99141
0.999907
0.997919
0.897579
0.898918
0.919901
0.884867
0.710709
0.399305
0.271149
0.256948
0.386304
0.56383
0.638409
0.74908
0.622946
0.728748
0.548565
0.739038
0.497735
0.645776
0.299651
0.254293
0.0749608
0.0427263
0.011952
0.00532373
0.00363949
0.00517245
0.0174555
0.432807
0.995384
0.992605
0.650086
0.397665
0.238147
0.262532
0.384163
0.409195
0.421432
0.424979
0.413825
0.386358
0.314417
0.178659
0.065179
0.0190014
0.0065595
0.00299197
0.00184816
0.00141804
0.00143561
0.00172142
0.00399579
0.0102367
0.0230674
0.0503651
0.0977741
0.15773
0.207142
0.0960564
0.496371
0.977415
0.227895
0.0985153
0.177728
0.113299
0.133734
0.182683
0.204072
0.278395
0.246885
0.197538
0.0666386
0.00393199
0.0035046
0.00182245
0.00297661
0.0125909
0.0665823
0.173386
0.274612
0.336982
0.379254
0.529076
0.716829
0.845858
0.873461
0.840403
0.461589
0.158784
0.999878
1
0.240723
0.0279901
0.016187
0.116048
0.100011
0.0224373
0.00752872
0.00331639
0.00196166
0.00120441
0.000845937
0.000712568
0.000646899
0.000641062
0.000642693
0.00061504
0.000571908
0.000549985
0.00065723
0.00125397
0.00452164
0.0249124
0.124678
0.403717
0.826548
0.998697
1
1
1
1
1
1
0.989878
0.371687
0.213886
0.516446
0.761148
0.712265
0.320244
0.1908
0.236273
0.310088
0.304056
0.320124
0.238628
0.396194
0.487353
0.377105
0.465584
0.328266
0.159852
0.0685154
0.0446865
0.0490976
0.0982229
0.219334
0.584328
0.438138
0.99967
1
1
1
0.999948
0.922152
0.361794
0.151318
0.623587
0.976602
0.973598
0.730837
0.400625
0.159553
0.13807
0.167367
0.19587
0.113901
0.069758
0.0289252
0.00396918
3.19937e-05
6.06628e-07
1.52411e-08
2.86307e-09
2.00328e-08
3.36356e-07
1.6417e-06
9.32683e-07
6.69215e-07
0.0765929
1
0.918096
0.788893
0.826109
0.821677
0.65687
0.464754
0.23071
0.167055
0.0980211
0.0934032
0.0776834
0.169936
0.174608
0.27998
0.297282
0.469298
0.586406
0.770597
0.914009
0.980156
0.996505
0.999866
1
1
1
1
1
1
1
1
0.999964
0.998123
0.993433
0.994805
0.99907
0.999849
0.999939
0.999801
0.99964
0.999748
0.999917
0.999981
0.999993
0.999996
1
1
1
1
1
1
1
1
1
1
1
1
1
1
1
1
1
1
1
1
1
1
1
1
1
1
1
1
0.999999
1
0.937484
0.731411
0.737458
0.864845
0.966259
0.993809
0.99703
0.999005
0.999934
0.999996
0.999998
0.999978
0.999861
0.999937
0.999996
1
1
1
0.999999
0.999845
0.999305
0.999915
0.999998
0.999998
0.99897
0.909459
0.79279
0.978731
1
0.944716
0.0555132
0.0281753
0.0104594
0.0138901
0.016053
0.0132618
0.0116995
0.00649541
0.00340624
0.00280738
0.00176442
0.00109254
0.00103767
0.00134032
0.00327494
0.00691284
0.00532274
0.00251333
0.00274539
0.00454045
0.0469942
0.358292
0.892816
0.996138
0.999956
0.999999
0.999999
0.988288
0.997517
0.708072
0.00537505
0.00821922
0.0245125
0.0522517
0.0650259
0.0663392
0.0506297
0.0339342
0.0186465
0.0101025
0.00484565
0.00254641
0.00113909
0.000548063
0.000322615
0.000224762
0.000218746
0.000249741
0.000277632
0.000316574
0.000338399
0.000518976
0.00119684
0.00458117
0.0237458
0.146937
0.402327
0.49353
0.994281
0.914949
0.386489
0.183684
0.015103
0.00422863
0.00406192
0.012282
0.0237695
0.0302154
0.0604032
0.0381692
0.107628
0.0860696
0.242255
0.24267
0.363831
0.317531
0.369524
0.33885
0.464038
0.480836
0.548717
0.589942
0.542639
0.45958
0.388666
0.448856
0.767147
0.970948
0.999665
0.981904
0.719958
0.819569
0.892074
0.809039
0.536833
0.222194
0.181918
0.199595
0.302075
0.396857
0.443196
0.49474
0.326682
0.512224
0.377198
0.573191
0.520711
0.768145
0.663283
0.787186
0.414599
0.226346
0.0478809
0.0256033
0.00557088
0.00514847
0.0120732
0.332347
0.995878
0.974085
0.493854
0.262679
0.207955
0.294052
0.351181
0.376565
0.387281
0.379418
0.355973
0.306004
0.195347
0.0713352
0.0190628
0.00646115
0.00304596
0.00220425
0.00190576
0.00200408
0.00209874
0.00266719
0.00477868
0.0158848
0.0595488
0.112885
0.139533
0.15698
0.158397
0.022759
0.341658
0.938669
0.0879845
0.0750255
0.140855
0.0802363
0.11288
0.139831
0.176129
0.195864
0.181049
0.0895455
0.0379581
0.0104688
0.00186467
0.00264505
0.00358724
0.00428158
0.0175567
0.10485
0.224321
0.288712
0.271087
0.351337
0.647184
0.883269
0.922811
0.83606
0.390863
0.0964962
0.999974
0.99915
0.0291552
0.00436452
0.00886355
0.0955912
0.052482
0.0125886
0.0056518
0.00377782
0.0029166
0.00263522
0.00263277
0.00275858
0.00298044
0.00296804
0.00253984
0.00192447
0.00140066
0.00107456
0.000926011
0.00103908
0.00235272
0.0121047
0.0676877
0.274475
0.704033
0.971686
0.999995
1
1
1
1
1
0.772925
0.0999237
0.0644984
0.309085
0.616852
0.652555
0.299903
0.188254
0.25299
0.309183
0.400156
0.468019
0.631088
0.667288
0.810015
0.65674
0.701647
0.50322
0.250058
0.0824856
0.0541437
0.0511554
0.0735378
0.175661
0.464157
0.658753
0.999993
1
1
1
0.999359
0.926128
0.344148
0.0665154
0.215481
0.887452
0.963983
0.845619
0.622146
0.273453
0.354378
0.2163
0.0794719
0.045452
0.0090417
0.000833359
2.50102e-05
4.87636e-06
9.29114e-08
1.39012e-09
4.91539e-10
1.30187e-08
8.59164e-07
1.90766e-05
6.07528e-07
5.1339e-08
0.0536812
1
0.651818
0.606971
0.770143
0.685529
0.524443
0.312508
0.253509
0.231949
0.246222
0.236021
0.263829
0.252548
0.359285
0.298083
0.344443
0.295155
0.437346
0.583611
0.798683
0.91512
0.977733
0.995465
0.999917
1
1
1
1
1
1
1
0.991299
0.984518
0.993109
0.998303
0.999583
0.99965
0.99835
0.997062
0.997437
0.998597
0.999256
0.999177
0.998104
0.997262
0.998326
0.999893
1
1
1
1
1
1
1
1
1
1
1
1
1
1
1
1
1
1
1
1
1
1
1
1
1
1
0.999999
0.999994
0.884913
0.508151
0.443634
0.657565
0.934967
0.994094
0.99844
0.999885
0.999998
1
1
1
1
1
1
1
1
1
0.999983
0.999696
0.999894
0.999998
0.999999
0.998984
0.825488
0.412511
0.491138
0.877831
1
0.931874
0.130828
0.114215
0.0586717
0.0561833
0.099847
0.107254
0.0762996
0.0408681
0.0205803
0.0103615
0.00553111
0.00334884
0.00257062
0.00391253
0.00927497
0.0119036
0.0109817
0.010665
0.0399648
0.0897506
0.262814
0.479833
0.795765
0.969829
0.998922
0.999973
0.999984
0.969942
0.988233
0.483101
0.00909953
0.031533
0.0775958
0.101826
0.104023
0.0939426
0.082371
0.0686943
0.0616501
0.0562342
0.0529531
0.0477843
0.0376153
0.0225969
0.0109683
0.00462437
0.00239942
0.00123287
0.000874431
0.000567126
0.000452861
0.00044328
0.000889593
0.00371036
0.0221794
0.188792
0.359569
0.341121
0.98187
0.869402
0.477106
0.0410878
0.00367998
0.00369026
0.0380071
0.11004
0.190469
0.25552
0.341569
0.302472
0.496594
0.409089
0.613235
0.582887
0.658075
0.599764
0.689981
0.676154
0.777435
0.830118
0.852413
0.807283
0.69449
0.504884
0.340446
0.386493
0.674688
0.945018
0.999005
0.90865
0.476331
0.719532
0.821082
0.729151
0.337344
0.150119
0.112091
0.142795
0.195674
0.285112
0.267994
0.201604
0.188972
0.265532
0.152719
0.386284
0.279776
0.491156
0.329709
0.789808
0.554327
0.346605
0.106035
0.023313
0.0106651
0.00545119
0.0109526
0.282413
0.998839
0.948198
0.326643
0.176502
0.205029
0.276624
0.342752
0.339315
0.341241
0.324982
0.296438
0.238504
0.140093
0.0510512
0.0152276
0.0061089
0.00437181
0.00412986
0.0046852
0.00514833
0.00552304
0.00897425
0.00487168
0.0104208
0.0513485
0.134582
0.152693
0.146726
0.120478
0.00690777
0.218774
0.830938
0.041683
0.0711812
0.0899979
0.0897593
0.130306
0.12964
0.185498
0.14063
0.119821
0.0900035
0.116097
0.0341705
0.00341905
0.00391638
0.00488399
0.00502963
0.00477566
0.0374379
0.176976
0.254878
0.189122
0.153297
0.289125
0.745966
0.936295
0.861118
0.282527
0.0570493
0.999977
0.948109
0.00304449
0.000991351
0.00598401
0.067132
0.0321075
0.00878725
0.00520637
0.00451431
0.00524412
0.00661076
0.00961672
0.0144628
0.0185196
0.0181908
0.0126444
0.00717403
0.00398181
0.00248202
0.00179765
0.00154725
0.00184569
0.00570435
0.0356596
0.126375
0.450413
0.935183
0.999541
1
1
1
1
0.999455
0.60112
0.0629018
0.0179538
0.0916338
0.470953
0.582029
0.239675
0.172484
0.254758
0.382569
0.443034
0.712915
0.671586
0.905533
0.829961
0.877416
0.848829
0.72786
0.503622
0.204179
0.0789967
0.065679
0.160372
0.23692
0.35454
0.753967
1
1
0.99967
0.999731
0.997952
0.971811
0.547843
0.120674
0.0758288
0.598875
0.93038
0.909233
0.780924
0.390878
0.463092
0.308619
0.217341
0.0313102
0.00255418
0.00024865
2.10711e-05
4.07932e-06
5.89235e-08
7.40634e-10
2.74289e-10
6.09959e-09
3.34704e-07
1.47899e-05
2.49298e-07
4.15865e-09
0.137452
0.999953
0.380277
0.441389
0.633211
0.503117
0.371343
0.26703
0.269812
0.378059
0.428225
0.46236
0.488211
0.498766
0.396916
0.390918
0.252105
0.272414
0.229916
0.442256
0.638451
0.821331
0.905326
0.965519
0.992361
0.999926
1
1
1
1
1
0.999997
0.913585
0.965968
0.995
0.999308
0.999223
0.99626
0.990999
0.988501
0.992254
0.994786
0.992391
0.98449
0.97276
0.968637
0.973916
0.990435
0.99986
1
1
1
1
1
1
1
1
1
1
1
1
1
1
1
1
1
1
1
1
1
1
1
1
1
1
0.999989
0.883429
0.407754
0.248938
0.405876
0.860409
0.983312
0.998143
0.999618
0.999974
1
1
1
1
1
1
1
0.999999
0.999977
0.999861
0.999974
0.999997
0.999993
0.995721
0.672537
0.305039
0.491948
0.781846
0.914186
0.999983
0.936125
0.308454
0.348414
0.317413
0.175015
0.13947
0.175339
0.149807
0.0943499
0.049633
0.0244266
0.0123937
0.00726377
0.00547431
0.00848322
0.0204072
0.11548
0.351773
0.338285
0.256432
0.154857
0.122768
0.215051
0.504147
0.843646
0.987703
0.999675
0.999843
0.907052
0.968993
0.329707
0.0266161
0.0768833
0.0927385
0.0796919
0.0640082
0.0502419
0.0423394
0.042903
0.0514776
0.0763468
0.11302
0.171751
0.228512
0.273136
0.2439
0.10393
0.0333295
0.00844703
0.00287362
0.000984638
0.000467363
0.00039753
0.000880166
0.00449151
0.033274
0.272441
0.269818
0.327081
0.979608
0.901843
0.310503
0.00720976
0.00217075
0.0337454
0.16171
0.329357
0.403133
0.547824
0.779738
0.752108
0.851006
0.778595
0.883255
0.800868
0.907201
0.906877
0.959539
0.96541
0.971559
0.946733
0.906468
0.809559
0.621764
0.419725
0.284002
0.354392
0.633377
0.917861
0.997814
0.69835
0.207345
0.55296
0.790595
0.631066
0.383707
0.211254
0.176097
0.165496
0.20797
0.204793
0.138584
0.12509
0.082057
0.0536801
0.071188
0.172317
0.0997746
0.218455
0.10064
0.155783
0.166272
0.17513
0.0735184
0.0186183
0.0101513
0.00637253
0.0135202
0.411343
0.999701
0.92031
0.192171
0.133816
0.186499
0.326773
0.388572
0.300575
0.296224
0.277992
0.254645
0.215291
0.156979
0.0824458
0.0322501
0.0139009
0.0107575
0.0111604
0.0114505
0.0122523
0.0113531
0.00960874
0.00895044
0.00681167
0.0193938
0.0965145
0.153493
0.139669
0.0628252
0.000893766
0.116301
0.856587
0.0206067
0.0454382
0.0583506
0.0475479
0.0840381
0.141811
0.183922
0.18166
0.136394
0.31549
0.360094
0.256446
0.143186
0.00858616
0.00605411
0.00657828
0.00504631
0.00594346
0.117795
0.231876
0.148795
0.0556392
0.069775
0.257735
0.86765
0.848491
0.319046
0.0382428
0.99946
0.710273
0.000371723
0.00026063
0.00278323
0.0435839
0.0242396
0.00760373
0.0050777
0.00555278
0.00840094
0.0156084
0.033093
0.0706314
0.119984
0.11584
0.0618974
0.0261088
0.0111791
0.00573602
0.00368739
0.00289881
0.00271973
0.00407968
0.0191714
0.091376
0.21923
0.781927
0.997041
0.999996
1
1
0.999697
0.991269
0.628663
0.117512
0.013204
0.0119179
0.11167
0.353359
0.296363
0.158503
0.108019
0.143762
0.217378
0.275108
0.344751
0.678721
0.723922
0.874115
0.918547
0.869043
0.675378
0.433381
0.237025
0.196046
0.172058
0.170144
0.0736674
0.0513144
0.974168
1
0.771058
0.994915
0.998319
0.996459
0.898204
0.438778
0.119649
0.300595
0.794824
0.924314
0.849783
0.689011
0.727705
0.423886
0.208679
0.0579876
0.00488186
0.000356293
3.07041e-05
6.82997e-06
1.26386e-07
1.25577e-09
1.75937e-10
3.3624e-09
5.92554e-08
7.80765e-07
6.62343e-08
4.37965e-09
0.23727
0.991426
0.12143
0.332102
0.477457
0.354637
0.228547
0.180385
0.309079
0.490224
0.598156
0.650611
0.669102
0.666032
0.609864
0.313722
0.241743
0.150879
0.205859
0.261755
0.537543
0.703518
0.781998
0.70379
0.824147
0.964127
0.999931
1
1
1
1
0.999716
0.740333
0.955131
0.996511
0.998767
0.994216
0.980899
0.970658
0.979258
0.983749
0.978687
0.961405
0.936819
0.921777
0.875351
0.899485
0.954667
0.992158
0.999996
1
1
1
1
1
1
1
1
1
1
1
1
1
1
0.999998
0.999999
1
1
1
1
1
1
1
1
1
0.999992
0.894185
0.385047
0.183703
0.256174
0.614709
0.959505
0.990942
0.996717
0.998869
0.999562
0.999884
0.999951
0.999975
0.999972
0.999951
0.999913
0.999846
0.999899
0.999966
0.999953
0.999213
0.918971
0.482328
0.363184
0.739971
0.913153
0.932196
0.887364
0.998471
0.89191
0.57905
0.572563
0.556463
0.499914
0.32336
0.226318
0.109843
0.0736979
0.0418136
0.0196933
0.00935916
0.005408
0.00443512
0.0309302
0.404971
0.706396
0.277423
0.0947379
0.0630598
0.0618273
0.0788935
0.0848071
0.213215
0.558445
0.93301
0.997361
0.998488
0.667697
0.906765
0.293912
0.076452
0.0973118
0.0737353
0.0593868
0.0394498
0.0177573
0.0127281
0.0134315
0.0197093
0.0342442
0.0553299
0.0883056
0.123078
0.168931
0.215016
0.158954
0.0615578
0.0138359
0.00300003
0.000718415
0.00033663
0.000352476
0.001302
0.00821025
0.0777688
0.227431
0.364907
0.564027
0.975758
0.887709
0.0225036
0.00131669
0.00492157
0.0553286
0.172425
0.208124
0.2898
0.444938
0.770211
0.686749
0.869039
0.806509
0.948824
0.965802
0.993313
0.987672
0.979966
0.874266
0.797218
0.588146
0.543708
0.457506
0.36276
0.258233
0.24557
0.371828
0.717656
0.902663
0.989731
0.562565
0.10792
0.495918
0.664627
0.674546
0.441347
0.268547
0.18208
0.190569
0.144905
0.1131
0.119324
0.0614183
0.0152579
0.0246081
0.0242731
0.0233446
0.0709282
0.100572
0.041023
0.03283
0.0226966
0.0247919
0.0165641
0.0116838
0.00827376
0.00823903
0.0551099
0.54709
0.999833
0.863313
0.108644
0.107491
0.198472
0.380766
0.343593
0.26316
0.262728
0.251552
0.232318
0.209715
0.181093
0.140433
0.0891181
0.044632
0.0275786
0.0247733
0.0245316
0.0216961
0.0163421
0.0129853
0.0105505
0.00749484
0.00831424
0.036829
0.11494
0.0976082
0.0108249
9.0244e-05
0.0618324
0.756268
0.0349222
0.0345505
0.0510386
0.221929
0.222403
0.219287
0.270485
0.241686
0.335276
0.55962
0.703855
0.861934
0.56207
0.0553328
0.00917304
0.00796906
0.00659117
0.00497866
0.0573934
0.183085
0.124465
0.021565
0.0114352
0.0233089
0.281019
0.814627
0.36972
0.0318517
0.98848
0.138776
5.15634e-05
8.81462e-05
0.00139251
0.0307048
0.0222509
0.00771538
0.00528341
0.00616313
0.0108352
0.0242233
0.0662588
0.174682
0.321694
0.319793
0.161044
0.0592488
0.0237651
0.0116448
0.00724959
0.0055306
0.00480548
0.0052464
0.0128926
0.0773532
0.185994
0.58173
0.986738
0.999471
1
0.999753
0.722377
0.951101
0.800655
0.369797
0.0476061
0.00718864
0.00734423
0.0627297
0.0943927
0.116757
0.0338664
0.0757959
0.0473887
0.0393711
0.039562
0.212943
0.285279
0.771462
0.918518
0.901316
0.821839
0.629396
0.404769
0.247741
0.371134
0.272042
0.0266106
0.00651472
0.0827808
0.968956
0.0789311
0.90363
0.996878
0.999508
0.996437
0.905042
0.503163
0.321924
0.597504
0.845769
0.898329
0.784483
0.799157
0.696234
0.469154
0.137083
0.0163721
0.00080175
0.000108072
1.69999e-05
5.90904e-07
3.79441e-09
5.63732e-10
2.15197e-09
2.66337e-08
1.10824e-07
6.58593e-08
2.59975e-08
0.408691
0.487928
0.013915
0.256628
0.431086
0.290283
0.264995
0.234706
0.407358
0.592705
0.771781
0.88896
0.900615
0.871159
0.5972
0.37886
0.16196
0.143877
0.125403
0.288216
0.439438
0.570736
0.217028
0.113699
0.178083
0.491268
0.909199
0.999983
1
1
1
0.987144
0.553081
0.946186
0.997381
0.997095
0.985019
0.955056
0.941225
0.969594
0.972181
0.95865
0.962579
0.967615
0.941232
0.924288
0.891586
0.860994
0.959951
0.998325
1
1
1
1
1
1
1
1
1
1
1
1
1
0.999994
0.999992
0.999999
1
1
1
1
1
1
1
1
0.999981
1
1
0.998655
0.842916
0.434009
0.181639
0.116983
0.401077
0.779705
0.940738
0.97961
0.979492
0.980059
0.980606
0.979664
0.982538
0.984026
0.986555
0.988246
0.98946
0.985256
0.970524
0.912104
0.585731
0.31382
0.403193
0.757354
0.774286
0.543918
0.407379
0.440959
0.653268
0.972549
0.94512
0.636088
0.681887
0.698986
0.587838
0.582759
0.478816
0.289561
0.181397
0.0629621
0.0143896
0.00657927
0.00332381
0.00432383
0.0339203
0.176376
0.208391
0.0844471
0.043999
0.0230694
0.0157228
0.0217397
0.0554759
0.0835668
0.120024
0.370532
0.864596
0.991533
0.980479
0.214161
0.0188955
0.15712
0.192078
0.0918985
0.119321
0.0877114
0.0495555
0.02874
0.0175471
0.00540545
0.00320249
0.00324414
0.00498061
0.00849627
0.0125767
0.016082
0.0155894
0.0146041
0.014301
0.0117226
0.00616916
0.00214657
0.000621791
0.000254519
0.000219652
0.00048671
0.00180588
0.0158511
0.130831
0.315316
0.52632
0.597762
0.819244
0.987499
0.790003
0.004816
0.00059184
0.000239978
0.000936173
0.00495735
0.0229055
0.047944
0.0550605
0.091911
0.203678
0.247328
0.566184
0.555929
0.821443
0.638925
0.573742
0.230443
0.166149
0.0852149
0.111563
0.0971036
0.121548
0.167068
0.172358
0.206797
0.298001
0.524704
0.813764
0.853568
0.57428
0.376904
0.295906
0.00331232
0.0185757
0.28846
0.700849
0.746585
0.74428
0.717567
0.522186
0.277472
0.141136
0.133544
0.0748133
0.0219675
0.0184171
0.00672148
0.00208345
0.0100108
0.0244304
0.030149
0.0480599
0.0365591
0.0139562
0.00763509
0.00763681
0.00788052
0.0126244
0.0405611
0.265374
0.669123
0.780906
0.762989
0.723181
0.0937915
0.0599863
0.0838075
0.196518
0.294417
0.243753
0.244908
0.254566
0.252752
0.239928
0.219905
0.200806
0.182296
0.155425
0.111078
0.0663602
0.0456836
0.0392686
0.0293136
0.0188986
0.0123513
0.0100906
0.00841861
0.00680092
0.0115809
0.0457547
0.0243119
0.000194861
6.51453e-06
0.000154585
0.44224
0.947934
0.159073
0.0344169
0.0427505
0.117332
0.298088
0.358193
0.357783
0.343931
0.44045
0.480105
0.657266
0.905298
0.912404
0.710338
0.164559
0.0145571
0.0109662
0.00900539
0.00534328
0.0202425
0.150701
0.120349
0.00963982
0.00237544
0.00220022
0.00991536
0.280421
0.425561
0.0542829
0.0414544
0.674133
0.877046
0.0271673
0.000134983
3.2625e-05
0.000618639
0.0180694
0.0258666
0.00935045
0.00603312
0.00658645
0.0104956
0.0232197
0.0570843
0.136
0.227415
0.232542
0.136758
0.0632678
0.0305692
0.017306
0.0118885
0.00972853
0.00897443
0.00918829
0.0142157
0.0652113
0.212479
0.459973
0.881073
0.828456
0.464238
0.918986
0.756229
0.0428067
0.106577
0.4514
0.723921
0.615092
0.232071
0.0490897
0.00575423
0.00234631
0.00649112
0.00683098
0.00601508
0.00851819
0.00684875
0.0100344
0.0122203
0.0228363
0.0978023
0.642762
0.863689
0.890295
0.876239
0.795376
0.611548
0.495195
0.452847
0.29044
0.0218246
0.000131575
1.76875e-06
0.00322333
0.00309823
2.08048e-08
0.00160052
0.547361
0.978903
0.999639
0.999536
0.996699
0.948031
0.69433
0.635262
0.748917
0.875514
0.776652
0.895866
0.729037
0.524164
0.219675
0.0165989
0.00157514
0.00146335
8.06751e-05
3.45884e-06
3.62801e-08
1.10087e-09
1.72934e-09
2.16323e-08
7.89562e-08
1.15203e-07
4.74019e-06
0.031613
0.66867
0.00030925
1.53419e-07
0.00263252
0.16186
0.361197
0.31955
0.279239
0.248941
0.447465
0.716171
0.895254
0.980262
0.971469
0.873783
0.555359
0.390853
0.147948
0.128101
0.159012
0.242151
0.454707
0.201863
0.0363791
0.028588
0.055962
0.170949
0.678073
0.992651
0.999971
0.999992
0.990796
0.999937
0.829487
0.00223291
0.364367
0.954842
0.996508
0.991006
0.962439
0.93223
0.944047
0.964478
0.968834
0.975733
0.985293
0.987662
0.983907
0.932267
0.91348
0.816134
0.879398
0.973875
0.999984
1
1
1
1
1
1
1
1
1
1
1
1
1
0.999999
0.999973
0.999995
0.999998
0.999999
1
1
1
1
1
1
1
1
1
1
0.998979
0.92949
0.626447
0.206097
0.0892828
0.159413
0.373072
0.653245
0.753114
0.813788
0.766822
0.712982
0.662883
0.566736
0.561995
0.556084
0.564035
0.594201
0.608585
0.50399
0.298121
0.194238
0.193411
0.442466
0.560882
0.437081
0.268882
0.202945
0.278363
0.434792
0.433588
0.59726
0.362882
0.504592
0.487835
0.478589
0.541733
0.390054
0.271094
0.132849
0.0475535
0.0186467
0.00938337
0.0123128
0.0330735
0.0523931
0.067676
0.0394048
0.0272901
0.0159701
0.0081056
0.00440513
0.00483566
0.0136481
0.0613277
0.13249
0.429532
0.867551
0.962778
0.693178
0.0328307
0.00825271
0.0854422
0.167963
0.165784
0.113458
0.0635419
0.0317929
0.0154609
0.00537193
0.00199826
0.000947911
0.000807381
0.00111948
0.00181585
0.00268693
0.00280199
0.00206301
0.00130245
0.00080006
0.000766932
0.000345555
0.000193444