/*--------------------------------*- C++ -*----------------------------------*\
| =========                 |                                                 |
| \\      /  F ield         | OpenFOAM: The Open Source CFD Toolbox           |
|  \\    /   O peration     | Version:  2.1.1                                 |
|   \\  /    A nd           | Web:      www.OpenFOAM.org                      |
|    \\/     M anipulation  |                                                 |
\*---------------------------------------------------------------------------*/
FoamFile
{
    version     2.0;
    format      ascii;
    class       volScalarField;
    location    "0.003950000";
    object      p;
}
// * * * * * * * * * * * * * * * * * * * * * * * * * * * * * * * * * * * * * //

dimensions      [1 -1 -2 0 0 0 0];

internalField   nonuniform List<scalar> 
12384
(
775447
773331
769370
765107
757640
756307
749755
752150
754593
752422
754469
749602
750197
747545
893669
921060
923953
943751
948270
957377
966483
964718
980477
987586
985844
962462
945942
927484
932357
928672
934276
938905
939661
940234
937696
932279
923385
910613
899666
880982
878022
854500
860783
851358
724707
727631
724675
719139
712235
707231
703434
713861
718093
732571
743495
753888
760637
761367
756259
754872
734871
718336
721391
697861
689171
696757
687783
692279
690940
688318
695360
699368
706608
714847
659690
660761
664988
660288
663079
660416
664837
654629
649308
654124
625534
616776
643380
605940
689695
663528
735911
736737
749114
740391
735389
720304
714956
700519
703315
701966
699672
709512
707739
708049
577087
570991
572032
583701
582150
586805
585105
590003
580889
601113
581765
626189
601436
657994
636797
686752
669947
710347
687563
739159
720984
769736
764824
783420
784099
782461
788667
785829
795261
795124
1.05082e+06
1.02785e+06
1.00948e+06
974569
923376
916425
889487
875440
873385
868248
845533
848112
789217
766053
763991
667276
709316
607810
653829
579764
619433
590883
619756
632800
656858
665979
685004
686648
702926
707620
639227
642244
644893
643732
643389
647844
646243
653388
659619
656514
678813
667020
698951
688274
722517
714222
744579
747524
754472
774306
784194
787911
841890
850268
863776
823484
794302
724776
682199
626674
748174
746202
743153
758114
752013
781214
776814
818927
817385
853131
830843
816609
668639
728311
629334
677043
662787
674917
676536
671888
659338
650318
626997
622176
608831
610081
623816
637153
645046
653690
543991
539130
536576
524640
531777
522565
573344
549765
631351
623908
646733
696014
682313
703284
729388
739568
750591
754994
751032
733852
726707
697345
699190
663095
675569
650168
649978
647207
643371
637558
676492
705066
708286
711313
725716
728643
735085
741943
749188
751229
754175
752795
752010
754846
737208
736131
705928
764649
737052
818193
864170
917914
948493
957896
941299
894170
865669
843189
872129
901172
1.08312e+06
1.09925e+06
1.1359e+06
1.14116e+06
1.17796e+06
1.16037e+06
1.22847e+06
1.22634e+06
1.30109e+06
1.1474e+06
1.15608e+06
853512
1.00528e+06
969799
1.0057e+06
1.02343e+06
1.06185e+06
1.09246e+06
1.11194e+06
1.11303e+06
1.09899e+06
1.06369e+06
1.01273e+06
944505
873356
825030
813084
848651
876871
894053
1.04733e+06
1.08296e+06
1.09687e+06
1.14591e+06
1.17573e+06
1.20146e+06
1.19328e+06
1.18565e+06
1.06755e+06
1.12256e+06
968528
1.06509e+06
992373
1.14226e+06
1.1089e+06
1.20639e+06
1.20449e+06
1.25341e+06
1.26335e+06
1.27835e+06
1.28085e+06
1.28014e+06
1.27738e+06
1.27695e+06
1.27183e+06
1.2731e+06
1.25222e+06
1.25164e+06
1.2245e+06
1.23083e+06
1.15501e+06
1.16815e+06
1.14289e+06
1.15701e+06
1.1755e+06
1.19993e+06
1.19944e+06
1.22042e+06
1.22314e+06
1.22242e+06
1.21427e+06
1.19595e+06
1.16456e+06
1.15903e+06
1.08274e+06
1.08518e+06
1.06158e+06
1.07624e+06
1.06642e+06
1.14007e+06
1.11951e+06
1.17522e+06
1.2058e+06
1.24433e+06
1.2943e+06
1.34826e+06
1.3906e+06
1.42767e+06
1.4405e+06
1.45514e+06
772618
772813
767201
765964
755137
758513
750139
754386
752920
757078
753524
753448
751846
743640
908796
924253
940844
943797
956371
953417
954674
963661
963480
974133
968800
955685
936150
932522
921978
928850
929225
933004
935775
933867
931969
925385
916736
903686
893271
877393
871218
857604
855296
851132
718728
718926
713967
707051
700093
697033
699617
693237
709924
718396
731898
742761
750098
754318
755025
742903
744430
715923
707959
706714
691756
688729
692392
693904
692168
692221
696646
700988
707095
713913
659822
659529
658454
662245
660055
666028
659264
663487
649626
651975
634621
615150
627515
620589
663749
669665
715370
734842
735479
728720
714043
709852
697815
700422
695652
694650
701807
704439
707944
705728
566037
577990
578590
581002
582895
581253
582977
578691
584707
585865
581678
613005
602146
650346
638873
683019
670968
708329
687491
739034
721587
767112
765566
782318
783822
783422
786607
786843
794720
794823
1.04053e+06
1.02179e+06
998799
970839
922643
912582
883994
884987
873518
872993
849198
834944
809353
745772
756606
675203
697103
614201
648347
581611
610407
590517
601648
627687
638738
661140
675084
689563
699263
708618
640434
641020
642397
649659
654960
659643
661611
656221
662935
663286
678084
673537
698561
694005
718729
724224
739350
752989
753001
776975
766476
829294
842798
871357
859803
821788
788625
751511
746349
734696
734192
742904
742393
752727
754369
768501
776550
803448
815977
844433
831604
816231
679827
724573
629435
682472
669632
680113
685060
683048
674026
659504
642553
630581
624890
615697
622880
631748
642245
652826
552355
540112
536159
528058
522164
548437
540547
573478
614620
611140
669412
666193
682983
704412
722075
735945
749077
752729
748028
736275
721210
697518
702389
668892
675661
659820
654926
647373
646270
640549
693667
694292
706889
714427
713883
726069
730031
731306
736910
740860
735462
730315
729981
719524
716978
686517
707888
711260
742976
773887
813385
844277
867133
871668
855537
817382
774088
762865
804743
857643
1.06787e+06
1.10617e+06
1.1206e+06
1.14436e+06
1.15259e+06
1.16278e+06
1.20318e+06
1.2493e+06
1.26328e+06
1.15728e+06
1.04997e+06
908864
896946
946473
954953
999010
1.02274e+06
1.04994e+06
1.06468e+06
1.06657e+06
1.05196e+06
1.02211e+06
972185
904219
828435
779102
766207
800519
839412
888009
1.06457e+06
1.08748e+06
1.11385e+06
1.14713e+06
1.17741e+06
1.19092e+06
1.18699e+06
1.15511e+06
1.08072e+06
1.09135e+06
988122
1.02696e+06
1.01238e+06
1.09694e+06
1.12754e+06
1.17431e+06
1.20115e+06
1.22937e+06
1.25637e+06
1.25803e+06
1.26214e+06
1.26238e+06
1.25871e+06
1.25174e+06
1.2498e+06
1.23147e+06
1.22926e+06
1.20309e+06
1.21034e+06
1.18804e+06
1.14074e+06
1.15487e+06
1.16739e+06
1.15208e+06
1.17902e+06
1.18838e+06
1.19715e+06
1.20722e+06
1.20865e+06
1.20781e+06
1.19937e+06
1.19268e+06
1.16365e+06
1.16568e+06
1.09684e+06
1.10887e+06
1.07954e+06
1.08276e+06
1.09701e+06
1.13865e+06
1.12767e+06
1.18787e+06
1.20327e+06
1.25127e+06
1.27835e+06
1.32281e+06
1.3632e+06
1.38588e+06
1.41755e+06
1.42613e+06
771401
770226
767197
762922
759894
755797
755963
753009
758361
755225
758377
759127
751098
757421
912205
932850
942641
955802
955829
960926
947525
938858
947857
947013
953807
941073
933752
914603
919849
915273
922749
922733
924693
924683
921965
916437
909211
896448
887391
872246
867456
850294
854218
844952
711799
708740
701220
692658
685965
680222
677001
692557
690392
702840
715121
727874
738280
744245
742117
743384
731439
724267
696495
693554
693051
690110
693795
695049
695735
695863
696518
701334
707709
711473
670286
674168
677460
675405
676307
670192
673524
660100
660996
639877
645130
610318
628438
614492
651272
653108
699785
707902
713927
702001
695576
682308
687674
681658
688629
691336
701985
705551
709928
712862
586958
577240
580334
578848
578150
578628
573522
575544
566882
586593
566171
614338
589757
652572
635099
684639
668947
710086
686361
739480
723095
768258
769518
778592
779212
781556
780961
788723
792871
797049
1.02279e+06
1.00634e+06
984414
967937
913194
918966
884721
894285
876471
875822
854855
825463
815798
735152
763870
668006
702430
613741
648321
577233
610752
580450
597682
613439
629581
646797
665457
681221
695062
703987
657616
658659
660101
657288
656500
656283
662277
670708
671551
676647
678755
686585
693687
705969
715384
730023
738649
744454
760837
754092
802264
816810
865456
871368
842430
799483
785163
743311
745005
740934
739054
740408
738884
750896
748045
763135
759692
789324
799054
830906
827969
825830
687658
726640
641621
679246
674726
689127
696468
696722
688992
677916
659817
642065
628114
631978
629053
628860
633625
642553
543849
549530
538200
526241
531679
548478
537047
578428
608045
611304
650696
655065
676664
700455
713659
729243
745591
749334
746568
732544
721167
701938
701049
673110
680279
662548
663452
653858
646624
647501
693578
695505
704120
707726
717787
712970
724300
725054
720792
719464
713501
704620
687359
692729
656420
683942
661986
690193
700263
738078
762484
780920
793385
798391
783999
761791
763117
769496
766617
784480
1.08165e+06
1.08465e+06
1.11911e+06
1.12007e+06
1.1357e+06
1.14579e+06
1.17703e+06
1.22469e+06
1.24831e+06
1.1529e+06
997668
847571
914157
905777
931327
934880
978794
996382
1.00698e+06
1.00253e+06
988312
957439
906726
838540
761020
713205
702493
750504
792888
820225
1.07951e+06
1.09593e+06
1.11535e+06
1.13931e+06
1.15642e+06
1.17031e+06
1.15501e+06
1.14383e+06
1.06331e+06
1.08004e+06
986595
1.02718e+06
1.01469e+06
1.07963e+06
1.08207e+06
1.16695e+06
1.1793e+06
1.2088e+06
1.21753e+06
1.24067e+06
1.23727e+06
1.24164e+06
1.24219e+06
1.23703e+06
1.22215e+06
1.21873e+06
1.19573e+06
1.19869e+06
1.16764e+06
1.17292e+06
1.1878e+06
1.1654e+06
1.16065e+06
1.15349e+06
1.16374e+06
1.17374e+06
1.18353e+06
1.19053e+06
1.1883e+06
1.18536e+06
1.1867e+06
1.1749e+06
1.16338e+06
1.15566e+06
1.10182e+06
1.11058e+06
1.09438e+06
1.10493e+06
1.1062e+06
1.14688e+06
1.14348e+06
1.18644e+06
1.2119e+06
1.24551e+06
1.27141e+06
1.31506e+06
1.33198e+06
1.35204e+06
1.35871e+06
1.40072e+06
767748
767396
764880
764277
759381
758352
754701
760415
757276
764660
761844
755407
757861
750572
944517
955047
964762
965326
964870
954618
948327
936854
914780
922890
924202
932274
913187
912165
901856
912953
911192
914130
912425
912107
910717
907731
899118
891416
876444
872428
853668
855578
840998
844148
700146
691913
684586
677022
671096
666363
664615
654735
672499
687181
699060
710495
720769
728413
737641
731684
725220
719088
697001
682870
683615
689765
691943
698311
698678
698506
699622
700767
707779
709996
679819
679772
674997
677130
680575
682832
675146
674786
655089
650648
632605
611911
615080
616702
623309
652728
665900
684827
673271
667859
655581
661828
658186
670892
677059
682744
702792
703272
712994
712282
584853
586642
580062
583930
575051
573287
569423
562020
567956
563065
565689
601170
588650
646960
635751
683178
672036
709792
690812
741850
727440
768930
768756
776836
774991
775145
781180
785490
794382
795914
996726
984708
975824
946001
922908
910141
897886
890816
887114
875222
861810
819850
818489
736360
755174
670785
701428
615225
645778
581654
603203
584346
599408
598019
617630
636460
650792
675907
687397
702175
672955
672673
672625
675627
678152
677014
674368
674219
678421
678022
682262
693772
697513
710455
719324
726904
735376
737961
741940
772379
779682
834079
860982
851361
817176
783751
757357
758142
760284
787974
717129
725911
739597
739694
745815
741744
759244
758928
794232
808644
832417
805067
708019
729424
642086
672116
683673
696915
706698
709374
705396
695274
683085
666758
649329
635265
635035
632850
628159
629575
566093
545476
554126
541300
534433
555327
531523
591941
574590
620527
632523
640864
664352
685052
702803
719538
734392
744808
739793
732330
720183
705891
697130
684035
682479
671580
670843
669283
666588
655966
691434
692610
705715
702190
710444
715554
708685
712925
707014
699321
688043
675905
672118
643804
651494
609441
658671
672434
665955
718105
730218
739901
748187
753074
759374
755712
738034
749758
749525
769967
1.05634e+06
1.08686e+06
1.08244e+06
1.11851e+06
1.11373e+06
1.12314e+06
1.15286e+06
1.19833e+06
1.21106e+06
1.13676e+06
972267
881717
807923
818489
857824
908344
901265
919428
924241
914703
896084
860129
812768
742736
684547
634209
618224
639942
696607
784606
1.09081e+06
1.09867e+06
1.11881e+06
1.12341e+06
1.13696e+06
1.13048e+06
1.12492e+06
1.08293e+06
1.07112e+06
1.01453e+06
999002
976252
1.03523e+06
1.02812e+06
1.09716e+06
1.10009e+06
1.1664e+06
1.1735e+06
1.19592e+06
1.19505e+06
1.2152e+06
1.20578e+06
1.21446e+06
1.20896e+06
1.20974e+06
1.18245e+06
1.17726e+06
1.14154e+06
1.14643e+06
1.11755e+06
1.1805e+06
1.17648e+06
1.16259e+06
1.14789e+06
1.14857e+06
1.16163e+06
1.15764e+06
1.16195e+06
1.16637e+06
1.16841e+06
1.16328e+06
1.16514e+06
1.16059e+06
1.13986e+06
1.11168e+06
1.12029e+06
1.1155e+06
1.09976e+06
1.14256e+06
1.13158e+06
1.17918e+06
1.17597e+06
1.21741e+06
1.22818e+06
1.26363e+06
1.28127e+06
1.31678e+06
1.3281e+06
1.35199e+06
1.33747e+06
766202
763912
765348
760684
762001
758759
762847
759061
767278
762908
765872
773028
773427
764946
950804
968450
974554
979327
968726
950031
950743
917520
909232
906158
903357
896298
906489
899016
899952
891191
893466
892341
900143
900774
897957
896359
890234
882980
872229
859282
855560
837927
835040
822806
687609
680809
673454
663689
652382
644304
647513
659959
656132
659711
677263
693296
707111
718529
720583
724411
721495
705693
691257
688072
679848
689633
690485
699681
700952
701412
701481
703129
705493
709794
693920
693845
697339
702287
700840
697236
689404
670744
664341
632984
638491
601237
613808
594884
617041
620428
651362
650872
660241
646882
646411
632357
644835
656739
661668
684751
695220
705952
711565
719082
595745
599262
596271
579864
579874
567026
563539
556419
549770
571311
550488
604425
582489
647817
634049
684599
674117
712135
699129
743847
736876
765141
772137
772821
772924
773556
776362
788217
791933
799043
964659
961277
946734
936388
913731
915433
897056
901132
889846
880281
860963
827312
811349
731583
761099
672596
695253
620768
647724
578347
608706
572925
593457
585657
619076
616811
654004
661570
686390
693564
689948
689281
691347
691419
690008
690650
688335
685714
684967
688289
689652
696642
701635
708822
714349
716866
715741
714399
738435
725671
799226
829208
836733
819530
797191
770936
753948
750981
770661
783325
720089
725592
723230
727771
727850
733165
735516
748105
764118
800116
796437
782923
742093
703732
645185
672041
686852
701571
712038
717383
717738
710539
699234
686681
677230
658458
637264
634847
638370
621432
551989
566474
542822
545504
536593
544441
545885
568381
593702
596569
617040
643895
636062
660008
686453
708905
721060
729691
735426
728881
719771
707092
702729
688971
689549
675316
672178
667618
668787
676730
698810
695701
703311
705469
703812
706667
704697
697305
699105
687048
658318
639250
602418
606375
575280
616827
605574
671011
654633
713683
715568
726198
730331
756625
756679
745371
748573
760696
764463
751899
1.02547e+06
1.05081e+06
1.08846e+06
1.07856e+06
1.1016e+06
1.1117e+06
1.12926e+06
1.17636e+06
1.18318e+06
1.12677e+06
991931
913756
798299
847244
821331
799475
841321
836598
824486
813182
797819
761099
721064
667305
597532
551620
550955
591054
689147
658523
1.09719e+06
1.09429e+06
1.10898e+06
1.10534e+06
1.10554e+06
1.09533e+06
1.06319e+06
1.05201e+06
1.00914e+06
991903
967469
978580
972399
1.04091e+06
1.0379e+06
1.10407e+06
1.09218e+06
1.14585e+06
1.14858e+06
1.17116e+06
1.16345e+06
1.19067e+06
1.17993e+06
1.18105e+06
1.1627e+06
1.16368e+06
1.1421e+06
1.1535e+06
1.12974e+06
1.13536e+06
1.18424e+06
1.16005e+06
1.14889e+06
1.12769e+06
1.13415e+06
1.128e+06
1.14619e+06
1.14331e+06
1.14523e+06
1.14671e+06
1.14705e+06
1.14458e+06
1.13271e+06
1.12024e+06
1.12e+06
1.11513e+06
1.11249e+06
1.10878e+06
1.14385e+06
1.15303e+06
1.15527e+06
1.1957e+06
1.20129e+06
1.21986e+06
1.24682e+06
1.26206e+06
1.2699e+06
1.26186e+06
1.27389e+06
1.3077e+06
758409
760355
759606
762314
761459
763962
762399
769645
766222
774756
773620
775728
767643
785370
975626
988089
989381
984650
969565
955389
939461
905685
917410
896759
902826
907541
892584
893353
885756
884697
888618
893163
883315
889646
891636
887821
884823
870016
860773
854667
840529
835310
821422
828681
681131
674558
671643
657102
650350
644473
641807
639749
648433
659524
665406
676542
691730
702909
714433
717665
711816
702634
683967
688991
673353
684975
686879
698599
702568
703184
703584
701964
704925
704907
705105
706179
707616
710265
712413
706441
695082
675941
655138
642428
619945
605164
591131
598231
588339
615263
614595
632686
620118
623855
617432
634154
633622
642487
668589
675668
696858
704970
712286
721535
615398
605554
597992
595166
576180
574408
561301
554582
555000
565154
552054
598753
585218
641897
640492
680206
683040
718936
707472
742112
741419
764956
766019
769813
768343
767197
779827
787437
796215
796532
931674
932096
931102
918370
917298
901833
905477
901392
896222
882151
867676
830960
787841
757931
750262
674385
701450
628446
639529
586396
607759
574550
587062
588186
600776
635124
634094
668045
677895
694107
710496
710971
710984
711165
710506
705250
702924
696436
692186
691509
693186
694980
696762
696012
695358
690701
686436
676568
705653
744283
805616
809953
812084
799873
776996
758309
757064
754254
752023
781655
708029
715754
734379
734657
740144
741676
730184
745162
747474
764231
763669
779870
716986
686599
660277
673219
686282
700535
712857
719953
720794
718453
710130
700370
689484
684352
674527
648805
620914
623504
572241
558282
579249
564800
571354
557694
550347
583712
574602
609644
606247
614271
644231
639799
659367
687559
710123
719789
724095
722965
714820
710378
700001
694275
690792
685983
687387
677613
676455
671675
689528
703862
704555
708845
705574
701008
704568
703719
688100
668781
647032
636086
610869
584002
594031
562413
631022
619554
679115
714753
735654
747807
741721
741282
749362
780562
780194
770301
772149
766049
1.0387e+06
1.02064e+06
1.03476e+06
1.0438e+06
1.07969e+06
1.07345e+06
1.13275e+06
1.15708e+06
1.16734e+06
1.12832e+06
1.00782e+06
926626
775101
820382
802610
832338
794506
795962
805284
786747
756649
714266
673931
613673
598548
550253
550421
603587
590698
700115
1.09408e+06
1.09176e+06
1.08246e+06
1.07218e+06
1.05923e+06
1.04207e+06
1.02511e+06
988636
971962
952625
947663
948196
973264
971445
1.03676e+06
1.03587e+06
1.09884e+06
1.07561e+06
1.12746e+06
1.12001e+06
1.1396e+06
1.12797e+06
1.1506e+06
1.13588e+06
1.14656e+06
1.13513e+06
1.14027e+06
1.11358e+06
1.11574e+06
1.10381e+06
1.16377e+06
1.14673e+06
1.13284e+06
1.11727e+06
1.11262e+06
1.12191e+06
1.11787e+06
1.1252e+06
1.11218e+06
1.10803e+06
1.11233e+06
1.10211e+06
1.09384e+06
1.0956e+06
1.09882e+06
1.09231e+06
1.08786e+06
1.11949e+06
1.14505e+06
1.1409e+06
1.18072e+06
1.17138e+06
1.20615e+06
1.20793e+06
1.22216e+06
1.2424e+06
1.26773e+06
1.27541e+06
1.26802e+06
1.21685e+06
759952
757427
758956
758228
763926
762305
771072
768774
779982
776789
788504
783038
795814
801359
998550
997301
1.00146e+06
988850
969905
960209
919683
920584
902444
888752
893114
888330
893527
878839
879872
882705
873975
873319
882136
870288
876150
874180
867706
866636
856604
841040
828866
811458
809441
804524
691658
676377
671115
666206
646378
644218
637632
633504
635737
641876
652828
666960
677697
688826
699205
704978
706616
703470
682142
680689
677610
675213
682155
695162
699470
703652
703655
701757
700986
701338
710914
713608
717755
722529
719949
712549
693607
675580
651739
627184
628735
588526
601174
580315
595285
587744
613580
599406
606033
596132
601251
618262
616428
653113
663938
681780
699901
708042
716333
729482
630919
625371
613422
599411
593185
573194
571812
557005
549994
568517
555379
598794
589035
651834
638014
691416
683519
718076
710932
740827
737759
757902
763901
761268
767838
770416
785152
789842
798686
801796
889131
895694
896256
913170
893333
903629
897389
900636
892789
888467
861597
820350
804369
762542
725078
693768
696072
629299
650243
593711
610258
583973
595480
596470
602952
635915
644718
661590
685882
689105
726073
726185
727239
726942
723079
717734
707754
704391
697342
692090
689686
688175
684251
680961
672094
659189
665354
649111
711788
760891
783940
799690
790277
777933
764733
757692
740394
736070
753480
767150
754993
713623
708377
715127
710233
717560
732497
736967
747571
735670
764330
731289
699127
703622
654547
671189
683071
695647
708028
713919
716127
713608
708926
704500
694032
687257
683287
677757
674647
646960
632820
603867
564044
567550
552596
578015
567383
579468
588264
593530
618056
611307
619295
645382
645297
659727
690461
707434
711606
710362
709717
704154
700373
696567
690724
685979
681782
690164
687098
686202
706384
707168
711120
708711
712761
701688
701583
697807
681377
676495
642693
625262
594227
594502
570210
567627
618934
632227
692629
742627
763515
755830
765315
775074
787880
764685
773454
781794
771601
766863
979011
991951
1.0414e+06
1.03727e+06
1.08231e+06
1.07427e+06
1.12901e+06
1.15649e+06
1.16762e+06
1.12409e+06
1.0281e+06
930888
807146
843211
778143
783557
795594
794479
799115
782458
758395
707832
700441
605789
616646
522845
539411
569916
641780
643403
1.0697e+06
1.0623e+06
1.0572e+06
1.03665e+06
1.01117e+06
978408
953725
941110
926670
908110
887854
894545
912589
982085
967162
1.03123e+06
1.03169e+06
1.0854e+06
1.06045e+06
1.1001e+06
1.10376e+06
1.13324e+06
1.11376e+06
1.1374e+06
1.11834e+06
1.12788e+06
1.10699e+06
1.12062e+06
1.11418e+06
1.12062e+06
1.14998e+06
1.12882e+06
1.11371e+06
1.10455e+06
1.09335e+06
1.08545e+06
1.08882e+06
1.08823e+06
1.09446e+06
1.08415e+06
1.06674e+06
1.05396e+06
1.05066e+06
1.06111e+06
1.03263e+06
1.05537e+06
1.08629e+06
1.0933e+06
1.14043e+06
1.14663e+06
1.15709e+06
1.18651e+06
1.17953e+06
1.20861e+06
1.21093e+06
1.21325e+06
1.20997e+06
1.20683e+06
1.21864e+06
1.24237e+06
750708
755774
755094
761789
759761
770401
768512
780596
777907
792429
793992
802316
817517
797689
1.00212e+06
1.01096e+06
1.00425e+06
994425
977023
936773
943657
903321
897686
896965
881606
881579
876709
885723
876219
865820
869832
863109
862297
874474
865043
870380
866115
859071
840864
836372
814213
818444
801314
810769
676710
694568
676062
666913
663438
641594
645852
638382
639398
642589
646319
657512
667834
682330
691437
699326
705590
695548
688559
673455
673352
666201
673712
690316
695600
704316
703657
701946
698994
695048
710486
715472
721615
721229
720116
708067
693336
673498
648592
628527
617618
589650
596922
582926
582002
595342
591067
608030
599939
604082
600699
627671
620872
660842
672432
689918
702441
711048
719354
727132
670449
648984
631364
613073
602057
584352
574986
561002
554440
577331
555361
607093
594545
646208
647224
691786
687771
720328
708141
739027
732504
751760
756010
765927
769575
780905
794770
805839
805826
801524
879750
882866
892833
872804
896331
889800
887912
888494
896866
871788
841577
835286
785713
742661
742638
706946
663867
664651
645390
611768
607136
602711
601784
603580
612747
633107
653918
667156
681347
692808
733218
736116
737155
735570
729482
719756
710346
703442
691845
684970
676856
666537
661395
648504
635132
629580
635475
669050
728243
746226
776971
771798
771001
761906
759945
746196
740566
730782
752791
761005
760431
790352
765152
775436
786749
771144
757561
758328
739166
748696
727001
708444
706593
687097
657439
672421
675747
688867
696314
700129
698812
698009
696581
691532
687858
687576
683884
693113
699881
696096
603552
634384
628890
611513
601157
568777
595202
589958
586263
604824
610632
632071
625418
646652
642382
666403
670914
692952
705660
707825
703909
698203
698164
695358
699491
693987
693622
681927
691679
698815
726348
724033
725721
719000
713465
709702
701064
694526
683000
675192
650690
614136
623005
600750
579498
567090
630711
627032
727632
786884
792628
784431
780964
786629
780937
809755
805665
804529
780445
762164
971936
980457
1.03357e+06
1.03165e+06
1.07932e+06
1.10903e+06
1.1349e+06
1.16417e+06
1.17592e+06
1.14194e+06
1.03501e+06
981952
840048
847581
817816
822422
815073
818811
808760
794242
778906
765136
700397
678501
601657
626547
644400
693174
733269
802268
1.01334e+06
1.04266e+06
1.0465e+06
1.03873e+06
992848
986479
945639
932406
893167
879591
875473
872223
915245
922476
983810
988976
1.03619e+06
1.03475e+06
1.07826e+06
1.06198e+06
1.08812e+06
1.06986e+06
1.07819e+06
1.074e+06
1.09041e+06
1.0737e+06
1.10281e+06
1.10323e+06
1.10912e+06
1.11557e+06
1.13383e+06
1.11709e+06
1.10982e+06
1.09421e+06
1.09777e+06
1.09202e+06
1.0778e+06
1.05661e+06
1.05733e+06
1.03888e+06
1.0159e+06
1.01876e+06
1.0266e+06
1.00303e+06
1.02554e+06
1.04293e+06
1.02999e+06
1.10572e+06
1.09591e+06
1.15405e+06
1.15098e+06
1.16649e+06
1.18803e+06
1.17973e+06
1.19789e+06
1.19806e+06
1.2221e+06
1.22948e+06
1.20776e+06
1.17322e+06
752466
750065
755878
755680
765977
765307
779387
777780
793732
797027
801901
828551
818977
889691
886277
931075
988930
992998
1.00219e+06
995161
963901
957945
925374
904328
907163
882575
884931
880187
873032
868594
858283
855450
852713
857099
848622
846624
860289
854576
857783
848905
844870
822729
808066
796137
787933
788995
784672
761557
725126
707586
697500
667800
666869
655743
640076
643296
641631
642663
645981
653388
661370
672543
681695
692294
690928
693696
687843
668592
670353
665986
671206
687287
698211
706068
710611
702087
690962
681410
661741
673525
684911
693441
712465
719492
711345
703923
688001
668426
647388
627025
613066
591350
596731
583632
596533
589668
595385
604954
612607
615988
632239
636879
658579
678353
693709
704346
713024
725934
734837
747980
735050
732583
683416
659474
643580
626140
607818
591684
589490
562020
562359
575915
562016
611706
595385
658523
645724
692938
684608
716699
707976
733557
730357
744047
763274
768305
781697
797067
805509
805600
800630
793614
772738
753925
780512
821569
829236
851016
844555
859000
884575
878208
858717
840204
843418
799715
759448
759012
727793
683954
691401
662614
640271
632580
630521
617066
613143
617840
626423
642838
655126
673764
682129
692242
699316
689598
721048
725732
730959
730622
725560
715926
704756
694407
682481
677666
672602
665352
646413
633050
630634
639633
616944
699383
720376
744164
756753
763991
757516
760807
754678
746213
750916
740507
754875
790505
821253
818877
818658
808133
843412
801960
805020
804782
786138
762675
762987
734209
713058
722344
692310
678166
672723
665911
671206
674349
679708
681931
680615
679739
674173
671807
670728
671585
681117
688370
698124
706069
672138
730478
705274
670322
649702
637412
632689
619494
584811
614408
615481
598967
628433
620348
622342
625590
647169
654629
681742
687326
703817
701793
706448
698116
698902
699650
694756
700351
696351
702691
698526
692682
721363
706332
724234
726119
720354
724225
718201
707525
703031
699224
675388
679748
649220
638154
619941
603514
609559
606319
622158
639981
771041
832451
824174
814645
815842
815031
830971
819764
820960
795127
774238
730138
692829
597261
828447
937352
1.03602e+06
1.03568e+06
1.09294e+06
1.12205e+06
1.14926e+06
1.18621e+06
1.18221e+06
1.15278e+06
1.05814e+06
1.00874e+06
859649
890718
809667
822488
821457
815351
812171
816366
806983
778401
754164
690530
695298
685822
705737
755048
814274
872659
875025
780516
994375
1.03542e+06
1.02993e+06
1.01935e+06
998161
973095
933113
924467
889212
883626
888642
885031
909464
920604
989188
988503
1.021e+06
1.04684e+06
1.03059e+06
1.05905e+06
1.03376e+06
1.06921e+06
1.04584e+06
1.04304e+06
1.02686e+06
1.07203e+06
1.07408e+06
1.09491e+06
1.10524e+06
1.11981e+06
1.11019e+06
1.12096e+06
1.12915e+06
1.11578e+06
1.10588e+06
1.0896e+06
1.07857e+06
1.06749e+06
1.07427e+06
1.0678e+06
1.04262e+06
1.01767e+06
998201
958305
922809
947326
943274
1.01951e+06
1.00682e+06
1.07926e+06
1.09004e+06
1.12909e+06
1.15851e+06
1.16771e+06
1.17094e+06
1.1893e+06
1.18322e+06
1.19991e+06
1.18713e+06
1.18331e+06
1.1817e+06
1.1856e+06
1.1177e+06
1.14128e+06
748211
752919
747022
763485
757580
777423
773573
793784
795975
800752
827798
833094
844467
865880
918091
942642
990647
997371
1.00503e+06
992373
972894
949278
925015
915085
886941
893321
870850
869687
868169
853767
861134
857829
849858
846323
853754
852760
844738
850198
839742
843934
826531
819583
808733
792188
794037
795937
763401
765161
720856
717748
687185
671181
674470
652107
654493
650282
644646
648405
648555
652334
660985
664454
677150
678316
684609
686542
676673
675715
671512
671866
679494
692157
704940
716110
713707
709528
693415
686565
666525
673965
677159
691688
693402
695860
696563
689878
681072
659350
645664
626897
610682
605722
604208
604601
598472
605652
621498
625069
626276
640925
645744
663785
675680
698010
708915
722086
730960
735334
737872
740719
734407
718888
689255
672272
657542
631238
622405
600406
588915
562698
571760
570358
579540
607680
602762
659929
648781
690684
686320
711094
710100
732736
727616
755796
763164
782207
802610
812587
823075
825310
818733
811030
789138
767537
819961
811376
848060
854106
861398
844552
835695
844996
843237
841758
796574
761160
766092
737630
701174
706176
676352
658082
655669
645509
628325
626486
627175
630052
639370
650252
656983
678756
678932
689410
694805
697748
711644
720750
723452
721166
713372
701622
689902
677581
670855
657328
644428
627003
623020
621612
625631
620710
648737
675871
738475
737196
754254
750580
753866
757289
747773
763631
758551
773256
788051
806647
843714
850375
889672
883491
853456
871376
829065
820840
809034
783659
755845
758194
719882
708159
711311
682718
668290
677842
654518
660495
656605
653216
650243
648611
647095
648994
648838
657075
662029
678184
695154
704798
691712
716542
724135
739882
734608
709177
678017
660169
643314
600611
627422
654512
656189
665856
676754
673177
664218
684552
696156
697783
709029
709228
703566
706525
700744
698428
701988
699724
705708
711017
709922
721897
719448
723330
725123
733680
731470
721263
721757
712278
696798
700801
677204
676494
650113
646810
624054
631542
605973
606095
633346
658708
803026
849812
861059
845277
835675
838767
835328
847874
837259
864174
809539
802499
771275
752277
914917
929284
1.05481e+06
1.0477e+06
1.10914e+06
1.13162e+06
1.16974e+06
1.19042e+06
1.18949e+06
1.15842e+06
1.0773e+06
1.00039e+06
886395
918313
841422
849732
831799
833200
843691
835857
814324
804657
782818
762065
750606
761969
791334
835073
879073
935192
916604
932615
993038
1.02547e+06