/*--------------------------------*- C++ -*----------------------------------*\
| =========                 |                                                 |
| \\      /  F ield         | OpenFOAM: The Open Source CFD Toolbox           |
|  \\    /   O peration     | Version:  2.1.1                                 |
|   \\  /    A nd           | Web:      www.OpenFOAM.org                      |
|    \\/     M anipulation  |                                                 |
\*---------------------------------------------------------------------------*/
FoamFile
{
    version     2.0;
    format      ascii;
    class       volVectorField;
    location    "0.003950000";
    object      U;
}
// * * * * * * * * * * * * * * * * * * * * * * * * * * * * * * * * * * * * * //

dimensions      [0 1 -1 0 0 0 0];

internalField   nonuniform List<vector> 
12384
(
(-1.36564 -0.636724 0)
(5.61594 -4.9031 0)
(21.0053 -3.24898 0)
(40.0442 -5.94413 0)
(51.2082 -0.552404 0)
(62.9018 2.46365 0)
(68.4866 4.17592 0)
(61.1604 9.90383 0)
(52.0992 14.3707 0)
(34.6965 16.0215 0)
(19.7622 16.2585 0)
(7.66765 14.7579 0)
(-0.0466333 13.8347 0)
(-1.91842 11.0107 0)
(4.58763 8.97135 0)
(35.6696 -4.26235 0)
(88.5571 -21.2987 0)
(142.113 -18.6863 0)
(191.294 -28.7997 0)
(223.491 -24.7633 0)
(252.843 -24.274 0)
(260.849 -28.6908 0)
(253.585 -16.2581 0)
(251.371 -18.3259 0)
(242.188 -8.24623 0)
(239.052 -0.593547 0)
(229.901 9.84116 0)
(204.263 10.3736 0)
(166.703 19.2103 0)
(120.449 20.5774 0)
(69.4765 19.1545 0)
(26.0704 12.7317 0)
(-10.3148 10.1307 0)
(-38.295 6.66263 0)
(-59.7467 6.42721 0)
(-73.7351 5.53382 0)
(-78.1649 4.1575 0)
(-75.3077 4.22535 0)
(-64.0972 4.34286 0)
(-57.2431 4.32649 0)
(-41.4207 9.43795 0)
(-29.2053 3.12708 0)
(-15.9755 11.6924 0)
(-1.62759 5.78931 0)
(14.8074 -7.01512 0)
(63.8552 -26.9649 0)
(136.434 -31.2092 0)
(208.37 -27.1229 0)
(269.823 -19.3782 0)
(316.32 -10.8065 0)
(340.437 -6.22585 0)
(353.689 5.88748 0)
(359.287 5.68308 0)
(351.989 8.49363 0)
(347.382 9.53967 0)
(338.796 10.2613 0)
(329.884 10.255 0)
(315.122 10.5108 0)
(300.677 9.24578 0)
(283.254 8.33955 0)
(275.137 5.84725 0)
(265.897 1.91977 0)
(250.093 3.57622 0)
(244.32 7.09807 0)
(228.85 3.46624 0)
(199.278 10.2842 0)
(179.631 6.29542 0)
(153.823 6.37684 0)
(135.675 5.32272 0)
(114.816 5.86481 0)
(94.3715 6.57348 0)
(71.5747 5.90999 0)
(43.287 7.4329 0)
(19.4979 7.41059 0)
(8.82521 16.709 0)
(43.3261 -7.95803 0)
(105.336 -20.2119 0)
(173.151 -25.3509 0)
(236.966 -22.563 0)
(292.801 -23.5262 0)
(334.368 -18.6509 0)
(377.517 -19.9444 0)
(409.612 -19.1762 0)
(429.926 -17.5303 0)
(466.881 -17.6253 0)
(480.861 -17.2175 0)
(482.429 -9.06936 0)
(484.017 -19.0352 0)
(419.299 -2.91248 0)
(411.983 -12.52 0)
(323.946 5.76805 0)
(300.146 2.81976 0)
(252.171 13.3969 0)
(217.527 20.0016 0)
(178.812 32.1499 0)
(126.772 34.4197 0)
(69.2182 41.7553 0)
(9.13863 33.9275 0)
(-46.1783 32.5141 0)
(-75.5269 19.7436 0)
(-89.949 11.0596 0)
(-89.5068 3.47279 0)
(-63.2226 -4.52488 0)
(-21.9594 -10.7905 0)
(6.89423 -37.5111 0)
(16.7022 -45.2123 0)
(35.4601 -44.0595 0)
(79.2353 -43.103 0)
(129.15 -42.7556 0)
(186.483 -39.7662 0)
(244.79 -41.3835 0)
(302.309 -32.1948 0)
(352.739 -34.3761 0)
(392.67 -21.7476 0)
(433.872 -25.4873 0)
(434.866 -10.5857 0)
(460.47 -12.1018 0)
(425.506 -0.930283 0)
(436.506 -5.17264 0)
(398.765 3.24035 0)
(395.295 3.895 0)
(364.435 10.6307 0)
(347.489 9.20703 0)
(306.889 13.6505 0)
(279.363 12.4134 0)
(222.917 17.9287 0)
(188.002 20.9125 0)
(132.547 25.6224 0)
(88.0229 26.5866 0)
(43.8396 24.0098 0)
(9.94852 18.6802 0)
(-10.9497 5.9447 0)
(-15.5921 -3.72546 0)
(-9.97575 -10.4939 0)
(-7.39367 6.3727 0)
(-17.165 16.9548 0)
(-61.9341 19.9971 0)
(-107.358 20.5139 0)
(-145.611 10.0645 0)
(-156.433 2.88929 0)
(-135.448 -1.84314 0)
(-93.3586 -7.53522 0)
(-44.842 -11.4776 0)
(14.3174 -9.19022 0)
(69.6797 -14.2971 0)
(109.305 -8.74962 0)
(179.379 -13.5656 0)
(201.711 -17.3151 0)
(250.311 -12.6607 0)
(323.861 -20.5193 0)
(361.393 -11.4748 0)
(454.522 -15.4304 0)
(474.057 -3.47738 0)
(560.959 -0.89644 0)
(533.08 12.2919 0)
(558.872 12.8933 0)
(498.588 24.535 0)
(435.827 39.0978 0)
(352.919 52.65 0)
(245.842 53.8021 0)
(149.216 47.5624 0)
(71.8235 29.5645 0)
(25.928 12.0097 0)
(7.25148 -7.26311 0)
(3.61934 10.7968 0)
(0.690289 14.5491 0)
(4.80772 18.8421 0)
(2.78217 12.2457 0)
(-8.64627 8.84799 0)
(-17.1519 1.72755 0)
(-20.2327 1.27071 0)
(-22.3601 -0.661812 0)
(-4.94331 -1.60025 0)
(16.2948 -8.06708 0)
(45.9565 -12.4928 0)
(75.7485 -17.4789 0)
(113.084 -18.8637 0)
(155.419 -25.5409 0)
(197.189 -23.2176 0)
(244.931 -30.9141 0)
(288.361 -28.1906 0)
(341.572 -33.3037 0)
(377.95 -27.2425 0)
(423.106 -24.17 0)
(447.908 -22.684 0)
(433.823 -24.952 0)
(405.513 -25.2051 0)
(330.871 -45.1943 0)
(250.068 -37.5772 0)
(168.386 -69.3397 0)
(72.3705 -44.0314 0)
(57.3879 -24.8543 0)
(28.5866 -23.1618 0)
(-15.8719 2.83465 0)
(-9.57395 20.0384 0)
(-4.3398 21.704 0)
(-1.82318 8.41607 0)
(14.064 22.9021 0)
(21.7863 10.767 0)
(25.2239 31.1991 0)
(8.63926 31.9059 0)
(-33.2206 52.7282 0)
(-73.9333 40.7952 0)
(-124.75 39.357 0)
(-196.245 9.03219 0)
(-215.679 16.163 0)
(-346.936 -10.4507 0)
(-346.19 -9.68828 0)
(-333.191 -23.3856 0)
(-311.885 -23.2097 0)
(-244.072 -29.452 0)
(-176.661 -28.5295 0)
(-100.441 -29.3374 0)
(-25.1048 -26.6096 0)
(45.3361 -25.9011 0)
(112.331 -21.1172 0)
(170.662 -18.6401 0)
(216.129 -11.0869 0)
(241.235 -3.34298 0)
(242.682 7.147 0)
(212.384 23.703 0)
(158.794 37.7164 0)
(87.2734 41.8973 0)
(27.6252 34.1587 0)
(-0.176121 -2.46658 0)
(-10.5739 0.370136 0)
(-20.9224 5.95289 0)
(-38.9875 12.061 0)
(-77.4399 13.936 0)
(-124.454 17.0979 0)
(-171.865 34.0117 0)
(-284.123 16.4379 0)
(-362.354 43.5077 0)
(-476.764 17.6175 0)
(-551.218 26.966 0)
(-573.904 18.6166 0)
(-596.952 8.69493 0)
(-579.176 2.87285 0)
(-530.46 -6.59656 0)
(-470.532 -17.4702 0)
(-397.822 -24.8629 0)
(-326.269 -30.1528 0)
(-255.427 -31.6452 0)
(-193.735 -32.2454 0)
(-135.986 -25.6767 0)
(-109.02 -22.9629 0)
(-71.1342 -11.9641 0)
(-50.9389 -9.53867 0)
(-38.1856 0.699795 0)
(-22.1321 -3.411 0)
(-24.5776 7.29756 0)
(-22.453 4.42094 0)
(-17.3566 7.34721 0)
(-7.05186 6.56059 0)
(6.02155 2.13927 0)
(2.96244 5.87017 0)
(3.12836 4.47221 0)
(-3.40131 3.55485 0)
(13.6448 10.2278 0)
(25.3244 7.27113 0)
(32.9436 14.2863 0)
(31.3211 20.6761 0)
(7.04798 35.8036 0)
(-54.6317 60.9025 0)
(-147.879 68.0152 0)
(-249.024 63.9542 0)
(-331.449 46.0017 0)
(-383.437 27.011 0)
(-445.108 -0.29089 0)
(-475.513 13.9889 0)
(-528.821 -36.2526 0)
(-510.237 -25.72 0)
(-515.853 -61.4268 0)
(-483.467 -66.6883 0)
(-394.73 -88.2773 0)
(-291.494 -103.779 0)
(-156.304 -120.998 0)
(-5.15831 -134.203 0)
(155.157 -123.213 0)
(301.457 -95.5232 0)
(395.366 -35.999 0)
(376.637 20.6958 0)
(238.67 69.464 0)
(79.9583 53.4773 0)
(-5.04224 28.8588 0)
(-27.8867 25.4797 0)
(-45.2909 35.1216 0)
(-68.9581 27.4484 0)
(-88.7004 31.5185 0)
(-122.664 26.8686 0)
(-156.801 34.5282 0)
(-218.913 37.7177 0)
(-352.213 62.3912 0)
(-655.716 48.7055 0)
(-753.283 43.2488 0)
(-1015.12 -0.771932 0)
(-950.895 23.1699 0)
(-954.591 -35.8083 0)
(-888.63 -44.1018 0)
(-797.682 -59.9256 0)
(-680.651 -63.6823 0)
(-547.627 -74.7745 0)
(-406.207 -82.5424 0)
(-267.401 -85.2602 0)
(-120.296 -79.529 0)
(26.9412 -74.6929 0)
(175.983 -68.7549 0)
(323.971 -53.7814 0)
(449.332 -35.1138 0)
(522.801 2.93335 0)
(497.068 35.6445 0)
(368.118 71.2119 0)
(203.342 83.5744 0)
(63.0788 60.067 0)
(0.785833 7.24372 0)
(-17.6284 13.2546 0)
(-42.0866 20.0425 0)
(-78.7957 23.6554 0)
(-127.838 36.7422 0)
(-220.418 50.1725 0)
(-354.03 45.9201 0)
(-460.375 34.6203 0)
(-622.594 4.80164 0)
(-638.808 8.02514 0)
(-762.338 -15.2621 0)
(-715.705 -18.8883 0)
(-722.934 -43.8974 0)
(-607.407 -35.853 0)
(-558.496 -55.7065 0)
(-462.735 -42.9714 0)
(-376.767 -58.7641 0)
(-297.47 -41.8312 0)
(-222.805 -47.728 0)
(-159.274 -33.2929 0)
(-112.48 -30.0504 0)
(-77.533 -13.4789 0)
(-56.2816 -8.47476 0)
(-40.3198 -7.18358 0)
(-29.9389 1.00859 0)
(-24.5157 -3.29308 0)
(-18.6483 2.27714 0)
(-13.8403 4.73746 0)
(-5.54147 2.14213 0)
(-7.00785 7.59697 0)
(-20.6455 -15.1733 0)
(-65.8461 -15.4678 0)
(-110.889 -0.647178 0)
(-155.921 -2.59706 0)
(-185.889 3.20357 0)
(-212.823 2.4815 0)
(-240.057 4.9376 0)
(-247.601 4.37393 0)
(-249.153 6.37209 0)
(-239.804 6.17536 0)
(-223.105 5.52752 0)
(-202.943 2.07243 0)
(-212.606 -3.51287 0)
(-203.116 -1.2739 0)
(-213.918 -11.8023 0)
(-215.144 -16.9282 0)
(-193.727 -10.513 0)
(-172.898 -10.6506 0)
(-149.672 -9.4829 0)
(-115.485 -1.97272 0)
(-104.336 -13.7927 0)
(-74.7074 -0.265635 0)
(-40.4184 -9.17372 0)
(-23.3693 -3.09027 0)
(8.55719 -14.0293 0)
(33.3462 1.22787 0)
(46.3337 -3.87806 0)
(47.8142 -0.129537 0)
(37.8489 5.13421 0)
(15.303 5.18517 0)
(2.31208 -5.31225 0)
(15.5452 -15.7538 0)
(31.1477 -11.6943 0)
(46.9214 -13.2039 0)
(60.2606 -2.98398 0)
(70.0981 6.34319 0)
(75.4525 12.086 0)
(71.4394 27.9323 0)
(63.14 37.1155 0)
(49.6439 46.5212 0)
(33.406 45.8012 0)
(18.8002 45.2868 0)
(10.6065 42.1168 0)
(1.72145 33.7864 0)
(21.2671 21.7338 0)
(59.3615 -24.9478 0)
(114.624 -53.207 0)
(166.803 -60.2291 0)
(205.417 -70.4459 0)
(235.872 -68.5274 0)
(248.991 -66.6925 0)
(257 -69.2362 0)
(249.627 -57.0519 0)
(233.544 -42.2093 0)
(228.732 -20.0812 0)
(227.988 1.81925 0)
(220.52 15.69 0)
(208.005 31.3161 0)
(185.144 48.5441 0)
(146.415 56.9727 0)
(102.071 55.6719 0)
(57.2518 43.9669 0)
(18.6889 34.2757 0)
(-13.4539 26.66 0)
(-36.0853 22.4348 0)
(-50.9429 20.3533 0)
(-58.195 15.0511 0)
(-58.4395 16.7198 0)
(-53.7316 13.8725 0)
(-45.1204 18.4921 0)
(-35.4865 20.6449 0)
(-23.2298 17.7683 0)
(-14.6153 25.1056 0)
(-6.46819 24.0782 0)
(31.8955 -38.9691 0)
(102.297 -81.2148 0)
(176.433 -87.7806 0)
(242.814 -72.2612 0)
(296.244 -49.0633 0)
(334.033 -23.9502 0)
(361.826 -5.28434 0)
(375.403 12.0039 0)
(370.961 22.843 0)
(371.163 29.3652 0)
(367.951 30.5738 0)
(365.676 30.8102 0)
(363.819 32.3665 0)
(359.178 31.6767 0)
(350.848 28.7137 0)
(341.725 22.8095 0)
(322.517 20.7162 0)
(315.884 13.335 0)
(296.353 12.4403 0)
(274.652 23.6911 0)
(261.37 16.3895 0)
(237.283 22.5326 0)
(209.705 20.0692 0)
(183.675 19.9815 0)
(158.215 17.5779 0)
(132.559 17.84 0)
(107.3 21.4708 0)
(79.4968 20.1118 0)
(48.5835 23.7757 0)
(21.0652 24.6774 0)
(16.1048 23.022 0)
(62.2241 -31.8124 0)
(120.191 -59.3559 0)
(178.897 -65.5528 0)
(229.265 -59.926 0)
(272.05 -57.6627 0)
(310.79 -56.6933 0)
(342.384 -53.091 0)
(379.96 -58.5638 0)
(401.007 -49.0642 0)
(430.239 -53.0406 0)
(457.581 -50.7676 0)
(463.119 -36.5042 0)
(451.929 -51.1926 0)
(413.116 -11.1931 0)
(391.687 -19.4291 0)
(318.253 19.6919 0)
(298.5 19.2004 0)
(271.701 41.9622 0)
(252.575 62.5477 0)
(230.088 87.1518 0)
(197.722 107.463 0)
(149.281 118.677 0)
(88.9056 111.321 0)
(28.7287 99.7383 0)
(-27.2727 67.1808 0)
(-53.3502 40.5317 0)
(-58.5641 18.0629 0)
(-45.7042 -3.65736 0)
(-16.8392 -11.9549 0)
(5.79835 -81.1362 0)
(27.6886 -85.66 0)
(61.5115 -96.952 0)
(104.824 -105.906 0)
(156.369 -116.273 0)
(211.671 -112.827 0)
(273.569 -111.008 0)
(330.97 -95.4078 0)
(377.085 -83.9035 0)
(423.321 -64.2672 0)
(446.394 -51.1778 0)
(455.631 -30.4638 0)
(457.24 -16.6179 0)
(430.872 -3.74815 0)
(430.715 -1.71014 0)
(395.09 9.21934 0)
(387.436 13.6367 0)
(364.847 22.5595 0)
(352.29 25.7591 0)
(321.992 30.7945 0)
(302.438 32.7332 0)
(257.556 43.0726 0)
(238.599 49.3354 0)
(197.769 64.532 0)
(168.197 71.119 0)
(130.86 72.0162 0)
(90.1283 63.7392 0)
(50.7246 36.9193 0)
(20.9714 11.5695 0)
(4.66021 -5.50181 0)
(-15.5876 35.6594 0)
(-45.3782 58.2393 0)
(-94.4945 61.156 0)
(-129.251 49.4979 0)
(-156.252 27.3781 0)
(-155.437 6.34234 0)
(-141.308 -6.78078 0)
(-105.314 -17.8606 0)
(-60.2817 -24.2019 0)
(-14.5362 -22.4093 0)
(35.3822 -32.6889 0)
(69.0991 -23.0383 0)
(124.626 -40.8408 0)
(157.224 -45.2801 0)
(210.607 -44.116 0)
(275.433 -57.145 0)
(328.835 -38.8936 0)
(412.16 -40.0114 0)
(444.183 -15.8273 0)
(519.19 -1.04209 0)
(509.892 27.8105 0)
(536.278 44.079 0)
(498.53 71.0013 0)
(457.145 103.748 0)
(404.028 135.021 0)
(329.794 148.203 0)
(246.357 140.49 0)
(155.629 104.554 0)
(74.8656 60.1955 0)
(20.951 6.23454 0)
(0.476191 12.3356 0)
(-2.80511 24.2317 0)
(-14.7834 32.9333 0)
(-28.759 30.031 0)
(-29.2702 26.2488 0)
(-26.5978 15.3582 0)
(-20.714 7.94987 0)
(-13.9106 -9.97377 0)
(-5.03944 -17.933 0)
(9.00683 -36.8731 0)
(35.2765 -42.8366 0)
(64.5748 -55.4557 0)
(103.428 -55.5626 0)
(138.06 -71.3889 0)
(175.003 -66.2716 0)
(213.969 -80.9104 0)
(249.964 -73.542 0)
(292.893 -82.2273 0)
(329.026 -74.4096 0)
(362.322 -67.5353 0)
(383.194 -76.7413 0)
(366.798 -72.4491 0)
(328.494 -97.6402 0)
(270.172 -121.389 0)
(218.022 -131.25 0)
(166.395 -149.966 0)
(152.286 -132.653 0)
(128.073 -121.044 0)
(92.3305 -129.97 0)
(40.906 -74.0712 0)
(-4.43435 55.1535 0)
(-12.2254 62.7658 0)
(-15.7324 41.3507 0)
(-20.6079 64.4595 0)
(-36.3019 57.958 0)
(-64.5433 106.304 0)
(-105.789 120.935 0)
(-147.096 146.325 0)
(-174.683 122.149 0)
(-194.206 88.6393 0)
(-228.474 26.6291 0)
(-241.864 23.3547 0)
(-366.519 -34.3431 0)
(-375.509 -36.6876 0)
(-356.445 -68.9624 0)
(-330.906 -73.7218 0)
(-264.301 -87.0182 0)
(-197.416 -89.163 0)
(-126.125 -89.6696 0)
(-55.6668 -85.3931 0)
(11.015 -81.1476 0)
(73.7049 -70.7192 0)
(129.642 -60.2177 0)
(172.257 -40.9025 0)
(198.694 -17.2051 0)
(207.827 10.994 0)
(195.28 53.0032 0)
(162.192 95.8504 0)
(106.687 123.273 0)
(41.1621 112.823 0)
(-4.36335 -5.46984 0)
(-18.236 7.02095 0)
(-37.5794 19.1144 0)
(-68.2345 38.1171 0)
(-120.819 43.4014 0)
(-163.641 68.1022 0)
(-250.512 85.1008 0)
(-344.887 70.8224 0)
(-439.513 103.382 0)
(-545.581 68.6767 0)
(-588.184 76.1442 0)
(-642.979 56.25 0)
(-659.538 33.8874 0)
(-637.218 12.4681 0)
(-596.79 -18.1229 0)
(-540.595 -45.9188 0)
(-474.067 -69.3971 0)
(-405.877 -86.8039 0)
(-337.599 -95.9703 0)
(-275.61 -96.2549 0)
(-211.935 -83.51 0)
(-173.488 -73.9502 0)
(-122.021 -45.6496 0)
(-79.9583 -39.2027 0)
(-60.0223 -12.877 0)
(-35.1981 -14.0036 0)
(-22.8524 -0.304875 0)
(-10.6921 2.26597 0)
(-6.37235 5.03737 0)
(-2.74545 5.79201 0)
(4.96038 13.1158 0)
(-11.2868 18.636 0)
(-22.0637 18.943 0)
(-20.5329 13.675 0)
(-21.1759 32.6177 0)
(-13.2255 29.9971 0)
(-13.738 45.8264 0)
(-27.507 72.1577 0)
(-67.962 126.701 0)
(-143.233 187.298 0)
(-229.833 206.779 0)
(-305.263 185.44 0)
(-355.192 145.963 0)
(-410.699 94.3068 0)
(-444.247 41.9863 0)
(-498.872 3.60999 0)
(-518.402 -44.8406 0)
(-528.245 -68.4438 0)
(-539.641 -136.133 0)
(-499.5 -168.815 0)
(-432.446 -214.457 0)
(-351.636 -252.632 0)
(-253.414 -279.032 0)
(-149.466 -287.127 0)
(-45.4993 -280.172 0)
(56.8869 -219.59 0)
(141.408 -104.841 0)
(175.102 26.8481 0)
(136.809 172.432 0)
(66.1074 178.596 0)
(-16.7486 86.4372 0)
(-52.5016 91.923 0)
(-85.2162 104.232 0)
(-118.08 95.6928 0)
(-148.906 97.713 0)
(-188.221 87.757 0)
(-230.222 107.254 0)
(-292.307 124.159 0)
(-415.396 171.651 0)
(-637.777 134.194 0)
(-771.236 141.332 0)
(-868.197 23.6027 0)
(-924.56 -9.64032 0)
(-881.033 -83.2613 0)
(-817.14 -119.662 0)
(-727.718 -150.959 0)
(-623.824 -182.231 0)
(-506.865 -199.78 0)
(-380.887 -207.924 0)
(-251.911 -210.244 0)
(-121.027 -212.677 0)
(13.6873 -207.803 0)
(154.488 -194.611 0)
(294.428 -155.983 0)
(415.609 -89.9516 0)
(489.891 8.92345 0)
(486.099 109.086 0)
(409.375 199.492 0)
(258.564 246.927 0)
(97.0274 206.475 0)
(-16.4636 29.4113 0)
(-60.9368 51.1297 0)
(-108.95 69.5821 0)
(-169.508 87.4802 0)
(-249.497 125.468 0)
(-354.463 139.987 0)
(-456.227 121.311 0)
(-533.829 81.0396 0)
(-643.528 22.1467 0)
(-678.686 0.862741 0)
(-768.686 -50.6054 0)
(-757.753 -64.733 0)
(-720.925 -104.461 0)
(-639.039 -107.057 0)
(-562.805 -141.005 0)
(-486.776 -134.735 0)
(-395.809 -145.485 0)
(-316.306 -132.383 0)
(-238.533 -126.137 0)
(-173.62 -99.0499 0)
(-123.115 -73.9852 0)
(-85.0878 -44.6486 0)
(-55.7997 -20.0231 0)
(-32.4348 -10.6171 0)
(-14.0721 11.7449 0)
(-5.93942 15.535 0)
(-1.33008 23.2438 0)
(-0.792176 21.2109 0)
(1.58578 24.9219 0)
(4.75988 29.3107 0)
(-22.8324 -27.4941 0)
(-79.808 -22.5905 0)
(-124.259 8.11025 0)
(-176.406 3.38144 0)
(-205.189 17.0133 0)
(-233.2 9.40857 0)
(-258.797 20.5375 0)
(-268.878 20.7677 0)
(-276.507 28.7728 0)
(-272.054 29.3456 0)
(-261.204 23.5148 0)
(-244.838 11.7118 0)
(-242.946 -4.97592 0)
(-231.827 -7.79672 0)
(-242.317 -38.8048 0)
(-245.343 -40.0123 0)
(-218.855 -39.4214 0)
(-209.093 -35.545 0)
(-180.553 -31.7446 0)
(-147.073 -18.2083 0)
(-126.036 -35.0043 0)
(-90.5859 -11.9456 0)
(-59.8048 -29.4273 0)
(-24.4592 -13.0018 0)
(11.4895 -15.7102 0)
(37.1379 0.786371 0)
(55.8769 6.48281 0)
(53.2612 11.6403 0)
(35.5629 26.7019 0)
(13.7414 25.6795 0)
(8.93779 -13.4674 0)
(23.5184 -28.3144 0)
(36.8308 -19.1964 0)
(49.514 -18.6961 0)
(59.3965 -4.49068 0)
(67.6667 8.0811 0)
(73.3267 22.8899 0)
(72.5643 39.6044 0)
(68.9512 58.5126 0)
(59.3424 72.7462 0)
(43.3842 80.2098 0)
(29.3376 78.8042 0)
(12.1108 70.1906 0)
(2.6637 64.8862 0)
(12.2669 25.0557 0)
(48.1785 -52.8109 0)
(102.689 -84.276 0)
(147.15 -94.8991 0)
(178.509 -98.2394 0)
(192.934 -97.894 0)
(203.012 -100.619 0)
(194.999 -96.9531 0)
(188.194 -92.9812 0)
(177.83 -73.7521 0)
(163.106 -44.4164 0)
(158.436 -14.1201 0)
(157.526 15.7929 0)
(155.137 46.4395 0)
(139.242 68.4934 0)
(116.315 86.5648 0)
(86.0121 85.5554 0)
(53.2526 74.7591 0)
(20.8027 60.2382 0)
(-5.67003 49.6607 0)
(-26.7634 38.2389 0)
(-39.7187 36.1276 0)
(-46.0768 25.2176 0)
(-49.0956 27.563 0)
(-44.1445 24.0047 0)
(-37.2145 28.0228 0)
(-24.9448 29.2769 0)
(-17.2291 28.0515 0)
(-5.00323 33.5207 0)
(3.58315 42.0244 0)
(40.5512 -101.765 0)
(115.314 -146.196 0)
(179.75 -142.99 0)
(232.495 -115.215 0)
(275.826 -79.8187 0)
(309.872 -42.3749 0)
(329.325 -7.43475 0)
(344.94 15.9146 0)
(352.441 35.439 0)
(350.839 43.1785 0)
(351.142 46.8485 0)
(352.466 47.218 0)
(353.873 48.2033 0)
(356.772 48.359 0)
(356.773 46.7001 0)
(351.863 39.2634 0)
(343.817 36.7392 0)
(326.916 32.43 0)
(318.958 23.8895 0)
(298.183 29.6239 0)
(276.944 33.6647 0)
(263.129 32.3649 0)
(238.975 36.2641 0)
(208.168 36.0201 0)
(179.42 36.5916 0)
(150.46 37.7993 0)
(120.311 41.57 0)
(87.9016 42.8184 0)
(54.5715 43.2099 0)
(21.6965 47.0438 0)
(20.321 17.5609 0)
(64.3866 -51.4885 0)
(111.822 -82.2577 0)
(148.987 -88.4061 0)
(180.354 -85.0192 0)
(207.427 -84.5002 0)
(235.976 -82.7677 0)
(265.559 -88.3546 0)
(294.504 -83.0537 0)
(322.566 -89.6714 0)
(345.294 -80.7878 0)
(375.771 -84.5435 0)
(382.093 -72.115 0)
(386.847 -75.1144 0)
(358.158 -28.0551 0)
(349.058 -27.4015 0)
(278.068 26.0497 0)
(263.916 41.6551 0)
(245.098 74.9618 0)
(238.655 104.521 0)
(230.619 135.415 0)
(213.092 163.708 0)
(182.508 183.916 0)
(139.927 187.355 0)
(87.3409 166.938 0)
(35.9949 121.747 0)
(-3.59887 82.2622 0)
(-17.9764 38.4265 0)
(-20.6695 4.16722 0)
(-8.02184 -7.12224 0)
(9.90127 -94.2391 0)
(29.4107 -117.202 0)
(60.7606 -143.183 0)
(111.705 -168.063 0)
(175.728 -179.87 0)
(242.991 -183.03 0)
(302.253 -171.575 0)
(358.719 -153.393 0)
(403.353 -134.794 0)
(437.352 -103.849 0)
(461.505 -76.0351 0)
(453.301 -48.5606 0)
(462.011 -25.5584 0)
(421.823 -7.25556 0)
(411.934 2.10271 0)
(372.661 13.3353 0)
(362.353 18.6958 0)
(339.117 26.8344 0)
(332.176 31.0972 0)
(302.38 38.3512 0)
(288.955 43.6225 0)
(247.126 57.691 0)
(232.006 66.8217 0)
(206.061 88.8614 0)
(190.393 106.536 0)
(168.328 115.98 0)
(133.301 111.695 0)
(88.4933 84.1269 0)
(45.0671 42.554 0)
(12.7019 12.362 0)
(-22.1234 79.9778 0)
(-58.1518 107.638 0)
(-105.948 95.3665 0)
(-132.437 72.9811 0)
(-164.22 34.3222 0)
(-160.341 19.4109 0)
(-146.602 -7.72286 0)
(-127.919 -14.6015 0)
(-92.4812 -26.3754 0)
(-56.9103 -30.6474 0)
(-10.1086 -39.9775 0)
(7.55397 -47.7338 0)
(53.8562 -60.833 0)
(88.8324 -82.3056 0)
(134.479 -81.4688 0)
(193.519 -91.4862 0)
(243.994 -75.0646 0)
(315.352 -65.4387 0)
(352.15 -32.3306 0)
(424.663 -9.16777 0)
(431.691 32.6067 0)
(469.935 62.7161 0)
(432.925 99.6182 0)
(406.02 151.908 0)
(371.714 189.529 0)
(319.235 219.918 0)
(256.387 220.398 0)
(178.96 184.731 0)
(99.736 124.122 0)
(32.815 41.5834 0)
(-4.73958 20.8126 0)
(-14.4182 32.0677 0)
(-17.3622 40.7851 0)
(-21.4529 43.1905 0)
(-30.8758 43.2966 0)
(-37.65 29.0982 0)
(-42.857 9.07905 0)
(-35.0367 -13.0759 0)
(-17.1486 -35.2162 0)
(5.38507 -49.3167 0)
(28.6259 -64.6466 0)
(54.4064 -74.9399 0)
(80.2632 -84.2642 0)
(107.262 -92.5137 0)
(137.671 -96.4419 0)
(167.161 -102.271 0)
(195.964 -101.784 0)
(223.692 -105.798 0)
(253.909 -107.427 0)
(270.007 -109.424 0)
(276.228 -122.21 0)
(254.952 -142.714 0)
(208.066 -172.331 0)
(168.934 -189.697 0)
(147.4 -191.54 0)
(124.397 -182.465 0)
(91.1701 -167.198 0)
(69.8862 -175.716 0)
(40.4871 -166.196 0)
(11.2211 -130.825 0)
(-14.055 96.6294 0)
(-22.5509 104.775 0)
(-37.0112 85.3396 0)
(-60.2515 113.091 0)
(-96.4244 137.232 0)
(-145.449 188.609 0)
(-191.608 216.405 0)
(-217.003 222.984 0)
(-225.711 182.107 0)
(-223.166 119.979 0)
(-232.319 41.3758 0)
(-244.139 5.87243 0)
(-363.031 -66.1555 0)
(-367.02 -78.8842 0)
(-344.858 -121.796 0)
(-330.668 -126.512 0)
(-268.77 -140.573 0)
(-206.36 -144.707 0)
(-142.499 -144.425 0)
(-81.1458 -141.036 0)
(-22.481 -133.206 0)
(32.1009 -121.542 0)
(82.6797 -102.245 0)
(125.586 -78.2632 0)
(147.376 -39.0258 0)
(154.031 8.06908 0)
(151.369 70.2942 0)
(130.614 136.255 0)
(89.1623 192.446 0)
(34.3749 203.923 0)
(-8.31004 -10.5544 0)
(-30.0681 20.4922 0)
(-51.4314 36.8927 0)
(-84.4471 66.3712 0)
(-136.406 83.4145 0)
(-180.821 126.81 0)
(-273.853 128.729 0)
(-357.38 144.635 0)
(-446.516 147.201 0)
(-543.141 126.354 0)
(-597.919 128.892 0)
(-644.856 89.0939 0)
(-649.146 61.7581 0)
(-634.65 20.5431 0)
(-603.214 -25.3285 0)
(-554.781 -67.3499 0)
(-497.267 -105.138 0)
(-439.852 -135.073 0)
(-383.262 -154.094 0)
(-327.058 -158.124 0)
(-270.816 -147.854 0)
(-223.543 -132.403 0)
(-168.776 -93.8827 0)
(-121.113 -77.984 0)
(-81.6711 -39.455 0)
(-48.8785 -30.1487 0)
(-31.1645 -1.78937 0)
(-14.0047 -2.62963 0)
(-10.8363 1.75715 0)
(-5.20087 5.44046 0)
(2.8494 34.5769 0)
(-17.821 27.6599 0)
(-37.8764 40.8596 0)
(-41.1591 31.1498 0)
(-45.5274 49.5254 0)
(-47.3862 58.8323 0)
(-52.1193 78.8736 0)
(-70.8804 131.612 0)
(-116.758 225.217 0)
(-171.755 291.165 0)
(-225.25 300.4 0)
(-263.499 264.041 0)
(-304.93 202.446 0)
(-324.815 135.232 0)
(-381.483 53.2577 0)
(-398.457 -1.19743 0)
(-424.162 -72.3226 0)
(-446.416 -119.976 0)
(-458.677 -197.105 0)
(-436.436 -262.569 0)
(-392.643 -322.032 0)
(-343.542 -378.118 0)
(-286.236 -414.38 0)
(-234.455 -427.612 0)
(-187.839 -421.617 0)
(-151.061 -349.951 0)
(-114.593 -210.44 0)
(-54.1944 -15.0041 0)
(-7.95818 176.782 0)
(12.0929 233.311 0)
(-15.6575 150.171 0)
(-58.1161 165.11 0)
(-92.2412 177.566 0)
(-127.69 166.759 0)
(-164.495 159.39 0)
(-193.317 150.428 0)
(-222.601 167.783 0)
(-266.093 214.519 0)
(-349.061 256.88 0)
(-501.626 202.238 0)
(-664.275 169.703 0)
(-829.181 36.3263 0)
(-791.799 -36.9769 0)
(-741.823 -127.37 0)
(-692.843 -216.358 0)
(-634.413 -275.518 0)
(-546.255 -309.099 0)
(-445.435 -336.737 0)
(-346.169 -351.227 0)
(-243.234 -356.591 0)
(-136.09 -361.162 0)
(-22.6586 -357.291 0)
(94.4439 -337.185 0)
(216.055 -273.998 0)
(325.926 -168.795 0)
(406.873 -15.0611 0)
(415.951 147.603 0)
(337.657 302.136 0)
(237.081 402.669 0)
(99.5664 393.396 0)
(-26.8473 77.7795 0)
(-86.7191 107.974 0)
(-149.097 133.688 0)
(-222.603 181.881 0)
(-309.874 222.39 0)
(-392.479 219.36 0)
(-472.344 179.485 0)
(-536.215 115.438 0)
(-645.759 34.6173 0)
(-661.69 -13.4343 0)
(-726.932 -92.6369 0)
(-707.106 -121.128 0)
(-670.317 -171.722 0)
(-600.349 -184.899 0)
(-530.339 -225.89 0)
(-446.98 -230.934 0)
(-372.199 -241.406 0)
(-303.721 -222.935 0)
(-237.723 -204.108 0)
(-179.655 -170.342 0)
(-131.478 -133.747 0)
(-92.6407 -89.0491 0)
(-54.4505 -57.2684 0)
(-23.762 -35.1572 0)
(-0.8997 -2.07726 0)
(13.6747 23.5691 0)
(12.9124 39.7193 0)
(9.16322 45.9146 0)
(1.1125 50.092 0)
(-7.13798 50.1675 0)
(-38.7704 -22.8919 0)
(-100.817 -5.91434 0)
(-139.887 24.6891 0)
(-181.901 13.9071 0)
(-209.608 41.4397 0)
(-235.699 26.1758 0)
(-265.433 53.3783 0)
(-281.074 56.8319 0)
(-290.195 68.3264 0)
(-292.117 66.3511 0)
(-286.587 51.5513 0)
(-278.057 29.794 0)
(-273.559 2.89593 0)
(-259.9 -13.491 0)
(-265.087 -53.1717 0)
(-251.589 -43.2864 0)
(-217.98 -62.6908 0)
(-200.885 -50.6015 0)
(-170.023 -52.0729 0)
(-139.403 -40.2127 0)
(-118.42 -47.3123 0)
(-86.8624 -29.7178 0)
(-55.0759 -54.5319 0)
(-19.0319 -28.2777 0)
(18.0318 -40.0093 0)
(50.9079 -13.331 0)
(72.8913 5.60701 0)
(73.5858 18.7839 0)
(56.7159 27.8281 0)
(26.5755 39.1536 0)
(8.5427 -26.8405 0)
(25.0623 -41.4853 0)
(38.5286 -26.6855 0)
(47.5015 -23.7684 0)
(56.6613 -3.09995 0)
(63.5749 8.36734 0)
(66.0387 29.705 0)
(69.2692 48.3788 0)
(67.6156 73.6897 0)
(61.7865 94.3676 0)
(51.0562 111.92 0)
(28.8573 108.792 0)
(18.5164 99.9675 0)
(7.70063 91.7178 0)
(13.8738 27.9959 0)
(39.7238 -72.0074 0)
(74.0251 -109.674 0)
(105.69 -114.411 0)
(126.456 -116.521 0)
(134.515 -115.955 0)
(133.648 -116.783 0)
(124.34 -127.487 0)
(108.28 -110.861 0)
(98.3736 -98.438 0)
(83.1033 -66.211 0)
(76.65 -29.1214 0)
(76.8465 13.4029 0)
(72.6864 51.3781 0)
(67.0412 84.3096 0)
(54.8737 100.542 0)
(39.8772 105.881 0)
(22.2017 96.9428 0)
(1.36736 78.6548 0)
(-16.8847 69.5192 0)
(-30.3239 50.6865 0)
(-41.3432 48.8489 0)
(-47.3705 35.2935 0)
(-44.9853 37.5903 0)
(-42.0737 31.6495 0)
(-30.8395 34.1568 0)
(-22.1562 31.9391 0)
(-10.8334 37.5926 0)
(0.904239 48.4409 0)
(-1.47676 65.1963 0)
(38.5286 -174.227 0)
(99.2961 -200.643 0)
(142.484 -184.272 0)
(176.821 -146.141 0)
(205.652 -102.098 0)
(233.068 -54.1594 0)
(259.054 -13.5628 0)
(277.969 23.8573 0)
(289.426 44.8465 0)
(301.074 58.5076 0)
(309.115 62.1391 0)
(313.919 63.7514 0)
(321.506 64.4882 0)
(328.41 64.0193 0)
(334.062 60.0647 0)
(338.934 56.2329 0)
(336.188 46.077 0)
(326.137 42.3085 0)
(320.562 36.9599 0)
(312.741 31.7018 0)
(296.915 37.4009 0)
(281.169 41.094 0)
(262.778 50.1062 0)
(233.517 55.0568 0)
(203.261 61.4818 0)
(169.721 66.2192 0)
(133.97 68.4645 0)
(95.2526 70.9189 0)
(58.9073 68.78 0)
(23.4077 70.7374 0)
(18.0695 13.7907 0)
(54.9122 -62.4055 0)
(81.2543 -90.9258 0)
(98.6141 -99.6203 0)
(113.265 -101.752 0)
(134.261 -111.225 0)
(153.635 -108.981 0)
(179.09 -117.592 0)
(213.772 -117.058 0)
(236.098 -118.994 0)
(267.746 -112.37 0)
(289.917 -108.584 0)
(297.154 -96.448 0)
(307.385 -84.8939 0)
(295.442 -49.2412 0)
(264.648 -22.6701 0)
(227.419 31.4953 0)
(208.375 66.2274 0)
(205.525 110.998 0)
(201.557 147.046 0)
(199.289 178.801 0)
(192.608 211.955 0)
(179.185 233.571 0)
(153.531 240.831 0)
(121.343 226.958 0)
(67.2226 171.119 0)
(30.6476 126.2 0)
(7.12261 62.81 0)
(0.686866 23.4988 0)
(1.42431 7.24856 0)
(3.01767 -115.773 0)
(30.119 -160.232 0)
(85.2238 -202.155 0)
(145.392 -227.191 0)
(200.761 -240.227 0)
(251.055 -233.183 0)
(302.565 -220.968 0)
(342.208 -191.074 0)
(379.608 -165.01 0)
(419.701 -129.323 0)
(424.338 -85.0872 0)
(426.968 -48.9972 0)
(430.091 -23.9349 0)
(389.57 1.55819 0)
(376.212 9.19441 0)
(337.319 20.8475 0)
(322.009 22.1032 0)
(300.878 27.7909 0)
(286.559 28.5602 0)
(263.822 39.7262 0)
(246.792 44.4137 0)
(213.655 66.6181 0)
(208.231 76.9971 0)
(190.974 104.86 0)
(183.763 128.984 0)
(167.959 149.267 0)
(141.174 155.245 0)
(100.371 131.795 0)
(57.1452 82.1544 0)
(18.085 38.8638 0)
(-21.1868 135.104 0)
(-65.2761 157.616 0)
(-107.192 133.684 0)
(-136.166 92.0806 0)
(-157.758 52.4127 0)
(-173.113 32.0014 0)
(-170.354 7.4158 0)
(-155.641 -6.8766 0)
(-132.334 -22.8576 0)
(-101.656 -34.8867 0)
(-64.86 -46.2584 0)
(-52.2235 -68.0476 0)
(-18.2551 -77.4687 0)
(-0.74364 -113.882 0)
(38.7072 -103.391 0)
(81.7067 -128.606 0)
(130.034 -99.407 0)
(191.027 -94.9022 0)
(238.321 -48.0784 0)
(297.924 -18.9076 0)
(309.96 37.6226 0)
(343.521 82.0085 0)
(340.105 125.563 0)
(322.716 189.163 0)
(292.855 228.585 0)
(265.449 274.062 0)
(216.513 277.998 0)
(160.13 251.227 0)
(94.64 178.352 0)
(31.4847 82.8202 0)
(-2.94132 37.3699 0)
(-13.9145 54.4775 0)
(-34.0864 63.4009 0)
(-49.5018 57.7566 0)
(-54.3325 44.8199 0)
(-54.1555 24.9893 0)
(-46.9519 3.90483 0)
(-39.9327 -15.6081 0)
(-31.1246 -37.369 0)
(-17.0883 -53.7539 0)
(-1.2401 -69.1077 0)
(22.7347 -80.0572 0)
(46.7794 -94.6085 0)
(69.2207 -100.352 0)
(93.3091 -107.822 0)
(116.299 -113.945 0)
(142.071 -119.382 0)
(164.314 -126.005 0)
(177.76 -135.37 0)
(192.778 -147.395 0)
(177.148 -182.315 0)
(133.771 -217.768 0)
(111.198 -236.264 0)
(91.8737 -233.777 0)
(88.1107 -215.926 0)
(87.7973 -195.16 0)
(78.7768 -178.097 0)
(64.6816 -171.548 0)
(51.6652 -149.057 0)
(35.6008 -120.509 0)
(-10.8712 143.107 0)
(-38.0512 145.71 0)
(-53.2274 142.812 0)
(-86.9721 182.001 0)
(-131.364 225.248 0)
(-180.269 270.557 0)
(-218.952 294.189 0)
(-239.099 282.614 0)
(-237.715 224.769 0)
(-227.099 149.237 0)
(-230.353 50.0382 0)
(-235.798 -5.04054 0)
(-346.348 -113.672 0)
(-366.962 -125.83 0)
(-334.458 -169.001 0)
(-313.357 -179.54 0)
(-256.02 -189.96 0)
(-200.606 -190.985 0)
(-146.719 -189.189 0)
(-95.8055 -185.046 0)
(-47.8582 -177.938 0)
(-2.24704 -166.279 0)
(39.2388 -145.08 0)
(72.6966 -114.632 0)
(100.592 -73.219 0)
(116.176 -10.3799 0)
(105.677 74.0589 0)
(90.6452 169.719 0)
(66.5444 243.269 0)
(26.5571 276.521 0)
(-6.59303 1.24213 0)
(-24.7572 30.926 0)
(-58.9009 59.8799 0)
(-89.288 99.2816 0)
(-135.209 127.285 0)
(-188.282 171.491 0)
(-272.003 180.32 0)
(-335.819 196.768 0)
(-434.723 186.154 0)
(-499.35 179.417 0)
(-561.694 154.647 0)
(-606.53 122.964 0)
(-608.57 84.7875 0)
(-597.439 24.862 0)
(-567.828 -28.0432 0)
(-526.053 -82.2429 0)
(-479.841 -129.505 0)
(-430.549 -170.539 0)
(-385.389 -197.112 0)
(-343.314 -209.409 0)
(-300.043 -206.457 0)
(-252.153 -186.211 0)
(-199.264 -150.633 0)
(-155.48 -123.585 0)
(-107.773 -78.2103 0)
(-66.2284 -56.4364 0)
(-41.9748 -15.9409 0)
(-20.746 -3.17001 0)
(-5.08773 8.62698 0)
(0.534479 10.3079 0)
(-5.96939 52.7479 0)
(-34.8605 46.4808 0)
(-49.5101 57.927 0)
(-54.1967 52.5549 0)
(-58.461 68.1401 0)
(-60.1888 81.3662 0)
(-68.2967 115.995 0)
(-78.6892 191.454 0)
(-104.146 293.337 0)
(-136.971 358.975 0)
(-158.002 363.74 0)
(-177.988 310.389 0)
(-184.481 250.285 0)
(-213.184 155.947 0)
(-225.901 80.4553 0)
(-249.933 -3.93895 0)
(-282.448 -78.3256 0)
(-309.681 -148.393 0)
(-361.507 -236.407 0)
(-336.836 -313.414 0)
(-315.923 -383.725 0)
(-297.122 -439.419 0)
(-268.986 -477.141 0)
(-251.152 -494.235 0)
(-240.407 -478.347 0)
(-223.895 -398.982 0)
(-214.34 -264.088 0)
(-178.307 -70.4895 0)
(-113.773 107.063 0)
(-42.2413 188.23 0)