/*--------------------------------*- C++ -*----------------------------------*\
| =========                 |                                                 |
| \\      /  F ield         | OpenFOAM: The Open Source CFD Toolbox           |
|  \\    /   O peration     | Version:  2.1.1                                 |
|   \\  /    A nd           | Web:      www.OpenFOAM.org                      |
|    \\/     M anipulation  |                                                 |
\*---------------------------------------------------------------------------*/
FoamFile
{
    version     2.0;
    format      ascii;
    class       volScalarField;
    location    "0.005500000";
    object      fH;
}
// * * * * * * * * * * * * * * * * * * * * * * * * * * * * * * * * * * * * * //

dimensions      [0 0 0 0 0 0 0];

internalField   nonuniform List<scalar> 
12384
(
0.0309887
0.0296564
0.0287506
0.0283329
0.0282688
0.0283629
0.0284963
0.0286098
0.0287158
0.0288946
0.0293083
0.0311261
0.0339859
0.0301522
0.0227738
0.0233676
0.0240783
0.0246916
0.0249472
0.0250232
0.0250453
0.025028
0.0250293
0.0250302
0.025044
0.0250497
0.025024
0.0249917
0.0249441
0.0249146
0.0248747
0.0248493
0.0248121
0.024787
0.0247354
0.0246876
0.0246131
0.024496
0.0243321
0.0240983
0.0237915
0.023382
0.0232215
0.022951
0.0303456
0.0297823
0.0274581
0.026078
0.02583
0.0258203
0.025886
0.0259965
0.026196
0.0263869
0.0265463
0.0268048
0.0268974
0.0270897
0.0270525
0.0271387
0.0271603
0.0272258
0.0271111
0.0272545
0.0272236
0.0272603
0.0273515
0.0275085
0.0279625
0.0291543
0.0298539
0.0277489
0.0268536
0.0273147
0.0305358
0.0315693
0.0313315
0.0306591
0.0303375
0.0301378
0.0300784
0.0300693
0.0300544
0.0300445
0.0299873
0.0300767
0.0299038
0.0300852
0.0299038
0.0300802
0.0299039
0.0300766
0.0299506
0.0301491
0.0301099
0.0302207
0.0302413
0.0304014
0.0307649
0.0294611
0.0285279
0.028465
0.0285617
0.0286276
0.033465
0.0336236
0.0336197
0.0333775
0.0330004
0.0326319
0.0322898
0.032064
0.0318899
0.0317715
0.0316973
0.0316462
0.0316717
0.0316424
0.0317634
0.0317654
0.0317968
0.0318823
0.0318209
0.031706
0.0316387
0.0318753
0.0314276
0.0288647
0.0278569
0.0277884
0.028142
0.0284175
0.0286382
0.0286817
0.0334988
0.0362467
0.0371622
0.0376244
0.037862
0.0378404
0.0376916
0.0374714
0.0372955
0.037126
0.0369667
0.0368005
0.0366511
0.036541
0.0364236
0.0363884
0.0363471
0.0363372
0.0363362
0.0364083
0.0364255
0.0365173
0.0365583
0.0366569
0.0367708
0.0368053
0.0368451
0.0364468
0.0339405
0.0317926
0.0312291
0.0314206
0.0299006
0.0291139
0.0291043
0.0300141
0.0310998
0.0317457
0.0320181
0.032029
0.0319737
0.0319071
0.0317641
0.0317301
0.0315417
0.0316298
0.0315454
0.0316255
0.0316287
0.0317248
0.0318846
0.0320097
0.0318291
0.0301577
0.0268554
0.0255725
0.0254834
0.0263203
0.027206
0.027601
0.0287172
0.0290294
0.0301514
0.0319538
0.0338768
0.035189
0.0360408
0.0365477
0.0368454
0.037017
0.0371388
0.0372106
0.0372506
0.0372588
0.0372554
0.0372437
0.0372399
0.037228
0.0372215
0.0372312
0.0372664
0.0373375
0.0371734
0.0356878
0.0339775
0.0339306
0.0338819
0.0338062
0.0337666
0.0338019
0.0321543
0.0318463
0.03178
0.0319824
0.0322171
0.0324476
0.032629
0.0326535
0.0328684
0.0326497
0.0327586
0.0327083
0.0325823
0.0323038
0.0323655
0.0320313
0.0319913
0.0318242
0.0317673
0.03168
0.0321919
0.037907
0.0448573
0.0453198
0.0448002
0.0445504
0.0445627
0.0446611
0.045035
0.0452639
0.0285009
0.0301206
0.0317957
0.0327791
0.0332289
0.0334229
0.0334984
0.0335009
0.0334556
0.0333855
0.0333088
0.0332426
0.0332526
0.0331723
0.0330875
0.0329222
0.0328587
0.0328375
0.0328131
0.0326224
0.0319865
0.0325988
0.0359434
0.036715
0.0365775
0.0365568
0.0365952
0.0366621
0.0366897
0.0367064
0.0347581
0.0362712
0.0369322
0.0371917
0.0372231
0.0371539
0.0370653
0.0369794
0.0369353
0.036911
0.0369966
0.0367394
0.0367975
0.0365965
0.0364719
0.0363825
0.0363062
0.0363399
0.0363715
0.0361712
0.0366708
0.0389745
0.0387711
0.0383839
0.0384253
0.0385777
0.0386972
0.0386443
0.038396
0.0382192
0.0304177
0.0342335
0.0369882
0.0352251
0.0356982
0.0383974
0.0401162
0.0404728
0.0403317
0.0400524
0.0395757
0.0393318
0.0390542
0.0389812
0.0389725
0.0391421
0.0393084
0.0394603
0.0395929
0.0396439
0.0396024
0.0395508
0.0393469
0.039295
0.0392113
0.0391852
0.039393
0.0390281
0.0340339
0.023477
0.0170142
0.0174347
0.0175822
0.0175352
0.0174008
0.0205135
0.0485195
0.0536053
0.0530448
0.0526453
0.0525038
0.0524926
0.0525466
0.0526386
0.0528867
0.0531878
0.0535349
0.0540521
0.0545802
0.0551834
0.0556633
0.0558791
0.0558432
0.0550465
0.0527775
0.0488583
0.0451406
0.0422811
0.032702
0.0195757
0.0259115
0.0259669
0.0265802
0.0276894
0.0287577
0.0293857
0.02967
0.0296564
0.0293612
0.0288391
0.028543
0.029343
0.0325899
0.0310111
0.0228512
0.0237253
0.0247261
0.0254598
0.0256611
0.0255937
0.0254115
0.0253469
0.0252879
0.0252813
0.0252093
0.0250758
0.0249579
0.0248079
0.0247814
0.0247634
0.0247957
0.0248569
0.0248932
0.0249401
0.0249419
0.0249217
0.0248442
0.0247182
0.024527
0.0242748
0.0239723
0.0236087
0.0232808
0.0225053
0.0303399
0.0289362
0.0263634
0.0253186
0.0253175
0.0257153
0.0262107
0.026494
0.026898
0.0272424
0.0276133
0.0278014
0.0279261
0.0278867
0.027895
0.027834
0.0277899
0.0277418
0.0278275
0.0277218
0.0277297
0.0276341
0.0275452
0.0275386
0.0277333
0.0284732
0.0295836
0.0297303
0.029171
0.0291143
0.0306327
0.0315851
0.0311027
0.0303309
0.0299558
0.0298882
0.0299395
0.029941
0.0298425
0.0297099
0.0296144
0.0294182
0.0293731
0.029165
0.0290813
0.0290217
0.0290212
0.0291392
0.0293056
0.0295502
0.0297641
0.0300112
0.0301577
0.0303016
0.0306698
0.0304974
0.0296749
0.029397
0.0295503
0.0293231
0.0335548
0.0334632
0.0324695
0.031333
0.0305452
0.0300389
0.0297802
0.0296129
0.0295465
0.0294902
0.0294947
0.0294885
0.0295196
0.0295848
0.0297253
0.0298984
0.0301374
0.0304788
0.0308273
0.0310997
0.0312884
0.0316039
0.0317476
0.030701
0.0289766
0.0284136
0.028712
0.0293008
0.0295859
0.029376
0.0343912
0.0367858
0.0375772
0.0377593
0.0375542
0.0369521
0.0364324
0.0361904
0.036007
0.0357795
0.0355488
0.0354125
0.0354098
0.0354772
0.0355671
0.0356651
0.0357818
0.0358579
0.035925
0.0359359
0.0359107
0.0359321
0.0359677
0.0360845
0.0362754
0.036486
0.0366931
0.0367089
0.0359055
0.0339777
0.031432
0.0308655
0.0295963
0.0297755
0.0314483
0.0332521
0.0333969
0.0329704
0.0324068
0.0318768
0.03135
0.0308849
0.0305812
0.0303043
0.0301353
0.030193
0.0301717
0.0303318
0.0305225
0.0307683
0.0311272
0.0315701
0.0318197
0.0312662
0.0293522
0.0273883
0.0258191
0.0253367
0.0260953
0.0271608
0.032696
0.0343359
0.0375148
0.0394777
0.0402375
0.040005
0.0393772
0.0386489
0.03808
0.0376888
0.0374415
0.0372983
0.037217
0.0371847
0.0371844
0.0372047
0.0372245
0.0372575
0.0373185
0.037413
0.0375104
0.0375811
0.0374085
0.0366913
0.0348951
0.0337044
0.0333528
0.0333072
0.0332988
0.03348
0.0313183
0.0318548
0.0328391
0.0337407
0.0342722
0.0345398
0.0346422
0.0346251
0.0345154
0.0344164
0.034238
0.0340964
0.033994
0.0338002
0.0336075
0.0332892
0.0329025
0.0324642
0.0320742
0.0317435
0.0317808
0.034085
0.0413846
0.0445769
0.0424102
0.0411636
0.0408374
0.0412681
0.0428965
0.0443368
0.0313443
0.0336431
0.034513
0.0346809
0.0346221
0.0344159
0.0340271
0.0335531
0.0330867
0.0326923
0.0324017
0.0322277
0.0321633
0.0321963
0.0322205
0.0322206
0.0323528
0.0325327
0.0327031
0.0327327
0.0323053
0.0321358
0.0337944
0.0364183
0.0366751
0.036772
0.0369814
0.0371248
0.0371584
0.0372052
0.0368685
0.0376304
0.0376721
0.0374089
0.0370336
0.0367057
0.0364474
0.0362452
0.0360693
0.0359484
0.0358347
0.0356943
0.0356569
0.0355433
0.0354883
0.0355109
0.0355906
0.0357601
0.0359527
0.0359689
0.036114
0.0376747
0.0389982
0.0385439
0.0391204
0.039943
0.040328
0.0399892
0.0390306
0.0382675
0.0353122
0.0368077
0.0364171
0.0371049
0.0394197
0.0406686
0.0402021
0.0390506
0.0379654
0.0372525
0.0367612
0.0366519
0.0366433
0.0371307
0.0378228
0.0387587
0.0397441
0.0403676
0.040645
0.0406702
0.0405283
0.0402108
0.0399737
0.0395089
0.0391387
0.0388677
0.03905
0.0390474
0.0368463
0.0294776
0.021134
0.0239721
0.0242473
0.0214195
0.0209286
0.0358105
0.0515983
0.0531409
0.05216
0.0518265
0.0517114
0.0517427
0.0518702
0.0520434
0.0522666
0.0526192
0.0530575
0.053826
0.054962
0.056463
0.0577972
0.0583047
0.0582438
0.0570767
0.0533994
0.0479588
0.0438059
0.0415838
0.0338772
0.0204053
0.0253902
0.0265236
0.029057
0.0306845
0.03135
0.0313802
0.0313019
0.0311966
0.0311607
0.0305531
0.0293749
0.0287654
0.0310235
0.0314676
0.0230144
0.0242529
0.0255324
0.0262098
0.0261044
0.0257462
0.0254669
0.0253029
0.0251808
0.0250493
0.0248767
0.0246335
0.024492
0.0244608
0.0245291
0.0246454
0.0247688
0.0249104
0.0250027
0.0250815
0.025124
0.0251635
0.0251275
0.0249893
0.0247645
0.0244665
0.0241466
0.0237932
0.0234252
0.0226445
0.0302141
0.0280702
0.0257816
0.0254324
0.0261677
0.0268786
0.027127
0.0272307
0.0275655
0.0278424
0.0280345
0.0279558
0.0278949
0.0277499
0.0276787
0.0276617
0.0276071
0.0276299
0.0275925
0.0276488
0.0277287
0.0276678
0.027698
0.0276789
0.0277074
0.0280931
0.02903
0.0299444
0.0300915
0.0297286
0.0307179
0.0316864
0.0312054
0.0303592
0.029988
0.0299484
0.0299287
0.0297727
0.0296398
0.029518
0.0294028
0.0291243
0.029081
0.0287311
0.0286937
0.0284499
0.028429
0.0283826
0.0284567
0.0286002
0.0290124
0.0295
0.029956
0.0302033
0.03046
0.0307858
0.0307339
0.0305999
0.0305229
0.0298338
0.0336983
0.0319986
0.0302991
0.0295381
0.029286
0.0291897
0.0291788
0.0292
0.0292201
0.0292236
0.0292502
0.0292314
0.029225
0.0292401
0.0292479
0.029271
0.0293744
0.0295615
0.0298642
0.0302463
0.0306502
0.0310814
0.0315981
0.0316474
0.0309197
0.0301524
0.0298878
0.0302001
0.0303316
0.0297667
0.0351638
0.0372005
0.0375575
0.0370399
0.036085
0.0355414
0.0354212
0.0354167
0.0353237
0.0351027
0.0350936
0.035239
0.035382
0.0355092
0.0356581
0.0358094
0.0360647
0.0361703
0.0363558
0.0364419
0.0365276
0.0363214
0.0361385
0.0359444
0.0359311
0.0361056
0.0363639
0.0366049
0.0364613
0.0350547
0.0314265
0.0304747
0.0300188
0.0320937
0.0342146
0.0337046
0.0328435
0.0321543
0.031531
0.030864
0.030275
0.0299854
0.0299787
0.0301923
0.030529
0.0307211
0.0307715
0.0307592
0.0307194
0.0306537
0.0307048
0.0310206
0.0315153
0.0316826
0.0310327
0.0295848
0.0276486
0.0257724
0.0254596
0.0266689
0.0346599
0.0373683
0.0406468
0.0406579
0.0394204
0.0377818
0.0366425
0.0361897
0.0360637
0.0360883
0.0361904
0.0363141
0.0363993
0.0364275
0.0363904
0.0363686
0.036391
0.0362997
0.0364203
0.0365485
0.0369804
0.0374237
0.037589
0.037324
0.0361232
0.0343384
0.0333206
0.0330288
0.0331486
0.0332983
0.0322518
0.0336677
0.0347654
0.0351756
0.0352171
0.0349492
0.0344985
0.0339771
0.0335185
0.0331276
0.0328651
0.0327725
0.0327582
0.0329602
0.0331408
0.0333071
0.0332587
0.0330015
0.032575
0.0320377
0.0316373
0.0322616
0.036666
0.0429103
0.0411354
0.0381808
0.037275
0.0377301
0.0398117
0.0425946
0.0344768
0.0350688
0.0351319
0.0350766
0.0347491
0.033976
0.0329748
0.0319966
0.0311847
0.0306003
0.0302206
0.0300412
0.0300237
0.0301468
0.0303354
0.0305654
0.0309286
0.0314363
0.0320034
0.0324727
0.0324984
0.0321435
0.0325855
0.0352352
0.036772
0.0370368
0.0373435
0.037408
0.0373806
0.0375196
0.0379399
0.0377809
0.0372113
0.0365804
0.0361503
0.0358571
0.0355702
0.0352073
0.0347859
0.0343741
0.03404
0.0337211
0.0334265
0.0334361
0.0335222
0.0337308
0.0341007
0.0345447
0.0350339
0.0354271
0.0356275
0.0364929
0.0384018
0.0387843
0.039561
0.0409839
0.0414861
0.0412069
0.0397521
0.0383232
0.0367818
0.0370475
0.0378647
0.0398033
0.0405773
0.0394628
0.0380489
0.0368956
0.0362937
0.0358701
0.0354838
0.0351823
0.0350428
0.0353454
0.0360515
0.0374284
0.0389956
0.0401792
0.0405017
0.0399826
0.0389526
0.0380606
0.0379281
0.0382186
0.0383908
0.0383488
0.0385282
0.0389131
0.0380405
0.0327612
0.0312552
0.0361099
0.0344534
0.0256766
0.0302961
0.0472573
0.0526171
0.0522726
0.0516525
0.0517507
0.0520314
0.0523215
0.0525504
0.0526743
0.0527884
0.0528904
0.0530611
0.053478
0.0545546
0.0565441
0.0589357
0.059884
0.0586008
0.0561428
0.0499034
0.0436754
0.0411321
0.0406679
0.0347226
0.0208114
0.0256674
0.0282241
0.0309845
0.0313607
0.0308229
0.0300802
0.0296156
0.0297057
0.0303946
0.031124
0.0305057
0.0290521
0.0301521
0.0315099
0.0231861
0.0248629
0.0263701
0.0268625
0.0265054
0.025945
0.0254829
0.0251398
0.0249049
0.0246859
0.0244474
0.0242422
0.024242
0.0243981
0.0246255
0.0248684
0.0250896
0.0252722
0.025418
0.0255152
0.0255447
0.0255636
0.0255093
0.0253524
0.0250464
0.0246658
0.0242699
0.0239047
0.02353
0.0227415
0.0300695
0.027531
0.0257349
0.0260815
0.0274967
0.027957
0.0276453
0.0275281
0.0277691
0.027959
0.0279409
0.0277765
0.0276121
0.0275771
0.0275573
0.0276394
0.0277271
0.0277613
0.0276151
0.0276097
0.0274848
0.0276506
0.0276924
0.027753
0.027763
0.0279411
0.0285797
0.0295668
0.0301908
0.0299472
0.0307927
0.0319181
0.0314085
0.0303895
0.0299514
0.0298963
0.0298106
0.029743
0.0297566
0.0296924
0.0295212
0.029254
0.0290157
0.0288044
0.0286181
0.0284746
0.0283262
0.0281783
0.028111
0.0281297
0.0284063
0.0289337
0.0295923
0.03004
0.0302898
0.0306703
0.0310619
0.0312471
0.031131
0.0301625
0.0332649
0.0302826
0.0293523
0.0293375
0.0294691
0.0295394
0.0295132
0.02944
0.0293747
0.0293581
0.0293862
0.0294168
0.0294464
0.0294776
0.0294667
0.0294148
0.0293465
0.0293078
0.0293952
0.0296398
0.0300219
0.0304923
0.0310991
0.0316791
0.031827
0.031666
0.0313305
0.0310725
0.030918
0.0300073
0.0356925
0.03731
0.0370358
0.0358209
0.0350302
0.0349965
0.0350671
0.0351312
0.0350067
0.0348988
0.0350478
0.035133
0.0350813
0.0350657
0.0352371
0.0355436
0.0359447
0.03625
0.0364675
0.0366657
0.0367129
0.0367009
0.0365619
0.0362489
0.0359885
0.0359358
0.0360941
0.0363717
0.0364892
0.0355456
0.0313304
0.0304852
0.0315435
0.0344622
0.0341311
0.0330799
0.0327108
0.0320143
0.0309547
0.0301352
0.0299242
0.0305851
0.0315695
0.0327326
0.0336003
0.0340974
0.0341971
0.0338274
0.0330563
0.0321013
0.0313014
0.0309824
0.0311994
0.0316171
0.0316695
0.0309547
0.0293015
0.0267278
0.0253432
0.0263234
0.0359625
0.0405475
0.0409772
0.0388192
0.0368464
0.0360076
0.0358786
0.0361336
0.0365252
0.036961
0.0373502
0.0376774
0.0379213
0.0380775
0.0380816
0.0378758
0.0375356
0.0370281
0.0366985
0.0362801
0.036344
0.0368127
0.0373978
0.0375744
0.0369289
0.0353556
0.0339361
0.033405
0.0333765
0.0333456
0.0340587
0.0350382
0.0354081
0.0352416
0.0346511
0.0337765
0.0327853
0.0319082
0.0311489
0.0306116
0.0302835
0.0301138
0.0302379
0.0304783
0.0310299
0.0317685
0.0324598
0.0328646
0.0328115
0.0323742
0.0317907
0.0316285
0.0337054
0.0401676
0.0410659
0.0373814
0.0364062
0.0362942
0.0373934
0.0406407
0.0356934
0.0354797
0.0355825
0.0354992
0.0346708
0.033139
0.0315233
0.0302534
0.0294324
0.0289726
0.0287566
0.0286937
0.0287337
0.0288537
0.0290341
0.0292211
0.0295664
0.0301529
0.0309569
0.0318048
0.0323812
0.0322819
0.0321484
0.0337262
0.036216
0.0371194
0.037479
0.0374519
0.0373227
0.0376328
0.0376735
0.0372267
0.0364514
0.0359624
0.0357632
0.035454
0.0348161
0.0338959
0.0329185
0.0319747
0.0313096
0.0307608
0.0307294
0.0306073
0.0308167
0.0313463
0.0320375
0.0328899
0.0337415
0.0345339
0.0350323
0.0356717
0.0374573
0.0387354
0.0394363
0.0408645
0.0416078
0.0418121
0.0404298
0.0383861
0.0370507
0.0376649
0.0395223
0.0405275
0.0395151
0.0378502
0.0369157
0.0365253
0.0362372
0.035852
0.0353226
0.0346416
0.0339378
0.0334226
0.0334132
0.0347436
0.0368263
0.0387492
0.0393916
0.03839
0.0355794
0.0332953
0.0326234
0.0342432
0.0361023
0.0371743
0.0378189
0.038557
0.0383437
0.0342467
0.0398512
0.0466619
0.0397001
0.0309761
0.0409682
0.0514539
0.0525318
0.0517456
0.0516218
0.0518023
0.0518315
0.0517101
0.0515907
0.0516993
0.0520636
0.0525423
0.0529345
0.0531578
0.0536448
0.0553136
0.0584426
0.0605493
0.058499
0.0524664
0.0437037
0.0386613
0.0392105
0.0404041
0.034365
0.0206004
0.0260551
0.0293564
0.0311761
0.0303582
0.0291833
0.0283797
0.0278832
0.0277715
0.0285827
0.030364
0.0308115
0.0294757
0.0297575
0.0313864
0.0234052
0.0254138
0.0270905
0.0275461
0.0270166
0.0262591
0.0255604
0.0250428
0.024699
0.0243979
0.024149
0.0240694
0.0242916
0.0246626
0.0250267
0.0253125
0.0255523
0.0257161
0.0259422
0.0260283
0.0260858
0.0260508
0.0259302
0.0257078
0.0253212
0.0248329
0.0243511
0.0239555
0.0235732
0.0227742
0.0299781
0.0273633
0.0259547
0.0271246
0.0288993
0.0289324
0.02801
0.0276811
0.02786
0.0279697
0.0278564
0.0277072
0.0275664
0.0276189
0.0277909
0.0280186
0.0283274
0.0284139
0.0283684
0.027999
0.0277593
0.0277241
0.0277594
0.0278263
0.0278514
0.0279339
0.0283136
0.029162
0.0300082
0.0299467
0.0308944
0.0322152
0.0315823
0.0303014
0.0298783
0.0298663
0.0298633
0.0299414
0.029988
0.0298757
0.0296286
0.0292992
0.0290429
0.0287772
0.0286014
0.028469
0.0283247
0.0281562
0.0280188
0.0279701
0.0280906
0.0285754
0.0292728
0.029854
0.0301398
0.0304929
0.031049
0.0314548
0.0314181
0.030305
0.0319113
0.0294949
0.0296106
0.0299531
0.0301572
0.0301122
0.0298868
0.029596
0.0294552
0.0294721
0.029568
0.0296693
0.0297567
0.0297983
0.0298142
0.0297514
0.0296238
0.0294776
0.0293705
0.029415
0.0296696
0.0300296
0.0305686
0.0312393
0.0317564
0.0319875
0.0319611
0.0317572
0.0313317
0.0302541
0.0359758
0.0371951
0.0362447
0.0350525
0.0347699
0.0348026
0.0348941
0.0349527
0.0348132
0.0347654
0.0348318
0.0346318
0.0343974
0.0344359
0.0348357
0.0353607
0.0359438
0.0363067
0.0365773
0.0367063
0.0367489
0.0368355
0.0367948
0.0365523
0.036193
0.0359392
0.0359383
0.0361682
0.0364364
0.0357288
0.0312845
0.0311027
0.0336897
0.0347106
0.033339
0.0337437
0.032789
0.0308833
0.0295136
0.0294727
0.0306059
0.0325453
0.0342615
0.0352181
0.0357194
0.0359723
0.0361509
0.0360996
0.0355547
0.0343243
0.032701
0.0315482
0.0312199
0.0314855
0.0317972
0.0315826
0.0303328
0.0274362
0.0253765
0.0261915
0.0375611
0.0417571
0.0390462
0.0369826
0.0360541
0.0359742
0.0363387
0.0368775
0.0373862
0.0378114
0.038183
0.038491
0.0387568
0.039022
0.0392463
0.0393317
0.0391814
0.0386204
0.0377979
0.0368384
0.0363249
0.0363059
0.0369444
0.0375817
0.0373781
0.0362737
0.0347966
0.0340037
0.0337313
0.0334328
0.0350377
0.0355446
0.0353605
0.0346824
0.0336119
0.0323675
0.0311012
0.0301801
0.0294597
0.0290411
0.028791
0.0286945
0.0286166
0.0287682
0.0290897
0.0298196
0.0308034
0.0318649
0.0325877
0.0325375
0.0319944
0.0314772
0.0323839
0.0375371
0.0408993
0.0380538
0.0367986
0.0362796
0.0362701
0.0390477
0.035771
0.0357901
0.0360933
0.0357315
0.0341799
0.0319978
0.030141
0.0290373
0.0285393
0.0284041
0.0284037
0.0284384
0.0284744
0.028477
0.028472
0.028551
0.0287627
0.0292237
0.030013
0.0310378
0.0320047
0.0323008
0.032094
0.0328178
0.035132
0.0368789
0.0374277
0.0372806
0.0371837
0.037558
0.0377786
0.0367328
0.0359605
0.0358383
0.0357209
0.0350018
0.0336476
0.0320432
0.0305653
0.0293201
0.0285115
0.0280073
0.0277051
0.0279353
0.0283241
0.0288614
0.0298444
0.0310119
0.0322458
0.0333918
0.0342743
0.0349794
0.0365907
0.0384004
0.0391925
0.0400846
0.0408166
0.0418851
0.0410531
0.0386832
0.0372626
0.0386079
0.0403155
0.0400118
0.0382973
0.0371752
0.0369714
0.0370271
0.0370254
0.0368411
0.036403
0.0356572
0.0344877
0.033073
0.0321683
0.0324845
0.0346126
0.0374444
0.0387446
0.0375519
0.0332292
0.0298077
0.0281386
0.0304211
0.0334808
0.0357082
0.0370101
0.0381581
0.0383344
0.0347597
0.0439509
0.0512966
0.0409234
0.0366344
0.0475071
0.0526154
0.0521985
0.0515269
0.0513555
0.050803
0.0497542
0.0486783
0.0480598
0.0482557
0.0491427
0.0505534
0.052091
0.0529967
0.0533553
0.0539199
0.0566828
0.0605942
0.0592799
0.0494087
0.0402679
0.0366838
0.0389744
0.0401889
0.0329478
0.019915
0.0263166
0.0296155
0.0302129
0.029136
0.0283159
0.0278112
0.0273318
0.0269545
0.0274903
0.0293209
0.0304543
0.0295872
0.0296102
0.0312018
0.0236014
0.0260325
0.0279021
0.0283011
0.0276451
0.0266621
0.0257604
0.0250141
0.0245059
0.0241744
0.0239876
0.0241223
0.0245571
0.0250625
0.0254157
0.0256804
0.0258944
0.0261406
0.026394
0.0265483
0.0266151
0.0265506
0.0263042
0.0259839
0.0254802
0.024916
0.0243651
0.0239557
0.0235815
0.0227367
0.0299387
0.0274275
0.0264161
0.0283178
0.0302759
0.0297885
0.0282278
0.0277481
0.0278888
0.0279683
0.027899
0.0277983
0.0277008
0.0276795
0.0279199
0.0283415
0.028754
0.0289493
0.0288784
0.0285114
0.028069
0.0278377
0.0278341
0.0279191
0.0279636
0.0279726
0.0281864
0.0289065
0.0298262
0.029861
0.0310236
0.0325025
0.0316538
0.0301592
0.0298447
0.029925
0.0300109
0.0301062
0.0301259
0.0299444
0.0296562
0.0293239
0.0290465
0.0287146
0.0284784
0.0282407
0.0281093
0.0280293
0.0279321
0.0278623
0.027929
0.028398
0.029067
0.0296812
0.0300095
0.030356
0.0309593
0.0314881
0.0314796
0.0302721
0.030632
0.0295788
0.0303659
0.0308474
0.0309479
0.0306635
0.0301666
0.0296942
0.0295226
0.029582
0.0297252
0.0298856
0.0300219
0.0300537
0.030052
0.0300062
0.0298899
0.0297101
0.0295035
0.029343
0.0293922
0.0296823
0.030128
0.0307547
0.0313889
0.0318405
0.0320304
0.031938
0.0315382
0.0303274
0.0361278
0.0368752
0.0356004
0.0349057
0.0348059
0.0346949
0.0347971
0.0348552
0.0346606
0.0345372
0.034388
0.034085
0.0339278
0.0341181
0.0347545
0.0354065
0.0360313
0.0363511
0.0366853
0.0367497
0.0367479
0.036818
0.036867
0.0367247
0.0363522
0.035987
0.0358519
0.0360123
0.0363374
0.035783
0.0313548
0.0323762
0.0347617
0.0340714
0.0343853
0.0339901
0.0313243
0.0292069
0.028804
0.0299646
0.0322693
0.0343861
0.0354939
0.0355704
0.0354444
0.0352821
0.0355877
0.0361201
0.0363649
0.0356943
0.03403
0.0322855
0.0314592
0.0315013
0.0318811
0.0318936
0.0308437
0.0276357
0.0252701
0.0262502
0.0391046
0.0411285
0.0378646
0.0365493
0.0360318
0.0361696
0.0366254
0.0371576
0.0375588
0.037846
0.0380818
0.0383274
0.0386085
0.0389599
0.0393391
0.039745
0.0399345
0.0397728
0.039082
0.037854
0.0367901
0.0362442
0.0366148
0.0373793
0.0375671
0.0368578
0.035584
0.0346576
0.0340942
0.0334867
0.0356626
0.0357557
0.035064
0.0340319
0.0326904
0.0312915
0.0300323
0.0292677
0.0287337
0.0284641
0.0282874
0.028142
0.0281075
0.028059
0.028149
0.0285471
0.029407
0.0306746
0.0319402
0.0324522
0.0320937
0.031455
0.0317806
0.035531
0.040208
0.0391512
0.0380267
0.0369208
0.0361735
0.0379472
0.0357603
0.036182
0.0364922
0.0357203
0.0336913
0.0311809
0.0294167
0.0286496
0.0284775
0.0285171
0.0285853
0.0286335
0.0286251
0.0285564
0.0284867
0.0284521
0.0284868
0.0287306
0.0293889
0.0304246
0.0316032
0.032228
0.032119
0.0323198
0.0339744
0.0359916
0.036905
0.0368403
0.0370014
0.0375908
0.0374451
0.0363077
0.0358795
0.0359515
0.0356819
0.0344181
0.0323876
0.0304385
0.0287306
0.0275454
0.0268847
0.026388
0.0263547
0.0263117
0.026587
0.0272183
0.0281329
0.0292781
0.0307109
0.0321453
0.0334114
0.0343805
0.0358824
0.0379671
0.0390337
0.0395414
0.0402177
0.0418235
0.0415186
0.0393156
0.0375305
0.0392549
0.040342
0.0391969
0.0376832
0.0373092
0.0374979
0.0376916
0.0377959
0.0377554
0.037564
0.0371121
0.0361752
0.0344649
0.0323658
0.0312668
0.0324882
0.0358991
0.0381879
0.0376237
0.0330926
0.029077
0.0271527
0.0288192
0.0319561
0.0345583
0.0363736
0.0379552
0.0382521
0.0346406
0.0448614
0.0516838
0.0421159
0.041327
0.0504692
0.0527699
0.0519142
0.0512162
0.0503886
0.0486691
0.0464637
0.0446014
0.0436401
0.0437289
0.0450655
0.0472512
0.0498801
0.0523275
0.053424
0.053507
0.0544776
0.0594937
0.0610082
0.0496804
0.0396688
0.0368087
0.0388926
0.0390065
0.029879
0.0192834
0.0263368
0.0292379
0.0291913
0.0282864
0.0279308
0.02755
0.0269351
0.0265988
0.0270765
0.0285311
0.0296447
0.0293391
0.0295072
0.0310616
0.0238758
0.0266161
0.0286172
0.0289724
0.0281828
0.0270815
0.0260185
0.0250023
0.0243662
0.0240301
0.0239626
0.0242681
0.0248221
0.0253447
0.0256571
0.025963
0.0263007
0.026659
0.026972
0.02708
0.0270744
0.0268621
0.0264775
0.0260016
0.0254069
0.0248099
0.0242735
0.0238934
0.0235157
0.0226228
0.0298844
0.0276292
0.0271352
0.0296183
0.0315166
0.0304652
0.0283503
0.0277665
0.0278984
0.0280049
0.0280489
0.0280188
0.0278319
0.0276972
0.0278348
0.0283385
0.0288445
0.0290465
0.0289133
0.0285107
0.0281189
0.0279762
0.0280072
0.0280636
0.0280748
0.028024
0.0281544
0.0287993
0.0297121
0.0297357
0.031228
0.032693
0.0314312
0.0300426
0.029873
0.0300173
0.0301197
0.0302001
0.0301824
0.0300072
0.029726
0.0293873
0.0290419
0.0286256
0.0283074
0.0279688
0.0278161
0.0277436
0.0277173
0.0277443
0.0278647
0.0284265
0.0290005
0.0295956
0.0299215
0.0303195
0.030936
0.0315072
0.0313796
0.0301112
0.0301116
0.0301097
0.0313536
0.0317936
0.0316836
0.0311315
0.0303845
0.0297931
0.0295933
0.0296428
0.0297881
0.0299759
0.0300901
0.0301859
0.03019
0.030135
0.0300258
0.0298753
0.0296501
0.029424
0.0293106
0.0294959
0.0298498
0.0303725
0.0310085
0.0315273
0.0318681
0.0319398
0.0315738
0.030328
0.0361861
0.0364862
0.0353756
0.0350986
0.034892
0.0345969
0.0347513
0.0348158
0.0345277
0.0342422
0.034027
0.0337986
0.0337138
0.0340466
0.0347432
0.0354629
0.0359569
0.0363148
0.0367605
0.0368211
0.0367708
0.0368357
0.0369111
0.0367792
0.0364164
0.0359774
0.0357595
0.0358743
0.0362582
0.035751
0.0316551
0.033616
0.0348696
0.0346032
0.0353306
0.0330312
0.0299264
0.0286708
0.0288709
0.0306845
0.033192
0.0347661
0.0352684
0.0347852
0.0343466
0.0344324
0.0348649
0.0359414
0.0365333
0.036068
0.034518
0.0325832
0.0316217
0.0316242
0.0320336
0.0321658
0.0308342
0.0268922
0.0251983
0.0265424
0.040056
0.0402066
0.0375481
0.0364017
0.0359698
0.0361284
0.036596
0.037046
0.0373117
0.037535
0.0378019
0.038193
0.0386634
0.0391223
0.039499
0.039887
0.0403266
0.0402887
0.0399481
0.0387459
0.0372724
0.0363612
0.0364548
0.0371584
0.0376203
0.0371605
0.0361513
0.0351478
0.0343045
0.033538
0.036147
0.0358343
0.0347371
0.0335649
0.0321187
0.0307516
0.0295598
0.0289493
0.0285267
0.0282692
0.0280063
0.0278275
0.0277451
0.027743
0.0277568
0.0279254
0.0285651
0.0297601
0.0312552
0.0321637
0.0320328
0.0314148
0.0315248
0.0344004
0.0392348
0.0396743
0.0387988
0.0372458
0.0362587
0.0375627
0.0359272
0.0364305
0.0365512
0.0357569
0.0335493
0.0308712
0.029203
0.0286777
0.0286231
0.0286619
0.0286829
0.0287454
0.028765
0.0287059
0.0286102
0.0285218
0.0284576
0.0285759
0.0290977
0.0300716
0.0313177
0.0321487
0.032146
0.0321378
0.0332006
0.0348948
0.0357843
0.0362117
0.0369547
0.0377017
0.0371722
0.0362407
0.0358856
0.0360399
0.0356831
0.03403
0.0315542
0.0295359
0.027642
0.0267019
0.0259257
0.0254623
0.0252764
0.0253815
0.0256849
0.0261719
0.0270373
0.0280019
0.0294754
0.0310174
0.0326106
0.0338296
0.0353571
0.0375887
0.038925
0.0393516
0.0400741
0.0416925
0.0417943
0.0401161
0.0377622
0.0396234
0.0401678
0.0386154
0.0375935
0.0376468
0.0378537
0.0378974
0.0378713
0.0378895
0.0379448
0.0378392
0.0373834
0.0362984
0.0340645
0.0312913
0.0309795
0.0339133
0.03728
0.0380493
0.0348281
0.0307211
0.0282198
0.0290692
0.0316794
0.0342294
0.0363949
0.0379669
0.0377355
0.0342839
0.0429751
0.0518684
0.0437034
0.0446921
0.0516593
0.0527379
0.0516681
0.0506917
0.0489346
0.0460964
0.0429262
0.0405236
0.0393615
0.0397456
0.0414292
0.044004
0.0472757
0.0507308
0.0531683
0.053764
0.0535758
0.0574394
0.0619255
0.0515102
0.0396953
0.0364399
0.038007
0.0356465
0.0259061
0.0186564
0.0261342
0.0284021
0.0281151
0.0276516
0.0277335
0.0273528
0.0266973
0.0264851
0.0270055
0.0281594
0.0290159
0.0291862
0.0297177
0.0310388
0.0241323
0.0270883
0.029177
0.0294366
0.0284705
0.0274617
0.0263129
0.025013
0.0242429
0.0239385
0.0239623
0.0243627
0.024951
0.0254493
0.0258384
0.0262683
0.0267395
0.0270666
0.0272262
0.0272176
0.0269635
0.0266471
0.0261482
0.0256219
0.0250466
0.0245304
0.0241003
0.0237471
0.0232633
0.0224739
0.0298925
0.0279393
0.0279296
0.0307806
0.0325451
0.0310726
0.0284499
0.0277572
0.02788
0.0280595
0.0282173
0.0282976
0.0281263
0.0278004
0.0277797
0.0280762
0.0285743
0.0288298
0.0287792
0.0285182
0.0283072
0.0282309
0.0282243
0.0282113
0.028124
0.0280317
0.0281818
0.0288526
0.0296356
0.0295718
0.0313778
0.0328087
0.0312925
0.0299876
0.0299261
0.0300904
0.0301937
0.0302524
0.030218
0.0300953
0.0298985
0.0295594
0.0291294
0.0286151
0.028147
0.0277894
0.0275802
0.0275271
0.0275263
0.0277497
0.0280296
0.0285463
0.029049
0.0295747
0.0298967
0.0303671
0.031056
0.0316003
0.0310655
0.0299217
0.0301193
0.0312294
0.0322174
0.0325921
0.0323536
0.0315834
0.0306369
0.0299398
0.0296516
0.0296751
0.0297895
0.0299559
0.0300957
0.0301963
0.0301981
0.0301645
0.0300544
0.0298992
0.0296999
0.029461
0.0293175
0.02939
0.0297015
0.0301521
0.0307064
0.0312525
0.0317019
0.0318475
0.0314236
0.0302609
0.0361651
0.0362612
0.0355201
0.0354636
0.0348839
0.0345007
0.0347253
0.0348478
0.0344564
0.0340229
0.0338142
0.0336907
0.0338207
0.0341601
0.0348334
0.0354543
0.0358416
0.0362034
0.0366309
0.036907
0.0369073
0.0368972
0.0369263
0.0366714
0.0362714
0.0358337
0.0356244
0.0358645
0.0361709
0.0356092
0.0319346
0.0343673
0.0351329
0.0356911
0.0354466
0.0324768
0.0297723
0.0286337
0.0289229
0.0306715
0.0330269
0.0345382
0.0347909
0.0343919
0.0340556
0.0343625
0.0351134
0.0358848
0.0361183
0.0354542
0.0338957
0.0323722
0.0317309
0.0318959
0.0323543
0.0322483
0.0296692
0.0258167
0.025343
0.0269204
0.0406261
0.0397005
0.0374351
0.0363035
0.0358292
0.0359508
0.0363991
0.0368223
0.0371096
0.0373856
0.037755
0.038407
0.0392359
0.0399959
0.0403736
0.0405442
0.0408309
0.0408155
0.0405485
0.0392448
0.0376621
0.0364884
0.0363843
0.0370431
0.0376432
0.0373131
0.0365039
0.0355073
0.0343077
0.033884
0.0366688
0.0360485
0.0346554
0.0333776
0.0319443
0.0306055
0.0294402
0.0288876
0.0284348
0.0280523
0.02762
0.0272954
0.0272213
0.0273581
0.0274865
0.0276336
0.0281862
0.0292698
0.0307874
0.031828
0.0318612
0.031313
0.0313435
0.0337323
0.0381847
0.0394261
0.0387258
0.0371214
0.0364744
0.0371833
0.0361159
0.0365891
0.036728
0.0359633
0.0338292
0.03102
0.0293279
0.0287883
0.0287395
0.0287052
0.0286775
0.0287491
0.0288402
0.028807
0.0286893
0.0286121
0.0285235
0.0285721
0.029061
0.029983
0.0312335
0.0321126
0.0321215
0.0320063
0.0326237
0.0338228
0.0348246
0.0363152
0.0374435
0.0379859
0.0371675
0.0364379
0.0359831
0.0361016
0.035808
0.0339559
0.0312496
0.0290879
0.0271513
0.0262324
0.025328
0.0250291
0.0249075
0.0249345
0.025196
0.0255994
0.0264157
0.0272133
0.0286658
0.0301839
0.032006
0.0333716
0.0350368
0.0373398
0.0389044
0.0394808
0.0404102
0.0417456
0.0419356
0.040539
0.0379123
0.0397828
0.0399731
0.0383576
0.0376768
0.0378011
0.0377275
0.0374063
0.0371604
0.0372448
0.0375836
0.0379031
0.0378037
0.0372053
0.0360074
0.032935