/*--------------------------------*- C++ -*----------------------------------*\
| =========                 |                                                 |
| \\      /  F ield         | OpenFOAM: The Open Source CFD Toolbox           |
|  \\    /   O peration     | Version:  2.1.1                                 |
|   \\  /    A nd           | Web:      www.OpenFOAM.org                      |
|    \\/     M anipulation  |                                                 |
\*---------------------------------------------------------------------------*/
FoamFile
{
    version     2.0;
    format      ascii;
    class       volScalarField;
    location    "0.005500000";
    object      G;
}
// * * * * * * * * * * * * * * * * * * * * * * * * * * * * * * * * * * * * * //

dimensions      [0 0 0 0 0 0 0];

internalField   nonuniform List<scalar> 
12384
(
1
1
1
1
1
1
1
1
1
1
1
1
1
1
1
1
0.999999
1
1
1
1
1
1
1
1
1
1
0.999999
0.999998
0.999996
0.999991
0.999986
0.999979
0.999977
0.999966
0.999968
0.999961
0.999963
0.999963
0.999978
0.999998
1
1
1
1
1
0.999997
0.999971
0.999932
0.999863
0.999791
0.999726
0.999853
0.999903
0.999934
0.999951
0.999915
0.999877
0.999657
0.999359
0.999166
0.998878
0.998768
0.999435
0.999262
0.999639
0.999683
0.999854
0.999947
0.999991
1
1
1
1
1
1
1
0.999997
0.99999
0.99997
0.999949
0.999926
0.999876
0.999684
0.999033
0.996914
0.992584
0.977265
0.971868
0.953552
0.947829
0.977481
0.97566
0.990489
0.994341
0.996963
0.998667
0.999475
0.999638
0.998887
0.999498
0.999982
1
1
1
1
1
0.999998
0.999986
0.999918
0.999618
0.998633
0.996586
0.992132
0.986646
0.974468
0.975885
0.973795
0.969626
0.97279
0.974467
0.978933
0.981938
0.986142
0.990315
0.994194
0.998163
0.999284
0.999886
0.999995
1
1
1
1
1
1
1
1
1
1
0.999999
0.999998
0.999998
0.999998
0.999997
0.999992
0.999975
0.999913
0.999666
0.999285
0.997889
0.997747
0.997241
0.999119
0.998979
0.999527
0.999566
0.999647
0.999692
0.999746
0.999934
0.999999
1
1
1
1
0.999997
0.999919
0.99985
0.999978
0.999992
0.999985
0.999932
0.999402
0.996784
0.985707
0.960004
0.892932
0.870457
0.793794
0.839723
0.852393
0.916828
0.956034
0.9807
0.992702
0.995826
0.992523
0.969534
0.954314
0.971336
0.991689
0.998892
0.999928
1
1
1
0.999999
0.999993
0.999949
0.99972
0.998802
0.996188
0.990666
0.981873
0.969464
0.952897
0.955377
0.947617
0.961518
0.950882
0.979263
0.978996
0.993653
0.996145
0.9992
0.999848
0.999989
1
1
1
1
1
1
1
0.999999
0.999982
0.999849
0.99922
0.99674
0.990851
0.975502
0.962613
0.923405
0.92628
0.92032
0.927548
0.948019
0.95321
0.96672
0.972727
0.981348
0.988968
0.995225
0.998606
0.999885
0.999992
0.999998
1
1
1
1
1
1
1
1
1
0.999994
0.999893
0.999173
0.99619
0.988082
0.970083
0.942772
0.91114
0.894779
0.888926
0.918247
0.926239
0.936405
0.963989
0.982343
0.99348
0.997979
0.999441
0.999943
0.999998
0.999999
0.999999
1
1
1
1
1
1
1
0.999981
0.999485
0.995944
0.982653
0.948107
0.892846
0.794391
0.726409
0.588871
0.620202
0.503147
0.563911
0.563543
0.681672
0.788872
0.881654
0.948843
0.98423
0.997051
0.999601
0.999901
0.999973
0.999993
0.999997
0.999998
0.999996
0.999995
0.999998
1
0.999999
0.999924
0.999296
0.998826
0.999686
0.999927
0.99993
0.999955
0.999948
0.999967
0.999979
0.999987
0.999989
0.999984
0.999927
0.999854
0.998684
0.998105
0.986553
0.988542
0.968137
0.982159
0.976102
0.980063
0.984803
0.99153
0.997996
0.999971
1
1
1
0.999999
0.999999
0.999981
0.999843
1
0.999978
0.999761
0.999151
0.998087
0.996757
0.995081
0.994688
0.993661
0.996636
0.997987
0.999346
0.99986
0.999982
0.999999
1
1
1
1
1
1
1
1
1
1
1
1
1
1
1
1
1
1
1
1
1
1
1
1
0.999999
0.99998
0.999986
0.999981
0.999985
0.999981
0.999995
0.999997
0.999999
0.999999
0.999997
0.999982
0.999885
0.999423
0.99803
0.995003
0.990817
0.986131
0.983568
0.98258
0.982983
0.984301
0.985318
0.987696
0.991816
0.996719
0.999573
0.999997
1
1
0.99934
0.972764
0.916228
0.907584
0.932878
0.971767
0.988642
0.996724
0.998232
0.99788
0.99262
0.971249
0.903784
0.776875
0.619193
0.507188
0.403814
0.430025
0.444694
0.511331
0.646311
0.74673
0.86507
0.951486
0.991848
0.99968
0.999998
1
1
0.999999
0.999844
0.999418
0.997758
0.995672
0.995635
0.995138
0.992239
0.974827
0.917429
0.784348
0.571474
0.363656
0.176518
0.10249
0.0574516
0.0473603
0.0513855
0.0756177
0.115948
0.205275
0.325084
0.510878
0.725795
0.913589
0.970674
0.992969
0.999297
0.999881
0.999931
1
1
0.999948
0.997777
0.982787
0.934585
0.839762
0.708314
0.54838
0.376132
0.275681
0.209222
0.135929
0.109159
0.113004
0.117079
0.131898
0.154099
0.1892
0.247044
0.36318
0.574412
0.844353
0.980294
0.998344
0.999811
0.999977
0.999998
0.999999
1
1
0.999999
0.999977
0.999847
0.99969
0.999688
0.999801
0.999896
0.999918
0.999852
0.999463
0.997568
0.990041
0.968963
0.91843
0.84654
0.736106
0.658159
0.581386
0.547385
0.553833
0.599421
0.661433
0.702919
0.780672
0.858165
0.951901
0.996625
0.999987
1
1
0.999998
0.999618
0.99976
0.999987
0.999996
0.999831
0.992466
0.928913
0.732602
0.450677
0.207635
0.105209
0.0158997
0.0147225
0.00375448
0.00294238
0.00316326
0.00475887
0.0125493
0.0347717
0.0962911
0.236028
0.413792
0.514542
0.626295
0.695743
0.801679
0.941188
0.994213
1
1
1
0.999961
0.99769
0.977507
0.912333
0.788047
0.624045
0.451078
0.29164
0.20021
0.127426
0.0862877
0.0675662
0.066214
0.0676413
0.1131
0.138376
0.26164
0.371064
0.600898
0.813404
0.962639
0.997914
0.999988
1
1
1
1
1
0.999544
0.996454
0.98276
0.931696
0.819821
0.624526
0.420467
0.249065
0.165651
0.0980906
0.0739591
0.0701845
0.0663917
0.0750022
0.0893586
0.124112
0.154067
0.228128
0.358075
0.581262
0.858573
0.990962
0.999898
0.999987
0.999987
0.999992
0.999997
0.999998
1
1
0.999993
0.998906
0.983885
0.9257
0.799316
0.607614
0.38966
0.209991
0.0993351
0.0414406
0.0184606
0.00949581
0.00679664
0.00627525
0.00801779
0.0194145
0.0534953
0.139865
0.344752
0.672662
0.945596
0.999203
0.99999
0.999982
0.999972
0.999981
0.999987
0.99998
0.999999
1
0.999761
0.98075
0.856675
0.606027
0.338851
0.160794
0.0632613
0.0195984
0.00758765
0.0019665
0.000845665
0.000480995
0.000248851
0.000314475
0.00082778
0.00213041
0.00866812
0.034836
0.126325
0.413025
0.853855
0.995376
0.999549
0.998649
0.997504
0.997819
0.998211
0.998228
0.99998
0.999988
0.99994
0.992828
0.958747
0.961025
0.942084
0.922466
0.888305
0.893964
0.902997
0.939325
0.964481
0.985005
0.992096
0.995776
0.990936
0.98604
0.925811
0.875414
0.587242
0.552431
0.25619
0.211542
0.20202
0.198767
0.26826
0.41763
0.682494
0.937597
0.998978
1
0.99999
0.99991
0.985261
0.690326
0.901847
0.957448
0.839103
0.659983
0.51825
0.427411
0.384527
0.383741
0.426754
0.509764
0.617386
0.753164
0.876615
0.957194
0.993034
0.999605
0.999994
1
1
1
1
1
1
1
1
1
1
1
1
1
1
1
1
1
1
1
1
1
1
1
0.999986
0.99999
0.999996
0.999992
0.999989
0.999983
0.99999
0.999988
0.999988
0.999973
0.999915
0.999704
0.999218
0.99837
0.997354
0.995887
0.994807
0.99315
0.992962
0.993339
0.9952
0.995966
0.996103
0.995181
0.994284
0.994986
0.998004
0.999864
1
1
0.992664
0.940892
0.923426
0.95384
0.978356
0.990964
0.995253
0.997449
0.996152
0.990636
0.967909
0.908268
0.813313
0.677686
0.558859
0.489672
0.403512
0.407562
0.395389
0.502999
0.616817
0.74191
0.84136
0.922625
0.975272
0.996503
0.999906
1
1
0.999996
0.999257
0.999164
0.997777
0.994897
0.990482
0.97734
0.941771
0.864131
0.763741
0.6453
0.498712
0.38997
0.23341
0.185374
0.106376
0.0894055
0.0834312
0.091706
0.126326
0.156474
0.226096
0.316303
0.484016
0.728097
0.898494
0.974001
0.997414
0.999644
0.999604
1
0.999986
0.999163
0.991893
0.970679
0.930299
0.875001
0.787705
0.663211
0.551379
0.452509
0.323263
0.250379
0.222167
0.192696
0.188256
0.194119
0.20774
0.22214
0.236876
0.266164
0.340693
0.52315
0.795976
0.968413
0.997624
0.999894
0.999993
0.999997
0.999998
1
0.999977
0.999794
0.999558
0.999563
0.999722
0.9998
0.9998
0.999686
0.999377
0.998678
0.996809
0.991387
0.978378
0.949108
0.91245
0.85353
0.817423
0.750833
0.740225
0.729174
0.772215
0.791816
0.81263
0.816525
0.84247
0.897594
0.975163
0.999411
0.999999
1
0.99991
0.999675
0.999992
0.999997
0.999795
0.98834
0.906774
0.726401
0.487557
0.257703
0.140367
0.0720845
0.0213188
0.0295572
0.00792563
0.00604392
0.00535205
0.0061778
0.00958145
0.0169373
0.0360533
0.0876622
0.207098
0.380322
0.552602
0.649494
0.697096
0.821857
0.978291
0.999999
1
0.999994
0.999273
0.991429
0.964245
0.902859
0.805191
0.666406
0.504367
0.365529
0.258561
0.162858
0.122976
0.0949064
0.0964419
0.084252
0.144754
0.147712
0.274202
0.319546
0.479126
0.639859
0.828308
0.959631
0.996715
0.99995
1
1
1
0.999995
0.998274
0.993073
0.972648
0.914921
0.813199
0.600101
0.452485
0.265133
0.199157
0.119033
0.0982713
0.0806668
0.0955013
0.103013
0.115837
0.137962
0.175918
0.190857
0.231998
0.330322
0.548219
0.86274
0.991532
0.999968
0.999999
0.999999
0.999998
0.999997
1
1
0.999482
0.989113
0.944544
0.848449
0.703343
0.520452
0.330715
0.181242
0.0911049
0.039104
0.0201859
0.0102399
0.00634422
0.00559564
0.00713202
0.0133908
0.0286962
0.0696617
0.161112
0.364506
0.697234
0.962567
0.999194
0.999956
0.999998
1
0.999996
0.999962
0.999999
1
0.99099
0.860154
0.59122
0.369851
0.225911
0.126232
0.0621208
0.0274125
0.0120734
0.00389387
0.00194115
0.000632804
0.000517568
0.000305658
0.000537732
0.00145687
0.00308583
0.0103088
0.0334566
0.12037
0.435768
0.882895
0.994376
0.99914
0.999754
0.999782
0.998695
0.993558
0.999944
0.999868
0.993424
0.957948
0.915825
0.875954
0.75912
0.692588
0.632514
0.643748
0.67605
0.723335
0.774246
0.828477
0.859693
0.912781
0.894361
0.92422
0.860231
0.886584
0.701932
0.726101
0.424248
0.340775
0.315622
0.268641
0.275026
0.338895
0.514935
0.804558
0.996959
1
1
1
0.963765
0.770406
0.885345
0.805856
0.632978
0.507332
0.443669
0.419577
0.415474
0.420062
0.442078
0.506231
0.574237
0.660367
0.731924
0.842308
0.934301
0.99036
0.99974
1
1
1
1
1
1
1
1
1
1
1
1
1
1
1
1
1
1
1
1
1
1
1
0.9999
0.99999
0.999998
0.999997
0.999996
0.99999
0.999984
0.999948
0.999894
0.999651
0.998954
0.997736
0.997207
0.997591
0.99838
0.998861
0.99911
0.999184
0.999141
0.99918
0.999273
0.999406
0.999354
0.998976
0.997918
0.996472
0.997032
0.999387
0.999997
0.999999
0.963759
0.914007
0.943174
0.982523
0.992321
0.995584
0.996424
0.995195
0.988376
0.961573
0.890909
0.813241
0.747786
0.704152
0.671949
0.653751
0.607211
0.597173
0.540733
0.613273
0.647205
0.771294
0.851001
0.915201
0.963359
0.99049
0.999223
0.999989
1
0.999986
0.997042
0.998529
0.997325
0.993886
0.979284
0.927654
0.82671
0.68797
0.593613
0.506029
0.454768
0.405829
0.356985
0.317326
0.272279
0.262617
0.215793
0.233398
0.215759
0.2452
0.223381
0.268282
0.356471
0.548577
0.785946
0.942415
0.993211
0.999405
0.999414
1
0.999886
0.996508
0.980715
0.953058
0.925815
0.883103
0.813172
0.765545
0.69153
0.582902
0.486742
0.47247
0.393123
0.359879
0.332214
0.33258
0.332461
0.3224
0.298821
0.278628
0.281167
0.337549
0.523432
0.803782
0.968054
0.997226
0.99988
0.999984
0.999993
0.999999
0.999738
0.999245
0.999415
0.999643
0.999765
0.999703
0.999472
0.998984
0.998339
0.996876
0.992783
0.981026
0.95808
0.928344
0.915659
0.910731
0.907852
0.89707
0.891886
0.904364
0.889066
0.908477
0.897176
0.897145
0.883489
0.891486
0.943752
0.995245
0.999995
0.999999
0.999395
0.999914
0.999997
0.999926
0.993969
0.935552
0.78425
0.549478
0.360853
0.227921
0.277925
0.193053
0.327101
0.219417
0.216268
0.20113
0.143442
0.0833252
0.0437368
0.0334493
0.0356764
0.0576453
0.126732
0.295604
0.53428
0.654885
0.639468
0.690709
0.954692
0.999997
1
0.999899
0.996927
0.982422
0.947886
0.89084
0.801867
0.674669
0.552695
0.426529
0.289227
0.221209
0.166632
0.131925
0.119694
0.137961
0.179154
0.200445
0.315652
0.34281
0.470098
0.555209
0.698096
0.860028
0.967413
0.997669
0.999977
0.999999
1
0.99999
0.997088
0.985267
0.945705
0.855034
0.727025
0.513514
0.421018
0.242048
0.162444
0.121503
0.0902496
0.0910893
0.0855347
0.120954
0.144839
0.171355
0.198151
0.226149
0.218331
0.237048
0.332148
0.601211
0.907214
0.997435
0.999996
1
0.999998
0.999992
1
1
0.996921
0.969676
0.886747
0.738025
0.545624
0.348453
0.207762
0.116156
0.0668518
0.0379993
0.0250144
0.0155736
0.0119723
0.0099088
0.00913744
0.0137681
0.0229868
0.0487073
0.0995846
0.207335
0.434076
0.7804
0.976343
0.998639
0.999985
1
0.999996
0.999959
0.999999
0.999999
0.934398
0.644806
0.397735
0.272388
0.194984
0.128442
0.0850004
0.0372395
0.0159415
0.0062064
0.00202217
0.00133693
0.000424346
0.000662939
0.000765541
0.00141082
0.0030803
0.0056729
0.01303
0.0408313
0.169208
0.569326
0.917039
0.994076
0.99992
0.999988
0.999264
0.988017
0.999912
0.998994
0.943152
0.889053
0.819359
0.672119
0.568668
0.522305
0.533895
0.576049
0.592095
0.602001
0.579469
0.570053
0.570357
0.574764
0.573306
0.716298
0.667423
0.794385
0.740106
0.766282
0.703181
0.603266
0.51589
0.426971
0.352721
0.342224
0.439509
0.677683
0.994919
1
1
0.999962
0.870671
0.719507
0.799512
0.66048
0.526524
0.488248
0.494828
0.504596
0.512445
0.538164
0.556372
0.564347
0.60102
0.628424
0.673641
0.72042
0.832908
0.946773
0.996812
0.999993
1
1
1
1
1
1
1
1
1
1
1
1
1
1
1
1
1
1
1
1
1
0.999999
0.999502
0.99999
0.999999
1
0.999999
0.999997
0.999977
0.999879
0.99944
0.997845
0.994824
0.993622
0.996424
0.99891
0.999718
0.999925
0.999981
0.999991
0.999993
0.999986
0.999978
0.999959
0.999931
0.999818
0.99937
0.998021
0.997014
0.998757
0.999989
0.999998
0.896266
0.875345
0.958182
0.99292
0.997419
0.997519
0.99626
0.992403
0.969041
0.904833
0.81213
0.756486
0.75871
0.785757
0.833347
0.873073
0.88299
0.898939
0.836869
0.830145
0.79444
0.844476
0.880247
0.929538
0.962597
0.986367
0.997824
0.999928
0.999999
0.999958
0.989154
0.996592
0.996195
0.990543
0.956465
0.843649
0.666437
0.517367
0.426492
0.373307
0.37862
0.405013
0.428492
0.503668
0.516014
0.553202
0.54686
0.501687
0.426038
0.372921
0.319118
0.29249
0.328923
0.449984
0.692405
0.90801
0.9887
0.999027
0.999234
1
0.999477
0.988034
0.9557
0.924432
0.891062
0.840424
0.839075
0.83402
0.794601
0.815454
0.835026
0.788349
0.721592
0.667842
0.62956
0.581177
0.529578
0.483358
0.426462
0.372822
0.313548
0.308939
0.390063
0.604041
0.853002
0.977831
0.998335
0.999923
0.999984
0.999991
0.998329
0.998401
0.999382
0.99974
0.999724
0.999446
0.998743
0.997615
0.996039
0.991475
0.973655
0.932751
0.888838
0.882244
0.918191
0.953538
0.978238
0.987308
0.989548
0.985755
0.980576
0.966729
0.958886
0.942738
0.922543
0.90163
0.918118
0.982243
0.999987
0.999988
0.998594
0.999977
0.99998
0.998573
0.978644
0.856097
0.556172
0.316575
0.297456
0.387568
0.586243
0.669632
0.80892
0.669529
0.732297
0.665071
0.540269
0.437098
0.265021
0.112066
0.0564695
0.0637375
0.113672
0.260909
0.527789
0.702406
0.596498
0.559139
0.927907
0.999995
0.999998
0.99953
0.991607
0.964177
0.914153
0.840864
0.752615
0.678152
0.598491
0.476801
0.424004
0.341586
0.26105
0.220507
0.220619
0.189465
0.277726
0.26614
0.387996
0.404326
0.488148
0.525719
0.613843
0.757691
0.90629
0.986368
0.999634
0.999995
1
0.999983
0.994966
0.969277
0.889624
0.75038
0.599319
0.441494
0.374052
0.226163
0.208057
0.163098
0.154745
0.13654
0.135719
0.121977
0.17721
0.215531
0.232443
0.255993
0.245452
0.214275
0.238358
0.389308
0.733709
0.96773
0.999696
0.999999
0.999997
0.999992
1
0.999999
0.994182
0.946442
0.790444
0.556439
0.330631
0.177879
0.107691
0.076779
0.079056
0.0629922
0.0505033
0.0339435
0.0208919
0.0144705
0.0132959
0.0178953
0.0224431
0.0430574
0.0743104
0.141389
0.274628
0.558437
0.885483
0.987744
0.999417
0.999994
0.999984
0.999944
0.999998
0.999984
0.804364
0.481103
0.306009
0.220162
0.152539
0.110415
0.0554046
0.0234431
0.0108734
0.00404852
0.00316993
0.00156174
0.00192029
0.000759546
0.000564064
0.00136337
0.00246855
0.00654969
0.00625149
0.0172824
0.061318
0.291635
0.722336
0.955067
0.999156
0.999988
0.999557
0.98564
0.999909
0.994903
0.858235
0.799084
0.656935
0.539106
0.496788
0.560751
0.615314
0.658397
0.677344
0.657922
0.606524
0.530836
0.390229
0.301302
0.300988
0.403901
0.420167
0.641993
0.679037
0.750996
0.885065
0.845481
0.731995
0.585661
0.438476
0.356132
0.39653
0.576724
0.9944
1
1
0.996433
0.729867
0.772654
0.695364
0.552213
0.509934
0.53724
0.585264
0.634506
0.677263
0.698984
0.71794
0.732567
0.666552
0.681811
0.630163
0.679694
0.732964
0.885897
0.984775
0.999907
1
1
1
1
1
1
1
1
1
1
1
1
1
1
1
1
1
1
1
1
1
0.999997
0.998643
0.999989
1
1
1
0.999999
0.999972
0.999659
0.99819
0.99316
0.986439
0.99177
0.997714
0.999664
0.999956
0.999996
1
1
1
1
1
0.999998
0.999992
0.999956
0.999741
0.998712
0.997178
0.997982
0.999978
0.999993
0.798229
0.827101
0.966554
0.997696
0.999085
0.998719
0.99642
0.988856
0.949734
0.849836
0.753725
0.744402
0.739473
0.818845
0.887446
0.947734
0.978246
0.991779
0.985826
0.973791
0.926853
0.921127
0.928142
0.952827
0.968993
0.985762
0.996478
0.999754
0.999998
0.999866
0.968228
0.990593
0.993477
0.983562
0.922113
0.754655
0.534138
0.370616
0.292205
0.255484
0.30002
0.319481
0.450928
0.570756
0.759217
0.876301
0.899991
0.877316
0.695494
0.586802
0.390979
0.336472
0.309347
0.418173
0.648439
0.887301
0.987273
0.998838
0.999176
1
0.998131
0.969846
0.918776
0.851638
0.792829
0.782912
0.792031
0.77922
0.861712
0.94362
0.965518
0.987315
0.991538
0.985074
0.953662
0.89366
0.80623
0.701618
0.588025
0.474019
0.389901
0.332825
0.366055
0.505466
0.759998
0.935705
0.993557
0.999723
0.999976
0.999954
0.99317
0.996933
0.999432
0.999788
0.999655
0.999081
0.997542
0.995255
0.990426
0.974133
0.920947
0.834521
0.784551
0.835897
0.912185
0.973103
0.996035
0.99979
0.999963
0.999805
0.998623
0.994896
0.982893
0.97051
0.939065
0.899465
0.887345
0.961645
0.999985
0.999936
0.998424
0.999952
0.999751
0.995947
0.939207
0.614905
0.283907
0.210229
0.368457
0.59104
0.812985
0.859847
0.895403
0.882558
0.961037
0.939533
0.92253
0.820579
0.623274
0.350121
0.137539
0.0878044
0.121951
0.279471
0.557527
0.722377
0.552906
0.449474
0.907042
0.999993
0.999986
0.998343
0.980075
0.927122
0.846919
0.753192
0.703324
0.661456
0.597936
0.61376
0.617851
0.527596
0.526637
0.477382
0.409354
0.365487
0.416197
0.388435
0.477819
0.479371
0.535779
0.533726
0.580693
0.69176
0.850532
0.969523
0.998702
0.999986
0.999999
0.999969
0.992458
0.942841
0.809628
0.615795
0.474549
0.378927
0.319403
0.267627
0.318711
0.259317
0.238433
0.232847
0.230213
0.236492
0.224058
0.272625
0.287627
0.299898
0.279146
0.217743
0.196247
0.270364
0.556419
0.893757
0.996601
0.999981
0.999987
0.999991
1
0.999991
0.992679
0.92802
0.692575
0.381823
0.168903
0.0771461
0.0584693
0.0742735
0.117488
0.137162
0.165965
0.152088
0.119203
0.0783539
0.0383984
0.0277714
0.0293835
0.0458604
0.0636525
0.109383
0.189287
0.375609
0.7183
0.947171
0.997254
0.999924
0.999942
0.999956
0.999998
0.999586
0.665871
0.348857
0.207694
0.14475
0.09294
0.0550163
0.0223854
0.016512
0.0103532
0.00887047
0.00537035
0.00516369
0.00191278
0.00551712
0.00409942
0.00307727
0.00179962
0.00440164
0.00513368
0.00817369
0.0289195
0.147601
0.509816
0.874543
0.992476
0.999898
0.999558
0.987928
0.999925
0.98393
0.756942
0.671093
0.559292
0.501625
0.586644
0.669911
0.745893
0.779585
0.782731
0.767041
0.728001
0.636265
0.469648
0.285422
0.150612
0.16543
0.319808
0.418534
0.568213
0.600979
0.851824
0.946711
0.854225
0.667449
0.47031
0.357626
0.372299
0.516201
0.996392
1
0.999999
0.978018
0.763158
0.736643
0.621137
0.524626
0.552965
0.619269
0.713799
0.790914
0.846724
0.880082
0.876294
0.86617
0.820506
0.748303
0.662221
0.662955
0.703641
0.834617
0.963771
0.999535
1
1
1
1
1
1
1
1
1
1
1
1
1
1
1
1
1
1
1
1
1
0.99998
0.997411
0.999984
1
1
1
1
0.999972
0.999456
0.996035
0.984637
0.979188
0.992061
0.998536
0.999826
0.999979
0.999999
1
1
1
1
1
0.999999
0.999996
0.99997
0.999804
0.998991
0.997573
0.997571
0.999968
0.999973
0.693234
0.800936
0.973107
0.999071
0.999723
0.999257
0.997274
0.987384
0.93123
0.821625
0.722888
0.687207
0.703109
0.758558
0.862648
0.938681
0.979549
0.997316
0.998685
0.996574
0.978155
0.966267
0.963371
0.971011
0.978596
0.987359
0.995897
0.999515
0.999997
0.999598
0.922005
0.97337
0.986485
0.974046
0.885501
0.68084
0.443044
0.271394
0.190778
0.180774
0.18774
0.236643
0.350669
0.523924
0.766005
0.947674
0.995184
0.992282
0.893135
0.731193
0.496932
0.359229
0.330847
0.432001
0.644829
0.896061
0.989493
0.998664
0.999229
0.999998
0.993375
0.93335
0.818234
0.712762
0.690922
0.649266
0.617197
0.687943
0.838441
0.920656
0.986193
0.999203
0.999971
0.999991
0.999706
0.994359
0.963225
0.896518
0.759657
0.639831
0.490048
0.437061
0.407126
0.520043
0.701638
0.89996
0.983496
0.999305
0.999961
0.999833
0.982795
0.995846
0.999542
0.999801
0.999635
0.99865
0.996177
0.991347
0.979691
0.943031
0.848061
0.721577
0.698958
0.788067
0.898878
0.969161
0.997003
0.999975
1
1
0.999927
0.998889
0.992813
0.978035
0.949824
0.891261
0.839965
0.933193
0.999986
0.999743
0.997523
0.999798
0.999221
0.989677
0.820697
0.375844
0.178932
0.191507
0.385863
0.651266
0.804237
0.837474
0.8468
0.915734
0.989473
0.999376
0.995988
0.945111
0.793835
0.458275
0.200698
0.123112
0.15441
0.327359
0.609941
0.709865
0.442068
0.374396
0.924116
0.999988
0.999913
0.994345
0.953459
0.862253
0.738836
0.663314
0.609765
0.569021
0.622492
0.689555
0.705664
0.769343
0.851028
0.837147
0.827156
0.681725
0.64005
0.564614
0.59871
0.545661
0.58458
0.559204
0.575733
0.659927
0.821831
0.959803
0.998073
0.999978
0.999999
0.999932
0.988651
0.903662
0.723498
0.473715
0.387724
0.29131
0.278709
0.329757
0.379607
0.435679
0.557473
0.539981
0.474088
0.452225
0.370427
0.348903
0.37316
0.357597
0.296469
0.243162
0.20709
0.234331
0.435325
0.813259
0.99012
0.999888
0.999955
0.999985
1
0.999965
0.993688
0.907146
0.586755
0.250538
0.0895754
0.0334749
0.0392107
0.0608326
0.146298
0.259677
0.524065
0.562596
0.434132
0.207173
0.088931
0.0660271
0.0432363
0.057535
0.0640864
0.0975672
0.157841
0.304261
0.620253
0.917035
0.994327
0.999654
0.999848
0.999959
0.999996
0.997066
0.588186
0.27434
0.132027
0.0873705
0.0395441
0.0257228
0.0086684
0.0133952
0.00965493
0.0151043
0.0216524
0.0243533
0.0401451
0.0120319
0.00707537
0.012074
0.0029964
0.00441955
0.00334455
0.00493063
0.0169929
0.0845118
0.390575
0.778894
0.979684
0.999271
0.99949
0.99264
0.999954
0.965104
0.663017
0.579569
0.491081
0.555866
0.680035
0.798746
0.851313
0.877444
0.866408
0.842163
0.788597
0.708002
0.633395
0.413303
0.140799
0.104999
0.188879
0.306367
0.462515
0.467491
0.62494
0.747242
0.753497
0.614559
0.449339
0.357277
0.371092
0.505428
0.998399
1
0.999993
0.963422
0.792287
0.70722
0.573209
0.528522
0.59348
0.692999
0.831966
0.916062
0.970527
0.98755
0.984739
0.969083
0.902584
0.842077
0.705466
0.69583
0.696722
0.803473
0.948571
0.998959
1
1
1
1
1
1
1
1
1
1
1
1
1
1
1
1
1
1
1
1
1
0.999951
0.99351
0.999975
1
1
1
1
0.999975
0.999204
0.993068
0.976212
0.972564
0.992277
0.99831
0.999767
0.999958
0.999996
0.999999
1
1
1
0.999998
0.999993
0.999972
0.999887
0.99957
0.9986
0.997062
0.996479
0.999942
0.99994
0.593871
0.790897
0.982964
0.999608
0.999929
0.999695
0.99817
0.990442
0.938868
0.817625
0.708403
0.673095
0.667433
0.711444
0.798062
0.88325
0.938448
0.976933
0.990373
0.992368
0.983849
0.980178
0.978538
0.980855
0.984093
0.989252
0.995741
0.999274
0.999997
0.998684
0.844023
0.945974
0.9817
0.971632
0.887789
0.657593
0.398283
0.229446
0.146595
0.113072
0.121168
0.1675
0.236268
0.362212
0.592899
0.810265
0.971735
0.987083
0.883627
0.724566
0.462497
0.354749
0.352029
0.469138
0.693135
0.924944
0.992353
0.99817
0.999556
0.999959
0.97141
0.853865
0.708638
0.614818
0.52269
0.453912
0.493366
0.544811
0.656864
0.846404
0.953232
0.991219
0.999357
0.999989
0.999993
0.999696
0.993134
0.962952
0.869206
0.75254
0.614907
0.54119
0.516764
0.580847
0.743237
0.891708
0.982131
0.999027
0.999946
0.99931
0.960803
0.995214
0.99961
0.999865
0.99964
0.99864
0.995316
0.987125
0.96812
0.905887
0.772018
0.652064
0.651511
0.77427
0.870643
0.950854
0.991815
0.999501
0.999983
0.999991
0.999877
0.998803
0.991771
0.977135
0.930811
0.854526
0.822658
0.931812
0.999996
0.999188
0.995017
0.999603
0.998783
0.974627
0.701505
0.288038
0.13115
0.149669
0.272031
0.583024
0.655282
0.721876
0.717104
0.744933
0.921733
0.975994
0.976454
0.894636
0.740815
0.384307
0.197741
0.14167
0.202927
0.40328
0.648152
0.530831
0.307777
0.354006
0.944467
0.999958
0.999152
0.982378
0.905662
0.765669
0.640594
0.535374
0.470506
0.50007
0.575368
0.610376
0.705981
0.876801
0.954047
0.990521
0.994819
0.958995
0.872849
0.720352
0.706001
0.622551
0.635359
0.576112
0.584682
0.659167
0.816993
0.961913
0.998206
0.999976
0.999999
0.999831
0.980285
0.862025
0.620345
0.37267
0.312879
0.194684
0.257955
0.262789
0.355949
0.558948
0.757593
0.938568
0.902679
0.745352
0.539572
0.513936
0.453533
0.37294
0.34559
0.282968
0.194266
0.221836
0.459595
0.795689
0.979884
0.999703
0.999969
0.999981
0.999997
0.999834
0.996125
0.914911
0.546493
0.184756
0.0522201
0.0195433
0.0207913
0.0387644
0.0976175
0.257499
0.5647
0.877895
0.830239
0.522873
0.16717
0.120956
0.0577197
0.0861225
0.068208
0.0982489
0.146873
0.267345
0.570443
0.891429
0.993148
0.999659
0.999887
0.999963
0.99998
0.985091
0.525853
0.202369
0.0817033
0.040838
0.0222298
0.0121245
0.00399133
0.00744017
0.00598287
0.0211888
0.0448528
0.253112
0.276617
0.121457
0.0176526
0.0160009
0.00535929
0.00356292
0.00248229
0.00556833
0.0091848
0.0769843
0.323803
0.749926
0.96549
0.998427
0.999108
0.995477
0.999938
0.956996
0.551524
0.529764
0.494706
0.619029
0.791752
0.892277
0.943991
0.955304
0.94698
0.899002
0.839558
0.762134
0.707727
0.625113
0.32234
0.113339
0.125147
0.233666
0.41827
0.42743
0.488565
0.504437
0.554381
0.508768
0.421341
0.367266
0.397879
0.551639
0.999667
0.999996
0.999992
0.968648
0.795277
0.693351
0.571868
0.544145
0.638955
0.774995
0.909235
0.97928
0.99863
0.999941
0.999712
0.995865
0.958343
0.893527
0.770045
0.725708
0.698824
0.816258
0.946499
0.998177
0.999999
1
1
1
1
1
1
1
1
1
1
1
1
1
1
1
1
1
1
1
1
1
1
0.969214
0.954265
0.999802
1
1
1
1
0.999985
0.999189
0.991268
0.969136
0.965512
0.988212
0.996825
0.999017
0.999651
0.999848
0.999885
0.999879
0.999803
0.999667
0.999487
0.999244
0.999035
0.998558
0.997845
0.996748
0.995631
0.994525
0.993597
0.999744
0.999601
0.797337
0.565151
0.803907
0.98957
0.99987
0.999977
0.999889
0.999245
0.994273
0.957431
0.838136
0.716842
0.643362
0.61226
0.639395
0.69542
0.783819
0.853262
0.906545
0.940461
0.96148
0.967066
0.974139
0.978296
0.982026
0.98518
0.990259
0.996281
0.99893
0.999209
0.999833
0.988562
0.560932
0.726571
0.89324
0.973296
0.974722
0.907306
0.706081
0.409519
0.213045
0.112883
0.0877997
0.0838745
0.114704
0.1425
0.219263
0.30597
0.47305
0.602575
0.690679
0.562402
0.473351
0.339879
0.325578
0.367154
0.532885
0.763728
0.937627
0.985798
0.989035
0.983657
0.998102
0.986558
0.775133
0.755979
0.672233
0.554657
0.446326
0.379086
0.376571
0.338981
0.363844
0.470168
0.635689
0.767496
0.905164
0.958924
0.984262
0.992583
0.992901
0.983423
0.963049
0.895187
0.827385
0.69733
0.66206
0.616413
0.685468
0.790003
0.906196
0.978876
0.997817
0.998347
0.999509
0.990803
0.839484
0.937094
0.993877
0.999701
0.999898
0.999786
0.998947
0.995583
0.986514
0.956421
0.883725
0.758845
0.64419
0.652544
0.763987
0.857363
0.900068
0.95583
0.98895
0.997393
0.998386
0.997211
0.992577
0.977291
0.952006
0.880321
0.801044
0.814327
0.952051
0.999668
0.999945
0.990772
0.818499
0.985929
0.998075
0.996209
0.955647
0.690661
0.286329
0.113249
0.0901695
0.143293
0.39412
0.488446
0.525274
0.509598
0.445443
0.515119
0.633673
0.63912
0.561532
0.371749
0.204319
0.151829
0.170492
0.291457
0.488702
0.463018
0.2522
0.237051
0.540905
0.953456
0.998909
0.993196
0.881848
0.944029
0.911944
0.811205
0.670808
0.521645
0.413705
0.387522
0.402413
0.443729
0.49718
0.616468
0.757547
0.891871
0.971846
0.994813
0.980123
0.926448
0.781888
0.74669
0.664134
0.655676
0.5902
0.594695
0.674886
0.84244
0.970359
0.999034
0.999755
0.999107
0.999944
0.999855
0.989324
0.948268
0.808134
0.548335
0.316108
0.233125
0.14356
0.187132
0.174101
0.274343
0.385993
0.608795
0.904804
0.958877
0.869459
0.638175
0.610789
0.478459
0.432309
0.400417
0.292053
0.244073
0.267502
0.471843
0.828533
0.989602
0.999971
0.999979
0.997826
0.991867
0.999684
0.999828
0.998185
0.994681
0.911257
0.528255
0.165504
0.0429391
0.0121229
0.00984171
0.0129619
0.0482693
0.0865033
0.196837
0.442895
0.533722
0.434819
0.166857
0.152238
0.0725002
0.105407
0.0821682
0.104068
0.156974
0.289454
0.605261
0.92477
0.998726
0.999897
0.993527
0.939819
0.880081
0.988273
0.988082
0.842222
0.486369
0.151307
0.0513711
0.0311905
0.0117699
0.0080375
0.00208367
0.00439351
0.00188593
0.0112868
0.0173764
0.0759108
0.166445
0.11796
0.0214999
0.0167861
0.00381312
0.00469185
0.00184563
0.00489052
0.0132397
0.0693958
0.370145
0.758662
0.968999
0.99672
0.998161
0.994686
0.991642
0.999824
0.997986
0.54227
0.513352
0.466277
0.521245
0.677634
0.846984
0.959349
0.992195
0.9974
0.991897
0.956428
0.883873
0.800696
0.727665
0.759242
0.64878
0.187384
0.1448
0.182421
0.33194
0.464447
0.462565
0.435702
0.504937
0.434382
0.396021
0.380805
0.434233
0.590248
0.924462
0.988341
0.993053
0.999966
0.999991
0.980006
0.820462
0.687419
0.581033
0.590482
0.663298
0.801399
0.938766
0.990925
0.999839
1
0.999984
0.998426
0.970271
0.916093
0.81255
0.728072
0.732549
0.844254
0.944829
0.998438
1
1
1
1
1
0.999307
0.999995
1
1
1
1
1
1
1
1
1
1
1
1
1
0.999999
0.999957
0.999976
0.999981
0.997036
0.864271
0.94371
0.999799
1
1
1
1
0.999995
0.999491
0.992467
0.962515
0.952093
0.975552
0.987861
0.992248
0.991325
0.990404
0.981666
0.97247
0.958263
0.95215
0.950254
0.958874
0.964886
0.972679
0.976252
0.979607
0.983635
0.988003
0.989745
0.981247
0.880064
0.518289
0.631587
0.883224
0.99479
0.999946
0.999992
0.999946
0.999747
0.997909
0.977402
0.888316
0.754055
0.660924
0.618162
0.600615
0.636985
0.697876
0.766201
0.816683
0.853613
0.89211
0.926426
0.947596
0.964358
0.9754
0.984762
0.99245
0.99756
0.998184
0.988867
0.879701
0.493838
0.339411
0.673005
0.867726
0.977101
0.985414
0.948457
0.796878
0.538846
0.266301
0.124886
0.0769201
0.0674746
0.0752288
0.0977054
0.116202
0.159219
0.179525
0.23765
0.230568
0.234129
0.269732
0.224048
0.303013
0.402906
0.582121
0.762021
0.885448
0.91263
0.851663
0.715033
0.620031
0.614015
0.691032
0.679363
0.585345
0.451181
0.357952
0.316244
0.254526
0.236345
0.257981
0.247853
0.361531
0.441087
0.616825
0.694212
0.797569
0.844653
0.883081
0.879064
0.883508
0.836253
0.802205
0.754843
0.712183
0.723918