/*--------------------------------*- C++ -*----------------------------------*\
| =========                 |                                                 |
| \\      /  F ield         | OpenFOAM: The Open Source CFD Toolbox           |
|  \\    /   O peration     | Version:  2.1.1                                 |
|   \\  /    A nd           | Web:      www.OpenFOAM.org                      |
|    \\/     M anipulation  |                                                 |
\*---------------------------------------------------------------------------*/
FoamFile
{
    version     2.0;
    format      ascii;
    class       volScalarField;
    location    "0.005500000";
    object      H2;
}
// * * * * * * * * * * * * * * * * * * * * * * * * * * * * * * * * * * * * * //

dimensions      [0 0 0 0 0 0 0];

internalField   nonuniform List<scalar> 
12384
(
0.00367672
0.00270146
0.00208197
0.00184292
0.00178922
0.0018331
0.00190717
0.00195375
0.002016
0.00211169
0.00237964
0.00369579
0.00620069
0.00310488
0.000102193
0.000118377
0.000143991
0.000213597
0.000247041
0.000275925
0.000273771
0.000288683
0.000289308
0.000312531
0.000316823
0.000339044
0.000342737
0.000352873
0.000351287
0.000351985
0.000344182
0.000340617
0.000326478
0.000318
0.000296328
0.000287414
0.00026691
0.000245052
0.000214499
0.000178747
0.000152848
0.000126276
0.000121072
0.00010971
0.00226261
0.00181396
0.000617924
0.00034582
0.000317206
0.000316222
0.000334035
0.000348787
0.000388018
0.000417522
0.000442172
0.000517297
0.000538838
0.000596089
0.000580699
0.000602259
0.000612086
0.000624966
0.000592285
0.000656943
0.000634933
0.000668011
0.000687995
0.000739981
0.000878034
0.00142387
0.00198549
0.000816638
0.000587415
0.000726001
0.00241351
0.00330244
0.00313541
0.00259159
0.00232485
0.00215409
0.00208849
0.00207045
0.00206466
0.00205272
0.00199835
0.00205907
0.00191443
0.00204246
0.00190447
0.00204148
0.00189077
0.00205772
0.00194794
0.00214231
0.00212302
0.00221676
0.00225973
0.00238945
0.00265518
0.00154255
0.000971026
0.000946135
0.000984881
0.00100743
0.00514574
0.00529746
0.0052999
0.00506047
0.00470019
0.00434643
0.00400911
0.00379302
0.00362154
0.00344169
0.00339635
0.00332744
0.00334949
0.00333871
0.00341704
0.00343729
0.00345359
0.00358106
0.00346669
0.00337255
0.00331505
0.00357019
0.00314132
0.0011827
0.00076429
0.000734636
0.000882996
0.000988918
0.00108874
0.00110805
0.00517494
0.00794639
0.00886962
0.00934011
0.00958833
0.00956654
0.00941011
0.00918711
0.00900452
0.00883343
0.00867281
0.00850544
0.00835503
0.00824453
0.00812548
0.0080911
0.00804711
0.00803839
0.00803556
0.00811114
0.00812672
0.00821935
0.0082613
0.00836128
0.00847563
0.00850832
0.00854977
0.00814703
0.00562973
0.00346999
0.00294042
0.00309936
0.00176964
0.00106844
0.00106243
0.0018874
0.0028263
0.00336737
0.00370082
0.00370998
0.00365108
0.00358173
0.00336993
0.00336248
0.00319917
0.00327084
0.00317863
0.00326247
0.00325417
0.00334822
0.0035478
0.00367373
0.0034515
0.00198596
0.000316248
0.000165883
0.000161106
0.000245501
0.000401554
0.000482261
0.000969124
0.00111058
0.0020416
0.00363129
0.00554146
0.00687306
0.00773584
0.0082499
0.00855143
0.00872843
0.00885155
0.00892365
0.00896647
0.0089752
0.00897072
0.00895977
0.00895464
0.00894217
0.00893484
0.00894486
0.00898076
0.00904745
0.00888327
0.00738096
0.00565875
0.0056078
0.00556411
0.0054895
0.00544944
0.00548434
0.00384467
0.00354918
0.00343197
0.00368749
0.00391684
0.00413803
0.00431853
0.0043348
0.00454555
0.00432554
0.00443576
0.00438433
0.00425925
0.00398624
0.00404666
0.00371705
0.00367882
0.00345372
0.00341661
0.00333256
0.00388386
0.00963717
0.0167821
0.0172606
0.0167255
0.0164688
0.0164815
0.0165833
0.0169696
0.0172058
0.00116282
0.00218692
0.00345772
0.0044832
0.00492444
0.00510752
0.00517302
0.00517833
0.00513384
0.00506346
0.00498695
0.00491416
0.00492339
0.00484439
0.00475713
0.00459258
0.00453164
0.00452161
0.00449768
0.00431846
0.00371086
0.00431589
0.0076421
0.00841795
0.00828005
0.00825827
0.00829667
0.00836375
0.00839527
0.00841179
0.0064341
0.00796897
0.00864077
0.00890418
0.00893549
0.00886414
0.00877643
0.00868797
0.00864449
0.00862196
0.00870992
0.00844846
0.00850804
0.00830355
0.0081762
0.00808437
0.00800609
0.00803977
0.0080715
0.00786773
0.00837623
0.0107309
0.0105229
0.0101261
0.0101688
0.0103252
0.0104474
0.0103932
0.0101385
0.00995729
0.00219086
0.00589233
0.00870392
0.00690568
0.00738744
0.010146
0.0119081
0.0122729
0.0121275
0.0118409
0.011351
0.0111009
0.0108162
0.0107415
0.0107329
0.0109076
0.0110779
0.0112355
0.0113711
0.011426
0.0113827
0.011332
0.011122
0.0110692
0.0109833
0.0109565
0.01117
0.0107951
0.00569342
5.89702e-05
1.32689e-06
1.82093e-06
2.04318e-06
1.96954e-06
1.76052e-06
1.20006e-05
0.0205585
0.0257944
0.0252183
0.024808
0.0246624
0.0246513
0.0247071
0.0248009
0.0250569
0.0253662
0.0257239
0.0262556
0.0267985
0.0274194
0.0279142
0.0281351
0.0280984
0.0272769
0.0249415
0.0209043
0.0170747
0.0141321
0.0043522
9.19182e-06
0.000860838
0.000867526
0.00103403
0.00148385
0.00204693
0.0024456
0.00266694
0.00264891
0.00242523
0.0020783
0.00191073
0.00239601
0.004967
0.00372787
0.000101604
0.000135801
0.000214454
0.000319492
0.000368191
0.000370938
0.000334639
0.000340159
0.000336649
0.000364791
0.000370325
0.00040009
0.000398778
0.000393214
0.000393191
0.000395162
0.000399549
0.000408657
0.000410756
0.000414876
0.000403797
0.000388657
0.000357727
0.000313521
0.000265076
0.000213458
0.000165314
0.000141745
0.000122478
9.43801e-05
0.00226345
0.0011798
0.000379618
0.000242293
0.000248016
0.000310042
0.000392735
0.000432623
0.00056065
0.000666756
0.000778892
0.000816449
0.000867738
0.000838476
0.000833706
0.000795757
0.00077724
0.000768728
0.000803364
0.000790924
0.000799519
0.000798409
0.000773776
0.000773282
0.000821366
0.00111232
0.00176689
0.0018935
0.00147105
0.00144806
0.00249959
0.00330431
0.00294754
0.00231292
0.00198003
0.00190746
0.00193346
0.00193803
0.00185604
0.00174814
0.00166504
0.00149767
0.00145243
0.00126701
0.00119526
0.00116807
0.00117527
0.00125422
0.00140914
0.00162206
0.00181434
0.0020293
0.00216176
0.00228734
0.00259787
0.00242629
0.00170273
0.00145486
0.00158393
0.00139468
0.00523349
0.00514237
0.00418604
0.00310825
0.00252014
0.00214883
0.00195421
0.0018245
0.00176143
0.0017001
0.00169702
0.00168776
0.00169064
0.00173021
0.00184265
0.00197981
0.00215857
0.00241076
0.00268192
0.00289575
0.00302825
0.00329259
0.00341363
0.0025692
0.00123917
0.000990739
0.00111115
0.00143695
0.00166512
0.00149715
0.00605577
0.00848969
0.00929182
0.00947851
0.00926987
0.00866021
0.00813453
0.00789029
0.00770319
0.00747561
0.00724334
0.00710689
0.00710486
0.00717565
0.00726704
0.00736404
0.00748357
0.0075579
0.00762838
0.00763632
0.00761151
0.00763291
0.00766784
0.00778424
0.00797706
0.00818889
0.00839608
0.00841454
0.00760354
0.0056668
0.00310354
0.00261729
0.00150311
0.00167882
0.00311625
0.00493038
0.00507331
0.00464892
0.00408601
0.00355746
0.0030399
0.00263905
0.00237075
0.00210727
0.00196431
0.00199582
0.00199279
0.00213108
0.00228733
0.00251707
0.00282325
0.00321824
0.00344184
0.00295677
0.00128927
0.000420021
0.000190727
0.000144891
0.000220167
0.000386248
0.00437471
0.00599593
0.00923143
0.0112458
0.0120242
0.0117847
0.0111414
0.0103951
0.00981225
0.00940498
0.00915781
0.00901211
0.00892847
0.00889853
0.00889776
0.00891838
0.00893825
0.00896994
0.00903156
0.00912569
0.00922464
0.00929369
0.00912047
0.00839334
0.00658258
0.00539257
0.00504181
0.00499514
0.00499018
0.00517448
0.00307214
0.00357627
0.0045361
0.00541706
0.00594526
0.00620358
0.00629483
0.006285
0.00618138
0.00608189
0.00589955
0.00575855
0.00565947
0.00546689
0.00527743
0.00496273
0.00458336
0.00414779
0.00376386
0.00339279
0.00343082
0.00574904
0.0132059
0.016493
0.0142615
0.0129774
0.0126403
0.0130855
0.0147641
0.0162479
0.00311395
0.00531723
0.00617121
0.00633611
0.00626411
0.00606365
0.00569667
0.00522651
0.00477109
0.00438138
0.0040892
0.00391256
0.0038415
0.00387361
0.00389482
0.00389456
0.00402864
0.00421109
0.00438288
0.00442502
0.00401355
0.0038593
0.00547868
0.00812035
0.00837777
0.00847533
0.00868779
0.00883355
0.00886652
0.00891686
0.0085752
0.00934457
0.00938681
0.00912402
0.00874208
0.00841152
0.00814795
0.00794371
0.00776543
0.0076416
0.00752622
0.00738395
0.00734547
0.00723002
0.0071732
0.00719691
0.00727757
0.00745146
0.00764753
0.00766407
0.00781205
0.00939401
0.0107552
0.0102901
0.0108816
0.0117249
0.0121194
0.0117722
0.0107895
0.0100074
0.00699451
0.00851983
0.00812147
0.00882105
0.0111943
0.012475
0.011996
0.0108145
0.00970067
0.00896977
0.00846788
0.00835675
0.00834858
0.00884344
0.00955393
0.0105144
0.0115247
0.0121663
0.0124504
0.0124794
0.0123316
0.0120094
0.0117658
0.0112886
0.0109086
0.0106303
0.0108176
0.0108149
0.00855904
0.00137708
1.78902e-05
6.99096e-05
8.33675e-05
2.05346e-05
1.59057e-05
0.00750268
0.0237304
0.0253171
0.0243075
0.0239657
0.0238472
0.0238795
0.0240107
0.0241875
0.0244176
0.0247808
0.0252319
0.026023
0.0271926
0.0287371
0.0301117
0.0306335
0.0305697
0.0293659
0.0255815
0.0199766
0.0157004
0.0134143
0.00552876
1.40801e-05
0.000700006
0.00101932
0.00220983
0.00341509
0.0039059
0.00395421
0.0039172
0.00384268
0.00379448
0.00333033
0.00243372
0.00203123
0.00365848
0.00406563
0.000107253
0.000168121
0.000323819
0.00047785
0.000461909
0.000404537
0.000352605
0.000343773
0.000352367
0.000364739
0.000366512
0.000356452
0.000345375
0.000346744
0.000358096
0.000379096
0.000397527
0.000421852
0.000433919
0.000452797
0.000459172
0.000468476
0.000449414
0.000406161
0.000337731
0.000264398
0.000199804
0.000160782
0.000131733
9.86983e-05
0.00216224
0.000789597
0.000299676
0.000257499
0.000363451
0.000502799
0.000587541
0.000639483
0.000764122
0.000845983
0.000935423
0.000879718
0.000827605
0.000766155
0.000727018
0.000715177
0.000706236
0.000706828
0.000715405
0.000730042
0.000773881
0.000785669
0.000817299
0.000819479
0.000827955
0.000959649
0.0013624
0.00205265
0.00216983
0.00191039
0.00257434
0.00338508
0.00301411
0.00231549
0.00198065
0.00193408
0.00191658
0.00179452
0.00168464
0.00158743
0.00149054
0.00125751
0.00122199
0.00105858
0.00105024
0.000929768
0.000927945
0.000911677
0.000955423
0.00103326
0.00121554
0.00158387
0.00196059
0.00218711
0.00241798
0.00267316
0.00259846
0.00246423
0.00239997
0.00181895
0.00536793
0.00372641
0.00233246
0.00177984
0.00160004
0.00152408
0.00151487
0.00151977
0.00152093
0.00151721
0.00153361
0.00149768
0.00148341
0.0014993
0.00149749
0.00151736
0.00159398
0.00173105
0.00194907
0.00223196
0.00253336
0.00286497
0.00328834
0.00333222
0.00274347
0.00212846
0.00190964
0.00215581
0.00226527
0.0018082
0.00685123
0.00891168
0.00927457
0.00874921
0.00778254
0.00723325
0.0071105
0.00710742
0.00701405
0.00679383
0.00678839
0.00693684
0.00708285
0.00721179
0.0073607
0.007514
0.00776978
0.00787467
0.00805953
0.00814926
0.00823568
0.0080275
0.00784691
0.00764794
0.00763018
0.007806
0.00806497
0.00830721
0.00816261
0.00675088
0.00310658
0.00226843
0.0018897
0.00377507
0.00587434
0.00537769
0.00452023
0.00383668
0.00318009
0.00261741
0.00210647
0.00185715
0.00183886
0.00200458
0.00230709
0.00247379
0.00251962
0.00250889
0.00246012
0.00241159
0.0024653
0.0027306
0.0031665
0.00331662
0.00274987
0.00149483
0.000469765
0.000185677
0.00015615
0.000286152
0.00631351
0.0090829
0.012444
0.0124536
0.0111853
0.00950161
0.00834538
0.0078876
0.0077621
0.0077857
0.00788796
0.00801515
0.00809983
0.00813069
0.00809244
0.00807086
0.00809284
0.00800049
0.00812175
0.00825233
0.00868866
0.00913475
0.00930263
0.00903588
0.00782006
0.00599881
0.00501105
0.00472016
0.00484105
0.00498981
0.00396269
0.00535219
0.00645304
0.00686766
0.00690777
0.00663598
0.00616755
0.00565274
0.00519917
0.0048073
0.00454856
0.00445774
0.00444191
0.00464583
0.00482382
0.00498658
0.00493786
0.00468485
0.00425876
0.00372625
0.00329636
0.00394776
0.00837243
0.014777
0.0129477
0.00991637
0.00898923
0.00944999
0.0115888
0.0144529
0.00613264
0.00675715
0.00682239
0.00676601
0.00643645
0.00564016
0.00467207
0.00370886
0.00294068
0.00246332
0.00213822
0.00197356
0.00194968
0.00204801
0.00219847
0.00239165
0.00268843
0.00312525
0.0036909
0.00415678
0.00419339
0.00385399
0.00429316
0.00692565
0.00847597
0.00874253
0.00905497
0.00912136
0.00909255
0.00923165
0.00967075
0.00949764
0.00892362
0.00828234
0.00784793
0.00754977
0.0072592
0.00688947
0.00646074
0.00603226
0.00570049
0.00537871
0.00508383
0.00509237
0.00517445
0.00538545
0.00576046
0.00619849
0.00671203
0.00711258
0.00731687
0.00819652
0.0101442
0.0105364
0.0113333
0.0127916
0.0133108
0.0130233
0.0115293
0.0100648
0.00849333
0.00876439
0.00959953
0.0115888
0.0123813
0.011238
0.009787
0.00860545
0.00799365
0.00756298
0.00717031
0.00686357
0.00672175
0.00702913
0.00774816
0.00914772
0.0107577
0.0119736
0.0123038
0.0117745
0.0107155
0.00980114
0.009665
0.00996336
0.0101403
0.0100972
0.0102814
0.0106769
0.00978051
0.00441403
0.00293444
0.00780801
0.00611468
0.000168541
0.00209163
0.0192602
0.024778
0.0244236
0.0237859
0.0238864
0.0241747
0.024471
0.0247063
0.0248338
0.0249517
0.0250571
0.0252325
0.0256633
0.0267721
0.0288208
0.0312855
0.0322621
0.0309374
0.0284061
0.0219817
0.0155655
0.0129488
0.0124714
0.00638204
1.75484e-05
0.000782808
0.0017731
0.00361316
0.00391202
0.0035319
0.0030147
0.00273219
0.00283493
0.00332088
0.00379918
0.00330741
0.00220859
0.00301886
0.00408699
0.000117072
0.000232388
0.000486289
0.000632965
0.000528127
0.000452731
0.000374178
0.000352384
0.00033695
0.000336421
0.000321768
0.000304032
0.000304944
0.000331162
0.000371261
0.000420126
0.000462187
0.000484236
0.00052117
0.000541894
0.000551825
0.000557168
0.000545836
0.000494437
0.00041899
0.000321949
0.000233148
0.000178463
0.000141492
0.000102056
0.00204126
0.000615548
0.000291408
0.00034018
0.00063159
0.000777266
0.000717156
0.000736191
0.000813225
0.000906375
0.000875524
0.000762476
0.000721861
0.000698312
0.000691457
0.000709438
0.000734015
0.000721678
0.000712893
0.000704188
0.000701001
0.000748156
0.000801384
0.000811216
0.000825854
0.000903265
0.0011719
0.00175591
0.00224858
0.00206553
0.00263536
0.00365401
0.00317776
0.0023133
0.00194135
0.001891
0.00182
0.00176597
0.00177189
0.00172439
0.00157999
0.00136601
0.00120066
0.00110612
0.00102505
0.000962869
0.00091127
0.000843363
0.000827963
0.000829342
0.000958136
0.0011714
0.00164995
0.00203032
0.00225841
0.00257703
0.00287956
0.00301247
0.00291239
0.00210418
0.00494747
0.00232414
0.001645
0.00162623
0.00171523
0.00176292
0.00172706
0.00165481
0.00160647
0.00158755
0.0015985
0.00161562
0.00165749
0.00168051
0.00167303
0.00163485
0.00159051
0.00156185
0.00161818
0.00178821
0.00206082
0.00240557
0.00287189
0.00335085
0.00347888
0.0033393
0.00307207
0.00287338
0.00275018
0.00199989
0.00738477
0.00902077
0.00874528
0.00751551
0.00671587
0.00668152
0.00675334
0.0068197
0.00669629
0.00659091
0.00674582
0.00683135
0.00677977
0.00676217
0.00693326
0.00724364
0.00764654
0.00795659
0.00817315
0.00837569
0.00842361
0.00840946
0.00826772
0.00795398
0.00769232
0.00763713
0.00779167
0.00807115
0.00819254
0.00724282
0.00301491
0.00228781
0.00319234
0.00611875
0.00579957
0.00475542
0.00438594
0.00369249
0.00269279
0.00199124
0.00180256
0.00237898
0.00322578
0.00440314
0.00526632
0.00575726
0.0058587
0.00549441
0.00471738
0.00375972
0.00297402
0.00269822
0.00288929
0.00325501
0.00330539
0.0026857
0.00124372
0.000286566
0.000142401
0.000240402
0.00765714
0.0123424
0.0127807
0.0105692
0.00855202
0.00770462
0.00757392
0.00783315
0.00822777
0.00866763
0.00906479
0.00939881
0.00965106
0.00981152
0.00981591
0.00960478
0.00925455
0.00873774
0.00840401
0.00798076
0.00804509
0.00851826
0.00910952
0.00928857
0.00863673
0.00704687
0.00561095
0.00508715
0.00506111
0.00503377
0.00573639
0.00672982
0.00710236
0.00693468
0.00630664
0.00545648
0.00447656
0.00361625
0.00291766
0.00246737
0.00219817
0.0020545
0.00216525
0.00236034
0.00281111
0.00343732
0.00415295
0.00455045
0.00449715
0.00405936
0.00341514
0.00327981
0.0053779
0.0119553
0.0128741
0.0090931
0.00810654
0.00799518
0.00910859
0.0124403
0.0073879
0.00717253
0.00727563
0.00719251
0.00631406
0.00482837
0.00322048
0.00218371
0.0014898
0.00114917
0.00103962
0.00100705
0.00101447
0.00106268
0.00113458
0.0012597
0.00154977
0.00204548
0.00273234
0.00342775
0.00407128
0.0039796
0.00386068
0.00540679
0.00791581
0.00882616
0.00919122
0.00916585
0.00903029
0.00934692
0.00938991
0.00893994
0.00815175
0.00765742
0.00745506
0.00714084
0.00649263
0.00556141
0.00458209
0.00364177
0.00298592
0.00251833
0.00248525
0.00237306
0.00256208
0.00301574
0.00369138
0.0045438
0.0053971
0.00619361
0.00671099
0.00736226
0.00917188
0.0104863
0.0112053
0.012669
0.0134353
0.0136459
0.0122239
0.0101295
0.00876761
0.00939169
0.0113004
0.0123303
0.0112915
0.00958286
0.00862653
0.0082301
0.00793574
0.00754445
0.00700632
0.00629846
0.00559176
0.00508072
0.00506906
0.00641575
0.0085352
0.010507
0.0111651
0.0101389
0.00726644
0.00495042
0.00427594
0.00590369
0.00780018
0.00889354
0.00955094
0.010311
0.0100919
0.00590736
0.0116405
0.0186516
0.0114853
0.00268848
0.0127855
0.0235817
0.0246895
0.0238813
0.023752
0.0239366
0.0239646
0.0238383
0.023714
0.0238258
0.0242013
0.0246943
0.0250994
0.0253308
0.0258342
0.0275531
0.0307778
0.0329479
0.0308328
0.0246222
0.0155957
0.0104133
0.0109756
0.0121996
0.00601622
1.50467e-05
0.00091007
0.00243714
0.00375037
0.00311378
0.00217846
0.00174237
0.00157987
0.00164696
0.00214171
0.00328818
0.00355705
0.00252502
0.0027222
0.00399304
0.000124285
0.000291502
0.000690159
0.000864588
0.000714923
0.000545917
0.000426035
0.000362858
0.000333828
0.000308126
0.000282957
0.000275652
0.00030943
0.000378022
0.000459827
0.000519752
0.000591401
0.000648737
0.000702287
0.000728255
0.000720493
0.000710754
0.000672437
0.000608835
0.00048408
0.000373953
0.000261668
0.000193015
0.000147815
9.77209e-05
0.00196388
0.000575149
0.00031481
0.000522718
0.00116761
0.00120687
0.000844532
0.000786703
0.000870362
0.000899698
0.000812716
0.000748913
0.000700618
0.000715645
0.000752084
0.000855873
0.000995993
0.00102707
0.00101875
0.000836918
0.000746845
0.000757763
0.000778028
0.000827419
0.000865547
0.000903277
0.00106248
0.0014432
0.00209957
0.00205756
0.00271888
0.00394456
0.00329916
0.00224216
0.00187878
0.00186648
0.00185842
0.00191618
0.0019539
0.00186584
0.00166277
0.00140511
0.00121871
0.00110059
0.00103103
0.000969606
0.000916791
0.000848108
0.000796965
0.00076835
0.000818032
0.00101876
0.00138143
0.0018633
0.00211335
0.0024251
0.0028834
0.00318634
0.00314765
0.00221828
0.00365007
0.00174027
0.00181795
0.00205634
0.00221389
0.00216527
0.00197592
0.00175811
0.00164889
0.00164472
0.00174159
0.00184332
0.00190432
0.00193976
0.00195765
0.00191464
0.00182214
0.00170936
0.0016237
0.0016427
0.00182004
0.00206395
0.00245792
0.00300169
0.00341212
0.00368252
0.00366148
0.00340711
0.00307805
0.00220571
0.00767298
0.00890339
0.00794444
0.00673847
0.00645252
0.00648557
0.0065782
0.00663938
0.00650197
0.00645741
0.00652712
0.00628918
0.00606311
0.00610783
0.00652432
0.00705761
0.00764676
0.00801382
0.00828551
0.00841413
0.00846069
0.00854397
0.00850611
0.00826185
0.00790002
0.00764071
0.00763711
0.00786582
0.00813727
0.00742534
0.00297011
0.00281577
0.0053604
0.00636169
0.00501495
0.00541487
0.00446646
0.00263113
0.00144908
0.00141648
0.00240237
0.00421751
0.00592744
0.00690448
0.00741119
0.00766814
0.00784807
0.00779663
0.00724274
0.00598418
0.00436546
0.00319006
0.00290936
0.00314336
0.00341863
0.00323696
0.00214307
0.000421214
0.000142926
0.000224606
0.00927779
0.0135863
0.0108017
0.00868943
0.00775151
0.00767022
0.00804047
0.00858397
0.00910228
0.0095322
0.00991938
0.0102352
0.0105081
0.0107809
0.0110111
0.0110979
0.0109443
0.0103672
0.00951742
0.00854542
0.00802608
0.0080063
0.00865132
0.00929552
0.00909007
0.00797405
0.00648081
0.00567373
0.00540698
0.00511616
0.00672936
0.00724155
0.0070543
0.00634324
0.00529623
0.00406735
0.00287733
0.00212603
0.0015119
0.00119717
0.00108189
0.00104797
0.00101639
0.00108795
0.00122057
0.00183172
0.00263303
0.0035661
0.00427783
0.00422452
0.00368191
0.00315294
0.0040681
0.00925638
0.0127034
0.00978638
0.00850629
0.00797787
0.00796853
0.0108055
0.00746501
0.00748529
0.00779184
0.00742812
0.00583893
0.0037017
0.00206736
0.0011663
0.000928645
0.000870745
0.000861233
0.000871922
0.000879982
0.000871213
0.000862902
0.00089746
0.00100071
0.00125982
0.00193315
0.00279937
0.00369234
0.00399164
0.0037935
0.00451366
0.00682006
0.00858711
0.00913795
0.00899215
0.00889393
0.00927023
0.00949546
0.00843761
0.00765588
0.0075315
0.00741195
0.00668106
0.00531289
0.00371264
0.00235707
0.00129341
0.000831725
0.000618039
0.000511326
0.000587422
0.000733708
0.000955025
0.00171524
0.00273092
0.00390283
0.00504548
0.00593507
0.00665764
0.00829471
0.0101431
0.0109552
0.0118697
0.0126195
0.0137204
0.0128626
0.0104343
0.00898376
0.0103625
0.0121128
0.0118008
0.0100411
0.00888815
0.00868307
0.00873822
0.00873414
0.00854787
0.00810273
0.00734662
0.00613931
0.00473078
0.00381772
0.00413662
0.00626555
0.00916772
0.0105016
0.00927732
0.00488408
0.00166239
0.000625343
0.00220439
0.00513783
0.00739823
0.00872611
0.00990124
0.0100824
0.00643088
0.0158583
0.0234266
0.0127414
0.00834296
0.0195175
0.0247758
0.0243462
0.0236538
0.023475
0.0229023
0.0218191
0.020708
0.0200706
0.0202713
0.0211855
0.0226437
0.0242284
0.0251632
0.0255336
0.0261177
0.0289626
0.0329957
0.0316409
0.0214715
0.012061
0.00838943
0.0107332
0.0119789
0.00459938
1.14456e-05
0.000990396
0.00263045
0.00299744
0.00207773
0.00153657
0.00130137
0.0012717
0.00126964
0.00158014
0.00256595
0.00331231
0.00262359
0.00262612
0.00386156
0.000139112
0.000403994
0.000956064
0.00117567
0.00093425
0.000672611
0.000500719
0.000379475
0.000316847
0.000283038
0.000260827
0.000276185
0.000358113
0.000467947
0.000570736
0.000661836
0.000738605
0.000808968
0.000885296
0.000899834
0.000900095
0.000856649
0.000792746
0.000697263
0.000538546
0.000398481
0.000273511
0.000198026
0.000149798
0.000102482
0.00193363
0.000589934
0.00036997
0.000891865
0.00221653
0.00183786
0.000950041
0.000814661
0.000889078
0.000895896
0.000822538
0.000753228
0.000750767
0.000739798
0.00082245
0.00100902
0.00119071
0.00126554
0.00123865
0.00105973
0.000883722
0.000768311
0.000797126
0.000863399
0.000914083
0.000920488
0.00100977
0.00130894
0.00194939
0.00198705
0.00282114
0.00422229
0.00336268
0.00212057
0.00184902
0.00191065
0.00197494
0.0020574
0.00207056
0.00192533
0.00168913
0.00143202
0.00121498
0.00108743
0.00097763
0.000888534
0.000838382
0.000797928
0.000776541
0.000714517
0.00075522
0.000926818
0.00122145
0.00170506
0.0020075
0.00230961
0.00281456
0.00322799
0.00320992
0.00219896
0.00258112
0.00179331
0.00237229
0.00273156
0.00280506
0.00256622
0.00218204
0.00181816
0.00167086
0.00174302
0.00189994
0.00203023
0.00217012
0.00221079
0.00221284
0.00216561
0.00206548
0.00191854
0.00174916
0.00161255
0.00162095
0.00181423
0.00213255
0.00260927
0.00311763
0.00353848
0.00372574
0.00363688
0.0032375
0.00226371
0.00782648
0.00858321
0.00729238
0.00658954
0.00648927
0.00634769
0.00647979
0.00654033
0.00632517
0.00620568
0.00606001
0.00576256
0.00560668
0.00578981
0.00644101
0.00710205
0.00773498
0.00805878
0.00839114
0.00846019
0.0084597
0.00852513
0.00857539
0.00843219
0.00805621
0.0076887
0.00754982
0.0077107
0.00803633
0.00748241
0.00303095
0.00405208
0.0064418
0.00574114
0.00604583
0.00565637
0.00301372
0.00118665
0.000957011
0.00185608
0.00394319
0.00605462
0.00718364
0.00726138
0.00713166
0.00696862
0.00727805
0.00781791
0.00806545
0.00738537
0.00569331
0.0039501
0.00312126
0.00315856
0.00354448
0.00355657
0.00258926
0.000452848
0.000133183
0.000222726
0.0108638
0.0129383
0.00959093
0.00825158
0.00772814
0.00786927
0.00832899
0.008867
0.00927677
0.00957366
0.00981518
0.0100672
0.0103562
0.0107165
0.0111055
0.0115226
0.0117169
0.0115496
0.0108409
0.00958078
0.00849662
0.00794379
0.00831837
0.00909087
0.00928067
0.00856395
0.00727649
0.00631474
0.00576305
0.00516833
0.0073608
0.00745454
0.00675429
0.00570268
0.00438564
0.00304039
0.00200173
0.00136717
0.00104904
0.00094194
0.000844494
0.000777666
0.000766892
0.000759935
0.000812035
0.000989922
0.00149963
0.00252542
0.00363842
0.00414371
0.00378229
0.00315783
0.00342523
0.00722024
0.0119949
0.0109111
0.00975878
0.00862985
0.00787303
0.00967773
0.00745448
0.0078832
0.00819156
0.007416
0.00536164
0.00290912
0.00144271
0.000957104
0.000879646
0.000900259
0.000923474
0.00094641
0.000940463
0.000911013
0.000876137
0.000845687
0.000859133
0.000976342
0.00140561
0.00227286
0.00326869
0.00391059
0.00381249
0.00401795
0.00564724
0.00768866
0.00861271
0.00854361
0.00871007
0.00930397
0.00916059
0.0080084
0.00757254
0.00764514
0.00737252
0.00607261
0.00405229
0.00224227
0.000932273
0.000477871
0.000346682
0.000262506
0.000260074
0.000244391
0.000296105
0.000416392
0.000656015
0.00121614
0.0024724
0.00380073
0.00506634
0.00603578
0.00757613
0.00969945
0.0107922
0.0113129
0.0120057
0.0136571
0.0133444
0.0110829
0.00925701
0.0110259
0.0121394
0.0109635
0.00940504
0.00902438
0.0092145
0.00940902
0.00951101
0.00947036
0.00927607
0.0088215
0.00787173
0.00611559
0.0040198
0.00291521
0.00413548
0.00759179
0.00993096
0.00934778
0.0047466
0.00102772
0.000361519
0.000919021
0.00360517
0.00622076
0.00807691
0.00969282
0.0099979
0.00630321
0.0167952
0.0238247
0.0139684
0.0131541
0.0225675
0.0249337
0.0240532
0.0233312
0.0224746
0.0206989
0.0184247
0.0165042
0.0155137
0.0156054
0.0169818
0.0192353
0.0219463
0.0244729
0.0256034
0.025691
0.0266927
0.0318605
0.0334209
0.0217521
0.0114469
0.00851657
0.0106494
0.0107676
0.00171438
8.17202e-06
0.00100653
0.00233233
0.00218103
0.00152073
0.00127026
0.00118299
0.00109826
0.0010961
0.00134737
0.00204787
0.00271397
0.0024378
0.00255675
0.0037646
0.000152854
0.000515537
0.00130565
0.0015219
0.00119667
0.000850023
0.000592228
0.000397466
0.000309755
0.000265992
0.000251232
0.000298375
0.000418191
0.000546945
0.000677494
0.000770605
0.000886737
0.000977772
0.00109742
0.00112859
0.00109964
0.00100156
0.000833184
0.000710423
0.000523318
0.00038588
0.000265439
0.00019607
0.00014746
9.90138e-05
0.00188685
0.000637321
0.000517132
0.00166663
0.00322739
0.00238919
0.00100602
0.000816485
0.000898402
0.000905184
0.000890946
0.000857378
0.000772923
0.000750025
0.000777104
0.00100951
0.00122699
0.00129311
0.00123098
0.00104394
0.000894
0.000825374
0.000873517
0.000930256
0.000962055
0.000947125
0.000992276
0.00125674
0.00185144
0.00188149
0.00299064
0.00440414
0.003167
0.00201991
0.00187352
0.00198146
0.00207133
0.00213202
0.00211117
0.00196708
0.00174736
0.00147102
0.00121639
0.00104787
0.000909996
0.000771132
0.000706641
0.000701029
0.000700818
0.000678232
0.000723888
0.000942598
0.00118617
0.0016352
0.00192819
0.00227767
0.00280054
0.00324883
0.00312671
0.00207143
0.00219623
0.00218455
0.00313392
0.00347583
0.00337126
0.00294459
0.00234551
0.00186581
0.00172243
0.00180471
0.00194474
0.00214385
0.00228214
0.00236639
0.00235046
0.0022975
0.00219995
0.00206836
0.00189179
0.00169045
0.0015856
0.00168952
0.0019365
0.00230718
0.002805
0.00322436
0.0035638
0.00363544
0.00325746
0.00225604
0.00788553
0.00818956
0.00706583
0.00678578
0.00657627
0.00625179
0.00643354
0.00649942
0.00618719
0.00591937
0.00570452
0.00547703
0.00539123
0.0057215
0.00642811
0.00715888
0.00765973
0.00801826
0.00846703
0.0085322
0.00847654
0.00854663
0.00861709
0.00848665
0.00812324
0.00767891
0.00745561
0.0075692
0.00795819
0.00744771
0.00329114
0.00528234
0.00655152
0.00626194
0.00701989
0.00470618
0.00182235
0.000900627
0.000993392
0.00246686
0.00486921
0.00644694
0.00695587
0.00646523
0.00601045
0.00609561
0.00654399
0.00763575
0.00823574
0.00776565
0.00618082
0.00424755
0.00327128
0.00327227
0.00369693
0.00383014
0.00257889
0.000314003
0.000126709
0.00024876
0.0118387
0.0119906
0.00926053
0.00810175
0.00766704
0.0078261
0.00829889
0.00875729
0.00902513
0.00925166
0.00952202
0.00992966
0.0104123
0.0108827
0.0112702
0.0116671
0.0121193
0.0120788
0.0117292
0.0104951
0.00898375
0.00806189
0.00815666
0.00886746
0.00933411
0.00886986
0.00784996
0.00683561
0.00596916
0.00522008
0.00784932
0.00753311
0.00639907
0.0052538
0.0038224
0.00259673
0.00161039
0.00114948
0.000962912
0.000836721
0.000708659
0.000638158
0.000612087
0.000615308
0.00062891
0.000710865
0.00100487
0.00179266
0.0030019
0.00385912
0.00372668
0.00311664
0.00319538
0.00606468
0.0109976
0.0114464
0.0105496
0.00895912
0.00795806
0.00927946
0.00762523
0.00813152
0.00825327
0.00745128
0.00522202
0.00264686
0.0012355
0.000953925
0.00092579
0.00095295
0.000955789
0.000997267
0.000988443
0.000956321
0.000899812
0.000853757
0.000838796
0.000895187
0.00115033
0.00197833
0.00301708
0.00383072
0.00383251
0.00383699
0.00488978
0.00658105
0.00748005
0.00791161
0.00866097
0.00941961
0.00888481
0.00794014
0.00757825
0.00773561
0.00737229
0.00568414
0.00320376
0.00144512
0.000498599
0.00029885
0.00021197
0.000165123
0.000144779
0.000164459
0.000185623
0.00023444
0.000383678
0.000587155
0.0013978
0.00272729
0.00426603
0.00549045
0.00704131
0.00930847
0.0106809
0.0111181
0.0118586
0.0135219
0.0136277
0.0119036
0.00949325
0.0114028
0.0119593
0.0103663
0.00931276
0.00936623
0.00958004
0.00962396
0.00959683
0.00961553
0.00967242
0.00956518
0.00909641
0.00799677
0.00572059
0.00293694
0.00267895
0.0055664
0.00900019
0.00978865
0.0065006
0.00244735
0.000659412
0.0010286
0.00330723
0.00589026
0.00809866
0.00970484
0.00946595
0.00594475
0.0148516
0.0240143
0.0156021
0.0166171
0.0237928
0.0249001
0.0237979
0.0227882
0.0209733
0.0180454
0.0147791
0.0123083
0.0111179
0.0115106
0.0132376
0.0158874
0.0192588
0.0228258
0.0253376
0.0259531
0.025763
0.029742
0.0343655
0.0236386
0.0114743
0.00814105
0.00974214
0.00733472
0.000187591
5.9174e-06
0.000939868
0.00182788
0.00153958
0.00119653
0.00119706
0.00114299
0.00103962
0.0010405
0.00127907
0.0018017
0.00225703
0.00234985
0.00275003
0.00378041
0.000167911
0.000648128
0.00159287
0.00181571
0.00134859
0.00103639
0.000694948
0.000408488
0.000297194
0.000268255
0.000250156
0.000316135
0.00046222
0.000595688
0.000750268
0.000870613
0.00101658
0.00113239
0.00119045
0.00116963
0.00105558
0.000915188