/*--------------------------------*- C++ -*----------------------------------*\
| =========                 |                                                 |
| \\      /  F ield         | OpenFOAM: The Open Source CFD Toolbox           |
|  \\    /   O peration     | Version:  2.1.1                                 |
|   \\  /    A nd           | Web:      www.OpenFOAM.org                      |
|    \\/     M anipulation  |                                                 |
\*---------------------------------------------------------------------------*/
FoamFile
{
    version     2.0;
    format      ascii;
    class       volScalarField;
    location    "0.005500000";
    object      H2O;
}
// * * * * * * * * * * * * * * * * * * * * * * * * * * * * * * * * * * * * * //

dimensions      [0 0 0 0 0 0 0];

internalField   nonuniform List<scalar> 
12384
(
0.236218
0.233538
0.231326
0.229977
0.230007
0.230451
0.230915
0.23154
0.231861
0.232534
0.233759
0.237765
0.239465
0.233982
0.20069
0.205856
0.211852
0.216383
0.218195
0.218462
0.218668
0.21829
0.218292
0.217935
0.217991
0.217696
0.217388
0.21694
0.216514
0.216221
0.215973
0.215791
0.215676
0.215557
0.215409
0.21511
0.214763
0.214021
0.212999
0.211405
0.209069
0.205829
0.204446
0.20218
0.248768
0.247515
0.237104
0.227403
0.225463
0.225386
0.225754
0.22659
0.227902
0.229284
0.230452
0.231993
0.232625
0.233758
0.233601
0.234166
0.234244
0.234723
0.234027
0.234583
0.234557
0.234484
0.235124
0.235977
0.238806
0.244727
0.246077
0.237367
0.231514
0.234258
0.249136
0.250347
0.249491
0.248219
0.247697
0.247471
0.247582
0.247702
0.247624
0.247655
0.247648
0.247973
0.247696
0.248327
0.247853
0.248312
0.248059
0.248022
0.247874
0.247796
0.247524
0.247647
0.247347
0.247603
0.248701
0.247019
0.243692
0.243335
0.243878
0.244297
0.251474
0.251531
0.251414
0.251309
0.251024
0.250779
0.250684
0.250545
0.250508
0.251047
0.250806
0.251063
0.251095
0.250956
0.251449
0.251303
0.251483
0.251141
0.251612
0.251394
0.251297
0.251219
0.25083
0.244592
0.239131
0.238777
0.24067
0.242275
0.243361
0.24358
0.251605
0.251399
0.251436
0.251427
0.251369
0.251388
0.251484
0.251497
0.251579
0.251573
0.251555
0.251528
0.251499
0.251464
0.251476
0.251421
0.251514
0.25146
0.251531
0.251423
0.251497
0.251427
0.251402
0.251393
0.251423
0.25151
0.251458
0.251282
0.250977
0.250759
0.251086
0.251484
0.24965
0.248779
0.248743
0.249538
0.250987
0.25203
0.251487
0.251521
0.251586
0.251646
0.252299
0.252145
0.251878
0.252131
0.252186
0.252184
0.252261
0.25226
0.251874
0.251865
0.252244
0.2501
0.235254
0.225368
0.224604
0.231131
0.237498
0.24024
0.245743
0.247282
0.249242
0.251576
0.251908
0.251795
0.25175
0.251714
0.251711
0.251664
0.25168
0.251715
0.251719
0.2517
0.251752
0.251707
0.251768
0.251673
0.251705
0.25158
0.251564
0.251566
0.25149
0.251475
0.251301
0.251194
0.25111
0.251101
0.251114
0.251116
0.251302
0.251068
0.251452
0.251025
0.251121
0.251293
0.251335
0.251495
0.251578
0.251635
0.251615
0.251634
0.251611
0.251494
0.251522
0.251402
0.251369
0.251814
0.251585
0.251494
0.251267
0.251537
0.250206
0.250119
0.250242
0.250309
0.250306
0.250286
0.250208
0.250157
0.24089
0.246716
0.25094
0.250875
0.251044
0.251223
0.251393
0.251412
0.251462
0.251528
0.251573
0.251697
0.251765
0.251738
0.25178
0.251759
0.251666
0.251451
0.251366
0.251121
0.250647
0.250704
0.251288
0.251501
0.251572
0.25161
0.251627
0.251647
0.25158
0.251595
0.251986
0.251814
0.251693
0.251663
0.251686
0.251746
0.251769
0.251844
0.251886
0.251874
0.25191
0.251912
0.251982
0.251982
0.252024
0.252
0.251967
0.251913
0.251843
0.25179
0.251661
0.251328
0.251381
0.251448
0.251456
0.251442
0.251405
0.251404
0.251425
0.251453
0.250789
0.252388
0.252021
0.252247
0.252195
0.251684
0.25132
0.251269
0.25125
0.25129
0.251375
0.251413
0.251451
0.251477
0.251458
0.251476
0.25143
0.251469
0.251418
0.251481
0.251452
0.251522
0.251533
0.251552
0.251569
0.251574
0.251556
0.251604
0.252331
0.208095
0.151839
0.15556
0.156859
0.156445
0.155262
0.182666
0.24936
0.248087
0.248231
0.248335
0.248366
0.248371
0.248359
0.248331
0.248272
0.248199
0.248114
0.247981
0.247846
0.247695
0.247572
0.247513
0.247523
0.247716
0.248288
0.249256
0.250145
0.250807
0.252313
0.174332
0.218352
0.218778
0.222523
0.22784
0.231896
0.233795
0.234207
0.234311
0.233777
0.232375
0.23139
0.233959
0.238737
0.235742
0.201419
0.2088
0.216695
0.22187
0.223075
0.222388
0.221168
0.22045
0.219926
0.219427
0.21863
0.216999
0.215895
0.214567
0.214312
0.214108
0.214346
0.214784
0.215099
0.215482
0.215665
0.215721
0.215475
0.214981
0.213971
0.212476
0.210452
0.207606
0.204967
0.198452
0.248687
0.245408
0.22962
0.221716
0.221613
0.224482
0.22797
0.230051
0.232323
0.234328
0.236503
0.237875
0.238558
0.238508
0.238658
0.238491
0.238253
0.237904
0.238321
0.237426
0.237384
0.236468
0.235913
0.235851
0.237146
0.241272
0.245577
0.245743
0.244324
0.243926
0.24923
0.250438
0.249094
0.247809
0.247496
0.247619
0.24792
0.247879
0.247713
0.247458
0.247342
0.247065
0.247088
0.246898
0.24678
0.246473
0.246376
0.246741
0.246808
0.247101
0.247254
0.247543
0.247614
0.247736
0.248268
0.248449
0.247609
0.247362
0.247607
0.247218
0.251512
0.251439
0.250753
0.249776
0.247633
0.246216
0.245555
0.245179
0.245181
0.245293
0.245392
0.245437
0.2458
0.246095
0.246376
0.246766
0.247413
0.248378
0.249245
0.249927
0.250559
0.251154
0.251384
0.249184
0.24507
0.242209
0.24387
0.246384
0.246974
0.246539
0.251759
0.251433
0.251449
0.251479
0.251534
0.251564
0.251562
0.251532
0.25154
0.251438
0.251351
0.251245
0.251175
0.25106
0.251021
0.251022
0.251003
0.251016
0.250975
0.25102
0.251
0.251021
0.25106
0.251193
0.251254
0.25139
0.251467
0.25136
0.251214
0.250974
0.251514
0.250815
0.249256
0.249232
0.251553
0.251567
0.251606
0.251561
0.25154
0.25152
0.251367
0.250782
0.250427
0.250409
0.250096
0.250439
0.250244
0.250484
0.250839
0.250981
0.251507
0.25199
0.25225
0.251537
0.248948
0.239008
0.227292
0.223483
0.22942
0.237253
0.251583
0.251928
0.251603
0.25124
0.251109
0.251152
0.251218
0.251312
0.251394
0.251571
0.25156
0.25159
0.251651
0.25164
0.251666
0.251662
0.25167
0.251637
0.251642
0.251595
0.251578
0.25156
0.251506
0.251499
0.251402
0.251192
0.251197
0.251218
0.251157
0.251089
0.250284
0.250708
0.251081
0.251401
0.251515
0.251676
0.25188
0.251843
0.251814
0.251822
0.251895
0.251881
0.251818
0.251792
0.251727
0.251654
0.251508
0.251451
0.251327
0.251596
0.25157
0.251852
0.250936
0.250271
0.250721
0.25098
0.2511
0.250954
0.25066
0.25037
0.249826
0.25139
0.251705
0.25175
0.25188
0.251795
0.251525
0.25148
0.25136
0.251325
0.251377
0.251449
0.251575
0.25161
0.251669
0.251677
0.25163
0.251557
0.251499
0.251265
0.250947
0.250654
0.251186
0.25142
0.251609
0.251624
0.251585
0.251549
0.251588
0.251574
0.251745
0.251696
0.251692
0.251666
0.251758
0.251796
0.25188
0.251922
0.251976
0.252034
0.252092
0.252109
0.252142
0.252173
0.252198
0.252148
0.25213
0.252021
0.251946
0.251881
0.251764
0.251609
0.251324
0.251426
0.251374
0.251268
0.251202
0.251242
0.251377
0.251483
0.252234
0.25204
0.252093
0.252003
0.251494
0.251234
0.251297
0.251511
0.251687
0.251846
0.251917
0.251931
0.251903
0.251884
0.251674
0.251552
0.25135
0.251297
0.251221
0.251276
0.251291
0.251376
0.251421
0.251515
0.251582
0.251634
0.2516
0.2516
0.252013
0.249402
0.188016
0.21231
0.214584
0.19048
0.186247
0.252156
0.248606
0.248206
0.248448
0.248552
0.248581
0.248573
0.248541
0.248477
0.248427
0.24834
0.24823
0.248038
0.247756
0.247362
0.247029
0.246898
0.246911
0.247205
0.248128
0.249486
0.250462
0.250954
0.252434
0.181629
0.215446
0.222135
0.232975
0.236237
0.237452
0.237139
0.236692
0.236444
0.236687
0.235806
0.233829
0.232205
0.236964
0.236603
0.202814
0.213059
0.222513
0.226756
0.225974
0.223358
0.221433
0.21996
0.21872
0.217291
0.215629
0.213493
0.212328
0.212006
0.212474
0.213242
0.214122
0.215078
0.215766
0.216242
0.216548
0.216774
0.21671
0.216079
0.215036
0.213405
0.211502
0.208954
0.206113
0.199627
0.248425
0.241111
0.225274
0.222573
0.22799
0.232933
0.234246
0.234568
0.236225
0.237929
0.238845
0.238722
0.238736
0.23802
0.237834
0.237828
0.237405
0.237625
0.237145
0.237508
0.237693
0.236951
0.236851
0.236626
0.236794
0.239147
0.244059
0.246324
0.246595
0.245491
0.249325
0.250645
0.249502
0.248168
0.247915
0.248023
0.248003
0.247639
0.247405
0.247146
0.246965
0.246512
0.246432
0.244757
0.244461
0.243389
0.243188
0.242895
0.243131
0.243672
0.245761
0.246955
0.247747
0.24789
0.248047
0.248783
0.24916
0.249279
0.249199
0.248108
0.251608
0.250558
0.247036
0.244821
0.244058
0.243862
0.243848
0.244047
0.244283
0.244375
0.244491
0.244729
0.244839
0.244819
0.244941
0.244974
0.245259
0.245798
0.246715
0.247811
0.248965
0.250094
0.251137
0.251185
0.249653
0.248054
0.247561
0.248255
0.248473
0.247369
0.251543
0.251422
0.251466
0.25155
0.251581
0.251552
0.251566
0.251504
0.251436
0.251276
0.251104
0.250983
0.250904
0.250868
0.250891
0.250851
0.250877
0.25084
0.250885
0.250776
0.250759
0.250724
0.250707
0.25086
0.251091
0.251241
0.251413
0.251457
0.251327
0.251055
0.251465
0.250404
0.249568
0.251494
0.251859
0.251674
0.251594
0.251499
0.251762
0.25073
0.24999
0.249595
0.249743
0.250319
0.250632
0.250988
0.251036
0.251018
0.251097
0.250894
0.250848
0.251359
0.251967
0.252139
0.251266
0.249234
0.240855
0.226933
0.22446
0.233851
0.252058
0.251609
0.251066
0.251069
0.251196
0.251457
0.251528
0.251534
0.251511
0.251571
0.251617
0.251597
0.251677
0.251651
0.251681
0.251659
0.251692
0.251607
0.251645
0.251532
0.25156
0.251548
0.251515
0.251472
0.251489
0.251656
0.251229
0.251225
0.2512
0.251153
0.250865
0.25126
0.251316
0.25131
0.251382
0.251435
0.251674
0.251553
0.251513
0.251482
0.251451
0.251415
0.251445
0.251412
0.251464
0.251537
0.251543
0.251461
0.251449
0.251349
0.251517
0.251398
0.25169
0.250628
0.25097
0.251419
0.251567
0.251574
0.251236
0.250714
0.25175
0.251484
0.25142
0.251399
0.251372
0.251537
0.251083
0.250865
0.25032
0.249287
0.248804
0.248693
0.248812
0.249103
0.249524
0.249911
0.250583
0.251295
0.251373
0.251421
0.251217
0.250911
0.250875
0.251385
0.251594
0.251639
0.251526
0.251473
0.25152
0.251582
0.251476
0.251658
0.25168
0.251797
0.251822
0.251872
0.251899
0.251973
0.252032
0.252211
0.252196
0.252216
0.252231
0.252258
0.252354
0.252335
0.252286
0.252402
0.252103
0.252014
0.251925
0.251741
0.251428
0.251381
0.251318
0.251105
0.250929
0.250981
0.251287
0.251496
0.252044
0.252008
0.251808
0.251403
0.251248
0.251466
0.25171
0.25195
0.251984
0.252014
0.252036
0.252069
0.252078
0.25208
0.251964
0.25189
0.251519
0.251356
0.251262
0.251398
0.251567
0.251792
0.251816
0.251765
0.251726
0.251735
0.2517
0.251626
0.251795
0.252257
0.251796
0.25211
0.252366
0.226283
0.250536
0.249685
0.248337
0.248424
0.248588
0.248559
0.248483
0.248398
0.248339
0.248308
0.248277
0.248254
0.248213
0.248118
0.247852
0.247342
0.246741
0.246498
0.24682
0.247445
0.249002
0.250479
0.251035
0.251159
0.252392
0.185133
0.217012
0.229725
0.237116
0.237496
0.236261
0.234385
0.232592
0.232245
0.233896
0.23616
0.235503
0.232943
0.235249
0.236823
0.2042
0.217663
0.22815
0.230984
0.22882
0.224575
0.221258
0.218328
0.216383
0.214312
0.212287
0.210619
0.210602
0.211664
0.213182
0.214727
0.216163
0.217511
0.218403
0.219058
0.219201
0.219321
0.21895
0.218157
0.216414
0.214361
0.21208
0.209648
0.206905
0.200438
0.248183
0.237839
0.224954
0.227525
0.237297
0.24005
0.237635
0.236237
0.237563
0.238404
0.238615
0.2383
0.237254
0.237214
0.237112
0.237684
0.23822
0.238664
0.237392
0.237459
0.236259
0.237268
0.237014
0.237405
0.237319
0.238236
0.241648
0.245512
0.246825
0.246171
0.249468
0.250409
0.24997
0.248571
0.247968
0.247932
0.247782
0.247639
0.247731
0.247546
0.247282
0.246725
0.245989
0.244933
0.243973
0.243231
0.242299
0.241582
0.241049
0.24123
0.242547
0.245482
0.247263
0.247921
0.248043
0.248596
0.249531
0.250178
0.250097
0.248524
0.251321
0.246941
0.244289
0.244352
0.244825
0.245072
0.245215
0.245259
0.245079
0.245124
0.245344
0.245503
0.245314
0.245416
0.245367
0.245222
0.244952
0.244846
0.245195
0.246026
0.247247
0.248658
0.250226
0.251341
0.251532
0.251239
0.250518
0.249875
0.249545
0.247878
0.251552
0.251489
0.251535
0.251568
0.251554
0.251551
0.251534
0.251464
0.251342
0.251155
0.250964
0.250943
0.25095
0.251025
0.251077
0.251009
0.250966
0.25086
0.250831
0.250704
0.2506
0.25067
0.250642
0.250751
0.250856
0.251086
0.251354
0.251478
0.251365
0.251144
0.251443
0.250289
0.251761
0.251918
0.251769
0.251621
0.251623
0.251574
0.250893
0.249721
0.249527
0.250371
0.251886
0.251778
0.251969
0.252071
0.252044
0.251969
0.252019
0.251998
0.251756
0.251297
0.251565
0.252108
0.252118
0.251112
0.248896
0.234425
0.223585
0.231245
0.251716
0.251094
0.251029
0.251258
0.251503
0.251489
0.251503
0.2515
0.25157
0.251614
0.251586
0.251597
0.251522
0.251518
0.251532
0.251561
0.251619
0.251625
0.251617
0.251529
0.251543
0.251503
0.251509
0.251488
0.251465
0.251462
0.251497
0.251381
0.251336
0.251212
0.251358
0.251243
0.251256
0.251293
0.251722
0.251404
0.251269
0.250961
0.250324
0.249438
0.248824
0.248563
0.24868
0.249159
0.250149
0.251339
0.251259
0.251407
0.251413
0.251417
0.251896
0.25162
0.251751
0.25118
0.251035
0.25162
0.25162
0.251604
0.251597
0.251112
0.251526
0.251452
0.251409
0.251375
0.25185
0.251215
0.250905
0.248582
0.247334
0.246177
0.245264
0.245004
0.245339
0.246009
0.247026
0.24768
0.248253
0.249187
0.250375
0.251904
0.25133
0.251168
0.250874
0.251335
0.251508
0.25163
0.251557
0.251464
0.251538
0.251543
0.251611
0.251644
0.251793
0.251822
0.251842
0.251873
0.25195
0.251964
0.251927
0.251802
0.251638
0.250832
0.250861
0.250808
0.251013
0.251842
0.252103
0.252195
0.252266
0.252277
0.252052
0.251891
0.251707
0.251394
0.251328
0.251115
0.250889
0.250854
0.251191
0.251506
0.252007
0.251938
0.251462
0.251262
0.251451
0.251739
0.251901
0.251895
0.251924
0.251949
0.252007
0.252276
0.25227
0.252183
0.252229
0.252224
0.251951
0.251615
0.251485
0.251705
0.252167
0.252302
0.25224
0.252346
0.252103
0.251967
0.251884
0.251694
0.251736
0.252343
0.251458
0.249855
0.251489
0.251438
0.251234
0.248643
0.248355
0.248561
0.248579
0.248535
0.248512
0.248532
0.248551
0.248524
0.248442
0.248323
0.248231
0.248181
0.248072
0.247662
0.246867
0.24633
0.246846
0.24837
0.250496
0.251519
0.251413
0.251226
0.25244
0.183327
0.219074
0.233537
0.23755
0.236506
0.235003
0.231873
0.22859
0.226434
0.228629
0.233982
0.235767
0.233803
0.234517
0.236627
0.206086
0.221859
0.232489
0.234723
0.231418
0.226262
0.221239
0.217261
0.214483
0.212039
0.210075
0.209435
0.211002
0.213426
0.215595
0.217378
0.218696
0.219475
0.220931
0.221427
0.222092
0.221888
0.221258
0.219981
0.218004
0.215115
0.21237
0.20987
0.207178
0.200784
0.248043
0.236733
0.226679
0.235088
0.245168
0.245014
0.239752
0.237075
0.237801
0.238615
0.238511
0.23783
0.237076
0.237392
0.238587
0.239707
0.241219
0.241751
0.241373
0.239735
0.238313
0.237874
0.23791
0.237988
0.237759
0.238161
0.240194
0.24457
0.246505
0.246269
0.249654
0.250521
0.250551
0.248436
0.247866
0.247875
0.247941
0.248166
0.248258
0.247999
0.24755
0.246782
0.24605
0.244714
0.243718
0.243087
0.242215
0.241278
0.24046
0.240301
0.240957
0.243592
0.246758
0.247764
0.248055
0.248362
0.249323
0.25043
0.250553
0.248786
0.250368
0.244804
0.245235
0.24636
0.246857
0.246936
0.24664
0.245865
0.24554
0.245807
0.24574
0.245653
0.245947
0.246028
0.245993
0.245749
0.245371
0.245028
0.244816
0.24512
0.245982
0.247301
0.248927
0.250367
0.251512
0.251216
0.251112
0.251497
0.250455
0.248321
0.251527
0.251545
0.251553
0.251549
0.251547
0.251548
0.251542
0.251458
0.251297
0.251117
0.251009
0.251456
0.25145
0.251435
0.251278
0.251111
0.250994
0.250852
0.250755
0.250683
0.250561
0.250555
0.250592
0.250635
0.250761
0.250999
0.251245
0.251474
0.251444
0.25122
0.251446
0.25116
0.251721
0.252018
0.251615
0.251712
0.251622
0.250793
0.248906
0.248814
0.250332
0.251706
0.251897
0.251615
0.251732
0.251634
0.251675
0.251726
0.251811
0.252085
0.251942
0.252078
0.251565
0.251891
0.252266
0.251909
0.250281
0.239463
0.223892
0.230256
0.251629
0.25082
0.251232
0.251511
0.251493
0.251514
0.25151
0.251581
0.251537
0.251569
0.251473
0.251428
0.251415
0.251384
0.251352
0.25134
0.251354
0.251395
0.251613
0.251536
0.251523
0.251489
0.251501
0.251504
0.251491
0.251491
0.251512
0.251585
0.251489
0.251294
0.251241
0.25119
0.25126
0.251625
0.251329
0.251087
0.25018
0.248427
0.247412
0.24631
0.245103
0.244501
0.24407
0.244779
0.246562
0.247747
0.249631
0.251095
0.251322
0.251382
0.251367
0.251371
0.251465
0.251645
0.25106
0.25145
0.251595
0.251651
0.251636
0.251329
0.251516
0.251394
0.251352
0.251384
0.251702
0.25104
0.248685
0.246648
0.244345
0.243638
0.243759
0.243997
0.244283
0.244425
0.244478
0.244882
0.245827
0.24771
0.248889
0.250521
0.251372
0.251313
0.251116
0.251111
0.251486
0.251548
0.251611
0.251486
0.251496
0.251585
0.251645
0.251749
0.251805
0.251824
0.251844
0.25194
0.251949
0.251763
0.250406
0.248498
0.2453
0.242629
0.240857
0.24225
0.244535
0.247462
0.249667
0.251297
0.252052
0.252264
0.252224
0.252026
0.251791
0.251456
0.251351
0.251229
0.251095
0.250829
0.251095
0.251438
0.25198
0.251674
0.251306
0.251346
0.251637
0.251873
0.251777
0.251727
0.251719
0.251708
0.251787
0.251898
0.252286
0.252147
0.252213
0.25222
0.252436
0.251905
0.251586
0.251884
0.252294
0.249894
0.243933
0.250665
0.252288
0.252157
0.251988
0.251771
0.251737
0.252283
0.250527
0.248713
0.251241
0.252045
0.249625
0.248335
0.248437
0.2486
0.248635
0.248744
0.248997
0.249237
0.249394
0.24933
0.249121
0.248815
0.248418
0.248214
0.248129
0.248005
0.247311
0.246305
0.246649
0.249127
0.251229
0.251879
0.251431
0.251258
0.252297
0.177308
0.220532
0.234036
0.236328
0.235789
0.233957
0.231567
0.227044
0.223142
0.224441
0.231285
0.234761
0.233789
0.234038
0.236206
0.207592
0.226125
0.237131
0.238593
0.234786
0.228403
0.222083
0.216727
0.21292
0.210317
0.208897
0.209932
0.212742
0.215806
0.217641
0.21894
0.219947
0.221368
0.222796
0.224079
0.22477
0.22471
0.223226
0.221423
0.218762
0.215506
0.212309
0.209773
0.207215
0.200384
0.247943
0.237166
0.230241
0.242458
0.248455
0.247286
0.240743
0.237359
0.237869
0.238647
0.238843
0.238656
0.237739
0.237681
0.239073
0.24121
0.243301
0.244441
0.24402
0.242379
0.239885
0.238883
0.238467
0.238531
0.238342
0.238357
0.239504
0.243419
0.246209
0.246149
0.249941
0.250679
0.250703
0.248239
0.247833
0.248035
0.248271
0.248427
0.248503
0.248114
0.247572
0.246742
0.246137
0.244213
0.243083
0.241669
0.240902
0.240562
0.239792
0.239835
0.240029
0.242868
0.246273
0.247657
0.247837
0.24816
0.249102
0.250303
0.250512
0.248626
0.247911
0.245163
0.247379
0.248668
0.24902
0.248598
0.247429
0.246302
0.246104
0.245894
0.245606
0.245904
0.245746
0.245576
0.245529
0.245613
0.245478
0.245171
0.244823
0.244621
0.245122
0.246213
0.247667
0.249337
0.250735
0.251157
0.25121
0.25113
0.250964
0.248482
0.251536
0.25151
0.251562
0.251552
0.251526
0.251873
0.251558
0.251482
0.251555
0.251388
0.251338
0.251354
0.251418
0.251544
0.251357
0.251179
0.25099
0.250839
0.250743
0.2506
0.250554
0.250593
0.250557
0.250708
0.250793
0.250995
0.251245
0.251447
0.251482
0.251172
0.251542
0.251634
0.251696
0.251745
0.251843
0.251811
0.251381
0.248438
0.246823
0.249325
0.251661
0.251764
0.251605
0.251582
0.251715
0.251621
0.2517
0.251619
0.251639
0.251752
0.251999
0.25189
0.251846
0.251895
0.251868
0.251874
0.250959
0.240941
0.223039
0.230793
0.251322
0.250923
0.251381
0.251509
0.251531
0.251516
0.251582
0.251601
0.251552
0.251523
0.251484
0.251435
0.251462
0.251399
0.25135
0.251271
0.251234
0.251222
0.251318
0.251443
0.251526
0.25149
0.251493
0.251505
0.251507
0.251504
0.251512
0.2518
0.251604
0.251321
0.25118
0.251183
0.251302
0.251484
0.251161
0.25044
0.248195
0.246886
0.244909
0.243386
0.242736
0.242033
0.241802
0.24137
0.241667
0.243662
0.246904
0.24942
0.251145
0.251294
0.251347
0.251114
0.251731
0.251772
0.251167
0.251278
0.251462
0.25161
0.251606
0.251504
0.251495
0.251269
0.251355
0.251416
0.2516
0.250746
0.247765
0.245162
0.244311
0.244475
0.244914
0.245139
0.245127
0.244767
0.244464
0.244479
0.244677
0.245796
0.247896
0.249648
0.25153
0.251473
0.251258
0.25113
0.251536
0.251519
0.251481
0.251518
0.251479
0.25156
0.251659
0.251769
0.251858
0.251877
0.251889
0.252214
0.251893
0.250333
0.246361
0.239757
0.235119
0.231521
0.231244
0.231072
0.232909
0.237414
0.243486
0.248958
0.250833
0.252088
0.252239
0.252275
0.251883
0.251553
0.251362
0.25131
0.251181
0.250842
0.250924
0.251347
0.251946
0.251513
0.251282
0.251472
0.251787
0.25171
0.25161
0.251538
0.251551
0.251541
0.251588
0.251618
0.251804
0.252302
0.252141
0.252117
0.25232
0.252125
0.251736
0.251912
0.25229
0.248838
0.237516
0.247467
0.252199
0.252355
0.252072
0.25181
0.251754
0.252368
0.250282
0.248612
0.250932
0.251082
0.248884
0.248291
0.248507
0.248666
0.24884
0.249242
0.24973
0.250122
0.250329
0.250321
0.250007
0.249538
0.248952
0.248369
0.248105
0.248096
0.247864
0.246599
0.246202
0.249058
0.251349
0.251862
0.251442
0.251463
0.250118
0.171742
0.220513
0.233539
0.235063
0.233843
0.233294
0.230496
0.225324
0.221847
0.223344
0.229361
0.233221
0.233318
0.233733
0.235844
0.209851
0.230118
0.240321
0.241338
0.237022
0.230243
0.223282
0.216341
0.211708
0.209218
0.208817
0.21096
0.214312
0.217288
0.218475
0.220157
0.22184
0.224149
0.225736
0.226423
0.226768
0.225916
0.22428
0.221403
0.218269
0.214701
0.211573
0.209231
0.206651
0.19942
0.24787
0.238513
0.235271
0.247394
0.25083
0.24858
0.241341
0.23749
0.237851
0.238922
0.239575
0.239687
0.238764
0.237714
0.238743
0.241171
0.243808
0.245134
0.244499
0.242579
0.240282
0.239633
0.239344
0.239226
0.238922
0.238564
0.239387
0.242938
0.246073
0.245972
0.250294
0.250823
0.250468
0.248088
0.247869
0.248268
0.248416
0.248635
0.248682
0.248359
0.24769
0.247027
0.24607
0.243764
0.242114
0.240257
0.239445
0.238794
0.238531
0.239088
0.239741
0.242971
0.246013
0.247495
0.247738
0.248121
0.248994
0.25027
0.250346
0.248272
0.246497
0.24665
0.249777
0.250878
0.250869
0.24955
0.248049
0.246931
0.246313
0.245829
0.245807
0.245489
0.245056
0.245138
0.245403
0.245452
0.245377
0.245235
0.244759
0.244606
0.244567
0.245526
0.246724
0.248443
0.249963
0.251082
0.251202
0.251203
0.251149
0.24859
0.251533
0.251512
0.251522
0.251494
0.251525
0.251837
0.25156
0.251528
0.251654
0.251352
0.25136
0.251432
0.251526
0.25157
0.251419
0.251184
0.251006
0.250891
0.250727
0.250588
0.250627
0.250596
0.250634
0.250715
0.250792
0.250998
0.251288
0.251532
0.251489
0.251261
0.251947
0.251804
0.251668
0.251876
0.251576
0.25168
0.249279
0.246116
0.247066
0.250426
0.251635
0.251636
0.251585
0.251673
0.251846
0.251859
0.251769
0.251672
0.251641
0.251669
0.25204
0.251907
0.25196
0.251977
0.251879
0.251872
0.250972
0.235645
0.22247
0.233151
0.25117
0.251082
0.251524
0.251538
0.251519
0.251585
0.251596
0.251565
0.25162
0.251597
0.251587
0.251489
0.251441
0.251355
0.251313
0.251243
0.251179
0.251166
0.251194
0.251317
0.251561
0.251497
0.25149
0.251508
0.251521
0.251506
0.251508
0.251517
0.251672
0.251311
0.25117
0.251212
0.251601
0.251247
0.251042
0.249454
0.247388
0.245935
0.243791
0.242641
0.241461
0.240444
0.239956
0.23989
0.239804
0.240564
0.243663
0.24751
0.250486
0.251212
0.251242
0.251062
0.251416
0.251941
0.251318
0.251217
0.251344
0.251604
0.251675
0.251637
0.251315
0.251161
0.251255
0.251475
0.251629
0.250342
0.247756
0.245507
0.245286
0.245356
0.245551
0.245689
0.246008
0.245787
0.245484
0.245132
0.244625
0.245171
0.247544
0.249058
0.251206
0.251504
0.251395
0.251137
0.251263
0.251482
0.251474
0.251491
0.25156
0.251537
0.25163
0.251779
0.251883
0.251903
0.251965
0.252262
0.251976
0.249256
0.240414
0.233998
0.227954
0.224342
0.22292
0.223583
0.226111
0.229914
0.236095
0.242958
0.249104
0.25141
0.252158
0.252167
0.251983
0.251677
0.251391
0.251314
0.251212
0.25086
0.250862
0.251208
0.251914
0.251438
0.251304
0.251535
0.251698
0.251557
0.251371
0.25131
0.251252
0.251253
0.251265
0.251336
0.251593
0.251791
0.252234
0.252147
0.251596
0.252407
0.251924
0.251758
0.252276
0.251272
0.244366
0.248746
0.252354
0.252335
0.25207
0.251809
0.251897
0.252346
0.250722
0.248563
0.250569
0.250297
0.248586
0.248296
0.248555
0.248775
0.249172
0.249798
0.250448
0.250847
0.250983
0.250955
0.250669
0.250254
0.249554
0.248768
0.24815
0.248022
0.248084
0.247118
0.245967
0.248615
0.251354
0.251934
0.251625
0.252076
0.228161
0.166229
0.219432
0.23095
0.231685
0.231355
0.232176
0.229018
0.223665
0.221432
0.223543
0.228605
0.231872
0.232654
0.233614
0.235333
0.211922
0.233045
0.242806
0.243072
0.238156
0.231574
0.224668
0.216261
0.210736
0.20838
0.208831
0.211571
0.214848
0.217612
0.219218
0.221755
0.224444
0.226238
0.22709
0.227284
0.226228
0.224894
0.222083
0.219277
0.215913
0.212931
0.210462
0.208181
0.20465
0.198156
0.247851
0.240509
0.240513
0.249548
0.251168
0.249739
0.241786
0.237385
0.237609
0.239036
0.240333
0.241008
0.240117
0.238465
0.23833
0.239752
0.242297
0.243826
0.243786
0.242606
0.241292
0.240782
0.240269
0.239828
0.239127
0.238652
0.239638
0.243369
0.245971
0.24573
0.250743
0.250908
0.250326
0.247982
0.24796
0.248324
0.248554
0.248755
0.248734
0.248534
0.248174
0.247387
0.24642
0.243741
0.241313
0.239316
0.237864
0.237366
0.237379
0.239245
0.240667
0.243699
0.246248
0.24732
0.247535
0.248107
0.249381
0.250582
0.249871
0.247735
0.246332
0.249471
0.2506
0.250866
0.25082
0.250646
0.248881
0.247315
0.246565
0.246242
0.2456
0.245228
0.24511
0.244947
0.24479
0.244873
0.244912
0.244945
0.244647
0.244509
0.244444
0.24509
0.246247
0.247646
0.249172
0.250565
0.251477
0.251158
0.250874
0.248502
0.251569
0.251531
0.25151
0.251469
0.251501
0.251683
0.251796
0.251547
0.251646
0.25149
0.251418
0.251536
0.251725
0.2517
0.251418
0.251233
0.251042
0.250883
0.250735
0.250671
0.25068
0.250682
0.250653
0.250755
0.250868
0.251116
0.251383
0.251556
0.251455
0.251171
0.251643
0.251855
0.251602
0.251528
0.251573
0.251621
0.249042
0.245932
0.247295
0.250371
0.251617
0.251859
0.251628
0.25181
0.251792
0.251874
0.251749
0.251692
0.251682
0.251733
0.252005
0.251866
0.252058
0.251867
0.251858
0.251858
0.249466
0.227363
0.223613
0.235838
0.251052
0.251143
0.251511
0.251495
0.251568
0.251595
0.251588
0.251635
0.251607
0.251577
0.25158
0.251466
0.251311
0.251242
0.251164
0.251156
0.251085
0.251078
0.251117
0.251254
0.251559
0.251498
0.251507
0.251515
0.251525
0.251515
0.251494
0.251526
0.25163
0.251305
0.251246
0.251249
0.251589
0.25129
0.251058
0.249219
0.247406
0.245546
0.243508
0.24171
0.23909
0.237005
0.236369
0.237365
0.237973
0.238822
0.241571
0.246484
0.249669
0.251661
0.251131
0.250895
0.251005
0.251708
0.251445
0.251257
0.251349
0.251609
0.251668
0.251666
0.25121
0.250882
0.251126
0.251448
0.251837
0.2507
0.248166
0.246283
0.24604
0.24579
0.245594
0.246113
0.246682
0.246654
0.245938
0.245818
0.245043
0.245306
0.247308
0.249055
0.251205
0.251593
0.251461
0.251227
0.251209
0.251473
0.251494
0.251511
0.251528
0.251424
0.251635
0.251755
0.251885
0.251921
0.252025
0.252239
0.251742
0.248777
0.237064
0.2305
0.22324
0.220905
0.219834
0.220146
0.222215
0.225498
0.231726
0.237624
0.246447
0.250309
0.252112
0.252233
0.252005
0.251732
0.251385
0.251306
0.251149
0.250858
0.250832
0.251152
0.25182
0.251395
0.251295
0.251533
0.251605
0.251517
0.251437
0.251315
0.251336
0.251281
0.251375
0.251238
0.251488
0.251642
0.251887
0.252227
0.250872
0.252273
0.25217
0.251732
0.251944
0.252373
0.251749
0.251479
0.252261
0.252245
0.251981
0.251791
0.251966
0.252367
0.251534
0.248397
0.250073
0.249796
0.248452
0.248302
0.248611
0.248891
0.24947
0.250217
0.250884
0.251203
0.251131
0.251155
0.250945
0.250584
0.249943
0.249129
0.248309
0.247944
0.24808
0.247562
0.245977
0.247923
0.251385
0.252337
0.252105
0.252485
0.199493
0.15953
0.217093
0.226659
0.226598
0.228317
0.231089
0.227874
0.222798
0.222489
0.226658
0.23069
0.232362
0.232838
0.233373
0.235507
0.232909
0.228062
0.215857
0.224495
0.241712
0.243097
0.237641
0.232842
0.226551
0.216467
0.210384
0.20811
0.208558
0.211522
0.214492
0.21712
0.219208
0.221548
0.223597
0.224539
0.224113
0.223039
0.221206
0.219027
0.216823
0.213996
0.211687
0.209626
0.20759
0.20575
0.203843
0.203328
0.22477
0.245981
0.247495
0.24233
0.245135
0.251391
0.251321
0.250767
0.242241
0.236981
0.237281
0.238778
0.240875
0.242484
0.242323
0.240002
0.23766
0.238306
0.240183
0.241727
0.242271
0.242158
0.241555
0.241065
0.240343
0.239624
0.238869
0.238812
0.240726
0.244339
0.24576
0.245528
0.246627
0.24955
0.250961
0.250948
0.249709
0.247908
0.24803
0.248401
0.248681
0.248814
0.248839
0.248796
0.248515
0.247912
0.246984
0.244903
0.241678
0.239312
0.23763
0.237293
0.238228
0.240309
0.242225
0.244762
0.246516
0.247133
0.247634
0.248655
0.24964
0.249038
0.246807
0.246256
0.246783
0.248345
0.250094
0.250696
0.251008
0.251139
0.251196
0.250919
0.249528
0.247907
0.246939
0.246489
0.246022
0.245718
0.245177
0.245054
0.244892
0.244896
0.244736
0.244769
0.244434
0.244589
0.244394
0.24502
0.245967
0.247452
0.24883
0.25023
0.251339
0.251545
0.250382
0.248662
0.24991
0.25169
0.251604
0.251532
0.251492
0.251426
0.251503
0.251749
0.251797
0.251598
0.251805
0.251568
0.251624
0.251727
0.25173
0.251783
0.251433
0.251227
0.251137
0.251007
0.250844
0.250716
0.250697
0.250768
0.250749
0.250881
0.250983
0.251305
0.25152
0.251579
0.251444
0.251161
0.251377
0.25149
0.251753
0.25166
0.251551
0.251442
0.251593
0.251704
0.249966
0.247271
0.246975
0.249753
0.251545
0.25185
0.251843
0.251818
0.251789
0.251825
0.251837
0.251977
0.252014
0.251941
0.251889
0.251855
0.251831
0.251807
0.251801
0.251199
0.238933
0.228374
0.249625
0.251807
0.250823
0.251069
0.251135
0.251218
0.251488
0.25155
0.251592
0.251646
0.251646
0.251631
0.251617
0.251618
0.251579
0.25141
0.251248
0.25112
0.25099
0.250976
0.250976
0.251033
0.251117
0.251265
0.251553
0.251506
0.251518
0.251526
0.251523
0.251488
0.251491
0.251475
0.251325
0.251211
0.251254
0.251234
0.251304
0.251333
0.251352
0.251359
0.251106
0.249509
0.24758
0.245722
0.2435
0.241001
0.237591
0.234572
0.233343
0.234451
0.236022
0.237775
0.241214
0.246417
0.249217
0.250966
0.251307
0.250541
0.250629
0.251599
0.251623
0.251325
0.251581
0.251651
0.251617
0.251554
0.251346
0.251091
0.250639
0.250368
0.250981
0.251415
0.25191
0.251802
0.248778
0.247501
0.2471
0.246297
0.246042
0.245971
0.246205