/*--------------------------------*- C++ -*----------------------------------*\
| =========                 |                                                 |
| \\      /  F ield         | OpenFOAM: The Open Source CFD Toolbox           |
|  \\    /   O peration     | Version:  2.1.1                                 |
|   \\  /    A nd           | Web:      www.OpenFOAM.org                      |
|    \\/     M anipulation  |                                                 |
\*---------------------------------------------------------------------------*/
FoamFile
{
    version     2.0;
    format      ascii;
    class       volScalarField;
    location    "0.005500000";
    object      mut;
}
// * * * * * * * * * * * * * * * * * * * * * * * * * * * * * * * * * * * * * //

dimensions      [1 -1 -1 0 0 0 0];

internalField   nonuniform List<scalar> 
12384
(
0.00171442
0.00242553
0.00198237
0.00174991
0.00160822
0.00150198
0.00138139
0.00123144
0.00108889
0.000974879
0.000860544
0.000734986
0.000517622
0.000310461
0.00576235
0.00509154
0.00397012
0.0034068
0.00304112
0.00290923
0.00284651
0.00300981
0.00324937
0.00395011
0.00537188
0.00880021
0.0163033
0.0176302
0.0124462
0.00984451
0.00838364
0.00758326
0.00685433
0.00656334
0.00643642
0.00679463
0.00757542
0.00929201
0.0127806
0.018298
0.014439
0.00627765
0.0020803
0.00200708
0.0103744
0.00981992
0.0086131
0.00832678
0.00919804
0.0115686
0.0186917
0.0204936
0.0174469
0.00826653
0.00506403
0.00371109
0.00310185
0.00288011
0.0028592
0.00291927
0.00295975
0.00297606
0.00296925
0.0031404
0.00337093
0.00385508
0.00454801
0.00581079
0.00789421
0.0118937
0.0178567
0.0122183
0.00360779
0.00287083
0.00717615
0.00549717
0.00519186
0.0053418
0.00597312
0.0074718
0.0112962
0.0205863
0.012265
0.00754301
0.00596104
0.00544881
0.0053453
0.00537854
0.00545916
0.00555824
0.00550294
0.00535183
0.0056498
0.00643967
0.00759124
0.00953151
0.0137095
0.0236051
0.025461
0.0127087
0.00720032
0.00424907
0.00286993
0.00557247
0.0137451
0.0158002
0.0075363
0.00537412
0.00483341
0.00478817
0.00489305
0.00501844
0.00509745
0.00515266
0.00509988
0.00499082
0.00473305
0.00450569
0.00429922
0.00422239
0.00430268
0.0046238
0.00529397
0.00655789
0.00890406
0.0137659
0.0265846
0.0260705
0.0131962
0.00606432
0.00253687
0.0014474
0.00204753
0.00476957
0.0075502
0.00805604
0.00661559
0.00584982
0.0057492
0.00627563
0.00766403
0.0104
0.0170502
0.0193357
0.0107
0.00685984
0.00557237
0.00517834
0.00507456
0.00516358
0.00504588
0.00488391
0.00442681
0.00389507
0.00385502
0.00440196
0.0052656
0.00696731
0.00979271
0.0152043
0.025514
0.0231468
0.0165858
0.0124658
0.00754385
0.00920541
0.0111646
0.0126288
0.0134826
0.00928121
0.00482544
0.0036537
0.00345811
0.00373426
0.00405404
0.00447943
0.00477075
0.00497107
0.00506897
0.00477612
0.0044109
0.00399614
0.00384853
0.00389262
0.00423886
0.00507735
0.00724529
0.0142315
0.019368
0.0133005
0.0114584
0.0108754
0.0111947
0.0114648
0.00831523
0.00833254
0.0060071
0.00480564
0.0044787
0.00454135
0.00477363
0.00500775
0.00520602
0.00536167
0.0054354
0.00540375
0.00522366
0.0050269
0.00468184
0.00460011
0.00456131
0.00488826
0.00513233
0.00594969
0.00698258
0.00917911
0.0132282
0.0216009
0.0123655
0.00618249
0.00466347
0.00402825
0.00449543
0.00850965
0.010136
0.0125788
0.00879747
0.0072618
0.00657929
0.00623753
0.00616032
0.00615575
0.00622609
0.00618813
0.00604731
0.00594845
0.00563951
0.00537323
0.00537215
0.0056593
0.00615292
0.00701565
0.00844392
0.0110747
0.0158587
0.0218383
0.0109983
0.00573519
0.00386026
0.00280113
0.00237912
0.00245464
0.00318444
0.00590568
0.0119727
0.0141186
0.0193319
0.0145603
0.0117054
0.0104267
0.0097071
0.00917978
0.00873147
0.00809075
0.00742386
0.00652799
0.00546829
0.00475293
0.00436924
0.00432188
0.00458534
0.00516566
0.00619969
0.00800059
0.0114117
0.0184119
0.0241622
0.0209009
0.015068
0.00911265
0.00735015
0.00806895
0.01207
0.0174473
0.0107276
0.0142127
0.0127715
0.010694
0.00965066
0.00917759
0.00889597
0.0087033
0.00854722
0.00822663
0.0080821
0.00760422
0.00692341
0.00661743
0.00627316
0.00650906
0.00699863
0.00779832
0.00911164
0.0114817
0.0168501
0.0273947
0.0148036
0.0080591
0.00511248
0.00396873
0.00401172
0.00542743
0.00938525
0.0183481
0.00675628
0.00931054
0.0131362
0.015651
0.0138102
0.0100748
0.00820284
0.00727633
0.00769726
0.00965022
0.0143147
0.0189515
0.0183305
0.00976261
0.00625416
0.00490222
0.00432861
0.00394694
0.00389719
0.00371195
0.0037124
0.00332588
0.00320866
0.00322389
0.00359908
0.0044077
0.00584986
0.00794209
0.00876339
0.00454521
0.000575484
0.00111381
0.0018588
0.00240491
0.000936913
0.00141564
0.00352067
0.0046609
0.00462131
0.00440627
0.004282
0.00433594
0.00457465
0.00503785
0.00549263
0.00577089
0.00617953
0.0067852
0.00818061
0.0116676
0.0137135
0.00472892
0.00169524
0.000620995
0.000211167
6.48769e-05
1.95763e-05
8.59711e-06
7.30164e-06
1.07294e-05
0.00505344
0.00239488
0.00259999
0.00293118
0.00332629
0.00369746
0.00403396
0.00422854
0.00431994
0.00426575
0.00399136
0.00345957
0.00264256
0.00123128
0.00454185
0.00341646
0.00426627
0.00475665
0.00488293
0.00488838
0.00473832
0.00461936
0.00445247
0.00452032
0.00478083
0.00542538
0.00626515
0.00731971
0.00838943
0.00944686
0.0103592
0.0110461
0.0114556
0.0115884
0.0114855
0.0111771
0.0106728
0.00993523
0.00898804
0.00778551
0.00636388
0.00483483
0.00342373
0.00832745
0.00424898
0.00594294
0.00768498
0.00836757
0.00832263
0.00786628
0.00727359
0.00671678
0.00628695
0.0062151
0.00667683
0.00773007
0.0092089
0.0111572
0.0131948
0.0152502
0.0171241
0.0182314
0.0190273
0.0191029
0.0186147
0.0178816
0.0164088
0.0145507
0.0122226
0.00962773
0.00708332
0.00491098
0.00351804
0.00589181
0.00588965
0.00658511
0.00704806
0.00693597
0.00655948
0.00621791
0.00610829
0.00660325
0.00767398
0.00928939
0.0112591
0.0135412
0.0161169
0.0184306
0.0208657
0.0225916
0.0239944
0.0248334
0.0248865
0.0242682
0.0232576
0.0215704
0.0194853
0.0166968
0.0134696
0.00994462
0.00671242
0.0046512
0.00436027
0.0102966
0.013562
0.00431378
0.0060213
0.00875402
0.011561
0.0142444
0.0168577
0.0194462
0.0218649
0.0239123
0.0260108
0.027672
0.0285641
0.029057
0.029317
0.0288002
0.0278467
0.0264091
0.0245482
0.0221388
0.0189519
0.0151575
0.0114474
0.00847396
0.00642434
0.005148
0.00421041
0.00362976
0.00393466
0.00530832
0.0100226
0.00453893
0.00526883
0.00559607
0.00561553
0.00549522
0.00531698
0.00520092
0.00528224
0.00584818
0.00691022
0.00846687
0.0103891
0.0126111
0.0148934
0.0173234
0.0193654
0.0213946
0.0227491
0.0238237
0.024053
0.0239941
0.0230731
0.0215494
0.0194567
0.0166478
0.0133202
0.00974932
0.00646729
0.0191573
0.00947763
0.0030356
0.00345989
0.00355382
0.00349379
0.00388222
0.00521208
0.00738807
0.00948056
0.011606
0.0135949
0.0155302
0.017428
0.018536
0.0203356
0.0209285
0.0212363
0.0215231
0.0210746
0.0202744
0.018934
0.0169623
0.0143344
0.0113491
0.0086161
0.00667244
0.00566863
0.00495665
0.00429843
0.0168285
0.0122499
0.00268068
0.00312973
0.00468136
0.0067395
0.00895315
0.0112472
0.0135837
0.0159122
0.0181156
0.0200749
0.0219264
0.0232829
0.0243386
0.0250486
0.0254242
0.0251675
0.0252392
0.0240551
0.0233764
0.0214066
0.0193368
0.0160157
0.0122884
0.00870496
0.00571631
0.00387311
0.00340429
0.00401736
0.00758881
0.0162534
0.00665671
0.00772628
0.00941013
0.011412
0.0136873
0.0160055
0.0183271
0.020473
0.0225036
0.0240093
0.0252433
0.026051
0.0261909
0.0259386
0.0251826
0.0242259
0.0227196
0.0209504
0.0186463
0.0156243
0.0119579
0.00801236
0.00499985
0.00420015
0.00406567
0.00385865
0.00363291
0.00370537
0.00748252
0.0159162
0.00620772
0.00834945
0.0111643
0.0141499
0.0173228
0.0205614
0.023728
0.026677
0.0292923
0.0312984
0.0328294
0.0337554
0.0339663
0.0337233
0.0330028
0.0319998
0.0303118
0.0276725
0.0238921
0.0189651
0.0136987
0.00906853
0.0062398
0.0056887
0.0055187
0.00527113
0.00531555
0.00593532
0.0122197
0.0144076
0.00646078
0.00924651
0.0123053
0.0153627
0.0184786
0.0215675
0.0245344
0.027119
0.0296768
0.0313237
0.0328597
0.0337149
0.0334628
0.0335333
0.0330049
0.0316025
0.0299815
0.0276553
0.0242635
0.019455
0.0137972
0.00855229
0.00639425
0.00659892
0.00662336
0.00652502
0.00666124
0.00746901
0.0116365
0.0112948
0.00309854
0.00455576
0.00585755
0.00692993
0.00771908
0.00833737
0.00856955
0.00863659
0.00848585
0.00814574
0.00750809
0.00687245
0.00624222
0.00599022
0.00605873
0.0066771
0.00742285
0.00867922
0.00974382
0.0112
0.0119169
0.0125612
0.0128911
0.0126595
0.0120205
0.0106594
0.00852692
0.0059714
0.0109071
0.00121633
0.00164921
0.00180815
0.00233146
0.00424608
0.0065289
0.00916511
0.0118301
0.014053
0.0155508
0.0164129
0.0167659
0.0166494
0.0161372
0.0151608
0.0137252
0.0120495
0.0102671
0.0084039
0.00667708
0.00509519
0.0038479
0.0028916
0.00192873
0.00097326
0.000384926
0.000147975
6.31819e-05
2.93908e-05
9.8452e-06
0.00787082
0.00291646
0.00294994
0.00318682
0.00345528
0.00369946
0.00390418
0.00406685
0.00411327
0.00411638
0.00401238
0.0037513
0.00317968
0.00123109
0.00577053
0.00363421
0.00425757
0.00456708
0.00468037
0.00476637
0.00473866
0.00484187
0.00500985
0.00542016
0.00602128
0.00682463
0.0076097
0.00835225
0.00897165
0.0095325
0.00998893
0.0103762
0.0106148
0.0107351
0.0105884
0.0103186
0.00986154
0.00933878
0.00864836
0.00778593
0.00671691
0.00544894
0.00415679
0.0119052
0.00266315
0.00634524
0.00760472
0.00772469
0.00732298
0.00689731
0.00661591
0.00652737
0.00671191
0.00722543
0.0080936
0.0092263
0.0103968
0.0117238
0.0129941
0.0142994
0.0156588
0.0165894
0.0175591
0.0175042
0.0173876
0.0166672
0.0156058
0.014172
0.0124289
0.0103256
0.00803447
0.00592917
0.00433779
0.0093541
0.00458901
0.00673661
0.00659831
0.00628899
0.00615269
0.00647041
0.00726366
0.00849553
0.00993667
0.0113498
0.0126716
0.0139454
0.0154977
0.0168258
0.0187036
0.0199428
0.021165
0.0222075
0.022336
0.0224339
0.0213887
0.0204513
0.0191179
0.0174329
0.0149579
0.0117905
0.00837961
0.00568991
0.00466665
0.0135216
0.00979863
0.00574104
0.00825472
0.010792
0.012743
0.0143976
0.0160306
0.0175796
0.0191642
0.0208659
0.0225249
0.0236523
0.0248613
0.0258641
0.0261942
0.0262197
0.0258519
0.0251429
0.0241172
0.0227484
0.0207276
0.0179012
0.0145186
0.0111044
0.00814669
0.00586427
0.00449216
0.0037362
0.00389676
0.0055331
0.00792972
0.00504917
0.00550127
0.00559429
0.00552027
0.00543925
0.00541245
0.0056235
0.0061651
0.00710508
0.00824188
0.00954756
0.0109885
0.0125947
0.0142066
0.0160168
0.0175295
0.0192692
0.0202493
0.0214637
0.0217178
0.0220055
0.0212109
0.0202948
0.0186958
0.0166728
0.0140286
0.0108969
0.00768907
0.0146455
0.0111063
0.00329338
0.00356695
0.00360377
0.00389536
0.00522431
0.00740165
0.00944608
0.0109717
0.0123318
0.0135923
0.014899
0.0161031
0.0169949
0.0183698
0.0187975
0.0194049
0.0196446
0.0195757
0.0192427
0.0185874
0.0174818
0.0156792
0.013207
0.0103785
0.00779919
0.0061502
0.00532597
0.00467818
0.0191475
0.0148477
0.00303462
0.0040259
0.00599951
0.00795879
0.00981843
0.0116488
0.0134915
0.0153293
0.0171077
0.0188259
0.0203849
0.0215332
0.0226205
0.0232409
0.0238582
0.023442
0.0237909
0.0226465
0.0224792
0.0210031
0.0198204
0.0176426
0.0147337
0.0113665
0.00811399
0.00533824
0.00366543
0.00376122
0.00689303
0.0203676
0.00795257
0.00907478
0.0107153
0.012467
0.014352
0.016009
0.0180847
0.0196196
0.0215059
0.0226965
0.0238421
0.0243443
0.0247404
0.0244449
0.0238121
0.0228945
0.0219883
0.0207189
0.0192926
0.0172527
0.0144262
0.0108462
0.00710609
0.00436802
0.00350413
0.00343753
0.00366552
0.00402848
0.00618674
0.0176939
0.00791694
0.0104941
0.0134993
0.0163796
0.0190695
0.0215112
0.0237272
0.025785
0.0276872
0.0291146
0.0304347
0.0311079
0.031416
0.0312988
0.0308818
0.0301708
0.0289766
0.0273982
0.0249279
0.021327
0.0167384
0.0119805
0.00799423
0.00552391
0.00436427
0.00408196
0.00488327
0.00589473
0.00888269
0.0157514
0.00894924
0.0121357
0.0152254
0.0178533
0.0201878
0.0222229
0.0242254
0.0260599
0.0279413
0.029102
0.0305793
0.0309179
0.0315683
0.0311031
0.0306648
0.0299768
0.0286667
0.0274215
0.0254657
0.0222309
0.017528
0.0120592
0.00749581
0.00576435
0.00517064
0.00519406
0.00628809
0.00797293
0.00807027
0.0112469
0.00421782
0.00578748
0.0071728
0.00843988
0.00941715
0.0101703
0.0105553
0.0107498
0.0106559
0.0103647
0.00982144
0.00922599
0.00856631
0.00822023
0.00797631
0.00808728
0.00804341
0.00823552
0.00827032
0.00889127
0.00930212
0.00996879
0.0105679
0.0108376
0.0109181
0.0103209
0.0088898
0.0067699
0.00727147
0.0015687
0.00188817
0.0018707
0.00365098
0.00642624
0.00898391
0.0114582
0.0136277
0.0152142
0.0162302
0.0168816
0.0172457
0.017265
0.0169499
0.016241
0.0152634
0.0140622
0.012614
0.0109652
0.00903144
0.00692751
0.00489437
0.00322734
0.00169523
0.000701045
0.000254279
0.000103624
5.08489e-05
2.79446e-05
8.01126e-06
0.00920549
0.00327781
0.00330098
0.00350469
0.00368309
0.00375993
0.00379145
0.00382435
0.00387287
0.00395625
0.0040702
0.00410781
0.00386828
0.0011896
0.00840937
0.00441364
0.00462527
0.00462657
0.00458212
0.00463173
0.00480147
0.00519765
0.00571917
0.0064891
0.00737098
0.00822356
0.00885723
0.00917063
0.00925963
0.00917581
0.00913199
0.00904797
0.0090836
0.0090608
0.00909605
0.00897029
0.0088138
0.00854824
0.00820773
0.00769434
0.00696182
0.00591532
0.00468093
0.0134069
0.00215908
0.00732623
0.00783442
0.00723802
0.0064832
0.00613751
0.00625371
0.00673016
0.00741864
0.00839941
0.00945662
0.0104186
0.0112198
0.0117748
0.0122171
0.0125874
0.0130966
0.0135718
0.0143887
0.0145887
0.0151227
0.0146969
0.0143881
0.0135225
0.0124079
0.010861
0.00893175
0.00686327
0.00510714
0.013901
0.00395221
0.00756646
0.00667901
0.00605307
0.00619087
0.00717933
0.00866181
0.0104037
0.0120595
0.0133201
0.0140893
0.0145299
0.0149256
0.0152006
0.0158436
0.0164771
0.0173987
0.0180459
0.0186158
0.0188756
0.0189616
0.0186223
0.0183425
0.0176305
0.0160874
0.0134924
0.0101675
0.00700934
0.00523187
0.0177126
0.00662866
0.00721991
0.00979294
0.0116524
0.0128101
0.0136474
0.014326
0.0149418
0.0159123
0.0167769
0.0176928
0.0186385
0.0199238
0.0206282
0.0213729
0.0217975
0.0221305
0.022328
0.0223237
0.0220745
0.0213605
0.0198066
0.0172272
0.0140315
0.0107682
0.00795743
0.0058842
0.0045797
0.00407163
0.00596396
0.00675825
0.00576043
0.00584554
0.00565858
0.00546426
0.00544317
0.00563383
0.00618533
0.00704325
0.00815706
0.00928138
0.0104326
0.0115646
0.0127021
0.0136132
0.0145228
0.0152199
0.0159461
0.0165885
0.0172911
0.0180968
0.0183265
0.0185858
0.0181738
0.0175386
0.0162982
0.0144438
0.0119121
0.00895475
0.00913347
0.0128521
0.00387272
0.00385747
0.00390951
0.00479774
0.00688893
0.00910284
0.0106286
0.0115687
0.0122934
0.0127756
0.013492
0.0137169
0.0147296
0.0149168
0.0157064
0.0163425
0.016777
0.0170145
0.0171652
0.0173124
0.0170984
0.0161634
0.0142829
0.0116918
0.00893752
0.0067899
0.00571223
0.00516266
0.0205899
0.0163436
0.00340107
0.0049871
0.0070945
0.00889457
0.0104544
0.0118667
0.013152
0.0144055
0.0157013
0.0169527
0.0180525
0.019202
0.020063
0.0207201
0.0211256
0.0212839
0.0214679
0.020895
0.021072
0.0202418
0.0199085
0.0186327
0.0166864
0.0138373
0.010559
0.00731978
0.00481403
0.00397782
0.00713595
0.0182541
0.00888055
0.0102394
0.0119789
0.0135147
0.0148995
0.0159281
0.0174094
0.0183192
0.0195824
0.0207268
0.0214708
0.0222035
0.0223304
0.0224148
0.0219799
0.0213716
0.0207098
0.0202101
0.0195233
0.0184552
0.0165575
0.0136208
0.00996068
0.00641788
0.00389351
0.00321691
0.0036598
0.00409817
0.00551853
0.0190981
0.00911089
0.0121388
0.0154782
0.0183837
0.0205945
0.0220978
0.0231536
0.0239215
0.0247396
0.0254688
0.0262924
0.0268659
0.0274201
0.0276922
0.0276049
0.0274461
0.0269024
0.0262382
0.0249935
0.0227236
0.0192499
0.0149805
0.0108288
0.00750087
0.0048855
0.00367128
0.0047824
0.00575741
0.00769485
0.0087026
0.0111621
0.0144988
0.0173848
0.019377
0.0207423
0.0216863
0.0227821
0.0236523
0.0248721
0.0259663
0.026747
0.0275793
0.0274446
0.0279581
0.0276661
0.0272695
0.0268747
0.0264188
0.0257157
0.0240959
0.0207291
0.01585
0.0108102
0.00699856
0.00463421
0.00419759
0.00582638
0.00811805
0.006308
0.0079264
0.00570558
0.00738118
0.00895542
0.0102392
0.0112743
0.0119211
0.0122863
0.0124874
0.0124439
0.0122469
0.011796
0.0112644
0.0106901
0.01025
0.0100025
0.00997758
0.00954338
0.00895095
0.0078945
0.00710668
0.00685682
0.00714961
0.00814643
0.00898613
0.0097936
0.0100269
0.00926471
0.00754845
0.00565865
0.00227373
0.00204032
0.00274939
0.00567807
0.0085856
0.011139
0.0133979
0.0149767
0.0159279
0.016466
0.0167683
0.0169105
0.016963
0.0167306
0.0162295
0.0157816
0.0151133
0.0143431
0.0129731
0.0111632
0.00871057
0.00618806
0.00393283
0.00190994
0.000611231
0.000201793
9.05939e-05
5.19282e-05
3.48538e-05
8.55109e-06
0.0100142
0.00353176
0.00364098
0.00386484
0.00395985
0.00385337
0.00360689
0.00345253
0.00350056
0.00373764
0.00410281
0.00445426
0.00463348
0.00115189
0.0121144
0.00534162
0.00512072
0.00474786
0.00448357
0.00450557
0.00492471
0.00559968
0.00649547
0.00751044
0.00860772
0.0094716
0.00987755
0.00969836
0.00926985
0.00858985
0.0079741
0.00746569
0.00712269
0.00705098
0.00716286
0.00739082
0.00754623
0.00765756
0.00760672
0.00743167
0.00701332
0.00620472
0.00507584
0.00926791
0.00198007
0.00856554
0.00829379
0.00694695
0.00584562
0.00559152
0.00606275
0.00701596
0.00812386
0.00935309
0.0105358
0.0113675
0.0117269
0.0117803
0.0114057
0.010944
0.010431
0.0100917
0.0103556
0.0107908
0.0117756
0.0121774
0.012592
0.0123821
0.0119186
0.0108771
0.00934245
0.00744119
0.00568636
0.0199874
0.00364247
0.00870129
0.00706924
0.00611091
0.00651143
0.00802784
0.0100213
0.0121399
0.0140288
0.0152502
0.0157598
0.0155981
0.0151032
0.014082
0.0135226
0.012864
0.0128186
0.0132684
0.0140319
0.0151527
0.0158932
0.0166851
0.0171168
0.0173155
0.0165527
0.014533
0.0113401
0.00793371
0.00576419
0.0248343
0.00614159
0.00801713
0.0105548
0.0121447
0.0130572
0.0134365
0.013581
0.0137275
0.0136718
0.013359
0.0135372
0.0138603
0.0141882
0.0147981
0.0156703
0.0167591
0.0177768
0.0186806
0.0196422
0.0204362
0.020884
0.0204613
0.0188822
0.0161931
0.0129718
0.00980489
0.007309
0.0054795
0.00445005
0.00663429
0.00613967
0.0065507
0.00622593
0.00569953
0.00540938
0.00548279
0.00589717
0.00668211
0.00773135
0.00893635
0.0101333
0.0113017
0.0123374
0.0131593
0.0135147
0.0135157
0.012957
0.0124437
0.0120142
0.0122566
0.0131089
0.0143799
0.0151148
0.0157967
0.0158023
0.0154852
0.0144547
0.0126185
0.0100518
0.00689928
0.0123684
0.00449923
0.00420069
0.00444962
0.00605053
0.00833784
0.0103193
0.0114625
0.011964
0.0121698
0.0120538
0.0120383
0.0119015
0.0122105
0.0117277
0.0121599
0.0123374
0.0128551
0.0136705
0.0145324
0.0153137
0.0158581
0.0158156
0.0145694
0.0122612
0.00951732
0.00721648
0.00602187
0.00563924
0.0216202
0.0142855
0.00378499
0.00585396
0.00798456
0.00974555
0.0112058
0.0123047
0.013115
0.0138365
0.0143943
0.0148611
0.0155777
0.0161914
0.0167955
0.0173965
0.0181233
0.0181831
0.0189614
0.0185988
0.0191842
0.0189789
0.0192983
0.0188568
0.0177455
0.0155036
0.0123864
0.00896103
0.00604224
0.00444513
0.00888838
0.0150767
0.00944851
0.0112461
0.0131654
0.0145265
0.0154195
0.0158691
0.0164647
0.0165503
0.0172861
0.0178062
0.0185676
0.0190721
0.0195783
0.0195518
0.019738
0.0195807
0.0192859
0.0192327
0.019315
0.019089
0.0181104
0.0158487
0.0124825
0.00875704
0.00525332
0.0034484
0.00377755
0.004103
0.00570518
0.02111
0.00983516
0.0134412
0.0171528
0.0201853
0.0220301
0.0226693
0.022316
0.0215603
0.0210923
0.0206496
0.0206815
0.020906
0.0214635
0.0222201
0.022961
0.0237027
0.0239453
0.0243008
0.0240825
0.0230683
0.0206835
0.0171973
0.0132706
0.00964527
0.00641578
0.0045038
0.00511574
0.00561839
0.0079373
0.00717462
0.012821
0.0162519
0.0188706
0.0201965
0.0207435
0.0208989
0.0208703
0.0209213
0.0214381
0.0217511
0.02279
0.0230503
0.0238844
0.0236893
0.0236996
0.0240841
0.0241745
0.0250398
0.0250339
0.0249412
0.022858
0.0188497
0.0138767
0.00930087
0.00563293
0.00411163
0.00554642
0.00802021
0.00537037
0.00708315
0.0072267
0.00904033
0.010626
0.0119131
0.0127019
0.0132349
0.0134941
0.0136786
0.0137507
0.0136313
0.0133475
0.0128689
0.0122498
0.011784
0.0116804
0.0115579
0.011109
0.0103207
0.0087132
0.00663343
0.00498855
0.00468372
0.00599226
0.00747825
0.00891265
0.00977145
0.00955009
0.00819142
0.00470785
0.00318752
0.00229516
0.00413563
0.00736798
0.0102695
0.0128178
0.0146651
0.0156894
0.0159836
0.0159203
0.0157453
0.0155326
0.0152724
0.0151782
0.015254
0.0151738
0.0154009
0.015042
0.01441
0.0127351
0.0102876
0.00736809
0.00468678
0.00243934
0.000749944
0.000214262
9.72745e-05
6.1973e-05
4.94549e-05
1.06918e-05
0.0104639
0.00371731
0.0039576
0.00420728
0.00425642
0.00397469
0.00347085
0.00309897
0.00317684
0.0036169
0.00423892
0.00486102
0.00552257
0.00113221
0.0144617
0.00628716
0.0055978
0.00477497
0.00425177
0.00436076
0.0050171
0.00598084
0.00713167
0.00845307
0.00974938
0.0104774
0.0106564
0.0100615
0.00922719
0.00813052
0.00713697
0.00614805
0.0054933
0.00525722
0.00557569
0.00603188
0.00652291
0.00687552
0.00707559
0.00710705
0.00690802
0.00629405
0.00530611
0.00744252
0.001954
0.00986071
0.00882855
0.00683986
0.00543755
0.00513362
0.00592772
0.0072342
0.00862914
0.0101307
0.0113602
0.0121099
0.0123578
0.0120479
0.0113527
0.0102111
0.00894741
0.00766804
0.00696075
0.00713052
0.00843
0.00954593
0.010623
0.0110414
0.011066
0.0104789
0.00934363
0.00770608
0.00606936
0.0205581
0.00347809
0.0100462
0.0077106
0.00641762
0.00697481
0.00879039
0.011152
0.0136443
0.0157844
0.0171791
0.0176172
0.0172704
0.0160127
0.0142674
0.0124379
0.0105467
0.00917247
0.0085782
0.00966071
0.0113465
0.0132063
0.0146521
0.0158625
0.0166803
0.016582
0.0150007
0.0118297
0.00828679
0.00601922
0.0255403
0.00790117
0.00856938
0.0112793
0.0130099
0.0138439
0.0141673
0.0143697
0.0140283
0.0131873
0.0123134
0.0114239
0.0101422
0.0094796
0.00938283
0.0101642
0.0115234
0.0131389
0.0147401
0.0163986
0.0179554
0.0192372
0.0198611
0.0191238
0.0171617
0.0142041
0.011119
0.00839169
0.00633016
0.00483903
0.00804348
0.00587614
0.0073959
0.00656964
0.00570979
0.00534624
0.00553384
0.00612242
0.00703603
0.00821819
0.00951372
0.0108286
0.0121143
0.0131841
0.0138438
0.0138994
0.0133
0.0118801
0.00997478
0.00804252
0.00722261
0.00833988
0.0103457
0.0121772
0.0134201
0.0142903
0.0145773
0.0142523
0.0130951
0.0109921
0.00561256
0.00958222
0.00520656
0.00470887
0.00525732
0.00730785
0.00964995
0.0114471
0.0123603
0.0124692
0.0123265
0.0117499
0.0116607
0.0111145
0.0104727
0.00917144
0.00844476
0.00785695
0.0089129
0.0104284
0.011997
0.0135129
0.0146513
0.0151065
0.0143105
0.0123059
0.00965054
0.0073667
0.00629521
0.00610919
0.0206998
0.0100027
0.00441389
0.00664656
0.00881472
0.0107113
0.0121804
0.0131018
0.0136263
0.0137456
0.0134538
0.0132889
0.0130357
0.0127549
0.0130063
0.0134027
0.0140697
0.0146992
0.0157608
0.0160749
0.0170799
0.0174143
0.018317
0.0185121
0.0180893
0.0163886
0.0135443
0.0100498
0.00683277
0.0048004
0.0146007
0.0138114
0.00971972
0.0120793
0.0142596
0.0154906
0.0160755
0.0159479
0.0155951
0.0149007
0.0147087
0.0142507
0.0143129
0.0147606
0.0155117
0.0164161
0.0168385
0.0174045
0.0177228
0.0181829
0.0188297
0.0192752
0.019042
0.0174314
0.0144204
0.0106272
0.0067819
0.00420685
0.00406694
0.00411146
0.00683416
0.0242727
0.0103201
0.0145329
0.0187537
0.0219342
0.0233972
0.0232708
0.0216771
0.0196212
0.0176033
0.0158275
0.0149582
0.0147652
0.0155627
0.0169646
0.0182576
0.0195938
0.0207578
0.021958
0.0225724
0.0225387
0.0210883
0.0182924
0.0146969
0.0110786
0.00779836
0.00574295
0.00567632
0.00555459
0.0102953
0.00814666
0.0137688
0.0172735
0.0197689
0.0207643
0.0208383
0.0202217
0.0194023
0.0188706
0.0183386
0.0180012
0.0178079
0.0179853
0.018168
0.0195514
0.0202164
0.0209549
0.0214469
0.0230631
0.0241418
0.0249871
0.024133
0.0209353
0.0161667
0.0113368
0.0070791
0.00480079
0.00546309
0.00775289
0.00490355
0.00698445
0.00876746
0.0105859
0.0121548
0.0131188
0.0136574
0.0138197
0.0139567
0.0141098
0.0142839
0.0144387
0.0144769
0.0140219
0.0133488
0.0127594
0.0125781
0.0125811
0.0124615
0.011471
0.0101054
0.00783687
0.00530126
0.00377316
0.00487855
0.00662619
0.00849336
0.00968952
0.00973352
0.00863439
0.00395482
0.00482217
0.00277604
0.00521283
0.0086316
0.0115853
0.0140407
0.0154648
0.0159109
0.0155387
0.0148799
0.0140254
0.0131852
0.0126385
0.0126091
0.0131894
0.0140137
0.014823
0.0151562
0.0150405
0.0138456
0.0114655
0.00832568
0.00530681
0.00298268
0.00100632
0.000257272
0.000116381
8.17076e-05
7.77858e-05
1.60062e-05
0.0107547
0.00381368
0.00419755
0.0045112
0.00454621
0.00417614
0.00351604
0.00296603
0.00305395
0.00366224
0.00444561
0.00527793
0.00644769
0.00112028
0.0167183
0.00731659
0.00608961
0.00488337
0.00411678
0.00422488
0.00510579
0.00633835
0.00773791
0.00927594
0.0106269
0.0113528
0.0112741
0.0104677
0.00947645
0.00819962
0.00710229
0.00591095
0.00506918
0.00479966
0.00516174
0.00575946
0.00627109
0.00666361
0.00688716
0.00694198
0.00677525
0.00625057
0.00546157
0.00660118
0.00204593
0.0110942
0.00934342
0.00684203
0.00518237
0.00477075
0.00571264
0.00729486
0.00887849
0.0105465
0.0119426
0.0127778
0.0129523
0.0127818
0.0118735
0.0106711
0.00911229
0.00737957
0.00586953
0.00528595
0.00637004
0.0077841
0.00918453
0.00993987
0.0101775
0.00989528
0.00905252
0.00766995
0.0062319
0.0203356
0.00345547
0.0115227
0.008568
0.00692143
0.00749401
0.00936115
0.0119375
0.0147458
0.0172272
0.0188761
0.0195814
0.0190502
0.0177705
0.0155919
0.0133276
0.0104021
0.00767156
0.00562064
0.00622648
0.00875071
0.0113635
0.0135325
0.0150787
0.0163382
0.0164591
0.0150094
0.0117871
0.00818661
0.00603727
0.0255285
0.0129532
0.00948402
0.0123221
0.0141077
0.0151343
0.015749
0.0157081
0.0151453
0.0143729
0.0132849
0.0116678
0.0098779
0.00803266
0.00605782
0.00534272
0.00689151
0.00904448
0.0112407
0.0135341
0.0154681
0.0175027
0.0184419
0.0185257
0.0170636
0.0146032
0.0116044
0.00893968
0.00675847
0.00509805
0.010515
0.00569925
0.00828622
0.00691381
0.00575504
0.00532026
0.00557856
0.00623108
0.00720127
0.00846709
0.00988042
0.0113422
0.0127594
0.0138531
0.0144714
0.0143563
0.013675
0.0120178
0.00971779
0.00685751
0.0047185
0.00544478
0.00783913
0.0101117
0.0120049
0.0132139
0.0140708
0.0141611
0.0133833
0.0115685
0.00453246
0.00857745
0.00601113
0.00533117
0.00620515
0.00852646
0.0109211
0.0126388
0.0133262
0.0133053
0.0129032
0.0123928
0.0122892
0.0115917
0.0105286
0.00864305
0.00644569
0.00446526
0.00574619
0.00806855
0.0104065
0.0123149
0.0139347
0.0146203
0.0139971
0.0120805
0.00948918
0.00739948
0.00669696
0.00654554
0.0159246
0.00710223
0.00512463
0.00751143
0.00981036
0.01182
0.0133535
0.0143087
0.0145251
0.014179
0.013484
0.0124601
0.0110706
0.00998091
0.00917956
0.00882626
0.00965343
0.0107657
0.0124417
0.0135242
0.0150605
0.015861
0.0172535
0.017933
0.0179945
0.0166852
0.0140633
0.010506
0.00714963
0.00494293
0.0183427
0.0141655
0.0100472
0.0128254
0.0153133
0.0164622
0.017029
0.0162843
0.0153909
0.0139026
0.0125075
0.0110716
0.0103101
0.00999208
0.0108782
0.0125155
0.0139136
0.0151512
0.0162235
0.0172363
0.0181623
0.0192599
0.0197123
0.0185889
0.0157128
0.0118899
0.00785934
0.00502268
0.00445375
0.00410583
0.0104006
0.0295113
0.0109875
0.0154415
0.0198902
0.0232636
0.0246905
0.0240112
0.0217968
0.0186804
0.0156488
0.0125174
0.0101991
0.00895386
0.00967095
0.0116685
0.0137796
0.0161089
0.017853
0.0197786
0.0209667
0.0216155
0.0208778
0.0187009
0.0153921
0.0118153
0.00840061
0.0063847
0.00591798
0.00527919
0.017267
0.0113102
0.0143185
0.0181919
0.0206472
0.0214742
0.0210771
0.0202007
0.0188048
0.0177419
0.0159479
0.0141144
0.012629
0.0115914
0.0123467
0.0138911
0.0156952
0.0179916
0.0191389
0.0213717
0.0229479
0.024676
0.0246489
0.0220867
0.0175834
0.0125575
0.00824411
0.005592
0.00558915
0.00730967
0.00480442
0.00718546
0.010272
0.0120253
0.0133328
0.0139536
0.013907
0.0136751
0.0134015
0.013485
0.0138288
0.0144494
0.0149371
0.0148028
0.0141374
0.0130442
0.0127551
0.0129606
0.0130352
0.0123267
0.0112454
0.00931383
0.00729731
0.00547953
0.00559772
0.00701296
0.00861636
0.00973709
0.00977682
0.00888009
0.00353177
0.00847866
0.0031915
0.0059154
0.0094658
0.012511
0.0147893
0.0158621
0.0157535
0.0148083
0.0135528
0.0118954
0.0103325
0.00932948
0.00954996
0.0107862
0.0121842
0.0139675
0.0147786
0.0153174
0.0143915
0.0121898
0.00900204
0.00576207
0.00332861
0.00140502
0.000367322
0.000174309
0.000143034
0.000173225
5.29961e-05
0.0108219
0.00382914
0.0043479
0.00474438
0.00480113
0.00445209
0.00378834
0.00323344
0.00333932
0.0039867
0.00484107
0.00587904
0.00776158
0.00123991
0.0186828
0.0081606
0.00643269
0.0047917
0.00384378
0.00405289
0.00512234
0.00651027
0.00812087
0.00987742
0.0113803
0.0120535
0.011948
0.0110568
0.0102276
0.00907842
0.00819254
0.00733966
0.00675618
0.00655823
0.00680421
0.00706445
0.007237
0.00724258
0.00716724
0.00696488
0.00662435
0.0060738
0.00557755
0.00668962
0.00213369
0.0122823
0.00977932
0.00689282
0.00494106
0.00439675
0.00540302
0.0070787
0.00886746
0.0107107
0.0123026
0.0133091
0.0137554
0.013658
0.0130268
0.0120032
0.010675
0.00919631
0.00771794
0.0067241
0.00692707
0.00779428
0.00879893
0.00939504
0.00959205
0.00937728
0.00866694
0.00744691
0.00628535
0.0197028
0.00338253
0.0132592
0.0093337
0.00719636
0.00760714
0.00951616
0.0121924
0.0152711
0.0182074
0.0203096
0.0211352
0.0209499
0.0197978
0.0177172
0.0154692
0.0127695
0.00983574
0.00721378
0.00650482
0.0086942
0.0114864
0.0136604
0.0153566
0.0165457
0.0164543
0.0146694
0.0111945
0.0077137
0.00605387
0.0250327
0.022608
0.0113167
0.0139796
0.0158673
0.0169833
0.0172397
0.0171376
0.0168486
0.0160238
0.0148741
0.013763
0.0120335
0.0101101
0.00797217
0.00592447
0.00564351
0.00718692
0.00917302
0.0114575
0.0134715
0.0156266
0.0169243
0.0172366
0.0162956
0.0141487
0.0115029
0.00895981
0.00686802
0.00519693
0.0153348
0.0057179
0.00919066
0.00720546
0.00572402
0.00525166
0.00551192
0.00621555
0.00718589
0.00848315
0.0100083
0.0115562
0.013039
0.0142086
0.0148034
0.0147915
0.0140861
0.0128983
0.0110542
0.0088091
0.00681825
0.00649521
0.00797441
0.00991697
0.0116361
0.0130097
0.0138652
0.0141374
0.0136149
0.0120213
0.00397164
0.00835213
0.00686982
0.00583791
0.00705907
0.00961539
0.0120606
0.0137503
0.0144436
0.0144297
0.0139536
0.0137534
0.0134865
0.0131324
0.0122664
0.0105313
0.00874708
0.00677545
0.00704989
0.00874131
0.010918
0.0126532