/*--------------------------------*- C++ -*----------------------------------*\
| =========                 |                                                 |
| \\      /  F ield         | OpenFOAM: The Open Source CFD Toolbox           |
|  \\    /   O peration     | Version:  2.1.1                                 |
|   \\  /    A nd           | Web:      www.OpenFOAM.org                      |
|    \\/     M anipulation  |                                                 |
\*---------------------------------------------------------------------------*/
FoamFile
{
    version     2.0;
    format      ascii;
    class       volScalarField;
    location    "0.005500000";
    object      Tu;
}
// * * * * * * * * * * * * * * * * * * * * * * * * * * * * * * * * * * * * * //

dimensions      [0 0 0 1 0 0 0];

internalField   nonuniform List<scalar> 
12384
(
956.265
915.102
881.801
867.513
856.896
856.365
859.547
854.723
859.91
862.221
874.153
918.395
1047.58
942.795
488.491
447.995
430.016
455.587
470.004
492.871
490.603
510.654
510.555
533.446
536.393
559.286
567.283
579.663
584.032
588.5
584.116
583.083
570.734
567.142
549.408
545.587
529.998
519.96
502.376
484.354
467.291
460.303
469.538
479.961
384.533
397.997
409.868
419.391
426.343
426.55
433.841
431.999
443.163
444.756
449.281
456.242
453.664
458.962
454.281
453.703
457.147
455.517
451.714
473.3
464.893
482.92
480.414
489.18
488.992
480.319
487.002
496.429
508.317
514.433
397.72
444.872
467.379
461.363
455.702
444.016
435.128
430.129
428.295
426.271
421.789
414.539
411.706
392.263
399.035
387.508
384.307
407.178
403.132
429.89
443.045
452.537
465.097
472.434
452.426
401.669
388.806
391.651
387.651
382.757
408.41
416.76
424.505
434.039
442.695
448.563
449.584
446.618
443.768
434.535
427.183
410.273
412.388
403.215
391.709
388.999
383.873
383.187
381.681
382.634
381.794
378.748
394.287
423.207
446.233
446.804
440.884
429.049
430.669
430.75
383.826
436.021
432.892
426.095
415.802
413.576
409.385
408.917
410.335
411.412
413.716
416.883
419.954
423.745
421.356
427.871
414.842
421.967
412.204
427.469
417.411
437.501
440.273
443.483
440.282
430.736
436.346
470.225
484.14
471.287
357.996
344.547
303.488
286.99
290.588
323.709
344.633
357.827
365.517
362.293
355.093
343.101
329.844
308.113
308.08
286.512
290.733
283.268
292.963
300.572
309.058
315.514
309.334
291.533
279.38
277.97
284.107
289.554
292.868
293.699
334.397
336.282
344.157
350.235
358.351
366.193
371.045
372.491
370.389
367.144
362.616
355.655
345.932
349.495
339.257
348.246
336.316
363.767
357.35
388.232
389.36
412.821
421.995
431.479
447.99
471.504
474.69
473.095
471.138
471.759
390.415
400.291
404.204
405.456
402.727
393.994
388.301
374.945
372.614
356.149
360.264
357.956
357.287
363.559
361.625
371.357
373.356
379.065
384.964
391.883
390.354
372.498
363.635
354.519
351.515
344.029
344.726
342.076
336.364
335.865
531.927
507.148
479.186
471.064
466.082
459.63
449.805
437.444
421.358
404.047
388.286
375.203
360.337
361.902
355.976
355.814
370.753
388.64
411.24
430.703
446.198
463.847
464.369
437.029
420.331
415.781
413.271
410.568
409.133
406.291
349.431
371.655
383.976
386.42
382.666
374.138
361.218
350.149
331.788
323.149
302.723
307.189
282.937
288.829
283.279
298.476
315.652
334.668
353.796
371.236
385.475
389.012
384.092
381.684
378.863
377.085
382.407
385.044
388.955
388.71
270
270
270
270
274.211
299.905
327.176
330.829
343.038
345.176
352.984
353.683
354.976
351.613
348.816
336.249
340.945
315.284
324.379
290.601
302.482
272.074
282.262
270
270
270
270.066
270
270
270
270
270
270
270
270
270
359.712
402.14
395.927
390.08
385.266
383.291
381.629
387.598
384.816
393.387
393.018
398.107
404.206
406.385
410.977
417.507
416.08
419.821
407.25
391.14
364.49
348.457
270
315.129
813.1
808.931
817.039
836.45
865.497
880.812
894.813
888.284
879.103
859.968
850.924
871.88
991.521
969.885
477.651
443.488
451.531
491.975
505.675
519.756
514.897
533.635
539.005
567.926
585.606
611.437
626.66
639.165
642.23
645.83
644.85
644.322
640.435
637.181
628.305
615.27
596.334
569.356
539.699
508.99
482.651
465.898
465.001
481.016
387.648
397.348
412.434
422.163
430.563
434.554
445.791
453.999
469.741
479.232
487.971
484.994
481.299
475.513
469.027
463.434
465.668
459.709
472.362
478.384
483.19
499.35
500.618
502.978
500.446
490.813
483.662
489.663
499.974
511.86
401.439
451.079
463.741
445.449
423.311
409.632
401.307
403.724
403.181
403.563
400.595
395.599
390.554
377.542
376.285
371.13
375.989
383.202
397.255
405.662
420.999
429.423
442.758
453.226
462.42
428.275
392.184
377.792
379.14
378.073
407.597
418.922
447.039
472.941
494.851
504.575
507.03
505.882
497.277
483.034
480.106
474.781
457.548
452.001
452.883
447.421
441.196
430.5
417.954
405.086
394.204
385.221
386.627
406.015
426.627
431.307
422.345
416.058
415.017
416.392
400.673
432.492
422.699
408.038
402.297
401.138
403.349
408.451
415.746
428.16
443.064
458.286
470.866
481.819
484.821
490.433
485.84
491.312
489.352
491.627
494.132
494.589
492.963
475.551
463.135
443.225
434.865
446.351
473
485.099
354.556
325.71
300.733
319.804
355.056
387.454
387.503
382.669
372.942
359.052
343.403
326.028
318.45
280.534
293.458
270
270
270
272.36
283.417
293.555
302.477
308.115
302.262
285.009
279.023
279.365
280.718
283.7
289.691
362.208
374.394
380.843
385.028
389.433
394.678
398.629
399.712
398.437
393.376
384.374
381.251
371.355
364.694
360.964
361.617
359.78
375.568
374.151
394.172
396.172
413.192
419.948
430.255
438.797
448.133
438.681
436.014
439.62
448.306
425.537
428.583
432.58
433.716
428.211
423.199
409.469
399.012
386.255
383.132
373.306
371.757
374.989
373.938
376.119
374.972
380.252
376.618
378.597
382.351
386.09
378.332
368.402
363.146
369.775
371.424
370.816
368.441
355.118
344.976
483.225
454.917
447.489
448.901
451.034
450.005
444.363
433.105
418.64
402.709
383.825
368.826
356.151
347.728
343.161
343.217
356.174
373.687
390.606
409.977
429.087
449.793
466.042
445.265
415.578
413.279
417.476
421.923
416.326
406.743
376.748
390.902
391.154
384.047
373.405
361.248
350.195
335.774
319.333
310.675
292.225
285.186
279.246
270
271.233
282.741
292.043
308.151
327.012
346.787
369.029
386.646
389.329
381.461
373.976
371.104
373.617
376.443
378.557
380.233
270
270
270
277.386
309.693
322.583
329.008
324.88
329.254
328.494
335.105
334.801
339.937
336.609
343.054
332.944
342.561
319.851
328.303
296.02
311.47
278.456
279.94
277.043
270
270
270
270
270
270
270
270
270
270
270
270
386.28
396.858
389.62
385.948
384.043
384.098
385.833
388.037
391.561
391.855
394.208
397.342
399.3
407.342
416.063
423.507
427.255
426.534
414.711
385.91
364.929
347.957
275.489
303.717
800.802
820.187
873.258
926.483
952.097
961.997
967.623
964.996
954.944
924.823
877.833
855.39
934.113
985.159
466.453
446.488
483.695
520.119
521.36
526.808
522.957
543.609
555.077
584.024
606.761
628.125
635.714
640.989
642.018
645.776
645.691
649.304
647.246
650.676
649.943
653.326
643.6
623.531
587.769
547.158
508.244
479.04
467.173
477.569
389.173
397.186
413.927
421.492
425.139
431.723
447.735
464.067
487.12
492.067
492.652
481.216
466.244
457.006
445.524
439.727
444.163
440.005
451.707
450.867
469.908
486.727
501.367
507.49
509.279
502.123
487.281
484.907
491.309
502.426
403.906
450.883
456.025
428.189
404.352
397.137
396.951
400.3
399.946
401.092
399.376
394.761
394.663
383.359
389.668
380.564
385.823
391.122
396.83
408.529
405.989
410.593
414.386
428.85
447.281
443.655
417.31
395.106
386.065
379.44
413.185
451.855
497.256
519.179
525.119
523.869
522.691
513.821
503.007
499.301
494.534
478.118
474.006
475.703
469.809
468.422
465.877
460.805
450.297
434.549
415.736
396.827
384.995
386.737
403.397
409.753
414.152
411.063
413.16
413.409
407.435
425.486
409.577
401.413
400.677
406.986
411.921
419.766
432.878
454.22
476.31
492.86
500.95
504.964
502.452
507.408
505.286
515.675
511.886
523.353
525.137
536.874
529.547
517.311
490.101
462.832
439.337
434.965
455.662
483.079
345.832
316.07
321.537
370.181
395.163
388.232
377.719
366.68
352.186
336.683
318.807
310.195
298.437
278.24
293.91
270
270
270
272.533
278.321
285.089
292.434
298.922
302.833
297.712
286.725
277.952
278.452
279.697
285.154
371.201
380.875
384.917
392.932
401.92
409.687
413.002
412.122
406.663
398.294
391.558
385.013
372.216
369.996
364.769
369.328
363.015
385.259
377.987
404.761
399.428
413.365
418.204
424.466
430.421
433.563
427.591
421.131
425.444
439.558
432.032
442.041
450.564
447.634
438.986
431.878
407.812
406.775
388.021
390.386
378.94
380.418
377.309
384.484
385.612
384.278
382.395
385.587
378.828
375.822
376.685
376.477
369.258
366.978
377.855
387.776
386.49
383.491
374.69
358.578
443.04
440.439
447.824
454.465
455.559
452.609
444.973
432.257
417.567
403.337
384.91
374.319
359.797
349.457
344.646
345.477
353.338
363.273
377.84
391.407
408.191
427.262
452.07
451.494
416.502
410.683
423.865
429.365
423.702
416.91
396.741
395.1
383.206
370.851
362.488
356.992
348.479
339.092
328.455
319.366
303.611
297.755
282.318
280.739
270.939
275.727
287.361
292.963
307.664
323.82
343.545
368.575
385.406
383.354
371.492
373.056
375.191
376.827
374.476
374.988
270
270
286.666
306.119
322.71
315.38
316.373
313.958
318.559
321.174
323.958
324.01
324.873
320.035
328.483
317.777
331.665
312.172
323.564
288.543
302.705
270
271.794
273.802
270
270
270
270
270
270
270
270
270
270
270
346.244
394.449
392.075
390.333
394.025
400.15
405.73
408.248
408.612
411.069
410.356
410.169
402.782
404.122
406.707
419.305
426.594
429.432
421.137
393.94
367.468
355.354
349.064
287.694
304.897
806.005
862.211
929.924
952.514
938.971
925.672
937.485
954.685
967.061
966.672
931.652
871.662
905.637
983.039
467.681
459.963
506.642
532.784
529.618
537.157
540.633
561.111
572.243
601.15
618.494
628.569
629.235
633.678
640.842
651.295
659.727
664.787
667.988
666.534
669.249
669.869
670.823
657.817
628.49
583.738
535.987
495.574
472.069
476.107
388.134
397.639
412.018
412.493
413.451
421.074
446.255
474.672
493.069
496.541
482.743
460.952
451.318
444.089
442.342
439.849
441.814
439.367
449.242
442.138
463.868
466.098
490.79
503.307
509.862
508.663
496.17
484.504
485.729
494.565
403.26
450.351
445.981
413.694
399.312
397.046
396.367
397.677
395.102
397.701
394.578
395.604
394.314
392.542
393.644
394.359
403.825
403.016
414.515
410.635
415.469
400.066
401.132
408.68
428.027
441.784
435.774
417.085
403.201
387.745
429.784
499.586
523.152
518.559
509.466
505.443
494.735
482.305
484.942
477.106
466.099
462.263
473.81
466.318
469.557
470.462
475.39
476.87
471.671
457.814
438.094
414.983
391.882
381.772
385.314
395.711
399.377
406.672
408.478
411.579
411.18
417.211
402.214
402.473
407.122
413.144
415.561
424.391
442.481
470.081
488.965
495.483
489.649
481.914
476.669
484.9
495.766
507.065
517.268
529.228
548.681
542.445
552.348
533.976
517.21
483.971
450.982
431.531
444.432
476.971
339.464
322.407
352.635
396.333
389.083
380.196
372.724
358.101
336.551
322.088
308.444
322.473
308.645
341.564
323.585
334.254
336.361
326.882
311.905
296.319
291.35
291.629
295.038
298.984
302.423
299.11
283.381
273.737
275.628
280.649
374.833
381.969
391.848
405.974
415.964
418.148
416.341
408.179
397.513
390.203
380.168
366.667
364.082
358.066
354.817
355.205
363.699
377.195
379.502
404.883
402.865
418.545
418.319
421.835
425.499
427.134
423.501
419.031
421.442
436.862
445.474
458.955
458.306
449.716
434.463
422.447
399.951
403.757
383.003
379.469
380.208
377.273
383.666
380.352
389.33
390.358
388.224
384.55
385.103
376.906
371.793
370.989
369.34
367.178
378.989
390.892
393.355
387.389
381.864
364.313
429.397
443.528
453.845
457.095
451.683
440.492
423.964
409.345
393.572
382.624
371.807
366.296
357.815
353.99
348.543
343.96
350.208
355.743
367.5
378.088
389.905
406.329
428.817
443.706
426.092
411.345
418.935
429.964
431.564
420.45
401.139
387.728
372.156
364.385
361.927
358.37
351.521
347.703
331.474
321.668
310.096
296.805
293.709
276.561
283.099
280.117
283.832
291.997
297.117
306.099
323.632
348.34
374.087
381.456
373.57
373.952
380.287
378.565
372.865
370.292
270
276.629
303.562
320.405
316.221
316.671
320.611
328.001
336.75
338.431
336.475
326.024
317.795
309.782
304.073
297.828
317.263
301.29
314.679
285.854
279.393
270
270
270
270
270
270
270
270
270
274.733
306.791
274.127
270
290.957
383.88
397.67
393.755
400.91
411.826
419.507
423.596
428.814
429.916
425.808
426.786
422.752
418.648
407.538
407.737
414.923
429.357
428.423
401.561
359.605
341.883
352.444
352.654
291.744
303.591
821.065
889.826
934.909
889.204
827.529
815.09
848.007
899.587
937.967
961.998
949.281
887.936
892.499
977.782
455.008
471.264
528.192
553.406
558.058
565.381
575
582.431
596.723
611.368
619.831
623.454
626.702
642.107
667.827
685.687
697.113
709.365
709.199
711.814
698.388
697.76
690.618
682.971
655.401
612.005
559.433
511.598
479.99
477.243
387.094
397.576
407.021
401.711
400.364
414.96
446.664
481.633
501.454
488.958
470.639
453.335
448.06
449.432
449.165
450.62
449.221
443.813
453.883
444.105
459.542
458.73
481.186
493.17
508.966
511.332
502.537
486.524
482.474
490.459
403.29
446.75
436.554
406.774
397.344
396.534
393.962
390.538
390.838
392.368
391.228
396.217
397.317
394.793
401.356
397.886
405.162
412.025
418.511
416.573
413.309
404.551
395.803
400.238
415.679
436.85
443.762
432.491
415.921
393.606
460.272
515.407
505.625
492.204
485.301
475.439
463.44
470.864
468.04
454.915
467.764
478.549
470.518
467.302
470.151
477.953
481.709
482.46
482.708
476.011
462.465
436.741
410.537
389.246
380.739
380.363
388.269
392.102
402.71
407.233
405.661
409.93
402.357
406.769
412.897
412.944
414.149
424.692
446.794
472.439
483.178
471.476
454.549
445.648
449.961
468.497
486.417
508.882
523.935
539.63
548.535
560.895
549.637
545.761
524.626
496.71
460.345
431.03
434.866
470.339
335.883
335.893
383.578
394.428
385.444
386.312
368.082
336.528
314.401
316.184
325.335
351.415
365.234
395.893
362.532
383.655
371.163
359.202
352.587
333.667
308.214
292.686
295.31
299.817
304.274
306.069
294.333
270.438
271.072
275.677
376.878
385.99
404.738
414.871
417.579
415.21
406.586
395.581
389.298
380.012
365.848
366.066
356.577
349.118
347.688
353.954
349.578
374.661
372.789
400.928
404.648
419.722
418.807
419.128
421.37
422.593
421.281
419.026
419.078
433.43
459.415
465.718
457.694
442.618
424.312
410.592
397.279
396.387
375.474
383.35
378.795
384.982
386.788
391.749
383.403
393.891
395.666
388.517
385.882
382.012
373.087
369.855
368.58
368.007
378.718
385.146
387.458
390.283
391.39
379.404
436.587
455.745
460.601
449.563
434.37
416.375
396.4
378.944
365.531
365.535
355.523
350.45
342.44
334.716
331.005
331.8
340.259
344.388
358.44
367.211
377.926
389.387
410.604
435.011
433.365
409.522
411.501
426.793
425.32
414.685
394.601
375.492
366.42
363.944
360.345
351.488
344.852
327.618
313.964
307.022
296.727
302.536
296.115
301.627
283.934
274.698
281.312
283.711
299.369
292.85
308.541
328.78
359.561
378.546
375.997
373.794
380.266
382.141
373.255
368.072
270
290.391
317.935
321.202
323.013
330.116
349.463
364.131
374.356
377.982
371.072
355.865
335.876
307.647
291.628
288.284
295.506
290.314
311.751
287.787
270
270
270
270
270
270
270
270
270
270
286.859
337.247
280.403
270
347.758
396.554
396.574
402.562
414.05
423.515
430.073
434.368
434.227
436.415
443.078
430.623
438.869
423.644
421.787
406.688
413.059
427.732
430.546
388.8
347.729
336.735
356.762
353.234
281.39
311.454
826.672
898.487
883.089
800.533
738.584
741.838
799.338
863.235
911.013
948.565
949.962
899.969
894.724
974.619
463.802
484.492
546.181
563.856
575.762
599.686
603.865
601.158
604.897
616.293
620.067
616.033
638.706
669.918
706.573
723.407
739.152
743.659
750.041
743.865
733.162
720.22
709.791
698.533
668.822
625.149
570.99
520.696
482.599
477.57
388.822
397.242
399.551
392.902
398.194
409.077
452.067
488.316
504.899
488.191
464.216
451.424
456.102
451.278
457.596
453.487
449.655
441.28
446.341
438.642
457.231
451.344
472.4
487.578
507.258
510.452
504.871
487.555
477.853
482.555
400.825
443.426
427.263
403.776
395.857
393.638
391.159
387.769
385.562
388.061
388.598
399.557
392.459
403.677
401.126
411.639
417.454
414.12
428.932
411.529
419.088
395.072
392.465
390.54
409.325
434.592
445.999
440.693
423.289
398.454
491.642
505.794
483.166
472.953
457.836
450.469
456.865
457.567
445.786
462.409
485.858
482.117
505.32
516.906
517.03
504.941
500.407
497.46
493.996
487.116
473.541
454.184
425.417
401.723
384.728
382.153
381.898
390.216
397.303
406.242
404.41
405.064
402.723
411.066
414.563
410.744
411.979
421.403
444.297
462.475
461.587
442.91
425.215
420.62
438.212
461.347
487.62
510.101
533.767
546.257
549.471
553.823
560.7
539.355
530.081
496.179
458.495
426.256
430.025
467.453
336.81
358.882
394.667
389.72
400.316
383.594
343.146
314.653
307.442
328.065
349.9
391.012
395.853
396.302
372.913
391.655
366.113
380.188
375.491
359.974
336.328
308.613
298.647
300.042
308.12
311.643
298.377
270
270
270
378.434
394.615
411.411
415.224
413.215
406.592
396.729
392.63
384.314
370.931
373.329
367.721
350.358
353.884
350.072
347.215
347.91
365.801
368.559
393.571
401.593
419.083
419.134
418.601
418.882
420.297
420.525
419.555
419.782
433.15
467.332
466.964
452.358
435.078
413.312
403.398
394.444
384.801
375.547
382.808
368.179
366.773
370.353
380.488
392.728
390.159
397.998
393.859
389.968
386.532
376.28
369.177
367.156
368.447
378.971
386.755
382.72
385.476
390.291
377.127
436.944
468.107
470.487
445.797
418.13
392.268
368.978
354.252
349.738
349.607
340.3
340.833
338.445
339.105
336.596
326.2
325.891
333.583
349.413
356.178
366.451
374.603
389.368
413.339
424.614
424.025
427.756
431.532
427.859
417.938
382.72
367.721
357.62
353.243
347.656
334.425
320.757
301.758
303.402
298.025
298.893
291.276
293.33
280.959
306.395
301.084
292.351
275.873
287.773
290.029
295.617
316.799
346.253
370.183
378.648
373.652
380.481
381.453
374.384
366.102
270
302.775
323.159
329.852
337.421
362.518
383.469
403.349
414.272
415.901
412.054
399.655
370.393
333.91
300.548
275.138
275.557
291.651
294.894
294.552
270
270
270
270
270
270
270
270
270
270
304.723
345.059
287.476
302.839
375.588
402.917
403.46
414.617
424.1
433.253
436.143
437.317
439.745
437.658
443.142
445.447
443.339
433.124
431.029
417.511
411.88
422.315
436.365
392.626
342.124
338.081
357.586
342.803
270
319.036
832.355
880.321
828.906
739.161
701.607
721.678
784.541
843.008
877.267
911.453
921.476
891.982
894.402
973.324
459.443
501.23
555.753
581.74
605.082
627.047
630.409
618.91
617.804
620.063
613.482
618.981
657.869
701.51
738.89
747.754
766.683
764.648
769.817
766.426
752.554
740.829
721.001
704.512
670.457
627.099
574.855
525.181
486.253
480.697
388.163
397.158
395.391
387.776
397.284
408.279
452.038
496.793
507.205
484.056
464.482
453.546
452.812
455.472
453.258
454.478
446.629
432.582
433.783
429.822
449.748
446.697
469.139
488.339
504.883
510.144
502.666
485.009
472.923
478.455
401.562
438.522
418.751
400.384
396.445
390.847
387.949
385.211
382.004
381.825
388.436
390.881
395.03
402.924
406.72
413.754
416.579
419.746
425.321
407.706
415.993
398.019
388.459
390.164
411.383
433.759
448.955
444.368
422.533
401.064
499.701
489.784
464.009
444.814
436.528
445.294
440.523
435.132
445.358
470.214
479.499
514.014
541.731
541.763
532.488
523.197
517.009
510.027
511.376
495.386
490.425
464.411
445.189
413.679
396.215
381.051
379.346
380.506
391.986
400.853
403.955
405.664
408.277
417.801
414.195
410.58
407.155
415.587
434.12
446.79
441.164
421.802
404.224
408.096
431.211
461.673
485.882
510.665
535.49
548.431
550.909
547.611
553.236
539.898
521.757
495.361
454.189
415.649
420.71
456.795
340.945
375.85
397.843
402.378
408.497
367.893
329.033
309.966
313.465
335.301
368.778
399.02
397.899
384.673
374.62
373.513
363.35
372.554
372.652
369.048
339.503
314.779
304.696
304.89
312.653
315.515
297.179
270
270
270
380.789
402.126
412.18
411.631
406.846
398.18
395.444
386.466
376.724
379.352
375.615
358.524
354.993
356.442
345.497
355.13
345.19
359.688
364.867
390.054
394.709
417.098
419.1
418.197
416.611
419.623
420.551
420.447
419.937
434.95
469.732
464.026
445.267
429.927
402.498
402.785
385.2
379.582
377.799
367.846
362.041
368.257
361.943
364.161
383.828
391.09
394.936
400.712
397.241
386.432
381.815
379.507
372.826
365.788
377.253
393.285
390.567
383.224
380.437
377.79
462.372
495.578
478.351
436.912
401.821
375.453
347.937
342.412
334.891
339.681
332.302
340.834
325.755
321.037
312.74
307.529
320.766
322.942
342.784
347.856
357.352
364.917
379.356
403.799
425.573
427.459
427.578
425.509
416.849
407.363
388.44
365.904
353.927
340.871
333.249
310.13
304.789
282.051
300.195
286.52
289.563
285.784
279.998
298.08
283.445
284.998
305.539
280.741
286.081
282.074
287.166
308.633
335.114
367.074
375.164
379.16
378.01
384.015
376.624
368.809
270.112
314.355
331.206
337.782
361.099
388.552
416.379
430.216
441.121
441.652
439.284
426.339
400.871
372.008
320.064
276.057
270
279.213
289.169
295.797
275.191
272.575
270
270
270
270
270
270
270
270
303.611
348.772
300.362
331.871
390.939
405.634
410.239
421.205
428.331
440.378
441.44
450.186
455.939
454.301
458.005
442.889
451.861
435.177
442.998
428.754
413.917
417.952
442.968
398.99
339.978
331.513
343.712
311.591
270.749
328.719
827.072
851.487
785.965
713.122
699.817
736.067
799.006
838.333
860.16
886.933
901.399
899.457
918.574
986.873
465.474
501.632
557.912
573.062
614.362
662.729
658.768
629.881
623.331
619.012
612.895
623.733
678.555
717.656
756.362
760.629
772.4
770.234
770.93
761.658
749.644
733.69
715.471
688.291
653.141
609.498
560.684
514.186
483.226
485.218
388.711
396.004
394.189
392.457
396.831
408.579
453.889
499.219
515.671
491.479
467.978
455.833
458.126
460.392
460.71
461.733
456.769
444.158
435.779
431.33
445.656
452.745
476.625
493.807
505.622
507.373
497.121
476.743
466.154
472.759
393.594
435.809
412.835
399.885
395.921
394.291
387.32
383.069
382.072
380.861
379.6
386.656
396.162
401.37
406.718
417.048
411.467
420.451
420.322
400.14
411.658
392.257
388.953
396.447
418.587
438.421
450.795
439.497
416.881
412.522
507.634
473.64
451.502
438.311
434.54
424.575
420.6
433.303
436.141
451.554
490.096
519.321
537.041
550.427
560.848
554.34
540.59
522.463
518.898
501.384
494.555
474.471
454.555
428.867
404.864
390.404
378.021
382.265
391.486
399.09
398.958
403.574
414.868
419.511
416.988
407.613
404.995
409.013
421.249
432.472
422.914
403.139
392.526
401.271
432.02
456.843
484.622
513.031
534.109
540.976
539.671
540.865
545.353
525.874
514.637
476.664
437.521
412.879
424.403
466.26
345.418
386.724
405.393
419.628
408.656
362.89
328.972
310.547
314.807
329.51
375.258
383.614
396.205
380.009
362.378
372.762
363.529
370.212
364.164
365.305
332.458
315.708
307.783
311.616
318.87
317.797
280.952
270
270
270
388.671
411.696
414.05
408.776
401.243
397.79
387.794
378.503
381.242
380.953
365.926
358.544
363.593
349.314
346.71
350.73
347.289
361.639
360.389
387.14
393.503
417.005
416.561
417.119
416.158
418.094
422.231
418.861
422.766
444.328
473.753
461.453
443.756
421.828
397.935
399.525
374.475
383.669
365.241
361.778
362.819
353.858
364.006
359.921
374.734
381.469
404.085
407.486
392.894
391.99
392.706
378.026
375.904
382.392
383.691
385.62
394.084
395.498
380.701
376.697
480.376
537.023
500.064
439.631
391.72
361.509
337.901
328.462
324.599
327.414
326.753
316.496
309.99
302.217
310.747
294.856
316.38
314.086
343.564
340.626
349.859
356.569
368.701
393.736
414.541
424.763
430.314
423.159
408.959
403.282
385.751
367.466
344.319
328.024
313.276
300.788
291.944
272.951
293.535
277.87
291.282
274.163
284.165
270.584
290.356
276.832
292.929
284.717
280.003
274.941
292.643
295.207
335.345
360.622
377.398
376.254
381.222
381.091
377.49
366.588
279.306
319.142
342.465
353.123
382.53
415.836
434.173
447.124
452.853
460.282
452.356
444.675
423.925
394.979
353.165
297.756
270
270
280.843
298.948
283.799
278.936
270.214
270
270
270
270
270
270
270
284.752
358.392
317.233
346.168
400.426
411.7
414.683
427.921
437.353
447.394
453.179
461.551
464.956
463.348
469.732
450.074
454.293
441.656
449.448
434.077
423.999
419.858
438.623
411.376
332.77
306.221
312.536
283.007
304.093
347.495
822.488
823.187
755.553
702.554
707.171
760.144
812.574
834.454
855.754
885.006
890.155
879.272
897.672
964.691
918.717
728.131
524.028
495.385
547.097
580.84
639.649
696.415
673.028
639.179
625.454
617.308
613.075
627.984
681.175
722.682
746.41
755.823
760.316
752.702
745.725
729.525
713.197
695.806
671.334
647.461
612.678
574.927
535.877
501.706
480.309
474.03
437.246
416.321
400.376
400.634
393.881
399.1
403.467
404.1
453.478
504.218
520.592
502.439
472.273
457.153
452.652
455.441
463.494
464.569
466.189
463.737
461.986
461.464
469.078
475.697
491.353
501.057
505.516
499.066
482.562
464.273
457.297
460.612
429.889
395.499
400.887
426.341
406.419
398.056
396.132
393.525
390.344
382.765
378.672
373.899
378.315
381.914
393.016
395.861
407.161
407.69
413.255
407.928
410.589
395.008
399.325
389.988
397.659
408.778
430.989
445.736
448.517
446.639
466.553
481.549
469.703
452.747
453.49
441.357
434.786
425.622
415.142
413.427
421.258
416.221
423.075
441.801
469.97
491.168
525.436
535.364
539.454
538.972
539.06
525.808
524.052
502.912
501.721
476.295
464.081
433.674
413.46
391.367
377.202
376.844
389.514
394.009
396.003
379.961
393.741
403.301
415.713
423.769
416.359
410.79
404.348
401.55
412.785
416.158
409.851
397.137
389.11
401.643
432
457.268
466.157
487.587
517.724
539.08
540.269
533.081
526.655
506.153
489.008
450.822
416.46
402.029
425.161
465.761
418.288
366.317
354.506
398.024
416.646
429.174
412.541
373.452
336.919
314.361
308.626
318.25
362.034
373.878
384.217
377.642
359.323
356.474
363.781
359.589
354.743
338.634
319.332
314.266
316.042
324.492
327.532
296.382
270
270
270
329.738
384.862
371.086
392.936
405.558
403.61
400.667
398.501
390.349
381.952
381.333
379.665
375.975
368.197
365.002
358.305
350.474
344.31
350.835
346.409
362.898
359.737
385.791
394.695
415.943
415.251
415.586
416.019
422.074
422.879
430.141
450.38
466.03
465.937
468.684
461.108
454.29
441.259
419.215
396.553
392.422
372.448
379.289
360.846
365.409
356.926
352.366
359.864
359.236
379.736
380.496
411.003
403.116
398.295
403.1
393.64
390.103
388.147
389.48
394.745
395.146
397.632
384.477
388.552
414.326
451.57
490.413
544.99
568.123
512.486
441.146
386.946
355.583
328.111
314.722
305.693
320.779
306.497
300.861
298.691
290.371
303.15
290.751
318.538
313.208
341.445
338.13
343.539
351.502
366.356
391.265
414.398
428.055
421.141
411.144
399.976
390.513
390.033
400.918
392.842
368.644
334.962
316.508
309.036
289.6
287.644
270
291.625
270
295.206
270.952
273.675
270
280.652
272.58
288.802
275.018
282.738
270
286.036
303.324
328.593
365.134
374.64
380.715
379.603
382.315
374.338
356.92
351.888
336.082
293.249
328.915
346.214
370.696
399.881
427.461
449.781
458.737
471.418
476.293
467.235
455.056
438.003
406.076
378.668
326.901
270
270
270.028
288.44
296.822
284.775
275.822
279.059
270
271.539
270
270
270
270
270
270
287.765
361.782
332.358
355.003
401.214
416.573
424.088
429.331
439.673
454.326
458.066
461.937
475.725
466.262
476.69
452.811
457.411
449.343
445.867
442.374
437.378
415.836
436.728
424.601
325.636
275.971
273.095
287.668
323.017
290.32
503.486
537.968
811.94
795.277
735.944
698.45
718.468
779.963
825.169
850.672
882.517
893.669
839.41
759.532
731.877
842.235
839.884
691.992
536.6
507.964
550.726
580.274
682.356
726.582
689.747
646.434
629.772
621.45
607.86
624.188
668.17
699.179
713.202
701.452
698.883
669.155
654.556
629.707
612.46
592.881
577.274
557.24
538.347
514.093
491.79
472.898
456.194
440.27
422.746
416.962
400.766
408.211
400.021
400.915
406.05
406.977
442.532
505.541
530.698
514.218
485.645
462.883
452.257
452.406
456.727
467.259
475.56
483.707
487.222
486.828
490.751
497.54
500.376
502.768
497.996
487.482
472.642
466.105
462.771
442.348
413.538
396.16
403.443
419.505
403.47
401.857
397.569
394.101
390.946
392.068
383.343
376.403
374.815
378.367
384.741
393.845
396.709
405.559
400.358
404.521
394.313
391.293
405.091
394.664
412.746
425.801
440.937
445.714
451.591
467.568
477.169
466.816
454.101
446.036
445.874
437.954
429.605
417.117
410.757
410.887
403.889
406.582
414.493
411.805
440.385
454.755
490.67
499.884
518.418
520.084
525.356
515.35
517.439
500.468
493.623
480.573
456.919
437.534
410.429
389.487
373.146
379.916
391.963
398.875
399.952
391.861
399.217
409.691
428.12
422.929
420.749
411.804
406.377
402.05
401.634
406.222
401.405
389.257
387.315
399.712
431.517
461.857
471.94
468.451
479.512
498.757
508.87
512.452
492.666
473.622
448.046
416.026
405.337
414.051
442.438
469.531
388.178
367.541
372.976
409.347
424.98
434.356
425.781
394.545
355.089
322.983
306.693
305.392
330.914
358.565
374.683
379.903
351.845
351.02
334.585
330.358
325.36
324.988
326.652
326.748
328.132
325.079
300.22
270
270
270
342.152
387.328
393.037
392.32
408.671
409.001
406.458
403.136
399.271
389.524
384.556
380.239
378.815
377.602
370.874
368.592
362.24
354.449
355.172
354.677
351.23
359.855
367.602
393.337
395.175
417.658
412.109
414.958
419.928
421.46
426.944
442.823
463.791
464.974
456.314
456.43
455.014
453.304
442.168
426.681
396.78
395.538
369.733
377.343
360.272
366.886
356.372
359.463
369.353
366.346
379.03
387.424
412.972
399.406
406.919
406.251
402.634
401.409
394.955
389.841
398.404
409.195
413.402
391.032
420.633
459.986
510.702
568.802
625.588
620.331
555.101
467.877
393.962
354.303
322.319
301.713
293.569
303.282
290.049
295.33
292.954
285.974
304.1
296.071
321.131
314.817
336.677
332.541
340.352
350.375
367.768
390.864
415.08
421.416
412.475
414.771
413.836
425.013
425.807
431.243
413.845
371.903
337.559
315.99
298.687
298.72
273.514
276.652
271.302
284.951
280.524
277.845
270
270
276.111
270
281.137
270
276.92
270
279.636
311.398
341.443
363.681
379.456
378.75
380.665
375.826
364.544
343.337
341.266
335.162
306.195
334.312
356.157
372.327
410.665
443.84
456.763
469.975
477.607
485.591
476.612
463.429
445.353
413.475
384.346
357.646
283.816
270
271.25
273.467
287.499
298.291
277.739
277.557
275.777
270
270
270
270
270
270
270
270
349.817
353.336
361.61
406.653
415.135