/*--------------------------------*- C++ -*----------------------------------*\
| =========                 |                                                 |
| \\      /  F ield         | OpenFOAM: The Open Source CFD Toolbox           |
|  \\    /   O peration     | Version:  2.1.1                                 |
|   \\  /    A nd           | Web:      www.OpenFOAM.org                      |
|    \\/     M anipulation  |                                                 |
\*---------------------------------------------------------------------------*/
FoamFile
{
    version     2.0;
    format      ascii;
    class       volScalarField;
    location    "0.005400000";
    object      fH;
}
// * * * * * * * * * * * * * * * * * * * * * * * * * * * * * * * * * * * * * //

dimensions      [0 0 0 0 0 0 0];

internalField   nonuniform List<scalar> 
12384
(
0.0316502
0.0300079
0.0289191
0.0284718
0.0284006
0.0285069
0.0286538
0.0287551
0.0289879
0.0294004
0.0304451
0.0328274
0.0346456
0.0290897
0.0227183
0.0232142
0.0237637
0.0243702
0.0247693
0.0249465
0.0249989
0.0249847
0.0249558
0.0249276
0.024913
0.0249097
0.0249019
0.024879
0.0248475
0.0248083
0.0247758
0.0247335
0.0246851
0.024644
0.0246002
0.0244951
0.0244232
0.0243099
0.0241838
0.0239875
0.0237691
0.0233795
0.0232943
0.0230695
0.0303331
0.0304633
0.0294445
0.0274099
0.0262908
0.0259646
0.0259109
0.0258479
0.0259839
0.026161
0.026298
0.0265605
0.0267254
0.0268819
0.0270323
0.0271129
0.027234
0.0272726
0.0273954
0.0274586
0.0276156
0.0277887
0.0280439
0.0285064
0.0293179
0.0302564
0.0300703
0.0276243
0.0265587
0.0267674
0.0299999
0.0309593
0.0320908
0.0316504
0.0311093
0.0306528
0.0303692
0.0302051
0.0301462
0.030144
0.0301538
0.0301594
0.0301867
0.0302051
0.0302168
0.0302233
0.0302248
0.0302345
0.0302596
0.0302885
0.0303092
0.0303746
0.0305467
0.0309668
0.0316266
0.0303327
0.028744
0.0283589
0.0283244
0.0283743
0.0334501
0.0335937
0.0336726
0.0336554
0.033433
0.03314
0.0328349
0.0325994
0.0323538
0.0322141
0.0320538
0.0319308
0.03184
0.0316923
0.0316529
0.0315195
0.0314979
0.0316794
0.0315163
0.0317405
0.0317969
0.0322375
0.0322896
0.0308259
0.0286405
0.0277453
0.0276814
0.0279884
0.0282195
0.028343
0.0331828
0.0361172
0.0369461
0.0373514
0.0377177
0.0378927
0.0379309
0.0378407
0.0377355
0.0376246
0.0374833
0.0373597
0.0371832
0.0370722
0.0369397
0.0368512
0.0367551
0.0367559
0.03676
0.0367832
0.0367787
0.0367578
0.0367689
0.0367625
0.0368131
0.0368492
0.0368399
0.0365042
0.0339187
0.0312233
0.031169
0.0317598
0.03018
0.0291751
0.0289202
0.0290065
0.0298988
0.030977
0.0315925
0.0319267
0.0320449
0.0320395
0.0320206
0.0319362
0.0319654
0.0319195
0.0319967
0.0319639
0.0319944
0.0319687
0.0319414
0.0317095
0.031103
0.0297411
0.0275127
0.025726
0.0252182
0.025829
0.0270493
0.0276966
0.028322
0.0284509
0.0293121
0.0308702
0.0326554
0.0342995
0.0353703
0.0361204
0.0366991
0.0368363
0.037224
0.0369465
0.037196
0.0370906
0.0372987
0.0372587
0.0373865
0.0374011
0.0374641
0.0373124
0.0372792
0.0369567
0.0363164
0.0350674
0.0337972
0.033917
0.0339876
0.0339032
0.0338869
0.033882
0.0324039
0.0320707
0.0318415
0.0317635
0.0317795
0.031761
0.0318401
0.0317387
0.0318768
0.0317363
0.031775
0.0316616
0.0316806
0.031659
0.0316712
0.0316361
0.0316594
0.031636
0.0319443
0.0324374
0.0331718
0.0377085
0.0450706
0.0457485
0.0451829
0.0449142
0.0447718
0.0449218
0.0451916
0.0453454
0.0281523
0.0293313
0.0307291
0.0318025
0.032352
0.0326812
0.0327172
0.0329189
0.0326891
0.0328415
0.0329903
0.0327413
0.0327502
0.0326798
0.0325789
0.0325185
0.0323884
0.0321487
0.031888
0.0314432
0.0311704
0.0324591
0.0362906
0.0368534
0.0366941
0.0365892
0.0365462
0.0365345
0.0365399
0.0365528
0.0344617
0.0359262
0.0365905
0.0367661
0.0367757
0.0367285
0.0367353
0.0365325
0.0365859
0.0363173
0.0364766
0.0362377
0.036266
0.0361113
0.0358962
0.0360942
0.0358914
0.0360236
0.0363078
0.0365989
0.0384007
0.0403504
0.0391723
0.0384832
0.0383214
0.0383586
0.03845
0.0384651
0.038325
0.0381846
0.0294733
0.0348153
0.038238
0.0347305
0.0343037
0.0363276
0.0385269
0.039863
0.0404441
0.0406159
0.0405291
0.0403174
0.0400658
0.0397896
0.0394984
0.0393413
0.0392522
0.0392324
0.0392123
0.0391887
0.0391386
0.0391071
0.0391319
0.0391488
0.0393047
0.0395609
0.0395602
0.0382447
0.033428
0.0228028
0.0168736
0.0172156
0.0174407
0.0174671
0.0173514
0.018789
0.0456951
0.0540973
0.0540035
0.0535948
0.0532366
0.0530625
0.0528267
0.0527145
0.0527385
0.0528828
0.0531648
0.0535872
0.0541326
0.0547736
0.0552211
0.0553001
0.0543249
0.0515079
0.0476364
0.0444126
0.0429334
0.0399639
0.0281372
0.0185308
0.0259895
0.0259556
0.0264278
0.0274363
0.0285531
0.0291646
0.0293351
0.029184
0.028569
0.0280636
0.0283108
0.0299548
0.0336035
0.0307868
0.0227796
0.0234767
0.0243507
0.0252229
0.0257026
0.0257666
0.025576
0.0253759
0.0252701
0.0252725
0.025268
0.0252158
0.0251272
0.0250184
0.0249347
0.0249013
0.024911
0.0249446
0.0249914
0.0250102
0.0249907
0.0248983
0.0247491
0.0245505
0.0243352
0.0240965
0.0238613
0.0235533
0.0232568
0.0224381
0.0303767
0.0302098
0.0281041
0.025791
0.0249093
0.0249605
0.0253141
0.0257021
0.0259596
0.0264604
0.0268837
0.0273724
0.0275662
0.02773
0.0277469
0.0277558
0.0277485
0.0277096
0.0277264
0.0276964
0.0276973
0.0277404
0.0277928
0.028088
0.0286658
0.0296275
0.0303084
0.0299544
0.0290285
0.0287822
0.030018
0.03124
0.0321547
0.0314726
0.0307892
0.0301368
0.0298101
0.0298392
0.0299722
0.0300426
0.0300875
0.0300605
0.0299963
0.0299424
0.0299189
0.029924
0.0299769
0.0300204
0.0300539
0.0300368
0.0300353
0.0300788
0.0302267
0.0305617
0.0312998
0.0313079
0.0302433
0.0294133
0.0291294
0.0288679
0.0335036
0.0338047
0.0334814
0.0325407
0.0316013
0.0309261
0.0304947
0.0302043
0.0300371
0.029913
0.0298827
0.0298098
0.0298381
0.0298179
0.0298763
0.0299644
0.0300984
0.0303458
0.030597
0.0309252
0.0312458
0.0317376
0.032176
0.0320048
0.0308781
0.0292318
0.028382
0.0285817
0.0290237
0.0289805
0.0341598
0.036675
0.0374483
0.0378142
0.0378848
0.0375447
0.0370978
0.0367889
0.0366594
0.0364808
0.0362279
0.0358967
0.0356739
0.0355549
0.0355331
0.0355539
0.0355099
0.0355868
0.035572
0.0355382
0.0356354
0.0357632
0.0359208
0.0361181
0.0362888
0.0365278
0.0366713
0.0366635
0.0356828
0.0334088
0.0314551
0.0311259
0.0297825
0.0294659
0.0298495
0.0318366
0.0337166
0.0337699
0.0331311
0.0322749
0.0315844
0.0310761
0.0307551
0.0306
0.0305736
0.0306689
0.0308397
0.0310882
0.0312979
0.031612
0.0318651
0.0319595
0.0317569
0.0310268
0.0294738
0.0274195
0.0257465
0.025232
0.0260849
0.0273209
0.0326223
0.0341364
0.0364171
0.0388144
0.0400256
0.0403557
0.040212
0.0398343
0.0392465
0.0388119
0.0382504
0.0381881
0.0378718
0.0379271
0.037894
0.0379573
0.0378911
0.0379005
0.0379485
0.0379563
0.0378289
0.0376006
0.0370932
0.0360301
0.034427
0.0336194
0.0332981
0.0334528
0.0335107
0.0337222
0.0312071
0.0311565
0.0315276
0.0320292
0.0325112
0.0328628
0.0330795
0.0331506
0.0331574
0.0330846
0.0329174
0.0326922
0.0323669
0.032027
0.0317547
0.0316162
0.0313223
0.0312319
0.0311697
0.0316966
0.0322751
0.034647
0.0413699
0.0448604
0.0427627
0.0415291
0.0411693
0.0419909
0.0435142
0.0448708
0.0307821
0.0330311
0.0342064
0.0344067
0.0343659
0.0340051
0.0336797
0.0331729
0.0330159
0.0326545
0.0325515
0.0324748
0.0324242
0.0324225
0.0324514
0.0326769
0.0326928
0.03271
0.0324064
0.0320158
0.031503
0.0316219
0.0341458
0.03676
0.0367578
0.0367132
0.036773
0.0368447
0.036847
0.0369022
0.036701
0.0374291
0.037458
0.0372494
0.0369464
0.0366262
0.0363016
0.0359843
0.0356796
0.035404
0.0351396
0.0348772
0.034717
0.0344668
0.0343955
0.0344571
0.0345682
0.0348172
0.0352697
0.0357239
0.0369975
0.0393798
0.0396915
0.0385184
0.0386671
0.0392534
0.0397869
0.0397875
0.0390629
0.038265
0.0346564
0.0374593
0.0365313
0.0359008
0.0384513
0.0410219
0.0417554
0.0415143
0.0405719
0.0394361
0.0386103
0.0380416
0.0376562
0.0375748
0.0378365
0.0383957
0.0391272
0.0396365
0.0397607
0.0395932
0.0391722
0.0386258
0.0380717
0.0378128
0.037984
0.0385908
0.0392023
0.0387914
0.0362039
0.0284917
0.0193772
0.0226213
0.0239615
0.0224376
0.0210254
0.0339941
0.0513654
0.0538734
0.053042
0.0522376
0.0516671
0.0513223
0.0512069
0.0511868
0.0512189
0.0512279
0.0514181
0.0519011
0.0529137
0.0545529
0.0563642
0.057494
0.0575281
0.0540404
0.0477019
0.0428107
0.0418523
0.0402958
0.0306539
0.0193232
0.025335
0.0262922
0.0289361
0.0307747
0.0314624
0.0315675
0.031538
0.0316357
0.0314279
0.0304174
0.0286043
0.0287348
0.0318128
0.0314948
0.0228854
0.0239207
0.0251981
0.0262042
0.0264537
0.0261261
0.0256904
0.025437
0.0253327
0.025328
0.0252381
0.0250688
0.0248624
0.0247285
0.0247284
0.0248179
0.0249286
0.0250693
0.0252032
0.0253337
0.0253865
0.0253732
0.0252286
0.0249528
0.0246161
0.0242728
0.023976
0.0237052
0.0233811
0.0225234
0.0303949
0.0297947
0.027045
0.0253098
0.0253088
0.0260682
0.0265036
0.0265872
0.026843
0.0273946
0.0278522
0.028137
0.0281118
0.0279929
0.0278603
0.0277631
0.027726
0.0277591
0.0278162
0.027914
0.0279192
0.0279441
0.0278976
0.0278931
0.0281666
0.0288087
0.0298179
0.0303104
0.0301164
0.0294944
0.0300884
0.0316127
0.0325222
0.0318925
0.0309081
0.0299943
0.0298581
0.0300833
0.0301676
0.0300294
0.0297435
0.0294512
0.0291958
0.0290226
0.0289389
0.0289502
0.0290681
0.0292903
0.0295637
0.0297461
0.0298329
0.0298901
0.0299825
0.0302082
0.0308024
0.0313946
0.0314005
0.0307134
0.030112
0.0292873
0.0336375
0.033425
0.0317171
0.0303665
0.0297173
0.0294294
0.0293147
0.0292659
0.0292705
0.0292639
0.0292816
0.029302
0.0292988
0.0293149
0.0292992
0.0293784
0.0293982
0.0294835
0.0297356
0.030054
0.0304651
0.0310153
0.0316462
0.0320754
0.0320676
0.031253
0.0300865
0.0297165
0.0298541
0.0293641
0.0349049
0.0371296
0.0375731
0.0373315
0.0365562
0.0358768
0.0357543
0.0357981
0.0358522
0.0356444
0.035358
0.0352439
0.0353804
0.035648
0.0358605
0.0360493
0.0361988
0.0362468
0.0363285
0.0362447
0.0361402
0.0359824
0.0357889
0.0357456
0.0358183
0.0360283
0.0363138
0.0365274
0.0363139
0.0345823
0.0315903
0.0307646
0.0299122
0.030323
0.0326584
0.035297
0.0338598
0.031862
0.0306401
0.0299706
0.0295728
0.0294007
0.0294274
0.0297391
0.0300842
0.030461
0.0306062
0.0306358
0.0307781
0.031001
0.0313155
0.0317216
0.0320134
0.0318496
0.0310327
0.0293426
0.0271325
0.0253796
0.0254362
0.0269129
0.0345001
0.0364597
0.0404769
0.0414373
0.0407061
0.0393611
0.0379678
0.0367518
0.0361471
0.035657
0.0355307
0.0352453
0.0354723
0.0352605
0.035468
0.0355852
0.0358719
0.0363166
0.0367751
0.0373804
0.0377995
0.0379419
0.0376902
0.0369586
0.0355434
0.0341661
0.0333711
0.0329439
0.0330036
0.0333893
0.0310933
0.0321902
0.0334075
0.034273
0.0346963
0.0347898
0.0346627
0.0345356
0.0341407
0.0339559
0.0335441
0.0334822
0.033288
0.0331194
0.0329315
0.0325435
0.0321094
0.0315769
0.0310811
0.031142
0.0315414
0.0327973
0.0375438
0.0431643
0.0414006
0.0384236
0.0375499
0.0384048
0.0407833
0.0437286
0.0334985
0.034731
0.0347277
0.0342324
0.0334725
0.0327987
0.0320296
0.0315389
0.030932
0.0305815
0.0303204
0.0301164
0.0302298
0.030292
0.0307374
0.0312972
0.0317841
0.0322676
0.0325383
0.0324434
0.0319391
0.03152
0.032417
0.0356925
0.0369038
0.0369846
0.03721
0.0372567
0.0371926
0.0373354
0.0383398
0.0379255
0.0375761
0.0371182
0.0365473
0.0360634
0.0354852
0.0350328
0.034449
0.0339474
0.0335067
0.0331143
0.0327717
0.0325159
0.0324006
0.032563
0.0328115
0.0332003
0.0337932
0.0345266
0.0356623
0.0379426
0.039658
0.0387619
0.0389358
0.0400573
0.0410114
0.0411802
0.0400246
0.0382563
0.0368697
0.0370995
0.0368401
0.0390467
0.0412814
0.0414131
0.0400955
0.0387482
0.0376795
0.0372408
0.0368081
0.0365227
0.036388
0.0366533
0.0375364
0.0390536
0.0406145
0.0411518
0.0411174
0.0403512
0.0390885
0.0380378
0.0373168
0.0367417
0.0365552
0.0371422
0.0382538
0.0387967
0.0375894
0.0317503
0.0273716
0.0342282
0.035879
0.0282834
0.0300224
0.0468691
0.0533757
0.053124
0.052106
0.0515868
0.0514412
0.0515147
0.0516444
0.0517647
0.0518423
0.051814
0.0517218
0.0517296
0.0523119
0.0540473
0.0566758
0.0583697
0.0583787
0.0545852
0.0453295
0.0395721
0.0402424
0.0404382
0.0327121
0.0198586
0.0254817
0.0281051
0.0313432
0.0318191
0.0311911
0.0304217
0.0299808
0.0302523
0.0313576
0.0314489
0.0298148
0.0286051
0.0307063
0.0316209
0.0230275
0.0244563
0.0260825
0.0271041
0.0270636
0.0264394
0.0258068
0.0254106
0.0252239
0.0251438
0.0249837
0.0247489
0.0245293
0.0245266
0.0247056
0.0249507
0.0252012
0.0254397
0.0256619
0.0258383
0.0259323
0.0259178
0.0257523
0.025421
0.0249743
0.0244947
0.0240897
0.0237952
0.0234717
0.0226124
0.0303668
0.0295188
0.0267732
0.0257059
0.026643
0.0277315
0.0275523
0.027081
0.0272504
0.0277746
0.0281288
0.0281333
0.0278513
0.0275858
0.0274289
0.0273783
0.0273794
0.0274691
0.0275416
0.0277214
0.0278975
0.0280188
0.0280742
0.0279871
0.0279465
0.0282956
0.0291182
0.0300213
0.0303041
0.0297826
0.0300999
0.0320316
0.0331163
0.0324746
0.0308007
0.0298967
0.0300024
0.030103
0.0298666
0.0294618
0.0290207
0.0286246
0.0283429
0.0281604
0.028057
0.0280222
0.0280572
0.0282133
0.0285245
0.0289559
0.0293264
0.0295917
0.0297564
0.0299349
0.030363
0.0310711
0.0315499
0.0314822
0.0308825
0.0297052
0.0337517
0.0316097
0.0299115
0.029368
0.0292217
0.0291967
0.0292188
0.0292534
0.0292941
0.0293377
0.0293847
0.029428
0.0294503
0.0294312
0.0294501
0.0294119
0.0293947
0.0293504
0.0293777
0.0294836
0.0298548
0.0303773
0.0310022
0.0316316
0.0320642
0.0321051
0.0314329
0.0308036
0.0305122
0.0296771
0.0354171
0.0372666
0.0371726
0.0361233
0.0352034
0.0350477
0.0352116
0.0354194
0.0354477
0.0351808
0.0351294
0.0354281
0.0358625
0.0362572
0.0364313
0.0366573
0.036674
0.0368358
0.0368933
0.036886
0.0367578
0.0365503
0.0362192
0.0358624
0.0356528
0.035664
0.0359181
0.0362815
0.0364072
0.0351816
0.0315992
0.0306832
0.0304536
0.0325178
0.0357249
0.0342384
0.0312117
0.0303275
0.0302098
0.0299022
0.0295782
0.0297953
0.0306211
0.0318654
0.0330296
0.0337604
0.0339697
0.0335304
0.0327169
0.0319185
0.0315286
0.0315902
0.031901
0.0321893
0.0319293
0.0307931
0.0284801
0.0258122
0.0251574
0.0265469
0.035665
0.0391478
0.0420866
0.0406108
0.0382853
0.0364487
0.0354198
0.0350334
0.0352373
0.0353875
0.0358994
0.0361921
0.0364679
0.0364668
0.0362987
0.0360051
0.0358005
0.0357353
0.0357695
0.0361359
0.0368274
0.0376317
0.037921
0.0375675
0.0365429
0.0350889
0.0339487
0.0333753
0.0331589
0.033294
0.0327295
0.0340006
0.0348957
0.0352276
0.0351671
0.0347711
0.0340519
0.0332558
0.0324992
0.0319432
0.0315098
0.0313798
0.031397
0.0316735
0.0320063
0.0322121
0.032221
0.0319151
0.0313227
0.0309521
0.0310238
0.0317961
0.0349485
0.0408071
0.0412505
0.0379236
0.0366011
0.0364889
0.0383862
0.0423549
0.0354171
0.0350928
0.0344644
0.0337504
0.0329438
0.0321129
0.0311539
0.030437
0.0297914
0.0292805
0.0290701
0.028907
0.0289495
0.0291467
0.0292111
0.0297222
0.0302932
0.0311598
0.0319373
0.0324264
0.0322431
0.0317271
0.0317282
0.0340781
0.0366092
0.0371763
0.0374623
0.0374753
0.037343
0.0375526
0.0376435
0.03774
0.0373486
0.0365944
0.0358375
0.0352348
0.0344687
0.0336484
0.0327368
0.0318172
0.0311338
0.0304828
0.0302349
0.0299097
0.0299513
0.0302427
0.0308129
0.0314483
0.0322252
0.0331782
0.0344063
0.0365484
0.0391862
0.0392002
0.0388684
0.0398963
0.0411066
0.0419117
0.0407895
0.0382669
0.0371394
0.0369637
0.0384591
0.0408818
0.0412403
0.0398668
0.038382
0.0376501
0.0372872
0.0369717
0.0366027
0.0361542
0.0357164
0.0355861
0.0362638
0.0379864
0.0401104
0.0412459
0.0408192
0.0390157
0.0361491
0.0337958
0.033249
0.0337142
0.0343772
0.0354034
0.0370873
0.0384697
0.0380563
0.033353
0.0362817
0.045912
0.0429794
0.0332075
0.0404733
0.0519692
0.0533867
0.052403
0.0517079
0.0515011
0.0513998
0.0513434
0.0513441
0.0514716
0.0518517
0.0523047
0.0525596
0.0524822
0.0524647
0.0535483
0.0568238
0.0594762
0.0588416
0.0534924
0.0422419
0.0367984
0.0392966
0.0404378
0.0327286
0.019812
0.025839
0.029594
0.0317498
0.0308103
0.0293434
0.0284778
0.0278562
0.0279037
0.0292847
0.0307809
0.0299919
0.0287747
0.0303471
0.0315869
0.0232243
0.025055
0.0269927
0.0279872
0.0277009
0.0268265
0.025947
0.0253423
0.0250222
0.024886
0.0246853
0.0244366
0.0243355
0.0244973
0.0248423
0.0251917
0.0255384
0.0258369
0.026131
0.0263811
0.0265085
0.0264991
0.0262784
0.0258688
0.0253138
0.0247158
0.0242011
0.0238541
0.0235254
0.0226451
0.0303014
0.0294702
0.0270943
0.0266897
0.0284269
0.0293675
0.0283972
0.0274124
0.0274964
0.027938
0.0281127
0.0278856
0.0275346
0.0273716
0.0273938
0.0275427
0.0277106
0.027831
0.0277676
0.0277757
0.0279121
0.0280836
0.0281801
0.0281442
0.0280135
0.0280553
0.0286306
0.0295823
0.0301843
0.0298376
0.0301992
0.0324163
0.0337463
0.0327845
0.0304879
0.0298894
0.0300401
0.0299195
0.0295647
0.0291887
0.0288061
0.0284672
0.0282197
0.0280667
0.0279711
0.0278913
0.0278129
0.0277742
0.027864
0.0281467
0.0286142
0.0290702
0.0294134
0.0296599
0.0300221
0.0307042
0.031428
0.0316847
0.0312475
0.0299104
0.0334582
0.0300019
0.0293729
0.0292289
0.0292131
0.0292375
0.0292651
0.0292962
0.0293507
0.029438
0.0295445
0.0296458
0.0297186
0.0297542
0.0297496
0.0297135
0.029612
0.0294704
0.0293699
0.0293619
0.0295218
0.029909
0.0304329
0.0310791
0.031664
0.0320712
0.0319468
0.0315011
0.0309644
0.0299128
0.0357048
0.0371606
0.0363789
0.035185
0.0348109
0.0348188
0.0349559
0.0351762
0.0351514
0.0349596
0.0352192
0.035709
0.0360562
0.0363776
0.0365233
0.0367182
0.0367375
0.0367951
0.0367833
0.036858
0.0368677
0.0368722
0.0366082
0.0361744
0.035712
0.0354597
0.0355983
0.0360425
0.0363365
0.035438
0.0315512
0.0308291
0.0319065
0.03533
0.035574
0.0313563
0.0307894
0.031641
0.0311084
0.03014
0.0298674
0.0309153
0.0329637
0.0349653
0.0360638
0.0365745
0.0365926
0.0363987
0.0353833
0.0338403
0.0324373
0.0318477
0.031871
0.0322589
0.0324217
0.0317346
0.0295601
0.0262999
0.0250844
0.0264003
0.0369357
0.0418454
0.0414446
0.0384391
0.0363638
0.0354082
0.0352332
0.0357353
0.0365997
0.0375626
0.0383767
0.03901
0.0392489
0.0394308
0.0393566
0.0388788
0.0381121
0.0371383
0.0363908
0.0359849
0.0361007
0.0368537
0.0377637
0.0378413
0.0372107
0.0359961
0.0347249
0.033886
0.0333832
0.0333074
0.0339658
0.0348834
0.0353284
0.035331
0.0347988
0.0336888
0.0324552
0.0311728
0.0302839
0.0295158
0.0291598
0.0289231
0.0289249
0.0291112
0.0298124
0.0304505
0.0312618
0.0316196
0.0315161
0.0310069
0.0307708
0.0312356
0.0333126
0.0383828
0.040836
0.0386812
0.0368477
0.0360134
0.0365384
0.0407167
0.035866
0.034991
0.0345154
0.0338937
0.0328892
0.0316929
0.0303482
0.0295611
0.0288448
0.028672
0.0284709
0.0284511
0.0284994
0.028573
0.0286803
0.0288447
0.0292177
0.0299801
0.0309603
0.0319455
0.0322856
0.0319288
0.0315738
0.0328167
0.0355924
0.0371014
0.03755
0.0374403
0.0373528
0.0376564
0.037441
0.0376392
0.036785
0.0359211
0.0353017
0.034618
0.0334793
0.0321875
0.0308021
0.0296137
0.0287882
0.028182
0.0277878
0.0277221
0.0277331
0.0281197
0.0288083
0.0297521
0.0307243
0.031883
0.0332569
0.0353927
0.0384428
0.0395725
0.0390835
0.039429
0.0406082
0.0421008
0.0410752
0.038277
0.0372459
0.0375627
0.0400117
0.0412129
0.0401374
0.0385557
0.0378215
0.0376082
0.0374663
0.0372416
0.036894
0.0363631
0.0355752
0.0347431
0.0344494
0.0356311
0.0382455
0.0403164
0.0403501
0.0380539
0.033729
0.0295702
0.0283971
0.0297314
0.031555
0.0336355
0.0360035
0.0381661
0.0381446
0.0339523
0.0419664
0.052353
0.0447936
0.0383846
0.0469953
0.0532989
0.0530141
0.0518906
0.0512369
0.0505508
0.0495237
0.0485565
0.047984
0.0482528
0.0493723
0.0509034
0.0523315
0.0530076
0.0527963
0.0527359
0.0556496
0.0602041
0.0597581
0.05275
0.0411212
0.036362
0.0390004
0.039955
0.0314928
0.0193537
0.0261316
0.0302007
0.0311212
0.0294885
0.0283981
0.0277581
0.0270878
0.0269632
0.0280614
0.0296937
0.0294296
0.0288951
0.030396
0.0315621
0.023443
0.0257368
0.0279301
0.0288411
0.0284182
0.0273286
0.0261901
0.0253634
0.0248807
0.0246754
0.0244368
0.0242152
0.0242515
0.0245575
0.0250357
0.0254239
0.0257624
0.0260334
0.0264071
0.0267377
0.0269744
0.0269862
0.0267205
0.0262049
0.0255302
0.0248385
0.0242471
0.0238684
0.0235344
0.0226163
0.0302158
0.0295974
0.0277631
0.0280054
0.0302437
0.0308986
0.0291376
0.0276306
0.0276222
0.0280013
0.0280251
0.0276926
0.0274077
0.0274088
0.027702
0.0281202
0.0285358
0.0286401
0.0284463
0.028118
0.0280642
0.0282233
0.0283237
0.0282751
0.0281037
0.0280195
0.0283432
0.0291833
0.0299531
0.0297716
0.0301346
0.0328141
0.0342799
0.0326864
0.0302394
0.029902
0.029977
0.0298006
0.0295474
0.0293229
0.0290474
0.0287185
0.0284313
0.028277
0.0281939
0.0280796
0.0279175
0.0277243
0.0276131
0.0276962
0.0280547
0.0285598
0.0289884
0.0293505
0.029747
0.0304348
0.0312612
0.0317452
0.0313535
0.0299578
0.032289
0.02947
0.0292928
0.029243
0.0292808
0.0292952
0.0292799
0.0292927
0.0293674
0.0295303
0.0297062
0.02987
0.0299801
0.0300258
0.0300262
0.0299757
0.0298732
0.0297028
0.0295419
0.029427
0.0294408
0.0296356
0.0300409
0.0305964
0.0312554
0.031816
0.0320099
0.0317261
0.0311749
0.0300234
0.0358724
0.0368823
0.0357286
0.0350449
0.0349217
0.0347368
0.0347966
0.0350223
0.0349628
0.0348975
0.0352886
0.0356402
0.0358078
0.0360263
0.0363151
0.0366044
0.036691
0.0366969
0.0367047
0.0367277
0.0368105
0.0369404
0.036796
0.0364105
0.0357907
0.035327
0.0353658
0.0358739
0.036258
0.0354736
0.0315068
0.0314038
0.0340821
0.0361327
0.0327721
0.0315499
0.0329824
0.0326537
0.0307162
0.0295092
0.0300944
0.032492
0.0351901
0.0365958
0.0367568
0.0366067
0.0365581
0.0366415
0.0362458
0.0350141
0.0332696
0.0321502
0.0319769
0.0323581
0.0327555
0.0323403
0.0300483
0.0263017
0.0249509
0.0264453
0.0386683
0.0423456
0.0396746
0.0373245
0.0359442
0.0355397
0.0359334
0.0368541
0.0380405
0.0390246
0.0396261
0.0401325
0.0403248
0.0406838
0.0407131
0.0407514
0.0403169
0.0393529
0.038008
0.0367302
0.0361139
0.0363266
0.037268
0.0378736
0.0375516
0.0365988
0.0353281
0.0343969
0.033748
0.0333974
0.0347456
0.0352794
0.0354244
0.0351598
0.0341463
0.0325714
0.0311023
0.0296674
0.0289611
0.0283225
0.0281048
0.0278982
0.0277993
0.0278514
0.0281434
0.0287498
0.0298181
0.0306466
0.0312144
0.0310774
0.0307318
0.0309483
0.0324096
0.036529
0.0398585
0.0392905
0.0377686
0.0362705
0.0362739
0.0392726
0.035754
0.0352165
0.0349324
0.0341972
0.0328126
0.0311947
0.0295297
0.0288968
0.0283472
0.0283772
0.0283094
0.0284459
0.0285563
0.0286223
0.0285929
0.0286223
0.0286993
0.0292342
0.0301085
0.0313662
0.0320878
0.032019
0.0315794
0.032096
0.0343894
0.0364707
0.037188
0.0371676
0.0372879
0.0377166
0.0378519
0.0373177
0.0361664
0.0356042
0.0351681
0.0342119
0.0324445
0.0307646
0.0289462
0.027888
0.0271135
0.026573
0.0263405
0.026158
0.0263231
0.0266746
0.0273536
0.0283219
0.0293894
0.0307463
0.032271
0.0344727
0.0376709
0.0397063
0.0394759
0.0394985
0.0404931
0.0420538
0.0410178
0.0383589
0.0374159
0.0385548
0.0406939
0.0406529
0.0390569
0.0380208
0.0378349
0.0378533
0.0378291
0.0377291
0.037498
0.0370902
0.0363282
0.0349609
0.0335815
0.0333505
0.0356647
0.0387754
0.0399601
0.0384778
0.0341509
0.0291055
0.0269858
0.0275856
0.0297505
0.0324244
0.0355531
0.0381621
0.0381643
0.0340338
0.0440044
0.0540348
0.0462142
0.0428931
0.0502425
0.0534583
0.0525854
0.0513623
0.0501259
0.0483238
0.0459272
0.0440855
0.0432798
0.0437294
0.0453081
0.0478002
0.0506054
0.0528248
0.0533261
0.0525894
0.0535224
0.0600978
0.0615308
0.0533291
0.0414011
0.036559
0.0385561
0.0381031
0.0281261
0.0188744
0.0263205
0.0299127
0.030167
0.028767
0.0280958
0.0275456
0.0268018
0.0266335
0.0274493
0.0286502
0.0288641
0.029192
0.0305745
0.0313343
0.0237991
0.0266843
0.0288133
0.0294783
0.0289711
0.027726
0.0265212
0.0254727
0.0248074
0.0245208
0.0242392
0.0240617
0.0242267
0.0246662
0.025212
0.025554
0.0258144
0.0260827
0.0265597
0.0270153
0.0273226
0.0272577
0.0268808
0.0262537
0.0254684
0.0247907
0.0242011
0.023863
0.0234999
0.0224954
0.0300924
0.029792
0.0286231
0.0293669
0.0318314
0.032189
0.0297859
0.0277829
0.0276822
0.028014
0.0279723
0.0276184
0.0274168
0.0275468
0.0279388
0.0285036
0.0289413
0.0290985
0.0288905
0.0285472
0.0283921
0.0284301
0.0284925
0.0283983
0.0281605
0.0279829
0.0281886
0.0289124
0.0297075
0.0296561
0.0302811
0.0331361
0.0345354
0.0323587
0.0300723
0.0298693
0.029943
0.0298065
0.0297209
0.0296757
0.0294105
0.0290472
0.0286875
0.028485
0.0283818
0.0282368
0.0280068
0.0277347
0.0274915
0.027464
0.0276643
0.028153
0.0286313
0.0290863
0.0295559
0.030292
0.0311917
0.0317026
0.0312689
0.0297836
0.0311627
0.0293276
0.0293248
0.0293932
0.0294623
0.0294458
0.0293668
0.0293259
0.0293889
0.0295834
0.0297782
0.0299675
0.0300974
0.0302018
0.0302061
0.0301941
0.030057
0.0299195
0.0297383
0.0295646
0.0294895
0.0295609
0.02984
0.0302798
0.0309225
0.0315742
0.0318723
0.0317305
0.031236
0.0300592
0.0359716
0.0365564
0.0355916
0.0354051
0.0351779
0.0346611
0.0346959
0.0349296
0.0348346
0.0348003
0.0351141
0.0352576
0.0352669
0.0354962
0.0359407
0.0363931
0.036592
0.0367353
0.0367508
0.0367436
0.036838
0.0369546
0.0368372
0.0363975
0.0357204
0.0351616
0.0352256
0.0358146
0.0362199
0.0353658
0.0315686
0.0327946
0.0357456
0.0347026
0.0324264
0.0337743
0.0343365
0.0321422
0.0297031
0.0291387
0.0306265
0.0336783
0.035877
0.036545
0.0358977
0.0351626
0.0351323
0.0357331
0.0357867
0.0349298
0.0333706
0.0322862
0.0321201
0.0326187
0.03316
0.03274
0.0298789
0.025798
0.0249805
0.0268039
0.0399315
0.0420191
0.0390522
0.0372129
0.0359767
0.0358204
0.0364591
0.0375349
0.0386391
0.0392788
0.0396262
0.039781
0.0400291
0.0404263
0.0408425
0.0411933
0.041233
0.0407312
0.0395055
0.037792
0.0365136
0.0362259
0.0368676
0.037728
0.037731
0.036936
0.0356969
0.0347197
0.0339157
0.0334141
0.0353781
0.0355656
0.0354524
0.0349391
0.0336239
0.0318233
0.0302688
0.0289476
0.0284792
0.0280443
0.0279378
0.0277258
0.0275578
0.0273752
0.0274354
0.0276663
0.0286476
0.0297346
0.0307022
0.0309542
0.0307
0.0307598
0.0318296
0.035039
0.0385
0.0391041
0.0379032
0.0363104
0.0359255
0.0384547
0.0356624
0.03565
0.0353934
0.0345699
0.0328631
0.0308889
0.0291575
0.0285676
0.028307
0.0284114
0.0285325
0.0286506
0.0286938
0.0287249
0.028686
0.0286003
0.0285622
0.0288643
0.0295769
0.0308991
0.0318218
0.0319812
0.0315756
0.0317438
0.0334725
0.0356046
0.0364484
0.0368081
0.0373169
0.0378447
0.0380809
0.0368208
0.0358608
0.0356019
0.0351923
0.0338656
0.0316097
0.0297549
0.0277025
0.0269988
0.026147
0.025715
0.0254433
0.0253628
0.0254754
0.0257398
0.0264074
0.0272178
0.0283979
0.0298333
0.0315448
0.0337751
0.0369935
0.0396297
0.0400202
0.0400451
0.0409625
0.0422299
0.0409928
0.0384173
0.037578
0.0391306
0.0407129
0.039885
0.0384438
0.0379336
0.0379467
0.0379334
0.0379033
0.0379219
0.0378985
0.0376984
0.0372206
0.0361384
0.033997
0.0321678
0.0328074
0.0362347
0.0389368
0.0393423
0.0366806
0.0318925
0.0283324
0.0279057
0.0296332
0.0327198
0.0360485
0.0383949
0.0378459
0.0339083
0.0420801
0.0546115
0.0483233
0.0464029
0.0517482
0.0534467
0.0521788
0.0506564
0.048569
0.0457001
0.0423013
0.0399767
0.0389703
0.0394906
0.0415282
0.0444841
0.0481403
0.0516745
0.0536684
0.0531257
0.0519281
0.0586264
0.0633992
0.0550668
0.0417767
0.0359658
0.0370273
0.0348847
0.0249584
0.0183121
0.0261875
0.029289
0.0292184
0.0282266
0.0279083
0.0273994
0.0266665
0.0264459
0.0270467
0.0282257
0.0290825
0.0295743
0.0292529
0.0288599
0.0240721
0.0272572
0.029367
0.0298055
0.0290799
0.0279559
0.0268882
0.0256542
0.0247831
0.0243989
0.0240894
0.0239663
0.0242358
0.0247563
0.0253042
0.0255755
0.0258034
0.0261407
0.0267203
0.0271928
0.0273134
0.0270803
0.0265347
0.0258509
0.0251316
0.0245184
0.0240287
0.0236888
0.0232309
0.0223947
0.0299408
0.0299478
0.0295155
0.0307135
0.0331009
0.0330886
0.0301802
0.0279174
0.0276999
0.0280003
0.0279733
0.0277006
0.0275013
0.0275594
0.0278204
0.0283633
0.0288683
0.0291505
0.0291345
0.0289374
0.0287349
0.0286629
0.0285754
0.0283659
0.0281059
0.0279323
0.0281401
0.0287977
0.0295273
0.0295082
0.0302474
0.0334801
0.0346247
0.0319232
0.0300544
0.0299066
0.0299549
0.0298998
0.0298672
0.0298597
0.0297057
0.029356
0.0289697
0.028689
0.028518
0.0283461
0.0280463
0.0277249
0.0274685
0.0274124
0.0275381
0.0279588
0.0283942
0.0289472
0.0295291
0.0303737
0.0312804
0.0316876
0.0309185
0.0296754
0.0304441
0.0292863
0.0295306
0.0296841
0.0298075
0.0298077
0.0296811
0.0295148
0.0294363
0.0295512
0.0297357
0.0299321
0.0300808
0.0302005
0.0302636
0.0302248
0.0301713
0.0300323
0.029889
0.0296919
0.029573
0.0295793
0.0297973
0.0302025
0.0307842
0.0313945
0.0317242
0.0315723
0.0310921
0.0299032
0.0360197
0.0363874
0.0359121
0.0361015
0.0353646
0.0345752
0.0346103
0.0348957
0.0347417
0.0346203
0.0347893
0.0347528
0.034658
0.0348761
0.0354185
0.0359865
0.0363567
0.0365593
0.0367387
0.0368369
0.0368833
0.0368931
0.0366792
0.0360809
0.0353844
0.0349972
0.0352747
0.0358671
0.0361127
0.0352494
0.0317539
0.0340283
0.0361872
0.0339914
0.0337381
0.0353456
0.0346295
0.031426
0.0291658
0.0289047
0.0306525
0.0335984
0.0356187
0.0360458
0.0352401
0.0345297
0.0344418
0.0346858
0.0346609
0.0339787
0.0329598
0.0323143
0.0324358
0.0332136
0.0337665
0.032584
0.0284973
0.0251133
0.0252061
0.0269277
0.0406338
0.0417382
0.0392363
0.0374957
0.0361371
0.0359611
0.0366611
0.0376528
0.0385717
0.0389948
0.0390021
0.0390828
0.0394481
0.0401
0.0408031
0.0413524
0.0416302
0.0413747
0.0403038
0.0384909
0.036827
0.0362512
0.0366993
0.0376229
0.0377378
0.037004
0.0357972
0.034934
0.0340055
0.0334505
0.036084
0.0359329
0.0354637
0.0348051
0.0334136
0.0315172
0.0299042
0.0287625
0.0283693
0.0281477
0.0279661
0.0276039
0.0272735
0.0270392
0.026972
0.0270808
0.0280023
0.0290482
0.0302705
0.0306959
0.0306065
0.0306538
0.0315142
0.0340867
0.0372654
0.0382682
0.0375137
0.0363842
0.0362922
0.0378575
0.0358228
0.0360348
0.0359035
0.0350932
0.0332082
0.0308775
0.0291095
0.0284786
0.0283836
0.0285323
0.0287113
0.0288105
0.0288766
0.0288636
0.0287713
0.0286146
0.0285094
0.0287452
0.0294096
0.0306814
0.0316332
0.031867
0.0314778
0.0315299
0.0329215
0.034691
0.0359174
0.0370659
0.0378143
0.0381666
0.0377912
0.0365198
0.0357989
0.0356892
0.0353356
0.0337787
0.0312838
0.0292805
0.0273185
0.0265537
0.0256076
0.0252493
0.0248725
0.0247936
0.024968
0.0252221
0.0258503
0.0266539
0.0278252
0.0292665
0.0310504
0.0333699
0.0365285
0.0394006
0.040427
0.0407287
0.0415467
0.0423675
0.0408293
0.038385
0.0377385
0.0394558
0.0405158
0.0393088
0.0381244
0.0378917
0.0377253
0.0374341
0.0372885
0.0374537
0.0378144
0.037936
0.0376845