/*--------------------------------*- C++ -*----------------------------------*\
| =========                 |                                                 |
| \\      /  F ield         | OpenFOAM: The Open Source CFD Toolbox           |
|  \\    /   O peration     | Version:  2.1.1                                 |
|   \\  /    A nd           | Web:      www.OpenFOAM.org                      |
|    \\/     M anipulation  |                                                 |
\*---------------------------------------------------------------------------*/
FoamFile
{
    version     2.0;
    format      ascii;
    class       volScalarField;
    location    "0.005400000";
    object      H2;
}
// * * * * * * * * * * * * * * * * * * * * * * * * * * * * * * * * * * * * * //

dimensions      [0 0 0 0 0 0 0];

internalField   nonuniform List<scalar> 
12384
(
0.00421771
0.00303589
0.002258
0.00199826
0.00194338
0.00199812
0.00205784
0.00211065
0.00223222
0.00249897
0.00326229
0.00515034
0.00680518
0.00234155
9.53303e-05
9.90321e-05
0.000116078
0.000153167
0.000197255
0.000224933
0.000234563
0.000237411
0.000241245
0.000242853
0.00025081
0.000258375
0.000268443
0.000275367
0.00028299
0.000284162
0.000283543
0.000278412
0.00027291
0.000261057
0.00025708
0.000239135
0.000231274
0.000213718
0.000195402
0.000170146
0.000158615
0.000133199
0.000131048
0.000122838
0.00237085
0.00246897
0.00169148
0.000730824
0.00046555
0.000406149
0.000404515
0.000388676
0.000415644
0.000442553
0.000468698
0.00049944
0.000548612
0.0005788
0.000624562
0.000625214
0.00065717
0.000638904
0.000671654
0.000655793
0.000697823
0.000694294
0.000804413
0.000981555
0.00141207
0.00217376
0.00203165
0.000619798
0.000384151
0.000435847
0.00196137
0.0027778
0.00382937
0.00339689
0.00297121
0.00262661
0.00239903
0.00227773
0.00223331
0.00223021
0.00223192
0.00222414
0.00223818
0.00223063
0.00222552
0.00221609
0.00220481
0.00221484
0.00222194
0.00225601
0.00227904
0.00232982
0.00247854
0.00282267
0.00333585
0.00222476
0.00101482
0.000857934
0.000847278
0.000865584
0.00512387
0.00526467
0.0053456
0.00533127
0.0051121
0.0048227
0.00452607
0.00429218
0.00405548
0.00391129
0.00375225
0.00362493
0.00353099
0.00335439
0.00332189
0.00320615
0.00318874
0.00332853
0.00320345
0.00340188
0.00342952
0.00392817
0.00399333
0.00268609
0.00112051
0.000776444
0.000765012
0.000839942
0.000929538
0.000977853
0.0048664
0.00781798
0.0086533
0.00905913
0.00943281
0.00961903
0.00965858
0.0095665
0.00945179
0.00933936
0.00919627
0.00907054
0.00889526
0.00877987
0.00864679
0.00855646
0.00845953
0.00846373
0.00846741
0.00848978
0.00848505
0.00846577
0.00847483
0.0084685
0.00852101
0.00855659
0.00854721
0.00820677
0.00560411
0.00301359
0.00287635
0.00336517
0.00199139
0.0011105
0.000962004
0.00099977
0.00173639
0.00268424
0.00323378
0.00358811
0.00370617
0.00370097
0.00368278
0.0035981
0.00362089
0.00357533
0.00364665
0.00361541
0.00364433
0.00361952
0.00359478
0.00333105
0.0028039
0.0016197
0.000464562
0.000191394
0.0001462
0.000218728
0.000403719
0.000548498
0.000865106
0.000922105
0.00138984
0.00267129
0.00434408
0.005964
0.0070586
0.00781693
0.00840385
0.00854264
0.00893754
0.00865524
0.00891027
0.00880255
0.00901552
0.00897532
0.00910306
0.00912082
0.009185
0.00902919
0.00899575
0.00866634
0.00801554
0.00674975
0.00546767
0.0055944
0.00566772
0.00557799
0.00556864
0.00556549
0.00409064
0.00376664
0.00354557
0.00341549
0.00341598
0.00339604
0.00353944
0.00339283
0.00356895
0.00338397
0.00339526
0.00330119
0.00333723
0.00330384
0.00333029
0.00328647
0.0033293
0.00329345
0.00364909
0.00413368
0.00485306
0.0094253
0.0169977
0.0176978
0.0171157
0.0168387
0.0166932
0.0168478
0.0171268
0.017286
0.00095721
0.00153079
0.00260761
0.00344595
0.00404688
0.00436475
0.00439183
0.00459335
0.00435715
0.00451464
0.00465435
0.00440841
0.00441408
0.00434583
0.00423919
0.00419176
0.00405874
0.00383369
0.00357875
0.00315901
0.00293807
0.00417355
0.00799222
0.00855707
0.00839956
0.00829228
0.00824882
0.00823717
0.00824288
0.00825576
0.00612125
0.00761906
0.00829519
0.00847376
0.00848289
0.00843425
0.00844271
0.0082376
0.00829192
0.00801882
0.00818189
0.00793826
0.00796703
0.00780933
0.00758994
0.00779086
0.00758397
0.00771881
0.00800795
0.00830303
0.0101439
0.0121438
0.0109358
0.010229
0.0100633
0.0101017
0.0101954
0.0102109
0.010067
0.00992311
0.00137357
0.00648762
0.00998343
0.00639332
0.00596429
0.00803013
0.0102805
0.0116519
0.0122471
0.0124234
0.012334
0.0121152
0.0118569
0.0115733
0.0112744
0.0111132
0.0110219
0.0110018
0.010982
0.0109582
0.0109071
0.0108754
0.0109014
0.0109185
0.0110787
0.0113413
0.0113406
0.00999048
0.00508346
3.95888e-05
1.32025e-06
1.59837e-06
1.95617e-06
1.92758e-06
1.80894e-06
4.4815e-06
0.0176466
0.0262978
0.0262009
0.0257806
0.0254141
0.0252348
0.0249927
0.0248771
0.0249021
0.0250501
0.0253401
0.0257753
0.0263365
0.0269956
0.0274559
0.0275362
0.0265335
0.0236338
0.0196443
0.016323
0.0148028
0.0117503
0.000608613
5.59429e-06
0.000940869
0.0009205
0.00106168
0.00145111
0.00200521
0.00235166
0.00248066
0.00234807
0.0019879
0.00169194
0.0018267
0.00286853
0.00588908
0.00360098
8.89244e-05
0.000107097
0.000152176
0.000234691
0.000333332
0.000355891
0.000325039
0.000294175
0.000283511
0.000297594
0.000317251
0.000333337
0.000360349
0.000367915
0.00037306
0.000376498
0.000386028
0.000394052
0.00040387
0.000407285
0.000400039
0.000373759
0.000333402
0.000285562
0.000238743
0.000194483
0.000173004
0.000145103
0.000127476
9.8502e-05
0.00239682
0.00228012
0.00096215
0.000383823
0.000275404
0.000277107
0.000310584
0.000379954
0.000434546
0.000507171
0.000640884
0.000787314
0.000839982
0.000865243
0.000860465
0.000814117
0.000825049
0.000796265
0.00078906
0.000762778
0.000748784
0.000737514
0.000716486
0.000824551
0.00105177
0.00166059
0.00222168
0.00193142
0.00120858
0.00112048
0.00197551
0.00300539
0.00389658
0.00325823
0.0027125
0.00219258
0.00191926
0.00192989
0.00203083
0.00208677
0.00212036
0.00209284
0.00202709
0.00197345
0.00194119
0.00192461
0.00194914
0.00198333
0.0020118
0.00200147
0.00199914
0.00205712
0.00219028
0.00248301
0.00308405
0.0030534
0.00214398
0.00143434
0.0011908
0.00106369
0.00517714
0.00548004
0.00516152
0.00424466
0.00331755
0.00277531
0.0024527
0.00222228
0.00209691
0.00198729
0.00196574
0.00189044
0.00191253
0.00187034
0.00191235
0.00196977
0.00206713
0.00227102
0.00247888
0.00273267
0.00299944
0.0034028
0.00387534
0.00371453
0.00273406
0.00142295
0.00100349
0.00107186
0.00125708
0.00123741
0.00583087
0.0083796
0.00915621
0.00952845
0.00961151
0.00925878
0.00880639
0.00849404
0.00836317
0.00818369
0.00792581
0.00759443
0.00736828
0.00724974
0.00722823
0.00724952
0.00720304
0.00728248
0.00726571
0.00722903
0.00732883
0.00745565
0.00761698
0.00781537
0.00798791
0.00823051
0.00837442
0.00836811
0.00738019
0.00510947
0.00311681
0.00282941
0.00164281
0.00136504
0.00171781
0.00350341
0.00538333
0.00543567
0.00479557
0.00394043
0.00321654
0.00279443
0.00250619
0.00236707
0.00233995
0.00242584
0.00258095
0.00280067
0.0029835
0.00323867
0.0035215
0.00361547
0.00336368
0.00275505
0.00140615
0.000449043
0.000204192
0.000151626
0.000247838
0.000465615
0.00431994
0.00579793
0.00811708
0.0105633
0.0118031
0.012141
0.0119939
0.0116075
0.0110058
0.0105621
0.00998691
0.0099241
0.00959994
0.0096576
0.00962373
0.00968952
0.00962122
0.00963135
0.00968084
0.00968822
0.00955748
0.00931989
0.00880574
0.00772516
0.0060889
0.00529567
0.00497998
0.00513004
0.0051952
0.00540392
0.00297082
0.00292851
0.00323705
0.00373836
0.0042068
0.00455008
0.00476379
0.00482764
0.00483421
0.00475937
0.00459058
0.00436543
0.00404159
0.00370256
0.00338326
0.00327474
0.00303391
0.00297172
0.00292143
0.00336477
0.00397371
0.00630245
0.013187
0.0167809
0.01462
0.013349
0.0129794
0.0138258
0.0153958
0.0167947
0.00264536
0.00471548
0.00586378
0.00606583
0.00601999
0.00566439
0.00534257
0.00483765
0.00468151
0.00431951
0.00421109
0.00413665
0.00408401
0.00407967
0.00411222
0.00433969
0.00435967
0.00438195
0.00408178
0.00370947
0.00319891
0.00329978
0.00580862
0.00846402
0.00846296
0.00841634
0.00847805
0.00855148
0.00855387
0.00860905
0.00840732
0.00914484
0.00917397
0.0089647
0.0086559
0.0083318
0.00800155
0.0076786
0.00736905
0.00708799
0.00681821
0.00655065
0.00638208
0.00613079
0.00605855
0.00611996
0.00623091
0.00649014
0.00695211
0.00741505
0.00870734
0.0111479
0.011468
0.0102652
0.0104182
0.0110202
0.0115677
0.0115683
0.0108248
0.0100062
0.00631912
0.00918427
0.00823777
0.00759479
0.0102026
0.0128404
0.0135954
0.0133477
0.0123778
0.0112123
0.0103643
0.00978031
0.00938169
0.0092991
0.00956936
0.0101429
0.0108933
0.011416
0.0115437
0.0113728
0.0109412
0.0103805
0.00981185
0.00954247
0.009722
0.0103451
0.010973
0.0105514
0.00790388
0.000771999
6.62764e-06
3.9004e-05
6.78285e-05
3.65974e-05
1.65738e-05
0.00565123
0.023487
0.0260669
0.0252107
0.0243834
0.0237983
0.023443
0.0233246
0.0233045
0.0233373
0.0233474
0.0235428
0.0240411
0.0250817
0.02677
0.0286312
0.029797
0.0298318
0.0262388
0.0197114
0.0146743
0.0136894
0.01209
0.00239204
8.52607e-06
0.00072302
0.00102152
0.00221675
0.00354315
0.00406046
0.00415406
0.00413761
0.0041883
0.00402686
0.00325304
0.00199642
0.00204305
0.0042635
0.00411098
8.87203e-05
0.000126273
0.000225334
0.000414402
0.000456774
0.000419532
0.00034631
0.00030715
0.000299812
0.000319146
0.000334115
0.000354087
0.000353582
0.00035101
0.000361814
0.000377913
0.000397796
0.000423729
0.000438072
0.000475145
0.000496974
0.000497197
0.000451194
0.000400354
0.000317933
0.000243375
0.000184372
0.000162165
0.000135564
0.000101057
0.00242346
0.00195518
0.000631696
0.000302452
0.000300215
0.000424874
0.000487967
0.000523247
0.000627557
0.000802328
0.000948952
0.00106332
0.00103433
0.00093102
0.000859179
0.000765805
0.0007873
0.000743472
0.000771086
0.000805797
0.000809996
0.000811122
0.00078594
0.000758214
0.000860905
0.00110759
0.00182069
0.00222923
0.0020747
0.00157781
0.00203485
0.00332646
0.00425232
0.00364899
0.0027805
0.00204217
0.0019177
0.00209408
0.00215935
0.00206063
0.00183864
0.00160402
0.00139049
0.001269
0.00121238
0.00119198
0.00122122
0.00137399
0.00158851
0.00173004
0.00181145
0.00186232
0.00195904
0.00216881
0.00266166
0.00313386
0.00313216
0.00253533
0.00202552
0.00132377
0.00530757
0.00509932
0.00340448
0.00236224
0.00188412
0.00167403
0.00159679
0.00155339
0.00156392
0.00154672
0.00156198
0.00157028
0.00155555
0.00154709
0.00152117
0.00157581
0.00156594
0.00164518
0.00182909
0.00207364
0.00238074
0.002819
0.00331962
0.0037787
0.00377494
0.0030283
0.00209038
0.00179554
0.00189782
0.00150822
0.00659163
0.00883625
0.00928551
0.00903962
0.00826035
0.00757378
0.00744973
0.00749438
0.00754746
0.00734047
0.0070537
0.00694182
0.00707937
0.00734953
0.00756361
0.00775363
0.0079042
0.00795266
0.00803362
0.00794872
0.00784185
0.00768277
0.007484
0.00743976
0.00751235
0.00772526
0.00801457
0.00823112
0.00801491
0.0062426
0.00322282
0.0024966
0.00175651
0.00213661
0.00432747
0.00698203
0.00552413
0.00352524
0.00240848
0.00181939
0.00147135
0.00132017
0.00133538
0.00161242
0.0019157
0.00224842
0.00237763
0.00240435
0.00252907
0.0027168
0.00300422
0.00333422
0.00367848
0.00351465
0.00275857
0.00131386
0.000401967
0.000166518
0.000178748
0.000378359
0.00616555
0.00816107
0.0122635
0.0132527
0.012498
0.0111217
0.00969593
0.00845543
0.00784624
0.00735011
0.00722317
0.00693129
0.00716252
0.006946
0.00715569
0.00727418
0.00756602
0.00801794
0.0084828
0.00909528
0.00952125
0.00967298
0.00941116
0.00866694
0.00723241
0.00583104
0.00505016
0.00462558
0.00468341
0.00506952
0.0028879
0.00390289
0.00508986
0.00593198
0.00635854
0.00647326
0.0063183
0.00619478
0.00580745
0.00562425
0.00521744
0.00515503
0.00496485
0.00479103
0.00461168
0.0042238
0.00380131
0.00325981
0.00284693
0.00290522
0.00323197
0.00448359
0.00925851
0.0150332
0.0132172
0.0101633
0.00926327
0.0101443
0.0125822
0.0156176
0.00516764
0.00637749
0.00638565
0.00589652
0.00514489
0.00448236
0.00371249
0.00321903
0.00269611
0.00238978
0.00214925
0.00198372
0.00207381
0.00212689
0.00251441
0.00297919
0.00341236
0.00393537
0.0042031
0.0041182
0.00363119
0.00320204
0.00412762
0.00738881
0.00861183
0.00869159
0.00892206
0.00896615
0.00890111
0.00904888
0.010082
0.00965752
0.00929735
0.00883043
0.00825142
0.00776015
0.00717103
0.00670994
0.00611191
0.00560686
0.0051656
0.00477086
0.00442722
0.0041696
0.00405383
0.00421645
0.00446567
0.00485568
0.00544962
0.00618599
0.00735127
0.00967461
0.0114335
0.010515
0.0106937
0.0118448
0.0128237
0.0129985
0.0118116
0.00999757
0.00858291
0.00881732
0.00855278
0.0108144
0.013108
0.013243
0.0118892
0.0105061
0.00940717
0.00896025
0.00851737
0.00822834
0.00808962
0.00835999
0.0092596
0.0108181
0.0124195
0.0129722
0.0129375
0.0121511
0.0108554
0.00977677
0.00903717
0.00845109
0.00826098
0.00885945
0.00999868
0.0105567
0.00931463
0.00336404
0.000396054
0.00588482
0.00757125
0.000676654
0.00184344
0.0188558
0.0255546
0.0252951
0.0242456
0.0237119
0.0235619
0.0236375
0.0237719
0.0238957
0.0239768
0.0239486
0.0238545
0.0238632
0.0244626
0.0262489
0.028954
0.0307009
0.0307092
0.0268006
0.0172672
0.0113462
0.012033
0.0122345
0.00436345
1.15145e-05
0.000768459
0.00176377
0.00393727
0.00431564
0.00391376
0.00339991
0.00312157
0.00328053
0.00401865
0.00402934
0.00280736
0.00196763
0.00343963
0.00420256
9.12069e-05
0.000160325
0.000371949
0.000636211
0.000634226
0.000474228
0.000370755
0.000309705
0.000288402
0.000312619
0.000325073
0.000324551
0.000311357
0.000317085
0.000345495
0.000386305
0.000420408
0.000486734
0.000551426
0.000608932
0.000645451
0.000652262
0.00061596
0.000518782
0.00041739
0.000304407
0.000218361
0.00017622
0.000143061
0.000103708
0.00239694
0.00174021
0.000555271
0.000359934
0.000500355
0.000791894
0.000766927
0.000667202
0.000757485
0.000909276
0.00108234
0.00103601
0.00086883
0.000755604
0.000690919
0.000664052
0.000658813
0.000666739
0.00066615
0.000709208
0.000760752
0.000829349
0.000855942
0.000815845
0.000777941
0.000909545
0.00124989
0.00198499
0.00222074
0.00181122
0.00204623
0.00375077
0.00483079
0.00420978
0.00268379
0.00194163
0.00201217
0.00210532
0.00192893
0.00160498
0.00128897
0.001111
0.00098189
0.000893388
0.00083086
0.000800505
0.000796242
0.000840746
0.000962222
0.00114445
0.00138229
0.00160051
0.00174527
0.00191998
0.0022965
0.00287536
0.00326618
0.00319534
0.00268509
0.00167918
0.00542443
0.0033147
0.0020315
0.00163932
0.00153994
0.00152083
0.0015388
0.00157057
0.00159855
0.00162767
0.00166862
0.00169608
0.00171029
0.00168562
0.00169237
0.00164843
0.00162913
0.00159374
0.00160029
0.00168077
0.00194235
0.00232577
0.00280707
0.00331352
0.00376961
0.00381138
0.00317195
0.00267045
0.00243762
0.00175998
0.00710936
0.00897266
0.00888009
0.00782099
0.00689299
0.0067358
0.00690073
0.00711104
0.0071411
0.00687486
0.00682779
0.00713127
0.00756738
0.00796309
0.00813813
0.00836252
0.00838153
0.00854473
0.008599
0.00859203
0.00846274
0.00825708
0.00792271
0.00756013
0.00734764
0.00735622
0.00761355
0.0079807
0.00811036
0.0068737
0.00324287
0.00242717
0.00223378
0.00418601
0.00741678
0.00590186
0.00291647
0.00213804
0.00202717
0.00176298
0.00147142
0.00166535
0.00239794
0.00352761
0.00469402
0.00542199
0.00563698
0.00519272
0.00438204
0.0035797
0.0031936
0.00323124
0.0035687
0.00385993
0.00360543
0.00255858
0.00083323
0.000216548
0.000158547
0.000294704
0.00735874
0.0109035
0.0139199
0.0124002
0.01002
0.00814974
0.00711346
0.00672347
0.00692994
0.00707949
0.00759603
0.00789054
0.00817019
0.00817007
0.00799921
0.00770024
0.0074925
0.00742635
0.0074605
0.00783412
0.00853539
0.00935141
0.00965085
0.00928388
0.00824559
0.00677346
0.00561957
0.0050545
0.00483844
0.00497539
0.00443557
0.0056817
0.00658463
0.00692035
0.00685758
0.00645672
0.00572843
0.00493835
0.00420077
0.00364456
0.00322126
0.00311029
0.00311234
0.00333844
0.00370046
0.00390427
0.00391482
0.00361309
0.00305459
0.00275272
0.0028107
0.0034334
0.00663137
0.0126067
0.0130626
0.00965159
0.00830241
0.00819292
0.0101251
0.0142013
0.00710481
0.00677661
0.00611852
0.00541962
0.00462303
0.00380538
0.00290142
0.00229443
0.00171679
0.00128908
0.00108208
0.00101075
0.00103255
0.00114332
0.00120087
0.00165384
0.00212575
0.00287518
0.00360657
0.0040947
0.0039234
0.00336318
0.00338925
0.00575162
0.00831314
0.00888647
0.00917289
0.00918847
0.0090546
0.0092647
0.00936423
0.00946098
0.00906548
0.00830018
0.00753017
0.00691645
0.00612264
0.00530654
0.00439086
0.00341038
0.0028438
0.00227137
0.00205488
0.00177284
0.00180563
0.00206055
0.00255687
0.00311
0.00387553
0.00483318
0.00606084
0.00825284
0.0109497
0.0109644
0.0106246
0.0116787
0.0129225
0.0137519
0.0125963
0.0100086
0.00885794
0.00867878
0.0102107
0.0126962
0.0130647
0.0116537
0.0101296
0.00937572
0.0090061
0.00868473
0.00830905
0.00785167
0.00740656
0.00727387
0.00796295
0.0097238
0.0119029
0.0130704
0.0126316
0.0107807
0.00784736
0.00544966
0.0049041
0.00536714
0.00603516
0.00708757
0.00880376
0.0102207
0.00979691
0.00500772
0.00798197
0.0178747
0.0148545
0.00485957
0.0122741
0.0241084
0.0255646
0.0245513
0.0238345
0.02362
0.0235147
0.0234566
0.0234568
0.0235893
0.0239817
0.0244486
0.0247124
0.0246347
0.0246191
0.0257353
0.029107
0.0318431
0.0311868
0.025677
0.0140911
0.00850644
0.0110632
0.0122339
0.00438156
1.07989e-05
0.000875517
0.00266657
0.00423328
0.00357371
0.00250941
0.00203002
0.00178663
0.00182363
0.00258576
0.00357103
0.00294724
0.00206566
0.00317243
0.00415924
9.81694e-05
0.000211136
0.000576743
0.000921642
0.000822536
0.000581317
0.000412851
0.000310398
0.000288563
0.000291516
0.000298186
0.00028365
0.000279332
0.000302785
0.000362076
0.000413718
0.000517539
0.000611165
0.000706544
0.000775225
0.000810985
0.000804575
0.000779743
0.000656843
0.000498126
0.000364946
0.000252055
0.00019267
0.000151233
0.000105566
0.00233973
0.0017047
0.00063652
0.00051107
0.00106681
0.00157559
0.00108011
0.000758815
0.000844547
0.000987784
0.00106433
0.000879186
0.000763281
0.000665298
0.000680492
0.000694093
0.000737019
0.000733819
0.000700008
0.000680301
0.00074609
0.000825954
0.000892513
0.00088311
0.000822489
0.000816141
0.00104459
0.00162438
0.0021223
0.00185081
0.00211364
0.00412886
0.00543574
0.00449729
0.00241775
0.0019276
0.00204772
0.00195532
0.00167774
0.0013766
0.00117913
0.00103235
0.000921537
0.000848456
0.00079871
0.000754349
0.000702055
0.000663951
0.000684715
0.000782268
0.000970074
0.00116696
0.00145029
0.00167232
0.00199844
0.00258379
0.00315509
0.00335541
0.00298184
0.00185643
0.00514183
0.00209192
0.00164092
0.00153907
0.00152823
0.00154564
0.00155365
0.00157099
0.00161203
0.00167118
0.0017671
0.00185233
0.00192623
0.00195408
0.00195968
0.00193898
0.00184499
0.00173659
0.00163903
0.00163077
0.00172315
0.00200792
0.00237249
0.00287682
0.00334509
0.00377959
0.00366009
0.00321344
0.00279154
0.00195377
0.00740013
0.00887038
0.00807974
0.00687559
0.00649886
0.00650591
0.00664358
0.00686584
0.00684364
0.0066536
0.00691949
0.00741433
0.00776313
0.00808322
0.00822848
0.00842349
0.00844624
0.00850387
0.00848865
0.00856495
0.00857801
0.00858122
0.00831183
0.00787717
0.00740972
0.00715017
0.00728976
0.00773799
0.00803733
0.00713152
0.00319521
0.0025683
0.00357297
0.00701582
0.00726293
0.00302475
0.00254954
0.00326369
0.00280795
0.00196478
0.00172176
0.00264359
0.00463274
0.00664607
0.00776028
0.00827829
0.00829719
0.0081012
0.00706991
0.00550238
0.00410633
0.00351816
0.00354232
0.00393371
0.00409706
0.0033789
0.00151518
0.000268228
0.000155127
0.000293667
0.00864191
0.0136713
0.0132577
0.0101772
0.00806614
0.00710425
0.00692664
0.00743292
0.00830348
0.00927581
0.0101152
0.0107657
0.0110109
0.0111991
0.0111228
0.010634
0.00984719
0.00885006
0.00809236
0.0076794
0.00779783
0.00856086
0.0094828
0.00956904
0.00892395
0.00769296
0.00638891
0.00555327
0.00505879
0.00499122
0.00564272
0.00657568
0.00702373
0.00702422
0.00648679
0.00536854
0.00416484
0.00294932
0.00223217
0.00158808
0.00130106
0.00115844
0.00115745
0.00124073
0.00182435
0.00234851
0.00301802
0.00330394
0.00322571
0.00280695
0.00260985
0.00297981
0.00498898
0.0101231
0.0126334
0.0104273
0.00855336
0.00771167
0.00824179
0.0125142
0.00755986
0.00667523
0.00617613
0.00556283
0.00457053
0.00334531
0.00223269
0.00155424
0.00102019
0.000944902
0.000813008
0.000808715
0.00080357
0.00084438
0.000912394
0.000997652
0.00121638
0.00187102
0.0027081
0.00361412
0.00395776
0.00361787
0.00325808
0.00451344
0.00728546
0.0088093
0.00926341
0.00915411
0.00906534
0.00937039
0.00915477
0.00935855
0.00849207
0.0076146
0.00698488
0.00627209
0.00513834
0.00384611
0.00255067
0.00151021
0.000921636
0.000653656
0.000488992
0.000475869
0.000478911
0.000628763
0.000926422
0.00162704
0.00247495
0.00353105
0.00491358
0.00707732
0.0101878
0.0113462
0.0108456
0.0111994
0.0124084
0.0139459
0.012891
0.0100189
0.00896658
0.00928976
0.0118032
0.0130359
0.01193
0.0103064
0.00955184
0.00932891
0.0091857
0.00895695
0.00860513
0.00806424
0.00726224
0.00641417
0.00610247
0.00731933
0.00999032
0.012116
0.0121507
0.00979341
0.00538201
0.00145609
0.000734946
0.00159769
0.00318407
0.00529345
0.00769921
0.0099087
0.00988745
0.00561008
0.0138132
0.0245087
0.0167226
0.0101316
0.0189844
0.0254747
0.0251799
0.0240215
0.0233468
0.0226378
0.0215772
0.0205787
0.0199891
0.0202661
0.0214209
0.0230021
0.0244747
0.0251737
0.0249575
0.0248989
0.0279
0.0325943
0.0321328
0.0249135
0.0129381
0.00806267
0.0107596
0.0117392
0.00311586
7.90872e-06
0.000966276
0.00309566
0.00374249
0.00248823
0.00174644
0.0014666
0.00135782
0.00136869
0.00183868
0.00278555
0.00251709
0.00212725
0.00322082
0.00414855
0.000105065
0.000294476
0.000861569
0.00132792
0.00114764
0.000754947
0.000484374
0.000333792
0.000285621
0.000275664
0.000271658
0.000252232
0.000260997
0.000309138
0.00039646
0.000487479
0.000605185
0.000713336
0.000835393
0.000941841
0.00102942
0.00102072
0.000926322
0.000762488
0.000571425
0.000402065
0.000273935
0.000203146
0.000154407
0.000104472
0.00226499
0.00179349
0.000787618
0.000879074
0.00226114
0.00278214
0.00141201
0.000824788
0.000886501
0.00101942
0.000994428
0.000809074
0.000707883
0.000671254
0.000781435
0.000899611
0.00107946
0.00110455
0.000999565
0.000833061
0.000792847
0.000873652
0.000937411
0.000939677
0.000865429
0.000813746
0.000927409
0.00130706
0.00192942
0.00180172
0.00205576
0.00451633
0.00594802
0.00439826
0.00221189
0.00193086
0.00199459
0.00184717
0.00164824
0.00146751
0.0012649
0.00112209
0.000996814
0.000931888
0.000890982
0.000840726
0.000746101
0.000687687
0.000637029
0.000634067
0.000746238
0.000952743
0.00113514
0.00141218
0.00177199
0.00236098
0.00302216
0.00342182
0.00309049
0.00191277
0.0040051
0.00171181
0.00158228
0.00154232
0.00155969
0.00155664
0.0015281
0.00152269
0.0015864
0.00170802
0.001873
0.00201807
0.00214189
0.00218465
0.00221615
0.00217896
0.00208885
0.00196339
0.00181311
0.00172302
0.00170237
0.00182804
0.00210814
0.00250635
0.00301537
0.00347626
0.00372114
0.00340774
0.00296508
0.00204963
0.00756941
0.00858937
0.0074244
0.00673447
0.00661183
0.00639633
0.00648297
0.00671104
0.00665269
0.00659234
0.00699087
0.00734302
0.00751317
0.00773128
0.00802051
0.00831307
0.00840202
0.00840312
0.0084131
0.00843864
0.00851832
0.00864749
0.00850355
0.00811311
0.00748944
0.00701744
0.00705412
0.00756923
0.00795721
0.00716711
0.00315255
0.00306537
0.00574869
0.00783083
0.00443643
0.00320369
0.00464824
0.00431821
0.00247527
0.00140291
0.00193004
0.00416055
0.00687392
0.00829907
0.00846373
0.00831253
0.00826106
0.00834746
0.00794466
0.00669581
0.00493897
0.00382252
0.00365581
0.00403596
0.00443535
0.00402353
0.00193526
0.000268815
0.000145121
0.000288225
0.0104129
0.0141846
0.0114401
0.00903448
0.0076416
0.00723686
0.00763102
0.0085608
0.00977055
0.0107784
0.0113962
0.0119149
0.012114
0.0124838
0.0125141
0.0125552
0.0121081
0.0111195
0.00973968
0.00843714
0.00781096
0.0080275
0.00898053
0.0096016
0.00926964
0.00830093
0.0070163
0.00605874
0.00542271
0.0050823
0.00643735
0.00697578
0.0071198
0.00685234
0.00582231
0.00428046
0.00289435
0.00173572
0.00122359
0.000903099
0.000819487
0.000689389
0.000652899
0.000677752
0.00081601
0.00109365
0.00184986
0.00252053
0.00297467
0.00287195
0.00257239
0.00275344
0.00410448
0.00823146
0.0116345
0.011051
0.009485
0.007972
0.00797392
0.0110327
0.00744804
0.00690422
0.00661601
0.00586221
0.00449443
0.00293016
0.0015508
0.00109602
0.000820134
0.000823749
0.000761586
0.000817099
0.000837649
0.000864415
0.000843888
0.000896241
0.00092715
0.00124593
0.0019763
0.00304561
0.00375697
0.00370149
0.00323988
0.00380505
0.00605132
0.00817076
0.00889544
0.00887471
0.00900002
0.00943163
0.00958117
0.00903215
0.00786312
0.00729233
0.00684895
0.00586593
0.00410621
0.00253181
0.00101953
0.000563551
0.000374693
0.000272366
0.000236398
0.000219708
0.000233827
0.000281538
0.000405852
0.000714773
0.00130774
0.00248015
0.00392519
0.00613336
0.00939383
0.0114835
0.0112472
0.0112705
0.0122901
0.013897
0.0128304
0.010103
0.00913999
0.0103091
0.0125013
0.0124583
0.0108199
0.0097554
0.00956344
0.00958129
0.00955646
0.00944929
0.00921276
0.00880365
0.00802932
0.00663691
0.00523697
0.00500457
0.00735305
0.010535
0.0117515
0.0102289
0.00581045
0.00104935
0.000328177
0.000449247
0.00161012
0.00407615
0.00724034
0.0099048
0.00990793
0.00569178
0.015909
0.0262386
0.0181859
0.014763
0.0223294
0.0256375
0.0247375
0.0234757
0.0221974
0.0203368
0.0178653
0.0159689
0.0151382
0.0156024
0.0172282
0.0197992
0.0226924
0.0249831
0.0255013
0.0247462
0.0257088
0.0324823
0.0339582
0.0255094
0.0132263
0.00826212
0.0103047
0.00984166
0.000605189
6.54514e-06
0.00102274
0.00286998
0.00298515
0.0018736
0.00143244
0.00127759
0.0011522
0.00117136
0.00149222
0.00205714
0.00211929
0.00231756
0.00335425
0.00396249
0.000121188
0.000453239
0.00128406
0.00174856
0.00141281
0.000898858
0.000566837
0.000374717
0.000286358
0.000263647
0.000247146
0.000228082
0.000252372
0.000319336
0.000422023
0.000542655
0.000657461
0.000743625
0.000891356
0.00106016
0.00119018
0.00114284
0.00100304
0.000786553
0.000561343
0.00040072
0.000272337
0.000205527
0.000152719
0.000101569
0.00215772
0.00193931
0.00117492
0.00157842
0.00358503
0.00393017
0.00192189
0.000844057
0.000912403
0.00101696
0.000961363
0.000772118
0.000705655
0.00071942
0.000850636
0.00107758
0.00125998
0.00129323
0.00118949
0.00100998
0.000943446
0.000958698
0.0010134
0.000992162
0.0008938
0.000800464
0.000866426
0.00115646
0.00172774
0.00170285
0.00216754
0.00482831
0.00620154
0.00407236
0.00206189
0.00188663
0.0019575
0.00185125
0.00178047
0.00174468
0.00152657
0.00124728
0.00109073
0.00100591
0.000964959
0.000891711
0.000791311
0.000692773
0.00062018
0.000599297
0.000626
0.000784036
0.000994466
0.00119681
0.00161192
0.00224204
0.00297093
0.00339233
0.00302462
0.00176953
0.00298726
0.00160513
0.00159871
0.00163142
0.00166913
0.00163373
0.00156581
0.00152036
0.00156824
0.00173227
0.00192052
0.00209508
0.00226219
0.0023572
0.00239418
0.00238103
0.00226733
0.00216195
0.00199874
0.00186101
0.00176877
0.00181193
0.00197938
0.00228374
0.00276959
0.00326918
0.00358648
0.00339516
0.00301983
0.00208939
0.00767007
0.00826102
0.00728785
0.00709956
0.00686987
0.00632297
0.00635026
0.00661682
0.0065229
0.00649465
0.00681306
0.00695785
0.00696759
0.00719583
0.00764464
0.00809758
0.00829784
0.00844218
0.00846033
0.00845323
0.00854808
0.00866243
0.00854616
0.00810076
0.00741866
0.00684902
0.00691152
0.00750883
0.00791921
0.0070586
0.00320721
0.00445971
0.00743757
0.00636611
0.00409359
0.00543621
0.00600232
0.00380181
0.00157631
0.00107879
0.0023946
0.00534161
0.00757064
0.00824818
0.00759377
0.00684829
0.00681734
0.00742609
0.00747986
0.00661082
0.00504426
0.0039672
0.00380055
0.00430051
0.00483797
0.00441629
0.00179378
0.000211784
0.000145585
0.00034285
0.0117051
0.0138483
0.0108036
0.00891711
0.00767431
0.0075194
0.00815951
0.00924691
0.0103834
0.0110385
0.0113962
0.0115545
0.0118107
0.012218
0.0126466
0.0130093
0.01305
0.0125326
0.0112758
0.00951116
0.00821715
0.0079254
0.0085731
0.00944874
0.00945184
0.00864384
0.00739013
0.00638103
0.00558156
0.00509668
0.00707652
0.00726593
0.00714934
0.00663048
0.00531302
0.00347925
0.00223573
0.00120995
0.00100547
0.000779358
0.000720451
0.000629271
0.000599587
0.000549601
0.000587956
0.000643634
0.00106484
0.0017786
0.00256462
0.00276601
0.00255141
0.00259581
0.003473
0.00672468
0.0102423
0.0108603
0.00963089
0.00801144
0.00762292
0.0101958
0.00735575
0.00734204
0.0070828
0.0062311
0.0045468
0.00269961
0.00124816
0.000957167
0.000808836
0.000846559
0.000863391
0.000912824
0.000907101
0.000914963
0.000875191
0.000884332
0.000859324
0.00103603
0.00152424
0.00265361
0.00342164
0.00365966
0.00323883
0.00338554
0.00515347
0.00729925
0.00815093
0.008512
0.00902839
0.00957172
0.00981542
0.00852742
0.00755275
0.00729066
0.00687388
0.005527
0.0032656
0.00168902
0.000533446
0.000388494
0.000232442
0.0001944
0.000155383
0.000147375
0.000157221
0.000181779
0.000245987
0.000381394
0.000744397
0.00170319
0.003181
0.00543827
0.00870514
0.0114047
0.0118051
0.0118308
0.0127715
0.014078
0.0128048
0.010163
0.00930535
0.0108984
0.0125198
0.0116686
0.0101888
0.00966394
0.00967588
0.00966133
0.00963035
0.00964986
0.00962618
0.00941789
0.00893321
0.00783565
0.00564858
0.00381604
0.00445905
0.00793532
0.010701
0.0111172
0.00838835
0.00354031
0.000705787
0.000519979
0.0015113
0.00437366
0.00774494
0.0101442
0.00958074
0.00556571
0.0139271
0.0268311
0.0203562
0.0183755
0.0238796
0.0256244
0.024317
0.0227462
0.0205893
0.0176313
0.0141318
0.0117451
0.0107169
0.0112484
0.0133377
0.0163804
0.0201482
0.0237969
0.0258524
0.0252968
0.024069
0.0309659
0.0358841
0.0272981
0.013613
0.00765988
0.00874049
0.00655976
0.000120575
4.63531e-06
0.00097618
0.00239469
0.00221974
0.00150216
0.00127399
0.00117116
0.00105879
0.00106598
0.00126089
0.00178258
0.00223382
0.00258628
0.00227584
0.00198643
0.000132813
0.000613527
0.00162993
0.00198525
0.00146245
0.00101745
0.000717962
0.000424535
0.000292699
0.000251831
0.000227088
0.000211895
0.000245405
0.000330133
0.000459487
0.000567214
0.000658667
0.00075544
0.000948819
0.00112953
0.0011891
0.00107802
0.000865418
0.000673936
0.00048869
0.000350741
0.000238631
0.000188038
0.000135398
9.79942e-05