/*--------------------------------*- C++ -*----------------------------------*\
| =========                 |                                                 |
| \\      /  F ield         | OpenFOAM: The Open Source CFD Toolbox           |
|  \\    /   O peration     | Version:  2.1.1                                 |
|   \\  /    A nd           | Web:      www.OpenFOAM.org                      |
|    \\/     M anipulation  |                                                 |
\*---------------------------------------------------------------------------*/
FoamFile
{
    version     2.0;
    format      ascii;
    class       volScalarField;
    location    "0.005400000";
    object      sL;
}
// * * * * * * * * * * * * * * * * * * * * * * * * * * * * * * * * * * * * * //

dimensions      [0 1 -1 0 0 0 0];

internalField   nonuniform List<scalar> 
12384
(
12.9475
11.1726
9.96983
9.48485
9.29205
9.35378
9.31267
9.37227
9.51675
9.75888
10.7871
12.8667
16.6354
9.99414
2.07613
1.80372
1.69787
1.82186
2.02683
2.19418
2.27298
2.33138
2.37062
2.42715
2.51386
2.62178
2.72878
2.84894
2.95112
3.01411
3.04583
3.02989
3.01903
2.91332
2.92091
2.81741
2.80887
2.71806
2.63093
2.51042
2.38652
2.29323
2.33386
2.39883
3.6503
3.72203
3.61
3.21401
3.04075
2.92208
2.98775
2.915
2.98433
2.98
3.03938
3.04913
3.10664
3.02329
3.0811
2.92728
2.9427
2.73508
2.75987
2.53588
2.57525
2.37611
2.37764
2.21928
2.189
2.18417
2.23685
2.05325
2.04658
2.07796
2.32344
2.60043
3.32126
3.60343
3.52464
3.67915
3.60029
3.63675
3.65225
3.65462
3.6234
3.54609
3.42257
3.27434
3.09452
2.9126
2.82534
2.75508
2.66579
2.73798
2.77668
2.85043
2.93106
3.01845
2.8384
2.11101
1.85343
1.90277
1.92623
1.90676
2.65361
2.82299
2.87963
2.9142
2.87083
2.8044
2.81192
2.6321
2.6904
2.49465
2.52686
2.35671
2.23189
2.17345
2.01162
1.98575
1.84312
2.09057
1.99823
2.25181
2.29566
2.40372
2.69827
2.78916
2.80815
2.90417
2.93955
2.82151
2.76103
2.71568
2.70609
3.6904
3.74934
3.63194
3.54106
3.46712
3.37002
3.30958
3.23256
3.19859
3.17551
3.11703
3.00564
3.0953
2.84169
2.7844
2.80402
2.53416
2.48336
2.37596
2.35879
2.27414
2.33414
2.35165
2.45961
2.65478
2.95118
3.38411
3.31206
2.86235
1.70338
1.66012
1.22808
1.17872
1.16553
1.17022
1.2235
1.43519
1.57842
1.63256
1.68709
1.68839
1.64835
1.63902
1.51051
1.5136
1.34671
1.37976
1.34707
1.3262
1.4223
1.39228
1.36881
1.29178
1.28724
1.15921
1.20448
1.34063
1.5037
1.57166
2.12932
2.14973
2.25559
2.44179
2.6211
2.78671
2.80343
2.77058
2.88043
2.57987
2.75921
2.35482
2.53308
2.13811
2.30789
2.00312
2.12982
2.09023
2.10616
2.28073
2.31604
2.42461
2.55358
2.42858
2.49734
2.81778
3.06937
3.13926
3.24075
3.26382
2.42595
2.53925
2.58383
2.59251
2.5076
2.47381
2.45442
2.23307
2.34293
2.02061
2.05194
2.0505
2.02
1.91735
2.18976
2.08658
2.41241
2.45594
2.68872
2.75567
2.67893
2.8954
3.04358
2.91215
2.83787
2.83069
2.73836
2.74619
2.63697
2.59971
3.21121
3.11637
2.95876
2.77263
2.62511
2.55742
2.30463
2.3612
1.87483
2.09022
1.72196
1.86259
1.70922
1.83385
1.71175
2.03467
1.95465
2.31098
2.32723
2.60173
2.7108
3.13296
3.43531
3.27632
2.93212
2.84747
2.84388
2.85887
2.87705
2.86562
1.75017
2.02993
2.17211
2.19804
2.13058
2.05544
1.92491
1.79477
1.50896
1.59958
1.47004
1.46129
1.46757
1.46232
1.4588
1.51192
1.67149
1.92232
2.17038
2.38621
2.52851
2.49259
2.45771
2.46094
2.43293
2.38369
2.40189
2.40822
2.44898
2.43917
1.19582
1.41374
1.49149
1.40805
1.39429
1.4421
1.49263
1.67558
1.81825
1.84192
1.90308
1.97208
1.99196
2.0038
2.01383
2.00176
1.9759
1.93034
1.87192
1.80235
1.72824
1.67411
1.58674
1.62622
1.61696
1.68938
1.70004
1.5254
1.35972
0.81259
0.47294
0.51146
0.517636
0.501614
0.514391
0.56045
2.60697
3.46821
3.3895
3.35089
3.21122
3.21234
3.09212
3.10912
3.07981
3.12419
3.15961
3.21946
3.24849
3.30959
3.33557
3.39802
3.30089
3.26171
2.90352
2.7376
2.55261
2.22565
1.10915
0.791244
7.40261
7.30129
7.56949
8.32699
9.26106
9.78513
9.96868
9.63648
9.04946
8.47577
8.67203
9.96122
14.7648
11.9153
1.98829
1.7575
1.8264
2.19914
2.53788
2.66116
2.62645
2.60578
2.64763
2.79998
3.00989
3.25734
3.49796
3.68447
3.81512
3.90118
3.96604
4.01534
4.06872
4.08491
4.02721
3.87959
3.62162
3.31224
3.00912
2.73574
2.51504
2.34489
2.30459
2.32611
3.69032
3.72753
3.34767
2.97125
2.83528
2.82403
2.95108
3.03418
3.17795
3.34316
3.50306
3.62275
3.63185
3.51849
3.44528
3.27079
3.19377
3.08524
2.98721
2.88266
2.76336
2.63918
2.48965
2.36292
2.222
2.16951
2.21823
2.19397
2.20981
2.31731
2.32197
2.73565
3.46979
3.58146
3.44295
3.33653
3.1498
3.09666
3.09978
3.11776
3.11343
3.06986
2.96362
2.81555
2.65792
2.45891
2.34375
2.26836
2.27159
2.28754
2.34022
2.47289
2.63262
2.79221
2.88725
2.52794
2.0626
1.87164
1.82339
1.82404
2.66715
2.79371
2.91301
2.9954
3.06596
3.08328
3.14679
3.09581
3.11463
3.01704
3.02597
2.84112
2.8408
2.61399
2.52993
2.44886
2.39162
2.44174
2.39433
2.45785
2.39415
2.43735
2.59153
2.75163
2.82901
2.79577
2.78076
2.65691
2.61175
2.6077
3.02961
3.69574
3.60548
3.43388
3.2932
3.20963
3.13722
3.11333
3.10847
3.1743
3.24855
3.40412
3.48587
3.54962
3.57568
3.59318
3.3146
3.43249
3.17868
3.00222
2.96919
2.78552
2.7482
2.62053
2.57554
2.6169
2.78177
3.16459
3.49291
3.31174
1.70384
1.42469
1.20872
1.1929
1.34151
1.7646
2.10608
2.09544
1.97193
1.78566
1.65026
1.57033
1.48059
1.43926
1.31659
1.33682
1.27393
1.28796
1.29597
1.3298
1.51716
1.51188
1.49483
1.57953
1.4162
1.30964
1.275
1.27221
1.38048
1.54189
2.85332
3.09942
3.26794
3.33963
3.36494
3.34657
3.32417
3.21564
3.21074
2.97417
2.99323
2.68391
2.71738
2.44356
2.45536
2.21682
2.32006
2.23023
2.17678
2.31066
2.30877
2.45566
2.51737
2.53356
2.52841
2.54835
2.5526
2.67001
2.8065
2.99923
2.85592
2.84153
2.8021
2.78123
2.76687
2.65336
2.68131
2.44414
2.44445
2.25829
2.19564
2.04626
2.02084
1.97828
2.08867
2.11645
2.27545
2.343
2.48712
2.61405
2.65033
2.75702
3.03502
3.05015
3.06952
3.14883
3.08647
3.04611
2.89029
2.77121
3.04657
2.8324
2.66369
2.54158
2.43519
2.42663
2.20941
2.13599
1.86546
1.82043
1.61698
1.66019
1.61892
1.56524
1.64082
1.69284
1.85759
2.05214
2.06026
2.42929
2.55261
2.89431
3.34158
3.34408
2.85027
2.74161
2.83165
2.90352
2.9017
2.85728
2.15434
2.3363
2.31588
2.19954
2.08661
1.92094
1.65796
1.66298
1.44419
1.43591
1.4366
1.42819
1.42707
1.42035
1.41361
1.41169
1.40862
1.55171
1.78765
2.02542
2.37545
2.56218
2.50567
2.45516
2.37505
2.33054
2.3247
2.33593
2.33484
2.33101
1.40836
1.47818
1.45309
1.44084
1.4939
1.78995
1.89529
1.85575
1.91661
1.77432
1.79135
1.80562
1.80825
1.83315
1.88841
1.95498
2.00508
2.01359
1.96243
1.89134
1.77836
1.70998
1.63672
1.56433
1.59581
1.64149
1.68358
1.6232
1.44464
1.13881
0.658449
0.81038
0.878076
0.831842
0.697262
1.36992
3.24326
3.48855
3.38382
3.31746
3.22312
3.1405
3.09795
3.04965
3.08357
3.0206
3.08695
3.08857
3.15746
3.20697
3.32918
3.43617
3.45844
3.4036
2.98121
2.69195
2.56983
2.34053
1.23201
0.81855
6.81768
7.49356
9.59669
11.515
12.4842
12.7242
12.8146
12.6506
12.2751
10.8379
8.98506
8.89018
12.2735
12.6791
1.89314
1.7744
2.11631
2.6567
2.85436
2.77911
2.67343
2.64575
2.71788
2.92448
3.22907
3.49121
3.70777
3.81918
3.92434
3.9922
4.07727
4.1952
4.33264
4.4486
4.5745
4.60311
4.41755
4.0911
3.60761
3.14779
2.74831
2.4753
2.33357
2.31731
3.68555
3.63443
3.17511
2.87108
2.84508
2.95517
3.11984
3.20516
3.4946
3.69729
3.92925
3.83232
3.72531
3.36086
3.28042
2.93486
2.99083
2.78571
2.80227
2.73012
2.75604
2.67292
2.64567
2.47128
2.37429
2.18013
2.20175
2.17414
2.26444
2.29819
2.26456
2.88773
3.51659
3.52692
3.1905
3.02433
2.86744
2.88341
2.96329
3.01853
3.01354
2.95587
2.85002
2.72824
2.58332
2.40959
2.26345
2.15599
2.07252
2.02491
2.08595
2.16366
2.28566
2.51363
2.71235
2.7235
2.41774
2.09162
1.93535
1.83324
2.65291
2.80442
3.04978
3.30175
3.44925
3.47664
3.52642
3.46909
3.50842
3.41724
3.42279
3.341
3.25641
3.09188
3.00155
2.9353
2.77725
2.87725
2.75071
2.80215
2.6376
2.55488
2.52881
2.61901
2.7405
2.81255
2.79429
2.7663
2.73495
2.66672
3.21924
3.65141
3.44721
3.30144
3.21093
3.19073
3.16259
3.19679
3.27299
3.42647
3.66692
3.93687
4.09559
4.35353
4.24688
4.48392
4.12428
4.13905
4.06487
3.83533
3.73042
3.52957
3.29519
3.08648
2.85592
2.69008
2.68612
2.95426
3.3808
3.47003
1.6634
1.30761
1.21502
1.47871
1.97794
2.36921
2.08536
1.70336
1.48922
1.38294
1.28841
1.27156
1.22607
1.27232
1.23419
1.34218
1.26495
1.26744
1.27401
1.35175
1.44928
1.48577
1.74328
1.72555
1.6815
1.55667
1.36493
1.27206
1.34592
1.51875
3.09455
3.33208
3.43849
3.45712
3.45126
3.43353
3.47084
3.32104
3.36629
3.07314
3.11433
2.74411
2.86127
2.47545
2.5346
2.36429
2.29524
2.30785
2.22085
2.3466
2.42172
2.44083
2.4908
2.61486
2.55595
2.50832
2.53211
2.45537
2.5624
2.84498
2.9001
2.97664
3.07644
3.1109
3.10778
3.00029
2.98241
2.743
2.73993
2.50555
2.48105
2.29844
2.33375
2.19911
2.31997
2.22925
2.40373
2.38332
2.46073
2.52296
2.56447
2.63142
2.88684
3.08627
3.17133
3.23307
3.15912
3.14929
3.01305
2.78448
2.78613
2.66419
2.61393
2.57611
2.49384
2.4911
2.17959
2.20027
1.79293
1.8295
1.59274
1.63564
1.52714
1.53022
1.59409
1.66242
1.65026
1.90647
1.89587
2.15167
2.38172
2.64162
3.05755
3.42104
2.94208
2.78932
2.97663
3.09098
3.07214
2.97895
2.51779
2.4354
2.28431
2.09136
1.90869
1.79108
1.59519
1.57283
1.41159
1.38821
1.38669
1.37008
1.36273
1.34901
1.34505
1.34656
1.35154
1.36034
1.48153
1.72294
2.06434
2.44412
2.5239
2.43801
2.3789
2.36827
2.35833
2.37416
2.32268
2.28232
1.46241
1.46801
1.46019
1.50427
1.82097
1.87933
1.77356
1.73154
1.64605
1.64294
1.66758
1.60903
1.65864
1.69091
1.79141
1.95261
2.0684
2.08441
2.02006
1.89896
1.74936
1.69585
1.5848
1.56017
1.54759
1.61162
1.66259
1.64718
1.51942
1.29368
1.07468
1.49882
1.62907
1.12207
1.20851
2.7292
3.46957
3.47786
3.44178
3.42437
3.39804
3.40892
3.36891
3.39592
3.33161
3.28087
3.18737
3.15573
3.10604
3.16257
3.25414
3.41347
3.47935
3.36014
2.82242
2.42373
2.5481
2.44705
1.43421
0.841552
6.91917
8.92461
11.9896
12.8217
12.6105
12.151
12.014
11.984
12.6246
12.1687
10.1886
8.74816
10.8983
12.8094
1.80697
1.83505
2.42941
2.98983
3.05284
2.8761
2.74811
2.70523
2.77692
2.96438
3.27593
3.49682
3.61695
3.67711
3.77991
3.94831
4.15192
4.37683
4.59199
4.81028
4.96421
5.05246
5.01885
4.71747
4.2234
3.59894
3.05011
2.63734
2.38362
2.30626
3.64812
3.57912
3.11703
2.86047
2.93985
3.07843
3.19405
3.32494
3.65699
3.88523
4.0026
3.66884
3.3683
3.02567
2.84927
2.73121
2.68342
2.60423
2.4969
2.50923
2.48444
2.59291
2.59885
2.58621
2.44843
2.32748
2.17319
2.19553
2.22855
2.30313
2.2759
2.95544
3.50262
3.47912
3.00343
2.81497
2.75645
2.85374
2.9124
2.90943
2.88257
2.84287
2.79171
2.70674
2.58351
2.46488
2.32454
2.18317
2.09534
2.07638
2.00348
2.00773
2.11206
2.2806
2.53145
2.71492
2.63697
2.40444
2.1631
1.93681
2.7321
3.01709
3.40529
3.5606
3.64438
3.62637
3.62349
3.65338
3.59717
3.56129
3.58931
3.5416
3.51566
3.4397
3.35442
3.25753
3.19293
3.23114
3.11403
3.14073
2.93922
2.81445
2.66183
2.56314
2.64941
2.7408
2.82086
2.8023
2.79135
2.69063
3.30708
3.56623
3.34879
3.28579
3.245
3.23222
3.21458
3.26659
3.35685
3.63518
3.98284
4.29716
4.50897
4.78608
4.59054
4.7851
4.62266
4.42171
4.53664
4.27119
4.23051
4.10556
3.80924
3.6036
3.19785
2.84789
2.68659
2.82564
3.24332
3.52501
1.59804
1.3105
1.40799
1.94172
2.42731
2.13291
1.6153
1.46547
1.40677
1.33871
1.26646
1.30395
1.41911
1.67428
1.82326
1.99044
1.96424
1.81796
1.71223
1.60126
1.47429
1.6844
1.77453
1.86432
1.9858
1.8044
1.51298
1.34805
1.31384
1.47042
3.27395
3.48238
3.52557
3.54127
3.61451
3.57714
3.53367
3.46102
3.41731
3.17733
3.15143
2.86185
2.89811
2.50607
2.6901
2.37528
2.35409
2.35735
2.30645
2.47948
2.45096
2.45355
2.61464
2.61548
2.59766
2.67182
2.55763
2.54149
2.61849
2.83355
3.12492
3.32848
3.44776
3.42936
3.31732
3.15528
3.06972
2.82906
2.73778
2.52738
2.43816
2.39412
2.32184
2.33313
2.38537
2.41218
2.52715
2.48927
2.53686
2.51457
2.52538
2.54291
2.75959
3.05727
3.18958
3.22566
3.25425
3.24387
3.19944
2.998
2.71546
2.70164
2.6957
2.69767
2.57617
2.43533
2.17716
2.07468
1.66265
1.6826
1.43187
1.42342
1.44544
1.4658
1.47454
1.64306
1.59859
1.74684
1.82722
1.94789
2.20052
2.4713
2.77352
3.26178
3.15831
2.86084
3.02703
3.1934
3.17982
3.06882
2.51124
2.40329
2.19819
2.00912
1.78674
1.75782
1.60397
1.51873
1.35088
1.33478
1.29456
1.26187
1.25109
1.23953
1.23646
1.24984
1.27182
1.29504
1.32243
1.46224
1.80984
2.22177
2.49508
2.44003
2.36569
2.37828
2.44519
2.4225
2.33021
2.26224
1.46715
1.46391
1.4951
1.83457
1.89404
1.88442
1.76983
1.85726
1.82857
1.7988
1.77814
1.66635
1.56054
1.57481
1.62176
1.7789
1.94162
1.9857
1.92321
1.74583
1.57517
1.43528
1.35764
1.41337
1.50338
1.56918
1.63898
1.64585
1.54218
1.35466
1.73257
2.32635
2.10828
1.42869
2.10484
3.31616
3.55635
3.55856
3.59263
3.65662
3.69812
3.68383
3.71233
3.65601
3.63532
3.64064
3.44726
3.34543
3.21546
3.1459
3.23814
3.37921
3.48526
3.25209
2.50304
2.18311
2.50195
2.4709
1.46388
0.8071
7.13761
10.1889
12.3975
11.5806
10.1458
9.66909
9.85611
9.95797
11.0129
11.7163
10.4197
8.93308
10.4658
12.6028
1.7756
1.97049
2.75859
3.27344
3.23826
3.09362
2.93902
2.81627
2.8431
3.00255
3.27524
3.40534
3.47422
3.55072
3.79634
4.1037
4.48386
4.82029
5.15596
5.34162
5.53529
5.50758
5.54425
5.1815
4.7152
3.9921
3.34668
2.82211
2.45539
2.32466
3.59468
3.54191
3.11443
2.93909
3.09664
3.1598
3.25709
3.36282
3.80072
3.92325
3.93225
3.33131
3.16349
2.75441
2.83272
2.68104
2.70267
2.49821
2.46381
2.30651
2.36551
2.38924
2.53599
2.56613
2.54261
2.39499
2.26754
2.16627
2.22419
2.27457
2.19326
2.94738
3.46052
3.31518
2.87729
2.70607
2.7202
2.80844
2.8149
2.77264
2.76364
2.75774
2.72289
2.66442
2.59902
2.51212
2.39057
2.24299
2.12317
1.97032
1.89422
1.90408
1.97825
2.13764
2.38661
2.6138
2.69427
2.52145
2.2663
1.98272
2.80399
3.35629
3.58438
3.60927
3.60428
3.59072
3.47238
3.42708
3.42113
3.32608
3.45002
3.44085
3.59487
3.58233
3.62977
3.67278
3.55693
3.56551
3.43122
3.44896
3.24457
3.15785
2.83029
2.72337
2.60027
2.70213
2.78539
2.89081
2.88277
2.80138
3.34899
3.49603
3.33965
3.31832
3.33529
3.28446
3.24912
3.26188
3.43528
3.78841
4.17405
4.52928
4.6051
4.77231
4.76854
4.79287
4.94655
4.67968
4.79929
4.59263
4.48924
4.42198
4.17905
3.98654
3.49927
3.02924
2.70042
2.76362
3.13199
3.51463
1.56055
1.39325
1.7668
2.39305
2.35948
1.65959
1.5699
1.6554
1.49941
1.32813
1.27827
1.49079
1.91358
2.42516
2.61693
2.66431
2.70991
2.52851
2.41432
2.00138
1.91889
1.8134
1.83788
2.08298
2.13185
2.02575
1.71416
1.37219
1.32796
1.49185
3.39162
3.55607
3.64664
3.69956
3.68345
3.67481
3.58635
3.47987
3.41364
3.13738
3.13196
2.86888
2.82014
2.54094
2.60128
2.39151
2.41066
2.38648
2.44814
2.54416
2.42931
2.63863
2.63395
2.6342
2.74858
2.71603
2.6595
2.66205
2.62731
2.87514
3.44552
3.63969
3.66099
3.53615
3.34527
3.14874
2.93894
2.7102
2.63965
2.36121
2.35551
2.23911
2.22866
2.19928
2.36593
2.34796
2.57679
2.56788
2.6223
2.56903
2.53326
2.51813
2.64384
3.00015
3.17178
3.16073
3.11163
3.1815
3.17084
2.98403
2.79019
2.81914
2.81962
2.74313
2.59158
2.35925
2.13066
1.94107
1.63551
1.64816
1.34862
1.38912
1.22718
1.27825
1.41534
1.50167
1.55727
1.65652
1.74764
1.87445
1.99381
2.3372
2.57465
3.0363
3.27005
3.08929
3.15727
3.26442
3.23868
3.12763
2.53156
2.39124
2.10176
1.9107
1.79846
1.83089
1.66107
1.59172
1.3846
1.27789
1.18272
1.14436
1.13269
1.12483
1.1278
1.14416
1.17794
1.22132
1.26195
1.33459
1.60873
2.06092
2.38307
2.43245
2.35459
2.39246
2.45235
2.48482
2.32891
2.26691
1.47069
1.47502
1.75837
1.97985
1.95563
1.96758
2.0945
2.17959
2.28128
2.23055
2.04963
1.9203
1.66451
1.45876
1.42581
1.51335
1.70405
1.8396
1.79204
1.65982
1.4217
1.19757
1.13915
1.20585
1.35467
1.52076
1.60398
1.67032
1.55849
1.37552
1.94877
2.82097
2.22213
1.92906
2.82824
3.51828
3.61631
3.68597
3.78797
3.83713
3.87774
3.90504
3.83818
3.84396
3.81192
3.79825
3.73812
3.54987
3.38593
3.1916
3.1757
3.37376
3.46142
3.19648
2.40894
2.12788
2.48691
2.38985
1.32713
0.804231
7.34527
10.6792
11.423
9.2895
7.83787
7.83123
8.43613
8.8209
9.55635
10.6097
9.73196
8.98295
10.6025
12.6405
1.74092
2.12032
3.0452
3.48193
3.51782
3.42061
3.24732
3.01968
2.92995
3.04988
3.25678
3.29116
3.35332
3.55019
3.95169
4.39699
4.88699
5.36016
5.75228
6.00166
6.136
6.04356
5.94247
5.51505
5.00727
4.2286
3.55413
2.93815
2.50155
2.32031
3.5266
3.49117
3.18539
3.07816
3.26766
3.38558
3.225
3.43418
3.8564
3.94727
3.71142
3.19608
3.004
2.72332
2.98931
2.75934
2.75023
2.62357
2.49022
2.33986
2.23392
2.30688
2.42931
2.56797
2.56422
2.47382
2.30775
2.20069
2.19287
2.30323
2.15791
2.94482
3.41981
3.14254
2.72877
2.65957
2.69441
2.70777
2.66571
2.64857
2.63184
2.62383
2.60751
2.60621
2.55999
2.53101
2.36802
2.3406
2.18604
2.069
2.00232
1.93424
1.92127
2.08519
2.3029
2.57672
2.69408
2.63869
2.40913
2.09311
3.05991
3.54371
3.59012
3.53695
3.45981
3.33685
3.22875
3.09659
3.12987
3.08302
3.30186
3.40318
3.704
3.73263
3.99314
3.98825
3.89283
3.92985
3.69155
3.742
3.51436
3.42268
3.14804
2.8809
2.7202
2.66577
2.7842
2.84503
2.94055
2.86017
3.36983
3.47145
3.36751
3.43283
3.41964
3.31749
3.24934
3.28047
3.47422
3.84885
4.26688
4.41446
4.52949
4.51362
4.75719
4.67528
5.03807
4.82841
4.92429
4.77989
4.63404
4.60015
4.35567
4.15311
3.68983
3.11708
2.69067
2.72359
3.08528
3.50121
1.53344
1.53459
2.1654
2.46676
1.91714
1.75051
1.97581
1.81231
1.41397
1.22556
1.34791
1.85948
2.50875
2.86172
3.00092
2.8061
2.87588
2.77391
2.62372
2.53277
2.18133
1.9337
2.0864
2.15685
2.28603
2.26024
1.79594
1.38309
1.28831
1.43981
3.50711
3.6617
3.74164
3.77643
3.76124
3.68945
3.57477
3.46456
3.31394
3.17249
2.9985
2.98889
2.73906
2.60045
2.55245
2.39648
2.4656
2.45833
2.58187
2.49162
2.60858
2.68725
2.62448
2.77935
2.77503
2.77023
2.83473
2.75186
2.74473
2.93377
3.72151
3.85081
3.76977
3.55857
3.30971
3.07708
2.85898
2.57834
2.57072
2.26606
2.35564
2.0647
2.10687
2.13639
2.21502
2.30508
2.50102
2.5415
2.6921
2.6092
2.59577
2.54052
2.635
2.85164
3.11323
3.25255
3.21479
3.21877
3.34505
3.23715
2.90189
3.00085
2.91436
2.77826
2.57239
2.42597
2.09847
1.98388
1.7109
1.66634
1.44344
1.43569
1.27662
1.27638
1.22619
1.46999
1.44656
1.68459
1.63956
1.88466
1.90518
2.19519
2.43992
2.82018
3.22962
3.24818
3.34059
3.32765
3.25412
3.1578
2.63197
2.36264
2.04053
1.89963
1.91609
1.9754
1.7307
1.6715
1.36878
1.35943
1.15615
1.14958
1.05267
1.04179
1.04779
1.0688
1.10161
1.15226
1.20139
1.2852
1.51379
1.92868
2.31672
2.41279
2.4266
2.40268
2.48754
2.52042
2.35989
2.25074
1.4683
1.51417
1.94452
2.08207
2.10085
2.25939
2.50488
2.69692
2.70779
2.75954
2.55675
2.27521
1.98583
1.58646
1.35945
1.35023
1.44599
1.63856
1.70153
1.66619
1.38726
1.17506
1.06177
1.11618
1.23183
1.41103
1.60882
1.63399
1.53639
1.37624
2.20626
2.99277
2.36388
2.33566
3.20684
3.62333
3.67402
3.81774
3.95747
4.02151
4.07701
4.05271
4.12327
4.0882
4.00472
3.86306
3.94412
3.70719
3.59728
3.2882
3.13351
3.30454
3.48345
3.22122
2.41679
2.05765
2.34562
2.09462
1.1102
0.760722
7.46122
10.2495
9.89821
7.59045
6.53234
6.77319
7.55699
8.11645
8.55612
9.27654
9.02556
9.31527
10.7766
12.1373
1.77048
2.38215
3.27864
3.61408
3.66082
3.68892
3.57881
3.25231
3.0269
3.06173
3.19965
3.18579
3.278
3.53008
4.13425
4.67557
5.24568
5.53937
6.02848
6.2572
6.53974
6.33824
6.16157
5.60825
5.01972
4.27576
3.58981
2.98396
2.50434
2.35134
3.4325
3.47908
3.25737
3.19738
3.48255
3.43287
3.32235
3.43974
3.93172
3.891
3.65351
3.08993
2.96431
2.83597
2.98059
2.83369
2.77556
2.54624
2.4738
2.28083
2.28789
2.27698
2.44741
2.56079
2.58704
2.48795
2.34311
2.20581
2.17866
2.27104
2.03181
2.78469
3.28747
2.93632
2.61635
2.54122
2.62559
2.64474
2.6351
2.63867
2.58162
2.50083
2.48476
2.48798
2.49643
2.41635
2.40314
2.35461
2.26591
2.15438
2.05948
1.96723
1.9997
2.07395
2.31383
2.55064
2.72606
2.67314
2.42991
2.0906
3.28008
3.57626
3.5136
3.39288
3.2607
3.07391
3.03115
2.90329
2.92145
2.93994
3.25752
3.41126
3.96812
4.11575
4.40624
4.36822
4.21714
4.21369
3.97087
3.9991
3.72714
3.71016
3.3536
3.11235
2.82995
2.73868
2.77591
2.91155
2.98864
2.938
3.41265
3.48949
3.46454
3.58175
3.51711
3.31755
3.21832
3.23338
3.43077
3.84176
4.11903
4.16593
4.18681
4.11602
4.46506
4.47833
4.8052
4.86355
4.97791
4.72038
4.73908
4.63723
4.42363
4.18598
3.68365
3.02318
2.64283
2.69371
3.11899
3.49701
1.54319
1.83517
2.41511
2.20794
1.91138
2.19446
2.19365
1.67345
1.26383
1.19697
1.47494
2.18708
2.7682
2.90399
2.93644
2.69942
2.68477
2.69591
2.81628
2.56455
2.27887
2.18082
2.14137
2.28418
2.47306
2.33214
1.79786
1.31847
1.27153
1.43703
3.58392
3.76056
3.8332
3.821
3.76491
3.69477
3.53505
3.44059
3.30892
3.22141
2.97161
3.07302
2.73528
2.72709
2.56666
2.48411
2.50167
2.52693
2.49499
2.61152
2.70708
2.69053
2.78776
2.80508
2.80896
2.90654
2.89179
2.85433
2.84793
3.06303
3.93641
3.99641
3.84194
3.56689
3.26978
2.98284
2.82815
2.51334
2.51227
2.24568
2.17552
1.983
2.05105
1.96205
2.14135
2.15853
2.42509
2.51738
2.65842
2.67882
2.6128
2.61024
2.61969
2.88782
3.12685
3.20251
3.20543
3.16399
3.18677
3.11798
3.08368
3.17646
2.9956
2.84162
2.61706
2.51842
2.08504
2.00787
1.73691
1.71342
1.468
1.47542
1.32789
1.30451
1.1757
1.45116
1.39239
1.69991
1.60155
1.86021
1.85828
2.1189
2.30373
2.68451
3.10232
3.3627
3.40955
3.31135
3.18892
3.1627
2.73208
2.30869
2.04231
1.98363
2.06694
2.049
1.79857
1.69205
1.43947
1.41978
1.15251
1.15817
1.00198
1.00098
1.00041
1.01788
1.05263
1.09607
1.15145
1.31424
1.49986
1.90616
2.25017
2.45794
2.49284
2.4863
2.51087
2.55703
2.35917
2.25939
1.47321
1.77859
2.0828
2.20186
2.35231
2.63009
2.91378
3.11356
3.13704
3.03445
3.02392
2.72954
2.33749
1.91623
1.39916
1.30699
1.33264
1.44271
1.59908
1.63872
1.48267
1.30281
1.13447
1.11159
1.20062
1.45489
1.5762
1.62139
1.5549
1.37259
2.23137
3.08939
2.62381
2.66548
3.36828
3.70614
3.78606
3.87669
4.05533
4.16469
4.13894
4.08687
4.05101
4.03449
4.06852
3.89142
3.97152
3.856
3.69657
3.46527
3.08494
3.24597
3.44734
3.27532
2.35695
1.88967
2.01708
1.69949
0.965323
0.774434
7.31627
9.52388
8.51605
6.61888
6.00303
6.32772
7.1684
7.5649
7.77313
8.59877
9.19413
9.53872
8.68105
8.02843
1.82494
2.57594
3.37923
3.55349
3.67511
3.98034
3.98679
3.44826
3.10478
3.05968
3.12295
3.08234
3.17441
3.54182
4.33888
4.85909
5.26776
5.53785
6.0898
6.37565
6.55201
6.25339
5.8943
5.34515
4.72514
4.07406
3.39281
2.86769
2.45883
2.3449
3.3088
3.47391
3.39631
3.46045
3.65317
3.60493
3.2577
3.55546
3.91779
3.91358
3.63775
3.09205
3.01302
2.84518
2.955
2.8215
2.86684
2.59346
2.54717
2.34243
2.35998
2.40179
2.52483
2.60364
2.60535
2.49193
2.34111
2.20779
2.17313
2.32065
1.9886
2.77981
3.12558
2.8428
2.52838
2.50069
2.51049
2.51329
2.41234
2.34436
2.33178
2.35905
2.35549
2.3558
2.37076
2.38689
2.35556
2.37163
2.34787
2.20455
2.10724
2.00926
2.06555
2.16043
2.34482
2.60659
2.73618
2.69006
2.40621
2.16119
3.53702
3.6244
3.45011
3.25234
3.09075
2.94935
2.86308
2.75965
2.81583
2.80119
3.11581
3.31783
3.96183
4.16772
4.47941
4.38941
4.39052
4.40098
4.25827
4.19366
3.97985
3.82014
3.6095
3.23284
2.97494
2.76101
2.81944
2.90831
3.05205
2.96389
3.45116
3.53569
3.63767
3.76225
3.57547
3.33033
3.20901
3.17006
3.37372
3.67107
3.9077
3.86005
3.7609
3.72938
3.94231
4.31522
4.48259
4.55108
4.93523
4.68705
4.68953
4.59541
4.35557
4.01716
3.37929
2.80741
2.57458
2.73956
3.22811
3.50195
1.57182
2.0679
2.45612
2.13742
2.22829
2.51166
2.20954
1.53363
1.21226
1.1979
1.52948
2.1621
2.73723
2.84522
2.80575
2.60745
2.66245
2.65678
2.68775
2.42552
2.38663
2.21014
2.23104
2.5014
2.56582
2.31528
1.54737
1.20386
1.21295
1.33384
3.73125
3.95453
3.94705
3.86195
3.76403
3.68586
3.54752
3.45771
3.31869
3.26868
3.04914
3.08341
2.77755
2.83911
2.58353
2.64659
2.56973
2.51595
2.51208
2.72941
2.70394
2.80179
2.82679
2.80992
2.93184
2.91225
2.93882
2.9198
2.88556
3.08957
4.18289
4.15145
3.92367
3.57514
3.23228
2.93888
2.77992
2.46614
2.49308
2.15594
2.13581
1.97537
1.91459
1.8698
2.00654
2.08426
2.37831
2.43992
2.66038
2.65444
2.72504
2.60867
2.65959
2.867
3.14593
3.24336
3.24437
3.33155
3.21659
3.08441
3.40828
3.48861
3.17034
2.94742
2.7095
2.46093
2.07547
1.90556
1.70547
1.64122
1.49889
1.53697
1.36646
1.42039
1.19204
1.47033
1.3681
1.67012
1.59433
1.84508
1.81475
2.08356
2.20933
2.58458
3.00524
3.28678
3.31703
3.1507
3.08263
3.07359
2.87489
2.37463
2.10347
2.10053
2.15848
2.09095
1.83718
1.68571
1.45935
1.37548
1.13148
1.13922
0.968829
0.992448
1.01061
0.9878
1.09479
1.06393
1.18987
1.4212
1.56497
1.97669
2.24442
2.4308
2.49082
2.49938
2.58056
2.57749
2.41456
2.3167
1.47211
1.83336
2.27555
2.32698
2.62673
2.96231
3.23163
3.2502
3.37252
3.34679
3.15641
3.06189
2.70421
2.21885
1.69043
1.30762
1.24472
1.34623
1.45616
1.56425
1.5908
1.45525
1.33603
1.2721
1.33457
1.46751
1.60516
1.61474
1.47161
1.36697
1.84985
3.17624
2.85735
2.91699
3.46082
3.70952
3.89236
3.96947
4.08076
4.21934
4.21248
4.13867
4.15215
4.13329
4.18557
3.98454
3.95435
3.92746
3.73731
3.58469
3.10897
3.16546
3.42348
3.29184
2.28206
1.54446
1.52716
1.22265
0.894621
0.756373
7.05673
8.49859
7.5375
6.11997
5.82766
6.2791
7.04171
7.2671
7.66346
9.2378
9.74237
7.22327
3.98633
2.68376
2.12747
1.73748
1.97703
2.78913
3.25808
3.31628
3.64534
4.31872
4.32614
3.64421
3.14031
3.07254
3.0687
2.96921
3.0867
3.55472
4.32929
4.79463
5.26445
5.50217
5.98535
6.09032
6.08812
5.68422
5.13818
4.64352
3.98831
3.53049
3.06265
2.72856
2.45663
2.55779
2.88394
2.86424
3.08915
3.31085
3.47648
3.56324
3.7648
3.61317
3.35207
3.49867
3.93396
3.9911
3.70275
3.16336
3.04562
2.87157
2.91098
2.81333
2.84658
2.76369
2.71024
2.5771
2.55272
2.58714
2.61322
2.61932
2.54
2.41979
2.26629
2.17924
2.18577
2.3261
2.48594
2.33863
1.7797
2.51508
2.91256
2.67512
2.56566
2.4685
2.46358
2.46573
2.46485
2.3909
2.32498
2.24844
2.2299
2.25508
2.28966
2.37588
2.3189
2.26487
2.25032
2.21986
2.21083
2.15219
2.20991
2.24996
2.47705
2.67013
2.70916
2.62536
2.50623
2.79118
3.36574
3.28466
3.41499
3.33628
3.23496
3.09174
2.9827
2.88059
2.7673
2.70279
2.74907
2.61782
2.84114
3.00407
3.52155
3.84352
4.32951
4.46129
4.51683
4.42517
4.33924
4.2395
4.04045
3.91455
3.61303
3.29926
3.01314
2.86423
2.872
2.97869
3.05996
3.04142
2.96801
3.43615
3.47519
3.62931
3.83684
3.89743
3.57917
3.3337
3.16096
3.12386
3.20303
3.4614
3.64928
3.57631
3.35906
3.36979
3.47649
3.8557
4.26997
4.22412
4.40405
4.59402
4.34008
4.27729
3.95715
3.46838
2.92986
2.62107
2.61499
2.92081
3.33929
3.3532
1.97806
1.55803
1.72627
2.27006
2.31876
2.19607
2.52115
2.66739
2.24438
1.54093
1.19935
1.16098
1.38888
1.92282
2.52772
2.72328
2.84184
2.59918
2.50698
2.49707
2.41732
2.36954
2.32854
2.27389
2.50573
2.64661
2.60016
1.88772
1.25466
1.11322
1.23109
2.13937
3.65251
3.57995
3.82053
3.98905
3.95999
3.86593
3.7417
3.66856
3.55863
3.47479
3.31886
3.35496
3.11312
3.0938
2.9286
2.79364
2.70003
2.62522
2.56857
2.60428
2.5953
2.70657
2.81924
2.8074
2.83876
2.91937
2.92478
2.96723
3.03546
3.02538
3.13961
3.36586
3.60006
3.91661
4.04504
4.01289
3.87394
3.56204
3.24754
2.90932
2.70159
2.46897
2.42659
2.12839
2.16787
1.87188
1.80445
1.73587
1.95454
2.02881
2.33582
2.43287
2.63234
2.73287
2.67926
2.69381
2.72397
2.91946
3.18159
3.35561
3.4413
3.20479
2.93821
3.0718
3.43134
3.61441
3.74828
3.71916
3.318
3.01066
2.72789
2.4153
2.03669
1.79856
1.58342
1.602
1.44708
1.51329
1.37046
1.40262
1.24762
1.50348
1.39824
1.70918
1.55909
1.85913
1.75389
2.03984
2.16672
2.56197
3.04033
3.32892
3.211
3.15451
3.18732
3.22633
3.05673
2.93053
2.66543
2.30718
2.09938
2.13214
2.1821
2.12646
1.85636
1.64207
1.41116
1.35765
1.10372
1.11586
0.963483
0.99842
1.06895
0.976558
1.15848
1.16244
1.39331
1.51852
1.75892
2.04867
2.32775
2.55564
2.65612
2.68183
2.65194
2.57219
2.33065
2.18085
2.10351
2.03248
1.59767
2.0638
2.34574
2.5396
2.84149
3.13016
3.3899
3.43925
3.40219
3.43841
3.30708
3.16156
2.92219
2.50251
1.99982
1.37167
1.21576
1.22982
1.36247
1.4619
1.58436
1.61315
1.54594
1.52712
1.52515
1.58438
1.64181
1.58343
1.4792
1.25711
1.02776
0.894248
1.16478
2.98888
3.0862
3.07747
3.52473
3.73098
3.86894
4.02325
4.17092
4.19084
4.17257
4.20131
4.05446
4.07713
4.201
3.99508
3.9657
3.92558
3.76017
3.60377
3.19598
3.13718
3.37767
3.31505
2.13303
1.25512
1.11514
0.978517
0.828574
0.902479
4.06665
4.24691
6.69586
7.52197
6.67993
5.72247
5.73025
6.3579
7.08654
7.30923
8.04899
9.71184
9.0878
5.00814
2.68059
2.12953
2.01829
2.09118
2.43634
2.94777
3.12407
3.14644
4.03188
4.82765
4.64046
3.78238
3.20512
3.04014
3.02418
2.92042
2.98587
3.37656
4.09183
4.66778
5.07147
5.21529
5.43077
5.27326
4.87148
4.45413
3.78878
3.46928
3.02768
2.94115
2.71323
2.64601
2.6749
2.71903
2.96504
2.98829
3.17078
3.43578
3.5747
3.73216
3.799
3.66547
3.27901
3.50069
3.91689
4.1404
3.79926
3.28922
3.12845
2.88081
2.91607
2.78105
2.78302
2.72033
2.77016
2.69466
2.65143
2.59965
2.56865
2.49868
2.42939
2.31528
2.27538
2.23708
2.30512
2.34535
2.47349
2.27653
1.81542
2.54961
2.81757
2.49053
2.36176
2.43255
2.4441
2.41164
2.31709
2.25841
2.21948
2.19209
2.18005
2.19334
2.18431
2.27384
2.4107
2.37499
2.36101
2.35451
2.27047
2.27497
2.33024
2.41791
2.58175
2.6814
2.68696
2.66243
2.90609
3.20059
3.30885
3.27763
3.34707
3.26166
3.17803
3.07455
2.95299
2.82377
2.75696
2.7309
2.61636
2.54779
2.58059
2.64474
2.87857
3.3133
3.52921
3.84807
3.91017
4.0906
4.1113
3.99295
3.90403
3.69023
3.44385
3.19008
2.9803
2.90204
2.96799
3.06899
3.18373
3.11563
3.19099
3.58003
3.5663
3.80641
4.05557
3.97453
3.58141
3.33128
3.18355
3.06728
3.0904
3.24
3.40146
3.32697
3.13795
3.01481
3.20282
3.43057
3.83311
4.04952
3.85024
3.88357
3.82516
3.5018
3.25446
2.92622
2.67934
2.66721
2.88006
3.22106
3.21322
2.50308
1.8453
1.76186
2.08474
2.38369
2.27337
2.34655
2.66635
2.76809
2.41791
1.7162
1.23617
1.12962
1.22121
1.54422
2.06489
2.5094
2.70666
2.60867
2.58818
2.47205
2.45821
2.40239
2.4801
2.63584
2.65104
2.57677
2.00956
1.27497
1.06129
1.1154
1.44982
2.9832
3.7683
3.76734
4.09008
4.18949
4.11332
3.96006
3.79823
3.69185
3.58247
3.50185
3.34021
3.35509
3.15916
3.17694
2.93236
2.89226
2.8163
2.62431
2.69979
2.70603
2.65978
2.75146
2.88761
2.76705
2.88921
2.95065
2.94278
2.97752
2.99922
2.98128
3.17236
3.46243
3.72524
3.85735
4.02046
4.04792
3.94673
3.65638
3.26546
2.89426
2.74046
2.45899
2.33799
2.17306
2.16088
1.84253
1.93323
1.82383
2.02956
2.01568
2.38933
2.39649
2.71536
2.65544
2.70468
2.71288
2.77784
2.97707
3.21051
3.30654
3.52171
3.14447
2.97997
3.47606
4.30347
4.80705
4.96731
4.67165
3.8458
3.19898
2.80081
2.48381
2.00425
1.72464
1.51089
1.51529
1.39306
1.44855
1.3881
1.43307
1.28646
1.55473
1.39567
1.59811
1.59328
1.78785
1.7048
1.97737
2.18952
2.56769
3.0404