/*--------------------------------*- C++ -*----------------------------------*\
| =========                 |                                                 |
| \\      /  F ield         | OpenFOAM: The Open Source CFD Toolbox           |
|  \\    /   O peration     | Version:  2.1.1                                 |
|   \\  /    A nd           | Web:      www.OpenFOAM.org                      |
|    \\/     M anipulation  |                                                 |
\*---------------------------------------------------------------------------*/
FoamFile
{
    version     2.0;
    format      ascii;
    class       volScalarField;
    location    "0.005400000";
    object      Tu;
}
// * * * * * * * * * * * * * * * * * * * * * * * * * * * * * * * * * * * * * //

dimensions      [0 0 0 1 0 0 0];

internalField   nonuniform List<scalar> 
12384
(
1016.97
966.973
929.683
913.95
904.389
905.464
898.223
899.892
900.829
904.156
935.064
987.167
1113.85
921.917
459.704
415.26
392.282
398.964
417.775
434.466
442.405
449.317
453.946
460.864
470.581
482.147
493.691
506.523
517.596
524.686
528.681
527.774
528.127
518.01
520.427
511.772
512.877
505.82
499.251
490.074
480.378
477.185
483.705
496.048
507.229
511.014
513.358
506.146
507.215
500.156
507.793
501.197
505.911
502.057
505.552
501.512
504.438
493.048
496.44
479.543
479.387
457.709
458.775
434.85
437.04
414.111
411.629
389.981
379.24
370.026
376.755
381.153
392.843
393.552
391.473
409.246
459.999
486.746
485.407
503.562
500.098
505.644
508.289
508.961
506.495
500.047
489.161
475.737
459.423
443.126
435.049
427.218
419.417
426.235
429.066
434.94
440.238
443.464
422.245
365.896
351.934
360.901
363.69
361.073
398.233
411.533
415.52
418.328
415.295
411.514
413.662
398.714
406.053
388.025
393.169
375.605
365.803
360.431
343.233
342.714
327.806
353.034
344.9
368.807
373.572
380.579
406.383
426.333
450.173
469.998
474.093
458.939
450.615
444.721
402.64
463.23
464.513
454.69
446.928
441.268
434.092
430.181
424.831
422.879
421.529
416.864
409.312
416.333
394.644
393.02
392.547
368.773
366.333
355.833
354.356
346.66
352.589
354.483
363.666
379.813
404.139
438.579
445.912
429.556
318.716
310.456
270
270
270
270
271.445
290.677
303.124
307.045
312.448
312.119
307.778
307.122
291.686
292.55
272.043
276.568
272.758
270
281.344
279.951
281.952
279.62
296.642
295.569
307.357
320.76
330.102
332.123
389.938
390.83
393.23
397.298
400.087
404.198
398.999
393.485
400.502
374.039
388.022
353.356
368.429
333.164
348.067
319.533
331.557
327.452
328.564
345.377
349.053
358.613
373.064
366.726
378.855
405.732
425.807
431.79
440.284
442.154
384.122
396.398
402.188
403.296
395.115
392.909
389.502
369.145
378.598
347.23
352.965
351.069
348.081
337.565
365.709
355.411
387.668
392.072
411.239
413.41
401.867
399.145
397.943
387.727
382.108
381.606
374.348
374.889
366.035
362.938
496.653
473.62
445.278
419.926
402.541
394.394
370.152
374.395
327.445
348.277
309.321
325.789
309.241
323.699
310.278
344.149
337.15
374.343
377.333
407.074
418.643
445.073
446.606
432.341
406.341
400.16
400.244
401.59
403.244
402.324
308.78
330.543
341.976
343.551
337.168
330.753
317.208
304.654
275.104
285.124
270
270
270
270
270
275.79
293.364
318.062
341.019
359.433
366.016
358.726
358.447
360.321
358.404
354.137
355.627
356.249
360.218
359.797
270
270
270
270
270
270
270
285.988
300.511
302.616
307.563
314.956
317.344
318.873
320.333
319.417
317.047
312.645
306.957
300.157
292.743
287.325
278.674
282.277
281.309
288.118
289.346
274.08
270
270
277.904
283.835
281.509
275.943
282.205
270
363.68
432.245
426.441
423.094
411.982
411.987
402.329
403.678
401.598
405.128
408.253
413.435
416.097
421.521
423.884
428.918
420.396
415.576
386.987
375.663
361.985
339.215
270
335.675
853.326
847.568
852.158
872.694
899.045
913.48
918.782
903.357
885.299
863.266
868.495
902.032
1055.07
980.669
447.162
404.655
399.735
430.633
459.703
471.394
470.988
472.105
478.22
493.975
514.909
539.897
564.138
583.664
597.258
605.724
611.254
615.12
618.705
620.022
615.77
605.321
585.64
561.097
535.82
512.435
493.159
479.798
480.973
500.904
510.073
514.248
508.832
508.928
510.317
507.963
514.25
515.279
524.7
530.881
538.116
539.956
537.349
524.431
517.794
501.082
494.447
484.493
474.814
465.035
453.484
440.407
425.393
408.789
388.721
374.077
373.005
373.222
383.073
395.943
391.102
418.508
471.37
486.253
481.876
481.135
469.257
464.988
464.485
465.766
464.993
461.279
452.087
438.87
423.9
404.35
392.915
384.531
384.476
385.286
390.961
403.246
416.498
427.535
429.195
397.358
361.358
348.21
345.338
347.634
398.967
407.603
419.464
432.169
445.183
451.684
460.967
458.608
461.439
453.799
454.112
437.346
437.713
414.953
407.679
398.351
391.846
395.653
389.404
394.087
386.018
387.215
398.037
413.323
429.293
442.281
450.521
436.392
427.357
427.491
423.486
461.922
452.176
438.746
428.161
423.303
419.64
419.078
419.48
425.168
431.063
444.483
450.506
455.903
457.545
456.972
436.168
444.962
423.275
410.859
407.911
392.624
389.467
378.727
375.139
378.226
391.429
421.43
449.774
449.516
316.95
288.012
270
270
286.253
321.504
344.768
343.539
334.945
321.056
310.883
305.066
296.503
292.454
277.034
279.39
270
270
270
271.599
292.839
293.53
290.923
305.655
298.445
300.081
312.45
318.312
323.653
332.186
420.703
430.876
433.167
429.708
428.479
426.074
424.291
416.609
417.736
399.525
402.903
376.834
381.484
357.043
358.196
337.211
346.513
338.367
333.493
345.933
346.145
359.913
367.589
371.428
378.626
385.066
386.872
396.576
407.96
422.397
430.882
430.067
423.64
417.879
412.768
400.326
401.381
378.849
379.761
362.203
357.936
344.026
343.825
341.547
354.847
358.55
376.955
384.11
398.791
406.348
405.509
399.895
401.151
398.49
401.555
409.04
404.92
400.554
386.726
376.869
452.661
416.557
395.041
383.294
373.927
375.057
355.358
352.11
324.609
322.127
301.049
306.075
301.437
294.467
304.858
308.23
325.064
347.043
348.414
386.779
402.702
431.576
449.892
438.012
399.581
390.871
398.329
403.997
403.87
400.167
339.88
353.636
351.753
342.297
332.936
317.05
292.447
293.712
270
270
270
270
270
270
270
270
270
284.73
307.873
329.325
357.122
366.557
361.277
359.783
352.603
347.576
345.942
347.085
348.704
350.295
270
270
270
270
270
295.616
305.634
301.143
308.789
297.91
300.397
303.375
305.212
307.639
312.196
317.079
319.865
319.453
314.215
307.69
297.366
292.048
285.369
278.577
281.691
285.299
288.089
283.154
270
270
285.469
272.843
270
278.999
270
270
413.517
433.574
424.873
419.141
411.363
404.758
401.519
397.772
400.772
395.859
401.191
402.029
408.173
413.564
424.944
434.682
436.267
428.07
392.995
373.148
364.677
348.312
270
326.162
832.1
850.767
909.031
966.977
998.58
1006.62
1011.29
1000.54
987.711
937.695
879.593
870.114
977.265
1001.93
432.815
399.676
421.509
463.973
479.663
477.411
473.766
475.252
484.373
505.188
536.438
564.424
588.711
601.703
611.223
615.257
620.333
627.386
636.323
643.153
652.612
655.938
644.322
623.556
587.787
551.257
516.229
491.743
481.826
497.901
509.365
511.677
508.784
506.907
504.303
501.816
510.389
516.512
538.589
546.346
558.625
544.944
536.681
506.796
501.104
470.399
476.83
455.445
456.446
447.493
449.973
440.883
439.094
421.59
409.167
382.57
375.635
368.356
378.806
387.296
384.425
428.166
471.481
478.654
459.881
455.84
444.253
444.124
450.627
457.212
459.798
457.451
450.214
440.232
426.534
408.768
392.852
379.679
367.82
361.901
367.913
374.968
385.787
405.379
417.914
413.906
386.452
360.407
349.168
344.899
396.675
410.757
443.372
476.391
494.971
499.861
505.129
499.693
502.767
493.939
494.137
485.957
478.07
462.744
455.12
448.175
433.215
443.034
429.012
432.311
414.083
402.75
396.11
401.207
411.831
424.648
433.511
434.803
430.503
429.529
434.239
456.816
440.347
430.711
426.991
427.796
426.214
428.958
434.427
446.967
466.443
485.667
495.727
511.567
502.033
516.749
489.517
491.447
485.4
468.333
461.808
448.784
432.423
417.044
399.206
385.676
384.891
405.808
439.454
454.089
311.896
276.323
270
299.423
338.096
361.053
341.969
314.803
298.822
290.475
281.504
280.481
274.027
277.588
270
281.025
270
270
270
277.011
289.88
289.974
316.643
317.641
316.73
315.794
311.697
316.122
326.383
333.54
428.37
437.935
433.167
432.741
433.059
434.743
441.339
434.048
439.345
417.585
421.794
391.763
400.939
367.669
373.722
356.531
349.131
350.139
341.174
349.718
356.215
358.69
362.306
375.879
376.661
377.844
385.15
381.386
390.043
411.758
435.842
433.341
432.732
429.947
427.248
417.745
416.684
396.888
399.269
378.793
379.247
363.112
367.465
355.803
369.063
362.776
383.155
384.901
396.779
402.214
402.984
399.995
398.769
402.518
411.053
422.136
419.202
416.092
399.754
378.126
409.813
392.515
388.27
387.115
383.954
387.085
362.4
368.26
328.46
336.726
310.828
316.914
303.675
304.229
307.612
314.129
307.995
333.659
332.544
357.371
383.453
411.011
438.798
447.597
406.468
393.706
408.104
417.051
415.897
408.157
366.443
360.909
348.651
332.681
317.125
306.414
288.206
286.023
270
270
270
270
270
270
270
270
270
270
281.168
304.177
333.028
360.091
362.8
357.625
352.213
349.143
346.763
347.838
345.705
346.108
270
270
270
270.42
298.146
303.674
295.469
294.347
288.536
288.491
293.706
287.77
293.256
296.268
303.571
315.186
322.855
323.32
317.215
306.684
294.864
291.772
281.275
281.261
280.076
285.085
288.031
285.614
275.082
270
270
282.672
290.514
270
270
372.931
431.583
431.71
427.84
426.032
423.53
424.29
421.324
423.623
418.457
416.007
408.392
406.735
403.64
409.863
419.819
434.301
439.285
425.342
381.379
356.125
365.255
357.021
283.833
321.318
834.83
890.969
978.184
1006.95
1009.26
1002.97
1006.18
997.262
1004.16
980.585
916.863
864.358
933.095
1004.32
418.691
398.942
442.428
482.686
489.21
482.029
479.29
481.513
492.209
512.324
545.531
571.27
587.177
592.855
598.275
608.235
620.433
634.013
646.863
660.708
671.171
678.37
680.511
664.61
634.6
589.724
545.293
507.81
485.767
494.376
506.611
510.635
507.186
499.045
491.903
488.104
501.352
519.506
545.712
555.913
559.603
531.065
510.032
481.949
466.851
457.586
450.672
441.626
429.661
428.86
423.535
432.659
432.035
431.891
418.567
402.809
378.917
373.116
373.762
385.418
385.946
430.543
465.229
469.6
445.518
438.441
432.662
441.183
449.21
453.135
455.484
456.214
454.172
447.334
435.86
424.016
408.613
392.131
380.504
374.196
362.745
361.213
370.913
385.629
405.454
415.823
405.144
384.649
366.373
353.07
402.623
441.609
489.716
508.504
516.674
514.29
513.878
514.925
508.538
504.757
506.104
499.916
497.629
490.27
482.194
474.581
469.474
474.167
464.069
466.981
446.057
430.937
412.727
399.387
404.046
411.71
423.947
427.574
429.427
428.161
438.395
450.201
434.622
433.636
435.018
434.85
432.845
435.726
442.503
464.992
489.548
509.234
521.079
536.155
522.073
534.489
520.825
506.566
514.106
495.637
493.912
487.303
467.083
455.057
426.763
399.775
385.749
396.644
428.68
454.761
304.815
277.133
290.244
335.274
364.379
344.561
309.316
298.024
291.866
285.694
278.635
281.728
289.846
310.721
318.829
331.55
326.795
314.768
307.661
302.93
289.678
311.641
322.637
328.498
343.364
333.658
317.646
322.825
325.217
331.032
436.763
439.85
436.52
440.13
451.58
455.084
455.971
452.049
447.05
426.747
423.015
397.525
399.512
366.793
383.356
354.79
355.949
356.286
350.535
364.758
363.188
359.049
371.803
375.304
375.974
387.853
384.968
386.038
394.748
411.862
441.606
449.099
452.702
449.25
440.662
430.12
427.232
411.244
408.667
392.773
388.341
385.375
377.342
377.073
380.179
381.442
392.898
391.827
401.339
402.66
403.326
398.821
398.411
403.607
412.489
423.889
430.642
429.819
420.211
396.768
393.737
394.07
396.397
400.548
394.041
386.463
368.701
362.585
323.357
330.214
299.97
301.335
303.613
304.193
304.247
321.166
312.872
322.541
328.156
338.244
362.993
394.331
420.414
443.85
424.499
398.865
411.106
423.963
423.556
414.359
368.015
358.558
341.933
326.427
306.292
306.942
291.58
285.297
270
271.946
270
270
270
270
270
270
270
270
270
281.547
313.271
344.869
361.176
356.657
350.931
349.784
354.127
350.904
344.873
344.392
270
270
270
299.943
304.907
306.334
298.414
308.335
307.779
304.558
303.992
294.91
284.591
286.422
290.223
300.982
311.953
314.213
308.424
294.381
284.445
276.254
270
274.316
281.566
285.336
288.503
285.903
276.561
270
300.755
340.506
323.38
279.441
326.095
419.098
437.59
436.446
437.763
441.967
444.193
442.799
444.534
440.398
439.632
441.099
428.292
420.527
411.868
407.747
419.069
433.536
440.543
416.183
358.063
342.569
363.24
358.604
287.059
314.208
838.995
925.153
988.966
968.55
927.471
921.18
947.521
949.85
971.918
971.48
924.553
870.828
917.577
994.437
411.148
406.594
462.486
495.711
496.579
496.428
495.805
493.721
502.072
520.821
551.301
568.786
577.627
581.541
596.781
615.812
639.65
660.145
679.853
688.155
700.63
698.568
707.774
690.003
667.519
620.132
572.258
526.467
492.786
495.921
503.14
507.798
501.954
491.288
481.035
474.935
495.316
517.472
553.998
555.787
553.664
505.767
496.36
458.136
467.353
448.512
447.351
426.324
423.94
407.25
411.74
411.753
424.957
427.846
427.157
411.966
393.277
373.949
374.507
382.079
376.023
427.172
457.832
453.683
437.344
428.982
429.008
438.58
443.229
443.561
446.822
449.622
448.349
443.69
437.861
429.447
417.034
402.521
388.355
368.927
356.443
353.49
358.736
373.66
394.992
409.86
411.168
393.751
373.486
355.816
410.067
484.827
510.302
513.822
513.115
510.74
499.785
495.814
493.471
483.343
492.56
488.869
500.779
496.682
501.567
504.617
496.381
500.144
490.035
493.931
474.809
465.442
431.914
417.921
402.525
408.848
417.042
429.878
433.593
436.262
440.175
445.443
437.34
440.561
443.903
440.149
436.731
436.482
450.089
476.527
502.124
523.35
525.307
535.75
532.782
533.324
542.153
522.677
531.446
516.793
509.95
506.194
491.381
480.754
448.63
414.874
388.29
391.733
420.384
452.522
301.058
286.126
321.08
363.021
359.075
313.19
306.967
311.081
296.951
282.832
278.096
296.764
329.191
366.245
376.337
379.369
382.2
367.765
362.709
331.589
330.273
326.787
327.494
350.334
355.794
348.972
333.254
320.807
328.017
335.852
440.785
439.475
446.516
457.095
463.763
466.865
460.525
449.882
440.971
415.383
413.46
389.34
385.022
361.583
365.957
348.717
353.335
353.882
360.664
372.428
361.231
376.491
375.843
374.345
386.252
388.749
388.608
393.833
394.14
415.758
458.277
467.219
466.254
456.778
444.911
435.709
426.763
416.368
417.362
396.804
401.089
389.542
389.71
384.57
395.613
388.072
403.808
400.737
407.08
406.653
405.923
400.85
397.545
405.402
412.191
416.005
418.58
426.622
423.867
397.742
398.28
404.262
406.61
403.607
395.512
382.809
370.069
356.047
327.902
329.54
294.819
300.744
278.705
284.541
301.139
311.085
315.378
321.533
324.452
334.826
342.352
379.401
404.504
434.102
436.593
417.27
420.844
429.384
428.03
418.543
370.497
357.767
334.761
318.758
309.587
315.826
300.673
301.703
283.555
277.117
270
270
270
270
270
270
270
270
270
273.087
297.018
333.521
353.294
355.131
349.815
351.931
355.322
356.085
344.423
344.872
270
270
293.968
312.897
312.303
316.146
330.026
338.05
347.172
344.922
328.589
318.244
296.453
276.795
274.029
280.016
292.878
301.638
296.568
288.561
275.439
270
270
270
277.703
287.153
287.033
288.948
278.34
270
309.995
382.409
332.523
314.38
380.357
434.774
441.382
444.659
450.379
453.066
454.818
455.725
450.706
451.692
449.895
449.11
448.459
435.431
424.122
410.37
412.577
434.429
440.353
411.293
352.003
338.572
362.689
352.606
277.255
321.909
844.76
936.914
954.877
878.803
818.99
832.82
885.459
910.739
923.502
940.359
899.395
870.309
923.113
996.828
402.899
413.997
476.328
501.984
510.576
517.78
520.529
513.51
513.221
529.054
554.296
562.408
567.811
580.01
605.292
634.569
666.754
697.292
717.614
727.547
732.023
725.734
725.835
706.883
685.35
637.713
590.986
538.178
497.799
495.725
498.244
501.715
499.198
485.041
474.98
477.84
482.684
520.586
556.339
556.266
536.733
496.886
481.777
455.409
476.948
446.64
442.764
429.771
417.781
406.843
396.386
402.149
412.842
426.7
428.073
420.296
400.135
381.198
373.41
385.716
373.236
423.149
451.689
440.69
426.037
423.758
427.546
430.3
429.197
430.364
431.27
433.099
434.162
435.308
430.477
427.993
413.001
412.876
397.773
385.68
374.476
362.507
356.442
370.635
389.329
409.377
412.425
403.82
386.469
367.347
439.471
506.044
511.703
507.377
499.916
488.841
479.461
467.16
468.701
461.701
478.518
483.055
505.794
505.718
526.103
525.722
519.087
525.888
508.41
516.412
497.683
489.81
463.478
435.89
416.306
407.627
416.802
424.03
436.884
440.656
441.062
444.853
441.476
449.962
449.652
442.967
437.368
438.914
453.415
481.143
508.059
515.411
521.953
519.149
533.711
525.43
548.859
532.653
539.775
529.62
519.401
517.263
502.097
491.477
461.747
422.287
388.358
389.025
416.153
451.137
298.306
298.941
348.325
366.225
331.53
321.801
336.407
321.71
289.39
273.984
285.376
326.749
372.369
396.181
405.318
389.586
396.231
387.12
375.537
372.693
354.1
334.782
352.143
358.233
367.035
368.573
338.178
322.133
324.199
328.636
443.222
446.086
456.874
466.851
470.441
466.989
456.411
444.654
428.118
413.79
399.301
397.34
374.359
364.357
359.031
346.04
352.75
353.132
368.309
364.94
374.765
385.078
375.092
386.053
388.62
390.56
400.923
399.552
402.134
420.039
474.302
480.281
473.705
459.451
446.118
437.474
430.391
417.441
423.786
399.443
411.027
381.595
388.76
390.853
396.178
399.324
409.185
405.214
415.604
409.282
411.851
405.058
402.717
399.804
410.293
422.076
423.386
429.981
439.723
420.832
407.843
418.206
412.28
404.743
394.524
393.292
372.274
367.489
339.066
334.583
308.275
304.824
284.669
284.289
277.314
309.052
305.307
330.685
318.242
338.347
335.653
364.677
392.33
421.374
440.018
431.902
436.021
435.163
429.412
420.669
377.576
356.474
330.314
318.806
322.058
330.448
313.183
318.764
292.973
301.631
278.998
281.945
270
270
270
270
270
270
270
273.01
291.547
324.014
349.887
353.143
354.853
353.011
358.245
359.024
347.322
343.36
270
272.269
310.865
322.729
327.245
343.814
364.683
381.44
381.343
385.846
372.002
347.902
324.466
290.281
270
270
272.153
284.468
289.116
287.814
270
270
270
272.823
273.869
279.744
288.946
285.84
275.267
270
331.285
397.144
343.387
343.237
410.042
441.939
444.587
453.257
460.667
463.825
466.914
465.973
471.549
468.712
462.737
451.501
460.085
446.367
439.42
417.038
407.069
429.042
445.218
413.6
351.918
331.682
351.45
330.866
270
320.51
846.605
920.809
897.083
796.425
744.356
770.459
838.085
877.617
880.956
892.628
873.088
881.489
926.689
975.846
401.009
429.258
485.28
504.888
514.741
534.277
544.112
533.227
524.225
532.919
552.426
555.257
560.486
574.42
616.939
654.86
693.093
707.994
732.491
737.812
751.438
738.971
737.09
712.489
687.219
642.865
595.046
542.887
498.73
502.537
490.811
498.783
493.256
478.975
477.223
469.421
483.986
518.655
561.29
551.191
533.186
486.827
478.895
464.102
471.666
449.03
440.523
416.563
411.263
395.996
398.394
396.691
412.808
424.49
429.652
422.032
405.436
384.225
374.204
383.581
358.288
407.157
439.268
426.455
417.665
412.714
420.321
424.461
424.759
425.227
421.924
417.471
419.171
420.64
421.274
414.586
416.096
413.453
406.79
395.581
383.871
369.212
368.059
372.159
392.436
407.979
416.034
407.58
389.044
368.467
466.777
510.256
504.841
493.561
480.7
464.488
462.051
449.005
450.266
448.905
473.671
482.552
525.13
532.793
554.923
551.18
541.435
544.594
527.542
534.709
514.02
514.135
482.461
458.805
428.856
416.565
417.259
430.305
440.924
447.814
443.854
447.793
449.471
459.05
455.537
443.228
435.493
435.048
450.785
481.254
498.274
500.734
501.747
494.687
516.422
513.461
535.014
536.159
541.285
525.894
526.355
519.658
506.307
493.478
461.672
415.56
384.751
386.626
418.697
451.07
298.964
323.038
363.157
349.332
333.013
352.91
349.904
310.066
277.599
272.691
296.945
352.011
390.813
399.459
403.371
385.918
385.835
383.466
392.934
378.362
359.812
358.616
357.889
367.266
382.471
372.308
339.484
318.882
321.422
324.519
445.255
453.437
464.846
470.297
470.691
466.018
451.744
440.491
426.162
416.697
396.448
404.401
374.756
375.62
359.286
353.002
353.838
357.21
357.471
370.076
384.58
383.297
389.65
390.031
389.595
400.754
404.702
405.958
410.001
430.676
486.301
489.387
478.703
461.292
446.236
435.527
435.333
418.003
423.933
399.763
393.258
376.072
384.587
376.41
396.455
395.042
413.015
411.095
416.249
416.575
413.135
413.156
405.744
408.107
414.252
418.87
422.777
424.975
427.731
414.387
422.841
430.056
416.886
408.028
398.587
403.731
373.678
373.844
342.198
340.017
307.914
309.014
289.84
287.474
270
306.456
299.812
335.142
318.01
338.173
332.57
358.052
379.083
412.93
435.62
443.892
444.442
435.425
424.266
420.567
385.116
353.37
331.686
326.866
335.881
338.659
325.357
327.55
311.965
316.473
285.715
292.728
270.046
270.706
270
270
270.617
270
270
282.113
293.892
325.2
345.904
357.244
359.675
359.828
359.661
362.005
347.59
344.084
270
297.774
322.767
335.022
350.442
374.902
397.435
411.91
415.442
406.3
405.876
385.195
352.659
317.706
273.394
270
270
270
280.439
283.013
272.773
270
270
270.2
270
283.479
284.606
283.21
278.501
270
335.017
405.206
364.742
367.868
423.01
448.222
451.189
456.057
467.086
473.116
472.804
474.951
474.545
471.769
471.015
454.738
459.148
455.868
446.633
430.251
401.756
422.379
446.042
419.556
346.108
317.143
326.355
302.217
275.344
335.358
840.513
895.578
841.203
747.34
712.036
744.353
816.516
847.244
843.201
864.718
876.99
883.656
843.78
814.855
403.88
441.514
487.378
496.202
514.612
554.511
572.379
547.728
531.806
535.256
547.882
546.034
549.333
574.3
632.771
668.166
693.755
706.38
732.967
741.725
752.264
737.482
725.751
702.326
671.313
632.062
579.452
534.162
499.784
503.018
482.429
495.728
494.434
486.402
479.809
475.591
474.193
527.499
558.574
553.58
531.373
486.038
482.422
463.95
471.141
450.161
448.928
419.918
416.016
397.945
401.966
406.552
419.236
429.008
432.117
423.112
405.825
385.77
375.298
389.72
354.867
404.604
425.333
421.019
409.746
408.483
408.577
409.956
400.966
394.234
394.698
400.458
402.746
404.757
407.734
410.237
409.898
415.89
416.043
402.338
390.196
375.395
377.384
382.795
395.507
412.479
417.08
409.501
390.09
376.849
495.078
515.103
497.262
478.247
462.652
449.782
442.908
434.671
440.452
436.912
462.348
475.661
524.935
536.86
558.907
551.803
552.688
556.919
547.686
548.159
533.461
522.246
504.593
469.807
443.259
419.763
422.53
431.37
447.961
451.799
446.721
451.968
460.777
468.706
458.723
444.775
435.107
430.598
447.029
469.367
485.548
482.208
475.493
470.772
484.103
505.351
513.191
518.146
540.943
522.317
524.225
517.237
502.556
483.004
441.009
398.939
378.607
389.876
427.189
451.711
301.178
339.431
365.147
346.246
356.231
373.52
349.959
298.948
274.662
274.621
302.976
349.989
390.193
395.92
395.666
382.352
387.151
385.175
389.796
369.196
372.43
362.965
362.733
383.917
386.847
371.264
322.473
309.808
310.178
309.746
454.294
467.37
472.211
471.94
469.869
464.82
451.901
441.258
427.175
421.569
404.141
406.554
379.933
384.125
361.161
366.122
359.108
355.811
355.679
378.836
382.907
391.628
395.109
389.452
399.735
401.679
407.583
410.338
412.921
432.362
500.371
498.776
484.858
462.385
444.956
434.599
434.146
415.75
422.786
388.71
390.765
375.279
371.042
369.361
386.429
393.454
415.246
409.724
420.778
415.545
424.411
413.851
411.445
412.572
420.725
423.81
427.203
439.053
429.809
413.875
447.683
452.42
428.529
414.55
404.228
398.122
373.994
362.719
338.506
329.98
310.768
314.493
292.994
300.467
271.572
308.83
297.084
332.831
318.337
338.655
328.664
355.646
370.55
405.686
431.631
442.831
438.958
422.104
414.171
412.349
398.264
360.463
337.784
337.478
343.091
343.405
331.88
330.058
317.894
314.937
288.273
293.773
270
274.902
276.509
270
281.605
270.665
277.269
299.507
303.954
334.298
347.252
355.521
358.804
358.934
364.623
363.914
352.692
349.576
270
302.544
340.175
346.051
374.755
400.58
421.929
423.494
433.023
432.64
415.583
408.533
382.871
342.897
297.567
270
270
270
270
276.381
279.036
270.461
270
270
271.655
276.981
283.582
282.709
271
270
312.119
411.749
384.428
387.83
429.799
448.656
459.016
460.783
467.813
478.45
483.135
486.857
492.738
488.217
484.128
464.155
457.559
459.107
449.454
439.223
403.437
412.58
446.039
423.349
339.646
287.902
288.585
270
302.65
343.849
832.268
859.119
804.487
724.628
702.37
740.55
807.952
829.041
832.291
884.496
893.041
775.832
591.464
491.553
438.595
392.901
407.755
448.594
474.053
478.95
515.214
578.985
592.384
560.989
535.014
537.832
544.239
535.806
541.729
575.435
631.249
663.484
695.145
703.56
728.397
729.082
733.598
716.073
690.586
667.418
624.84
592.751
551.698
522.531
498.526
512.954
484.554
449.894
463.184
479.005
490.587
483.523
483.05
471.051
479.619
520.314
561.273
560.585
535.477
490.018
482.707
466.751
470.201
455.236
453.663
440.195
433.286
420.63
420.498
425.427
430.128
433.691
428.51
417.523
399.13
384.69
379.306
392.848
407.159
395.514
327.511
378.318
407.923
404.83
412.053
405.654
404.397
404.414
405.16
397.906
390.957
385.064
387.037
392.563
397.556
407.076
403.225
402.395
404.334
401.76
400.467
390.182
391.735
390.486
405.406
415.679
413.703
407.551
403.254
433.689
483.402
478.039
491.26
486.075
474.841
459.858
447.89
436.936
428.2
425.997
432.322
420.415
441.163
451.301
492.768
514.944
551.222
559.973
565.839
559.582
554.617
551.708
537.143
529.834
504.502
475.303
446.776
430.098
429.171
439.509
449.383
456.584
453.389
460.094
448.492
458.474
472.056
475.586
458.559
445.223
431.609
426.751
433.563
455.344
469.08
464.285
449.172
448.713
452.76
478.321
502.123
495.847
510.64
518.946
502.083
500.234
478.467
447.12
408.219
383.127
380.798
403.478
435.578
442.732
338.282
297.51
311.486
351.479
355.547
351.605
374.931
382.94
352.059
299.927
274.481
272.288
292.069
333.257
375.641
387.26
398.813
381.891
376.566
376.886
371.185
369.41
370.783
364.757
382.102
390.877
390.008
341.479
302.434
300.115
303.082
352.466
444.644
439.334
457.441
468.786
469.832
469.077
467.473
463.58
453.74
443.243
428.613
430.338
410.303
409.069
392.791
380.302
370.377
364.785
358.677
361.677
364.484
376.94
391.798
393.962
394.307
398.683
400.327
406.226
416.106
420.263
437.416
450.163
456.69
474.943
484.743
486.262
479.813
461.523
445.505
430.55
427.726
415.409
414.092
385.337
392.844
364.065
364.098
359.073
384.616
389.93
412.935
411.093
418.57
425.023
421.583
422.287
419.116
420.259
427.459
436.995
447.3
429.235
407.129
418.639
447.531
459.873
469.891
468.068
438.556
415.848
401.439
391.328
369.663
349.651
324.319
325.806
304.105
312.291
293.224
298.334
279.587
313.246
300.765
337.115
313.15
339.791
322.84
352.565
367.965
404.773
434.511
444.437
425.381
417.71
418.783
421.732
409.019
400.815
381.366
353.923
337.142
339.707
344.15
345.923
332.291
324.032
311.447
312.876
285.879
291.904
270.352
276.375
286.825
270.133
293.601
286.234
306.917
313.166
326.317
342.467
355.656
367.424
373.123
373.76
371.027
364.486
345.576
336.473
331.114
325.122
284.055
323.907
346.439
365.252
391.187
414.461
435.43
442.631
439.372
440.964
429.287
415.667
398.297
366.932
324.164
270
270
270
270
270
278.075
280.904
276.624
277.716
278.792
281.232
285.331
279.436
274.902
270
284.151
283.979
270
394.997
403.76
401.219
435.032
449.489
457.385
465.43
472.942
476.159
483.884
495.147
489.846
486.644
487.435
465.712
458.531
458.185
451.027
440.83
409.904
408.646
441.862
427.023
327.706
270
270
283.682
314.898
270
498.943
526.067
820.384
828.301
775.905
711.672
699.59
742.667
806.162
826.338
843.541
901.027
865.314
654.985
486.082
431.223
417.221
414.541
431.285
453.198
463.368
470.404
551.398
615.374
610.091
567.294
540.153
534.784
540.402
532.511
533.22
560.43
614.758
656.999
685.078
690.325
703.038
693.401
670.808
650.442
601.734
576.634
531.786
519.819
495.05
487.341
496.665
492.655
475.472
463.521
471.205
487.847
490.4
487.979
482.46
475.255
473.089
519.326
560.681
573.839
542.572
499.261
485.679
463.936
471.39
456.95
456.316
446.03
448.128
439.438
436.364
432.718
431.67
425.957
419.365
406.086
398.878
390.395
393.779
395.089
408.558
390.525
330.232
380.794
400.469
391.796
390.721
399.415
401.013
398.242
388.816
382.362
378.092
376.993
378.825
382.873
384.424
395.59
410.637
409.12
410.89
412.294
402.594
400.543
400.263
401.49
410.161
414.736
414.682
415.827
441.928
469.402
480.345
478.657
484.905
475.381
466.295
454.19
439.004
425.32
420.608
420.9
414.715
413.228
417.235
421.601
441.281
477.772
492.893
517.703
521.665
537.066
540.791
532.52
526.906
510.633
488.467
464.659
443.455
434.385
439.773
449.675
462.13
463.532
467.404
464.945
454.655
468.781
482.818
477.983
458.18
445.534
434.241
421.483
424.468
439.331
452.429
447.684
433.915
425.318
436.379
449.027
476.766
487.699
472.551
477.467
469.756
448.59
432.351
407.449
387.61
385.25
400.851
427.014
431.299
383.494
325.634
313.086
336.987
358.419
352.334
361.296
383.413
389.955
364.227
314.224
277.484
270.343
278.457
303.603
343.044
373.345
387.207
380.663
382.016
374.685
374.366
372.008
376.94
389.603
389.969
384.985
347.778
294.615
285.511
292.177
302.649
403.236
450.669
450.586
472.659
479.007
476.071
470.925
468.433
465.102
456.165
447.82
432.257
432.299
416.505
416.149
395.666
389.808
381.403
363.973
370.957
372.899
371.777
382.35
399.296
389.651
396.76
401.95
402.733
408.651
414.341
419.111
439.619
447.063
455.466
460.795
474.052
481.465
482.608
467.353
443.638
426.222
428.256
409.975
404.662
389.289
388.527
358.7
375.816
366.51
389.678
383
413.664
404.225
427.098
419.5
425.091
424.805
424.052
426.823
432.523
436.952
455.35
423.63
411.139
450.208
508.737
541.977
553.174
533.667
476.138
428.437
402.543
391.761
362.374
341.022
316.115
315.99
298.828
306.044
297.223
304.036
285.416
319.567
300.045
320.891
313.311
331.615
318.292
347.945
372.982
404.452
430.44
425.26
409.866
421.841
438.824
449.001
444.996
433.828
409.683
372.143
344.107
340.601
344.547
346.491
330.118
316.18
296.956
306.301
284.705
280.686
275.19
270.817
291.554
275.772
305.534
305.245
327.313
329.925
343.743
352.878
361.655
366.806
371.23
373.851
369.654
358.593
345.221
335.868
320.884
313.772
284.872
328.435
352.671
383.525
395.293
435.448
439.539
447.387
455.732
448.413
431.361
423.276
404.646
375.247
344.371
296.682
270
270
270
270
270
273.122
281.027
282.655
277.901
283.854
280.796
272.373
274.978
270
272.203
289.207
284.711
345.25
422.568
413.126
436.575
452.052
457.86
462.523
472.784
481.962
476.691