/*--------------------------------*- C++ -*----------------------------------*\
| =========                 |                                                 |
| \\      /  F ield         | OpenFOAM: The Open Source CFD Toolbox           |
|  \\    /   O peration     | Version:  2.1.1                                 |
|   \\  /    A nd           | Web:      www.OpenFOAM.org                      |
|    \\/     M anipulation  |                                                 |
\*---------------------------------------------------------------------------*/
FoamFile
{
    version     2.0;
    format      ascii;
    class       volScalarField;
    location    "0.005400000";
    object      Xi;
}
// * * * * * * * * * * * * * * * * * * * * * * * * * * * * * * * * * * * * * //

dimensions      [0 0 0 0 0 0 0];

internalField   nonuniform List<scalar> 
12384
(
5.74629
10.1391
12.2904
13.7122
14.7003
15.1396
15.1666
14.6421
13.5284
12.2823
10.2719
7.88347
5.19263
4.57714
26.7299
37.9398
45.0911
46.5395
45.6277
44.6817
44.483
44.3173
44.4256
44.5018
44.7517
45.203
46.1883
47.3438
48.9825
50.7383
52.5507
54.0401
54.9044
55.8437
55.2655
55.3448
54.1124
53.3916
51.8641
48.7047
41.7353
30.1733
19.9586
16.8108
29.5725
32.6053
35.9613
41.169
44.9422
48.1079
49.6956
51.9683
51.2995
51.0078
49.7123
49.9443
50.2672
53.5195
55.5494
60.6033
62.6939
67.5196
67.3156
70.5952
69.5055
72.3883
71.544
72.5919
69.8819
64.2489
53.9117
41.8437
27.9577
25.3888
38.8165
44.5108
43.6586
45.212
48.4296
49.1607
50.5847
50.8266
51.5737
53.7073
57.1924
62.0222
67.7365
73.8501
79.6616
85.2855
86.7767
87.3563
87.4365
84.3892
82.0291
78.9359
75.4817
71.6254
70.7346
78.0585
74.8944
59.7885
43.4524
40.9835
40.9923
44.3578
46.6763
49.433
54.7842
62.0021
68.6961
77.992
82.8755
91.503
94.5096
101.241
104.357
106.062
107.423
105.331
108.158
99.4007
101.063
92.4268
88.5322
82.6041
72.9581
66.5733
59.6477
48.6012
35.3321
26.8065
26.9913
29.5871
25.9364
27.6812
31.9012
35.5681
38.5735
41.5542
44.4924
46.4722
47.2489
47.3409
47.5748
49.169
52.5881
55.0783
61.8077
66.4002
69.477
75.4889
77.0552
79.9141
81.3135
83.9755
83.2663
82.7483
79.125
72.5034
62.9971
50.6387
40.2692
34.7536
32.542
38.5341
53.1109
59.2191
63.2423
65.8949
66.6477
64.1138
67.1563
75.4733
84.1732
93.7779
103.098
109.36
117.339
115.749
116.386
108.117
104.339
100.277
91.2713
87.3232
83.5687
82.8727
80.529
83.2484
78.5223
69.5596
58.0291
46.3169
30.9862
31.1065
36.3136
41.3076
45.902
50.6729
57.2794
64.2352
68.8742
79.0873
80.734
92.4629
91.4109
101.978
97.5274
105.302
100.108
99.1153
96.1506
88.9071
84.3228
77.1801
68.3717
61.7884
51.7002
43.393
39.1669
36.6006
33.6763
32.7554
33.3686
45.3966
53.9522
61.6694
70.2227
77.6617
84.3232
94.8255
96.9028
109.356
110.189
110.713
109.318
110.772
100.717
102.048
91.7073
88.2483
80.3168
74.2597
68.5955
56.3253
45.8368
42.5997
39.9028
36.4274
33.8772
30.666
28.3934
25.7026
29.7984
33.8057
43.2021
55.3134
67.5477
78.5373
92.5659
98.8582
120.056
115.344
131.97
122.14
125.119
117.407
119.78
106.615
107.5
95.5612
92.2645
82.6912
75.7144
63.7892
52.9785
49.0446
49.065
47.8142
46.4248
45.9159
46.2113
46.1752
42.6312
46.5061
58.4205
72.9711
87.8362
101.754
116.592
130.657
154.01
153.644
165.644
166.023
162.136
159.366
156.694
149.932
136.609
120.105
104.861
91.2634
79.8972
72.6486
67.331
61.7484
56.7274
53.4868
51.9407
53.2371
54.4236
53.3932
36.7855
44.6523
57.1625
68.2019
73.2381
73.8424
72.7562
68.0306
65.47
65.2819
63.5641
60.698
58.7958
57.7992
58.7785
62.1443
66.9926
72.8167
79.0571
84.5146
88.3654
88.2098
89.007
86.4411
85.2565
80.5285
75.4327
70.3702
53.4235
31.2842
20.5115
28.3828
31.9683
32.4077
35.3449
49.7617
38.4616
43.8748
51.6432
56.7023
61.5592
64.3276
68.6441
70.9836
71.7158
69.0036
64.8738
59.1873
53.0867
45.8279
38.569
30.2458
22.4226
15.4313
10.5454
6.76351
4.57306
3.76127
4.39654
4.24868
11.422
11.1935
11.9661
12.3766
12.62
13.0298
13.4957
14.0967
14.6943
14.9699
14.0296
11.7983
8.03171
9.05643
28.31
29.6673
35.6527
36.0651
34.9435
34.3376
34.1471
33.4034
32.361
31.1756
30.9411
31.8373
33.9448
37.0468
40.8601
44.8584
48.5177
51.3729
52.9125
53.4972
53.4275
52.9846
52.5015
51.6832
49.9918
47.0602
42.4934
36.1862
27.5267
26.9153
29.1928
29.3291
41.4744
51.3448
55.872
56.5088
53.6769
50.175
45.7249
41.5431
38.4044
37.4152
38.4516
42.3385
46.8881
53.1673
58.694
63.9755
67.9457
70.5427
71.8247
72.015
71.4937
69.375
66.0205
59.3252
49.6083
40.2857
32.0915
39.0758
46.413
42.0215
40.5415
40.597
40.4157
39.5233
40.0155
41.8915
45.9097
52.0721
59.7642
68.8711
79.4049
90.8593
102.464
114.537
123.299
128.363
128.104
124.987
118.656
108.728
97.1397
84.0755
70.2545
61.6345
54.647
46.182
40.805
61.5312
40.5943
27.9753
32.4065
41.526
51.5696
61.3752
69.6959
78.812
86.2909
95.0288
101.073
110.159
114.37
122.887
126.688
129.127
129.574
125.343
122.228
114.048
106.323
92.4469
74.3052
57.653
45.4002
37.3783
31.3142
27.7217
26.787
38.8388
35.2827
29.5248
34.6745
38.4016
40.3813
40.791
40.2504
39.1018
38.0936
38.1265
40.249
44.0018
49.7904
56.7213
64.4887
72.1085
82.8747
86.6253
93.8588
97.9206
97.447
98.1999
94.5189
91.1603
84.579
74.7834
62.0137
47.3174
35.1744
44.9621
38.8952
34.776
43.3645
45.7598
42.6571
36.2106
36.4158
46.4286
61.2812
79.1951
96.7272
112.722
128.986
142.218
159.796
165.642
174.971
174.895
172.621
164.645
143.682
131.858
117.204
96.1913
85.2932
75.1748
66.3956
58.8308
49.2136
64.3904
36.3708
20.9986
22.5946
28.2509
36.4814
45.4257
54.2596
63.7132
71.9773
83.1238
90.322
102.961
108.196
119.648
122.331
130.81
126.753
127.315
124.904
114.864
107.427
94.5954
81.9867
68.8943
55.398
41.4497
31.3689
26.5295
26.0457
40.0315
43.7574
44.4564
51.6908
60.0626
69.3488
81.0122
90.6719
105.978
115.541
129.796
139.508
151.471
156.666
159.804
153.564
148.539
136.947
127.368
114.342
99.941
84.9211
65.846
44.8786
32.724
29.8435
28.9983
28.3159
26.973
26.8173
34.7238
39.8123
37.3672
49.6875
64.1277
78.9492
92.4435
111.27
127.377
151.395
166.001
188.357
192.597
198.214
201.508
191.726
181.308
162.43
142.801
129.96
104.583
85.8911
64.199
45.3299
35.4232
37
37.7605
36.311
35.7149
37.6764
49.5114
47.7602
42.9047
59.3931
77.1947
94.9168
115.485
142.872
159.213
189.024
204.502
215.444
225.991
230.806
233.414
232.112
226.333
217.886
193.107
162.06
131.077
96.3206
68.2737
50.572
46.4141
48.6427
49.4373
48.4434
48.1857
50.6189
60.4432
52.4256
35.139
47.8888
58.8181
65.3356
63.3632
64.13
66.2124
64.7871
66.2077
62.8235
58.3437
54.2785
51.0265
50.1599
52.2563
56.7317
63.0942
71.5258
80.8547
90.9926
98.8778
104.79
107.847
104.001
96.5013
85.4645
73.3563
60.0616
67.7018
31.546
29.8838
32.4269
37.1934
57.1197
64.6454
50.1276
58.1896
67.5544
73.9954
78.7088
81.4355
81.6378
80.0624
75.4759
70.8074
63.4118
56.3182
48.406
40.8007
33.1997
26.8437
20.5333
14.7233
10.1028
6.58006
4.52858
3.49488
3.50869
5.12425
14.7619
12.8033
11.7825
11.2159
11.1983
11.3976
11.6057
11.8197
12.0913
12.8477
13.9771
13.322
9.98854
10.7043
32.762
33.2269
34.9989
33.2004
32.8034
33.5137
34.1827
34.4093
34.4494
34.1471
34.3371
35.5679
37.5046
40.0088
42.4456
44.8569
46.8279
48.1387
48.7051
48.5866
47.4228
46.0606
45.2442
44.7845
45.011
44.768
43.3962
39.6607
33.1077
35.8208
30.4321
31.7205
43.0689
50.1336
51.6045
50.181
47.8063
46.0545
43.2743
41.8556
40.9505
42.9556
45.4638
50.6076
53.6758
59.7093
61.7732
67.0344
69.1247
71.5939
71.4629
71.8083
70.3853
70.2205
67.6456
64.8961
56.5994
47.64
37.7971
50.0597
51.6178
43.6666
39.8717
38.4631
39.5131
41.4457
46.0252
51.2474
56.6809
62.4175
68.3254
74.7068
81.8392
89.5542
98.1501
107.639
116.38
123.039
127.222
128.083
123.181
116.897
108.612
96.4399
82.9219
70.0775
60.314
52.0641
45.2712
72.0612
41.1658
31.7111
39.3382
47.9889
54.9323
61.1221
66.1956
72.0535
76.6644
82.7575
87.2757
92.5707
97.4503
103.185
107.035
109.679
113.437
110.487
111.719
108.141
107.467
101.843
90.7526
74.7663
58.8848
46.342
37.5472
31.0565
28.1899
44.78
40.2725
33.8666
38.4255
40.6736
41.3025
40.9217
40.4551
40.1442
40.5697
42.051
44.0315
46.5031
49.9352
52.8716
58.5716
61.6438
69.4119
73.2282
76.8112
80.5117
81.1321
81.5515
81.4919
80.381
78.9203
75.3041
67.1471
54.1716
40.7078
50.6535
44.5048
41.2943
46.7359
42.1488
35.5096
34.4809
47.4331
68.0466
87.227
102.802
117.631
128.25
140.564
146.317
157.179
156.189
167.162
170.049
170.067
162.133
150.56
140.074
116.147
102.25
87.6538
76.3718
69.9949
63.7786
54.5535
71.3311
40.7432
22.2078
25.9139
34.0318
42.489
49.8594
55.9675
63.4647
68.8747
78.6452
83.9912
96.2515
99.0711
112.333
114.181
120.812
123.334
121.62
121.831
114.311
107.574
101.229
92.2566
79.6963
68.6296
55.6438
41.7508
31.9888
27.9071
44.1165
52.0081
50.7577
55.0104
60.4746
66.798
75.0948
82.8661
94.8705
102.702
115.675
123.138
134.019
136.576
142.745
137.9
138.384
128.491
123.895
115.958
107.206
96.5017
81.4055
60.8209
42.59
30.6407
26.1825
26.1609
26.9688
28.2368
37.838
46.1373
48.8518
61.4382
73.6132
85.3858
95.1449
112.878
122.408
148.832
157.188
179.12
183.109
194.134
194.595
187.517
177.936
172.11
150.306
141.582
120.845
100.969
80.3886
59.2231
43.0545
37.4115
33.0339
29.8017
32.566
37.4543
50.0931
47.5366
54.1798
73.4396
92.1941
110.003
125.944
146.709
160.204
182.589
197.61
206.42
217.149
223.087
228.386
227.298
224.171
217.915
209.782
189.354
159.184
123.794
89.3337
65.2236
50.8515
45.0055
41.0446
39.8169
44.673
53.3902
64.3749
59.3984
46.6464
60.1303
69.597
68.9589
73.0946
79.6954
83.0271
85.9539
84.6988
81.1764
78.972
73.4339
69.0728
65.1005
61.9903
60.979
62.0825
65.2162
70.8955
78.7757
85.0442
93.0347
96.8413
98.5819
95.0285
88.2482
78.6565
67.1525
75.4068
34.0612
26.1725
25.4586
45.0773
69.271
56.4463
58.6216
66.6249
72.6227
76.2693
78.5267
79.2446
79.4357
77.4237
75.4227
72.3779
69.1647
64.3981
58.7198
50.5691
41.304
31.7977
23.3855
14.8636
9.62627
6.34793
4.30147
3.3744
3.42737
5.48174
16.5265
12.9272
11.3944
11.3458
11.5995
11.7374
11.6452
11.5427
11.254
11.565
12.9157
13.9346
11.6849
12.0266
38.1934
39.085
35.994
32.5261
31.8056
32.6384
33.8739
35.3869
36.7113
37.649
38.4922
40.1875
42.3282
44.1405
44.9826
44.8006
44.1596
43.391
42.669
41.8684
40.9748
40.0207
39.1659
39.2081
39.9884
41.4933
42.3145
40.9798
36.381
41.3899
32.4023
35.5412
44.6506
48.5958
47.0606
44.8622
43.936
44.0747
43.7373
44.4119
46.0205
50.8772
55.6003
60.3206
62.5413
63.3312
63.4442
64.6514
67.3129
68.7972
70.6511
69.6542
69.3247
68.3755
68.105
65.9355
62.1587
53.099
43.3314
55.8318
55.1387
47.0278
40.3621
37.1646
39.6507
44.958
52.3725
58.971
65.9882
72.3389
76.9763
80.1769
82.4865
85.1791
89.1358
93.9977
100.268
107.204
112.333
114.317
116.969
116.344
111.96
104.573
92.4944
78.5838
66.242
55.7115
47.9591
75.5637
41.8405
35.9158
43.4584
51.126
55.9958
59.7417
62.4676
64.6106
67.7753
71.0134
73.7393
77.4011
80.7313
84.5091
88.2727
91.7798
94.3299
94.9062
97.4973
97.5826
100.681
100.355
96.5732
87.3679
72.1886
57.794
45.9077
37.0246
30.8408
48.767
44.727
38.661
41.5985
41.6168
40.9807
40.5166
40.8433
41.895
43.9068
45.6809
47.1794
48.7401
50.4508
51.3752
54.902
55.5897
58.7691
62.2985
63.3448
66.8789
67.4814
67.821
69.0812
68.9175
70.8891
72.0534
68.9672
59.3435
46.1212
54.0455
51.084
47.7055
46.6793
37.6276
33.7373
43.9657
68.0546
86.065
97.8262
107.848
117.128
119.927
118.567
111.585
110.109
108.42
113.415
122.592
130.089
137.003
143.218
128.568
117.066
102.291
84.9171
75.2889
70.4923
66.0202
60.4111
76.8457
42.7399
23.7758
30.1185
39.3847
46.2609
51.9104
56.5088
60.7763
64.8065
71.5246
76.1782
85.1497
88.9703
101.112
100.314
110.459
112.363
112.461
113.31
107.186
105.815
102.978
94.9481
88.1126
78.5343
64.7701
51.9405
38.6002
30.0346
45.7948
55.5523
51.9465
55.3615
60.2707
66.0458
72.6768
78.9633
88.3663
96.2084
106.97
115.381
121.47
127.412
128.485
126.818
124.239
118.271
116.049
111.693
108.653
103.09
93.3528
75.5105
55.4669
39.5642
28.6298
25.2313
26.931
28.2679
38.0591
49.6195
55.8712
68.0371
78.4052
88.6078
98.2579
110.775
119.935
143.488
149.783
171.738
178.383
180.425
180.893
179.863
166.676
165.747
153.025
143.417
131.315
113.011
93.8099
74.1383
54.8179
44.307
35.5569
28.5619
31.9705
36.9751
49.8527
50.9325
64.2849
85.2567
103.39
120.452
128.338
141.398
152.949
171.766
182.723
193.227
204.807
211.882
216.783
218.721
216.139
212.356
207.76
202.035
183.245
148.123
112.027
82.9706
64.4412
50.7033
39.6208
34.9437
41.8729
54.1667
65.9306
68.0782
60.3823
72.9371
73.3904
78.9823
84.7876
91.8337
91.1157
92.2833
92.3398
90.8559
91.2915
90.9066
86.5178
82.533
77.0437
72.3191
69.4057
67.5254
67.8376
69.987
75.1758
82.4121
86.5658
88.945
90.4156
88.0866
82.119
73.448
79.3714
32.046
22.0233
27.5276
57.3687
63.8992
59.0348
64.9904
70.6741
73.2441
73.8872
74.0567
74.4459
73.6474
73.1715
71.897
70.0748
70.09
68.2717
65.1788
58.8624
48.4534
37.039
26.8298
16.9613
10.3352
6.46527
4.31756
3.50799
3.80954
6.06574
17.2638
12.8562
11.965
12.7465
13.6328
13.3959
12.4528
11.8147
11.22
11.2355
12.6117
14.2407
12.9285
13.2464
43.2373
44.7228
37.1478
32.1277
30.4188
30.562
32.6054
35.8039
38.5007
40.5758
42.2247
44.6993
46.7956
47.4316
45.6236
42.6112
39.1073
36.1902
34.0481
33.2479
32.884
33.3194
33.2958
34.3427
35.6732
38.2182
40.4443
40.9599
38.3805
44.6545
34.6105
39.9573
46.6247
47.2791
43.0938
40.7463
40.9631
43.5164
44.6663
47.6577
51.4899
60.1874
64.2987
69.6758
66.5398
64.6992
60.0052
58.9288
57.7012
61.1252
63.2071
65.8848
65.7421
66.1533
65.9991
65.9802
63.4224
57.578
47.6776
59.7388
60.2567
51.6112
41.8443
37.4591
40.4942
48.6094
57.672
66.058
75.0696
82.1954
85.3348
85.5612
84.0939
81.9933
79.9748
79.5566
81.531
86.321
92.7109
100.993
107.308
110.466
110.94
107.302
98.0123
84.954
70.9127
59.4249
51.0347
78.416
43.3522
37.6558
46.3116
53.7407
57.7084
59.6336
61.602
62.252
62.461
63.6964
63.0786
64.345
64.4758
66.868
68.9868
71.422
75.583
78.4554
82.8929
85.371
90.387
92.2661
95.0585
89.5675
80.5013
66.2043
53.4336
42.0025
33.5567
50.1821
49.3187
43.7224
44.1381
41.999
40.1355
40.1786
41.6412
44.2637
46.8206
48.5959
49.8736
50.7429
52.429
52.5564
52.5736
51.112
48.5339
48.7396
48.1943
50.9942
53.6788
55.5146
57.9065
59.3087
63.2103
67.3767
69.0579
62.655
50.7973
56.1535
57.8831
52.7984
43.9933
34.8949
38.2438
60.3897
78.6837
86.3035
97.8058
109.094
113.652
104.537
90.3318
78.403
75.1359
75.2963
76.8795
83.8819
90.937
106.556
112.625
116.838
112.038
95.8281
82.9025
72.3454
67.8591
68.7718
65.1313
78.9843
43.8542
25.6776
34.0324
43.066
49.5799
53.8292
57.3505
60.1077
62.3381
67.1101
69.2979
75.5516
79.4533
87.8289
89.9192
97.3692
99.2455
101.447
101.039
99.4283
102.624
97.6928
96.3276
92.2718
82.4727
71.8813
58.7931
44.3143
33.4498
46.8246
56.9097
51.8273
56.5287
62.4072
68.1651
73.5581
79.2992
85.9828
90.6924
100.61
105.094
112.41
116.66
119.984
116.168
116.367
109.229
108.04
105.789
106.323
105.51
100.551
87.2672
66.7552
49.303
35.5576
27.798
27.9515
28.698
39.1461
52.0016
59.0683
71.5588
83.0964
92.8234
102.32
110.266
117.142
130.164
131.651
151.177
152.913
169.113
169.129
161.795
157.375
154.267
148.084
141.819
133.153
122.958
103.479
86.1874
66.032
51.3979
40.6384
32.1297
33.7898
36.6042
49.646
55.0335
71.3942
95.1484
113.052
123.475
124.412
132.386
137.082
151.242
163.107
175.366
186.26
191.812
198.392
201.838
203.441
203.006
202.021
201.587
195.647
168.358
130.761
100.003
78.0257
61.1128
45.4199
36.8755
40.841
53.9525
65.9152
77.9284
73.7939
77.7346
80.5906
87.7678
92.0224
91.1933
90.3245
88.2907
89.1149
92.4862
93.9404
98.7802
102.481
100.669
95.7553
87.8587
80.8829
76.3063
70.5037
64.9754
62.6167
67.1172
76.3482
82.1797
85.4389
87.4062
83.6495
78.5689
80.2329
34.6131
21.3798
35.109
59.1526
61.2946
63.3397
69.0024
71.5322
71.092
70.1295
68.962
67.9497
67.837
67.2824
67.6058
67.9651
68.4767
69.4905
68.5009
64.8083
55.1486
41.671
30.0832
20.1107
11.9278
6.92272
4.54494
3.87128
4.64867
6.56246
17.6587
13.0422
13.1666
15.1959
16.5051
15.4757
13.2767
11.7475
11.2487
11.4881
13.2361
14.8325
13.8016
14.2131
48.7274
50.3891
38.6554
31.8813
28.1449
27.7325
30.5462
35.2224
39.5235
42.6711
45.262
48.6273
50.3768
49.1092
44.8795
39.76
34.5164
29.832
26.5031
25.1132
25.3774
26.8718
28.3251
30.4026
32.5712
35.8177
38.7725
40.6706
39.7598
46.4587
36.9851
44.4392
48.1676
46.0254
39.8424
36.2423
38.9413
42.7601
45.7018
50.2671
57.3761
67.0392
71.9287
75.7147
68.7478
66.3357
59.3384
53.2626
48.7195
49.1333
54.3727
58.9691
61.7978
62.5949
63.7395
64.3476
63.9033
59.6705
51.5573
60.8951
64.8992
56.1299
43.8066
38.5768
42.1658
51.372
61.7311
72.7821
83.9106
91.0044
93.8748
93.0207
89.1311
82.8636
76.1035
69.2214
65.9065
63.7413
69.3997
78.676
88.6908
98.3315
105.838
105.577
99.6995
87.3158
73.498
60.5813
51.9837
77.9617
44.4897
39.2539
49.4998
57.322
61.7992
64.6599
66.1019
66.5479
64.132
61.6717
56.2291
52.4289
48.1703
47.7688
47.8893
51.5885
57.0975
61.6603
68.7576
72.8529
79.3526
83.2378
86.7534
86.83
81.0381
70.9219
57.964
46.4945
35.8561
50.8919
54.2598
48.6104
46.2743
41.5879
39.2418
39.9619
42.6014
46.005
49.1069
51.0173
52.2274
54.4389
55.6778
56.4773
53.569
50.6133
43.4756
38.8839
34.3866
35.3168
39.7743
44.1203
48.8292
52.3525
57.4492
64.0776
69.0261
65.0214
54.055
55.9955
64.7828
56.9265
42.1724
36.8181
49.5026
66.5455
74.0713
86.1374
104.944
116.213
109.312
88.7711
72.3224
63.9477
58.1841
56.3116
54.503
60.3843
70.2691
79.6448
93.7763
104.709
99.2386
91.5095
78.558
67.594
66.7179
71.0635
71.048
82.0241
44.494
28.1574
37.7844
46.4631
52.6908
57.2027
60.3903
62.1115
63.78
64.8251
66.5948
66.2487
69.7407
72.6195
75.4269
81.2624
83.4651
87.1931
87.9816
92.8143
93.0478
93.4701
95.7249
90.8347
85.4537
75.6971
61.3924
47.3375
34.7892
47.2183
58.2425
51.4628
58.2771
65.6049
71.7871
76.5104
80.3469
85.0137
84.949
91.3173
90.1028
99.1481
101.043
103.626
104.685
104.567
101.448
101.592
99.5758
102.976
104.479
103.659
93.8461
76.5546
57.3912
41.2603
31.2848
29.241
27.8519
38.0975
56.3826
59.6503
74.4145
87.679
98.4576
104.325
111.73
110.728
114.397
110.614
117.007
117.573
129.742
136.722
147.471
138.114
143.944
134.836
139.084
128.754
125.948
110.308
94.088
74.7869
57.1303
44.368
36.0271
36.266
36.3785
49.5713
61.6373
76.757
102.619
118.428
121.698
118.737
125.356
124.78
137.026
134.752
146.34
146.874
157.174
165.446
174.196
181.337
188.497
193.199
198.798
198.413
179.416
145.086
112.249
88.5715
68.6872
52.371
41.2879
41.5943
52.1671
65.3006
88.6331
85.4227
83.1061
87.0805
91.6022
90.2262
85.7925
82.5509
82.7352
82.178
86.0428
91.2401
96.2061
105.374
110.994
109.758
104.706
94.488
86.6423
77.7187
70.6352
57.3357
54.6091
66.0763
77.7409
84.7053
85.9894
86.0683
83.192
77.4054
35.7597
23.1266
39.8548
59.4296
62.0933
66.5807
71.0116
70.6151
67.8901
64.864
61.7161
59.4727
57.4864
58.2459
60.9347
64.8547
66.2018
69.3677
69.1558
67.9941
60.5553
45.895
32.4161
22.8589
14.0541
7.76579
5.09909
4.65145
6.12839
7.40827
17.7665
13.5416
14.7232
17.7786
19.2893
17.7237
14.5972
12.2519
11.839
12.6864
14.5271
15.4656
14.6855
15.5052
53.9808
54.5285
40.3398
31.9086
26.5924
25.485
28.5373
34.1603
39.8472
44.2153
47.7754
51.7942
52.9992
50.579
44.0911
37.8789
31.7864
26.8247
22.3111
20.4267
20.8845
23.3991
25.7972
28.6981
31.4751
34.7411
37.899
40.166
40.8487
47.1751
39.7692
48.2054
49.3836
45.1919
37.0954
33.4781
36.0794
41.993
45.7106
52.3724
60.8496
72.6248
77.3596
79.4744
74.4746
71.0763
64.3906
58.1737
49.7573
46.3252
48.4987
54.8777
58.1837
60.2146
61.6624
63.0262
63.1263
60.5077
53.9137
60.9493
72.1604
62.4804
46.7473
40.5912
43.7437
54.1817
64.9788
77.4316
89.0859
96.4136
100.562
101.576
97.3835
89.9163
79.9418
69.9832
58.0633
48.633
47.3688
58.4645
73.8739
88.2431
97.9836
103.08
98.3092
87.8009
73.2976
60.6317
53.1122
77.7761
47.5688
42.1839
54.2713
63.5797
69.699
74.3302
75.368
76.0358
73.0146
68.1879
58.799
50.6713
40.1018
33.2529
29.8304
33.6141
41.0621
47.8426
56.2004
61.8593
69.6137
73.5064
78.7042
79.8593
78.0308
70.489
59.9307
48.2734
37.6976
50.8493
59.1587
53.1219
47.7363
41.0838
38.4047
39.8839
43.4265
47.5185
51.0141
52.8957
55.4564
58.8729
61.393
63.0412
59.1097
55.2116
47.0219
39.16
30.5902
27.0342
30.2347
36.7818
43.2549
48.6005
55.2747
64.1756
69.996
66.8843
55.3745
53.8571
72.7679
58.0714
42.796
43.4538
56.2687
63.8921
74.0177
95.1338
116.933
121.391
105.71
81.6496
68.7577
62.7204
55.1586
46.9886
38.1719
44.3035
54.8045
68.9882
83.4817
91.4208
92.9992
85.0227
72.5583
64.7941
66.9399
75.7768
75.9707
80.9717
45.5398
30.9933
41.2331
50.0439
56.807
61.6401
65.2942
66.5508
67.1573
66.0902
66.6138
61.6358
61.6902
57.6439
57.1568
59.639
64.5219
71.1524
78.3951
82.1624
85.2673
89.5826
90.359
89.9358
85.923
75.765
63.2258
48.3554
35.2338
46.4067
59.9465
51.1951
60.133
69.1246
76.1818
81.2527
82.6241
85.5611
81.7389
82.4476
79.2552
79.8123
77.3429
83.3318
86.1848
92.5732
92.0443
94.1808
94.9855
98.1766
102.92
103.086
97.4038
80.8187
62.2341
45.9481
34.8985
31.3929
28.5646
39.6061
63.8377
60.5367
77.1743
91.449
103.181
107.328
115.896
110.115
108.161
96.5123
92.8476
84.0599
89.5606
100.356
120.805
117.621
130.294
122.649
132.424
124.636
125.22
112.689
99.3495
79.7146
60.5711
45.0767
37.7047
37.4019
35.6009
49.8879
73.1638
81.9987
107.393
119.962
119.776
118.109
122.591
121.17
125.384
117.309
121.166
109.441
110.151
117.458
136.331
154.369
170.461
183.234
194.693
191.746
181.575
150.587
120.392
93.5439
72.8413
56.1156
44.9216
42.4469
49.9793
63.4737
97.8546
88.2356
88.3054
91.0729
90.1266
84.287
78.2596
74.4765
74.3229
76.9133
78.8662
84.7057
91.425
98.3254
112.561
114
112.74
106.883
96.5625
87.2805
80.4812
70.281
63.7948
68.3224
78.1559
82.0148
86.2206
86.6237
84.2835
70.7291
38.9256
24.7749
40.7093
58.4175
63.5631
68.2819
71.043
69.6139
64.8737
59.3891
54.2208
49.0606
46.4179
48.789
53.6293
60.7961
64.6832
68.3
69.6196
68.2935
64.3899
49.129
34.1731
24.5176
17.169
9.7017
6.636
6.63595
9.15894
10.3321
18.0384
14.03
16.2298
19.8135
21.2575
19.7235
16.3674
13.9035
13.5071
14.4266
15.8494
16.9329
18.7043
22.6697
57.537
59.8012
42.1814
32.1871
25.2124
23.2417
26.2278
32.9192
39.6586
45.0382
49.6377
54.3338
55.5198
51.6851
43.6758
37.6433
32.2509
27.4516
22.8171
20.8057
21.8083
24.6716
27.4548
30.1871
32.8196
35.4144
38.3845
40.5122
42.1287
49.0094
43.0709
51.8507
49.5211
42.9954
34.7893
30.4105
34.3087
39.8383
45.2512
52.6008
62.5691
75.602
80.7893
84.698
81.335
79.4573
72.8348
69.2874
61.3673
56.6703
54.8041
57.1725
59.0305
60.267
61.2072
62.2598
62.3554
60.2479
55.3537
58.7252
78.7003
66.8523
49.8997
41.5371
44.2529
54.3732
66.7807
80.7951
95.8576
106.846
111.688
111.253
107.706
100.882
90.9665
79.0687
66.5221
53.1297
43.6475
52.0155
68.5256
84.9396
95.3969
100.119
96.6558
85.5741
71.9104
59.7969
54.5062
74.9179
54.2101
47.7457
61.4125
72.2851
79.7771
84.7386
87.055
88.3111
85.062
81.4133
71.4127
62.3451
49.6165
40.621
32.6517
31.2089
35.149
41.15
48.3763
54.6041
61.496
66.7405
70.1059
73.2804
72.1763
67.982
58.7101
48.7251
38.4337
51.408
64.6691
57.3672
48.208
40.032
37.3729
39.1596
43.3338
48.1834
51.8508
54.9849
58.2635
63.3209
68.0584
70.4001
68.0628
61.9456
55.9107
49.0774
40.1134
35.2402
34.5544
38.4888
44.1718
50.1841
58.8339
68.0484
72.1515
66.8894
54.4434
51.2448
80.0277
60.6508
45.0456
47.6518
55.9777
63.0882
78.0805
105.765
125.691
126.712
108.151
86.5437
73.7982
68.965
63.5497
56.8825
46.5042
47.0437
55.6111
69.3409
78.6886
87.5052
87.3404
77.3177
68.0253
63.4314
74.1299
83.0066
81.3848
82.8511
48.3923
34.7795
44.8945
53.8528
61.2528
66.5636
70.3062
71.778
72.3437
70.4897
69.8611
63.9304
61.0871
51.7469
45.5598
39.6989
44.9987
57.7007
68.3996
73.4856
80.5673
84.238
87.5063
88.8119
83.8175
76.3334
63.1707
47.8393
35.629
46.8665
61.3243
51.2897
62.0166
72.5743
80.8926
86.2684
87.2902
89.2463
82.7708
81.7797
72.4406
65.1617
56.5795
56.5579
66.4459
77.8879
82.0606
88.1478
89.7866
95.1658
98.2866
102.188
97.0866
82.6148
63.8616
47.5017
36.6826
31.2684
28.7066
42.6548
70.8457
60.2282
78.1911
93.9808
106.547
114.793
122.259
119.135
113.378
100.099
86.948
67.5668
60.1382
67.4141
95.5413
100.547
118.949
115.352
126.168
120.679
123.702
112.083
101.328
81.1348
60.4354
44.252
37.1254
37.3357
36.7759
55.2522
88.4725
85.9663
110.293
120.526
121.05
120.731
124.823
124.726
126.572
118.909
116.916
97.0596
83.6491
76.9601
101.934
132.052
149.103
174.968
183.193
178.79
175.048
147.364
121.784
95.6577
74.5118
57.913
46.1042
42.6629
46.6399
60.5854
106.719
96.0532
90.5791
92.9969
86.4141
77.5754
69.67
66.0899
64.1744
67.1128
73.8834
78.7743
85.2737
91.7424
100.061
111.637
115.07
111.086
104.862
95.7895
87.1242
81.8299
76.8301
76.0295
79.3181
82.9474
84.4584
85.5963
86.2296
62.847
46.5476
24.9497
39.4539
56.4341
64.067
69.444
70.3156
68.0713
62.7562
55.2324
47.1735
38.1356
31.8355
37.6961
46.5092
56.5552
63.4227
67.5415
69.9065
67.9349
65.4213
51.4375
35.0754
25.1816
20.0486
13.1409
10.7583
13.015
17.3938
20.9683
18.113
14.4494
17.2716
21.1235
22.5743
21.1711
18.2371
16.4553
16.3703
16.8972
18.8576
24.9844
37.8959
47.333
61.8109
76.2336
72.4684
64.1374
45.8113
33.8582
24.7523
21.5598
24.4079
31.3392
38.9877
44.8289
50.4772
56.3201
57.5685
52.8514
45.0891
39.6249
34.6588
31.0765
27.8373
27.1044
28.1492
30.6825
33.4257
35.4718
37.8583
39.1304
40.7383
42.1589
44.3861
45.4057
52.6001
57.7259
54.1321
55.9169
49.4035
41.5758
32.8598
28.6676
31.8263
38.1661
43.4993
51.0347
61.8599
75.9189
83.2426
88.904
88.331
88.0592
83.7527
80.0757
75.1564
71.6295
68.1769
66.1673
65.186
64.2281
63.735
62.7721
61.1903
57.7225
54.14
55.9504
60.8254
74.0584
100.71
74.6642
53.5866
43.2066
42.6363
52.772
65.2634
79.8238
93.6098
106.318
114.899
119.607
118.365
112.455
103.837
92.4248
83.2837
74.0997
66.842
68.9623
77.3855
88.7768
96.2332
100.023
93.8881
83.3309
71.6558
62.8616
61.01
61.686
62.5151
74.1248
65.9457
67.4868
74.3565
82.5408
89.0698
93.8441
97.3644
98.8227
96.6425
96.9561
88.9949
81.3098
69.155
60.198
51.4105
47.2461
45.8947
47.5535
50.6514
54.4532
59.051
62.3146
65.553
67.4545
66.8937
62.7479
55.6681
47.6009
40.8754
42.5059
58.1451
74.5904
74.8695
60.3004
48.1059
39.132
36.3969
37.963
42.7327
47.5736
52.4996
56.2134
60.3287
66.4869
73.8514
77.0925
76.8841
71.2727
64.5068
60.8442
54.849
49.5625
49.0651
49.5965
53.3288
59.5851
67.7902
73.2719
71.9321
62.6662
50.0865
41.7432
73.5278
107.986
95.135
65.0339
52.508
52.6342
56.2882
64.1876
81.0431
110.602
132.821
135.801
121.157
99.235
84.0335
79.3156
74.7527
74.3308
71.0347
69.053
72.5704
77.8977
82.9088
85.98
79.5687
71.8893
65.1641
71.3648
86.4911
90.8088
84.8174
62.8427
57.7247
64.1032
52.2573
46.8247
51.1445
58.0733
65.3709
71.0141
75.0665
77.1598
78.5165
76.2636
76.3781
71.7929
67.7756
61.1671
53.3779
46.3304
46.7381
54.982
65.0961
72.1529
77.289
82.9193
86.2008
85.9041
83.3375
75.0785
61.3077
46.5808
39.5395
47.5166
60.8437
61.1483
46.9938
55.4345
65.2527
75.9175
84.6043
91.4104
93.8648
94.7786
89.8298
88.4161
77.3684
71.7311
59.4188
51.5606
56.3725
69.7015
76.1373
83.061
86.3709
90.3035
96.4319
97.7814
93.8097
80.5923
62.2631
44.587
31.2435
30.1082
44.6687
57.8335
68.7324
71.0505
55.5325
63.0718
79.1709
95.8089
110.234
121.597
130.733
132.284
129.557
114.738
105.066
85.7519
75.7197
72.9562
91.3755
96.2103
113.884
110.661
124.762
117.243
123.408
111.08
100.274
78.8359
56.0843
38.3262
38.0372
53.1961
67.6246
77.4999
88.4357
95.6669
77.3519
96.0121
115.901
124.057
124.933
124.668
130.325
134.495
139.247
132.173
135.231
118.187
110.927
99.054
105.136
132.223
140.84
161.871
162.501
167.721
158.999
140.566
115.996
90.393
70.0493
54.6876
45.2646
42.7554
46.4361
47.897
67.3376
81.6105
110.711
97.1307
94.2109
91.3086
82.8197
72.2698
60.9473
52.8424
51.3325
56.6011
65.9706
74.4694
80.7123
85.4132
88.007
102.064
109.008
111.516
107.04
101.572
92.6099
85.854
82.3618
79.2124
79.3721
80.6699
81.9202
83.8877
82.1957
62.5677
69.4481
77.5305
45.4772
25.5332
36.4138
53.7247
63.221
69.2854
70.401
67.1757
61.0897
53.7528
44.358
32.7437
24.397
34.0354
44.6698
55.5531
62.8315
67.4003
69.7265
67.7168
64.2807
51.9632
35.237
24.9854
23.0362
19.0458
20.2521
25.7861
31.341
31.1191
7.58833
3.49462
18.158
14.6197
17.999
22.0254
23.4846
22.1183
19.6236
18.2243
17.8282
18.3989
22.4442
36.7166
58.8792
71.6993
80.2685
89.8852
83.8711
61.9763
46.4309
34.3526
23.1643
19.9838
22.7584
29.5814
37.2488
43.9095
50.1757
56.8748
59.4565
55.7949
48.4785
42.8639
39.0452
37.0292
35.7639
36.7504
39.3163
42.1199
46.1693
47.5954
49.4688
47.9729
48.1258
47.7311
47.5517
48.3911
47.1655
53.2472
60.6197
53.711
46.9116
38.5192
31.144
27.5639
30.9561
35.8665
41.0913
47.7995
59.3376
73.7109
83.027
91.4831
92.6916
95.0856
93.3887
91.6705
87.08
84.3966
81.1369
78.3366
75.1239
72.1259
68.3109
64.204
58.2941
52.9401
49.4572
52.5918
54.1078
73.3032
107.931
76.1532
55.0421
44.6103
42.6265
49.3654
60.6254
75.4601
92.3684
106.945
117.847
124.098
125.34
122.114
117.268
108.211
97.9042
92.4316
88.3946
88.2497
93.4285
98.2025
101.186
100.436
93.8115
84.6147
75.3964
69.5407
65.7515
66.0322
69.1671
72.78
70.2907
72.2909
78.9946
86.7509
94.0622
100.294
103.764
105.199
107.57
108.319
105.818
101.854
93.9096
83.1826
76.6154
69.806
66.7716
63.497
62.3701
62.8771
63.2327
64.3687
64.9337
64.5233
62.2394
57.0467
50.0481
43.9581
39.4299
40.5706
47.794
61.9775
75.49
60.199
46.6702
37.7881
34.7445
36.3093
40.7865
45.9666
51.4112
56.49
61.2077
67.9339
75.8992
82.2206
81.8814
79.099
73.1935
69.089
68.7625
65.9613
64.3135
66.3846
68.68
72.809
76.0313
74.2387
66.8321
56.1043
47.8491
51.0002
75.2838
96.8828
92.1664
66.8057
56.9762
53.896
56.6039
64.4925
79.6391
107.278
136.108
144.644
137.8
120.11
101.892
91.4932
87.6276
88.7798
87.5784
87.9884
86.8909
87.3632
84.97
79.9068
75.6471
70.9451
75.0973
92.4658
100.229
96.3928
82.9862
54.9883
51.3627
55.7095
50.7422
47.2969
51.5695
58.6738
66.4601
73.1702
78.3428
81.4955
84.1724
83.4937
84.5546
81.5519
81.1188
76.3544
71.8534
69.8415
67.2793
69.0363
73.7088
77.05
79.36
85.192
85.6368
84.8623
82
73.8195
61.4925
49.762
43.9115
44.0007
44.2496
44.3426
48.3424
56.1152
65.5762
76.3321
86.9932
95.6547
98.3312
102.046
100.831
98.9929
92.0285
91.6506
80.1602
76.2698
71.9178
77.4641
77.0169
83.3695
83.2573
89.5143
92.98
93.8677
89.0556
75.9801
58.5555
42.4118
32.161
39.1863
49.6464
51.4439
46.9628
44.5953
45.8247
54.427
71.9133
92.1219
109.755
122.992
138.227
145.203
147.045
136.498
131.942
118.228
112.004
106.028
115.178
108.073
122.282
119.073
124.628
119.653
123.89
110.665
96.6423
75.6329
53.8044
43.6543
51.5911
60.0723
64.4424
65.2728