/*--------------------------------*- C++ -*----------------------------------*\
| =========                 |                                                 |
| \\      /  F ield         | OpenFOAM: The Open Source CFD Toolbox           |
|  \\    /   O peration     | Version:  2.1.1                                 |
|   \\  /    A nd           | Web:      www.OpenFOAM.org                      |
|    \\/     M anipulation  |                                                 |
\*---------------------------------------------------------------------------*/
FoamFile
{
    version     2.0;
    format      ascii;
    class       volScalarField;
    location    "0.003600000";
    object      O2;
}
// * * * * * * * * * * * * * * * * * * * * * * * * * * * * * * * * * * * * * //

dimensions      [0 0 0 0 0 0 0];

internalField   nonuniform List<scalar> 
12384
(
0.0401749
0.0314095
0.0258893
0.0247468
0.0285255
0.039072
0.0504101
0.0645764
0.074744
0.0781378
0.0665998
0.0341506
0.0139084
0.0120169
0.0732493
0.070605
0.0599423
0.0521997
0.044633
0.0404872
0.0382054
0.0373713
0.0367854
0.0393926
0.0395256
0.0420641
0.0417387
0.0435832
0.0424323
0.0438854
0.0433759
0.0449292
0.0448879
0.0474652
0.04971
0.0566957
0.066024
0.074763
0.0806277
0.0838113
0.0746607
0.0577298
0.02141
0.00514098
0.0244061
0.0290318
0.0346376
0.0361018
0.0370997
0.0375137
0.0374137
0.0369714
0.0354812
0.0338693
0.0318795
0.0301575
0.0276085
0.0242333
0.0178667
0.00951478
0.00447501
0.0032138
0.00250712
0.00199564
0.0018247
0.00185857
0.0021067
0.00231428
0.00246692
0.00535306
0.0158365
0.041128
0.0552804
0.0504624
0.00224458
0.00207534
0.00203655
0.00214521
0.00226781
0.00219082
0.00218304
0.00212231
0.00218438
0.00211978
0.00301751
0.00248315
0.00506096
0.00525144
0.00662306
0.00754191
0.00949375
0.0121316
0.0134802
0.0160014
0.0171775
0.0190154
0.0199827
0.0242398
0.0191489
0.00167779
0.000985696
0.00235554
0.0167927
0.0305384
0.0043972
0.00220778
0.00149875
0.00112471
0.00108626
0.00123471
0.00156914
0.00195944
0.00234561
0.00321899
0.0034284
0.00331799
0.00367789
0.00242898
0.00225334
0.0018274
0.00151189
0.00109102
0.000966078
0.000805547
0.00100192
0.00110316
0.00159522
0.00219104
0.00525059
0.00981054
0.0132938
0.026998
0.0422278
0.0270436
0.0459644
0.0416836
0.0320251
0.0206166
0.0118905
0.00861568
0.00649543
0.00259414
0.0014055
0.000218843
0.000139975
8.42066e-05
3.55677e-05
3.03332e-05
3.24628e-05
2.6354e-05
2.23603e-05
2.27151e-05
1.83308e-05
1.65083e-05
2.03947e-05
2.28624e-05
2.5105e-05
2.51628e-05
2.91208e-05
4.59796e-05
0.000107876
0.00959528
0.0579694
0.0557645
0.0358816
0.034079
0.0305744
0.0167755
0.00118432
9.48871e-06
1.02882e-06
2.03979e-06
0.000334504
0.0506423
0.0732564
0.0712958
0.0630214
0.0553043
0.047011
0.0373811
0.0371259
0.0288421
0.0355243
0.0348831
0.048627
0.0577524
0.0690063
0.0788044
0.0872648
0.0910062
0.0919363
0.0881211
0.0800771
0.0765064
0.0640766
0.0624895
0.0575756
0.0542684
0.0464194
0.0425846
0.0346936
0.0300599
0.0233372
0.0253166
0.0552394
0.0775205
0.0896328
0.0916208
0.0744415
0.0319942
0.000380697
1.48192e-05
3.70657e-06
2.69592e-06
4.37745e-07
1.21223e-06
2.57366e-06
1.72935e-06
2.5344e-05
0.000724991
0.0213986
0.0637659
0.0826186
0.0775103
0.0795824
0.0829722
0.0885613
0.0907706
0.0838341
0.0732189
0.0654159
0.066645
0.0695784
0.0724226
0.074269
0.073569
0.0750005
0.0736376
0.0689347
0.0737386
0.0701586
0.0710709
0.0706519
0.0700039
0.0699807
0.0705123
0.0703335
0.0702248
0.0684987
0.0639429
0.0570598
0.0459229
0.0340108
0.0264407
0.0638806
0.0726451
0.0711351
0.0625133
0.0523465
0.044454
0.040028
0.0406685
0.0489596
0.0655826
0.0786171
0.0866151
0.0909592
0.0935532
0.0935482
0.0881811
0.0802129
0.075987
0.0707107
0.0701478
0.0713917
0.0583236
0.066293
0.0600001
0.0609104
0.0561249
0.050366
0.045827
0.0387511
0.0294476
0.0940032
0.0940447
0.0924324
0.091442
0.0883416
0.0845092
0.0795956
0.0737164
0.0673814
0.0637852
0.0652699
0.0649459
0.0678632
0.0700855
0.0720464
0.0750546
0.0782216
0.0795536
0.0809257
0.0825981
0.0842458
0.0850572
0.0823928
0.0795957
0.0756524
0.0655957
0.056712
0.0456424
0.0356221
0.031512
0.0944115
0.0958635
0.0949483
0.0911874
0.0897286
0.085924
0.0827058
0.0795551
0.0759108
0.0698511
0.0697502
0.0708376
0.0670138
0.0673507
0.0692654
0.0715477
0.0718667
0.0722724
0.0722151
0.0724556
0.0723781
0.0720728
0.0718664
0.071092
0.0702559
0.0662637
0.0618226
0.0544148
0.0508008
0.0479237
0.0962432
0.0966564
0.0976048
0.0966528
0.0950247
0.0929765
0.0917065
0.0876553
0.0831555
0.0803483
0.0771891
0.0760753
0.0723766
0.0726441
0.0739842
0.0757111
0.0776676
0.0804966
0.0837131
0.0864758
0.0879887
0.0888389
0.0899238
0.0879641
0.0876197
0.085001
0.0800295
0.0731198
0.0682419
0.0695108
0.00272584
0.000778148
0.000436293
0.000375075
0.000421636
0.00058911
0.00127059
0.00428936
0.0169471
0.0442059
0.0645173
0.0605894
0.0361795
0.0176005
0.074004
0.052627
0.0268201
0.0153459
0.00852841
0.00541061
0.00426079
0.00327488
0.00320422
0.00394671
0.00541594
0.00969559
0.0170306
0.0256649
0.0316971
0.0356627
0.0382422
0.0407562
0.042903
0.0446223
0.0458523
0.0486253
0.0549206
0.0656545
0.0767721
0.0822078
0.0762904
0.055776
0.022123
0.00494543
0.0245348
0.0306358
0.0362365
0.0389576
0.04049
0.0419725
0.0430555
0.0425813
0.0406839
0.0373978
0.0341024
0.0305849
0.0285861
0.0264432
0.0226839
0.015584
0.00847717
0.00417762
0.00260108
0.0011244
0.000872401
0.000787704
0.000790066
0.00163959
0.00250722
0.00441232
0.0154302
0.038621
0.0551149
0.0503764
0.00213288
0.00242377
0.00416041
0.00238918
0.00148313
0.000616991
0.000183448
0.000162055
0.000152476
0.000146608
0.000154502
0.000148569
0.000154511
0.000163548
0.00019411
0.000371226
0.00106642
0.0017771
0.00250967
0.00546039
0.00977925
0.012596
0.0163221
0.0220548
0.0231835
0.0112292
0.00324732
0.00160326
0.00312605
0.0252247
0.00463312
0.00196252
0.00184435
0.00363127
0.0100079
0.0195353
0.0293218
0.0378089
0.0438431
0.0481889
0.0497406
0.049061
0.0460304
0.0390129
0.029428
0.0167316
0.00925117
0.00303811
0.00209839
0.00170799
0.00161805
0.00171573
0.00198778
0.002592
0.0068191
0.0122705
0.014312
0.0224823
0.0405767
0.0298704
0.0437851
0.0317693
0.0211622
0.0120261
0.00526489
0.00136401
0.00014544
3.324e-05
1.81278e-05
9.49522e-06
7.68381e-06
6.55597e-06
6.02465e-06
5.65121e-06
5.61088e-06
6.00704e-06
6.61968e-06
7.3746e-06
8.29404e-06
8.8456e-06
9.22135e-06
8.93396e-06
8.83062e-06
9.05142e-06
9.0772e-06
2.30019e-05
6.15219e-05
0.00122175
0.0400113
0.0563176
0.000658985
0.00192332
0.00263377
0.00154029
3.90784e-05
2.41903e-06
9.2692e-07
7.02923e-06
0.013585
0.0535094
0.052246
0.0254912
0.00191713
6.08222e-05
1.68005e-05
9.70697e-06
7.19306e-06
7.9171e-06
8.53602e-06
1.45858e-05
4.17498e-05
0.00087506
0.01847
0.0479909
0.0723235
0.0852347
0.0903553
0.0877883
0.0802714
0.0757692
0.0635691
0.0524055
0.0395863
0.0345992
0.025565
0.0244374
0.0196246
0.0170361
0.0166109
0.0279439
0.0646621
0.0883949
0.0926609
0.0722596
0.00142012
1.318e-06
9.59184e-08
2.08602e-08
7.05489e-09
3.08961e-08
5.12906e-08
7.81411e-08
4.75627e-08
9.48018e-08
1.21404e-07
2.72192e-07
3.4464e-06
0.000111275
0.0416185
0.0782051
0.0791126
0.0845637
0.0893648
0.087642
0.0774002
0.0692417
0.066908
0.0754836
0.0852107
0.0921125
0.0944281
0.0917389
0.0862807
0.082387
0.0732155
0.0561365
0.0570441
0.0359289
0.0403952
0.0361255
0.0493149
0.0523613
0.0672733
0.0786888
0.091296
0.101977
0.104377
0.103896
0.0918479
0.0660318
0.0653865
0.0752656
0.0756947
0.0673464
0.0584456
0.0519661
0.0488742
0.0519921
0.0625124
0.075127
0.0840031
0.0891771
0.0926941
0.0961001
0.0996192
0.104463
0.109549
0.113264
0.11388
0.112405
0.106011
0.108787
0.10285
0.105093
0.103967
0.107407
0.106557
0.106741
0.104424
0.097241
0.0944958
0.0953892
0.094518
0.0929439
0.0907212
0.0875103
0.0841957
0.0824525
0.0794513
0.077759
0.0754151
0.0742971
0.0729119
0.0730046
0.0734541
0.0713834
0.0748776
0.0685701
0.0769848
0.0764501
0.0815676
0.0956468
0.1087
0.118875
0.122724
0.123765
0.119383
0.108538
0.0882825
0.0718599
0.0950629
0.0966972
0.0955231
0.0946037
0.0924897
0.0911481
0.0888497
0.0872777
0.0862609
0.0859383
0.0868258
0.0878446
0.0873155
0.0880116
0.0858913
0.0856326
0.0899675
0.092498
0.0974161
0.100751
0.103006
0.104056
0.104954
0.106872
0.108007
0.105928
0.0971944
0.0868508
0.0749703
0.0751866
0.0970803
0.0968818
0.0981391
0.0980555
0.09789
0.0940249
0.0878863
0.0760767
0.0743866
0.0868896
0.0945158
0.0950637
0.0958416
0.0961722
0.0974726
0.0988798
0.102356
0.10477
0.107401
0.110308
0.113057
0.116031
0.118105
0.115957
0.117212
0.115534
0.11357
0.107297
0.0967522
0.0894808
8.07037e-05
8.35143e-05
9.99426e-05
0.000109973
9.52273e-05
8.47426e-05
8.25984e-05
0.000174055
0.000481617
0.00251686
0.0194392
0.0533156
0.0544014
0.0336423
0.0700325
0.0313682
0.0127621
0.00646571
0.00381593
0.00207767
0.00156127
0.00101779
0.00106732
0.00114611
0.0012747
0.00205681
0.00433033
0.0107991
0.0219862
0.0297953
0.0341787
0.0371198
0.0401823
0.0414289
0.0410014
0.0400617
0.0439309
0.057006
0.071843
0.0809476
0.076183
0.0552544
0.0221827
0.00542013
0.0252623
0.0300142
0.0343872
0.0378893
0.0419481
0.0445488
0.046094
0.0443983
0.0400539
0.0344538
0.0284028
0.0252761
0.0240313
0.0243124
0.0243839
0.0212328
0.0156795
0.00850368
0.00435042
0.00187611
0.00106158
0.000650951
0.000514994
0.000731845
0.00132257
0.00361586
0.0181579
0.0422301
0.0543151
0.0463664
0.00257466
0.00614958
0.0013578
9.09183e-05
3.31228e-05
3.28188e-05
3.5838e-05
8.21972e-05
0.000119698
0.000134886
0.000131503
0.000107394
7.96297e-05
4.8315e-05
3.27552e-05
3.3159e-05
3.34809e-05
4.82122e-05
0.0001164
0.000195866
0.00135307
0.00254018
0.00815758
0.0165944
0.0233102
0.0213646
0.0129149
0.00488926
0.00230154
0.0183327
0.003538
0.00299079
0.00694416
0.0155676
0.0249382
0.0345898
0.0442569
0.0522828
0.0578721
0.063012
0.0648024
0.0670152
0.0646385
0.0613919
0.0532481
0.0428221
0.0293413
0.0179699
0.00965902
0.00610236
0.00468253
0.0045817
0.00463271
0.00659578
0.0112837
0.0175388
0.0177472
0.0225225
0.0406726
0.0294598
0.0390663
0.0216709
0.00899442
0.00181323
0.000104062
2.22179e-05
9.36341e-06
8.16796e-06
7.11159e-06
6.02321e-06
6.36222e-06
6.48709e-06
5.8624e-06
5.71918e-06
6.31944e-06
7.43109e-06
8.63306e-06
8.48777e-06
1.26315e-05
1.64991e-05
2.09448e-05
1.7859e-05
1.49076e-05
9.40328e-06
8.07306e-06
1.46968e-05
4.30172e-05
0.000217653
0.0271121
0.0549413
2.32743e-06
6.66203e-06
2.33075e-05
2.21505e-05
2.87624e-06
7.52794e-07
1.99116e-06
0.000157133
0.0314772
0.035136
0.00304655
2.94624e-05
4.00778e-06
2.17787e-06
1.75436e-06
1.69619e-06
1.96221e-06
1.8099e-06
2.24346e-06
2.04531e-06
2.67931e-06
5.23943e-06
6.28814e-05
0.00719403
0.0490677
0.0759138
0.0878009
0.0869734
0.0802057
0.0766609
0.0564761
0.0343789
0.0245419
0.023097
0.0181377
0.0132185
0.00668718
0.00318471
0.00769107
0.0357243
0.0778792
0.0934439
0.0800549
0.00789058
1.37683e-06
8.41246e-08
5.38301e-08
8.17871e-08
8.29258e-08
1.19796e-07
1.50485e-07
1.82246e-07
1.82994e-07
1.04897e-07
1.12734e-07
1.20908e-07
9.06126e-08
6.60911e-08
4.55905e-05
0.071005
0.0799814
0.0881801
0.0891446
0.0817539
0.0713943
0.0685279
0.0709943
0.0788126
0.0844901
0.0815583
0.0649015
0.0471627
0.00811572
0.000111975
2.16702e-05
1.58465e-06
9.3582e-07
3.95302e-07
4.6907e-07
3.30589e-07
4.99615e-07
7.21228e-07
1.58965e-06
6.0086e-06
7.12777e-05
0.009804
0.069932
0.10529
0.11557
0.10628
0.0677034
0.0782214
0.08303
0.0767355
0.0677099
0.0640254
0.0625149
0.0645649
0.0709109
0.077367
0.0813199
0.0822666
0.0822124
0.0827629
0.0864893
0.0877354
0.0888829
0.0780308
0.0558242
0.0283053
0.0126367
0.0117788
0.00918646
0.0215394
0.0354154
0.0534027
0.0745078
0.0939285
0.109022
0.117921
0.096389
0.0969263
0.0971911
0.0954257
0.095222
0.0918783
0.0901072
0.0880297
0.0849271
0.0804159
0.0693788
0.0572827
0.0406698
0.0238394
0.00509667
0.000841055
7.39858e-05
2.59074e-05
1.21576e-05
8.13752e-06
2.37371e-05
7.22866e-05
0.000499054
0.0323627
0.0750618
0.112959
0.1287
0.130497
0.124395
0.114555
0.0962753
0.0978289
0.0976939
0.0969463
0.094464
0.0866694
0.0850798
0.0680816
0.0637903
0.05485
0.0381218
0.0217362
0.00772178
0.00247781
0.00174166
0.00194122
0.0116696
0.028947
0.0524349
0.0788851
0.0976698
0.108859
0.11373
0.115638
0.116204
0.119709
0.119656
0.11625
0.107254
0.0913923
0.0983943
0.0970219
0.0960004
0.0951474
0.085978
0.0599997
0.0178567
0.00199036
0.000994699
0.00177528
0.0125147
0.0408169
0.0672198
0.0861576
0.0961509
0.100805
0.103408
0.105788
0.106791
0.108518
0.110041
0.111538
0.110987
0.113073
0.110054
0.11225
0.11052
0.114444
0.116412
0.119569
9.08287e-05
0.000519931
0.00260021
0.00312516
0.000906163
0.000229927
8.65528e-05
6.9357e-05
9.10594e-05
0.000231833
0.00132896
0.0130244
0.0484272
0.0453911
0.0596295
0.0233983
0.0120027
0.00567215
0.00264105
0.00200401
0.00189888
0.00173684
0.00161215
0.00143842
0.00134888
0.00174183
0.0024467
0.00693053
0.0183155
0.0287196
0.0334533
0.0363474
0.0390265
0.038915
0.0350215
0.03101
0.0348089
0.0500359
0.072143
0.0833286
0.0788758
0.0566558
0.0231672
0.00640767
0.0258923
0.0294175
0.0347747
0.0414058
0.0453415
0.0470392
0.0463954
0.0405595
0.0295102
0.0178853
0.0126797
0.0118189
0.0137216
0.0173048
0.021364
0.0228545
0.0209863
0.01594
0.00930429
0.00451557
0.00128658
0.000520578
0.000380117
0.000345085
0.000796111
0.00327016
0.0216172
0.0445651
0.052954
0.042722
0.00517297
0.00116083
1.80537e-05
1.29199e-05
3.64524e-05
0.000298213
0.00228733
0.00764312
0.0107095
0.0130611
0.0105921
0.00868083
0.00454173
0.00172206
0.000650587
0.000135463
4.70725e-05
3.41723e-05
2.92759e-05
8.5409e-05
0.000167292
0.00115601
0.00403373
0.0126166
0.0219372
0.0250173
0.0188457
0.00818305
0.00296717
0.017193
0.00338131
0.00565223
0.0059063
0.00529117
0.00988727
0.0212123
0.0351209
0.0475446
0.0569396
0.0622601
0.0658113
0.0682751
0.0677995
0.0666262
0.061389
0.0544
0.0442161
0.0338671
0.024681
0.0182871
0.0141952
0.0121365
0.0112391
0.0141558
0.0207275
0.0256529
0.0230485
0.02538
0.0406622
0.0322641
0.032538
0.00906553
0.000905808
3.36148e-05
1.00862e-05
8.91533e-06
8.29488e-06
7.13899e-06
6.29482e-06
6.74913e-06
6.54923e-06
4.67175e-06
3.04525e-06
3.91274e-06
6.43086e-06
8.68541e-06
8.41128e-06
8.54364e-06
9.15467e-06
1.36091e-05
1.89818e-05
2.32955e-05
2.13017e-05
1.68474e-05
8.95895e-06
8.4009e-06
1.892e-05
0.000160386
0.0185816
0.051988
3.24964e-07
6.7801e-07
1.74566e-06
1.5284e-06
4.90785e-07
8.12622e-07
1.9997e-05
0.00899587
0.0220243
0.00173262
1.43304e-05
2.24025e-06
1.9149e-06
1.73118e-06
1.6433e-06
1.844e-06
2.59799e-06
4.67208e-06
6.70358e-06
6.26007e-06
4.1599e-06
3.02394e-06
8.83553e-06
0.000224527
0.0302996
0.0689336
0.0845013
0.0853675
0.0808108
0.0788341
0.0414105
0.0238633
0.0301005
0.0363603
0.0353434
0.0215019
0.00608928
0.00148259
0.00250657
0.0490608
0.0846626
0.0887437
0.0535985
1.36027e-05
1.74626e-07
5.52078e-08
8.20943e-08
1.04282e-07
1.16334e-07
1.41298e-07
1.86219e-07
2.72992e-07
5.04675e-07
5.737e-07
2.50075e-07
1.70324e-07
9.73223e-08
5.63781e-08
-2.53295e-07
0.0515197
0.0780212
0.0876524
0.0884717
0.0803422
0.0711779
0.0699595
0.0722792
0.0715764
0.0583355
0.01569
0.000149251
7.98799e-06
8.91465e-07
2.3673e-07
1.13957e-07
8.71517e-08
7.20808e-08
7.76574e-08
7.31873e-08
7.56653e-08
6.57228e-08
6.06027e-08
5.52818e-08
5.88e-08
8.89386e-08
3.23546e-07
9.94208e-06
0.0255717
0.100648
0.119991
0.0716562
0.0817608
0.0886478
0.0866271
0.0792199
0.0757225
0.0737228
0.0726667
0.0734801
0.0740062
0.0708319
0.0639185
0.0526817
0.0400164
0.0293033
0.0200276
0.0018259
3.39403e-05
6.78254e-06
3.67563e-06
3.0056e-06
2.83888e-06
3.02634e-06
4.46469e-06
7.26801e-06
1.06381e-05
3.51487e-05
0.000500664
0.0153977
0.059464
0.0990771
0.0988604
0.0986911
0.0973291
0.0967385
0.0937405
0.092471
0.087648
0.0797438
0.0659207
0.0331696
0.0107961
0.000152583
2.42366e-05
3.61771e-06
1.76503e-06
8.69922e-07
8.55282e-07
2.99658e-07
8.63491e-07
2.24268e-07
7.19856e-07
8.93388e-07
1.57156e-06
8.70059e-06
0.00145678
0.05767
0.115839
0.129792
0.125953
0.0974755
0.0987482
0.0985833
0.09735
0.0886799
0.0734147
0.0539194
0.0164001
0.000707754
2.81046e-05
4.76402e-06
1.67976e-06
8.96476e-07
8.12428e-07
8.07044e-07
7.71342e-07
7.4155e-07
8.90325e-07
2.19357e-06
1.43579e-05
0.00236117
0.0529281
0.0993451
0.11182
0.116864
0.120483
0.124139
0.124455
0.120233
0.11706
0.0970447
0.0975104
0.0863026
0.0782213
0.0411633
0.000853709
8.07858e-05
8.98805e-05
2.97166e-05
2.07224e-05
9.93577e-06
3.13301e-05
0.000125892
0.00335223
0.0245386
0.0480136
0.0621952
0.0682163
0.0708116
0.0712163
0.0709908
0.0697893
0.0687591
0.0692943
0.0697307
0.0692122
0.0812214
0.100706
0.116408
0.124741
0.000897059
0.0200067
0.0424294
0.0390387
0.0187986
0.0032757
0.000397727
0.000170516
0.000123655
0.000171075
0.000401999
0.00160691
0.0187096
0.0491788
0.0441865
0.0213122
0.010234
0.00502413
0.00316186
0.00474805
0.00793584
0.012647
0.0127853
0.00930229
0.00656064
0.00601554
0.00823411
0.0162516
0.0257437
0.0318801
0.0350412
0.0375967
0.0389039
0.0352862
0.0269926
0.0225059
0.029417
0.0525557
0.0783249
0.093265
0.0908053
0.0716112
0.0369024
0.0096703
0.0278754
0.0334959
0.0417471
0.046036
0.0468161
0.0464373
0.0423657
0.0308747
0.0104274
0.00369338
0.00248666
0.00285175
0.00377988
0.00841504
0.0150856
0.0203857
0.0225367
0.0207708
0.0156572
0.00801073
0.00248094
0.00056554
0.000265459
0.000253713
0.00052736
0.00360226
0.028701
0.0483243
0.0488252
0.0345656
0.00397863
1.61974e-05
7.91834e-06
0.000118008
0.0053014
0.0211613
0.0308487
0.031841
0.0317799
0.0299467
0.0282261
0.0259553
0.0214087
0.018382
0.00717015
0.00541925
0.00115771
8.87906e-05
0.000161334
0.000177677
0.000641761
0.00186431
0.00574321
0.0133178
0.0224661
0.026225
0.0201741
0.0101245
0.00483231
0.0189985
0.00370673
0.00115903
7.55132e-05
0.000130791
0.00124526
0.0074748
0.022113
0.0351008
0.046203
0.0546084
0.0606226
0.0647752
0.0650865
0.0649016
0.0608008
0.0569152
0.0488818
0.0417095
0.034161
0.0275614
0.0227308
0.020028
0.0214471
0.025928
0.0327996
0.0339887
0.0282248
0.0290657
0.043106
0.0315209
0.0261218
0.0021007
4.04465e-05
1.00546e-05
8.89441e-06
8.00038e-06
6.50239e-06
5.74687e-06
6.03052e-06
5.0551e-06
2.91662e-06
2.17192e-06
2.48943e-06
4.49707e-06
8.24623e-06
1.16544e-05
1.1344e-05
9.83483e-06
9.98616e-06
9.85453e-06
1.12189e-05
1.77658e-05
2.13629e-05
1.87326e-05
9.42416e-06
5.12038e-06
2.49095e-05
1.53452e-05
0.0118126
0.0515415
1.96104e-07
2.1339e-07
2.77178e-07
2.24125e-07
3.26557e-07
3.80103e-06
0.00176101
0.0102905
0.00155212
1.93995e-05
2.75821e-06
2.29912e-06
1.94814e-06
1.68441e-06
1.46457e-06
1.87185e-06
5.16957e-06
2.46808e-05
0.000110065
9.82478e-05
2.69949e-05
9.15833e-06
1.09886e-05
0.000167394
0.0220684
0.0618071
0.0805133
0.0840581
0.0819922
0.0820993
0.0203788
0.0240384
0.040378
0.0525312
0.0539949
0.0396708
0.0125953
0.00116243
0.00266838
0.0537633
0.087735
0.0834939
0.017844
1.96569e-06
9.25439e-08
7.48621e-08
9.96162e-08
1.04747e-07
9.90759e-08
8.16377e-08
1.33732e-07
2.42777e-07
6.6839e-07
1.99024e-06
1.99366e-06
6.81579e-07
1.89605e-07
1.93875e-07
5.06268e-07
0.0234143
0.0778685
0.0862538
0.0892216
0.0800529
0.0723695
0.0710785
0.0668339
0.0451265
0.00215188
5.13875e-06
4.51156e-07
1.48285e-07
9.66284e-08
9.71959e-08
9.77224e-08
1.06973e-07
1.14273e-07
1.79752e-07
1.5619e-07
1.70976e-07
1.12429e-07
9.32012e-08
6.6172e-08
3.67725e-08
3.15771e-08
3.11602e-08
6.91117e-08
9.95963e-07
0.0095689
0.116658
0.0774455
0.084543
0.090279
0.0913682
0.0883522
0.0846459
0.0816977
0.0774551
0.0713209
0.0626798
0.0485723
0.026972
0.00317834
0.000123071
2.00549e-05
4.23355e-06
1.97063e-06
1.0109e-06
1.41801e-06
1.42701e-06
1.89129e-06
1.50509e-06
1.83755e-06
1.59058e-06
1.05356e-06
9.77037e-07
9.35754e-07
9.57423e-07
1.7346e-06
4.59287e-06
0.101523
0.0996885
0.0974134
0.095571
0.0955929
0.0936502
0.0911538
0.0848569
0.0698451
0.0440664
0.00142487
5.69087e-05
6.31451e-06
2.29009e-06
2.35472e-06
2.27756e-06
2.50469e-06
2.2868e-06
3.05447e-06
1.09787e-06
1.61239e-06
5.38579e-07
2.52967e-07
3.40599e-07
4.84652e-07
5.81816e-07
6.22323e-06
0.00584836
0.105697
0.13217
0.0992233
0.0982012
0.0976877
0.0939942
0.0795402
0.0376598
0.006342
3.90715e-05
3.87523e-06
2.70816e-06
2.52767e-06
3.01323e-06
3.77999e-06
4.37321e-06
2.35031e-06
1.09842e-06
5.56284e-07
2.36985e-07
1.26428e-07
1.16693e-07
2.36979e-07
2.27466e-06
0.00239626
0.0655103
0.0956274
0.111717
0.118104
0.123787
0.126255
0.124721
0.0947625
0.0889836
0.0726346
0.0341667
0.000379078
2.74102e-05
0.000123779
0.000552896
0.000302919
0.000166923
1.56108e-05
6.79318e-06
5.16466e-06
9.62306e-06
4.52354e-05
0.00029896
0.00147887
0.00498848
0.00633175
0.00551935
0.00413116
0.00257964
0.00179705
0.00142799
0.000845888
0.000812949
0.0043721
0.0241182
0.0813705
0.120924
0.00219443
0.0445893
0.0546433
0.049412
0.0369877
0.0180177
0.00323334
0.00135954
0.0007625
0.000856297
0.000820327
0.00147526
0.00690319
0.0415966
0.0297257
0.0161591
0.00764767
0.00498089
0.00827559
0.0253809
0.0411947
0.046507
0.0415629
0.0344796
0.0276009
0.0242753
0.0256871
0.0302314
0.0331823
0.0356185
0.0384875
0.0396382
0.03645
0.0265272
0.0168184
0.0177585
0.0338083
0.0682427
0.0949454
0.106864
0.106456
0.0930858
0.0610087
0.0180679
0.0323991
0.0384267
0.0446261
0.0454874
0.0453928
0.0444747
0.0379308
0.01982
0.00488799
0.00211722
0.00106264
0.00130667
0.00222194
0.00363415
0.00877945
0.015414
0.0188478
0.018836
0.0147614
0.00735302
0.00218594
0.000473122
0.000243896
0.000198452
0.000598356
0.00754596
0.036408
0.0500671
0.044024
0.0293043
0.000211951
6.65299e-06
3.44709e-05
0.00393285
0.0231649
0.0334289
0.037045
0.0356704
0.0338247
0.0330252
0.0323042
0.0311303
0.029506
0.0250805
0.0248391
0.0174392
0.0178556
0.0100596
0.00697899
0.00566517
0.00656924
0.00886414
0.0127635
0.0185591
0.0257164
0.0260016
0.0175572
0.0081827
0.0081297
0.0227955
0.00158095
1.63167e-05
6.5781e-06
3.17645e-05
0.000150547
0.00128264
0.00485882
0.0118883
0.0223869
0.0312249
0.0433529
0.0504578
0.0563966
0.0566805
0.0555987
0.0517436
0.048176
0.0437444
0.0396959
0.0367079
0.0356212
0.0350083
0.0382499
0.0436238
0.0452864
0.0420034
0.0330787
0.0357111
0.0459402
0.0326636
0.0182814
0.000167872
1.41405e-05
8.47501e-06
7.7473e-06
5.87814e-06
4.61717e-06
4.10875e-06
3.04811e-06
2.22384e-06
1.60771e-06
1.76843e-06
2.90084e-06
7.45179e-06
9.69082e-06
1.36344e-05
1.43594e-05
1.6629e-05
1.93136e-05
1.52211e-05
9.55826e-06
1.05363e-05
1.45075e-05
1.29564e-05
7.03387e-06
4.59618e-06
3.28668e-05
3.81572e-06
0.0156681
0.0515111
1.04943e-07
8.61414e-08
9.47622e-08
1.58423e-07
1.025e-06
4.39473e-05
0.00638702
0.00186584
3.02596e-05
4.52788e-06
2.53263e-06
2.1528e-06
1.80709e-06
1.28454e-06
1.05853e-06
1.96863e-06
9.5385e-06
0.000210488
0.00706727
0.0084622
0.00167152
0.000147924
0.00012441
0.00133253
0.0239145
0.0584195
0.0765388
0.0823141
0.0839073
0.087867
0.0144069
0.0301749
0.0494629
0.0587594
0.0607494
0.0513758
0.0217266
0.00103236
0.00250551
0.0585807
0.0876292
0.077427
0.00237395
7.45272e-07
9.80814e-08
9.07841e-08
1.26374e-07
9.74663e-08
9.69096e-08
8.89576e-08
7.02006e-08
1.71474e-07
5.27462e-07
2.32311e-06
1.50576e-05
2.34808e-05
1.64368e-05
1.36879e-06
4.88164e-07
0.0135174
0.0762728
0.0854057
0.0885674
0.0813497
0.0744907
0.0687418
0.0523334
0.00397931
3.93481e-06
2.11032e-07
8.781e-08
8.52854e-08
1.05783e-07
1.5812e-07
2.23221e-07
2.78585e-07
3.21683e-07
2.8585e-07
3.06962e-07
2.76975e-07
2.63342e-07
2.23166e-07
1.44045e-07
8.51122e-08
5.2213e-08
2.80922e-08
2.22553e-08
3.53355e-08
8.86124e-07
0.0441946
0.084555
0.0870218
0.087984
0.0902796
0.0927635
0.092379
0.0879744
0.0784118
0.0643157
0.0452532
0.0201805
0.00115337
2.15914e-05
3.21241e-06
1.85362e-06
1.80197e-06
1.83032e-06
3.80902e-06
5.41658e-06
7.70851e-06
7.23973e-06
9.65734e-06
7.40626e-06
7.2404e-06
3.18524e-06
2.04854e-06
8.4089e-07
3.52432e-07
2.61193e-07
2.46063e-07
0.101383
0.0901725
0.0829424
0.078618
0.0811385
0.0865902
0.087244
0.0810918
0.0620018
0.0271138
6.79138e-05
1.02252e-05
1.93728e-06
4.59451e-06
6.77968e-06
8.24642e-06
9.63467e-06
9.80801e-06
1.28861e-05
1.80425e-05
1.74383e-05
6.98138e-06
3.12409e-06
1.4526e-06
4.10944e-07
3.37116e-07
3.91625e-07
3.34983e-06
0.0170878
0.125903
0.099496
0.0975265
0.0928981
0.0882412
0.0601961
0.00617752
6.10444e-05
1.53952e-05
5.8898e-06
3.20075e-05
0.000123283
0.00101885
0.000533861
0.000191477
0.000128853
2.99975e-05
8.21667e-06
1.87174e-06
4.3888e-07
7.04717e-08
5.32828e-08
4.22324e-08
1.73009e-07
5.73021e-06
0.0147278
0.0737398
0.103392
0.116112
0.123587
0.127471
0.0910078
0.0771986
0.0388076
0.000441539
2.03092e-05
2.78661e-05
0.000368314
0.00892363
0.0226206
0.0100435
0.0014481
5.38316e-05
6.92158e-06
2.66615e-06
2.39095e-06
5.15233e-06
1.69542e-05
3.96844e-05
6.4435e-05
5.1332e-05
3.27704e-05
2.01288e-05
1.40875e-05
1.12818e-05
1.12175e-05
1.4695e-05
4.06892e-05
0.000193714
0.0274804
0.108863
0.00277724
0.0465311
0.0456501
0.0311538
0.0354558
0.0348089
0.0220644
0.0159988
0.0102966
0.00871761
0.00616567
0.00695935
0.0105685
0.0388884
0.0215803
0.0105397
0.00666992
0.00895136
0.0290773
0.0495182
0.057988
0.0573974
0.0519597
0.0442788
0.0390813
0.0367378
0.0360415
0.0375172
0.0394374
0.0414686
0.0408546
0.0353171
0.0214635
0.0132856
0.0146796
0.0303022
0.0653856
0.0933188
0.107522
0.110213
0.103837
0.0927686
0.0710853
0.0272358
0.0374277
0.0406109
0.043599
0.0447128
0.0458516
0.0448358
0.0360177
0.0223849
0.00997584
0.00457456
0.00259759
0.00172518
0.00153709
0.00199972
0.00284191
0.00494104
0.00784839
0.00832618
0.00603751
0.00322523
0.000876066
0.00032633
0.000202735
0.000303452
0.000981278
0.0177711
0.0453974
0.0520895
0.0400542
0.0250982
8.87682e-05
9.29921e-06
0.000196032
0.00474799
0.0197488
0.0312548
0.0355196
0.0358162
0.0353462
0.0358645
0.0357542
0.0351565
0.034307
0.0335323
0.0319947
0.0344016
0.0319732
0.0329715
0.0294633
0.0263673
0.0231141
0.0213619
0.0229958
0.0262207
0.0267984
0.0202078
0.0124128
0.0109306
0.0198973
0.0285804
0.000105588
4.49152e-06
7.35851e-06
2.45504e-05
5.40237e-05
0.000143273
0.000311223
0.00110181
0.00189864
0.00368839
0.0104667
0.0189805
0.0287187
0.0343587
0.0373326
0.0406153
0.0406714
0.0419972
0.0444877
0.045324
0.0480339
0.0505648
0.0548939
0.0552881
0.0558553
0.0493695
0.040482
0.0421404
0.0472005
0.0331673
0.00816721
3.7407e-05
8.93836e-06
7.64599e-06
5.50314e-06
3.21835e-06
2.88781e-06
2.4154e-06
1.92836e-06
1.45182e-06
1.43575e-06
2.26367e-06
5.64396e-06
8.98787e-06
1.17828e-05
1.69098e-05
2.34822e-05
3.21915e-05
3.65928e-05
2.58029e-05
9.87206e-06
8.23118e-06
7.97124e-06
6.53484e-06
3.26531e-06
1.00094e-05
4.27163e-05
0.000367976
0.0308789
0.0535991
7.36092e-08
3.58969e-08
7.66002e-08
3.15219e-07
9.47076e-06
0.00139749
0.00237613
9.05616e-05
6.90842e-06
2.87097e-06
2.23965e-06
1.72834e-06
2.11112e-06
9.50985e-07
5.3104e-07
1.74065e-06
2.3519e-05
0.00223217
0.0295041
0.0395778
0.0334505
0.0189254
0.011699
0.018915
0.0392812
0.0604612
0.0758407
0.0834615
0.0875864
0.0905156
0.029558
0.0449631
0.0555378
0.0579991
0.0601467
0.0535408
0.0234885
0.00111069
0.00453355
0.060469
0.0880515
0.0742172
0.00124455
7.1818e-07
1.0162e-07
1.01163e-07
1.16406e-07
1.05047e-07
9.41658e-08
8.63491e-08
7.98688e-08
6.55479e-08
8.13953e-08
2.01852e-06
2.73062e-05
0.000564725
0.00207963
0.00241062
1.45932e-05
0.0050655
0.073351
0.0853388
0.0890844
0.0821837
0.0724096
0.0585444
0.0243134
2.54467e-05
3.95054e-07
9.37163e-08
8.4399e-08
1.09094e-07
2.08007e-07
2.96448e-07
3.29051e-07
4.70104e-07
3.53661e-07
3.59763e-07
3.22264e-07
3.01736e-07
2.70506e-07
2.56066e-07
1.89858e-07
9.24616e-08
5.65896e-08
3.45496e-08
2.21978e-08
1.61644e-08
3.22114e-08
2.83221e-06
0.0911758
0.0862708
0.0790951
0.0807274
0.0901715
0.0964369
0.0946064
0.081704
0.0568604
0.02509
0.00158227
2.75235e-05
3.96326e-06
1.72165e-06
1.83564e-06
2.5147e-06
6.97447e-06
1.13219e-05
2.16734e-05
2.51383e-05
4.18273e-05
3.87571e-05
0.000104904
6.17355e-05
3.97542e-05
1.91037e-05
5.93351e-06
1.51482e-06
3.369e-07
1.53545e-07
0.0905691
0.0685489
0.0560399
0.0501965
0.0496435
0.0568662
0.0694085
0.0731334
0.0589178
0.0209233
-1.06781e-05
6.79757e-06
3.54687e-06
1.27188e-05
2.47625e-05
3.94853e-05
3.42398e-05
3.20827e-05
5.9637e-05
3.90881e-05
3.80407e-05
1.57335e-05
2.72272e-05
7.32414e-06
1.7685e-06
7.63655e-07
3.37371e-07
4.02877e-07
9.96588e-06
0.109614
0.0992405
0.0894191
0.0811314
0.0751525
0.0370605
0.00018208
2.02254e-05
1.64568e-05
2.41996e-05
0.00124728
0.00186365
0.00174587
0.00103066
0.000380697
0.000190875
0.000157086
3.49252e-05
8.65098e-06
1.68299e-06
4.62151e-07
9.86232e-08
4.76447e-08
4.8024e-08
7.28839e-08
8.20537e-07
-1.86877e-07
0.0502367
0.0928021
0.115132
0.126746
0.0817705
0.0441005
0.00185698
4.18225e-05
3.79586e-06
2.50956e-05
0.00848772
0.00632045
0.00578048
0.00611345
0.00380239
0.00047298
4.95785e-05
5.12815e-06
1.50076e-06
7.57902e-07
1.06687e-06
2.57617e-06
3.95804e-06
6.26535e-06
4.48762e-06
3.04892e-06
1.91501e-06
1.4456e-06
1.3147e-06
2.06152e-06
8.11139e-06
4.11915e-05
0.00089475
0.0867036
0.00177694
0.029669
0.0144576
0.00845858
0.0247307
0.0411126
0.0388426
0.0304415
0.020962
0.0216736
0.0258448
0.0261125
0.0262436
0.0357965
0.0170147
0.00897606
0.00902238
0.0210598
0.0408921
0.0546441
0.0590887
0.0576327
0.0525245
0.0474292
0.0445062
0.0433282
0.0435309
0.0435188
0.0421842
0.0371741
0.025913
0.0163097
0.0124997
0.0162395
0.0383251
0.0686679
0.0871055
0.0974553
0.099473
0.0857136
0.0683295
0.0631368
0.0628246
0.0323617
0.0377892
0.0395623
0.0447613
0.0473682
0.0478744
0.0445502
0.0369797
0.0294307
0.0236695
0.0214173
0.0182587
0.0144843
0.00826681
0.00459738
0.00311819
0.00323445
0.0032853
0.00326206
0.0022486
0.000879218
0.000387347
0.000226474
0.000262064
0.000593598
0.0059316
0.0342929
0.0541209
0.054895
0.0395874
0.0241157
3.3621e-05
1.8914e-05
0.000157127
0.00112648
0.00571269
0.0176523
0.0267838
0.0305882
0.032418
0.0343393
0.0352296
0.0364725
0.0360117
0.0357344
0.0350088
0.0358492
0.035787
0.03746
0.0366861
0.0358282
0.0321328
0.0309929
0.0286013
0.0248643
0.0190001
0.0145085
0.0140278
0.0088302
0.00802346
0.0168765
8.3275e-06
2.77261e-06
9.16426e-06
3.14484e-05
7.79384e-05
0.000135623
0.000170328
0.000185283
7.24002e-05
6.5145e-05
0.000280706
0.000484439
0.000918175
0.00113291
0.00173429
0.00211684
0.00329889
0.00564706
0.0103381
0.0203347
0.031786
0.0440882
0.0524105