/*--------------------------------*- C++ -*----------------------------------*\
| =========                 |                                                 |
| \\      /  F ield         | OpenFOAM: The Open Source CFD Toolbox           |
|  \\    /   O peration     | Version:  2.1.1                                 |
|   \\  /    A nd           | Web:      www.OpenFOAM.org                      |
|    \\/     M anipulation  |                                                 |
\*---------------------------------------------------------------------------*/
FoamFile
{
    version     2.0;
    format      ascii;
    class       volScalarField;
    location    "0.003600000";
    object      OH;
}
// * * * * * * * * * * * * * * * * * * * * * * * * * * * * * * * * * * * * * //

dimensions      [0 0 0 0 0 0 0];

internalField   nonuniform List<scalar> 
12384
(
0.0166799
0.0177745
0.0179626
0.0177742
0.0171157
0.01606
0.0137054
0.0107268
0.00773766
0.00473984
0.00258362
0.00257033
0.00340864
0.00343615
0.00085999
0.000949051
0.00136609
0.00193482
0.00265269
0.00315967
0.00350052
0.00369735
0.00382331
0.00369598
0.00376073
0.00361267
0.00382219
0.00379439
0.00405623
0.00388359
0.00392253
0.00355845
0.00353775
0.00321265
0.00348054
0.00357935
0.00311184
0.00224931
0.00146199
0.000922298
0.000788091
0.0014271
0.00321332
0.00314851
0.00452187
0.00505577
0.00420065
0.00386488
0.00359946
0.00351465
0.00339572
0.00308433
0.00311525
0.00318689
0.0031345
0.00364639
0.00363956
0.00436414
0.00512918
0.00532745
0.00501178
0.00434246
0.00403606
0.0036235
0.00337907
0.00322695
0.00313822
0.0029879
0.00292783
0.00334081
0.00357567
0.00233282
0.00160523
0.00184326
0.00274271
0.00263901
0.00261084
0.00267455
0.00274589
0.00269908
0.00269468
0.00266107
0.00270266
0.00266607
0.00297904
0.00289551
0.00320289
0.00320596
0.00333074
0.00341629
0.00349336
0.00348912
0.00349254
0.0034822
0.00347593
0.00334917
0.0032726
0.00303091
0.00324323
0.00238554
0.00196465
0.0027961
0.00331075
0.0027358
0.00300059
0.00269918
0.00227011
0.00204434
0.00202127
0.0021132
0.002317
0.00255826
0.00279494
0.00293785
0.00299159
0.00298116
0.00301655
0.00286805
0.0027581
0.00250503
0.00232583
0.00206866
0.00199681
0.0019069
0.0020218
0.0020838
0.0023809
0.00274199
0.00328226
0.00359296
0.00357284
0.00311645
0.00227753
0.00312304
0.00206832
0.00229884
0.00282551
0.00337118
0.00358139
0.00360156
0.00340139
0.00298684
0.0022658
0.00152534
0.00122491
0.00101358
0.00079719
0.000735328
0.000810688
0.000817699
0.000786424
0.000751426
0.000644332
0.000572492
0.000619134
0.000649029
0.000675814
0.000675567
0.000722327
0.000927507
0.00117956
0.0034548
0.00140341
0.00148971
0.00258465
0.00267495
0.00286629
0.00348946
0.00213289
0.000481816
0.00019048
0.000245381
0.00161019
0.00175714
0.000834359
0.000886306
0.00117602
0.0014868
0.0019192
0.00244146
0.00249764
0.00292398
0.00261816
0.00263255
0.00193025
0.0014745
0.00102925
0.000703587
0.000487777
0.000410256
0.00039136
0.000471206
0.00067394
0.000770887
0.00121167
0.00127568
0.00148149
0.0016475
0.0020199
0.00224778
0.00262612
0.00290321
0.00315481
0.00303883
0.00153041
0.000697526
0.000410267
0.000612127
0.00116064
0.00275436
0.00160396
0.00054969
0.000354843
0.000298847
0.000236151
0.000265357
0.000317674
0.000390881
0.000739697
0.00188865
0.00366177
0.00214357
0.00188831
0.00304663
0.00086012
0.000813998
0.000753297
0.000773096
0.000878921
0.00131611
0.00157048
0.00174308
0.0015665
0.00130286
0.000903943
0.00084369
0.000795836
0.000833735
0.000995308
0.00098678
0.00108956
0.00106817
0.000925826
0.000961444
0.000968977
0.000957954
0.000960705
0.000965527
0.00102538
0.0012015
0.00149529
0.00204671
0.00269779
0.00311019
0.00112474
0.000976545
0.00107279
0.00126591
0.00163781
0.00204324
0.00228851
0.00227462
0.00184655
0.00110733
0.000683532
0.000482102
0.000393683
0.000342277
0.00034349
0.000448384
0.000640957
0.000746824
0.000915401
0.00092681
0.000891111
0.00139247
0.00109375
0.00134524
0.00132415
0.00152095
0.00180046
0.00202519
0.00240573
0.00289505
0.000318613
0.000318177
0.000336214
0.000357457
0.000423219
0.000504644
0.000626726
0.000785791
0.00101368
0.00113158
0.00107405
0.00109164
0.000999258
0.00093833
0.000874106
0.000768951
0.00068409
0.00065977
0.0008877
0.00104084
0.00117827
0.00107984
0.00116483
0.00113806
0.00144132
0.00172661
0.00260644
0.00322748
0.00415933
0.00448872
0.000313635
0.0002891
0.00030439
0.000346412
0.000388099
0.000465607
0.000558159
0.000649117
0.000780894
0.000992045
0.000998808
0.000952971
0.0010656
0.00104585
0.000961447
0.000865906
0.000839885
0.00082198
0.000824528
0.000821619
0.000831158
0.00084799
0.000854554
0.000893706
0.000919606
0.00106582
0.00125151
0.00155849
0.0017418
0.00188055
0.000282797
0.000281443
0.00039714
0.000684116
0.00113105
0.00132531
0.00188993
0.00220034
0.00231432
0.000648201
0.00144192
0.00115289
0.00165111
0.00166861
0.00186452
0.00175119
0.00167982
0.00141839
0.00126562
0.00115488
0.00105399
0.00092586
0.000869453
0.000831797
0.000912555
0.000956002
0.00115508
0.00136521
0.00199335
0.00185991
0.0134375
0.00863497
0.00699405
0.00655038
0.0068428
0.00773956
0.00996352
0.0138166
0.0163559
0.0118894
0.00566708
0.0025703
0.00246469
0.00336462
0.000833163
0.00199273
0.0044654
0.00565882
0.00624284
0.00630213
0.00640749
0.00623379
0.00639658
0.00646445
0.00660907
0.00679409
0.00645515
0.00570825
0.00517934
0.00473356
0.00448807
0.00407789
0.00385443
0.00360963
0.00370027
0.00421223
0.00429185
0.00343435
0.00207692
0.00114807
0.000836263
0.00149022
0.00315453
0.00314218
0.00476496
0.00481222
0.00401611
0.00345409
0.0031159
0.00259304
0.00221807
0.0021781
0.00226975
0.00246132
0.0026413
0.00286577
0.00297694
0.00333131
0.00441346
0.00522583
0.0055653
0.00509261
0.00464599
0.00384608
0.00351156
0.00332588
0.00317874
0.00333287
0.00335406
0.00326086
0.00357134
0.00246734
0.00161247
0.00184546
0.00267711
0.00285047
0.00304588
0.00282618
0.00227742
0.00175221
0.00138537
0.0013045
0.00126841
0.00124742
0.00127707
0.00125616
0.00127821
0.00131313
0.00142852
0.00161713
0.00204044
0.00247642
0.00292529
0.00327041
0.00354129
0.00344694
0.00338151
0.0031288
0.0030645
0.00337199
0.00291778
0.00234081
0.00291547
0.00297281
0.00302011
0.00255174
0.00248123
0.00293607
0.00337306
0.00321166
0.00279225
0.00236562
0.00205098
0.00185771
0.00178003
0.00182137
0.00197378
0.00234566
0.00286936
0.00345206
0.00352912
0.00306574
0.00268285
0.00245368
0.00239879
0.00245691
0.0026209
0.00298822
0.00343748
0.00357462
0.00357693
0.00332472
0.00237572
0.00296424
0.00218569
0.00283342
0.00335253
0.00358192
0.00330189
0.00224596
0.001247
0.000771193
0.000592979
0.0004821
0.000431545
0.000400061
0.000385125
0.000374395
0.000373091
0.000383811
0.00040085
0.000421944
0.000447838
0.000463499
0.000474283
0.000466372
0.000463643
0.000469817
0.000470219
0.000723366
0.00109657
0.00212256
0.00225091
0.00145805
0.00181712
0.00258373
0.0030148
0.00234749
0.000839957
0.000267402
0.000178972
0.00041311
0.00348903
0.00162118
0.00166826
0.00298974
0.00253345
0.000918038
0.000574428
0.000487363
0.000417858
0.000437942
0.000455623
0.000551579
0.00087274
0.00195724
0.00350855
0.00196356
0.000914117
0.000528972
0.000423023
0.000476465
0.000667788
0.000793211
0.00122695
0.00173201
0.002396
0.00267118
0.00314684
0.00321206
0.00336669
0.00350347
0.00341054
0.00294975
0.00112241
0.000438579
0.000414123
0.00110588
0.00223306
0.00020342
6.22483e-05
3.69084e-05
3.21315e-05
4.02396e-05
4.97103e-05
6.01558e-05
6.08389e-05
7.14486e-05
8.00517e-05
0.00011484
0.000351328
0.00118312
0.00349937
0.00272297
0.000847746
0.000777915
0.000746355
0.000871571
0.00107694
0.001462
0.00156523
0.00141695
0.00103589
0.000746782
0.000492647
0.000433171
0.000495004
0.000589705
0.000846763
0.00150398
0.00145394
0.00249562
0.00229259
0.00252448
0.00185956
0.00170871
0.00106795
0.000695589
0.000394974
0.000220554
0.000195021
0.000200658
0.000384694
0.00111906
0.00106281
0.000931753
0.000969498
0.00115142
0.00137173
0.00167789
0.00183961
0.00169994
0.00123493
0.000780517
0.000535567
0.000429966
0.000354959
0.000304764
0.000287922
0.000243639
0.000188114
0.000166489
0.000180089
0.000177912
0.000222775
0.000146355
0.000209444
0.000187425
0.000199361
0.000163366
0.000171813
0.000169211
0.000192986
0.000290669
0.000311627
0.000298222
0.000311564
0.000335958
0.000373775
0.000442792
0.000513045
0.000551141
0.000638033
0.000685288
0.00076621
0.000777964
0.000840623
0.000834426
0.000825588
0.000886193
0.000780184
0.00116071
0.00104442
0.00138652
0.00132022
0.000820355
0.000473438
0.000271426
0.00026277
0.000249327
0.00033128
0.000524865
0.0010837
0.00189384
0.00030294
0.000278291
0.000294458
0.00030718
0.000323443
0.000357222
0.000411635
0.000464151
0.000494597
0.000507916
0.000489155
0.00046535
0.000472151
0.000453075
0.000491834
0.000490803
0.000404177
0.00041068
0.000334416
0.000260921
0.000223277
0.000208932
0.000182292
0.000163446
0.000150506
0.000172759
0.000283431
0.000469474
0.000767963
0.000761484
0.000269827
0.000275352
0.000502849
0.000633051
0.0011815
0.00188752
0.0028881
0.00500293
0.00400243
0.00187741
0.0010632
0.00108436
0.00100203
0.0010891
0.00110924
0.0010586
0.0009486
0.000928445
0.000794745
0.000711684
0.000614866
0.000530364
0.000433361
0.000455314
0.000342432
0.000367056
0.000420325
0.00049581
0.000897869
0.00137411
0.00350412
0.00326887
0.00340735
0.0035607
0.00342866
0.00340347
0.00361301
0.00472492
0.00693245
0.0115004
0.0135448
0.00608438
0.00222427
0.00259838
0.000968477
0.00401284
0.00559438
0.00622108
0.006251
0.00632383
0.00614852
0.00598659
0.00582635
0.00605818
0.00604525
0.00651306
0.00684347
0.00713174
0.00618558
0.00528119
0.00481943
0.00450074
0.00421088
0.0041531
0.00441831
0.00530664
0.00582031
0.0046618
0.00262628
0.00127246
0.000915677
0.00151827
0.00315634
0.00316651
0.00455963
0.00497751
0.00438019
0.00355596
0.00262813
0.00205694
0.00196961
0.00207561
0.0023172
0.00261061
0.00296476
0.00312597
0.00321747
0.00320091
0.00361197
0.00461521
0.00553016
0.00601045
0.00551769
0.00476973
0.00424761
0.0035785
0.00336174
0.00347357
0.00329869
0.00351806
0.00349283
0.0022646
0.00164821
0.0020348
0.00291694
0.00326223
0.0022104
0.0010345
0.000767163
0.000763806
0.000825943
0.00100245
0.00114591
0.00120318
0.00119172
0.00109944
0.000995009
0.000875638
0.000763977
0.000768379
0.000771979
0.000874005
0.00113329
0.00143522
0.00221989
0.00291405
0.00343049
0.00333924
0.00306233
0.00314069
0.00335343
0.00307477
0.00276552
0.00328588
0.00292438
0.00287349
0.00325162
0.00331291
0.00297175
0.00250824
0.00201922
0.00164771
0.00140479
0.00118921
0.00112443
0.00104947
0.00113502
0.00128157
0.00163996
0.00218045
0.00290474
0.00345169
0.00358028
0.0033706
0.00323374
0.00322957
0.00323176
0.00341903
0.00358065
0.00352346
0.00351586
0.00333497
0.00237122
0.00299922
0.00242854
0.00332963
0.00361819
0.00252103
0.00109045
0.000641522
0.000478553
0.000445194
0.00041581
0.000385323
0.00039484
0.000397999
0.000380636
0.000376371
0.000392882
0.0004237
0.000457108
0.000476736
0.000526079
0.000572226
0.000625288
0.000589283
0.000555042
0.00047927
0.000442217
0.000627806
0.000994673
0.00154769
0.00293693
0.00151254
0.000262117
0.000403337
0.000654282
0.000640449
0.000293942
0.00015932
0.000242583
0.00128962
0.00277078
0.00255568
0.00296387
0.00072332
0.000328052
0.000253302
0.000228762
0.000225414
0.000240894
0.000232057
0.00025725
0.000245743
0.000282562
0.000363952
0.000936369
0.00352194
0.0019172
0.000786095
0.000476234
0.000494203
0.000668854
0.000763197
0.00151491
0.0026632
0.00317628
0.0032357
0.00345526
0.00356031
0.00339592
0.00308171
0.00343391
0.00253127
0.000694065
0.000339113
0.000658903
0.00337915
0.000206841
5.76582e-05
4.58482e-05
5.67491e-05
6.10681e-05
6.88962e-05
7.54673e-05
8.22239e-05
8.24175e-05
7.53321e-05
8.04223e-05
8.39922e-05
8.07889e-05
0.000154684
0.00108777
0.00266469
0.000846069
0.000765451
0.000763344
0.00101908
0.00130769
0.001475
0.00143131
0.00118525
0.000921434
0.000840403
0.00113086
0.00195872
0.00353828
0.00111826
0.000634141
0.00021897
0.000180083
0.000119006
0.000127337
0.000113066
0.000130735
0.000155734
0.000219293
0.000384933
0.00096432
0.00356351
0.000976873
0.000185709
0.00010082
0.000176218
0.00100072
0.000816497
0.000771779
0.000894539
0.00107416
0.0011512
0.00122361
0.00114001
0.000916901
0.000713179
0.000608985
0.000578796
0.000581147
0.00056702
0.000484116
0.000455686
0.000432173
0.000693645
0.00150013
0.00290531
0.00347015
0.0034868
0.00356182
0.00327749
0.00260042
0.00166125
0.000815682
0.000341523
0.000145954
7.74263e-05
0.000283534
0.000275324
0.000271572
0.000298302
0.000302411
0.000351969
0.000390926
0.00044497
0.000523088
0.000634377
0.000991555
0.00141689
0.0022148
0.00306816
0.00316556
0.00189109
0.000969062
0.000680483
0.000606526
0.000595494
0.000857559
0.00126036
0.00208494
0.00387555
0.00170025
0.000536459
0.00025767
0.00023383
0.000314647
0.00047927
0.000287474
0.000263121
0.00026217
0.000273812
0.000308882
0.000553519
0.000542561
0.000992515
0.00116658
0.00158945
0.00246236
0.00328352
0.00347233
0.00290084
0.00244373
0.00255724
0.00337033
0.00280527
0.00178121
0.00081518
0.000378695
0.000182431
0.000154771
0.000140425
0.000120019
0.000108589
0.000106053
9.40099e-05
0.000158542
0.000389758
0.000236546
0.000256531
0.00062602
0.000777099
0.00202114
0.00522727
0.0109951
0.00821884
0.00612166
0.00433771
0.00722155
0.0054153
0.00357807
0.00226197
0.00163497
0.00139004
0.00131481
0.00119135
0.00116799
0.00105084
0.000974746
0.000874481
0.000861698
0.000697241
0.000770425
0.000599135
0.000641035
0.000498215
0.000439297
0.000433443
0.00302761
0.00557375
0.00898779
0.00948425
0.00689586
0.00448687
0.00318292
0.003048
0.00361303
0.00519597
0.00929027
0.0126365
0.0049848
0.00198313
0.00179176
0.0048156
0.00583906
0.006568
0.00674771
0.00651971
0.00665244
0.00643666
0.00648471
0.00636899
0.00625765
0.00658412
0.0067271
0.00732548
0.00654823
0.00529215
0.00479893
0.00456265
0.00440396
0.0045054
0.00542294
0.00680914
0.00729524
0.00563349
0.00270445
0.00114687
0.000735394
0.0014557
0.00308693
0.0032518
0.00459799
0.00467497
0.00376121
0.00250462
0.00199798
0.00193155
0.00198029
0.00228512
0.00309174
0.00398457
0.00411876
0.00373931
0.00356782
0.00350814
0.00337445
0.00418518
0.00493254
0.00574473
0.00617303
0.00582799
0.00449784
0.00361748
0.00323226
0.00303004
0.00354847
0.00374415
0.00333005
0.00214116
0.00171196
0.00224398
0.00317231
0.00209198
0.000589908
0.000529725
0.000807257
0.00157771
0.00278462
0.00345845
0.00350723
0.00350637
0.00351871
0.00356616
0.00317873
0.00245143
0.00179936
0.001206
0.000869264
0.000780105
0.000801302
0.00101515
0.00132488
0.00208164
0.00302785
0.00338165
0.0031225
0.00297775
0.00324562
0.00338669
0.00289844
0.00333826
0.00291024
0.0031281
0.00315229
0.00310396
0.00338321
0.00314774
0.00249495
0.00188035
0.00144351
0.0012281
0.00109135
0.00100495
0.00102872
0.00107271
0.00128459
0.00160837
0.00211155
0.00269723
0.00317612
0.00345989
0.0035535
0.00356998
0.00358329
0.00355524
0.00337936
0.00316776
0.00329993
0.0032096
0.00238366
0.00284651
0.00278165
0.00360873
0.00197148
0.000776102
0.000498748
0.000466144
0.000448828
0.000416626
0.000393019
0.000405704
0.000399981
0.000347607
0.000303709
0.000326114
0.000396111
0.000458808
0.000476322
0.000478188
0.00048557
0.000538572
0.000602243
0.000653531
0.000629563
0.000577297
0.000466566
0.000467554
0.000915494
0.00163355
0.0032229
0.00163587
0.000111781
0.0001508
0.000228357
0.000215757
0.000129709
0.00016606
0.000614523
0.00354658
0.00321982
0.00244505
0.00054582
0.000278983
0.000238048
0.000227397
0.000222324
0.000233987
0.000277776
0.000347769
0.00040435
0.00039222
0.000333981
0.000302542
0.000464371
0.00155035
0.00293136
0.00102706
0.000542824
0.00052493
0.000647973
0.000704023
0.00227295
0.00318421
0.00288078
0.00254808
0.00260143
0.00328107
0.00333602
0.00231226
0.002914
0.00184336
0.000519654
0.000432097
0.00160328
0.000537383
8.03599e-05
4.63071e-05
5.68138e-05
6.54729e-05
6.81024e-05
7.3425e-05
8.30498e-05
0.000101447
0.000131708
0.000139517
0.000101637
9.6866e-05
7.14625e-05
8.17788e-05
0.000208416
0.00341952
0.000916218
0.000814206
0.000853814
0.00107657
0.00139168
0.00142727
0.00138856
0.00128899
0.00149749
0.00339671
0.00125821
0.000439909
0.000174992
9.31519e-05
6.89531e-05
5.84745e-05
5.2605e-05
5.48053e-05
5.30172e-05
5.40164e-05
5.01109e-05
4.81268e-05
4.60603e-05
4.74223e-05
5.91594e-05
0.000111544
0.000494604
0.00312005
0.000241271
8.32424e-05
0.000867923
0.000667839
0.000635455
0.000682719
0.000779669
0.000796202
0.000841865
0.000854116
0.000825957
0.000811973
0.000915636
0.00116248
0.00165871
0.00229107
0.00284887
0.00327402
0.00249701
0.000777441
0.000406031
0.000319688
0.00030141
0.000291771
0.000302641
0.000342324
0.000420235
0.000514124
0.000794129
0.00172062
0.00348421
0.00137431
0.000243611
0.000246932
0.000249304
0.000269949
0.000279545
0.000325219
0.000341579
0.000492525
0.000739336
0.00111129
0.00257703
0.00337709
0.00126731
0.000661596
0.000317551
0.000229366
0.000177453
0.000181079
0.000169924
0.000219254
0.000178688
0.000204096
0.000215735
0.000292158
0.000597367
0.00315282
0.00308483
0.000591052
0.000281783
0.000320686
0.00026955
0.000250669
0.000250828
0.00026802
0.000443669
0.000987064
0.00173149
0.00326892
0.00179684
0.0007101
0.000350088
0.000224516
0.00017559
0.000166145
0.000165596
0.000161643
0.000158296
0.000175129
0.00025422
0.00054517
0.00281406
0.0017256
0.000391558
0.000198648
0.000166465
0.000138662
0.000108283
0.000111144
0.000131808
0.000150875
0.000253433
0.00034718
0.00085412
0.00199154
0.00475748
0.00524994
0.00263092
0.00283789
0.00170321
0.00139757
0.000803367
0.00144066
0.00253964
0.00598137
0.00757177
0.00586977
0.00463424
0.00403806
0.00366805
0.003514
0.00331379
0.00334351
0.00322593
0.00301307
0.00283485
0.00286383
0.00186408
0.000987908
0.00054126
0.000362694
0.00668333
0.0116197
0.00963338
0.0103026
0.0122305
0.00996758
0.00555093
0.00422445
0.00384955
0.00454643
0.00629502
0.00986311
0.0108373
0.00204024
0.0032574
0.00496537
0.00632451
0.00707482
0.00701748
0.00738448
0.00752726
0.00758116
0.00744407
0.00746375
0.00755576
0.00736849
0.00750231
0.00681725
0.00561639
0.00477152
0.00451238
0.00440674
0.00452294
0.00537937
0.00709778
0.00875504
0.00873982
0.00562699
0.00205687
0.000643037
0.000414991
0.00087876
0.00242516
0.00340611
0.00450446
0.00379184
0.00235529
0.00195421
0.00194338
0.00197543
0.00218964
0.00280657
0.00452238
0.00446546
0.00380586
0.00369956
0.0034421
0.00368373
0.00363042
0.00401045
0.00433785
0.0050518
0.00590032
0.00601477
0.00523019
0.00387499
0.00299853
0.00305539
0.00335223
0.00404236
0.00299063
0.00193005
0.00191066
0.00268173
0.00310482
0.000569155
0.000437897
0.00114053
0.003241
0.0032703
0.0028242
0.00276553
0.00278453
0.00287241
0.00298116
0.00308271
0.00330221
0.00344212
0.0034196
0.00326773
0.00209554
0.00144247
0.00130276
0.00136349
0.00176885
0.00250932
0.00318286
0.00336576
0.00309127
0.00291447
0.00317995
0.00337921
0.00307479
0.00325554
0.00293813
0.0020648
0.000972112
0.00118251
0.00212232
0.00332967
0.00312203
0.00250793
0.00193424
0.00155292
0.00129781
0.00113192
0.00111973
0.00113725
0.00131042
0.00149536
0.00187618
0.00228441
0.00268084
0.00305605
0.00327831
0.00340768
0.00334123
0.00315946
0.00279383
0.00273505
0.00306065
0.00301983
0.00226001
0.00290583
0.00311507
0.00269556
0.000856514
0.000497896
0.000465588
0.000440652
0.000398989
0.000377926
0.000385808
0.00035847
0.000296295
0.000253057
0.000271478
0.000342393
0.000446828
0.000515236
0.000511671
0.000491148
0.000495517
0.000491908
0.000511254
0.000588221
0.000630862
0.000598972
0.000479657
0.000373149
0.000877828
0.00156677
0.00352659
0.00161729
8.44214e-05
8.81353e-05
0.000101699
9.04385e-05
0.000112159
0.000323401
0.0024794
0.0035218
0.00234123
0.000606112
0.000293576
0.00026036
0.000239975
0.000224686
0.000211955
0.000235603
0.000361473
0.000669879
0.00111193
0.00106868
0.000698705
0.000473088
0.000524327
0.0013329
0.00333532
0.00131363
0.000655537
0.000549991
0.000613944
0.000609574
0.00333256
0.00317395
0.0023252
0.00170022
0.00162826
0.00236179
0.00349005
0.00210707
0.00295959
0.00160676
0.000456897
0.000545762
0.00334087
0.000241055
6.07885e-05
5.39744e-05
6.3621e-05
6.55384e-05
6.34849e-05
6.08213e-05
7.19402e-05
9.51377e-05
0.000150332
0.000242341
0.000242551
0.00015564
0.000100104
9.73703e-05
0.000146127
0.00461489
0.000974822
0.000869473
0.000874367
0.00111466
0.00138646
0.00141831
0.00146769
0.00200024
0.00268922
0.000360104
0.000125313
7.44991e-05
6.21811e-05
6.23324e-05
6.2569e-05
6.61998e-05
6.90199e-05
8.10182e-05
7.60906e-05
7.91789e-05
6.83142e-05
6.08321e-05
5.03002e-05
3.98447e-05
3.61503e-05
3.58497e-05
5.14383e-05
0.000186741
0.00358678
0.000100288
0.000696671
0.000556463
0.000587398
0.00057065
0.000579343
0.000641722
0.000690473
0.000776744
0.000898794
0.00120277
0.00183608
0.00297012
0.00295404
0.00115549
0.000613018
0.00033473
0.000241339
0.000185665
0.000209316
0.000209833
0.000236805
0.000214393
0.000233719
0.000219374
0.000193177
0.000184573
0.000179919
0.000182378
0.000227709
0.000345604
0.00021381
0.000236294
0.000270071
0.000297506
0.000296759
0.000341312
0.000390577
0.000577744
0.00103062
0.00204789
0.00223213
0.000901866
0.000392406
0.000299611
0.000263614
0.000259124
0.000291545
0.000271793
0.000351488
0.000304105
0.000323926
0.000218271
0.000137154
0.000151334
0.000186281
0.000201183
0.000582576
0.00533808
0.00100379
0.000280373
0.00024573
0.00026001
0.000265179
0.000320067
0.000729533
0.002756
0.00334229
0.000952387
0.00038008
0.000284183
0.000273659
0.000301892
0.000322593
0.000339248
0.000263368
0.000190729
0.000137345
9.63783e-05
7.51088e-05
6.80312e-05
9.35629e-05
0.000258921
0.00283075
0.0015321
0.000638749
0.000290851
0.000233233
0.000147642
9.95183e-05
0.000121284
0.000293952
0.000627565
0.00157007
0.0042722
0.00305931
0.00125697
0.00313404
0.00541169
0.00531118
0.00284699
0.00119449
0.000764399
0.000677138
0.000872691
0.00162303
0.00324097
0.00522157
0.0067295
0.00694042
0.00645864
0.00570155
0.00473528
0.00431569
0.00397141
0.00361519
0.00350961
0.00518482
0.00555962
0.00182449
0.000543217
0.00843329
0.00899327
0.00787633
0.00857331
0.0103729
0.0123899
0.0101715
0.00841745
0.00721452
0.00746503
0.00791021
0.00918007
0.0118827
0.00350608
0.0044707
0.00552389
0.00720161
0.00732672
0.00764523
0.0061676
0.00443859
0.00371168
0.00430696
0.00488776
0.00574754
0.00574272
0.00569948
0.00482037
0.00442941
0.00411536
0.00409927
0.00420017
0.00518159
0.00705797
0.00919831
0.0101125
0.00850297
0.00337101
0.000837847
0.000273382
0.000176282
0.000342647
0.00126309
0.00329144
0.00372219
0.00241753
0.00202837
0.00199462
0.00202429
0.00206896
0.00243609
0.00368835
0.00456687
0.00395998
0.00328063
0.00333841
0.00318348
0.00367528
0.00389349
0.00404005
0.00422469
0.00478619
0.00526363
0.00578848
0.00487487
0.00358036
0.00310374
0.00289079
0.00344446
0.00419241
0.00256439
0.00184769
0.00216229
0.00295847
0.00152484
0.000402515
0.000784544
0.00311974
0.00319818
0.00269752
0.00249298
0.0025771
0.00266946
0.00272924
0.00276501
0.00283773
0.00292345
0.00314753
0.00313657
0.0034563
0.00337816
0.00345855
0.00330285
0.00317956
0.00326402
0.00342522
0.00336937
0.00326045
0.00292846
0.00290509
0.00328895
0.00338238
0.00339027
0.00308612
0.00232076
0.000566994
0.000452279
0.000749207
0.00125796
0.00214785
0.00308461
0.00341007
0.00313796
0.00272691
0.00210526
0.00175988
0.001484
0.00148204
0.0015275
0.00174976
0.0019164
0.00217639
0.00239052
0.0025602
0.00263712
0.00266544
0.00249174
0.00220279
0.00211615
0.00230257
0.00279258
0.00264759
0.0020867
0.00280898
0.00345978
0.00133285
0.000546504
0.000453894
0.000433681
0.000381693
0.000346562
0.000332442
0.000303939
0.000256117
0.000220355
0.000229667
0.000295332
0.000424832
0.000487079
0.000538946
0.000547677
0.000574858
0.000606776
0.000558896
0.000483855
0.000511223
0.000549799
0.000531597
0.000413059
0.00037718
0.00103369
0.00166354
0.00374195
0.00155105
6.54437e-05
5.79867e-05
6.13278e-05
7.65254e-05
0.000190003
0.000860157
0.00337126
0.00253538
0.000734682
0.000342922
0.000273928
0.000251856
0.000231806
0.000211033
0.000188386
0.000241226
0.000483064
0.00149299
0.00344609
0.00360828
0.00244068
0.00125819
0.00116995
0.00223839
0.00325311
0.00145396
0.000761942
0.000603758
0.000551585
0.000469661
0.00350491
0.0028723
0.00185284
0.00141265
0.00133135
0.00174688
0.00323967
0.00202124
0.00291888
0.0013899
0.000460006
0.000709719
0.00282574
0.000158661
6.29217e-05
6.00879e-05
7.00297e-05
6.40224e-05
6.26228e-05
5.96896e-05
5.85262e-05
8.01255e-05
0.00013446
0.000280026
0.000550609
0.000650049
0.00056739
0.000226249
0.000136165
0.00419097
0.00102562
0.000912974
0.000931949
0.00109607
0.0012764
0.00140345
0.0018091
0.0030513
0.000326494
8.78479e-05
5.8851e-05
5.77529e-05
6.57557e-05
7.64287e-05
9.01771e-05
0.000101859
0.000110995
0.000103479
0.000107914
0.00010163
9.87601e-05
9.02768e-05
7.35441e-05
5.77096e-05
4.48921e-05
3.36662e-05
2.95054e-05
3.88219e-05
0.000174366
0.00212641
0.000517333
0.000480732
0.000610581
0.000594431
0.00054039
0.000505006
0.000584571
0.000764981
0.00119523
0.00198051
0.00322897
0.00206798
0.000629765
0.000305971
0.000234506
0.00023154
0.000233196
0.000323511
0.000368221
0.000432499
0.000419366
0.000487151
0.000424266
0.000419867
0.000311902
0.000245953
0.000169188
0.000117632
9.82958e-05
9.51054e-05
0.000216179
0.000392075
0.000539177
0.000654772
0.000583766
0.000486661
0.000506844
0.000676573
0.0012809
0.00291533
0.00094393
0.000509725
0.000313387
0.00039665
0.000405791
0.000453714
0.000485384
0.000635696
0.000579617
0.000713147
0.00072
0.000498386
0.000387242
0.000282516
0.000169218
0.000164733
0.000177728
0.000465171
0.00618101
0.000461432
0.000240001
0.000270621
0.000338553
0.000430226
0.00146007
0.00338136
0.0011196
0.000686445
0.000515837
0.000755434
0.00116066
0.00203262
0.00173624
0.00142021
0.00118165
0.000731026
0.000445701
0.000235574
0.00012408
6.43841e-05
5.4013e-05
4.63642e-05
9.83832e-05
0.000466439
0.00389369
0.00148903
0.000552097
0.00028547
0.000188205
0.000129739
0.000428747
0.00103399
0.00363751
0.00246747
0.00096966
0.00139855
0.00337369
0.0120435
0.011665
0.0107852
0.0063744
0.00193184
0.000783732
0.000513454
0.000478943
0.000661862
0.00109669
0.00150168
0.00176424
0.00159249
0.0012722
0.00102107
0.000875905
0.000793994
0.000786092
0.000859463
0.00128595
0.00224625
0.00556374
0.000809575
0.00850569
0.00854025
0.00873125
0.0104491
0.0102663
0.0105581
0.0119993
0.0113785
0.0112483
0.0108945
0.0107655
0.0105117
0.0105633
0.00434293
0.00484463
0.00669417
0.00765828
0.00772892
0.00573062
0.00341553
0.00238446
0.00240207
0.00275803
0.00311338
0.00374458
0.00362681
0.00385238
0.00362576
0.00362972
0.0035537
0.00403807
0.00511571
0.007659
0.00945771
0.0105233
0.0091019
0.0036965
0.000913826
0.00028598
0.000161821
0.000193685
0.00034704
0.000891434
0.00290107
0.00242462
0.00223729
0.00209873
0.00205636
0.00199552
0.00205604
0.00253537
0.00354602
0.00433352
0.0042745
0.00364182
0.0033332
0.00311019
0.00323571
0.00352481
0.00397581
0.00447751
0.0046974
0.00510345
0.00485997
0.00398614
0.00318791
0.0028149
0.00312667
0.00376349
0.00364974
0.00207868
0.00174031
0.0023715
0.00317527
0.00102922
0.000476374
0.00143769
0.00320991
0.00336657
0.00280714
0.00258857
0.00256561
0.00260293
0.00257255
0.00258982
0.00262606
0.00267367
0.00273079
0.00276058
0.00265942
0.00271091
0.00263929
0.00280075
0.0029514
0.00308583
0.00314846
0.00305947
0.00289872
0.00288939
0.00314931
0.00333471
0.00337656
0.00322139
0.0028456
0.0010865
0.000341133
0.000421007
0.000664332
0.000890962
0.00123069
0.00156386
0.00204797
0.00253014
0.003015
0.00343873
0.00330568
0.00287878
0.00260921
0.00245406
0.0023285
0.00231163
0.00227959
0.00213436
0.00210688
0.00195684
0.00183987
0.00162953
0.00161428
0.0015942
0.0019077
0.00238796
0.00230126
0.00201704
0.00280117
0.00356556
0.000820686
0.000466803
0.000430891
0.000371197
0.000313815
0.000294646
0.000267237
0.000238988
0.000211326
0.000210399
0.000258394
0.000374564
0.000467617
0.000517112
0.000577579
0.000655434
0.000758001
0.000810547
0.000683249
0.000492626
0.000446938
0.000439564
0.000399513
0.000308156
0.000602154
0.00115623
0.00223643
0.00261859
0.00146083
5.3386e-05
3.92906e-05
5.43609e-05
0.000109792
0.000481274
0.00225839
0.00284965
0.00103683
0.000409341
0.000293559
0.000256906
0.000227213
0.000285071
0.000220897
0.000185637
0.000227968
0.000655567
0.0027557
0.00292723
0.00237703
0.00275046
0.00345541
0.00362082
0.00347551
0.00243425
0.00136778
0.000782424
0.000572408
0.000475888
0.000414357
0.00291146
0.00208531
0.00156083
0.00144913
0.00135794
0.00164006
0.00316735
0.00206456
0.00309721
0.00130743
0.000443732
0.000801556
0.00213262
0.000155596
6.43793e-05
6.41882e-05
6.79676e-05
6.55604e-05
6.15953e-05
5.86011e-05
5.62175e-05
5.76516e-05
8.4111e-05
0.000243932
0.000694271
0.00168444
0.00260591
0.00276673
0.000544994
0.00302812
0.001104
0.000879083
0.000918322
0.00108569
0.0012652
0.00154512
0.00310175
0.000677421
0.000119009
6.11544e-05
5.74654e-05
6.7011e-05
8.70544e-05
0.000105701
0.000112598
0.000127257
0.000117791
0.000119032
0.000111175
0.000106815
0.000100264
9.72398e-05
8.32586e-05
6.05893e-05
4.66244e-05
3.82943e-05
2.94804e-05
2.51628e-05
3.66022e-05
0.000291377
0.000379285
0.000480823
0.000773892
0.000794633
0.000598772
0.000489556
0.00050072
0.000806306
0.00161482
0.00296959
0.00231861
0.000698453
0.000326435
0.000226812
0.000233465
0.00027288
0.00041144
0.000512164
0.000635371
0.000675997
0.000873893
0.000837292
0.00109648
0.000931188
0.000849611
0.000605518
0.000383175
0.000214976
0.000114339
7.54866e-05
0.000387486
0.000975896
0.00146462
0.00172785
0.00174814
0.00146139
0.00101368
0.000912661
0.00142013
0.0031246
0.000707699
0.000444618
0.000373781
0.000586247
0.000686893
0.000875672
0.000791166
0.000767477
0.00111693
0.000896212
0.000917079
0.000828882
0.000948418
0.000551369
0.000321837
0.00024012
0.000168775
0.000183428
0.000778539
0.000965038
0.000245391
0.000405208
0.000585205
0.000790296
0.00245114
0.00145118
0.000782423
0.000784246
0.000971416
0.00216448
0.00254
0.00247347
0.00203574
0.00164387
0.0014176
0.00128839
0.00078878
0.000457796