/*--------------------------------*- C++ -*----------------------------------*\
| =========                 |                                                 |
| \\      /  F ield         | OpenFOAM: The Open Source CFD Toolbox           |
|  \\    /   O peration     | Version:  2.1.1                                 |
|   \\  /    A nd           | Web:      www.OpenFOAM.org                      |
|    \\/     M anipulation  |                                                 |
\*---------------------------------------------------------------------------*/
FoamFile
{
    version     2.0;
    format      ascii;
    class       volScalarField;
    location    "0.003600000";
    object      rho;
}
// * * * * * * * * * * * * * * * * * * * * * * * * * * * * * * * * * * * * * //

dimensions      [1 -3 0 0 0 0 0];

internalField   nonuniform List<scalar> 
12384
(
0.842124
0.815475
0.794694
0.789591
0.794534
0.822714
0.843045
0.885891
0.91226
0.927189
0.918795
0.88302
0.861686
0.861092
0.868845
0.854737
0.792808
0.784348
0.753586
0.760872
0.750925
0.766587
0.761491
0.786906
0.795404
0.813657
0.831349
0.853442
0.859281
0.861134
0.849493
0.838709
0.830492
0.813796
0.816287
0.813437
0.823363
0.849091
0.883752
0.936623
0.945964
0.92182
0.845482
0.853029
0.741366
0.759599
0.789815
0.815733
0.825322
0.843887
0.839333
0.820347
0.797386
0.778601
0.71378
0.710285
0.642451
0.635335
0.60454
0.577502
0.569608
0.554242
0.559675
0.56006
0.559987
0.562368
0.564117
0.55747
0.570115
0.593543
0.617677
0.692671
0.734451
0.72362
0.788697
0.790371
0.806264
0.813964
0.824916
0.824676
0.823294
0.81125
0.798936
0.787279
0.753157
0.758741
0.729444
0.744842
0.754808
0.758274
0.760621
0.742674
0.729884
0.72014
0.718988
0.771837
0.807006
0.869768
0.866331
0.83573
0.842964
0.85387
0.893979
0.91513
0.907642
0.903431
0.893114
0.884352
0.880141
0.871528
0.868676
0.853497
0.847976
0.839791
0.806899
0.808513
0.805032
0.765332
0.780317
0.755192
0.712574
0.719492
0.701797
0.676219
0.696068
0.697157
0.708167
0.713184
0.708201
0.703887
0.692249
0.679309
0.729235
0.682349
0.790596
0.772388
0.74158
0.732639
0.720172
0.728713
0.721979
0.707669
0.680816
0.664066
0.663302
0.640068
0.677697
0.682457
0.728584
0.751086
0.767931
0.75199
0.722074
0.670156
0.63873
0.607789
0.592886
0.626581
0.62475
0.661382
0.713046
0.806656
1.01245
1.01258
0.814316
0.818986
0.802836
0.773189
0.707596
0.68585
0.657858
0.707147
0.738781
0.965103
1.05124
1.11734
1.09618
1.07394
0.97675
0.906171
0.827367
0.830087
0.771576
0.801596
0.772226
0.834586
0.817454
0.882018
0.897221
0.92514
0.943017
0.926877
0.863508
0.819676
0.850791
0.862132
0.849907
0.825278
0.826401
0.782069
0.833626
0.776681
0.836691
0.874986
0.968666
1.12578
1.11444
1.10221
1.02277
0.883057
0.789142
0.79064
0.780562
0.787413
0.787733
0.790934
0.789877
0.791881
0.807776
0.815067
0.919039
1.08434
1.24179
1.33984
0.95056
0.965666
0.973551
0.99962
0.956978
0.970976
0.95287
0.982318
1.01152
1.00115
0.915484
0.862732
0.833417
0.890159
0.879624
0.968299
0.977501
0.983521
0.943711
0.884928
0.853895
0.824396
0.838265
0.831736
0.825862
0.809052
0.777565
0.75121
0.711906
0.692191
1.08993
1.12212
1.1106
1.05096
0.969829
0.88895
0.859703
0.824818
0.857104
0.908265
0.955455
0.991293
0.991157
1.01261
0.991692
1.00817
0.957639
1.01011
0.996978
1.031
1.00517
0.948436
0.870451
0.887226
0.833865
0.838247
0.827198
0.815345
0.794065
0.780857
1.45358
1.42091
1.40234
1.38081
1.34737
1.29208
1.23808
1.16967
1.09571
1.08512
1.06533
1.04959
1.0581
0.997362
0.987116
1.03402
1.03853
1.10863
1.24559
1.35635
1.44059
1.42544
1.40073
1.33366
1.37111
1.28735
1.34175
1.28417
1.28317
1.26194
1.4414
1.47524
1.4386
1.46805
1.44592
1.4178
1.18212
1.12471
0.855901
0.844497
0.81924
0.851623
0.928243
0.963455
1.04562
1.12374
1.19005
1.20643
1.20324
1.17956
1.14906
1.12191
1.11891
1.06229
1.07425
1.01967
0.964474
0.950737
0.915048
0.905593
1.46247
1.37033
1.82765
2.05724
2.43292
2.52033
2.79464
2.70887
2.45342
1.579
1.81935
1.61146
1.67633
1.62263
1.67698
1.64149
1.61694
1.56222
1.56307
1.56672
1.56073
1.52517
1.53564
1.47815
1.53617
1.5131
1.45748
1.38887
1.42477
1.3798
0.694238
0.659514
0.64475
0.637599
0.642911
0.645501
0.664988
0.699671
0.752589
0.822608
0.886042
0.908231
0.887616
0.875487
0.862183
0.763739
0.688205
0.669325
0.657829
0.649495
0.65438
0.648766
0.659474
0.671953
0.683129
0.718351
0.751238
0.790767
0.816455
0.830819
0.830107
0.8232
0.822928
0.813156
0.798926
0.799219
0.805334
0.840988
0.894991
0.945591
0.961364
0.944969
0.871381
0.836801
0.772442
0.770229
0.803527
0.82229
0.846037
0.852234
0.842595
0.848613
0.814295
0.781388
0.756007
0.698357
0.680565
0.631498
0.621745
0.592208
0.572786
0.558825
0.558448
0.546549
0.544544
0.548162
0.547177
0.559153
0.575842
0.577241
0.619745
0.681927
0.734922
0.726327
0.777609
0.787719
0.794005
0.798935
0.791843
0.787153
0.775923
0.767324
0.760835
0.734123
0.743699
0.708469
0.720764
0.710343
0.726774
0.741778
0.739424
0.726338
0.714235
0.705271
0.719679
0.784327
0.814014
0.866612
0.879021
0.856645
0.836694
0.83419
0.843512
0.908546
0.912621
0.8938
0.880605
0.879774
0.888574
0.909588
0.923365
0.942811
0.945712
0.933713
0.943033
0.920912
0.885829
0.871752
0.816751
0.76223
0.753003
0.692325
0.707713
0.677205
0.681697
0.689087
0.698747
0.701111
0.70463
0.697332
0.679095
0.675481
0.704991
0.693926
0.779934
0.750507
0.72728
0.711509
0.697605
0.673237
0.648082
0.625389
0.618385
0.613444
0.622855
0.632962
0.65136
0.692719
0.718064
0.756713
0.7626
0.757545
0.72864
0.695897
0.658946
0.642601
0.620049
0.611711
0.638947
0.662318
0.70979
0.766155
0.958702
1.06502
0.694054
0.708359
0.712457
0.720837
0.683856
0.675725
0.659279
0.721108
0.793224
0.956505
0.977698
0.92129
0.868878
0.83322
0.793059
0.74995
0.683256
0.696643
0.643289
0.661526
0.625201
0.656168
0.671043
0.767267
0.835788
0.909627
0.951485
0.945527
0.873045
0.802427
0.865417
0.818529
0.78249
0.767381
0.747154
0.728265
0.784993
0.745177
0.837613
0.848506
1.0416
1.11274
1.11747
1.00522
0.800797
0.740595
0.707571
0.720916
0.725354
0.739211
0.751234
0.752347
0.743309
0.728054
0.719363
0.734439
0.801391
0.862108
1.09587
1.33689
0.923771
0.967633
0.973639
0.992271
0.943215
0.955762
0.956666
1.01714
1.06277
1.07458
0.986881
0.935973
0.901525
0.89063
0.906368
0.870495
0.912535
0.853928
0.832139
0.806736
0.800036
0.813823
0.833442
0.864747
0.899794
0.932224
0.951029
0.928063
0.881402
0.784885
1.09379
1.12791
1.12604
1.06614
0.988801
0.913444
0.878502
0.859351
0.888375
0.92593
0.979733
0.981859
1.00511
1.00134
1.04434
1.06657
1.105
1.13954
1.19083
1.17111
1.13152
1.0636
1.01322
0.977319
0.971306
0.987036
0.997185
1.01971
1.02354
0.97204
1.44683
1.41313
1.39979
1.37128
1.34754
1.28829
1.23982
1.19904
1.14508
1.12298
1.10769
1.07381
1.05831
1.01044
0.982087
1.02315
0.98254
1.09655
1.16729
1.2951
1.37155
1.46789
1.50532
1.56553
1.66582
1.68966
1.73118
1.67777
1.53468
1.45747
1.45758
1.44319
1.45227
1.45428
1.4585
1.41575
1.3341
1.10457
0.98785
0.906126
0.909291
0.936687
0.979007
1.02984
1.06943
1.13044
1.19264
1.23346
1.25247
1.24888
1.24498
1.25095
1.19705
1.23893
1.20853
1.18635
1.12792
1.10277
1.06321
1.06743
1.47652
1.41342
1.85254
1.87826
2.23532
2.38632
2.52271
2.51098
2.1198
1.83084
1.74576
1.77686
1.78396
1.82057
1.83045
1.81683
1.81726
1.82761
1.79854
1.80759
1.79836
1.81879
1.78542
1.74887
1.69239
1.70095
1.7263
1.64669
1.5896
1.55752
0.612937
0.620146
0.626541
0.628251
0.616921
0.610529
0.60895
0.619578
0.64382
0.685237
0.756409
0.857354
0.904144
0.911076
0.834556
0.702887
0.65435
0.648916
0.632116
0.632376
0.620841
0.62916
0.620813
0.643959
0.643387
0.679006
0.698552
0.744917
0.781807
0.806971
0.815101
0.813685
0.815234
0.814641
0.795623
0.78507
0.792426
0.835996
0.883992
0.949027
0.990298
0.937796
0.86185
0.851088
0.772573
0.790081
0.807685
0.830663
0.851923
0.866342
0.85342
0.823969
0.793894
0.774361
0.719113
0.700585
0.656219
0.653369
0.620465
0.60937
0.590046
0.578912
0.562797
0.557317
0.561482
0.552207
0.560074
0.566883
0.560793
0.595772
0.634463
0.706778
0.740872
0.732671
0.77193
0.775023
0.761656
0.752154
0.750549
0.745306
0.74016
0.739382
0.724151
0.736669
0.706113
0.719084
0.692942
0.696748
0.714093
0.724042
0.730344
0.716894
0.719028
0.731345
0.727684
0.781252
0.81252
0.85313
0.879833
0.879093
0.857423
0.837874
0.839013
0.882356
0.898329
0.882386
0.884339
0.89922
0.92526
0.942624
0.967462
0.970493
0.976863
0.987827
0.961316
0.963502
0.950686
0.908307
0.884355
0.816265
0.778118
0.725896
0.697664
0.684247
0.685094
0.682382
0.689665
0.697003
0.698948
0.683569
0.685174
0.660712
0.703576
0.671816
0.781113
0.727331
0.696713
0.671045
0.627329
0.609825
0.600492
0.608432
0.604652
0.630156
0.631098
0.675692
0.674332
0.707321
0.731773
0.751243
0.760538
0.752125
0.733469
0.714597
0.688873
0.674639
0.647885
0.671216
0.653064
0.689834
0.714294
0.769183
0.88396
1.04346
0.64751
0.658636
0.672879
0.682085
0.662502
0.664435
0.67578
0.737321
0.85264
0.883785
0.815769
0.812512
0.794998
0.791217
0.750077
0.722609
0.668373
0.673559
0.628317
0.644359
0.600041
0.621686
0.603701
0.65964
0.757081
0.85689
0.935715
0.931285
0.880078
0.852979
0.866004
0.782753
0.75174
0.756133
0.744599
0.715083
0.746655
0.71691
0.807858
0.871738
1.08599
1.12122
1.02352
0.817392
0.733912
0.714267
0.711138
0.718761
0.750643
0.758539
0.779538
0.786214
0.788695
0.753369
0.727144
0.72087
0.727984
0.807559
0.924574
1.30601
0.936626
0.972255
0.967897
0.969549
0.935977
0.949141
0.970939
1.01288
1.04557
1.01691
0.905117
0.797721
0.70451
0.698443
0.690716
0.701171
0.703669
0.686104
0.687654
0.656521
0.665503
0.652256
0.661381
0.671358
0.680955
0.712864
0.840559
0.951964
0.974543
0.92119
1.09398
1.1337
1.15208
1.09957
1.02577
0.95656
0.923806
0.920813
0.942046
0.973171
0.963573
0.99488
0.994893
0.989498
0.991982
1.02367
1.02725
0.996424
0.909809
0.83462
0.767389
0.760801
0.710881
0.745923
0.756823
0.814535
0.871087
0.940244
1.00808
1.05899
1.4528
1.42291
1.40102
1.37434
1.35424
1.29744
1.25193
1.20293
1.15566
1.12849
1.06392
1.0011
0.929335
0.85457
0.772469
0.781476
0.770836
0.800572
0.875161
0.904259
0.959764
0.965902
0.982771
1.1669
1.33275
1.63029
1.79288
1.86032
1.86929
1.76795
1.41094
1.40916
1.44466
1.41282
1.42796
1.34664
1.32918
1.07059
0.979371
0.822383
0.745088
0.718808
0.720523
0.726884
0.761076
0.787727
0.855931
0.906579
0.98414
1.06888
1.15707
1.17301
1.25164
1.24521
1.24177
1.29926
1.32822
1.26532
1.20101
1.10586
1.60979
1.46715
1.74735
1.70536
1.92915
1.90045
1.92037
1.77145
1.69909
1.18461
1.40539
1.41961
1.58148
1.70257
1.76147
1.8025
1.8336
1.83285
1.83516
1.81082
1.82017
1.79701
1.78223
1.76795
1.74384
1.70979
1.69374
1.76278
1.72768
1.77516
0.635799
0.673307
0.70195
0.698862
0.676013
0.645369
0.619632
0.60999
0.613164
0.629154
0.667896
0.743206
0.856477
0.927543
0.784787
0.682922
0.657609
0.635466
0.626198
0.611747
0.620285
0.611403
0.624235
0.630594
0.631706
0.664318
0.675959
0.719712
0.760846
0.794293
0.806988
0.811817
0.813715
0.800965
0.789447
0.77524
0.775341
0.812614
0.910033
0.993918
1.01276
0.971734
0.89307
0.856707
0.807929
0.808739
0.83288
0.861432
0.874554
0.86657
0.827224
0.808441
0.759972
0.701852
0.675011
0.654304
0.627046
0.644634
0.616177
0.624109
0.606244
0.592459
0.578491
0.5762
0.553018
0.550573
0.551443
0.5488
0.574763
0.588571
0.650096
0.707548
0.743877
0.720013
0.7704
0.759793
0.732445
0.724182
0.726783
0.735078
0.745405
0.742354
0.755377
0.736028
0.747754
0.71802
0.723138
0.712031
0.712441
0.728092
0.732807
0.736228
0.7389
0.73186
0.767357
0.79715
0.817342
0.849357
0.881613
0.891952
0.876742
0.845874
0.836534
0.878109
0.889503
0.878111
0.880366
0.873156
0.886487
0.90988
0.926015
0.953784
0.970803
0.958657
0.955437
0.967242
0.934897
0.919443
0.899963
0.828469
0.811102
0.735996
0.714952
0.700091
0.683804
0.690461
0.690461
0.69489
0.691646
0.696168
0.672053
0.665838
0.681699
0.676864
0.767039
0.702455
0.65371
0.610404
0.597553
0.596824
0.607905
0.613618
0.633948
0.636736
0.655705
0.662282
0.683323
0.701514
0.722862
0.735158
0.730043
0.712099
0.704004
0.688182
0.683821
0.671402
0.692445
0.676704
0.701313
0.700318
0.723427
0.769451
0.923737
1.06951
0.640375
0.637776
0.65374
0.647263
0.653328
0.661535
0.706981
0.771267
0.827108
0.78233
0.768306
0.771158
0.775766
0.761962
0.73259
0.715409
0.667392
0.659386
0.662895
0.635372
0.605246
0.618095
0.592534
0.629056
0.716054
0.86101
0.944003
0.951558
0.921412
0.874581
0.816834
0.768105
0.786216
0.803926
0.804648
0.783207
0.747248
0.715084
0.792044
0.921438
1.07243
1.07513
0.902011
0.719573
0.709519
0.688837
0.704135
0.720787
0.745796
0.757383
0.794131
0.803081
0.794473
0.789465
0.756627
0.748024
0.715277
0.777241
0.877564
1.194
0.944071
0.983081
0.986086
0.967397
0.952074
0.952326
0.97668
0.981128
0.941619
0.810286
0.733555
0.69176
0.674069
0.654389
0.66638
0.653088
0.650629
0.656497
0.637404
0.646148
0.632444
0.635127
0.638432
0.639537
0.641885
0.650092
0.663565
0.736949
0.933736
0.985992
1.09469
1.13485
1.16302
1.14378
1.07014
1.00656
0.981781
0.957859
0.965179
0.946695
0.961992
0.945934
0.888427
0.861993
0.841085
0.810633
0.763591
0.728636
0.70492
0.679634
0.684158
0.644317
0.653986
0.61254
0.63634
0.637745
0.640431
0.663964
0.735254
0.858952
1.45256
1.42277
1.40086
1.36552
1.34528
1.30607
1.25838
1.18413
1.11871
1.05798
0.926611
0.858217
0.782885
0.772277
0.719849
0.738847
0.716986
0.757512
0.789529
0.855796
0.864971
0.885475
0.885441
0.930265
0.990538
1.07813
1.35232
1.75134
1.90512
1.89904
1.40811
1.38218
1.39641
1.39389
1.34293
1.2557
1.14498
0.935595
0.82582
0.660597
0.657547
0.631766
0.643105
0.662157
0.685283
0.71787
0.724124
0.740137
0.752068
0.767507
0.779277
0.933825
1.13175
1.18079
1.2433
1.30188
1.31829
1.40942
1.40237
1.36073
1.59929
1.58478
1.48743
1.64637
1.36951
1.47263
1.47183
1.65462
1.37654
1.32916
1.09955
1.20611
1.24477
1.3019
1.41907
1.5095
1.56262
1.58594
1.57983
1.57149
1.53844
1.53549
1.49218
1.50571
1.47758
1.48714
1.5211
1.64226
1.7853
1.81198
0.671978
0.752044
0.803483
0.801147
0.750653
0.69657
0.6543
0.633955
0.621374
0.625993
0.640444
0.675405
0.761248
0.916557
0.730781
0.676446
0.646196
0.627485
0.609639
0.622994
0.624162
0.650348
0.643778
0.647692
0.654338
0.66786
0.691837
0.729796
0.764814
0.790348
0.802262
0.811544
0.81249
0.809191
0.789152
0.772409
0.78526
0.858309
0.955762
1.0541
1.0949
1.0427
0.934914
0.88109
0.821143
0.845569
0.875641
0.895692
0.868043
0.839909
0.817008
0.761646
0.683326
0.658796
0.620087
0.621671
0.601113
0.615205
0.60912
0.622759
0.613335
0.610487
0.609694
0.585096
0.582352
0.575921
0.559905
0.573139
0.579019
0.610207
0.669419
0.740677
0.743899
0.716968
0.723093
0.68754
0.679837
0.706523
0.733586
0.77463
0.77716
0.784113
0.762097
0.773484
0.747643
0.758383
0.729535
0.715788
0.741447
0.720054
0.757611
0.770355
0.763865
0.790962
0.802826
0.814132
0.834718
0.863622
0.893399
0.90433
0.886551
0.854059
0.842063
0.883626
0.88595
0.863238
0.849544
0.853059
0.861213
0.868928
0.900658
0.91094
0.93832
0.931021
0.95293
0.937053
0.936454
0.905035
0.892033
0.81374
0.814988
0.732454
0.736861
0.694878
0.69366
0.682256
0.692312
0.687549
0.698738
0.692664
0.662939
0.662242
0.671756
0.642969
0.760242
0.672988
0.621753
0.596724
0.599313
0.613888
0.614135
0.623002
0.62713
0.645443
0.627829
0.664069
0.664868
0.70444
0.708974
0.706188
0.686861
0.674384
0.656709
0.6588
0.654091
0.672823
0.668086
0.701713
0.693826
0.707202
0.718443
0.797338
0.911011
1.15749
0.618189
0.632226
0.643572
0.633785
0.642963
0.689868
0.724378
0.7812
0.75895
0.749029
0.751037
0.750423
0.764463
0.74541
0.721843
0.708034
0.665943
0.685246
0.681909
0.645268
0.621118
0.623685
0.595753
0.629447
0.701032
0.834543
0.932872
0.967584
0.944432
0.944626
0.760415
0.768765
0.824245
0.873905
0.881969
0.830553
0.790985
0.754981
0.789802
0.95252
1.07555
1.01513
0.822891
0.687588
0.672695
0.696476
0.701603
0.708511
0.723005
0.759827
0.793093
0.833033
0.86197
0.85094
0.82486
0.788359
0.764096
0.784958
0.846385
1.09682
0.964434
0.983394
0.996568
0.972144
0.967024
0.967158
0.952649
0.890928
0.788818
0.737309
0.697306
0.687652
0.663614
0.639909
0.645509
0.652284
0.642744
0.625719
0.643583
0.625746
0.633248
0.630009
0.624678
0.626937
0.632194
0.637498
0.639158
0.644975
0.690139
0.985377
1.11015
1.13141
1.16035
1.15598
1.10692
1.06849
1.03349
1.0046
0.963441
0.966698
0.925781
0.836315
0.797983
0.786879
0.753526
0.732708
0.703988
0.691935
0.656919
0.6612
0.621898
0.627548
0.5861
0.607148
0.594024
0.611788
0.619216
0.626844
0.643068
0.651067
1.40474
1.38228
1.3586
1.33322
1.32666
1.2966
1.25309
1.18134
1.07279
0.976911
0.824587
0.808638
0.748544
0.750896
0.694405
0.707644
0.746062
0.728139
0.789379
0.807122
0.867883
0.859457
0.840349
0.880124
0.949592
0.957161
1.04887
1.1973
1.73514
2.03455
1.36688
1.34747
1.35917
1.33059
1.26825
1.06871
0.955603
0.850758
0.792241
0.628385
0.685388
0.616665
0.659378
0.645231
0.685228
0.692352
0.71069
0.712289
0.705373
0.695687
0.716123
0.753492
0.794107
1.01118
1.19957
1.26635
1.37776
1.40047
1.39587
1.43247
1.53182
1.53117
1.3739
1.20153
1.23606
1.0719
1.41725
1.45062
1.52128
1.23996
1.23983
1.1856
1.17331
1.18405
1.20924
1.2498
1.26023
1.27755
1.27459
1.2439
1.23345
1.19468
1.18935
1.16387
1.17098
1.16131
1.19665
1.28178
1.5278
1.835
0.690297
0.810245
0.838232
0.820406
0.789061
0.748381
0.694688
0.681243
0.666203
0.669957
0.663054
0.669927
0.715653
0.86907
0.690896
0.662587
0.635669
0.615648
0.626846
0.649094
0.694813
0.699435
0.707357
0.695349
0.697367
0.696342
0.727625
0.747899
0.770875
0.786461
0.801019
0.806144
0.811315
0.793223
0.77045
0.768763
0.817895
0.922784
1.05531
1.15753
1.19618
1.15504
1.0352
0.910086
0.849614
0.869464
0.896471
0.879416
0.838762
0.841195
0.784051
0.719956
0.665425
0.635305
0.601713
0.607503
0.581604
0.601757
0.595443
0.609507
0.61229
0.62002
0.604201
0.599096
0.583118
0.574007
0.582324
0.573007
0.58884
0.623556
0.706331
0.742032
0.741818
0.71972
0.722831
0.690148
0.70549
0.723516
0.763456
0.767502
0.792169
0.766339
0.769079
0.743763
0.74608
0.729857
0.730458
0.721162
0.746386
0.742479
0.810961
0.808666
0.836455
0.833027
0.837663
0.84852
0.868974
0.892496
0.91614
0.919818
0.884979
0.851654
0.854882
0.893806
0.869923
0.841003
0.846522
0.857629
0.85974
0.863253
0.866537
0.856886
0.876553
0.890891
0.899209
0.911342
0.915331
0.885187
0.881306
0.790333
0.800875
0.737422
0.733431
0.712981
0.699726
0.70814
0.701387
0.719507
0.718524
0.694388
0.683506
0.698557
0.718331
0.693102
0.734507
0.641588
0.601099
0.600201
0.609265
0.60868
0.613404
0.609025
0.614345
0.609545
0.627422
0.641702
0.686155
0.694223
0.707646
0.683304
0.660119
0.636063
0.630707
0.620142
0.637692
0.635472
0.672523
0.668542
0.68872
0.681003
0.724949
0.795257
0.965733
1.20885
0.667988
0.619849
0.61047
0.633282
0.645742
0.709128
0.740212
0.750679
0.726377
0.75107
0.727209
0.755856
0.737784
0.755456
0.723407
0.696835
0.689373
0.705934
0.713391
0.686179
0.647354
0.635178
0.611076
0.643399
0.706927
0.829184
0.928569
0.963135
0.979008
0.995138
0.738556
0.785395
0.853888
0.894764
0.891033
0.890835
0.820295
0.779961
0.814455
0.990624
1.05981
1.00832
0.768189
0.70556
0.667055
0.671125
0.678695
0.707115
0.707843
0.763777
0.796247
0.856184
0.885833
0.899894
0.891895
0.879293
0.852328
0.854896
0.828694
1.0278
0.963562
0.997507
1.01148
0.989087
0.968358
0.956126
0.912958
0.78322
0.743704
0.703358
0.707454
0.667625
0.672588
0.637347
0.623188
0.609393
0.611996
0.639122
0.624939
0.646183
0.643785
0.640972
0.634618
0.62696
0.621416
0.61776
0.623103
0.636854
0.651885
0.779781
1.08867
1.12379
1.13896
1.13654
1.14114
1.11192
1.076
1.01642
0.983508
0.92287
0.844221
0.822732
0.807555
0.764022
0.752114
0.712019
0.697201
0.653196
0.659285
0.610967
0.61711
0.568654
0.588413
0.56405
0.584985
0.588893
0.600186
0.616855
0.617741
0.627157
1.34418
1.23289
1.19125
1.18143
1.20385
1.23607
1.23444
1.17484
1.05184
0.929366
0.805027
0.791609
0.738552
0.747736
0.694179
0.713202
0.689407
0.756972
0.741281
0.792795
0.819507
0.810828
0.874489
0.885895
0.900893
0.969531
0.994255
1.07699
1.3056
2.02185
1.38917
1.32654
1.29705
1.27502
1.13526
0.94531
0.886902
0.822493
0.760433
0.673393
0.672596
0.645993
0.649798
0.671415
0.677724
0.702521
0.714222
0.715978
0.707545
0.701355
0.719273
0.712025
0.740365
0.828498
0.909751
1.13996
1.30068
1.38186
1.4847
1.48716
1.52577
1.37814
1.20892
0.995897
0.955563
1.12571
1.03037
1.47934
1.42187
1.445
1.35904
1.26034
1.20662
1.17757
1.1532
1.14786
1.1651
1.16238
1.15631
1.14626
1.11106
1.10286
1.0855
1.08783
1.07155
1.07554
1.09585
1.12995
1.2978
1.68898
0.683003
0.807241
0.804581
0.772958
0.78574
0.788577
0.762867
0.752501
0.739886
0.731425
0.714524
0.715498
0.728578
0.850119
0.67073
0.64574
0.623011
0.624199
0.653331
0.70554
0.713713
0.728662
0.72009
0.699087
0.719602
0.712388
0.739641
0.752466
0.772616
0.783507
0.791416
0.791506
0.771262
0.760627
0.772592
0.830653
0.936195
1.06225
1.16619
1.2107
1.19114
1.15856
1.07313
0.940536
0.839781
0.889655
0.866018
0.842224
0.845651
0.827318
0.773128
0.734678
0.668512
0.654026
0.608088
0.597198
0.578242
0.57817
0.576704
0.58443
0.599619
0.593967
0.600928
0.598556
0.593491
0.586501
0.577945
0.587746
0.610725
0.66205
0.734721
0.7727
0.742251
0.711089
0.691001
0.682744
0.702092
0.713044
0.738038
0.774598
0.765476
0.772014
0.750709
0.754828
0.735329
0.727995
0.720784
0.693443
0.764028
0.726276
0.826643
0.850096
0.877969
0.865102
0.872308
0.884436
0.903924
0.923632
0.934524
0.912746
0.877591
0.865877
0.879656
0.898724
0.846504
0.837878
0.856735
0.865082
0.870891
0.867386
0.851693
0.839721
0.845141
0.829764
0.845536
0.8538
0.864626
0.834823
0.846966
0.767239
0.790893
0.725806
0.753355
0.724079
0.736948
0.728637
0.739485
0.729045
0.714246
0.708551
0.687508
0.689455
0.695522
0.662728
0.707972
0.620575
0.601294
0.604218
0.614735
0.616001
0.605884
0.607133
0.59669
0.613902
0.606846
0.651402
0.682454
0.697826
0.692145
0.678689
0.650121
0.650315
0.626591
0.631625
0.625967
0.629693
0.648502
0.646644
0.656181
0.667209
0.721762
0.817749
1.03875
1.23427
0.730018
0.686245
0.646115
0.664694
0.706375
0.723615
0.736151
0.710636
0.74106
0.732775
0.743421
0.767863
0.772517
0.731336
0.740383
0.728543
0.69992
0.748661
0.757873
0.796302
0.71506
0.695496
0.657381
0.683652
0.744669
0.830088
0.904747
0.956392
0.984966
1.01286
0.771049
0.826204
0.865576
0.872974
0.879372
0.900287
0.817252
0.793141
0.836728
1.00875
1.15533
0.984726
0.790392
0.704652
0.696386
0.686001
0.688196
0.680539
0.715183
0.73556
0.785623
0.834689
0.894525
0.933762
0.94465
0.938249
0.932706
0.90438
0.882894
0.904046
0.965146
0.992205
1.01457
1.00106
0.952823
0.897862
0.792719
0.735761
0.708423
0.709513
0.691797
0.667136
0.665605
0.63656
0.637741
0.630067
0.635913
0.61889
0.64842
0.64245
0.659634
0.660147
0.654368
0.638627
0.627147
0.621507
0.613755
0.612109
0.636176
0.66676
1.12077
1.08736
1.08487
1.09051
1.13031
1.16032
1.13108
1.08648
0.999709
0.900044
0.859191
0.852411
0.808193
0.788321
0.740046
0.718472
0.674226
0.646917
0.598432
0.603306
0.554152
0.56965
0.537252
0.562049
0.550775
0.578843
0.593673
0.600307
0.613661
0.615349
1.19437
1.06669
1.01742
0.999969
1.0115
1.06321
1.1273
1.14333
1.0573
0.921256
0.810068
0.783611
0.735501
0.745071
0.690304
0.716267
0.677792
0.676983
0.748215
0.732171
0.762279
0.797321
0.894699
0.871119
0.904504
0.96567
0.993491
1.02738
1.14272
1.88933
1.34564
1.26373
1.19671
1.1774
1.017
0.886267
0.842816
0.789453
0.758476
0.660142
0.661752
0.640992
0.65201
0.642062
0.671427
0.687476
0.713968
0.716005
0.705712
0.732751
0.712944
0.724298
0.772144
0.768879
0.821603
0.907308
1.08028
1.30861
1.40825
1.52062
1.37484
1.20535
0.972794
0.948485
0.819158
0.821266
1.10555
0.94029
1.15526
1.23437
1.38027
1.38226
1.30549
1.22184
1.15969
1.11136
1.09765
1.10297
1.08226
1.09442
1.06257
1.04896
1.03366
1.01861
1.02524
1.03995
1.04558
1.09923
1.16228
1.57977
0.68129
0.768107
0.731695
0.714944
0.760247
0.810875
0.812212
0.804272
0.775446
0.780142
0.785881
0.781176
0.775709
0.801702
0.667823
0.636856
0.627667
0.643338
0.679713
0.697555
0.7214
0.707803
0.714295
0.707857
0.720632
0.717308
0.747492
0.746047
0.771365
0.749178
0.756162
0.730698
0.745275
0.770217
0.8595
0.967361
1.0628
1.13504
1.15738
1.09706
1.02546
1.01578
1.03143
0.962485
0.808085
0.831104
0.84812
0.85323
0.848021
0.820009
0.789291
0.752105
0.710674
0.70934
0.654785
0.654403
0.601491
0.592918
0.584212
0.588368
0.582816
0.594762
0.59841
0.59343
0.592584
0.593261
0.598097
0.611913
0.639564
0.715254
0.776079
0.794428
0.764111
0.73205
0.703442
0.698181
0.700181
0.699483
0.713559
0.738566
0.757059
0.752445
0.745403
0.741476
0.7254
0.724818
0.726121
0.694503
0.758172
0.739828
0.795297
0.858247
0.85665
0.867906
0.890193
0.910618
0.924983
0.930008
0.924555
0.906429
0.886996
0.846447
0.824767
0.849903
0.840851
0.835045
0.862091
0.874063
0.875024
0.859103
0.855959
0.852532
0.834354
0.832295
0.831946
0.826869
0.817068
0.776572
0.769238
0.700385
0.685897
0.681754
0.651422
0.679904
0.68163
0.700588
0.715858
0.720555
0.729932
0.743132
0.739088
0.758976
0.769698
0.716605
0.685388
0.611022
0.598756
0.604869
0.594473
0.588604
0.584176
0.583113
0.597528
0.586472
0.617285
0.666315
0.673981
0.693299
0.709924
0.666237
0.668213
0.638639
0.643827
0.621157
0.593468
0.601958
0.600412
0.61464
0.643869
0.66322
0.742964
0.851142
1.09943
1.22232
0.729845
0.743454
0.732012
0.686743
0.685744
0.766731
0.756141
0.725765
0.732924
0.72568
0.755348
0.757024
0.783168
0.778911
0.739383
0.746415
0.753963
0.757247
0.808338
0.805556
0.817171
0.77768
0.76671
0.7843
0.807843
0.845232
0.881527
0.91023
0.945236
0.972107
0.826924
0.840024
0.827397
0.82794
0.82842
0.850324
0.773249
0.791749
0.830718
1.06983
1.14322
1.08736
0.868002
0.781756
0.716496
0.703471
0.684161
0.67384
0.662294
0.702166
0.703445
0.724559
0.761244
0.842132
0.904291
0.939954
0.935276
0.916302
0.864544
0.858168
0.943343
1.00324
0.991586
0.950425
0.930626
0.841024
0.75742
0.714763
0.702978
0.690854
0.684623
0.680996
0.655189
0.65435
0.619796
0.631934
0.611262
0.629071
0.632961
0.644292
0.662115
0.674628
0.674668
0.656639
0.633059
0.623321
0.619897
0.619288
0.625304
0.659178
1.13121
1.02859
0.974209
0.968765
1.0779
1.15929
1.19797
1.16058
1.01938
0.913664
0.8768
0.846144
0.83808
0.783608
0.74863
0.696964
0.668935
0.620011
0.587113
0.545272
0.557434
0.516586
0.536747
0.523263
0.547265
0.562974
0.580384
0.600729
0.600525
0.605691
0.849176
0.790351
0.79471
0.824044
0.900808
0.949129
0.980693
1.02648
1.02035
0.932613
0.828919
0.786831
0.742496
0.743243
0.693771
0.690309
0.663718
0.670333
0.665352
0.734425
0.754648
0.732743
0.824897
0.887358
0.919781
0.974163
0.993888
1.02209
1.07322
1.62114
1.30703
1.18343
1.08692
1.06197
0.922918
0.854454
0.786971
0.794785
0.720063
0.622127
0.653348
0.593519
0.609051
0.645717
0.63363
0.693631
0.700522
0.7088
0.717584
0.729364
0.700436
0.772128
0.751153
0.789511
0.837527
0.839758
0.927276
1.05839
1.35552
1.54508
1.27545
0.970289
0.939718
0.832923
0.878817
0.841184
0.830463
0.989685
0.808504
0.991904
1.09667
1.24859
1.30476
1.25989
1.18132
1.1145
1.08426
1.04986
1.03925
1.03576
1.02163
1.02692
0.993503
0.98935
0.999719
1.00513
1.05928
1.10295
1.13259
1.57808
0.666704
0.719804
0.689211
0.685638
0.748286
0.812449
0.821211
0.799488
0.792189
0.802003
0.79612
0.770236
0.755062
0.736874
0.687245
0.653603
0.648229
0.639755
0.6371
0.648143
0.664372
0.684395
0.688914
0.691097
0.706004
0.691891
0.7157
0.707084
0.724002
0.706792
0.721176
0.692549
0.730946
0.72563
0.803233
0.880598
0.961537
1.01731
1.0812
1.09611
1.01839
0.950829
0.939984
0.951483
0.966395
0.932578
0.899802
0.903891
0.836053
0.862258
0.867966
0.854187
0.835882
0.815642
0.769782
0.762029
0.706962
0.717819
0.665749
0.672569
0.641113
0.638999
0.621525
0.601365
0.607709
0.609215
0.60658
0.610359
0.618331
0.621401
0.626159
0.646697
0.712847
0.769295
0.806064
0.79398
0.767211
0.720566
0.678541
0.665178
0.687313
0.685473
0.684701
0.687092
0.693736
0.702563
0.71597
0.726954
0.722458
0.722402
0.711358
0.720169
0.732026
0.703355
0.767276
0.730158
0.803832
0.80979
0.859049
0.875291
0.893102
0.912171
0.925441
0.928712
0.928454
0.883591
0.820008
0.775525
0.758004
0.754007
0.740398
0.652554
0.77253
0.82668
0.855226
0.866564
0.855816
0.859311
0.863461
0.850788
0.850884
0.849822
0.846662
0.837617
0.814424
0.783323
0.724
0.701143
0.631653
0.653847
0.608806
0.606752
0.601
0.617333
0.652707
0.700372
0.733765
0.742665
0.756206
0.764899
0.75701
0.728191
0.715516
0.66813
0.650547
0.596709
0.596234
0.597675
0.599307
0.593393
0.591805
0.585433
0.579909
0.587973
0.640351
0.645502
0.678396
0.723407
0.700578
0.718445
0.692426
0.686508
0.694288
0.671099
0.656582
0.630289
0.634888
0.638987
0.659404
0.704502
0.795888
0.975693
1.1364
1.03014
0.928137
0.881978
0.832098
0.82982
0.849878
0.866381
0.820152
0.75589
0.766653
0.793478
0.780114
0.78271
0.791884
0.823622
0.797498
0.801206
0.771183
0.748095
0.776315
0.793782
0.78807
0.816219
0.782619
0.830982
0.784294
0.801012
0.798047
0.788503
0.792077
0.815252
0.846622
0.85533
0.78252
0.812124
0.82342
0.785171
0.766161
0.77168
0.778699
0.777754
0.736425
0.748056
0.885292
1.05365
1.22027
1.17882
0.980565
0.80957
0.756222
0.697488
0.676428
0.648197
0.648253
0.638325
0.682216
0.704441
0.766918
0.806683
0.839666
0.848494
0.894194
0.935985
0.927397
0.866903
0.721423
0.797998
0.82502
0.953083
1.00754
0.927239
0.806975
0.727338
0.682102
0.673511
0.682351
0.683832
0.691074
0.668707
0.671235
0.63325
0.641625
0.611006
0.623085
0.60836
0.638749
0.636423
0.661629
0.677288
0.688352
0.672933
0.642937
0.624198
0.623928
0.621087
0.631733
0.693947
0.825694
0.910698
1.02382
0.907104
0.812302
0.842255
0.904812
1.0972
1.20811
1.20627
1.11592
0.95709
0.898951
0.872851
0.823784
0.797511
0.728623
0.693071
0.640772
0.613013
0.56529
0.543724
0.50622
0.520414
0.498193
0.505165
0.545819
0.543678
0.581442
0.596609
0.630494
0.626932
0.697692
0.685622
0.735334
0.741017
0.741976
0.754912
0.792993
0.853641
0.938282
0.966155
0.96852
0.92267
0.847109
0.801338
0.762359
0.710593
0.717624
0.652735
0.661458
0.656233
0.667634
0.663269
0.73941
0.735251
0.808019
0.816156
0.949934
0.95099
1.00809
1.00909
1.02842
1.18079
1.68466
1.45924
1.37752
1.13988
0.971756
0.95918
0.874626
0.810061
0.78635
0.741909
0.678221
0.655446
0.59946
0.616555
0.58502
0.633346
0.622929
0.687952
0.689648
0.728389
0.719264
0.719596