/*--------------------------------*- C++ -*----------------------------------*\
| =========                 |                                                 |
| \\      /  F ield         | OpenFOAM: The Open Source CFD Toolbox           |
|  \\    /   O peration     | Version:  2.1.1                                 |
|   \\  /    A nd           | Web:      www.OpenFOAM.org                      |
|    \\/     M anipulation  |                                                 |
\*---------------------------------------------------------------------------*/
FoamFile
{
    version     2.0;
    format      ascii;
    class       volScalarField;
    location    "0.003600000";
    object      T;
}
// * * * * * * * * * * * * * * * * * * * * * * * * * * * * * * * * * * * * * //

dimensions      [0 0 0 1 0 0 0];

internalField   nonuniform List<scalar> 
12384
(
2832.11
2884.68
2914.75
2924.93
2905.44
2856.71
2791.82
2717.58
2658.26
2624.17
2612.46
2641.87
2622.89
2599.84
2267.18
2340.83
2488.44
2586.75
2662.63
2711.11
2733.08
2751.61
2757.65
2750.28
2757.74
2747.18
2762.61
2758.79
2773.99
2758.17
2756.63
2726.27
2714.1
2675.69
2679.96
2658.12
2603.61
2525.62
2461.35
2396.33
2403.29
2461.99
2623.11
2661.65
2881.44
2889.43
2828.4
2809.81
2790.98
2787.33
2780.12
2761.76
2767.32
2770.89
2758.97
2796.09
2789.2
2835.22
2872
2918.19
2946.71
2934.94
2937.56
2931.35
2926.5
2920.68
2913.69
2899.13
2888.48
2837.47
2698.27
2481.16
2354.6
2361.23
2877.55
2879.79
2896.97
2907.6
2920.43
2921.48
2920.74
2910.69
2900.04
2890.27
2856.81
2863.89
2818.43
2832.71
2826.62
2822.72
2809.39
2773.37
2747.09
2718.91
2706.64
2735.08
2760.72
2787.36
2839.48
2893.36
2863.66
2863.3
2771.76
2680.23
2790.22
2803.24
2796.86
2798.17
2805.55
2809.9
2815.8
2810.93
2810.38
2800.53
2775.73
2781.74
2776.03
2747.96
2752.4
2726.36
2685.02
2687.96
2662.67
2635.1
2637.54
2627.14
2623.86
2627.55
2611.64
2585.28
2534.07
2415.58
2330.27
2345.52
2213.06
2252.47
2333.13
2427
2469.52
2504.95
2557.75
2650.2
2722.1
2766.1
2807.52
2795.8
2842.3
2847.49
2880.13
2896.68
2898.01
2890.14
2862.84
2819.46
2801.85
2773.33
2777.11
2821.7
2833.2
2878.01
2910.07
2806.29
2367.52
2347.37
2306.45
2324.59
2350.27
2462.82
2585.26
2541.16
2436.39
2453.84
2572.95
2323.75
2185.89
2241.52
2316.79
2368.98
2400.28
2432.36
2392.76
2455.31
2360.11
2376.92
2231.75
2176.5
2044.84
1971.39
1864.87
1813.04
1764.11
1770.64
1898.58
2014.82
2101.75
2105.59
2139.41
2153.94
2235.51
2248.1
2372.27
2390.84
2526.98
2566.54
2337.53
2234.21
2242.39
2314.23
2474.18
2770.95
2929.12
2873.71
2837.2
2815.85
2806.64
2812.33
2824.02
2858.06
2914.51
2979.6
2887.41
2632.74
2560.77
2681.4
2386.28
2379.54
2346.54
2350.71
2386.25
2487.38
2537.86
2555.93
2531.24
2489.27
2417.51
2379.72
2343.93
2391.79
2431.36
2429.35
2463.15
2456.17
2427.33
2395.95
2369.42
2344.67
2356.28
2355.12
2367.9
2398.31
2438.19
2503.71
2564.17
2601.61
2463.7
2446.75
2463.01
2512.09
2566.41
2598.32
2628.51
2602
2547.64
2419.85
2313.73
2252.13
2207.45
2195.18
2189.73
2254.48
2299.82
2358.77
2403.6
2426.41
2398.88
2492.32
2375.41
2424.35
2387.27
2421.34
2466.48
2488.95
2533.82
2600.43
2061.79
2103.25
2117.18
2133.29
2150.78
2196.56
2254.85
2328.19
2383.45
2447.1
2448.79
2454.42
2440.78
2386.18
2364.74
2356.93
2334.76
2356.09
2410.73
2443.31
2464.09
2448.03
2466.59
2467.26
2524.33
2583.68
2696.43
2775.33
2867.33
2899.38
2042.92
2080.11
2084.17
2146.67
2140.65
2206.53
2125.29
2147.98
2036.77
2129.17
2132.74
2153.22
2263.37
2287.18
2332.88
2362.3
2398.69
2410.39
2412.8
2399.43
2384.21
2376.57
2379.91
2360.25
2375.99
2382.19
2394.35
2483.39
2521.94
2555.07
2124.68
2092.61
2258.21
2347.4
2450.07
2496.13
2580.75
2624.13
2650.4
2368.7
2533.82
2480.11
2567.64
2567.93
2590.34
2569.49
2556.32
2513.13
2486.66
2460.85
2439.32
2409.29
2396.26
2391.25
2408.21
2425.97
2463.31
2520.44
2611.27
2594.8
2997.66
2951.39
2921.4
2912.6
2921.13
2942.51
2986.7
3026.52
3002.42
2870.87
2712.78
2625.79
2618.08
2593.95
2296.37
2586.12
2817.75
2907.35
2954.44
2970.89
2977.6
2979.21
2985.61
2991.89
2994.56
2986.92
2954.17
2906.39
2871.35
2840.85
2814.94
2778.71
2749.64
2714.72
2703.92
2709.55
2692.37
2620.15
2520.35
2434.67
2407.51
2495.19
2655.31
2664.86
2903.69
2876.78
2821.68
2782.21
2758.1
2718.73
2686.6
2683.56
2673.9
2684.51
2701.37
2706.12
2748.12
2773.63
2836.7
2883.88
2930.44
2943.17
2949.04
2939.18
2929.1
2925.05
2919.75
2915.32
2911.01
2855.58
2728.71
2514.13
2364.47
2367
2879.15
2902.3
2897.69
2913.82
2897.95
2884.52
2858.35
2839.31
2821.92
2795.54
2797.91
2768.43
2775.62
2767.9
2797.67
2817.82
2818.89
2808.34
2799.3
2768.5
2753.25
2783.72
2789.41
2786.84
2803.97
2878.02
2913.67
2891.28
2858.12
2726.13
2787.34
2804.27
2826.48
2840.88
2813.31
2756.7
2685.91
2627.31
2576.19
2534.41
2525.31
2516.28
2522.79
2574
2606.7
2666.59
2698.54
2695.64
2697.73
2664.97
2654.48
2645.68
2635.73
2631.21
2604.05
2564.47
2522.13
2449.69
2337.6
2354.64
2236.15
2341.89
2419.23
2490.78
2556.14
2652.23
2724.78
2762.24
2775.92
2780.18
2775.79
2763.48
2748.1
2755.49
2751.07
2767.38
2762.06
2754.87
2728.56
2707.71
2686.68
2698.83
2710.36
2739.47
2803.77
2859.36
2912.76
2928.13
2587.68
2384.03
2570.99
2562.63
2560.94
2571.33
2546.56
2479.08
2420.73
2488.59
2539.53
2313.56
2368.71
2573.92
2752.49
2697.45
2653.2
2593.36
2538.81
2540.25
2501.7
2521.18
2518.72
2563.08
2426.58
2225.6
2004.15
1870.19
1783.53
1784.68
1895.53
2004.57
2132.95
2229.79
2329.74
2352.68
2419.94
2405.09
2491.76
2493.75
2590.21
2520.54
2297.41
2178.1
2251.85
2472.42
2943.64
2734.97
2610
2592.97
2595.4
2616.91
2637.81
2653.7
2659.96
2656.73
2650.99
2689.1
2835.34
2966.59
2821.05
2654.37
2396.53
2363.81
2344.06
2375.93
2436.02
2516.3
2533.13
2496.98
2416.82
2342.52
2264.47
2253.69
2275.43
2290.78
2372.54
2486.84
2500.07
2631.27
2576.76
2590.83
2481.28
2460.61
2346.15
2261.33
2168.17
2090.45
2083.32
2083.77
2173.23
2349.14
2444.52
2428.37
2432.89
2481.38
2530.1
2559.14
2572.18
2532.6
2454.07
2355.89
2296.62
2242.09
2217.86
2184.19
2176.09
2134.57
2093.92
2062.3
2073.35
2075.74
2120.4
2049.19
2084.7
2034.93
2039.92
2007.02
2018.41
2029.48
2053.99
2103.3
2059.1
2107.13
2118.45
2138.37
2156.94
2196.63
2246.36
2288.45
2312.52
2346.39
2389.75
2393.61
2414.21
2387.12
2372.9
2412.65
2361.59
2482.56
2441.56
2512.06
2491.82
2367.9
2245.24
2134.79
2119.1
2109.53
2166.87
2266.39
2438.79
2589.54
2047.52
2069.1
2104.32
2135.61
2166.77
2218.34
2208.08
2157.98
2112.02
2082.69
2094.23
2107.71
2142.37
2168.56
2224.13
2268.66
2251.38
2248.37
2203.67
2163.53
2134.8
2121.98
2087.06
2084.83
2056.34
2064.35
2141
2231.08
2358.31
2362.6
2123.11
2114.95
2295.59
2329.05
2451.08
2560.07
2681.5
2857.97
2784.04
2561.8
2425.29
2429.03
2413.7
2429.73
2432.79
2420.12
2386.98
2376.06
2341.23
2315.33
2280.99
2250.85
2210.69
2222.36
2174
2190.73
2208.93
2256.52
2381.69
2485.61
2862.86
2870.04
2889.88
2893.57
2874.4
2857.94
2855.93
2889.05
2960.86
3050.34
3017.38
2778.25
2622.26
2558.59
2402.75
2785.76
2915.83
2954.15
2953.36
2956.67
2947.17
2954.45
2949.07
2966.54
2969.69
2996.8
3007.92
2996.45
2934.35
2884.09
2852.23
2819.61
2786.96
2762.74
2755.94
2778.04
2780.87
2699.33
2571.19
2447.24
2421.72
2499.12
2664.43
2704.37
2886.76
2893.24
2850.9
2795.1
2723.13
2668.84
2629.75
2622.91
2661.4
2709.54
2730.97
2746.31
2731.07
2766.21
2792.5
2844.53
2890.55
2939.28
2953.03
2955.12
2948.51
2924.99
2920.58
2924.28
2911.87
2897.79
2731.56
2502.56
2373.13
2404.06
2886.11
2861.21
2865.37
2813.51
2776.58
2754.61
2752.64
2750.62
2744.03
2751.15
2724.71
2725.71
2700.8
2704.58
2704.45
2729.53
2739.83
2741.64
2754.84
2785.09
2791.69
2840.18
2831.71
2802.89
2786.33
2818.46
2879.02
2915
2884.92
2764.84
2789.16
2834.81
2837.67
2787.49
2721.7
2645.23
2575.3
2513.21
2474.89
2443.15
2409.61
2395.9
2402.78
2409.89
2459.15
2506.69
2579.47
2629.53
2660.41
2672.44
2668.55
2651.92
2636.63
2615.71
2577.94
2521.25
2509.54
2439.31
2337.11
2353.62
2292.95
2421.13
2524.41
2627.1
2707.27
2751.91
2760.77
2751.38
2727.44
2704.07
2661.38
2659.78
2644.28
2655.49
2680.76
2695.82
2713.48
2718.04
2707.52
2685.36
2669.28
2643.58
2638.46
2696.81
2746.98
2852.94
2907.4
2945.07
2692.34
2401.6
2419.26
2465.94
2510.19
2511.4
2462.91
2412.42
2437.69
2573.32
2449.77
2457.65
2709.84
2670.12
2634.52
2619.07
2598.97
2563.07
2517.99
2499.38
2464.62
2460.63
2436.57
2461.83
2509.36
2522.22
2196.44
1947.99
1803.74
1789.95
1896.88
2011.9
2241.86
2411.14
2475.36
2483.2
2511.82
2521.88
2595.07
2601.37
2649.12
2464.56
2209.01
2179.68
2358.63
2911.03
2716.78
2583.06
2558.67
2562.18
2590.49
2597.44
2623.56
2649.25
2683.27
2693.66
2681.86
2659.38
2659.31
2760.69
2988.85
2676.31
2384.75
2349.42
2347.6
2418.26
2488.91
2519.01
2507.81
2454.62
2398.58
2385.88
2454.61
2523.88
2717.19
2663.69
2605.77
2484.87
2468.36
2419.69
2422.55
2396
2406.94
2418.57
2460.98
2530.19
2636.67
2677.51
2310.83
2062.87
1989.68
2061.06
2410.75
2396.06
2378.3
2412.77
2466.57
2477
2478.44
2458.57
2409.64
2363.52
2314.93
2319.82
2317.83
2307.4
2271.61
2270.49
2254.97
2338.86
2494.51
2674.83
2742.02
2741.27
2719.46
2638.07
2536.36
2423.91
2269.1
2119.64
2002.23
1937.5
2039.78
2086.08
2111.26
2146.04
2141.49
2193.78
2219.87
2270.62
2298.59
2346.56
2446.46
2534.84
2661.47
2745.36
2850.12
2865.5
2839.95
2844.46
2867.14
2875.96
2920.55
2967.62
3008.59
2856.57
2555.6
2253.9
2103.1
2083.11
2144.92
2230.9
2022.82
2057.49
2101.06
2136.24
2185.49
2316.96
2313.74
2414.46
2396.33
2414.4
2521.38
2657.71
2783.42
2838.11
2864.56
2890.47
2867.67
2770.95
2607.16
2390.75
2218.06
2088.37
2056.22
2036.17
2020.66
1995.35
1998.76
1987.27
2063.8
2247.02
2147.04
2159.7
2330.46
2367.76
2585.94
2884.21
3270.87
3360.86
3305.03
3140.02
3133.21
2925.99
2751.02
2602.21
2508.64
2465.53
2446.35
2421.64
2415.17
2390.99
2372.12
2348.55
2345.31
2302.06
2326.19
2276.84
2295.1
2243.14
2219.27
2214.22
2900.99
3011.8
3069.3
3070.39
3031.69
2953.1
2871.56
2847.87
2868.59
2930.71
3042.11
3056.82
2766.82
2552.81
2541.39
2844.76
2914.29
2943.71
2950.95
2942.23
2949.81
2951.34
2963.47
2967.21
2968.15
2988.48
3004.11
3009.25
2951.65
2886.47
2855.98
2830.85
2804.78
2790.31
2818.65
2858.45
2850.48
2750.98
2571.24
2425.56
2376.86
2486.56
2674.44
2720.25
2894.89
2884.04
2822.43
2715.25
2635.73
2590.73
2581.95
2645.5
2754.49
2839.9
2873.15
2857.62
2807.61
2808.36
2789.16
2826.3
2853.66
2894.71
2935.33
2965.35
2954.03
2931.47
2908.84
2897.86
2924.27
2904.77
2727.22
2490.79
2387.68
2415.2
2860.25
2853.73
2745.25
2702.72
2718.73
2764.78
2775.11
2736.75
2721.1
2687.12
2711.1
2697.6
2730.23
2723.45
2736.49
2723.81
2723.05
2718.96
2733.43
2738.05
2785.7
2824.48
2837.77
2809.33
2781.11
2790.82
2847.89
2906.81
2887.59
2771.58
2814.09
2852.67
2846.94
2827.09
2789.83
2714.36
2622.61
2547.66
2490.78
2442.61
2412.65
2396.38
2373.98
2375.05
2402.43
2420.33
2492.72
2523.44
2578.51
2608.52
2616.73
2618.49
2603.6
2569.45
2510.7
2475.39
2461.86
2421.41
2320.71
2351.98
2351.21
2544.46
2655.64
2724.62
2746.62
2730.33
2691.84
2655.75
2616.46
2593.72
2598.86
2602.55
2605.1
2631.13
2651.15
2686.18
2716.71
2730.02
2726.37
2704.04
2666.5
2641.67
2644.8
2649.57
2729.76
2829.88
2911.55
2967.2
2839.63
2460.01
2317.6
2350.83
2418.23
2412.87
2384.86
2397.15
2519.76
2574.5
2531.77
2678.84
2635.45
2612.02
2649.07
2648.31
2636.15
2605.22
2551.11
2535.91
2538.51
2496.6
2460.07
2461.78
2469.72
2548.91
2341.24
2012.45
1843.15
1822.46
1901.65
1961.31
2391.84
2520.4
2458.1
2398.58
2403.64
2509.89
2613.34
2608.04
2685.16
2374.08
2154.47
2229.61
2562.89
2776.44
2597.7
2525.79
2539.43
2551.13
2567.37
2575.64
2606.94
2630.74
2668.27
2716.54
2720.24
2698.7
2636.48
2675.05
2816.8
2790.83
2405.78
2363.52
2370.62
2432.14
2501.85
2508.96
2499.55
2489.95
2551.52
2767.64
2723.12
2564.78
2410.88
2313.91
2309.36
2280.44
2281.99
2305.13
2296.99
2321.4
2313.1
2315.59
2310.75
2297.11
2306.23
2374.03
2548.55
2582.38
2096.08
1957.78
2367.69
2354.54
2328.29
2342.34
2380.27
2391.59
2407.02
2403.31
2395.63
2375.33
2411.54
2463.5
2523.7
2609.77
2676.06
2734.31
2821.67
2738.65
2653.76
2604.62
2599.09
2554.51
2551.28
2516.64
2550.76
2572.63
2607.32
2686.93
2670.99
2415.36
2021.67
2063.1
2101.77
2149.24
2159.22
2204.17
2216.9
2284.21
2368.57
2477.53
2728.71
2871.27
2881.98
2816.29
2723.09
2709.59
2674.62
2690.38
2695.72
2725.1
2714.87
2716.06
2717.76
2769
2875.64
3058.83
2731.3
2266.3
2114.06
2146.15
2020.5
2054.94
2104.1
2153.94
2273.33
2448.43
2605.82
2872
2917.32
2715.65
2673.4
2605.92
2592.63
2606
2628.44
2656.84
2661.91
2683.73
2723.26
2800.54
2902.64
2595.56
2222.02
2091.13
2053.63
2022.74
1979.96
1990.41
2021.55
2051.82
2168.9
2222.56
2401.83
2591.89
2893.67
3244.47
3167.01
3193.03
3088.67
3046.12
2928.24
3033.43
3121.42
3189.92
3081.71
2928.72
2831.02
2778.3
2747.84
2735.47
2720.49
2725.4
2718.54
2700.64
2686.94
2689.84
2565.21
2397.92
2253.84
2161.49
3024.96
2998
2868.95
2895.32
3012.06
3064.42
2981.73
2921.46
2892.34
2916.32
2974.67
3064.84
3015.87
2614.99
2701
2856.71
2919.49
2941.5
2945.45
2956
2957.24
2944.51
2943.18
2964.54
2988.27
2988.74
2990.46
2948.66
2895.35
2857.21
2840.12
2821.19
2811.67
2839.36
2901.03
2937.58
2903.88
2745.05
2509.26
2304.49
2259
2361.91
2585.72
2732.31
2879.67
2825.43
2702.31
2616.13
2575.28
2563.84
2614.61
2721.63
2905.23
2966.58
2950.83
2936.6
2899.82
2871.22
2829.73
2829.6
2833.25
2863.89
2912.8
2952.85
2979.55
2954.57
2904.55
2904.29
2922.57
2913.46
2671.42
2465.75
2407.01
2461.2
2825.17
2700.75
2643.39
2704.89
2736.17
2646.28
2582.81
2588.25
2575.62
2596.46
2585.18
2605.63
2606.69
2621.31
2714.4
2724.71
2757.18
2775.72
2757.76
2785.79
2802.65
2814.16
2812.03
2795.82
2778.26
2792.4
2848.74
2904.8
2879.12
2764.1
2838.75
2867.99
2792.09
2790
2802.29
2779.68
2693.99
2612.49
2549.79
2486.07
2452.6
2411.56
2405
2389.34
2411.26
2399.34
2465.11
2470.2
2529.24
2542.14
2563.83
2552.43
2534.42
2479.62
2433.7
2412.62
2419.43
2395.03
2303.72
2350.11
2409.63
2628.22
2716.1
2736.29
2702.87
2645.76
2591.06
2555.89
2552.36
2566.63
2551.08
2570.14
2578.67
2620.11
2652.46
2688.57
2745.81
2765.45
2750.38
2704.28
2669.44
2645.89
2624.27
2654.78
2702.12
2810.69
2897.79
2985.33
2914.06
2524.23
2250.29
2289.32
2341.34
2327.89
2355.38
2456.09
2599.46
2584.6
2663.78
2617.8
2615.96
2640.33
2699.52
2690.58
2671.67
2624.63
2578.41
2606.28
2626.3
2582.09
2539.61
2508.53
2491.45
2544.34
2396.57
2072.46
1887.51
1857.45
1891.08
1918.38
2563.64
2528.35
2387.02
2284.59
2276.94
2382.54
2594.82
2647.34
2679.07
2348.55
2137.87
2265.38
2815.38
2662.61
2526.38
2531.84
2542.72
2557.48
2566.61
2589.18
2600.85
2626.07
2682.15
2747.51
2783.84
2767.63
2705.77
2689.74
2750.41
2963.72
2420.41
2375.75
2370.4
2437.58
2496.95
2503.51
2522.86
2636.35
2830.05
2581.51
2388.21
2302.91
2259.14
2247.67
2271.01
2299.49
2303.79
2316.52
2334.4
2340.43
2359.13
2371.43
2365.93
2353.62
2328.89
2301.15
2300.53
2429.17
2673.84
1985.81
2320.77
2316.22
2312.58
2304.94
2309.91
2335.75
2354.32
2382.21
2416.84
2498.35
2596.74
2708.95
2860.67
2824.53
2744.31
2668.42
2617.63
2593.4
2573.55
2586.25
2556.35
2551.09
2512.78
2516.24
2484.03
2481.57
2470.6
2464.01
2486.8
2525.38
2008.21
2060.25
2111.05
2162.51
2189.12
2219.12
2244.47
2315.25
2452.67
2658.19
2929.57
2886.8
2781.77
2766.01
2712.25
2726.11
2758.29
2741.18
2787.24
2777.13
2786.65
2733.86
2667.27
2661.7
2695.26
2712.39
2874.66
3098.56
2386.1
2108.57
1995.96
2065.11
2134.56
2198.25
2376.69
2742.78
2955.69
2920.6
2803.98
2649.52
2698.77
2636.62
2685.93
2680.01
2690.74
2665.75
2645.11
2609.75
2581.35
2558.32
2596.77
2733.98
2935.61
2538.13
2311.97
2143.84
2101.78
2025.79
1971.86
1995.29
2211.59
2340.07
2551.69
2870.67
3130.36
3002.25
3193.33
3277.33
3296.93
3145.38
3010.01
2923.27
2904
2945.41
3049.71
3153.39
3194.93
3188.65
3169.72
3160
3151.95
3135.03
3132.88
3121.31
3120.28
3111.52
3111.1
2985.87
2559.25
2240.72
3055.45
2853.8
2792.46
2823.58
2901.78
3014.85
3061.35
3043.36
3020.07
3024.92
3028.93
3051.18
3081.91
2726.3
2815.28
2887.68
2932.86
2940.49
2945.28
2854
2756.91
2712.05
2755.95
2799.59
2853.75
2867.49
2876.18
2842.05
2831.48
2817.84
2806.98
2802.78
2838.51
2913.4
2979.62
2981.7
2886.32
2610.73
2323.33
2150.11
2102.52
2186.02
2424.48
2696.21
2826.41
2720.8
2621.43
2590.41
2568.23
2589.52
2640.33
2821.08
2957.83
2976.51
2960.37
2960.03
2921.33
2925.51
2883.69
2858.41
2854.35
2881.29
2912.35
2969.23
2983.71
2948.66
2919.1
2901.97
2927.97
2887.85
2614.51
2438.39
2433.84
2490.23
2820.78
2660.61
2677.38
2727.96
2611.91
2552.04
2551.82
2560.09
2587.69
2577.81
2590.59
2579.25
2594.26
2605.24
2630.11
2666.99
2715.92
2763.68
2801.18
2808.7
2797.82
2794.54
2787.29
2788.99
2789.1
2818.98
2873.56
2905.8
2841.65
2741.51
2859.39
2760.47
2707.16
2724.84
2749.81
2761.62
2759.17
2703.71
2660.99
2610.17
2545.76
2501.38
2463.6
2449.6
2448.01
2432.06
2459.68
2450.06
2474.03
2468.81
2455.44
2452.07
2409.65
2375.34
2352.29
2353.26
2397.19
2371.5
2317.83
2399.54
2495.56
2704.56
2736.41
2700.66
2620.02
2553.89
2525.09
2512.02
2515.42
2511.15
2517.34
2533.12
2587.75
2625.95
2662.05
2717.83
2768.71
2791.9
2767.17
2729.02
2671.99
2623.83
2641.27
2636.98
2700.74
2801.42
2917.25
2993.49
2907.47
2550.99
2277.58
2242.14
2268.87
2307.4
2387.28
2538.76
2588.65
2642.28
2616.53
2613.57
2636.13
2692.89
2716.43
2736.47
2692.35
2629.42
2617.07
2669.34
2635.26
2599.71
2621.18
2581.8
2546.41
2554.19
2382.79
2103.31
1941.64
1880.64
1877.93
1845.65
2617.59
2483.7
2309.88
2232.79
2217.04
2317.1
2539.29
2664.93
2700.83
2316.86
2140.47
2322.35
2888.22
2632.42
2517.64
2517.96
2549.73
2593.53
2597.99
2619.2
2616.01
2635.28
2665.02
2746.81
2830.98
2868.37
2876.84
2805.47
2749.32
2994.24
2432.3
2386.12
2384.59
2434.38
2477.12
2509.93
2606.36
2832.76
2581.47
2341.89
2276.96
2231.69
2261.89
2254.23
2262.67
2258.31
2277.72
2274.26
2281.42
2296.39
2327.86
2365.66
2402.8
2419.96
2412.21
2368.86
2324.41
2315.57
2450.08
2497.17
2248.16
2283.65
2321.78
2312.35
2290.37
2280.75
2310.88
2376.73
2493.88
2628.76
2782.83
2899.27
2804.18
2696.72
2665.75
2645.44
2644.98
2653.83
2683.44
2666.34
2678.26
2655.97
2652.9
2622.6
2597.87
2551.01
2497.04
2453.84
2405.82
2386.25
2048.67
2191.55
2278.66
2336.42
2327.92
2289.7
2292.22
2353.17
2513.73
2786.42
2889.93
2828.24
2776.37
2801.18
2781.03
2811.16
2795.4
2867.16
2843.42
2879.13
2880.7
2831.54
2805.52
2754.98
2675.86
2672.56
2688.89
2840.18
3051.96
2207.39
2018.95
2079.86
2187.07
2268.52
2547.29
2957.87
2938.85
2872.89
2843.2
2816.49
2828.33
2840.48
2837.41
2847.5
2834.38
2816.03
2777.28
2706.98
2631.2
2567.74
2539.73
2519.71
2616.97
2834.03
2919.89
2524.03
2270.23
2134.19
2059.07
2002.21
2283.2
2451.04
2822.76
3046.09
2938.04
3029.46
3140.35
3349.44
3232.58
3290.55
3264.86
3088.31
2926.32
2855.05
2841.88
2898.03
2984.09
3032.92
3055.94
3038.98
2999.44
2965.46
2942.82
2925.93
2924.51
2935.74
2995.54
3067.79
2972.2
2341.51
3052.8
2834.22
2837.78
2927.54
2908.25
2915.6
2990.7
3019.59
3052.36
3058.89
3071.19
3067.96
3048.36
2770.01
2864
2918.43
2936.36
2935.9
2824.11
2688.75
2612.55
2618.53
2653.6
2698.01
2755.02
2760.67
2785.46
2776.79
2775.6
2767.57
2788.4
2839.78
2947.69
3003.19
3002.8
2911.34
2635.51
2341.57
2155.14
2082.87
2110.6
2194.26
2359.75
2648.87
2712.07
2670.96
2612.06
2582.6
2578.97
2581.16
2666.7
2806.8
2901.69
2951.18
2944.8
2949.93
2939.83
2937.32
2935.74
2934.11
2935.62
2940.26
2972.84
2988.98
2976.51
2934.2
2904.79
2914.06
2946.61
2805.68
2530.31
2416.92
2443.54
2498.15
2762.29
2642.14
2706.01
2703.4
2615.9
2563.15
2542.85
2559.82
2561.54
2570.04
2567.51
2574.87
2587.4
2587.9
2650.48
2635.93
2708.27
2721.99
2751.15
2743.88
2748.15
2772.46
2782.23
2797.54
2826.2
2876.84
2898.9
2843.04
2753.19
2701.21
2814.44
2674.12
2643.14
2660.68
2675.52
2689.63
2688.87
2691.35
2709.08
2707.7
2691.26
2649.97
2601.99
2544.64
2535.05
2456.82
2475.79
2413.73
2418.09
2382.3
2361.62
2328.14
2297.23
2280.15
2262.71
2304.67
2344.16
2326.41
2312.75
2391.66
2594.31
2717.84
2701.98
2618.97
2549.82
2516.75
2495.27
2488.27
2477.98
2482.91
2479.27
2534.58
2603.09
2633.53
2669.19
2736.02
2787.3
2824.16
2799.96
2775.39
2713.44
2662.03
2661.07
2667.17
2748.03
2846.76
2928.91
3002.37
2761.35
2520.5
2313.64
2277.08
2279.64
2355.91
2503.21
2591.25
2630.52
2607.14
2613.71
2631.39
2681.69
2738.21
2765.31
2738.08
2729.42
2659.34
2648.78
2696.36
2472.59
2414.63
2417.28
2511.39
2523.67
2449.27
2282.54
2107.33
1962.32
1891.54
1851.29
1825.56
2493.33
2349.13
2249.32
2235.32
2227.41
2310.61
2522.32
2681.9
2697.16
2298.89
2155.22
2343.38
2884.2
2625.27
2545.99
2546.45
2581.85
2596.2
2626.64
2629.9
2633.4
2623.73
2632.28
2712.85
2807.6
2885.32
2915.71
2960.86
2900.49
2953.25
2456.14
2382.35
2380.76
2429.69
2481.63
2555.29
2724.4
2678.96
2398.41
2278.5
2233.48
2231.56
2258.81
2262.27
2256.35
2249.82
2234.37
2219.45
2233.22
2228.75
2254.66
2297.24
2358.78
2407.14
2435.65
2430.53
2388.35
2335.74
2320.01
2517.05
2216.53
2276.73
2381.59
2384.22
2311.99
2264.01
2270.75
2382.99
2574.21
2789.03
2940.94
2869.5
2758.6
2712.53
2690.36
2709.62
2729.87
2750.76
2748.12
2773.34
2781.69
2795.92
2793.8
2794.03
2756.77
2724.26
2652.34
2553.85
2457.3
2369.23
2168.76
2408.95
2528.62
2585.47
2601.56
2555.2
2454.43
2428.27
2541.54
2826.76
2886.89
2814.39
2796.88
2848.94
2856.98
2894.87
2875.53
2865.81
2929.9
2895.21
2906.07
2905.33
2936.45
2861.56
2774.13
2726.08
2674.89
2686.59
2926.62
2371.01
2044.99
2191.36
2315.7
2397.61
2719.04
2952.4
2893.99
2893.43
2917.24
2897.16
2890.5
2876.23
2883.32
2867.88
2875.61
2868.37
2845.63
2785.1
2697.17
2652.29
2574.43
2528.36
2542.02
2555.05
2701.99
2982.39
2713.29
2400.11
2155.96
2028.87
2364.09
2743.71
3034.9
2965.45
2810.39
2929.13
3208.15
3193.89
3234.12
3239.33
3286.58
3230.99
3082.33
2910.03
2805.63
2753.52
2788.98
2842.76
2871.09
2891.67
2865.38
2838.37
2799.7
2771.56
2765.82
2806.05
2893.37
3013.12
3124.06
2561.61
3052.39
2939.88
3020.14
3043.13
2964.01
2868.15
2873.9
2915.24
2982.94
2974.98
2935.2
2911.98
2914.05
2804.62
2887.39
2926.65
2929.89
2867.77
2742.48
2629.84
2594.56
2585.68
2626.84
2661.96
2694.6
2699.13
2722.85
2724.15
2763.27
2796.25
2903.4
2962.59
3000.57
2984.89
2849.14
2598.03
2398.99
2258.11
2181.26
2268.5
2413.68
2470.07
2460.1
2630.6
2643.71
2634.42
2597.05
2574.75
2564.43
2593.05
2665.22
2720.61
2743.36
2759.51
2752.71
2810.98
2850.4
2905.7
2924.09
2938.07
2942.41
2962.51
2977.17
2971.47
2948.53
2926.42
2924.78
2947.92
2923.04
2674.62
2448.63
2393.78
2460.4
2530.65
2746.74
2652.85
2689.55
2696.6
2691.13
2626.34
2580.59
2561.8
2554.63
2543.01
2543.82
2541.66
2574.84
2570.31
2646.47
2653.04
2700.09
2760.39
2743.78
2747
2761.14
2779.39
2807.12
2850.43
2886.02
2879.74
2827.11
2836.2
2837.85
2780.33
2796.94
2642.34
2631.7
2649.79
2657.49
2645.23
2644.05
2641.85
2639.7
2647.94
2668.53
2675.72
2689.44
2659.98
2673.92
2609.25
2604.99
2581.05
2527.08
2486.52
2413.54
2339.95
2284.36
2243.55
2249.87
2278.08
2327.25
2313.64
2341.98
2487.66
2647.58
2715.97
2661.93
2568.49
2507.91
2482.3
2467.08
2457.03
2463.35
2452.71
2487.99
2570.77
2609.06
2641.51
2690.69
2725.87
2807.51
2825.68
2836.97
2815.36
2771.2
2738.68
2723.91
2749.87
2825.8
2878.04
2955.6
2965.85
2587.54
2508.72
2321.59
2330.2
2387.94
2442.2
2556.33
2640.55
2661.05
2600.61
2624.72
2651.37
2718.73
2738.56
2791.86
2804.26
2743.22
2693.51
2675.95
2686.07
2477.87
2314.19
2282.18
2231.62
2208.27
2170.86
2100.58
2033.55
1983.71
1931.91
1886.28
1846.94
2304.48
2260.4
2282.1
2300.66
2279.11
2368.29
2584.99
2679.24
2665.24
2301.34
2156.41
2350.57
2928.01
2715.78
2575.29
2577.5
2596.56
2607.92
2595.94
2612.8
2584.85
2568.32
2554.23
2596.4
2685.51
2805.24
2828.87
2793.35
2912.39
2933.28
2442.74
2388.6
2357.93
2405.77
2509.11
2652.22
2805.12
2535.2
2323.5
2235.78
2214.95
2240.81
2256.5
2252.15
2231.72
2229.85
2217.43
2223.16
2220.85
2215.04
2219.54
2247.04
2309.25
2373.07
2410.16
2431.11
2426.16
2386.35
2330.7
2377.33
2213.18
2350.83
2610.24
2612.65
2467.69
2300.79
2271.48
2356.82
2603.4
2921.28
2932.54
2837.53
2786.87
2735.84
2746.8
2772.07
2811.83
2810.37
2813.44
2834.56
2866.4
2865.49
2882.49
2871.99
2878.48
2856.66
2799.73
2699.59
2562.05
2418.56
2727.36
2806.76
2781.62
2841.24
2786.44
2738.78
2721.79
2648.64
2640.92
2823.7
2908.04
2828.55
2815.61
2889.69
2919.43
2938.24
2921.4
2955.66
2943.12
3001.34
2963.17
2921.38
2937.85
2951.86
2882.11
2805.44
2718.16
2674.27
2722.39
2689.94
2140.73
2338.44
2532.62
2594.17
2873.02
2909.89
2841.14
2922.66
2971.26
2892.44
2951.05
2870.55
2876.05
2894.75
2857.86
2900.19
2880.66
2832.57
2746.62
2662.4
2576.59
2585.13
2535.36
2534.61
2576.97
2653.31
2935.4
2852.76
2359.86
2072.82
2497.41
2993.25
2977.99
2836.67
2927.65
3088.59
3106.4
3196.68
3072.46
3130.88
3132.2
3088.15
3053.59
2959.91
2849.33
2748.42
2711.82
2709.9
2736.16
2754.46
2754.31
2751.47
2713.53
2696.41
2698.62
2748.97
2904.84
3057.9
3133.06
2755.88
3031.35
3039.78
3049.48
3043.05
3004.72
2854.26
2864.98
2927.78
2954.35
2911.33
2918.49
2920.77
2915.24
2916.73
2900.24
2890.36
2899.53
2894.03
2880.2
2826.33
2750.25
2680.17
2630.47
2619.61
2643.86
2647.66
2690.73
2706.29
2758.89
2796.83
2873.46
2915.23
2951.05
2946.04
2870.25
2747.34
2613
2518.81
2400.94
2338.11
2470.07
2596.01
2608.52
2601.77
2562.11
2615.77
2615.63
2672.43
2682.01
2651.52
2590.27
2561.12
2597.36
2640.38
2695.8
2705.68
2700.52
2699.47
2684.65
2686.91
2688.86
2738
2803.74
2861.22
2918.27
2946.62
2962.93
2961.27
2953.99
2951.44
2963.47
2950.88
2751.36
2521.78
2411.66
2411.98
2514.86
2677.66
2805.65
2682.2
2649.51
2637.5
2642.52
2647.12
2670.91
2691.98
2680.08
2636.4
2602.75
2572.28
2544.96
2525.96
2549.52
2553.35
2634.99
2650.48
2718.92
2725.93
2757.37
2760.56
2789.31
2825.19
2853.83
2861.13
2852.42
2898.71
2821.91
2731.75
2729.03
2737.81
2682.05
2596.67
2643.53
2586.01
2634.33
2656.75
2652.03
2644.49
2638.88
2631.75
2639.17
2651.07
2657.89
2666.1
2670.83
2662.22
2638.75
2611.49
2565.1
2572.91
2527.1
2522.47
2521.82
2521.17
2418.43
2322.04
2281.77
2282.75
2298.58
2317.94
2378.9
2506.55
2600.66
2669.16
2694.71
2687.98
2617.86
2552.96
2533.26
2521.23
2518.28
2506.6
2502.72
2498.84
2557.25
2581.31
2635.17
2680.76
2685.25
2753.13
2814.87
2856.97
2884.3
2878.58
2867.78
2836.98
2836.76
2846.37
2878.8
2924.93
2943.53
2657.94
2486.74
2743.75
2732.36
2544.33
2409.33
2404.02
2506.01
2659.58
2681.74
2647.16
2664.38
2667.16
2682.08
2708.07
2739.2
2791.63
2817.15
2846.25
2792.96
2700.65
2679.74
2684.49
2597.44
2444.27
2275.09
2220.25
2130.74
2115.28
2113.53
2117.16
2113.73
2078.19
2024.41
2060.26
2222.49
2195.34
2230.66
2335.54
2410.74
2408.2
2400.53
2506.51
2636.63
2648.45
2597.31
2276.49
2169.18
2319.63
2815.6
2781.68
2628.85
2569.34
2579.04
2572.11
2568.38
2537.83
2538.67
2521.22
2512.53
2505.89
2508.45
2603.8
2779.3
2708.36
2663.6
2755.63
2376.27
2415.81
2364
2343.98
2367.65
2417.23
2515.36
2751.84
2652.3
2428.04
2280.56
2219.57
2212.53
2226.07
2244.28
2229.44
2234.61
2222.11
2229.17
2218.28
2238.23
2226.48
2227.42
2233.18
2280.32
2350.76
2386.75
2395.64
2421.69
2405.48
2362.02
2504.76
2521.39
2148.5
2240.95
2612.5
2898.9
2939.72
2817.85
2495.33
2325.63
2319.38
2572.67
2968.19
2931.42
2855.11
2792.28
2773.02
2772.91
2819.56
2830.34
2847.35
2851.1
2848.38
2859.52
2878.41
2869.76
2872.85
2907.18
2889.09
2875.04
2811.18
2696.47
2523.53
2445.08
2399.32
2435.31
2396.96
2370.64
2411.15
2585.63
2859.74
2753.06
2746.88
2760.38
2853.62
2935.72
2854.34
2835.32
2858.69
2951.99
2952.98
2978.95
2989
3014.89
3002.56
3038.39
2990.74
2982.13
2929.29
2958.75
2868.74
2771.06
2687.8
2674.04
3059.88
2355.05
2470.53
2320.5
2490.33
2740
2812.78
2956.34
2864.88
2835.21
2861.79
2939.95
2951.24
2942.51
2945.14
2897.99
2908.32
2856.76
2904.45
2891.9
2899.19
2803.14
2669.92
2569.37
2548.11
2519.43
2572.61
2547.46
2569.89
2691.18
2933.09
2503.68
2195.34
2473.82
2785.18
2598.7
2976.32
2840.16
2852.09
2883.11
3106.91
3112.79
3054.27
3115.9
3058.95
3007.76
2892.32
2869.72
2864.76
2847.09
2796.8
2705.32
2684.25
2639.35
2672.42
2679.59
2675.32
2669.93
2656.39
2628.98
2646.76
2751.1
3033.52
3201.82
2868.54
3255.76
3166.81
3004.02
3058.79
3040.2
3037.11
3014.23
2851.45
2873.94
2932.23
2950.31
2928.84
2917.8
2905.59
2870.06
2837.83
2790.85
2782.7
2780.52
2809.88
2816.41
2805.5
2767.37
2726.72
2704.01
2693.87
2698.49
2723.42
2754.18
2783.01
2822.37
2842.55
2854.49
2826.6
2781.9
2713.65
2669.1
2638.89
2624.28
2538.63
2451.3
2513.1
2611.91
2612.67
2594.77
2614.08
2629.84
2655.91
2725.67
2767.51
2731.88
2619.52
2604.65
2617.73
2698.72
2747.68
2751.11
2738.02
2683.54
2704.18
2687.96
2717.7
2699.76
2700.62
2715.51
2773.53
2843.27
2910.45
2950.87
2976.3
2969.04
2973.86
2920.1
2721.4
2554.73
2493.07
2505.79
2546.39
2644.08
2789.26
2720.09
2632.29
2619.42
2624.11
2615.92
2606.6
2609.12
2633.53
2664.88
2681.96
2678.82
2645.38
2608.61
2563.89
2535.93
2558.85
2604.63
2638.21
2723.76
2720.15
2784.34
2805.55
2826.58
2837.46
2819.41
2817.79
2914.27
2782.64
2670.3
2611.28
2599.99
2601.9
2599.69
2589.83
2627.92
2651.29
2690.8
2684.09
2669.55
2654.24
2635.16
2651.15
2675.08
2701.92
2734.93
2768.4
2797.03
2805.32
2771.85
2776.3
2693.63
2678.93
2582.13
2554.14
2497.81
2501.38
2536.69
2504.37
2400.3
2342.32
2329.33
2339.08
2396.5
2512.58
2630.73
2706.18
2688.93
2669.1
2602.66
2584.33
2584.5
2592.77
2581.62
2592.74
2573.5
2620.59
2582.87
2629.78
2699.57
2690.55
2701.5
2731.06
2796.03
2867.99
2862.79
2869.4
2884.1
2892.05
2885.24
2902.16
2921.78
2857.89
2620.91
2474.26
2572.94
2816.57
2545.86
2445.17
2420.21
2483.44
2650.29
2778.52
2799.94
2770.49
2687.89
2673.71
2701.74
2736.6
2744.76
2789.27
2851.61
2860.37
2837.22
2743.01
2650.43
2633.38
2623.2
2629.82
2501.61
2314.49
2240.91
2182.15
2177.36
2193.64
2203.47
2173.51
2142.34
2131.64
2152.53
2228.21
2360.98
2470.7
2518.59
2535.27
2546.04
2625.37
2600.8
2677.13
2509.17
2247.34
2191.96
2267.91
2605.67
2862.28
2644.71
2578.34
2537
2561.74
2535.1
2517.71
2478.56
2453.25
2428.37
2415.87
2365.3
2435.4
2558.8
2636.43
2487.81
2426.34
2426.34
2382.86
2390.15
2327.06
2336.06
2438.74
2644.94
2745.41
2579.59
2404.47
2278.91
2221.89
2196.12
2211.11
2206.88
2220.16
2206.12
2215.72
2210.58
2208.09
2230.45
2225.98
2236.53
2230.27
2269.5
2335.92
2364.47
2353.11
2376.38
2412.71
2393.13
2344.04
2600.65
2406.66
2304.35
2654.12
2895.43
2873.55
2889.54
2953.29
2540.23
2385.79
2468.84
2874.81
2956.84
2866.68
2812.79
2779.06
2788.3
2808.18
2816.86
2849.05
2808.14
2865.5
2813.64
2849.28
2853.45
2850.04
2868.04
2886.42
2872.54
2860.12
2769.72
2654.6
2524.88
2416.94
2337.66
2280.53