/*--------------------------------*- C++ -*----------------------------------*\
| =========                 |                                                 |
| \\      /  F ield         | OpenFOAM: The Open Source CFD Toolbox           |
|  \\    /   O peration     | Version:  2.1.1                                 |
|   \\  /    A nd           | Web:      www.OpenFOAM.org                      |
|    \\/     M anipulation  |                                                 |
\*---------------------------------------------------------------------------*/
FoamFile
{
    version     2.0;
    format      ascii;
    class       volScalarField;
    location    "0.004450000";
    object      H2O;
}
// * * * * * * * * * * * * * * * * * * * * * * * * * * * * * * * * * * * * * //

dimensions      [0 0 0 0 0 0 0];

internalField   nonuniform List<scalar> 
12384
(
0.242207
0.242681
0.243073
0.243219
0.243482
0.243295
0.243028
0.242508
0.241954
0.241289
0.239755
0.234692
0.212055
0.215797
0.193095
0.201573
0.203772
0.204686
0.20492
0.204867
0.204692
0.204421
0.204287
0.204129
0.204153
0.204198
0.204185
0.204324
0.204235
0.204621
0.204483
0.204724
0.204833
0.204956
0.205112
0.205187
0.205299
0.20566
0.208016
0.196608
0.174782
0.175513
0.198902
0.222482
0.244453
0.249521
0.25043
0.250546
0.249971
0.249278
0.248565
0.247766
0.247082
0.246325
0.245113
0.2434
0.241971
0.24092
0.240193
0.239534
0.239927
0.239672
0.240427
0.241024
0.24086
0.241479
0.241045
0.238295
0.238267
0.24043
0.241185
0.238177
0.22488
0.210465
0.249732
0.250952
0.251559
0.251287
0.251409
0.250616
0.249745
0.249181
0.248779
0.248569
0.248527
0.248489
0.248502
0.248656
0.248684
0.248662
0.249196
0.248903
0.249706
0.249436
0.249689
0.249515
0.25007
0.251034
0.249953
0.238599
0.238009
0.239142
0.238986
0.23876
0.24043
0.242212
0.250354
0.251923
0.252008
0.252065
0.252056
0.252173
0.252132
0.252211
0.252247
0.252173
0.252175
0.252096
0.252124
0.250961
0.250681
0.249096
0.24715
0.243386
0.24023
0.235856
0.235742
0.243961
0.244495
0.232387
0.226399
0.22808
0.231307
0.232589
0.237706
0.252286
0.252242
0.251978
0.251337
0.249883
0.249941
0.25057
0.251722
0.251707
0.251781
0.251915
0.251959
0.251997
0.252034
0.252069
0.252132
0.252221
0.252199
0.252199
0.252183
0.252174
0.252137
0.252119
0.252068
0.251777
0.25099
0.250547
0.248536
0.235952
0.248532
0.246258
0.248582
0.252041
0.25195
0.251679
0.251801
0.252093
0.252218
0.252123
0.249764
0.248634
0.248339
0.248184
0.248048
0.246996
0.245459
0.243736
0.242642
0.241857
0.240853
0.240227
0.239434
0.238696
0.238265
0.237818
0.237958
0.242698
0.249553
0.233693
0.19317
0.20016
0.247609
0.250912
0.251205
0.251386
0.251351
0.251472
0.25149
0.251562
0.251547
0.251559
0.251533
0.251523
0.251507
0.251447
0.251359
0.251349
0.251258
0.251214
0.251115
0.251072
0.251037
0.251262
0.25095
0.25084
0.250411
0.250092
0.25005
0.25077
0.162087
0.184649
0.25057
0.249486
0.249961
0.250228
0.250382
0.25057
0.250541
0.250653
0.250648
0.250612
0.250548
0.250487
0.250343
0.250226
0.250091
0.249971
0.249891
0.249766
0.249749
0.249609
0.249576
0.249455
0.249427
0.249276
0.249262
0.249258
0.249365
0.251943
0.204526
0.241714
0.244157
0.242468
0.242715
0.244906
0.247377
0.249616
0.250677
0.251223
0.25151
0.251589
0.251468
0.251447
0.251542
0.251611
0.251622
0.251648
0.251665
0.251696
0.251561
0.251643
0.251526
0.251586
0.251451
0.251296
0.250972
0.250767
0.250424
0.250209
0.231967
0.250774
0.250789
0.250965
0.250821
0.250683
0.250487
0.250353
0.250343
0.250537
0.250822
0.251062
0.251265
0.251555
0.251577
0.251579
0.251642
0.251777
0.251781
0.251832
0.251845
0.251699
0.251405
0.250925
0.250291
0.249973
0.250313
0.25081
0.251658
0.25209
0.181288
0.252245
0.24926
0.24902
0.249327
0.249881
0.250401
0.250805
0.251051
0.251262
0.251338
0.251429
0.251449
0.251489
0.251533
0.251572
0.251622
0.251683
0.251732
0.251898
0.251909
0.251804
0.251672
0.251634
0.251009
0.249772
0.250412
0.224713
0.155479
0.159662
0.153512
0.149234
0.146003
0.166259
0.213924
0.25241
0.250874
0.249665
0.248964
0.248495
0.248164
0.247948
0.247738
0.247578
0.247521
0.247524
0.247616
0.24781
0.248212
0.248848
0.249795
0.250556
0.251223
0.251645
0.251626
0.239293
0.193278
0.158742
0.151509
0.160613
0.245624
0.244894
0.243951
0.243181
0.243081
0.243521
0.244314
0.244199
0.243487
0.242362
0.24082
0.236719
0.223289
0.21445
0.193337
0.203212
0.206003
0.205674
0.205493
0.205137
0.204971
0.205357
0.206082
0.207029
0.207792
0.207861
0.207881
0.207233
0.206978
0.206704
0.206632
0.206906
0.207182
0.207449
0.207334
0.206864
0.206349
0.206016
0.207441
0.204563
0.192532
0.18346
0.18235
0.205834
0.245867
0.250591
0.250811
0.249799
0.247926
0.244582
0.239854
0.234962
0.231229
0.227939
0.226348
0.22732
0.229177
0.231634
0.233486
0.234876
0.234543
0.233735
0.231822
0.229615
0.231413
0.233142
0.237538
0.238261
0.237438
0.238304
0.239469
0.240572
0.237878
0.218754
0.250357
0.251516
0.25119
0.250449
0.248715
0.247553
0.24712
0.246538
0.246069
0.245482
0.244131
0.243076
0.242367
0.241763
0.241463
0.241221
0.241494
0.242232
0.243326
0.244749
0.246259
0.247873
0.24851
0.249999
0.250485
0.247713
0.240751
0.241234
0.242545
0.241737
0.234783
0.246254
0.252246
0.252078
0.251927
0.252073
0.250211
0.24864
0.247661
0.247247
0.248702
0.249793
0.251458
0.252135
0.25217
0.252159
0.252163
0.252112
0.25207
0.250645
0.248533
0.241437
0.236148
0.239368
0.245425
0.243321
0.235415
0.233504
0.237578
0.237963
0.245092
0.25232
0.252039
0.249096
0.248949
0.251365
0.251828
0.251957
0.252104
0.25191
0.25188
0.251787
0.251763
0.251757
0.251726
0.251748
0.251773
0.251755
0.251833
0.251851
0.251936
0.251965
0.252017
0.25212
0.252188
0.252107
0.252057
0.251174
0.250205
0.24688
0.249257
0.247547
0.250725
0.252081
0.251677
0.251839
0.252219
0.250188
0.243468
0.240519
0.24805
0.251154
0.251756
0.251553
0.24988
0.248222
0.243652
0.240073
0.237448
0.23605
0.235097
0.234308
0.233636
0.232703
0.231793
0.230641
0.230403
0.233971
0.247467
0.241631
0.203682
0.242626
0.251072
0.251179
0.251366
0.251496
0.251555
0.251635
0.251687
0.251964
0.251849
0.251688
0.25154
0.251488
0.251401
0.251394
0.251285
0.251284
0.251172
0.251147
0.25103
0.251018
0.25088
0.250495
0.250071
0.247633
0.246377
0.24591
0.246733
0.250488
0.197729
0.251308
0.250058
0.250104
0.250706
0.250987
0.251152
0.251194
0.251332
0.25131
0.25143
0.251222
0.25113
0.251054
0.250867
0.250888
0.250785
0.250834
0.250843
0.250931
0.251101
0.251188
0.251327
0.251226
0.251185
0.250744
0.250169
0.249652
0.249449
0.251417
0.23181
0.242437
0.238997
0.234542
0.238134
0.244784
0.25024
0.251411
0.251383
0.251182
0.251178
0.251439
0.251929
0.252186
0.252395
0.252292
0.25225
0.252228
0.252206
0.252226
0.252278
0.252316
0.252499
0.251967
0.25176
0.251545
0.251388
0.251136
0.250895
0.250391
0.250288
0.251059
0.251307
0.251585
0.251352
0.251057
0.250518
0.250412
0.251009
0.251607
0.25193
0.251386
0.251077
0.250553
0.249059
0.247915
0.245578
0.244009
0.242386
0.244213
0.248633
0.250602
0.251993
0.251873
0.251129
0.250377
0.250101
0.250405
0.251043
0.251666
0.249779
0.250448
0.249178
0.249771
0.250728
0.251378
0.251658
0.251779
0.2518
0.251864
0.251843
0.251819
0.251589
0.251524
0.251548
0.251657
0.251939
0.252076
0.252337
0.252231
0.252251
0.252711
0.252278
0.252147
0.251608
0.250536
0.249845
0.251844
0.194096
0.15679
0.151715
0.146732
0.156413
0.196494
0.252012
0.250798
0.248663
0.247484
0.246802
0.246435
0.246194
0.246086
0.246054
0.246078
0.246001
0.245847
0.245627
0.245343
0.245072
0.244892
0.244899
0.245546
0.246403
0.247844
0.248856
0.250054
0.25174
0.208643
0.158527
0.158161
0.238595
0.235001
0.228823
0.225184
0.224604
0.227249
0.233366
0.23996
0.242635
0.242562
0.241119
0.237613
0.228896
0.216598
0.193522
0.205278
0.207519
0.208536
0.210113
0.212355
0.215172
0.218008
0.219407
0.219345
0.217938
0.215581
0.212973
0.211106
0.209674
0.209327
0.209787
0.210847
0.2121
0.213198
0.213514
0.21271
0.210736
0.208233
0.207596
0.207836
0.204963
0.197595
0.18462
0.196894
0.24667
0.250799
0.249381
0.247803
0.242412
0.233762
0.226724
0.222545
0.223015
0.229004
0.238595
0.24521
0.247079
0.247886
0.248009
0.247888
0.247684
0.246888
0.245335
0.238524
0.232537
0.230478
0.232862
0.236438
0.236519
0.235682
0.23572
0.237562
0.23857
0.22789
0.251708
0.251506
0.250655
0.248089
0.247565
0.247454
0.247141
0.246608
0.243751
0.241174
0.238799
0.237345
0.236434
0.23598
0.235735
0.235391
0.234938
0.235181
0.234946
0.236256
0.23786
0.240556
0.243838
0.248284
0.249999
0.249845
0.247395
0.242864
0.243704
0.243727
0.229614
0.249002
0.251968
0.251843
0.25001
0.242732
0.229962
0.221385
0.217725
0.217161
0.221112
0.224882
0.233569
0.242943
0.250075
0.252066
0.252161
0.252153
0.252157
0.252106
0.251268
0.248551
0.238985
0.236639
0.242841
0.247074
0.245866
0.241548
0.239671
0.238503
0.249375
0.252062
0.249828
0.249905
0.251815
0.252031
0.252
0.251874
0.251828
0.251759
0.251679
0.251566
0.251514
0.251491
0.251519
0.251471
0.251541
0.251634
0.251678
0.251738
0.251811
0.251801
0.251872
0.251865
0.251971
0.25216
0.252132
0.252055
0.251468
0.249467
0.250054
0.249103
0.252097
0.251747
0.251804
0.252133
0.248046
0.238884
0.24377
0.252177
0.251885
0.251813
0.252084
0.252171
0.245939
0.235558
0.233341
0.23585
0.238791
0.23976
0.238745
0.236697
0.234154
0.232052
0.229307
0.225807
0.222474
0.223929
0.240605
0.243772
0.224377
0.251169
0.2512
0.25139
0.251318
0.251233
0.251142
0.251134
0.251212
0.251557
0.251582
0.251821
0.251423
0.251232
0.251426
0.25152
0.250713
0.250698
0.250618
0.250606
0.25047
0.250299
0.250186
0.250124
0.249069
0.245257
0.233705
0.230199
0.236636
0.249982
0.246402
0.250713
0.250154
0.250628
0.250959
0.251091
0.251266
0.251456
0.251472
0.251473
0.251485
0.251191
0.251037
0.250873
0.251028
0.251293
0.251437
0.251825
0.251908
0.252143
0.252222
0.249201
0.241333
0.235489
0.23611
0.248385
0.25172
0.250676
0.249732
0.251259
0.238145
0.237824
0.227022
0.226405
0.236736
0.249303
0.251635
0.251221
0.250919
0.251241
0.252054
0.252397
0.252213
0.249803
0.249506
0.245291
0.242392
0.236643
0.230946
0.225453
0.225047
0.22515
0.237659
0.249155
0.251987
0.252162
0.251792
0.251886
0.251188
0.250752
0.251888
0.25154
0.251707
0.251678
0.251705
0.250771
0.250397
0.250846
0.251615
0.251785
0.251599
0.251556
0.251339
0.249579
0.246637
0.240261
0.234183
0.229286
0.227352
0.225223
0.226714
0.229974
0.240247
0.25034
0.251931
0.251114
0.25031
0.250205
0.250607
0.251317
0.251764
0.249547
0.249838
0.250964
0.251623
0.251892
0.252002
0.252036
0.252071
0.252014
0.251919
0.25165
0.251383
0.25128
0.251318
0.251556
0.251995
0.252083
0.249074
0.237556
0.227342
0.227981
0.240071
0.250605
0.252311
0.251184
0.249838
0.250539
0.240075
0.157795
0.149679
0.150439
0.179015
0.244262
0.251293
0.248545
0.246916
0.246474
0.246502
0.246671
0.246974
0.247293
0.247492
0.247542
0.247412
0.247223
0.246938
0.246539
0.246032
0.245441
0.24501
0.244949
0.246042
0.248115
0.249914
0.250224
0.25072
0.251622
0.181649
0.155081
0.231781
0.22332
0.218233
0.217214
0.217553
0.218215
0.220431
0.228469
0.237946
0.240966
0.240096
0.237769
0.231
0.218935
0.1944
0.208111
0.212794
0.218657
0.224083
0.228926
0.231487
0.231388
0.228103
0.223426
0.217484
0.212153
0.207962
0.20631
0.207348
0.209812
0.212976
0.216349
0.219294
0.221448
0.222554
0.221895
0.218918
0.213772
0.209887
0.208712
0.209028
0.205521
0.191664
0.194809
0.247225
0.250098
0.248349
0.246743
0.238541
0.231515
0.230927
0.238647
0.247239
0.250194
0.250695
0.250733
0.250593
0.250367
0.250099
0.24935
0.249227
0.249243
0.248582
0.246619
0.2409
0.231875
0.231783
0.233842
0.235605
0.233493
0.228789
0.229692
0.237146
0.231607
0.251968
0.25109
0.24897
0.247883
0.248061
0.248157
0.24752
0.244537
0.240598
0.238067
0.237679
0.238466
0.239246
0.239815
0.239804
0.239155
0.237509
0.23542
0.233598
0.231906
0.232154
0.233377
0.236898
0.243569
0.248835
0.250269
0.249549
0.246204
0.244388
0.245408
0.237215
0.252459
0.251987
0.252072
0.246687
0.229137
0.217624
0.213374
0.21433
0.216133
0.219837
0.223118
0.22765
0.232128
0.240283
0.247046
0.250646
0.25204
0.252093
0.252059
0.251198
0.249036
0.240762
0.235535
0.239798
0.247087
0.248353
0.247339
0.243472
0.238951
0.250353
0.2517
0.250317
0.25171
0.251967
0.252062
0.251874
0.251804
0.251701
0.251588
0.25144
0.251333
0.251308
0.251198
0.251269
0.251288
0.251325
0.251402
0.251479
0.251624
0.251675
0.251754
0.251756
0.251737
0.251745
0.251906
0.252119
0.252142
0.252063
0.250332
0.251153
0.25068
0.252022
0.251747
0.252155
0.248825
0.238499
0.24732
0.252225
0.251663
0.251312
0.251549
0.252098
0.249662
0.232625
0.222533
0.228185
0.243495
0.24992
0.250497
0.249866
0.24624
0.239086
0.232705
0.22701
0.220645
0.215224
0.21732
0.236754
0.243914
0.241241
0.251246
0.251145
0.251148
0.250958
0.250524
0.250309
0.250323
0.250528
0.250925
0.251281
0.251524
0.251518
0.251072
0.250697
0.250545
0.250478
0.250549
0.2502
0.249957
0.249747
0.250085
0.250182
0.250464
0.250451
0.248651
0.236346
0.218139
0.221879
0.24842
0.251378
0.250304
0.250311
0.250636
0.250634
0.250726
0.250995
0.251299
0.25152
0.251512
0.251181
0.25096
0.25082
0.251147
0.251433
0.251898
0.252042
0.251874
0.25055
0.248325
0.237786
0.222639
0.207617
0.197961
0.193534
0.202441
0.237228
0.251747
0.250251
0.251217
0.238534
0.230556
0.22217
0.225686
0.243886
0.251735
0.251325
0.250967
0.251344
0.252149
0.252168
0.251973
0.251818
0.251931
0.251699
0.251909
0.251433
0.249809
0.245302
0.232123
0.21772
0.211496
0.208458
0.217204
0.23802
0.250685
0.251976
0.251765
0.251545
0.250988
0.251982
0.251982
0.2498
0.251836
0.251292
0.250523
0.250563
0.251371
0.251623
0.251629
0.251692
0.251816
0.250542
0.244198
0.232884
0.224587
0.219019
0.215885
0.213114
0.214137
0.212532
0.214144
0.219676
0.234618
0.250992
0.25181
0.250702
0.250202
0.250464
0.251192
0.250943
0.249655
0.250686
0.251604
0.251893
0.251941
0.252005
0.252131
0.252076
0.252187
0.252219
0.252499
0.251883
0.251375
0.251336
0.251481
0.251975
0.252038
0.243773
0.221437
0.209526
0.209827
0.218571
0.240424
0.25199
0.251522
0.249937
0.24996
0.252707
0.159168
0.148707
0.157225
0.209068
0.252163
0.249289
0.247063
0.246427
0.246622
0.24703
0.247581
0.248039
0.248342
0.248504
0.248468
0.248384
0.248124
0.247835
0.247439
0.246877
0.246205
0.245538
0.245313
0.246189
0.249004
0.251045
0.251232
0.250747
0.251433
0.216656
0.152006
0.227319
0.217592
0.216127
0.218959
0.220676
0.219676
0.21878
0.221438
0.231988
0.237745
0.238415
0.237291
0.231847
0.221014
0.195865
0.21256
0.221835
0.230348
0.235519
0.237996
0.236938
0.233367
0.226978
0.219192
0.210661
0.204143
0.201223
0.20277
0.209416
0.216999
0.222499
0.226318
0.228302
0.230245
0.231457
0.231022
0.22785
0.22156
0.214042
0.210323
0.210035
0.209008
0.196787
0.194164
0.24732
0.24952
0.248157
0.247179
0.2434
0.244036
0.247963
0.251226
0.251212
0.251366
0.251426
0.251349
0.251019
0.250562
0.248964
0.247979
0.248285
0.248705
0.248974
0.247602
0.244603
0.235055
0.231806
0.233076
0.234299
0.230808
0.222437
0.220806
0.233023
0.232867
0.251772
0.250918
0.248592
0.248197
0.248317
0.248281
0.247584
0.24385
0.240501
0.239807
0.2418
0.24372
0.245445
0.246292
0.246602
0.245618
0.243984
0.240977
0.236661
0.233222
0.230776
0.229521
0.231626
0.237488
0.246653
0.24967
0.250292
0.248486
0.245258
0.246212
0.252002
0.252069
0.252037
0.251546
0.243235
0.22602
0.218677
0.220656
0.226256
0.233239
0.238446
0.24073
0.241355
0.240558
0.240161
0.237955
0.243255
0.245452
0.248702
0.249319
0.248994
0.246069
0.239372
0.234406
0.23696
0.246325
0.249338
0.249252
0.246942
0.240377
0.250782
0.251106
0.251563
0.251863
0.252024
0.251887
0.251807
0.251717
0.251559
0.251452
0.251269
0.251319
0.251334
0.251184
0.251146
0.251206
0.251273
0.251288
0.251354
0.251387
0.251584
0.251662
0.251709
0.251703
0.251641
0.251683
0.2519
0.252147
0.252115
0.250946
0.252001
0.25204
0.251846
0.251946
0.250997
0.241117
0.244439
0.252149
0.251728
0.25108
0.251141
0.251559
0.252206
0.250359
0.230786
0.216053
0.222045
0.245498
0.251806
0.252291
0.252203
0.249904
0.241858
0.23102
0.22166
0.213509
0.209924
0.215522
0.236817
0.2441
0.248043
0.251375
0.251139
0.250959
0.250314
0.249775
0.249575
0.249583
0.249797
0.250232
0.250746
0.251396
0.251756
0.250962
0.250542
0.250332
0.250168
0.249755
0.249669
0.249181
0.250896
0.251182
0.25158
0.251517
0.25116
0.250921
0.246406
0.216665
0.212557
0.246346
0.251247
0.250235
0.250313
0.250207
0.249845
0.249941
0.250478
0.251084
0.25128
0.251342
0.251157
0.25113
0.251278
0.251728
0.251626
0.249709
0.248572
0.247227
0.244001
0.240606
0.233322
0.223044
0.210343
0.198379
0.190332
0.187244
0.205857
0.251412
0.250752
0.251433
0.237727
0.226677
0.222259
0.233976
0.250819
0.25168
0.25121
0.251295
0.251982
0.252185
0.251917
0.251744
0.2517
0.251856
0.252188
0.25205
0.251982
0.251923
0.251839
0.251172
0.245497
0.228659
0.211461
0.207389
0.217
0.238894
0.249894
0.250947
0.252096
0.251128
0.251918
0.251274
0.249338
0.251866
0.25086
0.250475
0.250898
0.251338
0.251271
0.251465
0.251751
0.251676
0.242414
0.22653
0.22034
0.218306
0.21752
0.214069
0.210116
0.205897
0.205544
0.206507
0.20957
0.219799
0.244099
0.252107
0.251151
0.250332
0.250428
0.251162
0.250484
0.25
0.251241
0.251719
0.25188
0.25187
0.252171
0.25206
0.252235
0.249979
0.249037
0.250586
0.252343
0.252024
0.251376
0.251277
0.251538
0.252099
0.250121
0.232649
0.214239
0.210068
0.215486
0.234577
0.251682
0.251627
0.249913
0.24976
0.252349
0.159207
0.148893
0.167502
0.242665
0.251007
0.247949
0.246577
0.246553
0.247125
0.247816
0.248477
0.248978
0.24932
0.249431
0.249472
0.249257
0.248991
0.248593
0.248142
0.247606
0.246875
0.245984
0.245485
0.246366
0.250135
0.251588
0.251754
0.251113
0.251466
0.2146
0.149682
0.225019
0.214405
0.218087
0.225702
0.229157
0.226137
0.220111
0.219237
0.22644
0.234606
0.235485
0.23543
0.232098
0.222394
0.197945
0.218813
0.23104
0.237658
0.240671
0.240599
0.238226
0.234401
0.228585
0.219655
0.208917
0.20135
0.199095
0.206434
0.218495
0.226642
0.229628
0.229907
0.229951
0.231399
0.232977
0.234175
0.233298
0.227942
0.219218
0.212074
0.21078
0.210195
0.198959
0.194049
0.247312
0.248551
0.24831
0.248573
0.248829
0.250587
0.251247
0.251476
0.251686
0.251542
0.251519
0.251494
0.251465
0.250628
0.247862
0.246795
0.247677
0.248678
0.249232
0.247777
0.245011
0.235464
0.232051
0.23285
0.233283
0.229047
0.219415
0.21559
0.228175
0.232776
0.25186
0.250826
0.248633
0.248421
0.248723
0.248213
0.247672
0.24461
0.241663
0.241554
0.244259
0.247666
0.248175
0.248612
0.248299
0.247816
0.246213
0.242706
0.238782
0.234163
0.230275
0.228019
0.22825
0.232456
0.24239
0.248872
0.250489
0.249244
0.246274
0.246794
0.251998
0.251983
0.252156
0.251866
0.244939
0.231006
0.225328
0.23018
0.238818
0.24449
0.247088
0.247741
0.248305
0.24838
0.247556
0.247448
0.246614
0.246721
0.245222
0.245558
0.244742
0.242266
0.237521
0.233603
0.235662
0.244541
0.248843
0.250084
0.24843
0.24205
0.251043
0.251405
0.251665
0.251965
0.251863
0.251823
0.251804
0.25169
0.251543
0.251351
0.251204
0.251364
0.251309
0.251196
0.251207
0.251174
0.251241
0.251279
0.251265
0.251337
0.251437
0.251597
0.251706
0.251724
0.251564
0.251544
0.251713
0.252002
0.252157
0.251129
0.252039
0.25214
0.251805
0.252145
0.246822
0.242957
0.250865
0.252014
0.251182
0.250939
0.251147
0.251387
0.251789
0.252144
0.240504
0.212561
0.208777
0.230404
0.25006
0.252425
0.251792
0.247435
0.232852
0.219622
0.213443
0.212331
0.217553
0.226903
0.239196
0.243865
0.250655
0.251305
0.251086
0.250463
0.249712
0.249239
0.249054
0.249034
0.249258
0.249633
0.250239
0.250957
0.25141
0.250905
0.25027
0.249858
0.24918
0.247236
0.247579
0.251077
0.251754
0.251345
0.251233
0.251591
0.25232
0.251478
0.248425
0.220393
0.207545
0.245309
0.251057
0.250266
0.250071
0.249535
0.249053
0.249122
0.249778
0.250554
0.251217
0.251411
0.251381
0.251566
0.251565
0.250622
0.246414
0.243758
0.242584
0.242869
0.24167
0.239907
0.2369
0.231505
0.223707
0.211702
0.200651
0.190332
0.193933
0.241453
0.251233
0.25165
0.235799
0.226062
0.226957
0.244409
0.252032
0.251476
0.251251
0.251465
0.251684
0.251462
0.251257
0.251473
0.251849
0.252125
0.252198
0.252172
0.252001
0.25179
0.251704
0.251675
0.250302
0.244224
0.223659
0.210593
0.211574
0.225934
0.241998
0.246814
0.249798
0.251265
0.251902
0.250312
0.250979
0.25151
0.250622
0.250532
0.250817
0.250854
0.25105
0.251591
0.251871
0.247257
0.226736
0.221369
0.226051
0.228738
0.224366
0.216258
0.208579
0.204715
0.202065
0.202418
0.20476
0.212854
0.235674
0.251996
0.251387
0.250434
0.250486
0.251163
0.250272
0.250379
0.25149
0.251635
0.251647
0.251611
0.251601
0.251692
0.251907
0.249768
0.237981
0.231799
0.241598
0.252347
0.252018
0.251291
0.251066
0.251493
0.252267
0.249623
0.232267
0.22276
0.226384
0.243483
0.252049
0.251362
0.249672
0.249671
0.252266
0.158118
0.149514
0.176058
0.25219
0.249949
0.247254
0.246502
0.246874
0.247695
0.24855
0.249269
0.249811
0.250211
0.250328
0.250322
0.25026
0.249801
0.249392
0.248731
0.24816
0.247537
0.246514
0.245512
0.245933
0.250437
0.251613
0.2515
0.251531
0.251607
0.222554
0.147057
0.22296
0.212378
0.221146
0.232847
0.237014
0.233534
0.222774
0.217953
0.222461
0.230488
0.232667
0.233973
0.232284
0.223617
0.201864
0.226334
0.237212
0.241461
0.242546
0.242455
0.241645
0.240602
0.236744
0.227732
0.213827
0.202704
0.200251
0.210278
0.223438
0.228694
0.228593
0.224838
0.221723
0.224257
0.229578
0.23367
0.234226
0.231298
0.222257
0.21362
0.211229
0.21075
0.200181
0.194201
0.247046
0.248004
0.2489
0.250349
0.251595
0.251469
0.251667
0.251802
0.251629
0.251576
0.251495
0.251496
0.251563
0.250717
0.246628
0.245553
0.247301
0.24869
0.249043
0.247391
0.242201
0.233507
0.231669
0.232945
0.232902
0.22831
0.2188
0.214125
0.223724
0.232127
0.251754
0.250696
0.249644
0.249355
0.24914
0.24894
0.247957
0.245146
0.241947
0.241059
0.244929
0.248556
0.249302
0.249786
0.249457
0.248069
0.244695
0.240339
0.235944
0.232243
0.229041
0.227034
0.226159
0.229542
0.239196
0.248191
0.250416
0.249467
0.246829
0.247131
0.252065
0.251995
0.252278
0.251847
0.247821
0.235771
0.230919
0.23577
0.243919
0.247146
0.248762
0.249058
0.24916
0.249064
0.248723
0.249457
0.248228
0.247729
0.246475
0.245901
0.243457
0.241186
0.236878
0.233458
0.234835
0.243201
0.248403
0.250547
0.249626
0.244357
0.25123
0.251842
0.251797
0.251884
0.251807
0.251789
0.251817
0.251727
0.251591
0.251397
0.251279
0.251469
0.25127
0.251303
0.251228
0.25126
0.251265
0.25134
0.251323
0.25131
0.251359
0.251545
0.251678
0.251683
0.251518
0.251477
0.251589
0.251921
0.252165
0.251357
0.252088
0.252114
0.251909
0.252042
0.245611
0.248879
0.252199
0.2516
0.251045
0.25105
0.251218
0.251262
0.251354
0.251887
0.250957
0.219886
0.19948
0.207381
0.236123
0.250077
0.249405
0.238232
0.224184
0.219391
0.221863
0.226176
0.228014
0.22956
0.232529
0.238968
0.25154
0.251382
0.250936
0.25006
0.249262
0.248863
0.248714
0.248703
0.248901
0.2493
0.249835
0.25062
0.251399
0.25104
0.250882
0.249447
0.246259
0.246064
0.25115
0.251543
0.250463
0.249685
0.249558
0.249725
0.250996
0.252054
0.24976
0.221842
0.206333
0.243432
0.25088
0.250099
0.249753
0.248994
0.248676
0.248723
0.249158
0.250089
0.251099
0.251676
0.251634
0.251579
0.250946
0.246739
0.243413
0.243956
0.244878
0.244971
0.242946
0.240123
0.235284
0.232676
0.22853
0.223899
0.213615
0.200078
0.194295
0.232416
0.251573
0.25181
0.236427
0.227211
0.234404
0.249859
0.251951
0.251502
0.2513
0.251233
0.250991
0.250772
0.25098
0.251747
0.252149
0.249157
0.246757
0.248928
0.2502
0.250899
0.251884
0.251453
0.250295
0.245126
0.228198
0.215328
0.212601
0.221182
0.231047
0.236064
0.247504
0.251365
0.251612
0.249443
0.251994
0.251187
0.250472
0.250381
0.250349
0.250377
0.2509
0.251633
0.251988
0.235814
0.222423
0.22914
0.240024
0.237085
0.225213
0.209242
0.204653
0.201113
0.201043
0.200164
0.203906
0.211298
0.234245
0.252044
0.251466
0.250519
0.250581
0.251227
0.250224
0.250682
0.251457
0.251571
0.25116
0.250995
0.250973
0.251147
0.251545
0.25188
0.244638
0.223033
0.218347
0.232163
0.251443
0.252018
0.250976
0.250671
0.251275
0.252136
0.252676
0.249342
0.24979
0.251998
0.251953
0.2506
0.249152
0.249689
0.252197
0.155916
0.150249
0.182283
0.252389
0.249342
0.246994
0.246537
0.247182
0.24817
0.249076
0.249878
0.250443
0.250802
0.250944
0.251158
0.250885
0.250712
0.250088
0.24921
0.248536
0.247948
0.247136
0.245757
0.245307
0.249693
0.251546
0.25128
0.252076
0.251312
0.189978
0.146515
0.221356
0.211299
0.223798
0.237633
0.241442
0.239183
0.228201
0.21904
0.219032
0.224395
0.228669
0.232635
0.232734
0.225197
0.203929
0.230715
0.241565
0.243677
0.244711
0.245421
0.24606
0.246753
0.245595
0.238929
0.223486
0.207449
0.201002
0.208993
0.221599
0.226313
0.222894
0.215947
0.212883
0.216026
0.224909
0.231448
0.233685
0.231285
0.222639
0.213846
0.211617
0.210744
0.200661
0.194172
0.246369
0.24687
0.248534
0.251116
0.251313
0.251658
0.251933
0.251632
0.251615
0.251541
0.251481
0.251481
0.251697
0.250646
0.244737
0.242664
0.246831
0.248041
0.247726
0.243519
0.235423
0.231072
0.232018
0.233287
0.232556
0.228277
0.219862
0.21404
0.222127
0.231384
0.251579
0.250918
0.25096
0.251018
0.25102
0.250504
0.248878
0.246583
0.241548
0.239348
0.242899
0.248796
0.249981
0.250594
0.250269
0.248901
0.245229
0.238852
0.233617
0.230607
0.228121
0.22613
0.225361
0.228548
0.238764
0.248176
0.250556
0.249494
0.247233
0.247542
0.251816
0.251992
0.252078
0.252015
0.249209
0.240391
0.234394
0.23841
0.244935
0.248054
0.24934
0.249243
0.248289
0.247688
0.247905
0.248127
0.248129
0.248201
0.247203
0.246225
0.245167
0.241633
0.237075
0.233826
0.235371
0.242916
0.24801
0.250488
0.249999
0.24537
0.251432
0.251761
0.251881
0.251842
0.251717
0.251546
0.251737
0.251723
0.251671
0.251503
0.251409
0.251363
0.251379
0.251376
0.251286
0.251264
0.251333
0.251347
0.25137
0.251361
0.25143
0.251591
0.251673
0.25167
0.251454
0.251421
0.251579
0.251948
0.252136
0.251297
0.252124
0.251983
0.252032
0.250581
0.247408
0.251686
0.252048
0.251425
0.251135
0.251225
0.251201
0.251168
0.251132
0.251314
0.252065
0.241797
0.200376
0.193625
0.213884
0.242534
0.246846
0.238786
0.23124
0.22998
0.228255
0.225644
0.230381
0.238328
0.238489
0.234066
0.251972
0.251301
0.250675
0.249764
0.249084
0.24872
0.248548
0.248522
0.248725
0.249145
0.24971
0.250378
0.251509
0.251164
0.250061
0.247763
0.244795
0.247817
0.251836
0.250452
0.249461
0.249193
0.249129
0.249128
0.249627
0.251516
0.251564
0.222152
0.206683
0.244886
0.250701
0.249951
0.249388
0.248764
0.248645
0.248645
0.248801
0.249644
0.25108
0.251721
0.251684
0.251406
0.250491
0.24598
0.24497
0.246339
0.247751
0.24592
0.239477
0.229218
0.222826
0.220584
0.224769
0.224984
0.222009
0.206761
0.196253
0.23256
0.251813
0.252065
0.234254
0.231132
0.24055
0.250567
0.252125
0.25189
0.25139
0.250885
0.250531
0.250377
0.251099
0.252045
0.248173
0.228899
0.229024
0.242192
0.248823
0.249317
0.250098
0.249449
0.246957
0.238466
0.23032
0.224527
0.219699
0.221445
0.224286
0.227842
0.24539
0.251436
0.25153
0.250149
0.251797
0.250781
0.250209
0.249889
0.249689
0.249997
0.251033
0.251638
0.249643
0.229788
0.223696
0.238798
0.247553
0.241983
0.224179
0.208974
0.204189
0.201834
0.201422
0.201662
0.206263
0.215563
0.242252
0.252172
0.251287
0.250584
0.250766
0.251315
0.25022
0.250853
0.251353
0.251158
0.25092
0.250827
0.25086
0.250914
0.250993
0.251493
0.251882
0.234696
0.212989
0.21308
0.229587
0.251071
0.251914
0.250483
0.249965
0.250595
0.251383
0.25191
0.251891
0.251518
0.250667
0.2495
0.248769
0.24984
0.252447
0.154681
0.150446
0.182041
0.25242
0.249148
0.246908
0.246567
0.247374
0.248443
0.249461
0.250238
0.250801
0.25096
0.250931
0.250265
0.250671
0.250814
0.250658
0.249709
0.248738
0.24811
0.247607
0.246298
0.24488
0.247837
0.251812
0.246424
0.248626
0.23237
0.182658
0.170525
0.220698
0.209853
0.224725
0.240498
0.243678
0.242366
0.236059
0.224879
0.219826
0.220623
0.225483
0.231674
0.23247
0.226952
0.222156
0.204679
0.210086
0.237123
0.244645
0.246054
0.246991
0.247571
0.248068
0.248178
0.247558
0.245969
0.23421
0.214488
0.201906
0.205159
0.216893
0.222758
0.219163
0.212789
0.210378
0.213772
0.222122
0.229165
0.23114
0.228303
0.220172
0.213708
0.211548
0.209395
0.19843
0.199455
0.218813
0.239483
0.245939
0.245804
0.247929
0.25071
0.251228
0.251682
0.251931
0.251629
0.25158
0.251571
0.251503
0.251476
0.251794
0.250969
0.241881
0.239258
0.243453
0.244941
0.241
0.234309
0.23075
0.230628
0.232916
0.23387
0.232693
0.228417
0.220953
0.214031
0.219471
0.227831
0.242153
0.25048
0.251406
0.251284
0.251826
0.251742
0.251849
0.251512
0.250815
0.24841
0.242624
0.237238
0.238909
0.245809
0.249932
0.250929
0.251312
0.250358
0.2482
0.2427
0.236854
0.23264
0.229251
0.227451
0.227677
0.232188
0.241996
0.248951
0.250658
0.249187
0.247702
0.247755
0.247507
0.246561
0.251692
0.251931
0.252044
0.252175
0.250896
0.244099
0.236896
0.239504
0.245305
0.248508
0.249217
0.249027
0.247832
0.247171
0.247241
0.24744
0.247698
0.247664
0.247245
0.246365
0.245269
0.242201
0.237258
0.234799
0.236967
0.243578
0.248
0.250304
0.250428
0.246834
0.239978
0.242505
0.250881
0.251919
0.252088
0.25179
0.251407
0.251229
0.251357
0.25158
0.251706
0.251659
0.251543
0.251478
0.251464
0.251432
0.251352
0.251256
0.251408
0.251397
0.251456
0.251475
0.251529
0.25163
0.251667
0.251531
0.251413
0.251452
0.251738
0.252085
0.252093
0.251938
0.252155
0.252076
0.252183
0.251939
0.252156
0.250445
0.249536
0.252154
0.251921
0.251422
0.251234
0.251305
0.251201
0.250983
0.250953
0.251038
0.251445
0.252089
0.214363
0.190068
0.197725
0.22758
0.245145
0.245348
0.241171
0.234017
0.224983
0.225393
0.242136
0.250316
0.250517
0.247358
0.24874
0.251838
0.252142
0.251273
0.250513
0.249577
0.248925
0.248601
0.248457
0.248469
0.248666
0.249144
0.249731
0.250339
0.251378
0.25136
0.249812
0.246511
0.243194
0.250117
0.25139
0.249941
0.249371
0.249732
0.249826
0.249558
0.249193
0.251047
0.251472
0.220374
0.209792
0.245407
0.250808
0.250691
0.2506
0.249786
0.249197
0.248832
0.248812
0.248747
0.24875
0.24938
0.250884
0.251793
0.251723
0.251411
0.250233
0.245522
0.245715
0.247946
0.248919
0.244076
0.229282
0.212681
0.205313
0.208604
0.21682
0.225238
0.221835
0.205933
0.204157
0.247966
0.25194
0.252215
0.250414
0.240166
0.235889
0.233829
0.243505
0.24942
0.251565
0.252122
0.251849
0.251199
0.250442
0.250198
0.251224
0.251824
0.235315
0.213075