/*--------------------------------*- C++ -*----------------------------------*\
| =========                 |                                                 |
| \\      /  F ield         | OpenFOAM: The Open Source CFD Toolbox           |
|  \\    /   O peration     | Version:  2.1.1                                 |
|   \\  /    A nd           | Web:      www.OpenFOAM.org                      |
|    \\/     M anipulation  |                                                 |
\*---------------------------------------------------------------------------*/
FoamFile
{
    version     2.0;
    format      ascii;
    class       volScalarField;
    location    "0.004450000";
    object      H2O2;
}
// * * * * * * * * * * * * * * * * * * * * * * * * * * * * * * * * * * * * * //

dimensions      [0 0 0 0 0 0 0];

internalField   nonuniform List<scalar> 
12384
(
5.31491e-07
4.48348e-07
4.28373e-07
4.26257e-07
4.65672e-07
4.75187e-07
4.89614e-07
5.21641e-07
5.58283e-07
6.02956e-07
6.83451e-07
1.04419e-06
1.78841e-06
8.85129e-07
8.13402e-07
9.97436e-07
9.50846e-07
8.77661e-07
8.17992e-07
7.83451e-07
7.63626e-07
7.53378e-07
7.55086e-07
7.82826e-07
7.79965e-07
8.06399e-07
8.2607e-07
8.46886e-07
8.63772e-07
8.87099e-07
8.93799e-07
8.98773e-07
8.88282e-07
8.9383e-07
8.83047e-07
9.05643e-07
9.36206e-07
1.02853e-06
1.19277e-06
1.09982e-06
7.14958e-07
6.30778e-07
7.80464e-07
8.93535e-07
6.09838e-07
3.07279e-07
2.50503e-07
2.51075e-07
2.78832e-07
3.20644e-07
3.62187e-07
4.09863e-07
4.42915e-07
4.88897e-07
5.99462e-07
6.49348e-07
6.89889e-07
7.15499e-07
7.42594e-07
7.55435e-07
7.23769e-07
7.5179e-07
7.08103e-07
7.54277e-07
7.391e-07
8.2026e-07
8.30017e-07
1.002e-06
1.07481e-06
9.66393e-07
9.12642e-07
1.08717e-06
1.25981e-06
1.16647e-06
3.09217e-07
2.47839e-07
1.27879e-07
1.45227e-07
2.5143e-07
2.99553e-07
3.55662e-07
3.83832e-07
4.0353e-07
4.12611e-07
4.11083e-07
3.98115e-07
3.84026e-07
3.63468e-07
3.51427e-07
3.43919e-07
3.05539e-07
3.22783e-07
2.63509e-07
2.85595e-07
2.70139e-07
2.86838e-07
2.62981e-07
2.14929e-07
2.70509e-07
6.74038e-07
6.95551e-07
6.92204e-07
6.95418e-07
7.03006e-07
7.32714e-07
6.31559e-07
2.82023e-07
1.04966e-07
8.93854e-08
8.36625e-08
8.12279e-08
7.23153e-08
7.67171e-08
6.55484e-08
7.23314e-08
6.82386e-08
7.48129e-08
8.04915e-08
7.93661e-08
1.80529e-07
2.06819e-07
2.81438e-07
4.01804e-07
4.97702e-07
5.84199e-07
6.33173e-07
6.62821e-07
5.37016e-07
5.2806e-07
7.48077e-07
7.92779e-07
7.8109e-07
7.87476e-07
7.69394e-07
6.65237e-07
5.90985e-08
3.42558e-08
8.72298e-08
2.14357e-07
2.88199e-07
2.84072e-07
2.57249e-07
1.87566e-07
1.11415e-07
9.95766e-08
8.60233e-08
7.8931e-08
7.26522e-08
6.58536e-08
6.16438e-08
5.65985e-08
5.00339e-08
5.09464e-08
5.0031e-08
5.31622e-08
5.5133e-08
6.14466e-08
6.81429e-08
7.86468e-08
1.3924e-07
1.81768e-07
2.02312e-07
3.14397e-07
6.08736e-07
3.07928e-07
4.07239e-07
3.05595e-07
7.73764e-08
2.24614e-08
1.30082e-08
1.63932e-08
2.64362e-08
5.4754e-08
1.53776e-07
3.07561e-07
3.70043e-07
3.94631e-07
4.04447e-07
4.11781e-07
5.26245e-07
5.61951e-07
6.10237e-07
6.257e-07
6.48833e-07
7.11459e-07
7.25757e-07
7.52097e-07
7.69128e-07
7.73722e-07
7.88257e-07
7.82214e-07
6.7228e-07
3.47144e-07
7.49868e-07
1.01946e-06
9.92185e-07
5.04193e-07
5.76401e-08
5.94967e-08
5.76148e-08
6.34247e-08
6.21716e-08
6.66046e-08
6.72069e-08
6.98145e-08
7.03553e-08
7.1836e-08
7.19776e-08
7.14536e-08
7.47489e-08
7.74371e-08
7.76001e-08
7.97407e-08
8.41789e-08
8.90498e-08
9.22273e-08
1.00327e-07
1.30301e-07
1.63098e-07
1.62419e-07
2.00944e-07
2.25487e-07
2.25315e-07
1.59447e-07
7.73156e-07
1.02542e-06
2.55416e-08
1.19879e-08
1.50865e-08
1.96895e-08
2.32076e-08
2.43781e-08
2.37811e-08
2.34739e-08
2.09549e-08
1.85072e-08
1.55598e-08
1.17272e-08
1.03211e-08
6.2922e-09
6.14682e-09
4.74556e-09
4.72351e-09
4.50688e-09
4.28949e-09
4.45461e-09
6.06833e-09
5.67822e-09
5.92816e-09
5.30776e-09
4.74507e-09
4.49447e-09
4.08395e-09
2.59783e-08
1.43396e-06
9.26014e-07
7.32711e-07
8.59588e-07
8.38555e-07
7.22767e-07
5.84965e-07
2.88306e-07
1.86888e-07
9.42514e-08
5.72365e-08
3.74841e-08
2.4487e-08
2.31573e-08
2.10732e-08
1.78925e-08
1.89694e-08
1.66418e-08
1.79746e-08
1.63701e-08
2.12335e-08
1.99136e-08
2.53607e-08
4.33406e-08
5.75038e-08
7.54006e-08
9.75887e-08
9.99238e-08
8.63633e-08
9.89601e-08
8.41628e-07
2.15406e-08
2.04258e-08
2.25688e-08
1.82789e-08
1.55892e-08
1.27917e-08
1.12195e-08
1.1295e-08
1.47642e-08
1.99736e-08
3.1224e-08
3.8053e-08
4.89755e-08
5.25795e-08
5.67435e-08
5.57741e-08
4.73473e-08
4.5369e-08
3.32078e-08
2.42668e-08
1.94394e-08
2.00435e-08
1.46973e-08
1.00973e-08
7.61141e-09
9.31875e-09
1.49496e-08
3.89019e-08
7.61367e-08
4.58921e-07
3.88427e-08
5.70865e-09
4.92841e-09
6.06344e-09
8.98007e-09
1.36866e-08
1.68646e-08
2.07119e-08
2.30849e-08
2.30881e-08
2.13528e-08
2.05411e-08
1.90246e-08
1.80988e-08
1.7388e-08
1.65269e-08
1.70736e-08
1.52868e-08
1.87069e-08
1.77606e-08
1.61172e-08
1.8202e-08
1.85994e-08
1.18181e-08
5.97478e-09
8.74923e-09
8.96918e-07
3.69943e-07
4.32376e-07
2.23281e-07
2.36251e-07
2.79219e-07
4.20097e-07
7.84154e-07
6.45645e-08
8.46367e-09
4.33037e-09
2.91394e-09
2.32882e-09
1.94519e-09
1.80657e-09
1.70707e-09
1.77377e-09
1.68942e-09
1.90514e-09
2.06126e-09
2.42797e-09
2.76932e-09
4.28516e-09
7.6403e-09
1.30031e-08
3.02617e-08
4.43264e-08
1.36646e-07
8.24449e-07
8.29707e-07
4.50785e-07
3.71306e-07
4.61578e-07
3.48977e-07
4.07685e-07
5.39645e-07
5.92515e-07
5.99303e-07
5.69456e-07
4.4879e-07
4.43789e-07
4.79357e-07
5.468e-07
6.34344e-07
9.37716e-07
1.60068e-06
1.07687e-06
8.11599e-07
9.54923e-07
8.08823e-07
7.29401e-07
7.24448e-07
7.02088e-07
7.10321e-07
7.32076e-07
7.71268e-07
8.11117e-07
8.3843e-07
8.91188e-07
8.95725e-07
9.40177e-07
9.54701e-07
9.75607e-07
9.86753e-07
9.86342e-07
9.81792e-07
9.65507e-07
9.45938e-07
9.33628e-07
9.43193e-07
9.89202e-07
1.11521e-06
1.19499e-06
1.04051e-06
8.65463e-07
7.31772e-07
8.65532e-07
5.57692e-07
2.43612e-07
2.35874e-07
2.90587e-07
3.90465e-07
5.84411e-07
7.2081e-07
8.36822e-07
8.91261e-07
9.25051e-07
9.3641e-07
9.38776e-07
9.31627e-07
8.9566e-07
8.69948e-07
8.47494e-07
8.2303e-07
8.48613e-07
8.66656e-07
9.35338e-07
9.14459e-07
9.82247e-07
9.02452e-07
9.59307e-07
1.06412e-06
1.03467e-06
1.02656e-06
9.82949e-07
1.1383e-06
1.25562e-06
2.71174e-07
1.21457e-07
1.40903e-07
3.08289e-07
4.03884e-07
4.63036e-07
4.85072e-07
5.18032e-07
5.34059e-07
6.29756e-07
6.4427e-07
6.4925e-07
6.41192e-07
6.3594e-07
6.26722e-07
6.19635e-07
5.9194e-07
5.6568e-07
5.14543e-07
4.77413e-07
4.38303e-07
4.14751e-07
3.40196e-07
2.69548e-07
2.43602e-07
4.32446e-07
6.47816e-07
6.27432e-07
5.98385e-07
6.18699e-07
8.19256e-07
5.10015e-07
1.73586e-07
8.30841e-08
9.53504e-08
1.84201e-07
2.7983e-07
3.58806e-07
4.65636e-07
4.50382e-07
3.40375e-07
2.69487e-07
1.7889e-07
7.12832e-08
6.37759e-08
5.15904e-08
5.71133e-08
6.14813e-08
7.96665e-08
2.04205e-07
3.24826e-07
5.73951e-07
6.3123e-07
6.33141e-07
5.00623e-07
5.65352e-07
7.31973e-07
7.74217e-07
7.28881e-07
7.31902e-07
5.07007e-07
5.61207e-08
8.95409e-08
3.34279e-07
3.39614e-07
2.1615e-07
9.1662e-08
7.44853e-08
5.77436e-08
4.66359e-08
4.26414e-08
4.17682e-08
3.85868e-08
3.69104e-08
3.63463e-08
3.38791e-08
3.14727e-08
3.05914e-08
2.48395e-08
2.40111e-08
2.14373e-08
2.2551e-08
2.45792e-08
2.89291e-08
4.64617e-08
6.80943e-08
1.21712e-07
1.705e-07
2.22362e-07
3.97403e-07
2.68638e-07
3.73223e-07
1.85742e-07
2.78012e-08
1.30377e-08
1.80789e-08
4.78507e-08
2.36552e-07
5.24591e-07
6.33541e-07
4.28742e-07
2.40432e-07
1.20603e-07
2.21468e-07
3.1553e-07
4.75956e-07
5.94319e-07
6.79459e-07
7.21436e-07
7.47608e-07
7.71236e-07
7.95559e-07
8.21804e-07
8.39906e-07
8.55948e-07
8.69135e-07
8.74119e-07
8.3266e-07
5.3531e-07
6.66264e-07
1.06366e-06
7.75186e-07
1.0004e-07
5.98927e-08
5.8615e-08
5.67454e-08
5.49946e-08
5.58842e-08
5.817e-08
7.79922e-08
9.61461e-08
1.15373e-07
1.27353e-07
1.34254e-07
1.45554e-07
1.44322e-07
1.50968e-07
1.48539e-07
1.53455e-07
1.5359e-07
1.55363e-07
1.60763e-07
1.71056e-07
2.0236e-07
3.33903e-07
4.64718e-07
5.12566e-07
5.30847e-07
4.98582e-07
1.87083e-07
1.14542e-06
9.86442e-08
1.72261e-08
1.75893e-08
3.0047e-08
4.232e-08
5.28743e-08
6.38464e-08
7.04522e-08
6.88938e-08
5.56606e-08
3.89645e-08
3.01328e-08
2.08253e-08
1.58668e-08
1.21345e-08
1.13454e-08
9.91311e-09
1.01584e-08
9.5724e-09
1.53927e-08
1.69456e-08
2.44689e-08
2.84691e-08
2.81835e-08
1.60562e-08
9.2524e-09
5.95476e-09
4.64351e-09
1.66686e-08
1.3214e-06
8.61412e-07
1.06363e-06
1.21625e-06
1.04946e-06
6.98306e-07
2.3926e-07
8.67499e-08
3.05855e-08
1.56944e-08
1.11827e-08
1.28338e-08
1.74487e-08
2.78698e-08
4.76848e-08
6.69068e-08
7.87516e-08
8.46499e-08
8.74053e-08
8.28861e-08
7.22254e-08
5.84348e-08
4.36241e-08
4.325e-08
4.80307e-08
6.16911e-08
7.81975e-08
9.58083e-08
1.01394e-07
8.7746e-08
3.28898e-07
2.79032e-08
3.49669e-08
4.70447e-08
3.07248e-08
1.8368e-08
1.20468e-08
1.07721e-08
2.04953e-08
5.31552e-08
1.08565e-07
1.57509e-07
1.80682e-07
3.44079e-07
4.18546e-07
4.6239e-07
6.06948e-07
6.44867e-07
6.45477e-07
5.48938e-07
4.19782e-07
2.65286e-07
9.53616e-08
4.18637e-08
1.9067e-08
9.57304e-09
7.79424e-09
1.06254e-08
1.92158e-08
4.05189e-08
3.44141e-07
1.1033e-08
5.60039e-09
8.20647e-09
1.60665e-08
2.84109e-08
4.39288e-08
4.51747e-08
4.54246e-08
4.09236e-08
3.47194e-08
2.76164e-08
2.22622e-08
2.04025e-08
1.91935e-08
2.01853e-08
2.67905e-08
3.67565e-08
6.30732e-08
8.65454e-08
1.68267e-07
1.55191e-07
7.62669e-08
4.00998e-08
2.23042e-08
8.92956e-09
6.31625e-09
2.72803e-08
7.51618e-07
3.89717e-07
1.96664e-07
2.67714e-07
3.63269e-07
6.96706e-07
2.0595e-07
8.84832e-09
2.76765e-09
1.45777e-09
1.16074e-09
1.0319e-09
8.97439e-10
9.14555e-10
9.09497e-10
9.62354e-10
1.05512e-09
9.72029e-10
1.03427e-09
9.35998e-10
8.32627e-10
7.56348e-10
7.49976e-10
9.87689e-10
1.61645e-09
3.44092e-09
6.65948e-09
1.25118e-08
8.01384e-08
9.88651e-07
4.53974e-07
4.42448e-07
8.98385e-07
1.06455e-06
1.18331e-06
1.21931e-06
1.2092e-06
1.17885e-06
1.07778e-06
8.40755e-07
6.13956e-07
6.17307e-07
7.00315e-07
8.86037e-07
1.37008e-06
1.23762e-06
7.94716e-07
8.65726e-07
7.21709e-07
7.20485e-07
7.62689e-07
8.13601e-07
8.60756e-07
8.87422e-07
9.31199e-07
9.36849e-07
9.59916e-07
9.7239e-07
9.81072e-07
9.89431e-07
9.95133e-07
1.02588e-06
1.05558e-06
1.11146e-06
1.12531e-06
1.14134e-06
1.11561e-06
1.08121e-06
1.04026e-06
1.00485e-06
1.06515e-06
1.16162e-06
1.21568e-06
1.10842e-06
8.72857e-07
8.17733e-07
4.63126e-07
2.35721e-07
3.129e-07
3.94609e-07
6.35167e-07
8.12509e-07
8.72038e-07
8.86337e-07
8.93908e-07
8.92109e-07
7.90736e-07
6.00432e-07
4.52663e-07
4.17138e-07
4.07932e-07
4.10877e-07
4.07876e-07
4.49961e-07
5.7486e-07
8.03393e-07
8.64506e-07
9.76079e-07
9.90454e-07
9.80575e-07
1.0546e-06
1.15842e-06
1.22539e-06
1.10955e-06
1.05595e-06
1.28139e-06
1.17269e-07
1.14124e-07
2.95066e-07
4.18274e-07
4.54683e-07
4.64722e-07
4.77594e-07
4.9294e-07
6.3699e-07
6.8903e-07
7.53542e-07
7.47692e-07
7.34436e-07
7.22313e-07
6.98398e-07
6.87416e-07
6.66122e-07
6.53636e-07
6.3848e-07
6.25849e-07
6.13495e-07
6.02702e-07
5.23576e-07
3.54343e-07
2.65581e-07
2.75635e-07
4.34515e-07
5.76793e-07
5.7189e-07
5.79503e-07
7.91875e-07
3.42801e-07
9.66331e-08
1.05357e-07
2.99773e-07
6.32946e-07
8.75841e-07
9.22322e-07
9.19967e-07
8.77412e-07
8.6535e-07
7.71534e-07
7.06608e-07
5.15146e-07
2.46713e-07
7.64019e-08
5.81582e-08
4.90276e-08
5.48158e-08
7.08315e-08
1.71442e-07
3.25786e-07
6.00655e-07
6.33061e-07
5.63599e-07
4.09596e-07
5.11067e-07
6.26536e-07
6.93511e-07
7.29208e-07
3.12217e-07
8.59788e-08
2.97775e-07
2.96265e-07
9.1948e-08
6.92529e-08
6.42459e-08
4.91764e-08
4.65974e-08
4.30359e-08
4.13141e-08
4.33377e-08
4.93727e-08
5.36741e-08
5.42042e-08
5.63866e-08
5.1271e-08
4.55779e-08
4.03763e-08
3.3056e-08
2.45005e-08
2.10304e-08
1.68888e-08
1.86269e-08
2.29288e-08
3.06477e-08
6.00011e-08
8.04102e-08
1.52583e-07
2.63523e-07
2.23415e-07
2.76949e-07
5.9494e-08
1.37887e-08
1.69047e-08
6.23838e-08
3.81191e-07
6.1054e-07
5.1698e-07
8.04681e-08
3.68647e-08
3.28297e-08
6.25504e-08
1.83695e-07
5.08167e-07
7.21405e-07
7.42604e-07
7.2101e-07
6.87538e-07
6.75957e-07
6.84172e-07
7.07088e-07
7.70241e-07
8.36409e-07
8.71844e-07
8.81863e-07
8.83407e-07
8.78388e-07
7.36284e-07
5.75163e-07
1.09219e-06
1.58123e-07
6.5104e-08
4.81026e-08
3.78542e-08
3.31024e-08
2.9707e-08
2.91357e-08
3.22375e-08
4.31999e-08
6.05563e-08
9.98601e-08
1.34717e-07
1.55729e-07
2.73944e-07
2.78974e-07
1.88251e-07
1.90611e-07
1.90768e-07
1.93488e-07
2.0086e-07
2.11678e-07
2.14524e-07
2.18095e-07
3.92375e-07
6.23557e-07
9.0388e-07
9.60724e-07
8.82464e-07
2.26731e-07
5.93494e-07
2.62602e-08
1.78739e-08
2.49223e-08
3.51969e-08
3.95342e-08
4.92098e-08
6.58233e-08
7.13111e-08
6.4109e-08
5.20857e-08
3.19399e-08
2.4672e-08
1.53636e-08
1.65658e-08
1.66043e-08
2.05168e-08
2.84283e-08
3.7226e-08
6.16805e-08
1.80992e-07
3.69575e-07
7.07241e-07
8.6509e-07
9.11942e-07
4.27595e-07
5.26703e-08
1.29843e-08
5.68356e-09
1.30131e-08
1.08792e-06
1.09791e-06
1.35438e-06
1.29857e-06
1.09347e-06
4.44882e-07
6.26536e-08
1.99867e-08
9.06666e-09
1.08421e-08
2.16687e-08
7.05027e-08
1.91468e-07
3.02741e-07
3.31874e-07
5.09913e-07
5.92534e-07
6.82909e-07
7.34527e-07
7.37755e-07
7.56523e-07
7.44634e-07
7.28292e-07
3.56471e-07
1.09594e-07
8.10309e-08
6.59209e-08
1.05221e-07
9.94947e-08
1.01668e-07
1.14117e-07
4.70173e-08
1.23859e-07
1.2679e-07
3.42354e-08
1.33519e-08
1.06549e-08
1.60572e-08
5.91475e-08
1.09698e-07
1.28616e-07
1.39812e-07
1.61283e-07
3.78664e-07
5.8633e-07
7.483e-07
8.19958e-07
8.17661e-07
7.71125e-07
7.54293e-07
7.74324e-07
7.4877e-07
7.01763e-07
2.93305e-07
4.85598e-08
1.73546e-08
8.96592e-09
7.8212e-09
1.22004e-08
2.63069e-08
2.45084e-08
7.09379e-09
8.69448e-09
1.88032e-08
4.03997e-08
5.05585e-08
5.43373e-08
5.61916e-08
5.09008e-08
4.53486e-08
3.66377e-08
2.32535e-08
1.90728e-08
1.71352e-08
1.7006e-08
2.02792e-08
3.61531e-08
8.95829e-08
3.49329e-07
7.28884e-07
7.80621e-07
7.92931e-07
7.04514e-07
2.72533e-07
5.6571e-08
1.60621e-08
5.80974e-09
9.18021e-09
7.54302e-07
3.81088e-07
2.27348e-07
3.01414e-07
5.42675e-07
5.8944e-07
1.34532e-08
2.38333e-09
1.31907e-09
1.23435e-09
1.2133e-09
1.36857e-09
1.56226e-09
1.73582e-09
2.23397e-09
2.20655e-09
2.24838e-09
2.13696e-09
1.87484e-09
1.78874e-09
1.27952e-09
1.07815e-09
7.93204e-10
7.51918e-10
1.22117e-09
3.80983e-09
1.33724e-08
1.97168e-08
2.1671e-08
1.32456e-07
7.11614e-07
4.21434e-07
1.13565e-06
1.235e-06
1.20837e-06
1.18635e-06
1.18514e-06
1.18308e-06
1.18767e-06
1.16092e-06
9.18342e-07
7.12623e-07
7.58482e-07
8.79879e-07
1.28816e-06
1.30686e-06
7.74724e-07
7.89673e-07
7.57638e-07
8.08172e-07
8.60537e-07
8.64983e-07
8.59123e-07
8.63333e-07
9.09231e-07
9.15657e-07
9.29186e-07
9.16514e-07
8.87807e-07
9.07298e-07
9.40403e-07
1.0182e-06
1.0933e-06
1.15146e-06
1.19914e-06
1.22457e-06
1.23215e-06
1.21941e-06
1.17821e-06
1.10807e-06
1.09368e-06
1.15603e-06
1.23698e-06
1.21788e-06
1.01275e-06
8.63487e-07
4.29997e-07
2.73634e-07
3.71864e-07
4.59222e-07
7.48923e-07
8.22129e-07
8.34114e-07
7.58268e-07
4.34888e-07
2.98513e-07
1.71322e-07
1.68083e-07
1.76893e-07
1.93936e-07
3.12329e-07
3.45542e-07
3.34179e-07
3.4134e-07
3.63603e-07
4.7383e-07
6.99818e-07
9.40925e-07
9.73903e-07
1.05061e-06
1.05007e-06
1.17991e-06
1.33803e-06
1.37551e-06
1.11228e-06
1.27242e-06
7.7366e-08
1.43063e-07
3.62197e-07
4.35455e-07
4.17625e-07
4.01402e-07
4.36158e-07
5.91839e-07
7.09615e-07
7.376e-07
7.39508e-07
7.23414e-07
7.07389e-07
6.81722e-07
6.68432e-07
6.51173e-07
6.56363e-07
6.4538e-07
6.53083e-07
6.64966e-07
6.70941e-07
6.64062e-07
6.48567e-07
5.45711e-07
3.26527e-07
2.56233e-07
2.94709e-07
4.77454e-07
5.49606e-07
5.27138e-07
6.81807e-07
1.61508e-07
8.39986e-08
1.82831e-07
5.22578e-07
8.99398e-07
9.68402e-07
9.93684e-07
9.95075e-07
9.78521e-07
9.57133e-07
8.99348e-07
8.2868e-07
7.02322e-07
5.92281e-07
3.95462e-07
2.04575e-07
8.25039e-08
7.28283e-08
8.08859e-08
1.75861e-07
2.96863e-07
5.81767e-07
6.38952e-07
6.34544e-07
4.10752e-07
3.4773e-07
4.02628e-07
5.98453e-07
7.46633e-07
2.59268e-07
2.00929e-07
2.76771e-07
1.00792e-07
7.54438e-08
6.61747e-08
4.96245e-08
4.6413e-08
4.43533e-08
4.56925e-08
5.23294e-08
6.51659e-08
7.4046e-08
8.06572e-08
7.52501e-08
6.99362e-08
6.54947e-08
6.02392e-08
5.50351e-08
4.6628e-08
4.02027e-08
2.88976e-08
2.06756e-08
1.46441e-08
1.37226e-08
2.03708e-08
2.89752e-08
5.62711e-08
7.85504e-08
2.16924e-07
1.6277e-07
1.8809e-07
2.55793e-08
1.38013e-08
4.54601e-08
3.0971e-07
5.95897e-07
4.13486e-07
6.23525e-08
1.57274e-08
1.68009e-08
2.4025e-08
6.94026e-08
3.05536e-07
7.40781e-07
7.73316e-07
7.70701e-07
5.8337e-07
3.07368e-07
2.76579e-07
3.12477e-07
5.15897e-07
6.9971e-07
7.99883e-07
8.70143e-07
8.72575e-07
8.49811e-07
8.31698e-07
7.60688e-07
5.62294e-07
7.77143e-07
7.79399e-08
4.2868e-08
3.43036e-08
2.51453e-08
1.75191e-08
1.51414e-08
1.53588e-08
1.73771e-08
2.49748e-08
3.52432e-08
6.53501e-08
1.28018e-07
1.68079e-07
1.94059e-07
2.02085e-07
2.03877e-07
1.9776e-07
2.16458e-07
2.37918e-07
2.50715e-07
2.27316e-07
2.15826e-07
1.9049e-07
1.90515e-07
3.91206e-07
8.46899e-07
9.459e-07
1.01511e-06
4.08229e-07
9.14182e-08
1.81942e-08
1.84428e-08
2.08857e-08
2.05086e-08
1.94998e-08
2.82689e-08
3.71732e-08
5.23661e-08
4.54262e-08
3.12246e-08
2.15222e-08
1.66221e-08
1.83657e-08
2.35524e-08
4.17885e-08
7.22807e-08
1.01378e-07
2.54875e-07
3.8606e-07
7.35397e-07
8.65942e-07
9.03052e-07
8.15832e-07
8.0734e-07
9.50798e-07
8.21173e-07
4.4242e-08
7.48228e-09
1.36991e-08
1.07424e-06
1.3033e-06
1.34595e-06
1.25738e-06
7.80677e-07
1.12836e-07
2.2523e-08
1.01289e-08
1.32539e-08
3.46394e-08
9.29793e-08
1.09956e-07
1.09303e-07
9.78915e-08
1.14547e-07
1.03522e-07
2.18858e-07
2.9693e-07
5.17189e-07
7.45281e-07
7.4774e-07
7.46311e-07
7.60636e-07
8.36152e-07
7.79939e-07
2.99367e-07
1.08953e-07
1.21177e-07
1.35882e-07
9.85088e-08
8.8864e-08
9.36253e-08
3.65257e-07
1.1011e-07
2.24952e-08
1.06556e-08
1.19151e-08
3.11232e-08
5.66459e-08
5.4219e-08
6.24464e-08
1.13956e-07
3.17328e-07
6.24816e-07
7.88818e-07
8.09374e-07
7.48819e-07
7.227e-07
7.03613e-07
7.1412e-07
6.74027e-07
7.31938e-07
7.91571e-07
7.65299e-07
2.60265e-07
3.45316e-08
1.14979e-08
7.29391e-09
9.89364e-09
2.20219e-08
1.43103e-08
8.20975e-09
1.56177e-08
3.5399e-08
5.17724e-08
6.43355e-08
7.34131e-08
9.45986e-08
1.02891e-07
1.01198e-07
8.64884e-08
5.07713e-08
2.86172e-08
1.76793e-08
1.61943e-08
1.98158e-08
3.46997e-08
9.60827e-08
5.7646e-07
8.339e-07
7.65047e-07
7.83952e-07
8.00172e-07
7.0882e-07
1.0566e-07
2.06253e-08
6.09509e-09
6.08593e-09
1.91156e-07
3.81886e-07
2.49127e-07
3.76094e-07
8.19493e-07
3.90257e-08
3.70269e-09
1.45763e-09
1.24454e-09
1.40556e-09
1.67772e-09
2.21042e-09
2.92639e-09
3.43092e-09
3.71539e-09
4.30064e-09
3.58072e-09
3.60158e-09
3.16929e-09
2.48971e-09
2.11048e-09
1.36875e-09
1.14578e-09
9.89069e-10
1.20622e-09
5.90731e-09
3.40861e-08
4.87944e-08
2.46203e-08
3.51832e-08
1.0396e-06
4.0305e-07
1.21777e-06
1.21419e-06
1.17851e-06
1.20052e-06
1.19611e-06
1.18608e-06
1.16799e-06
1.17549e-06
1.10114e-06
9.3541e-07
9.35105e-07
1.00352e-06
1.24516e-06
1.33465e-06
7.50246e-07
7.83174e-07
7.84571e-07
8.08624e-07
7.8281e-07
7.57931e-07
7.87775e-07
8.18773e-07
8.89109e-07
9.00393e-07
8.7035e-07
8.54061e-07
8.55117e-07
9.24439e-07
1.05525e-06
1.16655e-06
1.23409e-06
1.24432e-06
1.23265e-06
1.22457e-06
1.21156e-06
1.21357e-06
1.22394e-06
1.20113e-06
1.16216e-06
1.1723e-06
1.2587e-06
1.28145e-06
1.11889e-06
8.81674e-07
4.28786e-07
3.0839e-07
3.80617e-07
4.31738e-07
5.88747e-07
5.74797e-07
3.92923e-07
2.37269e-07
1.33196e-07
1.16559e-07
1.09492e-07
1.16164e-07
1.43102e-07
1.81668e-07
3.60646e-07
4.04805e-07
3.73373e-07
3.59829e-07
3.5271e-07
4.19027e-07
6.03309e-07
8.82273e-07
9.51876e-07
1.04181e-06
1.11551e-06
1.22893e-06
1.31873e-06
1.33134e-06
1.25156e-06
1.26386e-06
5.75321e-08
1.60286e-07
3.86679e-07
3.95352e-07
3.95503e-07
3.8695e-07
4.1594e-07
5.75702e-07
6.84989e-07
6.88965e-07
6.24833e-07
5.83601e-07
5.31513e-07
5.05079e-07
4.82609e-07
5.03648e-07
5.23862e-07
5.96621e-07
6.45712e-07
6.62579e-07
6.81273e-07
6.82316e-07
7.07025e-07
6.7835e-07
4.64431e-07
2.87407e-07
2.5258e-07
3.53382e-07
5.31082e-07
5.2188e-07
9.9792e-08
6.56421e-08
7.34627e-08
2.09084e-07
6.19556e-07
9.34423e-07
1.00207e-06
1.05381e-06
1.02513e-06
9.44893e-07
8.00283e-07
7.25347e-07
6.94984e-07
6.59904e-07
6.59612e-07
6.20991e-07
5.01712e-07
4.32388e-07
3.09174e-07
2.76768e-07
2.963e-07
4.3192e-07
5.9583e-07
6.47988e-07
6.62309e-07
4.89736e-07
3.0482e-07
3.10979e-07
4.30295e-07
6.89111e-07
2.35434e-07
2.30087e-07
1.24885e-07
8.56131e-08
6.98709e-08
4.93937e-08
4.2027e-08
4.23719e-08
4.66221e-08
5.43552e-08
7.25946e-08
1.02211e-07
1.05652e-07
8.16975e-08
7.82897e-08
6.74437e-08
6.00801e-08
5.62812e-08
5.32456e-08
5.29166e-08
4.54108e-08
3.97301e-08
2.86808e-08
1.61984e-08
1.26119e-08
1.30635e-08
2.01893e-08
3.00998e-08
6.38425e-08
1.83524e-07
8.54928e-08
7.56824e-08
1.85028e-08
2.265e-08
1.82092e-07
5.65581e-07
4.74678e-07
7.73322e-08
1.38101e-08
1.14095e-08
1.32977e-08
2.24541e-08
5.37702e-08
2.68086e-07
7.38315e-07
7.41292e-07
7.67542e-07
5.36391e-07
2.07402e-07
8.80592e-08
1.8339e-07
3.10295e-07
6.65277e-07
7.90315e-07
8.32996e-07
8.28871e-07
7.81418e-07
8.08486e-07
7.37228e-07
5.59672e-07
4.38915e-07
5.35995e-08
3.2934e-08
2.11817e-08
1.34324e-08
9.80019e-09
8.96073e-09
9.51122e-09
1.06519e-08
1.49436e-08
2.21287e-08
4.89247e-08
1.07589e-07
1.74871e-07
2.09469e-07
2.18433e-07
2.24298e-07
2.61651e-07
4.30621e-07
4.2947e-07
3.09708e-07
1.47384e-07
1.10755e-07
1.16171e-07
1.3574e-07
1.52718e-07
4.76749e-07
9.64545e-07
9.56826e-07
5.10741e-07
4.0814e-08
1.52322e-08
1.54108e-08
1.26383e-08
8.86701e-09
9.24723e-09
1.35189e-08
2.29149e-08
3.34361e-08
3.12184e-08
2.77525e-08
2.26291e-08
2.66926e-08
5.12762e-08
1.16841e-07
3.03613e-07
3.77584e-07
4.7735e-07
5.75982e-07
6.78411e-07
8.2141e-07
8.81559e-07
8.52367e-07
8.3794e-07
7.2585e-07
7.16684e-07
9.10234e-07
2.3854e-07
9.54257e-09
1.33749e-08
1.03848e-06
1.25742e-06
1.22874e-06
1.05517e-06
3.26771e-07
3.70787e-08
1.33638e-08
1.30433e-08
2.5733e-08
4.09903e-08
4.53475e-08
3.83331e-08
4.6565e-08
4.52675e-08
5.58114e-08
6.79428e-08
7.38306e-08
8.39815e-08
9.92668e-08
2.22227e-07
5.36559e-07
8.05617e-07
8.09557e-07
8.25811e-07
8.71535e-07
7.60163e-07
3.31083e-07
2.8572e-07
2.55094e-07
9.38034e-08
9.59727e-08
1.58189e-07
3.90834e-07
5.07582e-08
1.29347e-08
9.77872e-09
1.50269e-08
2.78255e-08
2.60787e-08
3.30784e-08
6.15705e-08
2.57163e-07
6.56429e-07
8.10464e-07
7.91156e-07
7.21004e-07
7.07632e-07
6.85106e-07
6.51584e-07
6.09672e-07
6.25763e-07
6.36515e-07
7.14601e-07
7.9042e-07
5.79857e-07
7.1305e-08
1.55701e-08
7.75426e-09
9.09105e-09
1.94663e-08
1.25875e-08
1.02537e-08
2.6602e-08
5.06302e-08
5.57786e-08
5.99879e-08
8.42158e-08
1.01835e-07
2.32454e-07
3.46779e-07
4.91076e-07
3.02904e-07
7.95238e-08
2.96303e-08
1.63543e-08
1.55827e-08
1.91851e-08
3.99668e-08
3.00396e-07
7.89057e-07
8.00019e-07
7.76693e-07
8.10714e-07
7.6803e-07
2.2611e-07
2.25203e-08
5.81346e-09
5.55286e-09
7.88818e-08
3.82262e-07
2.55723e-07
4.57429e-07
6.40985e-07
1.08106e-08
2.0396e-09
1.27642e-09
1.44021e-09
1.75771e-09
2.79131e-09
4.19782e-09
5.66451e-09
7.41236e-09
8.76954e-09
7.98849e-09
7.20016e-09
6.03294e-09
5.42286e-09
3.75352e-09
3.04442e-09
2.09022e-09
1.26585e-09
1.15321e-09
1.3306e-09
1.13206e-08
7.48211e-08
1.1776e-07
3.75214e-08
4.19625e-08
9.71073e-07
3.77297e-07
1.22831e-06
1.17497e-06
1.20317e-06
1.21164e-06
1.19333e-06
1.20806e-06
1.19426e-06
1.18317e-06
1.17859e-06
1.08094e-06
1.04151e-06
1.07238e-06
1.2278e-06
1.33985e-06
7.36552e-07
7.75398e-07
7.68778e-07
7.26673e-07
6.70498e-07
6.79536e-07
7.53858e-07
8.04995e-07
8.66659e-07
8.91052e-07
8.54452e-07
8.45615e-07
8.66797e-07
1.04666e-06
1.25171e-06
1.2715e-06
1.26025e-06
1.27486e-06
1.28021e-06
1.21676e-06
1.17918e-06
1.16077e-06
1.15036e-06
1.24364e-06
1.22536e-06
1.22272e-06
1.2555e-06
1.30834e-06
1.14894e-06
9.2756e-07
4.30664e-07
3.67501e-07
3.83192e-07
3.71514e-07
3.53702e-07
2.69572e-07
1.33575e-07
1.07807e-07
8.74733e-08
6.58335e-08
6.3424e-08
6.81312e-08
1.0973e-07
1.78248e-07
4.06466e-07
4.55811e-07
4.07625e-07
3.55385e-07
3.32196e-07
4.11421e-07
5.85266e-07
8.64695e-07
9.33918e-07
1.02278e-06
1.10409e-06
1.2023e-06
1.23255e-06
1.21938e-06
1.30551e-06
1.2424e-06
7.37399e-08
2.67173e-07
3.73582e-07
3.82935e-07
3.60341e-07
3.85708e-07
4.08062e-07
5.29691e-07
5.9814e-07
6.10725e-07
5.4886e-07
3.99115e-07
3.70756e-07
3.40671e-07
3.52887e-07
3.73364e-07
4.72282e-07
5.60644e-07
6.3769e-07
6.71253e-07
7.13498e-07
6.86265e-07
7.27424e-07
7.27867e-07
5.81911e-07
3.28737e-07
2.49759e-07
3.11878e-07
4.99132e-07
4.95309e-07
4.45346e-08
4.61339e-08
6.43862e-08
1.91187e-07
5.72636e-07
8.9574e-07
9.96673e-07
9.98028e-07
8.09923e-07
5.85148e-07
4.48578e-07
4.16499e-07
3.71818e-07
3.5922e-07
3.94081e-07
3.78317e-07
4.21271e-07
4.41366e-07
4.64536e-07
4.41584e-07
4.60722e-07
5.2909e-07
6.10446e-07
6.56977e-07
6.72622e-07
5.35439e-07
3.2975e-07
2.676e-07
3.62074e-07
6.5306e-07
2.19306e-07
2.12621e-07
1.0705e-07
7.41895e-08
4.81414e-08
3.74255e-08
3.59788e-08
4.16368e-08
4.96288e-08
6.4177e-08
8.19272e-08
1.0693e-07
1.01843e-07
7.73397e-08
6.86666e-08
6.25173e-08
5.36212e-08
4.81884e-08
4.94469e-08
4.82085e-08
4.79133e-08
4.29233e-08
3.3701e-08
2.09541e-08
1.33815e-08
1.15937e-08
1.33834e-08
2.42876e-08
5.24641e-08
1.73493e-07
7.45919e-08
4.92303e-08
1.70293e-08
5.11555e-08
3.99437e-07
5.10996e-07
2.00439e-07
2.3654e-08
1.0509e-08
9.12326e-09
1.41067e-08
2.01763e-08
3.05504e-08
7.92791e-08
6.53019e-07
7.18827e-07
6.94797e-07
7.77885e-07
3.06685e-07
1.78064e-07
2.22198e-07
5.03786e-07
7.84531e-07
8.11438e-07
8.15054e-07
7.92753e-07
7.92892e-07
7.6591e-07
6.65247e-07
5.48632e-07
2.7363e-07
3.52211e-08
2.31748e-08
1.3734e-08
8.54168e-09
6.60949e-09
6.57823e-09
7.01681e-09
7.19072e-09
1.01047e-08
1.62895e-08
3.3307e-08
7.64855e-08
1.77752e-07
2.25189e-07
2.51003e-07
3.01178e-07
5.37248e-07
4.88572e-07
1.61061e-07
4.79949e-08
1.73024e-08
1.14515e-08
1.38604e-08
4.15246e-08
1.15351e-07
3.82451e-07
9.33621e-07
9.26009e-07
5.50936e-07
2.79909e-08
1.21947e-08
1.0138e-08
6.85418e-09
4.63855e-09
4.5678e-09
7.32338e-09
1.36417e-08
2.53527e-08
3.13705e-08
3.20485e-08
3.94135e-08
7.09066e-08
3.06382e-07
5.08567e-07
6.32823e-07
6.5876e-07
6.23355e-07
6.26074e-07
7.19244e-07
7.35405e-07
8.65347e-07
8.94679e-07
8.72758e-07
8.33984e-07
6.80694e-07
7.51431e-07
6.76348e-07
1.36049e-08
1.3227e-08
1.15634e-06
1.28721e-06
1.19983e-06
7.25696e-07
9.46604e-08
1.94471e-08
1.33966e-08
1.47102e-08
1.79015e-08
1.92202e-08
1.9581e-08
2.60637e-08
4.66025e-08
7.55248e-08
8.25626e-08
8.41326e-08
9.17286e-08
9.77358e-08
1.01463e-07
1.08538e-07
2.79296e-07
5.68134e-07
8.86264e-07
8.55405e-07
8.80755e-07
8.69045e-07
6.53788e-07
5.31745e-07
3.38554e-07
8.78298e-08
1.00687e-07
3.31895e-07
2.91723e-07
2.53844e-08
1.04933e-08
9.92762e-09
1.34686e-08
1.33154e-08
1.77429e-08
4.12639e-08
1.04935e-07
5.48487e-07
8.21529e-07
7.79613e-07
7.36393e-07
7.23308e-07
7.17265e-07
6.79017e-07
6.13628e-07
5.99066e-07
5.78108e-07
5.89268e-07
6.62371e-07
7.48058e-07
7.33886e-07
9.58294e-08
1.81253e-08
8.14105e-09
8.42858e-09
1.93544e-08
1.0956e-08
1.38765e-08
3.48193e-08
5.17371e-08
5.46132e-08
5.18036e-08
5.40783e-08
6.34213e-08
1.10778e-07
3.5295e-07
7.59304e-07
8.04192e-07
6.97575e-07
1.87984e-07
3.02534e-08
1.45312e-08
1.04677e-08
1.74006e-08
6.23686e-08
3.24333e-07
7.94416e-07
8.39129e-07
8.06508e-07
5.96869e-07
9.74381e-08
1.73522e-08
4.79316e-09
4.7645e-09
8.30209e-08
3.59525e-07
2.60001e-07
5.51929e-07
2.15742e-07
5.67371e-09
1.52071e-09
1.27096e-09
1.64056e-09
2.6407e-09
4.2514e-09
6.75156e-09
1.10432e-08
1.51611e-08
1.93778e-08
2.16976e-08
1.78407e-08
1.32351e-08
7.90693e-09
5.93559e-09
3.94709e-09
3.03276e-09
1.74322e-09
1.06468e-09
1.17861e-09
1.36825e-08
1.41578e-07
1.46738e-07
5.65303e-08
5.11822e-08
1.01441e-06
3.42581e-07
1.25081e-06
1.1623e-06
1.21051e-06
1.10948e-06
9.50522e-07
1.0938e-06
1.22304e-06
1.19137e-06
1.20978e-06
1.17641e-06
1.20328e-06
1.13083e-06
1.22358e-06
1.33181e-06
7.64535e-07
7.66243e-07
7.04618e-07
6.3044e-07
6.09398e-07
6.17996e-07
6.45475e-07
6.85613e-07
7.80746e-07
8.77344e-07
8.90533e-07
8.52461e-07
9.06575e-07
1.1711e-06
1.29888e-06
1.28433e-06
1.29538e-06
1.33059e-06
1.3673e-06
1.34651e-06
1.3033e-06
1.16994e-06
1.16894e-06
1.23397e-06
1.2862e-06
1.25387e-06
1.30569e-06
1.3094e-06
1.21193e-06
9.34504e-07
4.52342e-07
3.92596e-07
3.51101e-07
2.7761e-07
2.06922e-07
1.1831e-07
9.53896e-08
7.40879e-08
5.79371e-08
5.36302e-08
5.51173e-08
5.89336e-08
9.30714e-08
1.73833e-07
4.77247e-07
5.66445e-07
4.23592e-07
3.49958e-07
3.29028e-07
4.27328e-07
6.46248e-07
8.71225e-07
9.35435e-07
1.01234e-06
1.08713e-06
1.17081e-06
1.17372e-06
1.13609e-06
1.27207e-06
1.22908e-06
8.2962e-08
2.60309e-07
3.19208e-07
3.34359e-07
3.37552e-07
3.41303e-07
3.86096e-07
5.15044e-07
5.70216e-07
6.13175e-07
5.00378e-07
3.45789e-07
3.04134e-07
2.78751e-07
2.90206e-07
3.59047e-07
5.08802e-07
6.22432e-07
6.76785e-07
7.27427e-07
7.2971e-07
7.08313e-07
7.56703e-07
7.5136e-07
6.85488e-07
3.72276e-07
2.53074e-07
3.09166e-07
4.9772e-07
4.98538e-07
6.50196e-08
4.70662e-08
5.26596e-08
1.03752e-07
4.09343e-07
8.18648e-07
9.40092e-07
9.17583e-07
6.05879e-07
4.53251e-07
3.69252e-07
2.58879e-07
3.37648e-07
2.551e-07
3.45153e-07
2.88868e-07
3.5519e-07
3.61728e-07
4.25204e-07
4.83645e-07
5.33998e-07
5.6998e-07
6.32971e-07
6.6405e-07
6.94187e-07
5.69495e-07
3.53018e-07
2.52487e-07
3.01837e-07
5.8739e-07
2.07317e-07
1.8799e-07
9.2163e-08
5.14133e-08
3.65854e-08
2.73279e-08
3.0775e-08
3.86842e-08
4.85366e-08
6.35487e-08
7.7668e-08
9.52916e-08
7.85565e-08
6.95328e-08
6.53354e-08
5.53624e-08
5.07754e-08
4.31637e-08
4.22238e-08
4.48757e-08
4.84645e-08
4.54149e-08
3.76361e-08
2.4213e-08
1.35965e-08
1.04529e-08
1.20729e-08
2.10244e-08
4.92416e-08
1.59811e-07
6.15831e-08
2.92193e-08
2.1276e-08
8.49522e-08
4.26865e-07
3.04707e-07
5.63917e-08
1.2058e-08
7.88093e-09
1.0212e-08
1.27725e-08
1.38593e-08
1.88606e-08
3.20539e-08
2.27063e-07
7.43972e-07
6.06925e-07
6.94645e-07
7.397e-07
3.10448e-07
3.59663e-07
7.74012e-07
8.65029e-07
8.39069e-07
8.13926e-07
7.83728e-07
7.59731e-07
7.42447e-07
7.21165e-07
6.56803e-07
1.24438e-07
2.29073e-08
1.27777e-08
8.573e-09
6.34257e-09
5.70717e-09
5.39928e-09
5.55023e-09
6.72517e-09
8.07628e-09
1.18839e-08
2.12879e-08