/*--------------------------------*- C++ -*----------------------------------*\
| =========                 |                                                 |
| \\      /  F ield         | OpenFOAM: The Open Source CFD Toolbox           |
|  \\    /   O peration     | Version:  2.1.1                                 |
|   \\  /    A nd           | Web:      www.OpenFOAM.org                      |
|    \\/     M anipulation  |                                                 |
\*---------------------------------------------------------------------------*/
FoamFile
{
    version     2.0;
    format      ascii;
    class       volScalarField;
    location    "0.004450000";
    object      N2;
}
// * * * * * * * * * * * * * * * * * * * * * * * * * * * * * * * * * * * * * //

dimensions      [0 0 0 0 0 0 0];

internalField   nonuniform List<scalar> 
12384
(
0.738116
0.73781
0.737866
0.738005
0.738073
0.738134
0.738268
0.738621
0.739117
0.739673
0.740063
0.741399
0.747305
0.748223
0.750329
0.749501
0.74932
0.749272
0.749278
0.749296
0.749321
0.749349
0.749362
0.749368
0.749367
0.749352
0.749348
0.749326
0.74933
0.749283
0.749295
0.749269
0.749261
0.749245
0.749231
0.749211
0.749182
0.749098
0.748764
0.749872
0.75195
0.751911
0.749821
0.747617
0.744942
0.743664
0.743379
0.74338
0.743524
0.743739
0.743963
0.744175
0.744383
0.744614
0.744868
0.745112
0.745316
0.745476
0.745576
0.745681
0.745655
0.745641
0.745565
0.745322
0.745376
0.745033
0.745053
0.745227
0.744865
0.74372
0.743768
0.745016
0.747091
0.748668
0.744095
0.743413
0.742607
0.742512
0.742678
0.742956
0.743187
0.743347
0.743474
0.743589
0.743696
0.743802
0.74389
0.743965
0.744022
0.744085
0.744006
0.744138
0.743952
0.744051
0.743995
0.743852
0.743541
0.743022
0.743903
0.746043
0.746076
0.745939
0.745954
0.745974
0.745694
0.745624
0.743719
0.742446
0.741839
0.741708
0.741706
0.741586
0.741828
0.741647
0.741959
0.741784
0.74208
0.742368
0.742306
0.743312
0.743531
0.74437
0.744974
0.745534
0.745943
0.746412
0.746381
0.74524
0.745134
0.746664
0.747264
0.747102
0.746769
0.746631
0.746233
0.741325
0.740422
0.741825
0.743165
0.743753
0.743751
0.743403
0.742828
0.742513
0.742067
0.741725
0.741468
0.741235
0.741098
0.740971
0.740882
0.74088
0.74086
0.740953
0.741101
0.741193
0.741493
0.741803
0.742297
0.742865
0.743311
0.743544
0.744701
0.746393
0.744668
0.745092
0.744642
0.742251
0.738976
0.737614
0.738084
0.73953
0.741158
0.742848
0.744025
0.744578
0.744671
0.744638
0.74471
0.744898
0.745141
0.745391
0.745591
0.745702
0.745808
0.745869
0.745938
0.746013
0.746063
0.746105
0.746096
0.745505
0.743971
0.746677
0.750298
0.74967
0.744014
0.738057
0.738211
0.738749
0.739091
0.739487
0.739797
0.740045
0.74016
0.740237
0.740252
0.740252
0.740177
0.740095
0.740019
0.739883
0.739787
0.739767
0.739802
0.739904
0.740168
0.740595
0.741118
0.741578
0.742119
0.742613
0.742626
0.740939
0.753079
0.751064
0.735075
0.731042
0.732667
0.73373
0.734389
0.735021
0.734895
0.735235
0.734958
0.73477
0.734311
0.733866
0.733329
0.73276
0.732332
0.731843
0.731604
0.731171
0.73113
0.730663
0.730724
0.730352
0.730273
0.729853
0.729742
0.729753
0.730014
0.738615
0.749147
0.744436
0.74352
0.744279
0.744407
0.744058
0.743413
0.742532
0.741579
0.740257
0.739111
0.738157
0.737618
0.737511
0.737642
0.737608
0.73772
0.737655
0.737768
0.737778
0.73771
0.737886
0.737913
0.738247
0.738614
0.739094
0.739508
0.739095
0.737845
0.737864
0.74682
0.73548
0.735418
0.735699
0.735351
0.734682
0.733872
0.73327
0.733239
0.734143
0.735484
0.73673
0.737684
0.738369
0.738829
0.739107
0.739257
0.739441
0.739413
0.738853
0.73839
0.737989
0.737085
0.735446
0.73306
0.732091
0.733089
0.735121
0.738389
0.740431
0.751467
0.740257
0.729834
0.729048
0.730066
0.731912
0.733759
0.735147
0.736072
0.736633
0.736927
0.737075
0.737158
0.737214
0.73727
0.73736
0.737446
0.737729
0.737772
0.73813
0.738098
0.738058
0.737732
0.737662
0.735445
0.73128
0.733308
0.747508
0.753701
0.75334
0.753886
0.754251
0.754524
0.75277
0.748545
0.74152
0.734697
0.730844
0.728652
0.72719
0.726222
0.725569
0.724936
0.724441
0.724307
0.724254
0.724603
0.725177
0.726459
0.72843
0.731503
0.734154
0.737106
0.738899
0.742169
0.745988
0.750364
0.753417
0.754043
0.753257
0.738415
0.739811
0.74121
0.742073
0.742144
0.741574
0.740419
0.739484
0.739273
0.739774
0.74033
0.74117
0.745336
0.74819
0.750308
0.749368
0.749186
0.74925
0.749269
0.749307
0.749318
0.749275
0.749194
0.749092
0.74901
0.748982
0.748976
0.749017
0.749032
0.749047
0.749046
0.749018
0.748993
0.748975
0.748992
0.749041
0.749082
0.749089
0.748874
0.749092
0.750277
0.751148
0.751289
0.749173
0.744783
0.743326
0.743404
0.743633
0.744265
0.74504
0.745726
0.746265
0.74669
0.747019
0.74718
0.747075
0.746884
0.74663
0.746413
0.746256
0.746321
0.746401
0.746624
0.746822
0.746615
0.746304
0.745713
0.745381
0.745212
0.744623
0.743845
0.743472
0.744862
0.747771
0.743697
0.74205
0.741984
0.742894
0.743488
0.743788
0.744001
0.744228
0.744495
0.744798
0.74507
0.74529
0.745462
0.745597
0.745692
0.745745
0.74574
0.745647
0.745525
0.745312
0.745085
0.744797
0.744373
0.743547
0.743469
0.744855
0.745813
0.745708
0.745483
0.745609
0.746387
0.745088
0.742791
0.741699
0.741983
0.742729
0.743639
0.744415
0.744822
0.74493
0.74465
0.744113
0.743166
0.741937
0.741584
0.74104
0.741287
0.741505
0.742342
0.743527
0.744759
0.745814
0.746381
0.745966
0.745008
0.745291
0.746302
0.746496
0.746024
0.74598
0.745325
0.741149
0.742205
0.744157
0.744179
0.743026
0.741594
0.741053
0.740568
0.740235
0.739888
0.739556
0.739294
0.739144
0.739034
0.738989
0.738916
0.738854
0.73874
0.73872
0.738805
0.73898
0.739277
0.739919
0.740797
0.741805
0.742693
0.7432
0.743746
0.745004
0.744257
0.744899
0.743406
0.739761
0.737631
0.738334
0.740847
0.743827
0.745547
0.745931
0.744882
0.743302
0.742659
0.742971
0.743892
0.744804
0.745513
0.745972
0.746243
0.746382
0.746466
0.746535
0.746588
0.746678
0.746772
0.746873
0.746897
0.746537
0.744815
0.745828
0.749342
0.745229
0.740243
0.738138
0.738808
0.739159
0.739343
0.739612
0.740015
0.740527
0.741158
0.74169
0.742134
0.742336
0.742515
0.742433
0.742292
0.741957
0.741696
0.741418
0.741271
0.741316
0.741544
0.742144
0.743012
0.743892
0.744389
0.744549
0.744033
0.741594
0.74988
0.740352
0.733052
0.733236
0.735712
0.737128
0.738081
0.738663
0.738988
0.738919
0.738441
0.737709
0.736839
0.736024
0.735441
0.735172
0.734777
0.734817
0.734864
0.735079
0.735799
0.736171
0.737136
0.73703
0.736902
0.734988
0.732817
0.730953
0.730179
0.736809
0.74621
0.744187
0.745131
0.745944
0.745563
0.744485
0.742646
0.740356
0.737723
0.736027
0.735645
0.736555
0.738169
0.739701
0.740766
0.741674
0.742226
0.7425
0.742634
0.742422
0.74192
0.741283
0.740496
0.739797
0.739339
0.739312
0.739648
0.739854
0.738963
0.73791
0.743902
0.736403
0.737662
0.738538
0.737526
0.735685
0.733879
0.733439
0.735688
0.738788
0.740682
0.741757
0.742494
0.743175
0.743846
0.744416
0.745057
0.745308
0.745616
0.745437
0.744801
0.74374
0.742005
0.739449
0.736098
0.733249
0.732482
0.733492
0.735794
0.738516
0.744514
0.733678
0.729583
0.731528
0.734871
0.737422
0.738903
0.7393
0.739375
0.739093
0.738647
0.738141
0.737707
0.737435
0.737418
0.737827
0.738732
0.739917
0.7414
0.742366
0.74289
0.742768
0.741758
0.740354
0.737854
0.73371
0.731529
0.738243
0.750299
0.753587
0.754041
0.754463
0.753621
0.750097
0.743159
0.734512
0.727747
0.724149
0.722116
0.721017
0.720312
0.719996
0.719902
0.71999
0.719767
0.719299
0.71865
0.717809
0.716996
0.716475
0.716491
0.718402
0.721028
0.725479
0.728768
0.732721
0.740595
0.748964
0.753434
0.753468
0.743727
0.745026
0.746225
0.746793
0.746884
0.746528
0.745496
0.743477
0.74144
0.740715
0.740971
0.741499
0.744078
0.747797
0.750296
0.749225
0.74909
0.748998
0.748837
0.748619
0.748328
0.748041
0.747882
0.747882
0.748005
0.748224
0.748475
0.748647
0.74876
0.748773
0.74871
0.748589
0.748441
0.748318
0.7483
0.748409
0.748636
0.748873
0.748896
0.748802
0.74904
0.749778
0.751043
0.749982
0.744568
0.743386
0.743908
0.744315
0.745393
0.746461
0.747198
0.747624
0.747571
0.746949
0.745871
0.744872
0.744191
0.743837
0.743719
0.74376
0.7439
0.744229
0.744836
0.745832
0.746536
0.746686
0.746326
0.745769
0.745482
0.745297
0.74502
0.744352
0.744198
0.746668
0.742492
0.741466
0.742858
0.7437
0.743868
0.74393
0.744209
0.744697
0.745236
0.745675
0.745967
0.74615
0.74627
0.746334
0.746379
0.74643
0.746499
0.746481
0.746508
0.746368
0.74619
0.745876
0.745384
0.744444
0.743623
0.743895
0.744914
0.745506
0.745299
0.745284
0.747016
0.744551
0.742283
0.742311
0.743705
0.745461
0.746878
0.747722
0.748055
0.748126
0.747766
0.747455
0.74663
0.745605
0.743913
0.742196
0.741335
0.740927
0.741186
0.741929
0.743179
0.744759
0.746077
0.746318
0.745447
0.744607
0.74487
0.745521
0.745753
0.745901
0.744458
0.742029
0.743829
0.74366
0.741557
0.740791
0.740593
0.740279
0.739914
0.73951
0.739147
0.739005
0.739211
0.739467
0.739627
0.739641
0.739607
0.739503
0.739314
0.73901
0.738666
0.738403
0.738316
0.738406
0.739038
0.740173
0.74143
0.742382
0.743022
0.744171
0.743793
0.744344
0.741422
0.737912
0.738165
0.741537
0.744842
0.746091
0.745502
0.742333
0.739497
0.738936
0.740495
0.742903
0.745219
0.746475
0.746711
0.746444
0.746129
0.746024
0.746132
0.746352
0.746582
0.746771
0.747006
0.747354
0.747695
0.747553
0.745828
0.745551
0.747368
0.741269
0.738492
0.738136
0.738067
0.737542
0.736943
0.736877
0.73742
0.738492
0.739759
0.741069
0.741998
0.7426
0.742831
0.742727
0.742279
0.741879
0.741487
0.741308
0.74138
0.741598
0.741863
0.742253
0.743214
0.74482
0.746383
0.746776
0.745999
0.74252
0.744602
0.735541
0.733377
0.735209
0.736665
0.737266
0.738195
0.739018
0.73942
0.739079
0.738374
0.737179
0.736137
0.735421
0.735626
0.73655
0.737276
0.738702
0.739527
0.740895
0.742752
0.744014
0.745681
0.746308
0.746192
0.744181
0.739522
0.734548
0.731146
0.736052
0.745316
0.745368
0.746876
0.746984
0.745875
0.743424
0.739836
0.736371
0.734891
0.735757
0.738766
0.741796
0.743066
0.744289
0.744497
0.745302
0.745742
0.746349
0.746931
0.747464
0.747507
0.747495
0.74623
0.744574
0.742429
0.7409
0.740414
0.740727
0.74023
0.738523
0.741934
0.738342
0.741356
0.741698
0.738173
0.734823
0.733452
0.735253
0.739358
0.74071
0.741185
0.74169
0.742568
0.743746
0.744905
0.745857
0.746527
0.747041
0.747258
0.747471
0.747318
0.747008
0.745897
0.743669
0.740048
0.735907
0.733048
0.732794
0.734241
0.737168
0.738237
0.730768
0.731767
0.735715
0.738649
0.73986
0.74033
0.740456
0.740359
0.739907
0.739064
0.737944
0.736838
0.736401
0.736517
0.737551
0.739557
0.741953
0.744653
0.746222
0.747266
0.7472
0.74595
0.743738
0.740545
0.736039
0.731454
0.733711
0.745963
0.753501
0.754213
0.754138
0.751645
0.745501
0.736135
0.72732
0.722475
0.721175
0.721254
0.721781
0.72271
0.723681
0.724224
0.724376
0.72402
0.723549
0.722661
0.721422
0.719897
0.718124
0.716832
0.716638
0.719906
0.726319
0.7324
0.733709
0.735248
0.742019
0.7514
0.753732
0.745663
0.746992
0.747675
0.747801
0.747769
0.747709
0.747436
0.746342
0.744165
0.742369
0.741954
0.742039
0.743656
0.747415
0.750225
0.749005
0.748614
0.748037
0.747483
0.746966
0.74669
0.746694
0.747015
0.747503
0.748074
0.748591
0.748974
0.749115
0.749001
0.748729
0.748386
0.747995
0.747647
0.747352
0.747196
0.747298
0.747712
0.748284
0.748684
0.748731
0.74866
0.748984
0.75037
0.750155
0.744455
0.743598
0.74412
0.744695
0.745953
0.746764
0.746807
0.745927
0.744407
0.743056
0.742327
0.742075
0.742197
0.742528
0.742877
0.743112
0.743183
0.743184
0.743462
0.744232
0.74551
0.746553
0.746499
0.746091
0.745708
0.745796
0.746341
0.746116
0.744639
0.746052
0.741008
0.741925
0.743452
0.743762
0.743748
0.743896
0.744453
0.745193
0.745804
0.746085
0.746123
0.746031
0.745941
0.74589
0.745899
0.745993
0.746185
0.746445
0.746652
0.746822
0.7468
0.746664
0.74626
0.745391
0.74422
0.743624
0.744113
0.745059
0.745229
0.74504
0.746289
0.7427
0.741547
0.742676
0.744874
0.74694
0.748035
0.748417
0.748318
0.748147
0.747806
0.747523
0.747116
0.746772
0.74594
0.744982
0.743528
0.742482
0.742024
0.742401
0.743222
0.744469
0.745887
0.746447
0.745905
0.744562
0.7439
0.744283
0.745149
0.745816
0.743903
0.742978
0.743513
0.741717
0.740919
0.740695
0.740293
0.739825
0.739422
0.739097
0.739173
0.739656
0.740128
0.740263
0.740186
0.740026
0.739871
0.739775
0.739721
0.739633
0.73934
0.738846
0.738277
0.73792
0.737883
0.738664
0.739928
0.741258
0.742295
0.743682
0.743164
0.74343
0.739438
0.737919
0.740765
0.744597
0.746126
0.744962
0.741497
0.737697
0.736715
0.737978
0.741117
0.744343
0.746784
0.747755
0.747206
0.745593
0.744282
0.743957
0.744324
0.745187
0.746095
0.746733
0.747248
0.747858
0.748375
0.748187
0.746274
0.745522
0.74551
0.739416
0.73789
0.737314
0.736069
0.734504
0.733662
0.733723
0.734512
0.735892
0.737772
0.739752
0.741435
0.742309
0.742445
0.742005
0.741412
0.741038
0.741168
0.741667
0.742074
0.742192
0.742207
0.742074
0.742114
0.743502
0.746094
0.748003
0.747612
0.74347
0.740258
0.733839
0.733858
0.734955
0.734916
0.735122
0.736373
0.737754
0.73853
0.738143
0.737038
0.735753
0.735297
0.736142
0.737515
0.739742
0.741101
0.742227
0.743579
0.744651
0.74613
0.74767
0.749029
0.749914
0.750315
0.749492
0.746127
0.739287
0.732916
0.735988
0.745331
0.746404
0.747422
0.747106
0.74501
0.741067
0.736877
0.735136
0.736262
0.739872
0.742228
0.742593
0.741985
0.741918
0.742126
0.742443
0.743056
0.743968
0.745244
0.746798
0.748179
0.748737
0.749011
0.748199
0.746137
0.743653
0.742106
0.741951
0.741499
0.739172
0.740983
0.740644
0.743617
0.741475
0.736815
0.733823
0.734072
0.737598
0.739225
0.73909
0.739802
0.741374
0.743397
0.745339
0.746708
0.74752
0.748058
0.748354
0.748612
0.748515
0.748665
0.748503
0.747973
0.746508
0.743325
0.738762
0.734476
0.732723
0.73358
0.736451
0.735357
0.731188
0.734719
0.7384
0.739926
0.740502
0.74098
0.741514
0.742038
0.742259
0.741788
0.740464
0.738567
0.736756
0.736496
0.737289
0.739402
0.742193
0.745496
0.747805
0.74891
0.748879
0.748084
0.74591
0.74254
0.737464
0.731783
0.731882
0.742755
0.753383
0.754295
0.753549
0.748953
0.7401
0.729721
0.722933
0.72104
0.721623
0.722871
0.724495
0.725977
0.726959
0.727407
0.727373
0.727107
0.72634
0.725423
0.724129
0.722479
0.72042
0.718421
0.717734
0.720338
0.729098
0.736851
0.738139
0.735537
0.737973
0.748215
0.753997
0.746395
0.747741
0.747919
0.747594
0.747383
0.747526
0.747657
0.747323
0.745799
0.743873
0.743041
0.742706
0.743572
0.747084
0.750102
0.748623
0.747762
0.746885
0.746278
0.745978
0.74608
0.746502
0.74716
0.747931
0.748738
0.749339
0.7496
0.749427
0.748741
0.747911
0.747219
0.746693
0.74636
0.746025
0.745822
0.745896
0.746447
0.747362
0.748213
0.748584
0.748546
0.748633
0.749852
0.750205
0.744386
0.743847
0.744175
0.744662
0.745352
0.745251
0.744266
0.742759
0.741708
0.741245
0.741018
0.741161
0.741706
0.742564
0.743346
0.743708
0.743632
0.743328
0.743267
0.743774
0.744914
0.746193
0.74652
0.746214
0.74588
0.746223
0.747262
0.747447
0.745634
0.745833
0.74043
0.742454
0.743582
0.743716
0.743719
0.744002
0.744681
0.745377
0.745848
0.745924
0.745668
0.745327
0.745044
0.744899
0.744869
0.745015
0.745303
0.745776
0.746273
0.746673
0.746921
0.747044
0.746818
0.746153
0.744939
0.743792
0.743645
0.74453
0.745105
0.744901
0.742553
0.740789
0.741133
0.742945
0.745364
0.747227
0.747901
0.747672
0.747062
0.746256
0.745644
0.745318
0.745282
0.745559
0.745719
0.746122
0.745554
0.745216
0.744628
0.744283
0.744478
0.745137
0.746035
0.746567
0.74623
0.744837
0.743463
0.743436
0.744366
0.745611
0.743657
0.743189
0.742583
0.74117
0.740773
0.740232
0.739563
0.739307
0.739132
0.739226
0.739839
0.740455
0.740578
0.740347
0.739983
0.739618
0.739394
0.739274
0.739285
0.739386
0.739482
0.739301
0.738706
0.737955
0.737451
0.737636
0.738638
0.740093
0.74161
0.743332
0.742633
0.742175
0.738399
0.73901
0.743311
0.745844
0.745381
0.742204
0.737752
0.735588
0.735915
0.737931
0.740655
0.743949
0.746947
0.748347
0.747793
0.745299
0.743223
0.742628
0.742985
0.744302
0.745804
0.746916
0.747792
0.748544
0.748873
0.748365
0.746285
0.745496
0.744079
0.738521
0.737211
0.735776
0.733527
0.731774
0.731095
0.731182
0.731927
0.733359
0.735568
0.738257
0.740727
0.74208
0.742245
0.741651
0.741338
0.74183
0.742769
0.743158
0.74272
0.742056
0.741434
0.741685
0.741775
0.742198
0.744698
0.748135
0.748531
0.744297
0.73779
0.733426
0.733646
0.733148
0.73181
0.732129
0.73384
0.736011
0.737526
0.737576
0.736774
0.736331
0.737161
0.739736
0.741542
0.743635
0.744147
0.744833
0.745309
0.745817
0.74657
0.747606
0.748792
0.74987
0.750604
0.750879
0.749187
0.743063
0.734501
0.73668
0.745535
0.746933
0.747473
0.746285
0.743018
0.738352
0.735838
0.736087
0.738649
0.740345
0.739704
0.738879
0.739252
0.73978
0.740477
0.740803
0.741147
0.741427
0.742005
0.743144
0.745155
0.747093
0.748716
0.749081
0.748202
0.746048
0.744109
0.743503
0.742773
0.739726
0.741005
0.742361
0.743866
0.739848
0.735067
0.733594
0.735365
0.73733
0.736898
0.738029
0.740102
0.742895
0.745633
0.747332
0.747927
0.748134
0.748205
0.748523
0.748884
0.749264
0.749299
0.749207
0.748911
0.747958
0.745391
0.740956
0.735938
0.732996
0.733408
0.736153
0.733909
0.732368
0.736941
0.739392
0.740043
0.7403
0.740697
0.741559
0.742898
0.744216
0.744784
0.744087
0.741962
0.739059
0.736657
0.73633
0.737416
0.740119
0.744022
0.746743
0.748483
0.748859
0.748367
0.746547
0.743137
0.737937
0.731718
0.731188
0.741827
0.75338
0.754278
0.752656
0.745739
0.73533
0.725609
0.721453
0.721433
0.723194
0.72528
0.727387
0.729064
0.730144
0.730632
0.730657
0.730061
0.729149
0.727859
0.726423
0.724702
0.722474
0.719753
0.718276
0.720824
0.732881
0.74021
0.74064
0.737138
0.738352
0.748433
0.7542
0.746763
0.748096
0.747694
0.746692
0.74611
0.746619
0.747454
0.747584
0.746649
0.744967
0.744011
0.743329
0.743632
0.746886
0.749923
0.748046
0.746857
0.746093
0.745704
0.745701
0.745967
0.746401
0.747015
0.747895
0.748904
0.749595
0.749772
0.749019
0.747688
0.746558
0.746034
0.745934
0.745888
0.745647
0.745304
0.745062
0.7454
0.746413
0.747621
0.74837
0.74847
0.74849
0.74964
0.750201
0.744413
0.744101
0.744012
0.743955
0.743898
0.743174
0.742082
0.741166
0.740668
0.740274
0.740066
0.740303
0.741137
0.742529
0.743821
0.744294
0.744013
0.743484
0.743275
0.74377
0.744887
0.746165
0.746511
0.746259
0.746041
0.746536
0.747701
0.748089
0.746492
0.745855
0.740529
0.742829
0.743555
0.743647
0.743706
0.744028
0.744632
0.745316
0.74579
0.745787
0.745335
0.744756
0.744344
0.744139
0.744194
0.744527
0.744929
0.74546
0.746002
0.746534
0.746938
0.747185
0.747143
0.746709
0.745559
0.744149
0.743453
0.744168
0.744969
0.744847
0.74024
0.740307
0.740976
0.74282
0.745101
0.746726
0.747216
0.746634
0.745537
0.744283
0.743486
0.743129
0.743063
0.7431
0.74342
0.743739
0.744349
0.744795
0.745149
0.745194
0.74533
0.745703
0.746232
0.746653
0.746376
0.745125
0.743606
0.742982
0.743695
0.745341
0.743498
0.743004
0.741914
0.740845
0.74014
0.739287
0.739133
0.739178
0.739211
0.739579
0.74026
0.74062
0.740493
0.740105
0.739655
0.739227
0.738959
0.738768
0.738782
0.73895
0.739226
0.739378
0.739039
0.738198
0.737299
0.737086
0.737756
0.73924
0.74108
0.743228
0.742126
0.740942
0.738185
0.741026
0.745013
0.7456
0.743446
0.739128
0.735837
0.735117
0.736032
0.737199
0.738836
0.741988
0.745939
0.748669
0.749011
0.746993
0.744239
0.742895
0.74331
0.745
0.746752
0.747996
0.748564
0.748669
0.748187
0.747325
0.746079
0.745517
0.74314
0.737982
0.736377
0.73405
0.731458
0.729991
0.729418
0.729421
0.730097
0.731333
0.733498
0.73658
0.739985
0.742043
0.742341
0.742081
0.742637
0.743603
0.743831
0.742338
0.73963
0.736761
0.735947
0.7373
0.740456
0.741821
0.743771
0.74779
0.748994
0.744772
0.736355
0.733085
0.732631
0.73067
0.729076
0.729272
0.73142
0.734138
0.736793
0.737772
0.737774
0.738302
0.740258
0.742936
0.74451
0.745133
0.745329
0.745362
0.745602
0.745815
0.746175
0.746726
0.747516
0.748666
0.749662
0.750613
0.750285
0.745696
0.736129
0.73735
0.745805
0.746987
0.746986
0.745002
0.740898
0.737151
0.735998
0.736753
0.737691
0.737149
0.736506
0.737744
0.739762
0.741589
0.742419
0.742501
0.742306
0.741998
0.741822
0.74214
0.74344
0.745301
0.747555
0.748773
0.748697
0.747363
0.745762
0.745059
0.743942
0.74015
0.741324
0.743354
0.743188
0.737705
0.734119
0.733769
0.734962
0.735047
0.735662
0.738323
0.741399
0.744872
0.747311
0.747842
0.747405
0.747142
0.747565
0.748318
0.74902
0.749371
0.749611
0.74958
0.749356
0.748611
0.746404
0.74219
0.736896
0.733384
0.733514
0.736195
0.733186
0.733723
0.738094
0.73922
0.73907
0.738718
0.738843
0.739792
0.741711
0.744178
0.746216
0.746863
0.745843
0.74297
0.739216
0.736265
0.735507
0.73713
0.741034
0.744361
0.746781
0.747699
0.747351
0.745548
0.742263
0.736662
0.730847
0.730834
0.741824
0.753475
0.754224
0.751901
0.743069
0.7318
0.723514
0.721239
0.722413
0.724918
0.727613
0.730069
0.732011
0.733356
0.734097
0.734259
0.733726
0.732158
0.730355
0.728323
0.726483
0.724492
0.721343
0.718332
0.719577
0.73376
0.742066
0.741774
0.738654
0.738737
0.747666
0.754426
0.747002
0.748317
0.747299
0.745445
0.744274
0.745264
0.747063
0.747718
0.747128
0.745774
0.744839
0.743817
0.743734
0.746701
0.749578
0.747332
0.746193
0.745685
0.745471
0.745469
0.745573
0.745716
0.746138
0.747099
0.748449
0.749468
0.749649
0.748594
0.746981
0.746133
0.746113
0.746674
0.74706
0.74672
0.745868
0.745131
0.745027
0.745812
0.747176
0.748181
0.748391
0.748429
0.749515
0.750182
0.744509
0.744261
0.743778
0.743213
0.742691
0.74183
0.740982
0.740438
0.739998
0.739584
0.739455
0.739715
0.740673
0.742553
0.744337
0.744819
0.744306
0.74368
0.743503
0.744137
0.745378
0.746412
0.746558
0.746252
0.746126
0.746699
0.74779
0.748287
0.747137
0.745974
0.740814
0.742874
0.743282
0.743383
0.743462
0.743798
0.744424
0.745228
0.745779
0.745868
0.745309
0.744528
0.743947
0.743645
0.7438
0.744388
0.745161
0.745795
0.746298
0.746704
0.747043
0.747263
0.747331
0.746989
0.745938
0.744375
0.743417
0.743986
0.744879
0.744782
0.740666
0.740415
0.740685
0.742318
0.744535
0.746196
0.746645
0.745964
0.744688
0.743364
0.742821
0.742524
0.742684
0.742637
0.742869
0.742688
0.743134
0.743537
0.744241
0.744833
0.745319
0.745784
0.746275
0.746655
0.746451
0.745333
0.743781
0.74283
0.743206
0.744989
0.743382
0.742796
0.741507
0.740366
0.739187
0.738495
0.738818
0.73908
0.73927
0.739665
0.740193
0.740457
0.740309
0.739911
0.739504
0.739088
0.738801
0.738617
0.738553
0.73868
0.739061
0.739382
0.739229
0.738317
0.737173
0.736769
0.737266
0.738761
0.740932
0.743091
0.74152
0.739971
0.73881
0.742591
0.745191
0.744555
0.74124
0.737245
0.735325
0.735551
0.736123
0.736328
0.736978
0.7392
0.743563
0.747991
0.749848
0.749139
0.746423
0.744255
0.744433
0.746125
0.747558
0.748007
0.747788
0.7474
0.74722
0.747067
0.746787
0.746099
0.742534
0.737376
0.735429
0.732562
0.730027
0.728747
0.728275
0.728265
0.728984
0.730213
0.732118
0.735067
0.739086
0.742028
0.742662
0.742924
0.743969
0.744386
0.742573
0.737836
0.733347
0.730762
0.730305
0.730793
0.734962
0.740256
0.74339
0.747645
0.749108
0.745048
0.735436
0.732611
0.731384
0.728854
0.727793
0.727926
0.729422
0.732413
0.736066
0.738372
0.738968
0.739849
0.741816
0.7442
0.745027
0.745055
0.745004
0.745127
0.745436
0.745867
0.746327
0.746635
0.747011
0.747491
0.748478
0.74971
0.750262
0.746739
0.737482
0.737977
0.745839
0.746964
0.746282
0.743562
0.740027
0.737288
0.736122
0.735701
0.735115
0.734499
0.735544
0.739094
0.742309
0.744564
0.745077
0.744627
0.743929
0.743347
0.742703
0.742614
0.743431
0.745122
0.747108
0.74832
0.748588
0.747805
0.746886
0.746398
0.744907
0.740358
0.741844
0.743749
0.74123
0.73596
0.733522
0.733197
0.732984
0.733134
0.735446
0.739172
0.742732
0.746387
0.747747
0.747108
0.745985
0.746297
0.747481
0.74896
0.749377
0.749695
0.749702
0.749781
0.749441
0.748751
0.746565
0.742315
0.73707
0.733627
0.733886
0.736447
0.733058
0.734866
0.738254
0.738368
0.737597
0.737051
0.737052
0.737552
0.739059
0.741879
0.745402
0.747711
0.748139
0.746825
0.74347
0.739014
0.735194
0.734095
0.736174
0.739865
0.74271
0.744561
0.744183
0.742636
0.739072
0.733901
0.729319
0.730903
0.742585
0.753665
0.754161
0.751357
0.741377
0.729868
0.722724
0.721351
0.723352
0.726422
0.729445
0.732294
0.734639
0.736483
0.737797
0.738307
0.737633
0.73584
0.732945
0.730121
0.727626
0.725837
0.72328
0.719068
0.71769
0.731207
0.742642
0.742987
0.740526
0.743172
0.750656
0.754474
0.747223
0.74844
0.746959
0.744132
0.742188
0.743425
0.746199
0.747505
0.74749
0.746609
0.74561
0.744188
0.743822
0.746427
0.749386
0.746877
0.745634
0.745328
0.745179
0.745054
0.744892
0.744729
0.744901
0.745856
0.747528
0.749026
0.74959
0.748714
0.747197
0.746512
0.746943
0.747807
0.748153
0.74778
0.746618
0.745504
0.745156
0.745752
0.7471
0.748115
0.748343
0.74841
0.749475
0.750174
0.744611
0.74453
0.743764
0.742703
0.741886
0.741115
0.740502
0.740063
0.739669
0.739404
0.739329
0.739585
0.740453
0.742602
0.744905
0.745269
0.74469
0.744143
0.744272
0.745198
0.746252
0.746695
0.746509
0.746193
0.746205
0.746754
0.747724
0.748315
0.747361
0.7461
0.741053
0.74262
0.742405
0.742431
0.742502
0.743061
0.743977
0.745003
0.745815
0.746048
0.745636
0.744649
0.743775
0.743391
0.743418
0.744146
0.745088
0.745982
0.746534
0.746874
0.747132
0.747332
0.747393
0.747071
0.745953
0.744346
0.743348
0.743957
0.744824
0.744687
0.741817
0.740378
0.740268
0.741704
0.743893
0.745686
0.746267
0.745676
0.744367
0.743162
0.742672
0.742739
0.743015
0.74324
0.743073
0.743044
0.742999
0.743022
0.743466
0.744101
0.744829
0.745546
0.746179
0.746583
0.746357
0.745374
0.743909
0.742844
0.742988
0.744831
0.743248
0.742566
0.741175
0.739723
0.738142
0.737641
0.73823
0.738758
0.739123
0.7395
0.739915
0.740135
0.740062
0.739811
0.739486
0.739102
0.738834
0.73871
0.738656
0.738797
0.739127
0.739412
0.739173
0.738141
0.736964
0.736625
0.737228
0.738925
0.7413
0.743126
0.741058
0.739208
0.739518
0.743535
0.744924
0.74297
0.739419
0.736546
0.735594
0.736032
0.73604
0.735665
0.73573
0.736841
0.74026
0.7458
0.749767
0.750373
0.748551
0.745754
0.745025
0.74605
0.74686
0.747028
0.747201
0.747453
0.746968
0.746094
0.74614
0.746606
0.741578
0.736904
0.73455
0.731496
0.72929
0.728183
0.727619
0.727613
0.728269
0.729739
0.731561
0.73397
0.738474
0.742159
0.743008
0.743593
0.744745
0.74416
0.739408
0.733278
0.730074
0.729199
0.728989
0.728988
0.730485
0.736891
0.742729
0.747608
0.749068
0.744812
0.734598
0.731969
0.730117
0.728073
0.727715
0.727694
0.728236
0.730855
0.735603
0.738896
0.739784
0.740277
0.742309
0.744277
0.744794
0.74467
0.74474
0.74511
0.746003
0.747032
0.747664
0.747812
0.747417
0.747375
0.747701
0.74913
0.750088
0.746752
0.738049
0.7391
0.746071
0.746544
0.745586
0.743316
0.74067
0.738374
0.736446
0.734759
0.733448
0.733072
0.735874
0.740958
0.744873
0.747126
0.747113
0.745736
0.744687
0.74412
0.743656
0.743816
0.744894
0.746033
0.746864
0.747411
0.747891
0.747766
0.747544
0.747216
0.745224
0.740006
0.742201
0.743433
0.739422
0.734606
0.732648
0.73154
0.730884
0.73197
0.735758
0.739926
0.743891
0.747002
0.74764
0.746124
0.744956
0.745791
0.747581
0.748982
0.749419
0.749631
0.749669
0.749632
0.74923
0.748359
0.745686
0.741259
0.736341
0.733842
0.734593
0.736948
0.733037
0.735508
0.737947
0.737571
0.736951
0.736787
0.736817
0.736724
0.736849
0.738525
0.742182
0.746555
0.748631
0.748623
0.747075
0.743667
0.738335
0.733444
0.731822
0.733873
0.736562
0.738271
0.738559
0.737226
0.734206
0.730288
0.728051
0.731437
0.742966
0.753771
0.754144
0.75138
0.740917
0.729229
0.722459
0.721471
0.72395
0.727284
0.73068
0.733718
0.736536
0.738716
0.740537
0.741363
0.740907
0.739254
0.735665
0.731913
0.728381
0.726384
0.724716
0.720647
0.71643
0.725299
0.742076
0.744976
0.74435
0.746719
0.75131
0.752383
0.747291
0.748593
0.746852
0.743132
0.740434
0.741422
0.744534
0.746637
0.747256
0.747022
0.746056
0.744449
0.744106
0.746242
0.74724
0.749282
0.748826
0.746094
0.74487
0.744695
0.744696
0.744545
0.744238
0.743947
0.743953
0.744641
0.746372
0.748382
0.749515
0.749122
0.747776
0.746998
0.747439
0.748197
0.74846
0.74806
0.746985
0.74597
0.745655
0.746224
0.747354
0.748114
0.748314
0.748559
0.749699
0.749682
0.7478
0.745557
0.744777
0.744808
0.744009
0.742857
0.741908
0.741066
0.740472
0.740066
0.739759
0.73962
0.739558
0.739795
0.740445
0.742685
0.745295
0.74582
0.74525
0.745043
0.745618
0.746385
0.746774
0.746721
0.746357
0.746106
0.746205
0.746773
0.747624
0.748345
0.747749
0.746694
0.744858
0.742248
0.741307
0.741852
0.740658
0.740272
0.74053
0.741563
0.742999
0.74447
0.745672
0.746274
0.746093
0.745198
0.744024
0.743259
0.74307
0.743474
0.744396
0.745475
0.746214
0.746667
0.746994
0.747174
0.747147
0.746676
0.74553
0.743967
0.74326
0.744047
0.74477
0.744631
0.744662
0.744846
0.742131
0.740224
0.739912
0.740979
0.743162
0.745156
0.746007
0.745556
0.744273
0.743109
0.74263
0.74287
0.743282
0.743464
0.743393
0.743237
0.743074
0.743055
0.743324
0.743802
0.744545
0.745374
0.746104
0.746439
0.746157
0.745245
0.743942
0.7429
0.742789
0.744349
0.745589
0.745437
0.743569
0.742213
0.740802
0.739079
0.737182
0.736615
0.737212
0.737989
0.738674
0.739179
0.739538
0.739714
0.739751
0.739716
0.739542
0.739195
0.73893
0.738928
0.738941
0.739084
0.739295
0.739301
0.738689
0.737542
0.736774
0.736794
0.737825
0.739744
0.741723
0.74274
0.740519
0.739791
0.740412
0.738991
0.740247
0.743608
0.744108
0.74163
0.738669
0.736549
0.73602
0.736236
0.735829
0.735185
0.735045
0.735566
0.73753
0.742635
0.748502
0.750688
0.750006
0.747269
0.745363
0.745234
0.745853
0.746645
0.747518
0.747465
0.745628
0.743303
0.743156
0.744808
0.744466
0.742519
0.740803
0.73612
0.733659
0.730698
0.728737
0.727778
0.727416
0.727434
0.728121
0.729614
0.731577
0.733618
0.737949
0.742436
0.743215
0.7443
0.74517
0.743552
0.736716
0.731597
0.72979
0.730922
0.731199
0.730284
0.729145
0.735166
0.742521
0.747784
0.748774
0.744503
0.740401
0.734861
0.733817
0.731265
0.729431
0.728305
0.728235
0.728085
0.728012
0.73001
0.735094
0.739453
0.740226
0.740224
0.742338
0.744318
0.74461
0.744346
0.74451
0.745448
0.74708
0.748626
0.74926
0.748959
0.748152
0.747371
0.747683
0.749202
0.74938
0.744876
0.738506
0.740072
0.743779
0.745525
0.746072
0.746376
0.745283
0.743809
0.742257
0.74065
0.738462
0.735699
0.733197
0.732598
0.736543
0.742453
0.746495
0.748617
0.748363