/*--------------------------------*- C++ -*----------------------------------*\
| =========                 |                                                 |
| \\      /  F ield         | OpenFOAM: The Open Source CFD Toolbox           |
|  \\    /   O peration     | Version:  2.1.1                                 |
|   \\  /    A nd           | Web:      www.OpenFOAM.org                      |
|    \\/     M anipulation  |                                                 |
\*---------------------------------------------------------------------------*/
FoamFile
{
    version     2.0;
    format      ascii;
    class       volScalarField;
    location    "0.004450000";
    object      O2;
}
// * * * * * * * * * * * * * * * * * * * * * * * * * * * * * * * * * * * * * //

dimensions      [0 0 0 0 0 0 0];

internalField   nonuniform List<scalar> 
12384
(
0.0011002
0.00105784
0.00100049
0.000991015
0.00085179
0.000913211
0.00101267
0.00122808
0.00148702
0.00178726
0.00225292
0.00434028
0.0256442
0.0314628
0.0535357
0.0446165
0.042778
0.0423461
0.0424513
0.042669
0.04295
0.0432596
0.0433962
0.0434442
0.0434294
0.043247
0.043196
0.0429356
0.042976
0.0424635
0.0425917
0.0423107
0.042228
0.0420477
0.041906
0.0416735
0.0413468
0.040424
0.036946
0.0483775
0.0707959
0.0705312
0.0481995
0.025307
0.0047467
0.00152944
0.00105797
0.000967144
0.00128848
0.0016744
0.0020786
0.00252218
0.00293861
0.0033935
0.00426415
0.00565268
0.00681531
0.00769958
0.0082798
0.00884764
0.00861945
0.00868059
0.0081618
0.00722636
0.00744595
0.00623137
0.0064613
0.0080479
0.00707014
0.00470573
0.00450377
0.00750865
0.0209851
0.0359036
0.00169654
0.000830447
0.000296806
0.000336973
6.658e-05
0.000520903
0.00098882
0.00133393
0.00158822
0.00175275
0.00184131
0.00195694
0.00203304
0.00203707
0.00207851
0.00213616
0.00189222
0.00208084
0.00168561
0.00182711
0.00169308
0.00168254
0.0012609
0.000583176
0.00152982
0.0108196
0.0112087
0.0100923
0.0102225
0.0103997
0.00851177
0.0075833
0.00123249
0.000211647
0.00014727
0.000125558
0.00013621
0.000104933
0.000138168
0.00011654
0.000125098
0.000132515
0.000151464
0.000184619
0.000175509
0.00091203
0.00111384
0.0021417
0.00367838
0.00686967
0.00966071
0.0137315
0.0136008
0.00578621
0.00527035
0.0162091
0.0218941
0.0203055
0.0171138
0.015959
0.0121204
8.18705e-05
3.59888e-05
0.00015239
0.00055438
0.00146517
0.00143934
0.000964099
0.000234164
0.000261187
0.00021149
0.000157476
0.000128688
0.000102954
9.64173e-05
8.04042e-05
6.16666e-05
5.59757e-05
5.88633e-05
7.34019e-05
8.60425e-05
9.35353e-05
0.000119887
0.00014351
0.000185019
0.000378805
0.000897274
0.00118418
0.00251438
0.0135935
0.00250705
0.00439843
0.00247465
0.000186908
2.20675e-05
8.91387e-06
1.09376e-05
2.55279e-05
8.34025e-05
0.00020182
0.00165237
0.00238739
0.00255159
0.00260437
0.00269728
0.00351122
0.00484571
0.00627702
0.00730902
0.00795201
0.00879151
0.00932311
0.00998987
0.0106289
0.0110428
0.0114109
0.0113187
0.00702954
0.00166651
0.0159383
0.0531171
0.0465044
0.00239848
4.93964e-05
1.65891e-05
2.72168e-05
5.42297e-05
6.20282e-05
7.24459e-05
7.44522e-05
8.06591e-05
8.24313e-05
8.58926e-05
8.69646e-05
8.57844e-05
8.56927e-05
9.27654e-05
8.31368e-05
8.94362e-05
8.97546e-05
0.000103753
0.000113924
0.00012635
4.29208e-05
0.000162775
0.000299355
0.000456961
0.000602482
0.000615311
0.000186883
0.0829319
0.0612591
1.14834e-05
3.61031e-06
4.96281e-06
7.71451e-06
1.01912e-05
1.09467e-05
1.05623e-05
1.09842e-05
7.80348e-06
7.47712e-06
5.2113e-06
3.15882e-06
2.45288e-06
1.98562e-06
1.83072e-06
1.24258e-06
1.20367e-06
8.14943e-07
9.47441e-07
4.30186e-07
5.69983e-07
7.69233e-07
4.10255e-07
1.29909e-06
1.01483e-06
1.03955e-06
9.51082e-07
5.69297e-06
0.0407805
0.00508484
0.00328346
0.00464744
0.00467694
0.00343254
0.00188399
0.000684282
0.000317456
0.000112065
3.65364e-05
-3.93032e-06
1.50887e-05
1.48332e-05
1.33726e-05
1.07803e-05
1.19044e-05
1.02317e-05
1.0778e-05
1.00077e-05
1.35756e-05
1.33409e-05
1.75357e-05
-8.94666e-06
1.29674e-05
4.73268e-05
0.000105829
0.000108372
7.29074e-05
8.7627e-05
0.0174069
1.02779e-05
9.0029e-06
9.83977e-07
7.83025e-06
5.00323e-06
3.25518e-06
2.28719e-07
1.94582e-07
3.78624e-06
9.17967e-06
1.80724e-05
2.36678e-05
-7.28593e-08
2.43878e-05
3.53074e-05
3.4274e-05
3.55606e-05
3.83613e-05
1.93572e-05
7.1312e-06
1.24682e-05
1.01606e-05
6.42542e-06
8.86192e-07
2.02285e-06
1.05112e-06
6.4836e-06
4.06541e-06
-3.78973e-05
0.0661707
3.00534e-05
1.20622e-06
9.96283e-07
1.30296e-06
2.4516e-06
4.88399e-06
6.58335e-06
9.62852e-06
7.00923e-06
1.00093e-05
7.91589e-06
9.27874e-06
9.35598e-06
8.31294e-06
9.03483e-06
8.13108e-06
9.91963e-06
8.93466e-06
-1.449e-06
-3.13207e-06
9.83396e-06
1.00709e-05
1.06951e-05
4.84604e-06
1.21413e-06
1.26106e-06
0.024133
0.0900922
0.0861663
0.0922434
0.096091
0.0989643
0.0800456
0.0348507
7.22024e-05
2.3864e-06
7.62737e-07
4.06639e-07
1.60735e-07
2.71543e-07
2.28925e-07
1.98488e-07
6.70408e-08
1.2784e-07
1.8368e-09
1.71817e-07
1.95056e-07
4.21289e-07
4.9089e-07
1.391e-06
4.60324e-06
1.72711e-05
3.44313e-05
0.000238081
0.0101355
0.0540862
0.0869776
0.0937844
0.0852366
0.000638776
0.00108323
0.00173262
0.00233102
0.00238855
0.00201068
0.00130801
0.0011372
0.00122154
0.00158116
0.0020726
0.00358698
0.0140951
0.0312175
0.0533222
0.0432739
0.0414914
0.0422452
0.0424603
0.0428661
0.0429737
0.0424947
0.0416151
0.0405068
0.0396289
0.039299
0.0392247
0.0396482
0.0397852
0.0399391
0.0399173
0.0396192
0.0393608
0.0391847
0.0393645
0.0398788
0.040294
0.0403555
0.0380752
0.0403025
0.0526894
0.0620898
0.0637841
0.0413073
0.00371176
0.00096217
0.000898251
0.00141593
0.00253584
0.0049587
0.00884925
0.0132444
0.0166592
0.0197483
0.0212578
0.0202798
0.0184866
0.0162101
0.0144787
0.0132116
0.0136534
0.014346
0.0161282
0.0179755
0.0161958
0.0140517
0.00972403
0.00848891
0.00834679
0.00662733
0.0052072
0.00431495
0.00720629
0.0270944
0.00125254
0.000253039
0.000301127
0.000505739
0.00159466
0.00229257
0.00262068
0.00302007
0.00340807
0.00389912
0.00521962
0.0062778
0.00706077
0.00770072
0.00809988
0.00835673
0.00823903
0.00766513
0.00686147
0.00565619
0.0043731
0.00288259
0.00236227
0.00129246
0.00107621
0.00310757
0.00886764
0.0082434
0.00705812
0.00775247
0.0139228
0.00436956
2.83476e-05
0.000122121
0.000174954
2.73772e-05
0.00126425
0.00231231
0.00303491
0.00351523
0.00240067
0.00172156
0.00062344
0.000149348
0.000119918
8.63265e-05
0.000101716
0.000125207
0.00018753
0.00113085
0.0025324
0.00854358
0.0134621
0.0101112
0.00452006
0.00620098
0.0132719
0.0149342
0.0111004
0.01074
0.00553321
5.56724e-05
0.000176171
0.00199376
0.00207008
0.000432041
0.000156165
8.43068e-05
1.32731e-05
5.52186e-05
4.70031e-05
4.53726e-05
3.92634e-05
3.14474e-05
3.06803e-05
3.07501e-05
2.60173e-05
2.80983e-05
2.03387e-05
1.85138e-05
1.6584e-05
2.11116e-05
2.4707e-05
3.29352e-05
6.52074e-05
0.000145876
0.000190415
0.000774314
0.00141175
0.00388417
0.00202912
0.00330341
0.00105644
3.18561e-05
9.18099e-06
1.43228e-05
6.28389e-05
0.00144342
0.00686032
0.0095016
0.00301977
0.000689566
0.000258272
0.000362276
0.00151654
0.00272776
0.00666395
0.00991228
0.0122636
0.0135069
0.0142629
0.0149018
0.0154034
0.0161835
0.0169815
0.0180676
0.0182923
0.0150016
0.00308457
0.00856149
0.0430165
0.00626416
0.000130092
1.6305e-05
4.04745e-05
4.63111e-05
5.07971e-05
5.26324e-05
6.49359e-05
1.18773e-07
8.45368e-05
0.000170026
0.000254924
0.000283803
0.000311245
0.000304989
0.000308263
0.000263293
0.000246631
0.000201345
0.00021388
0.000197124
0.000262015
0.00043774
0.0007399
0.00232574
0.00321068
0.0035164
0.00281053
0.000350984
0.0486308
0.000106112
6.44425e-06
6.32672e-06
1.51679e-05
2.71421e-05
3.96882e-05
5.65288e-05
4.37582e-05
4.32582e-05
7.57537e-06
2.54852e-05
1.45751e-05
4.76306e-06
7.92054e-06
5.33774e-06
4.50299e-06
3.91463e-06
4.06862e-06
4.02861e-06
2.46315e-06
4.43147e-06
1.26009e-05
1.46503e-05
1.43832e-05
6.83768e-06
2.79958e-06
9.17241e-07
4.39801e-07
6.48533e-06
0.0139176
0.00458334
0.0074355
0.0116752
0.00900612
0.00387964
0.000564803
9.70111e-05
2.02466e-05
3.71152e-06
1.44494e-06
3.28364e-06
4.16776e-06
2.32212e-05
2.56243e-05
0.000103686
0.00014742
0.000169358
0.000182038
0.000164537
0.000122309
7.36425e-05
-3.86383e-05
3.68525e-05
3.35781e-05
4.72923e-05
6.7379e-05
0.000103959
6.63416e-05
7.79915e-05
0.00132395
9.82113e-06
2.11068e-05
1.18918e-05
1.72657e-05
-1.82713e-06
2.40724e-06
1.13509e-06
8.48799e-07
1.17238e-05
-5.41155e-05
0.000198899
0.0003676
0.000699311
0.00173417
0.00257405
0.00455882
0.00592322
0.00748182
0.00621465
0.00253709
0.00115905
0.00016316
3.0918e-05
6.25331e-06
2.43384e-07
2.1128e-06
2.29291e-06
3.28688e-06
8.02365e-06
0.00186432
3.7077e-06
1.18072e-06
2.16184e-06
6.19785e-06
1.5726e-05
3.51091e-05
3.64296e-05
3.74621e-05
1.99517e-05
6.95061e-06
-7.80162e-06
1.15611e-05
1.11244e-05
9.82704e-06
1.12062e-05
9.39086e-06
3.36891e-05
6.9822e-05
0.000156232
0.000149928
-0.000149314
9.67887e-05
4.02813e-05
1.36947e-05
1.57969e-06
1.39632e-06
-5.65384e-07
0.0534534
0.08884
0.0939061
0.0983283
0.0892219
0.0513406
0.000345645
2.69125e-06
3.41089e-07
3.86756e-08
1.05121e-07
3.46198e-08
9.63349e-08
1.01004e-07
1.00576e-07
9.681e-08
9.82797e-08
7.84691e-08
9.3099e-08
3.96993e-08
1.26488e-08
6.79307e-08
6.57845e-08
4.27329e-08
1.83148e-07
5.61602e-07
1.48394e-06
3.87007e-06
9.49427e-05
0.0391356
0.0871569
0.0875281
0.00548352
0.0088545
0.0151819
0.0190525
0.0197383
0.0170746
0.0107891
0.00464275
0.00218278
0.00175494
0.00226142
0.00360123
0.00944779
0.0276304
0.0532043
0.0418525
0.0405627
0.0395962
0.0378601
0.0355252
0.0325223
0.029595
0.0279963
0.0279875
0.0292632
0.0314708
0.0340113
0.0357366
0.0369431
0.0370632
0.0364106
0.0351317
0.0336791
0.0324865
0.0322928
0.0333525
0.0356061
0.0380964
0.0383241
0.0373247
0.0397551
0.0473812
0.0609819
0.0498511
0.00322445
0.000895529
0.00173413
0.00261601
0.00685598
0.0146513
0.0213153
0.0253587
0.0248555
0.0190032
0.00997431
0.00423207
0.00280965
0.00222031
0.00209315
0.00217242
0.00237882
0.00292116
0.00408886
0.00982468
0.0154343
0.0168386
0.01425
0.0103117
0.00945922
0.0092694
0.00848961
0.00657488
0.00600522
0.0174786
0.000255115
0.000176539
0.000395967
0.00203896
0.00234543
0.00243155
0.00276627
0.0033126
0.00584159
0.00815376
0.0103784
0.0118152
0.0127515
0.01326
0.0135836
0.0139883
0.0145209
0.0143543
0.0145685
0.0133528
0.0118563
0.00920375
0.0062447
0.00249341
0.00136251
0.00157438
0.00339573
0.00699163
0.00605088
0.00600321
0.0193491
0.00221817
0.000195479
0.000217557
0.00134921
0.00690418
0.0182604
0.0262991
0.0297518
0.0304642
0.026769
0.0236667
0.0156883
0.0072579
0.00152386
0.000178776
0.000105304
7.99233e-05
9.62569e-05
0.000153988
0.000721339
0.0025235
0.0108248
0.0129658
0.00684222
0.00309476
0.00396242
0.0075865
0.00901489
0.0101373
0.00202798
0.000158782
0.00152075
0.00137717
0.000155979
3.08498e-05
3.78401e-05
6.01395e-05
5.0598e-05
4.35532e-05
3.48044e-05
4.09286e-05
5.01548e-05
6.21681e-05
6.52856e-05
7.08833e-05
6.48553e-05
5.1983e-05
4.45213e-05
3.20713e-05
1.77841e-05
1.36387e-05
8.58501e-06
1.42227e-05
2.21274e-05
3.62801e-05
0.000116693
0.000192893
0.000577519
0.0019
0.00150047
0.00213038
0.000122536
9.99123e-06
1.26271e-05
0.000123527
0.0029236
0.0109371
0.00660461
0.000167573
3.6293e-05
2.33369e-05
1.20318e-05
0.000106429
0.00486215
0.0141866
0.0162429
0.0139211
0.0111831
0.010279
0.0112176
0.0131238
0.0152239
0.0169102
0.0193423
0.0226982
0.0259753
0.024607
0.0089769
0.0067239
0.0230354
0.000151093
3.05975e-05
-1.27377e-06
2.86196e-05
2.39972e-05
1.60014e-05
1.51438e-05
2.2773e-05
1.29036e-05
6.37309e-05
6.36673e-05
0.000257878
0.000356676
0.000136349
-2.04694e-05
0.00042483
0.000350943
0.000299357
0.000256361
0.000303575
0.000381305
0.000464889
0.0005479
0.00125631
0.00405926
0.0142593
0.0174119
0.0113195
0.000619151
0.00331893
1.19397e-05
6.8466e-06
1.11362e-05
2.06338e-05
2.44596e-05
3.71549e-05
3.06472e-05
4.70468e-05
3.15516e-05
-1.86746e-06
1.79371e-05
5.74693e-06
7.56932e-06
1.01161e-06
6.89565e-06
1.16875e-05
1.79658e-05
3.52431e-05
5.99994e-05
-3.04462e-05
0.00182581
0.00809561
0.0132783
0.0124553
0.00224688
4.03004e-05
4.79402e-06
1.12563e-06
2.08113e-06
0.00829095
0.00856392
0.0188315
0.0199021
0.0107372
0.00126464
6.10177e-05
6.33321e-06
2.87969e-06
4.22936e-07
6.75117e-06
8.54375e-05
0.000186693
0.00176638
0.00196578
0.00538069
0.00785685
0.0131218
0.0184165
0.0236807
0.0241056
0.0239838
0.0121302
0.00214867
0.000197189
1.12149e-05
6.64116e-05
-1.05444e-05
0.000114963
4.62194e-05
0.000160957
4.81979e-07
9.84574e-05
0.000157916
-8.89805e-06
4.78753e-06
2.14538e-06
6.45492e-06
4.13166e-05
1.17675e-05
0.000105934
0.000169281
0.000322221
0.00148421
0.00368573
0.00928479
0.0148905
0.0196245
0.0216982
0.0237716
0.0222916
0.0192278
0.00943926
0.00121116
4.54808e-05
3.75505e-06
7.66802e-07
2.43997e-06
3.79418e-06
1.37156e-05
1.41206e-05
1.80335e-06
2.35431e-06
8.15467e-06
3.09748e-05
4.32397e-05
4.74159e-05
5.31449e-05
4.35209e-05
3.63524e-05
1.84631e-05
1.24874e-05
7.28022e-06
5.13726e-06
5.22521e-06
1.14661e-05
2.88897e-05
0.000148665
0.00222246
0.0121334
0.0217553
0.0211322
0.00980983
0.00117202
-1.49531e-05
3.76936e-06
1.08814e-06
1.53693e-06
0.00987958
0.0879176
0.0957189
0.0948146
0.0679479
0.00636401
3.58719e-06
-2.56443e-10
1.47252e-07
9.51774e-08
9.42132e-08
1.41317e-07
1.98894e-07
2.50442e-07
1.97943e-07
1.89796e-07
7.54688e-08
3.33933e-07
2.52138e-07
9.43974e-08
1.28021e-07
3.87627e-08
7.53377e-08
6.56958e-08
1.21039e-07
6.4388e-07
4.27742e-06
8.08461e-06
9.28032e-06
0.000228218
0.06521
0.0903964
0.0118693
0.0207648
0.0263952
0.0275492
0.0272365
0.0266383
0.0243189
0.0158225
0.00629102
0.00311707
0.00316167
0.00390761
0.00803173
0.0245213
0.0524838
0.0396072
0.0355201
0.029536
0.0240104
0.0191187
0.0165948
0.0166465
0.0196939
0.0242459
0.0299507
0.0351937
0.0392219
0.0406878
0.0394719
0.0366191
0.0331239
0.0293146
0.0259904
0.0235327
0.0222336
0.0230705
0.0265284
0.0321275
0.0360739
0.0366089
0.0358359
0.0391903
0.0536955
0.0516407
0.00292901
0.00130085
0.00227477
0.00326711
0.0103709
0.0170186
0.0175154
0.0102342
0.00289343
0.000775295
0.000443898
0.000398415
0.000446655
0.000539242
0.000603849
0.00108416
0.00123297
0.00118347
0.0016903
0.00302019
0.00780871
0.0157231
0.0154635
0.0127814
0.0104573
0.0115167
0.0156716
0.014384
0.00709527
0.0134207
6.36686e-05
0.000319068
0.00154244
0.00213978
0.00208311
0.00218518
0.00278983
0.00539458
0.00889206
0.0112362
0.0115676
0.0108142
0.01007
0.00957332
0.00963451
0.0103282
0.011936
0.0140694
0.015822
0.0173654
0.0171395
0.0159568
0.0125609
0.00637367
0.00214811
0.00124158
0.00179681
0.00432109
0.00557028
0.00460598
0.0126007
-0.000104776
0.000128954
4.46606e-06
0.00359142
0.0189147
0.0295602
0.0334202
0.0324202
0.0307102
0.0272425
0.0244597
0.0205263
0.0169364
0.00962887
0.00374773
0.00113049
0.000202228
0.000162706
0.000193388
0.000768574
0.0021999
0.00917301
0.0140351
0.0096796
0.00306605
0.00214829
0.00279566
0.00574112
0.00957366
0.00138331
0.000306218
0.00112466
0.00019186
5.5997e-05
1.58168e-05
6.06297e-05
4.98251e-05
4.6041e-05
3.8193e-05
5.64632e-05
8.39712e-05
0.000102969
0.000121496
0.000109986
0.000103506
9.32331e-05
8.09092e-05
7.30494e-05
5.75811e-05
4.56396e-05
2.78385e-05
1.36462e-05
1.04148e-05
9.73608e-06
1.76075e-05
3.32747e-05
0.000103709
0.000185834
0.00133065
0.000774398
0.00108565
2.81778e-05
1.00919e-05
6.9002e-05
0.00234087
0.0112553
0.00356797
0.000104281
1.01879e-05
9.5668e-06
1.7558e-05
7.29351e-05
0.00185236
0.0168889
0.0265441
0.0211283
0.00696117
0.00170639
0.00132683
0.00174531
0.00463894
0.0109252
0.0165253
0.0216699
0.0276871
0.0330276
0.0310824
0.0126832
0.00658405
0.00763272
6.90696e-05
3.42135e-05
2.30694e-05
8.80768e-06
7.35839e-06
4.87873e-06
5.11856e-06
7.28023e-06
4.4695e-06
2.47715e-05
6.69786e-05
0.000152553
0.000350352
0.000446792
0.000406083
0.000305631
0.000200534
0.000316308
0.000460229
0.000598129
0.000536772
0.000526874
0.000453125
0.000461218
0.00167075
0.0118885
0.0292207
0.0253292
0.00171384
9.64087e-05
7.05425e-06
7.41101e-06
8.79353e-06
8.62543e-06
8.05194e-06
1.56472e-05
2.33664e-05
1.09495e-05
-4.72887e-06
1.56746e-05
4.65567e-06
7.6574e-06
4.07728e-06
1.55217e-05
4.10144e-05
8.31788e-05
0.000204784
0.00111916
0.00255359
0.01155
0.0257463
0.0398336
0.0492095
0.0534754
0.0446554
0.0117315
3.73062e-05
2.33483e-06
2.9483e-06
0.00819563
0.0153415
0.0238252
0.0208868
0.00513042
8.3214e-05
9.75617e-06
3.70851e-06
3.23771e-06
2.70176e-05
0.000152156
0.000212832
0.000190597
0.000160436
0.00022754
0.000214333
0.00045835
0.00161193
0.005207
0.0171594
0.0310105
0.0368315
0.0397403
0.0312136
0.0115183
0.00103957
0.000166518
0.000189461
0.000151815
6.45212e-05
5.79321e-05
-4.16311e-05
0.00131844
0.000116369
1.03146e-05
2.19702e-06
3.41954e-06
1.76212e-05
3.51416e-05
2.90608e-05
5.05668e-05
9.4214e-05
0.000915305
0.00593318
0.0163261
0.024258
0.0297563
0.0328485
0.0355373
0.0345218
0.0360926
0.0343895
0.0288772
0.0146623
0.000766164
1.37661e-05
4.04656e-06
2.09235e-06
1.55517e-06
7.3322e-06
5.21969e-06
2.17742e-06
5.89767e-06
2.34956e-05
4.43746e-05
7.28235e-05
9.36121e-05
8.52297e-05
0.000148837
0.000143155
0.000109673
-5.96598e-05
9.38649e-06
7.52491e-06
4.12671e-06
1.0817e-05
2.60252e-05
0.000174876
0.00656114
0.0271348
0.038661
0.0383223
0.0300175
0.00947326
0.00020961
1.16194e-05
1.27257e-06
1.54416e-06
-0.000211615
0.0866408
0.0965687
0.0884333
0.0391178
3.08131e-05
7.45022e-07
1.8443e-07
1.00694e-07
1.05715e-07
1.91336e-07
1.92415e-07
4.86033e-07
6.92676e-07
2.19838e-07
5.30217e-07
7.53968e-07
6.58843e-07
4.70451e-07
1.68848e-08
2.0492e-07
1.50565e-07
5.68607e-08
5.14026e-08
1.24226e-07
1.17858e-06
2.02845e-05
3.41671e-05
1.10547e-05
2.09971e-05
0.0312863
0.0932543
0.0164563
0.0269704
0.0286852
0.0256951
0.0239015
0.0250902
0.0261701
0.023348
0.0121729
0.00598219
0.00453319
0.00438437
0.00760831
0.0219563
0.051209
0.0355952
0.0266868
0.0182036
0.0131171
0.0107137
0.0116245
0.0149983
0.0209929
0.0284753
0.0367465
0.0430703
0.0457952
0.0439125
0.0367256
0.0285016
0.0224027
0.0181188
0.0159525
0.0138192
0.0125046
0.012984
0.0164907
0.0235677
0.0314579
0.0350884
0.0347401
0.0355793
0.0481635
0.052148
0.00284771
0.0016421
0.0023874
0.00306391
0.00632486
0.00577184
0.00251813
0.000205688
0.000255704
0.000170463
0.000132293
0.000165761
0.000301595
0.000500675
0.00144363
0.00210097
0.0019589
0.00154982
0.00135513
0.00230772
0.00460728
0.0128405
0.0155643
0.0136382
0.0116858
0.0144659
0.0226935
0.0242831
0.0112401
0.0120363
7.13199e-05
0.000410807
0.0017507
0.00203881
0.00198593
0.00221638
0.00289153
0.00620228
0.00913711
0.00977418
0.00788791
0.00611982
0.00460009
0.00383691
0.00362785
0.00445522
0.00595535
0.0085596
0.0126995
0.0160479
0.0183855
0.0195957
0.0174329
0.0117818
0.00379916
0.00158279
0.00126934
0.00244377
0.00485281
0.00388103
0.000208731
5.35044e-05
8.68445e-05
0.000359579
0.00642257
0.0216804
0.0282313
0.0259674
0.0204502
0.0137851
0.00919331
0.00735286
0.00699489
0.00810757
0.00872192
0.0114439
0.00698161
0.00509147
0.00241086
0.00200604
0.0022229
0.0046005
0.010463
0.0150782
0.012358
0.00366624
0.00144361
0.00146397
0.00299955
0.00831695
0.00109936
0.000665345
0.000293702
0.000100777
3.09259e-05
5.57444e-05
4.38092e-05
4.06304e-05
4.61132e-05
5.35872e-05
9.53658e-05
7.60291e-05
5.78206e-05
0.000126777
0.000112272
9.30973e-05
7.57896e-05
7.3442e-05
6.66201e-05
7.00402e-05
5.61677e-05
4.54954e-05
2.75076e-05
1.19425e-05
8.13914e-06
9.03745e-06
1.73862e-05
3.5306e-05
0.00013158
0.000925318
0.000219216
0.000182119
1.53838e-05
2.31442e-05
0.000893643
0.00881634
0.00598475
0.000164203
8.73614e-06
2.90286e-06
3.87315e-06
1.68785e-05
1.50601e-05
0.00139337
0.018577
0.0327787
0.0269867
0.00527155
0.000466214
0.000166217
0.000201092
0.00172023
0.00835367
0.0183036
0.0270037
0.0347838
0.0382655
0.0329374
0.0127131
0.00643108
0.0023239
1.81255e-05
2.1518e-05
2.91438e-06
3.08674e-06
3.42489e-06
2.30424e-06
2.71455e-06
3.57706e-06
3.02659e-06
1.22012e-05
1.35865e-05
-5.01521e-06
0.000340632
0.000436983
0.000378493
0.000350806
0.000519185
0.000458317
0.0010686
0.000189629
0.000309831
0.000170888
0.000208664
0.000288102
0.000385264
0.00341341
0.0305768
0.0345757
0.00315682
2.6003e-05
5.57137e-06
5.8445e-06
4.24356e-06
2.30289e-06
2.55891e-06
2.40905e-06
5.98469e-07
2.11259e-05
1.8759e-05
1.34859e-05
6.52683e-06
1.56161e-05
5.08592e-05
0.000155561
0.00145114
0.00218174
0.00324732
0.00595228
0.00891928
0.0153907
0.0251552
0.0373595
0.0487223
0.0565936
0.0595241
0.0414876
0.000415358
3.28073e-06
5.7999e-06
0.00910248
0.0194946
0.024179
0.0136501
0.000495269
6.28071e-06
-4.74339e-07
1.09131e-06
3.42864e-06
3.61762e-05
3.53174e-05
2.3854e-05
3.63923e-05
4.34998e-05
-1.21519e-05
4.40173e-05
9.90422e-05
0.000121955
0.000187097
0.000618342
0.00488227
0.0201451
0.0365791
0.0404289
0.0312352
0.0107512
0.00161635
0.000856058
-0.00014277
9.22377e-05
5.41481e-05
0.000317492
0.00165449
4.12574e-05
5.19571e-06
1.39857e-06
6.39926e-06
1.55504e-05
9.6956e-06
2.07492e-05
5.89792e-05
0.000163224
0.00751253
0.0224207
0.028404
0.0305489
0.0312916
0.034614
0.0384298
0.0424847
0.0428552
0.0418791
0.0386798
0.0287279
0.00613235
5.87667e-05
3.70749e-06
5.67782e-07
1.74163e-06
3.56745e-06
4.36375e-06
2.95397e-06
1.42314e-05
4.34075e-05
4.67491e-05
5.6921e-05
-3.18019e-05
9.0493e-05
5.53781e-06
0.00161468
0.0022962
0.00130742
0.000107409
1.19482e-05
6.01303e-06
5.42577e-06
1.02375e-05
3.66866e-05
0.00148759
0.0166022
0.0341619
0.0381162
0.0329613
0.0148999
0.000414273
1.40715e-05
1.41366e-06
9.03017e-07
8.76171e-05
0.0866053
0.0963814
0.0787867
0.00771181
4.29204e-06
2.37503e-07
5.64536e-08
1.16061e-07
2.57284e-07
4.28977e-07
4.83503e-07
1.33548e-06
8.56676e-07
1.94861e-06
1.37598e-06
1.99935e-06
1.54519e-06
8.79588e-07
7.27098e-07
2.61861e-07
2.66679e-07
1.23766e-07
9.50553e-08
-3.44167e-09
3.69601e-06
7.8412e-05
-1.45563e-05
2.00476e-05
3.08994e-05
0.0335731
0.0954371
0.0188756
0.0304046
0.026553
0.0183332
0.0145723
0.0178571
0.0245027
0.025572
0.0179002
0.00884996
0.00699841
0.00600395
0.00762358
0.0204302
0.0493307
0.0296299
0.0178589
0.0113999
0.0084578
0.00847841
0.0105858
0.014131
0.0195678
0.0280843
0.0385052
0.0457544
0.0475857
0.0395904
0.0264226
0.0173904
0.0140789
0.0135663
0.0133461
0.0119473
0.010387
0.00925639
0.01053
0.01631
0.0258231
0.0330251
0.0340129
0.0342242
0.0459387
0.0520527
0.00286548
0.00217261
0.00221081
0.00206526
0.00194814
0.000763144
0.000306288
0.000154708
5.70758e-05
8.72768e-05
8.18076e-05
9.33381e-05
0.00013552
0.000481055
0.00225001
0.00300053
0.00245134
0.00169885
0.00129113
0.00222915
0.00436432
0.0125689
0.015447
0.0139168
0.0127563
0.0164961
0.0263467
0.03022
0.0165639
0.0121342
2.44409e-05
0.000364888
0.00175305
0.00190118
0.0018371
0.00226286
0.00283071
0.00571603
0.00830261
0.00833731
0.00591772
0.00290248
0.00247587
0.00218887
0.00235345
0.00273203
0.0039699
0.00693986
0.0105308
0.0149499
0.0186106
0.0209806
0.0205995
0.0164597
0.00734271
0.00209737
0.00106435
0.00195449
0.00403208
0.00347992
4.71896e-05
5.07308e-05
5.02562e-05
0.000161868
0.00496885
0.0169254
0.0217301
0.0166622
0.00873383
0.00391
0.0022037
0.0016531
0.00141976
0.0014189
0.00203936
0.00237589
0.00314469
0.0033854
0.0050023
0.00498535
0.0057146
0.00782461
0.012173
0.0158258
0.013592
0.00522326
0.00174021
0.000841226
0.00193765
0.00686639
0.000924133
0.00045006
0.000217553
5.01574e-05
5.68926e-05
3.35447e-05
3.04328e-05
3.89165e-05
4.71537e-05
7.89038e-05
0.0001208
5.49275e-05
8.27439e-05
0.000114993
9.46193e-05
8.02847e-05
6.60918e-05
5.4203e-05
5.06791e-05
5.50874e-05
5.88146e-05
5.41841e-05
3.58191e-05
1.13095e-05
9.10319e-06
7.47727e-06
9.37902e-06
2.48299e-05
8.92537e-05
0.000804396
0.000179043
8.3393e-05
1.3037e-05
8.79911e-05
0.0039344
0.00723761
0.000998208
2.13319e-05
4.30127e-06
4.08018e-06
6.57448e-06
1.27421e-05
2.48342e-05
0.000146743
0.00955582
0.0361415
0.0398074
0.0190182
0.00162462
6.48664e-05
0.000467299
0.00359775
0.0166091
0.0291207
0.0350098
0.0360972
0.0310972
0.0223247
0.010769
0.00659435
0.000753852
2.84405e-05
9.7553e-06
5.71218e-06
2.50362e-06
1.99727e-06
1.78645e-06
2.03377e-06
2.13031e-06
2.48299e-06
4.48075e-06
1.75399e-05
8.53876e-05
0.000350933
0.000519254
0.000568112
0.000822164
0.00218518
0.0022966
0.000361837
4.80637e-05
8.86007e-06
3.22905e-06
8.236e-06
-5.95439e-06
0.000230677
0.00197555
0.0270611
0.0394033
0.00392248
8.93955e-06
-3.22544e-07
3.28418e-06
8.89887e-07
9.01205e-07
8.56437e-07
1.20918e-06
3.95364e-06
1.2184e-05
1.87726e-05
2.04077e-05
1.04801e-05
8.26581e-05
0.000502602
0.00327849
0.00555926
0.00659855
0.0065774
0.00775635
0.00919669
0.0120872
0.0167873
0.0243187
0.0359946
0.0465023
0.0567187
0.0531968
0.00809709
4.31631e-06
6.72949e-06
0.0107891
0.0199845
0.0197627
0.00489628
-2.85726e-06
7.99054e-06
1.66828e-06
5.04085e-06
9.06266e-06
9.57423e-06
6.7854e-06
1.69831e-05
4.36278e-05
0.000114297
0.000169459
0.000179515
0.000191075
0.000204263
0.000201382
0.000233531
0.00109329
0.00582864
0.0246524
0.0371677
0.0363244
0.0227657
0.00806061
0.00403788
0.00156675
0.00010485
8.7894e-05
0.00095612
0.000618934
1.45379e-05
2.99099e-06
1.50207e-06
4.84729e-06
4.66798e-06
5.57011e-07
8.62412e-06
0.000101541
0.00333259
0.0222191
0.027496
0.0231061
0.0205085
0.0246822
0.0324711
0.0398704
0.0436215
0.0461775
0.0458506
0.0434246
0.0354954
0.0137441
0.000182947
9.02824e-06
1.72659e-06
1.13715e-06
6.20799e-06
3.37574e-06
4.83173e-06
2.11633e-05
4.45289e-05
2.63777e-05
8.26788e-06
1.47175e-05
5.01986e-05
0.000137424
0.00169403
0.0119523
0.0177323
0.00865741
0.000125162
1.89271e-05
3.85124e-06
4.30397e-06
7.94761e-06
4.60049e-05
0.00185929
0.0169334
0.0259993
0.0226075
0.0068262
0.000177875
5.52739e-06
4.53416e-07
3.9918e-07
0.000103548
0.087653
0.0957977
0.0706627
0.00015333
1.29499e-06
2.01186e-07
6.05807e-08
1.80633e-07
2.51953e-07
5.22855e-07
1.9628e-06
3.84194e-06
3.72435e-06
8.62195e-06
9.68077e-06
5.11269e-06
5.02053e-06
5.30808e-07
8.71717e-07
6.85011e-07
2.55737e-07
1.51073e-07
7.26567e-08
1.23142e-07
2.80332e-06
0.000208805
0.000191223
5.25986e-06
1.7468e-05
0.0256909
0.0978635
0.0209483
0.0325382
0.023252
0.0108529
0.00679076
0.0100869
0.0213595
0.0267484
0.0218319
0.0126766
0.00926187
0.00724638
0.0077069
0.0190175
0.0456557
0.0224396
0.0120858
0.00808119
0.00701781
0.00705174
0.00768149
0.0085164
0.0119723
0.0203692
0.0337657
0.0444136
0.046248
0.0351891
0.0206518
0.0148236
0.0147878
0.018495
0.0216355
0.0188892
0.0134136
0.00964405
0.00913365
0.012544
0.0221756
0.0312328
0.0332687
0.0336418
0.0445952
0.0518381
0.00302415
0.00249661
0.00182797
0.000889463
0.000121541
0.00023333
9.19838e-05
2.89447e-05
6.77535e-05
5.77052e-05
6.12632e-05
7.10225e-05
8.64487e-05
0.000462506
0.00308182
0.00394136
0.00280438
0.00184232
0.00158895
0.00264734
0.00690418
0.0144675
0.0158146
0.013859
0.0132983
0.0175284
0.0272546
0.0321389
0.0215604
0.0129046
7.50392e-05
0.00050261
0.00115296
0.00133938
0.00151625
0.00182585
0.00260783
0.00524299
0.00816357
0.00896944
0.005562
0.00241402
0.00181685
0.001435
0.00165789
0.00255359
0.00526165
0.00887386
0.013066
0.0164929
0.0196822
0.0217789
0.0224682
0.0191569
0.0100725
0.00248345
0.00108045
0.00175495
0.00355412
0.00314931
2.98054e-05
5.2998e-05
2.82107e-06
0.00021729
0.00271142
0.0126022
0.0164998
0.0115092
0.00446648
0.00208178
0.000983418
0.000853974
0.000715596
0.000869226
0.00104939
0.000667368
0.00151419
0.00209605
0.00312976
0.00385377
0.00622905
0.00850199
0.0126348
0.0158763
0.0142777
0.00636842
0.00203124
0.000499893
0.00112404
0.0049204
0.000798413
0.000163539
0.000155801
6.05018e-05
3.18873e-05
1.16138e-05
1.91356e-05
3.21722e-05
4.43635e-05
7.72084e-05
0.00010918
3.85508e-05
0.000115077
9.43895e-05
8.57092e-05
6.91542e-05
5.14835e-05
4.14017e-05
4.06616e-05
4.72155e-05
6.06251e-05
5.65193e-05
4.46264e-05
1.82326e-05
8.84698e-06
5.72517e-06
7.98513e-06
1.89097e-05
7.80907e-05
0.000652309
0.000130475
3.46589e-05
2.08758e-05
0.000208909
0.00495357
0.00230237
9.2198e-05
7.39611e-06
3.59401e-06
4.94947e-06
4.86857e-06
7.27827e-06
1.07971e-05
2.73015e-05
0.000985806
0.0290493
0.0487482
0.0411707
0.0137123
0.00162061
0.00196967
0.0113897
0.0246217
0.0292314
0.0269612
0.0230569
0.0212716
0.0197587
0.0169345
0.0109576
0.000294637
1.51219e-05
6.32486e-06
3.23911e-06
1.85902e-06
1.31692e-06
1.15778e-06
1.25576e-06
1.62886e-06
1.6761e-06
3.87821e-06
1.00882e-05
4.84464e-05
0.000315501
3.2382e-05
0.000726451
0.00288041
0.00331866
0.000367361
1.56273e-05
1.24303e-06
4.88031e-07
3.42099e-07
4.42164e-07
2.36138e-06
4.41925e-05
0.00124716
0.0256056
0.0405949
0.00546004
7.49271e-06
2.85884e-06
1.66688e-06
7.11315e-07
3.09729e-07
2.76225e-07
9.12902e-07
2.2692e-06
5.28468e-06
1.63897e-06
2.84184e-05
6.46983e-05
0.000299316
0.00293415
0.00541017
0.00526359
0.00472926
0.00504041
0.00675639
0.00935698
0.0134477
0.0159553
0.019536
0.0240933
0.0340595
0.046995
0.0529835
0.0166423
1.06288e-05
8.66896e-06
0.0106717
0.0195356
0.0135067
0.00122973
4.56524e-05
9.89237e-06
3.12485e-06
-5.10351e-08
2.96661e-06
2.79779e-06
6.26588e-06
2.61649e-05
0.000162249
0.00216649
0.00412069
0.00229817
0.00146661
0.000835279
4.90007e-05
0.000319868
0.0010956
0.00494466
0.0203371
0.0324377
0.0351942
0.0271416
0.0180703
0.0135865
0.00331748
0.000106478
0.000201021
0.0015496
5.82734e-05
9.88655e-07
1.59895e-06
1.08699e-06
2.53775e-08
-2.33483e-07
7.0502e-06
3.62181e-05
-5.64271e-05
0.0136091
0.0264616
0.0201664
0.00997026
0.0126839
0.0238553
0.0392428
0.0436812
0.0470811
0.0471628
0.0480038
0.0443543
0.036976
0.0151071
0.00018292
8.22122e-06
1.69862e-06
2.33174e-06
7.28859e-06
3.4603e-06
7.1027e-06
2.86835e-05
-1.98032e-06
2.52063e-05
2.10236e-05
2.44984e-05
2.50323e-05
3.04111e-05
0.00015782
0.00591706
0.0260987
0.0306165
0.0173575
0.00071698
1.34962e-05
3.92437e-06
1.92633e-06
4.76716e-06
2.94853e-05
-0.000155676
0.00206513
0.00171306
0.000215013
1.49039e-05
2.02066e-06
7.47868e-07
4.87359e-07
0.000177855
0.0897065
0.0951211
0.0648491
4.70513e-05
7.18988e-07
1.74112e-07
7.37631e-08
2.4286e-07
6.47748e-07
1.73419e-06
4.43089e-06
1.11523e-05
2.03212e-05
4.32694e-05
1.62189e-05
4.24705e-05
6.47299e-06
1.30793e-06
2.72219e-06
6.07657e-07
6.44712e-07
3.21221e-07
9.7197e-08
2.49462e-08
1.2827e-06
0.000297222
0.000321973
-4.93307e-05
0.000453374
0.0572319
0.0983782