/*--------------------------------*- C++ -*----------------------------------*\
| =========                 |                                                 |
| \\      /  F ield         | OpenFOAM: The Open Source CFD Toolbox           |
|  \\    /   O peration     | Version:  2.1.1                                 |
|   \\  /    A nd           | Web:      www.OpenFOAM.org                      |
|    \\/     M anipulation  |                                                 |
\*---------------------------------------------------------------------------*/
FoamFile
{
    version     2.0;
    format      ascii;
    class       volScalarField;
    location    "0.004450000";
    object      p;
}
// * * * * * * * * * * * * * * * * * * * * * * * * * * * * * * * * * * * * * //

dimensions      [1 -1 -2 0 0 0 0];

internalField   nonuniform List<scalar> 
12384
(
728780
731588
731091
732386
732564
732144
730455
729496
726426
726383
722711
723455
721238
721745
788923
786306
785592
780052
776100
768455
771679
768220
771942
784795
782184
792940
799069
805344
808400
814301
811651
808656
797651
794103
780337
782945
779316
780569
780658
779933
775715
780394
774310
770080
773231
769901
770438
770225
770980
773974
774372
782261
781740
788107
789794
792413
793231
789678
789750
782088
767350
780845
761373
799624
783875
842051
832355
873452
872023
891127
894426
903987
905828
909757
835792
832224
837286
839923
850202
848766
860709
863480
863719
858890
846729
828099
810095
788190
773981
763359
736714
742603
704523
718396
706595
731423
736354
748381
751972
751618
749059
755833
755952
759685
833236
833384
836320
839705
839458
832483
824312
806365
802484
763470
782092
737231
759965
707110
728628
664364
699783
656068
687910
687343
697718
706281
709567
709625
706778
706309
715456
714038
726937
726965
809626
811690
798603
801349
794771
792569
787280
791410
784989
781283
782501
773452
772513
770392
756063
753933
745030
723916
727508
700796
698827
695700
682960
687330
675554
677848
672309
659882
662231
657898
639194
647067
641335
646817
656454
684892
663073
750461
739075
786029
838153
847734
854905
866738
866947
867604
861707
866627
851704
854555
855499
860562
869593
877694
877626
886500
884444
891417
891788
894719
965084
944687
928704
913382
906134
891757
895002
879552
886410
880428
884815
881794
885287
880698
879823
885352
888406
890728
890423
895637
897770
893839
891023
878798
883201
844243
858334
844588
832467
844501
1.04677e+06
1.03749e+06
1.04288e+06
1.03876e+06
1.03624e+06
1.03128e+06
1.02559e+06
1.01043e+06
1.01278e+06
979262
986703
932652
948164
878895
902342
834133
860641
820960
834576
852198
839746
871995
928679
929023
942454
956605
942596
935550
923555
915406
1.05725e+06
1.05078e+06
1.04195e+06
1.02929e+06
1.01499e+06
984105
969425
959671
918062
929336
897690
894029
873093
875799
866469
841590
855244
833307
844262
822386
866364
846139
882325
948386
972789
977992
1.00198e+06
1.00416e+06
1.0048e+06
1.0079e+06
966424
966084
964483
962042
962506
959199
960633
969199
978842
986124
997786
1.00215e+06
1.00086e+06
990217
973242
972691
955571
912030
907212
868280
841982
851881
887219
916537
931325
937985
940329
941475
940273
939281
1.00009e+06
1.00068e+06
1.01143e+06
1.00584e+06
1.01555e+06
1.018e+06
1.01908e+06
1.01628e+06
1.01027e+06
997584
984726
964326
950828
930845
919168
905112
890788
887946
861537
873490
869507
863577
901138
898532
921377
945469
952876
969559
987256
1.0009e+06
938634
936103
933627
936095
938965
938335
926551
923744
921107
913299
913208
910808
908452
936030
923149
956290
952864
978461
975633
997127
992604
1.0109e+06
1.00823e+06
1.02138e+06
1.02077e+06
1.02656e+06
1.0262e+06
1.02654e+06
1.02104e+06
1.02179e+06
730216
729918
731068
730949
731314
730680
729924
727297
726328
724274
723244
722060
721596
721076
788569
785285
783305
775806
778021
767941
770449
769616
776361
784201
782707
798908
795943
804810
808516
807482
807349
800593
795327
786566
782040
777087
779081
780574
780632
781256
777552
781021
773848
781108
769226
774431
774501
777063
777327
777751
779194
781845
786109
789848
793473
796455
795893
792277
788927
783862
766628
773963
767092
787131
783876
822608
828602
861707
878006
889455
898268
902884
905841
907570
826614
832707
827070
834618
838731
848882
847483
855407
855118
848956
837713
823144
803122
787086
768237
758254
737877
729113
704872
703780
703576
719088
729347
746294
751827
753522
754305
754364
757282
756783
832773
831832
834250
835042
832776
826449
815939
801600
794740
766740
770927
744207
749633
712808
720479
671827
693304
661872
682051
685004
696436
701988
708281
709439
710407
713345
713489
722889
723676
734198
809415
812680
801365
804328
799781
793829
795433
789680
785110
785375
779137
779616
768464
765499
759531
743730
736058
730348
708025
710639
693308
686738
687807
679384
681050
676215
670590
669737
663247
660933
642137
645170
637724
654783
661931
654370
712634
711361
749277
804307
801172
839902
849737
856643
866109
866402
873434
862657
873502
873333
876838
875389
876794
877632
880615
881163
886797
888437
890660
889792
950602
937210
924968
913687
900419
891157
884322
885242
881239
883591
882655
890522
885114
889381
889916
891273
892818
893611
898369
899555
896422
891624
884581
881482
850646
856228
839592
831355
840126
839258
1.04267e+06
1.03783e+06
1.03848e+06
1.03866e+06
1.03249e+06
1.02127e+06
1.02057e+06
1.00839e+06
998869
979568
970539
937668
931357
885957
890724
838119
851573
822604
833578
819729
862154
877307
888914
935494
935253
935132
939555
925742
916968
918263
1.04102e+06
1.03342e+06
1.0281e+06
1.02e+06
996730
990484
960227
955747
936526
914041
907878
906892
874611
873049
870697
839610
841249
838910
827607
832059
845380
834856
895362
928878
951505
977781
985570
998715
999434
997808
960604
957723
957587
959221
957466
955317
964537
963536
975151
985442
987671
987810
977682
962777
957004
937443
905376
904855
868397
828121
815069
836965
865221
894681
919641
934412
941368
943383
942194
940281
1.00649e+06
1.0055e+06
1.00935e+06
1.01243e+06
1.01113e+06
1.01529e+06
1.01622e+06
1.01252e+06
1.00573e+06
995212
982049
965396
949509
933096
916251
908246
886867
891592
857394
872284
859118
866841
882547
891631
929999
929812
956520
963598
978189
990118
939012
943507
945508
946271
940367
937782
933096
919312
917505
915463
908106
911565
909663
916396
938502
935359
956653
969444
974804
987286
995055
998913
1.01086e+06
1.01182e+06
1.0219e+06
1.02102e+06
1.02628e+06
1.0258e+06
1.02154e+06
1.02287e+06
727387
728817
728188
728864
728408
727905
726766
726257
723796
723222
721386
721370
720568
720821
787534
784491
782256
776515
776835
768666
774869
769494
782925
781195
789427
796357
800060
799660
803329
804016
798780
795985
788010
783782
777512
777253
777443
777148
780133
778415
785191
781188
785267
777020
779053
773591
772950
771424
771397
773770
779666
783033
788760
794033
798480
798618
797995
794109
790589
783275
767030
771647
762277
788112
773023
817080
823125
850572
874722
884963
894857
899726
901062
902096
824227
817468
826791
823138
828154
836516
844231
841525
842654
838436
828393
813821
796833
781281
761064
749174
729009
720546
696748
698785
700562
709497
722331
738661
745080
753987
752896
760457
762278
765343
830287
831671
832039
830549
826020
817170
807349
793814
787775
764861
770578
738767
749517
700637
720206
667415
694489
658987
680196
686576
691421
702455
705422
708870
713765
712530
720510
721518
730302
729602
809957
812264
809918
807551
800390
802231
797228
795805
796346
786501
784440
776361
774662
762777
747537
747419
726533
716666
709518
701383
687816
690576
679783
681954
677832
673681
674280
669477
664207
664082
638983
641565
640664
657739
645072
680198
694891
722249
753508
779053
805589
808858
840982
850626
858321
875551
872271
879735
873926
869777
866107
870192
870264
875377
878526
878068
878253
881328
883408
885819
935141
924318
917003
903605
894770
884201
882738
880399
881555
879344
890939
888512
896920
895460
897085
898881
902320
903448
902486
901031
897604
886294
876068
859274
856557
827892
825336
830238
826133
836088
1.03659e+06
1.03176e+06
1.03299e+06
1.03005e+06
1.02154e+06
1.02169e+06
1.00997e+06
998064
991209
966807
965940
920761
931560
875288
888790
828781
850429
814214
830681
822603
832957
884761
886563
898276
934634
914529
915942
916807
914287
903168
1.0176e+06
1.01197e+06
1.005e+06
994437
995273
977075
956839
960504
930745
936753
906726
906664
895714
856035
874337
825406
845874
820064
823047
810277
847301
824349
896972
902996
936775
957941
974130
976992
986906
990685
955358
954049
954282
948170
950455
950663
960151
965239
971055
978751
980025
967875
952918
941921
917475
884482
883883
849989
818531
802395
817768
807938
850497
872528
901162
920072
933273
940705
942237
941804
1.01053e+06
1.01013e+06
1.0104e+06
1.01121e+06
1.01289e+06
1.00953e+06
1.01015e+06
1.00801e+06
1.00043e+06
992378
979388
966029
951331
932592
919780
906899
889089
891917
857352
872322
851028
859631
879525
888998
913249
933403
944578
960729
968111
978173
950652
949780
947996
947015
944463
935970
931966
926718
910787
911277
906681
901086
911097
904483
923799
941152
936851
968676
965458
983577
984898
995812
1.00069e+06
1.0077e+06
1.01131e+06
1.01883e+06
1.01829e+06
1.01977e+06
1.0204e+06
1.0214e+06
726991
725877
727613
726335
727006
726255
725152
722816
723635
721302
721398
720237
720459
720039
786083
781869
782826
775220
773051
770712
774043
774105
783934
783835
795072
794469
797115
799080
794527
795694
794007
786896
783654
777894
775966
773611
773918
778883
777836
786244
782133
784613
782837
790665
776652
784318
784165
786337
788983
788790
787004
793701
793628
798654
798651
801136
798141
793395
792697
784964
763434
766322
757691
783986
771270
810907
811724
847706
861458
880904
887776
892918
894787
895040
810178
816169
809334
820621
817534
817685
825831
831073
825513
821998
814705
802031
788899
769271
755118
735462
725078
702790
699004
685743
698310
698928
709477
734944
740746
751581
760272
758437
762237
761364
829951
831313
829997
825443
818867
809489
799315
789242
780922
765859
760697
743426
739612
706043
713903
666918
685536
663825
680326
676363
692742
696297
703174
711294
709703
719480
718973
728999
735729
739861
814159
814609
810919
808458
808980
805570
802487
801452
795457
795681
785112
780289
768048
765242
743834
728537
718853
706970
698589
685930
691060
679348
680892
678244
674626
675978
673028
670855
670641
668570
640469
636918
647032
650498
646821
699624
688798
720471
765480
758392
782503
806531
815960
840103
854246
871885
885183
888490
891130
895681
898483
894051
891571
885949
885140
880694
877758
872603
870609
864774
910853
908587
900932
893909
881154
876121
869574
870541
871276
889250
886452
901309
905983
910439
912575
912236
910826
910368
906778
898555
896686
876889
867584
840234
830842
823487
812473
803518
822539
822100
1.02474e+06
1.02014e+06
1.0204e+06
1.01565e+06
1.01951e+06
1.00635e+06
1.00016e+06
988421
978927
960118
944770
922647
916738
873447
868566
832247
822638
819725
807794
828157
831776
842269
884969
882845
880529
912274
886502
887111
899791
908748
989232
993728
989885
988018
974010
962481
965301
945502
948225
931304
921888
895779
899678
849332
863662
816571
827258
814724
814184
810031
821772
834484
864658
883277
922223
937763
950662
964665
964135
972882
935677
937258
937778
945830
946695
949908
952327
963752
969395
967193
961983
951334
932313
901641
867361
854060
818286
803250
788523
791149
748563
784793
816645
840429
878919
901251
922693
934346
939963
942592
1.01776e+06
1.01527e+06
1.01214e+06
1.01063e+06
1.0072e+06
1.00861e+06
1.00005e+06
999409
995406
986584
977821
966803
949638
938327
917176
912482
886735
891927
859381
869870
851110
869217
859572
889937
905428
924828
943964
948261
959528
961781
957154
953705
952656
945639
944220
938768
925041
924493
915648
900574
899519
899787
888530
906757
901381
924392
933666
942595
969403
965670
985303
983023
992138
998649
1.00086e+06
1.00635e+06
1.01214e+06
1.01566e+06
1.01655e+06
1.01697e+06
726075
726113
724020
724764
722003
721753
720780
720341
718886
719751
719109
719376
719344
720408
781251
782357
779433
772222
773599
769832
778477
774858
786299
789724
794044
796086
793850
792391
793884
785435
784983
782999
777451
775736
772664
771828
776374
774203
785845
784837
794196
790589
795904
787910
787159
780881
782259
781080
779693
783266
788867
789752
792925
796186
800588
800712
799703
791875
791773
779628
758531
766837
762432
774594
769506
804025
805322
836181
854347
868552
879344
881923
883816
885210
802795
800437
805925
797704
809362
808587
804079
809409
812203
805632
797975
791048
773569
762086
740660
731866
708240
704354
690206
684223
691871
691225
708024
731526
736444
758007
758716
773292
771687
777257
827488
829416
825894
819523
812702
802149
791657
785995
774278
767659
753461
741048
737502
702140
711977
667757
688180
658302
674893
680514
687082
693108
703196
706074
714645
719329
724861
732913
738679
746689
813928
812078
813049
811623
808834
808640
806791
804335
801897
795215
792291
777953
771214
749710
745993
719753
703721
690892
681703
684612
673089
681218
679235
674017
675621
674468
673261
673341
670937
670992
637139
640287
648877
640915
674329
682219
692866
745225
737111
767107
769277
786075
792681
843265
831569
868795
887414
897617
907285
905783
900424
898033
891698
891187
884285
882594
872771
864643
859510
869562
887069
881037
878287
866291
859798
854533
856774
863853
866688
882407
895034
906807
917060
921067
922574
921695
917514
912763
906937
898021
885075
863958
851361
826077
806273
782509
781382
807675
802547
820985
999407
1.00263e+06
1.00037e+06
1.00327e+06
994173
997543
987922
979100
970096
939077
942457
910464
902175
858345
872344
804851
825751
782485
796183
788558
823237
830252
836166
873309
852874
853945
881791
863666
862272
870715
946354
943877
949743
958102
955419
964553
951022
954285
942034
927159
933981
888305
892336
840370
825571
820517
796311
795642
796589
797177
823409
819978
850607
872414
891699
912534
927184
938936
949942
951048
939393
936731
940431
934627
941567
943481
953083
955636
965384
960413
946943
926832
896172
866933
857984
809928
788886
762078
755010
713993
759771
748683
788885
808989
852571
880435
907679
925322
933964
939836
1.02276e+06
1.01894e+06
1.01275e+06
1.00785e+06
997748
996208
997519
988016
984679
983517
976438
964451
954167
936082
925230
908566
896450
888342
865752
870267
851512
861080
866709
883210
902845
925248
933301
950452
946198
963015
958534
953045
951237
945895
939722
935846
929305
911566
910085
900029
889135
885564
890380
875712
898890
894288
926198
928434
952057
964809
967887
985109
980625
990790
995605
998621
997707
1.00425e+06
1.00496e+06
1.01104e+06
721726
721787
722953
720908
722481
720628
720613
720276
719565
718609
719405
720366
719845
718755
779742
778081
773538
774440
774205
773159
776938
782934
787106
793812
793626
794487
792995
788556
787252
784343
778092
776509
774806
771332
771079
774488
771360
783371
782718
794787
792180
802214
795166
802588
791343
797252
799037
800650
802979
799731
795027
802838
801423
803108
799675
801498
796974
795103
784334
772382
761401
761473
755527
774960
765077
798173
796585
825155
843342
858533
864374
872379
874660
874331
801336
800000
796879
795568
785010
794021
795940
785731
789728
792149
785749
774262
765717
744781
738562
716064
705957
699640
683788
678929
695569
683013
715852
722277
743430
756048
771931
769438
774283
773085
825548
825848
819853
815200
807666
794117
790791
782298
765129
768094
743116
746147
720796
703824
703895
671603
681914
662004
672060
676410
681395
693674
694426
706898
712628
720586
727663
735291
744450
749403
808401
809711
811272
809985
809592
807691
807551
805649
803760
797673
791079
781986
766440
749681
732382
719228
693955
680227
682380
671085
673677
668388
672614
676429
675218
675046
674339
672504
672650
671242
636620
645670
640768
656481
663133
691805
712873
729884
748394
749152
759857
788691
781421
803795
842038
846975
883130
907801
915357
923770
922785
915232
907278
897962
892341
879266
870619
851773
836733
829389
838839
852531
849783
846191
844122
847335
853076
862429
856905
877599
890560
912912
918188
927436
927719
922954
915364
911647
899941
886644
865361
850920
818368
790249
768033
780635
788688
788143
804701
809945
980827
976180
983961
983561
985990
984459
980972
972055
948291
944332
927839
897934
892412
864929
846672
806498
800143
780592
764615
782540
772255
812327
812482
812454
842411
814359
829313
856664
838961
847945
956337
961290
955303
945457
956468
940538
951840
943033
937838
936491
921070
887060
875490
818541
807386
783963
781234
780592
789570
783986
818781
809263
847246
852554
874221
887898
903933
913638
920654
929597
915364
921805
925263
936131
936702
944372
954943
954129
956375
952876
926299
909362
882961
861591
808102
795501
765403
732228
687785
707386
690722
713785
761454
785481
830247
862928
893665
916160
926712
934822
1.02421e+06
1.01952e+06
1.01107e+06
1.00209e+06
994150
984087
980420
983986
976034
975877
969698
963803
950329
941401
922979
915796
892725
894140
871009
875936
871597
875463
867505
887979
899110
926254
932561
940597
951292
944925
952650
948229
945108
939299
935578
926932
921651
915160
893640
888091
875124
861659
863867
879362
870529
898113
890573
924809
937440
958063
965505
971667
980416
975928
981307
986754
994153
994885
996861
996758
722077
720884
719183
720052
716902
717749
715777
715611
716767
717153
719662
718624
721030
723557
773670
769791
772348
773210
774816
773112
778651
786932
791090
794646
797687
792008
790321
788800
781789
780395
776395
770506
770334
769689
771823
769011
780889
779366
793196
793781
805300
800507
807470
799503
793733
792623
793140
792297
792719
797708
806766
796232
800364
796408
800265
797519
799013
788978
788114
767828
762006
756920
750529
772327
763221
791362
792728
817508
831524
845827
854021
855595
860242
861465
786814
786320
783399
784621
786257
772080
777886
782956
770018
771765
765975
759743
751044
740696
723719
715474
700407
693812
683142
689378
694702
685366
725272
722019
749602
769844
775134
785264
787609
790435
822274
822010
814150
812041
802234
789754
786405
780645
761767
760424
747167
728471
724879
697784
698715
669299
681497
659506
672402
669737
682208
681932
697563
698216
714064
719490
729991
737549
744871
749946
802680
804667
803797
807161
805883
804981
804243
803812
802536
796581
789997
779360
767337
744522
731232
705796
699836
675244
664242
666827
670659
672082
672498
678167
677285
675226
675063
672910
669536
668119
638759
650703
635898
672631
656420
690476
722323
732480
731817
755811
756052
759698
794960
786979
814671
852043
867097
903118
923974
930642
930322
926000
917138
906591
895639
884536
861607
833047
812217
815442
806002
791298
795618
819384
835272
834104
829405
830307
858247
852896
889326
895573
916956
915055
919265
911221
908576
897011
882342
863574
844901
808452
774935
756019
771728
764797
771546
788130
802679
808611
931303
941834
949950
958356
959136
963706
965380
950390
953568
927556
915134
891391
894411
841820
840220
793919
790659
751365
765595
740689
771663
756203
789283
785541
790957
825129
801638
811039
838294
815952
892140
897211
905728
928762
922239
945295
940008
935847
938474
922991
913568
884384
845393
799413
806181
753137
772985
766938
781113
784404
802349
817948
823752
845990
852775
866484
882706
896102
903391
917706
924292
920698
930885
927182
942791
949541
954737
967724
959903
942826
928693
892279
891998
834723
810935
795080
746959
710373
706330
673563
701928
693232
736073
775260
819217
855244
883484
913620
921512
934998
1.02011e+06
1.01321e+06
1.0037e+06
992115
980312
972381
959639
965614
975617
966941
966177
958510
953558
937303
930236
913582
906393
897449
875689
866961
860281
870559
882503
902232
910952
916041
939871
944272
944832
948541
943812
938707
935905
932968
925575
922835
914764
902941
895204
876443
863453
861252
840538
836888
855921
875317
881482
926239
918895
953487
960487
971811
972273
978931
977580
982207
976382
979803
981771
989091
714341
715460
716346
716151
717755
715641
717029
717224
716259
719263
718862
722138
722511
721861
771346
772453
771412
773007
774857
774419
785975
790397
790272
799419
795308
797401
788226
787576
781505
777715
776396
773571
772998
769382
769876
781738
777580
792253
790722
805623
801998
813580
805374
813418
813547
815463
816143
821462
819047
815642
807123
815719
805680
811908
804486
806858
796170
794442
777661
778915
759527
754670
751950
770214
763306
792263
787569
815709
821019
835384
843167
851356
853411
855302
788756
783963
785902
772574
772269
768832
759896
762608
772328
761063
764102
752086
742979
730145
726508
702831
704494
689226
698518
687154
691658
698463
730684
731245
761060
773561
783408
785461
791680
794191
809023
811410
812551
808013
801633
789468
781709
776450
761842
746892
749906
719594
726559
693904
699879
672516
678322
661338
668280
670907
675491
679144
695560
691296
717714
715073
733364
734015
744455
748517
791589
796610
801745
798971
801063
800693
799658
798595
796866
794146
785460
778103
763217
742423
729621
708976
684148
686261
659620
669999
669776
670223
676273
676722
678770
676759
672699
672132
668485
668222
639721
646985
641276
667549
657720
710763
703546
734379
734109
737045
761317
753755
770977
804261
796167
831965
866569
886380
919484
935607
935578
927478
920303
908078
903594
877149
846404
811388
760422
722349
758508
790382
808006
809213
793152
792961
791219
815145
818438
856427
854925
887203
889345
906731
899597
898479
892451
882443
861774
843265
797893
767342
737103
751232
736480
748443
761780
791399
800460
811315
923284
929076
932966
946485
959529
966499
954400
954859
931596
919988
899642
902074
859987
851063
805504
806461
748014
764166
731253
745157
719789
756217
735394
767277
751113
752694
775149
778256
785760
833831
914600
918291
919268
909227
923462
922944
924197
935701
923889
916428
902707
876505
823503
792574
782242
751548
754687
775454
769610
787717
805631
805457
829193
825471
849541
853503
870481
882703
892135
894863
911990
925114
924582
933060
949419
952698
968203
968224
966637
947276
926710
906986
876839
849796
801861
813323
744418
730795
713966
691822
705725
719699
730327
778401
836975
856281
892103
916705
933108
941529
1.01135e+06
1.00575e+06
995174
975780
959933
945117
946739
934217
940312
960761
956791
956395
946016
944096
929402
920111
905325
907983
904901
904162
893227
885823
891548
905267
921130
938433
937935
938848
947036
948432
935890
932087
927618
919760
920019
914767
904517
900242
881930
882274
849774
854982
849632
845105
837403
862160
877941
909448
916910
952706
958970
969352
971671
970157
972088
968486
977196
977924
981369
975686
715584
714926
714450
713652
713114
714712
715377
714870
718271
716906
721556
721446
727466
724339
736205
705329
745218
759129
761340
771542
772267
782550
791170
788684
802977
796372
802403
792251
794434
784754
785052
777618
779293
768361
769690
772027
783564
777062
792061
789330
805371
802614
818585
812443
822062
810390
814244
787289
807584
806394
811235
808454
812478
815582
819371
813880
820356
807976
812709
803167
805246
794981
791414
769084
775603
761002
765707
771529
771364
790613
791425
811490
820247
827888
834070
830404
825551
815801
787369
797308
797690
785357
781406
770500
762944
761931
759099
755706
752029
757953
747230
751436
736110
735163
721994
713735
712973
704790
688861
697664
713425
720140
735661
750549
768888
783036
792054
797044
797693
800920
799631
820033
815421
817938
814672
808002
802705
791913
781217
771788
766679
743735
747948
725303
718353
701205
697817
680202
677052
675012
666159
669466
677721
673254
695578
689324
713349
716053
728236
731783
743644
742939
753618
745831
774831
782650
786116
793038
794783
791886
793907
793122
792952
787171
783000
773041
763630
744334
727745
715701
683489
689570
667048
664511
669488
673905
678720
680135
678583
678014
672995
668634
658257
657063
631793
637776
640102
634667
641266
665983
651060
708984
704535
723515
737028
738293
740050
766821
756932
786019
813291
809594
852994
879774
900438
921621
928238
924985
910464
909076
889151
862456
827649
769914
727550
744110
578809
591120
641158
703083
745176
763536
772718
784126
804771
796242
825536
814508
850336
842416
868192
858806
865528
856220
851886
840038
830086
792779
770864
750366
709623
683222
713654
721202
765369
780994
798749
817431
817478
768406
828744
855930
887215
899708
915290
916281
925637
924687
919566
906633
905888
876422
857923
839569
798267
777718
749394
731883
709777
706550
723648
705624
742848
721214
759436
750885
767720
795748
792389
807321
806611
813146
818981
845908
861064
886385
905485
916373
929536
924061
921002
910460
895243
863272
842625
792716
798557
757791
770242
756548
799171
781621
815697
803510
823125
830143
833297
856499
859469
875441
878125
887680
836156
852505
909541
913491
924278
943189
946941
969431
971968
972588
967495
958153
935176
914303
888265
861626
825566
811713
765472
757206
702596
706010
712053
734534
764448
806825
855927
878769
908714
932829
942835
958907
954502
951052
985511
982841
975829
954480
936244
919415
917245
928551
920045
928624
953535
951148
945136
937711
936982
936221
918413
898033
891771
893955
902477
918188
916529
926199
931937
936861
943900
952436
950372
946668
933798
928323
924084
920514
917475
920735
913495
906243
907515
891303
884381
874823
851819
845284
844909
837602
835882
865714
890630
896055
928839
949148
960598
972664
976573
973726
970282
970835
964760
963552
964301
968560
961343
965495
705349
707017
709031
712942
712900
715106
714421
718080
717140
722044
723631
730334
730743
739619
735883
732377
758868
762201
767745
767862
778210
791434
786460
804264
797626
810986
804189
805716
799632
793865
791363
786058
777835
785737
785003
788604
779625
795079
791345
808610
805339
821347
817074
826483
823042
822802
834280
814582
827746
836072
837792
840882
837521
832330
833989
832456
823099
825475
814400
818893
806898
801312
789070
782790
768248
765403
761660
782148
777430
796684
795341
813748
816936
827659
826655
832096
826589
825625
801012
805848
789791
785181
781565
759323
765414
749905
754344
752451
756091
751456
750279
748640
743088
731054
723766
716614
707160
700932
718418
712115
721663
727973
751766
761611
783287
789714
800668
805511
807013
808206
810543
816165
814642
815530
816023
811301
805198
793968
786770
769567
772813
747509
749471
727190
728957
705851
708722
693171
683840
673468
679424
667839
679911
673057
693603
695230
710382
716315
726729
727136
735966
738049
750525
740575
776801
776200
787887
787795
790295
791576
787549
787248
785999
784931
778005
771119
760968
747926
728394
714021
699486
686705
671999
676283
674024
680104
678611
683030
681004
677203
673257
669696
654642
660100
631675
638528
637486
640200
626219
664648
649508
690580
704903
725913
725531
739900
734079
752813
761200
777540
796327
819467
828222
866440
889772
901882
905893
899600
909792
893902
870105
845588
795905
758993
685703
690011
618087
640376
691037
730440
758011
778351
791244
788270
781168
795992
791287
822680
814096
847549
833238
858302
862457
859200
841925
840143
805477
782873
741295
730707
664692
684866
702226
720811
758757
782597
815085
834259
816843
784188
878577
883275
893148
910536
917074
931040
931568
921872
907945
908001
880483
876775
838100
839606
762326
785130
722720
744886
705659
712900
683216
698701
695007
736053
728433
755265
758721
769330
792628
812374
809527
808423
845971
858178
881747
882348
885576
902747
907214
921336
921830
917973
892177
882109
838454
822744
807433
823358
804295
823907
784519
827645
802894
833507
818758
848755
845789
862611
871445
874726
887023
898996
883654
895639
908512
924869
923212
946877
956691
971879
975763
985528
980577
961069
948993
922486
903113
875681
855976
820625
823886
764723
777549
756748
770071
775449
799716
850018
878890
906808
936197
954848
967436
981686
983179
984511
1.0007e+06
975729
973924
938658
937993
905012
903499
901930
922672
925559
941573
953527
957157
953375
944153
933739
933573
934191
925587
917103
911695
916281
928623
934480
940729
947787
954244
951323
950960
941247
933664
925823
921430
921042
912819
908703
907099
908527
901515
897933
881441
869003
866146
863891
835662
850835
852834
890541
878429
913691
933850
952826
965157
978265
976203
975592
967448
965843
967576
966886
966808
961764
964329
961605
708210
707901
709937
708979
713065
712650
717277
715739
722483
720183
729815
728015
738880
737405
750689
749195
765845
765755
762437
775944
788676
785817
806558
801168
819531
811760
812436
816443
807120
801220
794770
786816
789269
783357
788425
784043
797806
795549
810481
808320
823684
819540
831878
832558
832794
838343
825945
835278
845584
830866
830192
831144
837997
843971
838158
834296
832662
824786
826922
817054
820514
807682
803166
794808
793289
792894
790742
782407
800532
797896
809107
815743
821594
827012
828952
828539
826697
820052
812358
803190
789402
787886
773840
761752
758806
751993
751610
751452
754051
756245
755203
753737
751153
746951
740850
733684
726186
733195
716688
729838
736682
748647
762259
781030
791530
805680
811856
813591
817027
822568
818595
828694
827226
825741
823442
818926
810176
801811
792476
778577
773093
757042
751627
735964
731098
723287
709224
711664
701682
688085
680818
682685
678205
680023
693780
698378
712881
715350
722786
725812
729365
733330
742131
742705
767366
773700
782075
788528
787012
783606
784404
782575
784269
780886
777927
769456
764190
747069
738546
712263
711077
687917
684303
681081
678193
681349
684127
682389
682824
680064
668395
670038
652573
651830
628549
628141
623505
626231
625552
645459
643746
695198
689146
722299
727245
725982
743629
736615
757727
774617
792492
799279
840888
839818
871780
881624
893561
904437
879191
860063
845987
821432
768337
748974
695551
688682
663839
686686
736541
759473
774882
780224
783766
781807
784415
779402
799471
797125
819780
811271
835006
818261
817779
815966
825143
814875
809782
778230
750532
714564
675164
667214
696433
722876
754457
789143
814059
837440
832661
845030
878752
878615
879622
884321
889776
888142
889660
897089
905231
895028
884550
874208
839612
833088
761344
776497
723364
735061
695212
709707
689655
698677
708140
713302
743195
739121
768665
774532
795110
808542
810366
811137
832331
830655
835197
850281
868143