/*--------------------------------*- C++ -*----------------------------------*\
| =========                 |                                                 |
| \\      /  F ield         | OpenFOAM: The Open Source CFD Toolbox           |
|  \\    /   O peration     | Version:  2.1.1                                 |
|   \\  /    A nd           | Web:      www.OpenFOAM.org                      |
|    \\/     M anipulation  |                                                 |
\*---------------------------------------------------------------------------*/
FoamFile
{
    version     2.0;
    format      ascii;
    class       volScalarField;
    location    "0.004450000";
    object      sL;
}
// * * * * * * * * * * * * * * * * * * * * * * * * * * * * * * * * * * * * * //

dimensions      [0 1 -1 0 0 0 0];

internalField   nonuniform List<scalar> 
12384
(
17.3468
16.965
16.4364
16.1285
16.0455
16.116
16.1468
16.0616
15.7781
15.5394
16.2464
17.3911
9.83331
2.05776
1.90964
2.5301
2.29532
1.93295
1.66357
1.5265
1.43828
1.39876
1.39463
1.48335
1.47599
1.58768
1.64409
1.74325
1.78805
1.89657
1.90528
1.94168
1.91997
1.96666
1.95426
2.0831
2.24749
2.70433
3.62464
3.29305
2.12728
1.72662
1.68026
1.90454
2.5833
2.06081
1.81577
1.83667
1.93979
2.08982
2.20936
2.36656
2.41795
2.50028
2.52119
2.55819
2.58176
2.56343
2.59725
2.56884
2.44108
2.62202
2.48496
3.03367
2.91656
3.80351
3.94105
4.79716
6.04958
7.79868
7.20577
5.62157
3.69424
2.70658
1.44711
1.61336
2.02249
2.3588
2.61438
2.73684
2.9446
2.99362
3.00845
2.94486
2.80638
2.60347
2.41144
2.18071
2.04098
1.92529
1.70868
1.71146
1.42008
1.50472
1.43876
1.71503
1.84622
1.96927
1.45056
1.45259
1.5816
1.64825
1.65866
1.68473
2.14895
1.53415
1.58402
1.70889
1.78031
1.75553
1.68716
1.59097
1.51876
1.37839
1.3724
1.3811
1.35757
1.36159
1.35691
1.32376
1.29677
1.25952
1.20672
1.16715
1.13382
1.09591
1.28697
1.81806
1.8992
1.67139
1.63465
1.63114
1.75869
1.746
1.08001
1.37748
1.49464
1.77808
1.64852
1.70722
1.67956
1.82214
1.79975
1.83536
1.88238
1.83767
1.85964
1.88123
1.78114
1.77161
1.72432
1.5291
1.5575
1.43463
1.42973
1.4258
1.41672
1.3992
1.37777
1.34515
1.32013
1.31108
1.23468
1.11248
1.24542
1.21274
1.24666
1.39211
1.52563
1.55595
1.55149
1.4729
1.41255
1.30589
1.49947
1.48345
1.55132
1.65504
1.64353
1.63682
1.58136
1.58907
1.46396
1.47678
1.48223
1.51972
1.58099
1.61374
1.59912
1.63594
1.60661
1.74831
1.78377
1.02589
2.25777
2.11597
2.94768
4.50096
4.06716
3.55917
3.47051
3.16306
3.12215
2.99298
3.01045
2.98471
3.02516
3.03553
3.06452
3.22283
3.36352
3.46099
3.59918
3.76207
3.89057
3.92336
3.97651
3.82943
3.88627
3.4354
3.5364
3.46573
3.47441
4.09528
2.09144
2.31458
4.34628
4.7985
4.60875
4.54337
4.47573
4.28992
4.29167
4.10355
3.94514
3.78128
3.57124
3.25567
3.18239
2.74213
2.82422
2.54661
2.60651
2.72795
2.61713
2.95158
3.48972
3.44128
3.6094
3.71668
3.52166
3.40846
3.14404
1.89003
3.41756
5.5033
6.03773
5.4053
5.00148
4.51463
4.35588
4.15033
3.72843
3.68507
3.23508
3.05896
2.61401
2.54001
2.29466
2.01797
2.0697
1.87209
1.96027
1.80294
2.2809
2.10388
2.54178
3.25391
3.55825
3.85008
4.30967
4.74082
5.82919
6.32016
1.13985
3.7796
3.6756
3.51374
3.44113
3.39867
3.32962
3.44802
3.46357
3.5078
3.56786
3.54792
3.47549
3.3305
3.12044
3.10052
2.98444
2.53616
2.44935
2.19299
1.96259
2.00789
2.44735
2.94742
3.32375
3.29677
3.09657
3.10136
2.8363
2.55017
0.638671
1.6681
3.8316
3.80351
3.88318
3.70225
3.53895
3.29469
3.10882
2.90219
2.73525
2.54135
2.41408
2.24498
2.14517
2.02875
1.92068
1.85823
1.66997
1.71277
1.68382
1.65759
1.96307
2.03161
2.49752
3.10602
2.82787
1.26937
0.967142
1.02912
0.460455
0.64275
0.871357
0.924143
0.925809
1.32862
2.17089
2.66182
2.96104
3.09698
3.22667
3.28296
3.36279
3.69431
3.58134
3.9249
3.83469
3.97458
3.79352
3.75475
3.51471
3.2182
3.23869
2.73349
2.30894
1.70185
1.38058
1.09931
0.996806
1.0895
12.8881
11.7367
10.4314
9.50478
9.46001
10.1317
11.5442
12.9637
14.029
14.3616
14.8779
16.4306
12.3152
3.27038
1.89398
2.33098
1.59575
1.24431
1.21425
1.16031
1.20235
1.28574
1.43554
1.59008
1.7004
1.91836
1.96039
2.12259
2.20697
2.29982
2.37134
2.39536
2.38554
2.31687
2.25807
2.21081
2.27529
2.48371
3.17522
3.61678
3.02834
2.4856
1.94338
1.87394
2.421
1.80043
1.62842
1.90917
2.11278
2.21753
2.25988
2.26763
2.24973
2.22411
2.22398
2.27129
2.29866
2.31903
2.3586
2.36046
2.22601
2.27375
2.23303
2.37209
2.51397
3.07868
3.48462
4.27818
5.2992
6.77408
8.0592
8.37284
6.31099
3.34763
1.53052
2.27774
2.69529
2.98204
3.06475
3.19287
3.09171
3.05037
2.86316
2.6281
2.39193
2.17127
1.93787
1.77511
1.61371
1.54222
1.41646
1.3691
1.23471
1.24835
1.26672
1.43313
1.64206
1.88031
1.68469
1.36036
1.437
1.65278
1.74951
1.72665
1.83681
1.36837
1.54992
1.74838
1.81217
1.7824
1.70005
1.61359
1.51214
1.3498
1.30904
1.24473
1.30075
1.38243
1.39745
1.44354
1.42287
1.42555
1.37312
1.30276
1.21861
1.14194
1.09761
1.41723
1.86949
1.95178
1.82767
1.90913
2.00609
2.01891
1.14457
1.45468
1.58183
1.66769
1.70444
1.86151
2.04471
2.07896
2.07875
2.15193
2.1591
2.29226
2.29354
2.34295
2.38261
2.25102
2.18642
2.11796
1.84188
1.80814
1.57928
1.51322
1.50713
1.48782
1.45058
1.40355
1.35764
1.32827
1.29696
1.21382
1.27202
1.2273
1.32865
1.50429
1.56603
1.54808
1.43504
1.27548
1.14504
1.10352
1.1765
1.64291
1.84676
1.80624
1.64843
1.38685
1.27682
1.13941
1.18958
1.22961
1.32145
1.40358
1.50215
1.55714
1.58428
1.56517
1.56909
1.58082
1.70652
1.08804
2.24385
2.70056
3.88314
4.12411
3.48176
3.14711
2.94965
2.8215
2.66901
2.57103
2.43494
2.38079
2.27608
2.25613
2.31073
2.3477
2.55069
2.77049
3.07575
3.34432
3.51607
3.60027
3.56063
3.48756
3.01863
3.01646
2.85016
2.83617
3.21807
3.87524
2.38911
3.62792
4.53007
4.59187
4.29362
4.07071
3.93003
3.84936
3.70086
3.72028
3.61185
3.58986
3.46149
3.20075
3.14652
2.72171
2.74253
2.48076
2.49821
2.302
2.71673
2.66814
2.85378
3.19973
3.24822
3.32272
3.44091
3.2926
3.13702
2.20475
4.52994
5.60187
5.02103
4.33847
3.90516
3.74996
3.45676
3.36465
2.99589
2.51619
2.09961
1.90427
1.46581
1.42421
1.38243
1.35088
1.32316
1.30886
1.30503
1.31535
1.33738
1.37114
1.57792
2.12658
2.59117
3.15673
3.53085
3.96238
4.81197
5.86461
1.56353
3.51437
3.32591
3.11111
3.09094
3.12605
3.21942
3.22996
3.26355
3.21133
3.07894
2.97059
2.76745
2.52351
2.37584
2.14934
1.83199
1.7717
1.51527
1.21184
1.17802
1.40377
1.77458
2.29193
2.84055
3.16755
3.19766
3.12637
3.05551
2.82359
1.14729
3.08219
3.87545
3.69545
3.31325
2.91857
2.64753
2.48778
2.41166
2.35928
2.34571
2.32584
2.32195
2.27692
2.1845
2.10916
1.89076
1.78267
1.43546
1.38947
1.28114
1.297
1.52238
1.74521
2.2773
2.71692
3.10475
2.1748
1.20804
0.996872
0.449077
0.802843
0.958878
1.03334
1.2436
2.29878
3.14313
3.44872
3.70073
3.89412
3.95793
4.05421
4.06617
4.1552
4.37439
4.34115
4.55423
4.64061
4.65401
4.71971
4.69302
4.55955
4.71696
4.59313
4.62681
4.11181
2.667
1.58379
1.11176
1.08575
8.61219
7.04731
5.66498
5.00426
4.87922
5.1656
6.24932
8.48019
11.1008
12.7349
13.4024
14.8969
13.427
4.48769
1.83437
1.86908
1.17345
1.16137
1.32853
1.49467
1.71957
1.87437
2.06983
2.12236
2.19667
2.24694
2.2353
2.28629
2.38872
2.55091
2.71913
2.96113
3.1381
3.2535
3.15583
2.93747
2.66234
2.56491
2.87869
3.467
3.73403
3.32305
2.47622
1.91149
2.37395
1.65014
1.8061
2.10629
2.10907
1.9767
1.88195
1.81999
1.8666
2.01038
2.23479
2.47298
2.7106
2.85204
2.95089
2.94521
2.77887
2.72072
2.49236
2.42211
2.27291
2.71196
3.12623
3.88181
4.83372
5.92072
6.8776
7.8557
7.66929
4.35009
1.91374
2.64325
2.92336
2.97473
3.05139
3.0261
2.74847
2.3093
2.05263
1.85564
1.72827
1.61708
1.52007
1.43649
1.33298
1.25719
1.15123
1.10518
1.0911
1.10126
1.12326
1.26538
1.44606
1.67802
1.74068
1.50396
1.31886
1.53822
1.7969
1.83851
1.28531
1.3216
1.65421
1.80419
1.79222
1.79649
1.8827
1.95093
1.97033
1.8307
1.74379
1.37936
1.23544
1.15733
1.26548
1.38685
1.42009
1.45448
1.43307
1.39363
1.3216
1.21635
1.12143
1.13599
1.69229
2.04726
2.10261
2.062
2.21316
2.11041
1.20226
1.60501
1.67465
1.86284
2.07072
2.21911
2.18064
2.23335
2.31838
2.39472
2.56499
2.73847
2.91295
2.94695
2.88694
2.96421
2.77255
2.60808
2.45601
2.2365
1.94961
1.81699
1.56005
1.5337
1.51484
1.4803
1.42367
1.3755
1.34098
1.26927
1.30358
1.26649
1.43849
1.5592
1.55801
1.41486
1.21402
1.11485
1.14815
1.33701
2.0534
2.17979
2.17106
1.49641
1.13763
1.0451
1.02845
1.04607
1.07049
1.07876
1.07212
1.0553
1.24463
1.45834
1.55705
1.53007
1.44292
1.43574
1.53308
1.10811
2.39398
3.54829
4.03257
3.6439
3.36398
3.3248
3.4251
3.42271
3.3278
3.07779
2.90661
2.6164
2.49225
2.4199
2.47256
2.67307
3.14066
3.51767
3.91724
4.16852
4.21471
4.17457
3.96369
3.67491
3.31133
2.64345
2.41871
2.44194
2.66759
3.5932
2.73861
4.19296
4.44004
4.2298
3.93522
3.8353
3.62872
3.52658
3.45385
3.46431
3.54124
3.41403
3.45856
3.09213
2.97376
2.42794
2.43108
2.02865
2.03726
1.76823
1.70228
1.9388
1.81037
1.88693
2.13952
2.18353
2.72195
3.0641
3.09432
2.19299
4.81158
4.79413
3.93119
3.4602
3.28273
3.05137
2.88011
2.75751
2.20819
2.00446
1.49604
1.35214
1.28586
1.19943
1.20439
1.14104
1.10532
1.06792
1.02435
0.986963
0.975084
0.981534
1.15734
1.30173
1.73717
2.21498
2.6459
2.93482
3.79538
5.24835
2.11222
3.31776
2.76963
2.53323
2.77433
2.97966
3.13316
3.18535
3.04175
3.02689
2.96017
2.75159
2.45005
2.18725
1.83362
1.54909
1.51525
1.33036
1.13781
1.08947
1.14645
1.1174
1.385
1.6715
2.24699
2.78557
3.06564
3.08916
3.055
2.93643
2.08536
3.6659
3.70578
3.15539
2.66098
2.35204
2.25009
2.17488
2.11142
2.11896
2.1643
2.29226
2.42743
2.4637
2.41077
2.23346
1.93532
1.665
1.23542
1.22296
1.11731
1.1347
1.23733
1.38571
1.87865
2.5302
3.00034
2.73334
1.23271
0.97502
0.594006
0.901678
1.00289
1.09684
2.10781
3.17413
3.80248
4.07266
4.04622
4.09747
4.09766
4.06426
4.18697
4.13272
4.34755
4.49817
4.45115
4.77718
4.69817
4.84717
4.75571
4.67041
4.54963
4.53057
4.43066
4.4743
3.84714
2.35045
1.32736
1.08704
6.49372
5.02138
4.26745
4.08011
4.07002
4.07548
4.28916
5.33314
7.86163
10.5923
12.0432
13.5408
13.4833
5.30015
1.73857
1.47915
1.17736
1.43217
1.73456
1.9623
2.09546
2.1273
2.14178
2.03794
1.99837
1.91962
1.90134
2.00676
2.16865
2.52851
2.92372
3.36292
3.80468
4.18081
4.39657
4.21526
3.65524
3.09545
2.93921
3.36355
3.76786
3.75197
2.89979
2.10787
2.23597
1.75899
2.09208
2.18261
1.91173
1.71747
1.72764
1.95433
2.30148
2.74822
2.97627
3.12944
3.1746
3.17481
3.2291
3.24292
3.08824
3.16505
2.99916
2.89029
2.44968
2.58541
2.8937
3.69614
4.51321
5.31498
5.3106
5.81611
7.37637
5.07969
2.21112
2.7954
2.81292
3.04387
2.91452
2.56544
2.15926
1.81216
1.58025
1.55798
1.57251
1.59065
1.60754
1.572
1.52137
1.41424
1.33004
1.14528
1.07952
1.07038
1.06819
1.13276
1.27158
1.55393
1.65993
1.62896
1.43972
1.41308
1.70561
1.82442
1.06982
1.53755
1.86249
1.83522
1.80655
1.98836
2.20495
2.38222
2.44041
2.41485
2.33241
2.08804
1.79397
1.26967
1.1285
1.2135
1.30209
1.37273
1.39096
1.3722
1.31836
1.23814
1.136
1.0917
1.46225
2.09741
2.32081
2.33722
2.35006
2.2658
1.23597
1.68987
1.83789
2.12727
2.23945
2.22569
2.2409
2.35444
2.49205
2.81545
3.04203
3.27883
3.31486
3.46181
3.3478
3.27962
3.22484
3.10222
2.91375
2.60581
2.45063
2.07963
1.86544
1.64185
1.55173
1.52829
1.49022
1.43344
1.37994
1.299
1.34235
1.32727
1.51992
1.56301
1.46611
1.22828
1.12406
1.19511
1.38498
1.80401
2.35123
2.45582
1.85368
1.20074
1.02736
0.950625
0.988926
1.10457
1.1899
1.20883
1.1854
1.13068
1.07649
1.27374
1.44795
1.42528
1.33406
1.27546
1.38381
1.11546
2.43123
3.80019
3.78098
3.53217
3.57949
3.84456
3.95634
3.95444
3.8288
3.74634
3.35501
3.0885
2.83476
2.79023
3.07624
3.56578
4.20131
4.53871
4.69574
4.48324
4.25387
3.82498
3.66803
3.44401
3.42203
2.98416
2.36494
2.0767
2.38198
3.21113
3.49455
4.25672
4.18748
3.92623
3.86886
3.67048
3.54765
3.3963
3.35688
3.38382
3.41624
3.35911
3.28504
2.87776
2.57691
2.15613
1.9153
1.78829
1.53816
1.5498
1.50795
1.47871
1.70826
1.61704
1.63394
1.8769
1.83442
2.48226
2.98191
2.28001
4.47184
4.1876
3.51812
3.19132
2.85712
2.76399
2.72667
2.30348
2.03661
1.68127
1.55713
1.67533
2.03132
1.9055
2.06558
1.70193
1.74549
1.50801
1.29424
1.13747
1.02197
1.11211
1.13532
1.26527
1.41899
1.60677
1.90576
2.21843
2.8439
4.59586
2.32365
2.85158
2.23238
2.38925
2.76883
2.99028
3.07368
3.07755
3.02537
3.02244
2.89466
2.55723
2.07025
1.5914
1.29002
1.1989
1.02575
0.957238
0.929859
0.956552
0.907129
1.04959
1.2075
1.3495
1.72811
2.33699
2.83141
2.97332
2.98277
2.95399
2.85474
3.82371
3.35889
2.71892
2.38881
2.27379
2.10723
1.98275
1.80479
1.64968
1.64366
1.77506
2.01481
2.30904
2.35205
2.29857
1.94346
1.6555
1.24761
1.26458
1.17084
1.21676
1.16704
1.25371
1.63606
2.29144
2.96576
2.89407
1.50829
0.961803
0.685596
0.997005
1.19411
1.77899
3.02587
3.86199
4.11876
4.23855
4.21511
4.1044
4.13967
4.17687
4.07614
4.28366
4.22784
4.45165
4.46818
4.55157
4.77331
4.71384
4.86919
4.71797
4.44467
4.1831
3.71836
3.78682
4.03996
3.12311
1.72642
1.10786
5.72092
4.28375
4.00583
4.28569
4.44369
4.2337
4.02704
4.31277
5.91059
8.74153
10.7061
12.4444
13.2135
5.85964
1.60973
1.29435
1.27696
1.62028
1.91998
2.03693
2.103
1.98771
1.95354
1.86611
1.7903
1.77967
1.85075
2.1609
2.75312
3.50955
4.30468
4.98165
5.38696
5.80936
6.05317
5.95674
5.2383
4.05579
3.42021
3.38424
3.87032
3.98782
3.3261
2.2029
2.2845
1.81537
2.11554
2.0088
1.78512
1.81268
2.10577
2.53358
2.84513
2.93968
3.00021
2.99721
3.01101
2.96276
3.01705
2.97069
2.84323
3.13912
3.1713
3.0503
2.59694
2.57549
2.76833
3.53399
4.37965
4.73201
4.16715
4.11491
6.13463
5.34951
2.47802
2.69408
2.88158
2.81495
2.7676
2.32197
1.81684
1.53482
1.43722
1.43258
1.55134
1.72903
1.80499
1.85921
1.79421
1.78091
1.61165
1.5118
1.32422
1.1656
1.12298
1.10924
1.23503
1.48676
1.55473
1.73014
1.54403
1.52177
1.70335
1.90151
1.56542
1.97328
1.91584
1.7972
1.85785
2.14132
2.44796
2.77963
2.95512
3.20448
3.17998
3.12587
2.93527
2.38433
2.07247
1.36701
1.16518
1.20007
1.23487
1.25572
1.24097
1.19333
1.12509
1.08411
1.38999
1.99343
2.46509
2.54644
2.4553
2.34511
1.25103
1.74265
2.00439
2.25127
2.23681
2.25428
2.27879
2.46192
2.77505
3.12137
3.4292
3.4843
3.5334
3.46095
3.60326
3.48767
3.39583
3.30128
3.188
3.05793
2.65755
2.46104
2.13932
1.80569
1.58703
1.55823
1.53028
1.48371
1.41599
1.31971
1.37497
1.39899
1.54954
1.5329
1.31922
1.14743
1.17519
1.35637
1.5782
2.33146
2.4638
2.35726
1.84686
1.22419
1.02139
0.90515
0.944528
1.12228
1.2488
1.28196
1.26404
1.18686
1.08906
1.10602
1.20782
1.25095
1.18875
1.17981
1.29022
1.11599
2.46987
3.59432
3.50899
3.47138
3.81762
4.08675
4.2337
4.30563
4.22814
4.15057
3.88363
3.4949
3.11927
3.06644
3.43479
4.15234
4.60103
4.61362
4.15662
3.56977
3.07225
2.70734
2.53093
2.46722
2.79481
2.78829
2.33412
2.1386
2.10538
3.00303
3.59986
4.06624
3.8903
3.79761
3.68699
3.65356
3.47823
3.35577
3.27566
3.11739
3.27666
3.15325
3.00269
2.57432
2.56609
1.97131
2.00571
1.65656
1.66537
1.52299
1.72048
1.63017
1.5654
1.6968
1.54142
1.57195
1.75328
1.87198
2.50564
1.87839
4.13838
3.54597
3.09778
2.84879
2.58624
2.68591
2.37003
2.15126
1.84884
1.76367
2.2724
2.44487
2.62248
2.29833
2.06361
2.09122
1.93845
2.00701
1.91704
1.74481
1.49002
1.36892
1.33742
1.40915
1.40059
1.38692
1.45558
1.63947
2.1911
4.02918
2.48681
2.57205
2.15536
2.42849
2.81233
2.95763
3.00168
2.96308
3.06813
3.00109
2.69064
2.11061
1.47978
1.19917
1.10149
0.934743
0.934633
0.91529
0.886854
0.86612
0.852967
0.889901
1.10177
1.22717
1.42008
1.94078
2.54882
2.80843
2.85652
2.90165
3.25813
3.78754
3.07266
2.63532
2.46623
2.4873
2.44158
2.11814
1.70959
1.38368
1.18782
1.18666
1.41647
1.83891
2.23621
2.31278
2.19733
1.84358
1.3821
1.24664
1.1819
1.1929
1.18828
1.20422
1.54635
2.26521
2.87762
3.01725
1.4963
0.960671
0.720208
1.02302
1.09884
2.35728
3.48755
4.13705
4.31301
4.19931
4.24589
4.24726
4.21875
4.26486
4.34819
4.18773
4.41344
4.32094
4.57603
4.51554
4.66394
4.71431
4.70523
4.84052
4.40864
3.83816
3.05156
3.25678
3.75502
3.07763
1.4716
1.06997
5.32542
3.95242
4.24802
5.27166
5.98563
5.35969
4.38097
4.17455
5.05629
7.45619
9.68568
11.7096
12.8599
6.0866
1.51374
1.2505
1.36608
1.69855
1.9323
1.98507
1.97143
1.93016
1.87186
1.82188
1.7323
1.78976
2.03518
2.77252
4.07771
5.40925
6.10096
6.37987
6.55629
6.80789
7.17604
7.40098
6.67404
5.35078
4.00402
3.68444
3.88081
4.1534
3.42009
2.37119
2.26013
2.03726
2.29041
2.24131
2.14416
2.24295
2.51827
2.78537
2.81666
2.88234
2.92047
2.95504
2.90871
2.92939
2.81933
2.68011
2.62827
2.85836
2.9485
2.97255
2.4866
2.48459
2.67425
3.44285
4.20199
4.26025
3.46601
3.2682
4.95893
5.30466
2.58377
2.74885
2.82339
2.7961
2.5091
2.30982
1.82095
1.3655
1.23054
1.3013
1.46549
1.67305
1.87168
1.87369
1.94681
1.7956
1.75349
1.70002
1.51542
1.35055
1.30905
1.13754
1.26911
1.42465
1.57182
1.72664
1.7177
1.5251
1.66289
1.80153
2.02931
2.06386
1.83809
1.77298
1.89209
2.20288
2.62368
3.10465
3.36415
3.94218
3.9518
4.22692
3.94113
3.82085
3.64624
3.06668
2.57112
1.90207
1.50623
1.22803
1.18363
1.15275
1.11312
1.07704
1.35393
1.91725
2.51759
2.73513
2.67606
2.42396
1.26223
1.79022
2.11242
2.26665
2.24976
2.21366
2.2213
2.49158
2.89153
3.27038
3.47598
3.49573
3.46088
3.47118
3.49213
3.56833
3.39047
3.32673
3.44331
3.21684
2.95943
2.57203
2.27697
2.01712
1.72977
1.57143
1.55522
1.51053
1.44112
1.32587
1.40343
1.45902
1.55961
1.45029
1.21272
1.16058
1.29736
1.48993
1.96873
2.25511
2.40557
2.48307
2.08913
1.48266
1.0926
0.885074
0.850252
0.999879
1.18638
1.26261
1.28323
1.1877
1.11277
1.09854
1.13954
1.10972
1.09587
1.00717
1.08318
1.12481
2.20575
3.2788
3.22786
3.49468
3.94121
4.29074
4.49255
4.63021
4.44592
4.41211
4.23136
3.88816
3.32032
3.13789
3.58282
4.19606
4.32237
3.89395
3.1838
2.69461
2.47546
2.33086
2.05939
1.71802
1.6471
2.40595
2.62651
2.05992
2.08005
2.78613
3.52385
3.748
3.6856
3.6469
3.65677
3.5638
3.48032
3.32306
3.04165
3.02526
3.08422
2.94576
2.98294
2.77978
2.65419
2.33623
2.26186
2.00814
1.78294
1.84143
1.70216
1.93478
1.78762
1.63601
1.70872
1.43569
1.51847
1.67767
2.26177
1.60038
4.0212
3.62817
3.0954
2.59277
2.58002
2.33148
2.22187
1.98738
1.93114
2.28825
2.6911
2.67223
2.33758
1.64374
1.32398
1.32567
1.58063
1.89021
2.08586
2.01321
1.92839
1.59568
1.58175
1.53001
1.50195
1.39434
1.28256
1.28767
1.69047
3.56857
2.36164
2.28801
2.0966
2.59738
2.80126
2.90758
2.93727
2.87981
2.99096
2.95525
2.37047
1.64562
1.21141
1.04705
0.991591
1.01595
0.990371
0.938702
0.89334
0.859595
0.84312
0.840325
0.998901
1.14697
1.28792
1.67146
2.32087
2.64845
2.71459
2.80722
3.45243
3.66632
2.99408
2.81492
3.02385
3.21061
3.21088
2.91518
2.18673
1.49353
1.11005
0.997086
1.07251
1.25355
1.76123
2.2376
2.26375
2.15568
1.6647
1.26511
1.25984
1.21635
1.16654
1.24216
1.63695
2.37407
2.93943
2.92901
1.57341
0.924803
0.736136
1.10194
1.43516
2.80356
3.80713
4.19095
4.28643
4.32354
4.19598
4.26753
4.26612
4.2029
4.32837
4.54024
4.40111
4.64277
4.38717
4.65417
4.61629
4.71739
4.67508
4.71222
4.57378
3.54657
2.46876
2.77674
3.46916
3.10324
1.68416
1.06731
5.16129
3.80568
4.62805
6.70195
8.09214
6.97098
4.94621
4.18898
4.79227
6.77315
8.96873
11.1644
12.4494
6.38081
1.46099
1.27659
1.46753
1.63691
1.80007
1.85244
1.90129
1.95185
1.95132
1.88175
1.77663
1.8138
2.20742
3.34315
5.04451
6.17361
6.30632
5.87448
5.59206
5.98099
6.83908
7.41753
7.50287
6.17167
4.6942
3.92632
4.13098
4.19195
3.5832
2.42214
2.29653
2.09801
2.292
2.29719
2.23031
2.42873
2.70344
2.66548
2.75068
2.83804
2.97124
2.96378
2.92095
2.8415
2.74902
2.45492
2.39218
2.52732
2.57875
2.61115
2.24944
2.35367
2.65411
3.41359
4.00974
3.90162
3.15309
2.86021
4.08771
5.11051
2.55708
2.63381
2.69303
2.69732
2.6201
2.22926
1.89458
1.38886
1.12387
1.11643
1.22667
1.48215
1.73246
1.86684
1.83599
1.8274
1.72241
1.73202
1.56858
1.54403
1.38723
1.23834
1.36444
1.43677
1.62135
1.83752
1.7883
1.65634
1.70332
1.86591
2.12183
2.05202
1.79035
1.78399
1.89107
2.1822
2.64383
3.20729
3.53649
4.14671
4.2284
4.26085
4.23003
4.14531
4.11077
3.90924
3.81883
3.27038
2.79613
2.15996
1.77755
1.37724
1.21674
1.13782
1.42434
1.88473
2.50518
2.81375
2.75912
2.45682
1.27082
1.79675
2.10558
2.26667
2.22197
2.16112
2.15185
2.42007
2.82379
3.19185
3.37094
3.35399
3.3508
3.32959
3.47546
3.35898
3.4549
3.23377
3.25454
3.27123
3.08843
2.71881
2.35914
2.1164
1.82964
1.5904
1.56727
1.52651
1.44934
1.33542
1.43406
1.49888
1.54214
1.36243
1.20307
1.23345
1.41331
1.54344
1.91979
2.29134
2.24382
2.18721
2.4618
1.97767
1.25529
0.937192
0.787277
0.836595
1.03773
1.18145
1.37821
1.37012
1.25351
1.18565
1.10122
0.993455
0.992965
1.01142
1.03732
1.08734
2.03365
2.66382
2.75676
3.48099
4.18905
4.45985
4.53123
4.58709
4.7375
4.41921
4.40437
4.0299
3.41862
3.02511
3.42556
3.91683
3.77036
3.09466
2.52981
2.44192
2.32356
2.10948
1.77055
1.59813
1.56816
1.8434
2.3342
2.1559
2.06504
2.76026
3.11623
3.41043
3.4229
3.55775
3.55755
3.49621
3.40832
3.15428
3.03831
2.79946
2.8485
2.98841
3.27261
2.9429
2.87591
2.47846
2.20837
1.74335
1.72052
1.49968
1.81277
1.70111
1.93933
1.80665
1.69773
1.75777
1.39726
1.3629
2.05337
1.49262
3.51057
3.03067
2.58368
2.33275
2.1788
2.26096
2.07554
1.98902
2.15824
2.46073
2.78507
2.53784
1.50072
1.1988
1.1617
1.20783
1.24647
1.63691
1.95391
2.06972
1.92406
1.75072
1.57306
1.69897
1.60465
1.44076
1.24975
1.16244
1.42269
3.34269
2.41804
2.21957
2.33401
2.61592
2.79858
2.83734
2.74664
2.91577
3.07039
2.87222
2.1518
1.34698
1.11471
1.00721
1.09739
1.07879
1.00072
0.892739
0.859361
0.840655
0.832786
0.828965
0.905789
1.13292
1.2424
1.5966
2.18975
2.55665
2.58756
2.75572
3.52139
3.55138
3.0807
3.3086
3.83155
4.18555
4.09802
3.8387
3.26586
2.14613
1.26365
0.989255
0.923203
1.00544
1.22844
1.71551
2.30049
2.42591
2.13253
1.60441
1.35197
1.21333
1.34763
1.60758
2.03406
2.52167
3.13605
2.94287
1.43949
0.934237
0.716233
1.05589
1.54081
2.95429
3.85785
4.20357
4.26004
4.25828
4.33996
4.30028
4.3105
4.39844
4.20258
4.18522
4.39353
4.63265
4.46102
4.88967
4.50401
4.76419
4.66818
4.70017
4.5901
3.7964
2.18325
2.34636
2.71779
2.02699
1.3113
1.05238
4.91334
3.69556
4.90716
8.10261
10.548
9.0794
6.0995
4.7391
4.82783
6.36119
8.33693
10.8865
11.9158
6.7369
1.49078
1.44842
1.74061
1.72941
1.72429
1.78563
2.00581
2.1417
2.19776
2.12627
1.84018
1.8588
2.18552
3.29543
4.9476
5.79788
5.54486
4.83972
4.60014
4.9658
6.0897
7.28811
7.33215
6.51742
4.8707
4.22728
4.18963
4.33479
3.54266
2.53791
2.51075
2.36734
2.55752
2.69267
2.55827
2.55331
2.53535
2.70427
2.71466
2.9082
3.00022
3.07801
2.8944
2.87978
2.57163
2.39084
2.12517
2.21357
2.20166
2.20743
2.08098
2.31044
2.69575
3.50047
3.83526
3.65314
3.0075
2.71557
3.77516
4.95333
2.62102
2.60691
2.66694
2.59633
2.56484
2.37747
1.93765
1.41962
1.12025
1.10677
1.13533
1.25707
1.54414
1.69122
1.80596
1.66821
1.71097
1.58006
1.64962
1.49553
1.39633
1.36413
1.47222
1.53516
1.76627
1.87586
1.87625
1.67294
1.69172
1.81941
2.00247
2.00799
1.79285
1.78083
1.92044
2.13716
2.55963
3.11795
3.55712
3.93369
4.18677
3.99259
4.11705
3.93378
4.18606
4.09094
4.17282
3.99644
3.71366
3.18111
2.52065
1.9049
1.55726
1.29425
1.59328
1.88218
2.52986
2.81837
2.87218
2.48263
1.28222
1.78572
2.12404
2.22677
2.24272
2.23406
2.21576
2.318
2.58759
2.95357
3.14712
3.19692
3.16597
3.16963
3.38657
3.35482
3.1447
3.22576
3.0672
3.18489
2.97071
2.64084
2.36394
2.10821
1.88259
1.66789
1.56917
1.52161
1.43245
1.33316
1.45644
1.52317
1.52023
1.30917
1.22062
1.32664
1.49626
1.62989
1.92879
1.96743
2.18308
2.01432
2.27002
2.50643
1.84813
1.10403
0.793888
0.741936
0.879414
1.08231
1.38908
1.44468
1.30071
1.03312
0.98536
0.972041
1.14755
1.38917
1.09976
1.07645
1.74443
2.5646
2.93694
3.4572
3.76902
4.03188
4.15653
4.52002
4.44732
4.50829
4.18105
4.08538
3.28661
2.7836
3.18538
3.57377
3.17869
2.51155
2.31989
2.28694
2.10583
1.86051
1.76265
1.77982
1.60359
1.54419
2.168
2.19197
2.11649
2.82708
3.01942
3.22213
3.27131
3.49825
3.62705
3.57215
3.35305
3.19918
2.86781
2.60203
2.68176
3.27801
3.31101
3.26767
2.83873
2.42332
1.62825
1.38888
1.21524
1.37017
1.31945
1.76445
1.7005
1.8526
1.63573
1.45138
1.36324
1.17523
1.56375
1.4516
3.62779
3.14333
2.53593
2.12306
2.15628
2.06977
1.99793
2.09854
2.19917
2.54112
2.79269
2.2215
1.17018
1.01794
1.02031
1.13218
1.20385
1.58379
1.6889
1.8831
1.61426
1.58709
1.77671
1.94144
1.83387
1.54327
1.25315
1.13287
1.39253
3.25862
2.34224
2.27451
2.43785
2.64571
2.73078
2.56949
2.61451
2.83791
3.22203
2.86712
1.9239
1.29306
0.992831
1.07614
1.17154
1.11016
0.994129
0.909124
0.853877
0.841379
0.835044
1.01202
0.880831
1.16217
1.33299
1.69473
2.27897
2.52208
2.591
2.76705
3.51398
3.51487
3.33728
3.82732
4.3173
4.47928
4.5138
4.26834
3.99979
3.37876
2.03736
1.14868
0.934738
0.931556
0.988947
1.21951
1.74909
2.50458
2.71352
2.50241
2.13598
1.86293
1.94945
2.14932
2.57626
3.0266
3.1808
2.8209
1.41945
0.951151
0.702546
1.02205
1.59448
2.90641
3.85834
4.13695
4.1751
4.2697
4.2664
4.4747
4.27111
4.38892
4.40998
4.31966
4.1868
4.54981
4.5972
4.83255
4.61819
4.8298
4.70522
4.69815
4.62993
4.11668
2.14456
1.75518
1.9251
1.63076
1.30765
1.20135
4.93142
3.62121
4.94135
9.0823
12.3665
11.3089
7.97211
5.9713
5.63097
6.39565
8.19605
10.6774
11.2099
6.59403
4.36253
1.81691
1.44734
1.93772
2.70787
2.50024
2.04309
1.96737
2.12962
2.46399
2.856
2.63105
2.18606
1.80976
2.08846
2.91326
4.45423
5.324
5.06799
4.372
4.2168
4.62629
5.7699
6.6213
6.93352
5.99166
4.95486
4.32842
4.43667
4.24111
3.34447
2.61383
3.07828
3.00195
2.48554
2.40651
2.52488
2.67404
2.68405
2.66314
2.70464
2.70865
2.84871
2.85525
3.05116
3.06932
2.96301
2.86864
2.69172
2.1272
2.08053
2.02403
2.05069
2.04651
2.08703
2.4384
2.92895
3.57898
3.75898
3.46835
2.90976
2.47603
3.08976
4.16855
3.98794
3.23878
2.77804
2.63599
2.54734
2.49799
2.43614
2.46217
2.20496
1.61496
1.13626
1.09068
1.10721
1.16996
1.29329
1.59918
1.68264
1.69975
1.73665
1.66225
1.50002
1.51499
1.57419
1.55644
1.60491
1.75683
1.86833
1.99291
1.93125
1.72929
1.66635
1.79377
1.88737
1.95042
2.0268
2.14075
1.84688
1.81026
1.93745
2.09258
2.4601
2.96901
3.53299
3.78765
4.04801
3.89427
3.81738
3.83661
3.98001
4.12336
4.26708
4.31562
3.99375
3.6048
2.97717
2.17809
1.79133
1.48544
1.71721
1.98178
2.489
2.83125
2.93364
2.52967
2.61937
1.90218
1.31075
1.67559
2.02651
2.22729
2.42393
2.61056
2.57731
2.37257
2.41327
2.60148
2.87992
2.97196
2.98589
3.02404
3.21106
3.36732
3.01871
3.0408
2.92714
2.81207
2.74108
2.51324
2.30955
2.10095
1.87293
1.7017
1.55597
1.49934
1.41561
1.36043
1.48536
1.51183
1.48576
1.53694
1.49144
1.30582
1.27891
1.39965
1.51652
1.56098
1.9311
1.86452
1.8987
2.08614
2.03905
2.38785
2.513
1.42799
0.896369
0.717956
0.768751
0.976442
1.11065
1.40777
1.1817
1.02513
0.964693
1.05423
1.55001
2.01585
2.03839
1.6413
1.27992
1.53392
1.46879
1.78311
2.41621
3.14179
3.68278
4.00347
4.39767
4.34489
4.55153
4.08345
4.0232
3.67923
3.10258
2.34525
2.79235
2.96311
2.52971
1.98967
2.10325
1.99367
2.06766
2.07717
1.81679
1.62779
1.61218
1.58558
2.10029
2.12496
2.17076
3.13919
4.15105
3.27831
2.26069
2.64512
3.00643
3.26855
3.46979
3.39527
3.22374
2.99382
2.72152
2.43092
2.69349
3.25228
3.53903
3.44491
2.80892
2.01423
1.31663
1.15854
1.04386
1.12671
1.463
1.46011
1.86695
1.68915
1.89182
1.4929
1.32492
1.22211
1.48654
1.43187
1.35588
2.80205
2.69553
2.40361
2.03584
2.06501
2.233
2.29132
2.27285
2.17243
2.29025
2.67912
2.77685
1.85856
1.05128
0.900639
0.919393
1.06391
1.15696
1.22636
1.53877
1.41717
1.62154
1.83797
2.21203
2.37928
1.95505
1.61988
1.24749
1.15115
1.39037
3.08134
4.03343
3.35968
2.2887
2.25905
2.47327
2.57578
2.37474
2.39833
2.40961
2.86672
3.29415
2.94017
1.86711
1.28952
0.996262
1.09916
1.20449
1.1771
1.07432
0.989268
0.892245
0.873835
0.894824
1.03694
1.04593
1.25808
1.57069
2.03339
2.43275
2.56269
2.56866
2.88982
3.15279
3.74534
3.35601
3.3834
3.56098
4.16143
4.56211
4.59626
4.58655
4.57649
4.26157
3.975
3.26655
1.7274
1.06377
0.992061
1.03497
1.05548
1.20281
1.7711
2.58912
2.84195
2.79148
2.79123
2.75133
2.88585
3.07473
3.25316
3.32623
2.91853
1.4165
0.994826
1.0935
0.967595
0.704832
0.99128
1.57446
2.904
3.7506
4.04483
4.20211
4.18612
4.32159
4.39654
4.33742
4.30931
4.32714
4.22196
4.13814
4.633
4.79158
4.75814
4.83016
4.8268
4.76972
4.79434
4.66032
4.42443
2.5561
1.64745
1.53063
1.48515
1.74262
4.10342
4.89022
4.96203
4.8675
3.46316
4.4725
8.98221
13.2435
13.1925
10.0265
7.76143
7.01398
7.4136
8.87778
10.7606
9.36239
5.17354
2.83814
1.94698
2.1258
4.19983
6.70768
6.33964
4.46037
2.75831
2.30185
2.88231
3.39934
3.56644
2.76383
2.04504
1.98671
2.6102
3.9476
4.97335
4.91976
4.53437
4.29375
4.53004
5.07051
5.85385
5.83171
5.42967
4.73113
4.57309
4.46229
4.13024
3.13431
2.77702
3.23776
3.12925
2.72037
2.65051
2.56563
2.83243
2.94987
2.8765
2.88762
2.88643
2.85896
2.96162
3.01575
3.18241
2.9616
2.93699
2.6984
2.11865
1.88768
1.9684
1.90457
2.14608
2.29869
2.79288
3.20986
3.64183
3.60387
3.32039
2.7673
2.4336
2.80762
3.93685
4.08067
3.42931
2.72252
2.56814
2.4202
2.22369
2.25197
2.25428
2.32507
1.97887
1.24573
1.08937
1.07232
1.11607
1.19808
1.29807
1.51543
1.64169
1.62143
1.56501
1.70456
1.64622
1.66251
1.6836
1.82541
1.89713
2.02248
2.06443
1.94327
1.75627
1.6662
1.71989
1.7953
1.83048
2.05825
2.26171
1.94413
1.87103
1.96142
2.0347
2.37892
2.79736
3.40949
3.68936
3.88844
3.75207
3.74951
3.61589
3.7153
3.87937
3.83517
3.86012
3.75946
3.24997
2.79303
2.1274
1.8529
1.70009
1.84732
2.11059
2.56044
2.84408
2.95521
2.72765
2.62434
2.49063
2.27866
1.69971
1.93171
2.25634
2.71992
3.38609
3.38637
2.88828
2.43378
2.39285
2.55956
2.76377
2.74697
2.84475
3.03757
3.20514
3.09011
2.82561
2.71869
2.69019
2.50901
2.40244
2.18396
2.05383
1.87995
1.73071
1.62181
1.51376
1.42116
1.44146
1.53076
1.52212
1.5139
1.53658
1.47513
1.33548
1.34964
1.46245
1.52929
1.55798
1.79978
1.87339
1.84124
1.97188
2.07297
2.22317
2.46291
2.27645
1.07996
0.754279
0.712914
0.849107
1.03849
1.11066
1.08453
0.99943
0.919173
1.1332
1.51819
1.99314
1.75565
2.00966
1.47314
1.51831
1.51891
2.14444
2.6714
3.37112
3.87151
4.02291
4.0398
4.21813
4.01751
3.99838
3.62392
3.70969
2.75329
2.1151
2.71998
2.86709
2.19376
1.86363
1.90637
1.96668
2.09831
2.03271
1.71896
1.62886
1.62071
1.58201
1.92514
2.21457
2.60798
3.94356
3.78497
2.91094
2.66281
2.90115
3.06339
3.34326
3.47059
3.54475
3.33186
2.98464
2.62241
2.35928
2.40685
3.3692
3.5927
3.55698
2.45325
1.89346
1.24783
1.16537
1.00687
1.24519
1.27827
1.55338
1.54196
1.78099
1.54089
1.44619
1.18568
1.3299
1.48661
1.37981
2.20018
2.78913
2.72233
2.42985
2.51384
2.74975
3.03063
3.12292
2.84343
2.54091
2.46701
2.86788
2.87876
1.96469
1.02067
0.846585
0.835021