/*--------------------------------*- C++ -*----------------------------------*\
| =========                 |                                                 |
| \\      /  F ield         | OpenFOAM: The Open Source CFD Toolbox           |
|  \\    /   O peration     | Version:  2.1.1                                 |
|   \\  /    A nd           | Web:      www.OpenFOAM.org                      |
|    \\/     M anipulation  |                                                 |
\*---------------------------------------------------------------------------*/
FoamFile
{
    version     2.0;
    format      ascii;
    class       volScalarField;
    location    "0.005550000";
    object      fH;
}
// * * * * * * * * * * * * * * * * * * * * * * * * * * * * * * * * * * * * * //

dimensions      [0 0 0 0 0 0 0];

internalField   nonuniform List<scalar> 
12384
(
0.0306353
0.0295058
0.0286908
0.0282969
0.0282279
0.0283176
0.028435
0.0285308
0.028642
0.0287481
0.028991
0.0302718
0.0334335
0.0305418
0.0228309
0.0235748
0.0243892
0.0249024
0.0250517
0.0250847
0.0250768
0.0250828
0.0250871
0.0251005
0.0250926
0.0250727
0.0250286
0.0250003
0.0249456
0.0249276
0.0248931
0.0248776
0.0248495
0.0248272
0.0247888
0.0247472
0.0246825
0.0245825
0.0243936
0.0241481
0.0237862
0.0233669
0.0231875
0.0229145
0.0302948
0.0292749
0.0268363
0.0258806
0.0258187
0.0258396
0.0260197
0.0261207
0.0263933
0.0265862
0.0267997
0.0270042
0.0271158
0.0272221
0.0272823
0.027316
0.0273119
0.0273044
0.0272688
0.0272503
0.0272149
0.0271947
0.027203
0.0273011
0.0276053
0.0287673
0.0295301
0.0275797
0.0270015
0.0275623
0.0307826
0.0314527
0.0308783
0.0303726
0.0301381
0.0300482
0.0300343
0.0300116
0.029974
0.0299294
0.0298952
0.0298665
0.0298472
0.0298352
0.0298258
0.0298388
0.0298398
0.029896
0.0298557
0.029979
0.030027
0.030083
0.0301561
0.0302986
0.0305057
0.0291913
0.0285013
0.028546
0.0287304
0.0287905
0.0334721
0.0336015
0.0335324
0.0332311
0.0328375
0.032459
0.0321296
0.0319351
0.031701
0.0315963
0.0314474
0.0314767
0.0314137
0.0315752
0.031461
0.0316332
0.0314053
0.0317118
0.0317427
0.0319903
0.0317958
0.0317716
0.0313387
0.0286355
0.0278526
0.0279633
0.0283454
0.0286191
0.0288085
0.0288292
0.033761
0.0364584
0.0373665
0.0377736
0.0378356
0.0377405
0.0374219
0.0372591
0.0369797
0.0368235
0.036639
0.0364873
0.0363724
0.0362945
0.0362345
0.0361991
0.0361838
0.0361812
0.0361902
0.0362167
0.0362656
0.0363123
0.0363844
0.036459
0.0365927
0.0367321
0.0368078
0.0363912
0.0338536
0.0319605
0.031239
0.0313553
0.029897
0.0291441
0.0293223
0.0302834
0.0312857
0.0318325
0.0321306
0.0321429
0.0321192
0.0320172
0.0318511
0.0318065
0.031655
0.0316805
0.0315786
0.0316105
0.0315395
0.0315559
0.0316295
0.031799
0.031918
0.0309303
0.0271478
0.0256433
0.0256202
0.0264376
0.0272032
0.0275468
0.0288573
0.0292624
0.0306926
0.0327438
0.034539
0.0356755
0.0363864
0.0367672
0.0369473
0.0370435
0.0370875
0.0371171
0.0371376
0.0371869
0.0372065
0.037238
0.0372482
0.0372495
0.0372458
0.0372346
0.0372171
0.0372742
0.0371793
0.0354298
0.0339659
0.0339037
0.0338418
0.0337608
0.0337148
0.0337464
0.0320508
0.0318223
0.0319468
0.032278
0.0326413
0.0329571
0.0331223
0.0332899
0.0331724
0.0334518
0.0329889
0.0332155
0.0328556
0.0329118
0.032802
0.0326666
0.0325554
0.0322072
0.0320227
0.0317649
0.0319127
0.0367111
0.0445892
0.0451612
0.0446483
0.0443927
0.0442884
0.0443661
0.0448819
0.0451737
0.0286631
0.0302709
0.0320067
0.0329907
0.0334982
0.0338165
0.0337744
0.033844
0.0339201
0.0337273
0.0338531
0.0335106
0.0335022
0.0333299
0.0331937
0.0331459
0.0331824
0.0331566
0.033107
0.0329129
0.0325155
0.0326195
0.0358168
0.0366435
0.0365663
0.0365708
0.0366488
0.0367328
0.0367625
0.0367768
0.0349104
0.0364055
0.0370419
0.0372306
0.0372654
0.0371953
0.0371467
0.0370091
0.037066
0.0368744
0.0370118
0.0368414
0.0368848
0.0367811
0.0365195
0.0367455
0.0366905
0.0367104
0.03654
0.0363198
0.0365252
0.0384948
0.0385941
0.0384188
0.0385544
0.0386936
0.0387259
0.038637
0.0383759
0.038227
0.0308083
0.0340466
0.0367087
0.0353649
0.0364971
0.0393438
0.0403392
0.0403657
0.04004
0.0396034
0.0391844
0.0389029
0.0387345
0.0386974
0.0387527
0.0389453
0.0391796
0.0394249
0.0396316
0.0397863
0.0398609
0.0398927
0.039774
0.0396533
0.0394504
0.0393081
0.0392959
0.0392247
0.0359046
0.0244754
0.0171668
0.0176143
0.0176936
0.0175525
0.0175184
0.0255926
0.0513028
0.0531721
0.0525954
0.0525143
0.0525548
0.0526778
0.0529163
0.0531591
0.0535026
0.0538742
0.0543289
0.0548878
0.0554198
0.0559158
0.0562093
0.0562484
0.056152
0.0555644
0.0539259
0.0504717
0.0462677
0.042991
0.033781
0.0199107
0.0258415
0.025967
0.0266038
0.0277066
0.0287847
0.0294557
0.0297776
0.0297963
0.0295927
0.0291634
0.0287187
0.0291247
0.0319491
0.0311661
0.0229749
0.0241007
0.0251615
0.025671
0.0256533
0.0254854
0.0253672
0.0252863
0.025227
0.025139
0.0250133
0.024878
0.0247314
0.0247331
0.0246224
0.0247095
0.024678
0.0247773
0.0248211
0.0248713
0.0248948
0.0248915
0.024838
0.0247412
0.0245669
0.024318
0.023985
0.0236007
0.0232676
0.0225238
0.0302108
0.028277
0.0260268
0.0253642
0.0256376
0.0260772
0.0266044
0.0269051
0.0272389
0.0275764
0.0277886
0.0278544
0.0278953
0.0278769
0.0278512
0.0278104
0.0277749
0.0277596
0.0277448
0.0277355
0.0277032
0.0276428
0.0275393
0.0274495
0.0275031
0.0281077
0.0292154
0.0295625
0.0291435
0.0292366
0.0308421
0.0313678
0.0306016
0.0300619
0.0298943
0.0299104
0.0298827
0.0298153
0.0297454
0.0296811
0.029603
0.0294991
0.0293868
0.0292781
0.0291791
0.0290928
0.0290372
0.0290207
0.0290766
0.0292264
0.0294585
0.0297443
0.0299926
0.0301832
0.0304868
0.0301187
0.0293963
0.0294507
0.0298026
0.0295709
0.0335688
0.0332791
0.0321808
0.0310608
0.0303417
0.0299373
0.029724
0.029569
0.0295488
0.0294578
0.0294419
0.0294621
0.0294245
0.0294574
0.0294886
0.029667
0.0298756
0.0302238
0.0306201
0.0311229
0.0314415
0.0316183
0.0316079
0.0303724
0.0284874
0.0283512
0.0289756
0.0296017
0.0298014
0.0295504
0.0345164
0.0369562
0.0376371
0.0376803
0.03723
0.0365706
0.0361281
0.0358639
0.0356856
0.0354015
0.0353189
0.0352651
0.0352763
0.0352994
0.0353435
0.0354271
0.0355436
0.0356749
0.035797
0.0358875
0.0359499
0.0359911
0.0360365
0.0361281
0.0362932
0.0365044
0.0366959
0.0366747
0.0357476
0.0340277
0.0314154
0.0308085
0.0296116
0.0299861
0.0319932
0.0332213
0.0333905
0.0332332
0.0328285
0.0323314
0.0317968
0.0313176
0.0309638
0.0306993
0.0305573
0.0303394
0.0303102
0.0302503
0.0303705
0.0305508
0.0308071
0.0311935
0.0316585
0.0315018
0.0297119
0.0274621
0.0259114
0.0253765
0.0260528
0.0270794
0.0326965
0.0345206
0.038079
0.0396591
0.039941
0.0396586
0.0389537
0.0382272
0.0377693
0.0374416
0.0372473
0.0371355
0.0370779
0.0370637
0.0370876
0.0371233
0.0371596
0.0372006
0.0372425
0.037285
0.0373219
0.0373823
0.0373578
0.0365796
0.0346693
0.0336514
0.0333693
0.0332839
0.033281
0.033413
0.0315118
0.0323479
0.0335056
0.0343501
0.0347238
0.0348155
0.0348106
0.0346732
0.0345908
0.0342977
0.0343643
0.0341463
0.0342189
0.0340844
0.0339233
0.0337218
0.0334865
0.0330635
0.0325949
0.0320921
0.0318736
0.0335576
0.0404721
0.0444658
0.0421836
0.0408172
0.0401419
0.0405535
0.0422351
0.0438194
0.0307539
0.0333993
0.0345826
0.0349672
0.0350706
0.0349172
0.0346512
0.0340298
0.0336826
0.0331222
0.0327493
0.0323876
0.0322175
0.032151
0.032155
0.0322604
0.0324221
0.0326806
0.0328426
0.032886
0.0326748
0.0324473
0.0336654
0.0362202
0.0366667
0.0368105
0.0370614
0.0372132
0.0372484
0.0372924
0.0366527
0.0375855
0.0375652
0.0372078
0.0368307
0.0365526
0.0363306
0.0361961
0.0360511
0.0359336
0.03583
0.0357145
0.0356875
0.0356798
0.0357632
0.0358623
0.0360236
0.0361779
0.0362716
0.0362159
0.0362386
0.0374898
0.0386413
0.0386689
0.0394482
0.0401377
0.0402559
0.0397738
0.0388634
0.0382747
0.0354279
0.0366138
0.0365027
0.0374929
0.039549
0.0401636
0.0393518
0.0382059
0.0372398
0.0366525
0.0362246
0.0361841
0.0360612
0.0364848
0.0368445
0.0375884
0.0384726
0.0393437
0.0400057
0.0403651
0.0403996
0.0403819
0.0402932
0.0402096
0.0399559
0.0395943
0.0392856
0.0391876
0.037728
0.0306786
0.0224684
0.0249817
0.024197
0.0205461
0.0238744
0.0417068
0.0523204
0.0525276
0.0519754
0.0520031
0.0521338
0.0523441
0.0526159
0.0529209
0.0532565
0.0536933
0.0543643
0.0553816
0.0567051
0.0580842
0.0589006
0.0588887
0.0583225
0.0573072
0.0542845
0.0493915
0.0447615
0.0421132
0.0345051
0.0206566
0.0254262
0.0265884
0.028968
0.0305393
0.0312103
0.0312603
0.0311926
0.0311769
0.0311272
0.0307427
0.0297463
0.0289108
0.0305786
0.0314069
0.0231907
0.0247496
0.0259709
0.0262571
0.0259353
0.0255698
0.0253074
0.0250979
0.0249141
0.0246914
0.0245149
0.0242837
0.0243512
0.0242831
0.0245003
0.0245002
0.0247081
0.0247533
0.024911
0.024951
0.0250394
0.025036
0.0250433
0.0249534
0.0247713
0.0245153
0.0241785
0.0238152
0.0234218
0.0226759
0.0299862
0.0274106
0.0256624
0.0256876
0.0266065
0.0272863
0.0273795
0.0275077
0.0277394
0.0279237
0.0279774
0.0278802
0.0277618
0.0276613
0.0276298
0.0276519
0.0276955
0.0277155
0.0276871
0.0276605
0.0276568
0.0276876
0.0276882
0.0276236
0.0275598
0.0277851
0.0286529
0.02962
0.030029
0.0297891
0.030905
0.0314028
0.0306037
0.0300625
0.0299313
0.0298874
0.0298337
0.029822
0.0298342
0.0297794
0.029653
0.0294856
0.0293083
0.0291359
0.0289785
0.0288373
0.0286926
0.0285907
0.0285678
0.0286144
0.0288249
0.0292039
0.0296449
0.0299989
0.0303582
0.0305494
0.0303887
0.0305071
0.0307082
0.0300477
0.0336369
0.0318275
0.0301717
0.0295634
0.0294429
0.0294552
0.0294875
0.0294784
0.029435
0.0293596
0.029342
0.0292922
0.0292766
0.0292578
0.0292413
0.0293077
0.0291779
0.0294059
0.0296334
0.0302185
0.0307404
0.0311567
0.0315
0.0313846
0.0301384
0.0295009
0.0297996
0.0304005
0.0305214
0.0299349
0.0352961
0.0372693
0.0374932
0.0367784
0.0358209
0.0353881
0.0353268
0.0352231
0.0350822
0.03494
0.0349971
0.0349822
0.0349123
0.0348563
0.0349194
0.0351027
0.0353697
0.0356597
0.0359172
0.0361182
0.0362599
0.0363027
0.0362524
0.0361447
0.0361041
0.0362079
0.0364352
0.0366288
0.0364508
0.0351348
0.0313695
0.0304249
0.0302332
0.032739
0.0340528
0.0338319
0.033358
0.0326567
0.0318099
0.0310323
0.0304879
0.0302268
0.0302709
0.0303553
0.0306199
0.0307386
0.0307638
0.0307019
0.0306307
0.0305486
0.0305418
0.0307177
0.0311679
0.0315476
0.031091
0.0296613
0.0278672
0.0260276
0.0254923
0.0265303
0.0347564
0.0379723
0.0406071
0.0399603
0.0384766
0.0371326
0.0364659
0.0362005
0.0362522
0.036303
0.0364891
0.0365486
0.0366875
0.0367307
0.0367252
0.0366371
0.0366576
0.036634
0.0367116
0.0367475
0.0369585
0.0372461
0.0374447
0.0372571
0.0359866
0.0341815
0.0332473
0.0330565
0.0332135
0.0333131
0.0329373
0.0343011
0.0351179
0.0352502
0.0349911
0.0344794
0.033881
0.0333488
0.0328275
0.0325329
0.0323098
0.0323035
0.0323972
0.0325803
0.0328984
0.0331851
0.0333777
0.0333716
0.0331138
0.0325714
0.0320271
0.0322546
0.0360833
0.0424519
0.0411367
0.0378937
0.0369175
0.0371377
0.0388197
0.0415859
0.0338314
0.0350152
0.0353968
0.0355742
0.0353916
0.0346967
0.033569
0.0324889
0.0314894
0.0308279
0.0303289
0.0301207
0.0300177
0.0300119
0.0300965
0.0303837
0.0308643
0.0314395
0.0320263
0.0324911
0.0326591
0.0324831
0.0326643
0.0347759
0.036657
0.0370232
0.0373575
0.0374193
0.0373976
0.0375635
0.037857
0.037622
0.0369556
0.0363837
0.0360552
0.0358836
0.0356632
0.0353711
0.0349543
0.0345037
0.0341334
0.0338805
0.0337079
0.0337989
0.0338614
0.0342319
0.0346807
0.0351533
0.0355325
0.0358489
0.0359636
0.0366161
0.0381831
0.0388205
0.0400689
0.0412329
0.0414513
0.0408627
0.0394924
0.0383722
0.03675
0.0371096
0.0381121
0.0397012
0.0399638
0.0387007
0.0372732
0.0363038
0.0357186
0.0353007
0.0348527
0.0345279
0.0341085
0.0340407
0.0341209
0.0349713
0.0362902
0.0377859
0.0389864
0.0394466
0.0389714
0.0380139
0.0373348
0.0376521
0.0384219
0.0389821
0.038995
0.0390286
0.0384038
0.0337027
0.0333995
0.0373238
0.0323217
0.0250981
0.0355449
0.0496831
0.0524215
0.0520066
0.0519521
0.0522722
0.0525363
0.0526997
0.0527927
0.05288
0.0530286
0.0532782
0.0537275
0.054606
0.0561591
0.058287
0.0598153
0.0599116
0.0577293
0.0549577
0.049529
0.0444839
0.0417008
0.0409072
0.0350137
0.0210171
0.0257704
0.028128
0.0306794
0.0311787
0.0306752
0.0299635
0.029452
0.0294228
0.0299708
0.0308039
0.0306221
0.0293641
0.0299688
0.0313635
0.0234331
0.025393
0.0267371
0.0268418
0.0263234
0.0257514
0.0252691
0.0248843
0.0245773
0.0242896
0.0241402
0.0240727
0.0242841
0.0244889
0.0247209
0.0249332
0.0250651
0.0251871
0.0252897
0.0253373
0.0253642
0.0253508
0.0253254
0.0252188
0.0249987
0.024696
0.0243261
0.0239459
0.023541
0.0227814
0.0297707
0.0269615
0.0257186
0.0265623
0.0278568
0.0281562
0.0277715
0.0276886
0.0278571
0.0279652
0.0279036
0.0278088
0.0276784
0.0276153
0.0276812
0.0278618
0.0280695
0.0281619
0.0281124
0.0279034
0.0276897
0.0276026
0.0276363
0.027669
0.0276425
0.0277149
0.0282911
0.0293419
0.0300804
0.0299827
0.0309773
0.0315417
0.0306979
0.0300487
0.0298706
0.0298889
0.0299621
0.0300361
0.0300502
0.0298885
0.0296731
0.0294378
0.0292122
0.0290147
0.0288457
0.0287199
0.0286039
0.0284791
0.0283729
0.0283167
0.0283935
0.0287169
0.0292405
0.0297682
0.030208
0.0305928
0.0308119
0.0310963
0.0312087
0.0303108
0.0329134
0.0302435
0.0295648
0.0298065
0.0301384
0.030297
0.0302381
0.0300326
0.0297789
0.0295744
0.0294691
0.0294198
0.0294313
0.0294405
0.0294532
0.0294554
0.0293543
0.029299
0.0292666
0.0295607
0.0300633
0.0305889
0.0311123
0.0315011
0.0313348
0.0309492
0.031009
0.0311479
0.031099
0.0301616
0.035815
0.0373261
0.0368499
0.0356125
0.0349985
0.0349987
0.0350298
0.0349758
0.0348262
0.0347491
0.0347129
0.0344458
0.0342187
0.0342177
0.0344685
0.0348895
0.0353452
0.035749
0.0360815
0.0363224
0.0364844
0.036575
0.0365528
0.0363699
0.0361316
0.0360375
0.0361694
0.0364623
0.0365642
0.0356263
0.031248
0.0305409
0.0321049
0.0344961
0.0339949
0.0337253
0.032939
0.0315866
0.0303133
0.029724
0.0297884
0.0304124
0.0313911
0.0324427
0.0331929
0.0336797
0.0338739
0.0336672
0.0330316
0.0321448
0.0313423
0.030902
0.0309111
0.03132
0.0315212
0.0310247
0.0297168
0.0273645
0.0255264
0.0262135
0.0362405
0.0408525
0.0400363
0.0378004
0.0363853
0.0359573
0.0360874
0.036381
0.0367231
0.037068
0.037289
0.0375335
0.0377382
0.0379
0.0380188
0.0379038
0.0376867
0.0373341
0.0370482
0.0367156
0.0366098
0.0368299
0.0372671
0.0374474
0.0368452
0.0351862
0.0337463
0.0333301
0.0334544
0.0333844
0.0347046
0.0354153
0.0354103
0.0348644
0.0339855
0.0329883
0.0320214
0.0312234
0.0306055
0.0302333
0.0299483
0.0298472
0.0299894
0.030248
0.0308009
0.0314698
0.0322314
0.0328989
0.0331504
0.0329026
0.0323063
0.0319032
0.0335012
0.039447
0.0409785
0.0372815
0.0363579
0.0362776
0.0368056
0.0395626
0.0355224
0.0355647
0.0359321
0.0359398
0.0351697
0.0336734
0.0318804
0.030619
0.0295827
0.029094
0.0287612
0.0286177
0.0286148
0.0286481
0.0287576
0.0289787
0.0294568
0.0301404
0.030917
0.0316894
0.0323237
0.0324717
0.0323652
0.0335288
0.0359886
0.0370982
0.0374621
0.0374278
0.0372908
0.0375885
0.0377166
0.0370646
0.0362915
0.0359787
0.0359036
0.0357324
0.0351884
0.0342792
0.0332799
0.0323246
0.0315671
0.0310153
0.0309279
0.0308461
0.0313038
0.0318993
0.0326951
0.0334998
0.0343105
0.0350769
0.035557
0.0360244
0.0374235
0.0386752
0.039977
0.0413678
0.0417293
0.0416051
0.0402973
0.0386507
0.0370645
0.0379444
0.0395543
0.0400304
0.038768
0.0372284
0.03638
0.0359766
0.035689
0.0353532
0.0349232
0.0342963
0.033542
0.0327795
0.0322443
0.0324249
0.0337986
0.0360667
0.0379733
0.0384428
0.036959
0.0343689
0.0322482
0.0325316
0.0347015
0.0370646
0.0382259
0.0387096
0.0385333
0.0349988
0.0414956
0.0465846
0.0361294
0.0318567
0.0448332
0.052021
0.0521736
0.0518696
0.0521012
0.0521657
0.0518696
0.051455
0.0512848
0.0514112
0.0519102
0.0525149
0.0530909
0.0536637
0.0547473
0.0568493
0.0593757
0.060099
0.055655
0.0487091
0.0419223
0.0391238
0.0396315
0.0402993
0.0338848
0.0206652
0.0261382
0.0290481
0.0307205
0.0301616
0.0291823
0.0284355
0.0279314
0.0277086
0.0281246
0.0297077
0.0307409
0.0298591
0.0297126
0.0311822
0.0236693
0.0260214
0.0275249
0.0275767
0.0269023
0.026094
0.0253606
0.0247548
0.0243295
0.0240621
0.0240064
0.0242284
0.0245759
0.0250271
0.0252262
0.0254779
0.0255897
0.0257083
0.0258068
0.0258482
0.0258388
0.0257651
0.0256843
0.0255188
0.0252434
0.0248566
0.024411
0.0240104
0.0235964
0.0228196
0.029637
0.026821
0.0260537
0.0276702
0.0291227
0.0288848
0.0280005
0.0277548
0.0279164
0.0280099
0.0280002
0.0279611
0.0278014
0.0277079
0.0278049
0.0281764
0.0285607
0.0287526
0.0287342
0.028464
0.0280358
0.0277207
0.0276465
0.0276855
0.0277092
0.0277502
0.0281334
0.029026
0.0299367
0.0299922
0.0310704
0.0317358
0.0307349
0.0299613
0.0298769
0.0300161
0.0301364
0.0301786
0.0300943
0.0298823
0.0296195
0.0293048
0.0289915
0.0287373
0.0285475
0.0284222
0.0283888
0.0283174
0.0282314
0.0281427
0.0281434
0.028393
0.0289322
0.0295781
0.0300882
0.0304888
0.0308907
0.0313177
0.0314358
0.0304286
0.0313841
0.0296917
0.0303495
0.0309898
0.0312154
0.0310633
0.0306733
0.0301855
0.0297919
0.0295846
0.0295253
0.0295785
0.0296455
0.0296879
0.0297086
0.0297624
0.0296626
0.029543
0.0292897
0.0293202
0.0295443
0.0300991
0.0306674
0.0312292
0.0315807
0.0317358
0.0318244
0.0317834
0.0314828
0.0304107
0.0361157
0.0371454
0.0360063
0.0349467
0.0347671
0.0348368
0.0348768
0.0348081
0.0346171
0.0344558
0.0341873
0.0339094
0.0338383
0.0340392
0.0345453
0.0351495
0.035653
0.0360539
0.0363842
0.0365876
0.0366783
0.0367375
0.0367366
0.0365775
0.0362707
0.0360117
0.0360167
0.0362717
0.0364976
0.0358433
0.0312104
0.0313984
0.0340865
0.0344492
0.0342531
0.0335901
0.0315839
0.0297261
0.0289584
0.0293323
0.030579
0.0323219
0.033867
0.0346647
0.0351817
0.0353654
0.0356229
0.0356747
0.0353684
0.0344564
0.033021
0.031672
0.0310766
0.0311533
0.0315372
0.0315832
0.0307287
0.0282057
0.0256602
0.0261012
0.0379171
0.0413075
0.0379623
0.0364359
0.0359738
0.0360717
0.036398
0.0367685
0.0371008
0.0373894
0.037596
0.0378569
0.0380918
0.038401
0.0386352
0.0388174
0.038765
0.0384647
0.0378877
0.0371967
0.0366876
0.0365595
0.0369242
0.0374089
0.0372716
0.0360948
0.0345481
0.0338876
0.0338056
0.0334773
0.0355417
0.0357429
0.035094
0.0340597
0.0328878
0.0317234
0.0306538
0.0299133
0.0293138
0.029017
0.028745
0.0286801
0.0286502
0.0287934
0.0291067
0.0296995
0.0307129
0.0317561
0.0326976
0.032935
0.0325048
0.031949
0.0323724
0.0367425
0.0404934
0.0381902
0.0370182
0.0366693
0.036202
0.038165
0.03577
0.0359272
0.0363916
0.0359787
0.0344854
0.0324934
0.0304585
0.0295378
0.0287522
0.0286851
0.0284409
0.0284975
0.0284385
0.0284683
0.0284687
0.028544
0.0287425
0.0292257
0.0299172
0.0308342
0.031742
0.0323188
0.0322823
0.0328093
0.0349063
0.0367219
0.0374124
0.0372731
0.0371104
0.0375154
0.037593
0.0366426
0.0360216
0.0359741
0.0360018
0.0354764
0.0341841
0.0325967
0.0310284
0.0297124
0.0288695
0.0283351
0.0280892
0.0282699
0.0286652
0.0293444
0.0303985
0.031568
0.0328482
0.0340692
0.0349877
0.0355422
0.0367309
0.0383058
0.0395815
0.0407784
0.0412251
0.0418341
0.0411442
0.0393176
0.0373638
0.0388776
0.0401275
0.0393194
0.0376477
0.0367766
0.0366544
0.0367315
0.0367726
0.0366957
0.0364233
0.0358749
0.0349568
0.0336479
0.0322215
0.0313984
0.0319663
0.0345383
0.0372729
0.0380233
0.0357932
0.0317153
0.0287056
0.0288169
0.0315699
0.0352381
0.0373401
0.0383114
0.0384803
0.0354045
0.0448608
0.0494877
0.0383084
0.0384468
0.0493202
0.0523292
0.0519189
0.0517317
0.05148
0.0504957
0.0491501
0.0480544
0.0476083
0.0480659
0.0491933
0.0507206
0.0521731
0.0531728
0.0538888
0.055314
0.0580791
0.059933
0.0551492
0.0445637
0.0385069
0.0371047
0.0393528
0.0398855
0.0320213
0.0200694
0.0263642
0.0291325
0.0297168
0.028936
0.0282743
0.0278417
0.0274471
0.0270455
0.0272394
0.0286192
0.0303576
0.0300338
0.0296718
0.0309988
0.0239017
0.0265209
0.0282336
0.0283642
0.0275449
0.0265232
0.0255245
0.0246524
0.0241422
0.0239518
0.0240598
0.0245024
0.0250219
0.0254594
0.0257119
0.0259375
0.0260663
0.0262217
0.0263156
0.0263827
0.026342
0.0262208
0.0260452
0.0257916
0.0254062
0.0249438
0.0244253
0.0240139
0.0236097
0.0228015
0.0295789
0.0268847
0.0265219
0.0288237
0.0303158
0.0294631
0.0280768
0.0277826
0.027948
0.0281118
0.0282265
0.0282202
0.0279605
0.0277823
0.0278813
0.0283197
0.0287502
0.0289995
0.0289204
0.0286747
0.0282317
0.027862
0.02772
0.027747
0.0277834
0.0278287
0.028079
0.0287887
0.0297349
0.0299263
0.0311904
0.0319153
0.0306799
0.0299179
0.0299603
0.0301417
0.030211
0.0301904
0.0300903
0.0299257
0.0296167
0.0291931
0.0287368
0.0283711
0.0281211
0.0280273
0.0280398
0.0280812
0.0280725
0.028018
0.0280199
0.0282468
0.0288126
0.0295073
0.0300309
0.0303965
0.0308603
0.0313816
0.0314813
0.0303956
0.0303665
0.0301294
0.0315414
0.0320744
0.0319493
0.0314013
0.0306914
0.0300548
0.0297147
0.0295981
0.0296554
0.0297854
0.029876
0.02999
0.0299853
0.029948
0.0299482
0.0297875
0.0295395
0.0293454
0.0293184
0.0297611
0.0302668
0.0308827
0.0314255
0.031812
0.0319991
0.0319933
0.0316793
0.0304949
0.0362766
0.0367967
0.0354121
0.0347979
0.0347357
0.0347346
0.0348023
0.0346997
0.0343896
0.03409
0.03384
0.033784
0.0338894
0.0342734
0.0348839
0.0354652
0.0358677
0.0362519
0.0366356
0.036775
0.0367707
0.0367878
0.0368124
0.0367132
0.0363983
0.0360609
0.0359546
0.0361427
0.0364105
0.0358952
0.0313666
0.0327588
0.0347408
0.0344462
0.0348815
0.0325004
0.0298272
0.0287139
0.0287999
0.0301199
0.0322131
0.0339674
0.03489
0.0349592
0.0349491
0.0348859
0.0351092
0.0354587
0.0358927
0.0356465
0.0344502
0.0326727
0.0314158
0.0312101
0.0315069
0.0316687
0.0312007
0.0286971
0.0256442
0.0261354
0.0392415
0.0401269
0.0370359
0.0361382
0.0359083
0.0360915
0.0364529
0.0367874
0.0370919
0.0373115
0.0375936
0.0378828
0.0382158
0.0384581
0.0386832
0.0389692
0.0392415
0.0392628
0.0388382
0.0379554
0.0370194
0.0365037
0.036624
0.0372201
0.0374371
0.0367025
0.0353606
0.034548
0.0341768
0.0335527
0.0360524
0.0358155
0.0346442
0.0334001
0.0321429
0.0308986
0.0298549
0.0292195
0.0287156
0.0284857
0.0282761
0.0281309
0.0281433
0.0281726
0.0283292
0.0286949
0.0294461
0.0306494
0.0318961
0.0326723
0.0325767
0.032006
0.0319672
0.03488
0.0396971
0.03905
0.0383767
0.037381
0.0363433
0.0375794
0.0358039
0.0363403
0.0365578
0.035813
0.0339166
0.0316739
0.0297487
0.0291268
0.028693
0.0286988
0.0286566
0.0286697
0.028662
0.0286547
0.028576
0.0284941
0.0285044
0.0287013
0.0292329
0.0301017
0.031159
0.0320549
0.0322398
0.0324415
0.0338989
0.0358576
0.036923
0.0368612
0.036876
0.0374721
0.0372302
0.0364199
0.0360147
0.0360864
0.0360145
0.0349195
0.0328381
0.0308246
0.0289831
0.0277553
0.02698
0.0265316
0.0263771
0.0264153
0.0268461
0.0274632
0.0285214
0.0298141
0.0314422
0.0330272
0.0343366
0.0351055
0.0361684
0.0378652
0.0391974
0.0400488
0.0404808
0.0417426
0.0416987
0.0401212
0.0376502
0.0394009
0.03998
0.0385255
0.0372001
0.0370591
0.037359
0.0376137
0.0377439
0.037742
0.0376022
0.0373048
0.0367457
0.0356642
0.0338117
0.0316897
0.0309702
0.032917
0.0362759
0.0379318
0.0358917
0.0311724
0.027764
0.0281511
0.0308044
0.0344018
0.0366568
0.0379785
0.038384
0.0352041
0.0452863
0.049322
0.040305
0.0432817
0.0511388
0.0523823
0.0516663
0.0511613
0.0498717
0.0476567
0.0453787
0.0436698
0.0431386
0.0437119
0.0454654
0.0477879
0.0503409
0.0524748
0.0536108
0.0543525
0.0563468
0.0591579
0.0570274
0.0443731
0.038204
0.037407
0.0392068
0.0382202
0.0287352
0.0193369
0.0262666
0.0286993
0.0286729
0.0280448
0.0278296
0.0275831
0.0271065
0.0266899
0.0268277
0.027981
0.0296601
0.0298108
0.0295564
0.0308217
0.0241466
0.0272868
0.0289709
0.0290085
0.0280474
0.0269728
0.0257256
0.0245797
0.0240314
0.0239102
0.0241776
0.0247369
0.0253358
0.0257465
0.0261126
0.0264183
0.0266865
0.0268748
0.0269473
0.026923
0.0268362
0.0265772
0.0262732
0.0258938
0.0254039
0.0248703
0.0243497
0.0239632
0.0235835
0.0227171
0.0295598
0.0270877
0.0271786
0.0299846
0.0313766
0.0299309
0.0281225
0.0277814
0.0279561
0.028231
0.0284945
0.0285485
0.0282261
0.0278163
0.0278389
0.0282453
0.0286515
0.028801
0.0287104
0.0283984
0.0281167
0.0279062
0.0278328
0.0278598
0.0279027
0.0279225
0.028087
0.028681
0.0296108
0.0298233
0.0313418
0.0319623
0.0305265
0.0298945
0.0300608
0.0302138
0.0302553
0.0302181
0.03015
0.0300108
0.0296588
0.0291079
0.0285138
0.0280396
0.0277804
0.0276958
0.027709
0.0278122
0.0278641
0.0278791
0.0279549
0.0282723
0.0288835
0.0295744
0.0300196
0.0303547
0.0308626
0.0314364
0.031386
0.0302534
0.0301519
0.0313173
0.032568
0.0327906
0.0322927
0.031415
0.0305321
0.0299076
0.0296738
0.0296649
0.0297705
0.029902
0.0300113
0.0301257
0.0301571
0.0301097
0.0300599
0.0299016
0.0297042
0.0294781
0.0293325
0.0295547
0.0299608
0.0305249
0.0311369
0.0316193
0.0319016
0.0319831
0.0317061
0.030498
0.0363105
0.0363473
0.0351894
0.0348858
0.0347275
0.0346638
0.034786
0.0346249
0.0341847
0.0338753
0.0338526
0.0339958
0.0342015
0.0346217
0.0351566
0.0355851
0.0358884
0.0363468
0.0367856
0.0368782
0.0367758
0.0368079
0.0368631
0.0367798
0.0364622
0.0360842
0.0359219
0.0360282
0.0363527
0.0358489
0.0317379
0.0338349
0.0350684
0.0353633
0.0345264
0.0314969
0.0293718
0.0286934
0.0291046
0.0308327
0.0329576
0.0342967
0.0346551
0.0343773
0.0341193
0.0343007
0.0346098
0.0352388
0.0360286
0.0362051
0.0351832
0.0332443
0.0316761
0.0312863
0.031578
0.0318938
0.0313215
0.0279613
0.0253506
0.026403
0.0398936
0.03907
0.0366095
0.035872
0.0357419
0.035984
0.0363788
0.0367009
0.0370149
0.0373368
0.0377664
0.0383226
0.0388621
0.0391696
0.0392711
0.0393439
0.0396711
0.0397695
0.0395468
0.0386459
0.0374507
0.036603
0.0364703
0.0370273
0.0374895
0.0370685
0.0359837
0.0351304
0.0344389
0.0336518
0.0365777
0.0359164
0.0343527
0.0330101
0.0316908
0.0304366
0.0294505
0.0289051
0.0283801
0.0281296
0.027825
0.0276446
0.0277703
0.027797
0.0279055
0.0281513
0.0287099
0.0298368
0.0311753
0.0323443
0.0325366
0.0319859
0.0317291
0.0339754
0.0388225
0.0396068
0.0390992
0.0374995
0.0364464
0.0371997
0.0359359
0.0365283
0.0364346
0.0357499
0.0337697
0.0313737
0.0296124
0.0291298
0.0288343
0.0287713
0.0287052
0.0287076
0.0287523
0.0287502
0.0286657
0.0285475
0.0284548
0.028518
0.0288639
0.0296623
0.0307019
0.0318212
0.032185
0.0322817
0.0331684
0.0348303
0.0358322
0.0360576
0.0365976
0.0375202
0.0371544
0.0365269
0.0360782
0.0361689
0.0359492
0.0343101
0.0317472
0.0295626
0.0276262
0.0266021
0.0258515
0.0255218
0.0253794
0.0254649
0.0258003
0.0263024
0.0273182
0.0285717
0.0303291
0.0321174
0.0337244
0.0346752
0.0357318
0.0374573
0.0388897
0.0395312
0.0400442
0.0415645
0.0418915
0.0406381
0.0378755
0.0396281
0.0397284
0.038049
0.037262
0.0374986
0.0378032
0.0379035
0.037879
0.0378639
0.0378876
0.0378365
0.0375789
0.0369832
0.0358805
0.0336218
0.0307966
0.0316161
0.0349018
0.0378015
0.0369603
0.0326826
0.0292051
0.0292024
0.0315549
0.0343731
0.0364294
0.0379138
0.0380411
0.0345822
0.0435558
0.0495428
0.0422666
0.0462897
0.0518814
0.0523072
0.051339
0.0502354
0.0479024
0.0447249
0.0418196
0.0398306
0.0392944
0.0401416
0.0421761
0.0450298
0.0480876
0.0512347
0.0533892
0.0541586
0.0551263
0.0582373
0.0585515
0.0458256
0.037992
0.036988
0.0379141
0.0341535
0.0247349
0.0186509
0.0260023
0.0278091
0.0275482
0.0273044
0.0275896
0.0274042
0.0268194
0.0264952
0.0268188
0.0277776
0.0290711
0.029405
0.0295359
0.0307686
0.024432
0.0270996
0.0290007
0.0293679
0.0283285
0.0274294
0.0259661
0.0245469
0.0239681
0.0238964
0.0242346
0.0248064
0.0254
0.0258804
0.0263377
0.0267245
0.0270404
0.027148
0.027182
0.026998
0.0268182
0.0264728
0.0261128
0.0256567
0.0251382
0.024653
0.0241796
0.0238405
0.023385
0.022541
0.029579
0.0273982
0.0277867
0.0310244
0.0323134
0.0304339
0.0281514
0.0277575
0.0279111
0.0282765
0.028697
0.0289049
0.0286213
0.0280697
0.0278449
0.0280275
0.0283457
0.0285218
0.028509
0.0283612
0.0281771
0.0280582
0.0280108
0.0280141
0.0280171
0.0279913
0.0281286
0.0287016
0.0295639
0.0296905
0.0314595
0.0319644
0.0304168
0.0299148
0.0301203
0.0302574
0.0302895
0.0302569
0.0302085
0.0300974
0.0297476
0.0291583
0.0284652
0.0279071
0.027672
0.0275323
0.0275738
0.0276527
0.0277627
0.0278233
0.0280901
0.0285305
0.0291481
0.0296978
0.0300261
0.030362
0.0309735
0.0315279
0.0311146
0.0300213
0.0305893
0.0324626
0.0331151
0.0331842
0.032395
0.0313436
0.0304153
0.0298534
0.0296788
0.0297186
0.0298173
0.0299406
0.030051
0.0301616
0.0301922
0.0301755
0.0301054
0.0299712
0.0297534
0.0295412
0.0293715
0.0294618
0.0297532
0.0302419
0.0308281
0.0313554
0.0317018
0.0318925
0.0315957
0.030454
0.0362616
0.0360934
0.0352841
0.0350603
0.0346419
0.0346303
0.0348112
0.0346417
0.034147
0.033947
0.0341671
0.0344374
0.0346372
0.0349146
0.035283
0.035576
0.0358138
0.0362808
0.0367629
0.0369184
0.0368753
0.0368858
0.0368979
0.0367665
0.0364179
0.0360458
0.0358682
0.035983
0.0362677
0.0357742
0.0320638
0.0345658
0.0356699
0.0359724
0.0342256
0.031763
0.0298211
0.0289676
0.0292449
0.0308532
0.0328816
0.0341597
0.0343596
0.0339388
0.0338622
0.0344069
0.0352678
0.0358491
0.0363321
0.0361686
0.034953
0.0329826
0.0316642
0.0314145
0.0318222
0.0321626
0.0308204
0.0265297
0.0253794
0.0271942
0.0402838
0.0383863
0.0363442
0.0356814
0.0355741
0.0358481
0.0362586
0.0366313
0.0369939
0.0374347
0.0381605
0.0391395
0.0400236
0.0404535
0.0403865
0.0401293
0.0401923
0.0402435
0.0400808
0.0390592
0.0376959
0.0366286
0.0364157
0.0369391
0.0375245
0.0372206
0.0364074
0.0356468
0.0345541
0.0339867
0.0373513
0.0362589
0.0343708
0.0328353
0.0315075
0.0302471
0.0293249
0.0287473
0.0281922
0.0277537
0.0272879
0.0271401
0.0272513
0.027516
0.0276838
0.0278631
0.0283153
0.0294227
0.0307818
0.0321087
0.0324133
0.0318818
0.0316243
0.0334603
0.0380837
0.0395367
0.0386969
0.0369837
0.0364962
0.0367323
0.0360908
0.0365013
0.0363926
0.0358604
0.0340306
0.0314531
0.0297955
0.0292748
0.029012
0.02882
0.0286669
0.0286842
0.0288045
0.0288003
0.0286776
0.0285831
0.028454
0.0284349
0.0288032
0.0294524
0.0305435
0.0316823
0.0321531
0.0321749
0.0326902
0.0338396
0.0345436
0.0353384
0.0367418
0.0377659
0.0374552
0.0368273
0.036155
0.0361937
0.0359261
0.0339837
0.0312093
0.0289306
0.0269908
0.0260674
0.025263
0.0250806
0.0248918
0.0250026
0.0253095
0.0257359
0.0267131
0.0278632
0.0296734
0.0314389
0.0332053
0.0343014
0.0353885
0.0371708
0.0386825
0.0392952
0.0400315
0.0414452
0.0418664
0.0407599
0.0379843
0.0397162
0.0395667
0.0378869
0.037468
0.0377503
0.0377911
0.0374983
0.037178
0.03711
0.0373746