/*--------------------------------*- C++ -*----------------------------------*\
| =========                 |                                                 |
| \\      /  F ield         | OpenFOAM: The Open Source CFD Toolbox           |
|  \\    /   O peration     | Version:  2.1.1                                 |
|   \\  /    A nd           | Web:      www.OpenFOAM.org                      |
|    \\/     M anipulation  |                                                 |
\*---------------------------------------------------------------------------*/
FoamFile
{
    version     2.0;
    format      ascii;
    class       volScalarField;
    location    "0.005550000";
    object      H2O;
}
// * * * * * * * * * * * * * * * * * * * * * * * * * * * * * * * * * * * * * //

dimensions      [0 0 0 0 0 0 0];

internalField   nonuniform List<scalar> 
12384
(
0.236256
0.233979
0.231806
0.230406
0.230336
0.230524
0.231042
0.231188
0.231666
0.231852
0.232625
0.235539
0.238988
0.234401
0.199507
0.205934
0.212342
0.215988
0.217001
0.216982
0.216996
0.217175
0.217067
0.217337
0.217011
0.217235
0.216482
0.216905
0.216046
0.216573
0.215954
0.21641
0.215954
0.216268
0.215862
0.215931
0.215465
0.215058
0.213747
0.212206
0.209406
0.206094
0.204523
0.202251
0.248801
0.246672
0.233036
0.225937
0.22527
0.225428
0.226346
0.227045
0.228543
0.229777
0.230818
0.231852
0.232388
0.232966
0.233321
0.233551
0.233563
0.233578
0.233443
0.233416
0.233247
0.233147
0.233296
0.23406
0.236197
0.24267
0.245373
0.236357
0.232531
0.236
0.249099
0.249542
0.248213
0.247265
0.246939
0.246998
0.246995
0.246999
0.246962
0.246967
0.247103
0.247235
0.247456
0.247773
0.248047
0.248302
0.248398
0.248593
0.248511
0.248459
0.248354
0.2482
0.248024
0.247767
0.248169
0.246451
0.243342
0.243562
0.244519
0.244874
0.251921
0.251883
0.251857
0.251666
0.251559
0.251303
0.251231
0.251273
0.25136
0.251288
0.251161
0.251091
0.251077
0.251565
0.251282
0.251553
0.251161
0.251396
0.251575
0.251294
0.251732
0.251706
0.250605
0.243531
0.239257
0.239869
0.241974
0.243504
0.244452
0.24459
0.251642
0.251393
0.251412
0.251495
0.251366
0.251501
0.251549
0.251563
0.251504
0.251473
0.251419
0.251386
0.251301
0.251235
0.251215
0.25124
0.251298
0.251322
0.251401
0.251452
0.251462
0.251515
0.251526
0.251565
0.251605
0.251614
0.251668
0.251546
0.251319
0.250826
0.25097
0.251499
0.249548
0.248786
0.248959
0.249994
0.251386
0.251654
0.25166
0.251678
0.251629
0.251777
0.251749
0.252208
0.252017
0.252247
0.251987
0.252254
0.252062
0.251971
0.25218
0.252247
0.251743
0.251014
0.237152
0.225804
0.225551
0.2319
0.237388
0.23977
0.246425
0.247924
0.250161
0.251687
0.252124
0.251831
0.251779
0.251764
0.251763
0.251735
0.251741
0.251797
0.251759
0.25176
0.251754
0.251739
0.251741
0.251714
0.251719
0.251731
0.251716
0.251685
0.251676
0.251712
0.251617
0.251444
0.251398
0.251405
0.251389
0.251401
0.250969
0.251283
0.250686
0.250712
0.250822
0.250977
0.251178
0.251198
0.251352
0.25141
0.251596
0.251602
0.251737
0.251737
0.251775
0.251663
0.251673
0.251582
0.251548
0.251716
0.251334
0.251706
0.250264
0.250139
0.250254
0.250325
0.250326
0.250326
0.250178
0.250117
0.243239
0.248303
0.251153
0.251476
0.251642
0.251778
0.251796
0.25185
0.252007
0.251926
0.252117
0.252014
0.252049
0.252056
0.25192
0.251957
0.251862
0.251647
0.251556
0.251375
0.251179
0.251048
0.251484
0.251627
0.251652
0.251674
0.25165
0.251643
0.25165
0.25166
0.252093
0.251882
0.251813
0.251789
0.251809
0.251824
0.251833
0.251838
0.251931
0.251928
0.252013
0.251973
0.251991
0.252024
0.252041
0.251952
0.251919
0.251879
0.251838
0.251862
0.251773
0.251464
0.251479
0.251534
0.25152
0.251519
0.251511
0.251528
0.25157
0.251602
0.251356
0.252396
0.252082
0.252235
0.252093
0.251517
0.251303
0.251333
0.251394
0.25149
0.251556
0.251618
0.25165
0.251655
0.251626
0.251583
0.251523
0.251468
0.251445
0.251415
0.251387
0.251383
0.251384
0.251397
0.251389
0.25141
0.25135
0.251373
0.251879
0.21629
0.153197
0.157131
0.157827
0.156593
0.156294
0.225669
0.248657
0.248172
0.248327
0.248353
0.248346
0.24832
0.248264
0.248201
0.248117
0.248022
0.247908
0.247768
0.247634
0.24751
0.24743
0.24742
0.24745
0.247599
0.248009
0.248882
0.249908
0.25068
0.252344
0.177327
0.218608
0.219386
0.223263
0.228428
0.232586
0.234275
0.234752
0.234594
0.234229
0.23332
0.231762
0.233185
0.238064
0.235709
0.200836
0.210026
0.217729
0.220857
0.22073
0.219681
0.218931
0.218484
0.217793
0.216904
0.215633
0.214852
0.213612
0.213966
0.213024
0.213946
0.213607
0.214645
0.214838
0.215558
0.215693
0.216079
0.215895
0.21566
0.214699
0.213275
0.210941
0.207971
0.20523
0.198993
0.248615
0.242215
0.227125
0.222052
0.223918
0.226983
0.230532
0.232112
0.233545
0.235198
0.236537
0.236731
0.23696
0.236967
0.236899
0.236801
0.236739
0.236772
0.236414
0.23637
0.236149
0.235783
0.235149
0.234717
0.23528
0.239201
0.24468
0.245468
0.244436
0.244359
0.249079
0.249346
0.247704
0.247066
0.247087
0.247245
0.247172
0.246988
0.246865
0.246809
0.246818
0.246771
0.246801
0.246927
0.247104
0.24717
0.247136
0.246997
0.247254
0.247412
0.247596
0.247837
0.247986
0.24785
0.248095
0.247711
0.24701
0.247278
0.247933
0.247482
0.251931
0.251817
0.251239
0.249937
0.248067
0.24723
0.246789
0.24648
0.246452
0.246678
0.24677
0.246704
0.247031
0.247022
0.247047
0.247312
0.24755
0.248079
0.248914
0.24999
0.250866
0.251221
0.251191
0.248628
0.242606
0.242
0.245404
0.247072
0.247463
0.246973
0.251682
0.251406
0.251439
0.251489
0.251507
0.251562
0.251577
0.25151
0.251442
0.251275
0.251117
0.250972
0.2509
0.250826
0.250818
0.250866
0.250877
0.250953
0.250966
0.251036
0.251079
0.251138
0.251208
0.251325
0.251454
0.25156
0.251596
0.251617
0.251486
0.251322
0.251388
0.250663
0.24916
0.249446
0.251528
0.251674
0.251705
0.251679
0.251692
0.251711
0.252344
0.25139
0.251033
0.250828
0.250655
0.250454
0.250368
0.250408
0.250502
0.250662
0.251025
0.251394
0.252076
0.251768
0.249232
0.239292
0.227871
0.223705
0.228984
0.236546
0.251571
0.25197
0.251471
0.251224
0.251162
0.251211
0.251326
0.251414
0.251601
0.251628
0.251616
0.251666
0.25167
0.251677
0.251659
0.251663
0.251662
0.251647
0.251652
0.25165
0.251654
0.251631
0.251669
0.25167
0.25196
0.251514
0.251493
0.251472
0.251524
0.251475
0.250595
0.250608
0.250945
0.251384
0.25158
0.251182
0.251291
0.251637
0.25167
0.251743
0.251844
0.251717
0.251852
0.25185
0.251867
0.251877
0.251786
0.251693
0.25162
0.251439
0.251333
0.251727
0.251154
0.250322
0.250744
0.250988
0.251101
0.251032
0.250679
0.250405
0.249411
0.251641
0.252065
0.251785
0.251735
0.251751
0.252087
0.251881
0.251908
0.251878
0.251929
0.251866
0.251911
0.251877
0.251909
0.251765
0.251788
0.25169
0.251604
0.25154
0.251362
0.251134
0.251482
0.251588
0.251651
0.251637
0.251633
0.251599
0.251618
0.251659
0.25184
0.251717
0.251715
0.251771
0.251834
0.251879
0.251922
0.251911
0.252074
0.252065
0.252124
0.252145
0.25215
0.252149
0.252164
0.252108
0.252055
0.252011
0.251944
0.251933
0.251835
0.251701
0.251449
0.2515
0.251387
0.251296
0.251277
0.251366
0.25152
0.251619
0.252229
0.252074
0.252093
0.251901
0.251449
0.251334
0.251497
0.251734
0.251982
0.252071
0.252108
0.252115
0.25213
0.252093
0.25202
0.251891
0.251683
0.251494
0.251357
0.251311
0.251301
0.251281
0.251285
0.251296
0.251305
0.251362
0.251372
0.251386
0.251755
0.250793
0.199496
0.220673
0.214213
0.182937
0.211481
0.250967
0.248386
0.248339
0.248501
0.248489
0.248445
0.248398
0.248328
0.248255
0.24817
0.248065
0.247898
0.247646
0.247306
0.246957
0.246749
0.246751
0.246894
0.247152
0.247919
0.249142
0.250259
0.250873
0.252386
0.183894
0.216328
0.223141
0.233437
0.236668
0.237913
0.237438
0.236945
0.236535
0.236573
0.235845
0.234302
0.232303
0.235817
0.236317
0.202704
0.214813
0.222813
0.224569
0.222556
0.220051
0.218297
0.216566
0.214979
0.213374
0.211883
0.210454
0.210857
0.210705
0.212045
0.212432
0.213696
0.214341
0.215334
0.215864
0.216399
0.21663
0.216712
0.216544
0.215645
0.214363
0.21221
0.209617
0.206496
0.200291
0.248308
0.237068
0.224453
0.224522
0.231198
0.23547
0.235338
0.23574
0.236473
0.237307
0.237608
0.2374
0.236918
0.236124
0.235981
0.236161
0.236502
0.236674
0.236566
0.236399
0.236278
0.236354
0.236252
0.235771
0.235487
0.237429
0.242035
0.245674
0.24646
0.245798
0.249164
0.249454
0.248083
0.247365
0.247392
0.247324
0.247161
0.247129
0.247182
0.247128
0.246905
0.246713
0.246597
0.246557
0.246148
0.245532
0.245196
0.244556
0.244554
0.244675
0.245634
0.247074
0.247624
0.247875
0.248183
0.248461
0.248497
0.249066
0.249517
0.248343
0.251858
0.251659
0.247771
0.246117
0.245845
0.246135
0.246275
0.246234
0.246534
0.246525
0.246383
0.246622
0.246779
0.246454
0.24638
0.24649
0.245889
0.246377
0.246482
0.247796
0.24909
0.250209
0.250949
0.250665
0.248106
0.24686
0.247416
0.248609
0.248833
0.247775
0.251479
0.251425
0.251498
0.251511
0.251561
0.251559
0.25147
0.251443
0.251253
0.251045
0.250882
0.250824
0.250835
0.250861
0.25093
0.250977
0.250992
0.251
0.250982
0.25097
0.250951
0.250963
0.250974
0.251077
0.25125
0.251436
0.251561
0.251617
0.251538
0.251356
0.251528
0.25022
0.249835
0.251555
0.251866
0.251763
0.25178
0.251697
0.25232
0.251025
0.250422
0.249954
0.250284
0.250399
0.250817
0.25092
0.250965
0.25091
0.250832
0.250615
0.250561
0.250799
0.251287
0.25186
0.251146
0.249109
0.2421
0.228743
0.224571
0.232759
0.251767
0.251467
0.251063
0.251164
0.251334
0.251537
0.251565
0.251597
0.251624
0.251681
0.251662
0.251721
0.251699
0.251689
0.251686
0.251659
0.251674
0.251676
0.251644
0.251665
0.251646
0.251666
0.251673
0.251634
0.251626
0.251718
0.25154
0.251564
0.251566
0.251485
0.250816
0.251351
0.251078
0.25111
0.251191
0.251501
0.25129
0.251219
0.251198
0.251141
0.251188
0.25129
0.251391
0.251444
0.251595
0.251664
0.251687
0.251722
0.25164
0.25158
0.251435
0.251397
0.251748
0.250707
0.250923
0.251358
0.251439
0.251435
0.251209
0.250817
0.251753
0.251804
0.251711
0.251668
0.251686
0.251986
0.25182
0.251674
0.251634
0.250539
0.250094
0.249662
0.249581
0.249445
0.249564
0.249982
0.250414
0.25155
0.251511
0.25151
0.251535
0.251303
0.251161
0.251515
0.251671
0.251615
0.251563
0.251595
0.251613
0.25158
0.251571
0.251676
0.251774
0.251849
0.251878
0.251936
0.251964
0.252005
0.252177
0.25223
0.252356
0.252327
0.252267
0.252342
0.252375
0.252287
0.252386
0.25211
0.252042
0.252025
0.251938
0.251811
0.25153
0.251464
0.251283
0.251047
0.251001
0.251175
0.251419
0.251606
0.252057
0.252006
0.251749
0.251435
0.251381
0.251622
0.251918
0.252065
0.252198
0.25223
0.252286
0.25239
0.252365
0.252367
0.252375
0.252276
0.252097
0.251866
0.251577
0.251473
0.251548
0.251725
0.251914
0.251805
0.251582
0.251466
0.251432
0.251428
0.251506
0.252068
0.252364
0.251904
0.252319
0.221636
0.252212
0.249047
0.248361
0.248485
0.248493
0.248399
0.248328
0.248286
0.248267
0.248244
0.248211
0.24815
0.248045
0.247833
0.247451
0.246906
0.246518
0.246493
0.247045
0.247754
0.249106
0.25036
0.250958
0.251184
0.252264
0.187001
0.21833
0.230323
0.237314
0.238137
0.237181
0.235641
0.23363
0.232458
0.233063
0.23525
0.235331
0.233472
0.234618
0.236327
0.204793
0.219411
0.227524
0.227967
0.224506
0.220803
0.217656
0.214656
0.212371
0.210343
0.209229
0.209007
0.210456
0.212043
0.213456
0.215054
0.215967
0.216883
0.217954
0.218338
0.218607
0.218612
0.21846
0.218056
0.216797
0.215238
0.21306
0.210513
0.207446
0.201202
0.247894
0.234178
0.224913
0.231356
0.239669
0.240886
0.238163
0.236691
0.237248
0.237845
0.237814
0.237553
0.23653
0.236065
0.236395
0.237641
0.23868
0.23925
0.239097
0.238246
0.236859
0.236158
0.236173
0.236255
0.23603
0.236578
0.240118
0.245037
0.246636
0.246282
0.24926
0.249816
0.248393
0.24755
0.247266
0.247325
0.247515
0.247675
0.247742
0.247452
0.246981
0.246585
0.246408
0.245756
0.245317
0.244699
0.244467
0.243776
0.243312
0.243073
0.243364
0.245019
0.247136
0.247756
0.248184
0.248618
0.249161
0.249923
0.250183
0.24887
0.251548
0.247899
0.246126
0.246842
0.247762
0.24825
0.248186
0.247969
0.247641
0.247086
0.246975
0.2472
0.247023
0.246868
0.246886
0.246708
0.246222
0.245921
0.245547
0.246214
0.247301
0.248818
0.250129
0.250926
0.250553
0.249785
0.249937
0.250162
0.250005
0.24814
0.251427
0.251472
0.251521
0.251532
0.251478
0.251486
0.251459
0.25136
0.251167
0.25096
0.251358
0.25121
0.251231
0.251409
0.251511
0.251165
0.251124
0.251024
0.250993
0.250937
0.250873
0.25083
0.250897
0.250892
0.251028
0.251259
0.251452
0.251553
0.251554
0.251417
0.251192
0.250249
0.251492
0.251949
0.251731
0.251786
0.251748
0.251904
0.250099
0.249298
0.249454
0.250193
0.251716
0.25177
0.251888
0.25187
0.251892
0.25195
0.251876
0.251906
0.251577
0.251018
0.250915
0.251526
0.251724
0.250984
0.249127
0.238565
0.224864
0.230133
0.251658
0.251029
0.251124
0.251468
0.251505
0.251558
0.251618
0.251675
0.251673
0.251697
0.251687
0.251681
0.251645
0.25158
0.251552
0.251564
0.251635
0.25161
0.251614
0.251613
0.251621
0.251645
0.25161
0.251596
0.25163
0.251663
0.251631
0.25166
0.251628
0.25151
0.251531
0.251064
0.251087
0.251181
0.25131
0.251002
0.250752
0.250191
0.249003
0.248426
0.248233
0.248109
0.24842
0.248976
0.249914
0.251126
0.251416
0.251587
0.251656
0.251646
0.251465
0.251369
0.251745
0.251292
0.251014
0.25154
0.251481
0.25146
0.251468
0.251185
0.251785
0.251679
0.251567
0.251619
0.251679
0.251874
0.251566
0.25029
0.248967
0.248241
0.24676
0.245961
0.245863
0.246029
0.246207
0.247337
0.248313
0.24918
0.250535
0.251785
0.251543
0.251452
0.251172
0.251438
0.251595
0.251683
0.251594
0.25157
0.251562
0.251536
0.251682
0.251714
0.251829
0.251874
0.251901
0.251924
0.251972
0.252259
0.252105
0.252067
0.252062
0.251419
0.251336
0.251208
0.251679
0.252055
0.252055
0.252177
0.252286
0.252122
0.252069
0.251958
0.251784
0.251478
0.251292
0.251009
0.250929
0.250964
0.251277
0.251557
0.252015
0.251793
0.25145
0.251357
0.251599
0.251892
0.252035
0.252069
0.252099
0.252145
0.252227
0.25248
0.25233
0.252293
0.25226
0.252278
0.252357
0.252131
0.25179
0.251668
0.251946
0.252313
0.252108
0.252086
0.252259
0.251824
0.251573
0.25146
0.251502
0.252
0.251041
0.249851
0.252068
0.252254
0.250231
0.248474
0.248422
0.248504
0.248429
0.248404
0.248503
0.248599
0.248634
0.248611
0.248499
0.248329
0.248189
0.248056
0.247797
0.24727
0.24663
0.246446
0.247579
0.2493
0.250907
0.251495
0.251387
0.251295
0.252349
0.183965
0.220485
0.233709
0.237767
0.237383
0.23653
0.23382
0.230829
0.22749
0.227635
0.232069
0.235264
0.234004
0.234084
0.235969
0.206838
0.223818
0.232079
0.231689
0.227764
0.222428
0.21779
0.213474
0.210535
0.20873
0.208406
0.210172
0.212318
0.215136
0.216433
0.218073
0.218517
0.219578
0.220438
0.220852
0.221152
0.220944
0.220459
0.219702
0.218235
0.216095
0.213412
0.21097
0.20783
0.20155
0.247756
0.233371
0.227565
0.238931
0.246335
0.2446
0.239236
0.237254
0.237602
0.238409
0.2387
0.238471
0.237581
0.236683
0.237422
0.239201
0.241217
0.242268
0.242241
0.240961
0.239092
0.237275
0.236521
0.236477
0.236526
0.237145
0.239227
0.244017
0.246418
0.246378
0.249468
0.25039
0.248604
0.247417
0.247336
0.247599
0.247926
0.247958
0.247805
0.247406
0.246867
0.246387
0.245547
0.244114
0.243709
0.242956
0.24302
0.242782
0.242373
0.242002
0.241977
0.243381
0.246092
0.247675
0.248215
0.248476
0.249244
0.250129
0.250662
0.248965
0.250537
0.246444
0.248067
0.249724
0.25021
0.249884
0.249239
0.248461
0.247609
0.247067
0.247153
0.247106
0.246877
0.246906
0.246888
0.247006
0.246466
0.246217
0.245374
0.245507
0.24594
0.247516
0.249003
0.250451
0.251084
0.251306
0.251547
0.251444
0.250738
0.248663
0.251444
0.251467
0.251473
0.251446
0.251447
0.251446
0.251453
0.251316
0.251444
0.251407
0.251248
0.251364
0.251432
0.251495
0.251609
0.251218
0.251095
0.250996
0.250863
0.250841
0.250768
0.250741
0.250754
0.250735
0.250884
0.251111
0.251308
0.251502
0.251564
0.251341
0.25116
0.251406
0.25185
0.251945
0.251889
0.251847
0.251933
0.249279
0.247806
0.248808
0.250423
0.251669
0.251784
0.251829
0.251687
0.251634
0.251641
0.25165
0.251718
0.251986
0.251837
0.25205
0.251203
0.251233
0.251666
0.251858
0.250415
0.243788
0.225888
0.229297
0.251457
0.250879
0.251356
0.251527
0.25153
0.251617
0.251597
0.251677
0.251626
0.251709
0.251672
0.251591
0.251545
0.251494
0.251463
0.251419
0.251442
0.251438
0.251515
0.251585
0.251617
0.251568
0.251624
0.251593
0.251573
0.251636
0.251857
0.251691
0.251632
0.251566
0.251079
0.251081
0.251166
0.251352
0.250956
0.250962
0.248953
0.247697
0.246657
0.245875
0.244892
0.244421
0.244647
0.24531
0.247032
0.248022
0.249653
0.251664
0.251501
0.251564
0.251541
0.251405
0.251467
0.251678
0.251086
0.251356
0.251558
0.251535
0.251486
0.25135
0.25171
0.251585
0.251494
0.251573
0.251901
0.251632
0.250054
0.248901
0.246579
0.246153
0.245191
0.245188
0.245121
0.244976
0.244983
0.244914
0.245983
0.247753
0.24893
0.250452
0.252001
0.251501
0.25129
0.251309
0.251607
0.251639
0.251603
0.251573
0.251541
0.251612
0.251674
0.251743
0.251821
0.251892
0.251901
0.25194
0.252201
0.252108
0.25116
0.249643
0.24759
0.244709
0.243532
0.24446
0.246371
0.248783
0.250186
0.252088
0.252104
0.2523
0.252147
0.252049
0.251849
0.251546
0.251344
0.251148
0.251025
0.250906
0.251067
0.251441
0.251992
0.251574
0.25132
0.251466
0.251862
0.251908
0.251862
0.251879
0.251851
0.251872
0.251898
0.252003
0.252198
0.252413
0.252257
0.252077
0.25225
0.252403
0.251944
0.251748
0.252082
0.252572
0.246542
0.246893
0.252247
0.251985
0.25178
0.251539
0.251498
0.251957
0.250261
0.249128
0.251704
0.251648
0.249139
0.248381
0.24849
0.248548
0.248593
0.248804
0.24912
0.249369
0.249477
0.249368
0.249109
0.248761
0.248407
0.248167
0.247999
0.247657
0.246959
0.24649
0.247709
0.250304
0.251607
0.251891
0.251431
0.251376
0.25224
0.178733
0.221784
0.234273
0.236533
0.236285
0.234852
0.233025
0.229286
0.225183
0.22402
0.228914
0.234024
0.234221
0.233813
0.235724
0.208851
0.227184
0.235472
0.235588
0.230868
0.224943
0.21855
0.212661
0.209249
0.207754
0.208901
0.211914
0.214749
0.217125
0.218738
0.219723
0.220819
0.221591
0.222846
0.22321
0.223853
0.223222
0.222551
0.221113
0.219081
0.216486
0.213344
0.210874
0.207893
0.201385
0.247761
0.233896
0.231411
0.245278
0.248673
0.246651
0.239534
0.237346
0.237945
0.239101
0.239977
0.240033
0.238623
0.237643
0.237964
0.240048
0.242314
0.243936
0.243716
0.242377
0.240091
0.238422
0.237345
0.237128
0.237335
0.237562
0.23891
0.24279
0.245985
0.246271
0.249677
0.250128
0.248533
0.247291
0.247467
0.247923
0.248083
0.248007
0.247882
0.247552
0.246923
0.24627
0.244085
0.242364
0.241445
0.240755
0.241284
0.241387
0.241438
0.241343
0.241302
0.242703
0.245532
0.247649
0.248232
0.248532
0.249238
0.250152
0.250748
0.248921
0.248041
0.247612
0.25087
0.251019
0.251026
0.250713
0.249437
0.248168
0.247273
0.247006
0.246904
0.246705
0.246439
0.24657
0.246485
0.246557
0.246581
0.246314
0.245504
0.245291
0.245143
0.24633
0.247884
0.249435
0.250829
0.251632
0.251155
0.251034
0.251033
0.248679
0.251435
0.251452
0.251453
0.251392
0.251762
0.251661
0.251455
0.251662
0.251496
0.251297
0.251357
0.251595
0.251655
0.251766
0.251372
0.251183
0.251047
0.25091
0.250788
0.250771
0.250734
0.25076
0.250685
0.250739
0.250867
0.251003
0.251182
0.251446
0.251522
0.251311
0.25134
0.251649
0.25165
0.25187
0.251667
0.251741
0.249368
0.24657
0.246996
0.249863
0.251644
0.251799
0.251644
0.251645
0.251626
0.251638
0.251622
0.251585
0.251581
0.25162
0.251883
0.25174
0.251518
0.251228
0.251758
0.251888
0.251145
0.246118
0.225736
0.229525
0.25126
0.25109
0.251461
0.251537
0.251569
0.251603
0.251638
0.251682
0.25164
0.251688
0.25168
0.251575
0.251527
0.251485
0.251437
0.251395
0.251345
0.251329
0.251383
0.251489
0.251552
0.251566
0.251625
0.251607
0.251583
0.251639
0.25167
0.251922
0.251717
0.251482
0.251096
0.251152
0.25146
0.251094
0.250797
0.24948
0.247442
0.246358
0.244273
0.243229
0.242398
0.241837
0.24206
0.242136
0.243023
0.244776
0.247553
0.249574
0.251298
0.251491
0.251577
0.251443
0.251403
0.251814
0.251208
0.251264
0.251337
0.251528
0.251548
0.251579
0.251634
0.251386
0.251386
0.251572
0.251852
0.252031
0.249049
0.248191
0.246231
0.246195
0.246009
0.245925
0.246118
0.245726
0.245404
0.24476
0.244618
0.245808
0.247851
0.249068
0.250902
0.251541
0.251397
0.251252
0.251676
0.251578
0.251549
0.251542
0.251532
0.251601
0.251663
0.251766
0.251823
0.251863
0.251907
0.252033
0.252072
0.251022
0.247574
0.241842
0.235931
0.232843
0.231611
0.231861
0.234839
0.239177
0.245221
0.2494
0.251856
0.25221
0.252342
0.252111
0.251908
0.251625
0.251412
0.251259
0.25118
0.250919
0.250941
0.251308
0.251926
0.251475
0.25133
0.251586
0.251852
0.251778
0.251666
0.251629
0.251615
0.251622
0.251635
0.251711
0.251849
0.252044
0.252404
0.252466
0.251504
0.252306
0.252095
0.251774
0.252056
0.251704
0.241577
0.24333
0.250973
0.252246
0.251839
0.251618
0.251541
0.252024
0.250149
0.249167
0.251333
0.250597
0.248697
0.248366
0.248541
0.248666
0.248951
0.249472
0.249943
0.250297
0.250388
0.250294
0.249921
0.249432
0.24885
0.248332
0.24806
0.247889
0.247396
0.246687
0.24722
0.250369
0.251679
0.251866
0.251463
0.251709
0.247087
0.172286
0.221282
0.233056
0.234479
0.233826
0.233673
0.231591
0.227598
0.223305
0.222741
0.226932
0.232585
0.233522
0.233483
0.235057
0.210866
0.23178
0.239199
0.238877
0.233597
0.226962
0.219682
0.212189
0.208532
0.207582
0.209757
0.213045
0.216539
0.218273
0.220624
0.221914
0.224202
0.224871
0.226034
0.225914
0.226329
0.225188
0.22366
0.221633
0.218959
0.215925
0.212712
0.210443
0.207658
0.200639
0.247852
0.235302
0.236076
0.248322
0.250827
0.24752
0.239866
0.237277
0.238017
0.239863
0.241419
0.241715
0.240012
0.237849
0.237913
0.239942
0.242194
0.243192
0.243039
0.241528
0.240038
0.238725
0.238265
0.238215
0.238
0.238005
0.239015
0.242283
0.245772
0.246127
0.249995
0.250208
0.248361
0.24733
0.247634
0.248035
0.248105
0.248094
0.24809
0.247798
0.247152
0.246103
0.242942
0.240902
0.239649
0.238818
0.239246
0.239922
0.240394
0.24058
0.241055
0.242851
0.246063
0.247837
0.248341
0.248491
0.249135
0.250245
0.250445
0.248667
0.247414
0.250218
0.251129
0.251286
0.251179
0.250636
0.249004
0.247867
0.24709
0.246853
0.246428
0.246062
0.245781
0.24576
0.245765
0.245912
0.245998
0.246046
0.245518
0.2452
0.24473
0.2456
0.246858
0.248482
0.249949
0.251217
0.251107
0.251122
0.251171
0.248741
0.251411
0.251412
0.251372
0.251332
0.251735
0.251642
0.251448
0.251762
0.251533
0.251362
0.251514
0.251796
0.251854
0.25187
0.251361
0.251198
0.251058
0.250885
0.250723
0.250778
0.250686
0.25066
0.250732
0.250741
0.250813
0.25092
0.251165
0.251418
0.251451
0.251292
0.25209
0.251694
0.251617
0.251582
0.251873
0.251723
0.248735
0.246477
0.248616
0.25075
0.251731
0.251759
0.251809
0.251706
0.25167
0.251686
0.251866
0.251561
0.251548
0.251506
0.251698
0.25177
0.252047
0.251431
0.251762
0.251568
0.251289
0.242517
0.223511
0.23172
0.251135
0.251169
0.251453
0.251548
0.251593
0.251629
0.251677
0.251689
0.251687
0.251632
0.251685
0.251495
0.251417
0.251367
0.251354
0.251348
0.25128
0.25125
0.251281
0.251372
0.251575
0.2516
0.251549
0.251535
0.251581
0.251588
0.251586
0.251649
0.251867
0.251425
0.251151
0.251213
0.251464
0.251001
0.250997
0.248613
0.246744
0.245117
0.242512
0.24147
0.240271
0.238935
0.240257
0.240388
0.24094
0.242035
0.244939
0.248081
0.250621
0.251394
0.2516
0.251393
0.251793
0.251924
0.251368
0.251208
0.251266
0.251554
0.251613
0.251597
0.251503
0.251188
0.251226
0.251546
0.251849
0.251343
0.248878
0.248138
0.246832
0.246365
0.246105
0.245978
0.246372
0.24626
0.2459
0.245167
0.244477
0.244931
0.246674
0.248389
0.250226
0.252227
0.251447
0.251282
0.251378
0.251597
0.251544
0.251499
0.251534
0.251609
0.251685
0.251703
0.251825
0.251872
0.25192
0.252189
0.252344
0.248875
0.240036
0.233319
0.22718
0.224662
0.22361
0.224296
0.226845
0.230704
0.237914
0.245577
0.250074
0.252084
0.25224
0.252372
0.251984
0.251747
0.251456
0.251344
0.25128
0.250954
0.250891
0.251216
0.251812
0.251413
0.251368
0.251628
0.251745
0.251625
0.251567
0.251388
0.251376
0.25138
0.251403
0.251471
0.251689
0.251761
0.25203
0.252427
0.251268
0.252382
0.252302
0.251888
0.251932
0.252085
0.248577
0.248373
0.251923
0.252249
0.251867
0.25164
0.251622
0.252252
0.250568
0.249105
0.250841
0.249888
0.248509
0.248382
0.248613
0.248866
0.249397
0.250053
0.250609
0.250867
0.25094
0.250844
0.250566
0.250001
0.249364
0.248655
0.248107
0.247929
0.247705
0.24691
0.246841
0.250012
0.251735
0.251901
0.251744
0.252364
0.21862
0.16623
0.219808
0.230109
0.230201
0.230516
0.232182
0.230201
0.225171
0.222265
0.222884
0.227139
0.231502
0.232878
0.23304
0.234989
0.21294
0.23088
0.23965
0.240416
0.234576
0.228987
0.221148
0.211991
0.208178
0.207581
0.210045
0.213227
0.216688
0.218928
0.221774
0.223777
0.22597
0.226318
0.227245
0.226282
0.226127
0.22442
0.222683
0.220139
0.217192
0.214498
0.211528
0.209455
0.206038
0.19915
0.247917
0.237539
0.240431
0.250169
0.251306
0.248692
0.240017
0.237252
0.237657
0.240074
0.242614
0.243764
0.242299
0.239393
0.238118
0.238977
0.240639
0.241817
0.2419
0.241327
0.240393
0.239701
0.239101
0.238842
0.238657
0.238427
0.239202
0.242349
0.245681
0.245803
0.250253
0.250244
0.248148
0.247318
0.24773
0.247995
0.2482
0.248191
0.248275
0.248092
0.247426
0.246093
0.243036
0.240321
0.238791
0.238036
0.238382
0.238928
0.239886
0.240379
0.241917
0.244319
0.247299
0.248108
0.248279
0.248546
0.249364
0.25066
0.250121
0.248046
0.248286
0.25092
0.25126
0.251427
0.251231
0.250515
0.248845
0.247782
0.247026
0.246652
0.246207
0.245739
0.245328
0.245334
0.245314
0.245502
0.245654
0.245622
0.245324
0.244784
0.244539
0.244969
0.246036
0.247529
0.24916
0.25046
0.251075
0.250895
0.250994
0.248421
0.251389
0.251362
0.251298
0.251285
0.251677
0.251634
0.251492
0.251738
0.251604
0.251569
0.251726
0.25193
0.251844
0.251547
0.251373
0.251273
0.251156
0.250943
0.250856
0.250706
0.250719
0.250746
0.250732
0.250748
0.250796
0.251004
0.25122
0.251455
0.251437
0.251213
0.251533
0.251861
0.251512
0.251515
0.251844
0.252073
0.249396
0.247835
0.248854
0.250848
0.251756
0.251776
0.251792
0.251666
0.25167
0.251688
0.251578
0.251509
0.251518
0.251496
0.25172
0.251742
0.251954
0.25155
0.252037
0.25161
0.250601
0.232818
0.223842
0.237665
0.251066
0.251226
0.251426
0.25153
0.251597
0.251634
0.251691
0.251666
0.251694
0.251605
0.25153
0.251356
0.251247
0.251152
0.251172
0.251197
0.251191
0.251182
0.25118
0.251303
0.251528
0.251531
0.251499
0.251559
0.251546
0.25153
0.251582
0.251611
0.251815
0.251545
0.251179
0.251265
0.251476
0.250987
0.25067
0.248307
0.246525
0.244316
0.24147
0.239679
0.236476
0.235616
0.236654
0.238405
0.239587
0.240574
0.242898
0.247347
0.249949
0.251384
0.251561
0.25146
0.251617
0.251722
0.251484
0.251227
0.251334
0.251594
0.251667
0.251587
0.251329
0.25084
0.25117
0.251491
0.251884
0.251434
0.249069
0.248392
0.247575
0.246541
0.245668
0.245829
0.246625
0.246579
0.246027
0.245528
0.244735
0.244582
0.246415
0.248057
0.250029
0.251919
0.251509
0.251299
0.251275
0.25162
0.251745
0.251514
0.251564
0.251535
0.251533
0.251691
0.251804
0.251868
0.251942
0.25215
0.251499
0.247093
0.235645
0.228784
0.222542
0.220992
0.219596
0.220443
0.22295
0.226192
0.233671
0.241835
0.249081
0.252058
0.252209
0.252278
0.252013
0.251766
0.251463
0.251361
0.251262
0.250959
0.250886
0.251185
0.25179
0.251383
0.251368
0.25161
0.251663
0.251476
0.251476
0.251414
0.25142
0.251436
0.251417
0.25146
0.25147
0.251689
0.251818
0.252015
0.252254
0.251665
0.252346
0.252008
0.25174
0.252077
0.252
0.25184
0.251978
0.251995
0.251872
0.251642
0.251853
0.252326
0.251093
0.248899
0.250433
0.249499
0.248414
0.248392
0.248706
0.249052
0.249726
0.250433
0.250978
0.251161
0.251135
0.251157
0.250901
0.250363
0.249702
0.248936
0.248222
0.247884
0.247843
0.247205
0.246604
0.249428
0.251977
0.252294
0.252393
0.250106
0.192228
0.160082
0.217249
0.225091
0.224248
0.226965
0.231174
0.229074
0.224227
0.222895
0.225442
0.229078
0.231406
0.232261
0.232595
0.234065
0.232584
0.226608
0.217687
0.221144
0.237436
0.241529
0.234991
0.231153
0.223105
0.212447
0.20797
0.207406
0.209778
0.212567
0.215686
0.217602
0.22032
0.221486
0.222965
0.222877
0.223151
0.222175
0.221333
0.219999
0.218004
0.215967
0.213377
0.211417
0.209174
0.207129
0.204445
0.200429
0.212958
0.240998
0.247917
0.240001
0.244146
0.251251
0.251553
0.249668
0.240818
0.236536
0.237181
0.239387
0.242869
0.245131
0.24497
0.241893
0.238899
0.238525
0.239381
0.240324
0.240979
0.241217
0.240806
0.240333
0.239815
0.239255
0.23879
0.23881
0.23989
0.242856
0.245439
0.245667
0.245439
0.24807
0.250702
0.250335
0.248006
0.247298
0.247792
0.248061
0.248135
0.248222
0.248386
0.248281
0.247805
0.246628
0.244394
0.241422
0.239719
0.238652
0.239004
0.239823
0.240818
0.242065
0.244083
0.246418
0.24776
0.248144
0.248452
0.249058
0.249689
0.248778
0.246947
0.247936
0.250003
0.25087
0.251074
0.251401
0.251537
0.251549
0.251236
0.250766
0.24902
0.247974
0.247167
0.246654
0.246192
0.245643
0.245297
0.24501
0.2451
0.244962
0.24512
0.245083
0.244845
0.244418
0.244295
0.244606
0.245471
0.246943
0.248469
0.249752
0.250854
0.251401
0.250403
0.248437
0.250276
0.251362
0.251381
0.251316
0.25128
0.2513
0.251601
0.251624
0.251532
0.251553
0.251707
0.251842
0.251972
0.251755
0.251669
0.251546
0.251404
0.25134
0.251261
0.251108
0.250909
0.250838
0.250773
0.25074
0.250824
0.250771
0.250923
0.251114
0.251328
0.251456
0.251406
0.251139
0.251244
0.251526
0.251706
0.251558
0.25144
0.251496
0.251697
0.251746
0.250789
0.249037
0.248945
0.25023
0.25174
0.251784
0.251787
0.251651
0.251668
0.251779
0.251589
0.251609
0.251592
0.25165
0.251796
0.251651
0.25194
0.252056
0.251633
0.251794
0.244559
0.230362
0.25032
0.251479
0.250922
0.251082
0.251205
0.251413
0.251475
0.251558
0.2516
0.251631
0.251687
0.251693
0.251678
0.251611
0.251496
0.251297
0.251153
0.251014
0.251011
0.251087
0.251087
0.251082
0.251162
0.251335
0.251526
0.251507
0.251546
0.251523
0.251498
0.251534
0.251545
0.251584
0.251424
0.251305
0.251113
0.251083
0.251067
0.251266
0.251635
0.251008
0.250787
0.248452
0.246734
0.244496
0.241556
0.238403
0.234914
0.233665
0.234569
0.23667
0.238227
0.240205
0.242772
0.247484
0.250082
0.251358
0.251528
0.251629
0.251337
0.251763
0.251673
0.251315
0.251603
0.251669
0.251496
0.251224
0.251056
0.250989
0.250845
0.250608
0.250957
0.25136
0.25195
0.251599
0.249585
0.248673
0.248125
0.246774
0.245514
0.245417
0.245821
0.24631