/*--------------------------------*- C++ -*----------------------------------*\
| =========                 |                                                 |
| \\      /  F ield         | OpenFOAM: The Open Source CFD Toolbox           |
|  \\    /   O peration     | Version:  2.1.1                                 |
|   \\  /    A nd           | Web:      www.OpenFOAM.org                      |
|    \\/     M anipulation  |                                                 |
\*---------------------------------------------------------------------------*/
FoamFile
{
    version     2.0;
    format      ascii;
    class       volScalarField;
    location    "0.005550000";
    object      O;
}
// * * * * * * * * * * * * * * * * * * * * * * * * * * * * * * * * * * * * * //

dimensions      [0 0 0 0 0 0 0];

internalField   nonuniform List<scalar> 
12384
(
0.000842463
0.000912437
0.000931463
0.000948063
0.000934498
0.000943643
0.000932241
0.000939769
0.000929608
0.000943742
0.00093577
0.000865956
0.000769544
0.000981036
0.000441921
0.000421447
0.000452982
0.000500619
0.000520293
0.00052728
0.000528459
0.000512826
0.000529754
0.000510297
0.000541829
0.000505803
0.000545809
0.000487041
0.000520979
0.00046547
0.000491544
0.000438881
0.000459303
0.00041542
0.000425696
0.000387507
0.000381223
0.000344627
0.000319801
0.000274599
0.000247655
0.000214323
0.000217362
0.000208726
0.000119019
0.000180627
0.00029398
0.000302648
0.000314484
0.000314704
0.000348754
0.000354527
0.000388081
0.000404057
0.000417321
0.000425163
0.000433896
0.000437061
0.000436702
0.000434151
0.000431422
0.000426942
0.000421345
0.000415205
0.000412365
0.000411034
0.000409748
0.000396177
0.000380056
0.000284452
0.000236871
0.000357216
0.000384193
0.000375699
0.000111459
0.000106137
0.000146579
0.000173804
0.000184008
0.000178281
0.000180958
0.000180102
0.000180574
0.000178952
0.000171573
0.000167592
0.000159929
0.00014852
0.000139272
0.000131282
0.00012754
0.000121049
0.000123441
0.000126113
0.000131249
0.000136672
0.000143618
0.000156333
0.000144515
0.000187985
0.000220833
0.000218298
0.000205394
0.000198993
2.31315e-05
2.36624e-05
2.37118e-05
3.22196e-05
3.70413e-05
4.86406e-05
5.33229e-05
5.39155e-05
4.67961e-05
4.74892e-05
5.29827e-05
5.49529e-05
5.54947e-05
4.02233e-05
4.87746e-05
4.00809e-05
5.2328e-05
4.78295e-05
4.15026e-05
5.19221e-05
3.4114e-05
3.46536e-05
6.92796e-05
0.000232293
0.000298861
0.000288371
0.000256267
0.000230512
0.000218388
0.000215288
2.66264e-05
1.69929e-05
9.90559e-06
5.96412e-06
1.08663e-05
7.07649e-06
6.72035e-06
7.41542e-06
1.11616e-05
1.1826e-05
1.49011e-05
1.54784e-05
1.91437e-05
2.19183e-05
2.30339e-05
2.24826e-05
2.06856e-05
2.1311e-05
1.86379e-05
1.79359e-05
1.73167e-05
1.60692e-05
1.52699e-05
1.36493e-05
1.1598e-05
1.12502e-05
9.29893e-06
1.38631e-05
3.66193e-05
6.77259e-05
5.57456e-05
3.75228e-05
9.20999e-05
0.000109929
0.000104972
8.00301e-05
4.25444e-05
4.22461e-05
3.9285e-05
3.95484e-05
4.135e-05
3.68736e-05
3.95307e-05
2.31737e-05
2.96247e-05
2.20421e-05
2.96414e-05
2.09051e-05
2.65833e-05
2.99087e-05
2.15179e-05
2.15986e-05
3.92879e-05
5.28939e-05
0.000184027
0.000179164
0.000184367
0.000202662
0.000192629
0.000189731
0.000151525
0.000136956
7.77995e-05
3.55408e-05
8.16909e-06
1.35051e-05
9.91615e-06
8.00155e-06
7.84737e-06
8.03829e-06
7.60033e-06
5.91829e-06
6.82181e-06
6.50009e-06
6.53539e-06
6.76806e-06
6.65797e-06
7.38435e-06
7.26961e-06
6.03716e-06
6.51793e-06
6.98906e-06
6.72001e-06
1.68481e-05
2.62869e-05
3.14071e-05
3.35713e-05
3.3808e-05
3.47324e-05
3.40558e-05
6.16169e-05
4.81421e-05
7.21621e-05
6.91587e-05
6.24883e-05
5.42267e-05
4.48994e-05
4.4893e-05
4.12822e-05
3.73937e-05
3.61581e-05
3.31151e-05
3.30698e-05
3.16971e-05
3.20936e-05
3.6796e-05
3.70953e-05
4.15025e-05
4.38018e-05
3.68271e-05
5.10114e-05
8.86981e-06
1.40418e-06
1.19657e-06
1.36933e-06
9.97873e-07
1.36033e-06
7.22268e-07
1.47417e-06
1.33144e-06
0.000243654
0.000134951
5.60151e-05
3.90403e-05
2.98658e-05
2.29753e-05
2.43941e-05
2.02322e-05
1.75039e-05
2.01353e-05
1.55369e-05
1.97338e-05
2.08403e-05
2.06797e-05
2.58525e-05
2.49617e-05
2.69245e-05
3.18635e-05
3.54284e-05
4.20326e-05
5.19308e-05
5.49411e-05
1.97969e-05
1.06505e-05
1.1269e-05
1.06464e-05
1.08132e-05
1.04785e-05
1.00922e-05
9.71105e-06
1.17371e-05
8.04754e-06
5.09625e-06
4.59219e-06
3.85499e-06
3.8966e-06
5.56769e-06
6.18703e-06
4.21385e-06
5.24079e-06
3.26883e-06
4.98188e-06
4.93527e-06
4.20351e-06
5.65908e-06
5.39359e-06
6.35115e-06
6.27601e-06
8.39295e-06
8.18266e-06
9.26365e-06
6.21534e-06
5.49915e-06
5.28735e-06
5.21571e-06
4.61871e-06
4.61838e-06
4.70575e-06
5.10109e-06
5.18928e-06
4.51194e-05
9.38553e-06
3.37089e-06
7.29842e-06
4.20244e-06
2.52795e-06
2.00361e-06
1.4544e-06
1.75231e-06
1.96307e-06
2.70887e-06
2.81926e-06
2.82162e-06
3.02454e-06
3.11407e-06
3.03478e-06
3.05237e-06
2.96337e-06
2.33301e-06
2.21191e-06
2.38963e-06
2.31457e-06
2.31017e-06
3.09165e-06
3.62989e-06
3.52467e-06
4.66294e-06
4.32663e-06
1.0303e-05
0.000153367
9.83448e-06
1.29229e-05
1.35747e-05
1.19446e-05
1.16295e-05
0.000161176
2.86209e-07
3.87422e-07
3.51102e-07
3.66226e-07
3.45602e-07
3.14891e-07
2.83281e-07
2.84146e-07
2.59649e-07
2.52032e-07
2.34603e-07
2.11845e-07
1.87278e-07
7.42714e-08
1.70414e-07
1.68958e-07
6.54799e-08
1.75489e-07
2.50659e-07
3.82581e-07
7.26547e-07
1.41384e-06
1.23196e-05
3.83564e-05
0.000892874
0.00089558
0.000911121
0.000928278
0.000897954
0.00088144
0.00087973
0.000888665
0.000901713
0.000926917
0.000943264
0.000933658
0.000827201
0.00094072
0.000426217
0.000452909
0.000536322
0.000583924
0.000584044
0.000561361
0.000555749
0.000549656
0.000574378
0.000578628
0.000606267
0.000584724
0.000598142
0.000564708
0.000568732
0.000545953
0.000557057
0.000532489
0.000550159
0.000518387
0.000523911
0.000483847
0.000461898
0.000406917
0.000367647
0.00030713
0.000266133
0.000229585
0.000215429
0.000193698
0.000124636
0.000234478
0.000297014
0.000295174
0.000312165
0.000337233
0.000359875
0.000376942
0.000407379
0.000424385
0.000425735
0.000428228
0.000423129
0.000418656
0.000419703
0.000416775
0.000412824
0.000407552
0.0004064
0.000405633
0.000408074
0.000409188
0.00041154
0.000404498
0.000394065
0.000345194
0.000258752
0.000233516
0.000265585
0.000272917
0.000114069
0.000112478
0.000163653
0.000178531
0.000174975
0.000168471
0.000170908
0.000177129
0.000180587
0.000181198
0.000178508
0.000180226
0.000178128
0.000172325
0.00016491
0.000160628
0.000150752
0.00015416
0.000152303
0.000153823
0.000151263
0.000145929
0.000143411
0.000151753
0.000147267
0.000156085
0.000169773
0.000160051
0.00014127
0.000156488
2.22206e-05
2.66747e-05
5.26897e-05
8.54664e-05
0.000146563
0.000169621
0.000184973
0.000194144
0.000194769
0.000184528
0.000180353
0.000183548
0.000170922
0.000171974
0.000171603
0.000164826
0.000158343
0.000144699
0.000117545
8.70802e-05
5.85443e-05
5.06738e-05
5.16344e-05
0.000125771
0.000251202
0.000256056
0.000201685
0.000171885
0.000160449
0.000174773
2.04862e-05
1.30283e-05
8.65046e-06
7.82446e-06
1.02691e-05
1.30002e-05
1.47517e-05
1.86165e-05
2.09637e-05
2.73042e-05
3.25701e-05
3.71319e-05
3.84837e-05
4.11178e-05
4.10585e-05
3.85453e-05
3.85925e-05
3.45464e-05
3.4204e-05
3.10574e-05
2.90362e-05
2.66504e-05
2.48108e-05
2.1564e-05
1.73556e-05
1.34957e-05
1.19982e-05
1.07119e-05
2.01236e-05
3.35355e-05
4.2984e-05
6.38576e-05
0.000101759
9.52245e-05
4.47557e-05
3.04919e-05
2.83145e-05
3.18367e-05
3.38507e-05
3.62548e-05
1.56083e-05
4.52476e-05
5.45961e-05
5.82238e-05
6.23652e-05
6.78378e-05
7.03592e-05
6.838e-05
6.66005e-05
6.32558e-05
5.28241e-05
4.50702e-05
2.56622e-05
3.43588e-05
0.000100308
0.000183703
0.00018638
0.000175317
0.00018843
0.000192697
3.88441e-05
1.16306e-05
7.89494e-06
5.14086e-06
5.02964e-06
5.40767e-06
6.53704e-06
8.33157e-06
5.03593e-06
7.45884e-06
8.93044e-06
8.30456e-06
8.55358e-06
8.45461e-06
8.78497e-06
8.4633e-06
8.26041e-06
8.42203e-06
8.02562e-06
7.82641e-06
7.51956e-06
7.74897e-06
5.77847e-06
1.06893e-05
8.92055e-06
3.21538e-05
3.60453e-05
3.73415e-05
3.40222e-05
3.51032e-05
6.30477e-05
7.13568e-05
5.02129e-05
2.31626e-05
1.23286e-05
3.47706e-05
3.12412e-05
1.68029e-05
1.82909e-05
1.72508e-05
1.52247e-05
2.30644e-05
1.96032e-05
2.05255e-05
2.09287e-05
2.18075e-05
2.64354e-05
3.2308e-05
3.77515e-05
4.72134e-05
5.22489e-05
2.64574e-05
2.57232e-06
7.75745e-07
2.72182e-06
3.69376e-06
4.19751e-06
3.50661e-06
3.4627e-06
1.59705e-06
0.000100214
3.05296e-05
7.7972e-06
1.7778e-05
1.85002e-05
1.90443e-05
6.59919e-06
1.98373e-05
2.23435e-05
2.67585e-05
2.82477e-05
3.24772e-05
3.20657e-05
3.35561e-05
3.25166e-05
3.57825e-05
3.40103e-05
3.58467e-05
3.53972e-05
3.74272e-05
4.4009e-05
5.26664e-05
2.91446e-05
1.38026e-05
1.06811e-05
1.01475e-05
7.70555e-06
7.71536e-06
6.92537e-06
5.4283e-06
7.73334e-06
4.32594e-06
4.47925e-06
5.20631e-06
5.84468e-06
7.23875e-06
7.93215e-06
8.93435e-06
6.42994e-06
7.60097e-06
6.85717e-06
7.38615e-06
7.42241e-06
7.47781e-06
6.34968e-06
7.0503e-06
6.9522e-06
6.6751e-06
7.75486e-06
7.76522e-06
1.025e-05
5.30144e-06
5.82965e-06
4.78215e-06
3.67243e-06
2.27464e-06
2.09721e-06
2.62819e-06
3.86893e-06
4.67493e-06
7.13573e-06
4.61451e-06
4.16991e-06
3.26935e-06
2.77598e-06
2.19711e-06
2.79245e-06
3.65683e-06
2.81132e-06
3.88448e-06
5.75893e-06
5.80946e-06
6.09816e-06
4.26049e-06
3.99212e-06
3.0055e-06
3.30944e-06
2.8781e-06
2.43649e-06
1.57169e-06
1.59729e-06
2.03917e-06
2.33114e-06
1.97485e-06
2.91167e-06
3.11824e-06
4.31935e-06
4.23013e-06
1.06858e-06
5.76917e-05
8.79061e-05
0.000152889
0.000128088
4.5115e-05
0.000124344
1.90161e-06
4.31917e-07
3.89944e-07
1.49167e-07
2.58855e-07
4.02762e-07
3.62886e-07
3.57253e-07
3.28153e-07
3.19184e-07
2.75295e-07
2.36425e-07
1.76672e-07
1.47297e-07
1.13178e-07
1.00275e-07
1.05797e-07
1.25482e-07
1.43958e-07
2.38794e-07
4.86157e-07
1.15969e-06
1.78177e-06
7.00732e-06
4.71568e-05
0.000855713
0.000915513
0.000876475
0.000802218
0.000770412
0.000810498
0.000845832
0.000872516
0.000862372
0.000884852
0.000907533
0.000941248
0.000865639
0.000906944
0.00041986
0.000495507
0.000596871
0.000622827
0.00059753
0.000582295
0.000578629
0.000580631
0.000593339
0.000589307
0.000599676
0.000564111
0.000577921
0.000538222
0.000573628
0.000538641
0.0005742
0.00054658
0.000566709
0.000548851
0.000567244
0.000544181
0.000541157
0.000486942
0.000434553
0.000358395
0.000298655
0.000252077
0.000222306
0.000197688
0.000132156
0.000272774
0.000288896
0.00029663
0.000318712
0.000315796
0.000351601
0.000371112
0.000408925
0.000410866
0.000404416
0.000395889
0.000401767
0.000400487
0.000397433
0.00039386
0.000387688
0.000383747
0.000379482
0.000380151
0.000387426
0.000395078
0.000402796
0.000401493
0.000403368
0.000376875
0.000296847
0.000225796
0.000202704
0.000223419
0.000112098
0.000108587
0.000146102
0.000167475
0.000162547
0.000164308
0.000170016
0.000171065
0.000169089
0.0001699
0.000178499
0.000182332
0.000184662
0.000182289
0.000176567
0.0001846
0.000178307
0.000185987
0.000185593
0.000184669
0.000177559
0.000166537
0.000152277
0.000148089
0.000139648
0.000132873
0.000129555
0.00011101
9.71065e-05
0.000132248
2.4295e-05
3.49758e-05
0.000152466
0.000208141
0.000216668
0.000204198
0.000198884
0.000200432
0.00018995
0.000188528
0.000192292
0.000182932
0.000177828
0.00018902
0.000191681
0.00018865
0.000209058
0.000194117
0.000193838
0.000154771
0.000113196
7.89237e-05
5.89967e-05
6.78497e-05
0.000141798
0.00017629
0.00016232
0.00012722
0.000120798
0.000150734
2.34778e-05
1.01463e-05
7.81702e-06
1.31196e-05
1.73247e-05
2.03623e-05
2.35596e-05
2.42178e-05
3.04342e-05
3.80086e-05
4.27269e-05
4.38478e-05
4.40073e-05
4.46338e-05
4.14104e-05
3.81488e-05
3.54147e-05
3.2817e-05
3.14606e-05
3.03343e-05
2.99723e-05
2.91538e-05
2.9121e-05
2.76236e-05
2.29015e-05
1.73829e-05
1.39153e-05
1.10307e-05
1.37014e-05
2.76686e-05
3.6661e-05
7.40711e-05
8.26387e-05
3.78295e-05
1.63682e-05
2.34255e-05
2.5816e-05
3.47369e-05
1.66937e-05
5.41605e-05
6.95052e-05
8.22189e-05
7.14548e-05
6.85734e-05
5.76021e-05
5.68202e-05
5.55882e-05
5.67312e-05
5.8549e-05
6.47702e-05
6.64689e-05
5.94309e-05
4.84086e-05
3.175e-05
5.05338e-05
0.000102283
0.000178292
0.000191239
0.000180442
0.000196087
1.95915e-05
8.50973e-06
3.7681e-06
4.35219e-06
8.41687e-06
1.00131e-05
1.42942e-05
1.51006e-05
1.40297e-05
1.29704e-05
1.23315e-05
1.04282e-05
1.01645e-05
1.01732e-05
1.0269e-05
1.14992e-05
1.09906e-05
1.01664e-05
1.14509e-05
9.75198e-06
8.94761e-06
6.55083e-06
5.11397e-06
7.38611e-06
1.56543e-05
2.28172e-05
3.5126e-05
3.54711e-05
3.43992e-05
3.53171e-05
5.90429e-05
2.49124e-05
3.54926e-05
3.33436e-05
3.24931e-05
2.07856e-05
3.58152e-05
4.1815e-05
4.77338e-05
5.18349e-05
5.37058e-05
5.0088e-05
4.69545e-05
4.39772e-05
3.67156e-05
3.25591e-05
3.05831e-05
2.94085e-05
3.38807e-05
3.93092e-05
4.77421e-05
4.65733e-05
1.17019e-05
2.51618e-06
3.98803e-06
1.07402e-05
1.36072e-05
1.22069e-05
9.00493e-06
3.71204e-06
2.37768e-05
1.69517e-05
1.70756e-05
1.6492e-05
1.71895e-05
9.92398e-06
2.30349e-05
3.65884e-05
3.89095e-05
6.83466e-05
7.84901e-05
8.91778e-05
9.20923e-05
9.52613e-05
9.22483e-05
8.15486e-05
7.12604e-05
3.88664e-05
4.51198e-05
4.22937e-05
3.9028e-05
4.74181e-05
5.02665e-05
2.59646e-05
9.27542e-06
9.40546e-06
7.79896e-06
5.34235e-06
4.95072e-06
5.9445e-06
6.99113e-06
5.16501e-06
6.65462e-06
8.15183e-06
1.01988e-05
9.61041e-06
1.01418e-05
1.12489e-05
9.90609e-06
9.41943e-06
9.08652e-06
1.13943e-05
1.4827e-05
1.14297e-05
1.01047e-05
1.05833e-05
3.68407e-06
1.02586e-05
9.70234e-06
8.17434e-06
9.58673e-06
8.66371e-06
6.42609e-06
4.74761e-06
2.80954e-06
2.37239e-06
2.2564e-06
1.25592e-06
2.91068e-06
4.82624e-06
4.31985e-06
2.98108e-06
3.68831e-06
2.21359e-06
2.04791e-06
3.36849e-06
4.01142e-06
5.77093e-06
5.87997e-06
7.69611e-06
8.67286e-06
6.76693e-06
9.86126e-06
1.01982e-05
9.5301e-06
8.33428e-06
5.15277e-06
2.53394e-06
2.97771e-06
2.79982e-06
3.4579e-06
4.2767e-06
2.63841e-06
3.47521e-06
4.69746e-06
3.98204e-06
4.53032e-06
4.14735e-06
5.65499e-06
1.70188e-05
1.31715e-05
3.41882e-06
2.0736e-05
0.000156079
6.46819e-06
5.72232e-07
4.25668e-07
1.97477e-07
2.44232e-07
4.27829e-07
4.43583e-07
4.41064e-07
4.09395e-07
4.12426e-07
3.72503e-07
3.4835e-07
2.78007e-07
1.77142e-07
5.20959e-08
1.07277e-07
7.47589e-08
7.84849e-08
1.35939e-07
1.85264e-07
5.0584e-07
4.15041e-07
1.9847e-06
1.48461e-06
8.359e-06
5.49771e-05
0.000873373
0.000913216
0.000771639
0.000754821
0.000774863
0.00082705
0.000935325
0.00102122
0.00102607
0.000939335
0.000915004
0.000931649
0.000900856
0.000910811
0.000415127
0.000533828
0.000620629
0.000629861
0.000643343
0.000626576
0.000615048
0.000604718
0.000597787
0.000578271
0.000575021
0.000542954
0.000564259
0.000563391
0.000608161
0.000612809
0.000625169
0.000628055
0.000607524
0.000601995
0.000593658
0.000586439
0.000583927
0.000551643
0.000499143
0.000413444
0.000334347
0.000275641
0.000230881
0.000197782
0.000144094
0.00027465
0.000286853
0.000293098
0.000280328
0.000275596
0.000337365
0.000380604
0.000402621
0.000390589
0.000379409
0.000374672
0.000378396
0.00038515
0.000389371
0.000380702
0.00036387
0.000350117
0.000352039
0.000357252
0.00036869
0.00038181
0.000386234
0.000394377
0.000399328
0.000390393
0.000330992
0.000246302
0.000196218
0.000209477
0.000109957
9.6313e-05
0.000137894
0.000158895
0.000166372
0.000164286
0.000158035
0.000153081
0.000150512
0.000158691
0.000175772
0.000186515
0.000190186
0.000197278
0.000192276
0.000198941
0.000192503
0.000202453
0.000205074
0.000206234
0.000206389
0.000186954
0.000163289
0.000149595
0.00013817
0.000127138
0.000109421
8.70494e-05
8.12811e-05
0.000114527
3.69759e-05
0.000148862
0.000207781
0.00018304
0.000154289
0.000137559
0.000138777
0.000144896
0.000154205
0.000170523
0.000174123
0.000164167
0.000171367
0.000177691
0.000175792
0.000183127
0.000199385
0.000210788
0.000224631
0.000203571
0.000170042
0.000120884
8.12253e-05
5.99339e-05
7.12404e-05
9.16025e-05
8.67341e-05
8.0696e-05
8.60296e-05
0.000138867
2.15054e-05
8.22291e-06
1.15062e-05
1.96706e-05
2.5546e-05
2.53073e-05
2.50844e-05
2.87143e-05
3.52281e-05
4.24516e-05
1.88556e-05
3.02141e-05
3.3832e-05
2.62483e-05
2.0416e-05
3.48212e-05
3.21081e-05
3.25443e-05
2.97363e-05
3.00296e-05
3.12284e-05
3.22395e-05
2.8026e-05
3.14119e-05
2.80023e-05
2.31193e-05
1.82886e-05
1.39893e-05
1.2446e-05
2.21717e-05
4.90302e-05
7.47263e-05
4.5322e-05
1.05087e-05
2.35258e-05
2.32523e-05
3.12134e-05
2.83541e-05
7.83678e-05
9.83606e-05
9.3771e-05
7.63465e-05
3.45914e-05
3.45085e-05
2.59075e-05
2.35806e-05
2.16438e-05
2.09008e-05
2.82507e-05
3.26538e-05
4.0653e-05
5.42272e-05
5.78872e-05
4.03327e-05
3.62245e-05
5.53467e-05
0.000102433
0.00018763
0.000178992
0.000199543
1.31778e-05
3.24786e-06
4.83164e-06
7.63263e-06
1.58883e-05
1.71561e-05
1.45597e-05
1.1795e-05
9.68442e-06
7.90903e-06
6.84475e-06
6.55544e-06
6.31991e-06
6.81367e-06
6.76962e-06
7.0812e-06
5.77153e-06
8.57997e-06
1.0197e-05
1.13756e-05
1.18295e-05
9.77647e-06
7.9629e-06
7.213e-06
1.00924e-05
1.97356e-05
2.86862e-05
3.02817e-05
3.06638e-05
3.39223e-05
1.46169e-05
3.36928e-05
3.29173e-05
3.38208e-05
3.18356e-05
5.29494e-05
6.89068e-05
7.89642e-05
0.000115809
0.000130914
0.000134416
0.000137257
0.000127888
0.000113095
8.75527e-05
5.36442e-05
4.71131e-05
3.7003e-05
3.15656e-05
3.49687e-05
4.49872e-05
5.08299e-05
2.6145e-05
4.80641e-06
2.29168e-06
7.96765e-06
1.613e-05
1.73584e-05
1.34662e-05
5.50275e-06
1.42401e-05
1.68886e-05
1.70976e-05
1.47533e-05
1.88627e-05
2.04498e-05
4.41234e-05
7.42323e-05
0.000107721
0.000126372
0.000132181
0.000138974
0.000142721
0.00014118
0.000148087
0.000136186
0.00012579
0.000104899
6.76855e-05
3.27747e-05
4.2194e-05
4.32206e-05
5.31192e-05
3.40082e-05
1.58879e-05
6.00784e-06
6.20346e-06
6.05368e-06
7.26991e-06
7.06554e-06
3.13479e-06
7.54443e-06
9.23235e-06
9.9415e-06
1.04567e-05
1.08236e-05
1.27184e-05
9.90861e-06
2.0516e-05
2.73676e-05
2.94185e-05
4.33457e-05
4.51385e-05
4.84092e-05
3.79015e-05
3.08463e-05
2.55059e-05
1.70261e-05
8.90685e-06
1.03874e-05
8.7404e-06
8.18901e-06
3.52925e-06
5.16025e-06
3.03958e-06
2.41479e-06
2.27201e-06
2.22899e-06
1.92561e-06
4.49978e-06
3.6685e-06
3.65857e-06
2.5744e-06
2.1907e-06
3.29842e-06
4.15623e-06
5.55062e-06
6.90413e-06
7.73846e-06
8.84031e-06
9.26028e-06
4.55655e-06
1.40781e-05
1.94774e-05
2.34284e-05
2.1915e-05
1.18579e-05
5.55454e-06
3.58685e-06
3.64414e-06
4.42542e-06
7.74025e-06
2.65981e-05
2.46291e-05
5.91571e-06
5.78771e-06
5.44593e-06
5.30217e-06
5.09765e-06
1.26293e-05
1.69252e-06
6.34241e-07
6.58305e-06
2.58352e-05
1.13932e-06
2.48299e-07
4.43175e-07
3.13554e-07
4.724e-07
5.15717e-07
3.79768e-07
4.61313e-07
5.47546e-07
4.47772e-07
3.14841e-07
4.71105e-07
4.11899e-07
3.13773e-07
1.75659e-07
1.44057e-07
7.94669e-08
6.82807e-08
1.56842e-07
5.91147e-07
1.92521e-06
3.57672e-06
3.32813e-06
2.11641e-06
1.15844e-05
4.75413e-05
0.000895305
0.000875745
0.000738476
0.000718864
0.000701523
0.000727769
0.000826089
0.00101081
0.00112929
0.00108105
0.00092935
0.000940803
0.000922042
0.000918366
0.000408432
0.000546694
0.000605256
0.000631878
0.000664753
0.000680485
0.000661444
0.000621229
0.000591373
0.000563425
0.000551555
0.000546904
0.000604703
0.000672549
0.000709466
0.000716512
0.000744036
0.000720557
0.000699582
0.000692218
0.000660752
0.000631245
0.000630302
0.000594864
0.000551134
0.00045629
0.000366342
0.000283876
0.00024136
0.00019574
0.0001484
0.000271731
0.000282305
0.000266534
0.00019095
0.000225413
0.00032699
0.000382882
0.000394436
0.000367121
0.000351479
0.000356416
0.00037396
0.000379938
0.000381452
0.000356047
0.000324234
0.000304165
0.000301966
0.000318863
0.000340075
0.000360554
0.000374473
0.000385233
0.000391874
0.000386083
0.000349019
0.000268859
0.000201609
0.000205314
0.000103396
7.60212e-05
0.000129437
0.000162291
0.000163453
0.000155862
0.000144851
0.00014725
0.000151569
0.000163076
0.000179172
0.000191458
0.000203312
0.000221961
0.000214987
0.000224929
0.000218982
0.000217324
0.000221252
0.000225087
0.000226397
0.000205518
0.00017542
0.000148894
0.000136196
0.000132983
0.000108007
8.39444e-05
6.43284e-05
0.00011545
6.82633e-05
0.000197373
0.000146781
9.26794e-05
8.02628e-05
9.01121e-05
0.000107591
0.000130204
0.000154101
0.000171501
0.000168189
0.000169663
0.00017898
0.000180314
0.000180099
0.000176452
0.00019696
0.000204451
0.000231099
0.000227896
0.000213346
0.000161523
0.000115077
7.06906e-05
5.53303e-05
4.97199e-05
3.95057e-05
4.27737e-05
6.48303e-05
0.000125241
1.77884e-05
9.69127e-06
1.88004e-05
2.6887e-05
2.73309e-05
2.76515e-05
2.63667e-05
3.1365e-05
2.2381e-05
2.15508e-05
3.32787e-05
3.25623e-05
3.23165e-05
2.85902e-05
1.86653e-05
3.11142e-05
3.0754e-05
2.98747e-05
3.24519e-05
2.98708e-05
3.19061e-05
3.24184e-05
3.19465e-05
3.39764e-05
3.25226e-05
2.74441e-05
2.29563e-05
1.60725e-05
1.25944e-05
2.31348e-05
4.96114e-05
4.35952e-05
1.67589e-05
1.09288e-05
1.42765e-05
2.19575e-05
2.72887e-05
9.907e-05
0.000117316
0.000110146
6.88995e-05
3.87269e-05
2.42067e-05
1.57471e-05
1.90905e-05
1.88371e-05
1.75707e-05
1.69835e-05
1.70555e-05
1.34825e-05
2.86964e-05
2.67368e-05
4.82984e-05
4.83589e-05
3.85528e-05
2.99243e-05
7.13356e-05
0.000162975
0.000183064
0.000194232
9.00472e-06
3.98944e-06
1.03894e-05
1.41477e-05
1.78734e-05
1.4691e-05
1.38432e-05
1.02614e-05
9.55785e-06
5.64478e-06
5.36286e-06
6.96562e-06
6.76148e-06
6.30934e-06
5.83343e-06
5.82056e-06
5.41317e-06
6.83674e-06
8.02694e-06
9.11303e-06
1.14627e-05
1.36139e-05
8.86337e-06
7.53968e-06
8.97289e-06
1.39752e-05
1.54857e-05
2.56328e-05
2.82692e-05
3.12168e-05
3.22141e-05
3.05928e-05
3.25707e-05
2.95844e-05
5.54401e-05
5.90938e-05
0.000117022
0.000151368
0.000182291
0.000191814
0.000194228
0.000205069
0.000192413
0.000187055
0.000166138
0.000139375
9.60013e-05
3.83646e-05
4.12672e-05
3.76233e-05
4.10866e-05
4.92789e-05
4.45248e-05
9.45101e-06
3.86916e-06
9.17291e-06
9.20475e-06
1.23171e-05
1.70593e-05
9.42551e-06
1.47324e-05
1.59139e-05
1.4234e-05
1.59291e-05
1.43042e-05
3.80302e-05
7.8115e-05
0.000107944
0.000135215
0.000142278
0.000144874
0.00015201
0.000147364
0.000156128
0.000155875
0.000168415
0.000155334
0.000142573
0.000110498
6.7703e-05
2.54355e-05
4.37029e-05
5.02271e-05
4.35496e-05
2.22296e-05
9.76596e-06
6.28223e-06
7.04454e-06
9.14151e-06
4.16555e-06
4.15969e-06
9.34495e-06
1.10663e-05
9.49753e-06
9.87221e-06
1.18947e-05
1.08698e-05
2.52822e-05
5.09982e-05
8.76808e-05
0.000119874
0.000147554
0.000158062
0.000147262
0.000132696
0.000111819
7.6261e-05
2.60235e-05
2.31219e-05
9.94004e-06
1.03275e-05
9.28137e-06
6.96404e-06
5.58995e-06
3.83816e-06
2.08968e-06
2.67908e-06
2.2322e-06
2.39802e-06
3.70872e-06
1.98208e-06
3.42776e-06
2.41551e-06
3.28706e-06
2.15616e-06
5.83015e-06
7.56335e-06
6.12625e-06
6.61925e-06
6.51897e-06
7.98675e-06
8.52203e-06
9.43523e-06
1.02734e-05
2.3654e-05
2.76905e-05
2.5319e-05
6.37337e-06
3.4595e-06
4.02148e-06
7.55426e-06
1.1623e-05
0.00012902
0.000132876
1.85501e-05
1.21585e-05
5.3663e-06
5.66353e-06
5.64353e-06
1.20215e-05
9.17467e-07
4.116e-07
3.61481e-06
3.79982e-06
5.79199e-07
4.4811e-07
3.24117e-07
2.8566e-07
4.64009e-07
8.44893e-07
1.07216e-06
1.05448e-06
1.15439e-06
1.0249e-06
1.07119e-06
6.98803e-07
4.89447e-07
4.17229e-07
3.04282e-07
1.31791e-07
1.10123e-07
6.07651e-08
1.64169e-07
1.20755e-06
4.23562e-06
4.42349e-06
3.72193e-06
2.44754e-06
2.52676e-05
4.00553e-05
0.000911537
0.00085559
0.000744897
0.000674118
0.000624943
0.000654027
0.000766965
0.000937201
0.00111483
0.00114365
0.000990525
0.00094418
0.000933603
0.000915137
0.000405946
0.00055542
0.000568578
0.000586247
0.000679151
0.000729225
0.000692607
0.000626105
0.000574277
0.000566605
0.000543438
0.000590964
0.000705196
0.000795547
0.000800403
0.000845823
0.000826253
0.000842773
0.000795243
0.000792468
0.000717286
0.000707885
0.00066232
0.000632547
0.000578397
0.000484862
0.000386554
0.000296963
0.000244754
0.000196721
0.000147044
0.000264324
0.000273634
0.000190063
0.000122501
0.000184074
0.00032361
0.000383385
0.000381109
0.000351697
0.000325738
0.000325446
0.000347668
0.000366494
0.000368671
0.000340867
0.000301124
0.000267782
0.000263724
0.00028801
0.000324607
0.000341655
0.000355231
0.000374026
0.000381989
0.000378311
0.000355797
0.00028856
0.000215105
0.000208093
9.7627e-05
9.2671e-05
0.000133517
0.000166604
0.000160063
0.000145092
0.00014006
0.000145429
0.000148153
0.000157919
0.000176695
0.000193507
0.000223374
0.000241152
0.000245751
0.00026013
0.000238524
0.000241207
0.000237152
0.000233564
0.000234055
0.000210969
0.000180133
0.000150188
0.000136175
0.000128177
0.000107401
8.46392e-05
6.17996e-05
0.00011649
0.000146142
0.000158279
5.81276e-05
6.06238e-05
6.11125e-05
6.3883e-05
9.98682e-05
0.000139072
0.00016611
0.000174301
0.000179705
0.000188198
0.000200785
0.000198348
0.000202104
0.000197636
0.000196595
0.000205494
0.000233089
0.000236613
0.000242668
0.00020241
0.000150141
0.000104405
5.97398e-05
3.57113e-05
5.59099e-05
6.05751e-05
5.72435e-05
0.000124535
1.69402e-05
1.26492e-05
2.25262e-05
2.89401e-05
1.12319e-05
1.77238e-05
2.68321e-05
1.55624e-05
2.15217e-05
3.42683e-05
3.52207e-05
2.62418e-05
2.53846e-05
1.64848e-05
2.89458e-05
2.9908e-05
3.0809e-05
3.16784e-05
3.14663e-05
2.93472e-05
3.09323e-05
2.96994e-05
3.2663e-05
3.26908e-05
3.04483e-05
2.95499e-05
2.62537e-05
1.86712e-05
1.45002e-05
2.24346e-05
4.55015e-05
3.43287e-05
2.25261e-05
1.38279e-05
2.10943e-05
3.41917e-05
9.56623e-05
0.00012916
0.000125368
8.21999e-05
4.02124e-05
2.12751e-05
2.16928e-05
2.1213e-05
2.18242e-05
2.18722e-05
2.0866e-05
1.96465e-05
1.6897e-05
1.79793e-05
1.71354e-05
3.41131e-05
4.20242e-05
4.93844e-05
3.23845e-05
3.01532e-05
4.99352e-05
0.000141675
0.000184796
0.000197824
6.04373e-06
4.53031e-06
1.20713e-05
1.588e-05
1.71788e-05
1.56383e-05
1.23728e-05
9.99617e-06
9.26445e-06
6.67063e-06
5.16637e-06
7.13869e-06
6.54254e-06
6.22542e-06
6.09583e-06
5.58124e-06
5.28273e-06
5.21186e-06
6.14302e-06
8.11484e-06
1.1125e-05
1.33368e-05
1.08143e-05
7.41632e-06
6.67709e-06
9.8776e-06
1.78371e-05
1.11516e-05
2.288e-05
3.39863e-05
2.76756e-05
2.75294e-05
2.15556e-05
4.67463e-05
6.63237e-05
0.000100932
0.000160752
0.000192412
0.000214761
0.000223396
0.000228355
0.000228696
0.000222495
0.000224215
0.000210802
0.000194376
0.000152571
9.78054e-05
5.3303e-05
4.17966e-05
3.93652e-05
4.75832e-05
4.81817e-05
1.75353e-05
5.30249e-06
6.9607e-06
8.88569e-06
8.65103e-06
1.49256e-05
5.86077e-06
1.59873e-05
1.81432e-05
1.49163e-05
1.70834e-05
1.96885e-05
2.31135e-05
0.000105775
0.000127291
0.000140188
0.00014277
0.000143487
0.000149444
0.000139634
0.000151625
0.000155967
0.000166638
0.000171602
0.000155985
0.000139129
0.000108371
5.80996e-05
4.39112e-05
4.66399e-05
4.95942e-05
2.23934e-05
1.72482e-05
1.10842e-05
1.08109e-05
1.10161e-05
4.80011e-06
6.7644e-06
9.07617e-06
1.10496e-05
1.04155e-05
9.64546e-06
1.26625e-05
2.41327e-05
5.31317e-05
0.000131573
0.000171567
0.000192742
0.000192902
0.00019367
0.000198406
0.000200307
0.000191504
0.000154609
9.57276e-05
3.23953e-05
1.88835e-05
7.06122e-06
1.0459e-05
9.15309e-06
6.12917e-06
4.00086e-06
3.30718e-06
2.81746e-06
2.21606e-06
2.2183e-06
2.13109e-06
1.9588e-06
2.78468e-06
2.87341e-06
4.17903e-06
4.14911e-06
6.91523e-06
7.00156e-06
5.25655e-06
4.80663e-06
4.61394e-06
6.31328e-06
6.14203e-06
6.84139e-06
8.71376e-06
9.58951e-06
1.8091e-05
4.18462e-05
1.83297e-05
5.27446e-06
3.97499e-06
7.58184e-06
3.44372e-05
0.00018352
0.00017094
5.27807e-05
6.58864e-06
7.76754e-06
5.73386e-06
5.30824e-06
1.13927e-05
9.38415e-07
4.38089e-07
1.44485e-06
1.5009e-06
3.10428e-07
4.56597e-07
4.29524e-07
5.49537e-07
9.50966e-07
1.03524e-06
2.40696e-06
3.05957e-06
3.81873e-06
3.33119e-06
2.44259e-06
1.13142e-06
7.69316e-07
4.68053e-07
3.7507e-07
2.39253e-07
1.59705e-07
7.3802e-08
1.48528e-07
8.6894e-07
4.25018e-06
3.35538e-06
3.78278e-06
3.86754e-06
0.000118598
2.89778e-05
0.000898032
0.00084126
0.000738772
0.000642705
0.000608064
0.000654819
0.000761826
0.000948275
0.00105268
0.00114532
0.00103448
0.000970004
0.000954368
0.000952302
0.000402585
0.000521773
0.000489632
0.000513111
0.000655374
0.000755206
0.000713901
0.000616562
0.000558862
0.000550344
0.000549574
0.000659021
0.00077168
0.000861829
0.000871548
0.000922181
0.00087136
0.000892178
0.000824403
0.000823934
0.000757164
0.000742276
0.000699406
0.00065056
0.000588926
0.000482578
0.000388929
0.000298449
0.000246056
0.000199216
0.000143107
0.000258138
0.000251227
0.000131589
6.11371e-05
0.000159178
0.000317374
0.000384965
0.000378632
0.000333113
0.000304454
0.00029902
0.000327859
0.000361808
0.00036286
0.000331572
0.000293422
0.000273284
0.00026364
0.000282898
0.000307069
0.000333821
0.000344463
0.00035002
0.000371036
0.00037224
0.000351481
0.000294685
0.000220959
0.000211414
8.78705e-05
8.89188e-05
0.000136723
0.000164189
0.000155533
0.000142197
0.000142931
0.000142424
0.000140802
0.000149639
0.000167968
0.000198401
0.00023903
0.000255148
0.000268625
0.000277404
0.000262521
0.000262432
0.000249166
0.000242935
0.00023572
0.000208617
0.000168012
0.000144206
0.000131642
0.000128866
0.000114515
8.20669e-05
7.45953e-05
0.000123621
0.000167688
8.0114e-05
5.3434e-05
4.60609e-05
5.31698e-05
6.95578e-05
0.0001159
0.000147939
0.000172643
0.000180561
0.000200057
0.000218888
0.000232176
0.000237512
0.000238488
0.000229477
0.000225171
0.000219614
0.000235822
0.000243142
0.000260247
0.000227074
0.000184606
0.000133593
8.91893e-05
4.83268e-05
5.83389e-05
5.72555e-05
5.22158e-05
0.000121972
1.74831e-05
1.72086e-05
2.6798e-05
3.02619e-05
1.23856e-05
1.89361e-05
2.79358e-05
1.18725e-05
2.39211e-05
3.47884e-05
3.09874e-05
1.93248e-05
1.58681e-05
1.0241e-05
2.73733e-05
2.85171e-05
3.02472e-05
3.18836e-05
3.26975e-05
2.81976e-05
3.28934e-05
3.37299e-05
3.02728e-05
3.2059e-05
3.1977e-05
3.26365e-05
2.70749e-05
2.03454e-05
1.71018e-05
2.34153e-05
2.20839e-05
2.58659e-05
2.07917e-05
1.98412e-05
1.506e-05
3.35701e-05
0.000113173
0.000129737
0.000113807
6.09674e-05
3.16542e-05
2.06021e-05
1.65185e-05
2.20033e-05
2.49209e-05
2.31827e-05
1.28155e-05
2.17927e-05
1.69611e-05
1.70265e-05
1.87943e-05
2.85176e-05
2.4458e-05
4.083e-05
3.33241e-05
4.47558e-05
4.65648e-05
0.000176355
0.000173927
0.000194802
5.33537e-06
8.51908e-06
1.52476e-05
1.7371e-05
1.75741e-05
1.56097e-05
1.17584e-05
9.39156e-06
8.48703e-06
7.97933e-06
3.98941e-06