/*--------------------------------*- C++ -*----------------------------------*\
| =========                 |                                                 |
| \\      /  F ield         | OpenFOAM: The Open Source CFD Toolbox           |
|  \\    /   O peration     | Version:  2.1.1                                 |
|   \\  /    A nd           | Web:      www.OpenFOAM.org                      |
|    \\/     M anipulation  |                                                 |
\*---------------------------------------------------------------------------*/
FoamFile
{
    version     2.0;
    format      ascii;
    class       volScalarField;
    location    "0.005550000";
    object      O2;
}
// * * * * * * * * * * * * * * * * * * * * * * * * * * * * * * * * * * * * * //

dimensions      [0 0 0 0 0 0 0];

internalField   nonuniform List<scalar> 
12384
(
0.00600613
0.008092
0.0101858
0.0115438
0.0117194
0.0114529
0.0110098
0.0107497
0.010335
0.0100334
0.0092326
0.00667109
0.0030569
0.0067473
0.045019
0.039183
0.0329066
0.0290664
0.0279448
0.0279457
0.027966
0.0279209
0.0278947
0.0277958
0.0278633
0.0279664
0.0283417
0.028466
0.0289503
0.0289736
0.0293014
0.0293483
0.0295894
0.0296973
0.0299848
0.0302755
0.0307641
0.0314917
0.0329405
0.0348328
0.0377275
0.0411339
0.0425584
0.044752
0.00190732
0.0032576
0.015068
0.0217017
0.0221902
0.0220422
0.0208324
0.0201223
0.0183467
0.0170374
0.0158801
0.0147817
0.0141875
0.0136018
0.0132618
0.0130629
0.0130754
0.0131004
0.0132787
0.0133588
0.0135463
0.0136539
0.0135546
0.0129428
0.0110768
0.00569236
0.00364151
0.0111337
0.0145666
0.0113099
0.00144375
0.000817859
0.0016607
0.00234889
0.00264037
0.00266299
0.0026924
0.00270161
0.002736
0.00275758
0.00271825
0.00269679
0.00263234
0.00252221
0.00242849
0.00233155
0.00228895
0.0021822
0.00223359
0.00218746
0.00221119
0.00222895
0.0022475
0.00226329
0.00198678
0.00337714
0.0059779
0.00579066
0.00499675
0.0047204
0.00012058
0.000120871
0.000118015
0.000179845
0.000218189
0.000302494
0.000342308
0.000352408
0.000201634
0.00027976
0.000494215
0.000469762
0.000543973
0.000272329
0.000437998
0.000205201
0.000509951
0.000240379
0.000148889
0.000338063
-3.18779e-06
1.72961e-05
0.000678081
0.00561811
0.00906355
0.00857444
0.00688416
0.0056639
0.0048635
0.00476226
0.000116754
5.01451e-05
1.84674e-05
4.2665e-06
2.66124e-05
1.07973e-05
9.08839e-06
1.25759e-05
2.76269e-05
2.91006e-05
4.13316e-05
4.27394e-05
5.66586e-05
6.71277e-05
7.15889e-05
6.99579e-05
6.37576e-05
6.74607e-05
5.79284e-05
5.65665e-05
5.40537e-05
5.05626e-05
4.73107e-05
4.11171e-05
3.30715e-05
3.24745e-05
2.51322e-05
4.09565e-05
0.00016701
0.000436724
0.000594215
0.000314224
0.00179435
0.00237801
0.00224301
0.00144586
0.000431364
0.000280439
0.000254106
0.000256023
0.000267976
0.000242145
0.000262699
-5.86799e-05
0.000132396
2.364e-05
0.000170869
4.38807e-05
0.00015156
0.000186218
1.73493e-05
-7.12324e-05
0.000259902
0.000776303
0.0124691
0.0231918
0.0233694
0.0172326
0.0121488
0.00992451
0.00391645
0.00271646
0.00119994
0.000216581
-7.51068e-06
4.63949e-05
3.02391e-05
2.18866e-05
2.18175e-05
2.21884e-05
2.04667e-05
1.43123e-05
1.75006e-05
1.61762e-05
1.62424e-05
1.69717e-05
1.65449e-05
1.91507e-05
1.87525e-05
1.30167e-05
1.4815e-05
1.62842e-05
1.42093e-05
5.8459e-05
0.000107575
0.000133202
0.000149002
0.000153854
0.000161383
0.000155949
0.000394099
4.2156e-05
0.000463042
0.000428942
0.000371249
0.000306312
0.000242363
0.000240303
0.000228639
0.000194352
0.000211359
0.000181489
0.000198522
0.000185478
0.000193591
0.00022652
0.000231091
0.000266406
0.000285979
6.8603e-05
0.000334446
2.39988e-05
2.01102e-06
1.6735e-06
1.95569e-06
1.02342e-06
1.70606e-06
3.76591e-07
2.0826e-06
1.8547e-06
0.00567303
0.00206111
0.000361879
0.000224886
0.000151549
9.85267e-05
0.000115169
8.0707e-05
7.41281e-05
8.98861e-05
6.85546e-05
9.80641e-05
0.000113563
0.000112104
0.0001479
0.000143227
0.000151442
0.000175148
0.000198894
0.000242312
0.000317933
0.000329691
6.55326e-05
2.93156e-05
3.3212e-05
3.09588e-05
3.1202e-05
2.9622e-05
2.81012e-05
2.66692e-05
4.25355e-05
2.42413e-05
1.02913e-05
7.75027e-06
4.96697e-06
5.38777e-06
1.39981e-05
1.66199e-05
1.02669e-05
1.44387e-05
7.75408e-06
1.4312e-05
1.47097e-05
1.16066e-05
1.79581e-05
1.52955e-05
1.88991e-05
1.68722e-05
2.50643e-05
2.42048e-05
2.73026e-05
1.47537e-05
1.29241e-05
1.25509e-05
1.23565e-05
1.08018e-05
1.07782e-05
1.10532e-05
1.21998e-05
1.25185e-05
0.000754005
3.82336e-05
8.69073e-06
2.58365e-05
1.21393e-05
5.53663e-06
3.76772e-06
2.40984e-06
3.29827e-06
4.02693e-06
6.16532e-06
6.55014e-06
6.55375e-06
7.1374e-06
7.26122e-06
6.97323e-06
6.90217e-06
6.56485e-06
4.755e-06
4.36899e-06
4.76052e-06
4.5585e-06
4.40694e-06
6.59865e-06
7.85291e-06
7.50795e-06
1.02941e-05
9.32294e-06
3.33573e-05
0.0323341
0.0925129
0.0888299
0.0881773
0.0893438
0.0896244
0.0235378
2.41834e-07
3.66769e-07
3.37108e-07
3.53388e-07
3.33119e-07
3.02436e-07
2.7001e-07
2.68976e-07
2.42621e-07
2.32385e-07
2.12014e-07
1.85682e-07
1.57812e-07
3.79048e-08
1.4123e-07
1.3992e-07
2.71957e-08
1.45319e-07
2.30671e-07
4.01653e-07
9.47048e-07
2.32312e-06
6.09478e-05
0.0698243
0.0236103
0.0228392
0.0189518
0.0136788
0.00968684
0.00802674
0.00751319
0.0075377
0.00790148
0.00868847
0.0101294
0.0087769
0.0040609
0.00554554
0.0439094
0.0350845
0.0271175
0.0237385
0.0238605
0.0250586
0.0258236
0.0263515
0.0267827
0.0276275
0.0285944
0.0295378
0.0306103
0.0305643
0.0313961
0.0307345
0.0309681
0.0302084
0.0298893
0.0294812
0.0293068
0.0292887
0.0296512
0.0303468
0.0316244
0.0335166
0.0360931
0.0392411
0.0419233
0.0479496
0.0020239
0.00694416
0.0206366
0.0254271
0.0234878
0.0203667
0.0167514
0.0150729
0.0133499
0.0115686
0.0102746
0.0100525
0.00987135
0.00990809
0.00998862
0.0101163
0.0102184
0.0102401
0.0105463
0.010596
0.0107869
0.0111302
0.0117201
0.0121965
0.011787
0.00851596
0.00410734
0.00358417
0.00425214
0.00423316
0.00142331
0.000947706
0.00206316
0.00265194
0.00274592
0.002668
0.002712
0.00282363
0.00291085
0.00296712
0.00300317
0.00308805
0.00313859
0.00314209
0.0031138
0.00311927
0.00324097
0.0033334
0.00310441
0.00296124
0.00278937
0.0025535
0.00236117
0.00230927
0.00202907
0.00239753
0.00304402
0.00290347
0.0024632
0.00277433
0.000112504
0.000143652
0.00033654
0.000999219
0.00214441
0.00267676
0.0029893
0.00319684
0.00321887
0.00317777
0.0031468
0.00316616
0.0030531
0.00304278
0.00301815
0.00282793
0.00261587
0.00223047
0.001656
0.000996115
0.000471973
0.000292964
0.000309493
0.00191474
0.00631807
0.00686157
0.00411275
0.00293099
0.00267252
0.00299597
5.11545e-05
3.25008e-05
1.46764e-05
1.37946e-05
2.49045e-05
3.8163e-05
4.56873e-05
6.10863e-05
6.97161e-05
9.36119e-05
0.000112277
0.000128237
0.000132196
0.000141119
0.000140382
0.000130583
0.00013041
0.000114809
0.000113632
0.000101708
9.3994e-05
8.519e-05
7.96873e-05
6.87903e-05
5.4019e-05
4.03228e-05
3.53168e-05
2.94669e-05
6.72346e-05
0.000131141
0.00034063
0.000966701
0.00205967
0.00179136
0.000292215
0.000164416
0.000145466
0.000176887
0.000200732
0.000229595
-0.000174649
0.000471922
0.000793058
0.000971456
0.00109395
0.00127823
0.00132488
0.00132635
0.00124748
0.00112041
0.000850099
0.000559875
5.30147e-05
0.000244234
0.00200315
0.0104452
0.0211804
0.0251976
0.0201187
0.0129467
0.000236165
6.08397e-06
1.91601e-05
1.09142e-05
1.03688e-05
1.1567e-05
1.50061e-05
2.00844e-05
5.51998e-06
1.7356e-05
2.33958e-05
2.15833e-05
2.27016e-05
2.24008e-05
2.34954e-05
2.21991e-05
2.13286e-05
2.17447e-05
2.01561e-05
1.92655e-05
1.80159e-05
1.85965e-05
1.00228e-05
3.1161e-05
-2.542e-05
0.000155216
0.000194964
0.000205704
0.000180286
0.000182141
0.000380134
0.000437244
0.000247509
2.74079e-05
-5.96015e-05
0.000124851
0.000112431
-1.65608e-06
2.37234e-05
2.98296e-05
2.47252e-05
8.93346e-05
7.35176e-05
8.30089e-05
8.9975e-05
0.000101079
0.000136562
0.000185063
0.000232177
0.000305366
0.00034307
0.000128891
3.85989e-06
6.03349e-07
4.6485e-06
5.74901e-06
7.2971e-06
5.0605e-06
5.97376e-06
2.12345e-06
0.00135646
0.000158877
-2.04813e-05
6.38072e-05
6.59321e-05
6.85805e-05
-2.98682e-05
7.94912e-05
0.000110496
0.000151779
0.000172427
0.000206827
0.000207722
0.000218634
0.000211924
0.000229635
0.000214554
0.000219895
0.00020713
0.00021829
0.000263211
0.000323071
0.000120984
4.16796e-05
3.0649e-05
2.80859e-05
1.6574e-05
1.5806e-05
1.27939e-05
7.20931e-06
2.22942e-05
5.42198e-06
6.05243e-06
1.00489e-05
1.38041e-05
2.08534e-05
2.48307e-05
2.88261e-05
2.07056e-05
2.56429e-05
2.3152e-05
2.5603e-05
2.57795e-05
2.59958e-05
2.14417e-05
2.37839e-05
2.26576e-05
2.07131e-05
2.43513e-05
2.38655e-05
3.27519e-05
9.322e-06
1.36923e-05
1.11126e-05
7.9668e-06
4.07444e-06
3.5587e-06
5.18979e-06
8.85138e-06
1.12284e-05
2.5137e-05
1.39598e-05
1.20069e-05
6.75798e-06
6.04452e-06
4.32778e-06
6.18128e-06
8.88845e-06
5.61064e-06
1.06825e-05
1.87958e-05
1.90464e-05
2.03057e-05
1.2382e-05
1.06892e-05
5.61488e-06
7.8759e-06
6.39511e-06
4.99117e-06
2.4661e-06
2.50914e-06
3.60053e-06
4.36682e-06
3.28657e-06
5.74945e-06
6.28222e-06
9.46458e-06
9.12428e-06
-8.70791e-06
0.000941741
0.0487109
0.0283032
0.0345784
0.0645557
0.0371869
3.39439e-06
4.17868e-07
3.75309e-07
6.24906e-08
2.09127e-07
3.91725e-07
3.51517e-07
3.43977e-07
3.13463e-07
3.02186e-07
2.56325e-07
2.13521e-07
1.4784e-07
1.2075e-07
8.86442e-08
7.56463e-08
8.02314e-08
9.809e-08
1.1626e-07
2.16441e-07
5.4418e-07
1.6549e-06
3.11901e-06
1.69918e-05
0.0636489
0.0260998
0.0190416
0.0089795
0.00597197
0.00476198
0.00485327
0.00511391
0.00525209
0.00529607
0.00601119
0.00769847
0.00952043
0.00619839
0.00501312
0.0422197
0.0302129
0.0217592
0.0198685
0.0220039
0.0245465
0.02626
0.0279219
0.0293002
0.030892
0.0321973
0.0338551
0.0333695
0.0338501
0.0322871
0.0322489
0.0307554
0.03039
0.0292705
0.0289375
0.0282905
0.0282707
0.0282143
0.0288296
0.030122
0.0320197
0.0345899
0.0374889
0.0406812
0.0467071
0.0022529
0.0114642
0.0232443
0.0230902
0.0165589
0.0125054
0.012211
0.0116153
0.0105126
0.00967885
0.00943946
0.00973156
0.0101803
0.0109149
0.0110821
0.0109423
0.0106708
0.0105421
0.0106873
0.0108409
0.0108898
0.0107449
0.0107719
0.0112077
0.0115029
0.00992528
0.00619671
0.00346583
0.00290846
0.00330801
0.00135618
0.000882737
0.00190319
0.00254378
0.00259564
0.0026456
0.00274129
0.00275974
0.002731
0.00278235
0.00295654
0.0031204
0.00326337
0.00336091
0.0037916
0.00434301
0.0047987
0.00528962
0.00533656
0.00518774
0.00432895
0.00311776
0.00268687
0.00240594
0.00205515
0.00184076
0.00193207
0.00166092
0.00137581
0.00220028
0.000124054
-4.65608e-05
0.00232648
0.00333892
0.00351546
0.00338736
0.00331168
0.003334
0.00324844
0.00328795
0.00334982
0.0032791
0.00322619
0.00336877
0.0034082
0.00333267
0.00364256
0.00332679
0.00315538
0.00232725
0.00151982
0.000883219
0.000461111
0.000632733
0.00224524
0.00305861
0.00269441
0.00190995
0.00175865
0.00247827
8.19354e-05
2.00166e-05
1.25837e-05
3.74945e-05
5.67573e-05
7.02554e-05
8.20124e-05
8.46049e-05
0.000107349
0.000135105
0.000150859
0.000154687
0.000156129
0.000159104
0.000147114
0.000133679
0.000121183
0.000108921
0.000101367
9.52394e-05
9.24203e-05
8.90915e-05
8.95075e-05
8.71521e-05
7.23545e-05
5.33465e-05
4.2184e-05
3.08392e-05
3.99972e-05
9.75376e-05
0.000295334
0.00129572
0.00150504
0.00022543
4.23171e-05
0.000100933
0.000130973
0.000211003
-0.000170934
0.000731481
0.00121841
0.00151086
0.0013518
0.0012744
0.00100301
0.000948741
0.00092075
0.000964546
0.00102163
0.0011423
0.00116834
0.000979359
0.000615712
0.000187079
0.000661669
0.00206011
0.00788236
0.0203089
0.0243287
0.0164936
7.13284e-05
2.07603e-05
6.64653e-06
8.34416e-06
1.99349e-05
2.45596e-05
4.46253e-05
4.87238e-05
4.46485e-05
4.15855e-05
3.85639e-05
3.1497e-05
3.001e-05
2.98718e-05
3.02411e-05
3.50005e-05
3.30966e-05
2.90701e-05
3.45365e-05
2.70612e-05
2.32137e-05
1.33052e-05
7.24886e-06
1.62414e-05
5.16486e-05
8.66496e-05
0.000193052
0.000201258
0.000189613
0.000187052
0.000331486
4.08147e-05
0.000124449
0.000115617
0.000115113
1.90521e-05
0.000151263
0.000213277
0.000277906
0.000315327
0.000338867
0.00031657
0.00029582
0.00027197
0.00021763
0.000183536
0.000165689
0.000158459
0.000193514
0.000242567
0.000310509
0.000295758
3.70035e-05
4.26089e-06
7.25331e-06
2.6225e-05
3.67336e-05
3.03817e-05
2.07546e-05
6.58893e-06
0.000102962
6.06207e-05
5.9341e-05
5.58678e-05
5.93377e-05
-1.07894e-05
0.000107021
0.000227371
0.000309607
0.00102198
0.00142365
0.0016593
0.00175366
0.00179489
0.00171343
0.00142776
0.00102416
0.00031204
0.000293839
0.000263097
0.000235484
0.000291273
0.000299303
9.39236e-05
2.43277e-05
2.44631e-05
1.53439e-05
4.14492e-06
2.8822e-06
7.62097e-06
1.71582e-05
8.30046e-06
1.62336e-05
2.38283e-05
3.31627e-05
3.16146e-05
3.42637e-05
3.95121e-05
3.59109e-05
2.22393e-05
3.1431e-05
5.01889e-05
7.85687e-05
5.16219e-05
4.21031e-05
3.95618e-05
-1.78178e-05
3.67022e-05
3.37807e-05
2.70491e-05
3.18362e-05
2.57922e-05
1.55241e-05
1.09045e-05
5.42884e-06
4.3148e-06
4.06613e-06
1.08333e-06
6.0746e-06
1.15919e-05
1.26573e-05
6.47382e-06
8.97815e-06
4.42184e-06
3.86435e-06
7.90978e-06
9.90106e-06
1.82315e-05
1.98008e-05
2.7404e-05
3.17159e-05
1.51192e-05
4.06951e-05
4.37381e-05
3.8336e-05
3.02796e-05
1.60103e-05
3.5061e-06
6.81272e-06
6.15332e-06
7.99733e-06
1.04508e-05
2.86651e-06
4.99857e-06
1.11754e-05
8.8932e-06
1.02187e-05
9.07883e-06
1.33569e-05
7.51519e-05
6.85432e-05
6.75044e-06
0.000133762
0.0273728
2.2275e-05
6.30942e-07
4.10879e-07
1.17502e-07
1.73403e-07
4.14463e-07
4.2723e-07
4.23269e-07
3.91783e-07
3.9387e-07
3.53841e-07
3.28074e-07
2.55761e-07
1.49852e-07
1.4171e-08
8.31976e-08
5.19763e-08
5.47668e-08
1.08428e-07
1.59429e-07
5.64204e-07
8.01614e-08
3.52948e-06
1.94258e-06
3.03032e-05
0.0606822
0.0240131
0.0119402
0.00560589
0.00474171
0.00563381
0.00698213
0.00827859
0.00873996
0.00789313
0.00614602
0.00633451
0.00841391
0.00732572
0.00509274
0.0403067
0.025542
0.0170334
0.0165203
0.0197843
0.0234665
0.0265767
0.029522
0.0317414
0.0338163
0.034896
0.0353814
0.0338526
0.0323678
0.0307003
0.0291627
0.0282103
0.0273258
0.0264762
0.0261532
0.0259601
0.0260351
0.0261994
0.0268567
0.0284947
0.0306889
0.0334555
0.0364265
0.0397151
0.0458342
0.00252343
0.0142057
0.0228322
0.0167117
0.00889549
0.00774873
0.00968202
0.0106136
0.00985194
0.00937837
0.00952048
0.00982925
0.0107324
0.0111177
0.0107598
0.00967821
0.00881348
0.00838728
0.0085554
0.00935183
0.0105514
0.0111034
0.0110023
0.0108488
0.0110183
0.0105706
0.00775225
0.00388843
0.00280614
0.00301022
0.00127952
0.000653068
0.00175549
0.00247105
0.00267957
0.00264429
0.00252616
0.00242005
0.00238471
0.00259075
0.00291618
0.00319988
0.00339094
0.00387717
0.00442485
0.00495383
0.00529993
0.00585649
0.00628065
0.00650192
0.00621024
0.00481839
0.00307113
0.00257748
0.00215489
0.00175303
0.00141032
0.000985979
0.000865708
0.00183327
0.000215302
0.00223585
0.00333406
0.0029068
0.00237283
0.00208826
0.00214396
0.002358
0.00263213
0.00294707
0.00305417
0.00298178
0.003054
0.00311758
0.0030961
0.00317272
0.00341872
0.00357496
0.00374165
0.0033091
0.00258844
0.00170826
0.000937278
0.000470566
0.000702504
0.00115692
0.00106505
0.000905034
0.000994739
0.00219428
7.17074e-05
1.27759e-05
2.96946e-05
6.64092e-05
9.11232e-05
9.02748e-05
8.90601e-05
0.000102341
0.000126451
0.000152599
-3.52924e-05
6.37883e-05
0.000111421
6.63706e-05
1.79616e-05
0.000124509
0.000110517
0.000108233
9.35247e-05
9.19401e-05
9.43884e-05
9.69416e-05
7.98524e-05
9.62628e-05
8.68579e-05
7.36617e-05
5.80888e-05
4.22926e-05
3.48137e-05
7.45013e-05
0.000528867
0.00124289
0.000292657
-1.01257e-05
9.62967e-05
0.000103251
0.000181073
9.24971e-05
0.00141738
0.00196538
0.00187622
0.0013454
0.000305241
0.00021718
0.000144946
0.000118615
0.000101741
0.000101966
0.000166693
0.000212979
0.000431233
0.000822643
0.000864378
0.000413828
0.000256585
0.000757343
0.00203381
0.0110882
0.024071
0.0189162
4.16046e-05
5.13947e-06
9.42261e-06
1.25003e-05
4.95128e-05
5.63208e-05
4.63561e-05
3.60541e-05
2.6932e-05
2.04223e-05
1.57376e-05
1.52492e-05
1.37231e-05
1.67205e-05
1.65149e-05
1.73702e-05
1.0344e-05
2.18031e-05
2.87287e-05
3.30304e-05
3.5136e-05
2.67654e-05
1.82689e-05
1.47554e-05
2.78131e-05
6.99089e-05
0.000136953
0.000160243
0.000158614
0.000175801
-4.49222e-05
0.000115271
0.000112591
0.000121007
0.000112094
0.00029764
0.000440736
0.000806521
0.00164505
0.00206161
0.00229642
0.00239372
0.00219926
0.001876
0.00124658
0.000451893
0.000301359
0.000219316
0.000174071
0.000206229
0.000285465
0.000333319
0.000128736
1.02994e-05
2.15474e-06
1.44105e-05
4.91774e-05
5.4041e-05
3.69177e-05
1.1248e-05
4.85934e-05
5.79081e-05
5.61353e-05
4.68033e-05
6.64903e-05
8.74323e-05
0.00029151
0.00120257
0.0021644
0.00264486
0.00396963
0.00463096
0.00467847
0.00453824
0.00422401
0.00327101
0.00247727
0.00183758
0.000951167
6.29455e-05
0.000267109
0.000267531
0.000330752
0.00016367
5.15107e-05
1.03144e-05
9.08829e-06
6.63031e-06
1.18062e-05
1.14963e-05
-1.16935e-06
1.90124e-05
2.80724e-05
3.18339e-05
3.4598e-05
3.6489e-05
4.51199e-05
2.93378e-05
0.000115273
0.000176179
0.000236578
0.000644963
0.000710105
0.000793127
0.000440321
0.000206157
0.000157711
8.88789e-05
2.22478e-05
3.73432e-05
2.99136e-05
2.60314e-05
3.20926e-06
1.20313e-05
6.05497e-06
4.36861e-06
4.04651e-06
3.98975e-06
3.11085e-06
1.06311e-05
9.75673e-06
8.98653e-06
5.39022e-06
4.17571e-06
7.61934e-06
9.64984e-06
1.67184e-05
2.25813e-05
2.62872e-05
3.12916e-05
3.36763e-05
-7.49268e-07
7.54906e-05
0.000120475
0.000153128
0.000140905
5.7656e-05
1.79167e-05
8.79838e-06
8.71065e-06
1.12646e-05
1.34724e-05
0.000172213
0.000153145
-1.09607e-05
1.39074e-05
1.3085e-05
1.23355e-05
1.1875e-05
4.52306e-05
3.04457e-06
8.17205e-07
2.15282e-05
0.000173736
1.61853e-06
1.75894e-07
4.30179e-07
2.56253e-07
4.59021e-07
5.00174e-07
3.09413e-07
4.19358e-07
5.25424e-07
4.05358e-07
2.32867e-07
4.54124e-07
3.9135e-07
2.90973e-07
1.47091e-07
1.17673e-07
5.71348e-08
4.58199e-08
1.2656e-07
6.82293e-07
3.38297e-06
8.09819e-06
7.19577e-06
3.84179e-06
5.48231e-05
0.0635774
0.0217808
0.00870715
0.00539138
0.00613989
0.00744013
0.0099508
0.0121659
0.0139947
0.012938
0.00855293
0.00620937
0.00767585
0.00781217
0.00542762
0.0384599
0.0212438
0.0127361
0.0128479
0.0164412
0.0214408
0.0260755
0.0304952
0.0335318
0.0354545
0.0358513
0.0342506
0.0317691
0.0285914
0.0270599
0.0254695
0.0248197
0.0240011
0.0233297
0.0230165
0.0229864
0.0234148
0.0239164
0.0249333
0.0266897
0.0295148
0.032824
0.0358871
0.0392533
0.0455334
0.00265413
0.0150274
0.0203863
0.00977767
0.00347015
0.00464582
0.0087531
0.0100818
0.00958318
0.00905747
0.00896047
0.00913448
0.0098371
0.0105721
0.00989089
0.00837566
0.00673303
0.00589506
0.00594579
0.00704629
0.00873006
0.010259
0.010822
0.0107189
0.0106106
0.0101172
0.00845279
0.00458995
0.00297822
0.00296453
0.00114419
0.000304859
0.00164523
0.00257139
0.00264704
0.00246405
0.00226358
0.00225485
0.00236093
0.00263424
0.00299182
0.00335046
0.00401402
0.00515906
0.00573898
0.00632479
0.0063721
0.00662689
0.00698247
0.00732485
0.00733042
0.00620502
0.00390386
0.002694
0.00222058
0.00189753
0.00133688
0.000794544
0.00050858
0.00177049
0.000588645
0.00313458
0.0021405
0.0011254
0.000856671
0.0010654
0.00152032
0.00210312
0.0026226
0.00295085
0.00295581
0.00294466
0.00300035
0.00298437
0.00296807
0.00289432
0.00316942
0.0033356
0.0038
0.00373474
0.00342005
0.00247862
0.00158962
0.000744931
0.000368038
0.000205891
2.95637e-06
6.58642e-05
0.000505541
0.0018817
5.53953e-05
1.92742e-05
6.08786e-05
9.62248e-05
9.8924e-05
9.96242e-05
9.47136e-05
0.000112954
2.15558e-05
1.25137e-05
0.000109996
0.000130396
0.000140725
0.000109549
1.60759e-05
0.000109259
0.000102822
9.4295e-05
9.97511e-05
8.58654e-05
9.18432e-05
9.28939e-05
9.12414e-05
0.000100284
0.000101223
8.77474e-05
7.4491e-05
4.95322e-05
3.57491e-05
7.63403e-05
0.000556712
0.000378605
4.34159e-05
-5.8254e-06
2.2054e-05
9.95129e-05
8.15293e-05
0.00197197
0.00310226
0.0023111
0.00115854
0.000246732
0.000111921
2.71882e-05
6.76506e-05
6.54809e-05
6.0212e-05
5.78691e-05
5.95071e-05
2.84182e-05
0.00016672
6.13637e-05
0.000642221
0.00060132
0.000276215
0.000119707
0.00111096
0.00643412
0.0230666
0.0197562
2.20176e-05
7.20686e-06
2.52913e-05
4.16968e-05
5.87873e-05
4.69029e-05
4.33061e-05
3.00316e-05
2.62133e-05
1.10372e-05
9.22402e-06
1.71326e-05
1.64714e-05
1.51523e-05
1.38282e-05
1.3669e-05
1.25938e-05
1.63122e-05
1.96917e-05
2.27383e-05
3.34752e-05
4.17504e-05
2.15447e-05
1.6105e-05
2.18607e-05
4.41893e-05
2.91772e-05
0.000113386
0.000132392
0.000155703
0.000108861
0.000101227
0.000114415
9.46316e-05
0.000317468
0.000236704
0.00160699
0.00249823
0.00323827
0.00382298
0.00481845
0.00515035
0.00512105
0.00453217
0.00317793
0.00251033
0.00139557
0.000102678
0.000251597
0.000222029
0.000255552
0.000322321
0.000280672
2.59394e-05
6.99731e-06
2.20196e-05
2.04365e-05
3.36675e-05
5.34409e-05
2.26623e-05
4.9238e-05
5.10075e-05
4.07153e-05
5.07515e-05
2.31425e-05
0.000236092
0.00132921
0.00219341
0.00407438
0.00439728
0.00533606
0.00521604
0.00537155
0.00537176
0.00536906
0.00522875
0.00435063
0.0028082
0.0020316
0.00098453
-5.2712e-05
0.000276672
0.000317196
0.00025229
7.9817e-05
2.57441e-05
9.63437e-06
1.1116e-05
1.95893e-05
-6.42106e-07
3.06555e-06
2.71205e-05
3.57118e-05
3.02578e-05
3.21678e-05
4.11915e-05
3.16428e-05
0.000159464
0.000717953
0.00183503
0.00338635
0.005771
0.00681239
0.00602303
0.00435091
0.00233335
0.00135915
0.000131814
0.00013957
3.31289e-05
3.73371e-05
3.19136e-05
1.92898e-05
1.33832e-05
8.28044e-06
3.17959e-06
4.87381e-06
3.95603e-06
4.37674e-06
8.30806e-06
2.33618e-06
7.96796e-06
4.66975e-06
7.27224e-06
2.53477e-07
1.59779e-05
2.25922e-05
1.62725e-05
1.79181e-05
1.7812e-05
2.47801e-05
2.82414e-05
3.41767e-05
4.60565e-05
0.000154903
0.000265793
0.000169009
1.23663e-05
7.89529e-06
9.83938e-06
2.53659e-05
-0.00014108
0.00418205
0.00378821
-1.07478e-06
4.29014e-05
1.14756e-05
1.35447e-05
1.33563e-05
4.18297e-05
1.30698e-06
4.60335e-07
8.704e-06
9.03341e-06
6.48259e-07
4.33489e-07
2.66975e-07
2.05494e-07
4.21374e-07
8.98829e-07
1.21225e-06
1.08841e-06
1.28518e-06
1.04498e-06
1.2095e-06
7.21512e-07
4.74781e-07
3.95742e-07
2.79663e-07
9.92855e-08
8.61525e-08
4.01169e-08
1.37522e-07
1.73268e-06
1.00688e-05
9.98363e-06
8.32145e-06
4.89211e-06
0.000168025
0.0685083
0.0204141
0.00836565
0.00692394
0.0079366
0.00989404
0.0115301
0.0141678
0.0168736
0.0166569
0.0114125
0.00709506
0.0074082
0.00794614
0.00572669
0.036606
0.0179831
0.0096721
0.00935341
0.0132499
0.0186442
0.025097
0.0312361
0.034879
0.0364004
0.0354721
0.0322785
0.0286865
0.0257503
0.0241768
0.0228816
0.0219979
0.0211057
0.0203102
0.0199397
0.0199293
0.0206316
0.0216419
0.0232461
0.0256529
0.0289029
0.0327151
0.0358563
0.0391556
0.0456761
0.00267482
0.0146053
0.0168759
0.00449195
0.00192696
0.00317357
0.00846873
0.00998513
0.009381
0.00855992
0.00795842
0.00795093
0.0090785
0.0098584
0.00951333
0.0077254
0.00588223
0.00468787
0.0049488
0.00602025
0.00790145
0.00937636
0.0102425
0.0102433
0.00997033
0.00978179
0.00869889
0.00560043
0.00327278
0.00304637
0.000995314
0.000589989
0.00173882
0.00264645
0.00254971
0.00226342
0.00215982
0.00222854
0.00233075
0.00255215
0.00297112
0.00345603
0.00517262
0.00667462
0.0076007
0.0080872
0.0078497
0.00771531
0.00771384
0.00787191
0.00788116
0.0068069
0.00439734
0.00274658
0.00226073
0.00191716
0.00135521
0.000756003
0.000450828
0.00180371
0.00211424
0.00241546
0.000371629
0.000388838
0.000396516
0.000556633
0.00142737
0.00228517
0.00280203
0.00297409
0.00299622
0.00299475
0.00304812
0.00293685
0.00297511
0.00296353
0.00294907
0.00316391
0.00361657
0.0038099
0.00388031
0.00314053
0.00223438
0.0013396
0.000492458
-2.89948e-05
0.000362417
0.00039127
0.00028865
0.00180408
5.12284e-05
3.22681e-05
7.72477e-05
0.000104418
-3.80117e-05
1.39778e-05
9.68994e-05
-1.01252e-05
2.8958e-05
0.000132111
0.000158483
0.000106051
0.000104224
2.60533e-05
0.00010385
0.000102396
0.000100985
9.84707e-05
9.08205e-05
7.85098e-05
8.41188e-05
7.95847e-05
8.94598e-05
9.41157e-05
9.02072e-05
9.30435e-05
8.53901e-05
5.95906e-05
4.30676e-05
7.2325e-05
0.000418896
0.000202926
8.18614e-05
1.21347e-05
7.60051e-05
0.000211842
0.0018826
0.00415346
0.00378856
0.00156438
0.000258781
8.37438e-05
7.81897e-05
7.61191e-05
7.83773e-05
7.88879e-05
7.41206e-05
6.79056e-05
5.57724e-05
6.15662e-05
5.15019e-05
0.000209301
0.000385424
0.000584417
0.000192336
7.43525e-05
0.000575688
0.004386
0.0231878
0.0195014
1.32788e-05
8.13653e-06
3.05887e-05
4.96993e-05
5.66493e-05
5.11284e-05
3.77842e-05
2.90032e-05
2.51977e-05
1.50281e-05
8.53608e-06
1.75385e-05
1.58523e-05
1.49098e-05
1.44362e-05
1.29807e-05
1.20625e-05
1.16924e-05
1.43144e-05
1.98247e-05
3.07583e-05
3.97682e-05
3.01158e-05
1.47933e-05
1.09893e-05
2.63264e-05
6.18815e-05
-7.52965e-06
8.69736e-05
0.000169857
8.79927e-05
8.97489e-05
1.45483e-05
0.000240272
0.000419195
0.00126435
0.00263482
0.00340709
0.00513754
0.00606633
0.00686635
0.00741511
0.00729671
0.00720031
0.00649345
0.00496751
0.00281569
0.00145478
0.000349454
0.000255551
0.000242834
0.000310126
0.000314952
6.33739e-05
1.1263e-05
1.57261e-05
2.11793e-05
1.83104e-05
4.62321e-05
7.28243e-06
5.2834e-05
5.49606e-05
4.01501e-05
5.58836e-05
7.48036e-05
-4.41257e-05
0.00205496
0.00265019
0.00435032
0.00435162
0.00452758
0.00453243
0.00447434
0.00465444
0.00495864
0.00540596
0.00544492
0.00451451
0.00276217
0.00189797
0.000696477
0.000285355
0.000296251
0.000306315
7.72968e-05
5.70711e-05
2.9393e-05
2.70788e-05
2.77158e-05
1.88596e-06
1.40478e-05
2.60061e-05
3.56797e-05
3.38395e-05
3.13054e-05
4.57991e-05
0.000146239
0.000845236
0.00315056
0.00825044
0.0135596
0.01648
0.0176412
0.0173546
0.0144849
0.0104773
0.00515105
0.00189998
0.000273845
0.000109109
9.84762e-06
3.75345e-05
2.9702e-05
1.50603e-05
8.77331e-06
6.6595e-06
5.1641e-06
3.91949e-06
3.95411e-06
3.73446e-06
1.68026e-06
5.99416e-06
5.87707e-06
9.84083e-06
7.58607e-06
1.80369e-05
1.59612e-05
6.95917e-06
4.76716e-06
4.08513e-06
1.25634e-05
1.3086e-05
1.88112e-05
2.9521e-05
3.9183e-05
8.41463e-06
0.00064487
0.000111199
1.64815e-05
9.76985e-06
2.52312e-05
0.00042161
0.0083201
0.00673183
0.000830124
-7.16713e-06
2.23888e-05
1.39905e-05
1.26177e-05
4.02281e-05
1.31347e-06
4.93923e-07
2.19102e-06
2.37546e-06
2.75011e-07
4.41219e-07
3.96918e-07
5.32174e-07
1.04492e-06
1.03641e-06
3.31624e-06
4.31751e-06
5.95143e-06
4.98417e-06
3.37686e-06
1.23033e-06
8.17356e-07
4.50582e-07
3.50813e-07
2.12362e-07
1.32023e-07
5.31065e-08
1.2131e-07
1.03851e-06
1.02797e-05
5.27562e-06
8.55505e-06
9.36888e-06
0.00388138
0.0746046
0.0209927
0.00969226
0.00919567
0.010784
0.0113071
0.0128899
0.0158695
0.0186476
0.0183814
0.0134947
0.00842065
0.00789547
0.00820222
0.00616695
0.0347909
0.0137943
0.00665967
0.00670915
0.0108103
0.0164721
0.0238608
0.0317539
0.0356726
0.0367
0.0346191
0.0306618
0.0264827
0.0241239
0.0218393
0.0201605
0.0183881
0.0175399
0.0169324
0.0170487
0.0172088
0.0184649
0.0202781
0.0226122
0.0256877
0.0294504
0.0332879
0.0362456
0.0393618
0.0463694
0.00264224
0.0133301
0.0126945
0.00224772
0.000574199
0.00257844
0.00823632
0.010013
0.00933622
0.00799824
0.00679846
0.00656019
0.00794575
0.00970058
0.00962741
0.00793251
0.00614629
0.00540892
0.00567074
0.00696037
0.00817358
0.00915763
0.00950189
0.00945984
0.00944924
0.00940161
0.00864147
0.00603947
0.00343223
0.00316488
0.000784197
0.000564945
0.00188825
0.00264214
0.00242818
0.00218012
0.00215709
0.00217904
0.00221413
0.00240765
0.00285451
0.00356914
0.00612559
0.00799879
0.00908055
0.00974922
0.00952732
0.00890443
0.008599
0.00848884
0.00812593
0.00669003
0.00402642
0.00263747
0.00221902
0.00195449
0.00143854
0.000689794
0.000675494
0.00197503
0.00248971
0.000757743
0.000326301
0.00027272
0.000334937
0.000635253
0.00171805
0.00247801
0.00290008
0.00299824
0.0031189
0.0031974
0.0032193
0.00316664
0.0031472
0.00311045
0.00311667
0.00320596
0.00350993
0.00377108
0.00403963
0.00355024
0.00280706
0.00187963
0.00100106
0.000237313
0.000380897
0.000371236
0.000216945
0.00177628
5.29075e-05
5.16692e-05
9.40075e-05
0.000108483
-3.06645e-05
2.43579e-05
0.000100947
-2.87546e-05
6.51761e-05
0.000154319
0.000140087
6.2968e-05
3.41302e-05
-2.66368e-05
9.63294e-05
9.64973e-05
9.88199e-05
9.81668e-05
9.32364e-05
7.30492e-05
9.08587e-05
9.32759e-05
8.04467e-05
9.10623e-05
9.47246e-05
0.000103599
8.85725e-05
6.62539e-05
5.26764e-05
7.61864e-05
-9.62325e-05
0.000115883
7.37006e-05
6.85026e-05
2.66275e-05
0.000204896
0.00232893
0.00423764
0.00247143
0.000924655
0.000183767
6.90567e-05
3.25048e-05
7.54836e-05
0.000102141
8.55373e-05
1.37026e-06
7.6747e-05
5.52978e-05
5.45706e-05
6.65782e-05
0.000156219
5.30914e-06
0.000419236
0.00016345
0.000295102
0.000466514
0.00749949
0.025389
0.0174861
1.0808e-05
1.925e-05
4.45302e-05
5.66479e-05
5.8942e-05
5.15119e-05
3.59206e-05
2.59779e-05
2.27099e-05
1.9636e-05
3.64297e-06
1.54596e-05
1.32613e-05
1.1943e-05
1.13646e-05
9.93209e-06
1.0014e-05
9.22761e-06
1.04738e-05
1.66693e-05
1.14039e-05
3.33559e-05
4.24123e-05
2.78202e-05
9.7138e-06
2.10821e-05
5.26417e-05
7.06657e-05
1.3417e-05
0.00017583
6.20538e-05
7.85295e-05
4.0075e-05
0.00029594
0.000237561
0.00185513
0.00312734
0.00438003
0.00659121
0.00756344
0.00872812
0.00988764
0.00885884
0.00874442
0.00828077
0.00728856
0.00487048
0.00241031
0.000788592
0.000298561
0.000240526
0.000322576
4.84489e-05
5.49014e-05
1.46838e-05
1.09515e-05
1.49272e-05
1.21978e-05
3.64844e-05
1.63503e-05
5.97528e-05
5.92476e-05
6.31981e-05
6.06988e-05
8.59458e-05
0.000416481
0.00217805
0.00267214
0.00378947
0.00412424
0.00438174
0.00443074
0.00416942
0.00421877
0.00455534
0.00512349
0.00560677
0.00528231
0.00379528
0.00235082
0.00116579
-0.000183511
0.000297383
0.000311254
0.000222732
8.32467e-05
5.84345e-05
5.64242e-05
3.61224e-05
-4.39654e-07
8.54985e-06
2.92512e-05
3.39176e-05
3.09822e-05
3.16509e-05
2.67496e-05
-4.35292e-05
0.00221007
0.0095352
0.0160225
0.0216478
0.0241209
0.0251891
0.0245462
0.0220298
0.0182615
0.0115137
0.00489398
0.00142916
0.000189243
6.39757e-05
-1.48537e-05
3.31054e-05
1.13499e-05
1.04385e-05
8.85297e-06
4.62854e-06
4.19238e-06
3.65158e-06
1.84817e-06
9.16389e-06
6.15478e-06
5.62699e-06
1.3418e-05
1.10277e-05
1.04419e-05
2.04716e-06
2.50505e-05
2.59747e-05
2.59878e-05
2.44481e-05
2.23543e-05
1.94966e-06
2.15353e-05
2.58755e-05