/*--------------------------------*- C++ -*----------------------------------*\
| =========                 |                                                 |
| \\      /  F ield         | OpenFOAM: The Open Source CFD Toolbox           |
|  \\    /   O peration     | Version:  2.1.1                                 |
|   \\  /    A nd           | Web:      www.OpenFOAM.org                      |
|    \\/     M anipulation  |                                                 |
\*---------------------------------------------------------------------------*/
FoamFile
{
    version     2.0;
    format      ascii;
    class       volScalarField;
    location    "0.005550000";
    object      omega;
}
// * * * * * * * * * * * * * * * * * * * * * * * * * * * * * * * * * * * * * //

dimensions      [0 0 -1 0 0 0 0];

internalField   nonuniform List<scalar> 
12384
(
12400.2
24256.7
29109.6
32701.5
35615.6
37580.9
38166.1
36998.9
34430.6
30985.1
26524.9
21163.5
14225.5
7598.15
25763.5
36029.3
42728.4
46977.4
49721.9
51524.9
52519
53180.4
53679.1
54678
56519.6
59764.2
63977.3
69115.3
74799.9
79450.9
84013.1
85712.7
86513.1
85463.9
84339.4
82373.2
79824.3
76124.1
71205.3
63168.7
49438
31124.1
17998.4
15405.5
41898.9
49068.6
55514.9
61254.5
65793.7
70204.7
74528.1
76400.9
76085.8
75588.5
76235.9
79349.4
84664.8
91845.5
99818.6
107065
111360
111859
108754
105421
103954
102547
100513
96912.3
90895.1
81390.6
65646.3
43755.3
26298.4
25890.7
45006.2
58933.3
69220.8
75644.8
79860.4
82183.8
82670.7
83792.7
88015
95943.2
105920
117727
129221
140391
148207
152472
153140
148847
145275
141954
138355
133297
126575
118027
107086
92436.9
77177.1
58957.6
44140.5
44894.7
49079.7
56015.7
62712.2
73069
86438.2
100773
115043
128604
140597
151458
158445
163842
162493
159290
156790
152938
149766
145014
139663
133161
124836
114825
103534
91316.2
78119.8
60632.7
41614.3
31983.2
33223.3
36280.3
28719.9
40192.9
49246.1
55254.1
60330.5
64672
68342.8
70039.4
70026.1
70831.9
73606.4
79815.6
88856.2
100513
113099
125158
135277
140712
140397
130476
123509
120690
119389
117990
115000
109080
98645.8
82223.4
59755.6
44396.2
26269.4
31907.1
38012.8
42303.1
45369.6
48220.1
52098
60520.8
71289.1
84822.6
97740
110932
121813
131051
135859
136339
131888
125920
118489
110209
101301
91489
81239.7
72643.3
67139
64142.8
61086
56487
49007.6
40519.8
29260.7
29435.8
36973.6
47263.2
59573.4
73713
88489
103612
117491
130612
140958
149085
153904
152137
150438
147598
146017
143034
139768
134290
126747
116091
101680
82447.8
63690.6
55770.1
52305.8
48530.5
45686.4
45866.3
37770.1
58331.5
74004.1
89129.2
104151
119396
133483
146410
156721
163567
167800
165138
161292
155981
151307
146880
142576
137121
129981
119514
104688
84391.9
65603.3
56596.4
50794.7
45356
40911.4
37498
33722.2
29876.4
38694.2
46378
65112.2
87160.8
109514
131216
151546
169492
185239
194966
202223
199736
193897
182366
172648
164686
157930
150633
141909
130611
116588
100453
83174.3
71684.5
66108.1
63022.7
61433.7
61553.4
62051.9
61436.3
37811.6
51428.2
77207.6
103600
127588
149748
169278
186697
200981
210670
217260
216431
211218
205444
201189
194244
187034
177637
164263
146024
123382
100560
85373.2
76100.2
68632.9
64922.8
65086.5
68570.5
70357.6
66515.9
24297.6
34106.2
48889.5
58256.1
63377.5
66160.8
67370.5
68523
69678.1
70772.4
70715.9
68355.6
66323.4
64531.8
65530.6
69564.3
75409.5
82707.3
90469.8
97543.5
102661
102730
99113.7
95717.8
92884.4
89262
83042.2
70666.3
46822.9
17140.3
5768.71
9279.4
10339.6
10197.1
12053.7
24071
57608.6
83613.2
98988.7
109005
116374
121920
127489
132056
132859
126802
118377
106356
93139.7
78612.4
63632.2
49403.8
35918.3
23372.3
13792.7
7294.9
3698.16
2228.85
1743.28
1233.17
21439.8
96464.1
121420
143810
167263
189872
208320
218746
219446
208038
186774
156590
118707
23132.5
27241.7
117992
160360
194631
215407
223513
221718
214720
208767
209104
219614
243109
277193
318126
364137
408922
449906
479965
500396
502304
493300
466898
431973
387008
337839
283507
229951
176772
123230
27626.9
45258.3
202335
274789
319757
339343
338551
321872
304916
295630
304757
335790
389265
459433
541770
629932
716876
794543
854411
889331
887311
849573
784411
698705
598143
489132
379491
280649
204313
152836
45938.8
57185.4
249322
293396
311458
307132
294538
293261
312668
361229
428203
509657
604297
708126
815072
917299
1.00698e+06
1.07296e+06
1.10362e+06
1.09671e+06
1.05461e+06
983359
886723
769979
637107
497375
360760
255550
202198
177914
67476.1
48483.2
163228
255650
365166
479391
594897
712263
831824
952062
1.0701e+06
1.18271e+06
1.28472e+06
1.36976e+06
1.42932e+06
1.45044e+06
1.42639e+06
1.37809e+06
1.28543e+06
1.16863e+06
1.02352e+06
855336
665122
478786
329903
240672
203768
182096
163053
146077
49723.5
46187.9
185170
226681
250663
263302
262386
253654
245674
246529
266520
306814
366898
441773
529162
625311
726513
828537
924966
1.00763e+06
1.06853e+06
1.08531e+06
1.05801e+06
991753
896458
777687
642490
498527
362075
246726
68101.4
32817.2
109598
132788
145471
156317
185355
247825
336645
433464
533946
634748
735089
830834
919119
994675
1.04967e+06
1.07507e+06
1.06578e+06
1.02515e+06
956210
862286
746921
612845
469972
343070
260044
217109
190408
164335
57827.8
44632.6
111584
149563
216272
303294
400571
504095
612784
724223
835449
940978
1.03471e+06
1.11155e+06
1.1683e+06
1.19853e+06
1.19267e+06
1.1642e+06
1.10845e+06
1.03691e+06
945026
839862
718604
582130
439100
308881
208195
162071
148856
140700
54833.6
59580.5
255769
342411
431591
530872
639845
753499
868252
977320
1.07678e+06
1.15859e+06
1.21962e+06
1.25161e+06
1.24638e+06
1.21483e+06
1.15719e+06
1.07845e+06
979361
868423
742707
604507
453736
303071
193140
180978
189868
186093
173909
149645
44092.1
52489.1
204024
311942
428498
554983
692073
838689
993336
1.15008e+06
1.3034e+06
1.43983e+06
1.5526e+06
1.62532e+06
1.65342e+06
1.6301e+06
1.56283e+06
1.46092e+06
1.32582e+06
1.16369e+06
976164
761763
537109
342591
221754
204339
216705
221146
217068
204827
67009.9
51183.1
234253
382722
526082
668814
815141
965405
1.11828e+06
1.26679e+06
1.40643e+06
1.52853e+06
1.62577e+06
1.68424e+06
1.68604e+06
1.64911e+06
1.56179e+06
1.4455e+06
1.30118e+06
1.13605e+06
949373
737631
510251
304132
237217
265001
287860
291350
281548
260044
74948.7
41619.1
121022
179356
237599
290951
337716
370323
389146
392232
380252
356722
324416
294843
270968
266494
285492
324700
380618
448497
524652
601554
670013
716380
718965
679720
608909
510177
387674
256875
53045.8
12788.3
66994.1
80161.4
92336.1
146592
283678
444618
590162
715382
813034
887404
928597
936907
904116
842713
759197
662712
560027
457274
359531
272692
203980
152184
121524
104237
90523.3
77827.1
63384.5
47543.4
1489
28581.5
121472
145113
164170
181702
196944
209304
218591
222395
219087
208150
188753
159545
30554.7
31764.7
150866
187376
211630
223589
228377
230709
234941
244895
261536
284787
312438
340349
366117
390492
414286
436110
457009
471653
479541
476855
465070
444230
415189
378006
332820
281967
226201
167846
39663.2
49073.5
259169
310490
325375
321692
311930
305920
311426
331022
367705
415299
468202
521980
574606
626625
677335
725370
768910
803587
819636
810314
778900
728192
660123
575226
475870
371308
274625
199837
60198.8
63676
298932
306436
299931
299207
318060
358846
414428
478142
535861
586694
637841
692197
752786
818516
884487
943697
986956
1.00747e+06
1.0035e+06
977596
932761
866737
772878
649674
505163
361975
256195
212356
79712.9
49914.6
220996
337569
438262
523527
601239
679524
762375
850503
942243
1.03528e+06
1.12432e+06
1.20577e+06
1.27348e+06
1.31782e+06
1.33503e+06
1.3204e+06
1.28426e+06
1.22648e+06
1.148e+06
1.03976e+06
889169
706676
521859
368959
264881
205532
177591
171670
59092.6
57071.4
235219
263526
270904
268151
262264
260139
268283
290362
327378
374064
428692
488918
554210
623149
694525
767650
840500
909353
969967
1.01057e+06
1.01942e+06
997182
946511
868286
761124
628152
480745
336537
82282.5
38365.1
137136
153646
163756
188555
250696
340665
427021
500965
569416
637204
707693
780014
851267
917321
972350
1.00864e+06
1.01967e+06
1.00601e+06
972392
921535
852101
755408
627443
482553
352590
267316
221276
190100
64600.6
54777.2
134661
195177
281266
369529
455647
541189
628637
718563
809698
898223
979885
1.04864e+06
1.10156e+06
1.13555e+06
1.14778e+06
1.13732e+06
1.10814e+06
1.06168e+06
1.0041e+06
935937
852984
745775
614049
469758
332954
224510
163908
156602
59252.7
74886.3
326684
423813
515773
606272
695548
783064
869784
953809
1.03255e+06
1.09964e+06
1.15279e+06
1.18587e+06
1.19612e+06
1.18257e+06
1.14849e+06
1.09719e+06
1.03501e+06
960802
872686
762058
624210
466985
311414
204545
173162
173408
184561
178055
49153.8
59584.7
276877
401320
529272
657579
779688
894937
1.00758e+06
1.12031e+06
1.23344e+06
1.3371e+06
1.42888e+06
1.49728e+06
1.53853e+06
1.54126e+06
1.51172e+06
1.45557e+06
1.37779e+06
1.28037e+06
1.15456e+06
984753
769791
542629
354831
245228
197950
185023
212404
229007
70157.8
59385.3
341096
514813
661269
787529
901750
1.01152e+06
1.12137e+06
1.23208e+06
1.34063e+06
1.43885e+06
1.52075e+06
1.57719e+06
1.60015e+06
1.58557e+06
1.53757e+06
1.46541e+06
1.37741e+06
1.27462e+06
1.14746e+06
976773
756988
513572
325442
265074
248118
249658
281807
301899
79460.7
50958
186779
262955
334752
396914
445174
476352
491885
492556
480547
458147
427943
398270
372484
361161
366334
385696
411219
435056
459728
489030
526572
567906
597991
608181
594633
547777
458902
335129
66583.7
20038.3
85244.1
96415.3
159176
293714
465961
624122
751946
849691
919795
968352
994526
995496
971025
924125
860768
785680
699558
601752
492423
377318
267903
175774
105813
82134.1
77653.6
75383.7
69802.5
60492.1
1595.33
33438.2
143733
166369
181661
191919
197168
199381
203223
208161
212872
214681
209447
194712
36210.3
37700.1
184639
208944
220033
224149
229781
241319
260032
286424
318020
350657
377296
393262
400384
400205
398895
397789
401576
406354
413200
416396
416389
410725
398535
377776
346946
306336
255517
197285
47354.8
53669.1
308670
328234
314241
295633
287735
297929
328170
373207
429067
484515
530574
564977
587545
600982
609178
617408
630751
651603
674211
687347
687987
673387
642421
591377
517494
425248
326293
238957
68522.5
69776.8
342765
314681
293311
306299
358588
435147
517402
591141
643143
669395
680486
682231
687142
701828
728236
765636
804823
837169
859498
871186
873000
859464
816385
730214
601812
449901
316847
241662
86090
53203
278703
395343
477722
535612
581979
626403
672837
724618
782857
848453
918433
989552
1.05627e+06
1.11036e+06
1.1445e+06
1.16087e+06
1.16447e+06
1.1555e+06
1.13568e+06
1.09202e+06
1.00437e+06
866481
693019
516069
369295
270806
213292
193433
64996
66285.9
275413
284614
275480
265654
262946
271535
294764
331931
378973
429881
481582
532545
580394
623391
659756
690669
720285
755352
799775
845661
878544
895236
889355
856350
789788
687137
555545
410455
91463.3
44276.6
162562
170953
184389
233081
322096
413842
480494
526320
564783
604207
648371
698885
752402
805815
854355
892432
911609
913191
903075
883603
853090
798126
702574
568571
424186
312030
247038
210926
68877.8
60738.6
157415
242426
338960
424643
501156
570240
635224
699156
763468
828476
890496
947721
995857
1.02825e+06
1.04358e+06
1.04176e+06
1.02721e+06
1.00271e+06
972992
939274
895034
828357
728947
597496
450803
312494
211006
174818
61613.4
86246.3
386595
495348
591658
673085
739015
793833
844264
894148
944561
992672
1.03583e+06
1.06669e+06
1.08252e+06
1.08034e+06
1.0634e+06
1.03534e+06
999376
958572
909992
840195
736824
597690
438867
288589
187609
164452
191268
198265
51702.4
65105
333344
472283
614139
744995
848531
925987
986238
1.04117e+06
1.09987e+06
1.16316e+06
1.22609e+06
1.27948e+06
1.32104e+06
1.34235e+06
1.34322e+06
1.32689e+06
1.29726e+06
1.25558e+06
1.19288e+06
1.08708e+06
920469
709982
504231
346010
230908
172455
212796
242982
71461.8
67734.1
437872
620297
759158
862895
941751
1.00731e+06
1.0697e+06
1.13647e+06
1.20727e+06
1.27926e+06
1.34519e+06
1.39693e+06
1.42678e+06
1.42669e+06
1.40447e+06
1.36805e+06
1.32289e+06
1.27583e+06
1.21389e+06
1.10888e+06
936710
707043
479851
321109
229685
209931
272747
330499
80930.6
61863
257748
345262
423864
487672
533836
563048
577539
578468
567686
546347
517853
486741
458893
443390
444493
459040
470607
464203
438911
404632
385935
401939
442863
487524
522005
526465
479859
380457
73052.3
26935.4
100971
140186
263182
431867
602631
737266
834544
899778
944033
972508
987023
985519
968260
940788
905948
860444
799504
715878
605814
474410
337820
215103
116861
74551.1
69571.3
71780.2
71661.3
67116.4
1681.75
36321.1
161794
183497
195638
199604
194480
183963
178487
183903
198785
216452
228046
230953
41170.4
43884.7
220009
228818
225215
222114
231540
254718
287595
328008
371837
410302
432898
435670
423660
399979
374101
349460
331650
323512
327319
337863
351368
362174
366891
361920
345345
317001
274086
218998
52045.1
58299.1
360642
348255
306900
274167
268516
294137
345536
410114
479395
540039
581844
602282
603432
586044
554235
516769
485313
476162
495393
530050
563520
585958
591603
573645
526782
452676
360731
270049
73704.5
76408
393125
332347
298891
325967
406046
510541
616020
701918
752241
764477
745893
701235
650097
602899
572671
569315
594672
639867
692171
741362
784415
814153
813971
763213
656026
506249
358194
264398
90249.8
58201.2
321398
434566
507158
551639
580861
602805
619467
634997
652425
675396
706003
746969
799064
856904
911447
957640
998471
1.03262e+06
1.06124e+06
1.07314e+06
1.04603e+06
959858
816780
641235
472047
342940
257822
210841
68017.2
75189.6
315292
302409
277588
263824
266057
284476
318700
365986
420297
476473
530383
578093
615332
638830
643118
626850
596314
572449
579898
626810
689748
749886
791031
803007
777726
710116
603825
472503
96979.5
50733
189302
189835
211792
286309
387369
467320
512489
535936
552640
572949
597924
625208
646920
664991
685062
713240
742801
769345
790416
804583
808364
788659
723250
606149
461989
339046
265294
229025
71916.2
64401.4
181635
285994
389263
476896
550132
607143
650847
686672
716761
746603
776702
809930
844570
876729
900850
914799
918389
915439
909077
902613
891555
862949
798916
689977
546082
391207
262215
194184
63394.7
95719
435985
555850
658262
731549
775258
797058
806571
813985
825658
845757
872790
901677
926086
941894
947387
942283
932935
921254
906915
875769
809435
696024
547183
386781
243972
174080
200252
211351
53238
72003.8
376791
531245
688253
821974
907024
945546
948824
940448
935805
945801
971774
1.0111e+06
1.05579e+06
1.09377e+06
1.12689e+06
1.15111e+06
1.16813e+06
1.177e+06
1.16854e+06
1.12176e+06
1.00892e+06
832772
632911
455227
306332
213050
227898
244520
71935.3
81274.4
519021
699360
830136
914367
961781
985945
1.00179e+06
1.02112e+06
1.0472e+06
1.08419e+06
1.12732e+06
1.17104e+06
1.20496e+06
1.22353e+06
1.2308e+06
1.22784e+06
1.22453e+06
1.22606e+06
1.22091e+06
1.17968e+06
1.06379e+06
866251
632582
428080
267122
201684
262936
344879
80471.4
74071.3
329692
423770
504205
565116
607036
633183
646538
648550
639967
621692
596943
564343
531088
506808
503654
518354
528797
513604
460469
373392
285285
256900
303487
379914
454274
498554
485889
410724
74644.1
32854.4
122631
205271
360848
541446
699788
806840
870998
901918
914598
914601
909067
899502
889250
886122
887187
880690
853859
793942
692467
554179
400218
255134
139631
79257
68911.5
71455.2
73479.7
70998.6
1788.66
38037.2
173542
195718
206628
207240
194175
171665
155740
160974
185948
218078
245566
268557
46212.4
50410.9
256535
248302
228662
218397
232546
267548
312402
364396
418078
460360
478075
470162
442824
402252
358321
314713
277491
254771
254198
272614
298741
322654
339050
344563
337854
319199
283960
234131
54656.3
63363.5
413778
371672
305496
258216
251501
288893
356150
435493
515333
582432
625015
640802
632928
600129
543359
470065
391101
333906
328630
377279
440543
495866
531096
538927
514759
459793
379576
293324
76384.9
84352.7
450572
360033
315054
351428
449971
575846
702963
804602
860233
867176
832669
758862
666172
564225
469378
402969
392690
447777
535462
624809
703784
764697
792980
767673
677245
530194
374831
274385
91878.1
66259.8
353179
470573
545915
588576
610537
619146
615971
604666
587177
564743
540557
524372
531040
576149
647176
726497
807523
883540
954111
1.00904e+06
1.03086e+06
991839
884206
723944
548917
402244
297488
226793
69858.1
84378.9
356261
319459
279962
263141
269654
295184
336291
390688
451841
514350
573175
620368
651448
663042
647112
596387
511720
414560
359773
400734
500743
606298
690355
739430
749045
713719
635226
522901
98667.5
57985
219503
213200
247545
341773
445243
511171
540674
550738
556396
567756
578551
580212
560353
523796
484356
477970
518968
585492
653736
708736
745316
752545
710083
608462
470706
348752
277846
245890
73481.6
67414.1
212400
328326
437266
532890
609210
658204
683900
692163
685120
672242
658039
652264
659543
681873
714050
747679
778412
806286
828437
848448
864637
866204
832852
746671
611253
448542
301599
210539
64579.4
104113
472748
605211
716801
785653
811384
803150
772662
734733
699382
679454
678373
699917
736079
773922
807685
833492
852218
868206
882797
884358
851177
764511
629793
466799
303485
203923
214898
214486
54390.8
83829.5
408528
580534
752077
888908
958438
965490
920594
856863
790929
739238
710197
718093
759640
820525
889598
957502
1.0205e+06
1.07431e+06
1.1122e+06
1.11456e+06
1.04812e+06
908619
723898
541198
376424
269627
254904
243673
72042.7
101670
580867
758314
887347
958506
981343
972120
947946
920122
893477
877798
877462
901438
941443
983826
1.02683e+06
1.06597e+06
1.10776e+06
1.15372e+06
1.19732e+06
1.21078e+06
1.14642e+06
984193
756738
529219
332579
224470
257233
344231
78945.5
86094.6
400234
495876
572832
625830
658471
676088
683526
684972
681243
673652
660501
633190
593234
552893
538537
551868
566739
556487
500632
401092
275413
195027
229545
321726
417760
482208
486806
426027
70453.2
37834.9
148620
263704
439083
623140
764170
843269
873827
867310
841412
804686
769944
747346
747901
775200
816690
853282
865035
835383
750282
612298
448101
288397
161953
87474.7
71146.8
72777.3
74751.3
71543.3
1960.92
38827.1
179271
202428
214468
215003
198429
168830
145307
150275
181866
222730
262473
306852
51922.1
58402.1
294112
266875
230534
212718
231351
275887
329938
391594
454024
499691
515145
501271
467564
422311
373812
324602
279554
248474
244314
264722
292377
316064
331252
336459
330957
315474
284900
241602
56052.5
68964.6
465545
395851
308435
247047
235447
278705
355842
445220
534974
610973
659984
678284
670773
635866
577106
496278
399004
305415
260460
294490
366677
435075
482930
502302
491117
450076
381894
305892
76146.2
94461
514830
397304
341277
378639
483287
622778
769140
889690
958014
969875
931139
847585
738367
611044
473467
345418
272052
320211
442156
562869
662779
738583
777110
761679
675482
525646
368836
273802
91297.1
78387.6
391007
519311
601735
645482
663185
663151
649830
626569
592634
544798
480967
406220
335038
321370
393563
503733
622221
733778
837793
923126
977840
971802
897768
758229
589219
437206
322966
239275
71101.7
94180.4
398017
335912
283434
263489
271997
301490
346458
405738
473535
543085
606437
653251
679570
685256
662874
602477
500400
365688
247526
263543
386857
516402
622790
693021
722267
708634
653873
556855
94664.7
66918.6
252091
239474
289195
395914
494788
552873
575697
580562
583109
590754
593792
579939
532432
453300
346692
265935
321641
438262
549646
637134
695613
716531
684386
590088
457968
345484
285981
258310
72250
71175
250052
375920
493579
597154
677493
723511
737576
723690
685634
633394
571589
512865
469617
459898
495255
558671
627596
691489
743858
789901
828258
852908
841980
774150
646177
478409
320943
218649
65355.4
112748
501844
648571
771315
839306
853515
823389
761933
685807
603394
530246
479713
475845
521862
592615
664555
725356
773198
814207
851516
878141
870520
806417
683977
521054
347398
237768
230858
214257
56852.9
101240
440351
623542
803581
945051
1.00668e+06
995053
918082
817285
703597
588786
486401
438626
472892
563829
673980
782606
885189
974641
1.04644e+06
1.08305e+06
1.04959e+06
941056
771692
588677
416698
307925
274595
239550
72906
125836
626785
803691
936653
1.00196e+06
1.00957e+06
978929
926540
859340
777403
695158
624634
595199
631289
713390
812805
905977
995232
1.08001e+06
1.16185e+06
1.21696e+06
1.19227e+06
1.06033e+06
841985
603379
388574
258031
258554
331371
77755.7
96723
466206
560127
629010
668528
683386
680768
671341
665793
668279
682254
695708
687576
647339
586007
549425
556866
576329
576797
534585
451524
342346
254820
251338
325315
414930
476253
481396
418990
63659.9
41838.7
170273
306203
494565
677674
801929
855984
855621
814009
747735
667095
593513
551955
567858
635112
720958
798240
845312
846070
781425
648419
478902
310302
177304
95947.6
73913.8
74483.9
75449.1
70338.5
2915.14
38819.4
177425
203798
219406
222292
205051
173589
148558
152900
185642
229114
278301
348038
58487
66063.2
329999
281835
228385
202998
225128
276227
336320
406514
477645
528223
545307
533587
506443
471138
435477
399096
367128
342341
335957
342288
351065
354610
352374
343874
329198
308243
278490
242043
58814.7
74443.6
515721
418191
310861
236046
217974
262469
343323
438398
536834
622647
682039
708888
707108
681236
636025
572225
492635
408647
347701
337629
375200
422270
458619
474129
466144
431828
372727
310214
74960.3
105013
585693
430329
353028
383375
490484
640414
805260
947937
1.03552e+06
1.06192e+06
1.03108e+06
954797
850871
727414
592094
459521
366077
371900
474970
589201
683205
750767
778889
751951
654057
497178
348059
270680
89696.5
104441
471096
595663
676876
717406
729053
721775
704528
681477
648742
601634
534925
452325
356961
278022
290153
382169
500617
621056
736961
835888
907352
918318
866574
746846
591446
445840
331069
243974
72110.8
105214
441727
349708
283505
259483
269495
301467
348395
411181
484942
561017
628031
674713
697746
701064
681760
632458
551414
448655
354740
332829
404677
508595
603980
672237
705409
701154
659627
564416
89162.9
77005.1
286312
264197
330037
443466
540138
596201
618003
622156
624747
632735
637889
624784
577773
499814
397270
317283
340146
436683
540889
626156
681237
696447
659246
563447
438073
341651
293311
264107
70430.2
81919.1
312343
437558
558184
668272
753639
799046
808231
783068
729555
654632
561441
460983
361691
288754
296198
384992
499409
598506
677302
743025
797174
835905
836705
779210
653407
481400
321752
222545
68851.8
124210
536268
691914
820574
890403
901638
861399
784582
690263
579613
463472
353590
286498
327101
439853
553229
644625
715003
773266
825721
867032
874944
826654
712533
546533
364640
251472
230905
218884
68950.9
122408
482593
663789
843435
985150
1.04695e+06
1.02901e+06
941399
829783
700260
557622
403263
276658
280596
402161
539467
670053
792948
900039
989544
1.04139e+06
1.02507e+06
934839
776355
593503
420489
314405
273202
235935
81125
149795
661188
836383
974548
1.04203e+06
1.04649e+06
1.00754e+06
942334
854665
738208
604766
464341
342490
341200
478177
640449
783482
911481
1.0232e+06
1.12984e+06
1.20873e+06
1.20669e+06
1.09488e+06
882821
640093
420087
284019
267889
316071
80486.4
105325
524593
616567
675369
695589
681105
640549
595490
573588
589454
639901
694985
720150
690513
609826
540013
534416
556638
568111
545296
489478
414120
348713
328070
366993
429505
471267
463970
389928
55300.1
44193.6
179935
328622
525720
707597
818643
853283
829637
760922
660427
536947
411745
338676
389473
509405
635064
742363
813693
836387
789785
663751
492226
319555
183960
102393
75292.7
75556.4
76868
71390.7
7474.7
38128.9
169799
200069
221276
228014
212651
186027
169618
179817
212912
256896
314029
406326
410145
90654.8
86299.5
330067
375819
311651
232127
193420
215472
267256
329589
405859
486258
545178
569903
569442
558773
544983
532569
520285
509712
495211
481395
463630
443349
417503
388797
357592
325726
294548
265677
245917
216834
75117
88693.7
439484
555388
434178
311358
226546
201731
241499
319037
414887
519021
614797
686578
725188
732242
718321
692625
655531
607215
552383
500691
464774
453693
458270
463505
459227
439560
400447
345952
307092
276578
89982.7
132044
628412
651063
466653
365916
377123
472819
621987
799026
965148
1.08016e+06
1.12955e+06
1.11833e+06
1.06373e+06
984125
889566
786536
691595
620829
604981
646891
709961
767126
802357
799136
742290
625317
477418
381086
383351
374469
139969
167139
659936
669606
713504
767491
797449
801930
788685
771209
754292
732810
701488
654955
595366
525754
460021
425216
443355
504010
586752
680890
769542
836692
850123
807758
702500
563481
431962
327939
255475
222240
91728
131972
488869
481643
366571
287662
257474
265754
297007
343027
407513
486012
567634
637476
684817
707962
714013
705628
679188
634529
578117
527341
504001
522931
574657
631914
676126
696515
687644
642754
541624
280760
87748.4
113127
368254
343437
319817
380245
485097
579110
637458
661749
667232
670231
681056
694504
695362
672745
629143
574887
535450
531364
569432
625371
675075
701735
692834
637341
536691
424793
350336
313517
294063
258620
113753
135078
520794
513531
549617
634468
736863
825629
876174
888954
863885
810963
735629
642574
536825
427105
332350
300277
359142
466200
568049
652484
723511
782609
823982
825614
768697
639123
463213
309804
272230
278379
110325
120894
460447
587057
729560
858692
933424
949604
911651
839109
749928
644165
528436
407080
309514
306759
407236
522967
618283
692454
754533
810753
856140
868675
826598
714535
543369
352644
217422
217470
298026
323461
123302
133993
522271
582131
709617
867185
1.00414e+06
1.07141e+06
1.05886e+06
981643
881271
766431
641975
509694
396690
358499
425682
533303
647564
760562
861960
948573
998184
984230
898623
743299
556079
368743
273357
336421
414741
403337
146382
152489
527824
693971
854735
993403
1.06943e+06
1.08294e+06
1.05011e+06
990268
906180
793022
659495
513964
384770
342713
440251
593646
742174
878498
998108
1.1101e+06
1.19196e+06
1.19308e+06
1.08723e+06
875706
634228
423799
304295
289446
316669
308188
80521.4
92599.4
377269
570923
665321
714908
715521
666836
574963
473321
422310
464278
566067
668988
732866
720690
627505
516886
488587
510378
532395
529509
501704
458422
418413
400047
413594
446283
463540
439040
355948
171385
46324.2
47101.8
133924
185714
333258
532176
713533
817834
842658
808400
727662
611150
469295
314808
208771
303688
453616
592856
708413
787510
818896
780895
660319
488879
315797
182144
107028
80587.3
83951.5
88922.7
87149
60685
8166.37
2920.74
36591.1
156062
191033
219452
231143
219714
199769
191530
205325
238022
280914
334663
420033
545539
514915
502976
498049
438763
333413
231846
185063
203618
251368
310999
389377
478646
549821
588025
604331
613973
623430
632303
637669
636573
623914
601292
567336
527424
481818
435180
388496
345450
309265
284564
275946
283846
308436
407803
607096
565108
429519
301804
216728
190592
220768
287442
378144
483488
587468
671688
723701
740086
735219
723041
707653
686897
658205
622835
583467
545088
513689
485582
455454
418070
369920
321017
303723
340895
444001
643087
846725
675492
480017
363633
350909
425506
563994
744324
929465
1.07627e+06
1.15957e+06
1.17977e+06
1.15633e+06
1.11071e+06
1.0544e+06
993582
936183
890331
865340
864114
873913
881923
871724
829569
747974
638546
553660
561417
647579
731713
765197
763198
728136
722936
775819
834920
868203
873103
857677
841665
832781
826468
816495
797098
766406
726431
679447
639025
618288
622341
648870
693588
743228
781062
781507
737147
639780
517027
402741
312820
253665
247621
314910
455509
606112
493679
368888
284939
251348
258832
286792
329372
393498
475972
563256
637589
687374
712692
724472
729638
727628
715700
696252
675235
659001
654137
664111
678997
688344
682566
653920
591935
485793
335687
325587
413674
467884
387510
359919
408419
504834
600371
666688
699190
708150
711044
723452
746750
767579
777542
773219
760872
747296
736848
739210
748194
751908
738153
696445
621079
523077
438222
394581
392090
437456
519763
588913
615314
594118
543012
578154
663269
771392
872803
939186
965787
954240
917564
860945
790457
709675
627875
556448
515507
521001
564669
625241
685373
741677
790271
820724
812709
748821
620268
460259
348467
347321
386508
399872
424185
477180
594571
732928
867132
957973
990674
968690
916744
851124
775636
695674
614532
547483
519020
545352
602012
661544
714759
763947
809793
846450
852351
807664
695601
522955
332464
219938
258616
343158
417011
450365
471876
497735
552795
695741
847531
985777
1.06945e+06
1.07704e+06
1.02519e+06
951335
869317
786110
703842
636109
595930
602800
648612
714873
790591
863225
925341
955281
931565
843647
690009
507520
354689
344685
423730
484491
489491
453555
461937
545012
690222
838867
979281
1.07373e+06
1.10886e+06
1.0967e+06
1.0588e+06
1.00191e+06
923000
829710
727821
642776
596728
620391
699872
801009
908087
1.01014e+06
1.10449e+06
1.16598e+06
1.15054e+06
1.03764e+06
825233
584659
397959
309150
306154
319034
298581
247149
277838
464920
613100
704784
747109
736918
666776
533780
364018
263132
358398
510090
646537
737165
738988
639758
491991
429522
443700
473575
486773
481559
465059
447098
436713
437859
447058
441778
402264
318337
195473
131489
128278
140152
181398
317380
513362
695158
800710
826067
793128
717670
611237
490492
377035
325421
384358
496433
610644
707674
775498
800538
759670
639935
469596
299624
172973
107749
81537.9
84015.3
89348.1
87787.8
72440.6
39724.3
2457.65
34764.1
139436
177513
212233
230253
225732
213252
208812
218510
242990
279258
320976
378430
502343
506463
498255
487630
404285
296623
208494
173871
190337
229609
281935
357461
452910
538005
593343
628372
657796
688344
717104
738233
746797
738526
715147
677272
631527
578536
524203
471097
424397
387055
363824
358216
378022
435015
541775
651212
533801
397063
278804
204709
182144
200549
251438
330316
430741
539186
636033
703170
731067
732251
725418
720110
714176
701494
678253
643162
597660
547940
498070
449045
400230
352685
322745
348619
463181
645308
826686
882179
641967
454770
333704
301174
351104
468737
641562
839302
1.01696e+06
1.13951e+06
1.19855e+06
1.21131e+06
1.20197e+06
1.18378e+06
1.16085e+06
1.13397e+06
1.10366e+06
1.07313e+06
1.04536e+06
1.0166e+06
981740
932309
863535
779863
704038
672750
698968
744981
767373
753662
718769
690864
715994
785966
862165