/*--------------------------------*- C++ -*----------------------------------*\
| =========                 |                                                 |
| \\      /  F ield         | OpenFOAM: The Open Source CFD Toolbox           |
|  \\    /   O peration     | Version:  2.1.1                                 |
|   \\  /    A nd           | Web:      www.OpenFOAM.org                      |
|    \\/     M anipulation  |                                                 |
\*---------------------------------------------------------------------------*/
FoamFile
{
    version     2.0;
    format      ascii;
    class       volScalarField;
    location    "0.005550000";
    object      rhoEu;
}
// * * * * * * * * * * * * * * * * * * * * * * * * * * * * * * * * * * * * * //

dimensions      [1 -1 -2 0 0 0 0];

internalField   nonuniform List<scalar> 
12384
(
418662
390653
367293
361656
354852
363894
362619
374590
373618
383875
391772
422975
535487
486234
284286
231338
217796
229065
233343
221510
215245
198744
208984
187351
208021
175004
205825
159542
190300
145577
169734
129530
146401
111748
119387
91093.3
88632.2
61398
51054.2
21643.2
8860.68
-3420.37
7803.09
11566.6
-29068.2
-17880.2
-2538.96
6040.36
20404.2
19509.8
44253.5
44148.6
68965.3
79805.7
94604.1
105928
114855
121616
126976
131117
134578
136060
135015
130352
125489
119771
110045
97669
84286.9
66271.6
60450.1
66314.7
74739
75408.6
17182.3
62913.2
73185.7
69374.1
60032.3
52464.1
47307.5
44869.3
43329.3
40713.6
35481.6
28851.5
21794.8
12706
6444.58
282.451
730.85
-2289.51
-5897.38
92.0321
-1894.44
1855.94
9051.18
26898
26256.7
-9931.56
-12043.6
-11727.6
-13282.6
-16028.6
-65548
-60858.1
-51619.3
-41042.2
-30126.7
-14127.4
-9189.21
-7365.71
11768.8
13722
4146.83
26363.9
17391.3
18102.2
14613.4
22099.7
6113.8
10710.1
-9780.42
-18188.9
-28855.2
-34786
-24838.6
2659.81
20751.3
18454.6
9485.45
2269.15
1724.46
-167.088
-17785.2
18923.4
19620.7
2654.66
3973.61
-5912.71
1039.62
-590.099
5897.17
17815.2
23191.4
33395.1
42072
50076.6
54952.6
57286.2
58345
57897.3
57516.4
50577.3
52504.2
37942
28237.2
12802.3
-3532.15
-21320.8
-33499
-4112.8
10267.4
-339.358
-48640.6
-62184.2
-100854
-119425
-111831
-87056.8
-68951.9
-62554
-50266.1
-50801.8
-41370.1
-48174.1
-43352.7
-40892.2
-47608.7
-51293.3
-47081.7
-56780.5
-60124.6
-63817.7
-68323.4
-69862.5
-72078.3
-87737.7
-112424
-116009
-110142
-106527
-103958
-102931
-72256.9
-70895.4
-64996.4
-58887.3
-55371.1
-53503.7
-44410
-42364.8
-43583.8
-34302.1
-31607.6
-34732.7
-26137.7
-25260.2
-24883.8
-24877.4
-28693.9
-29391.4
-37419.5
-39563.1
-44868.6
-47165.4
-39397
-33435.6
-14619.4
3708.99
5999.48
3426.57
2878.68
2105.96
4069.38
13131.3
23647.2
31305
36096.6
38982.6
36469.4
41475.1
28706.9
38448.5
10844.4
24241.6
132.437
4287.22
-9613.28
-10548.8
-23301.7
-28337
-40017.7
-37095.1
-35918.3
-37116
-46870.3
-40929.2
-39740.4
-31623.4
-25069.9
-21401.2
-23111.8
-24448.5
29969.3
5526.31
-16639.9
-22818.2
-21705.1
-18251.5
-18683.9
1029.51
-11913.9
14570
595.542
18762.5
11420.3
10982.8
17971.5
7892.21
-489.469
15883.3
-1387.43
-982.767
-4456.61
8216.23
9689.86
-15210.1
-25422.4
-27895.7
-25125.1
-25441.1
-27230
-29099.1
-87625.7
-68641.1
-57043.4
-52770.9
-50250.3
-42914.6
-49543.3
-32974.2
-42452.5
-25757.9
-33077.8
-20366.4
-32410.3
-25234
-37705.3
-28405.8
-38506.6
-37475.5
-45634.2
-51932
-47656.5
-46164.1
-52264.4
-57317.1
-62941.6
-67487
-66748.6
-67774.8
-68249.1
-70204.5
-154949
-145881
-130479
-135985
-126700
-105798
-97411.6
-105562
-104321
-109237
-112757
-116224
-110877
-117055
-107296
-104640
-98958.7
-93238.2
-84415.9
-77345
-66326.3
-61251.8
-46381.7
-49386.3
-39634.3
-39766.4
-34358.2
-34247.2
-51552.6
-108668
-144702
-140604
-139839
-147190
-147689
-194501
-2547.01
12358.4
3749.87
4682.61
7636.77
7042.3
6307.6
8396.86
4909.17
2873.16
-297.446
-2445.52
-4292.65
-4570.38
-3954.72
-4080.87
-4020.89
-7707.11
-13652.9
-33754
-57290
-80400.2
-151914
-131054
310368
310229
316273
337519
359656
383812
395343
405507
398031
392325
383617
395798
484585
501334
264090
228813
246171
263232
259812
239925
235733
220474
238216
225584
247862
226330
241500
210872
224439
198504
207908
182224
191236
165284
168557
141629
130704
98728.5
77983.7
41560.1
21931.9
169.819
2409.86
11148
-28227.8
-17071.8
-857.994
8960.58
20471.1
29899.4
50085.5
61923.7
91216.2
108505
116619
122962
124991
125506
126295
127536
128278
128098
130466
130325
130604
127269
123514
114365
100566
80678.5
63052.6
59467.8
64405.6
73222.5
23114.9
64040
64903.8
45122
29307.9
25714.4
26525.1
28273.9
27939.2
26108.6
21787.4
16435.9
9426.39
1228.5
-7102.74
-8800.69
-17696.6
-13756.8
-14970.2
-10062.6
-7225.15
-907.677
6755.25
21192.5
32049.6
12734
-16166
-22231.5
-21623.1
-23750.2
-64922.7
-53201.8
-26178.1
437.655
21295.2
31048.9
34877.6
43337.7
49154.5
40568
46677.7
57114.8
46727.6
53679.3
55347.8
54633
55731.6
53454.4
45884.6
26208.1
4671.47
-15327.5
-23028.6
-10451.7
10686.7
8263.74
-4209.73
-6963.95
-7114.6
-6158.81
-5649.74
18756.1
8763.52
-6072.76
-5446.16
-9414.55
-1991.76
5712.99
18918.9
39907.9
60299.7
78097.6
89696.2
97142
100440
100990
101456
101468
102442
101161
100443
96153.4
80621.1
59145
32515.4
3674.19
-16355.9
-17331.7
2214.31
22313.1
-53318.2
-82004.8
-102058
-84267.6
-50740.2
-33099.1
-30146.3
-34196.8
-37888
-42446.8
-52643.6
-48470.2
-58710.1
-59703.6
-56523.3
-62843.7
-61844.9
-67166.2
-68371.4
-70500.9
-70010.1
-69783.7
-68109.6
-73650.4
-95548.3
-107953
-112849
-115031
-113988
-105160
-47194.2
-36610.5
-33110.2
-29022.6
-23007
-22154.9
-19376.3
-11242.9
-12967.7
-15959.9
-7636.58
-9079.3
-6445.17
-5053.6
-3228.37
-4987.38
-7944.52
-9431.71
-15180
-20710.5
-28250.5
-31859.9
-33812.1
-33578.9
-23119
-13325.5
-24647.3
-24829.4
-20773.4
-15952.6
31557.9
41747.4
52760.3
60440.9
63013.8
62439.8
58004.4
57161.7
47830.4
45553.4
36362.8
33730.1
20659.4
15656.3
8941.17
-412.244
-6257.3
-12439.5
-25276.4
-27515.6
-31784.3
-31100.6
-38337.6
-36722.5
-23136.3
-5571.17
-1052.39
2308.87
-5849.26
-14344.1
-340.125
-28932.7
-35669.5
-30954.2
-19736.1
-12260.9
-9130.43
-70.7097
-1440.15
6785.98
7615.39
13090.5
16707.9
17602.3
8052.17
19225.9
11859.7
5475.13
14662.5
3788.52
2103.05
7172.17
14222.5
-1883.97
-26399.2
-25047.3
-16879.1
-13647.5
-16390.3
-21747.9
-65125.1
-48746.5
-45713.5
-44594.7
-42655.3
-43409.3
-41346.2
-24828.4
-38771.3
-26364.2
-22585.6
-27384.5
-23010.6
-26438.9
-27572.8
-30857.2
-33231.5
-36721.2
-42415.8
-48074.4
-46924.2
-43194.4
-46765.6
-58449.9
-66736.2
-71937
-71929.2
-73971.2
-74649.5
-75517.3
-142641
-134965
-127118
-113623
-97952.6
-95647.4
-98153.7
-109026
-117128
-119956
-124665
-126716
-127480
-124675
-120172
-113777
-106978
-97098.4
-89680.6
-80052.1
-73736.4
-62008
-55135.4
-47542.1
-40450.2
-35481.6
-32495
-30736.6
-37845.4
-86233.2
-138026
-147216
-135352
-138608
-173467
-81675.4
11529.1
13623.3
13445.5
12604.7
22251.8
20406.5
24231.6
21505.9
20420.4
12635.7
7594.31
2878.9
1608.24
1561.8
3789.72
4171.82
3960.19
-1259.24
-12173.2
-37794.4
-61734.6
-81546
-144282
-138127
298999
317584
355762
402620
421278
441990
447007
462783
456200
450242
411884
394304
442320
504906
246649
232897
268911
275480
261378
247082
244718
236854
251866
243885
258796
234288
242335
210821
228790
195652
212245
186318
194695
175893
182865
164399
164326
135305
111986
71711.7
40530.5
11280.3
1635.58
7657.49
-31519
-14891.6
-3129.16
3998.68
16725.6
21305.8
53360.3
68455.6
97710.3
110268
111280
104782
102878
103186
103308
103776
103120
103545
102525
104118
109509
114166
116538
116417
110106
93825.1
72857
58080.7
59936.3
66417.2
25868.1
64097.9
52304.7
30501
21570.4
21870.1
25125.9
26509
26052
24132.5
19973.4
16183.4
6282
127.407
-9378.93
-8169.21
-21127.4
-14578.6
-18576.5
-15050
-12781.2
-9247.41
-1708.35
11030.2
26346.6
23989.7
3203.98
-15662.4
-17958.8
-23420.2
-58658.1
-20605.5
17477.3
35732.1
39439.5
33372.5
36735
41416.6
27641.4
31717.3
43015.1
32993.8
31925.3
47094.1
51190.8
48593.8
61124
54409.3
66667
54173.8
37792.6
11612.6
-10453.4
-16469.8
-6266.21
-4244.65
-6782.07
-8620.03
-7236.38
-8725.99
5419.95
18200.9
3247.51
-5579.78
-1086.91
-499.819
10390.7
17339.1
41097.6
64924.8
83388.5
93023.3
92158.7
86635.2
82582.2
82014.3
85555
90294.6
97613.6
102632
108028
107706
107205
91038.9
64746.8
37224.8
1754.99
-13326.4
-1434.46
21919.1
-62281.8
-88782.4
-78835.7
-34956.3
-22107
-26498.8
-33581.5
-42862.6
-60529.8
-63793.6
-76355
-68120.3
-75344.6
-68193.5
-65877.8
-64931.5
-65231.6
-66448.1
-70201.1
-69606.1
-72297.8
-69496.7
-68735.3
-68159.4
-76315.8
-90949.8
-104464
-109903
-111705
-108568
-36148.1
-28984.1
-25159.7
-18188.7
-8932.07
-5552.08
-9178.75
-7284.14
-7092.35
-14322.8
-9913.17
-14076.9
-11320.2
-8468
-7693.45
-4186.81
-8111.98
-4077.73
-9805.5
-10693.7
-11963.7
-19982.7
-28248.5
-28029.7
-23003
-25020.6
-30561.1
-34037.3
-31199.3
-17638.4
44090.7
58384.2
69492.6
70766.1
65853.7
59512.2
52590.5
50607.5
38070.1
42023.6
28005.2
24452.4
17944.2
14813.2
7637.26
879.275
-1612.82
-9418.91
-13622.6
-22559.9
-29836.3
-24817.7
-35542.4
-32083.6
-17376.6
2850.38
11886.6
12934.7
10781.2
-3789.82
-28581.4
-36917.5
-25792.7
-11945
-7037.72
-6268.27
-6523.08
-9399.81
-19447.9
-6839.67
-15393.7
-1843.36
-3399.41
4435.57
5072.28
-2877.84
15203.2
-1837.14
7158.64
8190.57
373.048
4237.54
11556.8
9625.86
-19890.5
-24068.8
-10615
-3681.8
-5699.55
-13281
-41365
-42063.5
-44215
-42077.9
-41357.1
-37938.2
-29677.6
-28484.1
-38589.9
-17104.6
-32838.6
-25750.4
-28699.5
-25570.4
-30390.3
-30872
-33157.3
-36945.2
-41481.6
-47227.2
-48995.2
-44998.7
-43147.1
-54320
-66537.7
-69707.9
-69530.7
-72035.4
-74783.5
-77872.9
-138272
-125007
-107677
-92259.4
-88830.6
-98841.8
-105403
-109596
-119500
-121057
-125785
-131646
-135441
-137362
-134362
-132610
-120132
-110034
-98688.7
-90973.3
-84867.5
-77103.2
-75543.3
-62602.7
-52106.5
-41600.1
-36501.8
-33058.3
-35141.4
-64428
-123335
-103889
-127496
-145762
-124464
-9119.41
18103.4
18185.3
26069
32814.6
41974.9
45542.5
43261.7
44873.6
37980
33208.1
23417.8
13291.3
7050.57
6005.39
8043.03
7768.49
1268.37
-13769.8
-34421.3
-59685.9
-73847
-83595.9
-135053
-138463
304196
340630
393699
411144
400532
385891
399894
428812
457994
467245
455151
407089
427322
498319
228707
236877
276806
279236
272082
265857
262364
257782
261472
255291
258268
232147
235687
219649
231646
218433
218070
210873
198327
193697
187670
179760
178218
161176
138943
100260
60905.2
25371.3
4311.41
7559.68
-29818.1
-18770.9
-5334.78
-9278.52
3407.78
13844.5
48002.7
76603.1
99743
99179
92885.2
89131
89567.6
92800.8
96243.3
95497.1
93851.7
89782.4
86882.1
82408.9
84722.3
94894.9
103422
107815
109154
102525
81328.1
61479.1
58340
61051
29693.7
63127.5
44288.9
22782.1
21825.5
23606.8
24322.7
26224.7
25940.4
24041.2
20499.6
16102.7
1313.63
3693.72
-14649.2
-11363.4
-23784.8
-20324.4
-20014.9
-21545.8
-16061.9
-15500.5
-10466
-62.8001
16429.6
25188.6
15638.5
151.009
-8132.77
-20551.1
-35837.8
16234.9
32974.6
27040.5
16312.2
13276.4
13933.6
4841.85
1860.15
16060
11881.3
6217.26
18156.6
25250.2
29758.1
34250
46542.9
51497.8
65374.8
64105.7
62294.6
37709.9
11139.5
-8948.57
-15611.9
-11589
-15648
-14254
-10767.7
-683.496
11241.1
14537.2
1646.45
1650.85
8434.23
7821.69
15385.6
26692
47835
72134.8
75735.2
67189.4
52810.4
43662.2
44434.7
54387.3
65149
76818
86988.4
94101.2
101739
108378
110493
103679
94894.6
60043.6
24099.1
-1980.48
463.027
15686.5
-66367.3
-81578.2
-46558.6
-18985.7
-22443.2
-28501.2
-44121.8
-60781.4
-82985.7
-83307.1
-83562.4
-71171.2
-61863.9
-37756.4
-34805.6
-22457.5
-21847.8
-29314.7
-38439.8
-53195.3
-61908.7
-68225.2
-67359.4
-64064.7
-66979.2
-76247.5
-89060.8
-105375
-113389
-104609
-31071.6
-26205.3
-13125.2
-2815.11
-66.1587
-1805.85
-6073.84
-17323.1
-15507.4
-24399.6
-23768.5
-28202.6
-24972.6
-24753.3
-22773.6
-21815.8
-18288.9
-12551.7
-13173.7
-5543.37
-5199.45
-13018.2
-14416.6
-17360.5
-24337.3
-24076.2
-26176.3
-36295
-31607.7
-16018
57626.7
71620
73171.4
66161.2
57653.7
47400
42311.7
33988.9
29352.1
27188.1
12763.1
12509.3
11486
2496.62
965.314
-2529.14
-5059.06
-11766.4
-7712.68
-20595.9
-21776.9
-26849
-28609.5
-33037.3
-16316.9
-1215.7
6565.92
11445.8
10186.1
-1266.56
-37227.9
-24663.9
-4351.25
2570.56
-1924.5
-13358
-20910.9
-34064.6
-42024.6
-37782.1
-43237.1
-39254.2
-31766.1
-32447.6
-16678.3
-17519.5
-11266.1
671.179
-6912.04
2865.6
34.3115
423.356
9705.66
12709.5
-6535.66
-22790.5
-15122
-1644.16
-82.5849
-8142.8
-36184.9
-39921.2
-41813.3
-37324.8
-38386.9
-30743.1
-28270.4
-48176.6
-35678.2
-38922.8
-50991.1
-40359
-38477.7
-39818.7
-35235.8
-37971.6
-34886.6
-40088.3
-44394.6
-47376.1
-49189.1
-46315.7
-42154.7
-47751.8
-63682.9
-66512.6
-65458.8
-67425.7
-72235.5
-76556.6
-133665
-111326
-89629
-85370.4
-88592.9
-92107.2
-97823.3
-93958.7
-93565.1
-99465.5
-104794
-116565
-129120
-137559
-144483
-142066
-133572
-117702
-104829
-94362.9
-93606
-90249.1
-92557.7
-82172.4
-69387.4
-52844.9
-43822.7
-37548.3
-37470.3
-59499.8
-94385.5
-69452.9
-114408
-133300
-49678.3
14848.9
22518
28195.9
40835.8
49740.9
53744.5
54927.6
59069.7
54930.1
54062.9
43768
38749.4
27429.4
14205.2
6990.27
7926.63
8189.32
-9163.86
-42600
-72155.6
-83858.5
-78658.5
-84880.5
-139412
-137192
307216
357525
384153
353003
300077
288055
307676
370633
418766
466214
464356
434518
420122
496365
207261
231448
274718
284127
286242
290106
282405
271983
264287
257468
251092
229033
245379
253353
262805
249646
262953
239382
230580
223305
206891
193849
193023
175270
160068
118217
81174.4
35014.1
11598.5
3928.72
-36124.4
-24493.8
-14869.2
-18724
-14435.2
8883.34
48626.7
78281.8
97347.2
90207.3
79114.3
82983.9
88036.5
91469.5
92262.3
90199.6
80877.5
75199.4
73336.8
74280.9
67814.4
70845.8
86564.9
100945
105029
99659.2
87542.4
66436.5
56159.6
59406.4
31475.8
59044.8
40444.1
22394.4
20191.6
24399.8
25845.6
26687.6
28306.5
26932.1
24319.6
13571.8
3063.86
7655.45
-19181.3
-11651.9
-22122.1
-24937.7
-23539.9
-24378.2
-19425.6
-20743.4
-17870.6
-9233.8
4384.99
20345.5
19647.5
7888.02
-3276.98
-21595.8
-4008.08
28553.5
16182.4
3182.34
-3411.88
-16.8484
-3805.92
-11103.9
1157.16
5574.47
-1661.94
9384.84
25138.7
23837.3
30985.2
29442.7
44215.9
44121.2
64641.3
63310.1
73153.8
56355.3
34489.2
5387.29
-12331.2
-18751.3
-16485.8
-17014.1
-10807
-7505.52
16755.7
16133.8
7992.3
11475.1
15132.6
12493.5
15686.4
31189.6
47369.4
55563.7
50594.7
30279.7
16333.4
17271.2
31007.4
48469.6
65158.1
78522.4
89269
96032.2
102604
107240
108174
116142
101473
75855.4
44599.1
14867.9
1712.32
24548
-67314.5
-63981.2
-21227.5
-19127.2
-17012.1
-33682.5
-64198.2
-87558.9
-96814.6
-89392.9
-71808.3
-44230.1
-22395.9
-1842.56
-5631.55
5325.33
-1265.69
-2438.06
-8750.53
-23226.9
-40840.2
-58435.6
-62852.4
-63102.6
-63193.4
-65799
-75624.4
-102179
-111738
-108264
-25152.1
-15775
1458.17
3516.15
404.926
-6201.11
-10079.8
-24883.5
-19965.6
-31524.3
-29738.7
-35672.7
-35287.6
-35044.5
-37426.1
-34477.6
-33745.3
-23259.6
-21029.3
-7664.88
-8749.44
-2372.41
-1352.46
-13181.5
-16407.2
-14960.1
-26242.3
-29147.9
-25083.6
-18424.9
68234.5
73324.3
67083.3
56363.8
47766.4
38497.5
34626.6
27884.7
17808.8
16251.6
512.665
7016.72
-7060.97
-4445.53
-11672.6
-13528.2
-6987.86
-16456.1
-13991.7
-14966.4
-20927.7
-24757
-29521
-27688.4
-23794.5
-3955.46
-2706
2405.84
9426.37
1444.97
-29149.7
-1671.6
18192
9700.04
-7245.23
-20402.4
-38301.8
-49740.7
-59258.2
-54233.3
-65726.9
-53518.1
-62719.5
-49421.9
-50602.2
-28293.1
-30319.8
-16738.3
-14742.2
-4964.18
-3831.16
-875.361
4803.83
12792.1
4550.85
-14780.6
-15731.5
-2212.24
1950.72
-6063.42
-33721.4
-37684.1
-35066.1
-36153
-35879.7
-29804.5
-46156
-60648.1
-45227.9
-66885.3
-63692
-57478.3
-65626.4
-57749.9
-52439.7
-50146.4
-42859.9
-46110.5
-46565.3
-48529
-48910.2
-47186.7
-41337.9
-43107.6
-57498
-63005.5
-62255.8
-64125.3
-67686.3
-75123.5
-128306
-98132.3
-80390.1
-79459.9
-82369
-74575.3
-65057.3
-59943.6
-55234
-57175.4
-65521.5
-74511.6
-96032.7
-116126
-138252
-145882
-141192
-125520
-107903
-95231.8
-96052.6
-100388
-99733.7
-88852.2
-86548.3
-61434.2
-51349.6
-42292.2
-41693.4
-61693.2
-82086.2
-53436.6
-105614
-88882
-10737.6
23500.4
27234.1
40254.3
47316.5
57169.8
51880.7
54494.4
50760.9
54811.5
55064.2
56075.8
44947
38861.5
26800.9
12818.1
6806.13
5701.36
-12787.5
-60781.8
-84611.3
-86759.8
-77689.3
-87263.5
-150971
-135135
310371
351729
339005
277085
236520
231169
276694
333303
400659
442570
470523
439891
429974
487578
193941
225941
274216
287650
300570
308830
294455
275769
262003
256799
238639
240552
276208
297664
281179
298260
277922
283388
254449
259344
221919
220503
199268
191255
169790
130756
91838.2
43674.2
14408.7
6164.61
-38466.6
-28216.8
-26660.8
-30413.3
-17609.3
12.6354
51203
80661.6
90233.7
82979.2
75454
72433.4
78555
82055.2
85650.8
83532
73988.3
55752.2
46978.5
52904.4
61756.4
60846.4
67543.6
86559.9
98877.6
98165
89625.9
69887.8
57340.4
58704.8
35763.2
58569.7
34214.9
24096.9
23023.8
23215.1
28524.9
31390
31789.3
31575.4
27262.8
13352.5
13548.6
1266.58
-17625.1
-9576.27
-30986.4
-24211.7
-25561.6
-30147.9
-21706.7
-28209.3
-22439.3
-17369.6
-4026.38
12406.4
17963.2
11466.2
-3648.71
-23201.8
18324.2
18650.1
-819.641
-7222.3
-8641.82
-9362.71
-11962.1
-12401.7
1526.35
-37.3019
8820.35
29192.6
45457.6
47086.5
50500.8
45407.9
49984.9
46041.4
67445.1
65436.2
77553.9
75454.2
53344.1
23305.3
-592.774
-11818.1
-18866.7
-13154
-6965.25
4049.18
19544.9
18328
15592.9
20654.8
18239.2
13941.9
15798
25494.5
39651
36735.1
20126
6881.86
-2777.55
6377.24
30929.3
51648.1
66994.8
81177.8
93651.1
99446.3
100857
99919.1
114044
108172
101514
87477.8
62515.4
22220.7
7148.52
37481.2
-63395.3
-41295.3
-13786.6
-13327.1
-12211.7
-50671.2
-81960
-98277.6
-97511
-80749.9
-49274.3
-18242.3
-4118.6
-4540.73
-3684.58
-7576.4
-5631.29
-3466.9
-2143.06
-8504.7
-23764.9
-44444.3
-57647.8
-61191.2
-59574.6
-60649.1
-66529.1
-93005.1
-109489
-105164
-19791.7
-2365.27
8290.42
4204.95
-1468.85
-8100.21
-13493.1
-24849
-23220.6
-31511.8
-35753.2
-40381.6
-43593.7
-45533
-43312.8
-43775.9
-42867.5
-34210.8
-29840.9
-17953.2
-6798.83
5831.23
-1337.25
-3389.06
-3891.09
-14457
-20491.8
-20736.2
-23935.2
-11712.4
69651.2
68619.3
62118
51230.4
42787.9
34910.9
31360.4
20648.5
11352
6692.46
-6324.69
-13535.2
-18699.2
-17306.8
-20063
-14931.3
-18127.6
-16715
-14632.9
-16101.6
-21709.9
-25850.7
-23168.7
-31497.1
-23178.9
-13790
-9261.93
-6990.68
-5763.45
-13737.6
-13610.5
26025.8
37182.6
11761.9
-10883.8
-28603.1
-49238.4
-51890.9
-67558.4
-64726
-69249.9
-66283
-74982.4
-62120.4
-63362.1
-53067.2
-36556.9
-40411
-27533.9
-8293.87
-8738.37
-4284.2
4266.04
9861.46
9292.1
-2786.36
-6926.96
1595.14
2756.96
-5041.93
-29003.1
-30551.4
-32734.5
-35295.6
-33825.2
-38326.3
-58384.5
-58856.1
-52636.4
-78011.7
-63457
-71464.4
-67874.8
-68010.6
-57825.2
-57753.9
-52319.8
-52529.5
-49633
-51482.5
-48156.4
-46631.3
-41266.8
-38165.7
-48313.9
-58597
-60723.1
-58514.5
-64157.8
-70869.2
-121929
-88678.8
-74321.7
-69112.2
-63596.6
-49231.8
-28784.2
-18815.3
-17857.2
-17956.2
-25448.2
-33593.1
-54014.8
-77827.4
-112580
-139905
-144498
-133395
-111710
-97015.8
-94321.2
-99651.4
-95919
-84556.9
-86786.2
-68075.7
-54872.4
-49147.6
-48256.5
-70008.2
-68014.2
-52384.9
-93256.9
-56682.4
8206.51
28021.6
32068.6
46326.3
50274.7
53925.5
51025
53924.1
54645.6
47725.4
48354.8
49792
50724.5
44201.1
35252.5
19410.1
6536.59
3109.39
-7440.54
-62956.5
-89382.6
-87157.3
-79302.7
-102727
-162635
-129761
305922
334212
292751
234747
209501
228527
268063
335037
372030
428721
449963
448335
427675
499696
166874
209812
248738
263789
295355
319293
297967
272147
258641
246507
237592
269715
292987
321518
301733
324620
291772
306393
272529
276523
241235
233552
212742
195362
174197
130460
95270.5
46016.7
17135.8
7676.71
-41528.6
-30058.2
-38516.9
-31832.2
-31619.9
1697.03
45182.3
83380.1
89550.5
75944.1
70615.8
72896.6
77825.8
83996.6
82433.3
75945.9
62002.9
48812.1
35744.8
33534.7
38996.4
54860.2
64100.6
73667.7
91158.1
97040.5
86325.8
69351.4
55839.9
56812.6
39147.2
58233.2
31458
21657.3
24923.1
26327.8
28360.2
34602.4
34984
36408.9
28672.8
21735.4
19484.3
-4337.22
-10460.8
-11251.8
-27077.6
-22708.6
-28955
-28550.7
-27325.8
-30308.8
-30488.1
-21937.7
-10001.4
10263.3
15000.6
11514.5
-6968.87
-23912.2
25042.2
4312.57
-6380.29
-9931.58
-11875.7
-13530.1
-13408.7
-13599.7
1301.6
7700.82
30911.9
50572.7
69896.4
76390.2
77569.2
69720
67538.7
54027.5
71972.9
69991.9
89439.5
82445.3
69121
39788.8
14901.4
-8913.03
-17320.9
-19324.6
-9757.37
1585.75
24587.4
23443
24317.9
27158.4
19780.7
13775.4
13444.7
18169.5
22983.4
20471.6
5196.77
-9623.02
-8130.01
9032.95
33052.5
50409.4
65029.2
81261.5
95877.9
95269.9
99604.9
104518
106044
102827
102726
94623.9
62327.5
24652.1
17972.9
39717.2
-56933.8
-24849.1
-5335.86
89.9102
-19758
-61518.9
-87663.8
-98245.8
-98556.7
-71494.5
-39922.3
-12339.3
-12480.9
-11341.7
-18710.3
-19638.6
-17626.3
-9941.09
-9422.71
-602.108
-19393
-36898.6
-56817.4
-58834.4
-56759
-55252.1
-64878.3
-101298
-116076
-113829
-13184
7402.17
10105
4857.38
-1251.32
-7893.45
-14246.2
-17569.1
-28531.6
-26877.6
-40695.3
-41949.9
-50529
-52655.5
-54679.9
-50096
-51255.6
-39638.4
-37376.1
-19438
-3343.81
-1234.18
5829.88
8494.3
-1980.52
-8734.09
-9960.22
-18030
-19656.2
-5211.3
67038.7
64102.4
55690.3
50786.2
37678.3
35582.7
26725.6
18896.9
8959.24
-1859.11
-22185.9
-20699.9
-34852
-33549.5
-30977.4
-22374.2
-24353.4
-13864.8
-22066.8
-16535.8
-25259.1
-20867.3
-29711
-29521.7
-28185.1
-17716.4
-15121.2
-10230.1
-13380.9
-14925
8811.73
59425.8
52020.6
16474.3
-10837.6
-30426.8
-50120.5
-53918
-68158.6
-64913.1
-74742.7
-72216
-81329.7
-78675.7
-79149.2
-70634
-55316.5
-49644.9
-47262.3
-10665.5
-14498.7
-9435.5
-802.396
9965.35
8705.63
4664.73
4531.93
7717.14
3021.96
-5707.56
-20883.9
-22456.8
-31930.4
-34593.9
-32981.7
-45010.2
-59642
-52502.7
-54812.3
-79278
-64845.7
-74764.9
-79039.3
-80427.4
-72313.4
-63995.2
-54486.4
-59237.1
-49559.8
-56148.5
-45119.6
-47891
-40354
-35320.4
-44465.9
-57762.3
-58575.6
-58221.4
-56339.8
-69293
-117484
-81181
-66617.5
-58578.6
-39040.2
-18311.6
-4090.84
3504.87
6040.95
6408.68
4055.76
-8285.38
-22916.2
-42431
-78078.7
-116711
-145085
-138766
-118053
-98584.6
-93613.8
-93238.8
-95594.6
-86453.9
-78203.5
-69100.6
-58337
-52821.9
-59201.5
-78598.1
-73509.8
-46909.3
-79571.2
-33059.2
17332.3
31719.2
34028.1
50398.7
46446.4
54550.4
46366.8
54894.3
51060.6
55776
45429.1
48934.2
49010.2
42616.7
42143.2
28124.1
7986.13
299.226
-3036.85
-59630.6
-98059.5
-95941.7
-97236.2
-131482
-157422
-123446
300730
306459
261180
208950
210487
238361
296778
331589
370209
396338
436756
430491
447106
495835
170653
202209
239312
254309
305661
333805
298047
267585
248318
239017
245705
281792
300316
328676
312196
328345
298927
310692
276636
280057
245264
242669
209394
195838
164762
121256
88571.9
40286.2
17800.6
9987.13
-41047.2
-35122.1
-43418.1
-37958.7
-31703.4
-10772.7
44928.3
77222
92915.2
76320.8
62237.6
60152.4
64689.5
71800.8
78347.4
76934.8
69383.5
53319.5
46095.4
39127.6
41303.8
45846.4
63675.3
77814.5
85917
89789.1
85851.8
70769.5
56170.7
59102.5
43302
55614.5
32059.5
24018.3
24837.9
30234.3
33812.7
36741.4
38535.4
38319.3
31393.4
36171.7
12476.6
4325.7
-3975.54
-16844
-22803.4
-23377
-23824.6
-28964.6
-31309.4
-34611.8
-32183.3
-24212.6
-8542.54
6526.39
12889.2
2116.16
-14274.8
-13518.3
32887.5
6799.05
-3324.44
-9768.63
-11084.8
-12601.5
-15075.6
-13351.5
6313.92
17193.2
41024.5
63035.1
86010.8
88414.1
93647.8
83500.9
80439.6
71086.3
77555.1
83389.9
95313.7
91385.3
78341.2
57279.7
28400.9
10414.4
-1940.02
-5556.7
-2917.26
10686.4
30202
29813.6
32159.8
32168
21315.6
13401.1
8520.14
9224.33
9064.93
468.665
-11887.8
-18580.1
-8511.84
12580
32863
44701
58219
77708.5
87266.5
96964.6
92781.1
101118
98229.9
101838
105735
85910.9
55108.4
28125.1
20616.5
45859.4
-47661
-11328.9
6245.42
7529.41
-22396.2
-57002.2
-85077.8
-94921.3
-100897
-73259.8
-41954.3
-16460.8
-16214.7
-18825.9
-25136.8
-21590.5
-16933.6
-9779.09
-11093.9
-2335.04
-22452.7
-40740.4
-55706.8
-56653.6
-53132.4
-51673.3
-70909.7
-111468
-126215
-123837
-1019.63
17666.3
14162.7
8618.7
1611.51
-4081.05
-10753.9
-11754.3
-25930.7
-24048.8
-42346.6
-42080.4
-57907.5
-55878.5
-59087.5
-54531.1
-54383.6
-44301.6
-37475.8
-17558.3
-11672.1
4559.18
13773.6
5880.34
1838.72
123.894
-9976.48
-15574.8
-13341.3
1582.41
68030.6
60678.5
56900.8
49267.7
39798.3
34937.3
26720.6
18663.2
12002.4
-9679.25
-21967.7
-30302.2
-44494.5
-40355.2
-40194.3
-25907.3
-25479.9
-16734
-25140.3
-17904.2
-24593.1
-26807.9
-29246.3
-30147
-28653.1
-25400
-17301.4
-22328.7
-20605.5
-22253.9
41330.9
103179
72674.5
29156.2
-6681.72
-26629.2
-44076.4
-57222.7
-61754.1
-67055.1
-68580.9
-78040
-87818.9
-87395.8
-88950.5
-83462.4
-71325.6
-59347.3
-52614.5
-17729.3
-20580.2
-7269.94
-4888.14
3631.86
7489.61
7214.37
8935.73
7090.66
547.137
-7544.24
-4408.68
-13790.9
-28916.5
-32565.6
-34427.2
-43324.6
-48105.7
-47459.9
-57443.1
-64966.4
-71410.2
-79477.5
-90535
-84908.9
-79437.6
-68407.6
-57619.8
-60164.6
-52277.5
-57449
-48953.1
-44492.2
-36946.3
-32222.9
-37872.3
-46228.3
-54322.4
-51969.3
-57002.4
-67380
-116180
-75636.6
-58472
-47059.3
-20987
7302.3
12226.7
16964.6
22306.7
20892.1
17954.2
9321.35
-3737.38
-20297.2
-49753
-85273
-134854
-140370
-124295
-106446
-91832.8
-91529.8
-89207.1
-83830
-77986.6
-64288.3
-64724.8
-62688.9
-70282.6
-85233.2
-76997.1
-39522.7
-64278.4
-20549.7
24434.1
33157.5
35235.7
51042.7
40456.1
54540.3
39556.5
51073.2
42008.9
46118.9
43289.8
45317.7
46024.5
40378.3
42331.3
33765
12288.1
-1737.7
-1122.41
-54501.1
-113504
-123197
-126352
-155996
-135953
-108937
297087
287579
236121
204989
212916
266210
304102
343875
355270
402097
412143
440528
448859
529954
530966
402595
190236
138163
159274
199665
291552
333947
291821
257027
241039
235971
242439
273738
292074
315716
298037
309900
285448
287171
262256
259347
232225
221766
194529
170766
140369
102611
69160.8
36315.6
14320.6
10954.1
-15421.6
-29695.9
-42705
-39055.7
-46025.5
-37766.8
-35656.6
-13322.5
29483.2
82220.8
89888.8
81094.6
60904.5
53344.4
58209.4
68649.4
73450.2
76053.7
73239
67760.2
60224
54338.6
57159.1
61252.4
67913.9
80973.5
86900.2
81850.7
72709.7
59694.7
49640.2
55718.8
46102.2
35976.5
43813.3
52178.7
29808.6
27417.2
26123.1
28492.2
37517.6
38373.1
40109.1
39014.6
38958.8
39010.5
14177
13684.5
-376.899
-13170.6
-22414.3
-25336
-30225.8
-30605.6
-34735.7
-32198.8
-30055
-17338.2
-2914.16
9468.37
11894.7
16361.5
33060.3
30243.6
16733.8
8983.28
12321.7
-1217.8
-5571.48
-7965.65
-9805.21
-12965.3
-12463.1
-8368.02
4720.91
20862.9
42376.5
66223.1
84085.3
97462.7
96070.2
99885.2
91107.4
87269.5
91230.5
95324.3
99568.6
96166.9
89903
66312.7
41077.7
17719
3686.07
-1108.85
9114.8
16326.2
20357.5
20881.8
34750.6
35963.2
39209.3
34690.2
22145.4
12510
3875.25
-1165.57
-3833.87
-10694.8
-19970.1
-17538
-7586.3
14257.4
31626.1
35948.9
46372.3
62599.7
83071
93009.4
96584.1
100955
94896.3
105484
90748.6
69358.5
47015.8
23356
29440.9
58681.7
15911.6
-40569.3
-32950.8
2677.49
14601.4
9899.89
-13170.5
-42079.4
-74937.6
-93793.7
-103761
-80899.7
-53119.7
-21481.4
-17492
-19065.3
-25347.8
-27376.4
-13321.5
-17342.6
-12355.9
-16137.6
-35612.3
-47572.8
-54293.2
-50539.9
-47689.8
-59525.3
-101855
-123439
-111978
-33820.1
7437.5
1821.18
16061.7
17532.2
12695.3
9134.48
6116.81
1932.3
-5010.47
-8859.8
-18442.2
-20920.2
-38482.4
-39865.6
-56812.3
-54425.6
-57394.6
-49574.2
-55419.6
-36079.2
-35697
-24593.7
-2083.47
11303.7
7429.03
8893.91
9376.59
-243.767
-6606.86
-4326.12
16179.7
37259.9
49187.2
53645.3
51436.6
55145.9
56441.5
50135.9
41988
38180.2
28131.1
21934.7
14065.1
-2433.34
-18353
-29560
-35275.3
-41364.3
-32980.2
-26171.1
-24282.7
-17655
-26231.2
-21111.2
-25683.3
-33924
-25662.2
-33596.2
-33765.2
-23155.4
-18956.2
-20186.4
8944
48501.2
77074.1
83334.9
108864
127718
90168.4
44493.2
722.852
-20811.6
-36843.6
-56084.9
-56980.9
-64253.1
-66621.9
-74162.9
-79793.6
-94446.9
-94882.6
-90475.3
-80941.1
-60498.9
-53776.7
-16976.8
-25920.2
-11526.9
-6699.69
-2332.34
2153.03
9911.95
7025.64
-870.298
-9156.09
-8311.04
-4644.86
7571.37
9644.92
-4147.55
-24284.8
-31801
-32056.8
-36978.2
-38162.2
-43389.6
-50060.5
-58063
-67908.6
-79809.4
-88916.7
-93489
-77811.1
-71855.9
-63888.5
-51668.9
-58066.3
-55802
-48656.3
-42104.2
-33818.1
-29323.4
-32353.1
-42138.4
-46899.8
-49931.2
-50747.9
-68463.7
-70581.9
-77562.3
-107239
-74251.1
-51113.6
-34533.4
-9110.61
18959.6
26307.4
25601.1
28038
28048.3
32395.1
17268.6
15101.6
-6591.97
-33882.8
-59490.8
-114265
-139717
-130193
-115658
-98496.7
-89487
-88947.6
-82791.8
-76371.5
-71897.8
-67443.9
-75021.9
-92215.9
-122034
-113076
-139309
-62296.8
-28613.6
-55852
-10446
22919.6
38170.5
34603.3
45369.8
44197.7
46254
38751.5
49321.9
40237.3
45240.7
38676.5
44404.8
41943.5
36974
40561.7
35735.9
15655.4
-2687.42
-1448.81
-46452.9
-128228
-150387
-158688
-144229
-130492
-171030
51047.6
76579.8
289793
268379
221622
201279
219158
280579
322322
353510
376726
403092
397718
381824
398426
468175
511825
456123
340640
198523
168536
215109
338413
360403
295812
250723
237702
225418
228611
257754
268968
260882
240018
236730
206267
210687
184250
187342
165934
158329
133690
119895
85386.8
67549.7
32111.3
19524.8
-3945.98
-7075.13
-31132.7
-33562.7
-42035
-37247.5
-47063.6
-35477.2
-36543.5
-20435.9
17101.5
73156
95949.5
83773.5
64337.9
45436.7
43590.5
51074.9
64023.5
71332.1
73125.2
73023.1
72415.5
72078.3
71277
74604.2
77957.9
77072.5
79244.1
72430.4
61676.8
50994.3
49334.5
50397.9
40957.1
37892.1
52013.3
48382.1
29406.3
28894.3
34545.7
36635.9
37371
39153.8
38953.9
39051.4
41822.5
38167.7
25533.6
22636.1
4438.26
-5422.38
-6392.99
-16149
-18548.4
-26509.3
-28584
-24523.6
-17875.4
-6039.99
5343.53
11973.3
20640.6
34814
37211.4
26921
20229.2
15971.3
16443.1
6006.38
2877.53
-1302.33
-4811.46
-9584.54
-8536.09
-6010
470.58
16256.5
40032.5
56401.9
78410
85122.6
96584.2
95648.8
103814
98078.2
103877
102961
104515
103450
92436.3
73754.5
50101.8
29104.3
7268.5
3706.87
17802.3
28470.7
34778.1
31578.3
40814.1
45445.8
44347.3
35745.3
23285.8
14377.3
920.866
-7739.29
-15692.5
-19101.1
-22673.2
-20866.6
-5825.74
15600.1
25335.2
30716.9
33898.9
42595.7
61270.2
76057.9
85367.1
85589.1
87612.4
83959.6
63368.8
49885.4
30809.3
21073.3
41699.7
61446
-6206.83