/*--------------------------------*- C++ -*----------------------------------*\
| =========                 |                                                 |
| \\      /  F ield         | OpenFOAM: The Open Source CFD Toolbox           |
|  \\    /   O peration     | Version:  2.1.1                                 |
|   \\  /    A nd           | Web:      www.OpenFOAM.org                      |
|    \\/     M anipulation  |                                                 |
\*---------------------------------------------------------------------------*/
FoamFile
{
    version     2.0;
    format      ascii;
    class       volScalarField;
    location    "0.007750000";
    object      fH;
}
// * * * * * * * * * * * * * * * * * * * * * * * * * * * * * * * * * * * * * //

dimensions      [0 0 0 0 0 0 0];

internalField   nonuniform List<scalar> 
12384
(
0.0274997
0.0271781
0.026797
0.0264988
0.0263248
0.026313
0.0264057
0.0266014
0.0268615
0.0272031
0.0276371
0.0281437
0.0285684
0.0291573
0.0248454
0.0248671
0.0253909
0.0261681
0.0267817
0.0271613
0.0273303
0.0274086
0.0274536
0.0274221
0.0273577
0.0272503
0.027098
0.0269053
0.0266808
0.026468
0.0262817
0.0261427
0.0260521
0.0259867
0.0259774
0.0259617
0.0259888
0.0260141
0.0260666
0.0261411
0.0262436
0.0263602
0.0255653
0.0241614
0.0302504
0.0308079
0.0304388
0.0300387
0.0297719
0.0295355
0.0293722
0.029137
0.0290065
0.0289157
0.0288385
0.0287525
0.0286759
0.0286598
0.028682
0.0287269
0.0287971
0.028883
0.0289715
0.029047
0.0290988
0.0291513
0.0292038
0.0292473
0.0292795
0.0292985
0.0293942
0.0297425
0.0295283
0.0293655
0.030892
0.0307531
0.0305876
0.0305588
0.0305371
0.0305012
0.030451
0.0304042
0.0303491
0.0303052
0.0302758
0.0302593
0.0302517
0.0302547
0.0302759
0.030304
0.0303333
0.0303618
0.0303829
0.0304107
0.0304299
0.0304533
0.0304906
0.0305413
0.0306163
0.0307061
0.0307755
0.0307804
0.0307367
0.0306937
0.0321935
0.0322947
0.0323925
0.0324348
0.0324198
0.0322977
0.0321658
0.032047
0.0319777
0.0319624
0.0318716
0.0319665
0.0318974
0.0319616
0.0319496
0.0319266
0.0319985
0.0320029
0.0320443
0.0320275
0.0320422
0.0320657
0.0320214
0.0322151
0.032232
0.032152
0.0320534
0.0320428
0.0320925
0.0321013
0.0356873
0.0357076
0.036126
0.0363088
0.0363319
0.0363221
0.0363617
0.0363354
0.0363285
0.0363081
0.0362887
0.0362585
0.0362218
0.036175
0.036131
0.0360829
0.0360411
0.0360078
0.0360034
0.0359669
0.0359673
0.0359458
0.0359416
0.035949
0.0359456
0.035916
0.0357903
0.035563
0.0352526
0.0350687
0.0326584
0.033293
0.0341426
0.0345256
0.0346206
0.0345961
0.0345099
0.0343535
0.0341459
0.0338913
0.0336363
0.0334147
0.0332182
0.0330696
0.0329648
0.0328938
0.0328653
0.0328805
0.0328752
0.0329161
0.0328945
0.0329719
0.0329784
0.0329839
0.0328679
0.0324442
0.0293997
0.027818
0.028151
0.0283995
0.0356817
0.0370105
0.0375196
0.0377023
0.0375764
0.0373594
0.0371844
0.0370705
0.0369948
0.0369663
0.0369689
0.0369662
0.0370043
0.0370229
0.0370569
0.0371097
0.037179
0.0372599
0.0374173
0.0375565
0.0365838
0.0351594
0.0351273
0.0351353
0.035147
0.0351589
0.0352249
0.035302
0.0353333
0.0352333
0.0334171
0.0334192
0.0335
0.0336119
0.0336463
0.0336081
0.033538
0.033446
0.0333532
0.0332686
0.0332037
0.0331127
0.0330483
0.0330109
0.0329649
0.0329186
0.0328439
0.032805
0.0349653
0.0377188
0.0377212
0.0376256
0.0375134
0.0373899
0.0372609
0.0372115
0.0373226
0.0376938
0.0385128
0.0396978
0.0334638
0.0333555
0.0334882
0.0337742
0.0340395
0.0341842
0.0342232
0.034184
0.0340888
0.033985
0.0338923
0.0338123
0.0337417
0.0336494
0.0335958
0.0335648
0.0335106
0.0334135
0.033165
0.0334787
0.0359341
0.0363701
0.0363985
0.0364008
0.0363965
0.0364509
0.0365454
0.0366555
0.0368263
0.0370048
0.0344113
0.0346994
0.0349299
0.0350054
0.0349945
0.0349522
0.0348798
0.0347757
0.0346793
0.034621
0.0345882
0.0345821
0.0345938
0.0345782
0.0343449
0.0354676
0.0380678
0.0384054
0.0381886
0.0380419
0.0378984
0.0378364
0.0378289
0.0378491
0.0378765
0.037897
0.0379184
0.0379445
0.0379995
0.03835
0.0361348
0.0359835
0.0361253
0.0367274
0.0365751
0.0364345
0.0364876
0.0365799
0.0366664
0.0367578
0.0368196
0.0368976
0.0369917
0.0370275
0.0371336
0.0371553
0.0372305
0.0372464
0.0372564
0.0372227
0.0371513
0.037066
0.0369865
0.0369449
0.0369539
0.0369435
0.0369017
0.0367612
0.0365688
0.0364335
0.0396202
0.0392076
0.0386401
0.0383602
0.038554
0.03904
0.041815
0.0501985
0.0525599
0.0525571
0.0523898
0.0521712
0.051909
0.0516256
0.0512609
0.0509151
0.0504696
0.0500858
0.0497881
0.0496652
0.0497811
0.0502869
0.0509313
0.0515883
0.0520489
0.0521531
0.0520746
0.0517923
0.0506598
0.0482097
0.0266761
0.0260257
0.0253519
0.0251337
0.0251811
0.0253401
0.025533
0.0257123
0.0259193
0.02622
0.0267008
0.0274524
0.0283008
0.0291064
0.0248227
0.0249156
0.0255973
0.0265547
0.0273543
0.027845
0.0280505
0.0281079
0.0280805
0.0280121
0.027845
0.0276143
0.0272692
0.02679
0.0262931
0.0259399
0.0257417
0.0256377
0.0255753
0.0255452
0.0255178
0.0254887
0.0255042
0.0255393
0.0256388
0.0258033
0.0260084
0.0262448
0.0261697
0.0253313
0.0303377
0.0307686
0.0302662
0.0297387
0.0292741
0.0288673
0.0285963
0.0283841
0.0282426
0.0281385
0.0280603
0.0279845
0.0279737
0.0280637
0.0282608
0.0284589
0.0286448
0.0287879
0.0288895
0.0289579
0.0290095
0.0290629
0.0291179
0.0291761
0.0292252
0.0292549
0.0292889
0.0295007
0.0297567
0.0298581
0.03088
0.0307296
0.0306378
0.030667
0.030674
0.0306374
0.0305549
0.0304209
0.0302353
0.0300445
0.0299077
0.0298757
0.0299606
0.0300696
0.0301573
0.0302152
0.0302461
0.0302664
0.0302837
0.0302976
0.0303144
0.0303297
0.0303632
0.0304105
0.0304834
0.0305801
0.0306836
0.0307529
0.0307594
0.0307199
0.0321772
0.0322426
0.0323343
0.0323739
0.032119
0.0318096
0.031624
0.0315183
0.0314564
0.031423
0.031415
0.0313858
0.031386
0.0314061
0.0314444
0.0315018
0.031595
0.0316809
0.0317883
0.0318941
0.0319459
0.0320212
0.0320051
0.0321219
0.0321603
0.0317327
0.0313759
0.0314421
0.0318146
0.0321312
0.0356675
0.0358483
0.0362824
0.0364695
0.0365287
0.0365462
0.0365152
0.0364615
0.0364008
0.0363572
0.0363085
0.0362441
0.0361288
0.0359933
0.03586
0.0357529
0.035678
0.0356495
0.0356207
0.0356227
0.0356314
0.0356566
0.0356989
0.0357597
0.0358181
0.0358582
0.0358246
0.0356882
0.0354526
0.0351966
0.0327523
0.0338447
0.0350241
0.0354881
0.0354061
0.0350919
0.0347359
0.0343097
0.033765
0.0331422
0.032663
0.0323254
0.0321314
0.0320388
0.0319961
0.0320063
0.0320442
0.0320905
0.0321518
0.0322108
0.0322759
0.0323909
0.0325371
0.0327035
0.0327909
0.0326378
0.0313987
0.0293028
0.0280942
0.0284637
0.0354433
0.0369799
0.0376744
0.0375652
0.0369673
0.0366462
0.0365204
0.0364948
0.0365316
0.0366167
0.0366707
0.036748
0.0368053
0.0368224
0.0368737
0.0368972
0.0369381
0.0370224
0.0371698
0.0374255
0.0371805
0.0359971
0.0350093
0.0347749
0.0346977
0.0347035
0.0348401
0.0350538
0.0354155
0.0355915
0.0334369
0.033484
0.0338215
0.0339783
0.0338636
0.0335991
0.0332817
0.0329696
0.0326974
0.0324863
0.0323179
0.0322399
0.0322249
0.0322797
0.0324055
0.0325571
0.0326741
0.0326155
0.0334395
0.0361639
0.0379146
0.0379187
0.0377482
0.0373616
0.0368789
0.0365147
0.0363663
0.036578
0.0374061
0.0392196
0.0334934
0.0333296
0.0335361
0.0341675
0.0345098
0.0344967
0.0342779
0.033911
0.0335376
0.0332176
0.0329672
0.0327936
0.0327173
0.0326834
0.0327517
0.0328897
0.0330707
0.0331895
0.0331355
0.0330971
0.0340386
0.0355854
0.0363553
0.0362704
0.0360504
0.0360858
0.0363244
0.0365407
0.0367478
0.0369908
0.0343554
0.0346239
0.0350634
0.0351917
0.0351041
0.0348686
0.0345185
0.0341496
0.033832
0.0336073
0.0335334
0.0336359
0.0338797
0.034161
0.0342253
0.0345129
0.0358599
0.0372891
0.0381468
0.037982
0.0378161
0.0377259
0.0377453
0.0378296
0.0379235
0.0379959
0.0380247
0.0380162
0.0380334
0.0383874
0.0364043
0.036484
0.0367182
0.0366774
0.0364918
0.0364987
0.0366099
0.0367077
0.0367914
0.0368535
0.0368908
0.0369101
0.0369207
0.03694
0.036968
0.0370321
0.0370968
0.0371525
0.0371696
0.0370583
0.036803
0.0364616
0.0361487
0.03594
0.0359618
0.0361989
0.0365385
0.0366773
0.0365944
0.0364515
0.0423114
0.0398403
0.0379042
0.0375922
0.0382547
0.0410204
0.0476551
0.0519962
0.0525846
0.0522803
0.0519295
0.0514964
0.0511066
0.050702
0.0503323
0.0498704
0.0492272
0.0484301
0.0474532
0.046613
0.0461295
0.0463902
0.0472607
0.0487125
0.0499979
0.0513422
0.0518094
0.0516735
0.0504922
0.048044
0.0256084
0.0248241
0.0246483
0.0249224
0.0254173
0.0258938
0.026291
0.0265085
0.0265883
0.0265342
0.0265905
0.0269328
0.0278971
0.0290038
0.0248079
0.0249269
0.0257162
0.0268467
0.0277685
0.0282054
0.0283239
0.0283363
0.0282682
0.0281278
0.027926
0.0276574
0.0272526
0.0265774
0.02603
0.0257989
0.0257578
0.0257858
0.0258298
0.0258416
0.0258367
0.025775
0.0256758
0.0255672
0.0254873
0.02553
0.0256978
0.0259974
0.0262354
0.0258152
0.0304023
0.0307551
0.0301931
0.0296392
0.029228
0.0289342
0.0286839
0.0284282
0.0281912
0.0280435
0.0278932
0.0278327
0.0279994
0.0283813
0.0287761
0.0290125
0.0291481
0.0292226
0.0292514
0.0292628
0.0292607
0.0292487
0.0292452
0.0292413
0.0292427
0.0292379
0.029235
0.0293122
0.0295983
0.0298999
0.0308685
0.0307472
0.0307564
0.0308554
0.0308858
0.0308447
0.030765
0.0306129
0.0303264
0.0299533
0.0296806
0.0296618
0.0299214
0.0301345
0.0302028
0.0301862
0.0301604
0.0301137
0.0301032
0.0301141
0.030138
0.0301805
0.0302276
0.0302803
0.0303449
0.0304319
0.0305417
0.0306509
0.03072
0.030715
0.032158
0.0321565
0.0322024
0.0320877
0.0316481
0.0314415
0.0313763
0.0313444
0.031321
0.031255
0.0312132
0.0311092
0.0310608
0.0310354
0.0310529
0.0311099
0.0312008
0.0313237
0.0314753
0.0316384
0.031778
0.0319034
0.031977
0.0320329
0.0320701
0.0314538
0.0310041
0.0309704
0.0314029
0.0318509
0.0356739
0.0359846
0.0364628
0.0366865
0.0367592
0.036734
0.0366101
0.0364745
0.0363295
0.0362755
0.0362299
0.0360951
0.0358878
0.0356912
0.0355501
0.0354838
0.0354752
0.0355112
0.0355534
0.0355927
0.0356103
0.0356105
0.0356034
0.0356159
0.0356614
0.0357335
0.035783
0.0357374
0.0355704
0.0352942
0.0328839
0.0344674
0.035849
0.0360619
0.0355953
0.0350903
0.0346559
0.0341478
0.0333922
0.0325342
0.032066
0.0318548
0.031807
0.0318424
0.0319158
0.0320218
0.0321361
0.0322301
0.032306
0.0323233
0.0323212
0.0322888
0.0323123
0.0324255
0.0325943
0.0326651
0.0322678
0.0308481
0.0289388
0.0283331
0.0350374
0.0368591
0.0378252
0.036906
0.036499
0.0364002
0.0364232
0.0365367
0.036696
0.036871
0.0370253
0.037152
0.0372459
0.0372921
0.0372749
0.0372114
0.0371242
0.0370306
0.0370378
0.0372239
0.0373437
0.0367972
0.0356149
0.0347777
0.0344157
0.0343985
0.0345242
0.0346557
0.0349976
0.0356222
0.0334856
0.0338924
0.0342501
0.034071
0.0335973
0.0330717
0.0325592
0.0320877
0.0316782
0.0313549
0.0311355
0.0310525
0.0310607
0.0311912
0.0314525
0.0317955
0.0321625
0.0323598
0.0326791
0.0344338
0.0371493
0.0382315
0.0381456
0.037531
0.0366825
0.0360911
0.0357619
0.0358793
0.0365193
0.0384595
0.0335264
0.0333411
0.0338807
0.0346015
0.0346718
0.0342764
0.0336425
0.0330249
0.0325041
0.032072
0.0317605
0.0315416
0.0314425
0.0314482
0.0315468
0.0317903
0.0321451
0.0325351
0.032839
0.0329102
0.033128
0.0342313
0.0358234
0.0362718
0.0358187
0.0356782
0.0360392
0.0364643
0.0367345
0.0369798
0.0343679
0.0348382
0.0352341
0.0352522
0.0349532
0.0343857
0.0337238
0.0330779
0.0325171
0.0321229
0.0319563
0.0320677
0.0324464
0.0330445
0.033627
0.0339995
0.0345815
0.0355205
0.0364667
0.0372309
0.0376986
0.0377315
0.0378106
0.0380373
0.0382636
0.0383757
0.0382963
0.0381306
0.0380839
0.038487
0.0366571
0.0368216
0.03676
0.0365616
0.0365035
0.0366004
0.0367096
0.036786
0.0368233
0.036833
0.0368327
0.036833
0.0368016
0.0367911
0.036731
0.0367058
0.0366697
0.0367511
0.03678
0.0367484
0.036446
0.0359758
0.0354841
0.0350015
0.0347212
0.0349295
0.0356402
0.0363258
0.0365493
0.0364717
0.0438347
0.0391918
0.0373171
0.0383596
0.0405361
0.0456435
0.0510667
0.0525205
0.0523384
0.0518432
0.0514538
0.0511474
0.0509692
0.0508846
0.0508066
0.0507275
0.0503532
0.0497614
0.0487048
0.0470754
0.0455811
0.044938
0.0451847
0.0461819
0.047088
0.0490711
0.0509358
0.0511132
0.0494399
0.047569
0.0244232
0.0243813
0.0248975
0.0256987
0.0264293
0.0269201
0.0272394
0.0274275
0.0275866
0.0274999
0.0271471
0.026987
0.0275497
0.0288682
0.0247961
0.0248823
0.0256247
0.0267979
0.027806
0.0282581
0.0283371
0.0282251
0.0279611
0.0276966
0.0275908
0.0274602
0.0270706
0.0262839
0.0259121
0.0259328
0.0260298
0.0261008
0.0261238
0.0261398
0.0261514
0.026148
0.0260536
0.0258823
0.0256534
0.0254873
0.0255089
0.0257463
0.0261187
0.0259994
0.0304344
0.0307971
0.0302933
0.0299142
0.0297671
0.029684
0.029362
0.0287756
0.0283014
0.0279845
0.0277642
0.0279128
0.0284737
0.0290142
0.0292891
0.0293062
0.029247
0.0291496
0.0290738
0.0290588
0.0290857
0.0291434
0.0292145
0.0292589
0.0292723
0.0292555
0.0292204
0.0292216
0.0294279
0.0298366
0.0308721
0.0307887
0.0308819
0.0309982
0.0309626
0.030885
0.0308414
0.0307618
0.030472
0.0299411
0.0295983
0.0296417
0.0300459
0.0301592
0.0300822
0.0299206
0.0297551
0.0296167
0.0295455
0.0295505
0.0296482
0.029786
0.0299348
0.0300672
0.0301776
0.03028
0.0303939
0.0305225
0.0306408
0.0306901
0.0321453
0.0320789
0.032124
0.031584
0.0313456
0.0313366
0.0313487
0.0312961
0.0311782
0.0310009
0.030815
0.0306557
0.0305411
0.030526
0.0305418
0.0306212
0.0307534
0.030907
0.0311299
0.0313574
0.031555
0.0317363
0.0318937
0.0319768
0.0320192
0.0316395
0.0312211
0.0309325
0.0315696
0.032077
0.0356787
0.036077
0.0366358
0.0369264
0.0370462
0.037029
0.0368358
0.0364955
0.0362034
0.0361445
0.036092
0.0359142
0.03566
0.0354622
0.0353834
0.0354177
0.0355212
0.0356537
0.0357652
0.0358582
0.035891
0.0358655
0.035785
0.0356903
0.0356303
0.035638
0.0356979
0.0357249
0.0356141
0.0353624
0.0330021
0.0349954
0.0365317
0.0366206
0.0360037
0.0353367
0.0347622
0.0342379
0.0333361
0.0323185
0.031883
0.0317651
0.0317997
0.0319126
0.0320782
0.0322744
0.0324787
0.0326542
0.0327602
0.032783
0.0327241
0.0325816
0.0324377
0.0323795
0.0324585
0.0325784
0.0324868
0.0317517
0.0298581
0.0285038
0.0349529
0.0373068
0.0373238
0.0366177
0.0364805
0.0364254
0.0364979
0.0366916
0.0369441
0.0371968
0.0374109
0.037588
0.0376985
0.0377726
0.0377589
0.0376598
0.037512
0.037307
0.0371293
0.0370915
0.0372892
0.0372058
0.0364136
0.0353389
0.0345621
0.0343342
0.0344769
0.0345267
0.0346244
0.0353817
0.033814
0.034534
0.0343463
0.0337228
0.0330891
0.0324837
0.0318561
0.0312494
0.0307238
0.030293
0.0300316
0.0298866
0.0299085
0.0300683
0.0304184
0.0308927
0.0314466
0.0319312
0.0322454
0.0332932
0.0358716
0.0379639
0.0383159
0.0376587
0.036446
0.0356931
0.0352783
0.0352537
0.0359151
0.0378236
0.0334849
0.0334848
0.0344671
0.0348777
0.0344932
0.0336849
0.0328849
0.0322097
0.0316242
0.0311317
0.0307508
0.0304956
0.0303873
0.0303932
0.0305208
0.030768
0.0311664
0.0316783
0.0322221
0.0325886
0.0327517
0.0333786
0.034999
0.0361682
0.035846
0.0355384
0.0359181
0.0364277
0.0367765
0.0369932
0.0344522
0.0350588
0.0354171
0.0352187
0.0346003
0.0337695
0.0328623
0.0319649
0.0312056
0.0306452
0.030371
0.0304103
0.0308138
0.0315641
0.0325238
0.0333449
0.0339223
0.0344684
0.0350857
0.0359571
0.0371602
0.0376143
0.0378169
0.0382398
0.0385356
0.0385683
0.0383594
0.0381595
0.0381672
0.0386452
0.0367823
0.0368695
0.0366615
0.0365288
0.0365917
0.0367316
0.036845
0.0369362
0.0370154
0.0371003
0.0371765
0.0372365
0.0372304
0.0371959
0.0370808
0.0369179
0.0367382
0.0366298
0.0366052
0.0366662
0.0365206
0.0360424
0.0353904
0.0346109
0.0339591
0.0339354
0.0347615
0.035859
0.0364413
0.0364689
0.044248
0.0390131
0.0383593
0.0412549
0.0445383
0.0494047
0.0522653
0.0524089
0.0518671
0.0512692
0.0507603
0.0503989
0.0500964
0.0500139
0.0500431
0.0502658
0.0505553
0.0506557
0.0503836
0.0492116
0.0470994
0.0451117
0.0447439
0.0459414
0.0465118
0.0463577
0.0480257
0.0487615
0.0474343
0.0472189
0.0241218
0.0247576
0.0258035
0.0267178
0.0273266
0.0276105
0.027646
0.0276264
0.0277325
0.0279657
0.0277757
0.0272886
0.0274752
0.0287418
0.0247954
0.0248178
0.0253694
0.026411
0.0274421
0.0279826
0.0280262
0.0276517
0.0270766
0.0267617
0.0269602
0.0271522
0.0268121
0.0260395
0.0259939
0.0261303
0.0261831
0.0261139
0.0260351
0.0260005
0.0260196
0.0260908
0.0261556
0.026092
0.0258787
0.025601
0.0254599
0.02559
0.0259975
0.0260555
0.0304361
0.0308858
0.0305642
0.0304709
0.0306934
0.0307495
0.0300078
0.0289505
0.02822
0.0277852
0.0277503
0.0283625
0.0291054
0.029397
0.0292741
0.0290014
0.0287451
0.0285601
0.0284637
0.0284503
0.028516
0.0286654
0.0288642
0.0290624
0.0292062
0.0292574
0.029225
0.029177
0.0293112
0.0297723
0.0308824
0.0308436
0.0309873
0.0310529
0.0309014
0.0307885
0.030799
0.030793
0.0305895
0.0299177
0.0295587
0.0297839
0.0301281
0.0300041
0.0297278
0.0294288
0.0291773
0.0290047
0.028927
0.0289234
0.0290415
0.0292315
0.029478
0.029727
0.0299347
0.0300981
0.0302443
0.0303947
0.0305514
0.0306561
0.0321427
0.0320317
0.0318534
0.0313013
0.0313226
0.0313867
0.031336
0.0311598
0.0309131
0.0306276
0.0303773
0.0301582
0.0300289
0.0299595
0.0299893
0.0300921
0.0302471
0.0304867
0.0307689
0.0310503
0.0313176
0.0315554
0.0317697
0.031921
0.0319814
0.0317886
0.0315714
0.0310736
0.0319286
0.0325503
0.0356687
0.0361056
0.0367528
0.0371379
0.0373423
0.0373911
0.0370815
0.0364958
0.0361063
0.0360614
0.0359855
0.0357496
0.0354659
0.0353086
0.0353175
0.0354558
0.0356643
0.035864
0.0360548
0.0361853
0.0362483
0.0362167
0.0361025
0.0359242
0.0357408
0.0356354
0.0356369
0.0356815
0.0356234
0.0353883
0.0330808
0.0353853
0.0371277
0.0373831
0.0367472
0.0357556
0.034901
0.0343944
0.0334715
0.0323243
0.0318323
0.0317406
0.0318191
0.0319825
0.0322237
0.0325147
0.0328208
0.0330831
0.0332757
0.033313
0.0332318
0.0330085
0.0327564
0.0325219
0.0324396
0.0324919
0.0325052
0.032095
0.0304863
0.0287022
0.0350849
0.0379977
0.0368921
0.0367964
0.036594
0.0364491
0.0365603
0.0368489
0.0371865
0.037497
0.0377574
0.0379682
0.0380977
0.0381835
0.0381788
0.0380907
0.0379169
0.0376504
0.0373723
0.0371374
0.0372044
0.0372935
0.0369102
0.036022
0.0350744
0.0345049
0.0345317
0.034535
0.0344618
0.0350963
0.034904
0.0347982
0.0340242
0.0333257
0.032749
0.0320528
0.0312713
0.0305609
0.0299455
0.0294825
0.0291674
0.0289927
0.0289703
0.0291372
0.0294874
0.03003
0.0307074
0.0314054
0.0318911
0.0326141
0.0346746
0.0371532
0.038217
0.0376737
0.0362564
0.0353731
0.0349956
0.0348272
0.0354123
0.0373082
0.0334085
0.034026
0.0350352
0.0348938
0.0340526
0.0330893
0.0322813
0.0315603
0.0308964
0.0303337
0.0298976
0.0295985
0.0294756
0.0294722
0.0296318
0.0299218
0.0303321
0.0308763
0.0315416
0.032133
0.0324607
0.0329102
0.0343453
0.0358864
0.0358891
0.0355824
0.0360138
0.0365251
0.0368517
0.0370255
0.0348608
0.0355509
0.035578
0.0350575
0.0342298
0.0332284
0.0321
0.0309856
0.0300449
0.0293875
0.029036
0.0290054
0.0293494
0.0301064
0.031236
0.0324449
0.0333493
0.0338938
0.034297
0.0350909
0.0367363
0.0374386
0.0378214
0.0383994
0.0386971
0.0386779
0.0384764
0.0383388
0.0384529
0.0388557
0.036825
0.0368431
0.0366136
0.0365726
0.0367118
0.0368878
0.0370344
0.0371681
0.0373022
0.0374189
0.0375206
0.0375696
0.0375936
0.0375828
0.0374996
0.0373328
0.0370773
0.0367837
0.0365693
0.0365838
0.0366344
0.0362874
0.0354988
0.0345266
0.0335954
0.0335503
0.0342491
0.035537
0.0363353
0.0364629
0.0445235
0.0397618
0.0406516
0.0449367
0.0481864
0.0513842
0.0524882
0.052036
0.0512241
0.0504292
0.0495994
0.0488703
0.0481894
0.0479493
0.0480048
0.0485191
0.0492513
0.05001
0.0505195
0.0505393
0.0493115
0.0465065
0.0443356
0.0457157
0.0481708
0.0472393
0.0457759
0.0461392
0.046182
0.047581
0.0246422
0.0256544
0.0267588
0.0276111
0.028088
0.0282143
0.0280381
0.0277324
0.0276406
0.0278791
0.0280799
0.0276234
0.0275324
0.0286844
0.0247978
0.024755
0.0250558
0.0257781
0.0266375
0.0272173
0.0272132
0.0266228
0.0258702
0.0257138
0.0263425
0.0269072
0.0265544
0.0259365
0.0261563
0.0262415
0.0260491
0.0258499
0.0257742
0.0257782
0.0257894
0.0258447
0.0259898
0.0261141
0.0260116
0.0257204
0.0254597
0.0255082
0.0259201
0.0260755
0.0304045
0.030988
0.0308987
0.0310843
0.0314924
0.0314187
0.0300668
0.02873
0.0278797
0.0275704
0.0279911
0.0290524
0.0294742
0.0292656
0.0288347
0.0284564
0.0282211
0.0281028
0.0280625
0.0280629
0.0281116
0.0282417
0.0284583
0.0287481
0.0290187
0.0291837
0.0292063
0.0291482
0.029245
0.0297429
0.0308955
0.030898
0.0310747
0.0310666
0.030813
0.0306754
0.0307213
0.0308058
0.0306489
0.0298636
0.0295439
0.0299799
0.0300769
0.0297269
0.029352
0.0290327
0.0287632
0.0285879
0.0285
0.0284754
0.0285621
0.0287463
0.0290196
0.0293385
0.0296399
0.0298888
0.0300921
0.0302771
0.0304691
0.0306208
0.0321489
0.0320089
0.0314092
0.0312889
0.0314159
0.0314034
0.0312519
0.0309718
0.0306281
0.0302842
0.0300295
0.0298261
0.0297269
0.0296924
0.0296784
0.0297212
0.0298622
0.0300948
0.0304184
0.030763
0.0310893
0.0313735
0.0316384
0.0318534
0.031949
0.0318606
0.0317266
0.031402
0.0324761
0.0331626
0.0356578
0.0360423
0.0367689
0.0372485
0.0374658
0.0374824
0.0371099
0.0363705
0.0360186
0.0359955
0.0358849
0.0355985
0.0353072
0.0352001
0.0352849
0.0355092
0.0358044
0.0360536
0.0362927
0.0364514
0.0365299
0.0365383
0.0364186
0.0361916
0.0359127
0.0357021
0.0356194
0.0356406
0.0356092
0.0353971
0.0330575
0.0354978
0.0375903
0.0382124
0.0377157
0.0363826
0.0351163
0.0346086
0.0338044
0.0325299
0.0318558
0.0317436
0.0318287
0.0320185
0.0323125
0.032691
0.0331029
0.0334553
0.0336974
0.0337875
0.0336746
0.0334082
0.0330725
0.0327253
0.0324981
0.0324507
0.0324655
0.0321843
0.0307942
0.0288241
0.0354817
0.0379875
0.0370541
0.037172
0.0366817
0.0364493
0.036629
0.0370051
0.0374006
0.0377318
0.0380388
0.0382608
0.038404
0.0385168
0.0385102
0.0384332
0.0382489
0.0379733
0.037613
0.0372793
0.0371748
0.0372898
0.0371644
0.0365728
0.0356936
0.0349543
0.0347199
0.0345763
0.0344537
0.0348896
0.0353994
0.0346509
0.0337043
0.0331925
0.032583
0.0317121
0.0308209
0.0300659
0.0294172
0.0289373
0.0286279
0.0284403
0.0284067
0.0284969
0.0288086
0.0293457
0.0300687
0.030896
0.0315537
0.0321818
0.0337733
0.0361509
0.0376608
0.0372948
0.0358755
0.035055
0.0348281
0.0346244
0.0350463
0.0369482
0.0335675
0.0348615
0.0353278
0.0346951
0.0335712
0.0326543
0.03185
0.0310512
0.0303055
0.0296909
0.0292516
0.0290058
0.0288922
0.0289057
0.0290244
0.0292736
0.0296931
0.0302518
0.0309576
0.0316821
0.032186
0.0326271
0.0338834
0.0355936
0.0358064
0.0356759
0.0363365
0.0368517
0.0370205
0.03708
0.0356013
0.036079
0.035648
0.0348455
0.0339562
0.0327769
0.0313976
0.0300863
0.0290364
0.0283475
0.0280043
0.0279571
0.0282445
0.02893
0.0300874
0.0314857
0.0327184
0.0334801
0.0338586
0.0346232
0.0365539
0.0373261
0.0377934
0.038401
0.0387725
0.0389313
0.0389812
0.0390167
0.0390881
0.0391885
0.0368359
0.0368349
0.0366183
0.0366369
0.0368308
0.0370497
0.0372304
0.0373813
0.0374844
0.0375415
0.0375407
0.0375388
0.0375666
0.0376285
0.037651
0.0376241
0.0374002
0.0370854
0.0367236
0.0365367
0.036661
0.0365743
0.0357827
0.0346704
0.0337235
0.0335562
0.0342304
0.0354583
0.0362765
0.0364492
0.0450188
0.0408546
0.0428061
0.047979
0.050546
0.0522692
0.0523835
0.0515665
0.0504979
0.0493781
0.0481008
0.0469791
0.0459124
0.0455115
0.0456313
0.0464489
0.0476448
0.0488661
0.0498305
0.0503972
0.0505036
0.048885
0.0448402
0.0435153
0.0482746
0.0507182
0.0478518
0.0466375
0.0475017
0.0499031
0.0253344
0.0264474
0.0276227
0.0284472
0.0287769
0.0287709
0.0285496
0.0280886
0.0276773
0.0277738
0.0281417
0.0278529
0.0276498
0.0287131
0.0248063
0.0247252
0.0248211
0.0251517
0.0256335
0.0260218
0.0259291
0.0253386
0.0247253
0.0248893
0.0259507
0.0267574
0.0263464
0.0259362
0.0262903
0.0261123
0.0257545
0.0256643
0.0257756
0.0258833
0.0258828
0.025823
0.0258729
0.026041
0.0260449
0.0257742
0.0254539
0.0254651
0.0259188
0.0260877
0.0303569
0.0310899
0.0312072
0.0315307
0.031807
0.0311859
0.0295969
0.0281871
0.0274708
0.0275327
0.0285934
0.0295425
0.0294076
0.0288746
0.0283867
0.0281125
0.028013
0.0279968
0.0279997
0.0279934
0.0279958
0.028043
0.0282079
0.0285033
0.0288378
0.0290866
0.02916
0.0290977
0.0291988
0.0297678
0.030909
0.0309393
0.0311446
0.0311063
0.0308152
0.0306667
0.0306554
0.0308306
0.0306765
0.0298012
0.0295716
0.0300576
0.0299459
0.0295251
0.029165
0.0288399
0.0285349
0.0283655
0.0282583
0.0282236
0.0282888
0.0284279
0.0286773
0.0290084
0.0293648
0.0296855
0.0299508
0.0301777
0.0304027
0.0305916
0.032159
0.0318316
0.0311802
0.0314025
0.0314583
0.0313844
0.0311626
0.0308306
0.0304383
0.0300797
0.0298525
0.0296909
0.0296587
0.029628
0.029623
0.029617
0.0296637
0.0298379
0.0301498
0.0305247
0.0308976
0.0312211
0.0315225
0.0317807
0.0319169
0.0318908
0.0317639
0.0318309
0.0332559
0.033939
0.0356411
0.0359044
0.0365965
0.0371621
0.0374101
0.0373533
0.0368016
0.0361682
0.0359475
0.0359378
0.0357854
0.0354713
0.035176
0.0350995
0.0352404
0.0355368
0.0358737
0.0361627
0.0364421
0.0366106
0.0367173
0.0367425
0.0366324
0.0364008
0.0360713
0.0357839
0.0356216
0.0356103
0.035586
0.0353889
0.0330091
0.0353522
0.0377825
0.0387325
0.0386035
0.0371512
0.0354648
0.0348166
0.0342455
0.0329224
0.0319614
0.0317486
0.0318295
0.0320193
0.032329
0.032772
0.0332442
0.0336463
0.0339493
0.0340557
0.0339514
0.0336666
0.0332801
0.0328806
0.032569
0.032446
0.032421
0.0321576
0.030822
0.0288444
0.0360603
0.0376752
0.0376501
0.0375738
0.0367528
0.0364536
0.0366813
0.0371183
0.0375299
0.0378639
0.0382156
0.0384361
0.0386288
0.0387367
0.0387268
0.0386533
0.038466
0.0382019
0.0378074
0.0374339
0.0372023
0.0372701
0.0372715
0.0369171
0.0362049
0.0354099
0.0349647
0.0346627
0.0345375
0.0348379
0.0353982
0.0344402
0.0336749
0.0332107
0.0325006
0.0315156
0.0305843
0.0298149
0.0291409
0.0286905
0.0283132
0.0281371
0.0280676
0.0281475
0.0283974
0.0289012
0.0296073
0.0305007
0.0312558
0.0318938
0.0331451
0.035187
0.0367011
0.0364838
0.0353254
0.0347762
0.0347652
0.0345798
0.0348716
0.0367034
0.0341423
0.0354435
0.0353904
0.0344696
0.0332869
0.0324311
0.0315795
0.0307066
0.0299082
0.0292987
0.0289216
0.0287367
0.0286672
0.0286647
0.0287512
0.0289279
0.0292791
0.0298209
0.0305338
0.0313201
0.0319326
0.0324445
0.0337087
0.0354452
0.0356688
0.035794
0.0366855
0.0371736
0.0372216
0.037164
0.0366347
0.0364636
0.0355346
0.0347326
0.0338304
0.0324074
0.0307914
0.0293728
0.0282883
0.0276155
0.0272838
0.0272494
0.0274924
0.0281331
0.0292365
0.0306915
0.0321448
0.0331283
0.0335808
0.034462
0.0366088
0.0372155
0.0375319
0.0378222
0.0379234
0.0379146
0.0378708
0.037927
0.0382109
0.0387307
0.0368246
0.0368715
0.0366484
0.0366997
0.0369312
0.037173
0.0373708
0.037487
0.0375079
0.0374255
0.0373021
0.03722
0.0372366
0.0373507
0.0375065
0.037656
0.0375753
0.0373547
0.0369702
0.036565
0.0365878
0.0368072
0.0362245
0.0350415
0.0341564
0.033952
0.0345644
0.0355787
0.0362589
0.0364439
0.0456832
0.0422947
0.0437052
0.0499523
0.0516922
0.0524868
0.0521463
0.0510988
0.0497579
0.0483513
0.0466506
0.0451608
0.0437163
0.0431059
0.0432583
0.0444395
0.0461215
0.0479078
0.0492406
0.0499025
0.0502976
0.0504491
0.0475803
0.0419082
0.0438308
0.051354
0.0525672
0.0508552
0.0512308
0.0526277
0.0257722
0.0271584
0.0284459
0.0290406
0.0290084
0.0288089
0.0286728
0.0283478
0.0278188
0.0277913
0.0281606
0.0279466
0.0277821
0.0288342
0.0247913
0.0247042
0.0246848
0.0247188
0.0248004
0.024868
0.0246375
0.0242044
0.0239622
0.0244198
0.0258037
0.0266596
0.0262157
0.0260584
0.0262918
0.0258589
0.0255905
0.0257393
0.0259854
0.0261171
0.0260988
0.0259363
0.0258618
0.0260067
0.0260181
0.025727
0.0254162
0.0254831
0.0259577
0.0260988
0.0301163
0.0311207
0.031403
0.0317134
0.031692
0.0304979
0.0287806
0.0275335
0.0272185
0.0278146
0.02925
0.0296643
0.0291241
0.0285391
0.028172
0.0280235
0.0280001
0.0280218
0.0280398
0.0280366
0.0280113
0.0280179
0.0281104
0.0283783
0.0287324
0.0290062
0.02909
0.0290559
0.0292352
0.0298538
0.0309233
0.0309659
0.0311907
0.031198
0.0309565
0.0307304
0.030644
0.0308762
0.0306905
0.0297166
0.0296493
0.030071
0.0298663
0.0294802
0.0291582
0.0287681
0.0284329
0.0282461
0.028151
0.0281304
0.0281693
0.0282689
0.0284801
0.0287958
0.0291715
0.0295344
0.0298439
0.030108
0.0303667
0.0305694
0.03213
0.0316051
0.031206
0.0314256
0.0314758
0.0313766
0.0311317
0.0307745
0.0303658
0.0300201
0.029798
0.0296812
0.0296498
0.0296413
0.0296357
0.0296085
0.0296045
0.0297077
0.0299989
0.0303746
0.0307665
0.0311141
0.0314356
0.031723
0.0318927
0.0319149
0.0317327
0.0323347
0.0341445
0.0347647
0.0356413
0.0357559
0.0363012
0.0368409
0.0370868
0.0368988
0.036364
0.0359599
0.0359
0.0358685
0.0356995
0.0353655
0.0350625
0.0349975
0.0351686
0.0354983
0.035869
0.0361815
0.0364694
0.0366742
0.0368059
0.036811
0.0367241
0.0365064
0.0361562
0.0358337
0.0356259
0.0355884
0.0355613
0.0353881
0.0328784
0.0348778
0.0374865
0.0388015
0.0390438
0.0379855
0.0360139
0.0350141
0.0346883
0.0335073
0.0322123
0.0317855
0.0318274
0.0319895
0.0322768
0.0327293
0.0332178
0.0336265
0.0339302
0.0341021
0.0339725
0.0336746
0.0333251
0.0329159
0.0326031
0.032446
0.0323709
0.0320917
0.0306441
0.0287854
0.0366598
0.0376239
0.0384482
0.038014
0.0368658
0.036461
0.0366931
0.03716
0.03757
0.0379149
0.0382713
0.038508
0.0387374
0.0388339
0.0388446
0.0387609
0.0385719
0.0383302
0.0379308
0.0375391
0.0372448
0.037251
0.0373042
0.0371059
0.0365714
0.0358145
0.0350848
0.0348304
0.0348845
0.0351672
0.0353685
0.0345509
0.0337853
0.0332946
0.0325673
0.0315327
0.0305726
0.029769
0.0291037
0.0286113
0.0281978
0.0280159
0.0279479
0.0280009
0.028218
0.0286784
0.0293651
0.0302493
0.0310499
0.0317013
0.0327408
0.0343964
0.0356431
0.0354299
0.034685
0.0346402
0.0348238
0.0346218
0.0347833
0.0366403
0.0349775
0.0356838
0.0354624
0.0344347
0.0332075
0.0323605
0.0314692
0.0305346
0.0297541
0.0291458
0.0288024
0.0286485
0.0286065
0.0286123
0.0286525
0.0287998
0.0290672
0.0295998
0.0303061
0.0311195
0.031772
0.0323571
0.0336231
0.0353681
0.0355301
0.0360694
0.0371428
0.0374069
0.0373361
0.0372342
0.0372491
0.036542
0.03535
0.0347721
0.0338448
0.0321844
0.0303859
0.0289463
0.0278676
0.0271591
0.0268568
0.0268831
0.0271164
0.0277004
0.0287591
0.0302348
0.0317652
0.0328668
0.0334002
0.0345707
0.0367817
0.0370821
0.037137
0.0370695
0.0369065
0.0367828
0.0367299
0.0367267
0.0367488
0.0368164
0.0367492
0.0369344
0.0367182
0.0367292
0.0369681
0.0372302
0.0374257
0.037511
0.0374459
0.0372582
0.0370269
0.0369123
0.036939
0.0370786
0.0373132