/*--------------------------------*- C++ -*----------------------------------*\
| =========                 |                                                 |
| \\      /  F ield         | OpenFOAM: The Open Source CFD Toolbox           |
|  \\    /   O peration     | Version:  2.1.1                                 |
|   \\  /    A nd           | Web:      www.OpenFOAM.org                      |
|    \\/     M anipulation  |                                                 |
\*---------------------------------------------------------------------------*/
FoamFile
{
    version     2.0;
    format      ascii;
    class       volScalarField;
    location    "0.007750000";
    object      H;
}
// * * * * * * * * * * * * * * * * * * * * * * * * * * * * * * * * * * * * * //

dimensions      [0 0 0 0 0 0 0];

internalField   nonuniform List<scalar> 
12384
(
0.0001227
0.00010964
9.52998e-05
8.28471e-05
8.10438e-05
7.92824e-05
8.14189e-05
8.2696e-05
9.16113e-05
0.000102748
0.00011883
0.000136016
0.00015697
0.000182629
2.36554e-05
2.58022e-05
2.9055e-05
4.27376e-05
5.29604e-05
6.08424e-05
6.27297e-05
6.30576e-05
6.24663e-05
6.10886e-05
5.88166e-05
5.64155e-05
5.27506e-05
4.88955e-05
4.41108e-05
4.00142e-05
4.02976e-05
3.85352e-05
3.69436e-05
3.63063e-05
3.60414e-05
3.60962e-05
3.66053e-05
3.72123e-05
3.81033e-05
3.90913e-05
3.9071e-05
3.71464e-05
2.4708e-05
1.23679e-05
7.6874e-05
8.45882e-05
8.0165e-05
7.52524e-05
7.23535e-05
6.9712e-05
6.86442e-05
6.61946e-05
6.83923e-05
6.72429e-05
6.63573e-05
6.52396e-05
6.3913e-05
6.33656e-05
6.33884e-05
6.37181e-05
6.43373e-05
6.52977e-05
6.64032e-05
6.74103e-05
6.43619e-05
6.53549e-05
6.6557e-05
6.77972e-05
6.88433e-05
6.98653e-05
7.15478e-05
7.59882e-05
7.18695e-05
6.94799e-05
8.47167e-05
8.28666e-05
8.00399e-05
7.94943e-05
7.917e-05
7.83997e-05
7.79171e-05
7.7406e-05
7.66831e-05
7.58533e-05
7.54316e-05
7.50133e-05
7.42438e-05
7.4279e-05
7.3889e-05
7.32081e-05
7.38132e-05
7.23511e-05
7.28846e-05
7.26363e-05
7.17377e-05
7.24487e-05
7.28305e-05
7.37597e-05
7.48967e-05
7.66276e-05
7.7996e-05
7.80684e-05
7.64644e-05
7.53802e-05
9.53129e-05
9.42525e-05
9.45608e-05
9.51135e-05
9.51531e-05
9.43917e-05
9.37311e-05
9.27679e-05
9.25537e-05
9.2017e-05
9.23564e-05
9.01915e-05
9.0905e-05
8.96062e-05
9.07689e-05
9.01231e-05
9.28175e-05
9.31132e-05
9.42628e-05
9.53898e-05
9.59628e-05
9.3307e-05
8.63038e-05
8.63142e-05
8.71424e-05
8.70227e-05
8.72791e-05
8.73989e-05
8.75015e-05
8.74039e-05
9.18786e-05
9.19601e-05
9.41313e-05
9.47124e-05
9.38534e-05
9.31465e-05
9.14217e-05
9.10593e-05
9.10588e-05
9.08037e-05
9.02741e-05
9.01997e-05
9.0227e-05
9.01762e-05
9.01444e-05
9.01905e-05
9.00959e-05
8.97509e-05
8.88974e-05
8.97591e-05
8.91858e-05
9.00154e-05
9.02558e-05
9.08157e-05
9.14986e-05
9.13918e-05
9.17996e-05
9.22342e-05
9.5806e-05
9.74568e-05
6.75216e-05
7.2673e-05
7.73658e-05
7.92245e-05
7.94915e-05
7.96373e-05
7.96551e-05
7.92904e-05
7.86816e-05
7.7837e-05
7.67731e-05
7.57756e-05
7.4739e-05
7.37758e-05
7.29736e-05
7.22054e-05
7.16406e-05
7.15951e-05
7.1514e-05
7.20559e-05
7.16101e-05
7.37211e-05
7.507e-05
7.59767e-05
7.64968e-05
7.4009e-05
4.20201e-05
2.32413e-05
2.80295e-05
3.16369e-05
8.88043e-05
9.40571e-05
9.6071e-05
9.71875e-05
9.66143e-05
9.64602e-05
9.72241e-05
9.66957e-05
9.55107e-05
9.53487e-05
9.30597e-05
9.12931e-05
9.13153e-05
9.15664e-05
9.1545e-05
9.21016e-05
9.32756e-05
9.68309e-05
9.76064e-05
9.99253e-05
9.69926e-05
9.19046e-05
9.21179e-05
9.41295e-05
9.38677e-05
9.56385e-05
9.60152e-05
9.64323e-05
9.65884e-05
9.63555e-05
9.35384e-05
9.47683e-05
9.59693e-05
9.68037e-05
9.68044e-05
9.61252e-05
9.47456e-05
9.33688e-05
9.11356e-05
8.97649e-05
8.83619e-05
8.69137e-05
8.65118e-05
8.70158e-05
8.74408e-05
8.86605e-05
9.0092e-05
9.0529e-05
9.32867e-05
8.7817e-05
8.8359e-05
8.85821e-05
8.87354e-05
8.95984e-05
9.00945e-05
9.05908e-05
9.11737e-05
9.09158e-05
8.70287e-05
7.95622e-05
7.83498e-05
7.79474e-05
7.91119e-05
8.1137e-05
8.35673e-05
8.50688e-05
8.51807e-05
8.44491e-05
8.30121e-05
8.13894e-05
7.98198e-05
7.89616e-05
7.7551e-05
7.84734e-05
7.78069e-05
7.93882e-05
8.10821e-05
8.20465e-05
8.11991e-05
8.14231e-05
8.11044e-05
8.01485e-05
8.0113e-05
8.00394e-05
7.98762e-05
7.97599e-05
7.96171e-05
7.94458e-05
7.95873e-05
7.9348e-05
7.84519e-05
7.93576e-05
7.83991e-05
7.91555e-05
8.00048e-05
8.06052e-05
8.03228e-05
7.99456e-05
8.03058e-05
7.94658e-05
7.93475e-05
8.01734e-05
8.17764e-05
8.34356e-05
8.26272e-05
7.79626e-05
6.91024e-05
6.65334e-05
6.49705e-05
6.36546e-05
6.28383e-05
6.25667e-05
6.08851e-05
6.13817e-05
5.94705e-05
5.91713e-05
5.87868e-05
5.90584e-05
5.88612e-05
6.06235e-05
5.60113e-05
5.6115e-05
5.60024e-05
5.85627e-05
5.88692e-05
5.83016e-05
5.80546e-05
5.82952e-05
5.83392e-05
5.83968e-05
5.84464e-05
5.8842e-05
5.87031e-05
5.87983e-05
5.85228e-05
5.99192e-05
5.95437e-05
6.09607e-05
6.04868e-05
6.15132e-05
6.14016e-05
6.19634e-05
6.25373e-05
6.23024e-05
6.20136e-05
6.19713e-05
6.22125e-05
6.30122e-05
6.39253e-05
6.35288e-05
6.56045e-05
6.53096e-05
6.49299e-05
6.44128e-05
6.4255e-05
6.32006e-05
6.45195e-05
5.88764e-05
5.67924e-05
5.63333e-05
5.43723e-05
5.46334e-05
5.13166e-05
5.13205e-05
5.12295e-05
5.14087e-05
5.19554e-05
5.07218e-05
5.0908e-05
5.08723e-05
5.09515e-05
4.88881e-05
4.87224e-05
4.62964e-05
4.68598e-05
4.64507e-05
4.74286e-05
4.54051e-05
4.8148e-05
5.06104e-05
9.18363e-05
7.43682e-05
5.43982e-05
5.07525e-05
5.07795e-05
5.06232e-05
5.51679e-05
5.91003e-05
6.39054e-05
7.10873e-05
8.11509e-05
0.000107802
0.000141532
0.000180031
2.37014e-05
2.62003e-05
3.31317e-05
4.85686e-05
6.88669e-05
7.43901e-05
7.55097e-05
7.52416e-05
7.30542e-05
7.00086e-05
6.50197e-05
6.23053e-05
5.46963e-05
4.5543e-05
3.96738e-05
3.47387e-05
3.19197e-05
3.05e-05
2.95767e-05
2.93027e-05
2.90999e-05
2.90024e-05
2.96402e-05
3.05693e-05
3.20631e-05
3.46177e-05
3.71097e-05
3.80109e-05
3.39671e-05
2.14722e-05
7.80915e-05
8.39925e-05
7.79684e-05
7.21215e-05
6.74724e-05
6.71289e-05
6.48929e-05
6.2405e-05
6.09451e-05
5.96175e-05
5.82832e-05
5.62799e-05
5.48795e-05
5.48715e-05
5.73639e-05
5.94759e-05
6.18691e-05
6.35863e-05
6.48198e-05
6.55949e-05
6.63752e-05
6.72873e-05
6.45102e-05
6.58098e-05
6.72788e-05
6.8464e-05
6.97619e-05
7.31653e-05
7.6228e-05
7.67894e-05
8.4999e-05
8.24122e-05
8.05814e-05
8.114e-05
8.11254e-05
8.06754e-05
7.99758e-05
7.84806e-05
7.62413e-05
7.43001e-05
7.26896e-05
7.20246e-05
7.29147e-05
7.33521e-05
7.31836e-05
7.36034e-05
7.28172e-05
7.17281e-05
7.13718e-05
7.10387e-05
7.06146e-05
7.0613e-05
7.11985e-05
7.20853e-05
7.2941e-05
7.4989e-05
7.65896e-05
7.785e-05
7.79448e-05
7.70477e-05
9.53973e-05
9.38592e-05
9.40294e-05
9.43609e-05
9.34289e-05
9.59622e-05
9.4922e-05
9.38883e-05
9.34809e-05
9.26421e-05
9.28077e-05
9.02725e-05
9.06029e-05
9.02366e-05
9.05517e-05
9.21505e-05
9.32117e-05
9.50153e-05
9.84209e-05
9.44037e-05
9.59457e-05
9.6181e-05
9.07418e-05
8.68761e-05
8.73507e-05
8.90623e-05
8.4823e-05
8.58579e-05
9.08239e-05
8.83197e-05
9.14833e-05
9.32423e-05
9.51086e-05
9.54738e-05
9.3271e-05
9.12918e-05
8.99749e-05
8.89921e-05
8.76247e-05
8.7278e-05
8.71424e-05
8.7095e-05
8.77768e-05
8.92372e-05
9.09982e-05
9.16332e-05
9.24205e-05
9.32277e-05
9.38031e-05
9.34491e-05
9.31061e-05
9.23754e-05
9.21571e-05
9.20874e-05
9.21724e-05
9.19584e-05
9.2362e-05
9.23674e-05
9.40366e-05
9.74103e-05
6.83536e-05
7.56944e-05
7.91948e-05
7.93786e-05
7.89004e-05
7.86759e-05
8.0265e-05
7.88575e-05
7.63957e-05
7.29439e-05
7.02553e-05
6.92192e-05
6.84081e-05
6.80232e-05
6.77106e-05
6.75844e-05
6.76949e-05
6.78217e-05
6.76356e-05
6.82498e-05
6.89064e-05
6.97652e-05
7.13611e-05
7.33418e-05
7.44569e-05
7.47224e-05
6.85392e-05
4.09379e-05
2.70519e-05
3.27664e-05
8.81484e-05
9.41153e-05
9.71262e-05
9.68658e-05
9.67133e-05
9.62528e-05
9.56223e-05
9.45713e-05
9.41958e-05
9.26787e-05
9.07014e-05
9.16864e-05
8.96784e-05
8.89992e-05
8.8679e-05
9.04759e-05
9.18098e-05
9.27542e-05
9.43419e-05
9.7749e-05
9.83093e-05
9.59822e-05
9.22891e-05
9.33032e-05
9.5924e-05
9.70711e-05
9.62267e-05
9.74218e-05
9.66276e-05
9.64833e-05
9.25957e-05
9.365e-05
9.70639e-05
9.79568e-05
9.67905e-05
9.43083e-05
9.1623e-05
8.85615e-05
8.56615e-05
8.42986e-05
8.11354e-05
8.08539e-05
8.05304e-05
8.12555e-05
8.24519e-05
8.42053e-05
8.56463e-05
8.75008e-05
9.18903e-05
9.08965e-05
8.76408e-05
8.67025e-05
8.62738e-05
8.64889e-05
8.78562e-05
8.85261e-05
9.04724e-05
9.26436e-05
9.20346e-05
8.2756e-05
7.8312e-05
7.75857e-05
7.90391e-05
8.4168e-05
8.78043e-05
8.79599e-05
8.58286e-05
8.2387e-05
7.88719e-05
7.56724e-05
7.34135e-05
7.13604e-05
7.11444e-05
7.06794e-05
7.18699e-05
7.40755e-05
7.59475e-05
7.78964e-05
7.93088e-05
7.99902e-05
8.28406e-05
8.142e-05
7.98506e-05
7.94422e-05
7.94322e-05
7.98348e-05
7.95597e-05
7.89939e-05
7.9625e-05
7.93753e-05
7.77862e-05
7.82261e-05
7.70649e-05
7.87706e-05
7.9196e-05
7.85422e-05
7.84692e-05
7.61061e-05
7.36777e-05
7.25112e-05
7.24092e-05
7.27648e-05
7.44298e-05
7.7294e-05
7.98833e-05
8.18361e-05
7.72166e-05
7.28283e-05
6.80401e-05
6.56307e-05
6.23888e-05
5.99753e-05
5.82949e-05
5.85318e-05
5.79225e-05
5.7633e-05
5.75811e-05
5.84735e-05
5.85825e-05
6.04222e-05
5.57289e-05
5.51985e-05
5.79429e-05
5.93607e-05
5.84929e-05
5.82405e-05
5.87039e-05
5.93191e-05
5.90373e-05
5.93738e-05
5.98018e-05
5.96369e-05
6.02174e-05
5.9647e-05
6.01127e-05
5.96975e-05
6.00354e-05
5.98086e-05
6.02879e-05
6.06184e-05
6.05669e-05
6.12915e-05
6.17644e-05
6.22559e-05
6.26578e-05
6.27677e-05
6.22681e-05
6.29802e-05
6.38017e-05
6.40924e-05
6.53501e-05
6.53112e-05
6.49309e-05
6.47804e-05
6.41758e-05
6.25941e-05
6.01594e-05
5.57154e-05
5.71372e-05
5.71751e-05
5.63407e-05
5.53482e-05
5.5351e-05
5.82435e-05
5.75034e-05
5.59287e-05
5.77325e-05
5.58279e-05
5.53829e-05
5.50933e-05
5.60314e-05
5.34651e-05
5.29198e-05
5.09713e-05
4.93782e-05
4.6767e-05
4.6316e-05
4.60985e-05
4.82466e-05
4.88483e-05
6.3077e-05
4.64104e-05
4.16369e-05
4.52976e-05
5.05316e-05
6.0271e-05
6.94372e-05
7.18918e-05
7.64757e-05
7.52971e-05
7.62512e-05
8.70942e-05
0.000119872
0.000177089
2.37058e-05
2.63801e-05
3.55969e-05
5.82647e-05
7.80921e-05
8.83455e-05
8.87716e-05
8.90563e-05
8.75673e-05
8.20233e-05
7.24304e-05
6.6298e-05
5.48618e-05
4.14482e-05
3.56616e-05
3.24328e-05
3.16093e-05
3.22816e-05
3.28628e-05
3.35892e-05
3.35503e-05
3.31055e-05
3.1998e-05
3.09551e-05
3.00839e-05
3.11336e-05
3.35423e-05
3.64519e-05
3.64732e-05
2.84204e-05
7.8645e-05
8.33716e-05
7.69948e-05
7.18378e-05
6.92192e-05
7.01539e-05
6.7568e-05
6.35849e-05
6.05419e-05
5.86898e-05
5.52061e-05
5.31834e-05
5.40481e-05
5.84641e-05
6.39644e-05
6.7329e-05
6.57148e-05
6.66845e-05
6.68685e-05
6.70028e-05
6.68202e-05
6.68916e-05
6.68266e-05
6.66142e-05
6.70316e-05
6.74987e-05
6.83373e-05
7.02382e-05
7.44237e-05
7.80034e-05
8.46009e-05
8.23094e-05
8.21854e-05
8.37927e-05
8.38709e-05
8.31577e-05
8.23722e-05
8.05517e-05
7.75935e-05
7.35646e-05
7.00944e-05
7.01877e-05
7.27793e-05
7.35664e-05
7.33251e-05
7.22024e-05
6.97471e-05
6.92317e-05
6.78236e-05
6.71588e-05
6.77008e-05
6.83108e-05
6.90477e-05
7.00772e-05
7.08553e-05
7.24237e-05
7.4395e-05
7.62591e-05
7.7488e-05
7.737e-05
9.54554e-05
9.33155e-05
9.33037e-05
9.29883e-05
9.35107e-05
9.24388e-05
9.31123e-05
9.3558e-05
9.44868e-05
9.30287e-05
9.28869e-05
9.06177e-05
9.01055e-05
8.86053e-05
8.91202e-05
8.9237e-05
9.08641e-05
9.2408e-05
9.44628e-05
9.70241e-05
9.9298e-05
9.61496e-05
9.44178e-05
8.9332e-05
8.70926e-05
8.53963e-05
7.97247e-05
7.92833e-05
8.51833e-05
8.65369e-05
9.15767e-05
9.42562e-05
9.64474e-05
9.63749e-05
9.46651e-05
9.22408e-05
9.112e-05
9.00228e-05
8.80092e-05
8.71595e-05
8.66131e-05
8.7425e-05
8.97182e-05
9.23117e-05
9.57945e-05
9.8581e-05
9.93036e-05
0.00010137
0.000101578
0.000101848
0.000102149
0.000101234
9.95337e-05
9.74722e-05
9.58917e-05
9.39408e-05
9.33921e-05
9.27205e-05
9.35375e-05
9.62686e-05
6.89643e-05
7.87868e-05
7.99839e-05
7.90862e-05
7.8154e-05
7.83413e-05
7.98366e-05
7.79671e-05
7.40691e-05
6.95483e-05
6.69449e-05
6.61891e-05
6.98811e-05
6.68759e-05
6.77039e-05
6.86369e-05
6.87392e-05
6.95562e-05
7.05997e-05
6.99839e-05
6.99874e-05
7.02643e-05
7.06021e-05
7.18155e-05
7.29622e-05
7.43286e-05
7.27508e-05
6.09995e-05
3.8961e-05
3.06767e-05
8.60857e-05
9.33047e-05
9.66013e-05
9.66957e-05
9.61771e-05
9.56767e-05
9.47292e-05
9.41216e-05
9.36655e-05
9.13965e-05
9.11503e-05
9.14362e-05
8.87747e-05
8.98596e-05
8.98434e-05
9.01189e-05
9.052e-05
9.12786e-05
9.28653e-05
9.45906e-05
9.71232e-05
9.79027e-05
9.44923e-05
9.30953e-05
9.35537e-05
9.43083e-05
9.60679e-05
9.83084e-05
9.69093e-05
9.72434e-05
9.23738e-05
9.61037e-05
9.91087e-05
9.73254e-05
9.38363e-05
8.9989e-05
8.6257e-05
8.27442e-05
8.34142e-05
7.81855e-05
7.5075e-05
7.39777e-05
7.31723e-05
7.46833e-05
7.86138e-05
8.35129e-05
8.17471e-05
8.42126e-05
8.7049e-05
9.43591e-05
8.91313e-05
8.44942e-05
8.43654e-05
8.56544e-05
8.76855e-05
8.81507e-05
8.82203e-05
8.99699e-05
9.30426e-05
8.74279e-05
7.80569e-05
7.75704e-05
8.15846e-05
8.85458e-05
9.00265e-05
8.63613e-05
8.07659e-05
7.59352e-05
7.16964e-05
6.87368e-05
6.97057e-05
6.65439e-05
6.52734e-05
6.59819e-05
6.6853e-05
7.02695e-05
6.99907e-05
7.28843e-05
7.55705e-05
7.68219e-05
7.86246e-05
8.26175e-05
8.09164e-05
7.97153e-05
7.97065e-05
7.98856e-05
7.89137e-05
7.90556e-05
7.94295e-05
7.94689e-05
7.7295e-05
7.56148e-05
7.77096e-05
7.89247e-05
7.74423e-05
7.62096e-05
7.25206e-05
6.88937e-05
6.67708e-05
6.55078e-05
6.45815e-05
6.53305e-05
6.72926e-05
7.02994e-05
7.38883e-05
7.78901e-05
8.10213e-05
7.81829e-05
7.45273e-05
7.13256e-05
6.45036e-05
5.96864e-05
5.84602e-05
5.86355e-05
5.88106e-05
5.77621e-05
5.74265e-05
5.79912e-05
5.86439e-05
6.07848e-05
5.66276e-05
5.93799e-05
5.96263e-05
5.92113e-05
5.86404e-05
5.95904e-05
5.9958e-05
6.17264e-05
6.31264e-05
6.36512e-05
6.44037e-05
6.45686e-05
6.61064e-05
6.39718e-05
6.43184e-05
6.32154e-05
6.17528e-05
6.07527e-05
5.98172e-05
6.00934e-05
6.01133e-05
6.07908e-05
6.20543e-05
6.31018e-05
6.43625e-05
6.35854e-05
6.29867e-05
6.26119e-05
6.37758e-05
6.41367e-05
6.25743e-05
6.52162e-05
6.5222e-05
6.426e-05
6.40346e-05
6.27659e-05
5.96498e-05
5.88798e-05
5.94178e-05
5.71064e-05
6.01569e-05
6.14176e-05
6.1704e-05
6.23365e-05
6.28276e-05
6.14331e-05
5.94029e-05
5.91655e-05
5.80504e-05
5.62801e-05
5.71023e-05
5.61989e-05
5.50764e-05
5.31607e-05
5.27578e-05
5.00794e-05
4.8305e-05
4.71566e-05
4.96707e-05
4.92764e-05
3.87781e-05
3.72581e-05
4.45801e-05
5.51087e-05
6.74752e-05
7.42299e-05
8.12447e-05
8.91788e-05
9.97913e-05
0.000104567
9.44728e-05
8.82729e-05
0.000108073
0.000167943
2.34629e-05
2.57164e-05
3.41715e-05
5.92998e-05
8.32902e-05
9.6938e-05
9.97553e-05
9.87021e-05
9.077e-05
8.4087e-05
7.56677e-05
6.53816e-05
5.23015e-05
3.93282e-05
3.38866e-05
3.39063e-05
3.59759e-05
3.77094e-05
3.96669e-05
4.03815e-05
4.09484e-05
4.028e-05
3.86228e-05
3.5892e-05
3.28478e-05
3.0933e-05
3.16049e-05
3.415e-05
3.64205e-05
3.12939e-05
7.88309e-05
8.36738e-05
7.81747e-05
7.57376e-05
7.62709e-05
7.634e-05
7.22398e-05
6.69124e-05
6.01506e-05
5.57703e-05
5.10126e-05
5.14928e-05
5.88311e-05
6.70109e-05
6.7663e-05
6.8116e-05
6.74429e-05
6.61752e-05
6.87429e-05
6.82113e-05
6.51991e-05
6.58071e-05
6.73758e-05
6.755e-05
6.76783e-05
6.75694e-05
6.78406e-05
6.85193e-05
7.21466e-05
7.73982e-05
8.44962e-05
8.27653e-05
8.39393e-05
8.57947e-05
8.47722e-05
8.35893e-05
8.26826e-05
8.1908e-05
7.92677e-05
7.31882e-05
6.9497e-05
6.99811e-05
7.31099e-05
7.26235e-05
7.06324e-05
6.64708e-05
6.32998e-05
6.12894e-05
5.88373e-05
5.91744e-05
6.02979e-05
6.21115e-05
6.42417e-05
6.67023e-05
6.83044e-05
7.00172e-05
7.21728e-05
7.42734e-05
7.62702e-05
7.71354e-05
9.56663e-05
9.3074e-05
9.34786e-05
9.24131e-05
9.11497e-05
9.32564e-05
9.59616e-05
9.60868e-05
9.51506e-05
9.23285e-05
9.03568e-05
8.7276e-05
8.53559e-05
8.57879e-05
8.53501e-05
8.64015e-05
8.71653e-05
8.82003e-05
9.12483e-05
9.40264e-05
9.61611e-05
9.93471e-05
9.64753e-05
9.28017e-05
8.78252e-05
8.83068e-05
8.28969e-05
7.95597e-05
8.72814e-05
8.74671e-05
9.15151e-05
9.47695e-05
9.72828e-05
9.79796e-05
9.75244e-05
9.68628e-05
9.42087e-05
9.09991e-05
8.90045e-05
8.73311e-05
8.69452e-05
8.87134e-05
9.23414e-05
9.70486e-05
9.93469e-05
0.000102261
0.000104594
0.000106278
0.000107414
0.000110409
0.000110591
0.000109673
0.00010805
0.000104667
0.000101187
9.74647e-05
9.53973e-05
9.37304e-05
9.33717e-05
9.56945e-05
6.9425e-05
7.93359e-05
7.97717e-05
7.93131e-05
7.84313e-05
7.86856e-05
7.9374e-05
7.87642e-05
7.33757e-05
6.79876e-05
6.57041e-05
6.88962e-05
6.96803e-05
6.74929e-05
6.84309e-05
7.02137e-05
7.23704e-05
7.38885e-05
7.46851e-05
7.58795e-05
7.51998e-05
7.40152e-05
7.24614e-05
7.20961e-05
7.2217e-05
7.31357e-05
7.34998e-05
7.28099e-05
4.80116e-05
3.29497e-05
8.61487e-05
9.51278e-05
9.73546e-05
9.70531e-05
9.67493e-05
9.58265e-05
9.45968e-05
9.39277e-05
9.25663e-05
9.15576e-05
9.17715e-05
9.10462e-05
8.98427e-05
9.07655e-05
9.06472e-05
9.06986e-05
9.13146e-05
9.15247e-05
9.13884e-05
9.24466e-05
9.62497e-05
9.7488e-05
9.65682e-05
9.42197e-05
9.44354e-05
9.31948e-05
9.52478e-05
9.72534e-05
9.92834e-05
9.7511e-05
9.54104e-05
0.000100342
9.87182e-05
9.41538e-05
8.97256e-05
8.56088e-05
8.18203e-05
7.8108e-05
7.11855e-05
6.49063e-05
6.13518e-05
5.81345e-05
5.81545e-05
6.03013e-05
6.48398e-05
7.13392e-05
7.8866e-05
8.05873e-05
8.39087e-05
8.92194e-05
9.12131e-05
8.58015e-05
8.27481e-05
8.5935e-05
8.81522e-05
8.93069e-05
8.85521e-05
8.8393e-05
9.11425e-05
9.02009e-05
7.79634e-05
7.81677e-05
8.74424e-05
9.03494e-05
8.8735e-05
8.12022e-05
7.50407e-05
7.01316e-05
6.85818e-05
6.2691e-05
5.75918e-05
5.38979e-05
5.25241e-05
5.24941e-05
5.55871e-05
5.81972e-05
6.30452e-05
7.10838e-05
7.09182e-05
7.38782e-05
7.53457e-05
7.84565e-05
8.1151e-05
7.92981e-05
7.92234e-05
7.97803e-05
7.83046e-05
7.77482e-05
7.88521e-05
7.88752e-05
7.60875e-05
7.67113e-05
7.93682e-05
7.75526e-05
7.61836e-05
7.1296e-05
6.6718e-05
6.45276e-05
6.17805e-05
5.49217e-05
5.23549e-05
5.26265e-05
5.75166e-05
6.61104e-05
6.81975e-05
7.27172e-05
7.75755e-05
8.04801e-05
7.86775e-05
7.50815e-05
6.80705e-05
6.12807e-05
5.9072e-05
5.93251e-05
6.09156e-05
6.04743e-05
5.92183e-05
5.84341e-05
5.93314e-05
6.08915e-05
5.84823e-05
5.97021e-05
5.90665e-05
5.92513e-05
5.93692e-05
6.13295e-05
6.32868e-05
6.61887e-05
6.8408e-05
7.10831e-05
7.3344e-05
7.30367e-05
7.38738e-05
7.32942e-05
7.23566e-05
6.78977e-05
6.67139e-05
6.3479e-05
6.09587e-05
6.00645e-05
5.99083e-05
6.07415e-05
6.23614e-05
6.4283e-05
6.32365e-05
6.34554e-05
6.41863e-05
6.31134e-05
6.38797e-05
6.39244e-05
6.2756e-05
6.60094e-05
6.66026e-05
6.62416e-05
6.47658e-05
6.07103e-05
6.05767e-05
6.11606e-05
6.05808e-05
6.50543e-05
6.72842e-05
6.85788e-05
7.08521e-05
7.11114e-05
6.96938e-05
6.71961e-05
6.45531e-05
6.2252e-05
5.85358e-05
5.89386e-05
5.61213e-05
5.69105e-05
5.62494e-05
5.3052e-05
5.1859e-05
5.36205e-05
5.10922e-05
5.11514e-05
5.0874e-05
5.02699e-05
3.27169e-05
4.26182e-05
5.55891e-05
6.72605e-05
7.90397e-05
8.37129e-05
8.21702e-05
8.1475e-05
8.92228e-05
0.000105645
0.000109137
9.79592e-05
0.000104453
0.000159836
2.35229e-05
2.49146e-05
2.99268e-05
5.37434e-05
8.17647e-05
9.42617e-05
9.7465e-05
9.19798e-05
7.52275e-05
6.32124e-05
6.27201e-05
6.01531e-05
4.65888e-05
3.5716e-05
3.46494e-05
3.75577e-05
4.05874e-05
4.29449e-05
4.44986e-05
4.59202e-05
4.58328e-05
4.56749e-05
4.41189e-05
4.12894e-05
3.71686e-05
3.32064e-05
3.15344e-05
3.28238e-05
3.5768e-05
3.2467e-05
7.83684e-05
8.43681e-05
8.12417e-05
8.2314e-05
8.71441e-05
8.76939e-05
7.85615e-05
6.79502e-05
5.75418e-05
4.98771e-05
4.81703e-05
5.62164e-05
6.42081e-05
6.8986e-05
6.78651e-05
6.76297e-05
6.3702e-05
6.08503e-05
5.91367e-05
5.92666e-05
6.01582e-05
6.24224e-05
6.55282e-05
6.8869e-05
6.73763e-05
6.79106e-05
6.77936e-05
6.77498e-05
7.03962e-05
7.6637e-05
8.45723e-05
8.34046e-05
8.55711e-05
8.66034e-05
8.38742e-05
8.20849e-05
8.13347e-05
8.19955e-05
8.03607e-05
7.29412e-05
6.9236e-05
7.11552e-05
7.26459e-05
6.95679e-05
6.43097e-05
5.85085e-05
5.52851e-05
5.42154e-05
5.30476e-05
5.30077e-05
5.43285e-05
5.43494e-05
5.78737e-05
6.14605e-05
6.48541e-05
6.71552e-05
6.9667e-05
7.23272e-05
7.48316e-05
7.66493e-05
9.59153e-05
9.29388e-05
9.16091e-05
9.02217e-05
9.32793e-05
9.70524e-05
9.74921e-05
9.54313e-05
9.24765e-05
8.85774e-05
8.56398e-05
8.1755e-05
8.09453e-05
7.91788e-05
7.98176e-05
8.09549e-05
8.32604e-05
8.53408e-05
8.86e-05
9.06386e-05
9.36981e-05
9.72196e-05
0.000100298
9.44777e-05
9.08929e-05
9.21192e-05
8.97437e-05
8.24401e-05
8.68422e-05
9.01469e-05
9.20188e-05
9.519e-05
9.83467e-05
0.000100923
0.000101184
0.000101222
9.75983e-05
9.25125e-05
8.90889e-05
8.718e-05
8.76104e-05
9.11634e-05
9.58876e-05
9.83979e-05
0.000101089
0.00010355
0.000106359
0.000110531
0.00011363
0.000116277
0.000116635
0.000116468
0.000115228
0.000111649
0.000106796
0.000101268
9.81856e-05
9.50163e-05
9.35754e-05
9.52098e-05
6.97525e-05
7.99077e-05
8.06938e-05
7.98713e-05
7.93445e-05
8.0173e-05
8.02371e-05
8.00607e-05
7.41806e-05
6.77898e-05
6.51845e-05
6.83939e-05
6.98428e-05
6.79395e-05
6.93262e-05
7.25598e-05
7.5941e-05
7.85569e-05
8.0706e-05
8.03876e-05
8.02635e-05
7.87141e-05
7.57374e-05
7.37829e-05
7.23823e-05
7.23526e-05
7.29393e-05
7.09475e-05
5.57613e-05
3.56116e-05
8.61014e-05
9.67107e-05
9.67728e-05
9.71307e-05
9.71933e-05
9.59041e-05
9.44652e-05
9.35895e-05
9.16887e-05
9.30167e-05
9.14894e-05
9.14162e-05
9.15168e-05
8.96513e-05
8.90422e-05
9.01083e-05
9.0992e-05
9.15462e-05
9.1647e-05
9.11085e-05
9.52533e-05
9.67159e-05
9.78596e-05
9.6586e-05
9.40235e-05
9.40015e-05
9.51478e-05
9.70733e-05
9.83935e-05
9.77805e-05
9.91058e-05
9.80917e-05
9.57182e-05
9.09214e-05
8.70227e-05
8.25965e-05
7.86994e-05
6.92853e-05
6.09952e-05
5.44635e-05
5.01087e-05
5.03551e-05
5.04011e-05
4.99244e-05
5.39359e-05
6.04704e-05
6.89479e-05
7.82218e-05
8.06555e-05
8.501e-05
9.35217e-05
8.72923e-05
8.36542e-05
8.52174e-05
8.8914e-05
8.98199e-05
8.93933e-05
8.85688e-05
9.08951e-05
9.00209e-05
7.75799e-05
8.28808e-05
9.19411e-05
9.14953e-05
8.43171e-05
7.62418e-05
7.06222e-05
6.82659e-05
5.99588e-05
5.39306e-05
4.74377e-05
4.42175e-05
4.24581e-05
4.22108e-05
4.38081e-05
4.86171e-05
5.37183e-05
5.97874e-05
6.81394e-05
6.98441e-05
7.29988e-05
7.57802e-05
8.14745e-05
7.9687e-05
7.94136e-05
7.98323e-05
7.84873e-05
7.77698e-05
7.88599e-05
7.95469e-05
7.53178e-05
8.00102e-05
7.98251e-05
7.55401e-05
7.26921e-05
6.77282e-05
6.44919e-05
5.84572e-05
4.78726e-05
4.08026e-05
3.95886e-05
4.03252e-05
4.19154e-05
5.00885e-05
6.24648e-05
6.85789e-05
7.36291e-05
7.75022e-05
8.01472e-05
7.82163e-05
6.85039e-05
6.21405e-05
6.10808e-05
5.99194e-05
6.16799e-05
6.16912e-05
6.15215e-05
6.03184e-05
6.1213e-05
6.15142e-05
5.90253e-05
6.02682e-05
5.9204e-05
5.9646e-05
6.17534e-05
6.45677e-05
6.84397e-05
7.21622e-05
7.55476e-05
7.89894e-05
8.19653e-05
8.38234e-05
8.33862e-05
8.21109e-05
8.04598e-05
7.59882e-05
7.23978e-05
6.74234e-05
6.30424e-05
6.06815e-05
5.98792e-05
6.0613e-05
6.2119e-05
6.44004e-05
6.28985e-05
6.23668e-05
6.42579e-05
6.3957e-05
6.36218e-05
6.42219e-05
6.50001e-05
6.51827e-05
6.69471e-05
6.54253e-05
6.41543e-05
5.87746e-05
6.19925e-05
6.20009e-05
6.63161e-05
7.07901e-05
7.4139e-05
7.93566e-05
8.02459e-05
7.90292e-05
7.66502e-05
7.70794e-05
7.2426e-05
6.74994e-05
6.41468e-05
5.87834e-05
5.85499e-05
5.69039e-05
5.63953e-05
5.32433e-05
5.07659e-05
5.09563e-05
5.45517e-05
5.24285e-05
5.33669e-05
4.86082e-05
4.20763e-05
5.3591e-05
6.74558e-05
8.59069e-05
9.71118e-05
0.000103161
9.38797e-05
8.24746e-05
7.93807e-05
9.14057e-05
0.000115108
0.000108867
0.000105998
0.00015548
2.28821e-05
2.38437e-05
2.67479e-05
3.96606e-05
6.03078e-05
7.93896e-05
8.05589e-05
6.45771e-05
4.87412e-05
4.27057e-05
5.19403e-05
5.35733e-05
4.122e-05
3.37758e-05
3.74118e-05
4.14363e-05
4.39679e-05
4.60079e-05
4.96625e-05
5.1742e-05
5.20649e-05
4.98959e-05
4.79993e-05
4.53629e-05
4.10303e-05
3.5724e-05
3.18757e-05
3.23957e-05
3.52397e-05
3.28598e-05
7.80335e-05
8.55898e-05
8.5184e-05
8.90597e-05
9.50432e-05
9.4193e-05
7.8091e-05
6.38254e-05
5.02105e-05
4.83169e-05
4.95287e-05
6.62119e-05
7.04305e-05
6.78259e-05
6.50836e-05
5.9069e-05
5.49139e-05
5.27185e-05
5.23341e-05
5.20406e-05
5.33405e-05
5.56498e-05
5.92649e-05
6.39105e-05
6.84158e-05
6.71005e-05
6.76976e-05
6.72565e-05
6.92973e-05
7.62042e-05
8.48455e-05
8.41035e-05
8.69057e-05
8.7003e-05
8.24226e-05
8.02577e-05
8.00789e-05
8.19646e-05
8.10303e-05
7.22675e-05
6.8949e-05
7.24107e-05
7.10965e-05
6.477e-05
5.85781e-05
5.54169e-05
5.2047e-05
4.79007e-05
4.70555e-05
4.5466e-05
4.65264e-05
4.95604e-05
5.38864e-05
5.57184e-05
6.05421e-05
6.4143e-05
6.72625e-05
7.02398e-05
7.35493e-05
7.60454e-05
9.61217e-05
9.28721e-05
8.99462e-05
9.23748e-05
9.75057e-05
9.85044e-05
9.69005e-05
9.35425e-05
8.90202e-05
8.50673e-05
8.16049e-05
7.87535e-05
7.82071e-05
7.82181e-05
7.8026e-05
7.80288e-05
7.99337e-05
8.18707e-05
8.52906e-05
8.84171e-05
9.28345e-05
9.4644e-05
9.86672e-05
9.62726e-05
9.22182e-05
8.9662e-05
9.35493e-05
8.79031e-05
8.95652e-05
9.27559e-05
9.1498e-05
9.4994e-05
9.89108e-05
0.000102786
0.000103979
0.000102881
9.77938e-05
9.19732e-05
8.88289e-05
8.75914e-05
8.87202e-05
9.26437e-05
9.84689e-05
9.81007e-05
0.000100172
0.000104288
0.000108391
0.000114333
0.000118862
0.000121336
0.00012383
0.0001239
0.000121848
0.000117498
0.000112544
0.000105785
9.99478e-05
9.63131e-05
9.38267e-05
9.49682e-05
6.94644e-05
8.0276e-05
8.20644e-05
8.21822e-05
8.19503e-05
8.11605e-05
8.09291e-05
8.20681e-05
7.64158e-05
6.90408e-05
6.52239e-05
6.83954e-05
6.99261e-05
6.7627e-05
6.99199e-05
7.44898e-05
7.74431e-05
8.20337e-05
8.52059e-05
8.63044e-05
8.51571e-05
8.25871e-05
7.93964e-05
7.52239e-05
7.33203e-05
7.19284e-05
7.22393e-05
7.11425e-05
5.93763e-05
3.70424e-05
8.87699e-05
9.88713e-05
9.82936e-05
9.88675e-05
9.71772e-05
9.56582e-05
9.42189e-05
9.35534e-05
9.23338e-05
9.30792e-05
9.14001e-05
9.09742e-05
8.92483e-05
8.86703e-05
8.97915e-05
8.90262e-05
9.07008e-05
9.08973e-05
9.19037e-05
9.18217e-05
9.35462e-05
9.53016e-05
9.82643e-05
9.68402e-05
9.60669e-05
9.38632e-05
9.61384e-05
9.72878e-05
9.88343e-05
9.79179e-05
9.83423e-05
9.94418e-05
9.34156e-05
8.947e-05
8.54439e-05
8.39612e-05
7.29811e-05
6.26582e-05
5.34522e-05
4.99309e-05
4.5567e-05
4.19304e-05
4.0703e-05
4.19804e-05
4.68649e-05
5.17723e-05
6.0684e-05
7.17067e-05
8.03306e-05
8.27949e-05
8.99598e-05
8.96237e-05
8.54722e-05
8.658e-05
8.91107e-05
9.0814e-05
8.97697e-05
8.9726e-05
9.0015e-05
9.06658e-05
7.91877e-05
9.22976e-05
9.7055e-05
9.13388e-05
7.94711e-05
7.29281e-05
6.86333e-05
6.2133e-05
5.36328e-05
4.58286e-05
3.98809e-05
3.9736e-05
3.84688e-05
3.84468e-05
3.97193e-05
3.97063e-05
4.57798e-05
5.25711e-05
6.11544e-05
6.95506e-05
6.95387e-05
7.30583e-05
7.85143e-05
7.94168e-05
7.92057e-05
7.84424e-05
7.73798e-05
7.6315e-05
7.71552e-05
7.84253e-05
8.05602e-05
8.26722e-05
7.90517e-05
7.45399e-05
7.0719e-05
6.60266e-05
6.19575e-05
4.83686e-05
3.91684e-05
3.14157e-05
2.71061e-05
2.6384e-05
3.05602e-05
3.94933e-05
5.05053e-05
6.59431e-05
6.99126e-05
7.52763e-05
7.85206e-05
8.05374e-05
6.91457e-05
6.18932e-05
6.19637e-05
6.17871e-05
6.13215e-05
6.1283e-05
6.19482e-05
6.12789e-05
6.07419e-05
6.08333e-05
5.9333e-05
6.05823e-05
6.00075e-05
6.10558e-05
6.3749e-05
6.83956e-05
7.33976e-05
7.82857e-05
8.32344e-05
8.63909e-05
9.01753e-05
9.06707e-05
9.22571e-05
8.97961e-05
8.82871e-05
8.3419e-05
7.88243e-05
7.25939e-05
6.77218e-05
6.22431e-05
6.03411e-05
6.01642e-05
6.1822e-05
6.50439e-05
6.30237e-05
6.26036e-05
6.48529e-05
6.37823e-05
6.39652e-05
6.47051e-05
6.35221e-05
6.61954e-05
6.71158e-05
6.29893e-05
6.20863e-05
6.25105e-05
6.38273e-05
6.42233e-05
7.02452e-05
7.85401e-05
8.0601e-05
8.6477e-05
9.08955e-05
9.4157e-05
9.21685e-05
8.56553e-05
7.82129e-05
7.48311e-05
6.72696e-05
6.35834e-05
5.83253e-05
5.80625e-05
5.90547e-05
5.65358e-05
5.02718e-05
4.60589e-05
4.94693e-05
5.15175e-05
4.89622e-05
4.65956e-05
5.09354e-05
6.51652e-05
8.79012e-05
0.000118696
0.000143503
0.000150143
0.000136009
0.000103357
8.22882e-05
8.35317e-05
0.000113928
0.000112484
0.000110098
0.000155695
2.30535e-05
2.37091e-05
2.37354e-05
2.90797e-05
3.95887e-05
5.14138e-05
5.06912e-05
3.72968e-05
2.83501e-05
2.9876e-05
4.32123e-05
4.86272e-05
3.95911e-05
3.37746e-05
4.01392e-05
4.37735e-05
4.49931e-05
5.06008e-05
5.79795e-05
6.27666e-05
6.24876e-05
5.77191e-05
5.18399e-05
4.82844e-05
4.34495e-05
3.78332e-05
3.26256e-05
3.19606e-05
3.51275e-05
3.28821e-05
7.70002e-05
8.66551e-05
8.86443e-05
9.36951e-05
9.8098e-05
9.01337e-05
7.17649e-05
5.42327e-05
4.5847e-05
4.57311e-05
5.79379e-05
7.06346e-05
6.944e-05
6.52653e-05
5.76306e-05
5.27456e-05
5.12134e-05
5.11167e-05
5.09564e-05
5.10498e-05
5.0886e-05
5.27595e-05
5.49548e-05
6.02362e-05
6.57322e-05
6.60467e-05
6.72745e-05
6.65345e-05
6.86562e-05
7.64617e-05
8.49378e-05
8.51284e-05
8.81761e-05
8.74537e-05
8.25607e-05
7.99448e-05
7.92249e-05
8.24578e-05
8.11511e-05
7.16139e-05
6.90921e-05
7.23168e-05
6.85347e-05
6.20697e-05
5.56631e-05
5.24654e-05
4.86162e-05
4.49133e-05
4.27209e-05
4.25818e-05
4.3643e-05
4.5195e-05
4.85917e-05
5.36531e-05
5.66311e-05
6.11034e-05
6.5241e-05
6.86237e-05
7.23699e-05
7.5605e-05
9.60873e-05
9.12781e-05
8.85351e-05
9.65943e-05
9.88544e-05
9.84278e-05
9.59396e-05
9.18589e-05
8.68695e-05
8.26445e-05
7.96233e-05
7.80482e-05
7.97166e-05
7.91056e-05
7.98452e-05
7.89013e-05
7.9637e-05
7.9579e-05
8.30941e-05
8.65491e-05
9.08128e-05
9.30535e-05
9.75489e-05
0.000100771
9.40931e-05
9.15797e-05
9.52558e-05
8.91445e-05
9.29837e-05
9.57192e-05
9.15976e-05
9.4106e-05
9.77863e-05
0.000101787
0.00010378
0.000102392
9.68961e-05
9.09338e-05
8.91889e-05
8.82602e-05
9.05374e-05
9.54672e-05
9.86049e-05
9.77042e-05
9.8641e-05
0.000104629
0.000110911
0.000115208
0.000123678
0.00012623
0.000129173
0.000128498
0.000127204
0.000121649
0.000115781
0.000108399
0.000102136
9.75174e-05
9.39273e-05
9.48759e-05
6.88852e-05
7.99797e-05
8.29769e-05
8.23879e-05
8.26904e-05
8.27551e-05
8.25642e-05
8.2975e-05
7.95764e-05
7.12121e-05
6.58568e-05
6.82643e-05
6.94908e-05
6.73829e-05
6.9952e-05
7.42065e-05
7.81206e-05
8.4892e-05
8.79556e-05
8.95182e-05
8.86997e-05
8.51722e-05
8.20533e-05
7.63632e-05
7.40742e-05
7.18561e-05
7.16578e-05
7.05708e-05
5.94376e-05
3.72982e-05
9.06964e-05
9.9598e-05
0.000100265
0.000100516
9.76557e-05
9.60918e-05
9.3906e-05
9.34196e-05
9.27533e-05
9.32138e-05
9.14315e-05
9.08892e-05
8.67488e-05