/*--------------------------------*- C++ -*----------------------------------*\
| =========                 |                                                 |
| \\      /  F ield         | OpenFOAM: The Open Source CFD Toolbox           |
|  \\    /   O peration     | Version:  2.1.1                                 |
|   \\  /    A nd           | Web:      www.OpenFOAM.org                      |
|    \\/     M anipulation  |                                                 |
\*---------------------------------------------------------------------------*/
FoamFile
{
    version     2.0;
    format      ascii;
    class       volScalarField;
    location    "0.007750000";
    object      HO2;
}
// * * * * * * * * * * * * * * * * * * * * * * * * * * * * * * * * * * * * * //

dimensions      [0 0 0 0 0 0 0];

internalField   nonuniform List<scalar> 
12384
(
1.23293e-05
1.26041e-05
1.29824e-05
1.32382e-05
1.37184e-05
1.36054e-05
1.35168e-05
1.28184e-05
1.25221e-05
1.21315e-05
1.16483e-05
1.05163e-05
1.01427e-05
9.04325e-06
1.15721e-05
1.19286e-05
1.13681e-05
1.08727e-05
1.0033e-05
9.4645e-06
9.04541e-06
8.83994e-06
8.65026e-06
8.61937e-06
8.61823e-06
8.75096e-06
8.8993e-06
9.16759e-06
9.43769e-06
9.74478e-06
1.01495e-05
1.03054e-05
1.03153e-05
1.0416e-05
1.03848e-05
1.04368e-05
1.04229e-05
1.0456e-05
1.04194e-05
1.03338e-05
1.0059e-05
9.54405e-06
9.94241e-06
1.03493e-05
2.25259e-06
1.78126e-06
2.12062e-06
2.47269e-06
2.74983e-06
2.98759e-06
3.22863e-06
3.49108e-06
4.24743e-06
4.42046e-06
4.57594e-06
4.75438e-06
4.88436e-06
4.89894e-06
4.84263e-06
4.72398e-06
4.57467e-06
4.40412e-06
4.23599e-06
4.09891e-06
3.48582e-06
3.44896e-06
3.41989e-06
3.40729e-06
3.40173e-06
3.4161e-06
3.3373e-06
2.98166e-06
3.14512e-06
3.29647e-06
1.68244e-06
1.80114e-06
1.91771e-06
1.93413e-06
1.94958e-06
1.96351e-06
2.01522e-06
2.05915e-06
2.10648e-06
2.13086e-06
2.15483e-06
2.15899e-06
2.1313e-06
2.12896e-06
2.10605e-06
2.029e-06
2.01748e-06
1.8989e-06
1.8966e-06
1.84279e-06
1.81383e-06
1.81835e-06
1.78552e-06
1.76216e-06
1.71374e-06
1.60909e-06
1.5744e-06
1.57221e-06
1.62803e-06
1.63898e-06
6.26951e-07
5.86332e-07
5.6551e-07
5.62342e-07
5.6662e-07
5.87268e-07
6.11669e-07
6.27429e-07
6.41616e-07
6.3045e-07
6.56505e-07
6.00209e-07
6.2729e-07
5.91515e-07
6.11677e-07
6.07327e-07
6.30204e-07
6.32535e-07
6.43338e-07
6.63535e-07
6.67656e-07
6.25351e-07
5.44299e-07
5.05192e-07
5.12363e-07
5.27133e-07
5.51445e-07
5.55474e-07
5.46753e-07
5.43998e-07
1.14328e-07
1.09982e-07
1.02923e-07
9.83775e-08
9.44803e-08
9.24319e-08
8.48315e-08
8.47243e-08
9.2112e-08
9.1964e-08
9.08149e-08
9.15102e-08
9.27222e-08
9.38897e-08
9.49403e-08
9.635e-08
9.70111e-08
9.65812e-08
9.34146e-08
9.75028e-08
9.5351e-08
9.90194e-08
9.99948e-08
1.01714e-07
9.93418e-08
9.99203e-08
1.06033e-07
1.15492e-07
1.38609e-07
1.49701e-07
2.52462e-07
2.06995e-07
1.38501e-07
1.04791e-07
9.40876e-08
9.93909e-08
1.12138e-07
1.30516e-07
1.53611e-07
1.80971e-07
2.05937e-07
2.2675e-07
2.43359e-07
2.53695e-07
2.59319e-07
2.60329e-07
2.57433e-07
2.5433e-07
2.53802e-07
2.54738e-07
2.52143e-07
2.66601e-07
2.81113e-07
2.75902e-07
3.01128e-07
3.41057e-07
1.84632e-06
4.08552e-06
3.71233e-06
3.39012e-06
1.05158e-07
7.25531e-08
6.17474e-08
5.93113e-08
4.69316e-08
5.52054e-08
7.76381e-08
7.96406e-08
7.77476e-08
7.81295e-08
6.92405e-08
6.24816e-08
6.12294e-08
7.1766e-08
6.03132e-08
6.04803e-08
6.23092e-08
7.28205e-08
5.60646e-08
5.94617e-08
9.72823e-08
1.29614e-07
1.31322e-07
1.38663e-07
1.37106e-07
1.43463e-07
1.42576e-07
1.41516e-07
1.41132e-07
1.43819e-07
3.33002e-07
3.48011e-07
3.45727e-07
3.30939e-07
3.22802e-07
3.22123e-07
3.18697e-07
3.49896e-07
3.38041e-07
3.3673e-07
3.30415e-07
3.50517e-07
3.57252e-07
3.70847e-07
3.67414e-07
3.93109e-07
4.27311e-07
4.40597e-07
1.4051e-07
4.11332e-08
4.28878e-08
4.64171e-08
5.03033e-08
5.69734e-08
6.25037e-08
5.45649e-08
5.27472e-08
3.91935e-08
3.98561e-08
2.37749e-08
2.20892e-07
2.33344e-07
2.25376e-07
2.02615e-07
1.87992e-07
1.81967e-07
1.76757e-07
1.7414e-07
1.7199e-07
1.6903e-07
1.96294e-07
1.97982e-07
1.91456e-07
2.16251e-07
2.15996e-07
2.14095e-07
2.43651e-07
2.71118e-07
3.01723e-07
2.55106e-07
7.91582e-08
6.51259e-08
6.43065e-08
6.39873e-08
6.3591e-08
6.18442e-08
5.89514e-08
5.5542e-08
5.16113e-08
4.63573e-08
1.12294e-07
8.14215e-08
9.64734e-08
9.70196e-08
9.98115e-08
1.02619e-07
1.03448e-07
1.04685e-07
9.72061e-08
9.56549e-08
9.9164e-08
1.09456e-07
8.20189e-08
1.0388e-07
1.32013e-07
8.46676e-08
2.56017e-08
2.24438e-08
2.19042e-08
2.13468e-08
2.119e-08
2.10496e-08
1.97772e-08
2.01217e-08
1.85563e-08
1.81369e-08
1.79058e-08
1.79426e-08
1.76453e-08
1.79569e-08
3.44101e-08
3.60776e-08
3.45034e-08
3.0502e-08
3.27785e-08
3.34103e-08
3.23551e-08
3.18871e-08
3.10091e-08
3.01485e-08
2.95216e-08
2.95532e-08
2.81556e-08
2.33689e-08
2.12688e-08
2.43283e-08
2.24202e-08
2.56088e-08
2.43287e-08
2.72857e-08
2.79221e-08
3.04167e-08
3.28135e-08
3.27981e-08
2.67649e-08
2.68044e-08
2.80573e-08
3.23108e-08
3.75092e-08
3.87376e-08
1.77267e-08
1.90918e-08
2.09846e-08
2.16073e-08
2.07041e-08
1.78369e-08
9.70486e-09
2.03487e-09
1.34995e-09
1.33672e-09
1.23302e-09
1.26025e-09
1.07335e-09
1.11631e-09
1.16361e-09
1.39551e-09
1.5067e-09
1.43146e-09
1.48868e-09
1.57125e-09
1.56711e-09
1.33187e-09
1.25313e-09
9.74488e-10
8.60429e-10
8.34372e-10
8.7628e-10
8.66691e-10
1.21004e-09
1.67612e-09
1.31608e-05
1.40736e-05
1.44271e-05
1.45835e-05
1.44781e-05
1.40509e-05
1.38868e-05
1.3685e-05
1.35555e-05
1.32391e-05
1.23482e-05
1.16316e-05
1.02663e-05
8.99373e-06
1.16257e-05
1.18834e-05
1.12784e-05
1.03973e-05
9.49348e-06
8.05004e-06
7.51402e-06
7.26596e-06
7.22372e-06
7.25372e-06
7.38323e-06
8.1385e-06
8.55735e-06
9.16461e-06
1.00739e-05
1.03954e-05
1.0559e-05
1.06491e-05
1.06807e-05
1.07179e-05
1.07551e-05
1.08112e-05
1.08508e-05
1.08701e-05
1.08615e-05
1.0718e-05
1.04618e-05
9.93361e-06
9.63729e-06
1.01071e-05
2.17967e-06
1.81201e-06
2.27426e-06
2.7868e-06
3.32485e-06
4.51328e-06
5.11411e-06
5.56752e-06
5.8738e-06
6.08174e-06
6.22193e-06
6.31872e-06
6.27516e-06
6.03822e-06
5.60365e-06
5.20146e-06
4.82264e-06
4.54699e-06
4.35218e-06
4.21754e-06
4.13369e-06
4.05104e-06
3.46494e-06
3.43238e-06
3.4213e-06
3.42604e-06
3.42769e-06
3.24193e-06
2.97207e-06
2.84022e-06
1.71425e-06
1.81651e-06
1.8688e-06
1.8489e-06
1.83289e-06
1.86312e-06
1.95213e-06
2.07961e-06
2.24726e-06
2.4382e-06
2.56298e-06
2.57637e-06
2.49411e-06
2.35119e-06
2.21032e-06
2.14556e-06
2.08845e-06
2.00388e-06
1.96048e-06
1.92486e-06
1.9161e-06
1.89574e-06
1.88021e-06
1.8607e-06
1.80218e-06
1.71425e-06
1.6406e-06
1.60114e-06
1.59711e-06
1.61359e-06
6.32327e-07
5.94453e-07
5.73201e-07
5.67651e-07
6.19547e-07
9.4051e-07
1.02784e-06
1.12934e-06
1.19622e-06
1.19267e-06
1.21018e-06
1.23038e-06
1.24622e-06
1.19603e-06
1.15264e-06
1.15186e-06
1.07088e-06
1.03885e-06
9.16846e-07
6.8366e-07
6.93098e-07
6.77862e-07
6.06723e-07
5.3144e-07
5.29722e-07
8.68948e-07
1.15758e-06
1.11647e-06
8.42238e-07
5.49003e-07
1.10047e-07
1.09616e-07
1.00805e-07
9.55225e-08
8.55936e-08
7.82826e-08
8.30385e-08
8.15662e-08
7.89434e-08
7.92096e-08
8.03132e-08
8.20362e-08
8.76093e-08
9.62129e-08
1.0563e-07
1.06379e-07
1.11095e-07
1.14557e-07
1.17244e-07
1.15694e-07
1.14153e-07
1.10739e-07
1.08966e-07
1.07041e-07
1.05808e-07
1.03879e-07
1.06839e-07
1.11738e-07
1.25714e-07
1.46208e-07
2.49443e-07
1.62244e-07
9.64316e-08
8.68021e-08
8.73166e-08
9.35784e-08
8.6828e-08
1.31883e-07
1.82294e-07
2.33016e-07
2.71982e-07
3.12724e-07
3.28384e-07
3.35636e-07
3.37175e-07
3.33901e-07
3.29781e-07
3.24689e-07
3.14717e-07
3.13899e-07
3.10148e-07
3.03936e-07
3.01777e-07
3.01435e-07
2.89899e-07
3.18081e-07
7.81335e-07
1.90236e-06
3.77357e-06
3.32305e-06
1.10366e-07
7.39396e-08
6.02058e-08
4.83939e-08
8.33011e-08
9.29052e-08
9.50339e-08
9.20504e-08
8.93927e-08
8.06974e-08
7.97565e-08
8.09806e-08
7.21252e-08
6.91798e-08
6.64806e-08
7.21849e-08
7.56353e-08
6.65823e-08
6.70426e-08
5.69878e-08
6.88187e-08
1.14662e-07
1.36135e-07
1.48179e-07
1.27854e-07
1.42539e-07
1.5659e-07
1.53496e-07
1.35621e-07
1.28117e-07
3.45584e-07
3.18206e-07
2.85578e-07
2.61077e-07
2.71968e-07
2.99397e-07
3.62152e-07
3.85567e-07
4.02117e-07
4.35212e-07
4.24031e-07
4.34956e-07
4.33363e-07
4.32965e-07
4.25255e-07
4.19998e-07
4.05443e-07
4.41435e-07
3.29446e-07
9.09477e-08
4.41551e-08
4.30973e-08
3.55352e-08
4.77437e-08
6.6769e-08
7.97977e-08
9.06607e-08
8.35016e-08
5.28589e-08
3.04342e-08
2.15685e-07
2.33127e-07
2.16621e-07
1.74142e-07
1.14826e-07
1.19044e-07
1.74917e-07
1.93688e-07
2.12475e-07
2.46578e-07
2.56684e-07
2.57627e-07
2.66453e-07
2.75553e-07
2.7022e-07
2.76292e-07
2.72135e-07
2.59331e-07
2.84963e-07
2.99155e-07
1.82001e-07
8.87968e-08
6.45295e-08
6.53832e-08
7.10093e-08
7.57624e-08
6.97402e-08
5.70748e-08
5.35989e-08
4.67139e-08
1.1278e-07
7.98289e-08
8.98017e-08
9.1794e-08
9.50757e-08
9.85485e-08
9.98495e-08
1.25806e-07
1.71201e-07
1.86721e-07
1.95072e-07
1.86347e-07
1.45962e-07
1.38251e-07
1.57669e-07
9.71493e-08
7.42008e-08
3.92572e-08
2.43794e-08
2.30768e-08
2.03614e-08
1.63215e-08
1.2172e-08
1.81029e-08
1.73719e-08
1.69444e-08
1.6816e-08
1.74245e-08
1.73949e-08
1.76828e-08
3.13692e-08
2.65261e-08
2.92578e-08
3.26014e-08
3.30238e-08
3.25212e-08
3.22636e-08
3.24013e-08
2.66139e-08
2.64935e-08
2.69766e-08
2.63422e-08
2.75915e-08
2.61427e-08
2.69374e-08
2.53141e-08
2.53448e-08
2.42017e-08
2.51419e-08
2.74901e-08
3.07682e-08
3.70076e-08
4.22167e-08
4.60799e-08
4.67006e-08
4.37751e-08
3.3929e-08
3.35591e-08
3.68256e-08
3.98657e-08
9.47904e-09
1.66014e-08
2.38779e-08
2.4964e-08
2.18199e-08
6.62466e-09
2.60027e-09
9.78134e-10
1.37053e-09
1.39384e-09
1.37988e-09
1.32514e-09
1.38342e-09
1.96414e-09
1.93589e-09
1.83907e-09
2.18852e-09
2.10825e-09
2.49315e-09
2.98617e-09
3.29167e-09
2.76864e-09
2.4039e-09
1.65824e-09
1.3892e-09
1.03146e-09
9.45513e-10
9.37804e-10
1.23457e-09
1.45861e-09
1.44504e-05
1.48853e-05
1.47199e-05
1.44611e-05
1.38251e-05
1.32389e-05
1.28602e-05
1.23977e-05
1.24195e-05
1.25209e-05
1.24095e-05
1.19707e-05
1.05078e-05
9.66149e-06
1.16513e-05
1.18788e-05
1.13008e-05
1.02813e-05
8.625e-06
7.77942e-06
7.4542e-06
7.426e-06
7.54026e-06
7.66675e-06
7.68142e-06
8.31399e-06
8.60639e-06
9.44975e-06
1.0269e-05
1.04848e-05
1.04665e-05
1.0472e-05
1.03942e-05
1.04574e-05
1.0442e-05
1.05561e-05
1.0676e-05
1.08382e-05
1.10317e-05
1.10407e-05
1.08732e-05
1.03876e-05
9.77955e-06
9.80529e-06
2.10793e-06
1.80203e-06
2.33522e-06
2.92042e-06
3.46729e-06
4.50951e-06
5.03567e-06
5.51333e-06
5.98627e-06
6.28022e-06
6.56381e-06
6.54798e-06
6.09589e-06
5.3459e-06
4.6036e-06
4.18342e-06
3.46367e-06
3.38579e-06
3.34545e-06
3.33398e-06
3.32904e-06
3.35617e-06
3.36251e-06
3.36034e-06
3.38115e-06
3.40988e-06
3.45213e-06
3.41211e-06
3.1435e-06
2.8264e-06
1.71246e-06
1.78593e-06
1.76578e-06
1.69023e-06
1.64454e-06
1.67135e-06
1.75284e-06
1.88999e-06
2.17428e-06
2.53621e-06
2.78654e-06
2.81785e-06
2.54278e-06
2.26311e-06
2.15299e-06
2.1518e-06
2.06384e-06
2.11073e-06
2.07569e-06
2.02564e-06
2.02033e-06
1.99157e-06
1.96315e-06
1.94188e-06
1.89114e-06
1.85011e-06
1.74134e-06
1.67324e-06
1.63209e-06
1.63511e-06
6.38034e-07
6.09077e-07
5.9748e-07
6.21388e-07
1.05877e-06
1.18483e-06
1.30463e-06
1.35919e-06
1.42975e-06
1.44326e-06
1.49349e-06
1.5278e-06
1.57693e-06
1.53632e-06
1.53924e-06
1.45959e-06
1.41012e-06
1.30585e-06
1.18592e-06
1.07087e-06
9.72897e-07
7.06463e-07
6.65397e-07
5.83065e-07
5.44837e-07
1.07897e-06
1.42526e-06
1.45039e-06
1.13982e-06
5.89619e-07
1.10071e-07
1.08395e-07
9.91347e-08
9.08879e-08
8.25065e-08
7.49247e-08
8.38536e-08
8.44637e-08
8.23045e-08
8.1267e-08
8.0882e-08
8.75149e-08
1.00886e-07
1.11104e-07
1.27629e-07
1.39138e-07
1.38388e-07
1.44416e-07
1.42574e-07
1.41721e-07
1.42294e-07
1.39099e-07
1.3362e-07
1.29831e-07
1.2369e-07
1.1474e-07
1.11698e-07
1.11172e-07
1.19969e-07
1.38988e-07
2.39204e-07
1.08029e-07
8.06012e-08
7.3503e-08
8.11181e-08
9.2709e-08
9.34195e-08
1.44774e-07
2.09359e-07
2.89382e-07
3.2083e-07
3.394e-07
4.90876e-07
3.47523e-07
3.46275e-07
3.41878e-07
3.26522e-07
3.21381e-07
3.21911e-07
3.1221e-07
3.12907e-07
3.22264e-07
3.23695e-07
3.22875e-07
3.12599e-07
3.18504e-07
3.57824e-07
1.06917e-06
2.66301e-06
3.47739e-06
1.15753e-07
7.5337e-08
5.5735e-08
8.53034e-08
9.77232e-08
9.94391e-08
9.51959e-08
8.9039e-08
8.17328e-08
6.68365e-08
7.05289e-08
5.68947e-08
5.52736e-08
5.77669e-08
5.81962e-08
6.12124e-08
6.53447e-08
7.10909e-08
6.66452e-08
6.62534e-08
5.77335e-08
8.32336e-08
1.22657e-07
1.47483e-07
1.55907e-07
1.70062e-07
1.66927e-07
1.68823e-07
1.53422e-07
1.29686e-07
3.3268e-07
2.56435e-07
2.13771e-07
2.31132e-07
3.26894e-07
3.84847e-07
4.40739e-07
4.9073e-07
8.26251e-07
9.90548e-07
1.12362e-06
1.17915e-06
1.12645e-06
1.02947e-06
8.80992e-07
6.72089e-07
4.61447e-07
4.5644e-07
4.22304e-07
1.57662e-07
6.21867e-08
3.85244e-08
3.90125e-08
3.98904e-08
7.19067e-08
9.11342e-08
1.01291e-07
1.03543e-07
8.68596e-08
4.0591e-08
2.07255e-07
2.31079e-07
1.90492e-07
1.0692e-07
1.11818e-07
1.39574e-07
2.18411e-07
2.78345e-07
3.04567e-07
3.32273e-07
5.00192e-07
5.87057e-07
6.35012e-07
6.65798e-07
5.96199e-07
4.93888e-07
3.36524e-07
3.14378e-07
3.01931e-07
2.91994e-07
2.78061e-07
1.48222e-07
8.12229e-08
6.61896e-08
7.77195e-08
8.47523e-08
7.42024e-08
6.52862e-08
5.33572e-08
4.7132e-08
1.05786e-07
9.03677e-08
8.7825e-08
9.08759e-08
9.34805e-08
9.35284e-08
1.73153e-07
2.1436e-07
2.61071e-07
2.96509e-07
3.07219e-07
3.01293e-07
2.75829e-07
2.3421e-07
1.76087e-07
1.67632e-07
1.20394e-07
8.41589e-08
5.35451e-08
3.65113e-08
1.95281e-08
1.55348e-08
1.17106e-08
1.76073e-08
1.70934e-08
1.59039e-08
1.58468e-08
1.67318e-08
1.73087e-08
1.76672e-08
2.73352e-08
3.09541e-08
3.20894e-08
3.36225e-08
3.31354e-08
3.40269e-08
2.94847e-08
3.23404e-08
3.48069e-08
3.07835e-08
3.24365e-08
3.28249e-08
3.72426e-08
3.22615e-08
3.44068e-08
3.7152e-08
3.45722e-08
3.16135e-08
2.92237e-08
3.04781e-08
3.45287e-08
4.23291e-08
5.16525e-08
6.03637e-08
5.37008e-08
6.24014e-08
4.9804e-08
3.8119e-08
3.75027e-08
3.96446e-08
5.80905e-09
1.90628e-08
3.04295e-08
2.1476e-08
1.03096e-08
4.57064e-09
1.95521e-09
1.48033e-09
1.52245e-09
1.15031e-09
1.60814e-09
1.8266e-09
1.86933e-09
1.97333e-09
2.249e-09
2.11083e-09
1.94621e-09
2.17491e-09
2.26749e-09
2.77636e-09
3.63003e-09
3.68955e-09
3.39782e-09
2.76936e-09
2.41239e-09
1.53709e-09
1.20088e-09
1.08247e-09
1.46083e-09
1.68003e-09
1.49484e-05
1.48811e-05
1.44262e-05
1.32974e-05
1.22576e-05
1.10743e-05
1.05256e-05
1.0453e-05
1.06574e-05
1.12516e-05
1.17906e-05
1.18739e-05
1.1298e-05
9.7192e-06
1.16058e-05
1.18395e-05
1.13711e-05
1.04796e-05
8.84525e-06
8.16278e-06
8.05594e-06
8.32549e-06
8.71829e-06
9.43754e-06
9.18384e-06
8.79804e-06
8.93622e-06
1.00465e-05
1.03661e-05
1.02885e-05
1.02799e-05
1.02643e-05
1.04446e-05
1.04533e-05
1.04965e-05
1.0413e-05
1.04883e-05
1.06314e-05
1.09019e-05
1.11246e-05
1.11527e-05
1.08154e-05
1.00735e-05
9.72238e-06
2.06799e-06
1.7537e-06
2.24017e-06
2.67267e-06
2.92129e-06
3.05312e-06
3.38648e-06
4.75576e-06
5.66961e-06
6.27261e-06
6.60268e-06
6.1725e-06
5.08492e-06
4.15836e-06
3.3257e-06
3.31539e-06
3.37551e-06
3.47116e-06
4.08908e-06
4.0876e-06
3.52824e-06
3.46388e-06
3.42944e-06
3.36868e-06
3.3587e-06
3.38284e-06
3.45434e-06
3.4804e-06
3.31432e-06
2.90002e-06
1.70191e-06
1.74554e-06
1.65889e-06
1.56883e-06
1.57093e-06
1.63283e-06
1.6537e-06
1.73334e-06
2.03639e-06
2.53463e-06
2.88482e-06
2.83904e-06
2.37383e-06
2.18761e-06
2.23011e-06
2.25954e-06
2.34177e-06
2.44693e-06
2.40644e-06
2.41709e-06
2.33627e-06
2.2347e-06
2.1333e-06
2.07309e-06
1.99864e-06
1.94209e-06
1.84893e-06
1.76474e-06
1.68897e-06
1.65976e-06
6.44271e-07
6.26007e-07
6.19592e-07
1.10153e-06
1.27028e-06
1.36955e-06
1.36013e-06
1.43343e-06
1.56254e-06
1.6874e-06
1.87942e-06
1.96767e-06
2.04773e-06
2.09306e-06
2.04344e-06
1.97645e-06
1.88376e-06
1.70971e-06
1.53894e-06
1.33948e-06
1.15372e-06
1.03594e-06
7.15167e-07
6.4053e-07
5.66763e-07
9.63382e-07
1.27718e-06
1.43701e-06
1.01442e-06
5.50652e-07
1.09657e-07
1.06882e-07
8.64981e-08
7.70186e-08
7.05947e-08
8.05891e-08
7.79944e-08
7.88484e-08
8.92759e-08
8.57051e-08
8.59894e-08
9.68779e-08
1.12316e-07
1.35003e-07
1.42913e-07
1.51953e-07
1.55694e-07
1.5186e-07
1.49911e-07
1.57789e-07
1.56658e-07
1.54175e-07
1.52283e-07
1.48549e-07
1.39314e-07
1.29671e-07
1.21309e-07
1.14989e-07
1.17837e-07
1.3465e-07
2.29139e-07
9.74114e-08
5.87995e-08
6.18837e-08
7.29176e-08
8.82138e-08
1.02746e-07
1.40713e-07
2.09492e-07
2.99753e-07
3.30431e-07
4.88909e-07
4.86426e-07
3.4446e-07
3.32386e-07
3.2258e-07
3.16033e-07
3.06395e-07
2.99601e-07
3.10058e-07
3.1155e-07
3.19711e-07
3.2417e-07
3.30818e-07
3.22434e-07
3.1691e-07
3.34621e-07
5.68863e-07
1.62201e-06
3.24258e-06
1.18911e-07
6.64056e-08
6.02118e-08
9.67562e-08
1.00459e-07
9.90878e-08
9.21011e-08
8.2915e-08
6.87233e-08
5.57795e-08
4.86569e-08
5.26501e-08
4.47537e-08
4.57381e-08
4.57947e-08
4.90704e-08
5.59755e-08
6.33262e-08
5.76677e-08
6.31601e-08
7.01373e-08
6.49147e-08
9.38904e-08
1.31637e-07
1.37748e-07
1.69075e-07
1.66525e-07
1.81766e-07
1.3145e-07
1.40276e-07
2.64932e-07
1.6423e-07
1.85807e-07
3.04835e-07
3.77661e-07
4.47962e-07
5.26385e-07
1.12987e-06
1.4771e-06
1.72888e-06
1.89584e-06
1.92227e-06
1.90902e-06
1.81783e-06
1.5581e-06
1.25817e-06
9.03376e-07
4.89156e-07
4.73149e-07
3.24272e-07
1.06533e-07
4.17156e-08
3.5979e-08
3.70311e-08
8.01129e-08
1.06511e-07
1.16586e-07
1.16854e-07
1.01035e-07
4.77888e-08
2.37203e-07
2.147e-07
1.17634e-07
1.33482e-07
1.28003e-07
2.16507e-07
2.88547e-07
3.29193e-07
5.99683e-07
8.59743e-07
1.03166e-06
1.18879e-06
1.23477e-06
1.22692e-06
1.19325e-06
1.0441e-06
8.37581e-07
5.33621e-07
3.36838e-07
3.1856e-07
3.00086e-07
2.35571e-07
1.02638e-07
6.73215e-08
7.52901e-08
8.73e-08
7.4942e-08
6.22824e-08
5.76241e-08
4.48173e-08
1.18702e-07
8.87825e-08
8.83418e-08
8.77404e-08
1.02627e-07
1.5454e-07
2.17966e-07
3.04061e-07
7.53869e-07
1.10264e-06
1.26522e-06
1.236e-06
9.79223e-07
5.6678e-07
2.76253e-07
2.02903e-07
1.75353e-07
1.30505e-07
9.48937e-08
6.60975e-08
3.63856e-08
2.07169e-08
1.2941e-08
1.7524e-08
1.78532e-08
1.73385e-08
1.69387e-08
1.69187e-08
1.75341e-08
1.7283e-08
2.96e-08
2.65544e-08
2.80208e-08
3.39815e-08
2.96918e-08
3.20007e-08
2.95631e-08
3.48069e-08
3.24441e-08
3.75084e-08
4.19262e-08
3.17149e-08
3.45623e-08
4.15329e-08
4.1848e-08
3.34416e-08
4.01524e-08
3.89202e-08
3.3957e-08
3.14471e-08
3.30782e-08
4.13279e-08
5.3517e-08
6.28487e-08
1.13882e-07
1.18463e-07
6.59352e-08
4.6676e-08
3.94852e-08
3.91352e-08
5.30373e-09
2.04712e-08
2.35199e-08
1.10396e-08
5.4943e-09
2.41596e-09
1.602e-09
1.62641e-09
1.57803e-09
2.28135e-09
2.63018e-09
2.6643e-09
3.20056e-09
3.25338e-09
3.05003e-09
2.67963e-09
2.28394e-09
2.19041e-09
1.82956e-09
2.27953e-09
2.71624e-09
3.73628e-09
3.7382e-09
2.83631e-09
2.44357e-09
2.77966e-09
1.83545e-09
1.65755e-09
1.97505e-09
2.21127e-09
1.49922e-05
1.45515e-05
1.30264e-05
1.11596e-05
1.00659e-05
9.4976e-06
9.29037e-06
9.31816e-06
9.50626e-06
9.41351e-06
1.03168e-05
1.15476e-05
1.13304e-05
9.72767e-06
1.1618e-05
1.18369e-05
1.14818e-05
1.13098e-05
1.01121e-05
8.90427e-06
8.9201e-06
1.01145e-05
1.07645e-05
1.08707e-05
1.01595e-05
9.31403e-06
9.23414e-06
1.02539e-05
1.02217e-05
1.0208e-05
1.03957e-05
1.08386e-05
1.12131e-05
1.14563e-05
1.13701e-05
1.11736e-05
1.08159e-05
1.06944e-05
1.07841e-05
1.10774e-05
1.12689e-05
1.10762e-05
1.03118e-05
9.74783e-06
2.0416e-06
1.65279e-06
1.98033e-06
2.11623e-06
1.98903e-06
1.92711e-06
2.65566e-06
4.34723e-06
5.691e-06
6.47448e-06
6.40568e-06
5.21613e-06
3.46505e-06
3.20995e-06
3.35121e-06
4.20862e-06
4.63911e-06
4.95065e-06
5.09387e-06
5.1448e-06
5.02445e-06
4.77018e-06
4.44259e-06
4.13416e-06
3.44594e-06
3.39128e-06
3.4434e-06
3.51789e-06
3.42259e-06
2.96832e-06
1.69008e-06
1.69263e-06
1.57647e-06
1.52341e-06
1.6195e-06
1.70678e-06
1.71896e-06
1.69306e-06
1.91226e-06
2.55809e-06
2.93275e-06
2.66906e-06
2.23564e-06
2.29383e-06
2.4377e-06
2.58454e-06
2.79003e-06
3.319e-06
3.43023e-06
3.43892e-06
3.22606e-06
2.62022e-06
2.45329e-06
2.28606e-06
2.16693e-06
2.05413e-06
1.97635e-06
1.85675e-06
1.74969e-06
1.6856e-06
6.48293e-07
6.36354e-07
6.57567e-07
1.29722e-06
1.39407e-06
1.3535e-06
1.44127e-06
1.60424e-06
1.8381e-06
2.07954e-06
2.32565e-06
2.46268e-06
2.62572e-06
2.63862e-06
2.62544e-06
2.52043e-06
2.40075e-06
2.13423e-06
1.86835e-06
1.62484e-06
1.38706e-06
1.20499e-06
1.03267e-06
6.81172e-07
6.16157e-07
7.98405e-07
9.95763e-07
1.36899e-06
5.72454e-07
4.87494e-07
1.12037e-07
1.07448e-07
8.56986e-08
7.9516e-08
7.19042e-08
7.02209e-08
6.93684e-08
8.42383e-08
9.24509e-08
8.76582e-08
9.13205e-08
1.09603e-07
1.31003e-07
1.42562e-07
1.51959e-07
1.54846e-07
1.5171e-07
1.58246e-07
1.53254e-07
1.57001e-07
1.54294e-07
1.55491e-07
1.57335e-07
1.59342e-07
1.50215e-07
1.39103e-07
1.32748e-07
1.2071e-07
1.18126e-07
1.31991e-07
2.22786e-07
9.04399e-08
4.61901e-08
3.72647e-08
5.20217e-08
8.31543e-08
1.01978e-07
1.3254e-07
1.9925e-07
2.9676e-07
3.30989e-07
4.90612e-07
4.7054e-07
3.39763e-07
3.20258e-07
3.12985e-07
3.05064e-07
2.7824e-07
2.70495e-07
2.60045e-07
2.72482e-07
2.93427e-07
3.00969e-07
3.27216e-07
3.25406e-07
3.19572e-07
3.25307e-07
3.62078e-07
1.29302e-06
2.97019e-06
1.14671e-07
5.44316e-08
7.53559e-08
8.05729e-08
9.80013e-08
9.8554e-08
8.95134e-08
7.61445e-08
5.66052e-08
5.04833e-08
3.47639e-08
4.68396e-08
4.60181e-08
4.3185e-08
4.24425e-08
4.4368e-08
4.66644e-08
5.25252e-08
4.97223e-08
5.64548e-08
6.97576e-08
7.1495e-08
7.86476e-08
1.1611e-07
1.40501e-07
1.44297e-07
1.54093e-07
1.77699e-07
1.56713e-07
1.52725e-07
1.64755e-07
1.65096e-07
2.62818e-07
3.44568e-07
4.12052e-07
4.96191e-07
1.13076e-06
1.59811e-06
1.99249e-06
2.27462e-06
2.46903e-06
3.08172e-06
3.1476e-06
2.50352e-06
2.24122e-06
1.85248e-06
1.38255e-06
9.24911e-07
4.96636e-07
4.08499e-07
1.5065e-07
5.57981e-08
3.76425e-08
3.39442e-08
8.82022e-08
1.17351e-07
1.27517e-07
1.30091e-07
1.20034e-07
4.90182e-08
2.4332e-07
1.81507e-07
1.33258e-07
1.36558e-07
1.92863e-07
2.72945e-07
3.24675e-07
6.56515e-07
9.87632e-07
1.32119e-06
1.49974e-06
1.65562e-06
1.69554e-06
1.68646e-06
1.59761e-06
1.51829e-06
1.31179e-06
1.00246e-06
6.71537e-07
3.37204e-07
3.26408e-07
2.79415e-07
1.15919e-07
7.56387e-08
7.47474e-08
8.64134e-08
7.32941e-08
6.01845e-08
5.60497e-08
4.60856e-08
8.93708e-08
8.70978e-08
8.60984e-08
8.57319e-08
1.12175e-07
1.83569e-07
2.89147e-07
9.19611e-07
1.38251e-06
1.72327e-06
2.37186e-06
2.4825e-06
1.8436e-06
1.40358e-06
7.53854e-07
2.90365e-07
2.12798e-07
1.78497e-07
1.13151e-07
9.36767e-08
3.85195e-08
2.49751e-08
2.00466e-08
1.74905e-08
1.7912e-08
1.74571e-08
1.82794e-08
1.77331e-08
1.8099e-08
1.71624e-08
3.01386e-08
2.81171e-08
2.88836e-08
3.04518e-08
3.30841e-08
3.17459e-08
3.83172e-08
3.88148e-08
3.68726e-08
3.41237e-08
4.02113e-08
4.46701e-08
4.26696e-08
3.94085e-08
3.73375e-08
3.82649e-08
3.4839e-08
4.10137e-08
3.44799e-08
3.3796e-08
3.14792e-08
3.78025e-08
5.14807e-08
7.17254e-08
1.44517e-07
1.43765e-07
9.66333e-08
5.38409e-08
4.04617e-08
4.0012e-08
5.54055e-09
1.50915e-08
1.25342e-08
5.44888e-09
3.04312e-09
1.5253e-09
1.66977e-09
1.74168e-09
2.43261e-09
2.99863e-09
3.6365e-09
4.58867e-09
4.8501e-09
4.42011e-09
3.58915e-09
4.30855e-09
3.55522e-09
2.76457e-09
2.42437e-09
1.81754e-09
2.22397e-09
3.08904e-09
4.15075e-09
2.94081e-09
1.70427e-09
2.07787e-09
3.21514e-09
2.63738e-09
2.93514e-09
1.57744e-09
1.47818e-05
1.32781e-05
1.10423e-05
9.64223e-06
8.48272e-06
8.47493e-06
8.48365e-06
9.06867e-06
9.12348e-06
8.85619e-06
9.65127e-06
1.11126e-05
1.12367e-05
9.73074e-06
1.14375e-05
1.17444e-05
1.15748e-05
1.15657e-05
1.10643e-05
1.06801e-05
1.07547e-05
1.14636e-05
1.23095e-05
1.20781e-05
1.12568e-05
9.53371e-06
9.48012e-06
1.02695e-05
1.01271e-05
1.03413e-05
1.11523e-05
1.19008e-05
1.25948e-05
1.27278e-05
1.27346e-05
1.23074e-05
1.16994e-05
1.10698e-05
1.08838e-05
1.11014e-05
1.14007e-05
1.12447e-05
1.04494e-05
9.74727e-06
2.07395e-06
1.55778e-06
1.66823e-06
1.56658e-06
1.23578e-06
1.30614e-06
2.54641e-06
4.67888e-06
6.1643e-06
7.10918e-06
5.78502e-06
4.00794e-06
3.11984e-06
3.36193e-06
4.49103e-06
5.11563e-06
5.52062e-06
5.69707e-06
5.78456e-06
5.75852e-06
5.71786e-06
5.51336e-06
5.1223e-06
4.64945e-06
4.22958e-06
3.46857e-06
3.46743e-06
3.54202e-06
3.47896e-06
2.99573e-06
1.68418e-06
1.64365e-06
1.50696e-06
1.52148e-06
1.68383e-06
1.7915e-06
1.77182e-06
1.67201e-06
1.85711e-06
2.60591e-06
2.94258e-06
2.44115e-06
2.26271e-06
2.46415e-06
2.70265e-06
3.34705e-06
3.79188e-06
3.92411e-06
4.08794e-06
4.02059e-06
3.87427e-06
3.63026e-06
3.24903e-06
2.54049e-06
2.36336e-06
2.19694e-06
2.06951e-06
1.96026e-06
1.80782e-06
1.70761e-06
6.49419e-07
6.41652e-07
1.23726e-06
1.40671e-06
1.33402e-06
1.3898e-06
1.53903e-06
1.80226e-06
2.11035e-06
2.4099e-06
2.64729e-06
2.82156e-06
2.94652e-06
2.99599e-06
3.004e-06
2.93943e-06
2.81743e-06
2.56156e-06
2.24213e-06
1.86804e-06
1.59457e-06
1.34934e-06
1.15037e-06
7.23735e-07
6.44735e-07
6.28019e-07
9.50054e-07
1.15367e-06
4.95823e-07
3.96312e-07
1.10503e-07
1.09132e-07
8.72736e-08
8.22147e-08
7.76124e-08
7.25161e-08
6.87477e-08
8.67362e-08
9.42711e-08
9.10968e-08
9.78815e-08
1.15469e-07
1.4539e-07
1.45779e-07
1.49759e-07
1.5541e-07
1.52596e-07
1.57005e-07
1.61661e-07
1.51264e-07
1.57607e-07
1.57436e-07
1.56481e-07
1.61589e-07
1.64167e-07
1.52611e-07
1.35622e-07
1.2633e-07
1.19322e-07
1.30772e-07
2.22654e-07
8.89484e-08
3.84322e-08
3.63316e-08
3.4872e-08
6.67411e-08
9.84304e-08
7.96419e-08
1.76372e-07
2.84246e-07
3.28142e-07
4.86261e-07
4.62262e-07
3.31237e-07
3.13514e-07
3.08657e-07
2.61492e-07
2.56086e-07
2.22775e-07
2.18705e-07
2.25749e-07
2.70812e-07
2.90231e-07
3.01167e-07
3.26352e-07
3.19734e-07
3.22666e-07
3.51173e-07
1.12238e-06
2.78365e-06
1.1184e-07
5.75024e-08
7.48652e-08
7.20603e-08
8.54019e-08
9.76538e-08
8.62084e-08
7.04823e-08
5.12034e-08
4.21757e-08
4.62287e-08
4.40229e-08
4.11446e-08
3.97538e-08
4.11854e-08
4.06965e-08
4.37662e-08
4.61196e-08
5.50455e-08
5.38993e-08
6.44221e-08
6.66144e-08
7.01137e-08
8.8482e-08
1.26049e-07
1.44259e-07
1.28245e-07
1.71832e-07
1.64336e-07
1.61399e-07
1.41833e-07
1.24914e-07
2.98795e-07
3.52492e-07
4.24819e-07
8.10238e-07
1.43985e-06
1.91894e-06
2.30948e-06
3.19683e-06
3.65363e-06
3.84184e-06
3.82815e-06
3.69489e-06
3.28058e-06
2.32041e-06
1.81219e-06
1.27368e-06
8.32344e-07
4.70225e-07
2.69826e-07
9.30487e-08
3.49005e-08
4.95959e-08
9.98014e-08
1.29996e-07
1.334e-07
1.17663e-07
1.27918e-07
7.33377e-08
2.12789e-07
1.40024e-07
1.403e-07
1.21885e-07
2.14671e-07
2.97762e-07
3.59355e-07
9.22234e-07
1.33821e-06
1.63675e-06
1.8041e-06
2.4243e-06
2.58941e-06
2.55473e-06
2.37186e-06
1.77064e-06
1.63067e-06
1.34498e-06
9.80067e-07
5.84405e-07
3.25762e-07
3.02511e-07
1.85934e-07
8.44942e-08
7.93162e-08
7.99812e-08
6.26923e-08
4.85298e-08
4.71474e-08
4.92861e-08
8.75699e-08
7.8913e-08
8.24893e-08
8.76882e-08
1.25488e-07
2.31614e-07
6.54361e-07
1.3635e-06
2.32966e-06
3.33174e-06
3.82597e-06
3.88083e-06
3.53148e-06
2.6024e-06
1.44905e-06
6.49164e-07
2.70664e-07
2.13154e-07
1.95655e-07
1.10873e-07
4.36838e-08
2.58153e-08
1.98201e-08
1.88973e-08
1.73978e-08
1.62695e-08
1.66161e-08
1.65602e-08
1.51906e-08
1.49284e-08
3.06202e-08
2.88411e-08
3.05485e-08
3.25188e-08
3.06413e-08
3.78923e-08
4.07201e-08
4.25556e-08
4.4777e-08
4.09432e-08
5.32277e-08
4.15103e-08
4.68625e-08
4.94638e-08
4.51572e-08
4.25199e-08
3.56873e-08
4.25374e-08
4.3034e-08
3.76775e-08
3.2167e-08
3.29607e-08
4.70793e-08
6.44879e-08
1.33635e-07
1.45364e-07
7.69566e-08
5.45565e-08
4.22686e-08
4.14734e-08
5.04713e-09
1.09021e-08
9.12641e-09
3.06342e-09
2.34361e-09
1.72451e-09
1.78489e-09
1.7975e-09
2.88015e-09
4.3723e-09
4.76022e-09
6.91568e-09
9.83099e-09
1.12294e-08
1.04676e-08
7.73198e-09
4.37866e-09
3.94758e-09
2.76946e-09
2.38165e-09
1.77423e-09
2.23267e-09
4.15726e-09
5.00537e-09
1.66049e-09
1.0524e-09
1.64126e-09
2.35206e-09
1.65986e-09
1.24967e-09
1.40749e-05
1.19986e-05
9.72697e-06
8.53709e-06
8.79045e-06
9.08943e-06
9.1733e-06
8.85412e-06
9.22039e-06
8.70122e-06
9.33828e-06
1.02282e-05
1.11043e-05
9.64807e-06
1.14655e-05
1.17961e-05
1.15531e-05
1.17671e-05
1.20252e-05
1.21296e-05
1.23114e-05
1.25834e-05
1.26142e-05
1.24689e-05
1.14042e-05
9.61685e-06
9.89808e-06
1.02717e-05
1.00762e-05
1.09547e-05
1.20682e-05
1.30697e-05
1.34212e-05
1.34938e-05
1.34584e-05
1.31876e-05
1.24612e-05
1.15933e-05
1.10411e-05
1.11824e-05
1.14937e-05
1.14053e-05
1.04412e-05
9.72049e-06
2.09449e-06
1.45463e-06
1.37107e-06
1.12174e-06
9.16318e-07
1.46528e-06
2.97963e-06
5.53023e-06
7.15929e-06
6.98666e-06
4.68678e-06
3.02461e-06
3.2056e-06
4.38978e-06
5.20443e-06
5.67508e-06
5.83927e-06
5.87182e-06
5.8462e-06
5.87087e-06
5.85694e-06
5.8659e-06
5.55892e-06
5.06435e-06
4.5399e-06
3.57348e-06
3.52091e-06
3.5897e-06
3.52412e-06
2.96729e-06
1.66779e-06
1.63261e-06
1.46255e-06
1.48227e-06
1.68859e-06
1.79084e-06
1.82804e-06
1.6605e-06
1.8215e-06
2.67442e-06
2.90592e-06
2.32705e-06
2.33069e-06
2.62729e-06
2.82842e-06
3.6279e-06
4.13568e-06
4.27531e-06
4.36803e-06
4.45363e-06
4.36925e-06
4.12648e-06
3.73693e-06
3.26085e-06
2.55149e-06
2.32852e-06
2.1666e-06
2.01866e-06
1.84701e-06
1.72896e-06
6.46339e-07
6.65363e-07
1.40031e-06
1.31857e-06
1.32765e-06
1.41401e-06
1.63018e-06
1.93854e-06
2.30046e-06
2.62065e-06
2.8313e-06
2.99154e-06
3.11782e-06
3.11986e-06
3.16472e-06
3.13172e-06
3.1084e-06
2.83461e-06
2.521e-06
2.14354e-06
1.78964e-06
1.49901e-06
1.27081e-06
1.0446e-06
6.78527e-07
6.52715e-07
9.71587e-07
6.29349e-07
3.80464e-07
2.75876e-07
1.11633e-07
1.1099e-07
9.03142e-08
8.19718e-08
7.94261e-08
7.64715e-08
8.88518e-08
9.03782e-08
9.78796e-08
9.51124e-08
1.06865e-07
1.29666e-07
1.50389e-07
1.49745e-07
1.45849e-07
1.55482e-07
1.5956e-07
1.53518e-07
1.63767e-07
1.63196e-07
1.54856e-07
1.49453e-07
1.66957e-07
1.56293e-07
1.61962e-07
1.53988e-07
1.43294e-07
1.31358e-07
1.20278e-07
1.30644e-07
2.2282e-07
9.13097e-08
3.62168e-08
3.26192e-08
3.38338e-08
5.16663e-08
9.43425e-08
1.12196e-07
1.48023e-07
2.57901e-07
3.21625e-07
4.73235e-07
4.38737e-07
3.28375e-07
3.1146e-07
2.92598e-07
2.44912e-07
2.2867e-07
2.07765e-07
2.07674e-07
2.16463e-07
2.2788e-07
2.86139e-07
2.87621e-07
3.23787e-07
3.18966e-07
3.22086e-07
3.48313e-07
1.09288e-06
2.75501e-06
9.51106e-08
5.48685e-08
5.82313e-08
6.22126e-08
8.43713e-08
9.92145e-08
8.31861e-08
6.58888e-08
4.80073e-08
5.03217e-08
4.50088e-08