/*--------------------------------*- C++ -*----------------------------------*\
| =========                 |                                                 |
| \\      /  F ield         | OpenFOAM: The Open Source CFD Toolbox           |
|  \\    /   O peration     | Version:  2.1.1                                 |
|   \\  /    A nd           | Web:      www.OpenFOAM.org                      |
|    \\/     M anipulation  |                                                 |
\*---------------------------------------------------------------------------*/
FoamFile
{
    version     2.0;
    format      ascii;
    class       volScalarField;
    location    "0.007750000";
    object      k;
}
// * * * * * * * * * * * * * * * * * * * * * * * * * * * * * * * * * * * * * //

dimensions      [0 2 -2 0 0 0 0];

internalField   nonuniform List<scalar> 
12384
(
48.3944
82.587
105.443
128.044
151.03
171.977
188.5
196.217
195.53
186.444
168.582
139.183
95.0899
45.4631
139.917
193.057
230.356
256.602
280.319
304.406
328.655
355.023
378.904
397.005
397.422
401.932
424.195
482.125
606.611
766.558
948.713
1130.81
1285.08
1368.44
1372.12
1285.22
1213.3
1136.32
1041.01
916.164
752.569
540.402
272.066
101.73
264.406
348.65
414.548
461.145
498.078
536.578
582.726
634.174
643.409
629.972
623.471
641.262
712.966
870.884
1103.34
1364.87
1639.83
1874.45
2057.25
2124.96
2115.31
2058.55
1948.34
1794.47
1598.16
1360.74
1073.84
724.368
335.652
199.183
336.989
533.805
792.386
1015.25
1191.55
1354.43
1541.39
1689.58
1652.74
1511.36
1335.41
1172.22
1047.22
988.623
1022.54
1154.51
1367.06
1617.12
1846.46
2024.08
2168.92
2277.56
2330.48
2302.43
2184.36
1977.58
1675.47
1224.79
673.267
396.881
512.593
703.328
823.26
854.443
871.222
1008.95
1371.9
1932.89
2621.38
3351.76
4007.74
4558.39
4744.05
4746.21
4579.49
4441.32
4265.49
4018.03
3653.97
3162.4
2544.47
1751.71
716.391
292.047
248.504
247.54
251.651
246.519
236.506
220.368
184.377
265.337
351.398
452.755
567.666
686.065
802.785
923.499
1005.2
1003.04
971.072
953.627
988.378
1146.15
1425.06
1771.31
2146.55
2487.22
2732.36
2779.13
2650.91
2567.98
2490.47
2376.25
2192.69
1916.79
1531.7
1028.29
496.297
284.503
155.689
277.177
431.974
585.008
715.767
815.63
885.011
926.899
1003.5
1175.53
1502.33
1905.69
2403.56
2975.38
3574.12
4115.53
4501.48
4602.9
4382.43
3912.7
3616.52
3325.38
3003.4
2562.88
1927.61
1072.55
370.452
206.505
203.185
242.926
157.461
257.025
418.44
658.81
1055.94
1618.98
2270.91
3025.93
3832.26
4617.89
5265.1
5629.41
5595.98
5095.67
4653.83
4281.11
3897.98
3439.93
2843.41
2086.78
1170.06
454.094
291.839
261.882
255.958
255.647
244.351
225.209
213.36
216.168
418.443
818.759
1295.39
1968
2683.67
3490.6
4349.98
5192.88
5905.54
6316.22
6391.46
5868.42
5298.57
4796.13
4248.7
3595.24
2767.75
1765.01
805.606
384.47
308.382
302.647
308.16
308.764
293.273
257.733
215.618
181.483
155.855
141.157
275.84
534.758
894.542
1281.12
1803.93
2508.5
3335.97
4260.48
5188.49
6005.68
6562.06
6672.49
6274.38
5592.69
5030.03
4482.7
3831.34
3032.47
2066.89
1122.88
552.202
380.068
347.436
348.679
344.141
313.575
279.302
256.682
246.82
249.817
903.402
1570.89
2019.41
2598.77
3599.25
4581.39
5439.45
6056.7
6236.7
5812.43
4961.22
4245.05
3502.97
2694.32
1872.93
1201.72
874.52
734.935
641.133
576.848
537.174
516.188
506.89
492.382
472.259
445.264
414.09
380.493
343.724
306.477
149.942
143.579
251.437
491.511
796.207
1063.67
1274.7
1424.48
1502.12
1509.56
1466.53
1387.85
1284.15
1139.75
982.268
840.446
734.678
692.725
709.875
785.741
895.306
1016.86
1091.29
1044.75
914.071
825.876
758.062
679.304
555.882
387.257
67.7906
91.2063
81.7487
62.6496
48.8531
81.7646
372.104
866.3
1286.44
1589.08
1841.08
2028.92
2166.16
2258.29
2387.74
2340.99
2174.3
1850.56
1484.32
1104.99
797.319
595.492
488.762
424.578
366.206
299.316
232.935
162.273
89.4795
28.2488
82.6156
55.1179
73.6448
103.176
137.211
171.74
202.751
223.188
231.156
223.632
199.643
162.689
117.144
103.671
149.313
219.281
382.403
595.305
807.796
970.564
1047.62
1025.18
905.532
745.781
602.388
512.625
498.457
591.552
823.908
1174.6
1640.95
2198.79
2797.8
3347.04
3750.85
3920.45
3831.66
3506.48
2988.09
2329.95
1621.84
974.427
479.662
348.561
391.083
726.881
1112.34
1421.01
1585.04
1593.81
1430.3
1178.63
930.455
736.512
632.378
663.016
888.298
1346.61
2026.57
2896.31
3890.79
4882.38
5747.31
6332.37
6533.94
6350.13
5822.83
5035.92
4075.7
3050.26
2078.85
1258.51
632.268
528.009
812.904
1853.84
2999.31
3851.99
4307.17
4375.29
4018.17
3424.65
2758.24
2124.21
1600.88
1219.89
1002.88
1018.5
1336.36
1996.28
2950.9
4061.63
5111.59
5911.53
6320.8
6294.38
5864.5
5103.24
4117.74
3068.92
2113.5
1340.03
778.912
957.847
400.89
408.668
346.749
324.691
542.921
1234.09
2518.65
4369.26
6732.72
9513.93
12546.6
15540.9
18087.1
19788.3
20443.9
19926.8
18401
16093.8
13136.3
9765.51
6427.23
3645.38
1716.84
653.066
304.761
258.553
262.15
248.742
239.241
275.893
304.371
709.608
1267.23
1805.5
2176.57
2326.75
2247.68
1939.84
1559.59
1224.09
999.446
953.908
1183.34
1720.29
2581.61
3769.32
5241.15
6892.65
8523.35
9858.31
10646.1
10730.9
10110.9
8907.26
7279.93
5444.88
3671.43
2187.29
1101.61
711.055
346.048
863.487
1186.5
1352.82
1346.35
1199.83
1040.94
961.288
1015.18
1281.2
1815.59
2636.66
3839.86
5495.49
7609.16
10073.2
12671.4
15037.5
16741.2
17500.8
17146.4
15785.3
13683.2
10985.2
7919.6
4852.26
2353.71
779.354
180.376
274.266
165.787
147.707
243.907
584.185
1215.94
2129.39
3442.61
5250.05
7583.44
10408.8
13536.7
16641.1
19230.4
20870.8
21190.2
20233.3
18184.9
15201.8
11468.1
7418.43
3886.99
1576.7
470.696
248.918
263.163
253.658
225.055
170.224
131.216
237.869
343.266
433.843
1000.08
2010.47
3499.69
5487.62
7975.54
10942.6
14204.7
17461.5
20267.9
22146.6
22682.4
21890.3
19905.1
16810.3
12788.4
8291.04
4285.27
1575.18
441.009
353.44
382.655
387.387
365.686
294.097
206.176
141.119
110.684
165.11
235.254
309.338
454.711
912.894
1806.07
3201.42
5125.39
7571.94
10479.2
13706.6
16959.7
19805
21771.3
22601.7
22077.7
20325.3
17535.2
13928.3
9793.4
5835.3
2706.75
866.247
362.988
306.098
304.017
265.592
198.713
146.116
129.186
246.543
558.707
565.557
1037.75
2671.54
4887.48
7534.25
10580.4
13868.7
17067.4
19675.8
21201.8
21152
19236.8
15467.9
10627.3
6151.02
2953.66
1101.21
495.017
451.167
464.185
457.247
458.136
456.269
449.61
430.502
398.817
367.263
341.564
298.449
261.375
294.604
551.904
923.595
1432.38
2056.18
2737
3394.43
3939.76
4297.77
4406.25
4226.08
3776.93
3140.2
2435.03
1794.2
1299.64
1010.46
910.29
980.633
1173.28
1483.49
1856.59
2251.48
2586.89
2672.18
2458.72
1975.36
1285.77
663.76
130.141
171.323
148.006
136.342
182.617
467.916
1099.89
2227.23
3833.87
5706.12
7507.05
8925.67
9798.25
10001.8
9544.47
8475.25
7046.15
5442.61
3903.58
2550.85
1499.35
789.114
437.769
333.616
351.31
390.847
391.304
339.641
237.706
60.8925
119.333
87.6477
116.969
158.155
198.932
233.496
258.899
272.034
272.787
260.533
234.675
198.497
155.485
145.163
164.391
258.446
401.29
554.232
667.536
716.427
706.948
659.387
604.872
585.633
613.299
686.04
825.471
1092.89
1497.89
1971.03
2456.34
2929.13
3373.8
3758.79
4017.21
4112.64
4037.83
3803.42
3417.56
2868.19
2180.83
1440.82
787.446
553.239
444.743
885.811
1107.74
1171.28
1101.77
962.22
814.249
717.281
691.671
736.139
874.692
1175.2
1725.36
2513.55
3445.81
4430.25
5389.42
6245.38
6917.88
7320.68
7397.41
7161.82
6655.19
5935.07
5052.06
4044.69
2978.2
1952.17
1082.77
876.24
1102.39
2586.04
3399.78
3697.41
3658.2
3452.2
3128.47
2789.86
2482.64
2212.22
1970.4
1758.84
1675.89
1936.06
2625.54
3684.15
4916.85
6161.8
7232.42
7988.55
8313.86
8181.91
7657.73
6819.27
5733.27
4492.29
3229.14
2102.51
1242.64
1421.79
357.859
325.635
242.64
379.057
1086.43
2558.57
4608.26
6932
9371.17
11842.7
14320.9
16671.3
18748.3
20233.6
20846.2
20601.8
19667.9
18071.8
15883.8
13084.1
9781.48
6415.54
3589.42
1678.46
627.412
241.661
194.441
252.17
300.423
324.139
365.555
925.244
1377.8
1636.53
1652.31
1501.76
1282.35
1088.17
988.389
1007.94
1165.18
1537.6
2175.92
3063.63
4135.32
5340.08
6635.36
7998.98
9327.38
10491.7
11260.7
11445.1
11064.4
10171.3
8819.36
7106.64
5205.64
3378.42
1874.37
1164.85
431.894
1109.06
1171.99
1096.7
996.105
960.337
1047.54
1228.62
1542.19
2090.87
2881.68
3871.09
5039.9
6398.62
7945.93
9662.35
11467.2
13201.4
14621.5
15520.1
15593.5
14999
13843.1
12189.1
9940.81
7175.94
4307.55
1960.07
583.052
306.032
204.075
175.019
388.194
991.136
1973.96
3365.05
5133.33
7175.05
9376.15
11686.6
14058.1
16381.7
18418.3
19902
20511
20223.4
19221
17496.3
14911.9
11366.2
7359.51
3877.88
1605.57
495.743
168.272
186.616
240.358
212.54
152.411
257.465
569.452
781.249
1738.06
3379.34
5510.76
7884.77
10340.5
12836.1
15321.4
17733.7
19828.4
21425.4
22147.7
21942.1
20954.1
19174.6
16397.5
12528.3
8124.27
4219.43
1578.54
421.708
274.072
364.699
468.052
444.167
325.708
213.265
154.825
195.125
246.576
353.38
676.894
1581.23
3182.75
5387.38
7972.65
10734.1
13506.7
16240
18821
21067.5
22646.5
23275.2
22958.2
21888.6
20129.7
17574.9
14096.9
9959.62
5884.73
2612.66
779.511
311.631
354.54
357.081
270.963
188.51
150.21
264.079
457.753
667.16
2355.87
5359.7
8941.86
12490
15802.9
18799.8
21512.2
23790.8
25367.2
25789.6
24970.8
22476.4
18122.6
12664.2
7497.8
3621.9
1379.05
609.861
521.84
499.099
472.323
429.4
371.32
298.575
240.438
235.522
291.335
299.577
464.561
517.61
895.185
1429.84
2078.24
2789.73
3496.17
4139.84
4664.66
5029.32
5177.16
5072.85
4715.65
4160.82
3490.58
2807.49
2187
1724.65
1456.86
1373.14
1394.68
1456.66
1512.15
1604.54
1797.67
2009.88
2134.33
2044.92
1613.3
800.466
170.517
194.409
118.367
159.892
466.42
1120.57
2268.79
3943.15
5952.26
7944.8
9657.32
10909.9
11671.3
11918
11566
10672.6
9353.81
7804.33
6140.91
4459.31
2892.12
1590.3
734.403
312.674
176.11
153.186
181.924
211.543
193.938
39.3421
145.871
132.92
176.984
230.227
273.85
301.594
313.535
315.122
308.79
294.509
272.861
245.525
214.023
186.425
185.187
321.689
424.696
506.575
529.968
496.521
440.521
400.679
418.347
527.373
715.134
955.14
1265.18
1722.87
2305.69
2846.38
3240.59
3493.46
3652.97
3772.5
3861.18
3895.19
3842.96
3708.05
3488.89
3129.1
2585.72
1878.56
1141.59
737.863
480.023
1078.61
1078.67
909.046
686.977
510.098
443.856
506.511
692.067
957.242
1311.04
1866.65
2725.32
3773
4787.88
5636.9
6282.36
6768.24
7094.01
7259.21
7218.03
6987.86
6604.41
6075.61
5424.77
4624.79
3672.09
2609.75
1572.4
1163.75
1320.71
3403.77
3643.15
3305.71
2831.92
2459.72
2247.22
2232.88
2345.81
2480.93
2540.14
2523.89
2663.77
3328.84
4476.84
5790.27
6990.66
8025.02
8851.07
9418.76
9597.66
9411.76
8895.13
8102.11
7067.31
5816.04
4417.57
3028.71
1853.89
1816.41
371.934
324.597
241.991
626.907
1952.93
4117.38
6611.54
8932.42
10888.6
12473.4
13844.8
15082.4
16271.8
17314.3
18062.4
18297.8
18090.7
17488.3
16421.5
14760.9
12289.8
9142.71
5878.39
3178.12
1385.63
492.635
191.825
237.563
330.762
358.044
402.346
1132.77
1399.74
1378.54
1141.47
856.027
651.461
600.756
737.954
1068.7
1574.25
2267.29
3203.83
4298.33
5368
6331.86
7166.77
7936.01
8673.21
9412.12
10073.5
10453.4
10466.7
10083.3
9282.64
8040.93
6404.58
4559.02
2813.48
1582.74
498.392
1425.19
1175.18
874.731
739.352
844.217
1155.04
1552.99
2089.62
2891.62
3960.98
5135.19
6248.48
7234.71
8058.53
8796.58
9557.3
10370.9
11212
11999.1
12422.4
12532
12325
11745.4
10591.3
8604.89
5911.1
3156.06
1175.88
398.637
247.862
238.108
587.988
1424.69
2790.14
4687.87
6875.9
8971.79
10704.8
12063.7
13219.2
14340.5
15449.5
16507.2
17313.8
17725.1
17797.9
17455
16431.1
14190.8
10685.2
6691.27
3370.34
1337.62
392.607
165.28
251.74
247.772
172.76
269.467
1066.22
1276.19
2628.3
4784.38
7286.64
9643.26
11590.2
13121
14367.7
15518.1
16607.7
17689.6
18534.6
18997.4
19112.1
18780.3
17694.1
15346.8
11635.6
7352.34
3653.74
1305.3
406.879
401.065
589.816
604.224
452.014
299.913
226.648
234.665
324.784
452.169
1037.66
2456.53
4734.87
7603.19
10542.1
13129.5
15172.7
16806.4
18131
19251.5
20168.8
20789.5
20877.8
20533.2
19765.5
18498.9
16294
12949
8837.08
4837.79
1856.24
556
430.642
434.403
329.411
228.871
187.54
287.21
654.846
1581.12
4353.13
8454.72
12729.8
16288
18884.8
20664.9
22027.3
23250.3
24497.6
25417.8
25868.3
25313.9
22872.9
18286.3
12497.9
7061.33
3151.12
1129.5
607.71
546.974
538.671
513.34
455
359.958
256.86
217.498
292.695
320.534
673.522
732.059
1239.8
1901.97
2612.47
3305.4
3930.76
4467.8
4902.12
5222.25
5399.41
5406.49
5225.09
4889.07
4414.56
3838.85
3192.1
2578.25
2122.02
1872.01
1745.25
1590.14
1312.33
1044.45
1036.9
1284.22
1675.52
2003.81
1951.54
883.084
195.511
200.667
156.001
371.383
951.533
2031.01
3661.43
5627.43
7599.32
9275.07
10503.3
11358.3
11831.6
12016.7
11760.7
11223.9
10378.2
9296.49
7895.32
6205.19
4325.6
2552.85
1233.76
485.568
181.795
80.7702
85.521
127.376
142.957
19.3488
163.923
191.131
252.701
312.595
346.969
353.794
341.266
326.942
316.023
308.794
303.392
297.952
289.786
226.818
207.63
398.851
458.602
479.868
437.57
351.501
270.388
241.561
309.558
519.369
857.957
1264.07
1746.57
2389.33
3128.43
3646.72
3820.94
3724.46
3503.54
3298.6
3188.5
3168.04
3210.93
3268.82
3286.29
3176.01
2848.68
2262.48
1517.27
897.61
497.46
1310.12
1091.52
729.689
414.402
244.676
260.677
467.025
836.879
1256.05
1769.23
2557.7
3701.3
4887.57
5745.88
6178.46
6267.7
6189.17
6059.67
5977.45
5899.57
5810.99
5699.41
5518.69
5236.1
4778.77
4093.91
3156.09
2070.84
1402.55
1480.4
4386.12
3946.34
2966.56
2092.86
1570.96
1465.73
1773.6
2309.25
2831.61
3175.63
3391.95
3878.54
5071.53
6535.78
7660.34
8274.6
8589.41
8808.37
9075.43
9237.18
9242.93
9024.18
8549.56
7798.53
6747.58
5416.7
3942.66
2562.15
2181.63
432.079
353.962
297.282
1023.36
2926.09
5566.1
8192.59
10151.5
11275
11682.2
11731.6
11738.4
11879.2
12300.5
12975.5
13756.5
14492.2
15013.3
15228.7
14894.6
13617.5
11225.9
8030.69
4827.63
2329.41
902.231
324.761
237.692
331.272
386.171
416.287
1340.35
1427.89
1199.39
815.273
486.894
331.253
378.543
682.876
1256.87
1975.13
2864.35
4008.53
5203.21
6155.13
6756.16
7011.55
7026.84
7003.59
7116.39
7482.66
8020.14
8549.74
8883.19
8849.22
8314.81
7220.77
5650.26
3898.39
1953.38
548.275
1821.64
1249.64
723.65
562.152
782.668
1267.28
1829.73
2548.06
3569.71
4927.4
6331.53
7437.63
8073.84
8150.3
7827.35
7424.41
7220.08
7352.42
7856.3
8607.36
9365.82
10048.8
10466
10348.9
9252.13
7024.23
4175.45
1774.43
503.278
302.184
317.417
782.286
1836.8
3600.59
5996.5
8530.42
10502.6
11512.8
11659.9
11385.9
11130
11186.8
11663.4
12559.7
13664.8
14813.4
15821.1
16334.3
15627.1
13158.6
9298.1
5334.06
2442.16
873.102
275.362
266.241
268.322
186.583
282.184
1656.08
1772.17
3438.17
5939.49
8591.78
10685.4
11882.6
12243.1
12105.4
11867.5
11882
12287.4
13160.2
14277.2
15480.4
16597.3
17216.6
16643
14209.6
10226.5
5948.75
2662.82
934.417
555.558
712.289
730.657
543.765
365.802
306.996
278.53
503.538
596.86
1479.19
3370.16
6210.29
9538
12502.3
14473.1
15350.1
15510.6
15346.5
15219.2
15361.6
15849.6
16425.3
17021.9
17437.7
17480.1
16676.7
14536.4
10997.1
6830.54
3129.48
1003.82
527.058
471.083
348.409
246.264
224.549
311.573
1555.49
2923.35
6494.86
11109.2
15389.4
18319
19663.9
19797.8
19410.3
19259.6
19921.7
21299.6
22971.3
24299.1
24124.1
21388.4
16235.5
10172.1
5027.6
1821.8
745.521
632.878
690.97
739.038
725.588
625.726
458.3
310.077
307.91
342.74
822.873
924.56
1529.51
2248.94
2936.28
3521.97
3976.88
4310.4
4545.76
4705.89
4809.51
4882.78
4905.36
4914.89
4851.81
4621.96
4131.63
3439.89
2774.27
2331.21
2076.32
1789.91
1286.89
707.099
524.353
768.817
1337.87
2010.05
2310.22
907.004
212.968
212.07
259.286
633.771
1491.9
2960.53
4878.09
6832.27
8410.74
9473.5
9972.93
10182.9
10153.7
10065
9885.15
9819.22
9733.09
9456.29
8730.28
7423.69
5541.26
3444.67
1723.06
701.75
254.875
82.1875
53.8333
79.411
99.5831
7.9509
173.113
261.182
334.837
387.14
396.612
370.322
330.603
300.66
289.064
299.103
325.023
356.389
380.784
265.055
226.918
474.278
495.923
471.303
385.106
269.04
175.375
151.273
244.809
530.907
996.424
1542.56
2175.38
2992.54
3835.57
4232.37
4086.98
3577.8
2968.9
2459.47
2165.9
2129.13
2319.83
2637.62
2942.71
3116.85
3031.01
2601.24
1878.97
1004.07
482.607
1530.04
1132.71
632.659
272.935
135.746
226.939
549.617
1010.92
1491.62
2116.99
3141.95
4537.3
5698.3
6188.08
6038.97
5499.3
4861.84
4316.09
3992.71
3901.41
4028.36
4284.13
4543.77
4702.5
4655.32
4318.76
3592.79
2536.22
1553.92
1552.82
5450.19
4339.56
2764.9
1547.84
906.09
874.344
1437.7
2315.71
3144.25
3736.29
4218.04
5157.42
6864.31
8326.57
8794.68
8428.24
7702.28
7079.1
6837.32
6986.9
7376.85
7778.93
7971.68
7803.05
7197.73
6146.23
4774.26
3318.78
2477.73
520.608
400.879
399.318
1496.65
3835.18
6772.52
9361.64
10822.6
11047.7
10330.3
9179.41
8091.07
7309.06
7061.63
7530.21
8607.49
10064.1
11618
13023.7
13938.4
13901.7
12463.7
9672.32
6257.24
3222.79
1310.47
484.914
272.159
319.642
413.061
399.639
1494.29
1462.22
1113.81
661.895
339.67
233.7
341.422
737.214
1401.3
2185.69
3178.39
4465.73
5722.22
6553.36
6833.35
6565.84
5858.94
5054.32
4471.47
4413.75
5006.86
5987.5
7055.31
7851.42
8130.37
7732.31
6632.56
5068.54
2227.68
553.108
2238.06
1395.45
632.218
419.635
710.098
1314.68
1987.54
2841.94
4052.07
5642.22
7324.9
8518.15
8917.12
8379.25
7116.04
5630.59
4430.11
3867.81
4097.91
5060.29
6331.12
7749.8
8960.45
9702.17
9405.72
7710.93
4942.97
2281.86
559.05
383.936
403.606
949.187
2186.74
4320.89
7163.37
9968.19
11724.7
11959.1
10911
9311.62
7787.19
6852.57
6715.4
7591.45
9203.26
11204
13345.1
15128.5
15846.9
14529.9
11212.7
7039.51
3540.84
1413.44
470.703
298.08
274.808
199.003
302.291
2078.86
2139.6
4068.61
6806.91
9519.64
11296.8
11768.8
11039.3
9662.62
8178.98
7184.57
6918.64
7674.95
9262.71
11334.7
13604.3
15648.3
16678.5
15615.9
12308.2
7881.1
3973.82
1588.79
808.959
832.882
806.653
577.131
401.575
397.638
312.199
816.742
776.719
1923.5
4175.37
7428.87
11021.8
13773.3
14872.9
14447.5
13108.9
11518.4
10264.6
9692.38
10027.6
11110.5
12595.8
14142.3
15427.9
15947.6
15041.7
12307.4
8308.03
4192.36
1432.32
605.184
459.645
322.543
242.732
265.463
334.089
2980.02
4375.91
8269.95
12851.1
16754.8
18832.5
18815.2
17276.8
15135.2
13597.9
13477.9
15000.7
17657.4
20626
22531.8
21870.5
18070.2
12264.6
6485.43
2416.17
945.824
819.557
969.529
1119.4
1177.38
1089
857.558
566.058
379.56
369.429
899.819
1072.38
1736.96
2463.46
3072
3487.94
3699.49
3735.27
3643.79
3514.75
3453.87
3553.23
3833.95
4265.31
4716.18
4985.13
4834.25
4184.86
3314.05
2637.2
2253.18
1925.63
1391.44
696.011
380.242
553.544
1186
2070.36
2585.2
866.915
231.834
226.318
348.593
838.049
1907.53
3625.62
5624.91
7363.61
8403.15
8729.76
8406.96
7788.46
7125.56
6699.48
6733.26
7200.37
7901.14
8500.61
8606.27
7946.65
6378.75
4172.48
2112.26
855.019
314.99
104.623
50.0526
58.2666
71.8255
3.21869
175.893
334.907
409.017
438.659
410.31
344.385
277.6
235.597
231.361
271.973
345.735
425.488
479.208
292.889
241.099
529.374
530.617
480.192
368.689
236.568
136.288
112.385
216.168
546.225
1087.47
1723.16
2468.25
3435.67
4322.94
4540.72
4063.88
3197.85
2290.12
1566.12
1152.55
1136.81
1495.67
2076.99
2658.85
3095.21
3220.13
2914.53
2165.87
1017.51
450.428
1690.88
1169.41
596.878
244.917
165.619
317.857
669.795
1111.72
1582.74
2302.29
3583.21
5170.86
6160.34
6197.06
5480.55
4427.23
3381.5
2564.86
2089.57
2016.78
2347.51
2931.23
3603.86
4163.49
4484.52
4466.16
3943.74
2898.53
1568.21
1505.72
6454.24
4778.67
2710.57
1237.82
551.452
574.988
1257.21
2300.26
3302.92
4083.08
4845.65
6291.52
8390.07
9597.95
9273.59
7920.93
6220.58
4806.67
3998.79
3996.81
4682.25
5745.2
6735.02
7308.03
7294.9
6658.73
5511.67
4043.81
2605.16
616.634
460.768
569.579
2006.14
4642.8
7793.83
10342.2
11390.4
10905.7
9332.52
7327.86
5447.45
3963.86
3136.38
3209.09
4340.23
6231.41
8454.52
10713.2
12586.8
13543.7
12957.3
10647.7
7198.25
3817.04
1572.27
571.817
286.563
308.309
444.888
382.941
1547.72
1462.27
1079.72
639.74
354.814
284.656
416.6
801.848
1409.09
2146.07
3176.52
4575.07
5911.05
6718.07
6851.59
6266.69
5034.28
3585.72
2386.11
1873.57
2392.97
3665.97
5289.78
6773.74
7790.06
8073.64
7497.17
6200.16
2324.25
527.164
2591.29
1605.62
612.158
310.448
619.425
1276.25
2002.01
2928.91
4261.46
6025.3
7935.35
9340.06
9704.59
8832.87
6955.17
4670.19
2662.68
1528.33
1584.58
2645.63
4165.18
6006.13
7738.68
9070.98
9364.24
8104.42
5438.2
2609.82
538.299
499.505
497.39
1093.44
2463.32
4854.37
8056.91
11087
12669.8
12317
10353.6
7779.73
5295.05
3556
2861.63
3609.52
5454.9
7950.34
10801.3
13463.1
15260.7
14911.8
12284.4
8204.61
4371.28
1837.08
628.57
327.787
273.279
220.177
371.726
2274.12
2339.02
4497.36
7417.03
10204
11770.4
11735.6
10235.4
7949.65
5506.78
3644.09
2796.6
3455.88
5274.84
7796.76
10739.4
13695
15882.5
15902.2
13370.8
9086.14
4882.08
2115.62
1059.4
933.445
821.129
555.021
437.476
522.581
333.083
1180.42
951.555
2299.64
4770.91
8293.77
12025.7
14475.4
14764.1
13230.9
10685.3
7951.04
5792.87
4685.25
5001.91
6534.86
8651.37
11059.7
13283.6
14857
14953.5
12971.8
9206.31
4804.63
1656.2
616.164
414.814
308.723
281.426
346.175
386.017
3802.03
5501.18
9278.32
13519.7
17033.7
18395.7
17256
14267.9
10588.4
7853.76
7102.18
8782.6
12093.1
16138.8
19540.4
20655.3
18316.6
13263.2
7367.96
2874.8
1261.2
1135.28
1326.05
1537.53
1646.72
1580.36
1332.48
971.776
638.048
462.362
896.259
1150.58
1848.2
2583.05
3130.96
3388.33
3355.35
3068.76
2614.98
2171.24
1941.08
2047.95
2540.72
3321.57
4233.58
4986.48
5249.87
4746.76
3704.05
2738.97
2203.31
1884.28
1468.17
882.719
520.935
595.766
1187.65
2116.33
2672.92
795.977
259.859
234.856
381.546
912.801
2062.37
3867.14
5826.84
7303.66
7870.6
7576.68
6599.22
5269.32
4073.88
3343.56
3539.5
4463.35
5782.89
7090.15
7919.02
7903.95
6802.74
4695.76
2416.5
937.59
332.997
123.046
59.5345
56.573
62.0901
2.09076
173.503
396.18
460.072
460.631
391.029
288.924
201.092
154.36
165.786
248.813
379.536
505.035
563.08
308.33
261.267
559.56
557.463
494.317
373.228
236.019
134.449
109.156
213.102
547.351
1099
1764.17
2579.42
3662.25
4554.87
4609.87
3894.61
2816.92
1758.02
933.876
462.022
492.241
1020.46
1826.65
2632.27
3239.78
3456.36
3160.45
2326.67
982.981
427.196
1773.67
1172.37
596.488
303.319
276.614
438.813
738.195
1091.19
1521.97
2345
3891.65
5599.56
6369.02
6033.02
4929.49
3590.39
2349.14
1422.71
880.488
808.159
1283.12
2150.32
3143.8
3993.37
4537.67
4674.06
4195.52
3090.37
1502.56
1304.57
7261.76
5197.04
2769.57
1137.78
470.689
531.497
1186
2198.46
3231.3
4118.17
5160.12
7105.74
9455.05
10396.6
9535.7
7578.43
5267.37
3286.07
2016.21
1746.95
2474.36
3976.61
5609.64
6825.53
7338.87
7102.01
6163.49
4632.5
2516.91
742.25
598.738
939.229
2651.09
5431.69
8705.78
11282.9
12162.7
11316
9277.43
6793.57
4464.79
2556.56
1320.82
930.807
1864.23
3814.35
6319.61
9015.6
11442.6
12985.3
12918.2
10988.2
7543.95
3971.04
1591.23
544.192
277.258
317.515
487.633
383.845
1493.2
1399.03
1053.85
682.963
456.331
408.992
523.612
815.782
1269.5
1884.77
2926.24
4416.2
5851.75
6782.63
7012
6413.83
4979.59
3173.4
1527.45
608.21
926.416
2243.59
4100.7
5999.14
7525.84
8331
8198.12
7129.07
2176.1
526.955
2792.51
1875.24
729.503
250.986
506.527
1146.64
1866.16
2792.18
4149.76
5998.96
8088.75
9730.7
10266.9
9442.71
7433.16
4855.61
2415.4
865.936
710.485
1622.25
3137.73
5108.19
7107.83
8743.47
9325.21
8282.06
5625.98
2687.79
474.986
659.129
625.74
1224.77
2678.71
5193.44
8560.21
11770.7
13369.2
12786.9
10377.6
7319.85
4303
2000.41
848.19
1429.29
3185.89
5756.61
8868.83
11966.2
14333.6
14589.7
12536.3
8686.87
4780.13
2063.19
714.514
340.026
290.674
297.532
567.329
2235.5
2501.38
4778.22
7786.21
10671.5
12245.2
12066.1
10237.7
7521.68
4563.16
2153.17
921.973
1356.16
3021.83
5543.15
8706.07
12036.6
14769.5
15293.7
13337.8
9303.55
5097.54
2263.09
1144.56
931.473
759.128
531.717
527.608
697.761
384.864
1413.3
1105.44
2574.64
5109.98
8742.43
12537.7
14783.9
14584.9
12393.7
9128.35
5704.58
2980.79
1587.43
1981.11
3716.34
6096.39
8944.21
11742.3
13991.3
14687.8
13182.6
9512.1
4913.33
1614.96
554.728
398.91
382.869
419.848
514.338
562.597
3918.5
5937.43
9319.64
13209.4
16571.9
17598.2
15820.8
11921.2
7206.38
3672.21
2639.05
4435.23
7946.53
12421.3
16608.9
18860.7
17702.8
13526.3
7813.54
3330.96
1759.67
1549.1
1628.76
1761.65
1842.31
1807.13
1645.18
1388.37
1083.11
686.988
849.501
1163.04
1867.23
2647.32
3224.22
3434.91
3286.94
2791.03
2035.66
1329.7
999.19
1130.66
1746.27
2710.37
3886.26
4934.41
5502.38
5150.83
3974.07
2678.66
1952.63
1646.45
1394.24
1020.72
731.597
758.979
1235.99
2058.31
2548.33
746.749
312.55
247.526
334.789
804.077
1898.08
3676.64
5594.37
6912.9
7247.25
6605.32
5267.42
3522.21
2020.2
1168.09
1516.28
2697.46
4317.85
5999.78
7245.58
7633.54
6914.7
4991.38
2638.51
982.871
321.216
127.601
74.8498
71.2526
72.767
7.7487
168.826
431.723
483.258
457.08
354.661
229.913
135.806
98.2186
133.921
263.284
443.653
592.356
639.652
552.969
391.548
373.742
444.327
552.653
563.791
510.28
400.908
271.006
170.262
139.838
233.63
530.204
1023.35
1647.51
2503.11
3663.49
4546.91
4517.85
3735.98
2658.47
1628.87
813.641
339.547
462.666
1123.38
2045.28
2942.66
3569.68
3730.89
3302.7
2328.28
1315.01
533.547
495.873
1197.81
1660.19
1059.32
546.448
333.87
344.759
492.238
715.214
969.852
1366.42
2309.53
4092.1
5847.87
6481.18
5977.74
4759.89
3382.45
2123.69
1180.3
606.285
576.613
1235.6
2316.75
3463.46
4370.67
4863.81
4824.52
4119.36
2872.72
1761.26
907.569
754.652
4066.04
7636.34
5411.38
2848.3
1191.38
571.539
628.667
1157.3
1991.22
2919.19
3816.71
5087.87
7491.51
10017.5
10863.7
9942.11
7993.94
5604.09
3393.3
1754.52
1124.88
1750.43
3438.54
5345.57
6837.08
7565.88
7485.23
6540.47
4837.27
3172.78
1048.34
1462.95
2093.82
1128.47
1612.2
3358.91
6164
9490.53
12161.2
13143
12344.7
10334.4
7784.78
5315.37
3175.28
1668
959.067
1600.78
3313.99
5711.21
8410.72
10917.7
12563.8
12592.9
10731.3
7230.43
3655.46
1405.86
489.629
347.017
414.56
448.728
495.156
501.402
1005.04
1437.08
1321.67
1027.44
740.742
573.615
532.99
597.128
758.936
1028.38
1500.59
2551.79
4070.9
5610.99
6796.21
7341.74
6998.82
5742.56
4003.47
2244.54
1086.42
1003.79
2023.91
3737.66
5696.41
7437.21
8510.18
8664.94
7733.96
4566.08
898.121
712.461
1733.1
2713.15
2001.26
917.788
314.03
420.085
960.274
1617.55
2464.05
3727.56
5514.03
7661.12
9562.45
10470.4
9971.04
8287.23
5957.24
3641.66
1988.58
1431.97
1997.18
3303.96
5144.91
7102.4
8693.88
9227.44
8167.02
5499.44
2620.05
961.334
770.836
843.829
1032.95
868.875
1389.51
2783.61
5258.79
8634.39
11937.5
13725.4
13311.9
11071
8096.37
5074.73
2598.96
1094.79
1189.8
2586.46
4915.57
7896.88
10989.9
13419
13870.4
12117.4
8503.6
4687.07
1943.05
564.673
313.63
419.122
663.104
1100.07
1392.91
1614.31
1565.54
2796.81
4962.83
7885.5
10808
12578.5
12643.9
11016.4
8427.61
5504.5
3013.78
1475.95
1413.76
2636.04
4816.45
7788.72
11019.4
13659.2
14148.6
12366.1
8515.84
4548.37
1949.4
966.746
766.52
635.854
569.628
739.266
1016.45
1210.98
1261.24
1285.22
882.594
1260.75
2698.8
5123.66
8681.29
12455.1
14711.8
14493.9
12259.2
8937.8
5453.73
2634.65
1127.3
1376.71
2926.38
5258.49
8188.42
11176.8
13616.7
14406.9
13016.8
9228.04
4501.09
1357.09
531.674
489.494
548.148
604.078
658.18
741.334
1134.04
1584.44
3084.28
5449.19
8495.09
12181.3
15614.8
16771.9
14999.2
11054.6
6243.32
2630.61
1432.84
2897.22
6099.67
10427.6
14734.3
17316
16802.7
13214.1
7856.4
3813.7
2386.38
1981.46
1803.25
1756.82
1793.12
1865.78
1921.66
1931.76
1804.98
1350.19
604.112
622.942
825.697
1113.6
1799.81
2655.94
3387.75
3760.52
3724.77
3290.78
2504.34
1652.52
1185.52
1277.44
1926.52
2902.83
4087.96
5149.23
5781.86
5496.21
4200.2
2567.22
1611.54
1281.9
1158.92
994.838
835.064
866.746
1237.72
1915.12
2353.81
1594.24
542.274
448.022
570.701
497.95
481.112
765.901
1624.25
3221
5112.21
6459.42
6861.33
6221.81
4902.16
3156.94
1658.24
823.216
1206.04
2407.64
4008.81
5669.64
6948.8
7433.17
6835.79
5060.03
2738.7
1007.29
303.3
129.626
100.927
109.405
111.189
65.9856
17.4749
3.05013
164.274
433.755
479.9
439.318
324.685
195.672
106.783
87.3202
155.48
314.93
505.174
637.674
646.637
504.792
198.247
178.894
370.382
490.192
531.45
503.848
421.359
313.79
223.947
192.356
265.623
492.275
876.484
1407.93
2261.27
3458.65
4361.51
4396.39
3766.31
2901.19
2063.28
1389.57
1047.66
1262.79
1908.48
2773.16
3576.01
4056.49
4009.08
3327.76
2179.12
1090.8
290.158
506.715
1587.77
1366.89
844.477
451.728
316.733
349.342
472.234
627.456
805.897
1185.3
2247.24
4184.41
5946.91
6610.96
6223.03
5204.93
4031.61
2914.26
2062.25
1606.02
1806.46
2596.57
3649.03
4655.99
5281.44
5361.16
4790.24
3663.24
2326.62
1290.01
431.545
914.103
6497.1
7448.94
5204.15
2793.14
1305.26
751.424
754.574
1098.94
1691.07
2430.34
3237.98
4605
7295.27
10070.8
11222.5
10804.6
9411.68
7475.36
5480.18
3813.96
3051.39
3571.9
4868.24
6311.53
7457.36
7939.09
7639.69
6463.48
4571.21
2658.14
1359.9
2261.46
2681.57
1513.37
1991.79
3685.49
6410.78
9764.5
12709.7
14163.4
13852.4
12286.4
10079.6
7812.89
5722.14
4161.88
3381.68
3749.18
4967.62
6846.56
9054.64
11086.8
12305.7
12013.5
9976.38
6506.28
3095.4
1138.67
465.551
427.504
492.522
475.723
421.443
456.23
1094.15
1232.24
1094.99
888.808
713.485
617.084
590.437
607.008
654.945
765.94
1113.92
2105.4
3576.28
5211.47
6710.86
7725.41
7874.01
7073.63
5672.86
4099.25
2915.49
2471.9
2993.77
4229.37
5849.43
7420.47
8507.4
8799.34
7970.1
5146.89
650.028
532.755
1740.84
2348.66
1996.2
1127.85
458.303
407.973
786.14
1304.96
2007.92
3079.46
4648.4
6672.81
8731.02
10134.9
10275.2
9260.26
7521.5
5629.01
4108.97
3357.36
3557.79
4504.69
5982.6
7582.8
8809.43
9028.17
7772.53
5136.71
2469.95
1070.65
567.077
658.709
947.8
733.601
1220.44
2526.15
4818.95
8044.75
11449
13689.3
13892.3
12295.2
9864.59
7213.69
4916.58
3327.64
2957.07
3858.71
5661.08
8092.3
10653.3
12589.7
12888.2
11238.8
7865.68
4275.93
1697.6
504.537
334.171
406.734
523.906
643.06
742.241
927.065
1450.17
2668.66
4643.14
7383.75
10371.5
12587.6
13281.9
12325.2
10284
7797.75
5514.07
3896.69
3416.92
4138.84
5754.04
8080.59
10624.8
12579.2
12679.2
10738
6982.85
3399.1
1330.64
704.062
619.461
596.984
688.555
929.901
1155.45
1172.33
751.603
668.345
692.955
1231.84
2567.39
4756.6
8050.22
11661.2
14135.9
14429.7
12806
10102.6
7185.21
4653.57
3146.83
3034.4
4197.72
6195.28
8824.06
11504.2
13596.5
14036.2
12362.5
8377.74
3790.91
1124.53
545.184
543.939
590.864
599.502
583.381
590.985
711.283
1023.67
2495.06
4607.77
7266.35
10760.4
14222.3
15797.6
14766.4
11700.4
7779.21