/*--------------------------------*- C++ -*----------------------------------*\
| =========                 |                                                 |
| \\      /  F ield         | OpenFOAM: The Open Source CFD Toolbox           |
|  \\    /   O peration     | Version:  2.1.1                                 |
|   \\  /    A nd           | Web:      www.OpenFOAM.org                      |
|    \\/     M anipulation  |                                                 |
\*---------------------------------------------------------------------------*/
FoamFile
{
    version     2.0;
    format      ascii;
    class       volScalarField;
    location    "0.007750000";
    object      mut;
}
// * * * * * * * * * * * * * * * * * * * * * * * * * * * * * * * * * * * * * //

dimensions      [1 -1 -1 0 0 0 0];

internalField   nonuniform List<scalar> 
12384
(
0.00315904
0.00415751
0.0047456
0.00525818
0.00575311
0.00613682
0.00643286
0.00652783
0.00650165
0.00630361
0.00595217
0.00535466
0.00438923
0.00299941
0.00600026
0.00317453
0.00207349
0.00151914
0.00123625
0.00110907
0.00107225
0.00110918
0.00118934
0.00133067
0.00152489
0.00191726
0.00280909
0.0054845
0.0111973
0.00725278
0.00521624
0.00446624
0.0040848
0.00384122
0.00361414
0.00340512
0.0034578
0.00376619
0.00440926
0.0056386
0.00807074
0.0113457
0.00823359
0.00525361
0.00576035
0.00316663
0.00219073
0.00175264
0.00157224
0.00157025
0.00169996
0.00196588
0.00231934
0.00288551
0.00410023
0.00755906
0.0127893
0.00738453
0.00539846
0.00469814
0.00445949
0.00437133
0.00437975
0.0043728
0.00443023
0.0046591
0.00508525
0.00585879
0.00725715
0.00994679
0.0156566
0.0128382
0.00876341
0.00674799
0.006704
0.00427655
0.00356136
0.00323274
0.00315951
0.00335265
0.00388295
0.00474191
0.00572732
0.00731299
0.0109311
0.0162753
0.0118679
0.00585908
0.00394403
0.00328594
0.00314615
0.00319059
0.0033695
0.00361277
0.00399938
0.00466873
0.00570879
0.00741217
0.0104441
0.0167071
0.0190591
0.0163198
0.0121133
0.00930889
0.010654
0.00984341
0.00951549
0.010735
0.0138455
0.0118353
0.0070016
0.00573031
0.00537863
0.00527151
0.00526379
0.00519498
0.00504534
0.00482324
0.00473254
0.0048751
0.00535406
0.00619737
0.00775748
0.0106785
0.017132
0.0195097
0.00737462
0.00211935
0.00160996
0.00161843
0.00189148
0.00255387
0.00433874
0.00698412
0.0057249
0.00278636
0.00191333
0.00160841
0.00154525
0.00162163
0.00180347
0.00210688
0.00250712
0.00298792
0.0038196
0.0058124
0.0118373
0.0102649
0.00636124
0.00507438
0.0045628
0.00430998
0.004128
0.00390385
0.00363609
0.00365237
0.00392737
0.00447951
0.00545512
0.0070622
0.00993846
0.0149368
0.0103951
0.00786238
0.00226359
0.00199276
0.00198837
0.00211219
0.002332
0.00262
0.00305078
0.00378751
0.00555751
0.0111809
0.0186003
0.0116552
0.00824916
0.00693852
0.00631697
0.00594572
0.00563598
0.00524973
0.00475194
0.00424245
0.00408583
0.00419495
0.00453255
0.00513522
0.00597868
0.00647188
0.00600713
0.00458285
0.00400058
0.00488663
0.00284963
0.0027823
0.00374712
0.00654584
0.0149455
0.0177603
0.011035
0.00854065
0.0074208
0.00683902
0.00639024
0.00597799
0.0054851
0.00481037
0.00447235
0.00444932
0.0047023
0.00535649
0.0065102
0.00867888
0.0121498
0.00589448
0.00241432
0.00187403
0.00184385
0.00211588
0.00275219
0.00424472
0.00691515
0.00696274
0.00751951
0.0126134
0.016795
0.0206901
0.0168888
0.0117316
0.00950732
0.00834056
0.00757121
0.00692973
0.0063253
0.00550498
0.00497072
0.00479058
0.00483039
0.00507878
0.0054348
0.00552156
0.00484795
0.00593692
0.00576584
0.00356651
0.00297406
0.00290127
0.00326967
0.00456842
0.0066901
0.00614086
0.00569872
0.00542705
0.00441761
0.00523313
0.00737972
0.0122922
0.0194557
0.0215643
0.0135826
0.0105625
0.00914859
0.00833396
0.0077044
0.00707857
0.00634284
0.00574732
0.00554831
0.00577944
0.00637639
0.00750768
0.00943334
0.0117145
0.00490053
0.0024645
0.0021266
0.00235509
0.00303041
0.00470818
0.0075938
0.00727784
0.00714095
0.00718436
0.00790574
0.0106365
0.0129527
0.0229897
0.0271382
0.0163485
0.0114504
0.00914119
0.00763486
0.00633129
0.00523312
0.00474026
0.0045849
0.00462928
0.00476737
0.00524245
0.00809693
0.0122776
0.0114565
0.0100667
0.00462083
0.00285598
0.00217416
0.00184044
0.0016771
0.00163258
0.00167844
0.00190275
0.00252563
0.00450787
0.00401144
0.0039518
0.00723867
0.0100148
0.00872705
0.00617624
0.0047892
0.00392395
0.00331765
0.00287516
0.00254826
0.00231649
0.00214639
0.00200947
0.00189241
0.00187284
0.00197057
0.00242321
0.00356288
0.00680835
0.0138016
0.0102271
0.00624222
0.0043651
0.00336436
0.00304112
0.00317634
0.0038725
0.00553936
0.00919075
0.00165664
0.0010294
0.000622221
0.000406026
0.000306121
0.0005592
0.0032529
0.0119435
0.0145208
0.00866918
0.00610155
0.00500201
0.00443598
0.00426762
0.00450765
0.00472846
0.00508702
0.00540869
0.006157
0.00768487
0.0114828
0.00667647
0.00343204
0.00228229
0.00177312
0.00144383
0.0012269
0.00103215
0.000828827
0.000493206
0.00419855
0.00105014
0.00115199
0.0013659
0.00157638
0.00175627
0.00190548
0.00199178
0.00203826
0.0020183
0.00191957
0.00173712
0.0014874
0.00455054
0.00312263
0.00248459
0.0031738
0.00379501
0.00425209
0.00451007
0.00456333
0.00444516
0.00415479
0.00375222
0.00334934
0.00308055
0.00305457
0.00335793
0.00400617
0.00481137
0.00569606
0.00659729
0.00742559
0.0081052
0.00855051
0.00875797
0.00874562
0.00847897
0.00793635
0.00709102
0.00596976
0.00465167
0.00327433
0.00938854
0.00387711
0.00406049
0.00488467
0.00537075
0.00552017
0.00540579
0.0050938
0.0046246
0.00410054
0.0036235
0.0033501
0.00346974
0.00408347
0.00507647
0.00624219
0.00744841
0.00860494
0.00959166
0.0103588
0.0108223
0.0110148
0.0109314
0.0105642
0.00993931
0.00904987
0.00789767
0.00655662
0.00509156
0.003576
0.0109894
0.00602433
0.00656426
0.00808602
0.00889084
0.00911206
0.00897777
0.00856052
0.00790619
0.00707067
0.00617095
0.00530944
0.00460327
0.00418274
0.00424958
0.00492173
0.0060905
0.00739699
0.00862135
0.00960431
0.0102561
0.0106028
0.0106437
0.0103883
0.00981483
0.00888892
0.0077408
0.00643313
0.00507569
0.00379894
0.0144575
0.00534176
0.00310471
0.00257308
0.00235771
0.0030956
0.00479233
0.00688512
0.00902107
0.0111403
0.0131004
0.0150038
0.0164775
0.0177457
0.0184107
0.0187137
0.0187009
0.0181717
0.0172662
0.0159166
0.013899
0.0114216
0.00868891
0.00595055
0.00362747
0.00241312
0.00215202
0.00218749
0.00216793
0.00234534
0.00633511
0.00424693
0.0040319
0.00517531
0.00599572
0.00640122
0.00646099
0.0062363
0.00578084
0.00517899
0.00456204
0.00409558
0.00401238
0.00453533
0.0055079
0.00675282
0.0081472
0.00955981
0.0109336
0.0121064
0.0129516
0.01343
0.0135833
0.0133691
0.0127459
0.011713
0.0102481
0.00851666
0.00662361
0.00472308
0.0124585
0.00223009
0.00447727
0.0049932
0.00511867
0.00494943
0.00461592
0.00427888
0.00411186
0.00425056
0.00481042
0.00576954
0.00699812
0.00849696
0.0102119
0.0120423
0.0138455
0.0154942
0.0168031
0.0176379
0.0180783
0.0181035
0.0176467
0.016747
0.0153532
0.0132975
0.0105966
0.00763857
0.00482933
0.00232952
0.00705387
0.00172038
0.00171031
0.00202211
0.003121
0.00452125
0.00600714
0.00764717
0.0094498
0.0113723
0.0132721
0.0149906
0.0166734
0.0177319
0.0184019
0.0186433
0.0185567
0.0179605
0.0168099
0.014859
0.0121909
0.008959
0.00582083
0.00319761
0.00216821
0.00216192
0.00212521
0.00199099
0.0017316
0.00164408
0.00727926
0.00817916
0.00276273
0.00413392
0.00589727
0.00780323
0.00977862
0.0117789
0.0137708
0.0156159
0.0172665
0.0183848
0.0192191
0.0195091
0.0194408
0.0188694
0.0177002
0.0157483
0.0129219
0.00950101
0.00602338
0.00305328
0.00249809
0.00252064
0.00251586
0.00245298
0.00219446
0.00183036
0.0015164
0.00141779
0.00586205
0.00283407
0.00240537
0.00268713
0.00384728
0.0054779
0.00732457
0.00928253
0.0112805
0.0132636
0.0151124
0.0167858
0.0180408
0.018921
0.0192247
0.019317
0.0188981
0.0178837
0.0162524
0.0138686
0.010933
0.0077799
0.00443272
0.00252349
0.00222053
0.00220795
0.00205664
0.00177274
0.00153273
0.00154431
0.00665997
0.00295977
0.00329662
0.00411135
0.00666485
0.00905025
0.011231
0.0133381
0.0152802
0.0169169
0.0181767
0.0189955
0.0192876
0.0187723
0.0171234
0.0143876
0.0110437
0.00773493
0.00465766
0.00285276
0.00266484
0.00270568
0.00267692
0.0026719
0.00267042
0.00265655
0.00261864
0.00260056
0.00263858
0.00272311
0.00267434
0.00595451
0.00227938
0.00306934
0.0040597
0.00511113
0.00612664
0.00703447
0.00777054
0.00829701
0.00859543
0.00866212
0.00847437
0.00806796
0.00738834
0.00653351
0.00560533
0.0047503
0.00414795
0.00389994
0.00403953
0.00442255
0.0050172
0.00564547
0.00622878
0.00668294
0.00690948
0.00683428
0.00634345
0.00531656
0.00635657
0.00206333
0.00194534
0.00169149
0.00159524
0.0019434
0.00310847
0.00458182
0.0063655
0.0082524
0.00990015
0.0112234
0.0119505
0.0123169
0.0123597
0.0120124
0.0113449
0.0104359
0.00920787
0.00788317
0.0063902
0.00492393
0.00349551
0.00253155
0.00217345
0.00223202
0.00238036
0.00245405
0.00238577
0.00209302
0.000620982
0.00517081
0.0013646
0.00147071
0.00169475
0.00188712
0.00202707
0.00212243
0.0021617
0.0021582
0.00210786
0.00200087
0.00183222
0.0016084
0.00540052
0.00207932
0.00242397
0.00295291
0.00336181
0.00359429
0.0036697
0.00361169
0.00346937
0.00331085
0.00324683
0.00331402
0.0035228
0.00389059
0.00454742
0.00539235
0.00622432
0.00692452
0.00755404
0.00805972
0.00851021
0.00875321
0.00885889
0.00877793
0.00854659
0.0081367
0.00747809
0.00653004
0.00530409
0.0039403
0.0116706
0.00265369
0.00410165
0.00453396
0.00461351
0.00443249
0.00410854
0.00379558
0.00356026
0.00349538
0.0036108
0.0039658
0.00464904
0.00568549
0.00688116
0.00803576
0.00908065
0.00998326
0.010718
0.0112456
0.0115473
0.0115751
0.011397
0.0109987
0.010389
0.00961785
0.00861943
0.00740595
0.00598863
0.0044812
0.0141531
0.00452312
0.00714757
0.00805023
0.00828336
0.00815273
0.0079026
0.00754925
0.0071349
0.00671503
0.0062924
0.00588279
0.00553242
0.00540818
0.00585912
0.0069175
0.00824516
0.0094425
0.0105954
0.011359
0.0118542
0.0120681
0.0119337
0.0115239
0.0108851
0.00997235
0.00884102
0.00748135
0.00600876
0.00462711
0.0176236
0.00335186
0.00245034
0.00199846
0.00250743
0.00442455
0.00689182
0.00924524
0.0112521
0.0130529
0.0145169
0.0159507
0.0170405
0.0180727
0.0186002
0.0188993
0.0187006
0.0183713
0.0176673
0.0166692
0.0152347
0.0132408
0.0107736
0.00808892
0.0055395
0.00335007
0.00206697
0.00185729
0.00215003
0.00251965
0.00481958
0.00305961
0.00420502
0.00498527
0.00533091
0.0053002
0.00501184
0.00461986
0.00427224
0.00407715
0.00411535
0.00443505
0.00512355
0.00611951
0.00726912
0.00842871
0.00955477
0.0105995
0.0116328
0.0124677
0.0131936
0.0136619
0.013783
0.0136156
0.0130864
0.0123053
0.0110919
0.00955846
0.00773296
0.00581216
0.0131709
0.00172562
0.00463999
0.00462447
0.00439544
0.00415329
0.0040733
0.0042501
0.00461294
0.00520119
0.00611793
0.00725161
0.00846793
0.00969748
0.0109579
0.012218
0.013456
0.0146143
0.0156231
0.0164007
0.0168257
0.0168579
0.0166675
0.016118
0.0153041
0.0139398
0.0119805
0.00946252
0.00673232
0.00407144
0.00910121
0.00152375
0.00172274
0.00249374
0.00402079
0.00571985
0.00751306
0.00929761
0.0110032
0.0125578
0.0139072
0.015182
0.016417
0.0171377
0.0178548
0.0180977
0.0180157
0.0176663
0.0170235
0.0159536
0.0140406
0.0114309
0.00847091
0.00556555
0.00310462
0.00171205
0.00180118
0.00204076
0.00190782
0.00169703
0.00503084
0.0111293
0.0037798
0.00542394
0.00759486
0.00973902
0.0116626
0.0133452
0.0148515
0.0161742
0.0173141
0.0182629
0.0189439
0.0191385
0.0190393
0.0186983
0.0180013
0.0167981
0.0148397
0.0121204
0.00894199
0.00560524
0.00273534
0.00208627
0.00240141
0.00274632
0.00268307
0.00228871
0.00183938
0.00158633
0.0063615
0.00271896
0.00238083
0.00325085
0.00504957
0.00723475
0.00946324
0.0115536
0.0134333
0.0150592
0.0164672
0.017709
0.0186577
0.0193027
0.0196252
0.0194211
0.0190265
0.0184369
0.0173616
0.015691
0.0133556
0.0105272
0.0073057
0.00398273
0.00226341
0.00237467
0.00237071
0.00204719
0.00169265
0.00154555
0.00468671
0.00202488
0.00331005
0.00620146
0.00936103
0.0121112
0.0143561
0.0161978
0.017673
0.018973
0.0199981
0.0206524
0.0208544
0.0206413
0.0197131
0.0178175
0.0149985
0.0116362
0.00819876
0.00508754
0.00318284
0.00285517
0.00276651
0.00268096
0.00254347
0.00235982
0.00209915
0.00189828
0.00193086
0.00223855
0.00206581
0.00972494
0.00287285
0.00374285
0.00478605
0.00579752
0.00674155
0.00753973
0.00821233
0.00871327
0.00907044
0.00921185
0.00914869
0.00889872
0.00836073
0.00771428
0.00694634
0.00612021
0.00542485
0.00494502
0.00479763
0.00483772
0.0049823
0.00511774
0.00528528
0.00556494
0.00588498
0.00611451
0.00604219
0.00547799
0.00450471
0.00220052
0.00196161
0.00148793
0.00174921
0.00295873
0.00441634
0.00608864
0.00792585
0.00969054
0.011087
0.0121326
0.012812
0.013114
0.0132783
0.0130101
0.012546
0.0117436
0.0108061
0.00965125
0.00834212
0.00681153
0.00505934
0.00341389
0.00215722
0.00158891
0.00147063
0.00161668
0.00175504
0.00167162
0.000324431
0.00425878
0.00171671
0.00181493
0.00202994
0.00218503
0.00228153
0.00231373
0.00231344
0.00227248
0.00221434
0.00213606
0.00203192
0.00189027
0.00445178
0.00175059
0.00264152
0.00297062
0.00314605
0.00313776
0.00300009
0.0028025
0.0026618
0.00273266
0.00307889
0.00358964
0.00415284
0.00483433
0.00574345
0.00671929
0.00743122
0.00789646
0.00812695
0.00829831
0.00838666
0.00848446
0.00849172
0.00846164
0.00833511
0.00813877
0.0077403
0.00705635
0.00600566
0.00468974
0.00848944
0.00212514
0.00444581
0.00441067
0.00402227
0.0034681
0.00296214
0.00277334
0.00298606
0.00352162
0.00416757
0.0049128
0.00590107
0.00713678
0.00836265
0.00937772
0.0101432
0.0106803
0.0110759
0.0113527
0.0114424
0.0113975
0.0111872
0.0109107
0.0104577
0.00989911
0.00914371
0.00816385
0.00687043
0.00535873
0.0110319
0.00375099
0.00806638
0.00822451
0.00776397
0.00714477
0.00667502
0.00641655
0.00642777
0.00656968
0.00669216
0.00671382
0.00665636
0.00685517
0.00776183
0.00908672
0.0102715
0.0112331
0.0120239
0.0124821
0.012886
0.0129526
0.0127889
0.0124001
0.0118462
0.0110413
0.0100093
0.00871668
0.00719605
0.00564449
0.019929
0.00294666
0.00237798
0.0019846
0.00329421
0.00599794
0.00873941
0.0110097
0.0126967
0.0139652
0.0148078
0.0156345
0.0161735
0.0167355
0.017285
0.0175445
0.0176855
0.0176054
0.0172817
0.0168792
0.0160597
0.0146969
0.0127175
0.0102598
0.00755633
0.00498788
0.00296292
0.00185246
0.00206585
0.00253898
0.00425906
0.00254227
0.00454139
0.0049314
0.00481177
0.00434379
0.00372708
0.0032344
0.00313991
0.00352958
0.0042769
0.00519806
0.0062384
0.0074153
0.00856702
0.00953314
0.0103188
0.0109085
0.0114443
0.0118658
0.0123798
0.0127536
0.0129823
0.0130724
0.0128758
0.0124969
0.0116664
0.0104929
0.00888968
0.00703878
0.00900844
0.00149308
0.00516163
0.0045619
0.0038767
0.00354268
0.00380275
0.00445433
0.00517763
0.00604955
0.00720514
0.00851652
0.00974609
0.010779
0.0116115
0.0122288
0.0127304
0.0132343
0.0137027
0.0141682
0.0146566
0.0149257
0.0150502
0.015
0.0148
0.0141603
0.0128766
0.0108074
0.00814007
0.00542769
0.00707511
0.00154286
0.00201166
0.00307035
0.00481777
0.00680342
0.00886682
0.0107504
0.0122698
0.0133048
0.0140473
0.0146481
0.0151281
0.0155881
0.0160817
0.0164398
0.0166608
0.0168008
0.0167786
0.0164385
0.0154211
0.0135442
0.0108459
0.00786855
0.00506498
0.00277272
0.00170189
0.00208945
0.0020566
0.00176755
0.00386215
0.015177
0.00490217
0.00667842
0.00903129
0.0111716
0.0128539
0.0140836
0.0149674
0.0156687
0.0162214
0.0167314
0.0170819
0.0174323
0.0176735
0.0177401
0.0176585
0.0172285
0.0161569
0.0142076
0.0114505
0.00824883
0.00503326
0.00261999
0.00250288
0.00306632
0.00312502
0.00269898
0.00218434
0.00190794
0.0058288
0.00419765
0.00274251
0.00405381
0.00631017
0.00882599
0.0112658
0.0133192
0.0148724
0.0159474
0.01682
0.0173996
0.0178776
0.0182428
0.0184569
0.0186616
0.0184635
0.0181032
0.0176374
0.0166546
0.0149791
0.0125624
0.00956699
0.00618223
0.00319289
0.00262006
0.0026094
0.00224929
0.00185834
0.00170704
0.0040076
0.00309206
0.00530047
0.00841924
0.0116939
0.0144067
0.0163497
0.0176364
0.0185458
0.0192567
0.019739
0.0202959
0.0206502
0.02088
0.0207271
0.0198056
0.0177987
0.0148269
0.0112811
0.00772457
0.00458062
0.00312632
0.00289556
0.00284434
0.0027643
0.00260465
0.0023071
0.00194635
0.00181431
0.00223426
0.00206776
0.0116836
0.00338269
0.00439182
0.00547586
0.00644752
0.0072506
0.0079138
0.00842347
0.00883237
0.00910912
0.00928957
0.00928198
0.0091836
0.00890471
0.00854897
0.00798781
0.0073618
0.00662501
0.00599486
0.00562731
0.00544607
0.0052472
0.00482066
0.00430413
0.0042461
0.00471517
0.00538625
0.00592243
0.00592596
0.00367657
0.00252808
0.00192882
0.00172545
0.00262184
0.00407594
0.00577602
0.00758583
0.00936802
0.0107743
0.0118944
0.0124622
0.0130012
0.0131089
0.0132305
0.0130313
0.0127238
0.0122416
0.0115732
0.0107303
0.00963664
0.00818164
0.00642918
0.00449064
0.00278647
0.00165413
0.00104533
0.00104896
0.00126624
0.00129534
0.00015957
0.00289905
0.00203687
0.00214767
0.00233731
0.00243641
0.0024552
0.0024111
0.00236571
0.00231492
0.00226624
0.002238
0.00223459
0.00221057
0.00408571
0.00163449
0.00292939
0.0030876
0.00306328
0.00284459
0.00250061
0.00216837
0.0020542
0.00237381
0.00310584
0.00396951
0.00481384
0.00571034
0.00682361
0.00779822
0.00837017
0.00847455
0.00832563
0.00803541
0.00779554
0.00762311
0.00759865
0.00764924
0.00775551
0.00783243
0.0077582
0.0073865
0.00658401
0.005394
0.00690909
0.00183783
0.00487384
0.00441991
0.00358883
0.00267938
0.0020236
0.00211626
0.00288852
0.00392751
0.00482963
0.00575527
0.00691115
0.00826368
0.00945098
0.0102046
0.0105618
0.0106365
0.0105861
0.0104647
0.0104117
0.0103249
0.0102278
0.0101146
0.00995532
0.00970956
0.00927215
0.00860173
0.00754919
0.00613432
0.0079974
0.00330868
0.00912548
0.00854752
0.00734804
0.00614593
0.00534345
0.00522633
0.0058041
0.00656076
0.00718645
0.00753171
0.0077478
0.00834289
0.00966462
0.0109511
0.0117447
0.0121783
0.0122745
0.0124361
0.0126165
0.0126774
0.012672
0.0125173
0.0121677
0.0116305
0.0107922
0.00966242
0.00822917
0.00663849
0.0133463
0.00303524
0.00246949
0.00221945
0.00427856
0.00735581
0.010111
0.0121917
0.0134603
0.0141357
0.014277
0.014343
0.0142059
0.0143688
0.0144772
0.0148838
0.0153016
0.0157931
0.0160494
0.0162578
0.0160869
0.0154627
0.0140876
0.0119311
0.00927533
0.00646619
0.004005
0.00241674
0.00206841
0.00245841
0.00434505
0.00230633
0.00490358
0.00495198
0.00446229
0.00362701
0.00276613
0.0022681
0.00247929
0.00342061
0.00468226
0.00585863
0.00703066
0.00828577
0.00940019
0.0101897
0.0105999
0.0107146
0.0106658
0.0105859
0.0106203
0.0108027
0.0112013
0.0116565
0.01195
0.0120962
0.0117947
0.0111016
0.00986306
0.0082568
0.00716718
0.00136826
0.0058017
0.00468663
0.00349486
0.00306472
0.00365587
0.00465474
0.00561152
0.00668509
0.00801131
0.00950322
0.0108274
0.0117571
0.0122427
0.0122361
0.0119512
0.0115994
0.0113889
0.0113822
0.0116406
0.0122046
0.0128669
0.0134079
0.0138369
0.0138782
0.0132404
0.0116514
0.00917069
0.00639101
0.00448669
0.00165302
0.00229881
0.00353095
0.00545903
0.00771738
0.0100314
0.0119704
0.0132315
0.0136847
0.0137797
0.0134363
0.0132455
0.0132245
0.0133608
0.0137973
0.0144544
0.0151391
0.0158042
0.0162609
0.0160246
0.014948
0.0126203
0.00973207
0.00671918
0.00411971
0.00226423
0.00214919
0.00213894
0.00179975
0.00348532
0.0188645
0.0057469
0.0076226
0.0100428
0.012103
0.0134856
0.0142256
0.0144451
0.0143366
0.0141785
0.0141237
0.014342
0.0148335
0.0154098
0.0160125
0.0165686
0.0168921
0.01669
0.0155288
0.0133059
0.0102809
0.00702906
0.00411243
0.0029687
0.00338062
0.00344091
0.00296788
0.00241906
0.00222024
0.00420867
0.00988719
0.00320197
0.00485146
0.00739292
0.0101296
0.0126491
0.0145073
0.015607
0.016063
0.0162468
0.0160178
0.0159642
0.0159264
0.0160989
0.0163278
0.0168212
0.0170678
0.0170531
0.0167167
0.0157096
0.0138202
0.0111319
0.00782154
0.00439777
0.00293085
0.00271903
0.0023106
0.00192534
0.00186796
0.00391227
0.00940948
0.00722379
0.0102294
0.0133728
0.0158162
0.017319
0.0180438
0.0182328
0.0179631
0.0178487
0.0181665
0.0189223
0.0197072
0.0202992
0.0202372
0.0191778
0.0168043
0.0134076
0.00968933
0.00592471
0.00350676
0.00311323
0.00323198
0.00332064
0.00330947
0.00309636
0.00266155
0.00221424
0.00242912
0.0024363
0.0128841
0.00379114
0.00486981
0.00594425
0.00679675
0.00744544
0.0078839
0.00819672
0.00838323
0.00853198
0.00861014
0.00869862
0.00871959
0.00876228
0.0088033
0.0086414
0.00830443
0.00762381
0.00687534
0.00630488
0.00596665
0.00560216
0.00481896
0.00357732
0.00301176
0.0036359
0.00481133
0.00593881
0.00641246
0.00325316
0.00341137
0.00195358
0.00220597
0.00332954
0.00497498
0.0068629
0.00869043
0.0102717
0.0112548
0.0119753
0.0120919
0.0122987
0.0121108
0.0121064
0.0119139
0.0119136
0.0117725
0.0116078
0.0111597
0.0103496
0.00909028
0.00737076
0.00531744
0.00339171
0.00197393
0.000988876
0.000712944
0.000867706
0.000977968
7.44021e-05
0.0020802
0.00232726
0.00243838
0.00256945
0.00256863
0.00247992
0.00235013
0.00226953
0.00222794
0.00225253
0.00231954
0.00244092
0.00253912
0.00421508
0.00158452
0.00317186
0.00321359
0.00306115
0.00268896
0.00220032
0.00174603
0.00163182
0.00215439
0.00320522
0.00434784
0.00534745
0.00643692
0.00765394
0.0086138
0.00893458
0.00872251
0.00809215
0.00736974
0.00666701
0.00624845
0.00617512
0.00647343
0.00692665
0.00737358
0.00765373
0.0076112
0.00706337
0.00599508
0.00627485
0.00159999
0.00525194
0.00448541
0.00331966
0.00214416
0.00148933
0.00199099
0.00318778
0.00437224
0.00531778
0.00631342
0.0076265
0.00912209
0.0101715
0.0105721
0.0104368
0.00994961
0.00934989
0.00882337
0.00845819
0.00838775
0.00853731
0.00879723
0.0090396
0.00921452
0.00914294
0.00883212
0.00805623
0.00677991
0.00655038
0.00298156
0.0101575
0.00896249
0.00710232
0.00529111
0.00405365
0.00407028
0.00528565
0.00660301
0.00758883
0.00819373
0.00869313
0.00972427
0.0112705
0.0123259
0.0125056
0.012227
0.011554
0.0110883
0.0108095
0.0109339
0.0112923
0.011621
0.0117584
0.0116581
0.0111794
0.0103088
0.00906978
0.00756626
0.0105211
0.00325506
0.0026286
0.00261123
0.00521729
0.00838589
0.0110976
0.0129666
0.0138534
0.013933
0.0134013
0.012598
0.0117562
0.0111868
0.0109778
0.0113015
0.0121136
0.013192
0.0141449
0.0150598
0.015548
0.0156941
0.0148134
0.0130753
0.0105541
0.00758062
0.00483131
0.00295989
0.00223105
0.00240528
0.00520186
0.00223197
0.00516359
0.00500307
0.00429377
0.0032529
0.00228434
0.00189295
0.00236863
0.0035952
0.00499182
0.00618638
0.00741138
0.00875793
0.00985841
0.0105069
0.0106457
0.0102987
0.0096891
0.00889377
0.00832167
0.0082166
0.00875759
0.00966693
0.0105587
0.0113098
0.0116031
0.0114552
0.0106648
0.00939583
0.00623777
0.00124331
0.00639794
0.00494564
0.00324375
0.00261993
0.00346167
0.00473465
0.00583637
0.00704947
0.00854133
0.0101748
0.0116576
0.012585
0.0128369
0.0123972
0.0113824
0.0100345
0.00891237
0.0082657
0.00836022
0.00929889
0.0104563
0.0116793
0.0127027
0.0133734
0.0132778
0.0121338
0.00986783
0.00706495
0.00338401
0.00190019
0.00257531
0.00389063
0.00594918
0.00846198
0.0109582
0.0129254
0.0139473
0.0138973
0.0132429
0.0120233
0.0110809
0.0102575
0.0100821
0.0107229
0.0117749
0.0131692
0.0143602
0.01552
0.0160781
0.0155986
0.0137605
0.0110784
0.00795596
0.00515871
0.00299654
0.00228719
0.00216633
0.00185801
0.00369821
0.0166572
0.00619091
0.00825909
0.0107098
0.0126982
0.01381
0.0141573
0.0136616
0.0127374
0.0118289
0.0111426
0.0107658
0.0112161
0.0123134
0.0136519
0.0149898
0.0160701
0.0166905
0.0161757
0.0144846
0.011684
0.00843963
0.00534625
0.00364906
0.00366931
0.00364228
0.00307026
0.00253111
0.00253047
0.00302059
0.0131034
0.00364463
0.00550956
0.00822099
0.0110988
0.0136004
0.0152079
0.0158234
0.0156687
0.0148843
0.0138942
0.0132316
0.0127918
0.0129077
0.0135175
0.0142739
0.0152767
0.0160283
0.0163274
0.0158855
0.0144504
0.0120546
0.00882824
0.00520884
0.00315409
0.00266835
0.00220213
0.00189513
0.00204715
0.0042396
0.0244793
0.00878403
0.0115036
0.0143829
0.016515
0.0175575
0.0176315
0.0169927
0.0159382
0.0152466
0.0150993
0.0158624
0.0172911
0.0186941
0.0196487
0.0193689
0.0176277
0.014682
0.0109313
0.00679971
0.00395834
0.00354698
0.00386603
0.00413947
0.00424002
0.00412228
0.00370808
0.00307421
0.00284863
0.00356606
0.0116741
0.00406626
0.00518545
0.00619927
0.00692919
0.00735797
0.00756783
0.00756854
0.00745737
0.00726585
0.00719026
0.00726204
0.00760752
0.00800389
0.00854552
0.00885283
0.00890118
0.00836696
0.00754085
0.00672451
0.0062431
0.00581358
0.00501805
0.00357284
0.00254536
0.00304366
0.00451609
0.00600494
0.00677508
0.00305598
0.0066196
0.00200382
0.00250717
0.00374322
0.00553063
0.0075273
0.00928291
0.0106389
0.0112036
0.0115002
0.0110903
0.0107861
0.0101459
0.00988552
0.00986694
0.010163
0.0106113
0.0109676
0.0110116
0.0106316
0.0096136
0.00793698
0.00585618
0.0037822
0.00220039
0.0011027
0.00061974
0.000659495
0.000771978
3.91931e-05
0.00157377
0.0025747
0.00265609
0.00268109
0.00256432
0.00234027
0.00211396
0.00197505
0.00199093
0.00215957
0.00240823
0.00266455
0.00285178
0.00487605
0.00158683
0.0033666
0.00333841
0.00313657
0.00268919
0.00210076
0.00156457
0.00143072
0.00206833
0.00333043
0.00459109
0.00570035
0.00690569
0.0082268
0.00908005
0.00924612
0.00864756
0.00763517
0.00639642
0.00528033
0.004514
0.00449633
0.00518831
0.00615759
0.00698873
0.00761676
0.00784262
0.00748131
0.00643847
0.00607324
0.00140296
0.00550108
0.00452527
0.00318463
0.00200743
0.00167255
0.00239892
0.0035654
0.00463158
0.0055006
0.00656889
0.00812992
0.0097094
0.0105448
0.0105582
0.00990179
0.00886786
0.00774052
0.00672717
0.00607598
0.00599831
0.00655443
0.00731771
0.00807781
0.00868359
0.00896873
0.00897925
0.00844138
0.00724131
0.00563961
0.00264065
0.0110616
0.00939869
0.00701224
0.00470991
0.00311505
0.00329224
0.00493369
0.00656967
0.00779888
0.00858535
0.00939248
0.0108108
0.0125079
0.0131626
0.0128037
0.0117886
0.010316
0.00897611
0.00822048
0.00827236
0.0090207
0.0100317
0.0108557
0.0113217
0.0112731
0.0107566
0.00975638
0.00835326
0.00904132
0.00326246
0.00281665
0.00319322
0.00605028
0.00918092
0.0118518
0.0135914
0.0141838
0.0138302
0.0126933
0.0111793
0.00954587
0.00819306
0.00723331
0.00738304
0.00868473
0.0105033
0.0121171
0.0136852
0.0148214
0.0154864
0.0151124
0.0137356
0.0112973
0.00822319
0.00528952
0.00321157
0.00228165
0.00235772
0.00764552
0.00251524
0.00529453
0.00501792
0.00423403
0.00321901
0.00236868
0.00213499
0.00266179
0.00378856
0.00503034
0.00615424
0.00742572
0.00887249
0.010049
0.0106455
0.0106639
0.0100694
0.00889147
0.00747596
0.0060303
0.00530597
0.00602878
0.00756348
0.00911933
0.0104589
0.0113196
0.011676
0.0113263
0.0103686
0.00564062
0.00113726
0.00686662
0.00528714
0.00317484
0.00222824
0.0032
0.00465374
0.00586467
0.0071385
0.00874033
0.0105271
0.0121332
0.0131664
0.0134045
0.0127413
0.0111956
0.00911122
0.00696607
0.00518378
0.00515015
0.00669404
0.00843526
0.0102285
0.0117164
0.0128793
0.0132064
0.0123947
0.0102876
0.00743949
0.00268351
0.00225238
0.00285709
0.00417129
0.00632182
0.0089772
0.011646
0.0136108
0.0144672
0.0140692
0.0128605
0.0109382
0.00908365
0.00737852
0.00657781
0.0073158
0.00903981
0.011027
0.0128628
0.0146618
0.0156589
0.0157451
0.01435
0.0118755
0.00874873
0.00579033
0.00345325
0.00241273
0.0021562
0.00197295
0.0053385
0.0151611
0.00631141
0.00864152
0.0111496
0.0131048
0.0140704
0.0141391
0.0130532
0.0115706
0.00969957
0.00793087
0.00684722
0.00759361
0.00942656
0.0113448
0.0133342
0.0149682
0.0162796
0.0162618
0.0150087
0.0124681
0.00924438
0.00615838
0.00423044
0.00392456
0.0036875
0.00302358
0.00264626
0.00291899
0.00218669
0.0156513
0.00397322
0.0060075
0.00878767
0.0117313
0.0141825
0.0155798
0.0157923
0.0150043
0.013362
0.0116169
0.0100528
0.00884733
0.00903269
0.010402
0.0119305
0.013476
0.0147701
0.0156602
0.0157588
0.0147949
0.0126016
0.00934321
0.00558689
0.00320985
0.00253317
0.00215002
0.00206175
0.00242103
0.00571157
0.0274141
0.00976419
0.012176
0.0147663
0.01664
0.0173605
0.0169631
0.0155114
0.0135329
0.0118159
0.0110573
0.0123055
0.0143727
0.0166523
0.0183216
0.0187627
0.0177675
0.0152475
0.0115649
0.00730441
0.0045734
0.00421732
0.00455371
0.00491878
0.00506885
0.00498419
0.00464345
0.00404931
0.00369236
0.00818084
0.00896105
0.00419904
0.00532975
0.00633671
0.00696378
0.00723297
0.00716049
0.00683824
0.00627974
0.00569291
0.00531058
0.00540504
0.00606141
0.00696197
0.00799295
0.00874588
0.00919252
0.00888403
0.00798242
0.00688277
0.00618573
0.00573011
0.0051139
0.00395838
0.00297738
0.00316984
0.00450437
0.00606981
0.00695901
0.00313917
0.00738471
0.00202836
0.00259094
0.0038419
0.00569151
0.00772961
0.00942725
0.010568
0.0108347
0.010712
0.00987289
0.00891605
0.00773161
0.00699838
0.0071352
0.00799047
0.00904457
0.0099589
0.0105311
0.0105684
0.00986465
0.00830034
0.00612634
0.00398623
0.00231374
0.00123675
0.000701912
0.000646177
0.00072303
3.935e-05
0.00126615
0.00273093
0.00276012
0.00270265
0.00247398
0.00212793
0.00177323
0.00157163
0.00166746
0.00207047
0.00252499
0.00290369
0.00308196
0.00627451
0.00169253
0.00345827
0.00340066
0.00319938
0.00275235
0.00215955
0.00161216
0.00145512
0.00209661
0.00338428
0.00465864
0.0058005
0.00711956
0.00847049
0.00931283
0.00929387
0.00845257
0.00711761
0.00554724
0.00401739
0.00284503
0.00297875
0.00430988
0.00577024
0.00696384
0.00779671
0.00813953
0.00779101
0.006753
0.00652307
0.00131271
0.00564796
0.00451417
0.00316828
0.00224058
0.00216993
0.00281777
0.00375411
0.004601
0.00538216
0.0065995
0.00847195
0.0100971
0.0107401
0.0104168
0.00935352
0.00794683
0.00639023
0.00496315
0.00391213
0.00383682
0.00492585
0.00629143
0.00756714
0.00848738
0.00904117
0.00919031
0.00872187
0.0075437
0.00524714
0.0022085
0.0117094
0.00979104
0.00705835
0.00445841
0.00281871
0.00309357
0.00469567
0.00640679
0.00771057
0.00867483
0.0097681
0.0115536
0.0132488
0.0137139
0.0129118
0.0115425
0.00942667
0.00738012
0.00572392
0.00537789
0.00660387
0.00843473
0.00996228
0.0109791
0.0113084
0.0111181
0.010331
0.00895788
0.00817446
0.00312464
0.00323323
0.00421247
0.00698744
0.00992306
0.0125111
0.0141823
0.0146695
0.0140852
0.012649
0.0107286
0.00862774
0.00650383
0.00462688
0.0040132
0.00582651
0.00831069
0.0104508
0.0125975
0.0141413
0.0151482
0.0151079
0.0139691
0.0115503
0.00838552
0.00530319
0.00313056
0.00221947
0.00238805
0.0103599
0.00341352
0.005241