/*--------------------------------*- C++ -*----------------------------------*\
| =========                 |                                                 |
| \\      /  F ield         | OpenFOAM: The Open Source CFD Toolbox           |
|  \\    /   O peration     | Version:  2.1.1                                 |
|   \\  /    A nd           | Web:      www.OpenFOAM.org                      |
|    \\/     M anipulation  |                                                 |
\*---------------------------------------------------------------------------*/
FoamFile
{
    version     2.0;
    format      ascii;
    class       volScalarField;
    location    "0.007750000";
    object      rhoUnburned;
}
// * * * * * * * * * * * * * * * * * * * * * * * * * * * * * * * * * * * * * //

dimensions      [1 -3 0 0 0 0 0];

internalField   nonuniform List<scalar> 
12384
(
2.57158
2.61472
2.67148
2.72245
2.75983
2.77888
2.7821
2.77014
2.74632
2.70959
2.65795
2.58959
2.51878
2.42521
3.93359
3.81157
3.81091
3.67569
3.54597
3.52814
3.55953
3.58892
3.61997
3.64532
3.67108
3.68865
3.71067
3.72655
3.74338
3.75548
3.76057
3.76304
3.76549
3.75985
3.75472
3.74526
3.73526
3.72674
3.71917
3.71917
3.77314
3.93256
4.12342
4.37183
4.58037
4.58117
4.54729
4.51559
4.47776
4.43935
4.37854
4.33693
4.29828
4.28197
4.26725
4.25362
4.25344
4.26637
4.28291
4.3059
4.33051
4.35235
4.37123
4.38692
4.40091
4.39979
4.3891
4.37384
4.35546
4.33209
4.32334
4.35372
4.38817
4.38185
4.65885
4.65185
4.6746
4.67755
4.67524
4.67877
4.66906
4.65947
4.65673
4.65971
4.65892
4.66622
4.6841
4.68414
4.70382
4.73258
4.72957
4.7862
4.77926
4.80472
4.83342
4.82083
4.82453
4.81639
4.80677
4.80042
4.7815
4.78404
4.81521
4.84822
4.5192
4.56224
4.56508
4.55447
4.55078
4.5573
4.55822
4.56238
4.55595
4.56763
4.55245
4.5855
4.5685
4.58738
4.56476
4.5736
4.52685
4.51354
4.4815
4.44814
4.4338
4.55172
4.82593
4.8513
4.82393
4.81924
4.80833
4.80471
4.80842
4.81556
4.86709
4.82403
4.73417
4.70115
4.72069
4.74437
4.78642
4.80607
4.83806
4.84996
4.86741
4.87337
4.87593
4.87846
4.8766
4.87169
4.86848
4.87255
4.87925
4.86117
4.87039
4.85802
4.8491
4.8389
4.8024
4.80472
4.81007
4.81178
4.72318
4.65054
6.06497
5.7798
5.61983
5.56444
5.55727
5.55083
5.54465
5.54957
5.56517
5.59039
5.62611
5.66056
5.69721
5.73123
5.75827
5.78507
5.80321
5.80164
5.80261
5.78423
5.79662
5.72162
5.65466
5.59556
5.56338
5.64275
6.46339
6.77895
6.63735
6.57802
4.9894
4.70448
4.61563
4.57583
4.57917
4.59705
4.60938
4.62747
4.65166
4.65646
4.70088
4.72738
4.72314
4.73725
4.72107
4.69675
4.66991
4.59262
4.53636
4.47949
4.63714
4.88249
4.87449
4.83198
4.83192
4.79831
4.78512
4.77401
4.77235
4.78552
4.8164
4.76906
4.74184
4.72686
4.7292
4.74357
4.77191
4.80255
4.84911
4.8758
4.9084
4.9482
4.95457
4.93702
4.90901
4.86687
4.81298
4.79172
4.83357
4.88753
4.87242
4.8689
4.87451
4.85883
4.85498
4.8247
4.80099
4.7941
4.86362
4.96182
5.47246
5.47556
5.4336
5.36704
5.28299
5.22909
5.22546
5.24876
5.29415
5.34928
5.40051
5.43368
5.484
5.45147
5.46784
5.40569
5.33247
5.28421
5.30316
5.3417
5.33045
5.33399
5.33411
5.33544
5.34201
5.34205
5.33887
5.33333
5.31436
5.31091
5.59146
5.57428
5.54243
5.50525
5.47896
5.46578
5.48567
5.51156
5.55582
5.5856
5.58907
5.54909
5.47774
5.39632
5.40708
5.56768
5.83872
5.98723
6.12106
6.23073
6.3186
6.41497
6.50932
6.48094
6.59785
6.65011
6.61334
6.65639
6.63449
6.35314
7.30974
7.33287
7.31492
6.89347
6.88542
6.97791
6.99393
6.96614
6.94825
6.93481
6.91701
6.88241
6.87243
6.81131
6.81016
6.72037
6.73266
6.64529
6.67089
6.61922
6.63017
6.6147
6.58529
6.60464
6.56774
6.5662
6.5599
6.53462
6.49225
6.54035
5.95585
6.04811
6.17616
6.25534
6.22518
6.17982
5.5882
4.3118
4.07474
4.12139
4.17905
4.20207
4.27688
4.30394
4.36234
4.43808
4.49279
4.57493
4.61823
4.67128
4.65167
4.62204
4.52728
4.49171
4.42413
4.43974
4.42103
4.46553
4.54061
4.90574
2.67135
2.76157
2.8698
2.92602
2.9465
2.94751
2.93671
2.92405
2.90953
2.88611
2.83617
2.72708
2.58231
2.43938
3.91333
3.81268
3.75093
3.54943
3.41838
3.43119
3.49292
3.53807
3.56812
3.59872
3.64893
3.70099
3.74688
3.78141
3.811
3.82856
3.8353
3.83457
3.83033
3.82077
3.80889
3.79181
3.77307
3.75031
3.73142
3.71681
3.72895
3.82662
3.98451
4.16285
4.58105
4.58267
4.53825
4.46274
4.35478
4.22467
4.12584
4.06207
4.02809
4.00907
4.00873
4.03254
4.07792
4.14175
4.2082
4.26862
4.31538
4.34839
4.3719
4.38964
4.40122
4.40532
4.41038
4.40212
4.3826
4.35875
4.33212
4.32786
4.3567
4.39526
4.64347
4.65962
4.68113
4.67153
4.6668
4.65666
4.63803
4.62033
4.59873
4.56752
4.55119
4.55137
4.56671
4.60608
4.6504
4.66893
4.71106
4.75449
4.77377
4.79928
4.81171
4.82333
4.82211
4.81483
4.81932
4.80407
4.79147
4.77781
4.77935
4.80007
4.51506
4.56874
4.57439
4.56975
4.59028
4.6032
4.58272
4.55175
4.52272
4.50842
4.4957
4.50629
4.49523
4.51134
4.51092
4.49147
4.50153
4.48768
4.48191
4.45729
4.431
4.43807
4.63557
4.82221
4.80904
4.82084
4.81532
4.80562
4.79114
4.75646
4.85106
4.78037
4.69427
4.67305
4.72645
4.78816
4.86083
4.8995
4.94842
4.96666
4.97731
4.9811
4.96378
4.91813
4.86067
4.80669
4.76926
4.73482
4.71187
4.71665
4.72149
4.74141
4.76038
4.7725
4.77981
4.79115
4.79231
4.80418
4.76866
4.6834
6.02123
5.67751
5.48702
5.4379
5.4695
5.50669
5.53682
5.56801
5.64339
5.76952
5.87558
5.93965
5.9688
5.97923
5.98595
5.98278
5.97175
5.95849
5.96817
5.94265
5.88133
5.85199
5.79377
5.72371
5.65661
5.62927
5.93132
6.47414
6.67302
6.53646
5.03489
4.70814
4.58292
4.57525
4.63293
4.66491
4.68873
4.71255
4.7189
4.74839
4.79205
4.76699
4.81233
4.81875
4.82149
4.78594
4.75122
4.70998
4.65897
4.55119
4.54524
4.7136
4.87927
4.87425
4.86767
4.83794
4.79976
4.75792
4.72994
4.72739
4.85883
4.81401
4.73843
4.72563
4.75015
4.79826
4.85221
4.91245
4.96581
5.0109
5.08237
5.08222
5.0937
5.07917
5.04967
5.00633
4.95336
4.88257
4.82713
4.84555
4.88435
4.91581
4.94525
4.96379
4.95519
4.95728
4.90793
4.7944
4.77136
4.91244
5.47754
5.48822
5.43996
5.26655
5.1432
5.13473
5.19592
5.30761
5.42539
5.54943
5.63458
5.71504
5.72219
5.75899
5.70012
5.61034
5.54089
5.45819
5.39089
5.35715
5.34393
5.33595
5.344
5.36307
5.38274
5.40262
5.3922
5.35807
5.31337
5.30824
5.61967
5.62896
5.58903
5.50198
5.49963
5.55737
5.63581
5.72224
5.81525
5.85429
5.85873
5.85243
5.78591
5.66801
5.53844
5.48069
5.57451
5.7104
5.8818
6.11689
6.39459
6.5924
6.70186
6.69245
6.717
6.77716
6.75439
6.68935
6.65693
6.34907
7.29237
7.25259
6.94039
6.82433
6.9385
6.96766
6.9144
6.84472
6.78804
6.74946
6.71519
6.72455
6.68526
6.73573
6.70551
6.74333
6.71693
6.7352
6.70823
6.70653
6.7469
6.74875
6.75778
6.74766
6.7182
6.67343
6.60501
6.54549
6.49955
6.50564
5.47198
5.92908
6.32315
6.4159
6.29049
5.76658
4.62585
4.10044
4.06786
4.121
4.1246
4.17481
4.19892
4.22879
4.28721
4.37911
4.47108
4.64582
4.80266
5.0011
5.05073
5.09469
4.9423
4.78711
4.62236
4.49755
4.4394
4.46142
4.56202
4.93689
2.80358
2.92478
2.97815
2.98614
2.97838
2.96054
2.93375
2.89331
2.85943
2.85858
2.86647
2.83034
2.67633
2.46681
3.89973
3.8029
3.7
3.42906
3.29801
3.30716
3.34303
3.33907
3.33346
3.37283
3.47977
3.60674
3.72638
3.79782
3.83796
3.85245
3.85317
3.83689
3.81876
3.79512
3.78194
3.76943
3.7594
3.74604
3.7266
3.70743
3.70151
3.75005
3.88816
4.06837
4.59106
4.59636
4.5318
4.41225
4.26617
4.15101
4.087
4.04856
4.00683
3.97706
3.97942
4.03664
4.14408
4.24971
4.32651
4.36268
4.3768
4.37822
4.38193
4.38471
4.38904
4.38951
4.39462
4.40122
4.39671
4.38007
4.35325
4.32911
4.33654
4.37553
4.65178
4.67299
4.68109
4.66727
4.6729
4.67414
4.66223
4.64212
4.59458
4.54307
4.50734
4.49024
4.54737
4.62731
4.67611
4.71757
4.7824
4.78639
4.83123
4.85499
4.84772
4.84479
4.84167
4.82865
4.83157
4.81733
4.80771
4.79057
4.777
4.78188
4.51102
4.57446
4.58288
4.60432
4.6219
4.58191
4.50817
4.45086
4.39323
4.38049
4.35389
4.35271
4.35114
4.37129
4.37127
4.39558
4.40298
4.42148
4.44342
4.44996
4.44559
4.41701
4.48742
4.69563
4.80795
4.83564
4.837
4.83788
4.81913
4.78063
4.84512
4.74218
4.64577
4.62826
4.67537
4.74607
4.81531
4.86336
4.94004
4.97558
4.99845
4.97911
4.90769
4.79606
4.68898
4.60099
4.53508
4.47432
4.44604
4.42748
4.42376
4.4528
4.50968
4.59784
4.66712
4.72947
4.75921
4.78843
4.77886
4.71389
5.99346
5.5782
5.38001
5.40385
5.48638
5.52441
5.54975
5.59361
5.72771
5.92837
6.04645
6.0746
6.07271
6.02019
5.96421
5.90404
5.85189
5.8051
5.75091
5.77758
5.78614
5.79025
5.79015
5.75954
5.73015
5.67746
5.72339
6.07511
6.5422
6.59444
5.13177
4.73904
4.55708
4.63443
4.67479
4.69522
4.71607
4.72253
4.72419
4.75361
4.74904
4.72717
4.7825
4.75477
4.75451
4.75943
4.75816
4.76098
4.71327
4.6545
4.56688
4.58698
4.77508
4.88449
4.92473
4.90427
4.8577
4.79629
4.74242
4.70479
4.8717
4.77806
4.71908
4.75525
4.82003
4.89047
4.95261
5.01039
5.05642
5.11168
5.12365
5.13566
5.17735
5.18107
5.14685
5.11157
5.05725
4.99056
4.90277
4.85563
4.87445
4.94249
4.9647
4.97638
4.96914
4.99367
5.01773
4.95531
4.7841
4.85152
5.49224
5.48995
5.35592
5.12082
5.06418
5.17496
5.35705
5.53641
5.69552
5.82976
5.92745
5.99884
6.02164
5.9684
5.96608
5.90207
5.74868
5.6471
5.55384
5.47935
5.42077
5.37308
5.33782
5.35361
5.38869
5.43324
5.4457
5.40197
5.32252
5.29833
5.65028
5.72161
5.54257
5.4891
5.59116
5.7417
5.88612
6.01859
6.07062
6.10695
6.1432
6.11063
6.04476
5.94157
5.79108
5.61762
5.52474
5.55519
5.6461
5.79449
6.21195
6.60657
6.67969
6.63115
6.56693
6.58421
6.60838
6.62214
6.63356
6.29759
7.07426
6.79399
6.77746
6.85756
6.91784
6.82603
6.7066
6.56007
6.44264
6.34503
6.28506
6.27664
6.19986
6.3315
6.34891
6.49926
6.62734
6.71968
6.79293
6.79517
6.83189
6.85277
6.82681
6.81056
6.82743
6.79058
6.6695
6.60815
6.51188
6.49812
5.24538
6.05407
6.42629
6.26422
5.78885
4.92692
4.18442
4.03144
4.03369
4.05298
4.01498
4.01332
3.99257
3.99392
4.01214
4.05854
4.14451
4.28452
4.50785
4.81235
5.10302
5.30452
5.24022
5.13089
4.96508
4.73718
4.50478
4.50946
4.67994
5.00988
2.96739
2.99383
2.9917
2.99478
3.00631
3.01786
3.01701
2.96363
2.86145
2.77859
2.79595
2.83283
2.7533
2.50326
3.89675
3.80775
3.69568
3.3771
3.20605
3.16459
3.14695
3.11894
3.13847
3.21309
3.34166
3.52135
3.70517
3.81675
3.8527
3.85102
3.80885
3.75041
3.68421
3.64879
3.63627
3.65433
3.67761
3.6966
3.70127
3.6887
3.6769
3.70397
3.82709
4.02031
4.59878
4.60672
4.53758
4.41377
4.30173
4.25577
4.23578
4.17498
4.09151
4.03503
4.05976
4.17463
4.30951
4.37617
4.38317
4.37203
4.35794
4.34543
4.3317
4.3337
4.34289
4.35338
4.35385
4.37166
4.38371
4.38316
4.36307
4.33972
4.32774
4.36355
4.65649
4.67788
4.67807
4.66286
4.67617
4.68257
4.69136
4.67191
4.61027
4.5457
4.48344
4.4887
4.5992
4.6849
4.7314
4.80593
4.82976
4.8493
4.90767
4.8945
4.90166
4.89972
4.88916
4.86222
4.85092
4.83837
4.82195
4.80557
4.78598
4.77815
4.50373
4.57455
4.59344
4.6373
4.58531
4.48168
4.4024
4.34881
4.30593
4.27733
4.24465
4.23961
4.22882
4.21311
4.22478
4.24114
4.27806
4.32701
4.36799
4.39762
4.4359
4.42279
4.41934
4.56747
4.74896
4.80839
4.81209
4.83237
4.82447
4.78256
4.84668
4.71883
4.58845
4.54633
4.55419
4.59429
4.67643
4.7951
4.91503
4.97727
4.99284
4.94065
4.79787
4.6577
4.55549
4.46824
4.38656
4.30689
4.24722
4.18392
4.17318
4.19369
4.24954
4.3604
4.48244
4.61524
4.69732
4.75581
4.7799
4.72723
5.97398
5.48097
5.2936
5.34379
5.43443
5.48358
5.50784
5.55955
5.75656
6.00034
6.10187
6.12208
6.07489
5.97644
5.87749
5.77593
5.66045
5.57812
5.54316
5.49212
5.52541
5.58563
5.66908
5.71785
5.73914
5.72102
5.70167
5.88476
6.32036
6.58785
5.15063
4.66971
4.58122
4.64667
4.66195
4.68973
4.71439
4.71847
4.72552
4.71631
4.68781
4.70105
4.69659
4.67796
4.68529
4.69229
4.69961
4.72501
4.73004
4.71825
4.61698
4.5699
4.64663
4.80994
4.91564
4.93753
4.88456
4.8186
4.76977
4.70786
4.78943
4.70791
4.73901
4.81944
4.89915
4.96766
5.01755
5.06027
5.07828
5.11228
5.13053
5.18815
5.19859
5.18858
5.18956
5.16605
5.13443
5.07619
4.98641
4.8958
4.87191
4.93081
4.9851
4.96061
4.95569
4.97466
5.03089
5.04045
4.87076
4.83388
5.50306
5.47584
5.14761
4.96753
5.09117
5.33959
5.57118
5.75038
5.90957
5.97165
6.07118
6.12654
6.15753
6.17412
6.04957
6.02474
5.97104
5.84391
5.71725
5.61287
5.52957
5.45576
5.37889
5.3666
5.3935
5.43821
5.47272
5.45416
5.36991
5.3144
5.72696
5.59926
5.44552
5.55117
5.75711
5.96315
6.12608
6.18667
6.21253
6.26609
6.24447
6.24898
6.21394
6.15269
6.00472
5.82186
5.62988
5.54015
5.56503
5.66061
6.04174
6.51678
6.63428
6.51966
6.33916
6.34253
6.45699
6.5603
6.49465
6.25032
6.87913
6.68477
6.77298
6.85007
6.76468
6.58133
6.35701
6.14234
5.94473
5.77515
5.65155
5.6041
5.58902
5.65788
5.75249
6.01161
6.20428
6.50535
6.71948
6.80583
6.83859
6.84823
6.80917
6.81146
6.81588
6.79747
6.76021
6.638
6.51771
6.50958
5.16937
6.04895
6.13592
5.63183
5.04948
4.38839
4.02344
3.99082
3.97474
3.9477
3.91063
3.88984
3.87813
3.88262
3.89043
3.91316
3.94154
4.01753
4.14766
4.39609
4.79595
5.19209
5.32913
5.19266
5.11171
5.06421
4.84947
4.74649
4.95749
5.09466
3.01321
2.99142
3.01934
3.06355
3.08561
3.11334
3.15625
3.16811
3.06916
2.8623
2.75358
2.79732
2.77521
2.53723
3.89169
3.8168
3.74085
3.4121
3.17101
3.08529
3.05566
3.06349
3.1332
3.24362
3.34209
3.50984
3.73195
3.84271
3.85445
3.79447
3.6805
3.54764
3.44406
3.38233
3.38357
3.42877
3.50946
3.58784
3.64013
3.65493
3.64994
3.67099
3.78535
3.99543
4.6123
4.62449
4.5641
4.47012
4.41108
4.41931
4.36508
4.25548
4.14515
4.10541
4.1818
4.33116
4.40371
4.38909
4.35774
4.32011
4.2853
4.26339
4.25549
4.24803
4.25787
4.27638
4.30546
4.32613
4.35358
4.36719
4.3643
4.34348
4.32674
4.35629
4.65926
4.68127
4.66901
4.6582
4.67639
4.68954
4.70081
4.68928
4.62967
4.54236
4.47169
4.5318
4.66859
4.73569
4.7979
4.85779
4.84835
4.90603
4.88894
4.89988
4.92578
4.92693
4.9122
4.89994
4.86992
4.86174
4.83906
4.81896
4.79816
4.78015
4.49592
4.57344
4.62611
4.60445
4.47898
4.38861
4.33187
4.28951
4.24769
4.20138
4.16982
4.1476
4.116
4.11497
4.11539
4.12971
4.1536
4.21011
4.27532
4.34085
4.39854
4.40617
4.40826
4.48308
4.64406
4.76568
4.74337
4.78482
4.81782
4.77461
4.84067
4.70931
4.55254
4.46216
4.4359
4.43577
4.54941
4.75505
4.91805
4.98707
4.97774
4.86724
4.6951
4.58856
4.51163
4.42605
4.30461
4.18678
4.07764
4.01428
3.98823
3.99565
4.04229
4.14854
4.29794
4.47222
4.61173
4.7135
4.7704
4.7373
5.96123
5.42025
5.20463
5.22034
5.29452
5.37811
5.44941
5.50651
5.72779
6.00821
6.12567
6.14063
6.0697
5.94746
5.82374
5.65171
5.48584
5.344
5.24285
5.25593
5.26463
5.34691
5.47561
5.61433
5.70711
5.74089
5.72614
5.79708
6.17848
6.57582
5.13792
4.54669
4.61664
4.61287
4.6422
4.68553
4.7158
4.7176
4.71619
4.65816
4.6552
4.63989
4.61569
4.64384
4.65086
4.64631
4.6564
4.68407
4.69485
4.74266
4.65339
4.59999
4.58658
4.70178
4.84118
4.92796
4.89545
4.82499
4.77752
4.71444
4.67227
4.70159
4.79622
4.88522
4.95066
5.01399
5.04559
5.0738
5.09644
5.12205
5.13327
5.11142
5.09989
5.13673
5.14946
5.16435
5.16644
5.13857
5.06269
4.95966
4.89511
4.92332
4.96792
4.97287
4.94193
4.96498
5.0149
5.06035
4.94026
4.83022
5.50731
5.30403
4.86532
4.92345
5.22927
5.53191
5.73397
5.8836
5.99206
6.0202
6.18437
6.20328
6.24267
6.25979
6.27693
6.12018
6.02511
5.99509
5.8796
5.76202
5.63898
5.52472
5.43234
5.37146
5.3814
5.43048
5.45349
5.44253
5.36542
5.28678
5.69087
5.40139
5.41218
5.66139
5.92986
6.11328
6.20703
6.25164
6.36933
6.40385
6.35259
6.25395
6.23155
6.21362
6.17368
5.98186
5.77379
5.62793
5.55139
5.59594
6.00117
6.47054
6.53745
6.44142
6.22826
6.16701
6.27251
6.36328
6.28531
6.16382
6.81739
6.64168
6.76247
6.73679
6.5428
6.25353
5.97328
5.69954
5.46449
5.26898
5.1346
5.06679
5.07754
5.14017
5.23926
5.48334
5.7241
6.14252
6.48988
6.7587
6.82543
6.8225
6.80743
6.79083
6.79107
6.82591
6.77516
6.62369
6.54218
6.49991
5.11285
5.87747
5.63787
4.96597
4.51007
4.11967
3.95905
3.95005
3.91117
3.87383
3.8466
3.83831
3.84627
3.85294
3.86258
3.86549
3.89666
3.92128
3.98211
4.11167
4.38023
4.87401
5.33143
5.23078
4.94313
5.02111
5.18689
5.14264
5.15859
5.04964
2.96246
3.00411
3.07302
3.0725
3.00963
2.96924
3.04149
3.19208
3.21032
3.03504
2.77484
2.76557
2.77313
2.55889
3.91191
3.82616
3.82117
3.5435
3.25447
3.11616
3.09197
3.15041
3.29197
3.39013
3.40895
3.55745
3.78256
3.86283
3.81923
3.6791
3.48241
3.30358
3.17151
3.10898
3.10931
3.18164
3.305
3.447
3.55579
3.60572
3.61968
3.64372
3.76355
3.98751
4.61002
4.63287
4.59489
4.53724
4.5234
4.51802
4.4136
4.26143
4.17991
4.1811
4.32667
4.4247
4.39677
4.35328
4.29909
4.25901
4.23192
4.22259
4.21171
4.21652
4.21377
4.22176
4.25127
4.28528
4.31864
4.35057
4.35635
4.34507
4.32883
4.35541
4.65734
4.68322
4.66107
4.6508
4.68534
4.70202
4.712
4.69829
4.63966
4.53789
4.47416
4.59382
4.71568
4.78362
4.82463
4.8726
4.82794
4.87336
4.84439
4.89365
4.91001
4.91743
4.92819
4.93028
4.89493
4.87854
4.85857
4.83496
4.80809
4.78545
4.48978
4.57521
4.64759
4.50271
4.39624
4.34196
4.3028
4.25226
4.20812
4.14863
4.11267
4.06566
4.02345
3.99756
3.9881
4.0118
4.05089
4.10841
4.18854
4.27878
4.33979
4.39295
4.40027
4.42778
4.56384
4.67359
4.66509
4.73098
4.79124
4.75958
4.85313
4.72382
4.54114
4.41466
4.3701
4.38655
4.53647
4.77754
4.93496
4.98289
4.94699
4.79092
4.62888
4.6015
4.53373
4.40538
4.23822
4.07702
3.95009
3.8696
3.82091
3.82061
3.87521
3.98336
4.14581
4.34263
4.52671
4.66972
4.75916
4.74149
5.97704
5.3918
5.1147
5.05045
5.1097
5.24789
5.35361
5.42519
5.64038
5.95199
6.11808
6.13971
6.06785
5.95686
5.78663
5.56521
5.39491
5.19202
5.07292
5.02244
5.06418
5.17389
5.31075
5.51343
5.64779
5.74522
5.75209
5.79106
6.12562
6.59068
5.0329
4.50498
4.57713
4.55169
4.61844
4.69209
4.71625
4.70614
4.67866
4.63567
4.62254
4.58926
4.61944
4.61722
4.60183
4.61708
4.59881
4.64373
4.6805
4.71197
4.68832
4.63806
4.56831
4.63106
4.74527
4.85834
4.88196
4.82114
4.76106
4.71776
4.66469
4.74833
4.83937
4.9144
4.97963
5.053
5.05076
5.09757
5.13069
5.09135
5.07229
5.10647
5.14294
5.14903
5.15954
5.17179
5.18036
5.15172
5.11971
5.01343
4.92346
4.90515
4.95639
4.94969
4.94651
4.95148
5.00075
5.08091
4.98659
4.84465
5.43031
4.89624
4.68182
4.99665
5.4068
5.65735
5.82527
5.94428
6.01481
6.14499
6.27748
6.2025
6.1856
6.20233
6.20974
6.31941
6.14724
6.06066
5.9548
5.88429
5.77673
5.64112
5.5042
5.42074
5.41496
5.45588
5.44936
5.45509
5.40101
5.33675
5.37519
5.20647
5.44278
5.78946
6.02313
6.19088
6.2891
6.35361
6.38918
6.23188
6.18291
6.20497
6.18397
6.23874
6.17881
6.09536
5.93001
5.71441
5.58216
5.57738
5.99817
6.49294
6.4329
6.33546
6.23131
6.11972
6.0787
6.14632
6.09422
6.07347
6.7877
6.61246
6.69469
6.60351
6.31015
5.96841
5.62473
5.32675
5.08159
4.91502
4.79439
4.74714
4.72093
4.80261
4.89455
5.09616
5.34126
5.74955
6.16001
6.63096
6.78777
6.8108
6.795
6.75811
6.7897
6.81157
6.71914
6.63413
6.53534
6.47336
5.02861
5.64274
5.24583
4.51418
4.2012
3.99009
3.92162
3.90779
3.85993
3.83558
3.82109
3.82068
3.83073
3.82928
3.83301
3.85591
3.86367
3.88898
3.9383
4.00544
4.12972
4.45728
5.13266
5.49761
4.9502
4.66045
4.96786
5.10702
5.04757
4.81215
2.93366
3.04959
3.03989
2.8387
2.66971
2.60869
2.68343
2.92696
3.17327
3.12266
2.81476
2.74121
2.76031
2.56285
3.91231
3.82053
3.86918
3.72938
3.45883
3.2836
3.25926
3.37806
3.54531
3.55682
3.4859
3.62093
3.83354
3.86358
3.75616
3.52659
3.29178
3.09703
2.97125
2.91604
2.91667
2.99417
3.14232
3.32292
3.47774
3.55367
3.58652
3.62366
3.76901
3.99556
4.61931
4.64441
4.62822
4.60273
4.58451
4.54931
4.39097
4.25605
4.22494
4.28341
4.43671
4.42327
4.36787
4.31389
4.25839
4.23006
4.20785
4.19522
4.19585
4.18917
4.20017
4.18657
4.22005
4.24823
4.29157
4.33226
4.34525
4.34251
4.32687
4.3588
4.65801
4.67053
4.65292
4.65166
4.68404
4.71025
4.7159
4.69595
4.64888
4.52392
4.48292
4.64801
4.75118
4.79019
4.83455
4.8635
4.79669
4.84275
4.83559
4.81523
4.82581
4.86691
4.90802
4.93249
4.91043
4.89701
4.86958
4.84945
4.82093
4.78832
4.49186
4.60218
4.60686
4.4293
4.36824
4.33284
4.28695
4.23198
4.18131
4.11626
4.075
4.003
3.94652
3.91888
3.90337
3.9249
3.95349
4.03906
4.12053
4.21597
4.29797
4.37014
4.38297
4.40953
4.50452
4.58983
4.60531
4.69611
4.76519
4.74971
4.85798
4.76129
4.58647
4.44394
4.38311
4.4196
4.61362
4.82846
4.93981
4.96756
4.89694
4.71612
4.63167
4.65648
4.57671
4.39174
4.18558
4.03033
3.85015
3.77524
3.71356
3.71825
3.76864
3.87321
4.0431
4.24726
4.46114
4.63152
4.75159
4.74221
6.01127
5.41683
5.06487
4.92363
4.93222
5.11859
5.26017
5.29371
5.50994
5.85948
6.08874
6.15528
6.10442
5.96448
5.79053
5.57137
5.35155
5.08354
4.96586
4.91848
4.9335
5.07182
5.19162
5.45395
5.60505
5.73928
5.77262
5.81421
6.14214
6.59078
4.8955
4.51651
4.49753
4.49411
4.60327
4.68581
4.71984
4.69628
4.65492
4.61549
4.59087
4.59799
4.63837
4.63125
4.66889
4.64003
4.61504
4.61713
4.62926
4.69892
4.69994
4.6565
4.5836
4.59123
4.68008
4.79223
4.84723
4.79182
4.73175
4.70055
4.69018
4.78036
4.85433
4.92447
5.00244
5.06833
5.05396
5.15307
5.10072
5.09899
5.08786
5.09344
5.04324
5.04766
5.10617
5.13719
5.19166
5.154
5.14617
5.06547
4.95175
4.91384
4.92394
4.9359
4.93248
4.9566
4.97529
5.06204
5.01105
4.84151
5.23976
4.53931
4.61167
5.1176
5.50211
5.712
5.86965
5.97912
6.06153
6.26645
6.23945
6.16395
6.29821
6.26989
6.18209
6.21523
6.17767
6.16012
6.05799
5.97401
5.82548
5.69199
5.54235
5.42377
5.41415
5.43085
5.38973
5.37036
5.33903
5.29288
5.02535
5.12257
5.54442
5.8715
6.07673
6.23052
6.2846
6.37812
6.27232
6.11066
6.03052
5.9838
6.07537
6.11821
6.17043
6.17906
5.99499
5.77894
5.6459
5.60081
6.02666
6.44645
6.39137
6.27029
6.28109
6.2847
6.22212
6.3068
6.27868
6.23123
6.84374
6.58068
6.63727
6.47038
6.13614
5.74403
5.39547
5.09306
4.86332
4.68686
4.59031
4.54781
4.53167
4.58244
4.67784
4.86553
5.08772
5.44274
5.8549
6.42198
6.72517
6.79106
6.72645
6.73338
6.76861
6.72886
6.69649
6.60917
6.48727
6.44949
4.9226
5.38549
5.07988
4.24849
4.04189
3.92883
3.89359
3.87685
3.82925
3.82147
3.80622
3.81367
3.81672
3.81652
3.83403
3.84552
3.84412
3.86454
3.89925
3.98301
4.08071
4.19079
4.68287
5.62405
5.5409
4.6143
4.4954
4.68203
4.66017
4.54849
2.94723
3.05437
2.81558
2.55084
2.4616
2.44935
2.48155
2.67872
3.03686
3.09551
2.81019
2.72108
2.74623
2.54927
3.96498
3.82343
3.89022
3.88997
3.71874
3.55881
3.54693
3.66458
3.77009
3.68269
3.54295
3.69443
3.86565
3.84283
3.66664
3.40161
3.16038
2.98071
2.881
2.84258
2.84121
2.90813
3.06488
3.26513
3.42778
3.51234
3.5556
3.62137
3.79735
4.00514
4.60634
4.64417
4.63561
4.61866
4.59366
4.51132
4.34205
4.27965
4.30666
4.39703
4.46802
4.3972
4.33896
4.28218
4.23884
4.2225
4.19353
4.1899
4.17785
4.17863
4.19187
4.17455
4.20802
4.22403
4.2837
4.31213
4.33817
4.32814
4.32414
4.36985
4.65646
4.66703
4.6433
4.64089
4.67857
4.71523
4.72078
4.69932
4.64776
4.51155
4.49007
4.67907
4.76694
4.79552
4.82058
4.8722
4.77754
4.84021
4.79516
4.81266
4.8396
4.84896
4.897
4.92741
4.91071
4.91331
4.88048
4.85567
4.82781
4.79597
4.4976
4.61222
4.50487
4.40986
4.36858
4.33459
4.28653
4.23033
4.17617
4.11109
4.05557
3.96348
3.90115
3.85938
3.83322
3.86106
3.8869
3.99547
4.0629
4.17242
4.27316
4.348
4.37298
4.39527
4.45631
4.52884
4.56605
4.68165
4.74531
4.73251
4.86431
4.80983
4.66453
4.53407
4.48475
4.55761
4.72527
4.8746
4.94505
4.95229
4.85491
4.67343
4.67838
4.73049
4.62606
4.41826
4.18417
4.02145
3.8306
3.73756
3.67365
3.67722
3.7255
3.81779
3.99722
4.19435
4.42518
4.61336
4.74885
4.73953
6.0708
5.50164
5.07479
4.87282
4.81865
4.98461
5.17829
5.1916
5.33331
5.70139
6.02602
6.15402
6.11997
5.99616
5.8579
5.62621
5.34718
5.11855
5.00561
4.93268
4.9324
5.09973
5.15446
5.45695
5.60203
5.74307
5.80181
5.83818
6.20611
6.65735
4.74337
4.49773
4.38808
4.43315
4.57354
4.68218
4.70964
4.70123
4.64121
4.60934
4.59218
4.61385
4.63319
4.65364
4.65832
4.65775
4.61669
4.6078
4.61625
4.68867
4.6937
4.66622
4.60355
4.58026
4.6303
4.74144
4.79586
4.72498
4.67194
4.6653
4.69808
4.77736
4.84903
4.93154
5.00847
5.08598
5.0743
5.17903
5.07671
5.13998
5.07142
5.08257
5.07487
5.05615
5.10613
5.13682
5.17344
5.15905
5.16564
5.09091
4.9809
4.9168
4.91692
4.90996
4.9402
4.94608
4.95772
5.04611
5.00926
4.83951
4.84248
4.31807
4.54491
5.14476
5.52776
5.72732
5.88013
6.01557
6.1087
6.32712
6.15945
6.2055
6.22942
6.29504
6.26442
6.328
6.13912
6.24754
6.06976
6.05395
5.92314
5.7538
5.60971
5.48619
5.46288
5.46745
5.39374
5.38512
5.37574
5.34979
4.90292
5.15255
5.64097
5.90826
6.083
6.23305
6.32629
6.37586
6.21658
6.02942
6.01676
5.94553
5.92905
6.02223
6.17303
6.1475
6.01507
5.84492
5.67445
5.645
6.10074
6.30825
6.24905
6.15259
6.06092
6.11998
6.14652
6.20653
6.37939
6.5344
6.9332
6.52164
6.54366
6.41676
6.05564
5.65575
5.27624
4.97798
4.74207
4.58929
4.48813
4.44017
4.42365
4.48407
4.56171
4.74221
4.96819
5.26367
5.6484
6.19174
6.65267
6.70994
6.66236
6.71543
6.69572
6.7129
6.64553
6.55123
6.45624
6.43657
4.90075
4.99554
5.04869
4.25671
3.96859
3.89991
3.87316
3.85846
3.81516
3.81628
3.79989
3.80892
3.80715
3.81366
3.82474
3.84086
3.84321
3.85101
3.86571
3.96615
4.09663
4.15526
4.28322
5.36699
6.23532
5.2538
4.54384
4.54463
4.68254
4.82693
2.96686
2.97565
2.59009
2.43895
2.44135
2.45517
2.45683
2.56711
2.88703
2.98354
2.75154
2.71089
2.70402
2.56829
2.89224
3.47991
3.9264
3.83476
3.87024
3.91862
3.9034
3.83287
3.83148
3.87777
3.87062
3.73116
3.5885
3.7588
3.88265
3.81088
3.60016
3.33168
3.10762
2.95271
2.8735
2.84309
2.84795
2.93157
3.08485
3.26657
3.40728
3.48379
3.54213
3.65302
3.85817
4.07711
4.29837
4.43515
4.60264
4.64253
4.63823
4.61782
4.58588
4.43501
4.31805
4.35015
4.38137
4.46445
4.45821
4.37842
4.31971
4.27931
4.23473
4.22065
4.18673
4.1911
4.18448
4.17589
4.19306
4.16824
4.21261
4.22318
4.28387
4.30731
4.33075
4.32108
4.32548
4.36038
4.45317
4.51385
4.63168
4.67519
4.64659
4.63985
4.66705
4.69952
4.71953
4.68403
4.64823
4.48841
4.50445
4.67561
4.75468
4.79983
4.80718
4.84727
4.81233
4.83206
4.77779
4.83128
4.82383
4.83095
4.89038
4.91885
4.91644
4.91682
4.88923
4.86502
4.83259
4.77888
4.48317
4.48782
4.56938
4.59534
4.47879
4.4241
4.38332
4.35107
4.30284
4.24646
4.18582
4.12865
4.06007
3.97123
3.90334
3.84531
3.82586
3.84311
3.88471
3.98958
4.05155
4.16201
4.27133
4.33499
4.36432
4.38629
4.43054
4.47229
4.57833
4.70374
4.75002
4.74447
4.75221
4.75186
4.81696
4.8339
4.76583
4.6727
4.64904
4.72984
4.83734
4.91223
4.94677
4.91318
4.80398
4.67265
4.72747
4.80013
4.70977
4.49648
4.24055
4.05582
3.87623
3.76621
3.69556
3.69397
3.73329
3.82387
4.0014
4.19487
4.42453
4.61542
4.74508
4.74398
5.19795
5.87325
6.08891
5.61472
5.16549
4.91633
4.81338
4.90429
5.09488
5.12742
5.16437
5.48078
5.91724
6.1114
6.13382
6.05373
5.9091
5.73064
5.43498
5.23091
5.11528
5.03693
5.03465
5.17283
5.2455
5.48955
5.65923
5.75537
5.83215
5.93918
6.31358
6.37365
4.62096
4.47449
4.55542
4.36744
4.28181
4.3731
4.542
4.67034
4.7064
4.6954
4.64759
4.61535
4.60224
4.60871
4.63542
4.65505
4.65221
4.66331
4.61634
4.59984
4.61509
4.68073
4.68126
4.67808
4.61048
4.57499
4.61113
4.75119
4.72024
4.62902
4.5984
4.60059
4.62954
4.66714
4.70759
4.76535
4.84825
4.91893
5.01088
5.09633
5.08421
5.18503
5.09087
5.15816
5.0676
5.11581
5.09723
5.05102
5.11179
5.12343
5.14884
5.17237
5.16504
5.08146
4.99181
4.93206
4.90839
4.91279
4.94713
4.92912
4.93668
5.03617
5.009
4.87615
4.73105
4.49145
4.31559
4.16007
4.40782
5.06235
5.49064
5.72251
5.86049
6.01374
6.12582
6.35872
6.136
6.25348
6.2931
6.24515
6.19001
6.33631
6.25408
6.21474
6.18796
6.05746
5.97425
5.78344
5.59758
5.46306
5.45993
5.43588
5.35715
5.33604
5.31042
5.22016
4.98065
4.8962
4.91524
5.23857
5.70709
5.90418
6.06048
6.22636
6.32058
6.35228
6.21061
5.95738
5.96417
5.86548
5.92643
6.05485
6.09506
6.12158
6.05388
5.84187
5.68442
5.69444
6.1582
6.15201
6.00111
5.9329
5.8762
5.88239
5.95699
6.0203
6.15208
6.41234
6.71314
6.90027
7.07547
6.60528
6.48163
6.36449
6.08865
5.69306
5.31047
4.98113
4.74167
4.57358
4.47201
4.42834
4.39498
4.45538
4.5299
4.71149
4.94799
5.19465
5.54601
6.02389
6.50457
6.68234
6.59146
6.59652
6.64963
6.62745
6.57141
6.47357
6.41465
6.37776
6.05381
5.25154
4.776
4.70407
4.74509
4.45135
3.93769
3.8814
3.86088
3.85967
3.80728
3.81685
3.79536
3.80505
3.80639
3.80619
3.82674
3.83658
3.84722
3.84168
3.86698
3.95562
4.11275
4.18573
4.194
4.85221
6.5438
6.29787
5.347
5.19846
5.29586
4.57589
3.32785
3.12244
2.97051
2.83408
2.47359
2.44493
2.53766
2.54432
2.49497
2.54691
2.76031
2.81555
2.68799
2.70761
2.69533
2.56978
2.87366
3.4645
3.92221
3.87304
3.86277
3.90515
3.93808
3.95202
3.95246
3.94563
3.88668
3.73512
3.63319
3.81286
3.88669
3.79446
3.57845
3.32707
3.12389
2.99559
2.93445
2.92298
2.95521
3.03394
3.16094
3.29793
3.4038
3.47898
3.57416
3.74471
3.97486
4.18813
4.33217
4.4931
4.60933
4.63732
4.63104
4.61395
4.51816
4.34308
4.35374
4.42522
4.44746
4.50029
4.44374
4.37275
4.32263
4.2797
4.23894
4.22707
4.19167
4.1919
4.18107
4.17741
4.18961
4.18808
4.22702
4.24018
4.29566
4.30308
4.31152
4.3054
4.31913
4.36695
4.51918
4.52923
4.62549
4.6572
4.64035
4.63883
4.67037
4.70431
4.70023
4.68358
4.63747
4.46056
4.50391
4.68186
4.72745
4.77367
4.81822
4.83371
4.84122
4.8434
4.78906
4.84425
4.84083
4.86362
4.9003
4.91371
4.91938
4.91756
4.89305
4.86753
4.827
4.72484
4.46739
4.5511
4.61331
4.58939
4.51763
4.45921
4.40866
4.37376
4.33332
4.27527
4.21681
4.16363
4.10056
4.02322
3.96571
3.90223
3.86272
3.88206
3.93947
4.02306
4.07367
4.19721
4.27699
4.32994
4.3565
4.37724
4.4148
4.45011
4.6557
4.7159
4.73521
4.77449
4.80689
4.80088
4.82532
4.85047
4.83265
4.80149
4.79539
4.84486
4.89603
4.92072
4.91951
4.87703
4.77277
4.67545
4.76717
4.85789
4.81084
4.61775
4.36459
4.14338
3.98049
3.85141
3.7765
3.76262
3.79607
3.89553
4.05166
4.24385
4.45094
4.63494
4.7453
4.74627
5.11337
5.76273
6.08184
5.73829
5.32904
5.04298
4.87436
4.89624
5.02465
5.08378
5.05387
5.24761
5.72173
6.05486
6.1387
6.07979
5.99282
5.8471
5.60094
5.41149
5.30449
5.21323
5.21991
5.30751
5.39433
5.59283
5.71511
5.80727
5.88345
6.08886
6.36052
5.65301
4.50527
4.39544
4.38754
4.22005
4.16191
4.2853
4.49006
4.64516
4.70216
4.69437
4.65906
4.64132
4.60679
4.60325
4.6202
4.62516
4.62949
4.64226
4.58994
4.61597
4.62269
4.67592
4.68107
4.67838
4.60727
4.5815
4.6243
4.77726
4.69108
4.62281
4.57729
4.57821
4.60108
4.62786
4.6596
4.72931
4.80933
4.89255
4.98709
5.05833
5.10516
5.15665
5.13668
5.19589
5.09945
5.09936
5.03619
5.07854
5.14182
5.1075
5.16541
5.18743
5.12079
5.07098
4.99705
4.9353
4.90344
4.94039
4.94152
4.87672
4.92043
4.99874
4.9522
4.84524
4.57844
4.23733
4.07939
4.08998
4.28226
4.89955
5.4399
5.67244
5.84228
5.98247
6.09572
6.34383
6.20397
6.28388
6.3028
6.2369
6.26676
6.35536
6.31812
6.25172
6.16836
6.13374
5.94618
5.79719
5.63486
5.51507
5.54632
5.49862
5.39313