/*--------------------------------*- C++ -*----------------------------------*\
| =========                 |                                                 |
| \\      /  F ield         | OpenFOAM: The Open Source CFD Toolbox           |
|  \\    /   O peration     | Version:  2.1.1                                 |
|   \\  /    A nd           | Web:      www.OpenFOAM.org                      |
|    \\/     M anipulation  |                                                 |
\*---------------------------------------------------------------------------*/
FoamFile
{
    version     2.0;
    format      ascii;
    class       volScalarField;
    location    "0.003350000";
    object      H;
}
// * * * * * * * * * * * * * * * * * * * * * * * * * * * * * * * * * * * * * //

dimensions      [0 0 0 0 0 0 0];

internalField   nonuniform List<scalar> 
12384
(
0.00012681
0.000110942
9.17605e-05
6.95806e-05
4.87672e-05
2.65272e-05
1.10747e-05
5.53646e-06
2.07106e-06
1.10841e-06
1.73231e-06
9.53942e-06
1.78996e-05
1.64988e-05
2.96331e-07
2.65304e-07
3.00655e-07
3.99673e-07
6.6756e-07
9.84352e-07
1.28526e-06
1.49994e-06
1.59632e-06
1.71186e-06
1.71055e-06
1.84002e-06
1.94031e-06
2.04989e-06
2.06556e-06
2.02087e-06
1.7215e-06
1.79843e-06
2.15705e-06
2.89212e-06
3.73805e-06
2.57046e-06
2.395e-06
7.68721e-07
5.41343e-07
2.21236e-07
2.25521e-07
1.11624e-06
1.06603e-05
2.89946e-05
6.75518e-06
2.127e-05
2.19599e-05
2.16942e-05
2.28911e-05
2.52851e-05
3.48706e-05
4.62451e-05
6.21518e-05
9.05458e-05
0.000110629
0.000126212
0.000103742
0.000122394
7.69518e-05
8.62938e-05
7.49438e-05
6.51017e-05
7.06365e-05
5.71195e-05
5.64839e-05
4.90051e-05
4.17455e-05
3.21103e-05
1.78291e-05
4.77455e-06
9.02682e-07
3.54e-07
5.51868e-07
4.18367e-06
3.65942e-05
4.01414e-05
3.97012e-05
4.23972e-05
4.67242e-05
4.90008e-05
4.72609e-05
4.25728e-05
3.53078e-05
2.73439e-05
2.10123e-05
1.97068e-05
1.70212e-05
1.97293e-05
1.75943e-05
1.76317e-05
2.73489e-05
2.05717e-05
3.50666e-05
2.26662e-05
3.21559e-05
2.75392e-05
3.53737e-05
3.4222e-05
4.34561e-05
5.28204e-05
5.86695e-05
3.39261e-05
3.15943e-06
4.85874e-06
2.66338e-05
4.20376e-05
4.6581e-05
5.2657e-05
5.73944e-05
5.81198e-05
5.88424e-05
5.86076e-05
5.80902e-05
5.73736e-05
5.46294e-05
5.08736e-05
4.711e-05
4.38967e-05
3.7056e-05
3.17095e-05
2.35996e-05
1.90082e-05
1.58268e-05
1.4988e-05
1.71412e-05
2.07194e-05
2.37068e-05
1.88431e-05
5.04114e-06
5.1645e-07
4.00624e-07
2.36663e-06
9.63402e-06
1.19093e-05
1.29315e-06
2.23011e-06
2.4825e-06
3.96215e-06
8.56383e-06
1.3884e-05
2.264e-05
3.07954e-05
3.79594e-05
4.01601e-05
3.3558e-05
1.35622e-05
2.53191e-06
1.48146e-06
1.68049e-06
8.77825e-06
1.93782e-05
3.53236e-05
3.4661e-05
3.31601e-05
1.65131e-05
8.0123e-06
1.14888e-06
2.19815e-07
8.05493e-08
9.04524e-08
1.56593e-07
4.1614e-07
1.56915e-06
2.42018e-06
1.35792e-06
2.15247e-06
7.08986e-06
3.52774e-05
6.08195e-05
5.66368e-05
4.41733e-05
3.90419e-05
3.37812e-05
3.61983e-05
5.1559e-05
3.74161e-05
1.50415e-06
1.22313e-07
6.76783e-08
6.16025e-08
6.01281e-08
4.64361e-08
3.57639e-08
3.94927e-08
4.0165e-08
4.9925e-08
6.12096e-08
9.83418e-08
1.02747e-07
1.24539e-07
1.83437e-07
3.10566e-07
3.02782e-07
5.53922e-08
4.55711e-07
4.80508e-07
6.53162e-07
1.4489e-06
3.85347e-06
5.97102e-06
8.31709e-06
8.44993e-06
7.83945e-06
5.65037e-06
5.26135e-06
4.86449e-06
1.72773e-06
2.55385e-07
6.06436e-08
4.61711e-08
3.66982e-08
3.31336e-08
3.98499e-08
3.89727e-08
3.42603e-08
3.15695e-08
3.14456e-08
3.2385e-08
3.96891e-08
4.69441e-08
1.03893e-07
2.42491e-07
5.05979e-07
9.0007e-07
6.71668e-07
3.7275e-07
3.17411e-07
3.11694e-07
2.90493e-07
3.38955e-07
4.05742e-07
4.41296e-07
5.38752e-07
4.77137e-07
6.22146e-07
7.31734e-07
8.18145e-07
1.81412e-06
1.84174e-06
4.24496e-06
6.26633e-06
9.78277e-06
1.48192e-05
1.39964e-05
9.5645e-06
5.8924e-06
6.33306e-06
5.82626e-06
6.68091e-06
8.54906e-06
8.82454e-06
1.26748e-05
1.34848e-05
1.26068e-05
1.15079e-06
1.34552e-06
7.86571e-07
9.5633e-08
1.60297e-07
1.20088e-07
1.62833e-07
2.42174e-07
3.86654e-07
7.52762e-07
8.27639e-07
1.31073e-06
1.62062e-06
1.54363e-06
3.06396e-06
3.87621e-06
6.2207e-06
1.02068e-05
1.47915e-05
1.92578e-05
2.08203e-05
1.60709e-05
1.17196e-05
8.41371e-06
7.34539e-06
9.24074e-06
1.84649e-05
3.14366e-05
3.53569e-05
4.2275e-05
2.36701e-08
2.85175e-08
3.15891e-08
2.50073e-08
2.33483e-08
2.11799e-08
2.21153e-08
2.30157e-08
2.48018e-08
2.971e-08
3.88646e-08
4.12388e-08
3.46092e-08
5.93326e-08
5.70464e-08
6.27392e-08
1.05712e-07
1.37951e-07
1.83516e-07
5.00687e-07
1.5524e-06
3.74025e-06
8.84512e-06
1.5565e-05
2.63139e-05
3.09588e-05
3.02944e-05
1.38113e-05
8.16692e-06
6.95792e-06
6.2669e-08
2.67765e-08
5.51971e-08
2.30629e-08
3.73355e-08
1.98081e-08
5.00567e-08
2.48417e-08
5.52368e-08
3.73601e-08
6.94378e-08
5.82121e-08
1.02523e-07
9.30911e-08
1.42619e-07
1.50241e-07
2.17623e-07
2.31252e-07
2.93641e-07
4.75473e-07
4.104e-07
2.92136e-06
1.49053e-06
1.30321e-05
1.0682e-05
2.75659e-05
1.99661e-05
4.32334e-05
4.32164e-05
1.3067e-05
2.14288e-27
1.11648e-26
3.11614e-28
3.31001e-31
2.45289e-35
1.60472e-39
8.99317e-44
4.20858e-48
1.65784e-52
5.73374e-57
1.84106e-61
5.87125e-66
1.9824e-70
7.29454e-75
2.87067e-79
1.16319e-83
4.71146e-88
1.8803e-92
7.36141e-97
2.83434e-101
1.08113e-105
4.13301e-110
1.60502e-114
6.4078e-119
2.64215e-123
1.11999e-127
4.82573e-132
2.08665e-136
8.91082e-141
3.56857e-145
0.000202389
0.000354005
0.000504571
0.000633427
0.000542019
0.00039404
0.000255623
9.61976e-05
1.89052e-05
3.51585e-06
7.64356e-07
1.85002e-06
1.08383e-05
1.33361e-05
1.45934e-07
2.0312e-07
5.67492e-07
1.46208e-06
2.64297e-06
3.48516e-06
3.94539e-06
4.23001e-06
3.76761e-06
3.56431e-06
3.3463e-06
3.25069e-06
3.3414e-06
3.91898e-06
5.49749e-06
7.74061e-06
1.01161e-05
1.05406e-05
1.14988e-05
1.35251e-05
1.32929e-05
1.00856e-05
6.01016e-06
2.30499e-06
7.36938e-07
3.54257e-07
1.98587e-07
1.39787e-06
1.39819e-05
2.83467e-05
7.32168e-06
1.75753e-05
1.42078e-05
1.01241e-05
1.02254e-05
1.19526e-05
1.59225e-05
2.16676e-05
3.76064e-05
6.76439e-05
0.000102574
0.000162982
0.000167474
0.000180539
0.000171189
0.000164412
0.000156906
0.000151982
0.000155979
0.000135316
0.00012557
7.95111e-05
5.11736e-05
2.93316e-05
1.51684e-05
3.77009e-06
7.5781e-07
4.6731e-07
9.83793e-07
5.81155e-06
3.67974e-05
4.02155e-05
4.16136e-05
4.72131e-05
4.86525e-05
3.71046e-05
1.56556e-05
6.06032e-06
2.97856e-06
2.11902e-06
1.67724e-06
1.66837e-06
1.7472e-06
2.01447e-06
2.49834e-06
2.73533e-06
3.7253e-06
5.14617e-06
7.55787e-06
1.11434e-05
1.55711e-05
1.91991e-05
2.14918e-05
2.3374e-05
2.99902e-05
4.00004e-05
5.51965e-05
4.46098e-05
6.05848e-06
4.38208e-06
2.53913e-05
4.03146e-05
4.81336e-05
5.78218e-05
5.9757e-05
6.03071e-05
5.87645e-05
5.21491e-05
3.80759e-05
2.50931e-05
1.72596e-05
1.43353e-05
1.32312e-05
1.44265e-05
1.26294e-05
1.13732e-05
9.87885e-06
7.81296e-06
5.71499e-06
4.96113e-06
6.04499e-06
1.01689e-05
1.42997e-05
1.23176e-05
3.20831e-06
4.54084e-07
4.27696e-07
2.17573e-06
9.3055e-06
1.33445e-05
1.63145e-06
1.56798e-06
3.17841e-06
8.51026e-06
2.09186e-05
3.40367e-05
3.62268e-05
2.33685e-05
1.38257e-05
7.09527e-06
4.82796e-06
5.15449e-06
3.98982e-05
8.8766e-05
0.000103915
9.87005e-05
7.12909e-05
6.48925e-05
6.08492e-05
7.4807e-05
0.000106263
0.000136676
0.000120684
6.20681e-05
2.81055e-06
2.76956e-07
9.88078e-08
2.90438e-07
1.37071e-06
2.14586e-06
4.54023e-06
1.66137e-05
5.63293e-05
5.35594e-05
3.846e-05
2.76119e-05
2.56963e-05
2.2543e-05
2.77333e-05
4.14955e-05
5.68823e-05
2.15324e-06
1.76549e-07
1.51819e-07
1.53896e-07
2.3274e-07
2.0741e-07
1.32912e-07
5.57176e-08
5.07916e-08
2.73437e-08
4.53971e-08
4.87958e-08
7.30889e-08
9.56863e-08
1.26246e-07
2.11167e-07
4.43646e-07
4.58387e-07
4.91782e-07
2.98678e-07
5.37032e-07
3.81996e-06
2.1931e-05
4.98835e-05
5.38784e-05
5.63777e-05
5.73194e-05
5.50339e-05
3.57458e-05
1.01209e-05
5.68023e-06
1.55251e-06
2.67225e-07
8.33245e-08
5.08373e-08
5.90997e-08
8.67087e-08
8.9557e-08
7.05808e-08
6.30085e-08
4.62854e-08
2.92714e-08
2.25443e-08
2.49017e-08
6.24996e-08
1.20733e-07
2.92586e-07
4.95966e-07
5.86004e-07
4.74092e-07
4.3825e-07
3.49312e-07
3.5353e-07
3.56315e-07
3.07723e-07
3.35707e-07
2.8115e-07
2.948e-07
2.24383e-07
2.8988e-07
2.98404e-07
3.58261e-07
5.96319e-07
5.91101e-07
6.37287e-07
8.72068e-07
1.62954e-06
1.14688e-06
8.84552e-07
5.06368e-07
2.71291e-07
2.9688e-07
1.41894e-07
3.63884e-07
4.40721e-07
8.75724e-07
3.0068e-06
6.42168e-06
3.86491e-06
5.63706e-07
4.78763e-07
2.06573e-07
2.51816e-08
1.78953e-08
9.79078e-09
1.34728e-08
9.33311e-09
9.74715e-09
7.84263e-09
4.58646e-09
7.04813e-09
3.10963e-09
1.42475e-08
1.10849e-08
1.81693e-08
3.47352e-08
1.1907e-07
3.23464e-07
8.0276e-07
8.48167e-07
5.73856e-07
4.15618e-07
2.30094e-07
9.62464e-08
8.9702e-08
3.06522e-07
1.65026e-06
5.2976e-06
1.62404e-05
9.10047e-09
1.59106e-08
1.45534e-08
1.20855e-08
1.39481e-08
1.2897e-08
1.12828e-08
1.50427e-08
9.70523e-09
8.86258e-09
1.30296e-08
1.0957e-08
1.61676e-08
1.03542e-08
9.46451e-09
1.24598e-08
3.95221e-08
3.50525e-08
4.83295e-08
5.27264e-08
1.77637e-07
3.23233e-07
5.49282e-07
6.49824e-07
1.10343e-06
1.27591e-06
1.26738e-06
9.46356e-07
1.28924e-06
2.7142e-06
7.70072e-09
7.73047e-09
1.26104e-08
8.39075e-09
6.04869e-09
7.08609e-09
6.43795e-09
9.33239e-09
6.96194e-09
1.73233e-08
8.845e-09
2.25729e-08
9.41257e-09
2.62562e-08
7.65559e-09
3.12754e-08
1.4335e-08
2.43123e-08
3.5858e-08
4.82064e-08
6.73884e-08
6.03734e-08
1.02951e-07
3.2404e-08
6.78006e-08
1.49096e-08
1.0995e-07
4.08149e-08
1.18018e-07
7.8896e-08
1.19445e-23
9.21913e-23
2.11734e-24
7.03208e-27
4.36772e-31
2.20176e-35
9.77388e-40
4.29144e-44
1.65412e-48
5.69491e-53
1.74221e-57
5.06258e-62
1.43484e-66
4.33998e-71
1.44673e-75
5.46616e-80
2.21416e-84
9.35418e-89
3.89688e-93
1.60073e-97
6.32922e-102
2.47351e-106
9.39251e-111
3.60898e-115
1.39255e-119
5.6179e-124
2.33358e-128
1.01174e-132
4.4932e-137
2.7395e-141
0.000899998
0.00102649
0.000969011
0.000860179
0.000810377
0.000805746
0.000766308
0.000699676
0.000474668
0.000109771
6.5782e-06
7.9161e-07
1.92301e-06
4.80463e-06
1.07527e-07
4.57658e-07
1.656e-06
3.93999e-06
5.68826e-06
6.14503e-06
6.22091e-06
5.79999e-06
5.52424e-06
4.97401e-06
4.00817e-06
3.01765e-06
2.22717e-06
1.68513e-06
2.39335e-06
4.68789e-06
9.73145e-06
2.195e-05
3.68723e-05
5.14885e-05
5.00017e-05
4.31404e-05
1.99317e-05
5.51981e-06
1.11034e-06
2.82728e-07
2.43012e-07
1.8343e-06
1.39221e-05
2.66483e-05
8.15778e-06
1.39544e-05
6.95637e-06
4.78084e-06
6.27992e-06
1.10596e-05
1.53364e-05
1.74247e-05
1.98762e-05
2.61075e-05
4.3656e-05
8.04612e-05
0.000121272
0.000149716
0.000199749
0.000186876
0.000213666
0.000217354
0.000228254
0.000225404
0.000205228
0.000145761
6.47884e-05
2.73903e-05
1.07076e-05
2.61345e-06
7.01982e-07
7.20612e-07
2.36505e-06
9.09097e-06
3.61511e-05
4.08459e-05
4.49028e-05
4.75337e-05
2.97233e-05
5.88635e-06
1.54763e-06
8.95568e-07
8.97176e-07
1.02969e-06
1.41767e-06
1.49385e-06
1.95557e-06
1.88277e-06
2.07803e-06
2.41008e-06
2.14613e-06
2.73631e-06
2.86949e-06
5.04903e-06
7.09106e-06
1.05484e-05
1.24257e-05
1.43755e-05
1.69271e-05
2.69504e-05
4.67132e-05
4.20353e-05
5.52741e-06
4.30193e-06
2.26657e-05
3.93684e-05
5.13322e-05
5.97504e-05
6.05845e-05
5.79512e-05
4.1377e-05
1.96532e-05
9.64642e-06
5.73451e-06
4.34554e-06
4.21762e-06
4.82702e-06
5.3766e-06
5.5445e-06
5.20254e-06
4.47961e-06
3.31119e-06
2.36111e-06
1.60677e-06
1.82248e-06
3.64308e-06
5.81481e-06
4.47231e-06
1.14727e-06
3.92155e-07
7.41026e-07
3.26592e-06
9.09071e-06
1.27635e-05
1.13433e-06
1.74867e-06
7.22215e-06
3.07164e-05
4.88766e-05
4.21122e-05
1.36348e-05
4.00358e-06
2.54022e-06
6.88855e-06
3.66955e-05
8.76396e-05
0.000112884
9.31968e-05
6.04601e-05
3.33789e-05
1.56644e-05
1.07826e-05
1.18283e-05
1.52476e-05
2.2488e-05
6.79644e-05
0.000116275
0.000132448
8.13118e-05
5.57584e-06
3.55198e-07
1.74392e-07
5.45035e-07
5.75274e-07
4.59407e-05
5.57392e-05
4.01182e-05
2.60158e-05
1.86658e-05
1.59256e-05
1.51808e-05
1.87824e-05
2.90845e-05
5.40268e-05
5.21069e-06
3.02377e-07
4.92595e-07
1.06328e-06
2.90702e-06
4.38387e-06
3.66288e-06
1.90078e-06
1.08447e-06
3.08489e-07
1.56174e-07
4.71851e-08
4.01308e-08
6.97189e-08
9.02912e-08
2.07906e-07
2.40613e-07
4.54897e-07
3.67097e-07
2.8244e-07
2.15414e-07
2.29947e-06
3.63794e-05
5.28972e-05
5.58497e-05
5.59715e-05
5.7431e-05
5.84569e-05
5.80868e-05
5.43159e-05
2.03826e-05
6.91493e-06
1.61769e-06
3.40007e-07
1.21813e-07
1.4022e-07
3.11608e-07
4.46562e-07
4.94337e-07
3.31458e-07
2.10345e-07
1.08577e-07
4.69545e-08
2.3759e-08
3.151e-08
5.54428e-08
1.42608e-07
2.16996e-07
3.39237e-07
4.25614e-07
5.41467e-07
5.79766e-07
4.59979e-07
5.13535e-07
4.1041e-07
3.84838e-07
3.08913e-07
2.87399e-07
2.60749e-07
2.18274e-07
3.72729e-07
3.30336e-07
1.02381e-06
1.36947e-06
2.14392e-06
2.63458e-06
5.07496e-06
4.3667e-06
4.61333e-06
1.68987e-06
2.00208e-07
1.18918e-07
2.8262e-08
2.51824e-08
7.25964e-09
2.1599e-08
2.5371e-08
1.65943e-07
7.51578e-07
2.44739e-06
4.33834e-07
1.89881e-07
1.06766e-07
1.9841e-08
2.00236e-08
2.03221e-08
1.65873e-08
9.75254e-09
8.25864e-09
4.69632e-09
4.54134e-09
3.28013e-09
6.38146e-09
8.32408e-09
2.92125e-08
1.07673e-08
1.51966e-08
9.70426e-09
1.0711e-08
9.33924e-09
1.2287e-08
1.1724e-08
1.28163e-08
9.3717e-09
8.88586e-09
5.61878e-09
7.80019e-09
3.12023e-08
2.45272e-07
9.94669e-07
5.80719e-09
1.01159e-08
1.06055e-08
1.74847e-08
4.04252e-08
9.2655e-08
1.43738e-07
2.56406e-07
2.18814e-07
1.79199e-07
6.47899e-08
1.59692e-07
4.00395e-08
4.33128e-08
7.74044e-08
4.35847e-08
9.18209e-08
5.17266e-08
3.91239e-08
5.50559e-08
4.3736e-08
4.64185e-08
4.02669e-08
4.7975e-08
2.2237e-08
1.92101e-08
1.15112e-08
1.54062e-08
1.98257e-08
4.1333e-08
4.90439e-09
8.84354e-09
9.38779e-09
1.59242e-08
9.32654e-09
1.3477e-08
6.86625e-09
6.90977e-09
6.03346e-09
5.23502e-09
5.85172e-09
5.9052e-09
4.42315e-09
9.91753e-09
8.70483e-09
2.41279e-08
1.62217e-08
4.49521e-08
2.93556e-08
5.39558e-08
3.04191e-08
4.92209e-08
1.05193e-08
1.62274e-08
2.24442e-09
6.69051e-10
2.10034e-10
9.95837e-11
6.17098e-11
6.20117e-10
1.5626e-28
1.43076e-25
2.27913e-27
3.10537e-29
1.83404e-33
8.23949e-38
2.51368e-42
8.89222e-47
3.09267e-51
9.99336e-56
2.91776e-60
7.97492e-65
2.11081e-69
5.82511e-74
1.7613e-78
6.32276e-83
2.53786e-87
1.07571e-91
4.50949e-96
1.90051e-100
7.62443e-105
2.93259e-109
1.08004e-113
3.89492e-118
1.37562e-122
4.98492e-127
1.85048e-131
7.29613e-136
1.93047e-140
9.75029e-147
0.000877995
0.000738948
0.000639761
0.000568654
0.000576001
0.000581415
0.00062395
0.000684382
0.000699655
0.000570478
0.000142235
5.72673e-06
5.95196e-07
2.78062e-06
3.54384e-07
1.96347e-06
5.59609e-06
8.39292e-06
8.43459e-06
7.5772e-06
6.20679e-06
7.72145e-06
5.57985e-06
5.59971e-06
5.55606e-06
4.87219e-06
3.27731e-06
2.03701e-06
1.30456e-06
1.84275e-06
4.81688e-06
1.67345e-05
4.72181e-05
8.98024e-05
0.000121164
0.000120681
4.70633e-05
1.22767e-05
1.34447e-06
2.90487e-07
1.5719e-07
1.36128e-06
1.36563e-05
1.91896e-05
8.62612e-06
9.02366e-06
3.36025e-06
2.85211e-06
5.25532e-06
1.64878e-05
3.88963e-05
4.32833e-05
3.11102e-05
2.53751e-05
3.10512e-05
3.86371e-05
7.21787e-05
0.000105393
0.000167132
0.000182635
0.000211938
0.000239311
0.000242783
0.000249505
0.000231065
0.000174479
7.00127e-05
2.26188e-05
7.16858e-06
1.97952e-06
6.87711e-07
9.50303e-07
3.90667e-06
1.11688e-05
3.66022e-05
4.2823e-05
4.63742e-05
3.11284e-05
3.55643e-06
9.0763e-07
7.82199e-07
1.32349e-06
2.8161e-06
4.29896e-06
5.25387e-06
4.99709e-06
4.73801e-06
4.18947e-06
3.32817e-06
3.09995e-06
2.94356e-06
2.91418e-06
2.89954e-06
3.43042e-06
4.71647e-06
6.50234e-06
8.34894e-06
9.41239e-06
1.07109e-05
1.86999e-05
3.97593e-05
3.29726e-05
3.40486e-06
4.2656e-06
1.88536e-05
3.61446e-05
5.47099e-05
6.03557e-05
5.89783e-05
3.79651e-05
1.67018e-05
6.09731e-06
2.74422e-06
1.29681e-06
7.75602e-07
7.15978e-07
1.05631e-06
1.64221e-06
2.60835e-06
2.91811e-06
2.83078e-06
2.32299e-06
1.47162e-06
8.33715e-07
8.0464e-07
1.40182e-06
1.6234e-06
9.86569e-07
5.10712e-07
6.50118e-07
1.69626e-06
4.17717e-06
6.5877e-06
9.15545e-06
1.06669e-06
2.65875e-06
2.14872e-05
5.93473e-05
5.50376e-05
1.69904e-05
2.68053e-06
1.40576e-06
6.90705e-06
5.83713e-05
0.000109055
0.000114082
9.36179e-05
8.44369e-05
6.76449e-05
4.04304e-05
2.39141e-05
2.81516e-05
3.0468e-05
3.54892e-05
3.95315e-05
5.28278e-05
8.28381e-05
0.000102873
0.000115413
8.94141e-05
5.4654e-06
2.73087e-07
1.85484e-07
1.38651e-07
5.15859e-05
3.53595e-05
2.55902e-05
1.97452e-05
1.67529e-05
1.40334e-05
1.44845e-05
1.98186e-05
4.21169e-05
2.32797e-05
7.29001e-07
9.81056e-07
6.012e-06
1.81022e-05
3.18042e-05
4.40206e-05
5.40954e-05
5.63482e-05
4.19752e-05
2.29692e-05
4.92368e-06
7.11012e-07
1.24851e-07
4.8816e-08
5.03147e-08
6.39607e-08
2.37971e-07
5.73032e-07
6.53311e-07
2.65866e-07
5.82109e-07
1.61891e-05
5.4813e-05
5.81259e-05
4.43953e-05
1.99748e-05
1.76373e-05
3.5036e-05
4.02013e-05
3.8382e-05
1.75499e-05
5.91514e-06
1.48317e-06
3.42603e-07
3.35462e-07
8.66143e-07
3.24765e-06
6.63127e-06
5.31263e-06
3.64973e-06
1.9685e-06
7.21749e-07
2.29201e-07
8.25825e-08
3.08176e-08
3.21571e-08
5.16739e-08
1.01525e-07
1.69675e-07
3.1489e-07
6.28548e-07
1.23992e-06
1.71104e-06
1.55776e-06
1.01251e-06
6.24947e-07
5.06764e-07
3.8955e-07
5.57915e-07
6.95599e-07
2.07228e-06
1.38683e-05
4.52416e-05
5.44064e-05
4.49861e-05
4.02376e-05
3.39893e-05
3.78351e-05
4.58088e-05
3.9483e-05
4.87273e-05
2.60537e-06
2.9322e-07
1.67453e-08
1.0148e-08
3.458e-09
5.61517e-09
7.20324e-09
9.28636e-08
2.33753e-07
1.08869e-07
1.33326e-07
1.52238e-07
1.61785e-07
6.19682e-07
4.98424e-07
2.40132e-07
1.26834e-07
1.25677e-07
2.30724e-07
6.01237e-07
4.37663e-06
2.27101e-05
5.1721e-05
5.62028e-05
5.5643e-05
4.99825e-05
1.45497e-05
1.05625e-06
7.76139e-08
1.72332e-08
1.22814e-08
8.01964e-09
4.54821e-09
3.14217e-09
2.23886e-09
1.9854e-09
3.18216e-09
1.53539e-08
5.60755e-08
8.08641e-09
2.75386e-08
6.89556e-08
3.65695e-07
2.32316e-06
1.23669e-05
3.52093e-05
5.94317e-05
6.13155e-05
6.29556e-05
6.20201e-05
5.73152e-05
5.74745e-05
1.54304e-05
1.46955e-05
1.61887e-06
1.12695e-06
6.57869e-07
1.42564e-07
8.33438e-08
7.82388e-08
3.63028e-08
1.90232e-08
7.62417e-09
3.84974e-09
1.6929e-09
2.95463e-09
2.65958e-09
2.918e-09
4.10681e-09
6.99527e-09
3.42371e-08
1.11085e-07
1.55715e-07
1.60097e-07
8.42416e-08
2.11956e-07
5.03411e-08
7.77707e-08
4.45393e-08
7.71333e-08
4.67295e-08
8.83339e-08
5.7028e-08
1.28737e-07
9.90765e-08
1.92164e-07
1.73972e-07
3.38334e-07
3.15898e-07
7.09502e-07
3.52943e-07
2.3573e-07
5.26981e-08
1.74753e-08
6.02147e-09
2.10402e-09
1.8448e-09
3.66984e-09
1.62262e-08
6.46747e-23
9.6403e-21
3.05441e-23
6.81166e-25
3.67909e-29
1.56297e-33
3.64192e-38
1.06753e-42
3.36562e-47
1.05042e-51
2.97814e-56
7.89644e-61
1.95034e-65
4.87504e-70
1.31083e-74
4.32458e-79
1.72538e-83
7.85163e-88
3.61929e-92
1.65847e-96
7.168e-101
2.99367e-105
1.17644e-109
4.52735e-114
1.6807e-118
6.35038e-123
2.4253e-127
9.81614e-132
3.63121e-136
1.34153e-141
0.000490351
0.000466419
0.000482428
0.000507954
0.000506102
0.000542535
0.00059038
0.000646104
0.000679289
0.000664374
0.000526144
0.000147846
7.19245e-06
1.01571e-06
2.56862e-06
5.99272e-06
1.04882e-05
9.60182e-06
6.59072e-06
6.91478e-06
5.18153e-06
4.39944e-06
5.05623e-06
3.84471e-06
5.39047e-06
4.76384e-06
4.1416e-06
2.58591e-06
1.40031e-06
1.00082e-06
2.51412e-06
8.28243e-06
3.53419e-05
0.000105005
0.000179619
0.000198127
0.000109558
1.70368e-05
1.49033e-06
1.24544e-07
4.27884e-08
2.89744e-07
5.26451e-06
1.46713e-05
9.19833e-06
6.47187e-06
2.45798e-06
2.58354e-06
5.54497e-06
2.75595e-05
7.92575e-05
0.000102136
8.32251e-05
5.49162e-05
5.27636e-05
6.00005e-05
0.000100517
0.000140106
0.000175673
0.000195798
0.000221533
0.000226238
0.000227657
0.000234491
0.000201425
0.000131591
4.24433e-05
1.50359e-05
5.90303e-06
1.65098e-06
5.65987e-07
7.1569e-07
3.33266e-06
1.1801e-05
3.66649e-05
4.52089e-05
3.71223e-05
3.85427e-06
8.23457e-07
1.07044e-06
4.32469e-06
1.29269e-05
2.12088e-05
2.13488e-05
1.93323e-05
1.28077e-05
1.05253e-05
6.86954e-06
5.78929e-06
4.31896e-06
3.37801e-06
3.22021e-06
3.28449e-06
3.59833e-06
4.31957e-06
5.46605e-06
6.58151e-06
7.43092e-06
9.05922e-06
1.71889e-05
3.12294e-05
1.35077e-05
2.1792e-06
5.02288e-06
1.60605e-05
3.47515e-05
5.76173e-05
5.99788e-05
4.88375e-05
1.96522e-05
8.12176e-06
2.47152e-06
9.09384e-07
3.65136e-07
2.73426e-07
2.10807e-07
2.76807e-07
5.57951e-07
1.22984e-06
1.95168e-06
2.32329e-06
1.96656e-06
1.11661e-06
5.52083e-07
4.45426e-07
5.31289e-07
4.99172e-07
3.88529e-07
5.10296e-07
1.02587e-06
2.05843e-06
2.88683e-06
3.25806e-06
5.86139e-06
1.1285e-06
5.90197e-06
5.51653e-05
6.2893e-05
3.59825e-05
3.29796e-06
1.10105e-06
3.9304e-06
5.86006e-05
9.97349e-05
0.000120926
0.000110432
0.000116163
0.000109705
8.86869e-05
5.7318e-05
4.61132e-05
4.82351e-05
6.00633e-05
6.25304e-05
6.44358e-05
6.74586e-05
9.37462e-05
0.000123304
0.000126752
0.000106649
4.05112e-05
5.58022e-07
6.02758e-08
5.25956e-08
3.92208e-05
2.8383e-05
2.58764e-05
2.25968e-05
1.67327e-05
1.41157e-05
1.48515e-05
2.71781e-05
5.26894e-05
3.33446e-06
1.66717e-06
8.80691e-06
2.61119e-05
3.81039e-05
4.69606e-05
5.29609e-05
5.72371e-05
5.95094e-05
5.75541e-05
6.2721e-05
6.47299e-05
4.23678e-05
5.69024e-06
3.21216e-07
6.92939e-08
5.45229e-08
5.85234e-08
1.07853e-07
8.62794e-08
1.85429e-08
3.88012e-06
4.21639e-05
5.70466e-05
4.56608e-05
1.02748e-05
4.63541e-06
7.24203e-06
6.18616e-06
9.90931e-06
1.00389e-05
8.02659e-06
3.45592e-06
8.74058e-07
4.30413e-07
1.61457e-06
1.14449e-05
4.46916e-05
5.7148e-05
5.99545e-05
5.49507e-05
4.41426e-05
2.58852e-05
1.25147e-05
5.90111e-06
3.74061e-06
1.30949e-06
3.03607e-07
6.37477e-08
6.77207e-08
7.17887e-08
8.43791e-07
1.02416e-05
2.32355e-05
2.84614e-05
9.63965e-06
4.8087e-06
1.40639e-06
1.73149e-06
5.37827e-06
3.75578e-05
5.60433e-05
4.84259e-05
3.39703e-05
2.80562e-05
2.06794e-05
1.69535e-05
1.50849e-05
1.29624e-05
1.22665e-05
1.28151e-05
1.96618e-05
3.43888e-05
6.00284e-05
3.44398e-06
6.69808e-08
1.0736e-08
2.79294e-09
2.62226e-09
9.40046e-09
5.6587e-08
6.15412e-08
1.4606e-07
4.0385e-07
1.46412e-05
4.4306e-05
3.13134e-05
1.66288e-05
1.31686e-05
4.3355e-05
6.22183e-05
4.66785e-05
3.74181e-05
3.53029e-05
3.71051e-05
3.02108e-05
3.56905e-05
3.99227e-05
4.56746e-05
5.61363e-05
5.08144e-05
6.62317e-06
1.19869e-06
2.481e-07
7.45195e-08
2.32711e-08
4.98992e-09
3.47701e-09
1.66373e-09
3.68903e-09
9.07325e-09
1.794e-08
1.64163e-07
2.74931e-06
2.90364e-05
6.20625e-05
5.44839e-05
4.72978e-05
3.87645e-05
3.37726e-05
3.3865e-05
3.12971e-05
2.94424e-05
3.16988e-05
3.21056e-05
5.0103e-05
0.000133033
0.000140879
1.80503e-05
5.10515e-06
1.45685e-06
4.14154e-07
1.92657e-07
4.69528e-08
2.23444e-08
6.00686e-09
5.81475e-09
3.15596e-09
1.98337e-09
1.52616e-09
4.47603e-09
2.48387e-08
4.50825e-07
2.90117e-06
2.57202e-05
2.63106e-05
2.3677e-05
8.69304e-06
6.55383e-06
1.77527e-06
1.86482e-06
1.3415e-06
1.56625e-06
1.19402e-06
1.86375e-06
1.96155e-06
3.29048e-06
4.84695e-06
7.76718e-06
1.0125e-05
1.09159e-05
4.84372e-06
3.58314e-06
2.35375e-06
1.52727e-06
7.87568e-07
3.89241e-07
1.9144e-07
1.54329e-07
1.45667e-07
1.83262e-07
1.18132e-13
4.63407e-13
4.59253e-16
1.3588e-17
4.19801e-22
1.84378e-26
3.59289e-31
8.72509e-36
2.54608e-40
7.69605e-45
2.2563e-49
5.98973e-54
1.51242e-58
3.64296e-63
9.41245e-68
2.82803e-72
1.0896e-76
4.86063e-81
2.3342e-85
1.08751e-89
4.95191e-94
2.10257e-98
8.64867e-103
3.33903e-107
1.27434e-111
4.7167e-116
1.80471e-120
7.03494e-125
2.76816e-129
4.09221e-134
0.000394835
0.00047362
0.000491212
0.000509528
0.000548098
0.000577604
0.000603193
0.000580424
0.000517086
0.000408084
0.000330428
0.000210923
3.74604e-05
7.40988e-07
4.788e-06
1.03132e-05
1.13332e-05
7.42943e-06
7.55604e-06
7.54932e-06
7.4291e-06
5.58502e-06
4.81564e-06
4.47532e-06
4.41187e-06
4.86643e-06
4.68738e-06
2.51802e-06
1.38779e-06
8.01747e-07
1.39533e-06
3.94209e-06
2.22259e-05
0.000102399
0.000234279
0.000265134
0.000120763
1.07748e-05
4.00269e-07
2.28103e-08
4.86097e-09
1.76468e-08
9.70701e-07
8.3284e-06
7.70733e-06
5.32492e-06
2.71019e-06
2.67919e-06
7.48503e-06
4.59094e-05
0.000133321
0.00015309
0.000149665
0.0001282
0.000139103
0.000149308
0.000175327
0.000181158
0.000192699
0.000199116
0.00019492
0.000193802
0.000182477
0.000146567
9.28065e-05
3.53112e-05
1.63131e-05
9.15786e-06
4.40179e-06
1.27142e-06
3.30636e-07
3.24829e-07
1.63077e-06
1.02095e-05
3.82134e-05
4.26173e-05
7.32036e-06
1.0451e-06
1.39795e-06
1.12536e-05
4.31212e-05
5.71715e-05
5.65698e-05
4.63179e-05
3.94472e-05
2.42315e-05
1.92637e-05
1.19942e-05
1.02941e-05
7.47799e-06
5.7252e-06
4.7661e-06
4.24096e-06
4.49263e-06
4.96985e-06
5.28445e-06
5.53636e-06
5.36254e-06
7.13617e-06
1.36708e-05
1.3898e-05
3.54626e-06
1.69043e-06
6.29707e-06
1.24745e-05
3.58021e-05
5.82658e-05
5.7747e-05
3.45817e-05
1.4669e-05
5.23135e-06
1.36172e-06
4.9819e-07
2.61062e-07
2.31403e-07
2.01353e-07
2.53095e-07
4.63905e-07
1.02895e-06
1.84418e-06
2.35904e-06
1.59954e-06
7.16821e-07
3.34153e-07
2.56408e-07
2.38804e-07
2.33539e-07
2.92746e-07
5.12278e-07
9.62531e-07
1.57915e-06
2.16828e-06
2.48904e-06
4.18365e-06
1.46134e-06
1.6638e-05
6.41805e-05
6.09081e-05
9.02532e-06
1.06227e-06
1.67494e-06
3.96376e-05
8.97199e-05
0.000110046
0.000116695
0.00012418
0.000119941
0.000103626
7.43164e-05
5.84608e-05
6.00672e-05
6.89484e-05
9.15903e-05
9.33923e-05
9.35173e-05
0.000104278
0.000128544
0.000125456
0.000114828
8.82019e-05
1.38572e-05
6.30882e-07
5.41263e-08
2.5898e-08
3.28314e-05
3.01633e-05
2.95061e-05
2.08059e-05
1.5786e-05
1.44723e-05
1.99386e-05
4.79907e-05
1.80539e-05
3.31509e-06
8.60527e-06
2.34264e-05
3.27523e-05
4.52965e-05
4.90586e-05
5.28132e-05
5.55269e-05
5.2621e-05
4.94327e-05
4.86396e-05
5.11395e-05
5.74035e-05
6.48277e-05
1.61804e-05
7.0895e-07
6.77257e-08
4.69818e-08
4.82633e-08
4.90855e-08
1.46572e-08
4.1269e-05
5.97331e-05
4.60432e-05
3.16302e-06
5.83482e-07
5.56484e-07
5.52283e-07
1.16834e-06
1.49791e-06
3.13066e-06
2.99492e-06
1.24706e-06
6.15916e-07
1.2366e-06
1.46903e-05
6.1274e-05
6.13446e-05
5.70874e-05
5.53733e-05
5.29976e-05
5.21552e-05
5.08606e-05
4.85122e-05
5.03935e-05
4.93515e-05
5.30601e-05
5.60975e-05
3.19253e-05
9.35061e-07
8.38496e-08
1.66039e-06
4.89973e-05
5.62374e-05
5.51384e-05
5.59529e-05
5.35312e-05
4.23514e-05
5.11859e-05
5.48061e-05
4.27459e-05
3.57112e-05
2.73719e-05
2.62487e-05
2.45298e-05
2.44691e-05
2.17522e-05
2.4827e-05
2.14818e-05
1.67788e-05
1.39614e-05
1.20552e-05
1.28637e-05
1.91361e-05
4.2967e-05
3.99023e-05
2.61176e-07
1.15124e-08
2.60889e-09
2.13109e-09
4.0959e-08
3.38215e-08
1.88624e-07
7.26368e-06
5.58598e-05
5.73377e-05
5.12898e-05
5.76518e-05
5.17039e-05
3.83477e-05
2.92556e-05
2.72313e-05
3.15577e-05
4.01672e-05
5.38735e-05
5.04963e-05
6.39188e-05
5.69181e-05
4.80733e-05
4.41457e-05
4.72315e-05
5.55577e-05
6.2866e-05
3.61894e-05
4.68379e-06
8.52881e-07
5.66269e-08
1.74847e-08
3.04851e-09
1.84629e-09
3.72143e-09
4.27949e-08
2.51005e-06
5.81281e-05
5.43548e-05
4.46654e-05
4.04329e-05
4.17538e-05
4.19215e-05
4.36064e-05
4.5848e-05
4.09653e-05
4.72656e-05
4.49706e-05
5.32527e-05
3.45181e-05
7.51903e-05
0.000139816
0.00024517
0.000147423
3.30017e-05
1.00845e-05
2.67153e-06
7.828e-07
2.75071e-07
1.21965e-07
2.78899e-08
9.26028e-09
5.18012e-09
3.0841e-09
5.69269e-09
1.51039e-07
1.94004e-05
7.75154e-05
0.000112325
0.000136055
0.000140498
0.000126917
0.00010875
0.00010602
7.09123e-05
6.28217e-05
5.19714e-05
5.44734e-05
5.67305e-05
6.75162e-05
7.12017e-05
7.6105e-05
5.7914e-05
4.29985e-05
3.75072e-05
3.42252e-05
2.37382e-05
1.92697e-05
1.27612e-05
8.53342e-06
5.81966e-06
3.14521e-06
2.23471e-06
1.4124e-06
1.29123e-06
1.84365e-08
1.88989e-08
8.8521e-09
4.87014e-10
4.46683e-15
1.6254e-19
2.56314e-24
5.28605e-29
1.30313e-33
3.79195e-38
1.12406e-42
3.10789e-47
7.99162e-52
1.94518e-56
4.8152e-61
1.34558e-65
4.75174e-70
2.06285e-74
9.91483e-79
4.78761e-83
2.24111e-87
9.93079e-92
4.18357e-96
1.66847e-100
6.41336e-105
2.39392e-109
8.95737e-114
3.41774e-118
1.30364e-122
2.13186e-127
0.000441888
0.000413279
0.000262497
0.000337656
0.000432471
0.000410232
0.000365058
0.000227262
0.000106786
4.05484e-05
2.42325e-05
3.34427e-05
2.07928e-05
6.98522e-07
6.27246e-06
1.2918e-05
1.0149e-05
7.8986e-06
1.6987e-05
3.06115e-05
2.70143e-05
1.58889e-05
7.22826e-06
4.42398e-06
3.70179e-06
3.19433e-06
3.06416e-06
1.56403e-06
9.75872e-07
6.21116e-07
7.89179e-07
2.39243e-06
1.57115e-05
0.00012464
0.000291347
0.000271456
7.10461e-05
1.24579e-06
3.32376e-08
3.0442e-09
2.26068e-09
3.94893e-09
1.34411e-07
3.74755e-06
8.12222e-06
4.29973e-06
2.40082e-06
3.0367e-06
7.71753e-06
5.58732e-05
0.000142487
0.000176493
0.000178826
0.000189446
0.000174593
0.000169086
0.000146265
0.000139398
0.000110241
0.000109266
0.000101423
8.00103e-05
5.4233e-05
2.63801e-05
1.49263e-05
7.24965e-06
4.64409e-06
2.61767e-06
1.12942e-06
3.90414e-07
1.65612e-07
1.61477e-07
6.48128e-07
7.08416e-06
3.89709e-05
1.60374e-05
1.53163e-06
1.48248e-06
1.69583e-05
5.97015e-05
6.39319e-05
6.39213e-05
6.11113e-05
5.27568e-05
4.28705e-05
2.84029e-05
2.13608e-05
1.49545e-05
1.17617e-05
1.01329e-05
8.66468e-06
7.68517e-06
4.76987e-06
3.21434e-06
3.2864e-06
3.14121e-06
3.10692e-06
3.04141e-06
4.48046e-06
6.03409e-06
3.41429e-06
1.30258e-06
2.25649e-06
9.57571e-06
1.19923e-05
4.17982e-05
5.80432e-05
5.27408e-05
3.33586e-05
1.66574e-05
3.61862e-06
7.63388e-07
3.22473e-07
2.94692e-07
3.61042e-07
3.83369e-07
5.27025e-07
8.15749e-07
1.54297e-06
2.22496e-06
1.72267e-06
8.50625e-07
3.4192e-07
1.69112e-07
1.41843e-07
1.47247e-07
2.38712e-07
5.31529e-07
1.53727e-06
3.79713e-06
6.5757e-06
6.40194e-06
4.77318e-06
3.93443e-06
2.76549e-06
5.19224e-05
6.59708e-05
4.45404e-05
2.55513e-06
8.38828e-07
7.7577e-06
6.132e-05
0.000100965
0.000111737
0.00011414
0.000121004
0.000117131
8.2755e-05
6.09157e-05
6.29314e-05
7.57783e-05
0.000108941
0.000117165
0.000116416
0.000134263
0.000128414
0.000132991
9.53045e-05
6.07336e-05
4.07676e-05
1.89602e-05
5.71038e-06
1.02144e-06
7.10936e-08
3.39484e-05
3.27415e-05
2.41518e-05
1.79467e-05
1.61887e-05
2.04602e-05
4.09204e-05
5.17897e-05
8.81018e-06
7.19835e-06
1.95744e-05
2.89615e-05
4.06053e-05
4.7556e-05
4.9264e-05
5.56261e-05
5.57539e-05
5.38043e-05
4.91609e-05
4.68059e-05
4.63448e-05
4.71155e-05
5.39877e-05
6.68407e-05
2.25326e-05
7.40489e-07
6.51469e-08
2.21033e-08
1.44469e-08
6.36448e-09
4.25542e-05
5.72923e-05
2.0311e-05
1.26683e-06
6.15493e-07
5.03719e-07
6.20844e-07