/*--------------------------------*- C++ -*----------------------------------*\
| =========                 |                                                 |
| \\      /  F ield         | OpenFOAM: The Open Source CFD Toolbox           |
|  \\    /   O peration     | Version:  2.1.1                                 |
|   \\  /    A nd           | Web:      www.OpenFOAM.org                      |
|    \\/     M anipulation  |                                                 |
\*---------------------------------------------------------------------------*/
FoamFile
{
    version     2.0;
    format      ascii;
    class       volScalarField;
    location    "0.003350000";
    object      HO2;
}
// * * * * * * * * * * * * * * * * * * * * * * * * * * * * * * * * * * * * * //

dimensions      [0 0 0 0 0 0 0];

internalField   nonuniform List<scalar> 
12384
(
2.83499e-05
2.85459e-05
2.83448e-05
2.71705e-05
2.52778e-05
2.16317e-05
1.68747e-05
1.30194e-05
8.54441e-06
6.17184e-06
5.51506e-06
5.38454e-06
4.08214e-06
4.29494e-06
3.51663e-06
3.41242e-06
3.52769e-06
3.8754e-06
4.27505e-06
4.69313e-06
4.88003e-06
5.05217e-06
5.12063e-06
5.21724e-06
5.21841e-06
5.26098e-06
5.2971e-06
5.40005e-06
5.32919e-06
5.45484e-06
5.31202e-06
5.58154e-06
6.08733e-06
6.92166e-06
8.16092e-06
7.67751e-06
8.48313e-06
5.72133e-06
5.64799e-06
4.06651e-06
3.87543e-06
5.39081e-06
5.21395e-06
2.41503e-06
5.71557e-06
7.41696e-06
8.41083e-06
9.18787e-06
9.74202e-06
9.91281e-06
1.02954e-05
1.01225e-05
9.58468e-06
8.2532e-06
6.86443e-06
5.30834e-06
3.03588e-06
3.07238e-06
1.44891e-06
1.70282e-06
1.45646e-06
1.36002e-06
1.71416e-06
1.62838e-06
1.97574e-06
2.02896e-06
2.06797e-06
2.16575e-06
4.0552e-06
5.78055e-06
4.91399e-06
3.95233e-06
4.38178e-06
5.81078e-06
1.4954e-06
1.3153e-06
1.34141e-06
1.20054e-06
9.67887e-07
8.46345e-07
9.32612e-07
1.19571e-06
1.80555e-06
2.70965e-06
3.55595e-06
3.72533e-06
4.12439e-06
3.69873e-06
4.02176e-06
3.98807e-06
2.72302e-06
3.57986e-06
1.5366e-06
3.20468e-06
2.11257e-06
2.6349e-06
1.48175e-06
1.88967e-06
1.08158e-06
6.10524e-07
2.05445e-07
1.94479e-06
5.74633e-06
5.77354e-06
2.77751e-06
1.20187e-06
9.49954e-07
6.401e-07
3.72991e-07
1.95841e-07
1.71566e-07
1.67917e-07
1.81104e-07
2.04927e-07
4.91199e-07
6.94762e-07
8.96359e-07
1.07704e-06
1.43096e-06
2.20947e-06
3.11466e-06
3.84882e-06
4.31152e-06
4.43087e-06
4.11195e-06
3.59686e-06
3.13986e-06
3.86308e-06
5.61049e-06
4.14779e-06
3.93281e-06
5.35112e-06
5.11252e-06
4.80784e-06
4.81744e-06
4.78954e-06
5.32834e-06
5.5695e-06
5.34196e-06
4.60418e-06
3.23869e-06
2.32751e-06
1.48305e-06
1.39272e-06
2.03797e-06
4.62308e-06
5.59391e-06
5.64758e-06
5.84704e-06
8.85406e-06
9.5044e-06
8.30841e-06
9.48315e-06
9.67313e-06
1.04793e-05
9.95656e-06
7.14397e-06
4.62048e-06
3.42135e-06
3.56392e-06
4.11518e-06
5.27332e-06
7.20474e-06
7.51924e-06
5.62761e-06
5.96613e-06
5.78841e-06
1.44513e-06
7.79655e-08
1.3269e-08
2.57625e-09
1.24397e-09
6.16073e-10
7.11336e-10
5.24233e-09
1.41536e-06
5.34207e-06
3.04656e-06
2.61501e-06
2.54738e-06
2.48843e-06
2.07158e-06
1.95998e-06
1.53987e-06
1.48896e-06
1.58586e-06
1.79878e-06
1.9075e-06
1.86774e-06
1.90776e-06
2.15784e-06
2.4876e-06
2.51884e-06
4.45224e-07
4.77877e-06
4.87442e-06
5.15129e-06
5.95509e-06
6.39493e-06
6.14738e-06
5.74145e-06
5.71048e-06
5.80755e-06
6.1136e-06
6.22465e-06
6.21875e-06
5.79329e-06
3.70585e-06
2.38854e-06
2.15546e-06
1.98897e-06
1.9544e-06
2.05404e-06
2.03624e-06
1.99786e-06
1.96297e-06
1.97601e-06
2.03284e-06
2.12502e-06
2.26729e-06
2.98591e-06
4.03055e-06
5.05743e-06
6.09577e-06
6.00402e-06
5.61466e-06
4.94143e-06
5.24184e-06
5.3361e-06
5.86825e-06
6.11844e-06
6.21222e-06
6.28671e-06
5.74536e-06
6.31826e-06
6.44809e-06
6.20696e-06
8.35964e-06
8.28315e-06
1.16062e-05
1.30124e-05
1.57183e-05
1.7587e-05
1.70134e-05
1.55181e-05
1.27313e-05
1.28873e-05
1.14625e-05
1.08437e-05
8.91351e-06
5.49164e-06
4.88087e-06
4.58411e-06
4.77082e-06
7.59005e-06
8.01339e-06
7.10654e-06
2.91206e-06
3.49585e-06
2.88365e-06
3.25104e-06
3.52175e-06
4.02689e-06
4.59718e-06
4.78933e-06
5.20766e-06
5.46105e-06
5.92926e-06
6.1246e-06
7.07638e-06
7.04373e-06
6.66952e-06
7.44921e-06
7.60133e-06
7.62945e-06
8.44729e-06
1.00341e-05
1.02582e-05
1.07945e-05
1.11371e-05
1.02713e-05
8.0868e-06
7.99893e-06
5.93942e-06
1.87226e-06
2.06276e-06
2.12043e-06
1.93211e-06
1.88394e-06
1.82311e-06
1.81491e-06
1.82225e-06
1.81792e-06
1.95264e-06
2.06788e-06
2.0306e-06
2.10616e-06
2.36317e-06
2.52283e-06
3.14887e-06
3.257e-06
4.01067e-06
4.32588e-06
5.69473e-06
7.84003e-06
1.02666e-05
1.2528e-05
1.49532e-05
1.62202e-05
1.59276e-05
1.28774e-05
8.13889e-06
5.51525e-06
5.49702e-06
2.35191e-06
1.82667e-06
2.25254e-06
1.78482e-06
2.0714e-06
1.76031e-06
2.31073e-06
1.9017e-06
2.36747e-06
2.18663e-06
2.70078e-06
2.55424e-06
2.99883e-06
3.08872e-06
3.33248e-06
3.77646e-06
3.95246e-06
4.6049e-06
4.7749e-06
5.82554e-06
5.31491e-06
1.13757e-05
8.99877e-06
2.00369e-05
2.19334e-05
2.82088e-05
2.53989e-05
2.67965e-05
9.68484e-06
1.18209e-06
3.89203e-29
2.12977e-28
5.96634e-30
6.3448e-33
4.70629e-37
3.08201e-41
1.72865e-45
8.09786e-50
3.19239e-54
1.10525e-58
3.55221e-63
1.13428e-67
3.83649e-72
1.41449e-76
5.57523e-81
2.25961e-85
9.14327e-90
3.64171e-94
1.4231e-98
5.47194e-103
2.08472e-107
7.96012e-112
3.08776e-116
1.23144e-120
5.07219e-125
2.14809e-129
9.24707e-134
3.99481e-138
1.69973e-142
6.48253e-147
3.06651e-05
2.41063e-05
1.70905e-05
1.17548e-05
1.0683e-05
1.61502e-05
1.90099e-05
2.19452e-05
1.70833e-05
1.01432e-05
5.46136e-06
5.58986e-06
5.22299e-06
4.75183e-06
2.92556e-06
3.21278e-06
4.12077e-06
4.96529e-06
5.34912e-06
5.51678e-06
5.53365e-06
5.51051e-06
5.55028e-06
5.56336e-06
5.66893e-06
5.70926e-06
5.95412e-06
6.20267e-06
6.75584e-06
7.1306e-06
7.43995e-06
7.58109e-06
7.91502e-06
8.74906e-06
9.60005e-06
1.04816e-05
1.02633e-05
8.54939e-06
6.20976e-06
4.93727e-06
3.90202e-06
5.62603e-06
4.73625e-06
2.47691e-06
5.94969e-06
8.24691e-06
9.14691e-06
8.99054e-06
9.02605e-06
9.30025e-06
1.03035e-05
1.11411e-05
1.23005e-05
1.20242e-05
9.82603e-06
6.31248e-06
4.06319e-06
1.79829e-06
1.27856e-06
9.73475e-07
8.85718e-07
9.12696e-07
1.00515e-06
1.03601e-06
1.77411e-06
2.76403e-06
3.34042e-06
3.23453e-06
4.43323e-06
5.7911e-06
4.67906e-06
4.23347e-06
4.95866e-06
5.76088e-06
1.4926e-06
1.30821e-06
1.2275e-06
9.31663e-07
8.58465e-07
1.46358e-06
4.36794e-06
5.69335e-06
5.68659e-06
5.44914e-06
5.26275e-06
5.23336e-06
5.2467e-06
5.2803e-06
5.37629e-06
5.37261e-06
5.60794e-06
5.55551e-06
5.55597e-06
5.14736e-06
4.42797e-06
3.90326e-06
3.31754e-06
3.1132e-06
2.37439e-06
1.27977e-06
5.02354e-07
1.05707e-06
5.73478e-06
5.77722e-06
2.90943e-06
1.28051e-06
8.77225e-07
3.6156e-07
1.54659e-07
1.36842e-07
1.68657e-07
6.20972e-07
1.35243e-06
2.92202e-06
4.16465e-06
4.58822e-06
4.74182e-06
4.56511e-06
4.81626e-06
4.99468e-06
5.21568e-06
5.48392e-06
5.62163e-06
5.6527e-06
5.60696e-06
5.12283e-06
4.51863e-06
4.80158e-06
5.57943e-06
4.03725e-06
3.97209e-06
5.29231e-06
5.14028e-06
4.61558e-06
4.64924e-06
4.99817e-06
5.50258e-06
5.28427e-06
3.58258e-06
1.95734e-06
1.54483e-06
3.16469e-06
4.60196e-06
5.49068e-06
5.66924e-06
5.76881e-06
1.16017e-06
2.13922e-07
3.84692e-07
4.6346e-07
1.74001e-06
1.7995e-06
1.93723e-06
1.41846e-06
6.81642e-07
2.34028e-07
2.74963e-07
1.09718e-06
6.38324e-06
4.17111e-06
3.64294e-06
4.83182e-06
6.85725e-06
7.10049e-06
6.2066e-06
4.33815e-06
1.56956e-07
9.5321e-09
1.24382e-09
2.41946e-10
1.95951e-10
1.44256e-10
2.50222e-10
2.1423e-09
1.13111e-07
5.94631e-06
3.66524e-06
3.46687e-06
3.49544e-06
3.88021e-06
3.61632e-06
2.96438e-06
2.21336e-06
2.16948e-06
1.826e-06
1.68738e-06
1.76613e-06
1.89635e-06
1.95876e-06
2.23027e-06
2.35897e-06
2.80084e-06
2.77465e-06
2.93423e-06
4.26326e-06
4.96431e-06
6.46433e-06
3.15085e-06
4.78045e-07
1.27782e-07
8.06042e-08
1.04992e-07
3.29479e-07
1.28662e-06
5.3405e-06
6.23297e-06
5.62183e-06
3.76111e-06
2.64386e-06
2.24698e-06
2.29415e-06
2.6275e-06
2.62622e-06
2.49346e-06
2.38656e-06
2.16923e-06
1.98322e-06
1.7708e-06
1.86551e-06
2.67728e-06
3.16664e-06
4.21906e-06
5.03708e-06
5.12809e-06
5.6454e-06
5.40609e-06
5.15008e-06
5.17842e-06
5.48291e-06
5.63043e-06
5.50439e-06
5.30828e-06
5.40435e-06
4.79899e-06
5.09245e-06
5.25685e-06
5.29028e-06
6.41441e-06
6.53149e-06
7.96666e-06
9.43877e-06
1.19485e-05
1.12933e-05
1.04597e-05
7.96489e-06
6.52766e-06
5.5809e-06
5.0376e-06
5.53063e-06
5.15335e-06
5.37641e-06
5.84586e-06
5.58598e-06
5.59399e-06
6.52263e-06
6.36766e-06
5.19788e-06
1.9314e-06
1.73838e-06
1.36271e-06
1.50798e-06
1.34501e-06
1.36554e-06
1.25748e-06
1.0434e-06
1.25605e-06
9.32173e-07
1.74467e-06
1.64991e-06
1.95519e-06
2.55565e-06
3.79386e-06
5.30436e-06
6.48301e-06
7.43968e-06
7.04444e-06
6.42955e-06
5.64214e-06
4.42559e-06
4.3475e-06
6.20134e-06
9.12936e-06
1.03042e-05
9.05944e-06
1.38022e-06
1.65099e-06
1.61579e-06
1.5479e-06
1.59936e-06
1.54851e-06
1.49746e-06
1.58109e-06
1.36609e-06
1.3214e-06
1.48574e-06
1.40235e-06
1.58632e-06
1.47019e-06
1.56748e-06
1.91718e-06
3.02002e-06
2.84847e-06
3.2471e-06
3.38105e-06
5.1304e-06
6.36708e-06
8.14001e-06
8.69034e-06
1.05196e-05
1.02102e-05
8.9834e-06
5.90763e-06
5.46689e-06
5.59029e-06
1.22794e-06
1.22981e-06
1.50247e-06
1.28104e-06
1.17904e-06
1.23613e-06
1.24293e-06
1.3818e-06
1.27221e-06
1.68404e-06
1.40942e-06
1.87852e-06
1.58867e-06
2.15809e-06
1.66772e-06
2.31685e-06
2.16421e-06
2.53459e-06
3.15173e-06
3.59051e-06
4.48224e-06
4.29763e-06
6.1817e-06
3.74501e-06
5.31995e-06
2.89758e-06
6.1225e-06
3.98597e-06
2.16131e-06
4.39911e-06
4.53607e-25
7.79905e-24
1.88329e-25
6.26138e-28
3.95081e-32
1.99176e-36
8.99614e-41
3.94879e-45
1.54746e-49
5.32393e-54
1.65649e-58
4.82261e-63
1.39621e-67
4.26652e-72
1.4495e-76
5.45766e-81
2.20248e-85
9.09798e-90
3.75209e-94
1.5151e-98
5.9763e-103
2.29531e-107
8.70372e-112
3.28796e-116
1.26687e-120
5.03198e-125
2.0852e-129
8.92827e-134
3.80562e-138
1.03622e-142
7.27723e-06
2.11379e-06
7.85041e-07
4.29474e-07
4.25974e-07
6.12298e-07
9.37477e-07
2.22249e-06
6.57857e-06
1.70578e-05
1.17612e-05
5.73079e-06
5.60534e-06
5.90244e-06
2.67607e-06
3.95379e-06
5.09187e-06
5.50256e-06
5.45363e-06
5.44902e-06
5.42678e-06
5.46859e-06
5.45399e-06
5.49953e-06
5.54336e-06
5.4809e-06
5.33217e-06
5.18951e-06
5.79732e-06
6.79946e-06
7.47037e-06
7.88941e-06
7.34972e-06
7.61038e-06
8.69865e-06
1.16131e-05
1.26682e-05
1.09931e-05
7.28986e-06
4.54702e-06
4.10878e-06
5.91903e-06
4.75897e-06
2.66507e-06
6.57071e-06
8.80676e-06
8.00374e-06
7.07504e-06
7.186e-06
7.62297e-06
8.07446e-06
9.0428e-06
1.03569e-05
1.17618e-05
1.15517e-05
9.86872e-06
6.83843e-06
2.50251e-06
1.71871e-06
6.23008e-07
5.71514e-07
4.8319e-07
4.83206e-07
5.41623e-07
6.48059e-07
1.6958e-06
3.636e-06
4.51794e-06
5.13874e-06
5.61793e-06
4.57628e-06
4.6083e-06
5.58261e-06
5.35685e-06
1.4992e-06
1.26021e-06
1.04947e-06
9.1197e-07
2.42176e-06
5.74918e-06
5.31241e-06
4.84281e-06
4.84937e-06
4.86547e-06
5.11057e-06
5.10108e-06
5.31521e-06
5.23732e-06
5.28555e-06
5.30956e-06
5.35636e-06
5.41913e-06
5.67859e-06
5.77546e-06
5.6692e-06
5.28189e-06
4.8734e-06
4.58717e-06
4.20727e-06
2.72456e-06
9.51457e-07
1.20341e-06
5.7497e-06
5.78177e-06
3.21586e-06
1.33738e-06
6.99488e-07
1.69962e-07
1.33897e-07
2.03941e-07
1.18293e-06
3.82539e-06
5.36834e-06
5.8387e-06
5.86657e-06
5.85101e-06
5.82234e-06
5.80862e-06
5.76964e-06
5.76787e-06
5.72213e-06
5.6706e-06
5.48123e-06
5.21951e-06
5.34733e-06
5.64499e-06
5.58405e-06
5.5998e-06
4.85922e-06
3.89812e-06
4.4363e-06
5.49283e-06
5.1512e-06
4.69196e-06
4.74988e-06
5.11684e-06
5.43542e-06
2.35568e-06
8.88168e-07
1.23821e-06
4.64339e-06
5.70668e-06
5.51531e-06
5.58923e-06
1.46076e-06
7.29271e-08
7.59044e-08
2.69275e-07
1.16802e-06
3.01589e-06
4.49278e-06
5.21057e-06
5.03921e-06
4.54084e-06
3.15881e-06
3.48063e-07
7.7115e-08
9.76702e-08
2.20799e-07
6.21737e-06
4.63046e-06
4.1818e-06
5.55493e-06
5.6948e-06
7.94488e-07
2.27608e-08
1.55859e-09
2.08333e-10
6.29506e-11
2.91212e-11
2.78417e-11
6.65455e-11
4.49333e-10
2.81507e-08
6.31417e-06
4.20866e-06
4.88927e-06
6.15851e-06
6.65737e-06
6.41029e-06
6.03754e-06
5.49739e-06
4.84467e-06
3.6515e-06
3.08878e-06
2.12277e-06
2.02608e-06
1.9521e-06
1.97881e-06
2.40011e-06
2.51615e-06
3.05992e-06
2.83711e-06
2.44049e-06
4.01271e-06
6.28183e-06
1.16104e-06
9.19502e-08
5.08494e-08
5.73053e-08
6.41098e-08
5.94299e-08
8.30012e-08
3.178e-07
3.33846e-06
6.01357e-06
5.82653e-06
3.99679e-06
2.93753e-06
3.02851e-06
3.68374e-06
4.05688e-06
4.15659e-06
3.76117e-06
3.38208e-06
2.85436e-06
2.20827e-06
1.83e-06
2.16365e-06
2.6801e-06
3.83722e-06
4.5721e-06
4.77419e-06
5.28591e-06
5.43104e-06
5.39183e-06
5.08285e-06
5.56464e-06
5.54029e-06
5.47504e-06
5.50067e-06
5.1831e-06
5.03337e-06
4.58375e-06
5.27361e-06
4.9434e-06
6.60098e-06
6.78268e-06
8.27161e-06
8.95735e-06
1.1387e-05
1.28863e-05
1.35893e-05
1.10059e-05
5.57527e-06
4.1666e-06
2.46143e-06
2.32877e-06
1.42943e-06
2.1366e-06
2.05236e-06
3.32176e-06
4.75185e-06
4.88354e-06
6.06812e-06
5.00104e-06
4.25815e-06
1.74077e-06
1.75834e-06
1.6699e-06
1.60388e-06
1.3645e-06
1.28449e-06
1.0542e-06
1.11096e-06
9.66132e-07
1.25177e-06
1.41075e-06
2.22534e-06
1.56604e-06
1.89402e-06
1.61883e-06
1.77734e-06
1.76298e-06
1.87045e-06
2.15172e-06
2.25381e-06
2.04312e-06
2.05626e-06
1.72366e-06
1.96029e-06
3.05469e-06
5.60192e-06
7.69721e-06
1.18246e-06
1.49036e-06
1.50416e-06
1.69292e-06
2.19658e-06
2.81795e-06
3.12838e-06
3.62983e-06
3.49848e-06
3.36058e-06
2.44771e-06
3.22937e-06
2.10269e-06
2.35408e-06
3.02025e-06
3.26698e-06
4.38751e-06
3.8135e-06
3.41311e-06
3.89958e-06
3.56942e-06
3.72394e-06
3.78088e-06
3.93247e-06
2.96052e-06
2.65598e-06
2.05036e-06
2.25435e-06
2.01774e-06
2.30117e-06
1.07188e-06
1.33613e-06
1.33614e-06
1.63956e-06
1.40077e-06
1.66352e-06
1.26076e-06
1.30686e-06
1.21524e-06
1.20272e-06
1.22154e-06
1.30996e-06
1.27062e-06
1.95518e-06
1.84292e-06
2.94208e-06
2.55984e-06
3.95358e-06
3.52487e-06
4.48579e-06
3.66131e-06
4.75603e-06
2.39655e-06
2.93002e-06
1.31189e-06
6.50077e-07
4.40388e-07
3.09245e-07
3.35368e-07
8.56527e-07
1.20495e-23
2.04355e-21
2.34188e-23
3.00571e-25
1.71792e-29
7.42748e-34
2.19525e-38
7.49986e-43
2.54107e-47
7.95201e-52
2.25581e-56
5.9358e-61
1.50374e-65
3.93476e-70
1.1538e-74
4.09406e-79
1.68731e-83
7.46149e-88
3.30266e-92
1.43716e-96
5.97899e-101
2.38041e-105
9.10653e-110
3.39869e-114
1.25485e-118
4.7225e-123
1.84057e-127
7.54992e-132
2.77064e-136
7.43818e-142
2.30933e-07
1.35846e-07
9.77085e-08
7.87124e-08
8.84226e-08
1.19263e-07
1.96543e-07
4.08428e-07
9.06349e-07
3.45282e-06
1.50196e-05
1.11544e-05
4.83091e-06
5.78493e-06
3.72597e-06
5.21718e-06
5.46757e-06
5.22142e-06
5.21337e-06
5.30012e-06
5.41758e-06
5.3357e-06
5.45323e-06
5.43185e-06
5.45947e-06
5.50614e-06
5.52913e-06
5.275e-06
4.97447e-06
5.54823e-06
6.96656e-06
8.31318e-06
7.28607e-06
5.9852e-06
6.40007e-06
9.1115e-06
1.26437e-05
1.34885e-05
7.65131e-06
4.71102e-06
3.49448e-06
5.65667e-06
4.80428e-06
3.49163e-06
6.83085e-06
8.44435e-06
6.65127e-06
6.1306e-06
6.65168e-06
6.94188e-06
6.02181e-06
6.15974e-06
7.70502e-06
9.12929e-06
1.02135e-05
9.39195e-06
7.55151e-06
3.3604e-06
1.48966e-06
4.91968e-07
3.40966e-07
2.88291e-07
2.42703e-07
2.76448e-07
3.59485e-07
9.90289e-07
3.19442e-06
5.05627e-06
5.56198e-06
5.47068e-06
4.53226e-06
4.89468e-06
5.76742e-06
5.0886e-06
1.48157e-06
1.14656e-06
9.57016e-07
2.25816e-06
5.8301e-06
4.91911e-06
4.7113e-06
5.12356e-06
5.63948e-06
5.66965e-06
5.65385e-06
5.58204e-06
5.60663e-06
5.53325e-06
5.55761e-06
5.45614e-06
5.51551e-06
5.4544e-06
5.56509e-06
5.79572e-06
5.7949e-06
5.73218e-06
5.52508e-06
5.37517e-06
5.2078e-06
3.93844e-06
1.32079e-06
2.06114e-06
5.80047e-06
5.7632e-06
3.92404e-06
1.48143e-06
5.2133e-07
1.41121e-07
1.76597e-07
1.36561e-06
4.24739e-06
5.80429e-06
5.77714e-06
5.22394e-06
4.76298e-06
4.65397e-06
5.02974e-06
5.4131e-06
5.64079e-06
5.6644e-06
5.61818e-06
5.45437e-06
5.13552e-06
4.6778e-06
4.61493e-06
5.05726e-06
5.18243e-06
4.74716e-06
4.09919e-06
4.29004e-06
5.15242e-06
5.49786e-06
5.42177e-06
5.10837e-06
4.71948e-06
5.34171e-06
3.47052e-06
3.70349e-07
5.65391e-07
4.15883e-06
5.59651e-06
5.14495e-06
5.60445e-06
2.08001e-07
5.58272e-08
7.36362e-08
1.13175e-07
2.61741e-07
3.50059e-07
1.17691e-06
2.98386e-06
2.57908e-06
2.32464e-06
1.55317e-06
1.3001e-06
5.80202e-07
7.36927e-08
2.3725e-08
3.12348e-08
9.74682e-08
6.19811e-06
4.14649e-06
4.23549e-06
3.97637e-06
1.07029e-08
9.85234e-10
2.04375e-10
7.32765e-11
4.49469e-11
2.35481e-11
2.50678e-11
8.13094e-11
3.31717e-09
2.98753e-06
5.71241e-06
6.12066e-06
6.22444e-06
3.24786e-06
1.19338e-06
7.39611e-07
4.41374e-07
4.69865e-07
1.22048e-06
3.20942e-06
5.64859e-06
4.46314e-06
2.84333e-06
2.16764e-06
2.16059e-06
2.34168e-06
2.67816e-06
3.27269e-06
3.43435e-06
2.80824e-06
4.91912e-06
4.45145e-06
1.28575e-07
5.63789e-08
8.75352e-07
3.43725e-06
4.18754e-06
1.41331e-06
1.17745e-06
1.14323e-06
3.66739e-06
6.14901e-06
5.68555e-06
4.07437e-06
3.86919e-06
4.88062e-06
5.62357e-06
5.60482e-06
5.63995e-06
5.68112e-06
5.5144e-06
4.59079e-06
3.5748e-06
2.81504e-06
2.08251e-06
2.26481e-06
2.69604e-06
3.52846e-06
4.57357e-06
5.20411e-06
5.29359e-06
5.56161e-06
5.94682e-06
5.96428e-06
5.87e-06
5.62522e-06
5.65888e-06
5.42036e-06
5.73209e-06
5.79261e-06
6.24575e-06
4.7575e-06
7.31483e-07
3.53041e-08
9.49428e-09
3.85492e-09
1.37506e-09
1.77367e-09
2.95971e-09
3.75061e-09
1.68117e-07
6.09995e-06
4.71575e-06
1.86356e-06
1.70765e-06
1.09553e-06
1.32127e-06
1.29287e-06
2.92542e-06
3.40986e-06
4.1179e-06
4.47987e-06
4.11763e-06
3.33968e-06
4.5342e-06
4.20026e-06
3.48682e-06
2.96861e-06
2.94438e-06
3.58892e-06
4.48501e-06
5.97938e-06
3.16184e-06
5.34448e-07
1.42176e-07
1.20856e-07
5.62721e-07
5.29516e-06
6.40897e-06
3.48561e-06
2.20945e-06
1.81997e-06
1.60633e-06
1.57314e-06
1.39177e-06
1.23666e-06
1.17098e-06
1.42487e-06
2.38202e-06
3.57821e-06
1.32426e-06
2.04296e-06
2.59873e-06
4.06793e-06
5.70529e-06
4.86222e-06
1.54726e-06
1.86255e-07
1.44406e-07
1.00391e-07
1.11586e-07
2.08632e-07
1.76478e-07
4.44867e-06
6.83124e-06
9.63756e-06
1.03319e-05
9.05605e-06
5.7143e-06
4.619e-06
4.69688e-06
3.60883e-06
2.81276e-06
1.96892e-06
1.50973e-06
1.00327e-06
1.15197e-06
1.08836e-06
1.10166e-06
1.20092e-06
1.21752e-06
2.07274e-06
3.035e-06
3.35753e-06
3.59696e-06
2.95242e-06
4.20799e-06
2.6166e-06
3.28179e-06
2.59176e-06
3.38939e-06
2.77004e-06
4.28923e-06
3.64364e-06
5.19154e-06
4.72191e-06
6.44404e-06
6.00203e-06
8.01148e-06
7.30038e-06
1.05196e-05
6.94233e-06
5.51559e-06
2.62794e-06
1.65245e-06
1.138e-06
7.88072e-07
8.13306e-07
1.42987e-06
2.8109e-06
3.94736e-18
2.63444e-16
8.29841e-19
1.82354e-20
9.87969e-25
4.1647e-29
9.73113e-34
2.831e-38
8.95156e-43
2.7732e-47
7.88255e-52
2.0734e-56
5.12374e-61
1.26785e-65
3.41168e-70
1.11919e-74
4.49917e-79
2.04818e-83
9.53432e-88
4.36076e-92
1.89926e-96
7.91434e-101
3.13402e-105
1.20297e-109
4.50144e-114
1.69688e-118
6.53697e-123
2.6453e-127
1.0261e-131
8.25637e-137
3.73681e-08
4.67636e-08
8.33845e-08
1.16949e-07
1.04058e-07
1.38543e-07
2.13199e-07
4.36904e-07
9.10032e-07
1.91543e-06
5.21246e-06
1.52845e-05
1.08559e-05
5.08212e-06
5.94278e-06
5.46694e-06
4.97243e-06
5.06645e-06
5.40002e-06
5.3603e-06
5.33549e-06
5.36938e-06
5.23461e-06
5.4598e-06
5.37877e-06
5.45975e-06
5.51141e-06
5.40607e-06
4.99391e-06
4.77626e-06
6.39448e-06
8.02259e-06
8.36437e-06
6.02902e-06
5.3093e-06
6.88054e-06
1.21342e-05
1.34865e-05
8.13857e-06
3.56577e-06
2.55755e-06
4.0815e-06
6.26738e-06
4.66964e-06
7.17007e-06
7.73719e-06
6.34037e-06
5.98401e-06
6.48813e-06
6.16943e-06
3.51326e-06
3.21413e-06
3.65034e-06
5.72275e-06
6.87527e-06
5.43699e-06
3.43307e-06
1.18189e-06
6.22446e-07
3.33912e-07
2.43994e-07
2.02729e-07
2.0276e-07
2.62111e-07
4.1809e-07
1.08853e-06
4.29853e-06
5.60453e-06
5.67831e-06
5.32898e-06
4.33218e-06
4.56146e-06
5.73522e-06
4.91394e-06
1.45042e-06
1.00687e-06
1.43133e-06
5.84524e-06
4.81191e-06
5.02082e-06
5.78199e-06
4.75002e-06
3.39398e-06
3.39591e-06
3.80827e-06
4.72687e-06
5.06263e-06
5.4526e-06
5.52959e-06
5.51668e-06
5.5537e-06
5.57415e-06
5.5639e-06
5.68386e-06
5.77565e-06
5.74894e-06
5.69113e-06
5.6024e-06
5.38132e-06
4.14766e-06
2.26028e-06
4.67736e-06
5.52271e-06
5.74144e-06
4.33662e-06
1.55522e-06
2.17261e-07
1.47218e-07
7.99477e-07
3.82526e-06
5.58038e-06
5.73583e-06
4.98544e-06
4.03308e-06
3.70337e-06
3.48957e-06
3.68887e-06
4.33398e-06
5.0608e-06
5.4209e-06
5.42936e-06
5.36894e-06
4.90185e-06
4.22574e-06
4.05529e-06
4.16653e-06
4.10042e-06
3.88159e-06
4.0777e-06
4.70818e-06
5.22825e-06
5.36131e-06
5.43398e-06
5.36957e-06
4.74949e-06
5.51503e-06
6.01105e-07
1.52694e-07
1.56139e-06
5.7177e-06
4.9489e-06
5.74548e-06
2.07463e-07
3.17554e-08
3.92632e-08
5.04529e-08
5.45953e-08
6.62839e-08
1.15038e-07
2.4027e-07
9.16685e-07
7.91401e-07
1.89821e-07
9.87035e-08
4.40994e-08
2.06851e-08
1.99074e-08
1.93415e-08
2.05915e-08
3.36446e-08
1.08991e-06
4.77316e-06
2.94125e-06
3.07857e-06
1.57109e-09
3.75952e-10
2.11059e-10
1.38683e-10
4.90111e-11
2.34569e-11
2.75304e-11
3.64325e-10
8.93362e-08
6.50169e-06
6.48479e-06
5.5275e-06
1.71035e-06
7.20055e-07
1.20935e-07
3.12944e-08
1.53214e-08
1.22656e-08
1.14746e-08
1.72472e-08
4.72708e-08
1.25681e-06
5.61271e-06
3.6996e-06
2.45371e-06
2.22704e-06
2.31112e-06
2.7271e-06
2.51401e-06
1.28214e-06
6.25171e-06
9.50214e-07
7.22798e-08
8.26058e-07
5.43916e-06
5.99972e-06
5.71304e-06
5.82775e-06
5.48177e-06
5.54155e-06
5.87616e-06
6.35447e-06
5.33674e-06
4.4172e-06
5.45295e-06
5.08438e-06
1.08961e-06
4.56653e-07
2.12321e-07
5.32234e-07
1.10359e-06
2.85129e-06
4.89873e-06
5.92479e-06
6.13917e-06
5.56882e-06
4.06693e-06
2.83626e-06
3.06065e-06
3.43798e-06
5.34227e-06
5.54237e-06
3.04815e-06
2.44955e-06
5.65863e-06
6.28387e-06
5.75824e-06
6.03116e-06
6.24675e-06
1.17082e-06
4.66279e-08
5.00733e-09
1.01606e-09
4.09559e-10
1.3834e-10
6.62663e-11
5.18803e-11
2.8803e-11
2.19014e-11
2.29747e-11
9.46721e-11
9.00829e-10
4.64546e-08
6.13875e-06
2.81075e-06
1.6343e-06
1.00215e-06
9.85738e-07
1.4629e-06
2.36718e-06
3.46046e-06
4.46897e-06
5.22112e-06
4.58076e-06
1.02317e-06
2.28643e-06
4.21021e-06
4.70635e-06
1.12207e-06
3.58318e-08
3.13606e-09
9.8609e-10
6.85e-10
7.88549e-10
4.22589e-10
5.85062e-10
5.84549e-10
1.42367e-09
8.93611e-09
6.60722e-07
7.13892e-06
6.90142e-06
4.64736e-06
3.32344e-06
2.70145e-06
1.59095e-06
1.45626e-06
1.10977e-06
1.46473e-06
1.98256e-06
1.71527e-06
3.3437e-06
5.86322e-06
2.46675e-06
5.1046e-08
8.46605e-09
2.98414e-09
9.96512e-10
5.12423e-10
5.51187e-10
4.0592e-10
3.50372e-10
3.22789e-10
5.33088e-10
1.67581e-09
7.35582e-08
4.14677e-06
1.88071e-05
1.71222e-05
1.22128e-05
8.10952e-06
6.37271e-06
3.68369e-06
2.80031e-06
1.62172e-06
1.41194e-06
1.15828e-06
1.10514e-06
8.6315e-07
1.64452e-06
1.93733e-06
4.50135e-06
6.12596e-06
3.42023e-06
4.1865e-06
5.18075e-06
8.06928e-06
9.73356e-06
8.4483e-06
9.08907e-06
8.86873e-06
9.55974e-06
8.99922e-06
1.06187e-05
1.07286e-05
1.29145e-05
1.36882e-05
1.6261e-05
1.31909e-05
1.29288e-05
7.64646e-06
5.85373e-06
5.44964e-06
5.15919e-06
4.58467e-06
3.99887e-06
3.51546e-06
3.69272e-06
4.69698e-06
5.78553e-06
8.23168e-11
5.18557e-10
7.24417e-13
2.21039e-14
6.79197e-19
2.99818e-23
5.81155e-28
1.41846e-32
4.11838e-37
1.2511e-41
3.64961e-46
9.73404e-51
2.44571e-55
5.91709e-60
1.52171e-64
4.59243e-69
1.76166e-73
7.89506e-78
3.7752e-82
1.76731e-86
8.01023e-91
3.41722e-95
1.39875e-99
5.42651e-104
2.06103e-108
7.66737e-113
2.92071e-117
1.1445e-121
4.51113e-126
6.77668e-131
3.23085e-08
1.94503e-07
7.14388e-07
8.17607e-07
4.88682e-07
5.17286e-07
8.10203e-07
1.92414e-06
4.15033e-06
6.19862e-06
7.89493e-06
1.19297e-05
1.53934e-05
4.6902e-06
5.82103e-06
5.00751e-06
4.86262e-06
5.3235e-06
5.34748e-06
5.30262e-06
5.29852e-06
5.28157e-06
5.19416e-06
5.1275e-06
5.2026e-06
5.26918e-06
5.27791e-06
5.35984e-06
4.93664e-06
4.59581e-06
5.71451e-06
7.43148e-06
9.73511e-06
7.09057e-06
5.15666e-06
6.07504e-06
1.23518e-05
1.29827e-05
5.27733e-06
2.06509e-06
1.16693e-06
1.79779e-06
5.46368e-06
5.86423e-06
7.06604e-06
7.28836e-06
6.24489e-06
5.83935e-06
6.55716e-06
4.76267e-06
2.42367e-06
1.49944e-06
1.93365e-06
2.25722e-06
1.95237e-06
1.11109e-06
5.8036e-07
4.18907e-07
3.16065e-07
2.2408e-07
2.04297e-07
2.46409e-07
3.38242e-07
6.92272e-07
1.8205e-06
4.77719e-06
5.67368e-06
5.43437e-06
5.70953e-06
5.05429e-06
3.80644e-06
3.80004e-06
5.32836e-06
5.19711e-06
1.36491e-06
1.13445e-06
5.63519e-06
5.04864e-06
5.25678e-06
5.10325e-06
1.15389e-06
4.33949e-07
4.70149e-07
1.03226e-06
1.38828e-06
3.08848e-06
3.80081e-06
4.82156e-06
5.05454e-06
5.35887e-06
5.49229e-06
5.54436e-06
5.62071e-06
5.5854e-06
5.66248e-06
5.73301e-06
5.72965e-06
5.74924e-06
5.59753e-06
4.64806e-06
4.61769e-06
5.7621e-06
5.38878e-06
5.70606e-06
4.85728e-06
1.48392e-06
1.94581e-07
1.97832e-07
1.53954e-06
4.55275e-06
5.88828e-06
5.33027e-06
4.37607e-06
3.68394e-06
3.58588e-06
3.41996e-06
3.58406e-06
4.14584e-06
4.84066e-06
5.28509e-06
5.43206e-06
5.20071e-06
4.47119e-06
3.75225e-06
3.48524e-06
3.41328e-06
3.3803e-06
3.55232e-06
4.07208e-06
4.6407e-06
5.03702e-06
5.20985e-06
5.27975e-06
5.23029e-06
4.96859e-06
4.16485e-06
1.32292e-07
2.04331e-07
5.31399e-06
4.91926e-06
5.31588e-06
1.36264e-06
2.66096e-08
1.61079e-08
2.15502e-08
2.4727e-08
2.57645e-08
3.60493e-08
6.94546e-08
1.57273e-07
1.41877e-07
4.96227e-08
2.48215e-08
1.35994e-08
7.98466e-09
6.96454e-09
9.44669e-09
7.63348e-09
1.13157e-08
5.55098e-08
4.73233e-06
4.81569e-06
2.56711e-06
2.49429e-06
7.26752e-10
4.73368e-10
4.20995e-10
1.03876e-10
2.95577e-11
2.55566e-11
9.9505e-11
7.46868e-09
3.58707e-06
6.57699e-06
5.57052e-06
2.233e-06
1.10447e-06
1.65107e-07
3.71029e-08
1.40729e-08
9.37017e-09
5.10447e-09
3.54457e-09
3.30109e-09
4.14504e-09
9.8134e-09
1.26431e-07
4.24678e-06
4.4421e-06
2.4369e-06
2.13694e-06
2.1546e-06
2.16873e-06
1.48975e-06
1.22206e-06
1.83786e-07
9.89445e-07
5.70908e-06
4.34794e-06
4.31413e-06
4.30717e-06
5.1659e-06
5.43908e-06
5.97891e-06
6.18871e-06
5.66004e-06
4.87874e-06
5.41946e-06
4.55091e-06
1.21907e-07
1.69705e-08
1.07715e-08
7.78762e-09
5.26955e-09
5.11216e-09
4.87448e-09
4.38922e-09
5.40127e-09
7.03965e-09
1.26491e-08
3.72012e-08
2.05893e-06
5.39488e-06
3.3133e-06
5.85344e-06
6.38752e-07
4.19164e-08
3.10962e-08
6.61153e-08
1.32519e-07
9.08055e-07
4.55254e-07
3.5463e-08
3.02975e-09
1.05986e-09
3.49392e-10
2.27955e-10
2.49149e-10
2.5058e-10
1.75744e-10
3.77563e-10
1.83171e-10
6.45841e-11
2.41948e-11
1.63644e-11
1.8407e-11
6.91971e-11
1.94324e-09
1.16892e-06
4.11159e-06
1.6416e-06
9.86339e-07
9.11336e-07
2.53118e-06
2.63926e-06
4.24062e-06
6.19419e-06
1.18287e-07
9.7367e-09
4.65704e-09
9.67711e-09
4.36035e-09
7.48903e-10
2.53442e-10
2.0102e-10
4.621e-10
1.36754e-09
5.55641e-09
4.98433e-09
4.19828e-09
2.24962e-09
9.55092e-10
6.25649e-10
9.60948e-10
3.85428e-09
2.70324e-08
1.44346e-06
7.55301e-06
6.48665e-06
3.11918e-06
2.23818e-06
1.26763e-06
9.50496e-07
1.20781e-06
2.25669e-06
5.83912e-06
1.4694e-07
1.04225e-08
2.40314e-09
1.38596e-09
1.43242e-09
1.44122e-09
1.69121e-09
1.90782e-09
1.49165e-09
3.14486e-09
1.849e-09
1.68843e-09
3.95599e-10
1.83047e-09
1.38093e-08
2.55494e-07
6.63967e-06
2.08157e-05
1.89244e-05
1.32705e-05
8.97149e-06
6.27824e-06
4.69978e-06
2.37249e-06
1.65987e-06
1.36289e-06
1.37662e-06
1.82226e-06
3.31867e-06
4.03888e-06
1.80326e-07
7.35148e-08
6.36067e-08
1.04895e-07
1.17368e-07
4.09775e-07
1.01105e-06
3.6752e-06
5.4145e-06
7.21136e-06
7.24539e-06
7.03864e-06
6.83936e-06
4.22277e-06
4.25931e-06
1.71559e-06
1.01782e-06
1.48651e-06
1.97314e-06
3.15861e-06
3.80614e-06
4.74863e-06
5.38584e-06
5.78554e-06
5.99081e-06
6.73955e-06
7.86182e-06
8.89083e-06
4.86729e-07
5.51912e-07
3.4507e-07
3.89846e-08
4.57648e-13
1.67073e-17
2.62912e-22
5.42839e-27
1.33678e-31
3.89399e-36
1.153e-40
3.19079e-45
8.19422e-50
1.99628e-54
4.93552e-59
1.38079e-63
4.87087e-68
2.11701e-72
1.01659e-76
4.91439e-81
2.29821e-85
1.01939e-89
4.28919e-94
1.71231e-98
6.57419e-103
2.45762e-107
9.19004e-112
3.51499e-116
1.35604e-120
2.59069e-125
9.96394e-08
2.0255e-06
8.644e-06
6.26525e-06
2.88004e-06
3.86714e-06
6.0296e-06
1.25181e-05
1.50812e-05
1.28569e-05
1.05559e-05
1.11349e-05
1.23254e-05
4.63546e-06
5.59662e-06
4.6738e-06
5.0127e-06
5.2593e-06
4.8697e-06
3.4949e-06
3.24296e-06
4.77884e-06
5.20166e-06
5.09359e-06
5.01932e-06
5.08131e-06
5.07735e-06
5.03981e-06
4.62935e-06
4.54933e-06
5.1564e-06
7.15425e-06
1.041e-05
7.14782e-06
4.09469e-06
6.43505e-06
1.44245e-05
7.56615e-06
2.30001e-06
1.02312e-06
9.09883e-07
1.10272e-06
3.33545e-06
6.3294e-06
7.22842e-06
6.74805e-06
5.77995e-06
5.90328e-06
6.37383e-06
4.39036e-06
2.1591e-06
1.38946e-06
1.20818e-06
1.09446e-06
9.38356e-07
7.38823e-07
8.43283e-07
7.66376e-07
7.58732e-07
7.76409e-07
1.20502e-06
1.86641e-06
2.92063e-06
4.92988e-06
5.92935e-06
5.91384e-06
5.70288e-06
5.55454e-06
4.95011e-06
3.9966e-06
3.18964e-06
3.18271e-06
4.47109e-06
5.58234e-06
1.31551e-06
4.34233e-06
5.37919e-06
5.32666e-06
4.18818e-06
1.90848e-07
5.30298e-08
8.57255e-08
1.66697e-07
6.86555e-07
1.21844e-06
2.61814e-06
3.49294e-06
4.39365e-06
4.86072e-06
5.0325e-06
5.22345e-06
5.32615e-06
5.56237e-06
5.58635e-06
5.58522e-06
5.66145e-06
5.69813e-06
5.68623e-06
5.74826e-06
5.70686e-06
5.73189e-06
5.08515e-06
5.49725e-06
5.26587e-06
4.93088e-06
1.16751e-06
1.84659e-07
5.9025e-07
1.98335e-06
4.26939e-06
5.95513e-06
4.82117e-06
3.94644e-06
3.81546e-06
3.99187e-06
3.97868e-06
4.20913e-06
4.59246e-06
5.10203e-06
5.38825e-06
5.25194e-06
4.66008e-06
3.7692e-06
3.16243e-06
2.96988e-06
2.99505e-06
3.3845e-06
4.10445e-06
5.04336e-06
5.49297e-06
5.43218e-06
5.39971e-06
5.44413e-06
5.20251e-06
5.41302e-06
7.91015e-07
8.01426e-08
1.12744e-06
5.53407e-06
4.72766e-06
5.41798e-06
3.18334e-08
1.15426e-08
1.36619e-08
1.48409e-08
1.61542e-08
2.04729e-08
2.62007e-08
4.19428e-08
5.23966e-08
3.64578e-08
2.0405e-08
9.69879e-09
6.90692e-09
7.84118e-09
6.81326e-09
1.22124e-08
1.56911e-08
4.62581e-08
1.1943e-06
3.96013e-06
6.03739e-06
5.43059e-06
2.97538e-06
8.87769e-10
6.14753e-10
1.7847e-10
5.81055e-11
4.24032e-11
8.33145e-11
1.82139e-09
1.99019e-07
5.85958e-06
5.8573e-06
2.98915e-06
1.39407e-06
5.53893e-07
9.75442e-08
3.12254e-08
1.45371e-08
1.00435e-08
5.13924e-09
3.58816e-09
2.09024e-09
2.0323e-09
2.07421e-09
5.13437e-09
5.22271e-08
3.27733e-06
4.48267e-06
2.39784e-06
1.71059e-06
1.49852e-06
1.13707e-06
1.08322e-06
1.85174e-07
3.72171e-06
5.22473e-06
4.50096e-06
4.28929e-06