/*--------------------------------*- C++ -*----------------------------------*\
| =========                 |                                                 |
| \\      /  F ield         | OpenFOAM: The Open Source CFD Toolbox           |
|  \\    /   O peration     | Version:  2.1.1                                 |
|   \\  /    A nd           | Web:      www.OpenFOAM.org                      |
|    \\/     M anipulation  |                                                 |
\*---------------------------------------------------------------------------*/
FoamFile
{
    version     2.0;
    format      ascii;
    class       volScalarField;
    location    "0.003350000";
    object      mut;
}
// * * * * * * * * * * * * * * * * * * * * * * * * * * * * * * * * * * * * * //

dimensions      [1 -1 -1 0 0 0 0];

internalField   nonuniform List<scalar> 
12384
(
9.23931e-06
2.77945e-05
4.14958e-05
4.23814e-05
4.19263e-05
4.45005e-05
4.60721e-05
4.20367e-05
3.09867e-05
2.51104e-05
1.45839e-05
8.85637e-06
6.44938e-06
4.22946e-06
7.70375e-05
0.0023081
0.0032138
0.00368213
0.00361501
0.00358788
0.0033845
0.0034123
0.00324919
0.00324324
0.00280479
0.00256379
0.00210637
0.00185051
0.00165163
0.00141671
0.00127207
0.00107789
0.00089511
0.000648742
0.000588868
0.000518469
0.000527148
0.000623164
0.00102868
0.00163418
0.00235459
0.00125768
0.00072122
0.000111508
0.00139483
0.00406394
0.00928645
0.0148214
0.00683299
0.00367105
0.00264383
0.00203526
0.0017297
0.00158103
0.00146246
0.00154421
0.001748
0.00276476
0.00416687
0.0087073
0.0107277
0.0103303
0.0101743
0.00756388
0.00662242
0.00556847
0.00664203
0.00584762
0.00536752
0.00277643
0.0013994
0.000774105
0.000411453
0.000116488
0.0040735
0.00496143
0.00529694
0.00519174
0.00461408
0.00399889
0.0036274
0.00341152
0.00356417
0.00367279
0.00379191
0.00358942
0.00351048
0.00272736
0.00234619
0.001853
0.00172539
0.00174727
0.00265267
0.00406836
0.00587817
0.00693539
0.0058898
0.00463572
0.00248514
0.00153923
0.000739743
0.000323473
0.000161258
3.69555e-05
0.00548241
0.0123536
0.0169113
0.0187229
0.0145661
0.00831036
0.00588582
0.00482686
0.00415576
0.00380301
0.00341249
0.00322459
0.00308947
0.00329021
0.0037892
0.00462784
0.00686537
0.00993903
0.0146796
0.0161235
0.0129547
0.00960018
0.00720589
0.00540791
0.00354291
0.00307097
0.00162522
0.00118748
0.000635776
7.46784e-05
0.00010928
0.000483209
0.00144574
0.00561978
0.00428699
0.00555153
0.0113375
0.00754904
0.00535402
0.00775322
0.0056973
0.00462093
0.00351454
0.0036058
0.00380446
0.00546185
0.00741307
0.00808296
0.00862784
0.00783862
0.00586305
0.00399579
0.00212121
0.00160875
0.000984448
0.000662325
0.000381169
0.000186384
8.01422e-05
2.16587e-05
0.000634974
0.00336243
0.00388476
0.00349815
0.00318485
0.00308167
0.00290905
0.00244322
0.00212081
0.00167755
0.00128913
0.00102504
0.000671047
0.000752999
0.000472854
0.00141371
0.00240983
0.00374414
0.00379644
0.00412554
0.00256893
0.00178444
0.000262206
7.70537e-05
1.72057e-05
6.93453e-06
3.16384e-06
2.07054e-06
1.27148e-06
2.29738e-06
4.61444e-06
2.47268e-05
0.000101499
0.000219621
0.000137376
6.10838e-05
3.30693e-05
1.9943e-05
1.26481e-05
2.24423e-05
4.04553e-06
1.89297e-06
1.24377e-06
1.06264e-06
8.91096e-07
8.50625e-07
1.04099e-06
1.47658e-06
2.09261e-06
2.77551e-06
3.27136e-06
3.76337e-06
4.08897e-06
5.55934e-06
7.43264e-06
1.30859e-05
2.53473e-05
2.68669e-05
1.38996e-05
6.41866e-06
1.72469e-06
2.17365e-06
2.3379e-06
2.79064e-06
3.12238e-06
3.59188e-06
5.16169e-06
8.15297e-06
9.48419e-06
8.1497e-06
6.67858e-06
6.69972e-06
5.93429e-06
6.3634e-06
8.64888e-06
1.50105e-05
8.81203e-06
3.19285e-06
1.86088e-06
1.45266e-06
1.20397e-06
1.06208e-06
6.85203e-07
4.59294e-07
2.93933e-07
2.1226e-07
1.57691e-07
2.70662e-07
5.20226e-07
1.63369e-06
1.96591e-06
5.42699e-07
9.92456e-07
2.58344e-07
1.24505e-07
1.01945e-07
1.08147e-07
9.76223e-08
9.56262e-08
8.7382e-08
8.9985e-08
9.36178e-08
8.6682e-08
1.16007e-07
9.86018e-08
1.21176e-07
1.05305e-07
9.49633e-08
9.22714e-08
8.88062e-08
8.36578e-08
9.90478e-08
1.36961e-07
1.85267e-07
2.83187e-07
3.53383e-07
4.64066e-07
5.75464e-07
1.16247e-06
4.55645e-06
9.45559e-07
7.82489e-07
9.30907e-07
1.18399e-06
1.2537e-06
1.25233e-06
9.16409e-07
4.99628e-07
3.32777e-07
2.49374e-07
3.09057e-07
3.17108e-07
5.68625e-07
3.97233e-07
2.8806e-07
2.54116e-07
2.38519e-07
2.89143e-07
3.55178e-07
4.65861e-07
6.26323e-07
1.27995e-06
6.67719e-07
3.49232e-07
2.09018e-07
1.54677e-07
1.17204e-07
1.21476e-07
4.07924e-07
4.92715e-07
7.81582e-07
4.96062e-07
4.66537e-07
6.87588e-07
1.15949e-06
2.16535e-06
2.33827e-06
1.18565e-06
1.25918e-06
1.08289e-06
1.11594e-06
7.76819e-07
6.4914e-07
5.50656e-07
4.4063e-07
3.82046e-07
3.0687e-07
2.60988e-07
2.07351e-07
1.91672e-07
1.47659e-07
1.4835e-07
1.20177e-07
1.26678e-07
1.15858e-07
1.1311e-07
9.80473e-08
9.7174e-08
7.30784e-08
9.99701e-08
0.00013576
0.000135919
0.000135928
0.000135932
0.000135938
0.000135938
0.000135946
0.000135943
0.000135951
0.000135947
0.000135955
0.000135953
0.00013596
0.000135962
0.000135965
0.000135966
0.000135961
0.000135959
0.000135954
0.000135951
0.00013595
0.000135946
0.000135946
0.000135941
0.00013594
0.000135934
0.000135932
0.000135926
0.000135913
0.000135778
2.95095e-05
0.000234051
0.000442437
0.00061356
0.000812028
0.0010291
0.00120231
0.00135507
0.00133435
0.00120295
0.000875634
0.000505375
0.000217294
2.4854e-05
0.00037831
0.00221877
0.00410503
0.00551796
0.00689794
0.00815488
0.00981772
0.0111619
0.0129251
0.014375
0.0157888
0.0166907
0.0174551
0.0175085
0.0174611
0.0168645
0.0161256
0.0150271
0.0136428
0.0122539
0.0108256
0.00984249
0.00908821
0.0086876
0.00811379
0.00748556
0.00520411
0.00288071
0.00109235
0.000574901
0.0021893
0.00606069
0.00747222
0.00855443
0.00935091
0.00942596
0.00946927
0.00916053
0.00885927
0.0083169
0.007516
0.00668748
0.00567536
0.00495591
0.00449816
0.00424573
0.00416578
0.00424577
0.00447161
0.0045652
0.00484743
0.00487697
0.00474262
0.00442113
0.00406504
0.00381127
0.00337413
0.00241354
0.00130556
0.000266672
0.0116135
0.0046007
0.0051556
0.00544915
0.00572552
0.00652228
0.00823468
0.010597
0.013883
0.0165351
0.0193999
0.0222578
0.0245207
0.0264915
0.0282548
0.0283144
0.0299576
0.0283692
0.0299296
0.0267987
0.023928
0.0202891
0.0174752
0.0152575
0.0130923
0.010677
0.00770243
0.00455949
0.00204538
0.000246871
0.00878238
0.00750112
0.0084653
0.00932723
0.0101008
0.0105614
0.0110911
0.0115644
0.0120973
0.0124512
0.0125565
0.0126055
0.0124422
0.0121997
0.0118042
0.0113561
0.0104449
0.0102552
0.00949597
0.00914563
0.00843818
0.00772962
0.00700021
0.0062085
0.00551329
0.00480894
0.00358136
0.002307
0.00138036
0.000268891
0.000215472
0.00197143
0.00349179
0.00482612
0.00605703
0.00655495
0.00698987
0.00779488
0.00925466
0.0109369
0.0126813
0.0137127
0.0140739
0.0138459
0.0155788
0.0165217
0.0201512
0.0225604
0.0244686
0.024947
0.0236469
0.0189442
0.0137502
0.00878951
0.00655048
0.00494709
0.0036472
0.00219146
0.00094566
0.000162022
0.00259127
0.00524056
0.00844053
0.0101981
0.0112611
0.0116844
0.0113539
0.0122174
0.0130768
0.0156357
0.0172821
0.0205209
0.0216292
0.0207563
0.0197075
0.0198256
0.0208409
0.0198167
0.0192444
0.019567
0.0183584
0.014024
0.00775307
0.00312639
0.00137756
0.000497083
0.000146015
5.08356e-05
2.27141e-05
7.67385e-07
8.83325e-06
0.000122122
0.000229241
0.000307017
0.000326389
0.000253061
0.000190334
0.000130846
9.55866e-05
6.85543e-05
5.64744e-05
5.60293e-05
6.39691e-05
7.12324e-05
6.16979e-05
5.46616e-05
4.58754e-05
4.83251e-05
4.83611e-05
4.9159e-05
4.60952e-05
4.16607e-05
4.10768e-05
3.67973e-05
3.30107e-05
2.80211e-05
2.03856e-05
1.40026e-05
9.71084e-06
3.29122e-06
1.79946e-06
4.52703e-06
5.84524e-06
7.7528e-06
9.17845e-06
1.09829e-05
1.37644e-05
1.78121e-05
2.25372e-05
2.63958e-05
2.98559e-05
3.02468e-05
2.86749e-05
2.71496e-05
2.35942e-05
2.18421e-05
2.0064e-05
1.80436e-05
1.5967e-05
1.30516e-05
9.44948e-06
7.8517e-06
5.9128e-06
5.00979e-06
3.51723e-06
2.37431e-06
1.68785e-06
1.11593e-06
9.45037e-07
9.38703e-07
1.48175e-06
3.06902e-06
4.57108e-06
4.54795e-06
5.02636e-06
4.61616e-06
5.25212e-06
5.70716e-06
6.0256e-06
6.7877e-06
7.06409e-06
8.33081e-06
8.32803e-06
9.12026e-06
8.44304e-06
7.2716e-06
6.42534e-06
5.39102e-06
4.29636e-06
3.46725e-06
2.98301e-06
2.71003e-06
2.69794e-06
2.87707e-06
2.89475e-06
2.60097e-06
2.08498e-06
1.54075e-06
1.40593e-06
2.35565e-06
4.91686e-07
1.66661e-06
1.54668e-06
1.49993e-06
1.47829e-06
1.49613e-06
1.49477e-06
1.47455e-06
1.38474e-06
1.47053e-06
1.35699e-06
1.43056e-06
1.52375e-06
1.98357e-06
2.65231e-06
3.22904e-06
3.72064e-06
3.52041e-06
3.07944e-06
2.43685e-06
2.1932e-06
2.60359e-06
3.09485e-06
3.27448e-06
2.88148e-06
2.22485e-06
1.61087e-06
1.21232e-06
1.17071e-06
7.93955e-07
4.48572e-07
1.29619e-06
1.22034e-06
1.13738e-06
1.21565e-06
1.20822e-06
1.29819e-06
1.20744e-06
1.28347e-06
1.20194e-06
1.31372e-06
1.22522e-06
1.34321e-06
1.22036e-06
1.34432e-06
1.20011e-06
1.31383e-06
1.24496e-06
1.29859e-06
1.25438e-06
1.31561e-06
1.20507e-06
1.29935e-06
1.25664e-06
1.35512e-06
1.37714e-06
1.55408e-06
1.7362e-06
3.52789e-06
8.70868e-08
0.000137636
0.000492221
0.000512561
0.000512514
0.000512643
0.000512465
0.000512669
0.000512479
0.000512645
0.000512408
0.000512523
0.000512248
0.000512256
0.000511991
0.000512047
0.000511887
0.000512086
0.000512034
0.000512278
0.000512237
0.000512493
0.000512406
0.000512634
0.000512498
0.000512684
0.000512495
0.000512625
0.000512374
0.000491836
0.000137547
6.14474e-05
0.000463759
0.000918893
0.00132514
0.00172209
0.0021233
0.00231348
0.00250798
0.00239496
0.00225097
0.00186145
0.00128089
0.000633379
8.8821e-05
0.00156068
0.00415345
0.00542288
0.00644428
0.00747073
0.00863589
0.00968187
0.0111134
0.0120735
0.0133843
0.0145878
0.0156395
0.0164647
0.016874
0.017059
0.0167474
0.0156356
0.0146111
0.0131776
0.0119421
0.0104433
0.00965277
0.00879286
0.00854987
0.00832934
0.00733704
0.00551774
0.00317128
0.00150261
0.000976424
0.00189238
0.00708928
0.00820672
0.00999755
0.01107
0.0111169
0.0106158
0.0100964
0.00966617
0.00904783
0.00808292
0.00720742
0.00636295
0.00517928
0.00516972
0.00449788
0.00459766
0.00456129
0.00470335
0.00480267
0.00486003
0.00496655
0.0048252
0.0046248
0.00435577
0.00418822
0.00378903
0.00290512
0.00188663
0.000270789
0.00863971
0.00482633
0.00514017
0.00547023
0.0062849
0.00818418
0.0107184
0.0127442
0.0145633
0.0154212
0.0167894
0.0178094
0.0194756
0.0206539
0.0226488
0.0232673
0.0263338
0.024995
0.027559
0.0252597
0.0228292
0.0199459
0.0169076
0.0143901
0.0121196
0.00987889
0.0073007
0.00473472
0.00270897
0.000305921
0.0062064
0.00829184
0.00881157
0.00933055
0.010166
0.0110444
0.0119546
0.0129861
0.0137637
0.0142554
0.0142421
0.0138434
0.0132694
0.0127662
0.0120596
0.0115619
0.0107522
0.01004
0.00971133
0.00921056
0.00876962
0.00811783
0.0075608
0.00708042
0.00688987
0.00628749
0.00522333
0.00398482
0.00304235
0.000555068
0.00031113
0.00324851
0.00487005
0.00588866
0.00711879
0.00810004
0.00997946
0.0128713
0.0154635
0.0168774
0.0165994
0.0175932
0.0180452
0.0196829
0.0217935
0.0254715
0.0264273
0.029016
0.0286506
0.0282791
0.0267175
0.024671
0.0192536
0.0141326
0.00881764
0.00631944
0.00463119
0.00268673
0.00118216
0.000198251
0.00456512
0.0078336
0.0101734
0.0115211
0.0125357
0.0124899
0.0138083
0.0143679
0.0177257
0.0210888
0.0258875
0.0294132
0.0287566
0.027331
0.0280121
0.0270585
0.0252012
0.0235034
0.0213151
0.0213508
0.0205475
0.0175006
0.0130559
0.00792128
0.00502391
0.00284299
0.00141884
0.000485939
0.000113231
1.60936e-06
2.43518e-05
0.000504944
0.000914669
0.00114498
0.000983005
0.000668523
0.000380749
0.000201112
0.000115597
8.2035e-05
8.18506e-05
8.96807e-05
0.00010023
0.00010023
8.73627e-05
7.27575e-05
6.42522e-05
6.63316e-05
7.12091e-05
7.17831e-05
6.73018e-05
6.49252e-05
5.6523e-05
5.15649e-05
4.70688e-05
3.72336e-05
2.93876e-05
2.12826e-05
1.60585e-05
2.44946e-06
1.76374e-06
7.32404e-06
9.61128e-06
1.25929e-05
1.45577e-05
1.66971e-05
1.97293e-05
2.37171e-05
2.95994e-05
3.41342e-05
3.65452e-05
3.63196e-05
3.46892e-05
3.01268e-05
2.67277e-05
2.21977e-05
2.01698e-05
1.80423e-05
1.50419e-05
1.26484e-05
9.57418e-06
7.54481e-06
6.73777e-06
5.30716e-06
4.18412e-06
3.43323e-06
2.43406e-06
1.74788e-06
1.76986e-06
4.86605e-07
1.22307e-06
3.24365e-06
4.13823e-06
3.53782e-06
4.02317e-06
3.75778e-06
4.8346e-06
5.51129e-06
6.67609e-06
7.53024e-06
8.8891e-06
9.81728e-06
1.0279e-05
1.01364e-05
9.4769e-06
7.96822e-06
6.78739e-06
5.45775e-06
4.59378e-06
3.92667e-06
3.23421e-06
2.94355e-06
2.88306e-06
2.8761e-06
2.96224e-06
2.81701e-06
2.47873e-06
1.99342e-06
1.86418e-06
3.14252e-06
7.16052e-07
1.94649e-06
1.82839e-06
1.69048e-06
1.59438e-06
1.57245e-06
1.54542e-06
1.5302e-06
1.51946e-06
1.51567e-06
1.50076e-06
1.5852e-06
1.67268e-06
2.26938e-06
2.75994e-06
3.7736e-06
4.21232e-06
4.5522e-06
4.14056e-06
3.66502e-06
3.00849e-06
2.95137e-06
3.26618e-06
3.36294e-06
2.95321e-06
2.30756e-06
1.75403e-06
1.59483e-06
1.47214e-06
5.10946e-07
3.45166e-07
1.61411e-06
1.30812e-06
1.35121e-06
1.30414e-06
1.41795e-06
1.32792e-06
1.47042e-06
1.36992e-06
1.49734e-06
1.42619e-06
1.59552e-06
1.50632e-06
1.66133e-06
1.57104e-06
1.74624e-06
1.63324e-06
1.78042e-06
1.68601e-06
1.74121e-06
1.57471e-06
1.60178e-06
1.27064e-06
1.25658e-06
9.61858e-07
7.89053e-07
6.91437e-07
7.12983e-07
1.10988e-06
1.10813e-07
6.56143e-05
9.65082e-05
0.000436337
0.000634934
0.000635007
0.000634698
0.000634752
0.000634428
0.000634479
0.000634147
0.000634156
0.000633777
0.000633687
0.000633206
0.00063314
0.000632895
0.000633228
0.000633341
0.000633813
0.000633843
0.00063421
0.000634212
0.00063456
0.000634538
0.000634875
0.000634842
0.000635103
0.000634949
0.00061595
0.000176171
0.00011934
0.000887956
0.0016209
0.00225125
0.0027863
0.00317527
0.00349358
0.00385477
0.00396337
0.00393887
0.00361155
0.00301515
0.00191584
0.000235419
0.00512389
0.00496984
0.00580929
0.00663877
0.00765751
0.00851068
0.00957606
0.0102659
0.0114081
0.0119062
0.0126552
0.0134679
0.0143557
0.0149179
0.0159183
0.0157467
0.015195
0.014284
0.0129679
0.0116996
0.0105239
0.00969856
0.00858574
0.00880192
0.00851789
0.00786772
0.00599241
0.0037694
0.00202777
0.00256575
0.00201819
0.00805826
0.00940209
0.0126029
0.0139508
0.0132732
0.0119455
0.0108982
0.0103321
0.00957698
0.00888789
0.00767741
0.007022
0.00588827
0.00565939
0.00510095
0.00506441
0.00509616
0.00499935
0.00495668
0.00484748
0.00488355
0.00489428
0.00478079
0.00474622
0.00472608
0.00449623
0.00382343
0.00294937
0.000378756
0.00742957
0.00534657
0.00553539
0.00614315
0.0079231
0.0102859
0.0121445
0.012945
0.0133989
0.0130381
0.0132882
0.0126377
0.0130157
0.0127948
0.0144811
0.0153169
0.0179571
0.0184335
0.0200888
0.0208502
0.0196183
0.0176417
0.0154738
0.0130549
0.0112505
0.00934666
0.0074469
0.00568633
0.00451414
0.000566161
0.00445049
0.0096261
0.00964444
0.0100641
0.0108078
0.0119479
0.0131586
0.0148276
0.0161415
0.0165538
0.0163236
0.015427
0.0142981
0.013262
0.012283
0.011648
0.011166
0.0104575
0.0101003
0.0100091
0.00969723
0.00937978
0.00900458
0.00878244
0.00845381
0.00764715
0.00667157
0.00581107
0.00508426
0.00123538
0.000682863
0.0055301
0.00650226
0.00737723
0.00901757
0.0116203
0.0156731
0.0187665
0.0197309
0.0192597
0.0213275
0.0223066
0.0240062
0.0262804
0.0291984
0.0311829
0.0338703
0.0299373
0.0271837
0.0230679
0.0222442
0.0211643
0.0193604
0.0148513
0.0116061
0.00869209
0.00701782
0.00498801
0.00256445
0.000407615
0.00665061
0.00906103
0.0109785
0.0126515
0.0137025
0.0157323
0.0169297
0.0201027
0.0240803
0.0294914
0.0359603
0.0372173
0.0352742
0.0345994
0.0340119
0.0316587
0.02668
0.0225655
0.0216228
0.0198839
0.0193079
0.0183591
0.0164405
0.0150277
0.0125809
0.00970843
0.00554175
0.00257352
0.000743918
1.54968e-05
7.43752e-05
0.00190894
0.00294557
0.00321289
0.0026385
0.00168129
0.000927424
0.000446544
0.000257019
0.000196455
0.000184306
0.000187883
0.000189255
0.000176818
0.000136924
0.000118558
0.000102954
0.00011061
0.000113979
0.000113973
0.000115933
0.000105532
9.92859e-05
9.02096e-05
7.05448e-05
5.71671e-05
4.46831e-05
3.39766e-05
2.95891e-05
3.99555e-06
1.97704e-06
1.27919e-05
1.74221e-05
2.26479e-05
2.72842e-05
3.24149e-05
3.9155e-05
4.76278e-05
5.68249e-05
6.27457e-05
6.18184e-05
5.69874e-05
5.3382e-05
4.36069e-05
3.91044e-05
3.19124e-05
2.61197e-05
2.21575e-05
1.71291e-05
1.2058e-05
8.87841e-06
7.23979e-06
6.54472e-06
5.71774e-06
5.2314e-06
4.18385e-06
3.60811e-06
2.8429e-06
2.86719e-06
4.59744e-07
1.50735e-06
4.20731e-06
5.10709e-06
4.70633e-06
5.43242e-06
6.4859e-06
8.52087e-06
1.14488e-05
1.35303e-05
1.62594e-05
1.69333e-05
1.75199e-05
1.61733e-05
1.54746e-05
1.31103e-05
1.04667e-05
7.46324e-06
5.69606e-06
4.63002e-06
4.21206e-06
3.68332e-06
3.19777e-06
3.06284e-06
3.07872e-06
3.03189e-06
2.9695e-06
2.64066e-06
2.23384e-06
2.10429e-06
2.14851e-06
1.02553e-06
2.80826e-06
2.65219e-06
2.46295e-06
2.37974e-06
2.28449e-06
2.28651e-06
2.19603e-06
2.06197e-06
1.89051e-06
1.79482e-06
1.77895e-06
1.93794e-06
2.03017e-06
3.03506e-06
4.0546e-06
5.18547e-06
5.16161e-06
5.1696e-06
4.44129e-06
3.90119e-06
3.26847e-06
2.97907e-06
2.80945e-06
2.55668e-06
2.08451e-06
1.90808e-06
1.88058e-06
2.01603e-06
4.41921e-07
2.7988e-07
2.06389e-06
1.94247e-06
1.76947e-06
1.71881e-06
1.76112e-06
1.86171e-06
1.80024e-06
1.90377e-06
1.89956e-06
1.94811e-06
1.93068e-06
2.03177e-06
1.97852e-06
2.04567e-06
1.94503e-06
1.99055e-06
1.78822e-06
1.79811e-06
1.47548e-06
1.49338e-06
1.05296e-06
8.81751e-07
6.69619e-07
5.50055e-07
4.74656e-07
4.43813e-07
5.13225e-07
7.0712e-07
1.14707e-07
2.55327e-06
3.02194e-06
1.55131e-05
0.000640343
0.000640397
0.000640365
0.000640367
0.000640338
0.000640343
0.000640313
0.000640314
0.000640276
0.000640271
0.00064022
0.000640219
0.000640196
0.00064023
0.000640238
0.000640289
0.000640292
0.000640335
0.000640334
0.000640376
0.000640374
0.000640424
0.000640409
0.00064048
0.000640187
0.000616718
0.000175182
0.000127184
0.00158718
0.00253662
0.00326638
0.0036425
0.00403424
0.00437529
0.00487366
0.00526302
0.00566062
0.00557928
0.0051945
0.00434756
0.000689528
0.0108269
0.00523341
0.00597764
0.00693673
0.00795405
0.00877806
0.00932308
0.00997655
0.0101912
0.0108996
0.0111494
0.0115706
0.0121634
0.0132265
0.0137954
0.0143048
0.0146885
0.0137788
0.0126275
0.0115931
0.010466
0.00953665
0.00885551
0.00845268
0.00882395
0.00810276
0.00683599
0.00511536
0.00331232
0.00201547
0.00200951
0.00880338
0.0111056
0.0154045
0.0162056
0.0145106
0.0123051
0.0108915
0.0100164
0.00937497
0.00871814
0.00755003
0.00705699
0.0061661
0.00584356
0.0054903
0.00535602
0.00506311
0.00478551
0.00468977
0.00454969
0.00465369
0.00475165
0.00487832
0.00499259
0.00528918
0.00549336
0.00520657
0.00461984
0.000719783
0.00752813
0.0061421
0.00633962
0.00779828
0.00991157
0.0117864
0.0125994
0.0127004
0.0132902
0.0131466
0.0134699
0.0125203
0.0116368
0.00972216
0.00920783
0.0090753
0.0102566
0.0117267
0.0129428
0.0137477
0.014673
0.0135995
0.0126019
0.0113987
0.0102423
0.00903104
0.0078349
0.00703538
0.00659171
0.00105379
0.00364485
0.0111788
0.01106
0.0112583
0.0120268
0.0131788
0.0154334
0.0177075
0.0191531
0.0197254
0.0185356
0.0171313
0.01531
0.0135242
0.0125071
0.011701
0.0110972
0.0110485
0.0110392
0.0112062
0.0112651
0.0111088
0.0108344
0.0103256
0.00952302
0.00858474
0.00781135
0.00729436
0.00706095
0.00220613
0.00135205
0.00764142
0.00796376
0.00925867
0.0119641
0.0166019
0.020471
0.0215435
0.0214107
0.0233095
0.0250303
0.0261743
0.028336
0.0321294
0.0357355
0.0375351
0.0360923
0.0358179
0.0283182
0.0235226
0.0179384
0.0168059
0.0159462
0.0144808
0.012005
0.0102916
0.00950906
0.00921071
0.00714217
0.00126175
0.0103092
0.0103223
0.0124269
0.0146582
0.0173996
0.0189148
0.0221634
0.0252102
0.0305241
0.0368005
0.0399575
0.0383283
0.0390058
0.0400902
0.0400529
0.0347092
0.0287972
0.0225413
0.0225371
0.0197306
0.0181445
0.0162753
0.0161558
0.0167123
0.0164248
0.0145487
0.0125014
0.00792976
0.00337982
4.7485e-05
0.000271272
0.00587692
0.00737177
0.00727763
0.005558
0.00371539
0.00212249
0.00119884
0.000792143
0.000549442
0.000472033
0.000457178
0.00044941
0.00038962
0.000287592
0.000216361
0.000190227
0.000189737
0.000195933
0.000200419
0.000190079
0.000176383
0.000173585
0.000139151
0.000114402
8.7503e-05
6.67897e-05
5.26574e-05
4.84311e-05
7.93852e-06
2.13758e-06
2.23018e-05
3.06483e-05
3.94116e-05
4.77713e-05
5.77931e-05
7.27297e-05
8.67677e-05
9.71266e-05
0.000101389
0.0001008
9.09291e-05
8.44975e-05
6.90852e-05
5.74895e-05
4.87672e-05
4.09609e-05
3.28267e-05
2.35306e-05
1.60069e-05
1.03758e-05
7.95274e-06
6.01797e-06
5.6857e-06
5.19298e-06
5.08134e-06
4.41846e-06
3.89203e-06
3.93988e-06
5.66807e-07
2.10743e-06
6.34009e-06
7.19663e-06
7.03828e-06
9.18202e-06
1.10776e-05
1.65274e-05
2.12195e-05
2.62059e-05
2.89085e-05
3.24576e-05
3.31458e-05
3.38266e-05
3.385e-05
2.562e-05
2.06753e-05
1.48794e-05
9.92453e-06
6.84458e-06
4.93921e-06
3.76933e-06
3.34824e-06
3.03001e-06
2.90246e-06
2.98182e-06
2.91326e-06
2.76368e-06
2.65802e-06
2.77673e-06
1.20987e-06
1.45878e-06
4.03389e-06
3.74214e-06
3.46449e-06
3.52426e-06
3.57349e-06
3.53036e-06
3.31943e-06
3.04013e-06
2.96071e-06
2.6525e-06
2.69084e-06
2.87255e-06
3.13401e-06
3.32417e-06
4.83046e-06
5.25453e-06
6.36106e-06
6.26525e-06
5.78654e-06
4.7921e-06
4.05035e-06
3.05521e-06
2.7959e-06
2.40652e-06
2.29964e-06
2.22578e-06
2.48765e-06
2.86722e-06
7.80966e-07
2.31955e-07
2.80973e-06
2.40676e-06
2.08165e-06
2.01308e-06
1.9753e-06
2.0409e-06
2.22e-06
2.18956e-06
2.29437e-06
2.27251e-06
2.2937e-06
2.17681e-06
2.18067e-06
1.99024e-06
1.96663e-06
1.72982e-06
1.69797e-06
1.28973e-06
1.21772e-06
8.77078e-07
6.6466e-07
5.50557e-07
4.97333e-07
4.53856e-07
4.40775e-07
4.78831e-07
5.65017e-07
6.59584e-07
1.20968e-07
3.46701e-07
1.00636e-06
6.47098e-07
1.6536e-06
0.000573805
0.000624492
0.000624317
0.000624504
0.000624318
0.000624502
0.000624319
0.000624491
0.000624311
0.000624478
0.000624301
0.00062447
0.000624305
0.000624474
0.000624315
0.000624494
0.000624319
0.000624498
0.000624323
0.000624497
0.000624322
0.000624496
0.000624345
0.000624185
0.000601026
0.000169664
0.000124455
0.00268461
0.00370058
0.00419187
0.00444793
0.00472222
0.00505448
0.00567078
0.00636895
0.00713926
0.00742353
0.00741468
0.00712653
0.00121377
0.0154199
0.00538123
0.00625085
0.00741998
0.00835395
0.00864317
0.00883923
0.00886177
0.00904678
0.00899922
0.00946126
0.00982531
0.0101677
0.0113274
0.0116986
0.0129893
0.0136589
0.0131708
0.0125203
0.0112887
0.0101784
0.00905745
0.00846336
0.00826145
0.0085634
0.00876805
0.00823436
0.00762218
0.00557825
0.00152237
0.00219337
0.00964768
0.0129741
0.0167833
0.016765
0.0140373
0.0115179
0.00997908
0.00910586
0.00849046
0.0077681
0.00694338
0.00635571
0.00584126
0.00545115
0.00512739
0.00475708
0.00447911
0.00426338
0.00417403
0.00424042
0.00449046
0.00465642
0.00482039
0.0052972
0.00593399
0.00675054
0.00705227
0.00681769
0.00143309
0.00799629
0.00741837
0.00821965
0.00996339
0.011567
0.012055
0.012784
0.0135349
0.0145344
0.0149672
0.0155677
0.0149669
0.0146038
0.0125985
0.0109968
0.00882994
0.00765917
0.00735098
0.00826105
0.00865744
0.00988168
0.0103619
0.0103465
0.0100545
0.00978674
0.00911626
0.00869451
0.00846788
0.00842492
0.0019549
0.00326652
0.0133522
0.0129922
0.0131428
0.0136514
0.0152197
0.0181163
0.0214257
0.0233534
0.0234035
0.0222954
0.0196834
0.0177607
0.0153623
0.0136014
0.0123805
0.0124344
0.0125223
0.0128416
0.0134433
0.0134461
0.0130593
0.0123211
0.0112189
0.0101391
0.00911326
0.00866569
0.00841271
0.00863642
0.00326108
0.00240645
0.00923278
0.00967831
0.0119202
0.0162287
0.0209607
0.0227355
0.0215877
0.0249767
0.0252086
0.0265016
0.0281612
0.0317781
0.037039
0.0405305
0.0406353
0.039371
0.0334441
0.0301977
0.0226564
0.0169326
0.0140427
0.0130637
0.0114782
0.0104416
0.0109664
0.0131684
0.0146021
0.0138286
0.00303721
0.0250668
0.0128218
0.0161167
0.0186991
0.0208825
0.0238977
0.0266072
0.0302283
0.0351365
0.039652
0.0397186
0.0402203
0.0422815
0.0438655
0.0423469
0.0362731
0.0281253
0.0258185
0.023007
0.0213706
0.0189885
0.0167473
0.0143938
0.0144094
0.0155384
0.0163466
0.0147251
0.0113987
0.00714369
0.000297388
0.000731062
0.0108465
0.011607
0.0115347
0.00943404
0.00686259
0.00482797
0.00344367
0.00247423
0.00172946
0.00159377
0.00166312
0.00153997
0.00118319
0.000748022
0.000491277
0.00037831
0.000353467
0.000347634
0.000369211
0.000385029
0.00038059
0.000345238
0.000275557
0.000212718
0.000149944
0.000106876
7.31561e-05
6.86869e-05
1.44177e-05
2.37857e-06
4.03398e-05
5.7357e-05
7.09373e-05
8.42497e-05
9.55671e-05
0.000114045
0.000130926
0.00014626
0.000147863
0.000140187
0.000130124
0.000108604
9.92615e-05
7.91571e-05
6.57204e-05
5.77671e-05
4.5547e-05
3.11206e-05
1.90529e-05
1.37541e-05
9.95e-06
7.74459e-06
6.03343e-06
5.01417e-06
5.20188e-06
5.13292e-06
4.84753e-06
5.02223e-06
8.76535e-07
2.77192e-06
9.00898e-06
8.8932e-06
1.18516e-05
1.35095e-05
2.06064e-05
2.63917e-05
3.46768e-05
4.11282e-05
4.87596e-05
4.98516e-05
5.74685e-05
5.50971e-05
5.59158e-05
4.13561e-05
3.4617e-05
2.30216e-05
1.51898e-05
1.011e-05
7.13721e-06
5.00985e-06
3.90477e-06
3.14057e-06
2.79707e-06
2.73231e-06
2.87983e-06
2.81526e-06
3.17488e-06
3.89429e-06
9.49091e-07
2.21706e-06
5.23954e-06
4.8661e-06
4.78466e-06
4.72351e-06
4.78213e-06
4.59838e-06
4.49869e-06
4.41933e-06
3.92341e-06
4.3887e-06
4.41118e-06
4.87622e-06
5.78752e-06
5.41521e-06
6.5929e-06
7.5152e-06
7.36085e-06
7.30547e-06
6.65753e-06
5.91134e-06
4.78259e-06
3.81637e-06
3.03854e-06
2.66888e-06
2.321e-06
2.49286e-06
3.04877e-06
4.25043e-06
1.1367e-06
2.08996e-07
3.17014e-06
2.70081e-06
2.63836e-06
2.69494e-06
2.63544e-06
2.50143e-06
2.39099e-06
2.44275e-06
2.30855e-06
2.29604e-06
2.15719e-06
2.08357e-06
1.85887e-06
1.80295e-06
1.49211e-06
1.44487e-06
1.0539e-06
8.60556e-07
6.79254e-07
5.76302e-07
5.28241e-07
5.21801e-07
4.87176e-07
4.76432e-07
4.66273e-07
4.88303e-07
5.61683e-07
6.52659e-07
1.43965e-07
1.00116e-07
3.30594e-06
8.23322e-06
4.77157e-06
9.16273e-07
0.000349429
0.000604686
0.00060479
0.000604685
0.000604793
0.000604685
0.000604787
0.000604676
0.000604774
0.000604669
0.000604772
0.000604671
0.000604775
0.000604679
0.000604787
0.000604688
0.00060479
0.000604685
0.000604785
0.000604683
0.000604786
0.000604711
0.000604534
0.000582344
0.000163997
0.000201327
0.00390085
0.00475311
0.005044
0.00512526
0.00538923
0.00577164
0.00656855
0.00763698
0.00900131
0.00920571
0.00920024
0.00936404
0.00171582
0.0200556
0.00550013
0.00670408
0.00777697
0.00816953
0.00800011
0.00760513
0.00762103
0.00747392
0.00752314
0.00752035
0.00810699
0.00847424
0.00966885
0.0100406
0.0117021
0.0124312
0.0125762
0.0118534
0.0105298
0.00935647
0.00835325
0.00797317
0.00856141
0.00904206
0.00922585
0.00954961
0.00985444
0.00861141
0.00218189
0.00279282
0.0111364
0.0143121
0.0165241
0.0156167
0.0128335
0.0106901
0.00944951
0.00861079
0.00804921
0.00728506
0.00659773
0.00615101
0.00558215
0.00500997
0.00461524
0.00429224
0.00408026
0.0039802
0.00415751
0.00441609
0.00455776
0.00474131
0.00519947
0.00608073
0.00721251
0.00827552
0.00906871
0.00935213
0.00245936
0.00961733
0.00984904
0.0110275
0.0118559
0.01189
0.0126072
0.0138093
0.0148404
0.0162927
0.0170649
0.0177165
0.0175233
0.0173942
0.015802
0.0143101
0.0118652
0.00971865
0.00772804
0.00717921
0.00755123
0.00807383
0.0090612
0.00984067
0.0101265
0.0102107
0.00999019
0.00967694
0.00956376
0.00918784
0.00337209
0.00332774
0.0162517
0.0159086
0.015414
0.0157923
0.0175883
0.0218848
0.0261375
0.0290095
0.0288545
0.0271049
0.0240524
0.0215731
0.0188647
0.0171849
0.0164705
0.0158268
0.0158629
0.0162492
0.01621
0.0156164
0.0145819
0.0130986
0.0114616
0.00999963
0.00892099
0.00868082
0.00873826
0.00968927
0.00441025
0.0032467
0.010724
0.0120017
0.0151424
0.020443
0.0238302
0.0221103
0.0244984
0.0253794
0.0265595
0.0257563
0.0283443
0.0334602
0.0391211
0.0420329
0.0426689
0.0401603
0.0366789
0.0306465
0.0236891
0.0185471
0.0140093
0.0131124
0.012371
0.0126709
0.0138211
0.0156916
0.0172343
0.0178838
0.00491226
0.0303026
0.0185882
0.0217249
0.0238167
0.0257577
0.0284905
0.0311278
0.0337361
0.0388143
0.0397996
0.0396161
0.0412267
0.0434489
0.0444907
0.0416679
0.0343757
0.0288784
0.0252879
0.0248014
0.0226294
0.0208405
0.0176221
0.0152798
0.0128053
0.0128269
0.014112
0.0150539
0.0133204
0.0105764
0.000642609
0.00261312
0.0188398
0.0169523
0.0171896
0.0143986
0.0116664
0.00940255
0.00738521
0.0063369
0.00624796
0.00683817
0.00721472
0.00655128
0.00457984
0.00283196
0.00163071
0.00108757
0.000751266
0.000745814
0.000788751
0.00097692
0.000952073
0.00082552
0.000646601
0.000468805
0.000331795
0.000264259
0.000162358
0.000117133
4.05808e-05
3.41687e-06
7.99818e-05
0.000104164
0.000128566
0.000146195
0.000164732
0.000183186
0.000206014
0.000222067
0.00022299
0.000214819
0.000186343
0.000180546
0.000153833
0.000143218
0.000120377
9.72884e-05
7.31211e-05
4.43023e-05
2.87788e-05
1.87341e-05
1.32917e-05
1.00851e-05
7.89268e-06
6.31589e-06
5.12206e-06
5.2859e-06
5.54592e-06
6.39557e-06
1.69976e-06
2.94606e-06
1.17885e-05
1.31266e-05
1.58471e-05
2.17552e-05
2.71498e-05
3.86405e-05
4.65331e-05
5.3956e-05
6.08222e-05
7.08845e-05
7.20274e-05
8.12263e-05
7.59258e-05
6.64798e-05
5.51111e-05
3.61748e-05
2.34497e-05
1.4968e-05
9.67964e-06
6.79034e-06
4.99184e-06
3.9574e-06
3.144e-06
2.73854e-06
2.73499e-06
2.91581e-06
3.59453e-06
5.45536e-06
1.07203e-06
2.89021e-06
7.99636e-06
7.0212e-06
6.3892e-06
5.96594e-06
5.89799e-06
6.06983e-06
5.81881e-06
6.19267e-06
6.29297e-06
8.02198e-06
9.28575e-06
9.30186e-06
1.09999e-05
9.56738e-06
1.05251e-05
1.06083e-05
1.04905e-05
9.14976e-06
8.08626e-06
6.8152e-06
5.40379e-06
4.58705e-06
3.59381e-06
3.05153e-06
2.98124e-06
3.04631e-06
3.78655e-06
4.91776e-06
9.82043e-07
1.18855e-07
3.4082e-06
3.31349e-06
3.68679e-06
3.96987e-06
3.72788e-06
3.21726e-06
2.8541e-06
2.49493e-06
2.3889e-06
2.13037e-06
2.01281e-06
1.6889e-06
1.61519e-06
1.22365e-06
1.05892e-06
8.41773e-07
6.94351e-07
6.20859e-07
5.91839e-07
5.50732e-07
5.541e-07
5.27683e-07
5.22135e-07
4.71182e-07
4.98844e-07
4.71821e-07
5.4263e-07
6.41263e-07
2.09904e-07
5.9673e-08
7.05318e-07
1.46386e-06
3.73929e-06
1.56468e-05
8.8463e-07
0.00029486
0.000572914
0.00057286
0.000572924
0.000572867
0.000572924
0.000572865
0.000572915
0.000572869
0.000572914
0.000572877
0.000572922
0.000572872
0.000572926
0.000572873