/*--------------------------------*- C++ -*----------------------------------*\
| =========                 |                                                 |
| \\      /  F ield         | OpenFOAM: The Open Source CFD Toolbox           |
|  \\    /   O peration     | Version:  2.1.1                                 |
|   \\  /    A nd           | Web:      www.OpenFOAM.org                      |
|    \\/     M anipulation  |                                                 |
\*---------------------------------------------------------------------------*/
FoamFile
{
    version     2.0;
    format      ascii;
    class       volScalarField;
    location    "0.003350000";
    object      N2;
}
// * * * * * * * * * * * * * * * * * * * * * * * * * * * * * * * * * * * * * //

dimensions      [0 0 0 0 0 0 0];

internalField   nonuniform List<scalar> 
12384
(
0.74969
0.750084
0.750501
0.751046
0.751634
0.75229
0.753007
0.752982
0.75264
0.751736
0.749589
0.747116
0.746063
0.746196
0.75185
0.751977
0.751833
0.751423
0.750934
0.750449
0.750135
0.749899
0.749795
0.749667
0.749668
0.749642
0.749555
0.749534
0.749481
0.749562
0.74981
0.749995
0.750125
0.750239
0.750634
0.751253
0.751988
0.75259
0.753115
0.753207
0.752264
0.750119
0.746712
0.745063
0.74763
0.747135
0.747436
0.747654
0.747747
0.747673
0.747401
0.746975
0.746474
0.74571
0.745082
0.744523
0.744024
0.743722
0.743616
0.743603
0.743654
0.74377
0.743897
0.744145
0.744407
0.744658
0.74481
0.745033
0.746119
0.748232
0.750449
0.751532
0.751077
0.748414
0.744669
0.74436
0.744405
0.744163
0.743766
0.743558
0.743706
0.744155
0.744815
0.74537
0.745836
0.745998
0.746266
0.746027
0.746232
0.746265
0.745395
0.745934
0.744742
0.745632
0.744944
0.745263
0.744651
0.744821
0.743965
0.743157
0.742404
0.74488
0.748792
0.748207
0.745397
0.744167
0.743737
0.743206
0.74275
0.742301
0.741962
0.741924
0.742113
0.742446
0.742954
0.743302
0.743647
0.743955
0.744562
0.745058
0.745595
0.746042
0.746373
0.746464
0.746247
0.745868
0.745655
0.746072
0.748209
0.751206
0.751401
0.749322
0.747237
0.746835
0.750148
0.749874
0.749271
0.748578
0.74738
0.746562
0.745689
0.745147
0.744643
0.744487
0.744997
0.746632
0.749159
0.749728
0.749506
0.747791
0.747151
0.746226
0.746475
0.746546
0.747502
0.748302
0.750331
0.751772
0.752643
0.752498
0.751984
0.750867
0.749531
0.748959
0.74984
0.749229
0.747509
0.744592
0.740686
0.73729
0.73323
0.731099
0.729451
0.730011
0.735254
0.744535
0.749805
0.752646
0.753118
0.753228
0.753273
0.753634
0.753824
0.754146
0.754165
0.75394
0.753767
0.75345
0.753439
0.753264
0.752943
0.752386
0.752397
0.752294
0.751099
0.751031
0.750678
0.74966
0.748301
0.747595
0.747229
0.747213
0.747313
0.747693
0.74773
0.748036
0.7495
0.751907
0.753309
0.753602
0.753799
0.753862
0.753729
0.753749
0.753828
0.753879
0.753875
0.753838
0.753701
0.753544
0.753203
0.752791
0.752276
0.751967
0.752384
0.753096
0.75333
0.753679
0.753837
0.753849
0.753801
0.753716
0.753442
0.753181
0.75284
0.752543
0.751943
0.751495
0.751203
0.750466
0.750218
0.75014
0.749745
0.749691
0.750103
0.750249
0.750099
0.749639
0.749188
0.748017
0.747236
0.746555
0.746706
0.74672
0.750566
0.75094
0.751619
0.752859
0.752259
0.752721
0.752322
0.752008
0.751411
0.750701
0.750525
0.750011
0.749668
0.749548
0.748662
0.748742
0.74803
0.747257
0.74687
0.746685
0.746627
0.747102
0.747916
0.748481
0.748883
0.74858
0.747391
0.7463
0.746147
0.745539
0.754051
0.753878
0.753812
0.753977
0.754056
0.754157
0.754131
0.754098
0.754042
0.753908
0.753737
0.753721
0.753778
0.753337
0.7533
0.752908
0.752669
0.752104
0.751793
0.75095
0.750174
0.749563
0.748915
0.748555
0.748029
0.747673
0.747226
0.747129
0.747387
0.747696
0.753297
0.753973
0.75344
0.754116
0.753756
0.754234
0.753484
0.753998
0.75339
0.753707
0.753098
0.753271
0.752785
0.752809
0.752415
0.752194
0.751936
0.751482
0.751305
0.750941
0.75087
0.750164
0.750665
0.74923
0.750034
0.749121
0.749436
0.748124
0.746163
0.745642
0.744756
0.744815
0.744819
0.744821
0.744822
0.744823
0.744824
0.744825
0.744826
0.744828
0.744829
0.74483
0.744832
0.744835
0.744837
0.744837
0.744836
0.744833
0.744831
0.744829
0.744828
0.744827
0.744825
0.744824
0.744823
0.744822
0.74482
0.744819
0.744815
0.744756
0.749049
0.746508
0.744245
0.742278
0.742633
0.744785
0.74638
0.748971
0.751321
0.752323
0.751876
0.749505
0.74688
0.746529
0.752547
0.752228
0.751136
0.749958
0.749232
0.748702
0.748597
0.748512
0.748649
0.748751
0.748939
0.749091
0.749179
0.749095
0.748854
0.748524
0.748292
0.748306
0.748334
0.748441
0.748854
0.749831
0.750897
0.752073
0.752915
0.753191
0.752245
0.749806
0.746359
0.745088
0.747658
0.74762
0.748296
0.748657
0.748633
0.748541
0.748485
0.748355
0.747858
0.746946
0.745886
0.744371
0.743583
0.742419
0.741908
0.741571
0.741552
0.741731
0.741753
0.742398
0.743052
0.74435
0.745083
0.745501
0.746407
0.748557
0.750667
0.751254
0.750366
0.747899
0.744663
0.744348
0.744211
0.743704
0.743579
0.744615
0.746349
0.747843
0.748903
0.749415
0.749682
0.749699
0.749628
0.749523
0.749247
0.749128
0.748641
0.748195
0.747516
0.746844
0.746295
0.745914
0.745677
0.745563
0.745123
0.744303
0.74297
0.74392
0.747828
0.748362
0.745467
0.744302
0.743612
0.74273
0.74171
0.741461
0.741928
0.743177
0.744429
0.74545
0.746143
0.746449
0.746573
0.746453
0.746653
0.74679
0.747121
0.747491
0.747984
0.748219
0.747881
0.747099
0.746552
0.746765
0.748822
0.751337
0.751398
0.749438
0.747304
0.746706
0.750205
0.749858
0.748862
0.747424
0.745828
0.744917
0.744751
0.745654
0.746582
0.747666
0.748256
0.748112
0.744107
0.740982
0.741245
0.741583
0.743512
0.743683
0.743883
0.743266
0.741762
0.739128
0.740195
0.743336
0.748759
0.751686
0.752389
0.751298
0.749594
0.748972
0.748147
0.746106
0.741869
0.736408
0.731172
0.726871
0.725855
0.72496
0.72711
0.733038
0.741286
0.749235
0.752154
0.752309
0.752285
0.751915
0.752079
0.752612
0.753449
0.753534
0.753955
0.753956
0.753871
0.753634
0.753443
0.753097
0.752765
0.752046
0.752033
0.751916
0.751591
0.750916
0.748286
0.745438
0.742952
0.741587
0.740887
0.741165
0.742688
0.744331
0.746705
0.747763
0.749676
0.751853
0.753035
0.7535
0.75337
0.75302
0.753003
0.753131
0.753278
0.753594
0.753901
0.75414
0.754014
0.753819
0.753436
0.75273
0.752339
0.752008
0.752252
0.752772
0.752927
0.75332
0.753601
0.753867
0.754086
0.75431
0.754302
0.754335
0.754028
0.753724
0.753466
0.753211
0.753304
0.753417
0.753725
0.753467
0.754212
0.754498
0.754353
0.754792
0.754278
0.754786
0.753434
0.752542
0.750746
0.748836
0.747765
0.7486
0.751493
0.752157
0.753445
0.754319
0.754455
0.754712
0.75457
0.754763
0.754714
0.754948
0.755367
0.755191
0.75571
0.755532
0.755952
0.75555
0.755242
0.754184
0.752914
0.751821
0.751789
0.752455
0.752887
0.753787
0.754797
0.754913
0.753609
0.751157
0.749182
0.747176
0.754761
0.754417
0.75448
0.754595
0.754508
0.754568
0.754647
0.754481
0.754717
0.754819
0.754596
0.754706
0.754442
0.754691
0.75467
0.754419
0.754231
0.753946
0.753887
0.753947
0.753355
0.753007
0.753084
0.753365
0.752937
0.752509
0.751575
0.750702
0.749948
0.749068
0.754979
0.754976
0.754601
0.754886
0.755154
0.755027
0.755079
0.75474
0.755015
0.754354
0.754764
0.754084
0.754661
0.753867
0.754647
0.753733
0.754641
0.753917
0.754962
0.754598
0.755755
0.755517
0.756187
0.756742
0.756804
0.757517
0.756339
0.756473
0.754772
0.755633
0.745672
0.746766
0.746853
0.746855
0.746882
0.746882
0.746912
0.746911
0.746939
0.746938
0.746966
0.74697
0.747005
0.747021
0.747052
0.747047
0.747041
0.747004
0.746987
0.746959
0.746955
0.746926
0.746923
0.746894
0.746892
0.746865
0.746861
0.74684
0.746768
0.745668
0.738886
0.732913
0.727846
0.725608
0.726638
0.728857
0.731874
0.736405
0.74173
0.74756
0.751552
0.752033
0.749463
0.748176
0.752875
0.751358
0.749754
0.74861
0.748056
0.747908
0.747892
0.748014
0.74811
0.748273
0.748573
0.74895
0.749399
0.749698
0.749583
0.749169
0.748372
0.747444
0.746667
0.74638
0.746711
0.747684
0.749349
0.751293
0.752846
0.753307
0.752144
0.749405
0.746347
0.745198
0.74776
0.748172
0.748877
0.748941
0.748482
0.747919
0.747626
0.74786
0.74818
0.748253
0.747486
0.746293
0.745036
0.743208
0.741925
0.740564
0.739691
0.7391
0.738834
0.739178
0.740312
0.742771
0.744955
0.74596
0.746957
0.74911
0.750786
0.750747
0.749247
0.747242
0.744677
0.744267
0.743906
0.743671
0.745173
0.747879
0.749777
0.750478
0.750474
0.750357
0.74995
0.749889
0.749541
0.749604
0.749489
0.749314
0.749432
0.749113
0.74896
0.748144
0.747572
0.74692
0.746638
0.746439
0.746185
0.745344
0.743739
0.74417
0.747997
0.748386
0.745652
0.744399
0.743308
0.741907
0.741413
0.742411
0.744139
0.745882
0.747098
0.747895
0.74834
0.748387
0.748199
0.748024
0.747983
0.748096
0.74835
0.74874
0.749282
0.749756
0.749598
0.748654
0.747965
0.748399
0.750259
0.751438
0.75077
0.748821
0.747351
0.746777
0.750304
0.749667
0.747664
0.745187
0.743627
0.744226
0.746584
0.748512
0.74918
0.747664
0.744612
0.739117
0.738281
0.741061
0.743468
0.745083
0.746183
0.74668
0.746597
0.746242
0.745526
0.742596
0.737687
0.737349
0.741193
0.747656
0.7513
0.751878
0.750588
0.750467
0.743485
0.738528
0.731996
0.726177
0.722335
0.72037
0.720331
0.722667
0.728552
0.739009
0.747887
0.751599
0.751007
0.749677
0.748371
0.748121
0.748499
0.749509
0.750317
0.751768
0.752424
0.753602
0.753738
0.75363
0.753471
0.752757
0.7526
0.751925
0.752152
0.752498
0.751922
0.749051
0.744123
0.741164
0.740525
0.740604
0.740636
0.740537
0.740854
0.742672
0.745567
0.747432
0.749545
0.751559
0.75269
0.752544
0.751748
0.751342
0.751237
0.751663
0.75215
0.752802
0.753569
0.75407
0.754479
0.754468
0.754295
0.753875
0.75322
0.752942
0.752007
0.751791
0.75197
0.752041
0.752889
0.753371
0.753791
0.754066
0.754159
0.754033
0.753267
0.752884
0.751536
0.750833
0.750057
0.75006
0.749705
0.750772
0.750941
0.752439
0.754531
0.755226
0.756511
0.756331
0.756738
0.75594
0.754836
0.752277
0.750654
0.749738
0.751882
0.753461
0.75421
0.754336
0.75431
0.754264
0.754419
0.754714
0.754895
0.755351
0.75547
0.755996
0.755704
0.755704
0.755007
0.755797
0.755931
0.756521
0.756717
0.756841
0.756664
0.756653
0.756759
0.756963
0.757146
0.757592
0.757268
0.755848
0.753357
0.751285
0.755172
0.754688
0.754665
0.754345
0.753661
0.752913
0.752485
0.75193
0.752085
0.752249
0.753228
0.752349
0.753706
0.75365
0.75395
0.755026
0.754801
0.755512
0.755613
0.755788
0.755823
0.755923
0.756234
0.756376
0.756787
0.756514
0.755981
0.755447
0.75458
0.753605
0.755321
0.754811
0.754764
0.754423
0.754728
0.75449
0.75503
0.754997
0.755132
0.755209
0.755143
0.755508
0.755456
0.755906
0.75583
0.756266
0.756326
0.756688
0.756959
0.757146
0.757529
0.757612
0.758152
0.758193
0.758492
0.758716
0.759059
0.75938
0.760197
0.760129
0.760804
0.759801
0.759741
0.759726
0.759717
0.759706
0.759697
0.759686
0.759677
0.759665
0.759654
0.759639
0.75962
0.759594
0.759578
0.759571
0.759586
0.759607
0.759632
0.759646
0.75966
0.759673
0.759686
0.759697
0.75971
0.75972
0.759733
0.759742
0.759802
0.760794
0.72069
0.719026
0.719006
0.719493
0.72059
0.722593
0.725102
0.72861
0.732928
0.739136
0.746669
0.751472
0.751422
0.74897
0.751608
0.74957
0.748081
0.747487
0.747481
0.747647
0.7479
0.748049
0.748092
0.748093
0.748097
0.748304
0.748803
0.749513
0.750089
0.749965
0.74924
0.747912
0.746387
0.745292
0.744986
0.745642
0.747836
0.750459
0.752693
0.753439
0.752616
0.749828
0.746366
0.745682
0.747897
0.748584
0.749262
0.749173
0.74844
0.747152
0.746015
0.745946
0.746697
0.747423
0.747506
0.747108
0.745863
0.744204
0.742309
0.740317
0.738544
0.737338
0.736704
0.736824
0.738333
0.741333
0.744768
0.746341
0.74761
0.749478
0.750821
0.750415
0.748521
0.746869
0.744646
0.744073
0.743749
0.745067
0.748612
0.750444
0.75062
0.750026
0.749
0.748429
0.748123
0.748234
0.748309
0.748517
0.748768
0.748917
0.748976
0.749011
0.748982
0.748666
0.748245
0.747684
0.747336
0.747152
0.746919
0.746015
0.744371
0.744961
0.748673
0.748405
0.745989
0.744648
0.743003
0.741514
0.742022
0.744451
0.746199
0.747746
0.748991
0.750018
0.750614
0.75074
0.750283
0.749665
0.749105
0.74894
0.749
0.74931
0.749897
0.750551
0.750616
0.74998
0.749753
0.75043
0.75123
0.750956
0.7497
0.748534
0.747773
0.747358
0.750371
0.749177
0.745808
0.742738
0.743074
0.74623
0.749083
0.74995
0.747652
0.742448
0.737073
0.737643
0.740454
0.741291
0.742525
0.744077
0.745403
0.745244
0.745098
0.744768
0.744338
0.743107
0.739338
0.735065
0.734873
0.739521
0.747694
0.751706
0.751809
0.75211
0.736887
0.730715
0.726154
0.72302
0.721152
0.719471
0.719751
0.72383
0.734174
0.745325
0.750251
0.749799
0.747263
0.745499
0.744188
0.743403
0.742875
0.742913
0.744198
0.745681
0.748233
0.750808
0.752707
0.753561
0.753544
0.753284
0.752537
0.751653
0.751461
0.752389
0.750861
0.746082
0.741562
0.74051
0.743624
0.745689
0.746001
0.744541
0.744134
0.744086
0.745777
0.747608
0.749715
0.751525
0.751615
0.750491
0.748787
0.74772
0.748109
0.748638
0.74947
0.750751
0.752029
0.752975
0.753838
0.754519
0.754848
0.754934
0.754638
0.754162
0.751496
0.749961
0.749458
0.74953
0.750691
0.751752
0.752559
0.752869
0.752402
0.751274
0.749385
0.746365
0.743385
0.739509
0.736772
0.734868
0.731825
0.731739
0.732522
0.734822
0.7423
0.748956
0.752902
0.755981
0.756864
0.757117
0.756807
0.755756
0.753149
0.752071
0.753303
0.753777
0.754016
0.752295
0.750925
0.751217
0.752026
0.752648
0.752664
0.75202
0.750969
0.748287
0.745561
0.743037
0.741684
0.741432
0.74309
0.746411
0.751042
0.754568
0.756185
0.756543
0.757151
0.757535
0.757723
0.758146
0.758185
0.757715
0.756184
0.754678
0.754884
0.753899
0.753108
0.751459
0.749228
0.74667
0.744759
0.742128
0.74152
0.740893
0.741072
0.742496
0.742077
0.74631
0.746712
0.751799
0.753221
0.754154
0.755455
0.75585
0.756263
0.756801
0.757174
0.757461
0.757607
0.757673
0.757502
0.757452
0.7572
0.756681
0.755047
0.753797
0.752719
0.752326
0.752226
0.752914
0.752648
0.753679
0.753759
0.754256
0.754371
0.754718
0.754883
0.755124
0.755233
0.755297
0.755404
0.755297
0.755249
0.754795
0.754588
0.754009
0.753646
0.753805
0.754366
0.755182
0.755886
0.756326
0.757286
0.757764
0.760498
0.760331
0.760329
0.760324
0.760325
0.760322
0.760323
0.76032
0.760321
0.760319
0.76032
0.760316
0.760317
0.760313
0.760313
0.760311
0.760314
0.760314
0.760318
0.760317
0.76032
0.760319
0.760322
0.760321
0.760324
0.760323
0.760326
0.760326
0.760343
0.76052
0.71523
0.718717
0.723102
0.72485
0.724318
0.725007
0.726812
0.730068
0.733123
0.736249
0.740709
0.746682
0.750664
0.750301
0.749656
0.747951
0.7471
0.747269
0.74778
0.748188
0.748521
0.748652
0.748733
0.748658
0.748463
0.748357
0.748541
0.749193
0.750001
0.750427
0.750046
0.748869
0.747001
0.745065
0.743912
0.744196
0.746394
0.749886
0.752729
0.753926
0.753819
0.751679
0.747887
0.746243
0.747961
0.748821
0.749488
0.749203
0.748289
0.746388
0.744594
0.744025
0.744568
0.745628
0.745965
0.745537
0.744248
0.742506
0.740625
0.738867
0.73736
0.736476
0.736412
0.737103
0.739091
0.742564
0.745575
0.746843
0.7479
0.749684
0.751072
0.750769
0.748708
0.746769
0.744595
0.743835
0.744562
0.748509
0.750525
0.750273
0.748379
0.746653
0.745776
0.745798
0.746
0.746718
0.747042
0.747742
0.747994
0.748481
0.748744
0.748817
0.748788
0.748654
0.748383
0.748017
0.747686
0.747523
0.747237
0.746186
0.745085
0.746577
0.74936
0.748165
0.746271
0.744774
0.742595
0.741607
0.743482
0.745883
0.747363
0.749143
0.750421
0.751472
0.751855
0.752112
0.75185
0.751083
0.750125
0.749509
0.749318
0.749518
0.750271
0.751127
0.751344
0.751177
0.751247
0.751454
0.751238
0.750409
0.749518
0.749056
0.748844
0.74838
0.750309
0.747963
0.743132
0.741567
0.744779
0.748731
0.75027
0.748522
0.742432
0.736118
0.73532
0.736691
0.73655
0.737373
0.739917
0.742627
0.743684
0.743471
0.74215
0.740887
0.73963
0.737935
0.735401
0.732474
0.732413
0.7358
0.74399
0.750944
0.753064
0.753478
0.73215
0.727916
0.7263
0.724766
0.721582
0.719395
0.720401
0.728008
0.741139
0.748431
0.749143
0.746657
0.744797
0.743398
0.74155
0.739292
0.737849
0.736799
0.736702
0.738036
0.739846
0.744255
0.747995
0.751715
0.753165
0.753459
0.75337
0.752854
0.753065
0.754659
0.748346
0.743755
0.740755
0.743538
0.746904
0.748194
0.747511
0.747712
0.746972
0.746908
0.74723
0.748446
0.750342
0.751252
0.749676
0.746803
0.743973
0.742888
0.742443
0.74302
0.743998
0.745429
0.746579
0.747808
0.748435
0.749899
0.751643
0.753732
0.754949
0.755425
0.750745
0.746858
0.745428
0.745054
0.746945
0.74803
0.749758
0.74942
0.747857
0.744134
0.740248
0.735306
0.730992
0.728321
0.725232
0.723547
0.722404
0.720991
0.720183
0.720284
0.724067
0.730561
0.74003
0.748532
0.754321
0.756645
0.757404
0.757125
0.755773
0.753372
0.753878
0.75387
0.752098
0.746369
0.743866
0.745143
0.746269
0.746639
0.744031
0.739144
0.733567
0.730458
0.729896
0.729336
0.728078
0.727671
0.727407
0.730094
0.736
0.743223
0.747749
0.751047
0.753307
0.754848
0.756083
0.757392
0.757712
0.758191
0.75751
0.756491
0.754318
0.752279
0.748961
0.745161
0.740258
0.736033
0.733355
0.730322
0.728381
0.728765
0.727715
0.727466
0.726078
0.728574
0.729692
0.735771
0.743335
0.749329
0.752015
0.753574
0.754808
0.755596
0.756096
0.756586
0.75695
0.757164
0.757465
0.7577
0.757863
0.757939
0.75398
0.751194
0.748798
0.74542
0.745593
0.745894
0.747722
0.748617
0.750531
0.750901
0.751548
0.751661
0.75206
0.751882
0.75186
0.751446
0.750945
0.750481
0.749206
0.748903
0.748575
0.748594
0.749296
0.749842
0.750652
0.751412
0.75216
0.753107
0.753819
0.754806
0.758256
0.758488
0.758614
0.758665
0.758659
0.758665
0.758658
0.758664
0.758659
0.758664
0.758659
0.758664
0.758658
0.758663
0.758658
0.758663
0.758658
0.758663
0.758658
0.758664
0.758659
0.758664
0.758658
0.758664
0.758658
0.758664
0.758659
0.758665
0.758667
0.758685
0.71876
0.729005
0.734975
0.735307
0.732318
0.732016
0.733581
0.737261
0.740333
0.742179
0.743314
0.745351
0.749038
0.75069
0.748552
0.747124
0.746948
0.747672
0.748074
0.748096
0.74812
0.74847
0.748816
0.748938
0.748927
0.748773
0.74882
0.749242
0.75003
0.750786
0.750768
0.749897
0.747994
0.745344
0.743218
0.743223
0.746248
0.750494
0.753585
0.755244
0.755686
0.754285
0.75022
0.747161
0.748192
0.748845
0.749318
0.749004
0.747889
0.74553
0.74316
0.74246
0.742724
0.743187
0.742895
0.742052
0.740657
0.739752
0.738655
0.737999
0.737794
0.738144
0.739174
0.741312
0.743525
0.74585
0.746815
0.747342
0.748381
0.750092
0.751651
0.75167
0.749701
0.747049
0.744449
0.744054
0.747533
0.750286
0.749921
0.74684
0.744084
0.742851
0.742912
0.743872
0.744482
0.745633
0.74603
0.746806
0.747104
0.747641
0.748029
0.748324
0.748467
0.748398
0.748212
0.748083
0.748001
0.748051
0.747599
0.746567
0.74654
0.748641
0.749632
0.747761
0.746645
0.744653
0.742279
0.742341
0.744749
0.746398
0.748041
0.749929
0.751162
0.751898
0.752019
0.752163
0.751955
0.751287
0.750365
0.749608
0.749299
0.749768
0.750796
0.751659
0.751979
0.752055
0.752082
0.751848
0.751236
0.750484
0.749836
0.749468
0.749283
0.748981
0.749958
0.746326
0.741256
0.742305
0.747281
0.750312
0.749668
0.744439
0.736167
0.732926
0.733425
0.733266
0.733434
0.736293
0.739756
0.741793
0.741535
0.73966
0.736099
0.733581
0.731333
0.729676
0.728275
0.727473
0.730738
0.738529
0.746401
0.750819
0.75332
0.754087
0.730186
0.728611
0.728185
0.724082
0.720595
0.719926
0.724155
0.736188
0.745701
0.748187
0.7467
0.745042
0.744043
0.742371
0.739859
0.737789
0.736225
0.735016
0.733727
0.733553
0.734178
0.736226
0.741157
0.746354
0.750817
0.753193
0.753599
0.753574
0.753557
0.754541
0.744203
0.742085
0.743804
0.748802
0.75104
0.751092
0.7511
0.750145
0.74978
0.74873
0.74873
0.749924
0.750822
0.750008
0.746394
0.741233
0.738049
0.736528
0.735773
0.735148
0.735067
0.734945
0.73467
0.735524
0.735968
0.737355
0.73956
0.744817
0.750272
0.75491
0.749514
0.743218
0.739895
0.739165
0.740717
0.741661
0.743685
0.74291
0.7395
0.733823
0.730916
0.727819
0.726756
0.727282
0.727308
0.726227
0.728311
0.72666
0.723391
0.719732
0.718064
0.718332
0.722815
0.732898
0.744122
0.752609
0.756405
0.757448
0.757083
0.754931
0.754612
0.753423
0.747525
0.741391
0.736208
0.734685
0.736169
0.734345
0.730022
0.726836
0.725638
0.72825
0.731363
0.73459
0.735091
0.733125
0.730253
0.7267
0.724856
0.727452
0.732374
0.738381
0.744369
0.74849
0.751764
0.755142
0.756172
0.757682
0.758
0.757333
0.753604
0.749089
0.741673
0.736614
0.733009
0.73139
0.731375
0.731383
0.73199
0.732418
0.731669
0.733521
0.73149
0.728718
0.725607
0.722503
0.727387
0.734867
0.743807
0.748577
0.75051
0.752371
0.753413
0.754111
0.754578
0.755276
0.756127
0.756819
0.757615
0.758128
0.752369
0.745813
0.74103
0.737086
0.735433
0.736363
0.737732
0.740889
0.742466
0.744424
0.745031
0.745621
0.745562
0.745497
0.745233
0.744639
0.74451
0.743895
0.743862
0.744651
0.74497
0.745693
0.746021
0.746703
0.747365
0.747887
0.748719
0.749399
0.75056
0.751724
0.754682
0.755124
0.755443
0.756226
0.756508
0.756512
0.756509
0.75651
0.756509
0.75651
0.756509
0.75651
0.756508
0.756509
0.756508
0.756509
0.756508
0.756509
0.756508
0.75651
0.756509
0.75651
0.756508
0.756509
0.756508
0.75651
0.756509
0.756512
0.756526
0.756685
0.725772
0.739335
0.744089
0.742722
0.740171
0.740957
0.742521
0.745318
0.747174
0.74812
0.748192
0.747879
0.749166
0.750772
0.748
0.746755
0.747162
0.747589
0.746806
0.745706
0.745757
0.746902
0.7482
0.748966
0.749198
0.749318
0.749356
0.749848
0.750476
0.751333
0.75153
0.750787
0.748746
0.745042
0.74231
0.743256
0.747502
0.752846
0.755174
0.756154
0.756351
0.75571
0.752464
0.74836
0.748143
0.748828
0.749164
0.748802
0.747683
0.745226
0.742936
0.74177
0.741498
0.741201
0.741228
0.740913
0.741656
0.741662
0.74254
0.742624
0.742992
0.743794
0.744889
0.746169
0.747028
0.747807
0.748304
0.749128
0.750245
0.75141
0.752328
0.752356
0.750902
0.74762
0.744365
0.74627
0.74977
0.749828
0.746201
0.742177
0.740306
0.740668
0.741814
0.743281
0.744191
0.745348
0.745815
0.746523
0.746843
0.747156
0.747418
0.747607
0.748316
0.748816
0.74878
0.748829
0.748834
0.748871
0.74834
0.747847
0.748696
0.750056
0.74933
0.74717
0.746691
0.744112
0.74216
0.743124
0.744873
0.746183
0.748544
0.750614
0.751628
0.751754
0.751498
0.751437
0.75117
0.750606
0.749846
0.749381
0.749647
0.750531
0.75163
0.752317
0.752556
0.752513
0.752065
0.751197
0.74987
0.748661
0.747773
0.747842
0.748359
0.749062
0.7491
0.743455
0.740519
0.744035
0.749167
0.750528
0.74754
0.7389
0.732038
0.731407
0.731408
0.73133
0.733274
0.736558
0.739656
0.740312
0.738299
0.734008
0.730151
0.727751
0.727132
0.726628
0.729478
0.733881
0.739979
0.74416
0.74591
0.747828
0.750187
0.752986
0.730574
0.72962
0.725671
0.72209
0.721091
0.723807
0.732757
0.742581
0.747044
0.746973
0.745402
0.744525
0.743116
0.741131
0.739269
0.737731
0.736407
0.734941
0.733796
0.732896
0.732764
0.732804
0.734919
0.740097
0.745744
0.750756
0.753245
0.754185
0.754543
0.755153
0.743971
0.742195
0.745825
0.750043
0.750942
0.751181
0.75094
0.750938
0.750513
0.750269
0.750499
0.750777
0.750273
0.747322
0.740726
0.734682
0.73145
0.730256
0.729106
0.72874
0.728049
0.727266
0.72612
0.725385
0.725543
0.726452
0.728297
0.732168
0.739346
0.75015
0.748437
0.738852
0.733509
0.732573
0.733323
0.733804
0.734498
0.734728
0.730695
0.728542
0.727272
0.728682
0.728195
0.731833
0.732094
0.734347
0.732679
0.731719
0.729767
0.726187
0.721697
0.71728
0.716142
0.718294
0.727328
0.740745
0.751314
0.756252
0.757426
0.756053
0.754727
0.751495
0.745002
0.734235
0.730046
0.728329
0.727511
0.727392
0.727051
0.72995
0.734806
0.740572
0.743501
0.746456
0.746588
0.74662
0.744874
0.739067
0.730893
0.723788
0.721858
0.723971
0.729875
0.737287
0.742825
0.750072
0.752894
0.755657
0.757428
0.757642
0.752816
0.74653
0.73589
0.730578
0.730999
0.733473
0.736088
0.738851
0.743499
0.740089
0.748189
0.742507
0.744935
0.740509
0.736257
0.726205
0.720967
0.722546
0.728902
0.736372
0.74422
0.746075
0.7488
0.75002
0.750967
0.751612
0.753
0.754693
0.756415
0.757753
0.750068
0.741642
0.737709
0.732722
0.729468
0.727427
0.728525
0.730367
0.733051
0.735013
0.73622
0.736946
0.737057
0.73743
0.73717
0.73729
0.738181
0.738591
0.73972
0.740061
0.741247
0.741758
0.74273
0.743266
0.744045
0.744664
0.745176
0.745877
0.746959
0.748736
0.749544
0.749131
0.750962
0.751674
0.752413
0.75271
0.752712
0.752715
0.752712
0.752716
0.752712
0.752716
0.752713
0.752716
0.752713
0.752716
0.752713
0.752716
0.752713
0.752716
0.752712
0.752715
0.752712
0.752715
0.752711
0.752715
0.752713
0.752717
0.752718
0.752672
0.730541
0.745715
0.748521
0.747578
0.747033
0.748061
0.74878
0.749287
0.749278
0.7488
0.748531
0.748814
0.749845
0.75091
0.7477
0.746622
0.74689
0.745451
0.742731
0.741457
0.742876
0.745394
0.747673
0.749068
0.749821
0.750172
0.750405
0.751026
0.751579
0.752193
0.752131
0.750841
0.747852
0.742865
0.741745
0.745807
0.752242
0.755048
0.75536
0.754475
0.754565
0.755236
0.753183
0.749426
0.748529
0.749252
0.749056
0.748892
0.748304
0.746923
0.745496
0.744959
0.745172
0.746234
0.747073
0.747669
0.748138
0.748218
0.748092
0.747961
0.747866
0.747932
0.748209
0.748766
0.749362
0.749933
0.750295
0.75032
0.750515
0.751001
0.751765
0.752151
0.751292
0.747948
0.744569
0.74782
0.749831
0.746965
0.741672
0.73897
0.738998
0.740521
0.742007
0.743099
0.743942
0.74467
0.745479
0.74632
0.747061
0.747482
0.747595
0.747399
0.746761
0.746956
0.747907
0.748669
0.749078
0.749341
0.749309
0.749633
0.750389
0.750231
0.74847
0.747187
0.746592
0.743615
0.742158
0.743192
0.744135
0.745942
0.748784
0.750783
0.751682
0.751553
0.750945
0.750738
0.750306
0.750091
0.749957
0.750182
0.750996
0.751863
0.752397
0.752483
0.752056
0.751012
0.74914
0.746551
0.743864
0.742117
0.741639
0.742818
0.745487
0.748358
0.747819
0.741485
0.740968
0.74632
0.750204
0.749877
0.744688
0.73493
0.730469
0.730401
0.730393
0.731144
0.733244
0.736566
0.738931
0.739489
0.736155
0.731815
0.728892
0.728497
0.729667
0.734686
0.739208
0.741067
0.741262
0.738139
0.736509
0.736915
0.740293
0.748568
0.730893
0.728619
0.724937
0.723957
0.726445
0.732704
0.740797
0.745632
0.746903
0.745619
0.744313
0.742517
0.740447
0.739019
0.738217
0.737579
0.736883
0.73594
0.734613
0.733436
0.732793
0.732569
0.733444
0.736113
0.741832
0.747562
0.752129
0.754186
0.754804
0.754344
0.742423
0.744364
0.748779
0.750849
0.751142
0.751219
0.751485
0.751552
0.751509
0.751421
0.751458
0.750801
0.748376
0.741976
0.734324
0.729363
0.727308
0.726512
0.726341
0.726109
0.726467
0.726114
0.726617
0.726429
0.72678
0.726927
0.727089
0.727547
0.730105
0.737332
0.746871
0.734795
0.727207
0.726267
0.726121
0.726629
0.725905
0.727765
0.725329
0.726694
0.727986
0.730535
0.733017
0.734043
0.73466
0.733724
0.732469
0.731668
0.731388
0.729971
0.726971
0.722512
0.717431
0.71484
0.716194
0.72351
0.737964
0.751163
0.75686
0.756713
0.754925
0.750655
0.740414
0.731586
0.727567
0.725985
0.727085
0.728077
0.733093
0.739557
0.7439
0.744946
0.745245
0.745228
0.746935
0.749531
0.749643
0.747763
0.743808
0.734605
0.727134
0.719226
0.719501
0.724092
0.729477
0.740579
0.747258
0.752311
0.756623
0.757736
0.751795
0.747339
0.738819
0.732889
0.731119
0.732934
0.737628
0.742976
0.744215
0.745562
0.744459
0.745783
0.746102
0.746182
0.741649
0.733655
0.72338
0.719632
0.721127
0.72444
0.730504
0.738423
0.741696
0.744553
0.745974
0.74744
0.74879
0.751098
0.754341
0.756924
0.748456
0.740366
0.739851
0.740864
0.734199
0.726191
0.723421
0.723528
0.725001
0.72645
0.727957
0.728799
0.729282
0.730195
0.730432
0.731916
0.732253
0.733704
0.734162
0.735607
0.736006
0.737358
0.73774
0.73883
0.739334
0.74023
0.740982
0.74175
0.742997
0.745917
0.743223
0.743673
0.744879
0.746264
0.747873
0.748781
0.748786
0.7488
0.748797
0.748798
0.748798
0.748798
0.748797
0.748798
0.748797
0.748798
0.748797
0.748798
0.748797
0.748798
0.748797
0.748797
0.748797
0.748798
0.748798
0.748801
0.748804
0.748811
0.748819
0.748754
0.733194
0.749242
0.751105
0.750594
0.750122
0.750162
0.750212
0.749931
0.749063
0.747529
0.747471
0.748676
0.749946
0.750384
0.746919
0.746457
0.74664
0.746262
0.745048
0.741573
0.738409
0.738248
0.740866
0.744037
0.746959
0.748982
0.75024
0.751003
0.751534
0.752241
0.752541
0.752192
0.751642
0.748098
0.743389
0.741498
0.74529
0.752023
0.754686
0.753908
0.751769
0.75047
0.751547
0.753554
0.751549
0.750267
0.750312
0.749736
0.749169
0.749132
0.749251
0.749724
0.749914
0.749882
0.74984
0.749849
0.749891
0.749812
0.749766
0.749719
0.749744
0.749805
0.749864
0.749886
0.749902
0.750024
0.750372
0.750526
0.749717
0.747806
0.746008
0.745019
0.745147
0.746514
0.748811
0.750752
0.750913
0.748484
0.747201
0.744872
0.746171
0.749036
0.747901
0.742407
0.738575
0.738059
0.739471
0.740856
0.741545
0.74162
0.741591
0.741978
0.743013
0.744741
0.746339
0.747428
0.747976
0.748215
0.747979
0.747326
0.747073
0.747648
0.748521
0.749343
0.750079
0.750635
0.750579
0.749488
0.748292
0.748087
0.748596
0.747809
0.745862
0.742867
0.742015
0.742445
0.742939
0.74495
0.7478
0.750026
0.751221
0.751423
0.751498
0.751163
0.75097
0.751005
0.751308
0.751609
0.751846
0.751921
0.751311
0.749907
0.74721
0.743487
0.739809
0.736957
0.735578
0.735644
0.736427
0.73803
0.741408
0.746026
0.741728
0.742956
0.745272
0.73994
0.74262
0.748136
0.750516
0.748595
0.741379
0.732361
0.729524
0.730319
0.730655
0.731281
0.733108
0.735454
0.738356
0.73904
0.736226
0.73278
0.731258
0.732298
0.736333
0.739457
0.738749
0.736547
0.734981
0.734686
0.735274
0.735265
0.736302
0.739532
0.733146
0.732288
0.731396
0.729706
0.729071
0.731252
0.7356
0.74108
0.744917
0.746383
0.745473
0.743779
0.741571
0.738732
0.736906
0.736246
0.736552
0.736827
0.736739
0.736316
0.735569
0.734457
0.733371
0.732889
0.733088
0.735548
0.739681
0.745309
0.750565
0.753815
0.754655
0.753459
0.750627
0.746517
0.742078
0.74597
0.749762
0.750565
0.750567
0.750755
0.751174
0.751504
0.75158
0.751522
0.750834
0.749069
0.743982
0.735989
0.729819
0.726334
0.725575
0.724886
0.725777
0.72626
0.726936
0.727826
0.728296
0.729316
0.72862
0.728471
0.727802
0.727308
0.727586
0.732772
0.747157
0.748853
0.74599
0.730565
0.723349
0.72043
0.721204
0.720334
0.721853
0.722355
0.72353
0.726265
0.728829
0.73223
0.733637
0.734099
0.733558
0.731761
0.730362
0.730183
0.730623
0.730713
0.72896
0.725714
0.721515
0.717054
0.714142
0.714931
0.721809
0.736
0.750745
0.756715
0.757572
0.7562
0.753297
0.748255
0.737207
0.730528
0.727368
0.72613
0.728546
0.732943
0.74017
0.743452
0.744543
0.742075
0.740811
0.740784
0.743585
0.747898
0.749191