/*--------------------------------*- C++ -*----------------------------------*\
| =========                 |                                                 |
| \\      /  F ield         | OpenFOAM: The Open Source CFD Toolbox           |
|  \\    /   O peration     | Version:  2.1.1                                 |
|   \\  /    A nd           | Web:      www.OpenFOAM.org                      |
|    \\/     M anipulation  |                                                 |
\*---------------------------------------------------------------------------*/
FoamFile
{
    version     2.0;
    format      ascii;
    class       volScalarField;
    location    "0.003350000";
    object      rhoUnburned;
}
// * * * * * * * * * * * * * * * * * * * * * * * * * * * * * * * * * * * * * //

dimensions      [1 -3 0 0 0 0 0];

internalField   nonuniform List<scalar> 
12384
(
1.6071
1.61558
1.63135
1.67553
1.72508
1.85529
1.99352
2.31474
2.96379
4.32833
6.69917
6.74632
6.74538
6.90297
5.24054
5.23723
5.21615
5.33091
5.23535
5.38888
5.32256
5.44049
5.46139
5.54836
5.55095
5.58605
5.55162
5.53766
5.58151
5.58427
5.57356
5.18244
4.5676
3.93821
3.38366
3.23354
3.20671
3.67339
4.16415
5.2737
7.44518
8.19013
8.0064
7.76397
6.72164
4.12978
3.77694
3.62278
3.47549
3.41574
3.21223
3.10476
2.96275
2.77284
2.76726
2.67064
2.88946
2.8032
3.40259
3.26074
3.56807
3.927
3.76266
4.18526
4.15104
4.49614
5.08015
5.97405
6.2059
6.42447
6.65771
6.78051
6.7482
6.51297
6.05488
5.99201
5.97093
5.95252
5.97244
5.98064
6.03049
5.92396
5.98826
5.88543
5.62221
5.39856
5.54814
5.05425
5.27479
4.86753
5.65503
5.09828
6.39869
6.4774
6.81
6.78996
6.68745
6.62449
6.4458
6.23024
6.07644
6.24182
6.38189
6.38962
6.0881
6.08063
6.18019
6.07476
6.17841
6.2844
6.27941
6.36521
6.40087
6.40546
6.41333
6.38135
6.37787
6.30849
6.3845
6.03621
6.2132
5.69662
5.7937
5.73727
5.61173
5.61475
5.54023
5.55952
5.66663
5.80906
5.6677
5.41823
5.19078
5.02192
4.99405
4.8273
5.20144
5.39527
5.80132
5.94126
5.90935
5.74181
5.56842
5.36941
5.37352
5.59535
6.34424
8.46064
8.31983
6.86831
5.89809
5.71085
5.59133
5.68187
6.27763
7.03562
8.85504
10.6836
10.8434
10.9619
11.0557
11.4382
10.2728
10.6074
8.53186
8.26514
7.3833
7.04226
6.44416
6.13698
6.06858
5.69019
5.94397
5.68011
5.99841
6.39727
6.79398
7.59037
8.01315
8.28387
7.8202
5.34222
5.79869
4.59078
4.05449
3.94533
4.22867
3.53729
3.07842
2.6131
2.71125
2.63982
2.8802
2.84784
9.69093
9.95046
9.9404
9.71341
9.1402
8.71008
7.96813
7.93331
8.06752
8.35734
8.71989
8.4356
7.91793
7.30143
6.53205
6.23047
5.87669
6.00584
6.09879
6.02805
6.33458
6.38522
6.50271
7.00877
6.89554
7.31299
6.51352
5.67335
5.16633
4.64492
5.397
5.14452
5.26369
4.95492
4.80291
4.68279
4.62862
4.6903
4.72542
5.00861
4.94186
5.20028
5.37075
5.29464
5.27859
5.05873
4.99574
4.85514
4.75224
4.79251
4.90366
4.95037
5.12966
5.34314
5.44382
6.26196
7.02279
7.4986
4.85126
5.75664
8.62492
6.76469
6.60798
8.04388
8.04249
6.35523
6.97612
6.42123
6.56315
6.22212
6.60466
6.83264
6.94326
8.74527
7.92598
7.8601
7.52176
7.37497
6.52152
6.14269
5.99697
6.08492
6.03299
6.09962
6.0185
5.94988
5.89252
5.9095
5.81307
6.0632
7.86084
7.90225
8.06369
8.18952
8.19855
8.23437
7.70995
7.47048
6.58295
6.55845
6.43655
5.6348
7.46185
6.65311
8.49274
10.5293
10.1619
11.2176
11.3172
10.5645
8.61965
7.44216
6.58134
6.05841
5.80106
5.70821
5.74727
6.68045
6.66944
5.55637
5.91973
5.86498
5.93983
6.84041
6.66921
7.88982
7.33015
7.85419
7.1718
7.90676
7.70375
8.70304
8.2893
9.50517
8.73453
10.0135
9.62507
10.8742
10.3751
12.4204
11.8476
8.9879
9.345
7.50153
7.37832
7.26071
6.97027
7.08293
6.1009
2.90387
0.865126
0.865881
0.865905
0.865924
0.865934
0.865949
0.865959
0.865973
0.865983
0.865993
0.866005
0.866022
0.866047
0.866073
0.866087
0.866095
0.866077
0.866057
0.866034
0.866019
0.866002
0.865988
0.86597
0.865961
0.865946
0.86593
0.86592
0.865911
0.865862
0.865228
1.45517
1.39906
1.35767
1.31896
1.39637
1.43859
1.54237
1.74839
2.08746
2.79309
4.67113
6.93102
6.7184
6.93501
5.27893
5.28449
5.24836
5.16735
5.1635
5.11059
5.22077
5.14272
5.27345
5.32405
5.18135
5.08691
4.843
4.5955
4.25657
3.99825
3.8259
3.77635
3.61586
3.322
3.04217
2.88559
2.89673
3.22738
3.88389
4.93021
7.54934
8.3805
8.01638
7.95675
6.28786
3.96864
3.83285
4.02819
4.09418
3.94288
3.61657
3.30094
2.94745
2.67582
2.54272
2.35501
2.34402
2.2956
2.33874
2.36655
2.43757
2.51429
2.52443
2.70453
2.82655
3.25166
3.90774
5.27992
6.13651
6.38488
6.60008
6.67042
6.6116
6.42082
5.98904
6.01111
6.06604
6.05324
6.02836
6.10032
6.20782
6.14555
6.31781
6.04777
5.88714
5.77416
5.58602
5.43826
5.40454
5.18406
5.54828
5.43747
6.38292
6.49721
6.87696
6.84071
6.79972
6.65442
6.50955
6.33365
6.08997
6.15145
6.31123
6.37233
6.24587
6.20148
6.10276
6.09151
6.17198
6.16424
6.31824
6.4357
6.5744
6.60578
6.59312
6.63239
6.55785
6.49607
6.40488
6.3637
6.01453
6.11547
5.78292
5.86831
5.73785
5.64265
5.57886
5.54029
5.62612
5.74628
5.61482
5.32921
5.13091
5.00218
4.89317
4.96788
5.3344
5.42037
5.81356
5.81476
5.80962
5.76984
5.78173
5.63653
5.96818
6.46103
7.42479
4.98057
4.80295
4.93074
5.52633
5.67639
5.73652
5.37215
4.73029
4.13504
4.45073
6.39765
9.43944
9.79511
10.5007
11.0388
10.2973
10.8525
8.35644
7.72648
7.02042
6.23439
5.92135
5.7643
5.54508
6.0081
5.98767
6.59445
7.21809
8.19486
8.78589
9.3991
9.50298
9.03706
7.92161
6.31975
5.49181
5.70777
5.5483
5.18779
4.45014
4.47881
4.06402
3.81769
3.28427
2.82819
2.70878
3.17392
9.96486
9.94915
9.482
8.84902
8.51401
7.84837
7.57108
7.16143
7.55732
8.12747
8.72194
8.54409
7.88189
7.41267
6.43887
6.5097
5.77847
6.12685
5.95805
6.19474
6.21157
6.35081
6.94153
6.86886
7.20117
6.01309
5.58362
5.28826
5.02491
5.04748
5.7912
5.49661
5.55866
5.25846
4.94463
4.79078
4.70038
4.6862
4.63999
4.72835
4.78581
4.89586
5.02593
4.97562
4.95288
4.90999
4.76887
4.81429
4.77636
4.75293
4.69903
4.80886
4.93777
4.96446
5.44285
5.71261
7.27672
7.04505
5.70383
5.54624
8.52083
6.87605
6.18451
7.17082
7.60727
6.55263
6.88214
6.81999
6.70472
6.96619
6.70932
7.3184
7.12388
6.22644
5.93231
6.02121
5.92094
6.07922
6.19421
6.36556
6.15475
5.96822
5.94749
5.90206
5.77689
5.84354
5.9825
6.36233
6.57254
6.587
7.90651
7.95159
8.01914
8.0838
8.03982
7.74263
7.71169
7.27664
6.80534
6.96085
6.7178
6.37332
6.867
7.65737
9.72046
10.1692
8.79026
9.2336
8.88289
8.55671
7.84688
7.41176
6.7904
6.52976
6.28791
6.23703
6.65179
8.18363
8.09353
6.14228
6.41273
6.4368
7.14614
6.69151
7.67196
7.50775
8.58847
7.64078
8.48432
7.82082
8.88902
8.43902
9.85092
9.26652
10.9558
10.1884
9.98905
10.9946
8.19426
8.59937
7.25077
7.62448
7.16332
7.42182
7.24763
7.31521
7.69455
7.64735
4.79318
5.70821
0.87555
0.88739
0.888512
0.888528
0.888835
0.88884
0.889173
0.88917
0.889487
0.889474
0.889795
0.889835
0.890235
0.890429
0.890779
0.890718
0.890646
0.890229
0.890036
0.889714
0.889665
0.889335
0.889306
0.888981
0.888949
0.888649
0.888599
0.888351
0.887529
0.875166
1.2026
1.13951
1.10782
1.11345
1.13842
1.18127
1.22531
1.32736
1.48448
1.89068
2.68988
4.49183
6.92725
6.9934
5.38925
5.28223
5.15135
5.0801
5.01022
5.03208
4.93413
5.08865
5.00331
5.15042
5.26649
5.37979
5.45322
5.49689
5.00533
4.2465
3.78092
3.32247
3.05347
2.81846
2.64497
2.51271
2.5958
2.96406
3.70529
4.98846
7.63309
8.36536
8.20247
8.02004
5.70727
3.98891
4.60824
5.445
5.40319
4.90876
4.42361
4.02663
3.58303
3.18356
2.84958
2.5841
2.46371
2.34982
2.23652
2.20318
2.11732
2.09678
2.07883
2.12125
2.2628
2.65887
3.39101
4.66506
6.1253
6.33536
6.52143
6.53757
6.41215
6.26108
6.21524
6.1318
6.09286
6.07555
6.21458
6.37366
6.4892
6.36336
6.38827
6.04016
5.99265
5.69962
5.63875
5.36876
5.39572
5.19372
5.66769
5.36449
6.35963
6.46632
6.68954
6.84771
6.77698
6.69495
6.51648
6.3952
6.0988
6.08
6.34188
6.38015
6.27743
6.14192
6.15581
6.05838
6.11612
6.25752
6.52843
6.66376
6.72303
6.767
6.77745
6.69513
6.61808
6.60371
6.45014
6.43686
6.13755
5.9446
5.98181
5.88385
5.8891
5.70172
5.61283
5.56763
5.64532
5.62273
5.4679
5.20303
5.03969
4.89972
5.16845
4.97565
5.38597
5.41546
5.69736
5.76053
5.97768
6.00781
5.94903
6.11106
6.34439
4.72139
4.15155
5.03849
6.26044
7.23209
7.99052
8.17286
7.9148
7.85404
7.64096
5.91387
3.99375
3.78659
5.50344
8.88047
9.70989
10.5267
10.8213
11.4812
7.67852
7.0331
6.25264
5.73403
5.57653
5.31542
5.82083
5.86639
6.68887
7.65111
8.91622
9.54391
9.9286
10.0319
10.3396
9.30916
7.62025
6.53683
5.76161
5.86974
6.05533
5.76751
5.76217
4.84383
4.32438
3.59117
3.79443
3.82776
3.36112
2.75644
10.1399
9.50794
8.8362
8.37282
7.92544
7.85788
7.4241
7.20337
7.1621
7.92468
8.64417
8.61509
8.13402
7.35768
6.70949
6.39988
5.96586
5.89576
6.02305
6.06389
6.17457
6.76814
6.7251
7.16471
6.33667
5.47734
4.84685
4.67459
4.78657
4.79701
6.17315
6.53749
6.63162
6.39448
5.53697
5.25116
4.97529
4.90123
4.90274
5.05244
5.27371
5.68938
6.03946
6.53438
6.62274
6.32948
6.06688
5.66099
5.50169
5.38428
5.0364
4.73567
4.71602
4.73998
4.99909
5.24569
6.07871
7.26028
7.0184
4.98155
8.31172
6.44441
6.05448
7.46223
7.82055
6.28073
6.9598
6.67627
6.98149
6.80222
6.99966
6.50812
6.43682
6.21358
6.19346
6.01592
5.80192
5.54402
5.45999
5.48656
5.51282
5.5268
5.49866
5.43612
5.44026
5.48186
5.63336
6.02205
6.57915
7.10367
8.08876
8.08065
8.07604
7.9006
7.56995
7.38051
7.02859
6.82311
6.77396
6.73237
6.59766
6.96433
6.58846
8.34461
6.42173
6.57489
6.25935
6.35148
6.52245
6.28406
6.45913
6.48644
6.36818
6.23464
6.10122
6.04073
6.46422
6.80447
7.97384
8.52491
6.94844
7.28571
6.52415
7.72159
8.02551
9.16717
8.32681
9.34878
8.50146
9.3123
8.87266
8.70726
9.10538
7.2468
7.39828
6.3496
6.47815
6.09825
6.15442
6.172
6.042
6.26187
5.84475
5.95447
5.58013
5.46772
5.35462
5.51276
5.89359
5.64785
1.07776
1.0651
1.06487
1.0647
1.06456
1.06437
1.06423
1.06403
1.0639
1.06369
1.06352
1.06327
1.06296
1.06253
1.06227
1.06216
1.0624
1.06274
1.06316
1.06337
1.06362
1.06382
1.06404
1.06421
1.06444
1.0646
1.06482
1.06497
1.06595
1.08251
1.03846
1.06974
1.10757
1.14734
1.16954
1.18702
1.20489
1.23194
1.2824
1.42792
1.87655
2.8151
5.89004
6.93012
5.34252
5.20134
5.07028
4.95847
4.93978
4.83666
4.89662
4.78481
5.00226
4.91526
5.02362
5.17288
5.35982
5.38038
5.68335
5.00779
4.16419
3.38836
2.92125
2.58626
2.33381
2.22967
2.40976
2.77907
3.65624
4.96268
7.88823
8.63214
8.30207
8.30264
5.4331
4.3176
5.80308
6.56234
6.08639
4.94764
4.17461
3.98223
3.91221
3.70636
3.32284
3.07026
2.81153
2.66718
2.42366
2.28923
2.12718
2.02199
1.98141
1.9851
2.11723
2.47646
3.34061
4.63707
6.10695
6.28338
6.41179
6.41963
6.28966
6.15448
6.16271
6.19624
6.20319
6.2974
6.55113
6.67117
6.56502
6.32992
6.25101
5.88805
5.89558
5.54467
5.6384
5.25161
5.43702
5.19199
5.60806
5.40557
5.8116
6.38435
6.5228
6.63581
6.72439
6.59787
6.53065
6.3217
6.10936
6.10444
6.39155
6.29502
6.42384
6.35884
6.14365
6.11811
6.19952
6.51216
6.6271
6.78992
6.90094
6.85641
6.88286
6.81155
6.71627
6.65621
6.45924
6.29365
6.13816
5.89593
5.92254
5.9685
5.87555
5.77009
5.65671
5.6249
5.59659
5.45059
5.29827
5.07512
4.94778
4.83364
5.25787
5.09166
5.38914
5.39671
5.65639
5.95448
6.16926
6.13969
6.20784
6.1668
3.9237
4.06443
5.11533
5.43823
6.12987
7.589
7.86715
6.5816
6.40733
6.05815
6.37351
6.47241
4.82784
3.56942
3.51406
4.86818
8.70257
9.7677
10.324
10.8512
7.07777
6.41618
5.90772
5.66483
5.42544
5.78409
5.75092
6.45872
7.46367
9.02047
10.015
10.5557
10.5167
10.5076
10.027
8.98181
7.0947
5.90995
5.96315
5.76613
5.86132
5.86979
5.7937
5.9723
5.68145
5.56118
4.43281
4.00521
4.21139
4.71376
9.31775
8.48214
7.64635
7.34148
7.76592
7.73443
7.69289
7.41862
7.09715
8.12774
8.49906
8.71387
8.38263
7.7743
6.63495
6.60232
5.7764
5.96583
5.82766
5.85491
6.47185
6.4728
6.98505
7.92711
7.81529
6.57679
5.44075
4.6566
4.41949
4.34043
6.73487
8.55474
8.56761
8.78027
7.59434
6.71126
5.8567
5.75259
5.91839
6.92344
7.98694
8.0147
8.49291
7.70301
8.58378
8.77783
8.96484
8.77786
7.95273
9.36528
8.98291
8.45826
5.77575
4.9499
4.73486
4.92901
5.15484
6.09861
7.07506
5.95648
8.3179
6.34533
5.92136
7.76739
7.03548
6.21462
6.23948
6.69581
6.57134
7.10041
6.89242
7.3089
7.11689
7.30782
7.20772
7.51263
7.79388
7.99704
6.69173
5.87916
5.54298
5.51407
5.36367
5.34489
5.30845
5.33295
5.43372
5.65
6.10881
6.62242
8.09545
7.8671
7.5912
7.26759
6.9877
6.49593
6.25346
6.01508
5.84594
5.77529
5.89193
6.38252
6.68146
6.82165
6.89451
5.40641
5.57439
5.24732
5.69669
5.70398
5.70587
5.84547
5.81884
5.76366
5.7733
5.84958
5.87984
5.99675
6.3304
6.28744
7.1822
7.15406
8.0239
8.19634
8.61414
8.95723
7.92488
8.42264
7.44136
7.59215
6.62771
6.78994
5.94575
6.21613
5.71793
5.88804
5.64431
5.68541
5.68061
5.55201
5.65189
5.45266
5.67358
6.78199
7.40489
6.833
6.64086
6.67954
5.77679
5.77945
1.08359
1.08153
1.07328
1.07448
1.07455
1.07453
1.07452
1.07449
1.07449
1.07446
1.07446
1.07443
1.07441
1.07437
1.07435
1.07433
1.07436
1.07439
1.07443
1.07444
1.07447
1.07447
1.0745
1.07451
1.07454
1.07454
1.07457
1.07459
1.07486
1.07783
1.13088
1.20213
1.28391
1.31132
1.28029
1.26673
1.26734
1.28338
1.30089
1.34382
1.453
1.83734
3.01476
7.10024
4.35243
5.10345
4.9853
4.90601
4.84824
4.82677
4.726
4.8051
4.66765
4.87255
4.86054
4.95982
5.12269
5.44964
5.50613
5.64336
4.4791
3.6972
3.0292
2.54664
2.187
2.06951
2.22687
2.70655
3.66525
5.31597
7.83239
8.95957
8.66938
8.45136
5.24411
4.8443
6.20384
6.86976
6.2668
4.60127
3.59266
3.32727
3.4963
3.64218
3.49558
3.29154
2.96461
2.71115
2.46881
2.27171
2.11855
2.04771
2.0381
2.08865
2.30796
2.8668
3.82534
5.02017
6.05634
6.24357
6.372
6.33473
6.18677
6.08857
6.38933
6.30467
6.34801
6.63998
6.75438
6.63674
6.38962
6.06692
6.03551
5.72878
5.79029
5.49156
5.55026
5.24652
5.37715
5.18285
5.34659
5.61683
5.52706
5.84106
6.3676
6.36317
6.44806
6.53647
6.38169
6.21124
6.06925
6.20302
6.3234
6.27141
6.57869
6.36149
6.24962
6.16365
6.41428
6.6581
6.88721
6.96235
6.96763
7.04714
6.90489
6.87714
6.74867
6.46276
6.34776
6.08271
5.78748
5.86453
5.9384
5.92166
5.91289
5.7818
5.7021
5.59691
5.49208
5.32415
5.14953
4.98362
4.96304
4.83611
5.20239
5.27502
5.33609
5.39644
5.78025
6.12975
6.18508
6.18742
6.12363
3.88884
3.66011
4.09569
4.04784
4.29797
5.094
6.75468
6.62579
6.73573
5.84385
5.89177
5.38671
5.04092
3.73347
3.04808
3.04455
3.78822
7.5102
8.77782
10.1942
9.33135
6.68152
6.2895
5.93772
5.77492
5.86439
5.66008
6.11397
6.79208
8.43472
9.58645
10.379
10.3922
10.3901
10.3126
9.86524
8.07657
6.47843
5.07075
5.48131
5.20505
5.37593
5.49077
5.73446
5.88099
5.97766
5.78216
6.07519
5.77216
5.27627
4.47197
8.53244
8.05085
7.50275
7.58068
7.57836
7.43148
7.06138
7.03427
7.61432
8.09124
8.60618
8.92696
8.67546
7.92445
6.90215
6.3191
5.83651
5.62424
5.67627
5.94245
6.03008
6.23904
7.33754
7.18842
7.93982
8.39629
8.57215
7.18388
5.22446
4.57204
7.69669
8.14682
8.03124
8.16168
8.4004
8.68524
8.93487
8.91465
8.56067
8.22901
7.64585
6.8234
7.045
6.838
7.04348
7.74092
8.40961
8.69014
8.2995
7.42521
6.36509
6.54453
6.61021
7.93808
5.53895
4.75654
4.9174
5.19959
5.83489
7.04653
7.77365
6.05219
6.83071
7.22764
6.54269
5.45055
5.96614
5.91757
6.1784
5.72163
5.7001
5.57619
5.82309
5.68354
5.84789
5.36196
5.04641
5.53462
6.53972
7.94049
7.63981
6.60631
6.15435
5.83821
5.55214
5.422
5.41394
5.47154
5.72906
6.1389
8.04834
7.64787
7.28539
6.77059
6.2182
5.73357
5.34653
5.00912
4.84187
5.18702
5.0671
5.40181
5.10212
5.79354
5.08929
4.7937
4.63715
5.35051
5.17286
5.44008
5.43616
5.58146
5.59457
5.65289
5.70509
5.72549
5.76379
5.75852
5.93348
5.62897
8.35914
8.16666
8.24158
7.77796
7.21439
7.39314
6.76985
6.51404
6.41971
6.19402
5.90892
5.85862
5.75625
5.70368
5.54011
5.55029
5.33707
5.38779
5.26316
5.47332
6.47017
6.8718
5.90692
5.82295
5.83139
6.27995
7.48257
6.97257
6.16532
5.78827
1.23698
1.21735
1.09002
1.0475
1.04733
1.04751
1.04743
1.04752
1.04743
1.04752
1.04743
1.04751
1.04742
1.0475
1.04742
1.04749
1.04742
1.0475
1.04743
1.04751
1.04743
1.04751
1.04743
1.04752
1.04743
1.04752
1.04745
1.04754
1.04758
1.04786
1.25391
1.44555
1.56286
1.52102
1.42588
1.38675
1.3854
1.43586
1.48373
1.56996
1.65031
1.78005
2.30947
6.82649
4.71658
5.07106
4.93404
4.87703
4.81447
4.69866
4.68612
4.59816
4.64404
4.52919
4.72886
4.8203
4.86278
5.31553
5.26977
5.61815
4.61691
3.92849
3.17607
2.56427
2.09761
1.97646
2.2354
2.86872
4.1623
5.86516
7.83931
9.43554
8.96003
8.71247
5.34992
5.27376
6.34384
7.21969
6.15937
4.20557
3.10771
2.96621
3.0265
3.15792
3.00682
2.84206
2.60266
2.48956
2.33816
2.28242
2.28077
2.34
2.46753
2.79417
3.30929
4.02977
4.80404
5.79897
6.06665
6.16199
6.35055
6.43578
6.3055
6.12276
6.41811
6.38595
6.65446
6.83765
6.69716
6.30551
6.02962
5.80899
5.77975
5.63849
5.70844
5.41407
5.53847
5.16944
5.33332
5.1248
5.19902
5.3164
5.67017
5.52952
5.85915
6.26955
6.27781
6.32239
6.3028
6.14032
6.15716
6.23264
6.39382
6.20992
6.64523
6.48273
6.2494
6.36245
6.55933
6.80176
6.94724
7.14193
7.14744
7.05048
7.0565
6.6409
6.60571
6.25494
5.92689
5.60636
5.78704
5.81386
5.84492
5.93053
5.87885
5.79804
5.69936
5.53655
5.44661
5.20556
5.13511
4.97903
4.9864
4.84618
5.17238
5.32037
5.22717
5.50637
5.95569
6.17614
6.11751
5.81395
4.10059
3.36881
3.51839
3.49614
3.58589
4.1572
5.53734
6.47741
6.19077
4.96882
3.68214
3.16483
2.89318
2.64316
2.39846
2.35173
2.8174
4.45747
7.73278
8.42893
9.51801
9.02369
6.64465
6.36825
6.1665
5.86624
5.63672
5.90388
6.3059
7.39479
8.85537
9.74687
10.106
10.1993
10.284
10.2025
9.30617
7.53944
5.65087
5.44268
5.10721
5.1653
5.0725
5.1546
5.09951
5.56111
5.75982
6.03024
5.93343
5.94697
5.97292
6.06334
6.27161
5.97223
6.09849
6.24492
6.3389
6.40381
6.45339
7.05195
7.28192
7.50639
8.4481
8.99701
8.78499
7.90146
6.81271
6.02573
5.54237
5.45511
5.30598
5.48845
5.62589
5.85099
6.23942
6.49699
6.91264
7.07113
7.34256
8.16446
8.76445
5.06085
8.19562
7.58838
7.44687
7.40947
7.762
7.89889
8.2711
8.11893
7.64307
6.95128
6.49756
6.52229
6.21812
6.94706
7.0634
7.5148
8.72016
8.87601
7.86818
6.13311
5.82987
5.47264
5.78987
6.28065
7.24336
6.32689
4.85933
4.95999
5.32582
5.76868
7.36567
6.4134
7.63179
7.45071
5.19139
5.521
5.06562
5.09324
4.85695
4.99804
4.6417
5.51283
5.62399
5.79643
6.10687
4.98374
4.6703
4.52096
4.39169
4.78738
5.61807
6.81596
8.176
7.53032
6.22358
5.80451
5.66611
5.50567
5.56159
5.88882
7.87346
7.39246
6.65335
6.20221
5.74055
5.56013
5.14657
5.1216
5.1909
4.92879
5.65296
5.54405
5.6182
4.60696
4.90116
3.8992
4.20315
4.24399
5.04889
5.04742
5.33562
5.32525
5.489
5.55908
5.75857
6.08728
6.03256
5.90154
5.71593
5.5653
8.17456
8.12464
5.83424
4.51856
4.27701
4.44865
4.74691
5.1692
5.31962
5.45563
5.48155
5.36812
5.44217
5.26912
5.30468
5.18749
5.27661
5.92201
7.4525
5.94084
5.22028
5.16176
5.59417
5.66891
6.00813
6.53241
7.49983
7.88773
6.76279
6.08088
2.82811
2.84936
2.45139
1.52271
1.01521
1.01391
1.0144
1.01442
1.0144
1.01442
1.0144
1.01442
1.01439
1.01441
1.01438
1.01441
1.01439
1.01441
1.01439
1.01441
1.01439
1.01442
1.01439
1.01442
1.01439
1.01442
1.01441
1.01446
1.01466
1.01703
1.37048
1.69484
1.789
1.73437
1.64173
1.66404
1.66944
1.7493
1.98054
2.50697
2.93333
2.72972
2.61451
6.89128
5.01195
4.96318
4.98187
4.82191
4.57601
3.94351
4.24039
4.50448
4.43466
4.48776
4.43321
4.69146
4.71926
5.19934
5.1296
5.07744
4.47409
3.92514
3.23589
2.49176
1.98927
1.98198
2.38945
3.55833
5.13968
6.79018
7.30269
8.28371
9.2276
8.8325
5.40629
5.91354
7.22917
7.17249
6.23211
4.02109
3.06444
2.80363
2.78228
2.69947
2.72667
2.6884
2.85115
2.90829
3.21503
3.24851
3.36393
3.61338
3.94
4.44577
4.78931
5.60798
6.0585
6.06155
6.11825
6.29083
6.32387
6.49264
6.42982
6.17188
6.49379
6.62299
6.84691
6.76065
6.32012
5.93149
5.76572
5.64228
5.75483
5.65513
5.61796
5.40306
5.45558
5.15162
5.22885
5.09146
5.18447
5.08072
5.40144
5.68983
5.59224
6.00959
6.24248
6.24108
6.24053
6.18766
6.09373
6.21959
6.15128
6.07686
6.7059
6.46589
6.38177
6.42408
6.68238
6.83698
7.12139
7.28168
7.40207
7.16358
6.89516
6.34171
6.06459
5.68537
5.56296
5.71351
5.67085
5.73212
5.87435
5.90411
5.85879
5.76246
5.61562
5.4566
5.28382
5.01965
4.99566
4.82886
4.88712
4.83081
5.28513
5.1936
5.16348
5.62304
6.02893
6.19824
5.67221
5.84643
3.23691
3.26518
3.28169
3.25806
3.4785
4.6099
6.2372
6.00706
4.61744
3.08554
2.52173
2.27921
2.21194
2.19505
2.51747
3.52851
6.41567
6.68214
7.19172
7.6968
8.68845
9.83785
6.69348
6.48377
6.03965
5.72691
5.65151
6.06929
6.79202
7.86434
9.00778
9.52314
9.76142
10.0095
10.0946
9.83729
8.70648
6.82216
5.66011
5.05385
5.2451
5.10272
5.11282
4.92085
4.99076
4.971
5.45343
5.71046
5.99448
6.1326
6.2941
6.33437
6.83321
6.59723
6.54597
6.97662
6.86864
6.70084
6.70416
6.21765
6.34578
7.32018
8.13576
8.72103
8.62607
7.64391
6.56446
5.4253
5.39418
5.04737
5.24747
4.96527
5.55465
5.38803
5.52495
6.02535
6.00516
6.22911
6.69483
7.0621
7.66654
8.93785
7.76745
7.03174
6.6413
6.75565
6.88759
7.12538
7.1096
7.12229
6.76568
6.46209
6.30148
6.08393
6.48954
6.49212
7.39228
7.93227
8.22567
8.17067
6.98614
6.52024
5.84141
5.45755
5.34358
5.42483
6.03579
6.74381
7.38532
4.96415
4.9775
5.29746
7.00368
6.59013
8.16752
6.27357
5.70952
4.73342
4.9498
4.62724
4.5273
4.62903
5.32588
5.48572
6.53489
6.26995
6.34325
5.25126
5.71368
5.05124
4.42324
4.07937
4.0838
4.46152
5.37527
6.67493
7.55897
6.74305
6.2669
5.73594
5.57089
5.66591
7.95839
7.27213
6.00981
5.06193
5.31496
5.427
5.6003
5.36907
5.59592
5.56343
4.74807
4.85981
5.30133
4.69906
5.02307
4.21154
3.86849
3.90868
4.08467
4.49616
4.84107
5.20898
5.25459
5.51852
5.68201
5.85241
6.10803
6.00463
5.77307
5.55093
6.15451
6.13558
4.40301
4.08759
3.78738
3.78263
3.86384
4.0739
4.32669
4.48603
4.52967
4.62462
4.64086
4.75311
5.32678
6.84887
5.97814
4.97473
4.70853
4.84476
4.83831
5.32076
5.46702
5.90395
5.70299
6.85219
7.17253
8.76147
7.89564
6.81869
8.18323
7.53691
7.28681
6.52372
1.84652
0.963034
0.960428
0.960905
0.960868
0.960915
0.960875
0.960918
0.96088
0.960915
0.960882
0.960915
0.960888
0.960918
0.960882
0.960918
0.960877
0.960915
0.960868
0.960909
0.960861
0.96091
0.960888
0.960944
0.960953
0.960347
1.47049
1.89881
1.97129
1.98553
2.00397
2.04112
1.97312
2.19066
3.08098
4.03021
4.52444
4.11999
3.6684
6.39238
5.1195
5.05746
4.86173
3.53845
2.61012
2.37253
2.75723
3.56944
4.28294
4.43865
4.45901
4.4882
4.59949
5.06938
4.91865
4.45941
4.19051
3.75297
2.99508
2.13993
1.89191
2.21783
3.30847
5.0439
6.59108
6.85322
6.81849
7.45811
9.07434
8.81822
6.08606
7.14779
7.23146
7.21773
6.58749
4.6298
3.75614
3.49824
3.54541
3.99023
4.63732
5.1158
6.18957
6.21905
6.07863
5.8315
5.62134
5.56324
5.74444
6.19065
6.20018
6.16331
6.16038
6.07992
6.06667
6.10214
6.31521
6.46675
6.44087
6.28442
6.52452
6.76761
6.86263
6.50945
5.94429
5.75175
5.58131
5.68412
5.70643
5.55279
5.63771
5.24636
5.35178
5.08244
5.05101
5.07039
5.04206
5.12081
4.97651
5.36168
5.60265
5.62091
6.0072
5.99443
6.02701
6.10107
6.33024
6.34694
6.21871
6.12669
6.60154
6.52925
6.39336
6.53726
6.63956
6.92748
7.22559
7.61173
7.52367
7.13878
6.75267
5.94237
6.04183
5.5605
5.82568
5.68832
5.63726
5.921
5.88683
5.86097
5.7637
5.63481
5.34531
5.13357
4.83065
4.66217
4.64719
4.595
4.68717
4.97773
5.14471
5.0599
5.16909
5.69329
5.98412
5.84179
5.62529
4.29597
3.11865
3.24342
3.14328
3.13063
3.59458
5.18392
5.92595
5.69544
3.76282
2.72811
2.32258
2.2706
2.50008
3.65101
5.99214
6.54545
6.28641
6.07488
5.99166
6.0667
7.02445
8.58759
6.76704
6.48941
6.07434
5.76379
5.81605
6.60444
7.12872
8.3288
8.85285
9.20834
9.38042
9.49494
9.55518
9.24121
7.98408
6.34054
5.18436
5.28609
5.12752
5.16465
5.03824
5.01464
4.80865
4.95458
4.96434
5.42141
5.77101
6.02704
6.32678
5.86904
5.00258
5.48239
6.02199
6.06748
6.11247
6.16172
5.92182
5.99914
5.8653
6.40324
7.54385
8.09078
8.04441
7.13651
5.92782
5.41348
4.86931
4.96376
5.10029
4.85465
5.38127
5.2248
5.80617
5.70174
6.09056
6.34755
6.62181
6.68619
7.11204
7.48996
7.80435
6.57867
6.27327
6.21869
6.29654
6.22874
6.23206
6.43182
6.25612
6.08511
5.89927
6.31557
6.15533
6.89636
6.71578
7.64914
7.51698
7.02929
7.07879
6.64874
6.14947
5.91199
5.69047
5.51506
5.48398
5.9053
6.53999
7.65924
4.83683
5.11126
7.32634
7.73157
7.15884
6.24933
5.19706
5.26038
4.59111
4.78307
4.66125
4.81698
5.22655
6.01007
5.67947
5.41723
4.91936
5.19551
4.91391
5.11153
5.33334
4.64453
4.14484
3.79743
3.94761
4.60713
5.35003
7.38049
7.61847
6.32507
5.6629
5.68362
7.77876
7.49891
6.73808
5.21933
4.55891
4.39404
4.38793
4.33133
3.92306
3.79394
3.77608
4.34421
4.27608
4.79131
4.90602
4.70872
4.0928
3.79056
3.81429
3.94533
4.17405
4.60805
4.90568
5.12731
5.34711
5.61915
5.68519
5.68753
5.77326
5.54074
6.61376
5.98349
3.709
3.58942
3.71676
3.77245
3.80046
3.90066
4.01391
4.13771
4.1983
4.45426
5.19174
5.53331
4.53544
4.12084
4.11176
4.12626
4.52582
4.5411
5.00802
5.05759
5.47024
5.56964
5.7354
6.29227
6.78149
8.15505
7.67198
7.13547
4.38243
7.46429
8.41332
7.42672
6.63185
1.6401
0.913161
0.910592
0.911278
0.911311
0.911306
0.911309
0.911303
0.911308
0.9113
0.911307
0.911303
0.911308
0.9113
0.911306
0.911301
0.911308
0.911298
0.911312
0.911311
0.911346
0.911383
0.911475
0.911567
0.910793
1.53672
2.06118
2.17922
2.2387
2.23848
2.20077
2.1451
2.57537
3.74085
3.99123
4.342
4.70492
5.88359
6.1417
4.60068
5.05021
4.88433
4.55671
3.18871
2.19816
1.77437
1.82679
2.24388
2.97383
3.90035
4.21932
4.32375
4.56768
4.49567
4.50611
4.80631
4.18031
3.9634
3.17123
2.26372
1.90124
2.16929
3.29052
5.03104
6.48467
6.74402
6.51582
6.21183
7.53476
8.59518
8.56085
8.51179
7.51049
7.26526
7.20467
7.32748
7.26636
7.3725
6.57843
5.94096
6.08564
7.10778
6.87464
6.86097
6.59855
6.41661
6.49008
6.26644
6.31319
6.29789
6.33713
6.38987
6.36037
6.24973
5.98545
5.79893
5.57126
5.59456
5.72015
6.01279
6.26372
6.4601
6.46705
6.3934
6.25316
6.62725
6.86488
6.69761
6.12857
5.77679
5.57358
5.63432
5.64162
5.6041
5.42156
5.28419
5.03745
4.99399
4.86198
4.95128
4.87063
4.86717
4.99539
5.07095
5.03049
5.46849
5.53176
5.6887
6.10291
6.20079
6.17547
6.13488
6.1292
6.06276
6.02692
5.82137
5.2311
6.47072
6.3053
6.41344
6.4258
6.56638
6.83457
7.43318
7.5924
7.62296
6.84327
6.63639
6.42794
5.91535
6.0991
5.65775
5.78206
6.13699
5.95163
5.75989
5.55891
5.37288
4.96993
4.80592
4.55374
4.52988
4.23218
4.41274
4.31703
4.6012
4.72842
4.4574
4.23107
5.07909
4.70893
5.2995
5.68555
5.83784
5.97277
5.02013
3.69629
3.03675
3.20563
3.1124
3.06925
3.63615
4.695
5.8614
5.37556
3.68639
2.84564
2.54128
2.80209
4.2335
5.93958
6.39101
6.10642
6.32441
6.19814
6.15104
5.51432
5.83387
7.42834
6.09785
5.34398
5.88843
6.14503
6.09503
6.1901
6.52559
7.19256
7.69741
8.38157
8.71091
8.76252
8.79657
8.7954
8.84164
8.43685
7.46752
5.67838
5.29193
5.06782
5.20718
5.103
5.08722
4.93885
4.9215
4.76792
5.00863
5.12584
5.64596
5.97823
6.28183
6.09574
6.57784
6.59577
5.78214
6.26344
6.33655
6.38853
6.24656
6.14263
6.23099
5.93562
5.99578
5.62504
6.28401
7.406
7.33929
6.37168
5.83288
4.89079
5.06109
4.66814
4.89847
4.78883
5.33986
5.26009
5.8159
5.67241
6.38174
6.43636
6.55121
6.91003
6.88428
7.1826
8.96572
8.00547
7.32347
6.29731
5.6747
5.60784
5.60294
5.87484
6.09377
6.01441
5.76648
5.99455
6.09313
5.9415
6.45016
6.25822
6.91537
6.7632
7.18465
6.88514
6.93248
6.61092
6.60778
6.33225
5.75894
5.38854
5.32674
5.24338
5.51124
6.41998
7.48543
4.95875
4.41841
5.03116
7.43581
8.1188
7.00262
5.89465
5.74761
5.00929
5.10394
4.9738
4.80166
5.33069
4.78756
5.18856
4.67392
4.863
4.84388
4.92726
5.08033
5.93936
5.97235
5.68491
4.98303
4.13702
3.80438
3.70663
3.96023
4.84199
6.40541
8.20708
6.73183
5.59315
5.05174
4.67889
4.83813
5.00558
5.96924
6.5067
5.84919
5.18718
5.15029
4.84222
4.67257
5.03749
5.44085
5.11147
6.34284
5.46352
6.05172
4.74987
4.84353
3.88366
3.71402
3.71352
3.80375
4.00251
4.3367
4.51019
4.77265
5.06966
5.33342
5.56755
5.70757
5.34475
4.66686
2.9764
3.81614
3.24472
2.71497
3.70024
4.55015
4.09923
3.86715
4.13344
4.48386
4.94522
5.30035
4.37265
3.7824
3.59432
3.56679
3.81821
3.79514
4.18771
4.20308
4.61661
4.62076
5.05068
5.05497
5.48942
5.3969
6.0943
5.92844
7.28823
7.29025
7.00972
8.26506
8.02684
7.10457
7.44367
7.75782
6.43149
7.00352
2.52466
0.86554
0.846744
0.842506
0.843022
0.842999
0.843013
0.842998
0.843004
0.842992
0.842998
0.84299
0.842999
0.842993
0.843011
0.843
0.843024
0.843008
0.843043
0.843036
0.84308
0.843094
0.84311
0.842793
0.839611
0.836679
0.839012
1.59096
2.18321
2.32169
2.31808
2.19804
2.11068
2.14822
2.53422
3.77368
4.1147
3.99793
4.27929
5.41244
5.06397
4.16318
4.73591
4.32824
3.69288
2.48386
1.77177
1.53673
1.60659
1.93922
2.41883
3.26102
3.82785
4.1876
4.35023
4.33165
4.31211
4.46675
3.73369
2.86112
2.14146
1.89106
2.32837
3.45669
5.16211
6.36596
7.21889
7.09783
7.35624
6.48959
6.73894
8.2998
8.61969
8.14573
7.8404
7.55694
7.27471
7.35728
7.36588
7.40272
7.45178
7.39243
7.06267
6.81664
6.82925
6.63188
6.58751
6.50913
6.30411
6.34393
6.29978
6.38152
6.44118
6.38218
6.14495
5.83332
5.67023
5.56821
5.44396
5.36125
5.47535
5.7436
6.10152
6.42829
6.44538
6.31803
6.44527
6.77115
6.83049
6.35362
5.92345
5.80081
5.5561
5.68435
5.48084
5.47611
4.99507
4.99021
4.54745
4.57924
4.60294
4.69711
4.81812
4.82725
4.89128
5.02579
4.99233
5.24568
5.41147
5.69973
5.76435
6.04826
6.11122
6.19425
6.169
6.14292
6.14839
5.7651
5.75485
6.23028
6.23865
6.24693
6.35407
6.33128
6.83931
7.27982
7.56102
7.29208
6.78693
6.99888
6.52962
6.7072
6.2852
6.53911
6.38624
6.04647
5.75222
5.63325
5.49676
5.04234
4.95147
4.69897
4.59288
4.31817
4.43038
4.18137
4.4073
4.37825
4.85022
4.59475
4.76509
4.84324
4.9313
5.32436
5.83178
5.80902
5.62695
5.40853
3.58131
3.0398
3.18331
3.04503
3.03226
3.37971
4.54513
5.4197
5.84107
4.1951
3.19911
3.07137
3.7175
5.88564
6.25809
5.98407
6.39285
6.74747
7.23973
7.05034
6.80031
6.68242
6.88929
6.37771
5.55548
6.01583
6.3962
6.61305
6.89123
6.94933
7.71612
8.119
8.41172
8.40782
8.39579
8.10956
8.10589
7.33266
7.3477
6.92269
5.21306
5.30643
5.08315
5.04602
5.11585
4.9878
4.98265
4.80954
4.83869
4.75289
5.05951
5.27949
5.69081
6.01237
6.30194
6.58235
5.89833
5.64698
6
6.24155
6.06065
6.05643
6.02776
6.04697
5.94244
5.78011
5.7172
5.3591
5.73079
6.62411
6.22655
5.25528
5.21747
4.66557
4.85967
5.00361
4.78907
5.30511
5.11984
5.73897
5.56531
5.93556
5.40972
5.34924
5.81594
7.10713
7.27035
8.48679
8.79303
7.89163
6.28926
5.88511
5.32583
5.49761
5.36207
5.5583
5.42783
5.64775
5.92153
5.74132
6.23685
5.937
6.68431
6.50462
7.03934
6.8064
7.09473
6.72909
7.02495
6.8049
6.42656
6.23722
6.16265
5.87342
5.81689
5.72455
6.08761
6.96195
7.19838
4.713
4.55721
5.26024
6.86429
6.74079
6.18949
5.40381
5.53222
5.44402
5.26071
5.94352
5.0881
4.93973
4.69987
4.10113
4.8214
4.73684