/*--------------------------------*- C++ -*----------------------------------*\
| =========                 |                                                 |
| \\      /  F ield         | OpenFOAM: The Open Source CFD Toolbox           |
|  \\    /   O peration     | Version:  2.1.1                                 |
|   \\  /    A nd           | Web:      www.OpenFOAM.org                      |
|    \\/     M anipulation  |                                                 |
\*---------------------------------------------------------------------------*/
FoamFile
{
    version     2.0;
    format      ascii;
    class       volScalarField;
    location    "0.003350000";
    object      T;
}
// * * * * * * * * * * * * * * * * * * * * * * * * * * * * * * * * * * * * * //

dimensions      [0 0 0 1 0 0 0];

internalField   nonuniform List<scalar> 
12384
(
2762.07
2746.8
2729.65
2702.41
2662.42
2616.06
2555.62
2550.35
2533.79
2544.29
2567.81
2616.71
2599.61
2585.13
2185.44
2186.28
2226.19
2309.78
2376.71
2457.5
2493.21
2535.73
2550.17
2574.71
2573.62
2579.18
2582.1
2585.38
2580.51
2578.29
2557.43
2558.8
2572.25
2591.66
2607.34
2554.95
2550.2
2458.13
2463.48
2400.85
2430.39
2529.44
2749.46
2696.45
2790.88
2916.05
2912.52
2909.4
2909.56
2913.19
2937.17
2961.04
2989.95
3023.83
3036.55
3032.13
2987.54
2998.88
2914.73
2943.2
2927.11
2914.53
2938.68
2922.83
2936.16
2940.16
2933.92
2892.73
2799.58
2618.18
2438.25
2352.56
2393.74
2542.58
2780.52
2765.32
2738.39
2740.96
2762.93
2784.51
2799.24
2788.73
2791.14
2757.5
2712.93
2682.37
2676.47
2646.52
2647.14
2620.7
2726.52
2668.07
2818.1
2809.27
2852.66
2840.72
2829.43
2819.5
2782.49
2748.67
2711.65
2722.6
2517.33
2572.06
2630.17
2647.76
2647.75
2623.76
2625.99
2633.75
2633.55
2646.33
2652.95
2661.18
2665.69
2660.98
2655.71
2650.61
2658.31
2626.99
2630.42
2571.03
2564.9
2549.41
2539.79
2546.2
2538.76
2526.64
2419.61
2221.87
2206.15
2322.25
2369.03
2358.96
2093.5
2103.96
2195.94
2277.9
2411.57
2484.97
2520.96
2509.18
2472.61
2419.54
2399.46
2368.54
2363.79
2526.24
2622.02
2874.79
2964.09
3039.99
3037.51
3034.21
2944.05
2854.15
2625.91
2456.29
2318.9
2321.37
2366.81
2502.21
2673.43
2725.46
2336.19
2385.19
2499.44
2675.21
2640.65
2600.66
2543.54
2479.76
2455.75
2416.68
2420.9
2530.09
2267.97
2115.2
2099.79
2086.46
2043.72
1825.09
1843.25
1691.41
1647.02
1616.67
1670.31
1600.12
1549.98
1473.71
1524.06
1557.2
1795.46
696.18
2216.56
2260.67
2345.99
2464.64
2582.36
2629.14
2626.47
2641.28
2660.77
2676.59
2718.08
2660.98
2443.04
2137.31
1946.76
1917.66
1901.9
1929.82
1980.86
1999.89
2044.05
2075.24
2107.02
2168.55
2196.77
2258.62
2329.69
2407.09
2483.77
2537.56
2505.59
2454.44
2421.18
2416.31
2412.84
2432.1
2444.79
2451.4
2468.85
2462.68
2497.6
2506.25
2532.42
2618.46
2625.84
2752.9
2799.17
2854.14
2917.02
2912.57
2858.02
2795.41
2805.13
2808.73
2828.36
2860.25
2760.97
2801.01
2556.12
2642.65
2624.54
2624.53
2572.17
2328.02
2354.82
2213.64
2284.59
2285.64
2343.28
2380.13
2410.02
2470.57
2500.22
2632.08
2656.59
2738.65
2800.83
2858.25
2925.95
2956.05
2967.85
2936.38
2896.9
2855.65
2834.9
2866.71
2954.65
3019.91
3032.27
3053.62
1904.81
1971.42
2020.22
2011.85
2004.54
2002.53
1978.2
1969.92
1924.6
1937.2
1951.35
1899.52
2014.28
1993.85
2114.04
2255.2
2273.49
2369.43
2413.17
2535.84
2652.2
2759.74
2862.12
2941.15
3010.21
3044.4
3034.31
2935.18
2631.84
2503.45
1836.14
1841.07
1886.38
1899.23
1924.19
1944.1
1981.22
1977.23
1984.1
2005.76
2039.58
2082.44
2107.14
2162.43
2169.3
2244.74
2261.1
2361.79
2367.19
2535.62
2489.12
2735
2643.06
2953.19
2923.37
3073.54
3031.07
3153.98
3079.23
1186.69
292.986
293
293
292.998
293.001
292.997
293
292.997
293
292.998
293
292.998
292.998
292.997
293
292.998
293
292.997
292.999
292.997
292.999
292.998
293
292.998
293
293
293
292.999
293
293.001
2804.21
2894.37
2948.78
2980.56
2984.62
2969.14
2940.36
2848.31
2696.3
2576
2503.27
2559.36
2596.94
2559
2136.15
2226.81
2391.11
2533.99
2613.4
2661.48
2680.14
2682
2682.16
2679.74
2672.72
2662.62
2662.85
2668.14
2692.25
2714.82
2729.63
2728.87
2732.27
2744.09
2734.11
2690.4
2633.46
2555.03
2473.16
2437.42
2426.06
2568.73
2778.11
2725.86
2801.79
2895.48
2861.03
2826.21
2825.48
2837.42
2862.68
2879.26
2920.69
2972.92
3009.56
3037.33
3002.92
2983.54
2947.27
2932.14
2923.19
2924.67
2932.62
2931.37
2946.33
2943.93
2931.92
2902.52
2804.5
2610.18
2420.99
2371.15
2442.1
2559.76
2775.77
2769.3
2780.39
2818.09
2840.61
2831.57
2745.07
2623.96
2552.05
2492.14
2466.14
2464.03
2461.42
2464.22
2478.71
2469.57
2524.36
2563.09
2672.04
2744.07
2809.23
2837.12
2839.48
2824.12
2800.15
2770.38
2720.8
2717.51
2576.26
2559.26
2635.25
2655.75
2649.07
2649.28
2647.34
2653.01
2671.54
2701.97
2722.72
2710.46
2676.87
2660.17
2639.01
2629.55
2604.47
2591.08
2546.18
2531.58
2474.41
2461.88
2465.25
2490.8
2509.54
2502.7
2381.69
2206.49
2209.45
2335.77
2418.98
2418.23
2081.47
2133.68
2267.81
2408.19
2556.96
2578.53
2536.63
2471.63
2417.28
2338.91
2350.59
2509.67
2894.84
2958.68
3013.32
3017.05
3040.25
3039.33
3036.39
3040.24
3045.97
3010.52
3013.02
2985.67
2671.89
2367.95
2323.78
2465.43
2656.61
2710.88
2518.26
2643.25
2668.55
2561.57
2479.95
2415.99
2391.91
2398.61
2417.43
2457.58
2573.42
2394.14
2239
2268.95
2278.47
2278.52
2185.51
2018.92
1873.24
1859
1772.57
1741.8
1645.82
1669.76
1615.34
1653.53
1606.9
1665.99
1852.58
2057.2
2286.12
2371.91
2610.99
2779.07
2792.99
2737.62
2711.96
2690.49
2758.58
2821.58
2789.38
2688.41
2425.01
2148.91
1958.14
1920.97
1901.65
1970.36
1993.03
2029.93
2049.73
2075.25
2128.14
2140.15
2208.84
2281.37
2328.65
2415.44
2480.51
2497.83
2492.77
2462.29
2442.68
2428.83
2428.18
2422.41
2413.48
2395.32
2397.26
2372.45
2400
2411.82
2426.7
2480.09
2479.53
2513.37
2535.65
2610
2563.6
2531.38
2478.13
2415.02
2403.53
2357.26
2438.11
2464.67
2561.93
2623.98
2589.26
2511.94
2541.39
2511.52
2418.21
2204.27
2181.7
2071.27
2108.47
2092.55
2094.91
2082.75
2023.37
2104.31
2038.64
2141.15
2112.44
2159.19
2208.95
2325.1
2443.53
2539.09
2565.6
2526.78
2483.82
2413.83
2324.6
2316.22
2440
2647.01
2802.2
2949.63
1862.2
1921.74
1965.63
1980.85
1995.56
2005
1996.89
2010.49
1958.66
1953.09
1975.26
1945.35
2014.87
2022.61
2127.32
2174.09
2268.12
2264.61
2290.65
2294.88
2402.35
2463
2517.19
2522.45
2588.55
2607.79
2627.27
2579.29
2531.34
2460.19
1751.55
1779.33
1904.35
1822.23
1876.13
1865.58
1944.3
1913.82
1951.74
1969.42
1992.76
2025.9
2054.29
2095.88
2121.86
2163.25
2187.4
2239.02
2239.17
2273.04
2274.35
2278.23
2317.42
2199.75
2271.41
2128.68
2315.07
2221.31
1259.36
2298.07
293.021
292.966
292.999
292.976
292.998
292.975
292.997
292.975
292.997
292.974
292.997
292.975
292.997
292.976
292.996
292.977
292.995
292.976
292.995
292.976
292.997
292.976
292.997
292.975
292.997
292.975
292.996
292.978
292.987
292.984
2958.89
2913.14
2863.55
2835.18
2849.67
2884.35
2920.08
2983.08
3026.77
2937.07
2647.91
2502.14
2532.55
2481.36
2188.23
2392.94
2561.15
2657.99
2694.95
2705.98
2696.48
2700.2
2684.32
2685.05
2672.72
2654.71
2625.73
2610.11
2636.48
2684.49
2742.7
2813.45
2856.85
2879.91
2870.28
2848.7
2758.53
2636.05
2503.59
2413.81
2442.87
2595.15
2789.31
2766.03
2819.86
2865.26
2784.25
2743.18
2772.64
2827.82
2872.21
2882.95
2888.61
2899.26
2928.73
2989.62
2998.6
2969.78
2974.29
2909.58
2911.57
2892.94
2894.06
2899.16
2912.53
2948.19
2933.73
2889.89
2786.86
2573.35
2405.52
2400.91
2508.31
2564.26
2795.03
2796.78
2829.3
2859.66
2826.73
2635.31
2479.16
2415.29
2425.4
2427.04
2470.33
2476.52
2510.85
2504.84
2514.24
2517.23
2519.93
2520.62
2588.03
2664.19
2722.27
2788.52
2802.25
2798.3
2768.25
2757.67
2719.99
2708.67
2566.32
2560.3
2625.45
2647.75
2660.28
2651.19
2650.74
2685.62
2727.8
2727.55
2675.11
2638.27
2602.19
2595.13
2585
2588.96
2554.53
2541.11
2487.87
2447.09
2405.54
2361.01
2365.57
2412.4
2451.16
2417.51
2280.86
2195.69
2259.91
2396.14
2465.27
2467.11
2104.55
2168.65
2396.62
2587.01
2615.83
2564.47
2458.83
2325.77
2296.85
2483.45
2803.02
2906.97
2940.42
2979.79
2991.74
2983.32
2876.23
2841.41
2836.21
2861.06
2909.38
2968.89
2922.5
2945.39
2950.47
2766.36
2443.7
2407.56
2553.11
2561.08
2748.51
2650.06
2503.43
2384.18
2327.87
2288.36
2321.13
2365.77
2438.66
2599.25
2549.6
2344.43
2435.43
2563.01
2688.62
2660.46
2508.33
2352.44
2209.61
2082.87
2007.86
1843.6
1793.08
1695.05
1676.57
1615.09
1689.3
1831.04
1822.57
1642.08
2312.11
2562.11
2805.86
2746.72
2705.85
2706.34
2679.21
2665.27
2674.64
2782.69
2835.79
2721.41
2456.78
2168.18
1983.93
1958.22
1992.62
2033.46
2067.42
2072.12
2078.87
2114.03
2112.24
2147.64
2213.35
2252.44
2328.84
2383.85
2421.63
2451.89
2498.13
2507.48
2479.89
2496.3
2457.61
2438.1
2420.83
2400.24
2389.29
2377.54
2437
2433.2
2565.43
2600.69
2690.3
2706.99
2787.89
2756.66
2769.75
2636.75
2387.51
2311.24
2164.78
2160.35
2057.78
2157.81
2195.38
2398.93
2472.6
2390.3
2510.83
2401.55
2347.11
2190.83
2185.57
2101.67
2129.27
2092.05
2095.85
2040.96
2070.41
2027.43
2080.75
2098.31
2199.49
2111.87
2134.12
2086.97
2088.95
2084.91
2099.9
2118.41
2124.19
2099.2
2092.71
2047.6
2077.54
2209.45
2430.64
2598.19
1888.1
1950.91
2000.97
2056.7
2137.71
2215.15
2232.95
2305.7
2282.65
2269.39
2207.81
2274.95
2174.21
2262.27
2300.63
2256.54
2315.6
2266.17
2237.31
2254.83
2231.76
2237.96
2228.85
2234.23
2169.22
2160.58
2132.18
2170.91
2191.12
2262.24
1810.27
1901.91
1902.56
2022.74
2011.23
2108.01
2014.48
2068.41
2014.37
2060.91
2040.23
2087.83
2070.6
2122.94
2111.84
2181.31
2152.49
2217.83
2183.7
2228.95
2175.43
2218.29
2082.64
2125.3
1983.84
1876.04
1803.41
1757.89
1719.31
1852.57
292.503
292.925
293.009
293.019
293.018
293.017
293.017
293.018
293.016
293.017
293.017
293.017
293.016
293.017
293.017
293.017
293.017
293.017
293.017
293.017
293.017
293.017
293.018
293.018
293.017
293.018
293.018
293.018
293.017
293.024
2781.18
2762.95
2750.76
2745.14
2759.76
2782.77
2821.55
2878.14
2939.58
3020.13
2984.77
2647.68
2501.77
2456.62
2394.98
2587.86
2696.96
2728.78
2727.81
2703.27
2689.56
2662.74
2683.75
2673.52
2684.95
2681.99
2662.87
2606.55
2588.87
2612.26
2684.91
2797.74
2887.14
2933.71
2945.76
2954.44
2851.52
2722.16
2512.88
2410.48
2387.73
2560.74
2795.22
2785.07
2815.14
2822.63
2709.32
2690.18
2751.67
2860.91
2947.38
2971.55
2958.22
2930.9
2938.52
2932.32
2987.98
2972.01
2975.68
2911.82
2888.36
2877.9
2863.4
2866.34
2883.17
2926.46
2939.71
2867.32
2744.36
2545.32
2388.32
2412.82
2543.34
2558.61
2793.23
2826.49
2866.54
2838.24
2584.33
2429.2
2404.08
2452.33
2533.69
2572.07
2596.38
2585.72
2593.81
2581.51
2591.52
2574.47
2596.15
2569.05
2574.7
2636.07
2672.84
2726.16
2758.38
2754.57
2727.82
2714.38
2712.31
2706.42
2527.31
2553.2
2613.96
2661.84
2664.71
2659.35
2675.56
2745.93
2738.47
2674.23
2580.18
2494.66
2437.19
2423.95
2454.57
2497.12
2504.68
2491.73
2458.95
2410.82
2364.1
2313.32
2304.43
2342.3
2343.73
2275.07
2204.53
2228.35
2335.47
2408.48
2455.68
2463.17
2117.45
2236.39
2550.4
2617.58
2589.76
2494.39
2308.13
2277.86
2538.27
2835.63
2899.5
2926.28
2962.53
2976.74
2980.39
2957.84
2928.7
2833.37
2830.73
2823.03
2853.76
2886.21
2890.06
2835.23
2862.81
2916.26
2780.68
2415.72
2419.1
2401.98
2650.47
2502.47
2392.44
2318.84
2286.74
2290.39
2312.15
2374.09
2534.26
2702.58
2464.88
2561.46
2792.71
2901.71
2918.91
2859.29
2726.56
2635
2637.13
2573.34
2408.97
2159.6
1948.03
1842.17
1762.35
1783.31
1741.47
1806.83
1883.11
1799.72
2397
2746.7
2710.71
2664.56
2739.97
2715.33
2692.31
2719.89
2700.08
2787.35
2809.35
2704.15
2456.03
2176.92
2036.62
2090.14
2155.06
2252.09
2233.26
2224.84
2243.63
2194.5
2183.61
2217.15
2187.12
2212.88
2237.97
2285.8
2345.12
2395.34
2520.01
2589.92
2607.79
2613.87
2575.91
2513.58
2480.88
2456.03
2490.73
2542.8
2669.96
2779.74
2875.05
2728.74
2716.48
2688
2673.83
2692.29
2740.34
2731.33
2856.31
2678.96
2421.08
2132.29
2084.01
2010.81
2042.55
2085.11
2336.13
2285.02
2358.21
2371.26
2352.26
2377.91
2449.17
2355.34
2299.86
2274.17
2265.77
2354.85
2435.65
2670.7
2836.44
2879.72
2854.19
2868.7
2911.06
2901.19
2580.27
2292.63
2147.86
2103.78
2061.77
2037.4
2006.86
1977.47
1961.07
2010.38
2152.5
2283.75
1971.32
2095.88
2195.39
2350.98
2544.04
2714.75
2793.17
2769.75
2751.7
2747.91
2741.62
2844.86
2790.29
2834.89
2929.6
2637.56
2580.69
2504.23
2343.91
2287.67
2275.1
2199.28
2145.71
2074.61
2024.83
1960.53
1989.96
1983.5
1999.12
2036.81
1955.99
2060.94
2250.84
2316.51
2354.77
2322.97
2407.74
2263.97
2308.24
2242.55
2287.57
2238.29
2308.27
2262.67
2331.82
2308.79
2370.43
2361.71
2425.97
2431.99
2522.82
2461.73
2440.48
2290.66
2153.46
2035.98
1962.43
1996.41
2024.83
2121.39
293.611
293.853
292.86
292.995
293.006
293.002
293.006
293.003
293.006
293.002
293.006
293.002
293.005
293.002
293.005
293.002
293.005
293.002
293.005
293.002
293.006
293.003
293.006
293.003
293.006
293.003
293.006
293.004
293.004
293.003
2703.97
2729.9
2779.06
2803.47
2788.06
2804.66
2835.56
2889.59
2939.89
2987.76
3037.18
2986.47
2685.79
2450.68
2600.05
2711.55
2762.49
2742.15
2696.78
2658.55
2620.84
2618.51
2593.28
2623.47
2633.22
2654.8
2654.21
2635.09
2575.21
2559.05
2632.85
2736.06
2870.35
2959.43
2974.67
2983.26
2947.87
2749.05
2519.18
2335.15
2272.56
2404.86
2706.63
2782.3
2824.98
2781.91
2684.26
2685.31
2760.1
2910.49
2996.02
3016.54
3032.46
3018.95
3009.79
3001.04
3018.73
2980.76
2944.17
2902.24
2881.31
2856.61
2848.81
2869.53
2891.87
2941.92
2909.76
2837.37
2723.25
2532.11
2364.69
2369.67
2521.79
2560.95
2823.41
2861.99
2862.58
2598.75
2420.46
2427.84
2563.16
2684.72
2731.58
2718.44
2695.63
2644.14
2616.99
2576.24
2575.52
2555.27
2559.55
2592.24
2574.46
2603.55
2661.76
2690.95
2718.71
2719.41
2671.86
2671.61
2696.56
2643.6
2477.57
2570.82
2605.2
2657.99
2675
2668.13
2734.9
2780.68
2717.46
2574.29
2444.64
2356.5
2301.81
2294.19
2310.34
2368.39
2430.37
2440.65
2420.12
2401.04
2339.81
2272.25
2260.96
2257.4
2224.97
2185.08
2193.64
2257.21
2325.52
2354.66
2381.61
2413.24
2132.76
2368.49
2608.7
2586.07
2569.11
2332.49
2254.7
2482.7
2833.82
2861.08
2891.83
2908.55
2917.7
2921.87
2938.66
2943.69
2888.97
2910.25
2869.04
2847.28
2805.01
2806.02
2819.13
2831.33
2838.24
2869.69
2940.04
2468.01
2312.44
2304.51
2545.64
2434.54
2364.72
2329.5
2297.68
2286.56
2316.4
2432.35
2678.35
2583.34
2611.3
2821.62
2921.13
2915.21
2872.07
2736.86
2594.36
2470.95
2504.9
2515.21
2552.35
2596.86
2407.15
2069.51
1900.39
1813.4
1816.12
1837.14
1802.05
1605.78
2600.94
2779.07
2677.48
2717.9
2624.2
2531.15
2554.8
2537.28
2634.77
2685.27
2711.19
2631.78
2391.54
2170.99
2168.64
2310.28
2365.88
2361.38
2384.38
2434.39
2469.25
2490.57
2533.03
2459.23
2486.86
2445.9
2374.34
2278.05
2253.87
2258.1
2554.78
2724.2
2760.88
2774.64
2734.71
2704.4
2625.74
2653.69
2734.32
2846.47
2730.4
2538.34
2484.72
2414.04
2384.85
2410.63
2428.44
2437.15
2396.68
2337.3
2317.86
2433.78
2661.9
2676.38
2267.29
2085.96
1979.84
1995.38
2105.94
2260.47
2309.99
2365.65
2483.75
2837.13
2808.58
2724.43
2704.9
2685.48
2787.43
2696.99
2604.75
2557.89
2582.2
2630.47
2563.49
2605.39
2636.66
2678.58
2800.99
2961.11
2826.04
2594.33
2405.09
2276.21
2179.39
2041.01
2015.56
1956.47
2020.64
2108.72
2054.01
2286.02
2596.23
2824.02
2770.3
2671.41
2603.39
2526.25
2488.19
2524
2511.7
2529.9
2567.68
2622.25
2680.92
2980.3
3189.4
2959.91
2770.21
2603.01
2456.28
2367.42
2236.55
2171.13
2059.83
2037.63
1992.57
1973.68
1938.99
2030.18
2181.29
2420.48
2664.11
2947.4
2967.74
2950.43
2859.45
2825.35
2660.28
2659
2621
2631.27
2597.93
2646.19
2652.54
2722.01
2767.76
2840.58
2882.11
2908.2
2797.97
2609.4
2463.84
2416.05
2358.21
2333.6
2355.47
2369.47
2374.23
2372.27
348.06
344.25
302.926
292.999
292.985
293.003
292.997
293.004
292.998
293.004
292.998
293.004
292.998
293.004
292.998
293.003
292.999
293.004
292.998
293.003
292.999
293.004
292.998
293.004
292.999
293.004
292.999
293.004
293.001
293
2708.62
2854.92
2946.46
2946.2
2904.64
2904.5
2931.28
2984.89
3022.84
3026.81
3022.78
3010.83
2840.78
2475.25
2683.68
2767.74
2771.92
2708.64
2667.68
2652.79
2652.45
2615.68
2592.78
2564.97
2587.32
2603.89
2607.58
2618.01
2554.4
2532.72
2577.92
2665.28
2836.08
2973.27
2998.95
3002.1
2958.97
2708.67
2394.38
2175.48
2073.85
2187.03
2532.26
2739.07
2803.41
2762.2
2689.41
2693.72
2792.68
2957.89
3014.28
3030.76
3047.46
3048.22
3045.17
3010.31
2973.98
2934.87
2904.27
2884.89
2870.98
2880.22
2899.66
2931.37
2938.68
2905.34
2843.16
2789.92
2685.28
2502.29
2324.65
2299.07
2454.11
2555.33
2833.26
2865.95
2687.53
2446.36
2447.95
2663.27
2760.46
2756.85
2746.1
2733.97
2716.83
2658.8
2631.83
2565.38
2558.1
2532.38
2534.28
2556.91
2598.88
2599.84
2636.95
2678.03
2667.64
2623.26
2600.17
2635.81
2641.04
2516.15
2468.85
2594.74
2583.02
2665.12
2676.1
2718.4
2808.33
2790.22
2660.74
2497.55
2364.83
2300.54
2281.86
2269.6
2288.3
2334.37
2380.54
2403.46
2425.14
2376.09
2292.71
2232.23
2199.96
2167.3
2135.33
2133.02
2180.02
2230.08
2291.02
2318.69
2350.66
2370.74
2173.01
2498.24
2582.54
2575.4
2428.71
2228.03
2358.83
2785.46
2842.98
2828.15
2857.85
2871.28
2866.91
2887.49
2892.63
2883.25
2884.14
2854.72
2831.99
2783.19
2750.54
2747.7
2774.38
2761.51
2790.05
2876.24
2844.26
2469.9
2261.22
2238.99
2496.6
2401.94
2372.9
2311.85
2279.25
2287.98
2354.58
2553.42
2719.76
2650.55
2801.51
2893.47
2907.17
2886.8
2801.37
2659.28
2494
2459.47
2421.98
2431.88
2446.32
2485.86
2564.09
2522.41
2164.23
1916.67
1828.41
1809.09
1787.95
1713.45
2674.17
2593.11
2604.03
2391.19
2222.67
2221.21
2218.94
2350.33
2404.29
2518.87
2576.02
2470.53
2303.77
2224.68
2376.8
2357.74
2293.34
2298.69
2306.79
2330.97
2363.55
2392.2
2426.87
2467.9
2516.87
2555.15
2633.67
2784.98
2535.48
2275.65
2609.35
2719.52
2606.17
2593.15
2671.82
2732.71
2812.81
2806.57
2683.44
2513.41
2411.16
2364.8
2324.83
2388.97
2404.88
2418.92
2546.69
2535.25
2444.16
2271.79
2208.29
2159.09
2242.46
2465.46
2799.94
2410.93
2097.41
1976.84
1985.31
2229.63
2233.51
2376.49
2822.48
2865.85
2606.89
2597.03
2589.36
2560.19
2481.56
2463.56
2420.4
2551.95
2620.43
2750.88
2724.51
2772.63
2717.86
2647.95
2627.12
2669.82
2747.22
2864.61
2973.1
2777.47
2543.74
2250.94
2146.15
1997.8
1947.64
2003.84
2142.48
2584.41
2841.33
2737.99
2654.28
2619.48
2581.47
2584.86
2604.38
2590.62
2645.19
2670.05
2671.52
2699.07
2597.38
2698.89
2886.53
3109.35
3228.4
3053.34
2883.16
2689.03
2543.61
2430.17
2342.25
2188.56
2099.03
2041.58
2009.39
2038.54
2351.97
2912.76
2943.48
2940.7
2957.69
2982.51
2990.67
3039.89
3091.44
3091.97
3095.87
3083.46
3090.87
3095.63
3117.41
3113.32
3128.16
3034.44
2901.42
2757.23
2661.96
2631.23
2655
2624.6
2609.76
2620.5
2631.86
2681.75
2643.69
2608.53
845.616
968.091
819.435
486.51
293.107
292.942
293.004
293.002
293.003
293.002
293.003
293.002
293.003
293.002
293.003
293.001
293.002
293.002
293.003
293.001
293.003
293.002
293.004
293.002
293.003
293.002
293.003
293.002
293.003
293.004
2794.46
2995.87
3013.69
3026.22
3010.18
3017.45
3024.73
2997.18
2930.81
2859.46
2825.91
2855.82
2787.13
2482.83
2728.93
2788.07
2758.94
2710.65
2750.41
2813.17
2799.17
2743.61
2638.28
2582.32
2545.49
2561.54
2556.5
2564.89
2514.29
2497.92
2517.19
2615.17
2803.56
2992.98
3006.97
3005.43
2910.38
2476.25
2186.84
2032.51
2013.59
2062.33
2368.64
2655.28
2812.01
2738.26
2681.26
2696.1
2804.28
2970.83
3018.9
3028.55
3024.77
3021.03
2992.88
2965.02
2956.66
2943.92
2937.34
2942.19
2948.68
2950.84
2945.32
2889.21
2836.52
2764.44
2709.71
2617.74
2502.96
2384.85
2269.64
2251.44
2369.75
2542.16
2849.69
2791.45
2495.22
2457.49
2697.33
2749.27
2737
2731.1
2736.16
2722.93
2692.46
2644.2
2610.64
2542.29
2526.42
2501.06
2503.33
2503.12
2509.48
2525.7
2536.59
2553.44
2547.02
2505.06
2527.98
2562.88
2506.27
2419.52
2480.25
2627.08
2584.88
2667.52
2701.67
2775.16
2856.08
2804.62
2616.62
2429.96
2330.91
2309.73
2320.39
2316.42
2319.72
2350.21
2388.51
2420.29
2379.92
2305.07
2223.06
2164.9
2127.44
2102.72
2118.68
2181.55
2283.69
2364.8
2435.97
2427.69
2405.52
2359.51
2267.2
2578.62
2545.06
2558.32
2286.9
2243.49
2562.64
2799.2
2794.42
2816.97
2820.91
2836.35
2857.16
2839.27
2842.32
2842.7
2843.64
2828.48
2779.42
2742.07
2761.2
2745.25
2793.15
2800.14
2829.3
2807.59
2764.51
2651.15
2525.53
2323.29
2468.78
2402.99
2332.6
2284.78
2267.59
2326.74
2476.44
2692.62
2679.62
2748.3
2857.71
2897.03
2897.8
2863.67
2766.86
2622.56
2493.92
2425.28
2424.23
2405.04
2410.32
2411.45
2457.83
2544.69
2564.02
2174.96
1925.51
1813.94
1781.92
1781.4
2686.56
2604.44
2591.79
2334.91
2245.93
2205.41
2223.14
2201.47
2256.83
2354.35
2360.89
2319.32
2275.27
2390.26
2403.41
2262.74
2267.7
2284.67
2312.18
2315.88
2384.9
2396.21
2418.66
2464.46
2469.21
2492.61
2546.82
2606.05
2731.33
2556.86
2632.87
2555.71
2382.94
2388.84
2431.44
2479
2517.68
2523.41
2416.46
2351.83
2322.04
2335.66
2359.37
2418.56
2470.7
2536.18
2504.35
2503.56
2439.45
2403.85
2308.66
2203.26
2133.77
2147.2
2339.66
2691.1
2495.32
2104.67
1988.82
2183.91
2222.07
2523.56
2928.76
2694.4
2560.22
2454.14
2457.94
2433.87
2431.05
2496
2656.99
2782.65
2929.76
2834.53
2880.46
2945.6
3004.73
2943.33
2778.02
2633.98
2593.22
2613.27
2698.58
2842.01
2973.44
2676.1
2451.6
2202.13
2023.04
1983.15
2250.8
2789.62
2769.66
2665.46
2666.22
2713.74
2751.26
2789.44
2910.02
2845.14
2789.47
2984.72
2980.36
3015.36
2853.92
2745.02
2736.71
2857.14
2995.82
3137.25
3215.22
3119.87
2953.56
2812.02
2713.81
2651.63
2473.59
2302.42
2144.65
2086.54
2677.58
2913.51
2917.16
2866.65
2913.63
2913.59
2908
2907.86
2919.38
2970.14
2985.51
3008.6
2978.69
2999.16
2889.04
2812.25
2704.17
2582.81
2565.44
2584.58
2600.33
2656.56
2684.53
2725.84
2710.07
2813.11
2827.28
2911.08
2876.9
2799.41
2646.73
2609.59
2586.17
2585.96
651.157
293.288
292.946
293.001
292.999
293.003
292.998
293.002
292.999
293.002
292.998
293.002
292.998
293.002
292.999
293.002
292.998
293.003
292.998
293.002
292.998
293.002
292.999
293.002
293.001
292.999
2864.55
2982.27
2873.64
2920.18
2941.94
2895.41
2863.18
2816.93
2756.91
2766.17
2757.03
2748.36
2680.2
2392.05
2746.95
2807.94
2770.23
2835.11
2846.17
2825.78
2840.78
2820.78
2692.59
2591.07
2532.17
2491.74
2489.1
2479.78
2420.38
2449.73
2471.74
2626.77
2870.41
3004.58
3002.71
2967.63
2533.19
2189.23
2119.27
2209.59
2210.24
2130.66
2297.81
2577.25
2751.3
2676.88
2670.97
2677.22
2749.36
2879.56
2971.55
2994.11
2984.59
2920.02
2842.16
2798.16
2728.2
2725.57
2729.39
2750.42
2764.05
2760.98
2738.18
2682.05
2607.2
2524.43
2466.16
2446.68
2420.09
2376.04
2315.93
2276.89
2348.5
2546.59
2857.26
2677.91
2473.89
2658.07
2740.19
2735.07
2724.47
2739.54
2727.6
2703.66
2684.99
2639.77
2607.63
2533.66
2479.51
2453.98
2451.1
2482.26
2524.74
2567.36
2548.44
2484.8
2471.49
2438.29
2447.41
2439.98
2403.14
2422.54
2556.89
2630.92
2582.05
2681.81
2737.53
2831.65
2877.92
2812.96
2594.68
2428.12
2328.65
2322.32
2346.64
2331.43
2367.81
2357.25
2372.65
2336.59
2252.95
2196.36
2146.89
2129.3
2145.95
2215.81
2342.85
2513.29
2565.99
2539.55
2531.47
2546.48
2553.91
2421.34
2368.31
2547.6
2525.52
2467.45
2201.64
2301.39
2763.39
2756.86
2783.39
2776.4
2815.14
2825.13
2817.87
2790.52
2807.31
2822.13
2833.3
2809.79
2772.46
2790.45
2771.26
2808.04
2792.24
2770.1
2701.41
2607.15
2593.71
2621.17
2748.86
2656.25
2473.94
2393.3
2330.76
2301.08
2330.96
2466.23
2628.52
2725.64
2712.64
2823.79
2876.68
2889.65
2875.68
2840.92
2752.24
2613.76
2493.75
2481.05
2441.05
2416.73
2395.47
2392.59
2413.47
2478.85
2588.85
2455.07
2065.76
1851.22
1821.09
1933.05
2490.62
2509.62
2352.5
2193.94
2153.58
2133.61
2098.29
2099.9
2100.29
2129.14
2179.2
2211.99
2358.78
2482.78
2321.76
2282.95
2287.72
2330.71
2368.57
2380.84
2458.62
2463.32
2534.76
2539.6
2574.44
2608.46
2634.24
2640.5
2653.15
2693.56
2715.82
2421.01
2239.28
2227.13
2250.04
2268.93
2276.14
2322.45
2274.56
2285.25
2297.66
2381.63
2412.88
2468.18
2449.01
2462.27
2404.61
2351.09
2376.67
2394.89
2393.07
2347.36
2253.17
2154.5
2128.67
2264.38
2606.63
2499.05
2086.83
2130.68
2155.95
2569.08
2850.56
2667.64
2496.53
2482.48
2434.54
2475.36
2554.19
2691.2
2813.2
2912.41
2900.82
2958.04
2883.98
2689.88
2745.41
2896.95
3044.02
2871
2712.98
2566.15
2552.19
2605.27
2688.84
2914.17
2860.51
2490.96
2080.01
1955.24
2378.08
2751.43
2813.92
2729.12
2706.58
2756.35
2861.35
2981.48
3003.31
2962.42
3017.27
2945.93
3004.15
2970.42
3029.39
2846.31
2705.19
2751.14
2836.46
2875.36
2968.37
3111.77
3150.05
3145.57
3090.46
2987.4
2903.41
2716.42
2429.32
2180.94
2784.46
2877.37
3022.55
3106.43
3081.38
2935.98
2855.98
2751.57
2792.1
2741.78
2790.27
2722.13
2668.63
2559.94
2428.37
2391.38
2391.88
2413.59
2463.87
2487.17
2539.55
2566.35
2608.18
2636.31
2658.29
2724.35
2778.8
2889.27
2967.5
2974.52
2672.94
2871.11
2918.16
2956.66
2891.18
596.856
293.258
292.911
293
293.002
293.003
293.002
293.003
293.002
293.003
293.003
293.002
293.002
293.003
293.002
293.003
293.002
293.004
293.002
293.004
293.002
293.003
293.003
293.004
293.003
2905.26
2825.46
2703.04
2736.69
2768.79
2769.32
2769.5
2751.92
2753.86
2857.11
2845.63
2745.07
2585.2
2460.71
2851.8
2844.41
2828.84
2805.81
2854.39
2836.5
2798.05
2777.11
2816.96
2846.87
2735.02
2608.32
2497.06
2454.45
2403.8
2390.84
2348.34
2469.08
2503.66
2838.29
2983.24
2985.93
2966.41
2539.53
2223.93
2269.17
2495.93
2632.02
2543.87
2293.13
2407.65
2515.33
2564.76
2632.74
2696.04
2652.98
2626.54
2580.6
2593.95
2625.78
2643.61
2639.22
2601.38
2572.21
2559.48
2538.43
2516.2
2521.92
2506.38
2522.12
2534.74
2533.85
2500.03
2463.94
2508.99
2637.56
2751.13
2781.41
2777.92
2708.97
2553.28
2395.8
2392.91
2543.7
2720.93
2875.25
2789.03
2558.82
2607.55
2753.83
2732.26
2726.37
2743.86
2733.46
2712.22
2676.66
2643.11
2614.48
2603.18
2585.53
2514.53
2436.06
2399.64
2401.68
2432.81
2485.07
2557.17
2528.09
2478.51
2452
2413.31
2372.43
2377.5
2470.47
2555.22
2557.16
2440.37
2484.28
2617.18
2690.69
2778.72
2859.84
2880.84
2850.72
2684.95
2494.29
2377.3
2307.83
2277.35
2298
2283.89
2291.51
2234.35
2209.32
2212.8
2192.73
2221.52
2312.88
2493.6
2575.21
2503.46
2420.87
2374.3
2354.97
2395.63
2436.06
2531.78
2549.24
2521.04
2507.15
2531.91
2482.81
2522.8
2329.57
2174.91
2445.54
2750.41
2741.43
2752.86
2786.97
2800.96
2832.37
2784.48
2785.46
2796.68
2849.6
2846.56
2811.06
2827.55
2801.08
2819.27
2747.7
2688.93
2590.65
2563.67
2559.5
2577.17
2573.9
2637.63
2785.11
2564.55
2415.96
2418.4
2390.4
2389.88
2424.77
2511.02
2653.4
2722.58
2724.81
2812.53
2861.21
2864.69
2843.23
2828.18
2801.14
2736.54
2597.4
2545.04
2513.54
2499.2
2456.25
2416.31
2386.97
2389.5
2443.56
2546.24
2588.35
2222.11
1918.88
1902.69
2082.84
2388.81
2636.06
2511.17
2507.85
2284.39
2212.4
2175.05
2137.52
2106.38
2058.21
2045.6
2013.22
2084.22
2279.72
2529.33
2387.88
2331.53
2307.25
2368.56
2350.21
2404.75
2421.72
2487.42
2506.28
2558.32
2568.09
2631.01
2651.05
2654.65
2679.25
2655.21
2657.96
2739.71
2659.29
2709.35
2309.02
2128.91
2088.08
2118.24
2138.77
2187.89
2198.9
2207.96
2273.8
2323.91
2379.8
2437.64
2422.9
2430.43
2370.54
2341.6
2294.37
2310.04
2333.61
2391.53
2408.9
2341.13
2244.55
2154.89
2101.96
2211.37
2550.1
2561.3
2139.08
2107.74
2161.83
2324.75
2741.81
2784.55
2604.81
2545.41
2469.48
2521.4
2584.01
2709.63
2829.63
2819.16
2888.1
2911.92
2878.3
2953.73
2819.15
2739.33
2857
2956.03
3003.45
2938.75
2684.7
2575.63
2522.88
2527.17
2621.99
2786.34
2968.66
2458.56
2017.96
1794.72
1884.25
2177.71
2449.61
2774.52
2956.49
2844.13
2789.73
2789.67
2837.93
2873.84
2898.45
2920.78
2990.73
2909.65
3018.89
2977.48
2806.06
2630.32
2690.94
2740.85
2777.26
2785.85
2858.86
2961.86
3040.95
3086.8
3117.52
3131.64
3129.61
2871.99
2390.4
2025.52
2470.94
3028.51
3107.32
3025.15
3068.59
3041.2
2868.53
2702.73
2627.55
2482.18
2468.12
2407.53
2310.95
2257.57
2231.09
2247.42
2280.11
2299.84
2346.88
2371.18
2416.11
2438.4
2480.39
2499.63
2539.45
2555.78
2613.3
2627.33
2739.19
2815.34
2909.78
2879.63
2896.48
2819.67
2869.09
2850.04
2964.72
2963.8
1037.85
300.744
293.5
292.932
293.001
292.997
292.999
292.997
293
292.999
292.999
292.999
292.999
292.998
293
292.998
293
292.998
293
292.998
293.001
292.999
293
292.999
293
293.006
293.007
2916.1
2733.79
2608.84
2711.45
2868.59
2896.14
2799.13
2731.93
2725.04
2853.12
2926.36
2886.01
2776.11
2838.3
2931.3
2879.85
2867.83
2834.25
2864.58
2804.64
2773.39
2753.49
2781.13
2825.12
2821.83
2725.71
2589.82
2524.52
2441.51
2488.03
2451.23
2710.94
2877.62
2964.43
2964.3
2910.03
2498.76
2263.63
2414.6
2672.55
2737.03
2749.77
2733.06
2480.55
2364.43
2498.07
2636.36
2697.22
2668.46
2592.54
2527.81
2485.74
2473.99
2482.03
2491
2498.03
2523.49
2554.41
2552.82
2548.21
2532.62
2507.8
2498.74
2474.38
2444.68
2425.19
2469.25
2673.11
2814.12
2807.79
2800.94
2796.57
2791.99
2794.26
2700.14
2520.04
2462.46
2602.33
2864
2805.49
2638.24
2589.41
2767.26
2736.32
2739.16
2743.21
2754.05
2718.69
2684.53
2611.92
2573.78
2517.7
2516.48
2543.61
2563.69
2491.1
2426.34
2412.75
2442.15
2481.39
2554.28
2563.87
2523.73
2432.86
2390.88
2379.74
2442.17
2492.14
2490.79
2507.67
2524.25
2564.1
2663.57
2717.79
2805.58
2867.56
2854.6
2868.92
2858.6
2738.63
2593.98
2473.3
2439.98
2371.85
2377.11
2338.94
2392.32
2415.67
2478.81
2591.9
2639.51
2575.22
2468.44
2402.75
2350.81
2327.79
2318.53
2346.46
2369.57
2410.46
2479.61
2575.84
2497.91
2531.49
2520.31
2477.65
2497.2
2244.2
2189.9
2497.91
2769.76
2696.64
2765.15
2775.22
2809.89
2795.8
2785.98
2751.2
2820.31
2837.18
2851.77
2864.64
2821.48
2837.28
2751.29
2675.04
2575
2568.55
2620.24
2688.71
2678.48
2629
2626.47
2633.15
2531.45
2444.41
2492.01
2524.03
2568.45
2628.99
2687.35
2743.75
2750.46
2820.56
2856.92
2846.98
2803.58
2777.04
2773.38
2755.36
2703.65
2568.14
2576.84
2551.97
2535.72
2509.13
2456.87
2407.85
2380.07
2399.86
2499.45
2597.06
2382.43
2062.91
1857.14
1836.14
2206.46
2511.51
2443.27
2380.06
2251.77
2207.98
2196.41
2165.44
2125.57
2077.09
2052.68
2082.48
2154.63
2386.18
2440.49
2369.41
2334.48
2376.67
2357.7
2402.09
2450.25
2446.02
2500.37
2505.57
2555.99
2557.59
2617.44
2620.2
2672.91
2700.79
2721.35
2702.1
2835.19
2691.63
2745.83
2254.2
2097.81
2029.07
2069.23
2068.54
2110.81
2120.23
2174.44
2248.82
2306.03
2368.88
2369.37
2402.49
2362.2
2346.66
2316.92
2327.81
2316.29
2355.13
2387.03
2405.18
2401.67
2353.55
2273.61
2197.06
2157.43
2230.52
2561.99
2619.11
2174.56
2190.88
2409.6
2793.03
2739.94
2620.83
2527.45
2553.43
2604.55
2744.36
2876.35
2871.45
2950.45
2876.09
2882.53
2839.99
2847.39
2893.04
2713.4
2881.22
2886.64
2864.13
2866.11
2812.05
2697.67
2556.3
2505.37
2504.95
2532.83
2658.4
2844.78
2719.81
2289.35
2216.51
2127.35
2168.16
2225.97
2330.01
2489.04
2727.95
2816.61
2907.39
2891.6