/*--------------------------------*- C++ -*----------------------------------*\
| =========                 |                                                 |
| \\      /  F ield         | OpenFOAM: The Open Source CFD Toolbox           |
|  \\    /   O peration     | Version:  2.1.1                                 |
|   \\  /    A nd           | Web:      www.OpenFOAM.org                      |
|    \\/     M anipulation  |                                                 |
\*---------------------------------------------------------------------------*/
FoamFile
{
    version     2.0;
    format      ascii;
    class       volVectorField;
    location    "0.003350000";
    object      U;
}
// * * * * * * * * * * * * * * * * * * * * * * * * * * * * * * * * * * * * * //

dimensions      [0 1 -1 0 0 0 0];

internalField   nonuniform List<vector> 
12384
(
(13.4681 7.3142 0)
(43.5737 7.11931 0)
(70.629 0.628845 0)
(95.3348 7.15106 0)
(111.295 -7.53435 0)
(124.848 7.10879 0)
(123.653 -5.22565 0)
(128.674 5.31688 0)
(134.977 3.41455 0)
(131.06 6.01937 0)
(124.966 7.69463 0)
(107.059 12.0117 0)
(72.5583 6.77751 0)
(24.4615 7.92549 0)
(-1.12185 9.49006 0)
(3.96993 3.55341 0)
(13.1329 -4.76526 0)
(32.1723 -6.44418 0)
(50.6174 -15.304 0)
(78.7729 -13.6882 0)
(106.553 -17.7868 0)
(132.088 -10.2431 0)
(160.249 -10.1155 0)
(178.846 -3.22735 0)
(203.827 4.505 0)
(226.055 8.54868 0)
(242.029 11.8685 0)
(253.289 17.5994 0)
(251.285 14.0743 0)
(237.117 24.2927 0)
(220.928 19.1638 0)
(197.225 27.2111 0)
(178.278 21.0165 0)
(156.645 22.7395 0)
(148.204 17.3037 0)
(121.996 12.0859 0)
(117.305 15.9982 0)
(81.1453 1.30039 0)
(51.9767 9.08183 0)
(27.1357 -2.34712 0)
(7.94873 3.04195 0)
(5.20079 -5.10085 0)
(6.06861 7.1657 0)
(12.4254 -8.57855 0)
(-2.24458 25.0784 0)
(-13.4559 17.9267 0)
(-17.195 13.4296 0)
(7.85936 -2.65072 0)
(47.9903 -12.4531 0)
(98.479 -11.4925 0)
(146.006 -10.3719 0)
(186.27 -12.1907 0)
(222.376 -1.67837 0)
(248.227 -1.9988 0)
(244.3 -6.90716 0)
(231.658 1.4088 0)
(174.837 -26.6165 0)
(88.6159 1.63158 0)
(67.8652 -13.1508 0)
(23.4975 -7.11283 0)
(-0.989798 -7.6295 0)
(-13.4829 -4.33023 0)
(-8.32612 -7.26939 0)
(-19.0154 -4.39315 0)
(-21.0449 -9.34224 0)
(-8.61671 0.120954 0)
(-11.3619 -7.99483 0)
(-4.57325 2.27908 0)
(4.81414 -0.70456 0)
(10.8431 1.61412 0)
(16.8795 2.53638 0)
(19.5891 3.8449 0)
(16.9542 5.46122 0)
(7.79523 9.52325 0)
(16.444 9.2652 0)
(40.4664 3.99044 0)
(53.6583 1.24155 0)
(67.1908 -4.46146 0)
(87.8078 -8.98725 0)
(119.844 -17.5192 0)
(159.339 -26.8287 0)
(210.179 -29.3586 0)
(255.719 -34.2696 0)
(302.229 -37.0493 0)
(360.626 -31.6434 0)
(413.665 -35.3282 0)
(445.591 -27.3623 0)
(510.36 -23.7327 0)
(531.277 -13.677 0)
(540.029 -19.482 0)
(473.878 11.1892 0)
(454.938 5.32457 0)
(289.609 30.9614 0)
(208.883 25.9511 0)
(109.557 25.4339 0)
(74.5059 16.7392 0)
(61.3255 15.1542 0)
(58.1857 13.1814 0)
(48.1014 14.5123 0)
(40.3007 21.4593 0)
(15.6022 18.562 0)
(1.79553 24.0492 0)
(-2.85621 17.5027 0)
(-7.6786 20.0265 0)
(-11.0059 8.98512 0)
(-18.1748 8.17157 0)
(-9.20489 1.93929 0)
(5.08727 -1.26099 0)
(32.9691 -6.06933 0)
(73.8042 -9.80955 0)
(113.033 -13.8501 0)
(157.596 -15.9719 0)
(201.497 -14.3193 0)
(240.998 -10.5238 0)
(278.347 -6.44698 0)
(309.173 -0.688276 0)
(325.651 10.0103 0)
(310.016 10.6194 0)
(263.492 20.0984 0)
(211.91 7.10843 0)
(130.791 11.3205 0)
(88.1756 4.58417 0)
(50.9238 1.97048 0)
(39.4265 3.66074 0)
(38.233 4.52473 0)
(35.4249 7.77845 0)
(35.352 9.36924 0)
(31.6176 9.63056 0)
(28.6447 11.3761 0)
(23.7424 7.60972 0)
(23.6776 11.9418 0)
(10.5502 5.29752 0)
(8.19465 15.613 0)
(14.6135 4.45715 0)
(16.3754 32.8985 0)
(26.9841 23.4491 0)
(22.4784 23.5889 0)
(3.31311 11.5622 0)
(-36.7402 12.6322 0)
(-27.8018 0.768942 0)
(-7.38407 8.9941 0)
(14.9886 9.81327 0)
(27.2431 18.7774 0)
(17.4821 18.2653 0)
(-29.6077 16.248 0)
(-57.8454 23.3222 0)
(-103.783 -50.8309 0)
(-115.111 -69.4312 0)
(-142.811 -145.653 0)
(-68.4056 -109.353 0)
(1.09666 -181.738 0)
(52.6191 -134.355 0)
(112.919 -137.644 0)
(146.847 -89.443 0)
(162.231 -51.862 0)
(158.62 -17.0978 0)
(148.632 12.4239 0)
(144.151 10.3089 0)
(144.444 7.13381 0)
(140.873 -0.290242 0)
(145.219 -4.04594 0)
(123.8 8.14617 0)
(80.7575 13.5919 0)
(36.5398 8.02411 0)
(-5.21205 -14.9998 0)
(10.1291 -5.38033 0)
(42.8007 -9.84874 0)
(61.9335 -1.86167 0)
(102.432 5.33214 0)
(131.464 -10.0357 0)
(162.324 10.5186 0)
(183.907 -30.6769 0)
(201.26 0.984076 0)
(219.234 -40.9711 0)
(202.769 -34.1609 0)
(185.116 -57.6843 0)
(180.983 -15.1421 0)
(175.777 -60.9686 0)
(192.404 -20.6142 0)
(180.254 -72.0741 0)
(97.0221 -66.4225 0)
(11.8145 -141.642 0)
(-1.036 -80.4072 0)
(34.5767 -192.071 0)
(66.7881 -106.777 0)
(83.2994 -144.222 0)
(93.5994 -0.793731 0)
(131.862 1.60337 0)
(128.285 49.8418 0)
(105.01 -33.3363 0)
(57.1603 26.0193 0)
(35.4778 18.9201 0)
(-14.2964 56.1759 0)
(-10.3339 41.9703 0)
(-17.185 -20.9291 0)
(-40.2279 -24.3711 0)
(-24.2605 -21.6217 0)
(9.06637 -21.3907 0)
(57.9714 -13.51 0)
(111.647 -2.71415 0)
(166.487 6.45073 0)
(155.417 3.59157 0)
(116.698 34.6618 0)
(28.6695 15.5451 0)
(-91.171 25.3241 0)
(-184.832 25.6859 0)
(-245.2 34.3172 0)
(-291.726 27.8809 0)
(-330.824 36.3245 0)
(-292.031 23.5826 0)
(-304.01 25.2357 0)
(-276.579 28.9036 0)
(-245.075 20.5055 0)
(-240.216 25.1864 0)
(-220.21 23.1242 0)
(-200.746 14.004 0)
(-181.403 15.3904 0)
(-133.137 10.4724 0)
(-101.379 -5.47468 0)
(-56.7378 7.4736 0)
(-14.7864 2.66845 0)
(6.71646 5.7828 0)
(24.2259 8.16743 0)
(16.4151 9.38945 0)
(7.86412 25.8848 0)
(26.685 34.6069 0)
(35.5524 30.5129 0)
(36.8515 38.5902 0)
(37.9378 37.245 0)
(28.102 39.2855 0)
(19.1793 31.6403 0)
(6.59216 30.8575 0)
(-13.2654 32.7904 0)
(-49.9339 31.4229 0)
(-87.721 42.0579 0)
(-104.547 30.5014 0)
(-120.225 38.429 0)
(-84.7337 38.7435 0)
(-68.8307 18.7397 0)
(-36.5206 26.5256 0)
(62.9101 9.53755 0)
(133.347 9.47845 0)
(196.665 11.9266 0)
(207.899 20.7079 0)
(200.783 13.0565 0)
(192.566 -21.9329 0)
(201.01 -30.4596 0)
(274.23 -26.8521 0)
(297.681 -91.7748 0)
(299.055 -26.5602 0)
(277.98 -111.67 0)
(102.071 6.96183 0)
(64.8653 -27.3764 0)
(-9.64571 -5.82552 0)
(7.23632 17.8268 0)
(75.6152 7.42269 0)
(28.3763 36.4728 0)
(-192.435 -6.29974 0)
(-256.72 31.5041 0)
(-296.127 -0.471336 0)
(-314.101 29.1844 0)
(-344.314 7.73819 0)
(-365.106 20.8437 0)
(-410.463 0.298596 0)
(-424.16 13.7836 0)
(-465.616 -18.9359 0)
(-542.952 6.92949 0)
(-544.832 -19.3859 0)
(-666.093 -13.1375 0)
(-608.845 -20.3179 0)
(-653.594 -32.8656 0)
(-642.43 -19.46 0)
(-567.837 -6.72437 0)
(-525.982 -8.74955 0)
(-488.187 -6.73863 0)
(-444.527 -5.53392 0)
(-372.997 -4.50079 0)
(-320.762 -17.72 0)
(-258.29 -12.2367 0)
(-189.042 -20.8141 0)
(-126.635 -15.6991 0)
(-72.6636 -14.6747 0)
(-30.5436 -9.52734 0)
(-5.32493 1.13122 0)
(15.9657 34.7491 0)
(23.0578 48.5264 0)
(8.14101 44.3906 0)
(-4.48601 36.6197 0)
(-17.3284 32.3116 0)
(-34.0654 18.8901 0)
(-54.6031 13.1492 0)
(-93.7288 2.55957 0)
(-156.269 4.96534 0)
(-157.4 17.5406 0)
(-130.345 -15.8129 0)
(-156.944 34.6016 0)
(-74.2956 1.49645 0)
(-121.069 2.62209 0)
(-225.84 50.5258 0)
(-236.811 52.8966 0)
(-292.484 27.8163 0)
(-256.773 47.2576 0)
(-176.017 33.4175 0)
(-112.409 27.6631 0)
(-64.5471 38.0067 0)
(6.67653 36.8862 0)
(92.9527 22.3232 0)
(200.279 11.7363 0)
(319.209 2.0257 0)
(391.632 -5.70197 0)
(429.707 -50.5256 0)
(269.231 -52.1572 0)
(34.5266 -18.1243 0)
(-37.7475 23.544 0)
(-79.3453 -51.3881 0)
(-109.428 30.376 0)
(-117.865 -42.6963 0)
(-72.5642 54.2597 0)
(-32.2446 -6.45155 0)
(-6.40606 61.5503 0)
(11.1998 -28.5308 0)
(-9.67539 65.7686 0)
(-28.9074 -26.8063 0)
(-8.71473 70.7139 0)
(15.5983 -13.7216 0)
(31.6807 73.2123 0)
(54.6802 -10.2192 0)
(55.5214 74.9781 0)
(87.8549 2.01663 0)
(86.8019 83.3736 0)
(127.522 21.4598 0)
(143.719 99.6495 0)
(206.338 27.7838 0)
(230.357 110.928 0)
(331.056 31.5167 0)
(345.071 110.138 0)
(494.555 47.5104 0)
(495.164 76.6691 0)
(661.192 -14.9208 0)
(678.837 -8.82069 0)
(822.372 -139.289 0)
(671.193 -115.603 0)
(708.9 -97.837 0)
(99.0589 -340.657 0)
(-0.00327342 -0.0162809 0)
(-0.00191527 -0.000826504 0)
(0.00203554 -0.00128702 0)
(0.000883236 -0.00108012 0)
(0.000501868 -0.00057725 0)
(-0.000167945 -0.000824382 0)
(-0.000650209 -0.000571866 0)
(-0.00118612 -0.00072885 0)
(-0.00145385 -0.000581242 0)
(-0.00174078 -0.000683772 0)
(-0.00185206 -0.000485941 0)
(-0.00192258 -0.000698213 0)
(-0.0019655 -0.000347273 0)
(-0.00174192 -0.000799914 0)
(-0.00157978 -0.000217698 0)
(-0.00103294 -0.000917096 0)
(-0.000775983 -4.16671e-06 0)
(-0.000244775 -0.000854917 0)
(-8.09146e-05 0.0001655 0)
(0.000126776 -0.000657299 0)
(-4.82477e-05 0.00010927 0)
(-0.000196686 -0.000551945 0)
(-0.000749264 8.32203e-05 0)
(-0.00123555 -0.000583214 0)
(-0.00187306 -0.000101613 0)
(-0.00220761 -0.000815094 0)
(-0.00231054 -0.000285971 0)
(-0.00243484 -0.00118048 0)
(-0.000824808 -0.00178275 0)
(0.000367233 0.000228048 0)
(14.6513 22.5923 0)
(44.483 14.135 0)
(75.4445 7.54403 0)
(99.6206 2.97233 0)
(123.416 -1.1683 0)
(148.866 5.53108 0)
(149.146 -4.97021 0)
(150.144 9.47752 0)
(158.163 10.0544 0)
(150.957 15.0678 0)
(141.526 23.907 0)
(125.491 35.2145 0)
(93.6705 28.7963 0)
(40.1229 19.862 0)
(3.69289 18.8941 0)
(6.72932 2.94642 0)
(19.5342 -11.0321 0)
(36.9365 -26.4629 0)
(63.5792 -36.2937 0)
(89.5963 -40.9895 0)
(123.891 -37.2733 0)
(149.653 -27.5532 0)
(170.801 -8.67893 0)
(196.524 1.09375 0)
(211.184 19.4049 0)
(230.472 30.8337 0)
(246.964 38.3546 0)
(255.808 48.7895 0)
(258.295 44.9544 0)
(252.688 58.5019 0)
(237.967 57.7809 0)
(224.474 63.9158 0)
(202.605 60.7917 0)
(188.792 56.5921 0)
(164.708 48.1251 0)
(142.273 36.398 0)
(131.386 26.3077 0)
(88.1895 5.42665 0)
(49.7125 0.525135 0)
(28.6228 -6.68294 0)
(12.2328 -8.99662 0)
(15.3126 -1.49685 0)
(8.90375 -1.92636 0)
(-4.13814 -11.988 0)
(-15.7883 64.7204 0)
(-31.8351 48.4951 0)
(-22.2291 24.2386 0)
(10.1279 -25.4356 0)
(64.1195 -42.2381 0)
(122.574 -41.2011 0)
(174.6 -27.357 0)
(213.073 -17.236 0)
(234.932 -0.94969 0)
(252.753 -0.578346 0)
(261.585 -8.2131 0)
(229.878 9.68918 0)
(188.012 -61.1675 0)
(110.981 5.30024 0)
(52.595 -46.5905 0)
(46.8197 -17.439 0)
(5.62604 -26.3127 0)
(-2.17549 -15.2596 0)
(0.645393 -23.0547 0)
(-15.5804 -15.6445 0)
(-6.48194 -20.0061 0)
(-3.84047 -8.02581 0)
(-6.72499 -11.5247 0)
(1.06973 3.19359 0)
(5.75109 5.09146 0)
(12.8834 8.76518 0)
(18.2522 11.3488 0)
(20.561 16.4799 0)
(18.1606 22.6341 0)
(9.06004 33.7658 0)
(5.1278 15.6252 0)
(17.4223 9.12432 0)
(38.0977 0.386831 0)
(64.7081 -14.8291 0)
(95.9224 -35.6832 0)
(131.648 -52.2583 0)
(173.776 -78.3683 0)
(214.188 -77.6493 0)
(244.486 -97.8497 0)
(284.676 -92.3303 0)
(325.792 -98.0397 0)
(363.298 -95.4077 0)
(407.978 -87.5196 0)
(452.929 -72.0535 0)
(486.687 -48.3784 0)
(496.143 -37.0055 0)
(480.96 22.5627 0)
(459.408 11.0451 0)
(346.936 69.8278 0)
(294.075 72.1608 0)
(207.578 79.4631 0)
(161.57 62.2458 0)
(127.693 55.5976 0)
(109.534 47.0785 0)
(88.4629 52.0798 0)
(71.8415 62.4112 0)
(47.8693 61.9585 0)
(27.4569 71.0716 0)
(16.4192 59.1879 0)
(4.19614 60.8012 0)
(-3.92633 30.3487 0)
(-10.8021 22.5836 0)
(-6.19998 10.159 0)
(5.21387 -2.91941 0)
(31.738 -14.3148 0)
(60.9955 -28.8927 0)
(103.961 -40.3249 0)
(151.389 -49.607 0)
(196.535 -46.9704 0)
(241.55 -31.1318 0)
(276.893 -16.7344 0)
(303.705 9.38667 0)
(308.593 26.5415 0)
(296.451 40.4574 0)
(257.957 44.4489 0)
(196.144 38.6242 0)
(131.647 20.1963 0)
(69.6643 21.5598 0)
(44.1061 3.22432 0)
(26.9378 12.7125 0)
(26.1937 14.8984 0)
(25.7636 25.0885 0)
(26.9348 28.7923 0)
(28.3174 32.0504 0)
(29.2246 37.4927 0)
(25.7492 25.7177 0)
(27.349 42.0347 0)
(21.9162 23.2489 0)
(9.17375 48.2228 0)
(3.89238 30.1004 0)
(16.7931 76.001 0)
(24.1108 70.22 0)
(32.1069 50.884 0)
(-3.49636 29.2409 0)
(-37.2056 30.9473 0)
(-37.2226 18.0041 0)
(-32.7336 37.5149 0)
(-39.6668 46.202 0)
(-54.9697 65.358 0)
(-93.1114 49.7514 0)
(-141.969 22.9525 0)
(-199.663 -58.936 0)
(-245.498 -174.465 0)
(-255.608 -253.292 0)
(-189.863 -323.611 0)
(-121.97 -315.122 0)
(-24.7152 -332.278 0)
(64.9171 -315.667 0)
(116.215 -240.034 0)
(162.632 -131.11 0)
(198.959 -17.3138 0)
(226.209 71.8413 0)
(230.561 123.48 0)
(211.793 116.824 0)
(164.371 84.7012 0)
(140.463 56.0865 0)
(117.524 30.2153 0)
(90.9853 32.0597 0)
(47.2401 41.7172 0)
(20.3536 32.9884 0)
(2.68753 -35.1239 0)
(26.9086 -23.0529 0)
(54.6457 -10.9619 0)
(69.2405 -13.8525 0)
(91.7971 1.73492 0)
(128.711 1.11754 0)
(127.691 -6.62595 0)
(128.745 -24.6311 0)
(126.845 -45.6291 0)
(107.426 -78.4497 0)
(107.874 -79.6776 0)
(105.454 -85.6736 0)
(105.492 -95.4175 0)
(106.349 -143.114 0)
(130.487 -149.583 0)
(117.078 -215.099 0)
(2.41744 -247.449 0)
(-55.014 -273.629 0)
(-74.624 -275.179 0)
(-49.9938 -281.434 0)
(25.0921 -234.264 0)
(92.511 -243.441 0)
(150.301 -182.249 0)
(126.068 -139.769 0)
(62.3893 -36.2799 0)
(45.9238 -13.9818 0)
(73.8441 36.3765 0)
(49.6202 12.5251 0)
(9.51173 41.5203 0)
(-20.52 1.91251 0)
(-21.0186 -66.2086 0)
(-18.4491 -80.1098 0)
(14.0874 -76.1111 0)
(51.9469 -64.4424 0)
(93.2435 -36.8803 0)
(131.674 -5.44901 0)
(150.984 13.4197 0)
(149.873 21.1334 0)
(99.5722 54.0677 0)
(-7.95848 54.0182 0)
(-119.508 74.5174 0)
(-219.97 83.4718 0)
(-277.414 83.0098 0)
(-307.835 79.5347 0)
(-371.921 85.1706 0)
(-318.768 80.8599 0)
(-314.933 64.9749 0)
(-306.065 90.918 0)
(-279.481 63.9389 0)
(-267.425 72.4768 0)
(-248.57 58.5345 0)
(-236.129 36.9499 0)
(-200.141 46.0313 0)
(-175.135 13.4735 0)
(-131.846 -13.1602 0)
(-84.4914 -23.1152 0)
(-58.7369 -55.8118 0)
(-36.1688 -70.8339 0)
(-26.1393 -48.017 0)
(-14.1542 -50.9103 0)
(9.44474 77.3097 0)
(23.1303 94.0121 0)
(30.2093 96.2973 0)
(33.8136 100.625 0)
(32.9032 107.603 0)
(26.1967 106.451 0)
(18.6485 100.367 0)
(0.503734 95.3204 0)
(-29.9955 102.784 0)
(-77.269 101.238 0)
(-107.219 121.344 0)
(-133.78 89.4352 0)
(-128.817 103.497 0)
(-94.4148 91.1981 0)
(-88.9242 67.2858 0)
(-39.8245 72.9043 0)
(43.3746 39.2907 0)
(133.804 35.6375 0)
(180.347 32.5519 0)
(184.232 17.6615 0)
(165.392 24.5396 0)
(139.722 -48.3399 0)
(177.115 -23.8623 0)
(186.08 -111.405 0)
(213.942 -130.378 0)
(251.835 -126.428 0)
(220.452 -180.846 0)
(163.696 -48.1315 0)
(61.5735 -96.6173 0)
(27.3534 12.0667 0)
(4.04702 57.9227 0)
(51.1069 36.0329 0)
(14.5075 64.2001 0)
(-161.004 20.8056 0)
(-254.213 61.7411 0)
(-253.725 29.9834 0)
(-296.091 65.7554 0)
(-300.512 40.8648 0)
(-325.611 42.7336 0)
(-345.526 11.9496 0)
(-389.308 -6.54683 0)
(-375.377 -27.958 0)
(-423.034 -40.0071 0)
(-418.908 -49.6697 0)
(-463.463 -65.932 0)
(-476.364 -34.2309 0)
(-485.253 -83.4425 0)
(-463.763 -34.8727 0)
(-436.206 -29.4293 0)
(-404.27 -8.63872 0)
(-346.793 -12.7397 0)
(-299.272 -18.1443 0)
(-260.492 -8.38097 0)
(-208.573 -22.9334 0)
(-174.797 -26.9013 0)
(-145.564 -28.9362 0)
(-110.799 -28.8638 0)
(-79.6055 -22.3257 0)
(-49.7196 -10.941 0)
(-17.3391 8.30072 0)
(18.1271 95.6745 0)
(21.399 123.012 0)
(18.5782 125.693 0)
(10.0158 113.222 0)
(-2.08889 104.072 0)
(-22.2689 71.6957 0)
(-62.9006 45.5355 0)
(-81.8555 18.7755 0)
(-114.874 -2.19776 0)
(-150.657 7.60702 0)
(-110.972 -12.3534 0)
(-88.2642 -20.4113 0)
(-51.1455 20.5199 0)
(-12.9551 -73.809 0)
(-115.993 100.776 0)
(-214.074 40.5094 0)
(-168.865 98.939 0)
(-136.924 85.2869 0)
(-93.4649 86.0213 0)
(-21.5116 70.2743 0)
(31.4833 98.3593 0)
(92.7653 106.099 0)
(162.739 85.884 0)
(224.368 66.0998 0)
(273.577 53.5939 0)
(287.717 -8.25502 0)
(252.392 -93.9174 0)
(198.738 -155.624 0)
(107.93 -93.1524 0)
(1.52733 12.5827 0)
(36.4185 35.1823 0)
(-28.732 60.2909 0)
(-45.833 24.8755 0)
(-29.3725 72.9858 0)
(5.17224 1.40985 0)
(42.8607 48.2276 0)
(59.7063 -5.74982 0)
(57.3581 60.2627 0)
(69.5235 18.6957 0)
(86.7297 113.22 0)
(115.679 50.1802 0)
(147.377 114.896 0)
(176.562 62.5684 0)
(206.061 113.918 0)
(226.647 77.2363 0)
(257.555 130.949 0)
(279.144 97.5538 0)
(310.489 180.809 0)
(338.786 135.169 0)
(381.875 237.812 0)
(383.827 174.331 0)
(451.087 276.782 0)
(422.931 183.667 0)
(479.689 247.652 0)
(444.808 118.018 0)
(456.289 85.5399 0)
(411.832 -202.037 0)
(505.505 -238.066 0)
(200.505 -454.798 0)
(-24.2389 -618.203 0)
(0.029911 0.101925 0)
(0.0372879 0.00120374 0)
(0.010808 -0.01286 0)
(0.0130404 -0.0122108 0)
(0.0111194 -0.0131888 0)
(0.00969581 -0.0108493 0)
(0.00855416 -0.0129402 0)
(0.00761586 -0.0106011 0)
(0.0067707 -0.0128085 0)
(0.00607088 -0.0103811 0)
(0.00532543 -0.0124526 0)
(0.00461317 -0.0102116 0)
(0.00382545 -0.0119611 0)
(0.00300417 -0.0101095 0)
(0.00197966 -0.0117731 0)
(0.000880963 -0.00998984 0)
(-0.000405091 -0.0115716 0)
(-0.00185108 -0.00985177 0)
(-0.00315914 -0.011594 0)
(-0.00446941 -0.00974376 0)
(-0.00536223 -0.0118332 0)
(-0.00641297 -0.00973272 0)
(-0.00712216 -0.0119194 0)
(-0.0081323 -0.0099412 0)
(-0.00886553 -0.0121277 0)
(-0.00995766 -0.010484 0)
(-0.0109979 -0.012148 0)
(-0.0128581 -0.011164 0)
(-0.0144403 -0.0120043 0)
(-0.0161252 -0.0130551 0)
(15.7255 19.8963 0)
(51.32 2.03336 0)
(83.6042 -5.77008 0)
(117.642 -8.71657 0)
(143.994 -5.61968 0)
(165.168 -1.71893 0)
(181.358 -0.4683 0)
(187.313 15.158 0)
(192.047 21.6395 0)
(181.744 29.0918 0)
(168.18 43.4335 0)
(143.278 53.4835 0)
(102.919 59.305 0)
(43.2767 42.1977 0)
(-3.47304 18.1282 0)
(-2.55091 -4.01022 0)
(10.0087 -22.6759 0)
(33.3811 -48.9071 0)
(59.84 -54.0197 0)
(95.397 -63.487 0)
(122.819 -47.8288 0)
(151.247 -41.3676 0)
(175.566 -19.4369 0)
(185.19 2.13329 0)
(204.5 21.6728 0)
(213.598 39.8606 0)
(226.137 56.9148 0)
(233.933 67.9139 0)
(240.099 72.1482 0)
(241.16 83.4016 0)
(227.265 88.8553 0)
(220.346 98.0067 0)
(206.637 97.4793 0)
(188.074 95.7021 0)
(162.255 68.7853 0)
(138.426 70.1158 0)
(119.877 19.3645 0)
(72.5707 24.5465 0)
(47.3386 -6.84935 0)
(14.9076 -3.66666 0)
(14.6299 -7.12822 0)
(8.12477 -2.22897 0)
(9.45428 -8.82226 0)
(18.1191 -6.07908 0)
(-8.97092 111.485 0)
(-20.7997 84.3718 0)
(-13.0905 27.2708 0)
(29.8342 -50.2325 0)
(90.6648 -78.4377 0)
(153.537 -71.8432 0)
(206.297 -45.8361 0)
(242.653 -16.9733 0)
(265.1 3.36071 0)
(266.763 2.73891 0)
(275.998 -0.829802 0)
(232.786 -18.1114 0)
(190.591 -24.299 0)
(139.838 -51.1136 0)
(72.9608 -30.5621 0)
(71.5816 -40.5146 0)
(16.0481 -42.0059 0)
(9.8822 -30.7462 0)
(1.59562 -40.3307 0)
(-5.71286 -24.6315 0)
(-7.12868 -29.8502 0)
(-5.53928 -17.9732 0)
(-2.05227 -14.4088 0)
(1.98015 3.80005 0)
(6.78742 7.56238 0)
(10.216 16.5392 0)
(15.5058 20.2779 0)
(16.8996 26.9805 0)
(13.7795 36.8137 0)
(6.27675 54.7941 0)
(8.98255 30.7084 0)
(25.5735 19.0926 0)
(39.0501 -0.0086929 0)
(61.3988 -25.5504 0)
(91.9842 -59.8789 0)
(117.636 -76.9867 0)
(137.562 -110.053 0)
(152.3 -104.146 0)
(165.06 -143.024 0)
(182.76 -129.914 0)
(209.374 -164.759 0)
(232.353 -147.06 0)
(272.741 -158.903 0)
(314.348 -126.723 0)
(350.483 -103.178 0)
(380.56 -69.4864 0)
(388.298 -7.45469 0)
(385.02 13.192 0)
(313.348 77.1776 0)
(277.256 96.5904 0)
(205.711 130.202 0)
(171.966 117.032 0)
(140.03 109.23 0)
(115.783 94.302 0)
(92.8391 94.4805 0)
(71.7614 103.311 0)
(50.1719 107.434 0)
(31.8371 115.548 0)
(19.8526 102.51 0)
(6.76853 100.749 0)
(-17.5262 51.8195 0)
(-29.3815 36.967 0)
(-23.779 26.4876 0)
(-8.73972 3.1366 0)
(18.2439 -18.4967 0)
(52.8432 -50.2126 0)
(91.2875 -70.5964 0)
(138.034 -81.7131 0)
(188.484 -84.0795 0)
(230.678 -56.1427 0)
(264.906 -29.9056 0)
(289.388 13.5619 0)
(291.123 45.5955 0)
(270.033 73.764 0)
(226.355 72.0189 0)
(155.636 76.3907 0)
(90.3649 40.251 0)
(39.4131 31.3919 0)
(11.535 18.0329 0)
(4.16225 17.5762 0)
(-0.467142 29.415 0)
(3.41739 40.4127 0)
(6.58907 47.1479 0)
(13.4798 52.5999 0)
(19.7076 58.5281 0)
(25.7088 47.1765 0)
(31.6702 67.4792 0)
(28.6414 48.0796 0)
(23.5411 70.7903 0)
(11.2874 62.2849 0)
(29.0141 117.791 0)
(24.4082 114.618 0)
(10.1585 96.1085 0)
(-21.5396 61.6239 0)
(-63.3078 70.483 0)
(-76.58 68.168 0)
(-97.5255 94.3309 0)
(-121.702 108.832 0)
(-162.108 118.033 0)
(-210.036 83.3138 0)
(-298.489 -10.1882 0)
(-366.758 -134.865 0)
(-375.393 -256.279 0)
(-321.49 -348.933 0)
(-241.971 -397.889 0)
(-138.72 -437.446 0)
(-67.4824 -466.504 0)
(-10.7069 -411.897 0)
(53.7833 -389.002 0)
(87.5795 -259.357 0)
(118.465 -122.865 0)
(152.884 23.2774 0)
(178.009 138.108 0)
(181.537 198.559 0)
(180.745 164.592 0)
(156.076 100.37 0)
(127.455 46.9791 0)
(84.305 43.2394 0)
(40.5168 57.2894 0)
(14.346 38.5789 0)
(0.651528 -54.2972 0)
(30.889 -44.3203 0)
(47.975 -14.7803 0)
(64.9057 -17.7836 0)
(93.6201 11.6409 0)
(77.4125 2.90423 0)
(68.5007 -11.488 0)
(57.1732 -31.4065 0)
(30.0554 -72.1168 0)
(34.3753 -79.8918 0)
(11.322 -87.5742 0)
(-2.35496 -105.221 0)
(12.2101 -163.098 0)
(58.2792 -226.241 0)
(107.125 -262.919 0)
(94.8804 -310.647 0)
(-6.09004 -358.52 0)
(-105.846 -351.594 0)
(-87.4888 -392.552 0)
(-33.6402 -367.037 0)
(22.5132 -333.951 0)
(55.866 -307.974 0)
(89.2414 -275.876 0)
(141.735 -277.219 0)
(151.208 -218.821 0)
(116.867 -163.633 0)
(18.0033 -46.7264 0)
(-46.0981 -3.63416 0)
(-47.5472 2.36636 0)
(-16.3984 -100.668 0)
(-13.246 -99.6614 0)
(-1.38934 -135.751 0)
(32.7362 -149.888 0)
(72.5046 -116.071 0)
(99.2703 -66.2301 0)
(124.431 -23.582 0)
(148.038 15.0536 0)
(146.644 41.6787 0)
(82.7225 70.7083 0)
(-23.8764 100.228 0)
(-122.096 130.595 0)
(-216.215 139.454 0)
(-265.812 130.055 0)
(-295.448 117.078 0)
(-340.396 119.38 0)
(-317.453 120.339 0)
(-305.547 113.694 0)
(-321.032 132.178 0)
(-303.445 120.581 0)
(-289.458 110.938 0)
(-273.599 87.2171 0)
(-239.841 72.3324 0)
(-223.382 54.1002 0)
(-196.243 7.36852 0)
(-168.874 -18.4205 0)
(-158.336 -68.2915 0)
(-110.72 -90.6822 0)
(-61.9614 -120.169 0)
(-25.8429 -137.556 0)
(-7.94227 -128.713 0)
(2.62964 133.173 0)
(16.5032 151.226 0)
(20.2074 157.425 0)
(20.7765 161.56 0)
(21.9043 169.198 0)
(15.5606 172.366 0)
(8.64515 175.627 0)
(-10.345 170.712 0)
(-35.7931 179.711 0)
(-85.3135 178.11 0)
(-105.136 206.157 0)
(-140.654 138.347 0)
(-128.849 191.26 0)
(-100.672 119.342 0)
(-84.077 123.613 0)
(-20.736 105.35 0)
(65.9981 84.9476 0)
(167.728 61.2271 0)
(224.577 37.0883 0)
(230.707 10.6897 0)
(162.25 -59.8786 0)
(112.836 -84.2356 0)
(125.36 -135.363 0)
(170.952 -155.226 0)
(220.274 -168.239 0)
(211.571 -211.172 0)
(245.627 -149.45 0)
(218.222 -172.472 0)
(129.789 -66.121 0)
(78.627 -40.2198 0)
(27.6395 82.5364 0)
(63.1268 63.4465 0)
(16.8808 78.3623 0)
(-180.022 21.8441 0)
(-227.235 73.575 0)
(-251.242 63.453 0)
(-279.035 90.4896 0)
(-301.035 79.4508 0)
(-329.079 63.4785 0)
(-371.703 16.7869 0)
(-369.123 -12.8597 0)
(-394.687 -53.0503 0)
(-419.688 -91.0293 0)
(-448.485 -89.2022 0)
(-459.461 -106.815 0)
(-474.602 -104.813 0)
(-424.818 -99.1349 0)
(-388.873 -86.6891 0)
(-334.581 -61.174 0)
(-281.695 -41.0712 0)
(-241.693 -20.3837 0)
(-196.36 -25.5934 0)
(-158.234 -20.5773 0)
(-135.087 -10.0197 0)
(-108.9 -17.2497 0)
(-89.7697 -19.7125 0)
(-71.8039 -21.7977 0)
(-52.3345 -10.856 0)
(-38.571 -1.4722 0)
(-14.426 10.713 0)
(4.44292 141.706 0)
(14.8381 175.4 0)
(19.1382 184.305 0)
(11.7978 173.315 0)
(-11.6024 161.919 0)
(-51.8366 110.913 0)
(-83.3294 91.1882 0)
(-117.066 45.4229 0)
(-155.666 15.0041 0)
(-149.941 20.8226 0)
(-145.077 -13.5809 0)
(-88.629 -15.6472 0)
(-49.7666 -37.2717 0)
(-0.534645 -6.55833 0)
(-25.0251 -15.0849 0)
(-126.906 83.2327 0)
(-112.809 101.072 0)
(-82.2573 116.703 0)
(-23.8314 131.276 0)
(40.6644 148.016 0)
(108.95 146.053 0)
(160.301 150.802 0)
(202.018 133.31 0)
(239.146 100.97 0)
(237.094 37.2732 0)
(207.273 -55.6756 0)
(192.679 -122.167 0)
(188.33 -153.906 0)
(184.591 -106.504 0)
(58.9974 -27.3884 0)
(-62.498 149.932 0)
(-85.9313 168.927 0)
(-75.8187 112.046 0)
(-58.9109 98.503 0)
(2.17815 80.994 0)
(76.345 85.4804 0)
(108.794 51.6538 0)
(111.614 86.9037 0)
(119.527 105.982 0)
(129.976 131.047 0)
(164.407 155.136 0)
(190.475 175.092 0)
(234.614 181.65 0)
(257.398 204.937 0)
(286.191 207.835 0)
(308.759 239.339 0)
(337.195 241.455 0)
(363.969 266.324 0)
(393.667 283.554 0)
(407.672 269.365 0)
(448.1 298.942 0)
(410.739 233.985 0)
(470.667 258.589 0)
(382.99 124.74 0)
(362.201 23.2779 0)
(312.876 -186.729 0)
(332.416 -230.075 0)
(302.15 -461.554 0)
(164.421 -620.34 0)
(80.9724 -689.225 0)
(-0.124127 0.163424 0)
(-0.167469 0.209361 0)
(-0.0105252 0.0445058 0)
(-0.0120948 -0.00774474 0)
(-0.0124645 -0.0160484 0)
(-0.0124209 -0.00759164 0)
(-0.012149 -0.0152651 0)
(-0.0112388 -0.00716301 0)
(-0.0103058 -0.0151227 0)
(-0.00898475 -0.00693229 0)
(-0.00769014 -0.0146311 0)
(-0.00615871 -0.00657684 0)
(-0.00473221 -0.0139263 0)
(-0.00331624 -0.00616285 0)
(-0.00198914 -0.0133411 0)
(-0.000854643 -0.00579921 0)
(0.000486515 -0.01294 0)
(0.00166894 -0.00567141 0)
(0.00321796 -0.013128 0)
(0.00452652 -0.00587559 0)
(0.00610895 -0.0136348 0)
(0.00731878 -0.00603178 0)
(0.00875833 -0.0138983 0)
(0.00978188 -0.0061803 0)
(0.0109351 -0.0141358 0)
(0.011735 -0.00638786 0)
(0.0123285 -0.0139438 0)
(0.0125374 -0.00613433 0)
(0.00886671 -0.00835136 0)
(0.00404996 -0.0177518 0)
(19.5973 -2.71876 0)
(54.8921 -20.7238 0)
(92.8701 -20.3355 0)
(119.349 -24.5825 0)
(140.737 -16.3003 0)
(168.065 -7.55856 0)
(185.116 -0.577066 0)
(201.229 13.1438 0)
(214.097 32.8691 0)
(215.69 44.6599 0)
(200.705 66.8492 0)
(166.29 75.3753 0)
(121.019 93.4421 0)
(51.1153 73.5799 0)
(-5.36191 15.7857 0)
(-9.40199 -15.8153 0)
(1.98236 -42.2568 0)
(23.7524 -63.3638 0)
(56.0875 -73.8043 0)
(86.061 -74.0308 0)
(117.599 -61.7734 0)
(141.109 -46.8255 0)
(161.402 -32.363 0)
(178.315 -4.07583 0)
(181.768 25.1441 0)
(193.754 47.0816 0)
(199.109 64.2914 0)
(196.163 76.6482 0)
(205.38 89.5549 0)
(207.851 96.7316 0)
(196.119 105.964 0)
(195.764 122.871 0)
(178.848 117.75 0)
(160.234 114.777 0)
(132.155 82.4397 0)
(119.047 73.061 0)
(92.0828 28.5047 0)
(67.0231 25.0549 0)
(37.9315 -0.837829 0)
(10.6534 -5.53648 0)
(0.618474 -2.9701 0)
(4.19521 0.930749 0)
(3.15572 -0.732501 0)
(-4.75729 -5.04499 0)
(-16.1465 154.837 0)
(-17.1916 109.028 0)
(7.02223 14.9767 0)
(64.6506 -80.3929 0)
(125.46 -111.072 0)
(179.654 -96.7262 0)
(226.483 -56.3132 0)
(259.343 -8.7847 0)
(278.999 18.0807 0)
(283.591 12.3857 0)
(275.114 15.1021 0)
(243.136 -33.4096 0)
(196.814 -1.11696 0)
(153.19 -76.167 0)
(85.7613 -31.4659 0)
(79.3006 -63.3295 0)
(28.5812 -50.0897 0)
(28.4939 -38.3247 0)
(10.314 -49.9299 0)
(-2.29616 -37.8321 0)
(-0.0944711 -40.6282 0)
(-2.49812 -18.7454 0)
(6.07939 -17.952 0)
(5.05983 3.54845 0)
(10.2784 11.6587 0)
(14.8147 21.1039 0)
(13.4156 31.1129 0)
(10.1759 42.0195 0)
(6.17235 55.3949 0)
(2.44747 76.4277 0)
(2.73724 47.0603 0)
(12.7048 27.1191 0)
(32.3986 -2.45522 0)
(50.2947 -36.0874 0)
(60.3254 -66.9682 0)
(59.8632 -85.3193 0)
(65.2119 -116.813 0)
(54.7512 -124.044 0)
(59.5693 -164.209 0)
(65.2681 -165.881 0)
(79.5924 -203.714 0)
(90.3784 -197.422 0)
(111.285 -205.199 0)
(137.403 -184.177 0)
(159.894 -153.312 0)
(196.555 -116.616 0)
(222.153 -43.5013 0)
(226.579 -11.4266 0)
(202.209 89.2389 0)
(202.649 101.643 0)
(159.08 156.61 0)
(132.997 161.315 0)
(120.686 156.05 0)
(98.0301 140.484 0)
(77.2178 139.105 0)
(57.3078 141.009 0)
(38.9429 153.01 0)
(21.1954 152.552 0)
(7.61437 141.475 0)
(3.30467 142.777 0)
(-7.90513 84.8942 0)
(-18.2773 67.0549 0)
(-27.3079 46.338 0)
(-28.0934 15.6854 0)
(-14.3999 -19.9878 0)
(17.8128 -61.8539 0)
(65.5279 -103.49 0)
(107.753 -115.911 0)
(150.948 -112.953 0)
(190.033 -82.6947 0)
(218.622 -35.7304 0)
(241.052 17.4315 0)
(238.92 72.8774 0)
(210.212 99.4558 0)
(167.28 120.912 0)
(94.64 78.9137 0)
(32.8586 79.8057 0)
(0.673655 39.9591 0)
(-24.1364 34.8653 0)
(-33.4075 31.3685 0)
(-32.9781 47.0375 0)
(-30.8722 57.2794 0)
(-22.1622 63.8736 0)
(-9.14659 69.107 0)
(6.90116 73.9936 0)
(19.8027 69.2465 0)
(28.4542 82.4041 0)
(31.7818 78.3443 0)
(20.3598 92.8648 0)
(4.4341 97.7505 0)
(18.0135 163.988 0)
(7.93406 131.679 0)
(-13.77 150.493 0)
(-55.3781 113.905 0)
(-102.08 128.114 0)
(-128.089 144.359 0)
(-164.028 170.448 0)
(-197.317 175.859 0)
(-242.778 168.521 0)
(-348.804 93.4003 0)
(-442.815 -39.8591 0)
(-482.432 -173.273 0)
(-446.749 -296.872 0)
(-360.948 -380.734 0)
(-269.842 -459.565 0)
(-192.226 -506.89 0)
(-120.833 -537.487 0)
(-89.9635 -562.997 0)
(-49.7945 -447.681 0)
(-31.1265 -385.43 0)
(-13.8257 -199.242 0)
(35.6983 -64.2634 0)
(104.564 78.5634 0)
(155.374 145.939 0)
(146.262 154.75 0)
(143.688 107.285 0)
(116.129 52.9864 0)
(70.4199 48.7837 0)
(21.9693 60.0445 0)
(22.2422 48.1266 0)
(9.8421 -68.6456 0)
(41.4245 -55.3201 0)
(35.1662 -17.8139 0)
(39.5872 4.05073 0)
(16.0575 9.32918 0)
(-4.81831 14.854 0)
(-37.848 -8.18824 0)
(-72.2899 -41.8366 0)
(-81.4994 -60.5301 0)
(-86.1273 -83.1448 0)
(-72.1542 -109.213 0)
(-47.748 -170.526 0)
(-2.46664 -232.82 0)
(56.2309 -279.454 0)
(93.8792 -316.366 0)
(51.7163 -347.166 0)
(-54.2818 -400.256 0)
(-149.913 -428.285 0)
(-128.85 -423.986 0)
(-39.9213 -415.956 0)
(22.1822 -408.059 0)
(77.4745 -380.128 0)
(113.498 -333.524 0)
(139.391 -281.735 0)
(142.593 -268.951 0)
(119.377 -220.316 0)
(153.929 -227.873 0)
(100.75 -201.464 0)
(3.74733 -94.0169 0)
(-11.6503 -127.263 0)
(3.78446 -145.887 0)
(57.4729 -236.337 0)
(104.606 -262.432 0)
(108.683 -228.215 0)
(72.9164 -177.079 0)
(34.9331 -84.1069 0)
(10.9238 -26.4236 0)
(13.0273 52.6134 0)
(-24.3628 70.3201 0)
(-91.6501 139.281 0)
(-166.006 167.772 0)
(-224.66 177.739 0)
(-259.408 175.665 0)
(-275.071 156.119 0)
(-341.961 153.817 0)
(-314.079 168.736 0)
(-322.029 166.054 0)
(-321.874 168.092 0)
(-319.831 161.021 0)
(-329.833 129.017 0)
(-296.307 126.145 0)
(-294.038 80.7193 0)
(-281.355 41.8672 0)
(-245.278 11.2795 0)
(-219.963 -59.9469 0)
(-172.523 -91.628 0)
(-123.694 -131.76 0)
(-95.9273 -152.203 0)
(-50.5208 -161.929 0)
(-12.4072 -156.808 0)
(10.4764 195.322 0)
(13.6667 213.604 0)
(13.7121 217.497 0)
(13.1188 223.047 0)
(12.7731 233.349 0)
(7.95714 244.358 0)
(-1.49852 255.551 0)
(-20.2033 254.483 0)
(-46.1796 259.372 0)
(-88.7624 250.39 0)
(-133.681 280.733 0)
(-163.82 236.146 0)
(-158.968 252.988 0)
(-139.551 203.096 0)
(-85.1176 164.1 0)
(-10.5463 139.494 0)
(93.6048 112.339 0)
(215.085 75.0952 0)
(258.337 36.3503 0)
(229.219 -23.243 0)
(145.827 -100.733 0)
(109.69 -170.21 0)
(140.861 -169.89 0)
(170.062 -189.438 0)
(187.952 -186.555 0)
(232.865 -186.69 0)
(246.192 -163.312 0)
(257.716 -181.853 0)
(169.767 -77.8661 0)
(71.2541 -94.2387 0)
(14.1136 101.323 0)
(62.3803 101.807 0)
(10.7777 64.2583 0)
(-112.896 52.2378 0)
(-244.646 99.4356 0)
(-280.619 122.782 0)
(-326.432 129.742 0)
(-355.607 118.177 0)
(-419.591 88.3007 0)
(-452.235 38.2037 0)
(-521.551 -5.4734 0)
(-534.849 -49.8913 0)