/*--------------------------------*- C++ -*----------------------------------*\
| =========                 |                                                 |
| \\      /  F ield         | OpenFOAM: The Open Source CFD Toolbox           |
|  \\    /   O peration     | Version:  2.1.1                                 |
|   \\  /    A nd           | Web:      www.OpenFOAM.org                      |
|    \\/     M anipulation  |                                                 |
\*---------------------------------------------------------------------------*/
FoamFile
{
    version     2.0;
    format      ascii;
    class       volScalarField;
    location    "0.002500000";
    object      k;
}
// * * * * * * * * * * * * * * * * * * * * * * * * * * * * * * * * * * * * * //

dimensions      [0 2 -2 0 0 0 0];

internalField   nonuniform List<scalar> 
12384
(
0.162523
0.239944
0.327831
0.384414
0.426805
0.500452
0.484065
0.423372
0.281208
0.224243
0.191269
0.1734
0.157123
0.113719
0.117159
0.208388
0.246115
0.250909
0.237877
0.398674
0.686196
0.762014
0.568247
0.546698
0.714102
0.842021
1.3161
2.72192
1.95018
2.00889
1.51866
1.35025
1.39228
1.40052
1.27454
1.55854
1.51152
1.42386
1.03754
0.947788
0.596633
0.432788
0.296334
0.139743
0.187008
1.95361
3.17854
14.7958
20.8919
24.1096
29.5657
30.4207
25.0141
25.8286
22.5679
17.874
12.3614
6.36811
2.23626
1.54155
1.56185
1.79263
1.73412
2.13032
1.8671
1.65738
1.5497
1.1486
0.942837
0.562611
0.311579
0.179383
0.141306
0.116931
0.165512
0.240511
1.082
28.8943
333.501
657.976
632.558
417.414
244.491
389.198
485.669
336.276
138.001
35.5002
9.31698
4.1099
2.79175
2.2894
2.19265
1.77837
1.58252
1.28333
1.14446
0.909821
0.588949
0.346907
0.194368
0.134463
0.120889
0.115581
0.104943
0.108885
0.113935
0.1182
0.138203
0.149245
0.198238
0.258499
0.435923
0.5001
0.672863
0.754908
0.784958
0.83917
0.853081
0.852137
0.910733
0.859393
0.780774
0.684329
0.533926
0.394467
0.280906
0.198151
0.165015
0.124078
0.118666
0.115833
0.112845
0.110938
0.10149
0.103773
0.104859
0.10633
0.107897
0.108908
0.109907
0.109919
0.110059
0.109407
0.109033
0.108395
0.107703
0.107259
0.106592
0.106094
0.105513
0.104871
0.104365
0.103901
0.103524
0.103094
0.102859
0.102432
0.102218
0.101769
0.101465
0.100862
0.100346
0.0995642
0.0980635
0.0980626
0.0982876
0.0979757
0.0982301
0.0980719
0.098164
0.098141
0.0980917
0.0981166
0.0979789
0.0980536
0.0978649
0.0979596
0.0977836
0.097868
0.0977194
0.0977818
0.0976573
0.0977034
0.0975981
0.0976339
0.0975464
0.0975717
0.0975012
0.097516
0.0974623
0.0974644
0.097426
0.0973987
0.0973173
0.0973465
0.0973494
0.0973399
0.0973477
0.0973437
0.0973476
0.0973456
0.0973452
0.0973441
0.0973427
0.0973424
0.0973402
0.0973408
0.097337
0.0973394
0.0973363
0.0973376
0.0973362
0.0973356
0.0973355
0.097334
0.097335
0.0973326
0.097333
0.0973305
0.0973299
0.0973276
0.0973228
0.0973132
0.0973134
0.0973246
0.0973264
0.097328
0.0973299
0.0973299
0.0973327
0.0973309
0.0973337
0.0973317
0.0973336
0.0973323
0.0973327
0.0973329
0.0973312
0.0973332
0.097332
0.0973327
0.0973331
0.0973321
0.0973336
0.0973316
0.0973335
0.097331
0.0973319
0.0973296
0.0973292
0.0973267
0.0973222
0.0973127
0.0973153
0.0973211
0.0973251
0.097329
0.0973317
0.0973333
0.0973325
0.0973347
0.0973327
0.0973346
0.0973328
0.0973336
0.0973331
0.097332
0.0973329
0.097331
0.0973329
0.0973321
0.0973314
0.0973332
0.0973322
0.097332
0.0973344
0.0973322
0.0973339
0.0973324
0.0973318
0.0973316
0.0973294
0.097297
0.0973143
0.0973245
0.0973265
0.097328
0.0973298
0.09733
0.0973324
0.0973311
0.0973335
0.0973318
0.0973335
0.0973324
0.0973327
0.0973329
0.0973312
0.0973332
0.097332
0.0973327
0.0973333
0.097332
0.0973335
0.0973314
0.0973332
0.0973307
0.0973317
0.0973291
0.0973294
0.0973268
0.0973224
0.0973127
0.0972978
0.0973273
0.0973271
0.0973297
0.0973335
0.0973337
0.0973357
0.097334
0.0973357
0.0973334
0.097335
0.0973335
0.0973342
0.0973335
0.0973352
0.0973353
0.0973333
0.0973334
0.0973332
0.0973343
0.097333
0.0973351
0.0973335
0.0973349
0.097333
0.0973324
0.0973289
0.0973271
0.0973275
0.0972976
0.0973132
0.0973244
0.0973278
0.0973283
0.0973333
0.0973305
0.0973372
0.0973317
0.0973383
0.0973323
0.097338
0.0973329
0.097336
0.0973334
0.0973333
0.097333
0.0973311
0.0973328
0.0973329
0.0973318
0.0973343
0.0973317
0.0973346
0.0973311
0.097333
0.0973294
0.0973298
0.0973269
0.0973223
0.0973127
0.248497
0.879247
1.46022
1.87876
2.35362
3.01453
2.99906
2.99614
2.6642
2.62853
1.97771
1.4648
1.01779
0.184
0.284464
1.99437
2.78727
3.65512
4.09518
6.37285
8.78155
11.1126
13.0502
15.2056
17.3715
19.6645
22.3081
25.0254
24.2216
23.8312
22.0625
21.0634
18.8803
18.9244
20.4383
25.1191
25.8179
26.213
20.0123
14.1537
8.63413
4.92183
2.75236
0.364928
15.6128
95.8182
271.187
299.632
318.197
295.055
257.749
263.227
262.271
247.148
249.977
263.589
235.715
169.403
117.312
82.7201
47.2482
39.0936
33.5438
33.906
33.6871
31.7406
30.7319
25.4619
24.2285
16.2282
10.4433
5.52841
2.49367
0.403315
25.1168
199.081
486.15
1058.04
1914.9
3010
4058.03
4667.07
5308.77
6839.78
8745.82
8983.26
6569.98
2891.8
829.614
233.445
84.0407
38.3476
23.615
16.5672
12.1161
10.5605
9.81102
8.94043
7.57017
5.69583
3.74907
2.17987
1.00154
0.209336
0.121417
0.277301
0.512298
1.02731
2.03761
3.85915
6.87881
11.026
14.5281
16.0618
13.8532
14.0934
10.4262
9.33696
7.78299
7.14891
7.20682
7.43231
7.49405
7.26753
6.70231
5.93588
5.0923
4.26423
3.31654
2.23641
1.17496
0.523408
0.246937
0.121993
0.102552
0.124661
0.130823
0.139207
0.150387
0.162785
0.175848
0.188064
0.198692
0.206967
0.211927
0.213011
0.211164
0.205726
0.199046
0.190154
0.181211
0.171502
0.162207
0.153234
0.144718
0.137117
0.130032
0.123955
0.118477
0.113997
0.110124
0.107258
0.105008
0.0999172
0.0979643
0.101747
0.101698
0.101825
0.101779
0.101809
0.101751
0.101741
0.101659
0.101628
0.101513
0.101474
0.101336
0.10126
0.101145
0.101086
0.10103
0.101009
0.10097
0.100935
0.100899
0.100855
0.100821
0.100768
0.100736
0.100676
0.100634
0.100544
0.100395
0.0973267
0.0972245
0.100137
0.100187
0.100165
0.100172
0.100136
0.100143
0.100105
0.10011
0.100062
0.10006
0.100006
0.0999947
0.0999333
0.0999234
0.0998936
0.09993
0.0999319
0.099976
0.0999697
0.100009
0.0999982
0.100032
0.100016
0.100051
0.100037
0.100075
0.100089
0.100044
0.0972079
0.0972171
0.100028
0.100109
0.10007
0.100081
0.100043
0.100056
0.100018
0.100032
0.0999909
0.0999961
0.0999495
0.0999451
0.0998886
0.0998844
0.0998598
0.0999023
0.0999101
0.0999613
0.0999593
0.100004
0.0999954
0.100031
0.100016
0.100053
0.100038
0.100076
0.100089
0.100044
0.0972075
0.0972054
0.100047
0.100081
0.100078
0.100038
0.100049
0.100013
0.100027
0.0999902
0.0999986
0.099957
0.0999602
0.0999121
0.0999049
0.0998616
0.0998817
0.0998857
0.099942
0.0999468
0.0999884
0.100014
0.100018
0.100055
0.100041
0.100074
0.100061
0.100096
0.100077
0.100043
0.0972097
0.097217
0.100027
0.100108
0.100069
0.100079
0.100041
0.100055
0.100017
0.100028
0.0999864
0.0999925
0.099947
0.0999436
0.0998878
0.099885
0.0998594
0.0999023
0.0999103
0.0999616
0.0999605
0.100004
0.0999969
0.100034
0.10002
0.100056
0.100041
0.100078
0.100091
0.100042
0.0972077
0.0972055
0.100046
0.100077
0.100062
0.100066
0.100034
0.100046
0.100012
0.100025
0.0999847
0.0999899
0.0999433
0.0999393
0.0998842
0.0998724
0.0998737
0.0998834
0.0999373
0.0999403
0.0999861
0.0999812
0.100022
0.100009
0.100044
0.100032
0.100065
0.100057
0.100082
0.100044
0.0972077
0.0972165
0.100023
0.100098
0.100056
0.100067
0.100031
0.100049
0.100014
0.100032
0.0999926
0.100003
0.0999569
0.0999552
0.0998992
0.0998934
0.0998602
0.0998978
0.0999064
0.0999589
0.0999586
0.100005
0.0999983
0.100035
0.10002
0.100055
0.100039
0.100074
0.100088
0.10004
0.0972078
0.298638
1.49498
2.14836
2.98127
4.01594
5.19803
4.49441
2.9224
3.2966
3.26856
2.80732
2.19754
1.5459
0.222237
0.413883
5.11208
10.0809
13.6402
16.6069
26.6301
38.0208
46.6896
49.3817
49.7927
50.7808
54.8077
59.2903
61.5407
56.3368
46.309
37.4674
30.9476
23.9221
23.5148
23.8722
22.9138
22.2978
23.792
19.988
15.6578
10.6304
7.13383
4.73259
0.597817
23.7276
153.619
320.611
298.653
319.106
334.47
312.168
346.048
419.145
506.581
593.386
661.462
617.167
515.695
404.62
292.522
184.786
128.281
88.4235
76.6567
74.2527
62.6615
47.4955
35.5449
26.6088
22.5683
14.4765
8.12993
4.10552
0.601885
42.3694
336.361
1220.91
1739.44
2617.9
3967.41
5579.99
6533.65
6245.5
7908
12096.1
14879.3
15238.2
13213.5
9160.44
4666.44
1522.63
412.581
122.895
59.6858
39.7001
28.8993
19.6918
12.9531
8.31488
5.26262
3.20512
1.94392
1.14619
0.221888
0.139906
0.503271
1.16389
2.93569
7.32577
16.3185
30.0229
43.2186
45.3528
40.4816
35.1697
43.1386
40.0125
42.0018
34.5881
26.7164
21.2117
16.9835
13.781
11.0797
8.56361
6.22305
4.25278
2.82729
1.89374
1.19682
0.655569
0.365869
0.223768
0.118792
0.103645
0.151666
0.163516
0.177802
0.192753
0.203358
0.209541
0.212836
0.212879
0.211134
0.206444
0.200741
0.193221
0.185199
0.176556
0.167809
0.159359
0.15142
0.144041
0.137518
0.131408
0.126258
0.121352
0.117353
0.113549
0.110629
0.107942
0.106031
0.104439
0.0998844
0.0985062
0.101959
0.101791
0.101764
0.101625
0.101603
0.101553
0.101445
0.10143
0.101282
0.101256
0.101117
0.101067
0.100944
0.100885
0.100816
0.10079
0.10078
0.100766
0.100755
0.100736
0.100712
0.100693
0.100656
0.100635
0.100584
0.100548
0.100465
0.100351
0.0975836
0.0975176
0.100072
0.100085
0.100046
0.100048
0.100002
0.100006
0.0999541
0.0999586
0.0999037
0.0999034
0.0998398
0.0998265
0.0997574
0.0997476
0.0997177
0.0997707
0.0997806
0.0998423
0.0998426
0.099893
0.0998843
0.099931
0.0999177
0.0999618
0.0999502
0.0999838
0.0999777
0.0999638
0.0974567
0.0974577
0.0999836
0.100007
0.0999603
0.0999796
0.0999346
0.09995
0.0999022
0.0999132
0.0998611
0.0998658
0.0998056
0.0997929
0.0997236
0.0997158
0.0996853
0.0997409
0.099752
0.0998172
0.0998189
0.0998735
0.0998667
0.0999158
0.0999059
0.0999525
0.0999423
0.0999782
0.0999744
0.0999611
0.0974557
0.0974537
0.0999606
0.09996
0.0999636
0.0999246
0.0999412
0.0998985
0.0999126
0.0998657
0.0998767
0.0998243
0.099825
0.0997616
0.099752
0.0996915
0.0997112
0.0997116
0.0997869
0.0998115
0.0998523
0.0998763
0.0998874
0.0999372
0.0999258
0.0999692
0.0999523
0.0999891
0.0999681
0.0999723
0.097503
0.0974546
0.0999783
0.100005
0.099958
0.0999782
0.0999331
0.0999476
0.0999004
0.0999118
0.0998598
0.0998651
0.0998052
0.0997945
0.099726
0.0997174
0.0996846
0.0997386
0.0997505
0.0998154
0.0998179
0.0998731
0.0998665
0.0999168
0.0999058
0.0999535
0.0999443
0.0999796
0.0999771
0.0999634
0.0974565
0.0974996
0.0999465
0.0999644
0.0999632
0.0999631
0.09992
0.0999328
0.0998865
0.0998974
0.099847
0.0998537
0.0997941
0.0997877
0.099721
0.0997001
0.0997008
0.0997221
0.0997886
0.0997952
0.0998547
0.0998477
0.0998989
0.0998872
0.0999342
0.0999204
0.0999647
0.0999547
0.0999636
0.0999375
0.0974995
0.0974531
0.0999748
0.0999981
0.0999521
0.0999721
0.0999276
0.0999428
0.0998945
0.0999076
0.0998569
0.0998642
0.0998066
0.099799
0.0997313
0.0997212
0.0996809
0.0997301
0.0997435
0.0998095
0.0998126
0.0998678
0.0998621
0.0999138
0.0999035
0.0999511
0.0999424
0.0999765
0.0999779
0.0999636
0.0974554
0.381502
2.91882
3.84946
5.8442
8.65551
11.1514
10.3453
8.21734
8.62603
7.49266
4.76651
3.31796
2.29384
0.261296
0.684027
17.967
44.5401
49.3602
55.0896
70.7631
93.067
109.621
120.928
130.874
144.49
159.085
167.8
166.005
151.892
127.6
102.307
79.2983
58.797
48.9362
41.4793
35.7659
35.8724
37.3907
28.9689
19.3668
13.6473
9.64186
6.75016
1.03572
35.6577
252.552
379.354
314.021
301.995
368.641
457.731
653.746
885.287
1064.93
1164.5
1235.86
1214.95
1100.78
989.026
809.325
588.232
406.211
268.487
185.664
139.504
93.9099
80.6508
71.8637
50.4757
33.0716
22.2326
13.7779
8.00241
1.06485
51.1026
548.674
1225.19
1615.86
2035.36
2672.92
2998.56
3267.66
4418.07
5986.66
7746.6
11285.7
13105.7
13964.7
13323.9
9846.7
4986.08
1884.19
616.732
215.141
110.131
62.9079
44.4115
34.4248
19.2547
10.0128
5.07084
2.71056
1.65608
0.266716
0.197416
1.27744
3.69403
9.42244
18.2939
26.3566
31.848
36.0439
40.2428
55.1483
71.144
152.946
175.044
210.654
156.068
114.325
74.9061
51.1511
35.3253
24.9483
17.4676
11.7105
7.34388
4.36426
2.50832
1.43614
0.755892
0.412276
0.239671
0.119997
0.107515
0.210463
0.254931
0.313608
0.358623
0.358276
0.334444
0.309623
0.286891
0.267336
0.248396
0.231789
0.215797
0.20214
0.188555
0.17717
0.16585
0.156477
0.147599
0.140184
0.133256
0.1276
0.122154
0.117983
0.113781
0.110861
0.107907
0.105977
0.104238
0.0997497
0.0983245
0.102211
0.101926
0.101868
0.101698
0.101586
0.101473
0.101339
0.101239
0.101133
0.101049
0.100961
0.100877
0.100817
0.100724
0.100698
0.100603
0.100589
0.100506
0.100484
0.100416
0.10039
0.100329
0.100298
0.100241
0.1002
0.100136
0.10007
0.0999153
0.097395
0.0973162
0.0997332
0.0997432
0.0997147
0.0996978
0.0996725
0.0996593
0.0996388
0.0996293
0.0996122
0.0996043
0.0995889
0.0995819
0.099569
0.0995648
0.0995569
0.0995579
0.0995533
0.099557
0.0995534
0.0995575
0.0995529
0.0995577
0.0995547
0.0995617
0.0995577
0.0995723
0.0995691
0.0995354
0.097329
0.0973302
0.0995247
0.0995632
0.0995522
0.0995522
0.099546
0.0995477
0.099543
0.0995451
0.0995402
0.0995413
0.0995354
0.0995361
0.0995305
0.0995321
0.0995295
0.0995344
0.0995338
0.0995402
0.0995398
0.099546
0.0995442
0.09955
0.0995492
0.0995569
0.0995542
0.0995689
0.0995676
0.0995345
0.0973291
0.0973295
0.0995349
0.0995587
0.0995696
0.0995573
0.0995578
0.0995501
0.0995512
0.0995452
0.0995467
0.0995406
0.099541
0.0995346
0.0995355
0.0995304
0.0995333
0.0995313
0.0995375
0.0995336
0.0995517
0.0995575
0.0995421
0.0995474
0.0995456
0.0995518
0.0995508
0.0995592
0.0995568
0.0995339
0.0972988
0.097332
0.0995294
0.0995637
0.0995525
0.0995524
0.0995461
0.0995478
0.0995431
0.0995451
0.0995402
0.0995415
0.0995356
0.0995362
0.0995306
0.099532
0.0995293
0.0995339
0.0995332
0.0995394
0.0995391
0.0995453
0.0995437
0.0995498
0.0995494
0.0995571
0.0995545
0.0995681
0.0995677
0.0995332
0.0973287
0.0972984
0.0995424
0.0995581
0.0995516
0.099564
0.0995538
0.0995542
0.0995466
0.0995478
0.0995418
0.0995426
0.099536
0.0995368
0.0995304
0.0995442
0.0995436
0.0995297
0.0995358
0.0995349
0.0995409
0.09954
0.0995459
0.0995446
0.0995515
0.0995514
0.0995611
0.0995549
0.0995675
0.0995461
0.097299
0.0973307
0.0995263
0.0995613
0.0995508
0.099551
0.0995459
0.0995478
0.0995443
0.0995462
0.0995424
0.0995434
0.099538
0.0995377
0.0995311
0.0995317
0.0995282
0.099532
0.0995309
0.0995374
0.0995382
0.0995451
0.0995442
0.0995504
0.09955
0.0995583
0.0995547
0.0995684
0.099568
0.0995347
0.0973293
0.495303
4.82393
6.92644
10.647
15.5809
21.0244
22.1483
21.8423
24.7365
26.4314
20.8588
9.18225
4.3359
0.376443
2.21291
61.4922
124.543
151.037
163.495
185.774
224.958
261.151
294.329
326.351
353.867
369.568
367.268
343.829
308.559
259.314
216.426
178.417
142.454
109.956
86.1316
70.9714
65.3908
67.4017
58.3686
26.3092
13.5899
10.8141
8.05409
1.63616
50.0406
398.443
477.132
326.776
280.171
523.527
874.587
1329.85
1686.47
1821.58
1821.52
1813.86
1826.13
1794.27
1758.88
1594.51
1358.84
1087.79
806.868
553.077
361.399
222.003
164.593
150.674
126.087
100.697
39.0516
28.5757
17.3011
2.18183
51.7905
580.719
997.553
1224.03
1615.67
1506.91
1367.46
1584.07
4731.61
8616.87
16569.3
18987.5
19053.3
15980.4
13340.6
10644
6885.05
3462.99
1367.06
506.288
258.764
159.835
114.664
79.8638
49.8665
28.9542
13.3394
6.10836
3.40243
0.473172
0.339757
3.1717
7.16443
10.2636
13.1235
15.0928
17.3629
27.3313
86.4892
281.767
532.886
951.901
1159.56
1113.94
793.818
491.535
282.319
160.503
96.1553
59.9316
38.786
24.9555
15.2726
8.70338
4.6194
2.38592
1.22433
0.632995
0.3319
0.126487
0.117107
0.347601
0.535313
0.867806
1.12289
1.0464
0.802098
0.597405
0.470781
0.393207
0.33904
0.297843
0.264869
0.23844
0.215395
0.197427
0.180812
0.168211
0.156267
0.147217
0.138446
0.131882
0.125361
0.120645
0.115784
0.112404
0.109008
0.106721
0.104718
0.0999009
0.0990106
0.103128
0.102632
0.102301
0.102068
0.101963
0.101718
0.101656
0.10146
0.101394
0.101222
0.101172
0.101019
0.100984
0.100852
0.100815
0.100714
0.100675
0.1006
0.100556
0.100496
0.100457
0.100399
0.100367
0.100302
0.100273
0.100193
0.100146
0.0999829
0.0974311
0.0973944
0.0998318
0.0998245
0.0998191
0.0997743
0.0997793
0.0997363
0.0997439
0.0997028
0.0997131
0.099674
0.0996854
0.0996491
0.0996621
0.0996296
0.0996453
0.0996172
0.0996363
0.0996096
0.0996307
0.0996042
0.0996256
0.0995992
0.0996217
0.099596
0.09962
0.0995976
0.0996098
0.0995936
0.0973261
0.0973268
0.099591
0.0995911
0.0996187
0.0995921
0.0996191
0.099593
0.0996196
0.0995934
0.0996196
0.0995924
0.0996171
0.0995904
0.0996144
0.0995887
0.0996137
0.0995896
0.0996164
0.0995919
0.0996189
0.0995935
0.0996193
0.0995928
0.0996182
0.0995922
0.0996181
0.0995958
0.0996086
0.0995934
0.0973254
0.0973282
0.0995908
0.0996173
0.0995944
0.0996195
0.0995932
0.0996199
0.0995935
0.0996207
0.0995938
0.0996196
0.0995924
0.099617
0.0995903
0.0996145
0.0995892
0.0996143
0.0995889
0.099614
0.0995997
0.0995958
0.0996182
0.099592
0.0996186
0.0995937
0.0996203
0.0995962
0.0996237
0.0995659
0.0973517
0.0973236
0.0995935
0.0995905
0.0996183
0.0995916
0.0996191
0.0995926
0.0996198
0.0995934
0.0996199
0.0995924
0.0996174
0.0995903
0.0996144
0.0995886
0.0996133
0.0995893
0.0996157
0.0995914
0.0996181
0.0995928
0.0996183
0.0995921
0.0996175
0.0995916
0.0996175
0.0995962
0.0996072
0.0995926
0.0973253
0.097352
0.0995712
0.0996171
0.099617
0.0995945
0.0996197
0.0995931
0.0996192
0.0995931
0.0996196
0.0995923
0.0996174
0.0995898
0.0996142
0.0995888
0.09959
0.0996134
0.099589
0.0996164
0.0995914
0.0996186
0.0995923
0.0996182
0.0995919
0.0996178
0.0995919
0.099617
0.0996102
0.0995738
0.0973496
0.097325
0.0995904
0.0995889
0.0996182
0.0995912
0.0996192
0.0995929
0.0996208
0.0995942
0.0996215
0.099594
0.0996191
0.099591
0.0996145
0.0995876
0.099612
0.0995876
0.0996132
0.0995901
0.0996181
0.0995934
0.0996194
0.0995932
0.0996187
0.099593
0.0996186
0.0995982
0.0996079
0.0995948
0.0973257
0.637192
7.06909
11.7709
18.6056
26.4948
35.3436
41.147
50.5902
63.1627
68.6922
64.3796
42.4202
12.818
0.661688
7.29006
162.036
287.028
366.547
409.771
449.493
510.597
570.301
619.155
651.608
653.65
637.362
599.118
544.507
486.294
416.612
362.558
314.911
266.443
212.209
166.384
138.631
128.414
120.371
88.1986
43.8199
15.9405
16.8331
10.4441
2.90634
66.317
612.302
639.748
380.621
358.52
1021.41
1431.55
1799.41
2058.61
2091.7
1977.8
1897.59
1886.68
1942.93
2032.71
2044.2
1994.07
1844.86
1629.09
1310.38
964.627
636.567
432.093
355.321
333.947
323.512
181.172
66.1355
46.9571
7.68106
43.1844
583.052
857.908
1017.59
1147.25
876.378
591.685
2743.06
12573.9
21231
25247.8
25160.4
22488.6
16890.4
11989.9
9545.51
7232.66
4293.19
2016.2
880.082
469.89
304.25
228.939
185.13
157.827
75.8796
36.8286
16.618
8.62432
1.1504
0.242168
4.39924
6.46795
7.09855
8.59232
17.3766
84.1663
444.444
1247.08
2862.79
4638.17
6267.83
6412.39
5321.76
3540.79
1986.73
1016.56
512.048
263.781
146.535
87.1712
54.1861
33.2374
19.1059
9.9516
4.84106
2.29398
1.14074
0.600229
0.151804
0.129183
0.493785
1.1545
2.7249
3.87079
3.58622
2.54768
1.59507
0.982103
0.677674
0.512858
0.412328
0.342894
0.293613
0.255974
0.22715
0.203564
0.185062
0.169227
0.157019
0.146112
0.137759
0.130143
0.124263
0.118916
0.114654
0.110954
0.108024
0.105674
0.0999588
0.0985709
0.104476
0.10353
0.10326
0.10274
0.102576
0.102119
0.10202
0.101688
0.101624
0.101357
0.101331
0.101101
0.101103
0.100917
0.100923
0.100768
0.100772
0.100641
0.100643
0.100528
0.100532
0.100429
0.100431
0.100334
0.100328
0.100231
0.100199
0.100045
0.0974346
0.0973644
0.0999413
0.0999123
0.0998968
0.0998487
0.0998405
0.0997952
0.0997907
0.0997526
0.0997523
0.0997178
0.0997194
0.0996877
0.0996919
0.0996647
0.0996736
0.0996502
0.099662
0.0996417
0.0996541
0.0996349
0.0996478
0.0996285
0.0996414
0.0996237
0.0996376
0.0996254
0.0996389
0.0996171
0.0973472
0.0973475
0.0996118
0.0996237
0.0996382
0.0996211
0.0996387
0.0996228
0.0996398
0.099624
0.0996401
0.0996228
0.0996378
0.0996205
0.099635
0.0996186
0.0996351
0.0996197
0.099637
0.0996224
0.0996392
0.0996238
0.0996393
0.0996225
0.0996369
0.0996208
0.0996352
0.0996237
0.0996371
0.0996168
0.0973467
0.0973466
0.0996227
0.099639
0.0996232
0.0996376
0.0996225
0.0996398
0.0996242
0.0996416
0.0996248
0.0996407
0.0996233
0.0996381
0.0996207
0.0996364
0.0996199
0.0996355
0.0996195
0.0996322
0.0996311
0.0996257
0.099638
0.0996221
0.0996388
0.0996229
0.0996389
0.0996235
0.0996425
0.0996045
0.0973488
0.097348
0.0996134
0.0996226
0.0996376
0.0996206
0.0996387
0.0996228
0.0996401
0.0996242
0.0996405
0.099623
0.099638
0.0996204
0.099635
0.0996186
0.0996346
0.0996191
0.0996362
0.0996217
0.0996383
0.0996227
0.099638
0.0996213
0.0996359
0.0996205
0.099635
0.0996257
0.0996353
0.0996151
0.0973467
0.0973493
0.0996104
0.0996399
0.0996383
0.0996243
0.0996386
0.0996223
0.0996393
0.0996234
0.0996402
0.0996228
0.0996386
0.0996202
0.0996339
0.0996241
0.0996243
0.0996328
0.0996193
0.0996374
0.0996218
0.0996391
0.0996225
0.0996381
0.0996209
0.0996361
0.0996203
0.0996347
0.0996375
0.0996125
0.0973482
0.0973486
0.099611
0.0996216
0.0996366
0.0996198
0.099638
0.0996222
0.09964
0.0996244
0.0996416
0.0996248
0.0996395
0.0996212
0.0996351
0.0996175
0.0996332
0.0996172
0.0996346
0.0996213
0.099639
0.0996243
0.0996399
0.0996236
0.099638
0.0996226
0.0996379
0.0996277
0.0996371
0.09962
0.0973464
0.830724
9.96283
17.809
28.7047
41.7251
57.1698
74.6312
104.212
127.257
123.773
99.4526
100.855
53.9563
2.58111
42.9506
497.942
726.366
828.279
867.73
894.451
941.115
994.699
1011.65
1006.11
958.539
906.653
849.731
797.216
752.039
683.232
627.468
562.327
482.026
394.585
323.417
283.688
286
277.3
217.445
102.259
28.1353
61.1948
17.4779
10.5629
90.3253
894.21
892.954
630.464
735.52
1631.91
1870.45
1995.54
2083.42
2035.23
1871.73
1728.84
1668.96
1719.42
1820.57
1894.61
2013.93
2115.47
2186.33
2103.91
1869.73
1492.35
1158.01
961.979
925.055
1044.87
1090.74
245.471
134.259
39.1445
44.8379
605.82
834.395
907.86
758.935
615.28
1105.28
8826.14
40785
34454.3
31768.2
27577.6
22160.6
15555.7
10219.6
7940.01
6404.38
4256.4
2251.16
1127.08
657.427
461.982
373.589
325.719
308.502
251.903
119.687
61.6732
32.5157
5.38795
0.176378
4.92124
6.6222
31.1147
215.791
901.218
2487.7
5664.15
10076.9
15489.6
20846
22603.2
21872.3
16638.9
11476.4
6453.67
3174.32
1483.14
701.383
355.195
196.183
116.24
71.0847
42.6426
23.8057
12.2899
6.0402
3.00602
1.61851
0.261527
0.117967
1.08597
4.96625
10.2715
12.855
10.9171
7.40559
4.36335
2.42765
1.39916
0.898486
0.641768
0.491164
0.392108
0.324734
0.275752
0.239305
0.211513
0.189359
0.17222
0.158006
0.146954
0.137459
0.130062
0.123546
0.118391
0.11379
0.11026
0.107256
0.100603
0.0990341
0.106611
0.10454
0.104334
0.103162
0.103263
0.10247
0.102526
0.101967
0.101972
0.101596
0.101552
0.101306
0.101241
0.101082
0.101009
0.100892
0.100836
0.100738
0.100696
0.100611
0.100578
0.100504
0.100473
0.1004
0.100367
0.100294
0.100252
0.100127
0.0973856
0.0973548
0.100011
0.0999667
0.0999715
0.0999167
0.0999139
0.0998684
0.0998554
0.0998162
0.0998049
0.0997728
0.0997625
0.0997371
0.0997295
0.0997107
0.0997066
0.0996918
0.0996918
0.0996795
0.0996822
0.0996703
0.0996739
0.099662
0.0996658
0.0996559
0.0996611
0.0996547
0.0996624
0.099639
0.097297
0.0972974
0.0996334
0.0996531
0.0996592
0.0996525
0.0996619
0.0996556
0.0996641
0.0996579
0.099665
0.0996572
0.0996631
0.0996557
0.0996608
0.0996551
0.0996608
0.0996558
0.0996623
0.0996572
0.0996644
0.0996576
0.0996641
0.0996557
0.0996611
0.0996532
0.0996593
0.0996539
0.099661
0.099639
0.0972963
0.0972986
0.099644
0.0996592
0.0996523
0.0996592
0.0996547
0.0996632
0.0996575
0.0996658
0.0996589
0.0996654
0.0996577
0.099663
0.0996566
0.099662
0.0996559
0.099661
0.0996541
0.099658
0.0996635
0.0996589
0.0996631
0.0996546
0.0996625
0.0996546
0.0996601
0.099653
0.0996613
0.0996304
0.0973006
0.0972966
0.0996354
0.0996519
0.0996589
0.0996525
0.0996621
0.0996561
0.0996646
0.0996583
0.0996655
0.0996576
0.0996632
0.0996557
0.0996606
0.0996551
0.0996602
0.099655
0.0996616
0.0996564
0.0996634
0.0996564
0.0996628
0.0996545
0.0996601
0.0996528
0.0996591
0.0996562
0.0996598
0.0996374
0.0972963
0.0973012
0.0996342
0.0996634
0.0996627
0.099655
0.0996608
0.0996543
0.0996626
0.0996564
0.0996643
0.0996564
0.0996637
0.0996549
0.0996604
0.0996564
0.0996567
0.0996594
0.0996543
0.0996626
0.0996558
0.0996635
0.0996559
0.0996619
0.0996534
0.0996589
0.0996509
0.0996569
0.0996632
0.0996357
0.0973002
0.0972972
0.0996317
0.09965
0.0996575
0.0996509
0.099661
0.0996541
0.0996638
0.0996566
0.0996656
0.0996575
0.0996643
0.0996548
0.0996603
0.099653
0.0996592
0.0996541
0.0996613
0.0996568
0.0996649
0.0996586
0.0996656
0.0996578
0.0996634
0.0996554
0.099663
0.0996586
0.0996618
0.099642
0.097297
1.19312
13.3572
24.0646
39.593
62.0271
94.4971
139.335
200.092
244.115
247.944
185.7
220.06
286.263
19.5106
315.802
1670.37
1771.8
1712.57
1645.52
1551.82
1486.74
1472.26
1433.19
1389.42
1331.99
1290.47
1263.56
1262.92
1263.26
1216.26
1154.42
1060.36
937.831
843.031
782.928
787.191
828.203
804.487
657.879
399.333
169.575
360.281
53.3216
92.5469
147.798
1800.56
1674.01
1453.91
1606.84
2168.77
2173.26
2083.01
2005.1
1919.62
1774.39
1657.52
1621.73
1655.96
1696.99
1754.05
1884.77
2050.17
2244.99
2413.84
2477.05
2397.68
2223.66
2093.65
2207.13
2725.05
3308.85
1299.35
485.173
547.216
30.0502
624.73
1017.8
1240.6
1497.26
2354.47
3791.15
17139
74689.4
45367.6
33130.5
25522.6
18787.3
12726.4
8475.21
6743.93
5597.47
3902.65
2250.96
1265.19
803.665
595.256
513.281
498.943
528.648
550.788
462.142
209.364
108.106
20.8655
12.8466
147.365
707.918
2563.31
5734.37
10495.4
16770.6
25413
34080.1
42787.9
48222.8
49075
45248.1
36881
26596
16032.8
8050.96
3718.13
1661.14
804.033
423.491
243.427
146.629
88.8092
52.2001
28.8541
14.6913
6.88497
3.40397
0.40761
0.919157
12.5779
27.7717
40.0551
38.6134
28.2501
17.5742
9.95681
5.39252
2.9822
1.74316
1.1005
0.759087
0.561798
0.435942
0.352041
0.29288
0.249905
0.217681
0.19315
0.173932
0.158936
0.14677
0.13704
0.128946
0.122211
0.117199
0.11334
0.110201
0.102027
0.0968716
0.11043
0.106626
0.10623
0.10419
0.104168
0.102886
0.103027
0.10215
0.102314
0.10176
0.101802
0.101459
0.101409
0.1012
0.101115
0.100999
0.100915
0.100834
0.100756
0.100699
0.10063
0.10059
0.100519
0.100481
0.100415
0.100379
0.10032
0.100225
0.0974303
0.0972187
0.100124
0.100052
0.100057
0.0999853
0.099981
0.0999281
0.0999239
0.0998777
0.0998642
0.0998273
0.0998137
0.0997877
0.0997763
0.099756
0.0997479
0.0997355
0.0997309
0.0997198
0.0997189
0.0997093
0.0997097
0.0997001
0.0997006
0.0996934
0.0996959
0.099692
0.0996993
0.0996755
0.0972911
0.0972904
0.0996694
0.0996916
0.0996937
0.0996902
0.099696
0.0996921
0.0996976
0.0996937
0.0996978
0.0996927
0.0996958
0.0996926
0.0996951
0.099691
0.0996943
0.0996927
0.0996961
0.0996927
0.099697
0.099693
0.0996971
0.0996915
0.0996944
0.0996898
0.0996938
0.0996911
0.0996981
0.0996751
0.0972902
0.0972922
0.0996803
0.0996955
0.0996901
0.0996936
0.0996914
0.0996965
0.0996933
0.0996985
0.0996943
0.099698
0.0996932
0.0996966
0.0996933
0.0996947
0.0996915
0.0996947
0.0996912
0.0996911
0.0996985
0.0996944
0.0996961
0.0996909
0.0996959
0.0996913
0.0996945
0.0996905
0.0996963
0.09967
0.0972891
0.0972911
0.0996717
0.0996904
0.0996936
0.0996905
0.0996964
0.0996928
0.099698
0.0996943
0.0996981
0.0996932
0.0996959
0.0996925
0.0996949
0.099691
0.0996937
0.099692
0.0996955
0.0996919
0.0996961
0.0996917
0.0996958
0.0996902
0.0996934
0.0996892
0.0996936
0.0996931
0.099697
0.0996735
0.0972903
0.0972895
0.099673
0.0996981
0.0996977
0.0996925
0.0996946
0.0996906
0.0996957
0.0996922
0.0996967
0.099692
0.0996964
0.0996918
0.0996946
0.0996926
0.0996928
0.0996937
0.0996913
0.0996957
0.0996916
0.0996964
0.0996918
0.0996951
0.0996897
0.0996927
0.0996883
0.0996912
0.0996981
0.0996742
0.0972889
0.0972911
0.0996679
0.0996885
0.099693
0.0996894
0.0996956
0.0996908
0.0996973
0.099693
0.0996987
0.0996936
0.0996976
0.0996911
0.0996939
0.099689
0.0996926
0.0996894
0.0996937
0.0996916
0.0996967
0.0996937
0.0996981
0.0996938
0.0996967
0.0996917
0.0996957
0.0996951
0.099699
0.0996795
0.0972914
1.68896
16.2037
28.9227
50.1939
89.3762
154.672
251.227
378.462
530.952
681.256
640.888
718.276
1263.66
1533.5
732.474
2316.29
5032.7
5006.95
3684.03
2955.52
2538.95
2250.24
2045.07
1955.93
1896
1878.38
1869.03
1891.41
1949
2072.43
2159.68
2229.82
2274.72
2284.16
2205.21
2128.47
2038.6
1970.77
1894.2
1715.42
1405.98
982.419
843.546
1029.67
266.304
581.316
673.439
1038.56
2872.02
2942.63
2369.76
2220.53
2408.18
2628.76
2624.97
2352.07
2054.54
1937.56
1827.23
1775.97
1819.94
1915.71
1983.91
2046.68
2133.19
2259.16
2423.29
2654.42
2845.13
3033.75
3267.83
3664.25
4410.14
6479.61
8357.21
7501.21
4804.79
5357.37
2662.36
1585.19
3734.45
3482.73
3868.87
4802.5
5734.16
6134.45
8345.85
30592.2
112823
60317.1
38670.4
25105
16514.9
10843.1
7766.48
6398.81
5423.09
3993.79
2633.13
1689.88
1140.03
848.784
754.714
767.309
883.379
1052.55
1215.78
1138.08
817.099
5051.06
2631.96
1313.84
3221.28
7722.44
13895.9
21276.4
29465.3
37998.2
45746.6
54310.5
65454.8
70455.7
77233.1
75106.8
72206.9
57239.5
41584.1
25626.7
14345.7
7059.56
3321.61
1600.17
845.824
482.337
291.744
178.695
109.119
64.6176
38.3584
23.244
19.8992
58.6093
19.2918
5.35938
73.5303
106.441
122.913
117.663
90.6089
59.0605
33.8822
18.2176
9.84229
5.58987
3.31388
2.0358
1.29539
0.880698
0.638534
0.484553
0.383979
0.313141
0.263517
0.226459
0.19923
0.178117
0.1621
0.149423
0.139691
0.132193
0.127404
0.125097
0.124539
0.132915
0.10312
0.103479
0.128423
0.125728
0.116054
0.110712
0.107627
0.105884
0.104658
0.103864
0.103136
0.102707
0.10225
0.10201
0.101718
0.101561
0.101364
0.101248
0.101104
0.101021
0.100913
0.10085
0.100765
0.100717
0.100649
0.100606
0.10055
0.100515
0.100474
0.100444
0.100409
0.100391
0.0973529
0.0973981
0.100356
0.100421
0.100323
0.100246
0.100167
0.100114
0.100057
0.100022
0.0999735
0.0999397
0.0998968
0.0998715
0.0998423
0.0998242
0.0998032
0.09979
0.0997754
0.0997678
0.0997577
0.0997551
0.0997478
0.0997501
0.0997473
0.0997546
0.0997623
0.0997807
0.0998005
0.0998292
0.0998438
0.0997173
0.0972183
0.09722
0.0997196
0.0998422
0.0998248
0.0998026
0.0997788
0.099766
0.0997514
0.0997462
0.0997385
0.099736
0.09973
0.0997292
0.0997263
0.099726
0.0997249