/*--------------------------------*- C++ -*----------------------------------*\
| =========                 |                                                 |
| \\      /  F ield         | OpenFOAM: The Open Source CFD Toolbox           |
|  \\    /   O peration     | Version:  2.1.1                                 |
|   \\  /    A nd           | Web:      www.OpenFOAM.org                      |
|    \\/     M anipulation  |                                                 |
\*---------------------------------------------------------------------------*/
FoamFile
{
    version     2.0;
    format      ascii;
    class       volScalarField;
    location    "0.002500000";
    object      rhoEu;
}
// * * * * * * * * * * * * * * * * * * * * * * * * * * * * * * * * * * * * * //

dimensions      [1 -1 -2 0 0 0 0];

internalField   nonuniform List<scalar> 
12384
(
118139
110854
74386.1
3439.97
-82617.7
-118689
-141377
-180092
-242119
-181165
-11625.8
6733.16
-14527.6
-23041.2
-48302.3
-1243.78
-8405.33
-80941.4
-230127
-205077
-194062
-224583
-221888
-219721
-220825
-225005
-229994
-225909
-222455
-220394
-223790
-237957
-181782
-138819
-122661
-108194
-92143.2
-60583
-38342.3
-25088.6
-15731.5
7004.71
25119.4
37967.7
-31249.3
-103887
-265348
-242719
-230064
-247657
-255815
-261544
-262667
-258489
-235046
-226555
-228237
-240895
-238299
-276492
-171871
-147832
-156677
-156783
-138098
-112266
-79812.7
-59100.5
-28008.3
-35776.1
-24854.9
-25382.7
5380.02
22272.6
142230
148232
16851.3
-386180
-347516
-282783
-232681
-215470
-219307
-216123
-237702
-261052
-276346
-291693
-371535
-176267
52483.9
64715.4
104469
107791
14851.9
-14642.1
-7924.57
33222.1
67769.9
69907.1
59997.5
71174.2
80199.9
106972
-78391.2
-79312.1
-76324.2
-74605.2
-69401.5
-66810.4
-63953
-62057.5
-58286.5
-52716.6
-50784.1
-38253.5
-38502.8
-21714.5
-9528.17
2278.28
20839.5
27593.5
31011.9
29718.5
2183.14
-14853.3
-25568.6
-22188.2
-25407.6
-7045.73
-2956.68
74.6596
-5815.42
-7560.27
-100751
-100334
-100210
-99404.9
-99047.4
-98215.9
-97977.3
-98054.8
-97467.9
-96755.7
-96727.8
-96318.7
-96591.9
-96334.8
-96827.4
-96921.5
-98272.4
-98787.6
-100711
-100806
-102527
-102538
-103812
-103934
-104646
-105172
-105355
-105841
-105981
-106040
-107622
-107616
-107617
-107608
-107604
-107597
-107591
-107587
-107582
-107581
-107573
-107575
-107569
-107569
-107564
-107561
-107559
-107553
-107551
-107546
-107546
-107539
-107540
-107534
-107535
-107529
-107530
-107528
-107528
-107527
-107493
-107493
-107493
-107494
-107491
-107493
-107492
-107492
-107491
-107491
-107490
-107489
-107490
-107490
-107490
-107490
-107490
-107489
-107487
-107488
-107488
-107488
-107488
-107489
-107488
-107487
-107488
-107487
-107488
-107489
-107487
-107488
-107487
-107487
-107486
-107488
-107488
-107488
-107486
-107487
-107486
-107487
-107488
-107488
-107488
-107488
-107488
-107488
-107486
-107487
-107488
-107487
-107487
-107488
-107488
-107486
-107488
-107487
-107488
-107488
-107487
-107487
-107488
-107488
-107486
-107487
-107488
-107486
-107487
-107488
-107487
-107487
-107488
-107488
-107488
-107488
-107488
-107488
-107487
-107487
-107488
-107488
-107487
-107488
-107488
-107486
-107487
-107488
-107488
-107488
-107488
-107488
-107487
-107488
-107486
-107488
-107488
-107488
-107486
-107487
-107486
-107487
-107488
-107488
-107488
-107488
-107488
-107488
-107486
-107487
-107488
-107487
-107487
-107488
-107488
-107486
-107488
-107487
-107488
-107488
-107488
-107487
-107487
-107489
-107485
-107489
-107488
-107487
-107488
-107487
-107486
-107487
-107487
-107488
-107488
-107487
-107488
-107488
-107486
-107486
-107488
-107487
-107487
-107487
-107488
-107486
-107488
-107488
-107488
-107488
-107488
-107489
-107486
-107488
-107486
-107488
-107487
-107488
-107487
-107487
-107487
-107487
-107488
-107488
-107486
-107487
-107486
-107488
-107488
-107488
-107488
-107488
-107487
-107488
-107488
-107486
-107487
-107488
-107487
-107487
114922
97935.1
81083
44570.9
-23223.7
-90537.9
-120481
-169834
-226157
-125426
-9521.36
-486.123
-917.317
-24531.3
-3579.79
-76216.5
-232208
-177575
-176664
-139841
-150508
-146118
-179190
-181412
-179481
-178305
-163926
-149661
-169118
-177191
-193662
-210690
-206018
-208542
-211576
-217810
-225694
-193141
-76344.5
-39653.1
-6640.88
-5500.36
23116
26258.7
-95809.2
-256558
-257160
-230723
-226529
-236847
-247829
-252736
-252223
-236523
-226804
-220936
-226593
-227667
-230844
-233705
-233730
-236789
-244029
-244546
-243402
-248571
-271283
-276518
-132801
-29438.5
-21308.8
-2296.61
-5755.83
34843.3
177705
-21213.5
-359275
-436510
-374016
-254402
-208872
-169044
-205600
-218009
-212657
-202040
-190408
-203625
-272127
-282250
-244265
-294019
-254644
-43841.3
1079.52
6929.68
7487.14
15300.6
40353
51660.7
62425.1
59737.9
82083.4
94871
-80140.7
-78588
-79302.9
-77267.1
-74543.9
-70987.7
-68353.5
-65237.9
-58124.5
-55828.4
-48228.5
-53210.6
-39313.4
-35275.6
-21132.3
-8535.49
5067.71
21285.2
32129.9
34334.3
33050.6
10872.4
-7799.63
-15685.4
-21579.4
-11942.9
-3075.52
-1684.41
-4475.85
-7605.59
-100783
-100329
-99948.4
-99087.6
-98141.6
-97022.9
-96044.5
-95501.2
-95550
-96161.5
-95800.7
-96388.9
-96162.1
-96759.3
-96866.4
-97705.2
-98052.3
-99269.8
-100433
-100853
-102430
-102628
-103727
-104057
-104650
-105075
-105469
-105722
-105990
-106121
-107610
-107616
-107598
-107612
-107589
-107604
-107579
-107597
-107570
-107591
-107564
-107585
-107560
-107576
-107558
-107568
-107553
-107559
-107548
-107551
-107542
-107545
-107536
-107540
-107531
-107535
-107527
-107532
-107527
-107527
-107494
-107494
-107492
-107497
-107491
-107497
-107489
-107496
-107488
-107495
-107488
-107495
-107488
-107494
-107488
-107493
-107487
-107493
-107486
-107492
-107486
-107493
-107485
-107492
-107485
-107492
-107485
-107488
-107488
-107486
-107485
-107489
-107484
-107492
-107484
-107492
-107484
-107492
-107485
-107492
-107485
-107492
-107486
-107491
-107486
-107492
-107485
-107492
-107485
-107492
-107485
-107492
-107484
-107492
-107484
-107492
-107485
-107488
-107488
-107486
-107487
-107487
-107491
-107485
-107492
-107484
-107492
-107485
-107492
-107485
-107492
-107486
-107492
-107485
-107491
-107485
-107491
-107485
-107491
-107486
-107485
-107492
-107485
-107492
-107484
-107492
-107484
-107492
-107485
-107488
-107486
-107489
-107484
-107492
-107484
-107492
-107484
-107492
-107485
-107492
-107485
-107492
-107486
-107491
-107485
-107492
-107486
-107492
-107485
-107491
-107485
-107492
-107484
-107492
-107484
-107491
-107484
-107487
-107488
-107486
-107488
-107487
-107490
-107491
-107485
-107492
-107484
-107492
-107485
-107492
-107484
-107491
-107485
-107491
-107486
-107486
-107491
-107486
-107492
-107485
-107492
-107485
-107492
-107485
-107491
-107484
-107491
-107488
-107488
-107488
-107486
-107489
-107484
-107491
-107484
-107492
-107484
-107492
-107484
-107492
-107484
-107492
-107485
-107492
-107485
-107491
-107485
-107492
-107485
-107492
-107484
-107492
-107484
-107492
-107484
-107492
-107485
-107488
-107487
-107486
105137
88430.8
92243
73065
12566.5
-48768.5
-69318.7
-101850
-171444
-230572
-93471.5
-17961
-10357.4
-4140.74
-55375.2
-228967
-178486
-140065
-83380.4
-81390.7
-43855.9
-68033.3
-88129.6
-86290.4
-74476.9
-61695.1
-52341.4
-44642.6
-61619.6
-77701.8
-96326.5
-124094
-140590
-158481
-184709
-196993
-207269
-211760
-145527
-70875.4
-33178
-4545.59
4871.85
27249.6
-114877
-249266
-248478
-237283
-231778
-229542
-236059
-238881
-236384
-228695
-223739
-223310
-220509
-223745
-224274
-227045
-238302
-244382
-245042
-244321
-239051
-240959
-237547
-251841
-252186
-193894
-57843.7
-13135.1
21001.6
22496.2
10571.8
-403256
-486830
-463568
-356121
-214019
-197807
-176835
-256305
-272416
-275354
-256061
-218878
-181145
-186449
-191604
-214655
-249144
-257589
-259865
-290017
-225643
-61880.1
11357.3
21523.2
45090.2
56152.3
62507.7
68524.5
92216.3
-86440.9
-86192.4
-83548
-81529.2
-81646.5
-78571.7
-74368.2
-70468
-69929.1
-64736.8
-67889.4
-54458.8
-54791.4
-29127.3
-21898
-11298.4
7186.61
20393.6
32232.2
48355.6
55444.4
52558.3
29237.9
815.026
-15246.1
-10866.1
-8452.42
-2973.15
-4423.06
-4711.08
-101070
-100909
-100558
-98604.8
-97492.8
-95240.9
-93717.8
-92538.1
-92588.3
-93118.8
-94947.1
-94887.6
-96384
-96230.6
-97630.7
-97673.2
-98953.9
-99190.6
-100795
-100907
-102670
-102732
-103966
-104192
-104917
-105117
-105663
-105781
-106053
-106150
-107615
-107602
-107610
-107605
-107609
-107603
-107609
-107598
-107607
-107595
-107605
-107593
-107598
-107588
-107591
-107582
-107585
-107574
-107579
-107565
-107572
-107559
-107564
-107557
-107558
-107553
-107552
-107551
-107550
-107550
-107517
-107516
-107516
-107517
-107516
-107515
-107515
-107514
-107514
-107514
-107514
-107513
-107513
-107511
-107512
-107510
-107512
-107511
-107512
-107511
-107512
-107509
-107511
-107510
-107512
-107510
-107511
-107510
-107511
-107512
-107511
-107509
-107511
-107509
-107511
-107510
-107511
-107509
-107510
-107510
-107511
-107510
-107511
-107510
-107510
-107509
-107510
-107510
-107511
-107510
-107511
-107509
-107511
-107509
-107511
-107509
-107511
-107510
-107511
-107512
-107511
-107510
-107510
-107511
-107509
-107511
-107509
-107511
-107509
-107511
-107510
-107511
-107510
-107511
-107509
-107510
-107509
-107511
-107509
-107510
-107511
-107508
-107511
-107509
-107512
-107509
-107511
-107510
-107511
-107510
-107512
-107509
-107511
-107509
-107511
-107510
-107511
-107509
-107510
-107510
-107511
-107510
-107511
-107509
-107510
-107509
-107510
-107509
-107511
-107510
-107511
-107509
-107511
-107510
-107511
-107509
-107511
-107510
-107511
-107512
-107512
-107511
-107511
-107510
-107511
-107511
-107511
-107509
-107510
-107510
-107511
-107509
-107511
-107510
-107511
-107511
-107510
-107511
-107510
-107511
-107509
-107511
-107509
-107511
-107510
-107511
-107509
-107511
-107511
-107511
-107511
-107510
-107511
-107509
-107511
-107509
-107511
-107509
-107511
-107509
-107510
-107510
-107511
-107509
-107510
-107509
-107510
-107509
-107510
-107509
-107511
-107510
-107510
-107509
-107512
-107509
-107510
-107510
-107510
-107511
103407
138084
171904
165778
116473
56466.4
55890.5
48257.1
-27022.2
-73170.7
-99769.9
-56966.7
-14583
-4534.32
-64128
-180322
-117520
-53379.6
-12983
31953.5
30180.8
14897.9
14510
18502.8
28293.1
29764.7
29906.3
24842.4
14734.8
10425
3424.51
-9481.54
-20195.7
-43739.2
-80413.7
-126629
-163759
-189481
-191447
-157914
-87249.1
-24294.5
-1997.54
-527.174
-111902
-255171
-245699
-239993
-236970
-231549
-229745
-227769
-225614
-221438
-216700
-212314
-215213
-213929
-218653
-218130
-227854
-235061
-237971
-233592
-234989
-234678
-243628
-237349
-230653
-251388
-172884
8369.23
30192.6
72163.6
-8937.96
-473488
-488589
-451871
-329772
-176966
-203106
-273364
222686
21223.9
-311568
-280947
-213957
-177143
-145645
-131911
-167455
-217364
-253018
-271095
-288043
-277161
-288208
-200725
-59625.9
31855.8
45778.3
55706.3
69809.4
68450.7
-84683.7
-84686.6
-86658
-88031.3
-85476.5
-84730.5
-81546.8
-80528.4
-77363
-82089.1
-67224.9
-57598.2
-35056.7
-6138.82
14321.9
15777.4
31617.1
30576.1
42334.8
48107
62125.3
71943.3
71967.9
47788.5
17067
-6260.37
-7588.86
-7684.52
-4759.17
-127.295
-102049
-101864
-100699
-99460.5
-96833.9
-94288.1
-91513.4
-88938.2
-88179.2
-89055.9
-90750.1
-93373.4
-94253.8
-96096.9
-96413.6
-97776
-98103.2
-99179
-99668.4
-100898
-101860
-102633
-103630
-104024
-104927
-105027
-105574
-105928
-105977
-106221
-107558
-107564
-107548
-107577
-107569
-107586
-107585
-107594
-107591
-107596
-107593
-107594
-107591
-107590
-107586
-107583
-107580
-107576
-107573
-107568
-107567
-107562
-107561
-107558
-107556
-107553
-107551
-107551
-107547
-107548
-107517
-107516
-107515
-107516
-107514
-107516
-107514
-107515
-107511
-107514
-107510
-107513
-107510
-107512
-107509
-107511
-107508
-107510
-107508
-107511
-107507
-107511
-107508
-107512
-107508
-107511
-107507
-107509
-107509
-107509
-107508
-107510
-107506
-107510
-107507
-107511
-107507
-107511
-107506
-107511
-107507
-107510
-107506
-107510
-107507
-107510
-107507
-107510
-107507
-107511
-107507
-107510
-107507
-107511
-107508
-107510
-107507
-107509
-107509
-107509
-107509
-107508
-107510
-107507
-107511
-107508
-107511
-107507
-107511
-107506
-107511
-107507
-107511
-107506
-107509
-107506
-107509
-107507
-107509
-107507
-107507
-107510
-107507
-107511
-107508
-107510
-107506
-107510
-107507
-107509
-107509
-107510
-107506
-107511
-107507
-107511
-107507
-107511
-107506
-107511
-107507
-107510
-107506
-107510
-107506
-107509
-107506
-107509
-107507
-107511
-107506
-107510
-107507
-107511
-107508
-107510
-107508
-107509
-107509
-107509
-107509
-107508
-107509
-107510
-107506
-107512
-107507
-107511
-107507
-107510
-107507
-107511
-107507
-107510
-107507
-107507
-107510
-107507
-107510
-107507
-107510
-107507
-107511
-107507
-107512
-107507
-107510
-107508
-107508
-107510
-107509
-107509
-107507
-107511
-107507
-107511
-107507
-107511
-107507
-107511
-107507
-107511
-107507
-107511
-107507
-107511
-107507
-107511
-107507
-107511
-107506
-107510
-107507
-107511
-107508
-107511
-107506
-107509
-107509
-107510
174762
255530
275549
236783
169532
129989
115557
115566
97996.7
83814
52225.5
-45945.2
-31220.8
-3886.48
-120881
-163635
-43107.7
52373
80227.8
67579.4
57618.3
58247.7
56722.9
59448.3
52452.5
51102.3
45973.7
37059.3
34391.6
33090.5
28860
28925.1
21036.4
8576.21
-19756.8
-59945
-124727
-163034
-185773
-193008
-131116
-38229
-23383.1
-11564.2
-103352
-256091
-247194
-240868
-239264
-234762
-229171
-225480
-221938
-220118
-214504
-200892
-183658
-184483
-179607
-168167
-184705
-207538
-221993
-227584
-226261
-236362
-229716
-224275
-221127
-225142
-266708
-75475.2
64400.6
60918.8
-746.621
-495684
-471709
-397110
-256628
-181054
-334032
-451400
-171533
-284384
-276297
-201543
-144621
-115333
-107695
-124237
-148253
-185845
-227448
-251308
-267847
-280383
-300598
-288593
-294208
-166241
30681.3
53997
60139.6
66422.2
-90663.4
-89735.4
-89446.1
-88671.4
-90228
-87914.1
-86628.9
-82977.3
-83501.9
-70788.6
-56376.4
-27993.3
-8052.08
45083.8
55249
70260.8
67306.8
66989.1
61421.6
66532.4
66676.1
76474.1
84059.9
83609.7
55493.5
21213.3
-2111.07
-6403.02
-2521.12
700.44
-102283
-101987
-102637
-99250
-95630.4
-92292.4
-89377.4
-86608.8
-84477
-84451.9
-86098.8
-89002.3
-92427.7
-93965.8
-96074.4
-96511.8
-97997.2
-98355.5
-99629.2
-100097
-101567
-101989
-103352
-103610
-104686
-104925
-105432
-105931
-106008
-106137
-107524
-107455
-107527
-107512
-107552
-107545
-107571
-107564
-107586
-107574
-107592
-107579
-107592
-107580
-107587
-107576
-107580
-107571
-107573
-107565
-107563
-107559
-107557
-107555
-107551
-107550
-107547
-107547
-107544
-107545
-107514
-107514
-107513
-107513
-107513
-107512
-107512
-107511
-107511
-107509
-107510
-107508
-107509
-107508
-107509
-107507
-107508
-107506
-107508
-107506
-107507
-107505
-107507
-107505
-107507
-107505
-107506
-107506
-107506
-107506
-107506
-107505
-107507
-107505
-107507
-107505
-107507
-107505
-107506
-107504
-107506
-107505
-107507
-107505
-107507
-107505
-107507
-107504
-107507
-107504
-107506
-107504
-107507
-107505
-107506
-107505
-107506
-107506
-107506
-107506
-107506
-107506
-107505
-107506
-107505
-107507
-107505
-107508
-107504
-107506
-107504
-107507
-107504
-107507
-107505
-107507
-107505
-107507
-107505
-107506
-107507
-107504
-107507
-107505
-107507
-107504
-107506
-107504
-107507
-107505
-107506
-107505
-107507
-107505
-107507
-107505
-107507
-107506
-107507
-107504
-107507
-107505
-107507
-107505
-107507
-107505
-107507
-107504
-107507
-107504
-107507
-107504
-107507
-107505
-107506
-107505
-107506
-107506
-107506
-107506
-107505
-107506
-107505
-107505
-107506
-107505
-107507
-107505
-107506
-107504
-107507
-107505
-107506
-107505
-107506
-107506
-107505
-107506
-107505
-107506
-107504
-107507
-107506
-107507
-107505
-107507
-107505
-107506
-107506
-107506
-107507
-107505
-107507
-107505
-107507
-107504
-107508
-107505
-107508
-107505
-107507
-107505
-107508
-107505
-107507
-107505
-107506
-107504
-107507
-107505
-107506
-107505
-107508
-107506
-107507
-107505
-107507
-107506
-107507
-107507
285435
326564
298502
228102
158367
127142
119612
103769
93310.7
86581.5
79437.5
30904.1
-90388.9
-34897.1
-224805
-138114
36373.1
85901.3
96609.8
75185.4
83471.3
68677.6
58714.5
55342.1
45470.2
42798.8
40930.2
37146.4
36953.6
28548.8
29783.4
22466.4
11496.5
1911
-12900.6
-48135.1
-106970
-161980
-188315
-203106
-86648.2
-73067.9
-43801
-39999.8
-95114.6
-255655
-251210
-243646
-241427
-238084
-231213
-225372
-221793
-219278
-211131
-173525
-132209
-103834
-99875.7
-85855.7
-98840.9
-132883
-174457
-203286
-220184
-222477
-214597
-209905
-207358
-198493
-205864
-274826
3336.82
180473
-14831.1
-505552
-420190
-320318
-218259
-325354
-445284
-454883
-392050
-338043
-260998
-148375
-64874.4
-43723
-48482.2
-106276
-108527
-145409
-197092
-212511
-234244
-262759
-281325
-293958
-290967
-300813
-143181
54920.2
57049.6
53846.8
-88933.4
-90665.7
-91254.8
-91807.3
-89636.8
-87239.1
-83235.7
-74788.3
-62089.7
-38935.3
-15150.3
12104.2
49283.6
77480.2
98915.9
102403
111841
93946.3
92148.9
79015.1
82145.6
81684.4
88732.8
94975.5
90505.7
59807.9
21237.6
750.283
-6014.27
763.842
-100423
-102499
-99721.9
-96156
-89684
-86102.1
-83626.8
-82778.2
-81423.5
-80988.9
-81937.5
-84467.2
-87923.2
-92375.7
-93763.1
-96155.3
-96713.8
-98146.5
-98717.1
-99863.1
-100596
-101841
-102466
-103705
-104022
-105062
-105130
-105921
-105927
-106201
-107431
-107353
-107372
-107457
-107465
-107512
-107522
-107551
-107552
-107572
-107568
-107581
-107573
-107582
-107573
-107578
-107571
-107573
-107565
-107566
-107557
-107560
-107550
-107555
-107544
-107550
-107541
-107545
-107540
-107541
-107513
-107513
-107513
-107511
-107510
-107510
-107509
-107508
-107507
-107507
-107506
-107506
-107506
-107506
-107506
-107506
-107505
-107505
-107504
-107504
-107503
-107504
-107502
-107504
-107503
-107504
-107503
-107504
-107504
-107504
-107503
-107503
-107502
-107503
-107502
-107503
-107502
-107503
-107503
-107503
-107502
-107503
-107503
-107504
-107503
-107504
-107503
-107504
-107503
-107503
-107502
-107503
-107502
-107504
-107502
-107503
-107503
-107503
-107503
-107503
-107503
-107503
-107504
-107502
-107503
-107502
-107503
-107502
-107503
-107502
-107503
-107502
-107504
-107503
-107504
-107503
-107503
-107503
-107503
-107502
-107502
-107503
-107502
-107503
-107502
-107503
-107502
-107503
-107502
-107504
-107504
-107503
-107502
-107503
-107502
-107503
-107502
-107503
-107502
-107503
-107502
-107503
-107503
-107504
-107503
-107504
-107503
-107504
-107503
-107503
-107502
-107503
-107502
-107504
-107503
-107503
-107503
-107503
-107503
-107503
-107504
-107503
-107503
-107503
-107503
-107503
-107502
-107503
-107502
-107503
-107502
-107504
-107503
-107503
-107503
-107503
-107503
-107502
-107503
-107502
-107503
-107502
-107502
-107503
-107503
-107502
-107503
-107503
-107503
-107504
-107503
-107502
-107502
-107504
-107503
-107503
-107502
-107503
-107503
-107503
-107502
-107504
-107503
-107503
-107503
-107504
-107503
-107503
-107502
-107503
-107502
-107504
-107502
-107504
-107503
-107504
-107503
-107504
-107504
-107504
345851
337790
244245
158629
119945
104791
90218.6
46770.6
29102
12068.9
9589.42
19082
-53747.2
-35190.9
-177051
-45212
82804
105316
87375.7
85838.3
70131.6
62397.9
47538.4
45633.2
35727.2
35619.1
31937.8
34944.3
22263
10079.8
-15505.4
-32959.5
-50016.1
-37982.2
-37418.6
-57455.1
-114462
-167419
-195669
-206993
-102367
-165547
-71598
-38223.1
-93896.9
-256227
-255775
-244965
-241985
-238871
-231125
-224366
-220926
-215955
-189610
-121632
-56708.2
-31287.4
-16582.9
-11270.2
-10973.6
-43974.5
-79007.5
-136591
-169545
-195489
-195327
-179463
-153748
-177946
-214275
-243787
28702.1
219325
-43094.3
-505148
-404182
-302377
-304266
-443796
-534888
-446556
-351928
-312574
-252178
-144238
-23318.3
10550.7
-28508.2
-49458.9
-82782.8
-101657
-172278
-188956
-209992
-236956
-257751
-278590
-285213
-287075
-302786
-67791.6
66454.9
45181.3
-89666
-92559.5
-92698.3
-91932.9
-89346.2
-80136.9
-61885
-37198.7
-18120.9
12658.6
25867.9
50039.5
38875.1
31561.2
24247
58589.5
111880
118047
109685
97362.5
92171.1
93893.7
94106.6
102894
103900
94445.4
57387.8
20821.6
-6784.94
-2294.46
-102801
-100575
-92922.6
-84614.5
-77625.2
-73615.1
-73849.9
-75509.3
-77092.6
-78047.2
-78874.2
-80656.4
-83839.4
-88427.2
-91623.5
-94377.2
-96161.8
-97035
-98286.2
-98991.4
-100179
-100899
-102130
-103223
-103655
-104770
-105004
-105685
-105933
-106115
-107269
-107140
-107292
-107326
-107435
-107433
-107508
-107496
-107551
-107532
-107574
-107551
-107580
-107559
-107578
-107562
-107572
-107561
-107564
-107556
-107555
-107551
-107548
-107546
-107542
-107541
-107537
-107538
-107534
-107534
-107508
-107508
-107506
-107505
-107505
-107505
-107504
-107503
-107502
-107501
-107501
-107501
-107501
-107500
-107500
-107500
-107499
-107499
-107499
-107498
-107498
-107496
-107499
-107497
-107498
-107497
-107497
-107497
-107498
-107498
-107498
-107497
-107498
-107496
-107498
-107496
-107498
-107497
-107497
-107496
-107497
-107496
-107498
-107497
-107497
-107497
-107498
-107497
-107497
-107496
-107497
-107495
-107498
-107497
-107498
-107497
-107497
-107497
-107497
-107498
-107497
-107497
-107497
-107498
-107496
-107498
-107496
-107498
-107495
-107497
-107496
-107498
-107497
-107498
-107497
-107498
-107497
-107498
-107497
-107497
-107497
-107496
-107498
-107496
-107498
-107496
-107497
-107497
-107498
-107497
-107497
-107497
-107498
-107496
-107498
-107496
-107498
-107496
-107497
-107496
-107497
-107497
-107498
-107497
-107498
-107497
-107498
-107497
-107498
-107496
-107497
-107495
-107498
-107497
-107498
-107497
-107497
-107497
-107497
-107497
-107496
-107497
-107496
-107496
-107497
-107496
-107498
-107496
-107497
-107496
-107497
-107497
-107498
-107497
-107497
-107497
-107497
-107498
-107496
-107498
-107496
-107497
-107496
-107498
-107496
-107498
-107496
-107497
-107497
-107497
-107497
-107497
-107498
-107496
-107498
-107496
-107498
-107496
-107497
-107495
-107498
-107496
-107498
-107496
-107497
-107496
-107497
-107496
-107497
-107496
-107498
-107496
-107498
-107496
-107498
-107497
-107498
-107497
-107497
-107498
359777
294764
196784
126964
105141
90573.5
51402.3
15863.6
13759.1
-6860.66
-39254.2
-28782.5
-54906.6
-166472
-128695
24816
109024
93957.5
89039.1
76346.4
60140.2
57447.1
39504.8
42382.5
29517.1
38867.8
30050.4
11998.5
-27991.7
-80022.2
-111753
-117360
-112314
-88910.3
-83191.7
-104676
-148816
-187187
-201615
-205828
-201692
-222069
-82288.7
-52852.9
-90993.8
-251761
-250990
-244533
-240056
-239501
-230622
-223397
-218122
-204904
-151136
-65263.1
-7095.12
24084.6
21613.7
30244.8
25443.6
27773.6
21995.3
-28116.4
-71629.4
-106282
-130016
-109438
-129976
-151789
-180338
-210275
-92105.7
170890
75403.2
-516141
-488503
-401571
-427990
-533655
-530950
-435539
-372114
-328382
-259475
-124514
5997.02
17305.6
-1065.92
20189.3
-67639.7
-85633.5
-163177
-181599
-190878
-214434
-238397
-258567
-270671
-278437
-248133
-302439
697.216
81936.4
-85261.6
-82595.5
-82977.8
-70221.6
-50371.3
-28672.6
-5353.5
12587.4
26366.8
39696.2
35669.4
5196.15
-43157.1
-110792
-131207
-123367
-37371.9
86835
127536
108276
103551
98554.4
103879
106601
112429
107742
92242.7
43771.1
14356.2
12603.2
-97564.4
-80675.5
-73492.1
-60358.3
-57424.2
-57063.8
-61317.4
-66642.1
-71345.9
-74247.5
-76200.6
-77959.5
-80131.4
-84822.8
-88137.8
-92984.3
-93987.1
-96570.2
-97164
-98687.4
-99341
-100727
-101385
-102794
-103270
-104526
-104740
-105760
-105599
-105966
-106540
-106767
-106913
-107150
-107265
-107365
-107421
-107476
-107495
-107525
-107533
-107549
-107552
-107561
-107563
-107561
-107562
-107559
-107556
-107553
-107551
-107545
-107546
-107539
-107540
-107535
-107533
-107531
-107530
-107528
-107499
-107506
-107502
-107503
-107501
-107502
-107498
-107500
-107498
-107497
-107496
-107496
-107496
-107496
-107496
-107496
-107495
-107495
-107493
-107494
-107493
-107495
-107493
-107493
-107492
-107494
-107492
-107493
-107492
-107492
-107492
-107492
-107492
-107493
-107493
-107493
-107491
-107493
-107492
-107492
-107492
-107492
-107493
-107493
-107493
-107494
-107493
-107493
-107492
-107492
-107492
-107493
-107492
-107493
-107492
-107493
-107492
-107492
-107492
-107492
-107492
-107492
-107492
-107492
-107493
-107493
-107492
-107492
-107493
-107492
-107492
-107492
-107493
-107493
-107494
-107493
-107494
-107493
-107492
-107492
-107492
-107493
-107492
-107492
-107492
-107493
-107492
-107492
-107492
-107492
-107492
-107492
-107492
-107492
-107493
-107493
-107491
-107493
-107492
-107492
-107492
-107492
-107493
-107494
-107493
-107494
-107493
-107493
-107492
-107492
-107492
-107493
-107492
-107492
-107492
-107493
-107492
-107492
-107492
-107492
-107492
-107492
-107492
-107492
-107492
-107493
-107492
-107493
-107492
-107493
-107492
-107493
-107493
-107494
-107493
-107493
-107494
-107493
-107493
-107492
-107492
-107492
-107493
-107492
-107493
-107493
-107492
-107492
-107492
-107492
-107492
-107492
-107492
-107492
-107492
-107492
-107492
-107493
-107492
-107492
-107493
-107493
-107492
-107493
-107492
-107493
-107492
-107493
-107492
-107492
-107493
-107493
-107492
-107493
-107492
-107493
-107492
-107492
-107492
-107492
326607
261475
174440
115877
98241.4
75053.3
28797.7
34858.3
33055.1
21221.6
-19188
-42960.3
-61586.5
-137767
-138205
-111018
-110329
71432.9
98222.3
93709.5
80251.3
72750.8
58304.9
48668.8
41297.4
39409.9
30813.6
30292.5
12388.4
-43136.5
-113881
-151588
-169365
-167426
-153480
-135490
-136898
-153803
-180386
-198005
-206864
-214778
-227816
-224381
-74264.6
-47549.8
-30728.2
-32991
-106836
-248568
-238329
-232930
-233657
-237844
-234371
-225761
-219101
-191237
-119215
-32807.7
-1408.9
3914.46
-12665.2
-37627.6
-35563.1
-11811.8
5773.18
36476.9
33715.5
20036.9
17882.1
-18347.2
-82212
-130335
-200578
-235959
-241125
-96830.1
387709
154140
-148542
-556896
-522703
-499952
-534837
-577035
-541116
-362055
-327287
-410219
-351528
-143303
20634.6
47399.1
44689
53239.7
-41357.9
-109625
-148203
-147558
-170211
-175965
-201521
-224677
-251372
-261344
-263020
-224125
-179130
26846.7
-4082.6
-6478.2
928.666
1985.71
6720.35
6052.91
6310.31
10904.9
17171.5
21045.7
30875
10329.9
-18259.7
-95359
-136653
-176015
-174043
-175884
-171942
-65255.8
86663.6
120217
108197
110737
107464
115316
117983
120705
110590
74276.9
26901.7
38689.3
-20040.5
-41165.3
-42254.4
-39615.2
-32480
-30661.8
-33023.3
-40686.4
-50126.3
-59382
-65731.3
-70058.2
-72698.7
-75113.8
-77282.6
-81119.9
-84855
-90293.3
-92361.9
-95272.4
-96515.5
-97810.2
-98823.5
-99872.5
-101049
-101918
-103061
-103618
-104475
-104644
-104634
-103525
-104821
-105316
-105663
-105991
-106699
-106817
-107198
-107193
-107394
-107369
-107489
-107467
-107534
-107515
-107552
-107536
-107558
-107544
-107556
-107544
-107551
-107542
-107544
-107538
-107536
-107534
-107529
-107526
-107522
-107520
-107515
-107514
-107505
-107507
-107501
-107500
-107498
-107497
-107495
-107494
-107493
-107492
-107491
-107491
-107489
-107490
-107489
-107489
-107488
-107488
-107487
-107487
-107487
-107486
-107486
-107485
-107486
-107485
-107486
-107485
-107486
-107484
-107486
-107484
-107484
-107484
-107484
-107485
-107485
-107484
-107485
-107485
-107485
-107485
-107485
-107485
-107485
-107485
-107486
-107485
-107486
-107485
-107486
-107485
-107486
-107485
-107485
-107484
-107485
-107484
-107485
-107485
-107485
-107484
-107485
-107484
-107483
-107483
-107484
-107485
-107484
-107485
-107484
-107485
-107484
-107485
-107484
-107485
-107485
-107486
-107485
-107486
-107485
-107485
-107485
-107485
-107485
-107485
-107485
-107485
-107486
-107485
-107485
-107485
-107485
-107484
-107485
-107484
-107483
-107483
-107484
-107485
-107484
-107484
-107485
-107485
-107485
-107485
-107485
-107485
-107485
-107485
-107486
-107485
-107486
-107485
-107486
-107485
-107486
-107485
-107485
-107484
-107485
-107484
-107485
-107484
-107485
-107484
-107485
-107484
-107483
-107483
-107484
-107485
-107484
-107484
-107485
-107484
-107485
-107484
-107486
-107484
-107485
-107485
-107486
-107485
-107486
-107485
-107485
-107486
-107485
-107486
-107485
-107485
-107484
-107485
-107485
-107485
-107485
-107484
-107485
-107484
-107484
-107484
-107484
-107485
-107485
-107484
-107485
-107484
-107485
-107484
-107486
-107484
-107485
-107485
-107486
-107484
-107485
-107484
-107485
-107485
-107486
-107485
-107485
-107484
-107485
-107485
-107486
-107484
-107485
-107485
-107485
-107484
-107485
-107484
274031
230952
149857
104536
97944.9
74208.5
45171.8
68915.3
74002.1
62307.2
20043.2
-34118.5
-60315.4
-105799
-102044
-84015.4
-33806.1
90105
98106
87501.4
77529
71910
52980.8
49779.2
34213.1
40897.5
27995.6
29776
-29009.4
-108580
-151414
-179182
-187627
-185206
-178739
-175004
-177887
-187694
-200513
-211974
-221874
-227567
-226166
-215608
-89180
-60555.9
-42362.4
-35662.6
-73328.3
-179289
-249791
-236736
-235460
-239017
-238448
-234242
-224948
-194973
-122686
-62136.3
-54766.2
-85394.3
-126102
-155769
-167405
-145967
-115749
-29992.2
12637.2
119665
142405
62033.6
-38225.4
-124357
-200693
-270170
-11434
-404817
332600
126153
-136617
-335132
-266641
-421980
-287543
-256003
-461049
-217198
-446505
-473479
-323525
-105497
62831.1
67694.8
99406.7
55387.3
18134.3
-112496
-74085.2
-114228
-110346
-114394
-128731
-145632
-175092
-221327
-243198
-238223
-236727
-138475
-49947.2
-6548.68
18728.5
44062.3
59160.8
51042.1
21888.5
-6130.66
-29829.6
-38176.5
-37006.9
-75515.6
-101162
-162121
-159073
-169565
-174738
-168883
-168529
-171632
-49879.5
105879
116388
108864
120386
116512
124258
125552
117331
103082
51342.3
76562.5
36744.6
6938.89
6641.9
6838.65
-1478.9
-11339.3
-23225
-32792.8
-43552.5
-53878.7
-60561.8
-64965.6
-68294.6
-71432.9
-74685.2
-77951.2
-81937.8
-87345.4
-90017.3
-93882.1
-95048.2
-97295.4
-97849.1
-99475.3
-100137
-101625
-102241
-103435
-103874
-104527
-104545
-104209
-104661
-105087
-105435
-106002
-106615
-106834
-107137
-107197
-107359
-107372
-107466
-107461
-107521
-107503
-107546
-107526
-107551
-107537
-107550
-107539
-107545
-107538
-107539
-107532
-107531
-107524
-107525
-107519
-107518
-107514
-107512
-107508
-107504
-107501
-107498
-107495
-107493
-107492
-107490
-107490
-107487