/*--------------------------------*- C++ -*----------------------------------*\
| =========                 |                                                 |
| \\      /  F ield         | OpenFOAM: The Open Source CFD Toolbox           |
|  \\    /   O peration     | Version:  2.1.1                                 |
|   \\  /    A nd           | Web:      www.OpenFOAM.org                      |
|    \\/     M anipulation  |                                                 |
\*---------------------------------------------------------------------------*/
FoamFile
{
    version     2.0;
    format      ascii;
    class       volScalarField;
    location    "0.002500000";
    object      sL;
}
// * * * * * * * * * * * * * * * * * * * * * * * * * * * * * * * * * * * * * //

dimensions      [0 1 -1 0 0 0 0];

internalField   nonuniform List<scalar> 
12384
(
6.33358
6.00968
4.38533
2.29797
1.03913
1.04847
1.03805
0.970567
0.957705
0.952071
2.03704
2.50355
2.75664
2.89045
1.68838
1.59673
1.33944
1.02791
0.679845
0.704571
0.672805
0.70464
0.706927
0.705747
0.697137
0.682143
0.677787
0.662419
0.663835
0.65913
0.660478
0.660188
0.660486
0.650789
0.792009
0.888083
0.98402
1.10386
1.39043
1.63089
2.40314
2.83945
3.1263
3.14831
2.06157
1.47312
1.11402
1.15518
1.12807
1.12638
1.15322
1.22025
1.23829
1.26304
1.25688
1.26353
1.25357
1.25729
1.27946
1.30573
1.24623
1.22017
1.20936
1.21742
1.26019
1.45391
1.54213
1.40381
1.29473
1.25733
1.60226
2.14455
2.85381
3.103
2.45247
2.35035
2.22653
1.3331
1.38301
1.40052
1.39941
1.3976
1.39548
1.3507
1.34104
1.34138
1.33466
1.30706
1.27928
1.23574
2.75995
2.67389
2.7056
2.61474
1.97603
1.56231
1.2589
1.18117
1.33576
1.72903
2.38136
2.99937
3.2414
3.30749
2.28157
2.0416
1.71722
1.42738
1.28569
1.28004
1.28818
1.29473
1.27866
1.55698
1.44379
1.82797
1.67734
1.92655
1.81508
1.71701
1.47698
1.33832
1.21878
1.30261
1.49368
1.80145
2.10292
2.43133
2.59195
2.87946
2.94425
3.00189
2.96969
2.95853
2.11892
1.9743
1.87665
1.83908
1.78196
1.81372
1.82717
1.90532
1.98034
2.06967
2.1344
2.19361
2.23667
2.26969
2.29641
2.30162
2.31232
2.30061
2.28763
2.28808
2.2585
2.26832
2.24117
2.24876
2.23734
2.22804
2.23317
2.22161
2.22246
2.22494
2.09969
2.09488
2.09724
2.09215
2.09351
2.09031
2.08959
2.08739
2.08591
2.08426
2.08144
2.0811
2.07779
2.07706
2.07495
2.07398
2.07249
2.07175
2.07077
2.07008
2.0692
2.06856
2.0679
2.06729
2.06684
2.06638
2.06601
2.06571
2.06561
2.06966
2.0645
2.06012
2.05988
2.05968
2.05956
2.05936
2.05919
2.059
2.05882
2.05864
2.05845
2.05823
2.05793
2.05764
2.05743
2.05737
2.05749
2.05766
2.05788
2.05799
2.05809
2.05821
2.05831
2.05842
2.05853
2.05865
2.05873
2.05887
2.05915
2.06367
2.06365
2.05913
2.05886
2.05873
2.05862
2.0585
2.05838
2.05827
2.05816
2.05804
2.05791
2.05776
2.05748
2.05726
2.05709
2.05711
2.05724
2.05747
2.0577
2.05786
2.05798
2.05812
2.05823
2.05836
2.05848
2.05861
2.05869
2.05882
2.05911
2.06363
2.06364
2.05916
2.05885
2.05867
2.05859
2.05844
2.05832
2.05821
2.0581
2.05798
2.05787
2.05773
2.05752
2.05729
2.05715
2.05708
2.05722
2.05745
2.05776
2.05793
2.05803
2.0582
2.05832
2.05844
2.05854
2.05868
2.05875
2.05889
2.05913
2.06366
2.06363
2.05911
2.05882
2.0587
2.0586
2.05847
2.05836
2.05824
2.05814
2.05802
2.05789
2.05775
2.05749
2.05728
2.0571
2.05709
2.05722
2.05746
2.0577
2.05786
2.05798
2.05813
2.05823
2.05837
2.05849
2.05862
2.05869
2.05882
2.0591
2.06364
2.06365
2.05908
2.05881
2.05872
2.05865
2.05852
2.05839
2.05827
2.05813
2.058
2.05787
2.05771
2.05747
2.05726
2.05709
2.0571
2.05725
2.05746
2.05773
2.05788
2.05799
2.05812
2.05825
2.05836
2.05848
2.05859
2.0587
2.05882
2.05907
2.06365
2.06362
2.05908
2.0588
2.05866
2.05856
2.05843
2.05834
2.05823
2.05814
2.05803
2.05792
2.05777
2.05755
2.05732
2.05715
2.05711
2.05724
2.05747
2.05767
2.05784
2.05798
2.05812
2.05826
2.05837
2.0585
2.05863
2.05872
2.05881
2.05911
2.06364
5.86934
3.90416
2.28238
1.29454
0.739031
0.452593
0.471671
0.495281
0.61714
0.717629
1.16296
1.63411
2.16375
2.62007
1.54142
0.922094
0.607094
0.675384
0.69034
0.668504
0.684909
0.677739
0.683278
0.683597
0.671406
0.664648
0.657213
0.6577
0.638364
0.627566
0.626961
0.636096
0.633506
0.621704
0.618132
0.596891
0.5726
0.550122
0.850552
1.03711
1.521
2.08412
2.86851
3.10675
1.57988
0.968859
1.09767
1.11872
1.094
1.10373
1.15083
1.21244
1.24833
1.24947
1.26748
1.26952
1.28426
1.28318
1.30156
1.30719
1.2984
1.32129
1.3932
1.45302
1.43107
1.34676
1.25461
1.03761
1.00676
1.22232
1.06843
1.48867
2.23181
3.09498
2.34712
1.7372
0.775107
1.18635
1.38182
1.44127
1.44108
1.40066
1.36506
1.35714
1.3501
1.32936
1.32866
1.35566
1.33728
1.27382
1.30925
1.35746
1.25248
2.93184
3.43013
3.2963
2.70472
1.78835
0.854818
0.573012
0.779152
1.70997
2.89745
3.30635
1.68397
1.11934
0.920092
0.937245
1.23091
1.53157
2.06326
2.32779
2.61588
2.81716
2.97123
3.08937
3.25537
3.4113
3.53768
3.53242
3.52414
3.07219
2.03633
0.986621
0.55836
0.410022
0.475166
0.609331
0.76611
1.41316
2.03418
2.64831
2.88858
2.92664
0.599714
0.448464
0.457276
0.432847
0.46975
0.426227
0.443423
0.425823
0.479156
0.506951
0.61376
0.689732
0.820345
0.920588
1.06284
1.16111
1.30494
1.40045
1.52897
1.62967
1.73076
1.80209
1.88744
1.93166
2.00719
2.02401
2.05816
2.05348
2.0693
2.13287
1.62915
1.58824
1.57595
1.62727
1.64881
1.68423
1.72404
1.72723
1.77916
1.76116
1.81469
1.7859
1.83389
1.80053
1.83493
1.81248
1.83868
1.82903
1.8506
1.84402
1.85933
1.85431
1.86473
1.86164
1.86826
1.86774
1.87011
1.87078
1.87303
1.99112
1.97565
1.85644
1.84972
1.84998
1.84677
1.84681
1.84338
1.84266
1.83972
1.8386
1.83536
1.83394
1.82895
1.82579
1.82193
1.8227
1.82391
1.82893
1.83139
1.83505
1.8359
1.83971
1.84023
1.84408
1.84474
1.84834
1.84899
1.85176
1.85859
1.97846
1.9786
1.85943
1.85123
1.85092
1.84736
1.84706
1.84317
1.84286
1.83912
1.83862
1.83472
1.8336
1.82813
1.82509
1.82119
1.82243
1.82356
1.8288
1.83108
1.83506
1.83575
1.83979
1.84023
1.8442
1.84481
1.84843
1.84907
1.85178
1.85866
1.97844
1.97842
1.85849
1.85166
1.8483
1.8479
1.84424
1.8437
1.83992
1.83965
1.83595
1.83551
1.83175
1.82985
1.82455
1.82319
1.82108
1.82418
1.8272
1.83327
1.83604
1.83803
1.84185
1.84252
1.84626
1.84651
1.85002
1.84983
1.85291
1.85771
1.98281
1.97809
1.85906
1.85084
1.85049
1.847
1.84669
1.84283
1.84245
1.83874
1.8383
1.8345
1.83351
1.82828
1.82537
1.82134
1.82227
1.82325
1.82851
1.83096
1.83503
1.83578
1.83988
1.84038
1.84436
1.845
1.84863
1.84924
1.85176
1.85869
1.97848
1.98316
1.85754
1.85101
1.85066
1.84724
1.84689
1.84279
1.84221
1.83822
1.83753
1.83345
1.83255
1.82742
1.82488
1.82155
1.8215
1.82465
1.82752
1.83276
1.83372
1.83768
1.83824
1.84209
1.84254
1.84644
1.84665
1.85019
1.85072
1.85738
1.98294
1.97862
1.85889
1.85038
1.84998
1.84616
1.84598
1.84191
1.84184
1.83797
1.83801
1.83404
1.83346
1.82852
1.82596
1.82164
1.82226
1.82322
1.82834
1.83087
1.83481
1.83553
1.83962
1.8401
1.84415
1.84471
1.84847
1.84917
1.85172
1.85868
1.97857
4.09691
2.04131
1.35919
1.03395
0.642258
0.378458
0.308155
0.280431
0.33491
0.314089
0.390506
0.702801
1.05102
1.88496
1.01568
0.497985
0.512557
0.662884
0.67604
0.737659
0.921315
0.743314
0.745739
0.744394
0.756907
0.769647
0.841644
0.935118
0.739032
0.692206
0.656368
0.636303
0.624271
0.590049
0.535423
0.476388
0.44321
0.383833
0.399943
0.565218
0.767806
1.109
2.1104
2.9905
1.37462
0.98933
1.09105
1.07636
1.03328
1.03039
1.07934
1.14476
1.17465
1.16462
1.16109
1.20976
1.22179
1.2494
1.26422
1.29138
1.3816
1.53974
1.66905
1.79126
1.79965
1.74926
1.59398
1.45059
1.08926
0.781161
0.902556
0.863558
1.78083
2.82744
1.71902
0.653829
1.02331
1.25579
1.37483
1.38994
1.27771
1.06028
1.03474
1.03604
1.06474
1.05167
1.06389
1.17087
1.29602
1.36343
1.43167
1.58173
1.76891
1.79442
1.81046
1.76655
3.229
3.8458
3.30855
1.47156
0.436861
0.512237
1.7195
3.10022
0.701594
0.603023
0.827169
1.66162
2.44793
2.91434
3.03831
3.06918
2.91458
2.84022
2.63217
2.74191
2.94473
3.16643
3.54189
3.76674
3.8732
3.94755
3.99105
3.8598
2.57751
1.05315
0.414289
0.284003
0.211409
0.250611
0.287333
0.739827
1.44241
2.0502
0.17684
0.296718
0.40713
0.584505
0.634272
0.627628
0.503287
0.386171
0.280438
0.24636
0.202291
0.203704
0.178768
0.190683
0.17212
0.190591
0.171851
0.191996
0.170672
0.190393
0.170263
0.187146
0.173
0.187306
0.180673
0.203675
0.213006
0.244033
0.253909
0.231811
0.118291
0.162395
0.157126
0.17447
0.160783
0.17527
0.163289
0.177491
0.165379
0.179572
0.168776
0.18109
0.173969
0.183241
0.180082
0.183899
0.182315
0.180937
0.179771
0.177518
0.177618
0.175538
0.176135
0.174526
0.175284
0.173771
0.174912
0.173507
0.173021
0.12304
0.121953
0.173255
0.175813
0.177612
0.178067
0.179341
0.180021
0.18124
0.18191
0.183136
0.184017
0.185318
0.187135
0.189111
0.190457
0.190576
0.189551
0.187769
0.186098
0.185052
0.184133
0.183166
0.182357
0.181504
0.18062
0.179808
0.178979
0.178146
0.175342
0.122153
0.122173
0.174807
0.177891
0.178909
0.179586
0.18037
0.181154
0.181962
0.182746
0.183676
0.184609
0.185844
0.187651
0.189707
0.190832
0.190897
0.189712
0.187984
0.186218
0.185163
0.18417
0.183208
0.182334
0.1815
0.18056
0.179788
0.178929
0.178153
0.175322
0.122152
0.122124
0.175222
0.178324
0.179355
0.180114
0.180875
0.181715
0.182473
0.183251
0.18405
0.184938
0.18591
0.187509
0.189271
0.190562
0.19093
0.190186
0.188146
0.185887
0.18438
0.18368
0.182452
0.181507
0.180694
0.17993
0.179208
0.178607
0.17775
0.174706
0.122147
0.122185
0.175094
0.178085
0.179073
0.179728
0.180504
0.181291
0.182124
0.182899
0.18379
0.18469
0.18586
0.187555
0.189555
0.190754
0.190964
0.189843
0.188112
0.186277
0.185198
0.184187
0.183194
0.182299
0.181457
0.180503
0.179695
0.178825
0.178115
0.175271
0.122151
0.122192
0.175205
0.178145
0.178723
0.179581
0.180443
0.181407
0.18229
0.183192
0.184168
0.185142
0.186259
0.187875
0.1897
0.190914
0.190888
0.18978
0.18785
0.186171
0.185031
0.184088
0.183162
0.1823
0.181471
0.18057
0.179796
0.178981
0.178123
0.175297
0.12221
0.122191
0.175187
0.178306
0.17931
0.180014
0.180769
0.181545
0.182326
0.183049
0.183853
0.184733
0.18583
0.187343
0.189279
0.190582
0.19104
0.189954
0.188251
0.186386
0.185335
0.18431
0.1833
0.182376
0.181498
0.180557
0.179729
0.178838
0.178146
0.175317
0.122151
2.30473
2.26426
2.76043
3.04956
1.99916
1.14655
1.12317
1.04832
0.494485
0.252761
0.130808
0.24912
0.479029
1.00528
0.670629
0.380857
0.694712
0.8218
1.54992
2.47769
2.712
2.47381
2.7038
3.10397
3.644
3.76175
3.69492
3.40612
2.90596
2.70631
2.49569
1.99091
1.71011
1.05829
0.812883
0.634668
0.501399
0.348527
0.235047
0.167717
0.340166
0.55658
1.24122
2.59459
1.3555
0.984205
1.0584
1.04546
0.987741
0.948167
0.943463
0.969821
1.01439
1.0001
0.975059
0.982937
1.05078
1.07515
1.07248
1.06856
1.16194
1.4067
1.71813
1.85507
1.89721
1.8517
1.81544
1.6805
1.46826
1.1994
0.752466
0.82567
1.12622
2.62099
1.65963
0.874847
1.12603
1.26462
1.30273
1.26443
1.08466
0.887505
2.63194
2.09757
1.05145
1.03849
0.982987
1.01627
1.18662
1.34901
1.46959
1.63593
1.76412
1.76744
1.78509
1.72511
1.77891
1.81905
3.33649
3.8388
1.99644
0.490707
0.774964
2.51352
0.387744
0.604047
1.50599
2.38995
2.76123
2.77001
2.45457
1.90473
1.83021
1.36032
1.76625
1.37681
2.20364
2.03752
3.09446
3.4456
3.88794
3.89739
3.91926
3.92645
4.04895
3.89135
2.45537
1.055
0.60126
0.350398
0.259155
0.225173
0.363606
0.631364
0.487461
1.14837
1.82509
2.23712
2.48785
2.53785
2.41812
1.88215
1.30298
0.835805
0.612535
0.455926
0.389828
0.314248
0.288548
0.248371
0.234755
0.216607
0.205537
0.199469
0.185459
0.187559
0.172712
0.178344
0.164041
0.170127
0.160621
0.164969
0.158211
0.156473
0.178864
0.16917
0.1781
0.16379
0.171286
0.160694
0.166034
0.15798
0.163039
0.1559
0.160726
0.154596
0.159018
0.15383
0.157782
0.153416
0.156687
0.153087
0.155635
0.152911
0.154823
0.152838
0.154193
0.152827
0.153726
0.152837
0.153411
0.152867
0.152682
0.143701
0.144166
0.152614
0.153395
0.153201
0.153437
0.153338
0.153466
0.153456
0.153536
0.153571
0.153636
0.153708
0.153795
0.153936
0.153983
0.154045
0.153922
0.153909
0.153728
0.153778
0.153618
0.153685
0.153517
0.153596
0.153419
0.153503
0.153315
0.153335
0.152586
0.143545
0.143516
0.15262
0.153226
0.153441
0.153363
0.153528
0.15345
0.153615
0.153537
0.153704
0.153636
0.153813
0.153795
0.154016
0.153976
0.154083
0.153908
0.153921
0.153717
0.153775
0.153607
0.153675
0.153511
0.153585
0.153416
0.153491
0.153315
0.153327
0.152584
0.143539
0.143548
0.152585
0.153361
0.153326
0.153512
0.15342
0.153599
0.153509
0.15368
0.153597
0.153768
0.153699
0.153898
0.153881
0.154063
0.153978
0.154039
0.153819
0.1538
0.153625
0.153575
0.153644
0.153468
0.153553
0.153376
0.153475
0.153297
0.153362
0.152594
0.143353
0.143533
0.152618
0.153233
0.15345
0.15337
0.153535
0.153457
0.153622
0.153544
0.153708
0.153639
0.153813
0.15379
0.154007
0.153973
0.154087
0.153916
0.153929
0.15372
0.153776
0.153609
0.153674
0.15351
0.153582
0.153414
0.153484
0.153308
0.153322
0.152589
0.143534
0.143364
0.152604
0.153289
0.153426
0.153353
0.15354
0.153453
0.153636
0.15355
0.15373
0.153654
0.153833
0.153801
0.154011
0.153974
0.153973
0.154015
0.153802
0.153826
0.153651
0.153724
0.153551
0.153633
0.15346
0.153541
0.153371
0.153438
0.153244
0.152615
0.143365
0.143516
0.152625
0.15324
0.153461
0.153377
0.153551
0.153466
0.153638
0.153549
0.15372
0.153638
0.153818
0.153778
0.153999
0.15396
0.154095
0.153926
0.15394
0.153731
0.153792
0.153625
0.153694
0.153527
0.1536
0.15343
0.153496
0.153321
0.153332
0.152589
0.143536
2.89582
6.45004
10.505
10.107
6.69825
5.39009
5.78792
5.92446
3.64507
2.27182
1.74541
0.262657
0.239117
0.520975
0.398072
0.505187
1.05703
3.15821
4.6243
4.92958
5.52915
6.29524
6.66781
6.90012
6.51145
6.31093
5.99858
5.63057
5.51881
5.52858
5.31468
5.11521
4.46779
3.56399
2.06162
1.09398
0.722865
0.438386
0.267225
0.146203
0.179073
0.32314
0.849951
2.15783
1.3853
0.978546
1.04041
1.0423
0.99845
0.93664
0.88543
0.854751
0.848373
0.847258
0.822464
0.806499
0.816882
0.872968
0.892647
0.890737
0.921765
1.02096
1.32475
1.6833
1.80422
1.88366
1.86016
1.82485
1.69883
1.44705
1.10871
0.804348
1.06581
2.28823
1.63834
0.943421
1.10831
1.12966
1.1342
1.0208
0.901514
0.88071
0.818532
0.978909
1.07397
1.0952
1.05595
0.998412
1.04998
1.23085
1.46508
1.60959
1.73445
1.73737
1.77772
1.79651
1.83212
1.68899
1.73213
1.83246
3.81608
1.69506
0.543725
1.58201
0.343366
0.9781
2.05648
2.66519
2.67503
2.36997
1.64724
1.37744
0.807698
1.28036
0.977778
1.68944
1.91721
2.64562
3.13428
3.68048
3.90608
3.95989
3.90359
3.88895
3.85301
3.95694
4.12618
3.38427
1.75251
0.981985
0.557248
0.343261
0.257509
0.262512
1.02347
2.22609
2.56765
2.68694
2.85018
3.02913
3.13506
3.16743
2.92509
2.28409
1.57114
1.19204
0.913432
0.797144
0.651244
0.601105
0.516319
0.492304
0.434975
0.426143
0.379729
0.380986
0.343026
0.346843
0.316473
0.31836
0.292082
0.28828
0.26694
0.264012
0.356111
0.371868
0.342787
0.350739
0.324663
0.330158
0.310971
0.316761
0.299726
0.308072
0.292627
0.302203
0.288218
0.297961
0.285435
0.294831
0.283839
0.292196
0.283038
0.28998
0.282666
0.288073
0.2825
0.286425
0.282454
0.285042
0.282367
0.283897
0.282163
0.281634
0.281726
0.283636
0.28316
0.283425
0.283116
0.28306
0.282988
0.282812
0.282852
0.282662
0.282782
0.282603
0.282765
0.282588
0.282769
0.282553
0.282765
0.282481
0.282733
0.282411
0.282724
0.282366
0.28274
0.282334
0.282734
0.282308
0.282713
0.28234
0.282203
0.28114
0.281134
0.28219
0.282724
0.282247
0.282741
0.282251
0.282732
0.282255
0.282726
0.282265
0.28274
0.282308
0.282762
0.282354
0.282779
0.282368
0.282764
0.282325
0.282737
0.282282
0.282727
0.28227
0.282738
0.282268
0.282738
0.282271
0.282707
0.282326
0.282184
0.28113
0.281006
0.282131
0.28228
0.282707
0.282224
0.282711
0.282225
0.282715
0.282233
0.282714
0.282261
0.282729
0.282309
0.282753
0.282351
0.28277
0.282363
0.282786
0.282424
0.28258
0.282657
0.282277
0.282751
0.282242
0.282724
0.282221
0.282706
0.282205
0.282511
0.280724
0.281152
0.282172
0.282736
0.282243
0.282738
0.282248
0.282729
0.282254
0.282721
0.282259
0.282733
0.282301
0.282757
0.282356
0.282779
0.282369
0.282771
0.282339
0.282745
0.282288
0.282732
0.282275
0.282744
0.28227
0.282735
0.282268
0.282692
0.282343
0.282197
0.281138
0.28076
0.282382
0.282359
0.282267
0.282717
0.282237
0.282736
0.282247
0.282723
0.282248
0.282735
0.282288
0.282764
0.282358
0.282705
0.282708
0.282378
0.282774
0.282308
0.282746
0.282267
0.282736
0.282268
0.282752
0.282275
0.282759
0.282295
0.282478
0.282357
0.28086
0.281122
0.282174
0.282725
0.28223
0.282749
0.282239
0.282751
0.282246
0.282742
0.282246
0.282741
0.282279
0.282768
0.282339
0.282793
0.282374
0.282795
0.282358
0.282763
0.2823
0.282745
0.282289
0.282761
0.282296
0.282757
0.282277
0.282697
0.282354
0.282189
0.28111
7.5492
16.1087
17.4042
13.7798
11.0004
10.1041
9.6417
8.15008
6.06483
4.00062
3.04789
1.42786
0.120873
0.258556
0.364047
0.605217
3.04454
5.87094
7.44683
7.56554
8.45581
7.82395
7.18458
6.98623
6.476
6.32849
6.27713
6.12865
6.19923
5.79162
5.77639
5.18758
4.26607
3.43777
2.53494
1.31674
0.974234
0.548135
0.297825
0.22747
0.315528
0.401849
0.646392
1.71583
1.41552
0.97379
1.04891
1.0676
1.05361
1.01796
0.956393
0.899765
0.846804
0.799684
0.754574
0.719476
0.74306
0.822459
0.939505
1.07456
1.07993
1.03151
1.06
1.24247
1.4694
1.64374
1.80533
1.836
1.78173
1.66742
1.34642
0.805324
0.833652
1.88349
1.55658
0.998163
1.09194
0.975932
0.899888
0.823638
0.818527
0.881556
0.904771
0.997599
1.14275
1.16448
1.06431
0.958212
1.03031
1.25764
1.5291
1.6566
1.72964
1.70412
1.74673
1.79889
1.8111
1.82298
1.72914
1.69014
2.1897
3.39209
0.908135
1.04185
0.439106
1.2315
2.40593
2.77424
2.69292
2.19789
1.83524
1.49847
1.55739
1.50893
2.01356
2.53538
3.13375
3.472
3.73542
3.86734
3.94039
3.86159
3.84872
3.79779
3.81178
3.7841
3.86719
4.12095
3.8909
2.4105
1.37402
0.740544
0.386619
0.260311
1.53264
2.43944
2.22349
1.94865
2.22382
2.68914
3.11155
3.21846
3.2463
3.21586
2.87694
2.26368
1.84247
1.52307
1.35155
1.16578
1.06511
0.95594
0.890442
0.816446
0.766979
0.716021
0.671192
0.640367
0.586706
0.576621
0.513767
0.514207
0.451406
0.445163
0.76725
0.733868
0.73377
0.646461
0.651796
0.595375
0.602307
0.561571
0.570473
0.539381
0.549041
0.52528
0.533959
0.516489
0.522914
0.510722
0.514931
0.506767
0.509118
0.503951
0.504965
0.501938
0.501478
0.500356
0.498846
0.498716
0.496701
0.496866
0.494102
0.479585
0.48562
0.497218
0.499706
0.497168
0.498416
0.496611
0.49745
0.4962
0.496832
0.495948
0.496503
0.495858
0.496338
0.495862
0.496236
0.495852
0.496147
0.495845
0.496028
0.495829
0.495985
0.495803
0.495957
0.495793
0.49596
0.495793
0.495912
0.495683
0.494536
0.478774
0.478719
0.494661
0.495838
0.495754
0.495894
0.495717
0.495846
0.4957
0.49583
0.495719
0.495869
0.495757
0.495914
0.495805
0.495941
0.495799
0.495926
0.495776
0.49588
0.495734
0.495859
0.495725
0.495865
0.495742
0.495896
0.495756
0.495874
0.49567
0.494516
0.478752
0.478626
0.494396
0.495684
0.495885
0.495732
0.495856
0.495699
0.495825
0.495685
0.495831
0.495708
0.495858
0.495753
0.4959
0.495775
0.495918
0.495793
0.495956
0.495832
0.495759
0.495819
0.495719
0.495869
0.495716
0.495841
0.495714
0.495855
0.495624
0.494695
0.478888
0.478661
0.494651
0.495853
0.49576
0.495895
0.495715
0.49584
0.495695
0.495827
0.495708
0.495854
0.495747
0.495913
0.4958
0.495934
0.495806
0.495929
0.49578
0.495883
0.495743
0.495867
0.495731
0.49588
0.495745
0.495891
0.495748
0.495841
0.495681
0.49454
0.478762
0.47888
0.494649
0.495543
0.495691
0.495819
0.495712
0.495855
0.495715
0.495843
0.49572
0.495873
0.495742
0.495919
0.4958
0.495853
0.49586
0.495815
0.49593
0.49575
0.495881
0.495724
0.495858
0.495734
0.495874
0.495752
0.495906
0.495758
0.495587
0.494645
0.478922
0.478644
0.49463
0.495818
0.495741
0.495871
0.495728
0.495846
0.495721
0.495834
0.495725
0.495854
0.495763
0.495927
0.495834
0.495999
0.49586
0.495999
0.49585
0.495949
0.495801
0.495904
0.495784
0.495922
0.495804
0.495933
0.495752
0.495854
0.495685
0.494496
0.478701
17.3585
21.3865
16.3901
12.0183
10.2109
9.2172
8.44143
5.07372
2.48925
1.22146
0.948556
1.1784
0.347762
0.242994
0.36595
1.07547
6.34733
8.73247
8.66197
8.60122
7.63948
7.06713
6.38023
6.22243
5.83044
5.75231
5.55664
5.80596
5.33649
4.69564
3.21652
2.14954
1.44507
1.53705
1.4995
1.29843
1.07571
0.659439
0.367193
0.273628
0.343661
0.286361
0.496273
1.39475
1.3945
0.994092
1.07054
1.11913
1.14961
1.17476
1.19557
1.15261
1.01136
0.841492
0.718826
0.702975
0.893004
1.63556
2.59998
3.19995
3.26416
1.70293
1.37581
1.22201
1.11647
1.16848
1.25373
1.66179
1.75734
1.78412
1.5457
0.893102
0.889763
1.89688
1.50035
1.0834
1.02824
0.835441
0.749486
0.786329
0.910826
0.926712
0.936755
1.08086
1.20668
1.12627
0.974447
1.0228
1.11594
1.48452
1.7027
1.69592
1.73264
1.70717
1.73904
1.80109
1.80131
1.81981
1.78296
1.6946
1.72005
2.9916
2.40082
0.776219
0.583296
1.64915
2.64617
2.77671
2.65998
2.51831
2.41211
2.46275
2.53481
2.96914
3.17735
3.41899
3.06993
3.02423
2.64066
3.10191
3.49493
3.63694
3.6246
3.61851
3.66887
3.72311
3.72269
3.8045
4.04753
4.09887
2.95961
1.78887
0.939227
0.378123
1.96511
2.13153
1.35724
1.28466
1.4497
2.15047
2.87633
3.20447
3.19769
3.20723
3.25937
3.12884
2.79489
2.48473
2.21997
2.04308
1.83326
1.74795
1.58459
1.54327
1.40509
1.38675
1.27096
1.24666
1.16082
1.13357
1.03347
1.00002
0.87809
0.809067
1.46076
1.49119
1.3398
1.30256
1.19203
1.19219
1.112
1.12859
1.06488
1.09069
1.03554
1.06596
1.01731
1.04791
1.00613
1.03377
0.999637
1.02261
0.995964
1.01403
0.993557
1.00727
0.991503
1.00185
0.989531
0.997103
0.987213
0.992167
0.983973
0.992226
0.999839
0.995019
0.990823
0.992229
0.989565
0.990109
0.988328
0.988786
0.987577
0.987926
0.987106
0.987379
0.986784
0.986988
0.986601
0.986685
0.98653
0.986418
0.986521
0.986239
0.986559
0.986167
0.986597
0.986167
0.986628
0.986208
0.98651
0.986073
0.986221
0.992247
0.992255
0.986347
0.986451
0.986121
0.986496
0.98601
0.986414
0.985937
0.986356
0.985937
0.986341
0.985958
0.986294
0.985981
0.986277
0.985992
0.986269
0.985967
0.986319
0.985956
0.986373
0.985972
0.986439
0.986038
0.986508
0.986105
0.986411
0.986044
0.986158
0.992231
0.991876
0.985943
0.986093
0.986496
0.986097
0.986459
0.98598
0.986375
0.985921
0.986333
0.985919
0.986291
0.985947
0.986254
0.985983
0.986266
0.986009
0.98633
0.986145
0.986027
0.986168
0.986014
0.986419
0.986005
0.986447
0.986054
0.986447
0.985988
0.986482
0.992529
0.99215
0.98625
0.986438
0.986111
0.986485
0.986004
0.986384
0.985926
0.986326
0.985926
0.98632
0.985954
0.986291
0.985983
0.986265
0.986
0.986274
0.985974
0.986321
0.98597
0.986395
0.985992
0.98645
0.986047
0.986493
0.986094
0.986349
0.986071
0.986187
0.992233
0.992538
0.986274
0.985909
0.986
0.986385
0.986019
0.986442
0.985972
0.986386
0.985953
0.986361
0.985938
0.986322
0.985996
0.986127
0.986113
0.986006
0.986308
0.985949
0.986359
0.985955
0.986396
0.985982
0.986456
0.986068
0.98651
0.986119
0.985959
0.986201
0.992624
0.992136
0.986241
0.986416
0.986085
0.986504
0.986004
0.98647
0.985933
0.986421
0.985903
0.986361
0.985894
0.986318
0.985954
0.986304
0.985983
0.98626
0.985946
0.986302
0.985929
0.986361
0.98594
0.986437
0.986005
0.98652
0.986051
0.986342
0.986012
0.986062
0.992048
23.8682
20.7611
14.7305
10.4985
8.48567
8.031
6.03233
2.39272
1.33893
0.948865
0.523172
0.595364
0.372814
0.0615238
0.56418
3.37768
8.97724
9.0623
8.76412
7.92206
6.90888
6.59688
5.75431
5.77186
5.20184
5.49852
5.28571
4.67746
2.6835
1.56892
1.09736
0.848591
0.813301
0.934091
1.09972
1.14573
0.912021
0.556919
0.357064
0.281952
0.273827
0.425518
0.528955
1.15997
1.40435
1.00488
1.10482
1.18134
1.23834
1.34668
1.45292
1.42713
1.19283
0.855736
0.691098
0.815708
2.56601
5.09017
5.24321
5.66678
5.32365
5.46897
5.02676
2.48301
1.52972
1.11256
1.0688
1.2311
1.68194
1.7374
1.36247
0.651541
0.707811
1.52884
1.65044
1.08988
1.03468
0.873025
0.808761
0.92521
1.11191
1.15963
1.19472
1.18134
1.13459
1.01339
1.08235
1.26102
1.7091
2.92373
1.73486
1.70262
1.73136
1.75105
1.78173
1.81308
1.81869
1.82009
1.80282
1.75086
1.59501
1.71327
3.04258
1.03587
1.17266
1.77082
2.23608
2.24705
2.14516
2.26478
2.50435
2.90663
3.13333
3.33727
3.23524
2.75844
1.922
1.77287
1.69266
1.69885
1.7563
2.95967
3.40594
3.45196
3.51384
3.57111
3.66883
3.67776
3.75642
3.96442
4.13823
3.28246
1.76178
0.531351
1.89814
1.13979
1.15583
1.16621
1.45851
2.18489
2.9017
3.19724
3.18264
3.11074
3.14745
3.23754
3.22398
3.0872
2.96092
2.7722
2.67604
2.50451
2.41812
2.29248
2.20967
2.10784
2.02319
1.93817
1.83324
1.7643
1.62278
1.54895
1.33127
1.25266
2.22569
2.2269
2.16752
1.98282
1.9184
1.81609
1.78867
1.72214
1.70966
1.66676
1.65294
1.63445
1.61247
1.61274
1.585
1.59646
1.56675
1.58393
1.55521
1.57332
1.54767
1.56427
1.54184
1.55687
1.53653
1.54963
1.53103
1.53998
1.52449
1.53675
1.56367
1.54303
1.54489
1.53893
1.54031
1.53699
1.53772
1.53566
1.53614
1.53488
1.53507
1.53453
1.5344
1.53428
1.53401
1.53414
1.53379
1.53406
1.53369
1.53395
1.53366
1.53384
1.53364
1.53375
1.53353
1.53342
1.53309
1.53266
1.53259
1.53993
1.53996
1.53279
1.53272
1.53302
1.53327
1.53333
1.53347
1.53342
1.53347
1.53347
1.53353
1.53351
1.53353
1.5335
1.53354
1.53348
1.53353
1.53349
1.53353
1.5335
1.53352
1.53347
1.53352
1.53348
1.53345
1.53322
1.53302
1.53255
1.53257
1.53989
1.5396
1.5324
1.53263
1.53305
1.53323
1.53336
1.53342
1.53345
1.53342
1.53346
1.53346
1.53351
1.53347
1.5335
1.53346
1.53354
1.53348
1.53362
1.53357
1.53345
1.53348
1.53349
1.53354
1.53346
1.53339
1.5332
1.53299
1.53255
1.53269
1.54029
1.53978
1.5327
1.53271
1.53301
1.53325
1.53331
1.53344
1.5334
1.53346
1.53344
1.53352
1.53349
1.53353
1.53349
1.53353
1.53349
1.53353
1.5335
1.53354
1.53351
1.53355
1.5335
1.53354
1.53349
1.53345
1.53321
1.53296
1.53257
1.5326
1.53988
1.54024
1.53264
1.53243
1.53287
1.53318
1.53332
1.53349
1.53346
1.5335
1.53349
1.53354
1.53349
1.53355
1.53349
1.53346
1.53348
1.53349
1.53356
1.53349
1.53355
1.53349
1.53352
1.53348
1.53352
1.53339
1.53331
1.53303
1.53243
1.53258
1.54026
1.53987
1.53271
1.53268
1.53298
1.53324
1.53336
1.53348
1.53347
1.5335
1.5335
1.53349
1.53352
1.53355
1.53354
1.5336
1.53354
1.53357
1.53353
1.53358
1.53355
1.53357
1.53355
1.53357
1.5335
1.53344
1.53313
1.53271
1.53177
1.53053
1.53781
23.4128
19.1929
13.2972
8.80675
7.49578
7.34591
3.93764
2.31842
2.16288
2.34719
1.35426
0.629163
0.363636
0.150447
0.276603
0.543063
0.7029
6.03043
9.1243
9.06396
8.32195
7.68059
6.7644
6.03609
5.54854
5.34153
4.95312
4.99277
4.59104
1.96885
1.23651
0.701082
0.532264
0.524575
0.622593
0.79844
0.918825
0.878116
0.669825
0.486359
0.391212
0.363184
0.439075
0.599284
0.745546
0.950664
0.872485
1.65515
1.24332
1.06665
1.21043
1.27132
1.35243
1.45194
1.53621
1.52033
1.24091
0.813074
0.682814
1.25616
3.09127
3.95339
3.29953
2.1747
2.36923
3.42282
4.25746
5.74634
5.43721
4.24463
2.92925
1.61578
1.53988
1.5364
0.856649
0.439676
0.40668
0.523032
1.48517
1.71102
0.896992
1.12731
1.11708
0.984561
1.02298
1.17107
1.22392
1.33402
1.33654
1.19147
1.14532
1.06885
1.38314
2.28297
3.21501
3.65685
2.0067
1.72993
1.76133
1.7609
1.76298
1.7275
1.73672
1.75754
1.77953
1.74913
1.70166
1.60938
1.82378
1.59757
1.27235
1.21081
1.29625
1.44009
1.70306
1.95543
2.25604
2.58382
2.89717
3.02595
2.94472
2.77501
2.15492
1.81093
1.69089
1.57898
1.61002
1.58869
1.58319
1.62749
2.93203
3.35328
3.37094
3.47684
3.53111
3.62374
3.62116
3.70668
3.87648
4.03352
3.29815
1.27069
0.617095
0.707864
0.77089
1.00648
1.15596
1.54801
2.07408
2.7395
3.12087
3.20717
3.14514
3.04361
3.01632
3.08231
3.17614
3.21193
3.19313
3.11325
3.0832
3.00949
2.95219
2.90966
2.83896
2.81783
2.72999
2.70936
2.60233
2.58365
2.44355
2.37825
2.18416
1.95495
2.08807
2.34095
2.49794
2.70834
2.64306
2.64171
2.52175
2.54817
2.44462
2.48205
2.39692
2.43357
2.36711
2.39864
2.34774
2.37239
2.33482
2.35314
2.32475
2.33942
2.3171
2.32898
2.31109
2.32088
2.30614
2.31409
2.30173
2.30751
2.29648
2.30021
2.29046
2.31417
2.34128
2.34734
2.3267
2.31055
2.29641
2.30164
2.29468
2.29801
2.29379
2.29574
2.29311
2.29421
2.2926
2.29325
2.29224
2.29255
2.29192
2.29205
2.2917
2.29168
2.29151
2.29138
2.29134
2.2912
2.29127
2.29104
2.29107
2.2907
2.29066
2.29047
2.29269
2.31818
2.34114
2.34111
2.31825
2.29277
2.29062
2.29044
2.29067
2.29068
2.29093
2.29084
2.29099
2.29089
2.29103
2.29096
2.29106
2.29101
2.29105
2.291
2.29107
2.29098
2.29106
2.29093
2.29102
2.29088
2.29101
2.29082
2.29085
2.29055
2.2905
2.2904
2.2926
2.31816
2.34109
2.34109
2.318
2.29244
2.29048
2.29055
2.29054
2.29081
2.29079
2.29097
2.29085
2.29099
2.29091
2.29105
2.29099
2.29107
2.29101
2.29107
2.29101
2.29111
2.29107
2.29091
2.29093
2.29094
2.291
2.29085
2.2908
2.29054
2.29051
2.29045
2.29272
2.31835
2.34109
2.34109
2.31812
2.29267
2.2906
2.29042
2.29064
2.29065
2.29091
2.29081
2.29098
2.29086
2.29102
2.29095
2.29106
2.291
2.29106
2.29101
2.29107
2.29099
2.29107
2.29094
2.29104
2.2909
2.29104
2.29084
2.29085
2.29056
2.29046
2.29043
2.29263
2.31815
2.3411
2.34108
2.31831
2.29259
2.29037
2.29034
2.29062
2.29067
2.29094
2.29086
2.29101
2.2909
2.29105
2.29097
2.29107
2.29101
2.291
2.291
2.29102
2.29107
2.29097
2.29104
2.29088
2.29101
2.29086
2.29096
2.2907
2.2907
2.29046
2.29039
2.29258
2.31835
2.34106
2.3411
2.31818
2.29269
2.29059
2.29038
2.29067
2.29066
2.29098
2.29082
2.29099
2.29082
2.29098
2.29086
2.291
2.29095
2.29105
2.29101
2.29109
2.29102
2.29108
2.29092
2.29103
2.29083
2.29099
2.29071
2.29079
2.29045
2.29037
2.29031
2.29259
2.31799
2.33961
2.32111
19.1695
16.6506
10.8457
7.51908
7.29547
7.37514
4.55035
3.82519
4.20062
4.23115
2.89041
1.1322
0.514915
0.304029
0.461775
0.636769
1.3644
8.00892
9.08041
8.7458
8.27527
7.72256
6.44277
5.87254
5.04393
5.1634
4.76107
5.17539
2.57881
1.27822
0.657235
0.459718
0.442418
0.50189
0.58898
0.648685
0.649925
0.580308
0.502959
0.464258
0.459712
0.497815
0.623859
0.658774
1.11417
1.35064
1.5857
1.79104
1.6645
1.19277
1.31462
1.35678
1.41876
1.46723
1.51738
1.53185
1.31509
0.838296
0.679502
0.825539
1.18268
1.37195
1.43796
1.41204
1.44082
1.39224
1.54864
2.52425
4.48243
8.92024
8.82649
4.02023
1.44495
1.26787
0.584689
0.286966
0.522441
0.488526
1.52115
1.55206
1.07894
1.11356
1.08422
0.962021
1.11549
1.19248
1.23137
1.74384
1.34456
1.13005
1.06044
1.08399
2.59915
3.43948
4.59219
3.60748
3.26615
1.72034
1.65442
1.61757
1.56601
1.54165
1.56346
1.58032
1.62992
1.69777
1.69477
1.66011
1.68392
1.76522
1.48014
1.83775
1.93717
2.08973
2.27349
2.54732
2.56788
2.31982