/*--------------------------------*- C++ -*----------------------------------*\
| =========                 |                                                 |
| \\      /  F ield         | OpenFOAM: The Open Source CFD Toolbox           |
|  \\    /   O peration     | Version:  2.1.1                                 |
|   \\  /    A nd           | Web:      www.OpenFOAM.org                      |
|    \\/     M anipulation  |                                                 |
\*---------------------------------------------------------------------------*/
FoamFile
{
    version     2.0;
    format      ascii;
    class       volScalarField;
    location    "0.006500000";
    object      G;
}
// * * * * * * * * * * * * * * * * * * * * * * * * * * * * * * * * * * * * * //

dimensions      [0 0 0 0 0 0 0];

internalField   nonuniform List<scalar> 
12384
(
1
1
1
1
1
1
1
1
1
1
1
1
1
1
1
1
1
1
1
1
1
1
1
1
1
1
1
1
1
0.999999
0.999997
0.999994
0.999987
0.999986
0.999988
0.999994
0.999997
0.999999
1
1
1
1
1
1
1
1
1
1
1
1
1
1
1
1
1
0.999999
0.999997
0.999988
0.999963
0.999904
0.999809
0.999679
0.999641
0.999701
0.999784
0.999802
0.999879
0.999928
0.999963
0.999987
0.999999
1
1
1
1
1
1
1
1
1
0.999999
0.999998
0.999996
0.999989
0.999965
0.999893
0.999674
0.999056
0.997509
0.994176
0.988533
0.981675
0.977697
0.983996
0.987932
0.994262
0.996762
0.999023
0.999772
0.999988
1
1
1
1
1
1
0.999999
0.999984
0.999896
0.999572
0.998627
0.996119
0.994044
0.98875
0.979611
0.983713
0.981421
0.990883
0.994166
0.997648
0.999092
0.99964
0.999906
0.999988
0.999997
0.999999
1
1
1
1
1
1
1
1
1
1
1
1
1
1
1
1
1
1
0.999998
0.999989
0.999947
0.999816
0.999559
0.999174
0.99914
0.99936
0.999597
0.999819
0.999843
0.999917
0.99996
0.999976
0.999995
0.999999
1
1
1
1
1
1
1
1
1
0.999994
0.999925
0.999465
0.997715
0.992957
0.984484
0.971967
0.963482
0.955828
0.963514
0.966151
0.969826
0.971927
0.975921
0.978879
0.984868
0.991796
0.997407
0.999503
0.999748
0.999957
0.999973
0.99999
0.999993
0.999982
1
1
1
1
0.999997
0.999948
0.999663
0.998791
0.996642
0.995245
0.99164
0.99215
0.993215
0.994057
0.995192
0.996613
0.99784
0.998813
0.999458
0.999794
0.999943
0.999989
0.999999
1
1
1
1
1
1
1
1
1
0.999998
0.999934
0.999409
0.997403
0.992937
0.98605
0.980606
0.977235
0.97783
0.986077
0.985699
0.993903
0.996048
0.998372
0.999321
0.999763
0.999969
0.999997
1
1
1
1
1
1
1
1
1
1
1
1
1
1
1
0.999992
0.999874
0.999126
0.996611
0.989913
0.976555
0.973978
0.964193
0.965786
0.976231
0.982669
0.988934
0.994282
0.997274
0.999033
0.999672
0.999968
1
1
1
1
1
1
1
1
1
1
0.999998
0.999979
0.999608
0.996375
0.983689
0.956491
0.929588
0.883511
0.899605
0.875332
0.930764
0.929381
0.967651
0.976908
0.990402
0.994875
0.99791
0.99938
0.999945
0.999999
1
1
1
1
1
1
1
1
1
1
1
1
0.999999
0.999994
0.999991
0.999988
0.999979
0.999952
0.999826
0.999192
0.998587
0.998602
0.999049
0.999504
0.99977
0.99988
0.999903
0.999845
0.999592
0.998678
0.997614
0.996119
0.995685
0.996099
0.997247
0.99857
0.999685
0.999997
1
1
1
1
1
1
0.998412
0.999845
0.999984
0.999913
0.999767
0.99955
0.999289
0.998862
0.99805
0.998028
0.998313
0.999341
0.999745
0.999949
0.999995
1
1
1
1
1
1
1
1
1
1
1
1
1
1
1
1
1
1
1
1
1
1
1
1
1
1
1
1
1
1
1
1
1
1
1
1
0.999996
0.999932
0.999264
0.995845
0.985825
0.96824
0.945279
0.928432
0.922405
0.930753
0.95395
0.97423
0.990768
0.998333
0.999931
0.999999
1
1
1
1
0.999999
0.999996
0.999995
0.999997
0.999999
0.999999
0.999997
0.999979
0.99983
0.998842
0.99403
0.978606
0.942924
0.886312
0.826366
0.770055
0.727596
0.7185
0.737258
0.761347
0.813746
0.876432
0.932343
0.979382
0.99859
0.999996
1
1
0.999991
0.999943
0.999796
0.99958
0.999385
0.99944
0.99949
0.999574
0.99948
0.998857
0.996114
0.984119
0.944648
0.849412
0.688982
0.500429
0.341207
0.233234
0.167987
0.162762
0.181824
0.245213
0.35128
0.52855
0.751236
0.947162
0.998903
1
1
1
1
0.999971
0.998577
0.985864
0.940092
0.840121
0.71781
0.561078
0.393469
0.294294
0.255173
0.187878
0.19017
0.23074
0.269004
0.363764
0.504949
0.670962
0.855567
0.965087
0.996571
0.999986
0.999999
0.999998
0.999997
0.999999
1
1
1
1
1
1
1
1
1
1
0.999999
0.999961
0.999368
0.994986
0.976949
0.930555
0.84817
0.742902
0.635953
0.547525
0.476548
0.458749
0.470374
0.52539
0.592313
0.704449
0.806069
0.921779
0.983662
0.999444
0.999999
1
1
1
1
1
1
0.999865
0.996784
0.976762
0.90187
0.745074
0.547659
0.367377
0.240675
0.153497
0.11755
0.0890367
0.0841818
0.0828888
0.0875857
0.107069
0.144909
0.199816
0.319205
0.574095
0.868059
0.97184
0.997999
0.999957
0.999988
0.999934
0.999861
1
1
0.999997
0.999076
0.982527
0.916096
0.773669
0.607831
0.42931
0.334952
0.24348
0.218448
0.196604
0.212667
0.250844
0.31587
0.419592
0.566011
0.742941
0.902604
0.980689
0.998287
0.999919
0.99999
0.999991
0.99999
0.999998
0.999999
1
1
1
0.999929
0.990537
0.917878
0.748238
0.535881
0.345804
0.214067
0.138555
0.0983637
0.0884242
0.0912974
0.125769
0.182121
0.285033
0.45119
0.661938
0.863939
0.977774
0.999081
0.99999
1
0.999999
0.999999
0.999999
1
1
1
1
1
1
1
1
1
0.99985
0.990713
0.92575
0.758273
0.509984
0.329939
0.203097
0.105961
0.0789469
0.0794067
0.0849069
0.136016
0.215871
0.359657
0.598004
0.823525
0.947045
0.98832
0.999176
0.999969
0.999992
0.999995
0.999999
1
1
1
1
1
0.999997
0.994373
0.880377
0.59
0.311642
0.148598
0.0581055
0.0340429
0.0167054
0.020974
0.0184037
0.0357117
0.0796817
0.151414
0.363036
0.626628
0.895679
0.983739
0.99824
0.999617
0.999821
0.99986
0.999945
0.99998
0.999994
0.999999
1
1
1
1
0.999999
0.998995
0.960581
0.833723
0.733472
0.6719
0.632539
0.604327
0.60014
0.639437
0.700581
0.784346
0.871089
0.938217
0.97601
0.992565
0.997457
0.996898
0.990528
0.967904
0.918762
0.816175
0.781232
0.788013
0.832645
0.901084
0.96803
0.999659
1
1
1
1
1
0.992511
0.972161
0.980492
0.928265
0.806533
0.713882
0.6649
0.647872
0.66214
0.695371
0.777586
0.84467
0.921752
0.966017
0.991314
0.9984
0.999885
0.999998
1
1
1
1
1
1
1
1
1
1
1
1
1
1
1
1
1
1
1
1
1
1
1
1
1
1
1
1
1
1
1
1
0.999999
0.999992
0.999914
0.999394
0.997665
0.993729
0.987056
0.97701
0.964877
0.956154
0.948167
0.949374
0.958502
0.971138
0.984021
0.994556
0.999276
0.999973
1
1
1
1
1
1
1
1
0.999999
0.99999
0.999906
0.999459
0.997907
0.993922
0.985841
0.969994
0.942586
0.908592
0.866814
0.824224
0.799359
0.786429
0.801911
0.81887
0.841634
0.875246
0.90759
0.947247
0.986775
0.999618
1
1
0.999941
0.99989
0.999766
0.99958
0.999274
0.998902
0.998259
0.997305
0.995308
0.99085
0.978821
0.95011
0.890994
0.789762
0.650326
0.500019
0.365886
0.270325
0.222133
0.176017
0.190742
0.226376
0.298284
0.395825
0.553452
0.778326
0.966466
0.999857
1
1
0.999994
0.999076
0.984609
0.931767
0.847549
0.754772
0.677311
0.553634
0.473235
0.412956
0.345267
0.2872
0.289415
0.292093
0.341329
0.370223
0.432231
0.529473
0.665784
0.837683
0.95171
0.996249
0.999982
0.999999
1
0.999999
0.999998
0.999999
1
1
1
1
1
1
1
0.999999
0.99998
0.999724
0.997751
0.989618
0.968249
0.927888
0.871226
0.802743
0.741025
0.672837
0.616182
0.598699
0.585824
0.643936
0.668112
0.751116
0.803728
0.877956
0.946132
0.991888
0.999841
1
1
1
1
1
0.999971
0.999519
0.993394
0.950719
0.82205
0.635713
0.452136
0.311266
0.220185
0.178942
0.128357
0.11386
0.100821
0.111221
0.119355
0.123138
0.14084
0.169515
0.20462
0.313803
0.581589
0.856459
0.959031
0.997978
0.999995
0.999985
0.999856
1
1
0.999504
0.985085
0.923206
0.824838
0.670724
0.556905
0.432295
0.344733
0.284356
0.222242
0.212749
0.217539
0.24301
0.28589
0.343967
0.430656
0.55539
0.720166
0.887322
0.975088
0.997213
0.999882
0.999998
1
1
0.999999
0.999999
1
1
0.989395
0.890077
0.716407
0.539853
0.387945
0.260252
0.177508
0.124973
0.0993168
0.0746837
0.0818026
0.0912709
0.132927
0.188716
0.287989
0.43516
0.638021
0.855747
0.978592
0.998976
0.999994
1
1
1
1
1
1
1
1
1
1
1
0.999969
0.990836
0.903698
0.711688
0.502509
0.338514
0.22046
0.128106
0.0895919
0.0783609
0.0602313
0.0536328
0.0656136
0.11172
0.169956
0.294425
0.528323
0.769304
0.919582
0.988088
0.999543
0.999994
1
1
0.999999
1
1
1
1
0.998917
0.907611
0.572142
0.269359
0.123599
0.0440633
0.0241741
0.01153
0.0081314
0.00576654
0.00917911
0.0126563
0.0300884
0.0590409
0.139874
0.30294
0.614617
0.883164
0.982432
0.998733
0.999891
0.999977
0.999984
0.999955
0.999885
0.999945
0.999999
1
1
1
0.999615
0.969158
0.84507
0.752029
0.71915
0.694799
0.671743
0.662923
0.665543
0.672904
0.693312
0.728317
0.772824
0.826105
0.886843
0.937331
0.961275
0.961529
0.953009
0.931629
0.898157
0.858087
0.853276
0.827976
0.842339
0.873783
0.927506
0.998719
1
1
1
1
0.997632
0.949096
0.947555
0.892266
0.764401
0.684773
0.657215
0.658507
0.663218
0.694289
0.729946
0.77864
0.824995
0.892037
0.930234
0.972691
0.991949
0.999089
0.99996
1
1
1
1
1
1
1
1
1
1
1
1
1
1
1
1
1
1
1
1
1
1
1
1
1
1
1
1
1
1
0.999999
0.999995
0.999976
0.999821
0.998922
0.99672
0.994597
0.99407
0.994076
0.993882
0.992642
0.991434
0.987837
0.986037
0.981868
0.983074
0.985001
0.991389
0.997699
0.999762
1
1
1
1
1
1
1
1
0.999998
0.999941
0.999251
0.996593
0.990534
0.982568
0.971855
0.9582
0.944847
0.927851
0.901695
0.881929
0.868183
0.859473
0.860625
0.882635
0.892224
0.903744
0.912682
0.92982
0.964974
0.995788
0.999999
1
0.99958
0.999762
0.999762
0.999682
0.999452
0.998701
0.996817
0.992652
0.984299
0.968204
0.936426
0.879835
0.792683
0.686221
0.585263
0.497728
0.424737
0.37164
0.325338
0.305173
0.285987
0.299575
0.318428
0.368014
0.452538
0.636661
0.881331
0.995709
1
1
0.999858
0.993043
0.945469
0.860115
0.780316
0.737679
0.706683
0.646118
0.670169
0.605085
0.544613
0.559669
0.523737
0.514323
0.509573
0.529776
0.510513
0.507449
0.563592
0.691511
0.853561
0.963315
0.997771
0.999987
1
1
0.999994
0.999993
1
1
1
1
1
1
1
0.999993
0.999846
0.998441
0.991241
0.972916
0.944951
0.91522
0.886217
0.865228
0.851235
0.820208
0.804893
0.790686
0.767833
0.785536
0.792473
0.836169
0.85221
0.88332
0.926735
0.974463
0.998107
0.999991
1
1
1
0.999998
0.999968
0.998756
0.974146
0.835255
0.61661
0.450022
0.353717
0.306305
0.310003
0.262608
0.263012
0.232531
0.201667
0.170977
0.180453
0.194588
0.185495
0.188842
0.196502
0.22542
0.363849
0.653701
0.873626
0.972599
0.999778
0.999988
0.999907
1
0.999954
0.992592
0.943216
0.852562
0.755014
0.646938
0.606058
0.496749
0.437153
0.368425
0.339433
0.318609
0.309812
0.31049
0.337084
0.371193
0.406779
0.468272
0.580339
0.738265
0.898644
0.977058
0.997107
0.999955
1
1
0.999999
0.999998
1
0.999993
0.911445
0.715907
0.550452
0.420526
0.324686
0.251735
0.194414
0.153676
0.11999
0.113508
0.0954402
0.118166
0.138559
0.172834
0.245583
0.333185
0.479757
0.682545
0.89312
0.985944
0.999439
0.999998
1
1
1
1
1
1
1
1
1
1
0.998579
0.934852
0.715193
0.492428
0.353021
0.269034
0.182522
0.159341
0.14161
0.0882362
0.0621758
0.0617249
0.0543898
0.0666738
0.11369
0.163495
0.281966
0.519349
0.773791
0.931323
0.992429
0.999856
0.999999
1
0.999996
0.999999
1
1
0.999986
0.975786
0.6701
0.297439
0.11018
0.0481501
0.0186372
0.0109139
0.00451964
0.0039074
0.00342435
0.00649643
0.00693211
0.0187206
0.0289742
0.0750624
0.14373
0.357553
0.658654
0.898426
0.988526
0.999583
0.999976
0.999986
0.999814
0.998804
0.999228
0.999985
1
1
0.999978
0.990223
0.892716
0.786124
0.75699
0.755456
0.757031
0.77113
0.779782
0.792856
0.784667
0.760711
0.717263
0.682983
0.687977
0.733783
0.78286
0.819521
0.847083
0.861238
0.859813
0.895176
0.916367
0.92396
0.911615
0.900863
0.874312
0.870799
0.99735
1
1
1
0.999134
0.947181
0.933756
0.884825
0.768982
0.677868
0.667018
0.691154
0.722912
0.754631
0.771854
0.806655
0.846608
0.851197
0.881964
0.896129
0.938309
0.971608
0.995633
0.999827
0.999999
1
1
1
1
1
1
1
1
1
1
1
1
1
1
1
1
1
1
1
1
1
1
1
1
1
1
1
1
0.999999
0.999996
0.999986
0.999924
0.999262
0.995897
0.991778
0.993139
0.996454
0.998332
0.999124
0.999427
0.999469
0.999255
0.998838
0.997072
0.994206
0.990034
0.990083
0.995098
0.998961
1
1
0.999999
1
1
1
1
1
0.999996
0.999796
0.997499
0.989971
0.977311
0.964147
0.953429
0.951561
0.949873
0.942467
0.939014
0.934875
0.927987
0.929358
0.924144
0.930621
0.933499
0.932731
0.924645
0.919825
0.939305
0.982021
0.999997
1
0.997704
0.999352
0.999761
0.999824
0.999719
0.999095
0.995914
0.986506
0.96665
0.929953
0.870794
0.788393
0.674765
0.568598
0.507699
0.500722
0.538357
0.572827
0.573869
0.536413
0.476016
0.432515
0.395556
0.378963
0.403155
0.523297
0.767225
0.974227
1
0.999996
0.998794
0.977139
0.898574
0.802828
0.755784
0.758825
0.774546
0.791717
0.843911
0.814404
0.821338
0.822607
0.805227
0.781777
0.75044
0.704783
0.661997
0.583208
0.532752
0.587591
0.740664
0.892808
0.976418
0.999141
0.999999
1
0.99999
0.999975
1
1
1
1
1
1
0.999999
0.999955
0.999249
0.993868
0.974228
0.940608
0.910422
0.894667
0.898257
0.923577
0.940077
0.951127
0.953291
0.94735
0.931057
0.928195
0.907005
0.913708
0.905971
0.912617
0.925076
0.95903
0.992647
0.999857
1
1
1
0.999995
0.999929
0.994255
0.899903
0.640481
0.433154
0.353713
0.362748
0.444885
0.492848
0.584728
0.588041
0.581355
0.530753
0.452294
0.337871
0.303446
0.281235
0.250753
0.218638
0.200758
0.25871
0.47292
0.757565
0.93026
0.997739
0.999968
0.999963
1
0.999088
0.971084
0.889938
0.788399
0.720443
0.686087
0.661619
0.603803
0.635451
0.578592
0.564919
0.514393
0.492332
0.474396
0.444585
0.440922
0.445931
0.459472
0.507779
0.621222
0.791895
0.927961
0.984459
0.999476
0.999996
0.999999
0.999997
0.999999
1
0.999906
0.780741
0.573861
0.441775
0.355863
0.306623
0.28335
0.259873
0.230073
0.207762
0.170999
0.183347
0.159573
0.185592
0.207163
0.249883
0.301575
0.394428
0.544557
0.757752
0.941379
0.993736
0.999903
1
1
1
1
1
1
1
1
1
0.99999
0.986756
0.805123
0.527385
0.355608
0.274194
0.234831
0.243683
0.239364
0.180455
0.16851
0.178984
0.153756
0.118098
0.0754188
0.0717285
0.114579
0.169337
0.321874
0.582933
0.824493
0.965763
0.99807
0.999974
0.999998
0.999989
0.999996
1
0.999999
0.999594
0.873242
0.403593
0.140233
0.0526541
0.0269891
0.012153
0.00950337
0.00937789
0.00546187
0.00662955
0.00546913
0.00897072
0.014469
0.0210637
0.0478544
0.0758146
0.203549
0.429062
0.743091
0.944385
0.996805
0.999923
0.999958
0.999127
0.994152
0.995672
0.99991
1
0.999999
0.999247
0.95646
0.825875
0.775392
0.788265
0.806202
0.840209
0.880551
0.910315
0.913902
0.901193
0.85397
0.760822
0.640703
0.567798
0.561044
0.597684
0.649175
0.695003
0.741215
0.826249
0.919805
0.964046
0.981986
0.975635
0.936961
0.8658
0.801039
0.996362
1
0.999999
0.999861
0.976492
0.918414
0.901927
0.80942
0.698687
0.680489
0.719487
0.765938
0.814032
0.857143
0.902854
0.913479
0.918234
0.904176
0.901942
0.884607
0.906758
0.93782
0.985376
0.999243
0.999998
1
1
1
1
1
1
1
1
1
1
1
1
1
1
1
1
1
1
1
1
1
1
1
1
1
1
1
1
0.999999
0.999999
0.999997
0.999959
0.998902
0.991939
0.987886
0.99393
0.998093
0.999579
0.999918
0.999983
0.999994
0.999992
0.999976
0.999835
0.998901
0.994983
0.990382
0.991899
0.997054
1
1
0.999996
1
1
1
1
1
0.999993
0.999592
0.995018
0.98141
0.960987
0.94272
0.939682
0.944529
0.950104
0.960608
0.971952
0.975861
0.976885
0.975244
0.97207
0.966652
0.961406
0.955604
0.936417
0.911718
0.906861
0.95386
0.999991
1
0.991634
0.998463
0.999708
0.99992
0.999894
0.999474
0.996331
0.980834
0.942735
0.88273
0.801797
0.704017
0.574056
0.466595
0.438156
0.515713
0.661675
0.791773
0.85691
0.83393
0.752422
0.630168
0.493006
0.418565
0.378281
0.450533
0.682008
0.939286
0.999999
0.999963
0.995819
0.956183
0.855963
0.767717
0.742647
0.782206
0.836585
0.882548
0.941256
0.957918
0.972222
0.977179
0.973038
0.964342
0.940948
0.88181
0.78062
0.662186
0.551324
0.531829
0.639622
0.80893
0.930938
0.98962
0.999934
1
0.999987
0.999961
1
1
1
1
1
1
0.999997
0.999858
0.997839
0.985217
0.946088
0.893485
0.861383
0.861555
0.902194
0.951109
0.981094
0.994575
0.997501
0.997559
0.9944
0.98975
0.975864
0.966397
0.951005
0.940588
0.934212
0.949316
0.984464
0.999127
1
1
1
0.999997
0.999669
0.979594
0.795436
0.468272
0.320713
0.299398
0.410298
0.548434
0.732228
0.823443
0.88246
0.888676
0.861515
0.796344
0.674814
0.529544
0.410286
0.343599
0.270947
0.20443
0.216878
0.369859
0.670743
0.911654
0.995037
0.99993
0.999988
1
0.995082
0.939487
0.826462
0.727428
0.712706
0.687167
0.712449
0.761255
0.789679
0.79258
0.799388
0.781897
0.743165
0.695126
0.642249
0.561605
0.512824
0.482836
0.482955
0.552524
0.699584
0.869931
0.96882
0.998296
0.999979
0.999996
0.999995
1
1
0.999431
0.672899
0.478751
0.366536
0.309254
0.309539
0.332851
0.349681
0.396988
0.419615
0.447197
0.35906
0.341626
0.300628
0.271335
0.295454
0.311168
0.364464
0.456452
0.634757
0.868393
0.978592
0.999211
0.999997
1
1
1
1
1
1
1
1
0.99982
0.946748
0.652626
0.387906
0.266481
0.222834
0.229046
0.237684
0.285223
0.429644
0.513446
0.449313
0.345424
0.267221
0.172127
0.0859501
0.0730851
0.125268
0.230486
0.424885
0.71136
0.920478
0.9924
0.999804
0.999979
0.999975
0.99999
1
0.999998
0.995224
0.68268
0.223063
0.0776267
0.034853
0.0230294
0.0159422
0.0189066
0.0182856
0.0297944
0.0218472
0.027517
0.0154782
0.0204519
0.0162216
0.0423846
0.0468804
0.120988
0.274094
0.579152
0.863756
0.987766
0.999703
0.999892
0.997653
0.982762
0.985186
0.999504
1
0.999996
0.993689
0.902438
0.79488
0.780457
0.817864
0.865
0.916154
0.957128
0.97499
0.983251
0.973763
0.933071
0.822007
0.643611
0.483536
0.442476
0.488296
0.516169
0.561147
0.672612
0.814637
0.924522
0.98854
0.998868
0.99159
0.934622
0.835794
0.750238
0.99628
1
0.999993
0.996337
0.929051
0.916698
0.859833
0.754185
0.684149
0.70823
0.780743
0.860628
0.930075
0.967652
0.97975
0.98008
0.973294
0.9431
0.916056
0.879291
0.885206
0.904879
0.968088
0.997468
0.999993
1
1
1
1
1
1
1
1
1
1
1
1
1
1
1
1
1
1
1
1
1
0.999999
1
1
1
1
1
1
1
1
1
0.999989
0.99878
0.988146
0.987704
0.995202
0.99898
0.999892
0.999995
1
1
1
1
0.999995
0.99982
0.997558
0.991111
0.988816
0.994228
1
1
0.999986
1
1
1
1
1
0.999993
0.99947
0.993164
0.9739
0.947907
0.928064
0.927367
0.934669
0.954178
0.97608
0.989089
0.994805
0.99684
0.996414
0.993758
0.98928
0.97913
0.967945
0.944951
0.901691
0.870357
0.91345
0.999987
0.999999
0.980207
0.995695
0.999591
0.999951
0.999972
0.999826
0.997639
0.981611
0.928331
0.843713
0.760387
0.662075
0.513309
0.398595
0.388131
0.514333
0.725832
0.938532
0.99357
0.99022
0.926656
0.7889
0.573186
0.438144
0.369993
0.413349
0.610499
0.896301
0.999999
0.999883
0.991376
0.935657
0.825869
0.735336
0.721535
0.796999
0.854764
0.917465
0.979976
0.994074
0.999154
0.999782
0.999682
0.998059
0.991402
0.967267
0.888534
0.736491
0.57779
0.525444
0.582047
0.737128
0.869578
0.966427
0.998655
0.999985
0.999976
0.99995
1
1
1
1
1
1
0.999992
0.999743
0.996408
0.976326
0.920089
0.841928
0.805528
0.828052
0.885236
0.957644
0.992446
0.999657
0.999989
0.999997
0.999949
0.999472
0.996352
0.989102
0.976841
0.960594
0.943717
0.944855
0.974283
0.997233
1
1
0.999999
0.999993
0.998964
0.960217
0.702672
0.37291
0.239063
0.257607
0.377385
0.57967
0.81598
0.936952
0.988151
0.997343
0.995041
0.971635
0.89541
0.755075
0.573082
0.439768
0.326032
0.224636
0.201329
0.327602
0.615457
0.910029
0.994862
0.999906
0.999997
1
0.986129
0.895704
0.757331
0.672861
0.669586
0.662157
0.768242
0.814137
0.891601
0.951741
0.983033
0.98613
0.965316
0.901339
0.817496
0.709198
0.610904
0.52657
0.489644
0.529272
0.646327
0.828212
0.962556
0.998034
0.99997
0.999997
0.999997
1
1
0.997564
0.6108
0.409966
0.305919
0.272792
0.298986
0.352739
0.487316
0.636874
0.790103
0.829041
0.823465
0.642257
0.543193
0.387269
0.35969
0.342638
0.360334
0.404501
0.560044
0.798122
0.961537
0.997899
0.999984
1
1
1
1
1
1
1
1
0.997713
0.874516
0.52287
0.281277
0.200041
0.17761
0.167597
0.264737
0.429699
0.582181
0.749795
0.810947
0.646333
0.372441
0.242239
0.143916
0.0799474
0.0805212
0.158912
0.354069
0.623131
0.877239
0.985877
0.999471
0.999962
0.999956
0.999971
1
0.999995
0.968057
0.471841
0.137194
0.0551521
0.0291041
0.0262235
0.0245583
0.0466518
0.0645967
0.107692
0.159804
0.117804
0.0589746
0.0563006
0.0197171
0.0348498
0.0373148
0.0878728
0.187155
0.434114
0.795712
0.970176
0.999229
0.99982
0.995788
0.967409
0.966159
0.99691
0.999997
0.99999
0.977737
0.848825
0.775312
0.811371
0.83992
0.90361
0.960973
0.987647
0.997355
0.998959
0.997357
0.977759
0.880064
0.65244
0.44845
0.408689
0.420152
0.433985
0.526604
0.656054
0.788322
0.910396
0.987966
0.9945
0.969318
0.886791
0.790467
0.747952
0.996859
1
0.999938
0.985066
0.941625
0.91302
0.822604
0.7348
0.708651
0.764214
0.871885
0.945221
0.983181
0.996529
0.999237
0.998284
0.992323
0.963816
0.925711
0.86013
0.859481
0.876946
0.95016
0.994133
0.999976
1
1
1
1
1
1
1
1
1
1
1
1
1
1
1
1
1
1
1
1
1
0.999996
1
1
1
1
1
1
1
1
1
0.999997
0.998825
0.986521
0.989088
0.996333
0.999374
0.999967
1
1
1
1
1
1
0.999948
0.998329
0.9915
0.986763
0.991719
1
1
0.999968
0.999999
1
1
1
1
0.999995
0.999505
0.993459
0.972488
0.943741
0.920276
0.917956
0.928959
0.955739
0.98322
0.996102
0.999588
0.999956
0.99995
0.99951
0.997202
0.989293
0.97347
0.94581
0.88673
0.83709
0.873875
0.999991
0.999999
0.967495
0.98984
0.99892
0.999956
0.999993
0.999964
0.998833
0.984512
0.926137
0.826403
0.735122
0.64022
0.495123
0.385845
0.359064
0.480344
0.725833
0.954643
0.998739
0.998803
0.971447
0.834077
0.641656
0.424022
0.356331
0.389821
0.59924
0.877734
1
0.99985
0.987422
0.925846
0.808628
0.705227
0.707056
0.780037
0.837016
0.922499
0.979285
0.996166
0.999884
0.999998
0.999997
0.999899
0.99806
0.981923
0.912713
0.765018
0.579824
0.486326
0.551497
0.700286
0.842421
0.94396
0.995293
0.999874
0.999925
0.999847
0.999999
1
1
1
1
1
0.999991
0.999738
0.996355
0.975763
0.912845
0.815005
0.763964
0.784935
0.859186
0.944143
0.992558
0.999841
1
1
1
0.999978
0.999369
0.996226
0.98785
0.971724
0.950849
0.940416
0.965134
0.994121
1
0.999999
0.999994
0.999983
0.99832
0.953398
0.675898
0.334064
0.196893
0.194344
0.301881
0.528782
0.78582
0.940547
0.996173
0.999963
0.999997
0.999064
0.973558
0.867032
0.680249
0.518081
0.352195
0.234714
0.213464
0.327283
0.632953
0.927967
0.996141
0.999888
0.999999
0.999974
0.970392
0.85376
0.694559
0.609394
0.591014
0.629429
0.732612
0.799562
0.921912
0.976949
0.998716
0.999982
0.999812
0.986509
0.911124
0.813525
0.668814
0.55453
0.518994
0.520009
0.612773
0.814887
0.964715
0.998995
0.999992
0.999997
0.999968
0.999936
0.999994
0.99191
0.577991
0.36276
0.257564
0.227257
0.251465
0.329032
0.510544
0.712737
0.912651
0.994222
0.997639
0.9294
0.775561
0.527126
0.453279
0.366503
0.354082
0.39665
0.510639
0.760462
0.953506
0.997533
0.999984
1
1
0.999999
1
1
1
1
0.999986
0.989604
0.783539
0.405202
0.221995
0.138086
0.106288
0.132945
0.16361
0.265802
0.54185
0.908159
0.989385
0.911697
0.541615
0.223484
0.133419
0.0762215
0.075472
0.129627
0.288297
0.574819
0.853973
0.982278
0.999638
0.999968
0.99973
0.999183
0.999994
0.999946
0.881805
0.336366
0.0979902
0.0420081
0.0250992
0.0266725
0.0363133
0.0876956
0.185025
0.437648
0.596084
0.557196
0.190337
0.105056
0.0348783
0.0386267
0.03124
0.069967
0.156547
0.359259
0.736923
0.94924
0.998494
0.999729
0.995092
0.960966
0.945887
0.986795
0.999896
0.999979
0.949435
0.818555
0.764669
0.814367
0.880266
0.928231
0.977342
0.997555
0.99988
0.999992
0.999887
0.991653
0.91095
0.686378
0.455025
0.407775
0.40817
0.445226
0.555567
0.653442
0.771922
0.867062
0.924435
0.914017
0.858123
0.803614
0.759889
0.799944
0.998128
1
0.999933
0.979508
0.958139
0.908725
0.803025
0.733679
0.758067
0.818595
0.917729
0.979011
0.998298
0.999977
1
0.999941
0.997028
0.963561
0.914451
0.836298
0.82499
0.850335
0.934409
0.991367
0.999946
1
1
1
1
1
1
1
1
1
1
1
1
1
1
1
1
1
1
1
1
1
1
0.999917
0.999991
1
1
1
1
1
1
1
1
1
0.999999
0.998994
0.987499
0.991384
0.996969
0.999561
0.999983
1
1
1
1
1
1
0.999943
0.998262
0.99147
0.986412
0.990357
0.999558
1
0.999999
0.999945
0.999936
0.999997
1
1
1
1
0.999998
0.999686
0.995066
0.977002
0.94937
0.923756
0.914251
0.926632
0.951068
0.983054
0.99742
0.999936
1
1
0.99997
0.998894
0.992643
0.975046
0.939141
0.865724
0.805371
0.84499
0.988953
0.999999
0.999994
0.994668
0.964001
0.98367
0.99687
0.999841
0.999991
0.999987
0.999583
0.990979
0.939699
0.848985
0.769971
0.69783
0.559675
0.432382
0.401509
0.457407
0.630209
0.865216
0.977502
0.987589
0.956336
0.828952
0.583339
0.435933
0.357559
0.417104
0.632242
0.884953
0.996409
0.999992
0.99997
0.999017
0.982782
0.92052
0.807433
0.706341
0.692685
0.744299
0.808913
0.880902
0.948592
0.981438
0.996386
0.999647
0.999878
0.99949
0.996625
0.977883
0.892115
0.755738
0.56849
0.509848
0.542751
0.676808
0.820835
0.935963
0.991573
0.999034
0.999209
0.998831
0.999212
0.999999
0.999999
0.99993
0.999983
0.999999
1
1
0.999993
0.999845
0.998036
0.98547
0.932601
0.832344
0.753256
0.770679
0.836275
0.925596
0.98308
0.998985
0.99999
1
1
0.999989
0.999697
0.997813
0.991602
0.976396
0.952799
0.938736
0.960506
0.991717
0.999896
0.999999
0.999913
0.997821
0.999926
0.999915
0.998049
0.959382
0.729904
0.350614
0.179377
0.144801
0.226717
0.409194
0.62636
0.851965
0.972891
0.997349
0.999705
0.996939
0.970565
0.861145
0.69696
0.522549
0.348362
0.24038
0.228578
0.37278
0.71337
0.962177
0.998758
0.998733
0.997642
0.999973
0.999868
0.993995
0.956399
0.823566
0.648929
0.547907
0.527644
0.550488
0.662379
0.728199
0.863404
0.938002
0.991389
0.999461
0.999427
0.989556
0.929003
0.817328
0.688648
0.597963
0.51756
0.515291
0.64636
0.839152
0.970646
0.999234
0.999861
0.995751
0.972088
0.940679
0.941506
0.998896
0.996561
0.78027
0.504508
0.30839
0.210564
0.179542
0.196014
0.247275
0.400738
0.558512
0.82494
0.966637
0.996598
0.952552
0.826986
0.588915
0.502782
0.371131
0.38043
0.383222
0.515063
0.758028
0.954056
0.998168
0.999995
1
1
0.99999
0.999839
0.999153
0.998877
0.99996
0.999743
0.989127
0.991949
0.939877
0.659351
0.33301
0.164057
0.0883309
0.0811333
0.0712264
0.0731905
0.155511
0.264654
0.44987
0.699054
0.681952
0.423878
0.148627
0.0920269
0.0774283
0.0603835
0.121527
0.285136
0.535381
0.83506
0.984344
0.99974
0.999701
0.99007
0.94783
0.967507
0.999741
0.998942
0.893031
0.583424
0.203384
0.0662287
0.0304547
0.0195037
0.0227416
0.0310685
0.0793294
0.184133
0.446512
0.77564
0.782981
0.355854
0.153916
0.0442243
0.0407285
0.0369425
0.0587469
0.167466
0.331985
0.683079
0.934832
0.997268
0.999688
0.996857
0.969269
0.938322
0.977856
0.997567
0.999994
0.999993
0.990318
0.92278
0.793435
0.781083
0.818342
0.89224
0.949484
0.982315
0.998446
0.999968
0.999999
0.999977
0.994943
0.929948
0.731818
0.477757
0.440093
0.471251
0.509241
0.608817
0.682452
0.732741
0.766076
0.751059
0.719363
0.709118
0.715169
0.772965
0.873702
0.979662
1
1
0.999994
0.99987
0.984912
0.965145
0.912684
0.809868
0.750176
0.787414
0.866557
0.940261
0.991073
0.999738
1
1
0.999851
0.994263
0.947247
0.885774
0.797732
0.800774
0.82376
0.930271
0.990808
0.999933
1
1
1
1
1
1
1
1
1
1
1
1
1
1
1
1
1
1
1
1
1
1
1
1
0.999864
0.999996
1
1
1
1
1
1
1
1
1
1
0.999472
0.991375
0.993311
0.997405
0.999544
0.999971
1
1
1
1
1
0.999998
0.99985
0.997765
0.992164
0.988546
0.99237
0.999177
0.999999
1
0.999922
0.999907
0.999993
1
1
1
1
0.999999
0.999859
0.997467
0.985746
0.963004
0.936949
0.921147
0.923897
0.942929
0.971976
0.992903
0.999393
0.999977
0.99999
0.999866
0.998102
0.990544
0.970464
0.928597
0.84721
0.7966
0.850704
0.97799
0.999978
0.999963
0.993822
0.976884
0.979824
0.991048
0.998876
0.999919
0.999976
0.999712
0.994616
0.960647
0.893598
0.831634
0.779865
0.666712
0.497002
0.434151
0.501981
0.62921
0.748709
0.842837
0.890793
0.823371
0.669798
0.53559
0.450357
0.430044
0.511963
0.706661
0.915826
0.991281
0.999981
0.99998
0.999294
0.984776
0.934504
0.842204
0.734829
0.6755
0.719732
0.766549
0.807838
0.865208
0.924035
0.939617
0.977448
0.985436
0.981859
0.970578
0.927008
0.813277
0.690807
0.559067
0.521077
0.583646
0.722078
0.858539
0.961047
0.994963
0.999097
0.99922
0.999211
0.999314
0.999675
0.999674
0.999661
0.999887
0.999974
0.999996
0.999999
0.999994
0.999951
0.999541
0.995783
0.971686
0.879273
0.785252
0.767498
0.816786
0.891569
0.964081
0.992624
0.99909
0.999878
0.999955
0.999858
0.999383
0.997157
0.990934
0.976252
0.952987
0.9423
0.964023
0.993131
0.999732
0.999968
0.998319
0.997713
0.999939
0.999962
0.999119
0.981265
0.834569
0.464471
0.19246
0.132558
0.162844
0.27093
0.433713
0.61901
0.79311
0.901358
0.938645
0.930763
0.866063
0.74901
0.602522
0.435925
0.299403
0.236221
0.274926
0.447646
0.788103
0.9821
0.999415
0.998407
0.995384
0.997464
0.998108
0.996702
0.967425
0.839488
0.644787
0.516623
0.477392
0.475203
0.557682
0.603551
0.702925
0.783769
0.888795
0.933799
0.940728
0.901736
0.842626
0.764047
0.654251
0.55724
0.522312
0.563059
0.666894
0.845257
0.971638
0.997868
0.999428
0.997522
0.988089
0.976936
0.972091
0.971954
0.942187
0.746357
0.488523
0.29055
0.181117
0.14857
0.144709
0.169579
0.225747
0.337829
0.466884
0.616461
0.775067
0.702301
0.672128
0.510394
0.485121
0.370817
0.396446
0.409525
0.548338
0.781377
0.96296
0.998932
0.999999
1
1
0.999918
0.998312
0.990579
0.975111
0.96629
0.96787
0.986645
0.992308
0.939236
0.671559
0.312236
0.125683
0.0842691
0.0463915
0.0348554
0.0304268
0.0467739
0.0483343
0.10187
0.145068
0.138076
0.123226
0.0628129
0.0425942
0.0485525
0.0679589
0.110695
0.269639
0.530486
0.807832
0.982298
0.999811
0.999881
0.997666
0.983295
0.950948
0.940093
0.939713
0.879594
0.501885
0.164284
0.0542816
0.0254931
0.0140445
0.0150997
0.0164793
0.0406489
0.0727037
0.171295
0.262047
0.354259
0.189935
0.102205
0.0517104
0.0500496
0.0405457
0.0789653
0.163938
0.336544
0.672594
0.922994
0.996165
0.999806
0.998994
0.983958
0.956059
0.98109
0.997246
0.999708
0.999511
0.97768
0.921468
0.810437
0.792632
0.849683
0.893227
0.951653
0.984291
0.996663
0.999733
0.999931
0.999385
0.989703
0.92644
0.746407
0.537937
0.534248
0.578626
0.613483
0.692307
0.710793
0.66038
0.626589
0.573543
0.554318
0.624325
0.709471
0.852578
0.960578
0.997192
0.999829
0.999949
0.999966
0.99968
0.98839
0.969094
0.91946
0.835914
0.786418
0.806622
0.892004
0.952672
0.988755
0.999197
0.999925
0.999797
0.995647
0.974738
0.906755
0.839114
0.762836
0.779281
0.82705
0.934045
0.994166
0.999955
1
1
1
1
1
1
1
1
1
1
1
1
1
1
1
1
1
1
1
1
1
1
1
1
0.999976
0.999999
1
1
1
1
1
1
1
1
1
1
0.999837
0.995064
0.995262
0.997599
0.999234
0.99989
0.99999
0.999999
1
1
0.999998
0.999962
0.999513
0.997241
0.993366
0.992334
0.996422
0.99979
1
1
0.999982
0.999944
0.999991
1
1
1
1
1
0.99996
0.999172
0.994197
0.979909
0.95688
0.933435
0.923487
0.928
0.948316
0.9729
0.989109
0.996156
0.99775
0.996178
0.992019
0.981538
0.958122
0.909865
0.845868
0.81752