/*--------------------------------*- C++ -*----------------------------------*\
| =========                 |                                                 |
| \\      /  F ield         | OpenFOAM: The Open Source CFD Toolbox           |
|  \\    /   O peration     | Version:  2.1.1                                 |
|   \\  /    A nd           | Web:      www.OpenFOAM.org                      |
|    \\/     M anipulation  |                                                 |
\*---------------------------------------------------------------------------*/
FoamFile
{
    version     2.0;
    format      ascii;
    class       volScalarField;
    location    "0.006500000";
    object      k;
}
// * * * * * * * * * * * * * * * * * * * * * * * * * * * * * * * * * * * * * //

dimensions      [0 2 -2 0 0 0 0];

internalField   nonuniform List<scalar> 
12384
(
54.8129
126.744
174.276
219.127
264.931
305.061
330.073
333.304
314.253
284.214
237.817
177.289
101.951
36.5201
187.629
299.772
375.676
419.394
441.129
451.182
461.275
481.516
524.275
592.828
686.614
805.659
962.132
1147.67
1377.54
1639.85
1926.85
2184.68
2397.68
2489.65
2408.18
2228
2040.77
1841.66
1630.45
1376.17
1035.05
583.675
176.542
80.4148
391.536
525.587
646.887
722.603
770.196
787.732
801.124
817.834
858.182
947.37
1127.68
1410.02
1732.5
2122.08
2529.92
2946.03
3282.11
3520.24
3576.33
3435.65
3255.91
3116.48
2979.16
2807.78
2557.52
2189.32
1663.73
953.252
313.351
213.376
497.628
679.151
785.559
854.324
941.712
1074.6
1258.84
1477.72
1719.38
2007.68
2455.65
3016.68
3754.94
4658.1
5710.22
6821.6
7853.88
8565.46
8783.55
8079.64
7128.11
6373.73
5722.46
4955.8
3913.66
2519.27
1119.36
486.046
416.828
527.868
643.087
1403.15
2486.81
3769.79
5072.09
6399.67
7716.82
8968.11
10068
10832.3
11230.3
11040.1
10194.8
8800.88
7674.96
6721.73
5872.13
5022.35
4078.38
3036.48
1985.11
1192.18
804.2
585.794
469.351
451.163
499.002
524.562
484.836
382.426
229.684
357.004
464.743
528.774
561.125
566.542
588.728
672.712
850.31
1168.25
1594.03
2163.71
2800.92
3493.34
4075.21
4496.01
4548.31
4247.07
3750.04
3373.78
3160.88
2990.23
2831.77
2620.46
2312.89
1893.93
1394.15
890.964
535
479.346
154.715
198.486
244.054
295.233
426.434
681.98
1083.78
1622.79
2292.13
3005.98
3735.01
4291.38
4683.53
4669.62
4451.34
4025.55
3802.8
3624.86
3448.5
3230.02
2937.35
2550.64
2038.36
1358.98
717.184
521.638
457.913
394.247
368.54
405.122
197.456
207.475
421.217
916.362
1642.32
2518.16
3475.85
4432.89
5266.39
5927.47
6257.81
6229.39
5983.71
5761
5512.07
5213.54
4849.75
4358.01
3744.81
3031.14
2246
1461.67
893.275
585.057
474.206
443.423
442.098
442.966
440.327
422.84
335.98
728.005
1468.54
2406.58
3458.89
4530.16
5484.33
6326.49
6708.82
6899.56
6498.75
6195.95
5966.24
5627.68
5217.37
4692.89
4068.71
3326.25
2469.13
1545.56
940.926
610.452
466.922
413.064
403.108
395.647
361.398
310.585
259.524
230.501
348.562
511.724
694.389
935.067
1496.27
2397.57
3491.25
4705.6
5955.95
7114.85
8020.8
8552.15
8514.17
8039.82
7479.74
6956.41
6412.22
5796.78
5054.16
4106.32
2909.5
1689.6
864.249
606.384
564.743
556.313
549.507
538.829
531.31
545.159
362.47
568.397
792.526
1193.05
2017.15
3195.79
4579.06
6012.91
7110.65
8048.91
8145.98
7883.01
7666.63
7468.35
7099.93
6569.53
5874.39
5062.25
4061.27
2921.79
1887.93
1085.53
740.222
683.772
725.578
749.054
742.317
712.611
672.251
616.399
193.33
213.341
333.245
466.034
601.163
738.717
883.169
1026.8
1177.32
1388.23
1803.29
2372.66
2723.13
2709.7
2439.03
2050.01
1656.73
1339.85
1160.74
1149.67
1230.85
1369.3
1510.73
1610.09
1651.41
1611.45
1492.67
1299
977.114
487.74
37.356
62.5337
52.4664
40.2788
39.7243
110.322
457.097
1096.13
1728.03
2170.47
2516.59
2786.51
3023.21
3311.37
3702.83
3874.64
3600.76
3119.84
2485.4
1848.25
1250.22
783.601
494.303
350.88
259.55
173.796
95.3438
39.3894
10.7046
1.51321
122.337
122.999
175.275
254.271
352.868
457.624
555.621
628.578
655.929
628.213
540.874
415.343
270.338
157.376
204.223
323.515
400.275
436.387
445.907
446.394
453.88
473.493
497.499
525.458
565.711
642.45
821.212
1152.73
1709.04
2513.04
3566.33
4782
6033.53
7133.56
7940.03
8294.53
8155.21
7573.41
6654.63
5426.13
3942.7
2343.98
965.068
336.495
474.162
652.22
903.172
1089.8
1169.45
1133.36
1019.52
919.405
918.147
1055.89
1378.81
1922.93
2716.89
3846.06
5329.31
7117.3
9056.68
10919.1
12468.2
13490.3
13828
13512.1
12615.2
11240.5
9501.29
7483.09
5285.89
3146.74
1445.56
676.195
604.244
1022.64
1405.77
1735.6
1963.09
2071.01
2073.78
2031.51
2017.29
2114.72
2481.08
3227.52
4532.45
6516.73
9334.78
13047.9
17520.9
22354.6
26931.8
30595
32622.8
32270.7
29994.5
26090.1
20781.2
14370.2
7842.39
2887
630.46
701.885
532.585
1109.26
2388.05
4358.69
6860.05
9852.23
13401.6
17577
22245.7
27150.7
31823.6
35826.7
38475.4
39534.7
38482.4
35652
31433.9
26222.9
20285.1
13900.8
7918.38
3383.65
1094.09
728.665
784.246
813.602
772.853
712.528
617.054
547.623
324.801
259.623
299.465
310.865
314.004
361.313
532.244
892.861
1485.66
2445.29
3867.51
5920.92
8672.72
12114.8
16058.9
20175.3
23969
26840.7
28274.3
27921.8
26103.1
22968.7
19027.9
14592.9
10151.8
6202.41
3240.11
1423.47
568.192
704.276
193.314
110.028
150.799
323.476
733.193
1451.91
2607.8
4275.57
6509.76
9270.71
12442.1
15764.6
18868.4
21442.9
23047.2
23397.3
22678.1
20916.1
18414.8
15400.7
12147.8
8862.21
5740.47
3176.82
1442.26
568.65
277.368
249.112
340.746
548.2
336.168
370.053
1106.99
2584.65
4760.94
7621.55
11156.8
15228.4
19577.2
23735.8
27178.8
29324.6
29966
29077.8
26891.2
23669
19767.6
15512.2
11203.2
7269.57
4219.3
2172.5
1095.73
753.104
726.197
704.149
616.753
552.721
515.387
515.389
585.309
1439.46
3251.69
5735.71
8887.34
12660.6
16936
21410.2
25555.8
28792.3
30642
30722.4
29267.9
26418
22581.4
18039.3
13231.6
8662.5
4977.29
2512.73
1127.41
770.522
808.009
872.894
814.98
684.71
527.797
374.399
271.066
346.805
359.342
235.091
311.311
820.504
2064.54
4007.96
6566.65
9734.08
13465.3
17582.7
21650.3
25125.9
27478.1
28194.7
27306
25017.7
21653
17619.1
13199
8993.96
5534.75
3083.53
1726.02
1104.46
910.002
843.451
724.135
610.242
534.509
603.518
370.674
241.572
566.745
1872.52
4455.18
8114.93
12699.5
17918.9
23354.2
28397.5
32363
34421.1
34334.4
32375.6
28675.3
23709
17710.6
11606.2
6634.09
3507.1
2027.11
1624.87
1562.76
1531.66
1366.76
1171.42
986.873
793.479
580.075
688.15
328.916
157.589
351.532
1006.33
2425.68
4630.55
7274.95
9796.07
11731.6
12794.8
12811.8
11786.7
10081.8
8047.57
6056.22
4345.19
3007.33
2053.28
1475.33
1318.5
1458.51
1785.39
2192.92
2571.44
2780.92
2764.72
2513.13
2053.69
1451.75
1011.13
114.045
187.276
170.07
164.211
212.955
456.378
1430.29
3282.65
5740.01
8413.54
10786.6
12450.3
13282.4
13243.7
12354.9
10787.6
8830.79
6828.09
4991.29
3451.99
2222.11
1280.44
641.245
304.155
190.556
156.164
111.503
58.7909
20.5101
2.45591
189.868
191.62
272.689
372.796
470.104
551.117
616.283
659.463
680.823
670.354
615.269
517.244
388.128
243.121
234.622
376.488
400.12
413.549
443.276
494.305
561.772
626.026
670.806
704.677
758.026
883.442
1164.83
1655.94
2334.43
3110.1
3949.46
4829.13
5698.98
6476.24
7070.31
7379.74
7343.32
7038.85
6545.23
5841.92
4825.02
3407.1
1791.72
683.825
537.041
763.003
883.685
920.145
887.021
835.01
826.617
941.89
1214.08
1673.89
2290.11
3038.42
3897.77
4886
6031.32
7329.27
8723.54
10078.5
11237
12046.7
12362.7
12166.8
11587.9
10726.6
9662.88
8352.49
6673.5
4631.37
2573.42
1271.16
684.636
1291.33
1530.41
1754.89
1949.57
2126.21
2308.16
2529.43
2821.26
3222.67
3882.15
4935.21
6455.46
8394.66
10703.3
13370.1
16368.3
19571.4
22659.5
25320.3
27119.6
27600.9
26869.8
25245.3
22584.2
18306.5
12376.3
6202.98
1891.44
847.303
859.477
1916.84
3986.88
6940.55
10056
12930.6
15562.6
18197.2
20972.3
23885.6
26761.4
29367.3
31468.3
32799
32810.8
31719.4
29801.5
27269.4
23951.4
19302.5
13373.6
7380
2977.97
1039.46
692.293
651.272
708.997
829.576
825.539
652.223
412.122
272.388
278.578
283.466
327.323
482.585
826.377
1370.48
2134.95
3259.02
4764.88
6708.09
9071.11
11827.3
14901.9
18094.9
21148
23701.9
25338.5
25692.8
24601.6
22483.6
19582.7
16226.1
12522.3
8694.19
5220.23
2606.92
1100.47
980.434
241.327
129.417
226.315
559.717
1206.2
2266.57
3772.48
5594.37
7668.85
9956.15
12401.3
14941.6
17338.8
19427.7
20935.3
21664.7
21383.1
20269.1
18513.8
16302.4
13809.3
11085.7
8155.06
5281
2883.12
1303.3
493.88
236.336
324.934
612.616
454.631
887.5
2338.95
4557.21
7200.75
10087
13157.8
16363.8
19626.5
22718.2
25391.8
27397.7
28339.1
27970.4
26560.2
24319.5
21536
18349.5
14732.4
10797.5
7053.93
4060.06
2068.05
1018.5
582.25
425.128
433.87
546.777
596.634
565.421
983.569
3337.01
6207.41
9230.5
12266.6
15297.3
18449.1
21643.2
24702.4
27275.6
29101.1
29683.3
29000.3
27285.4
24683.3
21337.1
17290.7
12787
8359.48
4772.37
2359.74
1061.66
690.469
593.801
584.012
625.801
624.656
497.362
342.133
404.305
425.434
234.454
504.274
1642.79
3935.85
7006.23
10194.4
13244.7
16135.9
18912
21521.5
23787.1
25494.3
26246.6
25958.5
24792.5
22993
20621.9
17445.6
13480.8
9287.35
5595.83
2978.18
1549.49
831.531
596.827
626.714
710.523
696.211
647.398
455.877
385.561
1362.03
4167.78
8436.08
13346.4
18459.4
23412.6
28131.6
32157.6
35318.9
36937.8
36820.2
35250.1
32653.2
29000.1
24081.6
17916.7
11569.1
6524.52
3421.98
1959.63
1431.9
1170.55
1113.11
1221.88
1328.03
1194.91
807.119
770.486
421.878
296.95
839.833
2191.64
4411.6
7154.36
9823.71
11910.8
13224.5
13788.5
13605.6
12681.2
11269.7
9637.75
7972.85
6358.44
4854.58
3560.09
2623.25
2187.99
2111.77
2165.59
2261.35
2370.3
2455.46
2466.7
2390.6
2175.62
1785.41
1305.51
191.051
229.54
151.151
224.298
597.977
1653.1
3781.97
6626.6
9587.67
12115.2
13820.7
14677.6
14868.9
14482.5
13466.9
11999.9
10322.2
8587.47
6869.6
5216.14
3649.43
2263.15
1154.33
452.691
130.024
46.0929
31.7911
21.0138
9.79742
1.23623
239.819
276.091
383.674
487.895
560.008
595.08
609.866
618.203
630.457
641.134
641.162
608.217
531.081
320.681
283.193
499.095
450.705
429.009
467.661
550.314
643.78
718.874
775.406
844.682
977.577
1257.57
1768.18
2523.74
3328.09
3962.96
4416.72
4792.51
5149.77
5502.69
5808.73
6012.81
6053.18
5996.44
5892.28
5712.03
5271.44
4269.68
2664.57
989.82
604.47
955.492
908.173
788.646
671.285
633.246
734.327
1043.64
1582.84
2350.74
3250.76
4205.85
5115.5
5916.25
6656.17
7388.67
8151.57
8903.18
9571.64
10057
10257.8
10154.9
9832.26
9389.19
8908.01
8320.64
7383.62
5830.04
3776.57
1785.52
796.365
1751.02
1724.57
1747.23
1834.94
2030.77
2364.02
2857.19
3502.97
4320.14
5426.73
6969.3
8895.9
10935.3
12703.3
14043.6
15093.9
16119.1
17284.8
18568.3
19829.4
20765
21298.5
21540.2
21315.4
19597.9
15392.4
9216.48
3566.75
1067.58
1739.91
2986.08
5747.43
9315.77
12436.8
14572.1
15832.4
16679.2
17528.2
18559.6
19803.3
21122.7
22337.4
23384
24093.2
24384.6
24434.8
24316.2
23783.8
21842.3
17558.1
11518.2
5804.17
2287.23
945.336
528.978
583.899
876.621
985.508
714.874
498.716
321.492
292.655
293.68
386.549
659.521
1151.11
1850.41
2814.92
4169.84
5810.34
7606.02
9418.52
11186
12970.2
14812.6
16725.8
18544.7
20023.5
20762.8
20592.9
19639.3
18002.8
15906.7
13308.8
10200.7
6861.52
3868.08
1795.96
1255.37
290.44
170.932
354.98
855.939
1808.03
3317.66
5162.7
6973.63
8598
10036.2
11380.7
12758.2
14122.8
15449.7
16590.6
17381.1
17605.1
17270.8
16460.6
15240.4
13745.2
11940.3
9727.91
7140.33
4512.49
2366.56
999.85
398.359
334.158
629.662
545.761
1664.28
3835.86
6593.51
9304.98
11692.9
13731.3
15567.5
17330.8
19053.4
20618.8
21969
22858.5
23043.9
22619.1
21684.9
20367.9
18712.4
16510
13530.3
9952.03
6435.43
3657.89
1832.92
841.525
426.995
411.366
590.959
639.789
589.179
1503.85
5789.18
9223.63
12057.1
14189.9
15783.7
17187.2
18612.1
20189.5
21740.1
23160.7
24156.1
24355.5
23956.7
22965.3
21343.2
18977.7
15677.4
11635.6
7577.83
4262.74
2037.64
942.758
540.911
443.443
601.816
743.454
623.498
397.132
435.379
493.301
294.679
866.396
2784.45
6255.22
10215.4
13433
15576.3
16823.6
17575.8
18220.7
18892.3
19658.4
20348.3
20778.4
20903.6
20824.9
20481.1
19396.8
16957.7
13126.2
8775.69
5032.31
2603.21
1280.08
673.869
595.388
810.711
834.293
669.126
584.741
724.018
2825.56
7351.48
12827.4
17950.1
22238.2
25559
28296.9
30459.3
32303.2
33489.1
33741.5
33205.7
32066.5
30305.5
27503
22981.7
16973.9
10836.3
6110.82
3142.56
1719.13
1138.31
1071.42
1421.18
1800.5
1668.47
1026.17
828.145
535.753
587.895
1607.91
3572.91
6231.91
8986.66
11174.8
12499
13083.7
13129.2
12722
12065.4
11370.4
10612.6
9672.34
8426.93
6882.21
5274.03
3983.37
3241.06
2851.21
2511.76
2206.19
1982.28
1892.45
1959.47
2140.26
2280.12
2203.3
1515.47
253.251
242.111
209.783
591.188
1593.41
3619.77
6665.27
9894.59
12553.3
14185.3
14765.6
14648.3
14168.8
13439
12479.5
11498.8
10535.3
9499.99
8270.54
6782.9
5055.19
3290.4
1740.51
694.469
173.977
32.4228
13.6104
10.319
6.65779
0.869335
272.001
359.988
481.991
576.29
612.738
593.378
547.236
510.181
510.779
555.88
631.617
697.481
703.364
393.568
344.878
685.664
536.35
456.877
483.646
569.958
662.075
734.382
808.171
942.486
1207.66
1706.57
2496.4
3514.23
4350.36
4699.31
4654.43
4451.47
4255.09
4158.9
4182.81
4312.81
4500.75
4762.46
5059.14
5395.51
5542.34
5036.46
3579.75
1218.49
673.523
1202.31
979.231
710.029
524.47
504.194
694.985
1172.64
1953.12
2983.95
4141.05
5304.41
6261.87
6863.71
7182.67
7319.73
7401.45
7514.18
7696.98
7900.4
8037.88
8067.03
8016.37
7945.19
7937.31
7959.1
7753.8
6857.15
5083.13
2209.69
913.135
2378.51
1999.73
1747.39
1672.72
1828.52
2253.58
2965.08
3946.94
5215.8
6846.96
8945.15
11363.8
13639.9
14949.1
14952.7
13951
12654.9
11745.5
11585.3
12340.7
13706.9
15434
17302.6
19048.1
19583.8
17320.7
11741.6
5295.24
1275.47
2907.5
4080.28
7287.76
11063.8
13837.1
15119
15129.2
14486.5
13759.3
13238.3
13070.6
13249.2
13728.4
14474.3
15531.3
16768.3
18236.5
19916.8
21577.3
22131.4
20030.6
14907.6
8731.34
4098.41
1717.31
664
496.667
871.524
1074.4
771.144
587.489
389.941
322.291
321.044
466.559
837.772
1438.85
2288.42
3497.5
5152.11
7001.8
8689.63
9948.71
10645.2
10956.4
11177.2
11621.2
12390.8
13450.3
14543.2
15281.6
15546.7
15242.8
14417.9
12987.8
10797
7954.34
4953.72
2539.62
1476.85
341.481
233.123
521.55
1214.39
2510.28
4505.65
6640.65
8346.63
9420.79
9914.89
10061
10128.9
10295
10677
11261.6
12016
12683.1
13140.4
13335.7
13160.7
12675.1
11818.9
10457.2
8435.57
5910.14
3433.08
1583.53
642.853
385.463
626.74
649.672
2575.95
5348.85
8429.38
10912.5
12531.2
13324.3
13625.2
13719.1
13901.7
14241.4
14806.1
15480.4
16154.6
16769.7
17201.2
17419.2
17369.1
16743.4
15124.9
12282.6
8720.13
5376.53
2882.09
1328.29
648.768
564.724
689.278
646.703
614.331
2147.2
8152.98
11629.8
13855.8
14817.1
14847.7
14494.7
14231.1
14270.5
14723.9
15521.9
16576.3
17634.2
18531.6
19114.3
19245.1
18710.8
17088.9
14174.7
10314.4
6426.03
3372.67
1530
707.855
491.329
684.052
885.015
730.125
437.625
459.856
565.622
407.246
1354.52
4158.44
8728.97
13166.4
15855.3
16659.3
16040.5
14806.6
13618.7
12846.3
12666.2
13109.4
14069.1
15338.2
16799.8
18275.8
19272.9
18795.9
16091.1
11733
7265.12
3905.7
1943.82
974.76
734.064
944.671
938.903
688.606
775.709
1297.06
4839.17
10782.8
16483
20586.6
22874.1
23785
23995.3
23986.1
24329.1
25143.9
26101.1
27072.9
27992.5
28486.4
28181.5
26101.6
21677
15510.5
9512.65
4992.83
2421.45
1341.34
1206.54
1761.52
2392.22
2209.85
1249.58
894.224
670.786
1014.94
2481.54
4853.49
7629.94
10043.2
11459.9
11824.3
11511.3
10938
10391.8
10211.8
10509.2
10926.4
10966.6
10273.8
8797.53
6921.35
5311.08
4276.29
3497.91
2684.78
1942.85
1407.13
1190.87
1387.43
1910.61
2434.47
2643.15
1632.51
299.724
270.046
446.396
1256.02
2962.7
5792.28
9268.56
12289.7
14104
14520.5
13894
12813.3
11674.7
10677.3
10010.5
9769.99
9801.27
9746.34
9261.56
8110.05
6340.79
4259.97
2325.1
951.808
249.105
39.0135
11.1311
8.0666
6.46202
0.845276
290.067
430.381
558.528
636.852
634.223
561.703
459.524
378.201
367.899
451.365
612.077
790.897
894.183
457.382
412.021
925.742
650.672
484.351
477.122
548.949
628.823
698.326
798.813
1011.27
1426.69
2146.69
3191
4389.41
5142.23
5137.53
4621.9
3935.12
3291.72
2811.48
2562.13
2624.4
2973.49
3544.58
4249.11
5078.56
5779.02
5760.1
4491.23
1335.88
737.664
1465.96
1085.75
676.389
429.626
420.085
671.549
1279.59
2243.87
3480.49
4858.47
6230.23
7250.13
7668.95
7585.14
7125
6516.31
5971.25
5652.65
5597.04
5742.95
5996.25
6287.82
6607.13
7023.47
7560.19
8014.36
7808.51
6465.16
2505.37
1018.74
3083.31
2345.61
1764.16
1486.92
1542.4
1981.67
2834.04
4091.4
5776.07
7901.33
10461.4
13292.3
15893.9
16946.4
15899.7
13182
9862.84
7137.48
5831.09
6188.2
7971.15
10551.4
13626.4
16894.5
19252.5
18665.2
13739.9
6790.96
1329.39
3934.86
4925.02
8437.75
12271.6
14698.9
15328.1
14415.1
12733.4
10883
9169.17
7845.74
7059.81
6925.6
7411.76
8635.7
10414.9
12749
15578.4
18702.6
21124.2
21025.5
17217.4
11194.8
5907.61
2768.04
1100.56
577.15
860.68
1095.97
820.549
684.047
473.302
365.177
359.452
546.071
977.11
1646.57
2630.54
4083.74
6062.59
8178.89
9862.65
10729.2
10549
9580.11
8294.92
7222
6760.41
7172.55
8390.73
9874.49
11203.8
12071.6
12378.9
12006.7
10725.5
8531.65
5794.9
3276.18
1619.46
400.085
333.355
719.804
1621.13
3287.24
5652.35
8089.11
9739.05
10376.2
10053
9143.23
8020.55
6983.48
6330.92
6193.1
6740.18
7748.86
8925.23
9975.61
10749.2
11143.8
11121.1
10528
9098.39
6844.14
4240.74
2071.18
877.32
460.888
619.779
855.115
3506.11
6752.24
10069.9
12271.7
13154.2
12808.7
11781.3
10459.8
9281.33
8431.03
8106.14
8393.05
9355.27
10732
12287.3
13840.9
15175.1
15974.5
15700.7
13792.7
10502.1
6834.94
3769.39
1764.58
887.916
730.22
760.667
625.672
646.792
2917.51
9839.15
13236.8
14922.4
14911.4
13649.1
11890.1
10283.5
9063.26
8450.77
8511.71
9388.01
10848.4
12611.4
14506
16159.2
17312.5
17352.9
15788.5
12531.6
8406.58
4682.92
2213.89
991.705
649.757
842.792
1002.06
789.9
457.385
488.192
657.984
576.347
1945.44
5595.33
11047.4
15673.7
17704.5
17229.3
15056.3
12276.6
9716.72
7804.74
6814.43
6864.18
8025.69
9992.17
12504.3
15312.3
17925
19237.2
17870.5
13947
9090.95
5091.85
2575.79
1300.65
950.961
1098.8
1019.89
740.914
1004.07
2108.78
7078.59
13782.9
18779.4
21119.1
21034.9
19612.4
17660.3
16037.5
15167.3
15296.1
16741.5
19116.8
21910.1
24781.7
27009.5
27515.4
25220.3
19759.6
12987.5
7057.49
3328.3
1643.39
1364.38
2116.43
3010.64
2824.56
1596.65
1026.59
815.726
1539.83
3323.69
5874.77
8514.82
10387.9
10926.7
10289.6
9027.3
7784.75
7117.47
7491.61
8859.88
10557.3
11657
11572.8
10232.8
8153.47
6298.39
5061.57
3970.73
2763.67
1681.13
925.837
660.43
1090.32
1958.89
2688.09
2979.58
1645.54
339.848
352.862
806.942
2068.24
4394.06
7714.25
11164.4
13551.2
14271.1
13441
11714.7
9784.17
8122.99
7064.07
6916.62
7551.89
8682.43
9722.06
10056.3
9275.85
7465.14
5089.17
2859.51
1209.63
331.409
54.5557
13.1827
8.88332
7.80154
1.00864
295.772
476.68
607.696
668.18
633.018
520.713
381.837
270.709
254.521
372.096
614.401
900.814
1073.73
498.919
479.912
1201.93
793.334
509.456
444.469
488.347
552.255
625.294
758.071
1045.4
1595.27
2495.77
3717.09
4995.77
5601.48
5292.79
4437.22
3432.66
2505.08
1760.41
1292.38
1268.49
1752.18
2591.27
3668.76
4936.34
6087.38
6435.51
5263.66
1281.3
789.272
1695.94
1229.5
694.647
378.914
360.706
642.269
1325.72
2407.09
3773.65
5317.43
6875.28
7978.21
8283.18
7872.61
6887.83
5637.78
4476.71
3671.31
3337.09
3491.9
4022.27
4720.3
5475.51
6308.88
7294.41
8304.71
8719.42
7806
2604.88
1071.27
3759.15
2777.87
1851.16
1335.86
1249.34
1629.31
2527.02
3957.28
5937.92
8407.55
11221.9
14281.9
17206.8
18288.7
16702.4
12949.4
8328.51
4362.63
2378.65
2616.57
4503.1
7411.69
11220.3
15450.4
19062.9
19520.6
15089.4
7917.97
1295.59
4501.13
5402.28
9229.41
13155
15437.2
15716.3
14248
11955.2
9427.38
6921.47
4710.79
3232.88
2741.73
3101.94
4315.03
6251.03
8891.04
12284
16191
19729.7
21054.3
18491.9
12922.8
7349.79
3755.51
1678.62
830.948
909.057
1102.66
867.098
792.804
571.346
422.346
403.155
604.551
1052.17
1749.98
2813.49
4454.22
6696.74
9100.87
10905.6
11613.9
10907.5
9106.75
6762.34
4506.44
2978.27
2741.74
3884.33
5709.37
7618.21
9253.92
10364.2
10795.3
10282.2
8754.12
6416.76
3948.32
1638.07
474.558
474.818
943.969
2038.42
4020.8
6708.74
9356.58
11109.2
11570.7
10730.7
9063.81
7050.81
5041.97
3460.43
2597.69
2789.22
3943.75
5568.64
7196.61
8640.32
9675.88
10259.1
10221.9
9261.04
7250.05
4587.86
2267.17
997.115
524.836
625.083
1359.53
4475.28
8097.1
11674.5
13724.5
14091.8
12914.2
10924.8
8618.98
6463.57
4667.3
3516.95
3190.51
4102.94
5885.05
8152.34
10645.1
13002.2
14900.9
15673.5
14596
11650.5
7783.67
4261.76
1945.12
970.019
759.994
754.451
622.735
752.771
3900.01
10715.7
14305.1
15817
15230.3
13077.3
10364.6
7835.08
5656.09
4199.18
3497.44
3969.93
5563.2
7831.99
10490.3
13171.4
15564.1
16953.3
16592.7
14019.9
9860.43
5654.51
2710.42
1230.57
803.552
947.385
1030.11
783.117
470.455
566.159
788.941
885.869
2773.55
7143.04
13160.3
17881.8
19461.4
18121.9
14938.7
11183
7718.2
4931.82
3195.1
2762.74
3873.97
6149.65
9238.52
12867.1
16497.9
18970
18704.9
15312.5
10303
5855.69
2959.12
1493.95
1105.3
1227.25
1139.82
889.616
1245.91
3188.8
9272.7
16174.7
20086
20654.9
18618.8
15580.6
12314.2
9663.65
7827.41
7353.47
8775.86
11894.7
16079.3
20741.3
25029.3
27828.7
27570
23109.6
15951.3
8931.86
4223.85
1955.84
1499.68
2410.34
3540.98
3461.02
2133.98
1365.3
960.092
2114.88
4035.45
6558.67
8903.2
10213.7
9988.71
8530.4
6526.02
4770.54
3944.18
4629.72
6861.16
9688.08
11679.5
12090.2
10883.9
8672.95
6702.85
5399.07
4187.92
2881.56
1755.35
1017.32
938.058
1560.78
2380.58
2938.61
3053.72
1588.36
377.362
471.803
1193.91
2834.97
5594.17
9101.42
12226.3
13821.6
13512.4
11668
9131.07
6611.97
4649.69
3677.07
4122.85
5670.82
7863.68
9901.57
10899.3
10347.8
8379.71
5769.98
3294.54
1435.31
409.886
76.9772
19.6861
13.5016
12.9657
2.16115
292.772
496.459
629.438
673.566
615.709
486.3
340.877
228.957
212.35
347.555
652.68
1016.31
1211.12
547.358
541.593
1484.63
969.509
537.71
385.076
396.93
452.219
534.845
695.872
1043.93
1685.41
2690.06
3990.22
5267.31
5725.49
5240.37
4233.01
3111.2
2060.27
1196.6
632.086
537.638
1064.31
2082.35
3461.91
5075.63
6502
6982.98
5780.15
1111.84
858.598
1858.49
1390.29
763.683
363.669
314.834
591.336
1285.28
2403.74
3818.11
5444.31
7146.59
8381.77
8699.1
8116.76
6771.69
5030.96
3383.71
2186.2
1582.7
1675.28
2410.59
3491.09
4659.63
5866.91
7233.1
8692.78
9568.6
8952.6
2454.53
1185.77
4246.85
3327.75
2134.39
1316.33
1027.62
1277.86
2125.58
3597.12
5683.95
8255.72
11072.5
14116
17229.5
18607
17117
13215.5
8286.53
4001.75
1690.82
1651.3
3268.54
6223.17
10330.8
15079.1
19168.6
19888.8
15549.2
8328.61
1179.57
4481.14
5667.58
9688.03
13690.5
16053.3
16291.7
14676.5
12226
9540.82
6810.13
4220.13
2314.66
1530.08
1612.01
2583.86
4377.1
6995.58
10535.5
14718.4
18697.2
20563.8
18744.7
13615.8
8071.41
4358.78
2146.14
1134.15
1060.51
1225.02
1040.25
924.607
672.292
479.262
439.154
633.719
1055.68
1732.81
2800.41
4512.27
6891.5
9508.9
11520.7
12299.6
11481.6
9396.05
6664.96
3930.44
1822.67
998.779
1798.31
3462.89
5431.13
7335.91
8818.28
9688.03
9688.29
8712.64
6799
4465.45
1530.72
608.04
671.985
1159.15
2358.1
4533.27
7434.91
10325
12308.4
12831.5
11882.5
9906.15
7457.26
4889.61
2711.43
1251.17
920.676
1988.48
3705.18
5573.89
7325.71
8699.7
9579.23
9805
9065.24
7128.82
4441.6
2170.84
998.524
625.94
741.004
2538.12
5562.29
9393.98
13207.2
15363
15550.2
13955.4
11400.8
8553.63
5845.07
3520.71
1884.87
980.038
1445.88
3201.72
5698.06
8635.43
11590.8
14136.1
15509.9
14946.2
12185.4
8124.92
4302.05
1848.45
840.322
754.987
1005.06
1101.12
1263.8
5423.53
11084.6
15137
16869.2
16147.2
13571.3
10352.2
7324.23
4577.52
2565.23
1239.67
1121.86
2553.71
4886.1
7815.47
11044
14130
16378.2
16802.4
14763.3
10620.8
6123.44
2901.55
1296.28
815.166
900.158
993.435
867.986
725.12
863.512
1069.58
1448.4
3791.1
8750.4
15162.4
19937.3
21429.8
19782.3
16237.2
12107.2
8170.72
4748.86
2318.15
1203.26
2094.91
4459.93
7779.82
11776.9
15838.5
18710.7
18966.9
15898.7
10895.7
6219.12
3079.62
1510.92
1198.68
1622.54
1850
1372.67
1971.94
4834.51
11542.2
18358.1
21306.6
20533.2
17301.1
13472.3
9577.21
6399.24
3960.7
2771.25
3675.23
6940.68
11856.6
17630.8
23252.7
27635.2
28882
25366.7
18092
10390.1
5014.86
2269.15
1614.91
2540.21
3794.77
3911.55
2682.37
1969.3
1084.18
2648.33
4526.57
6860.97
8842.85
9735.55
9065.69
7146.56
4782.69
2798.83
1849.56
2513.45
5184.87
8665.44
11132.9
11784.5
10633.4
8383.97
6444.75
5258.13
4218.57
3180.2
2379.43
2009.91
2165.91
2615.58
2971.59
3043.37
2780.54
1423.27
435.892
559.684
1507.25
3427.76
6407.1
9861.35
12519
13429.3
12409.8
9947.62
6994.28
4225.93
2204.83
1387.5
2470.84
4868.38
7893.44
10569.1
11863.2
11281.6
9090.62
6210.1
3549.62
1582.72
476.898
104.461
35.9904
32.0737
35.8851
13.5151
281.495
487.736
623.25
659.78
594.604
467.683
336.788
246.905
249.922
408.165
752.86
1139.42
1315.18
1126.06
989.181
965.255
1376.95
1651
1132.71
602.216
353.393
324.801
365.026
447.731
619.975
988.119
1655.87
2670.05
3957.66
5189.56
5594.37
5083.4
4126.63
3074.58
2058.43
1197.88
636.126
563.332
1115.9
2233.64
3786.25
5516.61
6909.74
7202.15
5808.33
2470.82
1114.58
1177.94
1720.67
1962.59
1545.42
906.049
425.353
304.793
533.326
1172.37
2234.79
3600.43
5208.78
6976.52
8382.91
8877.33
8350.81
6930.73
4994.72
3094.23
1644.62
835.13
817.311
1583.13
2880.31
4301.3
5756.04
7386.3
9120.27
10202.9
9689.99
5636.39
1734.67
1848.58
3091.37
4243.23
3641.33
2535.21
1535.2
1021.2
1087.35
1780.82
3140.59
5128.16
7536.83
10046.2
12771.3
15876.6
17784.8
16932.7
13677.6
9387.79
5515.7
3153.24
2724.37
4049.06
6849.32
10864.1
15395.9
19044.2
19276.9
14795.7
8096.61
3052.26
2286.89
3118.66
3071.99
5727.4
9624.19
13565.5
16170.2
16710.9
15405.9
13286.1
10934.7
8516.43
6139.01
4133.2
2906.47
2554.83
3210.38
4748.09
7146.61
10447.2
14337.3
17983.3
19664.3
18056.7
13302.8
8025.77
4456.55
2408.04
1550.31
1518.09
1749.32
1722.39
1282.89
1356.64
1667.33
1200.78
803.84
606.85
692.496
1016.99
1601.31
2575.56
4203.84
6554.76
9236.31
11432.3
12477.5
11914.1
10024.3
7504.37
4937.93
2833.14
1673.31
1896.22
3061.54
4677.12
6409.9
7859.83
8821.52
9075.54
8448.88
6853.71
4674.85
2501.07
1252.65
1417.39
1537.07
1198.14
1513.14
2574.65
4699.15
7633.53
10713.3
13055.3
13926.9
13231.8
11423.7
9052.1
6490.22
4141.28
2349.8
1595.61
2268.74
3689.22
5388.97
7039.54
8379.57
9238.25
9429.51
8640.72
6591.02
3897.08
1803.29
1081.18
1647.12
2528.16
2430.55
3302.35
3947.88
6505.39
10327.1
14338.5
16843.5
17218.3
15703.1
13091.7
10187.9
7314.58
4790.42
2865.56
1606.67
1705.92
3113.96
5444.45
8367.4
11396.9
14032
15447.7
14960.3
12212.4
8053.17
4184.79
1842.55
1334.06
2172.64
3319.45
4244.31
4442.14
2939.41
4123.34
6882.41
11669
16002.6
18114.1
17632
15104.6
11912.1
8793.08
5847.7
3535.02
1801.35
1173.61
2146.85
4155.12
6923.28
10171.7
13406.6
15941.9
16623.7
14799.1
10656.1
6078.18
2807.62
1171.73
669.179
843.358
1263.8
1735.55
2253.9
2589.12
2167.13
2640.27
4063.44
3578.28
5475.62
10291.7
16718.7
21766.7
23691.8
22339.3
19099.5
15211.4
11292.5
7719.99
4823.74
3104.35
3495.26
5626.15
8800.87
12601.5
16406.4
18956.8
19024.2
16011.5
11094
6385.39
3151.37
1602.52
1808.8
3491.43
5036.68
4125.49
2278.4
2911.02
4727.61
8039.1
14512.6
20606.6
22982.6
21528.3
17984.1
14007.9
9894.56
6482.23
3656.36
2024.01
2277.79
5122.61
10114.4
16236.7
22338.6
27429.3
29165.4
26347
19149.9
11312.9
5649.45
2585.21
1689.13
2426.14
3672.6
3979.7
2865.83
1745.39
1040.61
1018.79
2079.73
3080.66
4739.47
6752.3
8402.9
9051.67
8305.36
6367.18
4063.18
2206.2
1340.49
1974.62
4527.06
7820.65
10179
10785.3
9594.32
7397.1
5623.96
4706.73
4085.77
3601.96
3381.06
3439.68
3576.22
3576.35
3323.4
2849.2
2245.38
1512.02
649.268
634.63
688.079
815.744
1738.63
3748.41
6722.53
9974.16
12206.5
12716.1
11417.2
8755.73
5775.58
3132.8
1376.73
1089
2806.93
5664.14
8905.54
11662.4
12857.6
11973.2
9413.28
6284.63
3552.27
1608.2
513.018
128.201
72.6522
84.1651
91.9343
74.569
19.6799
2.50419
266.093
454.458
593.481
634.93
578.539
467.232
355.889
285.243
305.59
485.334
844.72
1218.46
1339.66
1061.63
499.747
597.351
1531.19
1592.29
1182.71
663.909
344.021
263.294
285.031
365.885
539.57
891.616
1507.67
2434.08
3629.8
4784.71
5228.63
4870.16
4156.06
3353.19
2530.41
1799.18
1322.62
1338.58
1926.55
3028.87
4501.16
6026.58
7057.6
6926.29
5223.89
2509.62
751.14
719.946
1575.69
1872.97
1601.89
1037.88
525.671
327.876
481.876
1013.13
1924.93
3132.9
4630.02
6374.14
7944.15
8761.58
8540.54
7410.78
5690.01
3889.86
2380.94
1457.49
1353.5
2010.36
3166.95
4539.83
6013.63
7689.07
9430.97
10506.8
9995.61
6508.41
1678.59
1492.49
2967.61
3700.66
3692.17
3056.93
2096.06
1343.87
1161.85
1642.4
2779.24
4462.74
6429.81
8362.8
10630.8
13530.6
15897.5
16079.9
14071.3
10954.2
7906.48
5855.72
5299.56
6349.08
8785.01
12222.5
15859.1
18253.2
17397.4
12725.5
6850.3
3802.86
1627.02
1732.48
2683.93
5205.88
8789.28
12569.5
15505.7
16685.5
16148.9
14771.7
13145.8
11425.7
9651.84
7969.92
6641.97
5936.33
6173.06
7287.37
9220.09
11904.8
14963.5
17597
18424.4
16447.4
11928.9
7175.89
3965.6
2237.25
1565.13
1552.08
1699
1756.78
1777.59
1889.34
1994.89
1718.59
1265.66
893.297
795.728
972.269
1412.46
2212.03
3604.67
5712.82
8262.2
10548.6
11935.7
11900
10594
8674.16
6669.64
4969.75
3861.44
3577.96
4082.11
5096.52
6300.75
7408.27
8183.28
8432.14
7919.37
6493.41
4497.35
2637.64
1172.28
1425.78
1794.61
1305.22
1430.99
2337.2
4303.41
7101.99
10240.1
12956.2
14440.7
14387.6
13209
11404.6
9343
7335.34
5716.99
4817.92
4876.82
5625.96
6698.11
7839.77
8768.23
9290.74
9169.63
8107.31
5996.32
3525.66
1897.4
1816.81
2685.63
3448.05
3273.73
3266.76
3917.44
6408.5
10240.8
14491.9
17652.4
18705.6
17809.3
15697.4
13228.8
10620.5
8264.98
6368.93
5109.7
5030.79
5930.38
7664.17
10021.9
12541
14647.8
15602.5
14775.7
11928.8
7913.29
4316.42
2211.9
1665.06
2096.36
2750.17
3156.07
3231.94
3250.03
4095.8
7368.05
11833.3
16467.6
19241.2
19448.4
17495.5
14743.2
11908.9
9127.23
6838.28
5040.95
4194.03
4593.08
5918.67
8081.65
10781
13570.3
15709.9
16120.6
14187.1
10131.6
5730.77
2610.92
1040.7
611.17
986.645
1767.78
2768.58
3801.66
4705.37
5287.37
5308.07
4290.21
3494.07
5631.86
10470
17100.9
22887.3
25842.7
25585.8
23343
20314.7
16898
13741.6
10940
9197.01
9059.11
10378
12728.2
15620.4
18385.8
19893.2
19126.5
15778.4
10937.7
6360.85
3148.17
1550.31
1623.72
2776.47
4103.04
4903.61
4754.32
4287.79
5071.46
9535.12
16483
22614.5
25166.3
23865.3
20705.5
17074.3
13188.1
9944.02
7018.5
5331.17
5473.31