/*--------------------------------*- C++ -*----------------------------------*\
| =========                 |                                                 |
| \\      /  F ield         | OpenFOAM: The Open Source CFD Toolbox           |
|  \\    /   O peration     | Version:  2.1.1                                 |
|   \\  /    A nd           | Web:      www.OpenFOAM.org                      |
|    \\/     M anipulation  |                                                 |
\*---------------------------------------------------------------------------*/
FoamFile
{
    version     2.0;
    format      ascii;
    class       volScalarField;
    location    "0.006500000";
    object      O2;
}
// * * * * * * * * * * * * * * * * * * * * * * * * * * * * * * * * * * * * * //

dimensions      [0 0 0 0 0 0 0];

internalField   nonuniform List<scalar> 
12384
(
0.0128067
0.0142606
0.0145132
0.0137417
0.0130613
0.0124167
0.0117188
0.0111549
0.0106778
0.0104913
0.0103343
0.0104958
0.010125
0.00744621
0.0326383
0.0272439
0.0272456
0.0282
0.0294403
0.0308455
0.0317732
0.0320634
0.0318631
0.0312236
0.0301421
0.0288007
0.0272492
0.0255768
0.0238626
0.0221756
0.0206762
0.0196188
0.0192322
0.0194417
0.0203436
0.0214206
0.022844
0.0242606
0.0260117
0.0281907
0.0302935
0.0317225
0.0390251
0.0434916
0.0147156
0.0109266
0.00745452
0.0054725
0.00414407
0.00379008
0.00349302
0.00330984
0.00312486
0.00278676
0.00243103
0.00204405
0.00168978
0.00149887
0.00130531
0.00118653
0.00112521
0.0010929
0.00113367
0.00120198
0.0013252
0.00141393
0.00163757
0.00181399
0.00215172
0.00250808
0.00296759
0.00494943
0.00774493
0.00658925
0.00219655
0.00205142
0.00212578
0.00217617
0.00220945
0.00221551
0.0021918
0.00214067
0.00212062
0.00208579
0.00195862
0.00193029
0.00192035
0.00191877
0.00192598
0.00193414
0.00204566
0.00207192
0.00211929
0.00221062
0.00226908
0.00239095
0.00245076
0.0024917
0.00251751
0.0027265
0.00262189
0.00209789
0.00178646
0.00169269
0.000310366
0.000450815
0.000554113
0.00062096
0.000667959
0.00069397
0.00030911
0.000432173
0.00052066
0.000856749
0.000669137
0.00104785
0.000787014
0.0009681
0.00106621
0.00103192
0.00115032
0.00116503
0.000927592
0.000685917
0.000457932
0.00192932
0.00174391
0.00127704
0.00113729
0.00107672
0.000971545
0.00096421
0.00117654
0.00142885
4.35324e-05
2.85493e-05
4.63552e-05
6.16362e-05
7.68697e-05
7.84895e-05
7.40401e-05
6.84686e-05
6.66479e-05
6.76325e-05
6.98457e-05
7.24406e-05
7.42939e-05
7.50679e-05
7.38723e-05
7.08527e-05
7.16295e-05
7.13914e-05
6.82091e-05
7.4161e-05
6.85769e-05
7.63501e-05
7.59254e-05
7.87326e-05
8.90538e-05
0.000102292
0.000119846
2.21463e-05
5.83045e-05
0.000134505
0.000613712
0.000964166
0.000870316
0.000384562
4.04097e-05
0.000238446
0.000224032
0.000202819
0.000172482
0.000162982
0.000166676
0.000183242
0.000189762
0.000184913
0.000191874
0.000193914
0.000200165
0.000214202
0.000228707
-0.000136342
2.69626e-05
0.000170944
0.00013001
0.00102565
0.0118786
0.0165167
0.0169467
0.0168616
0.016601
0.016771
0.000356356
0.00013666
7.17816e-05
5.99458e-05
5.5329e-05
5.15011e-05
4.85653e-05
4.72153e-05
4.13741e-05
4.47248e-05
4.48397e-05
4.58985e-05
4.55858e-05
4.55167e-05
4.64977e-05
3.91931e-05
4.29447e-05
4.69173e-05
5.05056e-05
5.15767e-05
5.81853e-05
7.25173e-05
0.000150246
0.000107745
7.53809e-05
3.3565e-05
1.70768e-05
5.09688e-05
2.20718e-05
3.87002e-05
0.000223914
0.000131535
0.000128149
0.000126797
0.000124733
0.000118693
0.000153248
0.000142078
0.000128711
0.000128279
0.000165364
0.000155087
0.000154841
0.000157865
0.000180126
0.000170939
0.0002075
0.000215094
8.54036e-05
5.43945e-06
3.75708e-06
1.06131e-05
1.34522e-05
1.42352e-05
1.5063e-05
1.46869e-05
1.3295e-05
9.432e-06
3.31759e-06
5.41098e-06
0.000213175
8.27825e-05
7.12758e-05
7.88484e-05
9.32489e-05
-2.33532e-06
3.70896e-05
0.000119737
0.000125063
0.000158724
0.000133748
0.000154292
0.000162487
0.000151403
0.000165561
0.000163818
0.000114907
0.000112033
8.62375e-05
2.1588e-05
4.87069e-05
2.01926e-05
1.84089e-05
2.15765e-05
2.27283e-05
2.53208e-05
2.53734e-05
2.3383e-05
2.05793e-05
1.69092e-05
1.63079e-05
1.05282e-05
1.24768e-05
1.40132e-05
6.34041e-06
6.83552e-06
1.58762e-05
1.5887e-05
1.77695e-05
1.55672e-05
2.08934e-05
2.34902e-05
1.96873e-05
2.65163e-05
2.13336e-05
2.32316e-05
2.11528e-05
2.32272e-05
1.36193e-05
1.40755e-05
8.64644e-06
6.87115e-06
4.19166e-06
4.89676e-06
6.90917e-06
7.74782e-06
8.72055e-06
8.50836e-06
7.36926e-06
7.27695e-06
2.71444e-05
-1.07202e-05
-2.83958e-06
2.54587e-05
2.61942e-05
3.52792e-05
2.77522e-05
2.38651e-05
2.23696e-05
1.25398e-05
1.19803e-05
8.96318e-06
9.21633e-06
8.8944e-06
8.08075e-06
1.58815e-05
1.49888e-05
1.40007e-05
2.03153e-05
2.02312e-05
2.41867e-05
2.3013e-05
2.38304e-05
2.79084e-05
2.75951e-05
2.80561e-05
2.72406e-05
2.69375e-05
2.5179e-05
1.87519e-05
6.96591e-06
6.48018e-06
8.1548e-06
2.45857e-05
0.000135484
0.0326237
0.0331337
5.27412e-06
2.49629e-07
2.61526e-07
5.15999e-07
5.54515e-07
5.80227e-07
5.95803e-07
6.10218e-07
6.71923e-07
6.7506e-07
5.84024e-07
7.40347e-07
1.02659e-06
1.30581e-06
1.21364e-06
1.62651e-06
1.60332e-06
4.88278e-07
2.65682e-07
1.42488e-07
1.34403e-07
1.38274e-07
1.44963e-07
0.0213159
0.0202667
0.0182737
0.0172152
0.0164059
0.0153007
0.0136436
0.0118691
0.0101744
0.00871497
0.00841123
0.00884736
0.00949623
0.00771885
0.0325666
0.0265643
0.0271776
0.0291925
0.0319518
0.0334553
0.0332886
0.0315704
0.0292622
0.026639
0.0241057
0.0214131
0.0182401
0.0149916
0.0115201
0.00886971
0.00769074
0.0071306
0.00698362
0.00703437
0.00733508
0.00794628
0.00914247
0.0123873
0.0166422
0.0219353
0.0267728
0.030264
0.0347675
0.0393407
0.0144569
0.00975728
0.00648406
0.00502451
0.00448869
0.00459718
0.00475191
0.00401408
0.00344563
0.00264482
0.00175132
0.000984081
0.000580192
0.000382112
0.00041231
0.000531101
0.000664164
0.000774859
0.000817235
0.000937964
0.0009537
0.0008842
0.00111244
0.00124591
0.00164686
0.00209713
0.00261378
0.00363662
0.00640294
0.00782636
0.00218485
0.00209635
0.00216911
0.00225977
0.00220775
0.00199486
0.00181301
0.00163671
0.00153298
0.00141052
0.00128804
0.00118203
0.00114927
0.00123342
0.00142073
0.00168292
0.00196955
0.00231781
0.00252774
0.00266466
0.00283538
0.00283822
0.00284581
0.00277865
0.00269532
0.0026772
0.00267564
0.00244877
0.00203563
0.0016164
0.000278759
0.000418735
0.00053762
0.000634241
0.000315865
0.000722517
0.001043
0.00141968
0.0016401
0.00172057
0.00188675
0.00200701
0.00210053
0.00214867
0.00226695
0.00221754
0.00205625
0.00188713
0.00157234
0.00106262
0.00054399
0.00107847
0.00163167
0.000927823
0.000545016
0.00023376
0.000427111
0.000399449
0.000381277
0.000419508
4.30796e-05
2.96922e-05
5.98787e-05
7.76901e-05
8.38717e-05
6.61227e-05
5.6791e-05
5.83285e-05
5.69199e-05
6.80175e-05
6.83536e-05
7.8048e-05
8.48904e-05
8.88158e-05
9.08619e-05
9.14972e-05
9.12433e-05
8.79702e-05
8.84749e-05
8.78209e-05
7.96755e-05
8.854e-05
8.18835e-05
8.99627e-05
8.8639e-05
9.61132e-05
0.000115064
0.000130337
0.000136457
0.000115934
0.000590646
0.000667885
0.000215864
0.000205689
0.000170867
8.2085e-05
6.30708e-05
3.01584e-05
4.76296e-05
0.000113886
0.000134284
0.000148408
0.000150069
0.000159116
0.000149493
0.000152156
0.000152088
0.000181674
0.000197316
0.000219306
0.000237599
0.000116504
0.000165979
0.000421572
0.00224214
0.0147894
0.018196
0.014875
0.0122152
0.0142622
-5.02979e-06
4.80796e-05
3.34333e-05
3.5729e-05
3.60515e-05
3.62662e-05
4.34107e-05
4.10233e-05
3.3786e-05
3.32525e-05
3.78657e-05
3.81883e-05
3.57844e-05
3.68216e-05
3.84508e-05
4.01906e-05
4.31347e-05
3.77913e-05
4.29501e-05
4.7294e-05
5.15422e-05
7.5749e-05
0.00013391
7.85094e-05
9.78101e-06
6.09841e-05
5.54786e-05
5.23413e-05
4.66127e-05
5.30377e-05
0.000136243
0.000141294
0.000153852
0.000173239
0.000227721
0.000243252
0.000251883
0.000279113
0.000278099
0.000275565
0.000276001
0.00027212
0.000251193
0.000246594
0.000251131
0.000223883
0.000232967
0.000221026
0.00016767
3.19641e-05
7.05077e-06
1.61489e-05
2.02841e-05
1.97958e-05
2.02004e-05
2.24575e-05
1.03631e-05
1.37846e-05
1.38299e-05
1.80004e-05
0.000263818
8.37527e-05
7.54009e-05
9.90421e-05
9.1991e-05
0.000225066
0.000266016
0.000313082
0.000328189
0.000335961
-0.000167673
-1.62487e-05
2.71203e-05
4.68406e-05
-0.000108292
0.000301616
0.000273617
0.000209862
0.000138253
7.90881e-05
7.20684e-05
2.93676e-05
2.15299e-05
1.71584e-05
2.16603e-05
3.35769e-05
2.51622e-05
2.49458e-05
2.20029e-05
1.71466e-05
1.63029e-05
1.01221e-05
1.29711e-05
5.90899e-06
9.58705e-06
2.18693e-05
2.54147e-05
2.865e-05
3.35863e-05
3.75269e-05
3.70834e-05
4.3216e-05
4.06253e-05
4.06746e-05
3.78093e-05
3.52382e-05
3.34256e-05
3.32525e-05
2.60453e-05
3.65779e-07
8.35035e-06
5.14941e-06
2.90567e-06
4.92474e-06
8.30474e-06
1.12914e-05
1.34041e-05
1.29768e-05
9.99806e-06
6.26792e-06
6.578e-06
2.05331e-05
1.93788e-05
2.42775e-05
3.16498e-05
2.77551e-05
1.56304e-05
4.68008e-06
5.74567e-06
1.74095e-05
1.74717e-05
1.76705e-05
1.8244e-05
1.71626e-05
1.59649e-05
1.47595e-05
1.47103e-05
1.35362e-05
5.68807e-06
4.97193e-06
1.29293e-05
1.33779e-05
1.92028e-05
1.66489e-05
2.1651e-05
2.19718e-05
2.21583e-05
2.33767e-05
2.39359e-05
1.9104e-05
2.34943e-06
1.77767e-06
1.30182e-06
2.01385e-06
0.000123211
0.0185928
9.86462e-06
4.1504e-07
3.00089e-07
3.50082e-07
4.35503e-07
4.78445e-07
3.36718e-07
3.60608e-07
3.53509e-07
4.22759e-07
3.95241e-07
4.45292e-07
4.31827e-07
5.30122e-07
7.60357e-07
1.28644e-06
2.83422e-06
3.90713e-06
1.82212e-06
3.87039e-07
1.23072e-07
1.33786e-07
1.42133e-07
1.22743e-06
0.0219423
0.0204752
0.0224225
0.0232445
0.0222059
0.0204372
0.0185224
0.0169325
0.0145522
0.0113238
0.0086424
0.00806759
0.00877505
0.00785098
0.0324389
0.0259572
0.0271531
0.0306573
0.0337126
0.0338813
0.0319651
0.0297133
0.0280749
0.0266363
0.0252623
0.0229463
0.0194673
0.0144067
0.00948337
0.00729441
0.00696683
0.0073462
0.0079246
0.00822913
0.0081141
0.00781113
0.00770187
0.00831371
0.0100962
0.0151978
0.0219287
0.0278388
0.0322229
0.0367541
0.0141389
0.0091685
0.00635091
0.0059289
0.00681878
0.00736735
0.00712513
0.00412316
0.00310093
0.00219468
0.00112525
0.000485285
0.000468284
0.000905523
0.00157665
0.00222252
0.00267202
0.002982
0.00307113
0.00298899
0.00279188
0.00247113
0.00209502
0.00181419
0.00179788
0.00202541
0.00239559
0.00301654
0.004567
0.00770039
0.00214879
0.00215028
0.00225269
0.00223709
0.00192019
0.00148766
0.00121867
0.00108034
0.000985817
0.000842978
0.000694859
0.000578133
0.000563893
0.000794208
0.00130769
0.00193556
0.00252542
0.00304015
0.00335621
0.00358485
0.00366053
0.00371521
0.00360066
0.00338579
0.00311852
0.00290443
0.00279992
0.00266659
0.00225506
0.00184343
0.000293159
0.000432436
0.000578533
0.00069761
0.000694318
0.00108508
0.00154515
0.00173072
0.00186715
0.00203399
0.00217231
0.00231433
0.00246202
0.00270527
0.00277402
0.00293693
0.00288333
0.00269049
0.00227083
0.00170503
0.000968894
0.000641009
0.00104366
0.000961805
0.000516006
0.000552845
0.000439511
0.0003999
0.000304327
0.000259284
4.20436e-05
3.66994e-05
7.30313e-05
8.40928e-05
5.81235e-05
4.44689e-05
4.96384e-05
5.56556e-05
7.17374e-05
7.65809e-05
8.83863e-05
9.68252e-05
0.00010264
9.86649e-05
0.000101249
0.00010518
0.000103949
0.000102255
0.000105536
0.00010169
9.88974e-05
0.000100893
9.16213e-05
9.51989e-05
9.42078e-05
9.41653e-05
0.000105282
0.000112049
0.000132498
0.000114001
0.000467657
0.000223743
0.000192416
0.000153901
5.78637e-05
5.48412e-05
-8.60113e-06
8.04541e-05
0.000161703
0.000233559
0.000250417
0.000250837
0.000254029
0.000236154
0.000228049
0.000213086
0.000206994
0.000192537
0.000177649
0.00020697
0.000224824
-5.61353e-05
0.00033482
0.000277563
0.000873726
0.00527812
0.0159063
0.0122731
0.00654232
0.00966948
2.37406e-05
2.25057e-05
3.57873e-05
3.87191e-05
3.56419e-05
4.49122e-05
3.5316e-05
3.28563e-05
2.65257e-05
3.31822e-05
3.09207e-05
2.53847e-05
2.58883e-05
2.65686e-05
2.86786e-05
3.16827e-05
3.45626e-05
3.8587e-05
4.31366e-05
3.85254e-05
4.37924e-05
6.09881e-05
3.67013e-05
9.78485e-05
5.35672e-05
7.20116e-05
-2.40308e-06
5.48504e-05
4.33506e-05
4.26678e-05
0.000140432
0.000159028
0.00021866
0.000251498
0.000295067
0.000339943
0.000122776
0.000595779
0.000792194
0.000853891
0.000896812
0.000823332
0.000638392
0.000147798
0.000346548
0.000316735
0.000261514
0.000258755
0.000233755
4.20372e-06
1.56061e-05
1.6028e-05
2.05737e-05
1.81832e-05
1.77894e-05
2.02098e-05
4.05815e-06
3.01292e-05
2.47205e-05
2.65551e-05
0.000325263
8.98312e-05
9.54268e-05
9.56892e-05
0.000247144
0.000288907
0.000333867
0.000367653
0.000263582
0.000677633
0.000850607
0.00100482
0.00114194
0.00124691
0.00113604
0.000934323
0.000496009
-9.5505e-05
0.000259226
0.000176045
3.8482e-05
6.13458e-05
2.7033e-05
2.56612e-05
2.5717e-05
2.81971e-05
3.11484e-05
2.42852e-05
2.17161e-05
1.94056e-05
1.71401e-05
1.20838e-05
6.91877e-06
1.27199e-05
2.67821e-05
3.2975e-05
4.02481e-05
1.66356e-05
5.50218e-05
7.31991e-05
9.84815e-05
0.000122871
0.00011682
0.000102621
6.31616e-05
2.56384e-05
4.74505e-05
3.67841e-05
2.88164e-05
2.10232e-05
1.28676e-05
4.36449e-06
1.5889e-06
3.45244e-06
8.11245e-06
1.26273e-05
1.42699e-05
1.41275e-05
1.36442e-05
7.41936e-06
3.62768e-06
1.06982e-05
2.06165e-05
2.84644e-05
2.68533e-05
1.76044e-05
-4.29666e-06
2.04572e-05
-4.29307e-06
3.97381e-06
7.11122e-06
1.67946e-05
9.92552e-06
6.11239e-07
3.20043e-06
1.47503e-05
1.40635e-05
1.28316e-05
3.49945e-06
1.378e-05
1.62051e-05
2.1533e-05
2.02735e-05
1.81141e-05
1.73524e-05
1.7829e-05
1.61711e-05
1.7966e-05
2.14306e-05
1.8987e-05
5.80871e-06
2.94065e-06
2.37047e-06
6.22913e-06
0.000776274
9.31364e-06
4.83969e-07
3.09669e-07
2.9365e-07
2.97201e-07
3.99711e-07
5.04607e-07
3.64731e-07
4.54135e-07
4.61711e-07
4.26439e-07
3.31552e-07
3.47605e-07
4.31584e-07
2.37423e-07
3.89168e-07
4.66403e-07
1.03515e-06
3.97315e-06
3.15621e-06
6.66148e-07
1.1554e-07
1.44507e-07
9.9818e-08
2.54834e-06
0.0229802
0.0268504
0.0294143
0.0265506
0.0215699
0.0178039
0.0165814
0.0165932
0.016431
0.0147839
0.0107998
0.00801693
0.00834794
0.00778667
0.0321804
0.0254518
0.0271783
0.03181
0.0345416
0.0342437
0.0332338
0.0332365
0.0339375
0.0341818
0.0330087
0.0297162
0.0241185
0.0162564
0.0111327
0.0100158
0.0124154
0.0152591
0.0172185
0.0179272
0.0174272
0.0158252
0.0133902
0.0110896
0.0104799
0.0127047
0.0179052
0.0252188
0.0305004
0.0351064
0.0139871
0.00899525
0.0068245
0.00750813
0.0091053
0.00895538
0.00543347
0.00290148
0.00205093
0.00165832
0.000920229
0.000549878
0.00119591
0.00235781
0.00347348
0.00453657
0.00598579
0.00669073
0.00690622
0.00665563
0.0060113
0.00482997
0.00389825
0.00322491
0.00266429
0.00244574
0.0024588
0.00280489
0.00383511
0.00723311
0.00214634
0.0021935
0.00228493
0.00208295
0.00145793
0.000891627
0.000668541
0.000705784
0.000735721
0.000663442
0.000506873
0.00032859
0.000242483
0.000637904
0.00152268
0.00246672
0.00325412
0.00391473
0.00500574
0.00571474
0.00612663
0.00605161
0.00558408
0.00455364
0.00363268
0.00325547
0.00294749
0.00274329
0.00244472
0.00200522
0.000423538
0.000549188
0.000660145
0.00045135
0.00104992
0.00132085
0.00148296
0.00155664
0.00162545
0.00199593
0.0021744
0.00245724
0.00285514
0.00306662
0.00321424
0.00333548
0.00342719
0.00327354
0.00290727
0.00227021
0.00146928
0.000636804
0.000690995
0.000884782
0.000594838
0.0010604
0.001408
0.000719555
0.000322359
0.000180916
4.1823e-05
4.35544e-05
7.74589e-05
6.75784e-05
3.94746e-05
3.96103e-05
4.56478e-05
6.38669e-05
7.70761e-05
8.69464e-05
8.75769e-05
9.57931e-05
0.000103818
0.00010073
0.000106642
0.000102463
0.000100331
0.000105702
9.6762e-05
0.000108102
0.000101828
0.000109956
0.000100229
0.000100827
9.16765e-05
9.84104e-05
9.86561e-05
0.000112397
0.000119937
0.000111407
0.000163639
0.000160989
0.000187234
4.24607e-05
3.49679e-05
6.10017e-05
0.000113206
0.000244897
1.12066e-05
7.98025e-05
-9.14213e-05
0.000278075
0.000252008
0.000226539
0.000215166
0.000230679
0.000218195
0.000218566
0.000211358
0.000193711
0.000219797
0.000237303
0.000324433
0.000419247
0.000405586
0.00168476
0.00814976
0.00962073
0.00408367
0.00625417
2.18473e-05
3.76337e-05
3.93218e-05
3.61868e-05
4.26337e-05
3.68484e-05
2.72771e-05
2.67293e-05
1.45327e-05
2.1354e-05
1.51747e-05
1.43356e-05
1.49174e-05
1.64049e-05
1.80093e-05
2.25107e-05
2.72833e-05
3.08867e-05
3.48914e-05
4.04551e-05
4.582e-05
5.19363e-05
6.92248e-05
9.72455e-05
9.30266e-05
9.32549e-05
3.09432e-05
5.697e-05
4.79818e-05
4.19115e-05
0.00020012
0.00020207
0.000235839
0.000303185
4.32139e-05
0.000757515
0.00137702
0.00192228
0.00223252
0.00242113
0.00244334
0.00238436
0.00208207
0.00164742
0.00106033
0.0003445
0.000352532
0.000289318
0.000285274
0.000179902
3.36633e-05
1.61912e-05
2.08057e-05
1.93221e-05
1.71883e-05
1.99815e-05
1.76581e-05
4.12985e-05
4.7071e-05
3.32467e-05
0.000340231
9.51167e-05
4.10755e-05
0.000171165
0.000275866
0.000324959
-1.7954e-05
0.0005191
0.00107363
0.00158475
0.00199448
0.00221446
0.00228889
0.00221518
0.0020957
0.00187514
0.00145974
0.00100316
8.98853e-05
0.000246827
0.000148912
4.54828e-05
5.27262e-05
3.36866e-05
2.53957e-05
2.51481e-05
3.07432e-05
2.42856e-05
1.65952e-05
1.46293e-05
1.83608e-05
6.45398e-06
1.31839e-05
2.3771e-05
3.95696e-05
3.39276e-05
8.53599e-05
0.000123784
0.000182015
-7.29657e-05
0.000248922
0.0004562
0.000267622
2.15735e-05
0.000200867
0.00014262
5.27226e-05
5.1788e-05
4.23541e-05
2.93158e-05
1.71248e-05
3.24775e-06
1.10603e-06
2.60656e-06
9.24461e-06
1.55249e-05
1.57106e-05
1.52474e-05
1.35791e-05
9.28695e-06
1.84691e-06
1.1811e-05
2.41011e-05
2.51207e-05
1.91264e-05
-2.35824e-06
2.03584e-05
8.78207e-06
9.75216e-06
1.72615e-05
1.813e-05
1.08116e-05
1.44561e-05
1.2549e-05
9.22737e-06
7.13876e-06
1.38042e-05
3.39141e-06
1.31333e-05
2.02817e-05
2.3949e-05
2.90845e-05
3.15607e-05
2.88778e-05
2.25358e-05
1.44794e-05
1.00254e-05
1.03341e-05
1.89406e-05
1.84419e-05
7.29265e-06
6.37872e-06
2.01148e-05
8.68901e-05
2.61437e-05
2.64693e-07
2.76418e-07
3.22385e-07
2.81103e-07
4.9109e-07
5.23881e-07
7.65609e-07
9.49068e-07
9.82732e-07
9.73559e-07
7.52965e-07
6.9199e-07
5.86063e-07
3.80894e-07
3.32116e-07
4.2078e-07
1.57333e-07
3.57053e-07
1.61055e-06
5.00069e-06
1.82277e-06
2.31134e-07
1.89237e-07
5.37286e-07
5.96162e-05
0.0283473
0.0337516
0.0304708
0.0210625
0.014224
0.012002
0.0122218
0.0135362
0.0155337
0.0157809
0.0125601
0.00853555
0.00809194
0.0076738
0.031944
0.024766
0.0271805
0.0327148
0.0356229
0.0361596
0.0370154
0.0384388
0.0393502
0.0389751
0.0358219
0.030968
0.0242836
0.0159502
0.0131877
0.0157234
0.0204974
0.0240432
0.0255263
0.0256546
0.0250599
0.0237851
0.0210525
0.0173148
0.0141715
0.0134695
0.0166504
0.0235845
0.0294735
0.0342091
0.0139177
0.00918496
0.00746174
0.00876968
0.0105614
0.00837054
0.00335839
0.00135341
0.00111234
0.00145559
0.00087286
0.000939994
0.00229129
0.00391419
0.00660559
0.00826193
0.00883815
0.00896781
0.00893677
0.00883791
0.00865913
0.0080626
0.00690168
0.00519286
0.00389924
0.00321
0.0028223
0.00278958
0.00351856
0.00681571
0.00212126
0.00221921
0.00228422
0.00190373
0.000990653
0.000322377
0.00026303
0.000555677
0.000842096
0.000889477
0.000691866
0.000332293
0.000517038
0.000620699
0.00182909
0.00297882
0.00369893
0.00531256
0.00635736
0.00703179
0.00733284
0.00743177
0.00701726
0.00611952
0.00474193
0.00358929
0.00316374
0.00280399
0.002529
0.00208685
0.000553734
0.000636601
0.000674057
0.00073028
0.00101876
0.00112085
0.00112095
0.00122328
0.00156667
0.00216924
0.00260268
0.00302008
0.00338295
0.00357604
0.00362562
0.00364217
0.00367817
0.00366119
0.00333501
0.0027453
0.00193474
0.00111464
0.000601572
0.000730665
0.000616573
0.00104941
0.00172753
0.00157784
0.000399913
0.000172512
4.04509e-05
4.96881e-05
7.42203e-05
5.75424e-05
4.0899e-05
4.18764e-05
5.58878e-05
6.08724e-05
7.13366e-05
8.00023e-05
8.89632e-05
9.1841e-05
0.000100858
9.93637e-05
0.000100188
0.000105239
9.75085e-05
0.000104503
9.20635e-05
8.92875e-05
0.000101549
0.000109621
0.000100671
0.000101434
0.000104329
9.0289e-05
9.62414e-05
0.000103773
0.000111106
0.000118155
-0.000159139
0.000176137
2.46488e-05
1.74766e-05
4.0215e-05
5.434e-05
0.000236183
0.000147335
0.000270016
1.3316e-05
0.000274647
0.000216243
0.000171446
0.000139176
0.000133955
0.000138694
0.000182724
0.000198149
0.00020651
0.000207106
0.000206349
0.000234145
0.000264173
0.000476424
0.000490962
0.000871522
0.00250433
0.00525225
0.0026161
0.00329519
4.40652e-05
4.08875e-05
3.61311e-05
3.23765e-05
3.67225e-05
3.07693e-05
2.37516e-05
1.40719e-05
1.26901e-05
2.2008e-05
2.05468e-05
2.03529e-05
1.95013e-05
2.02345e-05
2.15255e-05
1.04685e-05
1.7229e-05
2.41402e-05
2.93822e-05
3.43004e-05
4.06163e-05
4.65255e-05
5.74259e-05
4.72344e-05
0.00010089
7.57808e-05
6.53463e-05
5.82638e-05
5.72175e-05
4.637e-05
0.000174218
0.000194857
0.000266862
0.000364716
0.000847295
0.0016704
0.00240594
0.00290888
0.00337256
0.00417791
0.00481024
0.00455447
0.00379914
0.00297656
0.00229881
0.00143399
0.000506593
0.000345464
0.000307559
0.000280139
7.31841e-05
1.98671e-05
1.90473e-05
1.9358e-05
1.81759e-05
1.0442e-05
4.1652e-05
4.77395e-05
6.18238e-05
4.24431e-05
0.000326437
0.000106851
0.000126474
0.000245483
0.000304423
0.000335038
0.000425957
0.0011931
0.0019759
0.00256771
0.00291398
0.00321304
0.00349817
0.00351683
0.00296514
0.00269343
0.00228011
0.00175275
0.00101006
4.94525e-05
0.000222405
0.00011019
-9.32927e-06
4.53408e-05
3.37961e-05
3.14999e-05
3.81862e-05
2.38345e-05
1.02562e-05
8.81402e-06
1.45593e-05
1.25461e-05
2.4235e-05
4.27277e-05
2.52219e-05
0.000121266
0.000179955
0.000362792
0.00109685
0.00165934
0.00201108
0.0021401
0.00205255
0.00168008
0.00116657
0.0002417
0.000199264
5.73823e-05
5.0953e-05
4.19213e-05
1.03393e-05
8.90431e-06
2.22419e-06
4.7502e-06
1.1283e-05
1.60985e-05
1.57153e-05
1.45353e-05
1.46596e-05
1.11748e-05
1.00154e-05
6.45615e-06
2.08595e-05
2.56213e-05
1.02368e-05
1.96912e-05
2.35159e-05
1.63389e-05
1.87107e-05
2.877e-05
2.42778e-05
1.34883e-05
1.39266e-05
1.00692e-05
1.55101e-05
8.64648e-06
-4.71261e-06
1.82812e-06
1.72259e-05
2.63664e-05
3.53254e-05
4.40898e-05
8.46698e-05
5.77657e-05
-1.39729e-05
2.12584e-05
1.13637e-05
9.7924e-06
1.75179e-05
1.77401e-05
7.50642e-06
1.07691e-05
9.31909e-05
2.82321e-05
1.54892e-06
2.78715e-07
2.95528e-07
2.38505e-07
5.33043e-07
6.86134e-07
1.03316e-06
1.35421e-06
1.00959e-06
1.64044e-06
1.32634e-06
1.41761e-06
9.93125e-07
6.59784e-07
5.04044e-07
3.92227e-07
4.74416e-07
4.48724e-07
3.65187e-07
4.81445e-07
4.2174e-06
2.00804e-06
1.70034e-06
4.71458e-07
3.59055e-06
0.00456804
0.0343149
0.0355609
0.024934
0.0135698
0.0102038
0.0100482
0.0109433
0.0129492
0.0154958
0.0164736
0.0142175
0.00942013
0.00794405
0.0075142
0.0316018
0.0243022
0.0265693
0.0330044
0.0369077
0.0385787
0.0400069
0.0408874
0.0405477
0.0367873
0.0308733
0.0261104
0.0213027
0.0152384
0.0161952
0.0219548
0.0265524
0.0280326
0.0277227
0.0267042
0.0260685
0.0253971
0.0245498
0.0222548
0.018292
0.0160002
0.0171284
0.023046
0.0289624
0.0337242
0.0141615
0.0096206
0.00804091
0.0094783
0.0108927
0.00703987
0.00204917
0.000337154
0.000545916
0.00125159
0.000925883
0.00141492
0.00336196
0.00666649
0.00890318
0.0093921
0.00924486
0.00905076
0.00890142
0.0088997
0.00899358
0.00899166
0.00862144
0.00756112
0.0059497
0.00411716
0.00332638
0.00288748
0.00338367
0.006539
0.00213011
0.00220968
0.00227443
0.00174852
0.000626302
0.000472948
0.000484217
0.000749299
0.00128111
0.00133859
0.00110822
0.000527488
0.000497132
0.000570522
0.00210438
0.00320835
0.00442418
0.00592912
0.00702194
0.00772011
0.00799695
0.00804999
0.00784472
0.00704665
0.00576063
0.00396293
0.00330373
0.00284
0.00253184
0.00219826
0.000601657
0.000651988
0.000199777
0.000599026
0.000805249
0.000757731
0.000751084
0.00110449
0.00185193
0.00272412
0.00331934
0.00369146
0.00381215
0.00387014
0.00387628
0.00386954
0.00382202
0.00372341
0.0035788
0.0030971
0.00229986
0.00140816
0.000643782
0.000597404
0.00058159
0.000876492
0.00156526
0.00183263
0.000602787
0.000221727
4.26696e-05
5.29525e-05
6.96855e-05
4.80373e-05
3.73818e-05
3.99497e-05
5.1624e-05
6.23042e-05
7.07414e-05
7.02949e-05
8.0799e-05
9.27236e-05
9.61735e-05
9.94471e-05
9.95091e-05
9.22024e-05
9.14833e-05
7.98028e-05
9.12058e-05
8.44615e-05
9.72169e-05
0.000105851
0.000111101
0.000113685
9.87604e-05
9.37554e-05
9.42101e-05
9.80228e-05
0.000112331
0.000112702
0.000230005
0.000137529
3.13704e-05
1.69044e-05
4.65387e-05
0.00010128
0.000266072
0.000473872
0.000371609
0.000285101
0.000225139
0.00015971
0.000103046
7.84156e-05
5.88348e-05
6.85617e-05
9.71304e-05
0.000122725
0.000171957
0.000202564
0.000211675
0.000238623
0.000220947
0.000545664
0.000535088
0.000536267
0.00145702
0.00221788
0.00207785
0.00204982
4.40669e-05
3.77903e-05
3.39761e-05
2.75936e-05
3.22953e-05
2.92864e-05
1.35862e-05
2.28985e-05
2.02398e-05
1.86303e-05
1.52694e-05
1.37209e-05
1.55759e-05
1.48016e-05
1.73276e-05
2.01302e-05
7.91973e-06
1.65176e-05
2.3707e-05
2.93931e-05
3.6623e-05
4.34007e-05
5.05823e-05
6.44883e-05
5.4322e-05
7.16999e-05
5.91094e-05
6.09865e-05
6.17871e-05
4.78469e-05
0.000156472
0.000204264
0.000299688
0.000392581
0.00137696
0.00228708
0.00292918
0.0041593
0.00572669
0.00678916
0.00731421
0.00737516
0.00695127
0.00548385
0.00328606
0.00236734
0.00129985
0.000158737
0.000337593
0.000306121
4.25967e-05
1.75531e-05
1.95796e-05
1.922e-05
2.21731e-05
3.23264e-05
5.66276e-05
6.20547e-05
7.11576e-05
4.68901e-05
0.000249982
0.00010701
0.000140624
0.000239075
0.000299139
-1.31417e-05
0.000830468
0.00183697
0.00262
0.00320225
0.00425817
0.00471893
0.00489752
0.00474956
0.0045595
0.00401518
0.00300857
0.00234283
0.00162347
0.000672113
0.000267671
0.000181674
6.19509e-05
6.34212e-05
4.79256e-05
4.28934e-05
4.26094e-05
1.37749e-05
2.54575e-06
2.07797e-05
1.12908e-05
2.14287e-05
3.83589e-05
2.98267e-05
0.000128487
0.000198402
0.000621193
0.00172369
0.00289771
0.00559585
0.00743854
0.00808219
0.00709904
0.00558993
0.00256194
0.00165303
0.000395786
0.000174716
3.21595e-05
4.61365e-05
2.15819e-05
1.47562e-05
6.76824e-06
7.69456e-06
1.26275e-05
1.66502e-05
-3.67023e-06
1.39182e-05
1.38558e-05
1.26042e-05
1.02421e-05
8.85803e-06
2.1507e-05
1.9109e-05
-1.05481e-06
2.22966e-05
9.6036e-06
2.16755e-05
2.63797e-05
3.5123e-05
3.86767e-05
1.78193e-05
9.07764e-06
1.80885e-05
1.04111e-05
9.94765e-06
4.44767e-06
2.62548e-06
1.99542e-05
3.27532e-05
3.9241e-05
0.000136303
0.000164941
0.00014993
6.02734e-05
2.56677e-05
1.24955e-05
1.04164e-05
1.72428e-05
1.69496e-05
7.49995e-06
1.09825e-05
1.70054e-05
2.99791e-06
4.89169e-07
2.33052e-07
3.48472e-07
4.25911e-07
6.15178e-07
1.10238e-06
1.19369e-06
3.02307e-06
4.39208e-06
4.0988e-06
4.18116e-06
3.10197e-06
1.1118e-06
1.00101e-06
6.37508e-07
4.24586e-07
4.67413e-07
4.71787e-07
3.36813e-07
3.38272e-07
1.41953e-06
-1.55072e-06
6.42358e-06
4.75014e-06
5.30315e-05
0.0294113
0.0378186
0.0342235
0.0176499
0.0102075
0.00953999
0.00999651
0.0107355
0.0127968
0.0160781
0.017146
0.0146378
0.00962789
0.0078742
0.00739441
0.0316031
0.0232786
0.0256449
0.0327224
0.0376565
0.0397459
0.0407599
0.0403496
0.0356567
0.0277704
0.0219096
0.0200434
0.0178986
0.0154321
0.019967
0.0266798
0.0291749
0.0282086
0.0264298
0.0250941
0.0243206
0.0239711
0.0242902
0.023782
0.0216165
0.018675
0.0187618
0.023493
0.0289786
0.0335232
0.0142041
0.0102151
0.00857097
0.00977809
0.0110183
0.00610035
0.00117482
0.000485884
0.000538183
0.00107306
0.000988833
0.00189513
0.00446051
0.00844744
0.00943917
0.00922292
0.00881999
0.00851238
0.00831056
0.00833163
0.00852887
0.00885882
0.00909645
0.00875094
0.00773517
0.00581869
0.00376035
0.00301758
0.00339848
0.00650038
0.00212609
0.00217148
0.0023151
0.00180986
0.000620256
0.000429715
0.000435159
0.000704136
0.00152799
0.00185416
0.00157368
0.000858007
0.000493572
0.000560042
0.0021012
0.00326275
0.0046016
0.00616956
0.00739436
0.00810479
0.00839604
0.00840753
0.00819475
0.00767302
0.00626351
0.0043459
0.00333673
0.00286347
0.00259016
0.00208911
0.000623361
0.000644865
0.0002114
0.000351389
0.000508286
0.000558181
0.000553803
0.00113928
0.00221209
0.00317901
0.00374736
0.00383909
0.00389472
0.00387069
0.00382614
0.00388082
0.00388108
0.00383282
0.0036881
0.00328271
0.00256688
0.0016552
0.00069426
0.000423117
0.000546369
0.000808882
0.00136748
0.00188655
0.00127189
0.000315902
4.05116e-05
5.40719e-05
6.80787e-05
4.38328e-05
3.52759e-05
3.48409e-05
4.6692e-05
5.49394e-05
6.1875e-05
6.91815e-05
7.07002e-05
8.52465e-05
9.38042e-05
9.57919e-05
9.76211e-05
9.28932e-05
0.000101223
9.16644e-05
8.39944e-05
7.81461e-05
8.40426e-05
9.68638e-05
9.75071e-05
0.000104081
0.000101395
9.36474e-05
9.28611e-05
9.25279e-05
0.000106688
0.000105221
0.000211015
2.26847e-05
7.76725e-06
1.57548e-05
4.52626e-05
0.000109547
-8.6363e-05
0.00049618
0.000211953
0.000272699
0.00020856
0.000134993
7.58451e-05
3.89255e-06
8.83744e-05
8.43522e-05
5.113e-05
8.9937e-05
0.000162787
0.000172128
0.000210743
0.000242572
8.94392e-05
0.000612715
0.000604649
0.00040701
0.000880069
0.00139593
0.00150346
0.00117799
4.16916e-05
3.4928e-05
3.13948e-05
3.785e-05
3.13179e-05
2.49392e-05
5.43154e-06
2.24619e-05
1.83977e-05
1.50288e-05
1.2455e-05
1.13477e-05
1.2421e-05
1.2863e-05
1.50204e-05
1.7073e-05
2.02924e-05
1.25986e-05
1.97668e-05
2.65316e-05
3.50179e-05
4.14236e-05
4.71629e-05
5.90345e-05
6.51067e-05
5.86706e-05
5.64452e-05
7.23281e-05
7.30139e-05
5.87573e-05
0.00014908
0.000214206
0.000312199
0.000618386
0.00169652
0.00248616
0.00310517
0.00531189
0.00694449
0.0081859
0.00883682
0.00918646
0.00872281
0.00757696
0.00557557
0.00301504
0.00196272
0.000682979
0.000366043
0.000324648
0.000144661
3.76966e-05
2.26392e-05
2.10398e-05
2.83416e-05
5.62867e-05
6.87306e-05
6.89167e-05
7.14947e-05
5.32567e-05
0.000184337
1.83991e-05
0.000182856
0.000257614
0.000311668
7.60705e-05
0.00120456
0.00217897
0.00290907
0.00421474
0.00495363
0.00507487
0.00506343
0.00506736
0.00498496
0.00468881
0.00402782
0.00277599
0.002051
0.00114601
-2.66825e-05
0.000214793
9.89552e-05
-5.15469e-06
5.44031e-05
4.97936e-05
2.1794e-05
1.882e-05
1.77338e-05
1.90316e-05
5.55462e-06
3.37954e-05
1.37976e-05
8.26956e-05
0.000178585
0.000458097
0.00168349
0.0044507
0.00812496
0.0121078
0.014514
0.0151735
0.0141533
0.0113847
0.00697513
0.00305031
0.00135465
0.000251911
8.82993e-05
5.01379e-05
3.47965e-05
2.87636e-06
1.14597e-05
1.07359e-05
1.3442e-05