/*--------------------------------*- C++ -*----------------------------------*\
| =========                 |                                                 |
| \\      /  F ield         | OpenFOAM: The Open Source CFD Toolbox           |
|  \\    /   O peration     | Version:  2.1.1                                 |
|   \\  /    A nd           | Web:      www.OpenFOAM.org                      |
|    \\/     M anipulation  |                                                 |
\*---------------------------------------------------------------------------*/
FoamFile
{
    version     2.0;
    format      ascii;
    class       volScalarField;
    location    "0.006500000";
    object      omegaC_burn;
}
// * * * * * * * * * * * * * * * * * * * * * * * * * * * * * * * * * * * * * //

dimensions      [1 -3 -1 0 0 0 0];

internalField   nonuniform List<scalar> 
12384
(
165558
218855
243649
265179
283268
299563
307854
310542
303856
294364
276600
250345
207871
149555
272700
319298
340850
349991
353136
353934
356049
361366
373395
391639
415637
443384
476767
512521
552390
593484
633547
666488
689982
700045
687322
667831
640962
618141
585282
546406
485918
394706
262282
198976
367769
406975
444845
471503
488973
498186
503947
511032
522213
544452
582706
635006
686757
740580
790105
835260
868413
889212
893677
880999
863684
849253
839188
821967
793286
748987
673400
533257
350189
306734
438481
491772
513825
526857
543832
569592
605186
641536
681522
723133
781762
846281
919680
996233
1.07187e+06
1.13887e+06
1.18927e+06
1.21502e+06
1.21768e+06
1.18866e+06
1.13267e+06
1.0993e+06
1.06275e+06
1.01459e+06
928862
788365
589212
446179
422918
459770
492928
644221
791287
921252
1.02718e+06
1.11814e+06
1.19133e+06
1.24505e+06
1.29002e+06
1.3144e+06
1.2926e+06
1.30097e+06
1.24491e+06
1.19682e+06
1.13917e+06
1.09421e+06
1.04536e+06
989400
916567
819058
715211
602320
522393
464937
428460
421271
436850
443525
430995
393832
334915
393694
433258
455188
463555
468855
476081
503013
547815
615508
688675
768644
842727
911407
961113
991630
993394
969163
925457
897653
876148
870607
858477
838216
806197
745274
661804
559347
465701
448003
316943
352399
382040
406453
464033
549804
650014
751949
849911
932683
999866
1.03706e+06
1.06233e+06
1.05202e+06
1.04258e+06
1.00896e+06
992812
982237
970404
953061
925507
881242
810758
696112
541993
473554
451466
429139
419653
435414
335542
338457
429816
562769
691080
802483
899429
979779
1.03598e+06
1.08165e+06
1.09457e+06
1.09178e+06
1.0798e+06
1.06469e+06
1.04835e+06
1.02905e+06
1.00237e+06
962102
909148
840516
755182
649902
544459
466093
432485
419992
419852
418516
417779
410749
390589
511067
658522
790066
902471
993513
1.05883e+06
1.10509e+06
1.12027e+06
1.12896e+06
1.10224e+06
1.10117e+06
1.08143e+06
1.07946e+06
1.04607e+06
1.01309e+06
961207
895386
804092
672169
560823
481908
438017
419345
415592
412567
399480
377644
352251
335291
420992
478323
529329
588201
700976
837480
963436
1.07439e+06
1.17019e+06
1.23845e+06
1.26708e+06
1.29807e+06
1.28435e+06
1.25123e+06
1.23403e+06
1.20531e+06
1.1762e+06
1.13574e+06
1.07603e+06
995441
887931
728398
566138
496144
482333
479459
477402
473901
471690
476293
431426
501673
561840
648776
784924
926006
1.04458e+06
1.1206e+06
1.16482e+06
1.15679e+06
1.18756e+06
1.13703e+06
1.21152e+06
1.19037e+06
1.22611e+06
1.19108e+06
1.164e+06
1.10325e+06
1.03165e+06
917329
783404
634322
549712
531766
543785
550427
550436
543264
534040
520332
381414
396338
466110
521985
561817
608289
640418
666017
692948
730139
798968
880776
925632
925268
893093
841420
782418
728022
694681
697625
720438
751214
778946
792834
801033
788406
769870
729741
657775
508245
196543
235962
222269
204475
202810
271099
455994
652814
596002
673466
723442
756290
781464
809711
844162
862544
844628
812884
757049
690983
611401
524589
446690
388343
334253
273113
208072
146752
94649.5
58675.6
214154
164327
183368
209582
235665
260497
279556
294053
298339
294670
279393
255204
221277
240394
281002
249774
260074
260979
259096
258432
260791
266877
274357
282977
294251
311898
345833
397248
466145
542843
618713
683623
731914
758863
774401
780669
780328
772469
740143
686667
603328
495102
364039
331867
394227
335764
381567
412380
423270
418098
400938
388359
390580
415194
460949
523175
594325
672224
745289
796919
815054
811585
794367
771667
772756
785549
794243
822914
837450
819253
758270
630486
463459
461564
470713
433129
476429
506957
525208
532702
533444
529472
530246
541026
575511
634690
712631
783688
804908
737740
595210
441913
322994
242862
243107
269203
355680
489893
684088
851737
864607
647934
377902
508339
463478
437330
571377
711530
831415
904749
898913
843548
720300
537602
412449
381603
284797
289699
347390
392917
518305
677522
823202
916313
848399
657713
440316
376677
384015
385618
377067
366859
353870
450003
379305
264922
276690
278258
278842
296016
340940
411224
492433
588243
690022
789445
861971
883791
853842
790793
724001
653716
643810
659951
722324
788490
886221
936817
952127
853275
683213
501409
356157
513715
344296
211907
231339
306059
412195
523293
629214
694748
669044
559352
417792
299977
202995
163807
127527
121195
117084
121635
145675
185304
234592
337272
516315
623320
521643
369371
280247
270913
315202
492524
399216
308825
443792
598913
733380
810768
787544
694350
531331
448974
337563
315326
284889
305280
349436
420683
525467
649389
755570
783073
695846
558591
440442
385354
379485
369565
351247
336010
332520
437265
472081
494522
651387
741955
709661
577455
414438
279154
192131
141709
130960
135591
183214
258063
382937
562250
735859
824447
760717
604969
449929
395016
400002
408025
395610
370297
336346
298373
272587
395361
425701
273443
292472
414914
586202
744776
837584
797317
602672
423800
289382
160176
117886
120470
131006
201325
297839
464740
691826
819064
788502
668945
544128
461150
427675
413522
390327
366670
356723
489860
437798
275663
366960
563682
685480
573476
357744
197534
84220.7
52341.3
27847.7
35118.7
30737.1
59816.6
126439
224088
485520
708082
828039
718669
596758
541679
530250
523187
504673
479251
452716
418611
375999
538251
455933
264654
353740
518110
680879
734321
736769
732004
720895
699635
692198
712492
741968
767932
771437
738939
674394
599529
538480
521325
541245
573915
595879
563439
557906
561481
576181
581510
553630
665425
273993
246488
230396
232068
277959
347760
541699
589764
648274
662055
637446
616590
607276
611974
625989
671433
676452
680028
640350
586600
518901
448345
371212
286265
228936
193830
158154
119915
81209.4
70468.4
249116
190595
212618
239210
261051
278690
290844
300267
304783
304356
293432
273707
246727
278433
295635
256055
253304
251304
256843
268939
284628
299172
309465
317570
328818
351529
394624
457848
528698
591258
642131
683450
714922
738071
758287
765079
767031
764007
748826
712160
651214
560998
444079
426525
412181
347854
371114
379259
372359
363563
363289
389028
431732
490969
554589
616899
672503
721654
761926
787982
804565
807134
796365
790788
790366
804496
809499
816908
825463
815939
786373
713091
569765
580941
492087
458821
480227
501050
519990
536664
554039
573145
597698
628144
672326
728221
783142
811003
785875
699964
576895
448679
347389
293636
240279
263120
310490
403492
518439
675034
823402
801582
552570
543433
548267
533073
688300
833447
905684
900658
851986
808004
690452
601841
542234
476240
389937
403431
409305
469656
496588
572080
675058
786442
868920
806732
618471
424238
364100
353398
364002
384576
389958
479279
412785
263598
264881
267525
284018
328545
396600
474449
554969
645855
734972
813194
866625
891807
887457
873569
838277
791201
788255
774238
848260
853147
928831
940224
951896
909478
795437
618621
448935
578270
374464
218747
266801
373575
481283
595168
689558
693106
603241
473867
354642
265424
229031
170608
154872
140609
155493
159671
160491
180110
205746
230461
317064
498645
583399
484379
344759
263947
304880
516980
429805
413302
578078
725609
801990
810854
724884
646391
535012
450553
385862
309927
298635
304512
334944
380188
437533
518490
617321
711760
748636
670991
541170
422067
345213
305687
307818
333004
345325
449639
568812
666320
742961
689397
574187
445950
319675
228875
168071
138025
106156
118572
130821
187190
258435
376299
528366
694562
795038
739851
579806
435670
372583
352082
349281
356813
353393
323239
289079
418939
451792
266613
344594
536222
739184
840307
763704
592166
427614
297094
179616
124773
115749
92221.7
80301.7
99791.1
161480
228576
374969
607016
763066
757534
647246
515017
410093
364198
370847
386478
386303
499335
473056
323619
502298
688536
566677
316397
165268
65166.5
37037.4
19779
13402
10601.3
15524.7
21590.4
50320.7
93700.8
208609
401156
691001
796278
700104
569255
506409
470407
469087
492596
513079
492672
423225
558804
494159
323958
475097
651854
720188
737814
766652
778166
770698
767386
764905
759662
754608
755963
754743
746577
728841
692880
642482
607700
598661
596797
587417
567979
575256
558337
560921
563613
559641
729639
347010
273382
227103
275023
399919
550033
605788
645228
636899
621004
616645
624987
628595
655273
668714
685717
688834
702412
675077
645095
579083
503322
424246
332846
204704
123532
96533.6
79186.6
60373.7
60203.3
269948
214313
238908
263239
278254
285797
288447
291399
295355
299743
300461
291511
274510
306054
315913
281150
262190
253981
262621
281013
298991
311781
320348
330999
351035
389496
450956
529070
594417
630074
642619
648239
655939
665844
682086
695510
711537
719028
723411
711096
678984
611100
509471
485659
430907
375478
372171
352489
329282
323460
349834
407596
479400
557269
629302
688688
729321
751829
762463
771587
780286
777965
778895
782886
780655
785791
805709
806983
811951
809303
796043
757670
656581
659500
519837
508313
498343
498484
507604
528036
557574
597474
641984
689011
740009
788310
814133
793810
725203
638391
554038
479440
426259
381743
360104
347556
370253
399334
465964
561081
726630
837472
681794
589404
695767
626433
784459
894464
904368
865329
837053
814656
737392
772353
715180
636070
664795
624905
619474
624083
649296
625646
629133
687680
783585
837373
750366
562976
408011
326948
335915
390149
412986
493709
442101
278511
269365
272213
302135
364727
443990
526651
613031
703475
778734
831373
865578
884836
900479
921483
916747
926690
935762
917534
947806
942683
982795
968370
962347
933462
858833
713364
536756
632840
400401
239885
318264
420607
541719
667253
682827
567451
450070
374201
333218
352344
304767
311976
282171
248403
215829
232091
240933
223717
225481
225705
241842
349410
525826
551589
442834
321529
304884
524711
454177
515203
686984
794726
811958
782364
698358
685753
585267
523913
454111
421605
404720
396226
396496
427268
459115
488522
539516
622183
705492
729612
648302
517643
392694
303871
300100
340496
350288
456054
669465
751203
689976
580596
468998
373945
295277
232784
188676
150925
146944
124278
157113
182810
226177
318935
414409
561594
715902
798278
711246
549974
415689
339342
316074
353897
375663
346118
296530
426491
475379
286482
422592
652829
832079
768388
584096
439497
346015
233666
199939
186396
121154
83602.8
81896.6
73071.3
95742.5
158260
214628
354351
588175
748750
738305
616229
479269
380959
365179
405499
407336
502089
513667
404311
639077
628475
347979
146184
70053.6
28059.2
17566
7149.27
6667.82
5642.58
11144.2
11291.2
31029.6
46506.6
117762
209824
466649
716627
792765
672320
540385
464943
464238
525713
580638
562755
463836
574572
534336
412420
592620
706625
737471
780287
818770
838786
858034
862375
868413
845830
812870
760546
712178
688890
689500
676037
644257
625254
613912
584122
575182
568035
565197
559872
568907
568457
564605
767449
389962
283927
272380
400931
545577
606459
634999
637671
615534
626720
653522
682834
707482
708158
721532
735208
712717
718138
696649
687088
638342
559943
451925
368402
236441
113825
72878.2
62288.4
56246.7
54923.7
280201
233385
259361
280351
285950
282402
273885
268152
270028
282415
298823
307632
303110
328190
340158
314062
278960
259813
266584
283216
298282
308335
318269
336850
370525
426379
505259
592313
641817
644529
622172
596493
578187
570831
573149
584725
608897
637251
671349
692357
691562
649448
564830
521764
448454
407637
379644
335430
296987
297335
347609
430372
520278
607993
683016
736761
761601
763394
760375
757483
749350
747103
750293
751241
759971
757509
771445
779270
789088
794421
795083
781491
723985
714160
545241
567030
525320
498719
491786
508931
548859
603374
664200
722704
770741
800289
795057
730702
635996
564434
536614
549367
564339
558620
536043
488515
468571
450471
454756
495951
619416
790435
760840
625534
836503
701666
843788
907362
877845
848335
845942
839242
815620
854357
802205
790471
798582
789094
776719
766153
754201
742509
680975
641064
691755
791144
796470
674695
508123
355293
315719
386084
421891
505413
467799
299049
278996
281680
322034
395881
480121
569815
663307
750495
809071
843036
863403
875446
897117
903250
910084
922797
942359
950291
981816
968963
992092
977079
971134
940192
887418
775436
609131
670568
423800
269840
359792
462641
606422
695113
580208
429782
365994
374851
458268
499652
584306
595351
599905
557437
479929
372525
347272
319984
284372
247396
221134
264340
421792
548762
506559
386442
321501
523506
483837
600560
757407
819152
793930
754759
727152
712851
633721
669852
613609
610741
564215
546196
533501
508209
513164
519523
529723
566876
641244
719957
706314
598544
461268
352289
334261
358006
349375
462334
764080
725441
598595
487544
400191
339325
307073
279052
246591
223932
185854
206776
182101
220256
249073
306407
370643
475019
614023
758641
791508
655899
494180
372543
327129
370548
398679
364851
303246
428858
495996
318098
498071
748882
812526
620433
447031
347886
287966
284170
279755
200710
177374
189621
171754
132983
89564.6
97222.7
156111
217325
391166
633511
745157
696683
556567
434817
395554
428005
422456
505746
556845
493909
699635
441496
180855
73759.9
39716.8
17786.2
13901.3
13039.1
7439.74
9620.22
8218.53
13491.9
22414.5
33030.7
74936.9
116279
293254
535506
774815
765088
613894
494975
485497
571832
646294
625420
501183
592500
576947
501094
667146
719965
762501
825672
862559
890010
909547
913927
896650
887301
864593
798992
690051
613148
582943
570502
570050
576803
570800
567951
563938
527433
504453
526965
565651
573441
553035
787074
415925
296614
361222
514990
601318
626928
645074
623796
637884
679354
712856
737470
751606
769370
758636
755384
736783
735735
708224
706127
674245
615296
489739
375066
271219
128999
73763
62566.6
62208
52583.3
284592
248223
275173
289480
287430
275901
256716
239853
237736
259424
293950
322222
329733
345718
362170
350525
298984
265781
264478
277494
289604
299799
314258
342382
389643
458820
549964
637255
664283
640172
594941
551024
512096
482832
468718
473008
503284
548861
608179
664212
695852
678560
610420
537973
464441
437066
392136
326817
275113
280277
347501
447049
549220
641879
717798
764490
774703
769496
760529
742105
722611
709235
697512
694947
701310
710177
722127
738471
761795
778503
789665
789139
768719
747718
567791
618448
556586
499834
471464
477671
522124
592006
665859
728979
768616
776593
748738
657191
545737
494840
536604
614750
644791
637259
629198
628115
585705
509295
476216
457822
546314
744296
799829
634307
934978
748336
873046
897904
858333
838200
852026
858242
827626
817496
765084
731961
721858
725273
761280
792892
799447
776168
721323
639673
628267
714100
782978
730264
596878
429496
333463
382378
421895
516842
494710
320751
292815
293220
339403
417833
504639
600084
698788
776953
818203
839299
854492
874991
875212
833470
785141
757795
769848
809621
873222
906181
948613
957009
960651
937361
895200
812782
666616
692369
447859
307832
387825
510748
661270
671654
457837
337401
317397
423969
537740
667263
703920
716289
710090
712174
703676
628319
525866
428002
371580
295662
224093
228784
348897
525428
546584
433958
343355
519950
535566
665966
796383
810882
757305
757720
718482
710302
715079
720034
684587
678624
670013
669069
659853
639247
588396
563327
543990
544000
595564
681693
722304
647366
507038
393161
365673
369220
343822
471285
853418
662821
520561
414393
344838
327199
334221
328488
349782
356681
381078
317176
320934
303362
290359
335767
369405
439346
533169
683526
806182
728143
564281
420539
361590
394991
413939
376112
308129
433971
522963
362449
570890
805917
718293
486935
346340
279437
272899
259771
275027
375889
440134
391198
322880
273029
182604
97239.8
97244.2
171487
293670
488498
698640
731321
614419
483365
433649
449326
435813
519713
603037
585064
636691
269997
105284
49237.4
32277.8
21188.7
23996.4
23137.4
35578.2
25252.7
33616.6
19880.5
27554.9
23957.4
65690.9
71987.6
185973
375697
678061
797675
688951
534846
508659
612391
696721
680788
554024
625483
617449
578752
695368
731384
785476
849880
893585
905179
885737
844581
824606
837333
868270
838121
705648
545224
481302
495432
493247
497163
534159
565609
538812
461514
413255
490193
567443
572443
542181
788494
435033
327219
446883
566813
615178
636937
641895
632868
662918
715895
756204
774347
759816
733298
726656
741618
742388
747359
720004
716103
688337
650886
532601
386953
285623
154580
84605.3
71923.5
70059.2
52281.6
285277
257777
284482
293081
287107
269877
241988
213497
208374
240684
293381
336384
350886
355480
385151
385440
323031
271358
257610
265101
275703
287354
307753
345474
403275
481808
581951
662694
668652
627753
574170
518219
460021
403683
362574
360133
408091
477029
558361
641728
698343
699576
642356
528721
477734
460542
408794
328988
262271
266703
344738
454376
564746
660510
735607
777216
781273
774213
758036
733119
697814
650706
607579
586933
596231
626346
663829
694758
733630
766589
784967
785205
787829
756834
576926
659034
590630
509227
453595
442215
486940
568985
658529
723207
750271
755122
723350
605144
477885
443585
531217
629825
632862
528400
541344
617317
640722
542818
482337
444239
506780
686052
803061
625238
980336
765815
880672
888101
839148
817912
862091
854969
805987
763238
651523
559093
518416
538475
598648
683362
764742
797529
748262
649299
619012
660259
746081
731173
648136
499141
380361
388526
420476
524928
520033
343155
308470
305782
351371
428519
516133
614634
716812
786206
804874
816374
848513
870774
864486
778153
660505
557534
538686
610324
713064
796338
869975
913799
935087
925990
894925
832157
710671
692925
475901
347039
419484
553170
696856
631955
385565
262802
282625
403004
557168
703582
696093
634085
573015
583954
655773
695325
658113
542620
447347
343991
241742
213573
316150
496899
563458
454179
360285
516834
635226
718418
809514
780951
725907
733844
683604
741048
715655
697479
655899
612149
592490
636533
684183
704311
673105
629029
574118
551728
583315
650886
720353
672192
522717
404153
370588
369052
344560
497570
946582
616974
458424
350653
303419
311248
334443
407160
466238
517530
503049
526035
466614
452503
359611
376729
388254
425930
480715
629137
784673
767447
605226
453649
391063
407370
418301
379068
315984
459194
556336
424008
646070
812136
614486
367410
263195
230012
196160
269783
386037
449522
479168
486022
443557
313464
244936
158276
94966.5
107055
211656
424763
639910
733263
642562
508046
452723
465344
457300
558734
648658
667242
491369
176511
76869.2
40455.5
34344.7
29314.4
50412.7
61095.3
92706.4
136041
107497
63360.6
67624.7
25529.3
53025.4
57562.5
138456
270836
553813
805077
741107
572076
527057
640221
728506
723408
624368
702024
653920
638258
699998
731548
821744
860092
887289
874199
798862
712517
667632
716082
821229
859518
710928
509996
452520
444106
425354
471254
533712
562050
539100
477592
468207
546099
579016
561196
549058
777813
448139
361055
502507
589177
625136
639371
645574
659020
700909
766357
773636
720360
645005
597987
620204
689689
741387
766560
724285
720351
692271
669509
565522
407944
286538
182913
103765
88438.8
84921
63374.9
284247
262606
287834
293818
288396
268469
234595
201804
194964
234270
298374
349323
365173
367174
402391
419596
347927
277971
245301
246285
257420
273030
299456
345545
412195
494900
599491
671855
659974
615438
560705
497840
425351
348039
278036
262813
337630
434135
535953
635176
704567
712092
660791
502112
493993
477638
425957
340216
259033
254513
335387
449993
565813
664990
741604
782516
782928
776830
760986
730033
676182
590426
503629
447859
458625
522870
599329
659381
712530
759646
782067
779727
790485
738229
598830
683238
628949
535734
450718
411313
444967
533475
636550
709840
727943
723773
692834
578341
464010
416747
497040
625264
623561
467817
457397
573138
630687
593745
456281
429524
481703
680685
800384
605064
981891
773789
885124
882380
813767
811994
856465
838978
813785
755826
625555
494652
419479
419814
490801
595476
700142
769749
745601
630820
563496
630431
723149
732561
666319
542566
427031
411985
434371
559363
551223
364727
323865
314001
357125
429165
513844
612642
718758
788076
793913
793288
822876
865401
863961
777413
629784
468946
372709
462626
592894
703472
802477
867555
906008
910163
886473
839309
738120
673195
522119
387303
447539
578158
718564
628799
356434
225110
224437
331189
525311
694076
690857
583502
437066
391177
525327
645228
685800
603588
504469
359294
250719
224329
313083
506242
564227
454722
384000
540642
798000
760847
812200
749552
686909
668209
663399
722084
691797
695281
604460
491637
386826
453710
596615
684939
715965
652802
595196
582315
571912
631621
723526
674335
512736
384123
371809
416849
437337
604565
1.06703e+06
588586
412141
301465
258891
265073
308388
415776
480275
492052
409174
401338
503197
544726
436369
444594
392305
415466
473185
583488
770031
784159
620079
463061
390550
399026
418195
402580
384270
539812
619375
510237
726013
788576
496939
297853
193142
137165
157117
179368
246016
394624
517099
440795
495840
383813
204581
147057
91226.6
98488.2
169525
352474
607617
730098
649349
506872
459867
517843
554322
652963
772279
717003
381387
132156
59754.2
34257.7
33558.8
39899
82578.8
145285
286863
341001
361999
157310
112944
42576.3
55021.3
47997
113846
232342
480823
789596
775749
605492
540240
650559
742380
742618
679777
821741
682824
671247
702196
733197
812253
880548
878755
823644
718931
586962
503009
569843
745547
845764
728371
515864
455105
425096
426994
495869
537445
569762
573429
574491
584330
584813
572444
550348
571232
747558
453239
372476
522636
593406
631378
640063
647912
696841
733256
766198
729882
626677
498380
422420
520075
660717
745123
780177
726892
710720
691982
675451
581534
422984
288136
205709
135767
126549
123130
114255
280650
262264
287146
295348
293328
271268
235073
206350
205909
247530
312346
359524
373659
373412
471698
486909
442433
437334
371674
290749
239040
231104
239438
256355
286211
339439
411198
494274
599531
666090
647740
605434
556155
495132
423001
346210
276872
265650
340945
442424
548727
647278
709619
712556
659822
526550
523062
551790
502478
488485
442862
362486
275749
251300
322203
436091
552315
652593
733089
779578
784193
778591
768079
734119
674766
571260
453087
353700
352694
448092
558001
641853
706051
757432
777543
767824
783078
770087
651555
690686
662689
680618
648847
570971
476709
411245
420373
502400
610390
693962
725384
731699
727695
634775
510229
468430
488894
571376
631302
574822
549048
618749
652090
546336
476955
427694
512790
705854
798444
655798
756325
848907
622648
769379
875160
875752
815696
807306
830775
839012
821393
794933
712148
613419
531745
500166
534219
617270
708514
749775
732177
611800
581919
608301
689951
708480
660970
560761
477824
469778
495122
495398
609027
620453
534197
451848
390091
353066
370084
423587
498539
591880
701592
785879
802884
785189
818867
860268
877894
813961
690397
555673
457087
476057
572215
672007
766513
838566
881201
891987
874469
836255
745853
626871
645829
701842
550183
462762
487525
591765
722188
678600
377803
210530
172900
257559
438128
599149
699699
673738
553612
479862
549903
644447
672845
612787
500880
353032
253104
236018
345289
543524
546120
465428
538797
644714
781683
879306
677692
787166
808118
720858
638066
621291
607499
686387
670567
709406
652236
572311
464052
478385
592560
685145
708141
677328
637380
571727
572760
670430
743636
673970
513024
460950
552703
632671
682423
722686
844339
957330
665802
522009
356680
253529
211647
215275
244178
351279
413545
504331
457720
404285
481322
544284
467489
474388
390447
441435
454234
591852
766736
782269
613403
446146
359465
392703
465720
529238
592490
653562
779979
839117
738247
696464
779190
693691
419503
233203
124724
107959
94416.3
84646.8
159117
239061
342136
443461
458370
332294
138393
108373
92233.1
77353.6
163901
347205
567463
724053
656364
511362
534967
681320
757602
738412
805972
887459
712061
574847
251612
93449.5
44147.3
26912.9
29095.2
34303.8
75411.3
144218
282782
388678
420470
260287
150348
52044.2
59052.4
55014.4
97546.2
254910
447439
759716
801360
633706
547070
638360
737846
743016
687347
595552
664342
659788
664861
689999
690180
745298
802850
863322
873397
795099
674284
535471
447152
523281
712800
832807
751785
522613
471315
467290
467950
523783
555163
566149
575873
570997
551857
546737
534055
549310
571754
584373
508663
487696
366882
401587
530188
590616
634322
647569
656292
705226
757951
751694
689915
564750
420449
390394
546455
699784
766602
781467
714151
706077
679847
677391
580067
425623
289094
221135
179463
182819
180387
193076
103166
47040.8
275126
256901
283335
298363
299352
276094
240517
216606
220570
262645
323097
365322
375512
353631
279550
311413
445611
432796
378390
303260
237545
214816
219516
237922
273860
330042
403697
481555
583484
648635
629701
596773
557945
510214
456402
401454
359656
361626
416038
494945
584790
663272
707598
698663
636488
510336
336370
342399
465028
481365
450335
381242
299411
258406
309194
413619
524210
622873
708925
765968
780530
782388
773400
748289
699386
619262
519321
432410
422060
488931
575708
653096
715465
763824
773092
767161
792871
768704
483278
472651
622733
653655
651625
610258
535753
454294
430301
487055
586458
675148
721681
737743
757894
712818
563534
486370
536228
614436
641789
632182
637041
627792
582192
538130
504658
512766
603002
743763
778373
695955
505215
507615
588433
744695
860437
885007
839731
787863
819281
833934
817700
805979
802949
740056
709170
681213
676152
715066
748669
725561
687774
599416
581916
635679
711917
713954
649380
546720
478860
473631
493281
501232
511119
524744
535540
506256
454708
405321
389776
416912
475138
556032
660082
768090
810877
798222
808424
845802
869563
858946
782151
690659
623322
610158
640446
703104
767928
827058
865292
873026
859239
819807
733968
614165
475322
525058
558314
466780
475334
565722
705340
742283
489236
224744
159991
193596
308599
462453
595144
687393
708686
690739
693837
683673
644378
556226
428035
307899
247407
276837
400294
574156
561614
535642
603376
662249
639318
631169
663118
781956
817316
718740
613982
580241
553849
616754
614147
663525
665159
687326
665403
668402
683967
708574
710307
659760
603594
590952
627683
681180
743441
685577
549692
497306
543676
593824
616408
621312
624762
662842
652837
507318
340353
223477
181813
168863
183823
220307
299191
367413
429615
506313
469115
507013
434492
468199
394408
458593
481893
618453
776122
773559
598804
425576
345496
417752
521668
618911
695428
744841
778387
781973
736486
689965
788290
712078
405458
177228
120855
68964.8
48217.8
38223.4
57817.1
53370.8
102811
139645
133392
124885
66963.3
52037.1
63737.5
88374
144944
332365
557870
696888
650491
498418
503060
607470
696973
731289
724279
705595
717472
526997
213171
78899.2
38341.2
20362.8
20357.8
19913.9
43308.3
67423
138598
189339
267195
155930
107096
64424.6
69029.2
61345.6
129307
245937
460049
756666
809048
650307
538018
596047
708033
736864
682225
578964
494218
508752
657550
688701
694196
732590
810378
838994
847137
793467
688849
588469
547949
611649
737778
815918
738305
561395
534519
533090
520902
556829
565696
532751
517019
492341
473023
516996
550056
597047
587656
512082
424182
395575
380805
423185
531209
586289
629395
655555
673506
701122
756413
750867
688074
598518
528019
563313
667789
765397
784148
764228
698982
693974
678590
662966
561431
409812
286473
226679
184537
186303
200207
169897
58083.6
39534
267984
245830
277921
300833
304573
283836
250352
231593
236575
273647
324774
360217
365957
334621
260183
283009
408556
414923
376989
315589
250384
212545
208417
227685
264058
320145
387505
453481
548519
616882
610369
590863
568589
543824
513039
484786
466157
473139
508995
561943
623382
673697
692637
668334
591165
455726
297667
303703
420062
457561
443524
392840
325800
280014
305899
389031
484731
574737
663720
735947
768336
780861
780663
766873
742518
702816
647452
600156
585072
605085
647101
692271
735299
766942
776061
777830
803342
751095
460387
427665
555053
618584
651777
649305
612349
543319
492977
511069
581476
657914
703006
733926
774601
795330
698449
566921
525626
566307
635201
657505
621261
628626
631150
582799
554972
600928
699795
795746
746501
638479
456256
458540
545368
696743
820199
888056
867873
809668
795144
820388
804529
784506
800251
765864
752469
773036
732471
740260
726037
657469
620724
614414
602176
674769
720395
701056
603896
496182
441464
445594
462276
467534
473790
489476
518723
513555
479203
435329
406094
410482
449060
510978
600440
709891
804859
812466
821761
846283
870367
873825
857334
813501
772513
743143
747478
768077
802693
831196
853098
851686
836401
791790
699784
593759
478923
518720
547158
449903
439411
515214
649966
759153
655130
324120
180107
151367
188005
283031
377702
481885
522803
552085
563263
550666
484098
407489
307078
263928
251361
319154
473755
623102
587713
562141
602505
621571
572860
553963
604398
741338
829608
754157
627408
560068
512686
548469
519985
583984
570084
567234
621027
648955
684886
681941
640322
616583
624883
618717
638464
701309
750631
689189
569877
494200
482448
496455
506002
520958
558824
641869
665583
527943
354740
228895
163372
139020
128975
134406
165787
194839
253009
295381
288998
399987
360874
409423
402075
476468
524963
659442
800227
751215
577587
416661
356073
412370
490498
562037
620093
656375
667551
652320
596600
610601
748694
716859
400152
211842
97484.4
50603
37769.6
19879.1
19959
15176.1
17158.3
21081.3
26823.9
20388
23395.1
39268
39321
86244.4
183683
320059
556016
714062
640579
501872
479150