/*--------------------------------*- C++ -*----------------------------------*\
| =========                 |                                                 |
| \\      /  F ield         | OpenFOAM: The Open Source CFD Toolbox           |
|  \\    /   O peration     | Version:  2.1.1                                 |
|   \\  /    A nd           | Web:      www.OpenFOAM.org                      |
|    \\/     M anipulation  |                                                 |
\*---------------------------------------------------------------------------*/
FoamFile
{
    version     2.0;
    format      ascii;
    class       volScalarField;
    location    "0.006500000";
    object      sL;
}
// * * * * * * * * * * * * * * * * * * * * * * * * * * * * * * * * * * * * * //

dimensions      [0 1 -1 0 0 0 0];

internalField   nonuniform List<scalar> 
12384
(
8.77409
8.43494
8.31949
8.40619
8.44731
8.59257
8.67094
8.88505
9.02383
9.20291
9.31626
9.37169
9.54904
11.0845
2.60102
3.087
3.37304
3.55827
3.65161
3.64745
3.63731
3.61682
3.62089
3.59728
3.58996
3.56682
3.55
3.52731
3.50564
3.48633
3.46035
3.45013
3.43583
3.46904
3.46685
3.54836
3.55332
3.68809
3.74783
3.88943
3.99471
3.93169
2.96939
2.62221
3.14439
3.49778
3.49606
3.29144
3.14817
3.05668
2.99025
2.9847
2.96551
2.9816
2.99775
3.02144
3.03972
3.04487
3.03684
3.02365
2.99949
2.95636
2.94847
2.94131
2.95477
2.91212
2.98231
3.03664
3.07175
3.09857
3.18438
3.46687
3.59719
3.60939
2.64915
2.64057
2.76368
2.83936
2.86463
2.87745
2.93715
2.92072
2.98459
3.01362
3.04128
3.07093
3.09047
3.08938
3.06631
3.0137
2.94572
2.86727
2.8149
2.84384
2.78564
2.9212
2.97515
3.18411
3.28225
3.38878
3.2926
2.92672
2.90812
2.96686
3.80611
4.09248
4.12814
4.11213
4.06922
3.99149
3.86544
3.68095
3.69374
3.50545
3.26102
3.3528
3.15324
3.25768
3.23312
3.39171
3.53556
3.5973
3.67647
3.76154
3.33382
2.78811
2.72244
2.6527
2.63971
2.60606
2.61403
2.58741
2.57815
2.52132
2.98885
2.95284
2.94021
3.0055
3.0274
3.00834
2.97425
2.97573
3.00223
3.04047
3.08712
3.12123
3.1425
3.1491
3.12738
3.07917
3.08489
3.07268
3.02013
3.09695
3.03158
3.12427
3.24582
3.25862
3.4463
3.51966
3.76525
3.90097
3.87981
3.93997
1.66988
1.49259
1.48523
1.59026
1.66505
1.72521
1.79938
1.85247
1.89517
1.89496
1.89538
1.85425
1.85379
1.78937
1.80675
1.73815
1.72151
1.69932
1.69816
1.67479
1.67897
1.70412
1.75615
1.71148
1.36132
1.36617
1.32307
1.31732
1.29384
1.27135
2.08791
2.38586
2.68061
2.87203
2.95743
2.96872
2.94928
2.92005
2.82793
2.87439
2.73891
2.75701
2.75389
2.74967
2.76429
2.80936
2.86026
2.90115
2.91521
2.87478
2.76237
2.52354
2.38193
2.29498
2.29059
2.21674
2.27571
2.22923
2.25117
2.22653
2.5187
2.75049
2.81216
2.77876
2.72055
2.64975
2.57298
2.51326
2.46212
2.43449
2.37159
2.48586
2.42874
2.65838
2.70699
2.85403
2.92163
2.92679
3.02013
2.90747
2.83449
2.82984
2.82763
2.81356
2.82105
2.80586
2.78707
2.74536
2.72851
2.72553
2.97277
3.24674
3.44479
3.4856
3.42175
3.30933
3.16975
3.04286
2.92987
2.77152
2.59
2.62962
2.48297
2.43221
2.49281
2.52744
2.593
2.70037
2.76744
2.80294
2.62479
2.44065
2.4836
2.50585
2.48078
2.49682
2.49595
2.48723
2.48054
2.45178
1.79105
1.90986
1.99514
2.06359
2.09788
2.08777
2.04763
2.00237
1.98723
1.89845
1.97344
1.84836
2.06762
2.03388
2.2906
2.33201
2.51543
2.53872
2.53194
2.45092
2.46283
2.48277
2.60451
2.64289
2.73697
2.73284
2.74328
2.72452
2.6704
2.5894
1.5414
1.51829
1.50649
1.60223
1.77272
1.72775
1.8489
1.96293
2.03113
2.07018
2.12154
2.10397
2.12859
2.12572
2.09822
2.04877
1.97174
1.86747
1.75782
1.67174
1.57714
1.47473
1.45315
1.41883
1.4193
1.4204
1.42163
1.42369
1.42861
1.4463
1.49433
1.49837
1.48448
1.43291
1.28922
0.912824
0.908889
1.65682
2.84855
2.73665
2.67677
2.63576
2.61865
2.6067
2.59675
2.65287
2.59284
2.65825
2.58201
2.54054
2.45545
2.41083
2.38506
2.49261
2.73388
2.96321
3.17107
3.29965
3.34251
2.71653
7.17925
7.32036
7.44719
7.42534
7.23764
7.23852
7.30833
7.62209
8.09131
8.77398
9.36213
9.6336
9.70143
10.8695
2.60155
3.18422
3.5814
3.78233
3.73964
3.62779
3.56796
3.54209
3.51069
3.45627
3.41045
3.36467
3.32125
3.28835
3.26081
3.23658
3.24167
3.24228
3.25572
3.25025
3.27816
3.30613
3.35264
3.48295
3.59858
3.76755
3.92344
4.01221
3.50117
2.9281
3.1931
3.51538
3.45518
3.23403
3.12213
3.04405
3.01258
3.00395
2.99059
3.01919
3.05968
3.10984
3.14155
3.15931
3.17095
3.15391
3.13035
3.13103
3.11665
3.09382
3.09944
3.11931
3.08975
3.09847
3.1175
3.10025
3.13181
3.29663
3.55218
3.63937
2.6622
2.69034
2.8317
2.89286
2.92503
2.92173
2.95563
2.94984
2.98827
3.00888
3.04104
3.072
3.08145
3.06764
3.0188
2.93898
2.84309
2.75632
2.68257
2.61694
2.6746
2.7252
2.83598
2.94804
3.09337
3.19737
3.26902
3.12878
2.95384
3.00064
3.69258
4.01911
4.09425
4.01273
3.88305
3.74599
3.58941
3.53441
3.40532
3.21599
3.14876
3.18972
3.04103
3.09237
3.21036
3.2284
3.33579
3.46709
3.55642
3.66785
3.57395
3.09393
2.73449
2.65849
2.64636
2.61662
2.67927
2.70321
2.68827
2.66022
2.97661
2.92734
2.94001
2.96583
2.89945
2.84542
2.86768
2.96126
3.0652
3.17869
3.26712
3.34359
3.39634
3.42495
3.44302
3.45089
3.45504
3.4223
3.44924
3.45619
3.50462
3.48491
3.52839
3.46141
3.501
3.49696
3.65258
3.83834
3.96098
4.00914
1.64329
1.56688
1.80163
1.80278
1.86069
2.01856
2.16237
2.20179
2.185
2.15126
2.10697
2.06881
2.00931
2.00888
1.96235
1.95206
1.91367
1.85618
1.81378
1.77281
1.70427
1.66656
1.69596
1.7406
1.53324
1.34364
1.27468
1.29788
1.31867
1.24795
2.56512
2.91772
3.08009
3.11916
3.07763
3.04874
2.96014
2.91041
2.79599
2.80232
2.71426
2.73172
2.68565
2.69933
2.71676
2.7343
2.76305
2.79766
2.83179
2.85639
2.82126
2.65426
2.39732
2.2635
2.25113
2.20349
2.27327
2.26502
2.33947
2.36803
2.70371
2.74597
2.68149
2.61168
2.537
2.46254
2.38188
2.30982
2.25711
2.2174
2.23285
2.24627
2.34491
2.42818
2.54126
2.66881
2.78053
2.86167
2.95732
3.0166
2.8685
2.85732
2.85943
2.86653
2.90102
2.94282
2.95858
2.90821
2.78037
2.74135
2.93478
3.19832
3.4752
3.40543
3.19784
2.99734
2.83197
2.65922
2.45275
2.35866
2.25687
2.08192
2.04751
2.07301
2.0651
2.18573
2.27994
2.40335
2.59439
2.73238
2.7193
2.51636
2.47763
2.55384
2.52309
2.50996
2.52
2.5553
2.58686
2.57191
1.74787
1.88558
2.04026
2.10254
2.09853
2.04412
1.97147
1.90245
1.77711
1.77112
1.68188
1.7894
1.74712
1.88228
2.04585
2.1432
2.38103
2.47371
2.60142
2.54886
2.49755
2.58504
2.71478
2.74876
2.78078
2.74772
2.73106
2.72803
2.76038
2.669
1.64711
1.57719
1.64499
1.73143
1.78816
1.91918
2.16027
2.3762
2.52564
2.58848
2.59223
2.58319
2.53919
2.48939
2.43489
2.36698
2.269
2.15966
2.03517
1.87288
1.74185
1.64612
1.57226
1.44571
1.43723
1.43772
1.43708
1.434
1.43207
1.44503
1.88665
1.93809
1.96049
1.84335
1.33864
1.01883
1.4678
2.58344
2.87071
2.80541
2.86541
2.94974
3.01931
3.0752
3.07491
3.13747
3.09791
3.1209
3.04896
3.00977
2.83655
2.60571
2.28376
2.27446
2.5852
2.97724
3.24601
3.33669
3.3446
2.54891
7.06049
7.21269
6.61618
6.17362
6.01733
6.13338
6.2112
6.37602
6.59829
7.20204
8.31158
9.43748
9.81491
10.7688
2.63027
3.30819
3.79988
3.84243
3.63189
3.46981
3.41604
3.37164
3.3082
3.24139
3.18669
3.16389
3.16392
3.17085
3.1741
3.21029
3.25265
3.30082
3.32753
3.33812
3.3696
3.34988
3.35583
3.39969
3.48483
3.62717
3.83583
4.02401
3.80424
3.20023
3.21347
3.54386
3.44739
3.30897
3.26378
3.24045
3.15492
3.07302
3.03901
3.046
3.09448
3.14318
3.18229
3.22137
3.23213
3.22081
3.23421
3.22219
3.19607
3.20375
3.19264
3.22586
3.21554
3.18918
3.18635
3.146
3.10901
3.16938
3.41943
3.63735
2.64558
2.72447
2.87389
2.91867
2.93707
2.92503
2.93735
2.94718
2.98456
3.01027
3.06216
3.09742
3.10859
3.0688
2.98077
2.86714
2.75768
2.65994
2.59219
2.58806
2.52029
2.59172
2.67291
2.80393
2.9162
3.03173
3.12322
3.16363
3.02878
3.00878
3.76404
4.03407
4.00105
3.86773
3.7006
3.57045
3.47625
3.45815
3.30196
3.27452
3.27868
3.21654
3.1437
3.2172
3.23177
3.34658
3.34013
3.38313
3.45686
3.52184
3.56556
3.32136
2.91041
2.64877
2.61041
2.60266
2.65017
2.68279
2.77939
2.7716
2.9561
2.91568
2.90022
2.89349
2.75596
2.82013
2.93882
3.09396
3.19722
3.27317
3.34228
3.40686
3.45956
3.51969
3.57255
3.65383
3.67257
3.67863
3.7383
3.72035
3.84317
3.76558
3.83118
3.71204
3.63388
3.5301
3.57793
3.70766
3.89919
4.01282
1.62877
1.78522
1.83615
1.80262
2.21027
2.3745
2.34327
2.22716
2.12957
2.05067
1.99634
1.97411
2.00829
1.96223
1.98139
1.96351
1.99219
1.97257
1.90202
1.84258
1.77486
1.67128
1.62758
1.67765
1.67106
1.42557
1.27358
1.33235
1.42455
1.30097
3.03902
3.13939
3.13297
3.07506
3.01571
3.00837
2.88411
2.88194
2.81157
2.77714
2.75474
2.66384
2.67724
2.67992
2.69798
2.71473
2.71865
2.73154
2.7493
2.76632
2.78816
2.72365
2.50234
2.27077
2.20643
2.17188
2.2433
2.24976
2.35574
2.43827
2.73286
2.64074
2.56651
2.50307
2.43998
2.36958
2.27933
2.22374
2.18195
2.17671
2.12199
2.17754
2.20238
2.31356
2.3989
2.51313
2.61877
2.71969
2.82857
2.96627
2.9592
2.87484
2.87615
2.87747
2.90142
2.97006
3.13081
3.24163
3.03989
2.76318
2.92315
3.22955
3.48447
3.21247
2.98024
2.78814
2.59006
2.42057
2.28759
2.17371
2.02632
1.97248
1.98353
1.91556
1.86804
1.8968
2.03364
2.12399
2.28109
2.51132
2.65044
2.59583
2.51553
2.50862
2.4969
2.4806
2.47773
2.54171
2.65144
2.6635
1.7435
1.95961
2.11325
2.13683
2.04997
1.93041
1.84947
1.69226
1.66624
1.58663
1.57771
1.53834
1.63599
1.6793
1.84694
1.9647
2.14827
2.29883
2.49077
2.58086
2.5588
2.60492
2.73474
2.75134
2.72291
2.63995
2.5556
2.5633
2.69945
2.72142
1.74209
1.7147
1.7475
1.79431
1.93696
2.22244
2.53288
2.73329
2.82064
2.85779
2.84655
2.76886
2.66544
2.55809
2.44764
2.33909
2.24349
2.13777
1.97136
1.79091
1.70146
1.61687
1.53742
1.4739
1.48952
1.44505
1.44929
1.44418
1.43941
1.44577
1.62258
1.71375
1.78923
1.50157
1.25772
1.46953
2.41702
2.90756
2.91266
2.99973
3.12638
3.23069
3.26824
3.32279
3.32602
3.31912
3.26906
3.31182
3.21825
3.24774
3.17061
3.07951
2.68925
2.2545
2.39076
2.92456
3.24661
3.32949
3.26615
2.00989
6.92146
6.23453
5.54473
5.57316
6.04173
6.58635
6.78938
6.71769
6.45477
6.51984
7.17878
8.7306
9.7838
10.768
2.63837
3.45027
3.89549
3.79699
3.48705
3.35416
3.30706
3.24677
3.17872
3.12405
3.11539
3.16405
3.18649
3.19761
3.24751
3.35347
3.5346
3.71863
3.86736
3.9236
3.95475
3.83286
3.75009
3.57883
3.57518
3.60029
3.76855
4.01508
3.94596
3.37598
3.2399
3.57063
3.533
3.44905
3.47209
3.38446
3.19739
3.09131
3.06107
3.04916
3.09794
3.13998
3.21374
3.24399
3.25328
3.28785
3.30508
3.265
3.26506
3.26869
3.253
3.23423
3.29068
3.26486
3.24391
3.18913
3.12518
3.11539
3.29512
3.59283
2.65941
2.74746
2.8853
2.91129
2.91138
2.9232
2.92108
2.94638
2.98304
3.02136
3.06961
3.10836
3.10055
3.02187
2.89444
2.76723
2.65468
2.5724
2.54147
2.52367
2.55916
2.56327
2.6251
2.67857
2.78283
2.87968
3.01828
3.11812
3.08939
3.00043
4.04072
4.02159
3.88495
3.70171
3.56827
3.46487
3.44122
3.41882
3.30888
3.4898
3.39483
3.33217
3.48269
3.46044
3.48731
3.49303
3.55721
3.47873
3.41359
3.42482
3.45896
3.3899
3.07368
2.68595
2.56662
2.55654
2.5465
2.63484
2.74206
2.78909
2.93736
2.88328
2.86056
2.7624
2.75838
2.85332
3.02375
3.11414
3.15209
3.18927
3.24636
3.32502
3.42534
3.52134
3.65725
3.8219
3.88529
4.0104
4.09249
4.05613
4.12192
4.06146
4.11605
3.95902
3.80438
3.64197
3.5406
3.6302
3.79139
3.98137
1.66607
1.91768
1.69249
2.28718
2.53145
2.43062
2.18174
2.00093
1.91015
1.88475
1.91113
2.02716
2.02764
2.11964
2.12144
2.09032
2.01719
2.02283
2.01256
1.91526
1.82794
1.72302
1.61752
1.60892
1.66625
1.56813
1.33585
1.34851
1.4702
1.35698
3.21567
3.15548
3.07249
3.04519
3.0125
2.97654
2.88655
2.94967
2.81669
2.7957
2.72692
2.73611
2.73337
2.72066
2.69988
2.7175
2.72593
2.70577
2.69427
2.70691
2.71838
2.73042
2.62011
2.34232
2.21194
2.18875
2.28455
2.29963
2.35906
2.458
2.58313
2.54633
2.49718
2.44582
2.35938
2.27502
2.19993
2.13665
2.09938
2.05968
2.09516
2.06284
2.16112
2.21677
2.28374
2.40847
2.49701
2.60797
2.72041
2.87779
2.99314
2.90143
2.88752
2.87361
2.85516
2.88675
3.16862
3.47899
3.41518
2.91218
2.92018
3.41888
3.28531
3.06676
2.83377
2.60216
2.41429
2.28635
2.18315
2.01544
1.9887
1.97013
1.81932
1.73133
1.7452
1.70852
1.76446
1.94118
2.04985
2.22721
2.46725
2.59961
2.53974
2.48779
2.50247
2.46755
2.44736
2.52314
2.69495
2.73806
1.84992
2.09747
2.17772
2.09599
1.94878
1.78235
1.6788
1.5368
1.489
1.37103
1.3826
1.38597
1.50551
1.50987
1.70444
1.77936
2.00556
2.12133
2.36926
2.52654
2.58513
2.61616
2.70631
2.71239
2.6884
2.54724
2.43522
2.45089
2.59774
2.74519
1.81175
1.80361
1.78674
1.88377
2.15873
2.52918
2.83164
3.0078
3.13144
3.17239
3.17267
3.05731
2.88244
2.65444
2.44792
2.29964
2.18209
2.01832
1.83076
1.70428
1.62771
1.52388
1.51078
1.48911
1.4787
1.47052
1.50856
1.48667
1.44653
1.44298
1.52936
1.52649
1.44582
1.36143
1.42965
2.24805
2.89409
2.99446
3.04607
3.20114
3.34163
3.42804
3.47879
3.45208
3.47221
3.5276
3.41316
3.41218
3.27036
3.25648
3.17578
3.23126
3.1128
2.52922
2.11733
2.62476
3.09382
3.2156
2.89633
1.73761
6.28882
5.35447
5.31947
6.27343
7.56705
8.40922
8.52853
8.15655
7.36875
6.70888
6.78493
8.08334
9.65397
10.7808
2.70288
3.56775
3.99085
3.73272
3.38984
3.26676
3.22542
3.16539
3.11979
3.13805
3.28667
3.43653
3.38501
3.31093
3.38167
3.62911
3.95745
4.23913
4.43793
4.56922
4.6103
4.52014
4.38808
4.05559
3.83225
3.69934
3.78841
4.0068
4.02048
3.48287
3.24342
3.6124
3.62167
3.6208
3.62309
3.46887
3.19999
3.12721
3.0917
3.06475
3.09597
3.1542
3.22077
3.25544
3.3338
3.35982
3.3058
3.29956
3.30155
3.28733
3.32696
3.28762
3.31872
3.31428
3.29112
3.21827
3.13273
3.09413
3.20928
3.53173
2.63284
2.74927
2.85903
2.90939
2.9066
2.92255
2.94047
2.91703
2.93714
2.98545
3.03184
3.07277
3.07376
2.96034
2.80352
2.66373
2.56807
2.54424
2.54109
2.54173
2.54548
2.54049
2.57828
2.61975
2.68108
2.76122
2.89013
3.01519
3.03494
2.95761
4.01742
3.90024
3.74897
3.5985
3.46813
3.4265
3.44366
3.44091
3.441
3.63317
3.48505
3.56462
3.65267
3.68208
3.71263
3.71906
3.68137
3.6666
3.51622
3.37273
3.35395
3.35426
3.14527
2.74641
2.53396
2.48199
2.5294
2.54635
2.6349
2.78982
2.89853
2.87054
2.7869
2.68648
2.75357
2.91061
2.99734
3.03462
3.04236
3.07696
3.14869
3.25631
3.3765
3.52073
3.77703
3.9901
4.21818
4.39965
4.49854
4.46417
4.53241
4.35048
4.36152
4.16393
3.99781
3.74188
3.55443
3.5462
3.70333
3.91459
1.69818
1.84277
1.97247
2.63372
2.56358
2.26873
1.99976
1.85742
1.83199
1.89443
2.06098
2.16152
2.36779
2.42083
2.47343
2.44205
2.33741
2.13462
2.07096
2.00618
1.90131
1.76717
1.62709
1.57095
1.62224
1.62106
1.43853
1.39886
1.48612
1.45065
3.22772
3.10051
3.04929
3.05278
2.99597
2.97375
2.96283
2.92362
2.78529
2.88461
2.7722
2.79118
2.72892
2.73373
2.7385
2.69766
2.70254
2.70852
2.69249
2.67682
2.68314
2.70813
2.66387
2.44557
2.33266
2.2669
2.36138
2.39239
2.43214
2.47787
2.52337
2.49266
2.45173
2.38062
2.27935
2.1836
2.11515
2.05012
1.98912
1.9696
1.9306
2.02132
2.01046
2.12406
2.20851
2.31841
2.40856
2.51828
2.63482
2.77741
2.96916
2.95131
2.8897
2.88479
2.86966
2.9054
3.25019
3.55494
3.61983
3.12929
3.03189
3.56228
3.1371
2.93373
2.67049
2.46818
2.31124
2.18941
2.06979
2.02348
1.94056
1.76278
1.72762
1.78265
1.77233
1.73557
1.64818
1.6878
1.89011
2.03708
2.26562
2.47624
2.52465
2.50589
2.48132
2.45625
2.43819
2.54886
2.68981
2.77333
2.08348
2.23625
2.16833
1.98543
1.8042
1.64955
1.54943
1.40592
1.36755
1.36932
1.28767
1.33874
1.32852
1.43754
1.55299
1.65009
1.86855
1.96455
2.24447
2.43307
2.58936
2.62692
2.66025
2.71855
2.6575
2.48875
2.38697
2.38355
2.53334
2.74111
1.86704
1.83652
1.83069
1.99508
2.37454
2.78811
3.05954
3.26338
3.44015
3.5571
3.49351
3.3635
3.1353
2.82591
2.49941
2.26264
2.08647
1.91728
1.75766
1.6416
1.55591
1.50487
1.48787
1.42874
1.43635
1.49842
1.54044
1.51799
1.44625
1.44523
1.4963
1.46556
1.35775
1.42335
1.89734
2.76514
3.0647
3.08823
3.2329
3.40221
3.48319
3.52685
3.56309
3.6827
3.649
3.65991
3.58456
3.5812
3.39274
3.30546
3.13729
3.18414
3.23033
3.01011
2.09227
2.24371
2.60632
2.73009
2.08994
1.35189
5.65643
5.06548
5.89365
7.84435
9.04443
9.31299
9.17507
8.88043
8.11713
7.10501
6.75062
7.7696
9.55043
10.8722
2.69955
3.68808
4.02311
3.70897
3.33257
3.22309
3.16351
3.1399
3.19452
3.49644
3.93958
4.04126
3.68639
3.43029
3.54812
3.93655
4.30637
4.61578
4.83648
4.99443
5.14285
5.09224
4.98979
4.65881
4.25056
3.93108
3.89434
4.03896
4.05932
3.5331
3.21539
3.63815
3.7135
3.73796
3.75455
3.47497
3.21603
3.15681
3.12992
3.07645
3.09949
3.16162
3.22697
3.32184
3.3708
3.33015
3.30752
3.33063
3.31014
3.31665
3.32827
3.34385
3.33186
3.32918
3.34125
3.24581
3.13466
3.05552
3.15092
3.47715
2.64503
2.72509
2.86211
2.8698
2.89767
2.88637
2.88245
2.87901
2.85284
2.87917
2.94731
3.00776
3.0236
2.89817
2.7183
2.57973
2.53746
2.52605
2.48077
2.47015
2.48128
2.54524
2.57755
2.56551
2.63908
2.68296
2.80982
2.97912
3.01887
2.97318
3.90243
3.78043
3.65132
3.51509
3.41943
3.39436
3.45402
3.50075
3.50615
3.69099
3.62836
3.69157
3.786
3.84898
3.991
4.03795
3.90901
3.71828
3.55628
3.3714
3.27663
3.26078
3.14406
2.80101
2.49725
2.48271
2.46993
2.48039
2.58762
2.79149
2.90611
2.83742
2.75783
2.66815
2.74781
2.90499
2.94574
2.94404
2.95437
2.97818
3.0522
3.17136
3.31104
3.53496
3.82483
4.11812
4.51215
4.76421
4.93984
4.87774
4.9128
4.65508
4.58223
4.35681
4.13681
3.82692
3.56034
3.49416
3.60312
3.85016
1.79008
1.86336
2.47576
2.71695
2.51296
2.17527
1.89019
1.80349
1.82084
1.99649
2.1639
2.42167
2.52294
2.63097
2.63598
2.63102
2.57223
2.41534
2.22531
2.06944
1.97111
1.8248
1.64127
1.55386
1.58913
1.6477
1.57162
1.50164
1.54277
1.56953
3.17474
3.07376
3.05674
3.0234
2.96832
3.02497
2.91747
2.87762
2.86706
2.79074
2.67478
2.64584
2.63981
2.6617
2.70621
2.74565
2.69966
2.69863
2.69022
2.66617
2.66545
2.68321
2.68031
2.55351
2.43744
2.42641
2.43423
2.44307
2.51217
2.52359
2.49111
2.459
2.40511
2.30728
2.19249
2.11367
2.03423
1.93849
1.91495
1.89492
1.9511
1.89071
1.98729
2.03855
2.10152
2.25241
2.35326
2.46764
2.56607
2.69707
2.90851
2.97976
2.94569
2.92602
2.89381
3.09477
3.3762
3.56033
3.65448
3.28305
3.0306
3.4304
3.06456
2.77878
2.54374
2.36623
2.23014
2.10895
2.00701
1.85331
1.75736
1.81804
1.83369
1.74264
1.70675
1.74326
1.719
1.61829
1.67546
1.92103
2.15322
2.33568
2.47519
2.49297
2.47336
2.45634
2.43544
2.60023
2.65555
2.75181
2.28117
2.28269
2.08193
1.85831
1.69859
1.56133
1.46495
1.35425
1.33076
1.27805
1.34757
1.2951
1.38836
1.34742
1.47415
1.50171
1.79671
1.84368
2.12332
2.34205
2.5641
2.62761
2.67442
2.71428
2.6404
2.48784
2.35266
2.33337
2.48914
2.71635
1.90953
1.85049
1.85659
2.12233
2.53439
2.95518
3.2578
3.49214
3.68461
3.71702
3.75261
3.60146
3.36158
2.99697
2.58058
2.22172
2.02004
1.88201
1.69092
1.57687
1.54732
1.50491
1.39949
1.33761
1.4082
1.50545
1.55145
1.52964
1.44711
1.44761
1.51017
1.46516
1.40102
1.58467
2.42112
3.01545
3.14522
3.18736
3.33368
3.47947
3.583
3.71602
3.81438
3.79033
3.7627
3.80327
3.66712
3.66508
3.50172
3.40091
3.15561
3.11836
3.18954
3.27114
2.42377
1.90632
2.03904
1.96126
1.71512
1.15133
5.31296
5.14676
7.02698
9.07974
9.34907
8.99605
9.02637
8.98122
8.37276
7.28692
6.80511
7.79017
9.67391
10.9018
2.79294
3.76894
4.17255
3.74198
3.3291
3.22125
3.175
3.21112
3.59311
4.36071
4.95545
4.7777
3.92201
3.49796
3.74626
4.17632
4.54009
4.85033
5.16462
5.40902
5.5855
5.59718
5.49166
5.1818
4.70636
4.24068
4.0637
4.11198
4.08535
3.53894
3.2111
3.62926
3.78691
3.82329
3.80911
3.4997
3.23388
3.20742
3.17072
3.08916
3.09318
3.17586
3.26602
3.35614
3.34484
3.32172
3.31298
3.27138
3.2285
3.24923
3.28016
3.31341
3.3709
3.32643
3.34644
3.28372
3.1308
3.02126
3.10398
3.44472
2.63817
2.70072
2.80476
2.85776
2.83659
2.84176
2.8511
2.83742
2.8183
2.80684
2.85329
2.95995
3.00221
2.85003
2.64925
2.52369
2.51531
2.48336
2.49145
2.52553
2.54435
2.50242
2.56363
2.52021
2.58097
2.65466
2.77622
2.91583
2.96
2.8783
3.76709
3.65652
3.57791
3.47701
3.3716
3.35526
3.49448
3.48748
3.5111
3.79809
3.66318
3.7246
3.89047
4.03823
4.04574
4.13971
4.11367
3.88125
3.59117
3.3526
3.26775
3.20795
3.11103
2.77263
2.49803
2.40451
2.39884
2.45543
2.56418
2.68296
2.84592
2.79956
2.68687
2.67566
2.74523
2.85834
2.9003
2.89036
2.89592
2.92227
2.95719
3.08004
3.2768
3.48039
3.81972
4.18829
4.68975
4.96821
5.16428
5.11064
5.12223
4.87855
4.71333
4.48739
4.20913
3.85634
3.55901
3.43009
3.53208
3.76646
1.80846
2.04714
2.70439
2.76824
2.52795
2.14048
1.85906
1.7614
1.83343
1.99926
2.21991
2.50952
2.64345
2.79086
2.86138
2.77506
2.64291
2.52279
2.35417
2.15463
2.01522
1.85976
1.66019
1.53861
1.57068
1.62818
1.63557
1.59198
1.61202
1.75285
3.15537
3.08766
3.03281
2.99107
2.96839
2.99782
2.86552
2.952
2.78542
2.71719
2.66621
2.68569
2.62129
2.61483
2.62122
2.70552
2.72985
2.73676
2.70652
2.67991
2.68204
2.67995
2.68871
2.64787
2.53582
2.4916
2.53067
2.4583
2.51533
2.56182
2.46506
2.43831
2.35116
2.23977
2.13671
2.05324
1.94836
1.93606
1.89461
1.91334
1.8377
1.94074
1.88767
2.03119
2.03121
2.18501
2.31517
2.43595
2.50769
2.6594
2.85289
3.00155
2.97734
2.94485
2.93982
3.3361
3.4121
3.39359
3.43263
3.2996
3.07395
3.21227
2.91085
2.67406
2.45929
2.26905
2.16065
2.04211
1.85436
1.83568
1.80923
1.6686
1.58062
1.57679
1.56826
1.53851
1.63078
1.66517
1.6442
1.74601
1.99949
2.28347
2.41589
2.45799
2.46144
2.42792
2.53126
2.64178
2.5961
2.67902
2.37926
2.22276
1.96401
1.78293
1.64858
1.50903
1.42618
1.32098
1.32919
1.27461
1.28112
1.35448
1.365
1.36233
1.52677
1.4363
1.68534
1.78403
2.06638
2.26892
2.48195
2.68009
2.66569
2.72996
2.66635
2.50424
2.33966
2.30505
2.40549
2.59166
1.92523
1.8693
1.87807
2.19891
2.6996
3.02788
3.34707
3.6326
3.74465
3.82179
3.79527
3.72875
3.51135
3.13636
2.60555
2.19739
2.01617
1.82268
1.6193
1.57678
1.56086
1.48478
1.38229
1.39168
1.44884
1.53607
1.55086
1.50951
1.44752
1.45062
1.55196
1.4974
1.48093
1.99212
2.78757
3.11589
3.21544
3.29142
3.42988
3.64182
3.72825
3.73604
3.74443
3.84804
3.78228
3.82452
3.71448
3.75773
3.52357
3.44482
3.18042
3.1002
3.11953
3.32616
2.80619
1.74441
1.72554
1.65484
1.3337
0.906588
5.21511
5.59726
8.18243
9.28448
8.29957
7.61641
8.32841
9.11074
8.52657
7.40273
6.93462
8.06953
9.95816
11.0989
2.74308
3.82718
4.28779
3.96948
3.48179
3.29439
3.31048
3.6218
4.5008
5.51427
5.89897
5.36743
4.06641
3.54217
3.89311
4.32692
4.65405
5.05911
5.54536
5.92642
6.12465
6.08639
5.94803
5.62697
5.09192
4.51435
4.25414
4.21043
4.10835
3.50422
3.18585
3.59371
3.80934
3.88579
3.82425
3.52297
3.25799
3.22703
3.18636
3.11991
3.10452
3.19959
3.29708
3.36864
3.34586
3.31166
3.28639
3.20352
3.18058
3.20833
3.2675
3.2802
3.36596
3.35153
3.32799
3.28947
3.1172
3.00933
3.08574
3.44798
2.63275
2.66348
2.78087
2.81686
2.83907
2.80776
2.82801
2.77741
2.74425
2.72886
2.75833
2.85675
2.9226
2.80659
2.63847
2.48346
2.46675
2.48355
2.51646
2.51271
2.52101
2.48695
2.50182
2.58077
2.52386
2.6284
2.74118
2.92772
2.93872
2.89798
3.6692
3.58251
3.57371
3.46301
3.32522
3.35851
3.46807
3.43499
3.57487
3.74943
3.63343
3.70936
3.96295
4.01577
4.05727
4.0869
3.98119
3.77778
3.54274
3.27858
3.12571
3.14344
3.07439
2.79247
2.49126
2.40946
2.42361
2.45115
2.49332
2.57971
2.8637
2.76083
2.66101
2.64138
2.72719
2.8326
2.88176
2.88075
2.9075
2.9181
2.91247
3.00869
3.18907
3.41757
3.70693
4.16731
4.66834
5.00437
5.1034
5.16439
5.13639
4.9183
4.76618
4.5271
4.20094
3.83321
3.50557
3.37515
3.45843
3.70986
1.87169
2.24141
2.86688
2.85871
2.6252
2.19321
1.87895
1.75576
1.78502
1.94983
2.21251
2.48293
2.62659
2.80616
2.81053
2.82822
2.73071
2.58064
2.39815
2.19699
2.05214
1.84749
1.64812
1.54741
1.55914
1.62891
1.66292
1.6392
1.73959
2.10636
3.16033
3.11616
3.04653
2.9743
2.95272
2.922
2.88686
2.89975
2.73015
2.75101
2.58379
2.59307
2.56898
2.62812
2.60681
2.63149
2.77233
2.73617
2.70658
2.7371
2.6913
2.65424
2.69807
2.6879
2.64221
2.51305
2.48522
2.43753
2.38415
2.39689
2.50573
2.41503
2.31312
2.1947
2.08655
1.98687
1.90519
1.91401
1.84089
1.80233
1.80462
1.86342
1.84888
2.01463
2.00429
2.19119
2.2696
2.38546
2.50342
2.60938
2.83158
3.02606
3.03012
3.0247
3.10171
3.44938
3.16078
2.97704
2.9726
3.01353
3.05988
3.15566
2.872
2.60044
2.36606
2.23263
2.0661
1.89651
1.82542
1.68015
1.58667
1.5767
1.66149
1.62082
1.58218
1.52426
1.47514
1.57323
1.59979
1.71449
1.92177
2.17541
2.3738
2.44056
2.43709
2.52333
2.67406
2.63461
2.50541
2.46385
2.50468
2.19085
1.92808
1.7624
1.61833
1.47719
1.39191
1.33258
1.34707
1.33002
1.37251
1.31742
1.43562
1.36114
1.50652
1.47152
1.66282
1.73088
2.01729
2.26652
2.45397
2.69473
2.6695
2.76611
2.68482
2.53426
2.36041
2.27757
2.27964
2.35481
1.94689
1.86175
1.91246
2.22577
2.70742
3.15367
3.37285
3.60967
3.85928
3.84758
3.74752
3.61241
3.45817
3.14939
2.63109
2.18053
1.9903
1.77238
1.60223
1.59329
1.55989
1.52677
1.48995
1.51696
1.53668
1.54237
1.53982
1.48042
1.45005
1.45404
1.77855
1.65502
1.63342
2.38853
2.99737
3.16569
3.24583
3.4134
3.49666
3.64586
3.73839
3.82584
3.87297
3.89415
3.84192
3.90907
3.69544
3.7666
3.54151
3.42279
3.17577
3.07246
3.09704
3.29933
3.08762
1.82619
1.61712
1.49493
1.06055
0.799591
5.24989
6.2241
8.6307
8.30829
6.48215
6.16977
7.85056
9.30627
8.62754
7.50538
7.38224
8.76343
10.3205
10.4494
6.3402
3.63783
2.85863
3.82724
4.54695
4.32475
3.8857
3.69665
3.90829
4.71022
5.72532
6.28482
6.23356
5.65098
4.09819
3.55922
3.9966
4.36612
4.74556
5.2727
5.89335
6.35565
6.59025
6.55672
6.3598
5.94951
5.31342
4.71745
4.41471
4.28421
4.04766
3.4243
3.01615
2.97071
3.15782
3.52517
3.80593
3.88726
3.85164
3.57633
3.30875
3.2343
3.18924
3.1241
3.11381
3.21835
3.32854
3.37513
3.37316
3.29635
3.27313
3.20349
3.19434
3.21895
3.2794
3.29234
3.35135
3.37412
3.33298
3.26484
3.08234
2.97897
3.06919
3.40353
3.31326
2.98487
2.68267
2.62765
2.73883
2.76533
2.79003
2.75144
2.78981
2.77552
2.73623
2.68208
2.71809
2.82666
2.94321
2.85907
2.69341
2.56794
2.4539
2.40476
2.43268
2.50361
2.52738
2.5927
2.59862
2.50367
2.57126
2.62207
2.76838
2.94649
2.93351
2.83883
3.30696
3.50514
3.45557
3.4605
3.51514
3.43974
3.33911
3.34762
3.4074
3.43879
3.50983
3.64763
3.62388
3.63114
3.827
3.93951
3.94489
4.00464
3.89964
3.60074
3.45395
3.18143
3.12238
3.06401
2.96992
2.70655
2.46814
2.39747
2.40314
2.43476
2.52796
2.5803
2.7915
2.85281
2.90904
2.85667
2.72413
2.6298
2.70178
2.81609
2.88392
2.94598
3.01064
2.98323
2.93982
2.95956
3.15637
3.36245
3.63837
3.9817
4.44936
4.88221
5.09448
5.0472
5.0795
4.87228
4.7259
4.47798
4.11681
3.73583
3.43698
3.32405
3.39638
3.55949
2.71619
2.05832
2.09607
2.60338
2.95107
2.95492
2.74307
2.34892
1.94298
1.76235
1.72717
1.88541
2.12407
2.31353
2.53069
2.71779
2.69709
2.70912
2.60476
2.53645
2.33741
2.18926
2.02282
1.80868
1.62921
1.54131
1.56903
1.64952
1.67651
1.89429
2.32331
2.61895
3.08109
3.14589
3.24798
3.1963
3.06318
2.96192
2.91919
2.89678
2.84326
2.88968
2.74331
2.75359
2.59006
2.62805
2.58392
2.63654
2.66657
2.68432
2.74627
2.76641
2.80486
2.73048
2.68058
2.73962
2.77418
2.72171
2.69408
2.57791
2.40563
2.35882
2.32938
2.26344
2.33031
2.43549
2.33363
2.31984
2.25151
2.14532
2.04385
1.95211
1.8669
1.89082
1.79444
1.82905
1.75116
1.85015
1.81588
1.98608
1.99808
2.20341
2.2252
2.41492
2.46231
2.62267
2.82984
3.01896
3.06543
3.08093
3.35216
3.32309
2.99768
2.86998
2.80561
2.80405
2.72484
2.54571
2.89714
2.87913
2.6816
2.46938
2.31214
2.15148
1.9674
1.89497
1.72747
1.57333
1.60215
1.53225
1.45157
1.45998
1.52056
1.53343
1.41252
1.49902
1.62808
1.65422
1.89587
2.17394
2.31032
2.40196
2.49687
2.66252
2.76803
2.71042
2.55347
2.4367
2.33853
2.29676
2.20864
2.01384
1.85707
1.72176
1.58856
1.45358
1.38509
1.32674
1.34701
1.34433
1.33659
1.34889
1.41914
1.41434
1.53049
1.48494
1.65002
1.77676
1.9615
2.34278
2.45444
2.65469
2.71233
2.78634
2.72315
2.60396
2.40753
2.24671
2.22778
2.19749
2.11787
2.06055
1.96976
1.87443
1.89928
2.25177
2.65483
3.11092
3.43136
3.52511
3.72103
3.75721
3.68273
3.58958
3.42382
3.12775
2.63767
2.13118
1.95057
1.76349
1.58367
1.57966
1.57676
1.55773
1.56275
1.54941
1.52985
1.51868
1.47933
1.45373
1.45463
1.48793
2.01197
2.19672
2.25056
1.98551
1.86234
2.61757
3.11753
3.21314
3.26231
3.43584
3.5867
3.61026
3.78212
3.88042
3.83785
3.91551
3.79624
3.91256
3.69465
3.73751
3.50539
3.41527
3.11093
3.05667
3.07792
3.27595
3.16959
1.95067
1.33087
1.20319
1.00724
1.0571
3.77549
4.0016
5.38611
6.76153
8.49154
6.84715
5.06479
5.29238
7.64414
9.49006
9.02325
7.99248
8.2683
9.72702
10.605
9.34731
5.27347
3.28023
2.98825
3.94494
4.73745
4.83846
4.6022
4.61861
5.12488
5.94748
6.5104
6.45112
6.09138
5.71157
4.15469
3.58479
3.99903
4.34714
4.74849
5.3032
6.00286
6.49392
6.7128
6.68364
6.50979
5.98705
5.37573
4.82745
4.54071
4.32045
3.9611
3.38752
3.00004
2.911
3.06871
3.35148
3.69489
3.83792
3.85241
3.63252
3.37673
3.23264
3.14531
3.12431
3.12805
3.23215
3.35117
3.40465
3.38796
3.32211
3.25713
3.21647
3.2171
3.23451
3.276
3.34451
3.34327
3.36786
3.32494
3.23538
3.04477
2.99097
3.14699
3.49947
3.36721
3.04171
2.71735
2.62662
2.68068
2.69916
2.76347
2.72748
2.76497
2.74199
2.72358
2.67546
2.69916
2.78697
2.94251
2.92979
2.70511
2.58212
2.5859
2.58413
2.49959
2.4371
2.51399
2.47879
2.44822
2.52589
2.6323
2.74282
2.8703
2.94602
2.87503
2.92887
3.30984
3.50766
3.35436
3.35627
3.47667
3.47359
3.36846
3.28643
3.39148
3.43145
3.43757
3.5139
3.64384
3.46576
3.70721
3.729
3.70318
3.75645
3.63689
3.38428
3.27855
3.1126
3.05005
3.03233
2.94217
2.69895
2.52292
2.4498
2.42824
2.46272
2.56854
2.63437
2.81462
2.88569
2.96516
3.02709
2.88445
2.73519
2.73038
2.80163
2.94801
3.11962
3.22691
3.20088
2.98859
2.95107
3.07572
3.27133
3.47831
3.83847
4.18678
4.52988
4.76184
4.96235
4.84362
4.77145
4.55249
4.30157
3.9579
3.60155
3.36187
3.2831
3.40534
3.51038
2.67745
2.10862
2.34551
2.79078
3.05242
3.04373
2.94828
2.5771
2.1109
1.78613
1.72109
1.80261
1.98372
2.1717
2.33472
2.48425
2.58422
2.58584
2.53942
2.40304
2.25219
2.10699
1.91322
1.72639
1.60068
1.57386
1.60276
1.70045
1.90942
2.69725
3.0258
3.06706
3.21502
3.35185
3.494
3.33461
3.12283
2.96693
2.90214
2.88043
2.82064
2.86273
2.7583
2.72392
2.63348
2.68484
2.64842
2.66353
2.63551
2.71708
2.81122
2.80193
2.75982
2.75229
2.77788
2.762
2.77329
2.77139
2.6693
2.58349
2.52643
2.43893
2.39724
2.35282
2.35014
2.35657
2.32343
2.30015
2.23846
2.12001
2.04036
1.94061
1.86709
1.82513
1.81983
1.78913
1.76483
1.88141
1.81882
1.99206
2.00287
2.2261
2.2338
2.43201
2.48459
2.64753
2.83559
3.02857
3.10134
3.18002
3.47853
3.26329
3.09518
2.9961
2.90898
2.83875
2.85636
2.8744
2.95352
2.85362
2.70648
2.51273
2.28486
2.07105
2.02165
1.81362
1.66498
1.53714
1.51833
1.39386
1.44025
1.4324
1.40183
1.45494
1.40118
1.43185
1.57075
1.72465
1.86222
2.122
2.28184
2.30905
2.45056
2.69255
2.84903