/*--------------------------------*- C++ -*----------------------------------*\
| =========                 |                                                 |
| \\      /  F ield         | OpenFOAM: The Open Source CFD Toolbox           |
|  \\    /   O peration     | Version:  2.1.1                                 |
|   \\  /    A nd           | Web:      www.OpenFOAM.org                      |
|    \\/     M anipulation  |                                                 |
\*---------------------------------------------------------------------------*/
FoamFile
{
    version     2.0;
    format      ascii;
    class       volScalarField;
    location    "0.006500000";
    object      T;
}
// * * * * * * * * * * * * * * * * * * * * * * * * * * * * * * * * * * * * * //

dimensions      [0 0 0 1 0 0 0];

internalField   nonuniform List<scalar> 
12384
(
3056.82
3047.22
3045.09
3052.48
3054.71
3059.86
3062.47
3068.46
3070.82
3074.7
3076.2
3076.71
3079.47
3077.44
2808.58
2840.65
2857.91
2866.04
2865.94
2859.47
2854.95
2853.12
2855.17
2857.91
2863.68
2869.49
2876.47
2885
2892.14
2899.34
2905.2
2909.9
2911.16
2912.06
2907.57
2906.77
2900.24
2900.92
2895.22
2889.92
2882.53
2867.84
2737.29
2673.09
2920.81
2956.55
2963.79
2954.79
2949.97
2942.8
2938.94
2938.34
2936.95
2936
2934.58
2933.18
2931.77
2928.55
2926.94
2925.54
2923.95
2922.06
2921.93
2921.63
2923.09
2921.81
2924.58
2929.26
2931.42
2934.25
2942.08
2965.18
2970.97
2974.58
2910.43
2895.1
2884.81
2879.76
2876.61
2875.55
2877.75
2877.27
2880.69
2883.63
2888.45
2892.21
2895.58
2897.93
2899.2
2899.06
2896.51
2894.65
2893.39
2894.54
2892.61
2897.65
2899.1
2907.74
2910.28
2912.46
2916.76
2914.32
2914.39
2916.06
2883.79
2887.3
2890.77
2893.02
2893.74
2892.16
2890.87
2882.75
2882.38
2869.75
2858.92
2861.83
2853.03
2857.01
2856.09
2862.81
2868.61
2872.35
2878.04
2879.95
2870.87
2853.4
2854.46
2853.81
2854.01
2849.81
2849
2846.3
2844.4
2841.61
2770.71
2758.02
2758.38
2765.39
2768.4
2765.84
2764.27
2763.62
2764.49
2766.69
2768.79
2770.64
2771.9
2772.33
2771.1
2769.33
2769.44
2768.4
2767.53
2769.78
2768.25
2772.12
2779.55
2779.76
2790.38
2795.16
2810.41
2833.08
2837.95
2831.06
2748.15
2751.75
2765.09
2776.66
2785
2782.64
2781.61
2778.5
2778.49
2776.81
2777.55
2774.47
2775.68
2773.64
2775.22
2774.74
2775.98
2778.84
2782.6
2789.34
2791.42
2794.1
2795.2
2785.32
2686.97
2648.18
2644.91
2649.15
2651.22
2649.55
2756.93
2744.52
2744.89
2753.21
2762.16
2767.51
2769.63
2772.16
2768.48
2773.48
2765.29
2768.01
2767.55
2767.29
2767.91
2769.7
2771.8
2774.15
2776.21
2775.82
2766.91
2770.19
2775.96
2775.56
2772.55
2766.36
2765.14
2763.15
2770.07
2773.48
2884.55
2877.58
2875.8
2875.71
2874.92
2873.35
2869.8
2867.27
2865.04
2864.79
2862.48
2869.77
2868.56
2879.87
2884.14
2891.89
2897.53
2899.74
2865.23
2740.63
2722.58
2745.55
2755.15
2758.1
2761.42
2761.34
2758.09
2745.55
2724.23
2705.19
2913.97
2898.11
2903.08
2907.43
2913.36
2919.18
2919.56
2917.59
2915.43
2908.72
2903.52
2906.53
2897.32
2896.09
2899.04
2899.86
2901.22
2902.56
2900.76
2893.82
2847.72
2809.57
2806.63
2807.84
2808.05
2810.84
2812.48
2813.4
2813.26
2811.03
2823.83
2830.64
2834.6
2837.69
2840.44
2840.35
2839.56
2838.41
2840.59
2836.93
2844.23
2838.06
2853.21
2850.81
2865.92
2866.68
2876.76
2878.64
2871.18
2834.36
2814.01
2805.6
2805.47
2805.62
2810.99
2813.8
2817.71
2817.99
2816.31
2818.79
2826.84
2830.51
2833.21
2840.99
2866.65
2881.88
2877.75
2872.61
2870.55
2869.16
2868.44
2865.03
2865.4
2865.02
2863.93
2861.67
2860.12
2858.43
2857.1
2856.81
2854.75
2851.97
2852.92
2849.35
2848.13
2845.75
2846.4
2845.01
2843.04
2834.53
2784.3
2781.15
2789.69
2820.78
2872.06
2685.29
2678.05
2773.29
2616.38
2646.06
2660.84
2666.71
2670.01
2672.36
2673.82
2680.52
2682.03
2693.66
2701.61
2714.31
2727.29
2743.59
2750.36
2738.66
2705.49
2658.64
2612.25
2580.84
2581.17
2695.48
3003.07
3009.29
3020.73
3024.59
3024.3
3029.85
3036.68
3050.26
3060.38
3073.98
3081.69
3084.66
3082.93
3079.91
2809.01
2851.95
2873
2876.42
2860.99
2849.08
2848.29
2856.4
2866.94
2878.68
2888.15
2898.14
2911.05
2925.82
2939.84
2951.38
2955.91
2958.21
2959.62
2959.36
2959.8
2958.97
2955.99
2946.34
2932.56
2914.31
2898.53
2880.64
2814.36
2735.55
2924.62
2962.32
2961.6
2951.23
2948.22
2945.85
2946.29
2950.76
2946.7
2942.47
2937.21
2934.05
2932.09
2931.24
2931.69
2931.86
2932.48
2933.58
2933.28
2930.61
2930.16
2933.15
2930.34
2932.44
2934.54
2935.19
2938.3
2952.52
2968.37
2973.26
2909.36
2889.87
2879.52
2873.08
2871.69
2870.9
2873
2874.07
2877.5
2881.28
2886.05
2891.4
2896.37
2900.65
2903.54
2904.72
2904.39
2902.2
2900.71
2899.11
2901.98
2903.76
2906.1
2906.34
2909.58
2911.29
2914.97
2916.13
2915.48
2917.08
2880.81
2885.1
2890.9
2893.49
2894.83
2886.46
2877.38
2870.4
2861.2
2850.2
2845.9
2844.62
2836.15
2839.17
2844.02
2845.51
2851.78
2858.92
2864.83
2871.88
2872.89
2861.16
2853.38
2857.81
2857.65
2853.84
2847.99
2842.9
2839.03
2840.32
2770.39
2758.18
2763.05
2767.07
2761.33
2754.89
2755.18
2760.04
2766.38
2772.62
2778.65
2783.12
2785.99
2787.47
2787.97
2787.87
2787.39
2785.47
2786.05
2785.92
2789.04
2787.29
2791.01
2788.12
2792.51
2793.75
2802.56
2816.94
2828.92
2823.07
2749.56
2762.36
2776.42
2779.97
2773.05
2763.8
2761.77
2765.42
2767.83
2770.53
2773.15
2774.83
2773.94
2775.45
2772.63
2773
2772.6
2771.87
2774.64
2779.63
2783.76
2790.47
2793.39
2792.17
2774.24
2665.29
2638.46
2670.5
2693.42
2674.86
2738.35
2744.39
2765.57
2777.68
2782.82
2785.93
2782.88
2782.37
2778.32
2778.09
2773.9
2773.86
2771.71
2772.26
2772.99
2773.59
2774.27
2775.7
2776.53
2776.86
2772.68
2765.17
2773.43
2772.27
2761.33
2744.55
2740.09
2735.39
2746.65
2762.22
2877.39
2875.79
2878.05
2880.83
2882.27
2884.34
2884.86
2883.8
2883.07
2882.1
2882.64
2881.78
2884.47
2884.87
2886.7
2890.78
2893.33
2899.4
2895.11
2819.36
2733.26
2770.24
2780.93
2778.98
2780.92
2790.5
2804.77
2811.29
2800.55
2778.71
2916.12
2897.28
2905.14
2915.72
2924.59
2926.41
2927.6
2925.06
2920.34
2920.8
2922.91
2913.36
2913.28
2914.48
2912.62
2909.55
2907.06
2904.02
2904.12
2899.55
2876.23
2828.48
2805.7
2805.26
2804.32
2805.84
2812.72
2820.57
2825.41
2824.19
2821.77
2827.56
2834.58
2839.42
2842.84
2845.53
2849.15
2851.65
2851.22
2857.09
2855.75
2865.31
2862.17
2867.04
2872.13
2869.12
2877.24
2877.25
2881.44
2859.72
2811.65
2794.81
2796.29
2801.25
2813.57
2825.32
2834.36
2833.19
2821.69
2812.84
2829.48
2832.07
2840.3
2860.03
2876.27
2877.89
2873.13
2874.33
2875.98
2876.43
2876.73
2877.56
2874.23
2870.13
2865.58
2860.94
2855.11
2850.27
2847.53
2845.59
2845.12
2845.72
2844.94
2840.83
2842
2839.85
2839.89
2841.24
2842.18
2836
2736.62
2724.93
2714.4
2729.51
2855.11
2774.32
2798.71
2647.95
2630.52
2652.38
2658.55
2659.93
2659.83
2660.21
2659.47
2663.45
2662.34
2666.26
2666.78
2676.8
2691.32
2723.17
2770.16
2786.95
2745.4
2667.98
2605.92
2578.83
2583.01
2723.12
2997.79
3005.49
2987.09
2976.09
2976.67
2986.82
2997.82
3007.4
3020.58
3043.99
3067.45
3081.82
3086.82
3081.1
2811.89
2863.85
2886.58
2872.01
2848.42
2842.39
2851.84
2862.05
2867.15
2872.08
2875.84
2885.13
2901.26
2924.75
2947.51
2955.65
2959.41
2961.07
2961.14
2960.99
2962.81
2963.2
2963.32
2962.29
2959.38
2939.92
2916.29
2893.93
2853.86
2777.6
2927.02
2964.08
2960.86
2954.95
2953.3
2954.93
2951.67
2958.66
2949.98
2943.81
2936.02
2933.14
2933
2936.93
2942.43
2947.96
2954.7
2956.79
2957.26
2957.43
2953.77
2952.34
2949.2
2944.62
2942.54
2940.2
2938.33
2943.21
2963.68
2972.08
2906.13
2884.31
2874.09
2870.58
2871.05
2871.85
2873.06
2874.02
2876.36
2878.22
2881.2
2885.57
2892
2898.51
2903.65
2905.89
2905.89
2903.13
2901.33
2901.85
2898.92
2902.25
2905.84
2908.52
2908.1
2909.01
2909.69
2913.47
2916.51
2918.14
2879.43
2888.62
2892.43
2890.54
2885.36
2875.21
2865.46
2859.73
2849.15
2844.19
2841.45
2833.72
2829.92
2830.65
2831.08
2836.92
2839.36
2844.22
2851.85
2859.23
2865.18
2864.75
2856
2856
2858.26
2852.6
2847.86
2839.03
2832.54
2827.51
2769.54
2760.08
2765.02
2761.13
2748.73
2751.34
2758.66
2766.95
2774.19
2781.66
2787.04
2790.61
2792.93
2795.29
2796.38
2798.7
2798.03
2798.13
2800.39
2798.77
2804.74
2799.89
2803.3
2798.36
2797.26
2794.82
2798.41
2806.9
2819.13
2820.95
2755.69
2774.74
2779.06
2768.35
2746.91
2748.45
2760.68
2773.07
2784.78
2790.3
2792.17
2791.69
2792.34
2788.03
2786.69
2783.09
2782.24
2780.15
2776.43
2776.11
2779.74
2787.62
2787.49
2791.86
2786.6
2746.64
2658.27
2692.33
2741.83
2713.56
2734.6
2764.67
2782.3
2787.68
2787.65
2787.51
2781.92
2783.49
2779.71
2776.42
2774.86
2769.93
2770.58
2770.46
2771.33
2772.91
2773.77
2774.56
2774.9
2775.69
2774.86
2766.2
2768.53
2772.58
2763.87
2749.22
2742.05
2726.32
2734.46
2751.98
2874.07
2878.08
2881.22
2887.05
2893.74
2899.63
2906.03
2904.16
2904
2904.19
2901.73
2903.81
2902.87
2907.4
2900.22
2897.43
2895.68
2896.57
2900.86
2876.41
2770.97
2769.4
2780.32
2772.16
2770.82
2780.42
2810.87
2834.2
2835.2
2814.43
2920.37
2899.81
2914.47
2924.95
2927.9
2928.91
2926.76
2925.93
2927.45
2921.97
2917.05
2916.44
2917.21
2912.06
2910.15
2909.58
2915.73
2916.44
2904.46
2901.06
2893.2
2860.46
2823.87
2803
2796.78
2798.71
2806.35
2820.75
2832.57
2835.49
2821.55
2829.95
2839.81
2845.76
2851.07
2857.6
2865.84
2868.96
2877.36
2878.9
2885.71
2883.55
2891.4
2888.91
2891.85
2887.19
2883
2879.16
2883.14
2876.59
2828.8
2791.41
2791.35
2796.83
2815.58
2836.08
2846.98
2846.03
2837.25
2814.33
2832.3
2837.98
2854.55
2870.83
2877.1
2875.71
2880.16
2885.98
2895.05
2901.22
2903.55
2898.87
2892.68
2884.41
2873.31
2861.35
2852.59
2846.89
2843.94
2846.3
2850.93
2850.43
2848.91
2845.56
2843.75
2835.48
2832.71
2835.42
2839.42
2835.53
2782.79
2763.41
2742.65
2777.13
2874.98
2796.9
2655
2631.1
2643.94
2657.62
2662.02
2667.5
2671.34
2675.78
2676.44
2674.42
2668.74
2669.52
2661.66
2664.14
2660.38
2670.15
2710.34
2788.58
2773.26
2681.36
2604.57
2584.65
2601.44
2797.49
2990.08
2962.08
2932.92
2948.41
2978.43
3006.44
3015.63
3016.12
3011.46
3017.13
3044.43
3073.97
3085.86
3082.82
2814.35
2876.14
2891.6
2864.12
2839.65
2839.63
2844.79
2842.89
2835.89
2831.54
2835.98
2853.2
2881.59
2917.58
2941.35
2953.21
2949.19
2946.25
2945.55
2945.36
2949.27
2950.54
2957.92
2959.27
2960.64
2950.29
2933.68
2907.69
2873.08
2805.39
2928.99
2965.52
2965.35
2961.93
2963.6
2960.58
2961.39
2951.96
2945.72
2941.94
2932.62
2933.08
2937.92
2948.15
2960.53
2968.25
2965.81
2962.74
2962.73
2963.73
2965.32
2967.28
2968.99
2962.61
2956.45
2948.39
2942.03
2940.43
2954.83
2970.19
2905.12
2880.1
2871.6
2870.09
2872.63
2876.05
2877.86
2879.54
2880.25
2879.38
2878.67
2879.43
2885.96
2895.99
2903.96
2906.24
2903.89
2898.46
2888.82
2882.08
2881.94
2882.82
2890.63
2900.32
2908.7
2907.41
2908.37
2911.08
2915.64
2917.5
2888.8
2892.89
2891.09
2887.23
2874.32
2864.84
2859.13
2852.98
2844.49
2846.58
2835.07
2829.05
2829.72
2825.76
2826.26
2826.05
2831.9
2835.35
2839.54
2848.12
2855.96
2862.1
2856.62
2853.13
2856.51
2849.23
2839.54
2840.46
2830.03
2819.72
2768.78
2761.43
2762.69
2751.45
2746.73
2753.96
2761.73
2769.65
2776.75
2782.09
2786.16
2789
2792.03
2794.52
2798.3
2803.51
2804.79
2809.82
2814.06
2811.85
2815.51
2811.73
2815.15
2808.76
2803.86
2798.82
2796.18
2801.57
2811.44
2818.18
2764.63
2775.87
2774.97
2735.07
2738.42
2755.04
2777.67
2792.04
2801.8
2800.81
2800.37
2796.1
2790.13
2790.81
2788.22
2785.8
2782.52
2782.91
2782.97
2778.91
2778.24
2781.61
2785.61
2787.72
2790.23
2779.3
2723.12
2712.95
2762.36
2742.72
2766.3
2783.18
2787.19
2787.7
2786.02
2785.9
2782.39
2785.37
2776.57
2773.41
2768.33
2768.73
2768.52
2768.84
2768.96
2770.92
2772.98
2773.42
2773.27
2773.69
2774
2769.65
2763.65
2768.87
2768.4
2760.03
2744.59
2733.04
2741.46
2752.35
2876.81
2879.04
2885.32
2895.26
2908.93
2910.61
2912.18
2911.67
2912.7
2912.32
2914.6
2912.03
2915.42
2914.34
2912.59
2912.63
2902.94
2899.66
2900.33
2895.6
2820.5
2770.17
2781.26
2776.36
2770.82
2780.36
2821.21
2852.35
2860.77
2833.17
2920.84
2909.04
2921.72
2928.18
2928.1
2925.89
2930.84
2928.87
2926.92
2920.07
2921.22
2919.82
2911.45
2908.17
2909.51
2906.27
2906.96
2912.22
2914.63
2901.92
2897.04
2884.51
2850.98
2817.32
2801.4
2799.38
2807.21
2823.47
2837.37
2843.64
2825.39
2838.67
2846.42
2856.37
2865.62
2874.51
2884.13
2890.49
2899.3
2906.33
2909.86
2912.49
2919.83
2917.77
2916.97
2905.84
2902.14
2886.46
2885.62
2882.95
2851.36
2801.32
2791.7
2796.04
2822.11
2844.49
2852.27
2850.26
2842.77
2819.94
2833.39
2845.62
2864.17
2875.16
2877.46
2881.78
2890.94
2905.41
2918.3
2922.82
2923.07
2917.92
2908.39
2894.55
2879.06
2864.17
2851.47
2844.27
2845.45
2857.13
2864.2
2867.25
2873.54
2868.02
2855.4
2840.85
2832.59
2832.92
2836.72
2834.37
2796.83
2793.7
2824.55
2854.84
2822.61
2672.09
2623.74
2639.26
2655.05
2667.29
2680.35
2694.3
2705.39
2708.31
2707.19
2704.14
2689.87
2682.99
2672.14
2669.82
2662
2659.67
2660.35
2737.94
2804.98
2744.65
2652.68
2619.47
2669.93
2888.09
2953.2
2910.49
2921.89
2983.51
3031.41
3053.31
3056.68
3053.73
3033.14
3018.96
3032.03
3062.63
3084.11
3083.27
2820.92
2886.51
2895.81
2857.2
2832.95
2828.92
2823.38
2813.76
2806.35
2807.54
2829.31
2857.2
2887.28
2921.85
2937.85
2938.55
2930.85
2927.26
2928.5
2932.78
2937.2
2939.42
2947.55
2952.41
2956.11
2951.71
2939.89
2914.88
2882.55
2819.53
2929.65
2967.29
2970.11
2970.02
2967.61
2970.73
2960.85
2943.97
2942.17
2940.03
2932.35
2934.79
2946.24
2963.95
2965.76
2962.68
2958.85
2958.45
2958.25
2957.98
2960.82
2961.52
2966.47
2971.01
2969.92
2959.84
2947.81
2940.59
2949.54
2967.6
2902.96
2878.37
2870.26
2871.76
2877.69
2884.39
2889.69
2891.6
2892.87
2891.41
2884.86
2876.73
2876.53
2894.98
2904.04
2903.68
2900.8
2886.02
2875.88
2868.74
2865.12
2866.39
2874.37
2886.07
2899.28
2906.58
2904.96
2907.52
2912.38
2916.15
2893.7
2891.93
2887
2878.76
2867.62
2860.79
2856.25
2850.5
2844.45
2844.76
2829.3
2827.84
2823.26
2819.51
2819.27
2819.23
2819
2826.58
2833.09
2838.52
2846.97
2853.24
2854.24
2850.4
2853.64
2846.93
2838.03
2833.94
2831.3
2817.72
2767.23
2762.47
2758.11
2743.45
2747.32
2755.25
2760.08
2768.89
2774.72
2778.65
2782.06
2786.18
2788.98
2793.09
2801.72
2807.19
2817.06
2825.01
2830.6
2828.44
2831.3
2822.99
2825.4
2816.91
2810.63
2802.62
2796.64
2797.12
2806.26
2813.72
2772.02
2775.44
2750.59
2725.05
2743.41
2769.51
2789.83
2800.27
2799.96
2800.73
2795.36
2788.93
2789.47
2783.64
2782.72
2783.33
2783.5
2778.46
2780.23
2781.22
2780.58
2780.55
2784.21
2786.15
2787.87
2785.48
2771.48
2749.42
2774.92
2770.1
2787.32
2787.33
2786.42
2787.44
2784.94
2786.34
2784.05
2779.65
2769.62
2771.66
2763.43
2763.48
2761.15
2762.78
2765.52
2766.83
2769.38
2772.26
2773.12
2772.74
2773.85
2772.12
2763.53
2762.71
2767.31
2755.56
2736.55
2746.15
2764.14
2762.51
2874.35
2878.93
2890.02
2904.01
2911.12
2913.46
2915.17
2916.97
2916.11
2912.24
2906.98
2913.51
2915.36
2921.44
2919.22
2917.16
2913.68
2906.13
2902.52
2900.88
2857.22
2782.6
2777.14
2777.71
2775.86
2799.11
2842.35
2869.75
2880.32
2850.81
2927.59
2917.23
2925.4
2926.22
2924.01
2925.84
2929.09
2927.63
2923.87
2923.77
2918.78
2906.85
2903.85
2907.57
2912.25
2912.12
2906.44
2903.96
2910.06
2910.66
2899.23
2891.83
2875.02
2842.7
2816.52
2810.76
2817.95
2832.28
2842.95
2847.89
2836.18
2846.69
2857.27
2869.51
2882.3
2891.88
2904.69
2912.56
2919.57
2926.86
2927.7
2931.57
2929.05
2931.53
2931.97
2930.11
2920.48
2901.24
2892.8
2884.94
2868.26
2821.46
2797.43
2804.75
2831.07
2850.34
2856.56
2852.32
2843.1
2826.89
2834.64
2852.7
2869.84
2875.72
2880.1
2889.27
2904.54
2922.71
2935.19
2940.92
2938.24
2931.91
2920.11
2905.07
2885.57
2865.33
2848.72
2842.17
2852.46
2867.37
2879.92
2899.22
2910.8
2901.97
2881.8
2855.57
2836.34
2832.59
2835.17
2833.24
2800.14
2813.88
2862.28
2828.56
2722.87
2629.97
2630.91
2650.82
2669.96
2689.52
2710.85
2731.83
2748.01
2759.28
2753.28
2738.97
2716.29
2698.11
2677.68
2672.89
2666.74
2664.74
2649.45
2673.7
2800.72
2801.83
2739.48
2705.74
2781.8
2916.97
2913.36
2893.93
2958.53
3036.25
3060.94
3066.42
3065.93
3062.62
3046.53
3026.07
3023.41
3054.92
3082.83
3084.09
2823.46
2896.06
2901.22
2854.98
2823.21
2813
2804.94
2799.91
2802.38
2830.14
2873.27
2899.99
2909.98
2929.95
2931.73
2922.74
2917.99
2919.56
2926.83
2937.45
2945.42
2947.55
2949.8
2949.96
2954.82
2950.33
2942.14
2918.3
2887.09
2826.8
2926.7
2969.16
2975.48
2977.19
2975.14
2973.8
2950.88
2935.57
2937.58
2939.45
2932.42
2937.26
2957.84
2965.11
2962.01
2958.27
2957.15
2956.79
2954.87
2955.49
2956.54
2959.37
2961.9
2965.63
2971.46
2970.14
2954.62
2941.16
2946.6
2965.25
2903.51
2877.71
2871.73
2873.05
2883.23
2884.46
2892.46
2902.55
2904.98
2905.52
2896.97
2880.54
2871.74
2892.97
2900.77
2901.26
2892.31
2877.8
2864.5
2856.61
2853.3
2857.04
2864.77
2874.1
2890.58
2902.89
2903.85
2907.08
2911.51
2916.13
2892.03
2889.34
2887.76
2874.77
2864.84
2858.56
2855.59
2849.93
2841.66
2839.45
2826.76
2822.06
2818.89
2815.44
2817.06
2817.48
2816.21
2817.64
2824.49
2831.92
2839.69
2845.82
2849.86
2848.52
2849.85
2848.62
2836.26
2830.45
2834.05
2819.33
2767.99
2762.13
2754.77
2741.42
2745.94
2753.64
2758.76
2764.84
2769.91
2773.67
2777.64
2781.69
2785.88
2792.97
2802.07
2812.23
2829.39
2841.17
2849.02
2845.47
2846.48
2835.08
2832.95
2823.41
2815.98
2805.05
2796.04
2794.39
2800.84
2810.39
2771.61
2767.39
2725.14
2726.48
2749.23
2775.08
2793.53
2797.28
2797.45
2797.86
2790.39
2788.13
2778.18
2774.77
2771.21
2772.05
2775.94
2780.02
2780.61
2779.54
2781.44
2781.64
2783.67
2785.3
2787.53
2788.72
2780.76
2775.66
2778.75
2781.85
2789.52
2785.74
2785.76
2785.97
2784.2
2787.6
2778.03
2773.46
2768.38
2759.9
2751.52
2747.87
2746.85
2750.06
2756.22
2763.11
2765.99
2769
2771.29
2771.84
2773.52
2773.82
2766.13
2759.05
2760.08
2747.18
2739.37
2770.36
2793.27
2780.77
2871.94
2880.73
2894.55
2908.97
2911.47
2914.29
2916.59
2910.47
2903.39
2898.52
2900.48
2896.28
2903.22
2911.56
2923.17
2922.15
2916.86
2917.05
2905.87
2903.35
2880.4
2807.62
2779.96
2778.63
2790.14
2833.18
2868.19
2882.48
2886.21
2864.04
2923.75
2919.37
2925.31
2923.22
2922.06
2928.59
2927.39
2924.74
2922.55
2913.31
2900.13
2899.26
2896.14
2890.77
2891.43
2900.83
2910.7
2906.71
2903.16
2908.92
2904.79
2894.23
2885.51
2862.28
2836.71
2827.55
2829.28
2843.63
2849.57
2850.16
2847.03
2855.75
2870.68
2883.82
2894.7
2909.3
2922.56
2926.98
2935.23
2917.98
2915.36
2908.67
2920.01
2923.12
2945.45
2933.61
2939.62
2914
2901.28
2888.06
2877.51
2841.66
2813.68
2816.01
2836.43
2853.82
2859.9
2853.17
2843.46
2833.76
2836.23
2856.41
2871.06
2877.52
2882.93
2896.19
2918.47
2937.07
2950.07
2954.11
2956.5
2946.08
2929.6
2911.36
2892.45
2866.74
2846.33
2842.85
2856.9
2873.48
2897.95
2925.89
2933.24
2929.27
2904.29
2864.66
2839.12
2834.11
2835.42
2831.91
2800.61
2813.01
2845
2766.23
2655.79
2618.63
2639.47
2662.52
2686.43
2715.86
2751.4
2786.01
2812
2819.34
2808.19
2786.26
2748.68
2715.61
2684.23
2672.91
2665.63
2667.77
2655.8
2643.84
2745.71
2842.8
2811.69
2807.74
2884.51
2753.15
2886.97
2901.58
3009.29
3059.41
3062.19
3054.81
3057.68
3063.52
3047.9
3027.91
3022.9
3053.85
3083.14
3083.05
2830.82
2905.45
2911.74
2858.05
2819.17
2806.16
2799.91
2803.15
2839.32
2897.64
2939.66
2944.05
2933.41
2931.06
2922.6
2911.79
2911.42
2923.99
2941.86
2953.66
2961.9
2964.76
2962.67
2958.04
2953.31
2948.4
2939.15
2918.82
2888.2
2828.86
2926.27
2967.23
2979.22
2981.74
2978.34
2977.34
2945.2
2923.74
2930.37
2938.73
2932.41
2940.97
2966.49
2963.03
2959.42
2958.03
2955.65
2950.25
2946.35
2946.85
2950.3
2954.21
2960.4
2961.71
2967.29
2969.41
2961.01
2941.73
2943.92
2963.56
2904.88
2879.73
2871.34
2874.92
2882.19
2885.63
2894.16
2907.94
2913.34
2913.98
2909.39
2889.35
2869.62
2887.71
2898.15
2898.74
2888.29
2872.42
2862.09
2856.29
2854
2851.38
2859.35
2867.93
2883.76
2899.38
2903.26
2903.34
2908.2
2913.03
2889.77
2885.58
2883.65
2874.22
2863.03
2855.54
2856.94
2847.29
2839.28
2839.4
2822.75
2820.2
2819.86
2818.41
2812.94
2812.96
2816.75
2818.5
2821.47
2826.87
2836.1
2841.48
2845.75
2844.72
2846.87
2843.11
2834.56
2829.92
2831.13
2821.76
2765.38
2761.66
2748.6
2741.85
2745.41
2751.03
2756.9
2760.98
2764.74
2768.48
2772.88
2777.85
2784.47
2790.38
2801.54
2814.96
2836.73
2849.41
2858.78
2856.36
2855.7
2844.96
2839.18
2828.63
2818.17
2805.33
2795.33
2791.27
2797.54
2806.26
2771.65
2754.43
2718.16
2727.23
2749.06
2775.77
2798.27
2795.63
2800.36
2794.38
2787.69
2784.35
2774.4
2774.79
2771.61
2768.22
2768.53
2773.54
2778.82
2779.86
2781.14
2782.23
2786.46
2784.7
2787.64
2789.27
2786.08
2782.15
2783.12
2789.54
2787.56
2783.59
2783.85
2783.93
2784.57
2784.82
2773.87
2774.33
2758.74
2753.32
2747.29
2743.95
2739.23
2740.23
2746.35
2756.48
2763.55
2768.81
2770.52
2771.79
2774.54
2775.4
2769.07
2760.1
2753.46
2737.44
2766.79
2808.19
2819.67
2801.49
2871.12
2882.1
2895.39
2907.95
2909.76
2913.62
2914.99
2906.54
2898.35
2895.4
2888.72
2893.08
2891.42
2904.55
2910.37
2924.89
2920.27
2919.43
2908.88
2905.48
2891.61
2833.02
2791.09
2786.29
2816.45
2867.4
2882.55
2885.13
2884.83
2870.69
2922.02
2918.88
2918.86
2917.94
2917.79
2925.23
2923.72
2922.15
2915.88
2906.84
2897.31
2882.66
2875.64
2875.06
2877.12
2880.91
2895.48
2910.06
2906.62
2903.2
2907.49
2898.43
2890.22
2875.02
2852.74
2839.72
2844.26
2851.75
2851.39
2851.27
2853.13
2866.96
2882.66
2893.16
2906.18
2922.98
2932.84
2927.17
2911.85
2884.58
2871.98
2873.86
2880.22
2893.34
2930.16
2940.79
2943.56
2928.63
2910.18
2891.39
2879.03
2861.56
2830.66
2826.2
2839.15
2854.73
2860.98
2855.37
2845.96
2839.29
2836.87
2859.42
2871.01
2877.71
2888.31
2899.3
2926.79
2947.8
2959.49
2970.75
2968.07
2957.19
2935.15
2915.38
2894.02
2869.18
2847.57
2840.39
2857.98
2878.14
2903.67
2925.62
2931.97
2927.68
2894.52
2860.79
2841.33
2836.3
2835.04
2830.15
2794.22
2789.42
2798.15
2705.03
2629.23
2620.49
2648.57
2675.51
2706.16
2750.93
2794.19
2835.14
2864.39
2879.06
2859.08
2825.34
2776.82
2734.54
2690.54
2671.69
2662.98
2666.18
2661.06
2640.33
2690.18
2864.33
2854.93
2882.16
2907.69
2586.95
2879.75
2930.05
3042.47
3059.96
3037.93
3025.35
3042.84
3065.02
3049.14
3027.71
3023.85
3057.26
3084.86
3085.02
2829.62
2911.93
2925.12
2878.96
2834.31
2813.98
2815.13
2845.76
2911.07
2968
2986.33
2975.27
2944.66
2929.9
2912.21
2902.16
2912.52
2936.45
2957.93
2974.49
2983.15
2983.22
2978.91
2970.78
2959.86
2948.56
2937.75
2917.08
2886.69
2826.23
2924.84
2958.24
2980.13
2986.03
2984.06
2979.51
2942.67
2920.14
2925.21
2940.65
2935.54
2944.63
2965
2962.17
2959.93
2957.41
2952.38
2943.2
2939.28
2939.79
2945.3
2949.29
2957.29
2960.63
2963.83
2967.16
2963.38
2941.89
2943.39
2963.63
2907.79
2885.04
2874.32
2875.17
2883.68
2884.66
2890.44
2905.43
2911.66
2915.41
2914.39
2898.08
2869.97
2882.78
2896.47
2896.22
2886.56
2873.74
2864.25
2856.33
2853.42
2851.46
2856.14
2870.5
2880.67
2896.83
2901.51
2904.34
2908.59
2914.33
2892.31
2886.56
2879.08
2869.64
2860.51
2856.31
2855.89
2846.06
2842.85
2836.45
2822.05
2820.96
2824.29
2817.43
2813.43
2811.55
2811.29
2814.12
2819.76
2824.1
2828.95
2837.51
2842.73
2844.49
2843.42
2842.02
2837.67
2829.63
2827.21
2830.38
2767.01
2759.16
2746.35
2740.65
2744.86
2750.09
2754.94
2757.53
2761.15
2765.25
2768.7
2774.41
2780.33
2787.53
2796.45
2814.97
2836.11
2851.65
2856.89
2859.33
2857.35
2846.4
2840.87
2830.14
2817.4
2804.08
2792.52
2788.18
2794.19
2802.27
2773.82
2741.5
2718.1
2724.5
2746
2771.83
2792.09
2795.32
2796.06
2793.73
2788.61
2782.78
2773.36
2774.02
2767.06
2767.39
2771.68
2772.29
2778.94
2779.06
2782.59
2782.38
2786.25
2786.08
2788.23
2790.27
2789.32
2785.58
2789.45
2800.99
2781.78
2779.42
2782.88
2782.66
2783.71
2781.69
2774.8
2770.11
2755.59
2755.53
2741
2737.1
2730.92
2735.47
2742.05
2750.32
2764.3
2768.16
2768.81
2773.96
2775.54
2774.22
2770.86
2761.89
2750.01
2740.71
2817.12
2837.98
2834.03
2826.87
2873.6
2881.02
2893.78
2904.13
2907.22
2910.32
2913.48
2904.39
2893.04
2884.43
2880.2
2883
2882.27
2900.9
2903.5
2929.02
2922.17
2917.44
2917.35
2905.78
2898.03
2854.15
2811.35
2812.3
2849.15
2886.09
2879.17
2874.36
2873.76
2870.9
2913.78
2919.62
2919.09
2914.5
2912.37
2923.33
2918.41
2915.48
2915.92
2895.54
2883.35
2878.44
2879.77
2875.99
2876.39
2879.15
2883.61
2900.84
2905.64
2904
2906.09
2896.31
2891.26
2879.3
2859.01
2849.52
2853.58
2854.95
2848.68
2846.52
2865.15
2880.12
2890.04
2898.78
2914.16
2928.91
2940.29
2913.44
2890.35
2863.89
2851.03
2843.26
2859.87
2866.64
2907.43
2927.21
2951.01
2936.58
2915.24
2896.74
2881.68
2873.64
2844.34
2833.31
2838.15
2853.74
2862.25
2857.07
2847.36
2841.78
2837.16
2859.49
2872.96
2877.03
2887.63
2906.19
2927.77
2950.17
2969.9
2975.11
2971.62
2957.75
2933.18
2913.25
2895.59
2871.75
2846.26
2839.75
2860.12
2876.15
2890.73
2902.29
2901.75
2891.63
2871.23
2851.53
2841.77
2836.75
2833.08
2828.59
2763.9
2759.12
2750.4
2664.37
2619.11
2622.44
2654.72
2688.44
2722.36
2772.21
2825.48
2877.05
2914.63
2919.83
2895.17
2851.91
2790.94
2741.84
2693.08
2668.11
2660.46
2663.04
2660.05
2640.13
2660.43
2855.43
2890.43
2922.89
2697.42
2485.3
2881.16
2966.92
3049.43
3040.59
3003.45
2993.1
3035.61
3067.74
3051.2
3027.37
3033.6
3067.35
3085.21
3078.71
3008.96
2894.87
2838.78
2918.08
2947.51
2913.36
2870.65
2855.06
2871.74
2923.93
2977.32
3002.55
3004.49
2988.32
2949.13
2926.4
2905.22
2897.74
2916.68
2945.67
2971.44
2990.84
3000.72
3000.67
2994.2
2981.78
2965.05
2949.78
2934.91
2912.82
2879.06
2822.89
2830.46
2873.51
2919.74
2951.36
2978.5
2986.55
2985.89
2982.16
2946.46
2919.29
2923.96
2939.89
2937.14
2947.06
2965.32
2962.65
2961.84
2956.22
2950.48
2941
2937.24
2938.58
2943.09
2947.45
2954.82
2960.4
2962.4
2964.94
2961.02
2939.42
2943.16
2961.74
2966.79
2934.99
2911.45
2891.15
2878.6
2874.81
2881.74
2888.3
2887.43
2901.69
2909.17
2913.63
2916.88
2908.83
2875.1
2879.66
2896.7
2899.29
2888.37
2873.73
2866.12
2862.76
2858.56
2861.72
2867.48
2871.7
2885.52
2897.44
2901.14
2905.01
2909.78
2914.19
2901.12
2881.58
2880.46
2881.8
2877.86
2868.23
2858.39
2852.82
2849.99
2848.7
2841.39
2836.4
2825.84
2820.79
2822.86
2818.51
2813.84
2815.68
2815.9
2813.57
2821.19
2822.08
2830.3
2833.88
2838.98
2838.24
2839.44
2837.68
2833.29
2829.57
2828.62
2828.35
2825.85
2816.24
2787.14
2772.03
2753.33
2742.38
2742.38
2750.64
2756.07
2761.8
2769.07
2767.82
2766.92
2771.95
2778.46
2786.22
2794.46
2806.74
2828.39
2847.2
2857.18
2853.68
2855.58
2845.6
2839.32
2828.17
2814.27
2799.13
2789.02
2785.93
2790.79
2795.58
2790.33
2777.98
2762.68
2723.51
2716.62
2722.11
2737.84
2764.15
2785.88
2795.06
2793.9
2799.64
2790.72
2780.91
2776.65
2775.72
2769.91
2770
2769.53
2774.12
2776.85
2779.68
2783.65
2784.39
2787.64
2787.56
2789.57
2791.48
2789.51
2793.7
2793.04
2795.35
2781.39
2780.57
2769.64
2772.42
2780.07
2781.1
2781.78
2781.34
2772.74
2770.28
2757.01
2757.23
2744.71
2742.19
2735.44
2739.3
2747.87
2755.42
2763.89
2767.88
2773.58
2774.22
2774.68
2778.54
2775.09
2760.08
2766.47
2820.13
2837.73
2841.95
2845.88
2849.57
2853.96
2861.75
2862.32
2872.6
2886.32
2900.04
2903.19
2906.67
2909.66
2904.97
2891.5
2889.01
2877.78
2882.72
2880.23
2899.24
2903
2928.17
2920.81
2921.12
2913.97
2907.26
2901.66
2867.56
2831.17
2843.14
2874.8
2886.92
2877.43
2875.61
2878.57
2884.35
2887.65
2881.84
2905.23
2906.39
2903.87
2903.63
2906.78
2915.32
2911.84
2914.94
2909.97
2893.25
2888.34
2876.96
2868.88
2868.56
2873.6
2880.81
2881.4
2896.63
2907.42
2900.71
2903.73
2896.6
2887.15
2875.23
2857.69
2854.28
2858.04
2855.4
2849.59
2851.83
2854.32
2861.69
2869.95
2877.25
2887.5
2897.4
2916.6
2930.53
2938.61
2905.47
2880.23
2850.32
2839.05
2833.2
2846.75
2856.65
2899.1
2919.75
2952.71
2942.66
2914.72
2903.19
2885.65
2879.09
2855.02
2835.81
2834.45
2854.06
2863.95
2857.95
2849.96
2842.63
2836.84
2836.07
2839.37
2861.09
2873.3
2879.12
2884.94
2904.08
2928.99
2943.63
2962.68
2969.2
2967.33
2954.26
2930.49
2910.8
2895.8
2871.69
2843.8
2840.92
2860.31
2870.93
2875.24
2874.61
2871.46
2863.93
2855.09
2847.27
2840.96
2835.99
2830.42
2823.13
2749.86
2724.57
2703.77
2724.65
2725.3
2644.75
2614.99
2624.63
2657.74
2693.83
2733.41
2780.28
2840.2
2892.84
2924.2
2926.9
2896.75
2852.1
2789.36
2738.09
2686.44
2665.34
2656.12
2660.57
2656.07
2637.64
2643.78
2836.47
2927.21
2827.7
2666.58
2834.16
2521.1
2446.31
2888.45
2991.78
3044.95
3014.57
2966.08
2971.44
3034.87
3071.66
3058.82
3037.65
3053.18
3079.74
3087.58
3067.43
2975.98
2871.91
2854.21
2930.96
2969.09
2952.59
2927.46
2924.76
2949.3
2986.54
3013.29
3013.19
3004.76
2996.88
2953.57
2924.37
2895.54
2894.84
2915.91
2946.25
2976.12
2996.13
3008.6
3007.97
3000.22
2984.34
2966.08
2947.19
2929.69
2903.69
2868.58
2821.06
2829.84
2872.99
2912.26
2938.69
2967.24
2982.8
2986.05
2984.59
2952.69
2924.7
2930.01
2939.35
2939.14
2947.66
2966.47
2964.98
2963.47
2957.59
2950.07
2942.57
2938.7
2937.9
2942.1
2949.67
2955.16
2959.89
2961.88
2963.56
2955.23
2939.23
2950.46
2968
2971.54
2941.62
2910.83
2894.85
2884.37
2877.97
2882.58
2886.95
2893.9
2898.78
2906.63
2911.84
2917.11
2914.9
2881.12
2868.5
2892.9
2899.58
2898.97
2888.29
2874.8
2865.99
2867.58
2866.19
2868.04
2878.82
2892.89
2903.72
2904.04
2906.21
2910.37
2917.09
2897.75
2885.13
2876.21
2877.28
2882.81
2870.42
2859.32
2850.74
2850.2
2851.86
2842.35
2837.72
2832.31
2820.02
2825.68
2819.55
2815.44
2817.28
2816.68
2814.51
2820.52
2823.76
2830
2834.37
2839.99
2838.35
2838.35
2834.91
2831.96
2827.92
2828.1
2810.3
2809.24
2805.84
2800.81
2792.63
2773.22
2753.24
2746.57
2751.36
2762.73
2778.23
2787.95
2786.45
2771.43
2770.33
2774.92
2782.74
2790.6
2802.15
2815.47
2831.54
2842.29
2850.51
2845.57
2842.18
2831.82
2820.71
2807.29
2794.36
2785.8
2784.58
2790.89
2795.86
2791.42
2773.33
2746.69
2715.2
2719.87
2720.16
2730.03
2749.66
2776.92
2794.25
2794.49
2796.31
2793.79
2786.95
2779.77
2776.99
2776.81
2776.48
2777.62
2777.64
2779.44
2781.87
2785.65
2789.26
2788.15
2790.66
2791.39
2794.54
2794.67
2785.3
2782.9
2784.06
2772.01
2764.27
2749.78
2757.83
2775.42
2778.91
2780.46
2781.69
2773.49
2771.15
2760.2
2758.23
2751.1
2753.43
2749.87
2751.18
2752.02
2760.04
2768.43
2771.78
2772.14
2775.2
2779.93
2780.03
2772.73
2765
2779.95
2803.71
2801.27
2793.78
2799.67
2814.34
2832.13
2841.4
2854.51
2865.72
2878.14
2895.63
2899.87
2900.89
2905.16
2906.87
2898.07
2889.82
2884.74
2889.38
2888
2902.94
2906.63
2928.78
2918.7
2920.81
2916.68
2908.53
2902.4
2877.88
2850.37
2865.16
2885.31
2886.4
2880.31
2881.35
2882.72
2883.67
2886.91
2887.47
2896.98
2892.91
2900.45
2902.12
2898.76
2902.39
2914.63
2907.45
2906.28
2896.89
2888.42
2874.81
2875.61
2873.41
2873.6
2881.5
2885.92
2897.3
2900.96
2901.61
2901
2890.4
2883.89
2867.63
2848.51
2851.6
2858.76
2857.62
2853.91
2848.32
2847.94
2852.29
2863.38
2874.11
2885.09