/*--------------------------------*- C++ -*----------------------------------*\
| =========                 |                                                 |
| \\      /  F ield         | OpenFOAM: The Open Source CFD Toolbox           |
|  \\    /   O peration     | Version:  2.1.1                                 |
|   \\  /    A nd           | Web:      www.OpenFOAM.org                      |
|    \\/     M anipulation  |                                                 |
\*---------------------------------------------------------------------------*/
FoamFile
{
    version     2.0;
    format      ascii;
    class       volVectorField;
    location    "0.006500000";
    object      U;
}
// * * * * * * * * * * * * * * * * * * * * * * * * * * * * * * * * * * * * * //

dimensions      [0 1 -1 0 0 0 0];

internalField   nonuniform List<vector> 
12384
(
(-1.16786 0.739564 0)
(1.63017 -0.553296 0)
(6.24011 -2.53023 0)
(13.3887 -2.6479 0)
(20.918 -3.14156 0)
(28.014 -2.18582 0)
(33.9357 -1.74084 0)
(37.005 0.0745464 0)
(37.4446 1.48546 0)
(33.6585 3.19008 0)
(28.5125 4.20897 0)
(20.1309 4.82772 0)
(11.9323 4.9903 0)
(3.93791 4.25913 0)
(-4.68298 8.01227 0)
(-12.8029 6.94543 0)
(-19.2129 5.704 0)
(-22.6885 4.33017 0)
(-23.8149 3.30903 0)
(-24.0275 2.64017 0)
(-23.1222 1.64026 0)
(-21.1679 0.917994 0)
(-17.6929 -0.704532 0)
(-12.1312 -1.61159 0)
(-3.70626 -3.5399 0)
(8.29381 -5.42713 0)
(23.7947 -7.57301 0)
(43.773 -9.63359 0)
(66.7957 -11.1068 0)
(91.797 -12.0757 0)
(116.551 -11.3241 0)
(139.047 -10.0651 0)
(157.475 -8.31488 0)
(170.942 -4.50716 0)
(176.878 -3.22545 0)
(177.247 2.68424 0)
(170.425 2.77582 0)
(152.129 9.80805 0)
(128.375 12.7973 0)
(94.544 16.0171 0)
(60.6533 15.54 0)
(29.5965 12.3721 0)
(8.03731 5.59153 0)
(0.193577 -1.90743 0)
(-9.33316 6.86729 0)
(-28.7628 9.33201 0)
(-49.0827 8.29428 0)
(-67.9146 8.78193 0)
(-83.0647 4.87166 0)
(-88.7356 2.80188 0)
(-89.4074 -1.38314 0)
(-82.9947 -4.61121 0)
(-67.2495 -8.67198 0)
(-46.355 -11.0053 0)
(-19.0249 -13.3195 0)
(12.1352 -14.839 0)
(46.5328 -16.0941 0)
(82.2071 -16.0179 0)
(117.096 -15.27 0)
(149.02 -13.5118 0)
(177.238 -10.6222 0)
(199.075 -7.37363 0)
(213.946 -4.01119 0)
(222.544 -1.33365 0)
(223.033 2.29817 0)
(214.179 6.23875 0)
(197.438 11.3492 0)
(173.36 14.7536 0)
(138.274 18.9646 0)
(98.5127 20.7745 0)
(58.8706 18.7565 0)
(25.4946 13.866 0)
(3.42698 5.55697 0)
(-3.94587 -5.10482 0)
(-11.2518 7.23093 0)
(-34.4468 9.40606 0)
(-59.9332 9.81446 0)
(-84.1626 8.22259 0)
(-101.569 5.92731 0)
(-114.858 0.335998 0)
(-117.809 -1.52025 0)
(-114.134 -6.5712 0)
(-102.983 -9.21877 0)
(-82.6991 -12.7698 0)
(-56.7056 -15.8081 0)
(-22.6341 -19.0423 0)
(18.1607 -22.1796 0)
(64.6948 -25.2301 0)
(115.838 -26.1588 0)
(168.324 -25.816 0)
(218.553 -23.5103 0)
(263.106 -19.6986 0)
(297.947 -14.9022 0)
(320.538 -5.86987 0)
(322.792 -0.973423 0)
(305.906 11.8027 0)
(278.388 20.6919 0)
(227.553 32.5826 0)
(164.064 38.121 0)
(96.0579 36.6812 0)
(37.9755 28.4419 0)
(0.442442 16.8251 0)
(-13.2608 1.48651 0)
(-9.26265 -4.84907 0)
(-13.7405 14.0956 0)
(-19.5515 0.0412972 0)
(-8.89689 -11.2132 0)
(20.7687 -20.8451 0)
(66.135 -28.2092 0)
(120.976 -30.6559 0)
(179.83 -31.7886 0)
(236.045 -26.5123 0)
(278.719 -27.5888 0)
(320.802 -17.1343 0)
(355.707 -18.5389 0)
(369.172 -8.45805 0)
(388.154 -9.41836 0)
(376.405 1.35092 0)
(361.243 7.51957 0)
(325.979 16.3953 0)
(278.385 24.3301 0)
(213.8 32.7089 0)
(140.957 35.3468 0)
(70.1887 31.2904 0)
(14.0532 23.3943 0)
(-23.256 13.4797 0)
(-41.1976 4.79737 0)
(-46.8617 0.251564 0)
(-46.5337 0.18581 0)
(-47.2451 -1.80074 0)
(-41.2615 -3.734 0)
(-28.2325 -8.76933 0)
(-13.6223 -5.8942 0)
(-2.33146 -4.72554 0)
(-7.4133 5.43559 0)
(-16.8408 5.88244 0)
(-24.8774 2.59681 0)
(-28.9103 3.36959 0)
(-30.7539 -0.569695 0)
(-26.7194 -1.34548 0)
(-17.1708 -6.79306 0)
(-3.37139 -7.85654 0)
(18.9421 -11.7533 0)
(46.0125 -14.64 0)
(80.2109 -17.6447 0)
(118.111 -19.4636 0)
(159.416 -20.4684 0)
(200.61 -20.1773 0)
(240.715 -18.2977 0)
(275.723 -15.8505 0)
(301.562 -12.1229 0)
(321.772 -5.7182 0)
(329.417 -5.89962 0)
(327.211 6.07624 0)
(317.17 6.45826 0)
(279.175 17.5346 0)
(243.479 20.9799 0)
(187.032 25.3792 0)
(132.895 25.247 0)
(79.591 19.975 0)
(36.0446 13.3594 0)
(9.67341 3.28452 0)
(-2.90513 -4.02744 0)
(-3.82739 -11.052 0)
(-3.4187 4.53613 0)
(-7.21312 1.61914 0)
(-7.18786 1.11454 0)
(-2.40343 -4.16078 0)
(8.39221 -7.64587 0)
(27.8205 -12.6171 0)
(53.9325 -15.7678 0)
(85.2719 -18.2449 0)
(119.498 -19.3275 0)
(154.445 -18.6625 0)
(187.43 -16.2637 0)
(214.804 -14.8943 0)
(236.96 -9.56257 0)
(253.593 -6.83801 0)
(260.334 -1.8301 0)
(261.493 3.50072 0)
(250.499 9.51342 0)
(231.77 14.9467 0)
(203.945 19.0112 0)
(167.25 23.1629 0)
(124.977 24.7694 0)
(81.225 22.9927 0)
(42.8368 18.9772 0)
(12.327 14.0414 0)
(-9.03502 8.75283 0)
(-20.8641 5.23494 0)
(-27.1213 0.483365 0)
(-27.0744 -1.93757 0)
(-19.6232 -6.59823 0)
(-8.20704 -7.53723 0)
(2.62456 -0.124786 0)
(14.1481 -6.55081 0)
(37.4475 -11.9284 0)
(69.7654 -16.5946 0)
(109.168 -19.3595 0)
(151.936 -21.538 0)
(194.666 -19.5986 0)
(236.558 -20.371 0)
(271.207 -13.3629 0)
(297.016 -13.1648 0)
(318.967 -5.26143 0)
(326.877 -3.5161 0)
(325.547 2.98036 0)
(315.466 8.64962 0)
(292.812 14.5349 0)
(258.882 20.3312 0)
(214.074 24.7465 0)
(159.489 27.2311 0)
(104.89 24.9817 0)
(56.7089 19.4774 0)
(19.5166 13.6531 0)
(-7.37961 8.8755 0)
(-25.5714 6.40618 0)
(-44.6004 3.79017 0)
(-50.5083 0.680198 0)
(-50.7843 -2.37496 0)
(-43.9648 -6.92345 0)
(-28.8911 -10.2246 0)
(-14.5144 -7.48358 0)
(-2.88922 -5.84422 0)
(-3.30338 7.11985 0)
(7.34294 -7.55551 0)
(37.2817 -17.8525 0)
(81.4285 -22.6011 0)
(131.263 -24.0292 0)
(181.196 -22.564 0)
(226.531 -19.5681 0)
(264.427 -14.4822 0)
(290.707 -9.7922 0)
(305.702 -2.26057 0)
(306.949 -1.57579 0)
(297.366 10.8495 0)
(277.883 9.76206 0)
(238.509 21.8332 0)
(190.188 24.4697 0)
(129.728 27.91 0)
(74.8836 25.1114 0)
(25.3825 19.4956 0)
(-10.6923 13.2861 0)
(-35.3667 7.67605 0)
(-51.2454 4.18707 0)
(-61.4249 2.26891 0)
(-67.19 -0.0650242 0)
(-68.7671 -1.76275 0)
(-63.0854 -5.91935 0)
(-49.9159 -8.71812 0)
(-33.7713 -8.50062 0)
(-18.6899 -7.09999 0)
(-7.56358 -4.28038 0)
(-1.57676 -2.04869 0)
(-8.47816 9.66127 0)
(-19.2605 5.7302 0)
(-22.174 1.49941 0)
(-12.381 -6.51577 0)
(12.7203 -15.1405 0)
(51.9729 -21.2342 0)
(101.898 -23.8064 0)
(153.761 -24.8408 0)
(201.716 -21.2867 0)
(245.678 -15.9432 0)
(277.122 -13.0136 0)
(295.105 -7.93676 0)
(304.87 2.60055 0)
(297.482 9.12678 0)
(273.861 16.3477 0)
(235.61 24.8938 0)
(181.74 32.1942 0)
(120.05 33.5076 0)
(58.0964 30.8501 0)
(3.1576 25.6626 0)
(-39.689 20.0974 0)
(-70.2292 13.3236 0)
(-89.5669 7.72851 0)
(-95.2746 3.90365 0)
(-92.7486 0.753747 0)
(-83.566 -3.89655 0)
(-66.113 -6.79295 0)
(-44.2293 -7.42845 0)
(-22.7477 -6.14847 0)
(-6.35218 -2.35974 0)
(1.24787 1.15323 0)
(6.00086 -0.268464 0)
(17.4852 -5.73943 0)
(39.4068 -11.6752 0)
(72.3139 -16.9777 0)
(113.148 -19.6578 0)
(158.705 -20.4114 0)
(201.237 -20.2322 0)
(238.51 -14.606 0)
(269.2 -10.0909 0)
(285.146 -4.39967 0)
(283.728 3.48769 0)
(270.264 12.7594 0)
(238.907 20.0197 0)
(189.34 27.8173 0)
(128.669 33.7669 0)
(65.9496 29.2323 0)
(14.1081 24.1553 0)
(-28.4092 15.2773 0)
(-53.4802 10.5658 0)
(-71.9304 7.67474 0)
(-85.8109 5.96828 0)
(-92.3457 3.57202 0)
(-91.2435 -0.994512 0)
(-80.4196 -8.14848 0)
(-57.3581 -12.429 0)
(-30.4634 -12.4129 0)
(-5.97166 -9.04276 0)
(6.47234 0.274552 0)
(5.37138 5.71089 0)
(3.60902 -6.9175 0)
(7.63745 -3.25407 0)
(8.11207 -1.98049 0)
(0.318958 4.96211 0)
(-19.3441 11.9084 0)
(-49.35 16.5425 0)
(-86.2614 19.4991 0)
(-124.504 18.356 0)
(-156.04 12.7556 0)
(-176.099 6.00276 0)
(-182.275 -3.8403 0)
(-173.775 -8.17728 0)
(-153.832 -14.0347 0)
(-124.312 -17.7067 0)
(-89.3342 -19.7255 0)
(-52.2659 -19.5437 0)
(-16.457 -17.6811 0)
(15.6943 -14.8278 0)
(43.3166 -12.6945 0)
(66.8893 -11.1717 0)
(88.5119 -8.5445 0)
(103.883 -6.09578 0)
(114.408 -1.98052 0)
(114.07 -0.0642805 0)
(107.388 6.11661 0)
(95.9903 7.32819 0)
(75.3003 11.8246 0)
(52.8974 10.6749 0)
(28.93 10.7923 0)
(9.04615 8.07454 0)
(8.11353 -7.22915 0)
(23.1783 -6.46387 0)
(34.4981 -3.74103 0)
(40.0315 -1.05533 0)
(41.3268 -0.3868 0)
(40.1206 1.48963 0)
(32.8762 7.29886 0)
(15.0075 13.3243 0)
(-15.5927 17.3038 0)
(-53.7617 20.0913 0)
(-94.0833 20.3155 0)
(-131.356 17.3729 0)
(-159.233 9.8472 0)
(-172.47 4.14542 0)
(-174.123 -4.13187 0)
(-161.498 -9.29812 0)
(-141.739 -12.3552 0)
(-112.097 -17.3757 0)
(-79.9089 -16.0579 0)
(-48.6759 -19.2029 0)
(-16.244 -13.2946 0)
(10.2518 -13.9492 0)
(30.1198 -7.01816 0)
(41.5985 -5.51141 0)
(46.4681 0.49589 0)
(47.0526 1.56597 0)
(42.2214 4.80202 0)
(33.9068 7.22428 0)
(21.8824 8.72688 0)
(8.60036 10.1694 0)
(-0.159421 0.488771 0)
(4.41957 -2.96596 0)
(9.95384 -8.17073 0)
(18.0824 -8.36981 0)
(25.8636 -9.54778 0)
(33.3649 -6.69992 0)
(39.2223 -5.09203 0)
(42.3509 0.130224 0)
(42.9959 4.22649 0)
(39.8413 9.39704 0)
(34.6665 12.6679 0)
(25.5235 15.1871 0)
(15.7188 16.0822 0)
(5.35092 14.3576 0)
(-5.3238 23.5614 0)
(-13.7818 21.0426 0)
(-20.0576 16.835 0)
(-24.3761 12.9705 0)
(-26.9101 9.93929 0)
(-28.1136 8.37359 0)
(-28.4454 5.33296 0)
(-27.7019 3.18834 0)
(-25.1779 -1.36907 0)
(-19.8829 -5.13987 0)
(-10.6954 -11.361 0)
(2.85757 -17.1148 0)
(20.7652 -24.1075 0)
(42.9206 -30.0759 0)
(68.3464 -34.3728 0)
(95.1957 -36.2148 0)
(121.127 -34.1068 0)
(143.329 -29.9769 0)
(161.594 -23.3345 0)
(174.209 -14.1245 0)
(179.875 -8.40901 0)
(180.701 6.87563 0)
(172.965 8.71413 0)
(160.453 25.2687 0)
(142.99 32.156 0)
(118.396 42.2344 0)
(91.0726 44.3412 0)
(60.0283 39.432 0)
(30.5805 25.7607 0)
(8.75901 5.95127 0)
(-10.6996 22.9472 0)
(-31.7357 26.3994 0)
(-51.3625 23.7146 0)
(-65.9345 21.3971 0)
(-76.7157 11.6932 0)
(-79.3448 4.60906 0)
(-76.7416 -6.00082 0)
(-67.5636 -14.9447 0)
(-51.2692 -25.3727 0)
(-31.4563 -31.6709 0)
(-5.50018 -38.2642 0)
(24.1367 -43.0027 0)
(57.1165 -45.8888 0)
(91.3866 -46.4841 0)
(124.978 -44.3603 0)
(156.39 -38.444 0)
(183.589 -30.7996 0)
(204.325 -22.2825 0)
(218.873 -12.0986 0)
(225.965 -1.55976 0)
(226.113 6.98165 0)
(220.661 16.8696 0)
(207.083 28.6716 0)
(188.367 39.083 0)
(165.152 49.051 0)
(134.95 55.5911 0)
(100.596 55.031 0)
(65.6185 45.1189 0)
(33.4036 28.5172 0)
(8.58767 4.21021 0)
(-15.4176 25.9451 0)
(-43.5378 29.1801 0)
(-68.9512 28.0116 0)
(-89.387 22.4904 0)
(-104.597 13.5944 0)
(-114.546 1.88292 0)
(-116.131 -4.58037 0)
(-112.923 -17.5464 0)
(-102.785 -25.6758 0)
(-83.749 -36.5363 0)
(-58.4247 -45.9321 0)
(-24.6651 -55.6855 0)
(15.687 -65.0279 0)
(61.868 -72.5908 0)
(112.282 -76.3477 0)
(163.751 -74.8601 0)
(212.706 -67.9028 0)
(255.192 -56.3433 0)
(288.575 -41.091 0)
(308.652 -18.7704 0)
(316.24 1.05423 0)
(311.235 27.86 0)
(291.922 52.9888 0)
(262.084 80.6999 0)
(220.457 101.028 0)
(168.163 105.224 0)
(110.265 89.8483 0)
(58.9186 60.8549 0)
(21.569 27.2773 0)
(1.39942 1.62727 0)
(-2.5504 18.6531 0)
(7.20562 -10.2315 0)
(30.132 -37.3794 0)
(66.0125 -62.2866 0)
(111.327 -79.7111 0)
(162.06 -85.9159 0)
(212.414 -85.4996 0)
(259.011 -77.2783 0)
(299.616 -70.8931 0)
(338.53 -49.8723 0)
(364.855 -46.0837 0)
(379.477 -26.4286 0)
(393.934 -14.7192 0)
(386.594 2.44653 0)
(371.297 19.507 0)
(346.376 40.7583 0)
(311.549 64.2798 0)
(269.282 85.1344 0)
(214.047 98.9159 0)
(149.824 96.3761 0)
(84.9882 78.6633 0)
(30.4006 51.5665 0)
(-6.89826 25.0101 0)
(-29.7704 9.16344 0)
(-40.5438 6.35184 0)
(-45.315 -1.26657 0)
(-44.3684 -10.0123 0)
(-33.6588 -21.5948 0)
(-18.309 -19.3441 0)
(-5.77555 -15.9315 0)
(-5.01262 16.5825 0)
(-14.0437 15.7356 0)
(-21.6787 9.1339 0)
(-24.1943 8.1022 0)
(-24.6879 -0.971093 0)
(-19.7895 -4.57746 0)
(-10.3369 -17.7468 0)
(2.78648 -22.2809 0)
(23.5178 -33.0069 0)
(49.5702 -42.1849 0)
(82.1003 -50.9516 0)
(119.556 -57.2433 0)
(160.199 -60.3797 0)
(201.824 -60.1444 0)
(241.798 -55.0196 0)
(277.012 -47.6324 0)
(306.311 -37.1204 0)
(326.964 -20.3055 0)
(337.204 -10.3071 0)
(337.326 16.2229 0)
(326.431 18.479 0)
(304.656 45.0046 0)
(275.431 54.0665 0)
(236.914 66.9275 0)
(191.677 69.8163 0)
(142.446 61.3106 0)
(93.538 45.36 0)
(53.3453 24.4643 0)
(22.3114 4.35248 0)
(3.99377 -11.9327 0)
(-3.11001 12.4291 0)
(-6.4352 5.43648 0)
(-5.89382 0.248169 0)
(0.493195 -12.3095 0)
(13.2282 -24.4302 0)
(33.484 -36.5466 0)
(60.5695 -47.4848 0)
(92.9833 -53.5048 0)
(127.852 -56.1829 0)
(162.927 -54.2788 0)
(194.396 -49.8191 0)
(222.316 -40.4668 0)
(245.118 -30.4807 0)
(260.513 -18.1814 0)
(269.929 -3.51027 0)
(268.622 10.4572 0)
(263.007 23.8674 0)
(248.614 39.4888 0)
(228.722 52.5859 0)
(203.382 62.3771 0)
(171.265 68.7054 0)
(134.43 67.9694 0)
(95.4733 59.3872 0)
(57.965 47.2878 0)
(26.4774 32.6701 0)
(5.32811 20.2571 0)
(-8.63333 7.61041 0)
(-14.2764 -1.54017 0)
(-11.4734 -14.3803 0)
(-4.86137 -17.9963 0)
(6.25789 -3.9218 0)
(24.9988 -23.3657 0)
(54.3967 -39.3693 0)
(91.5614 -51.9977 0)
(133.453 -58.6438 0)
(177.63 -65.026 0)
(219.161 -58.0551 0)
(259.285 -56.4956 0)
(294.765 -42.2347 0)
(320.013 -33.4001 0)
(341.015 -19.7245 0)
(348.341 -6.41302 0)
(348.247 10.5493 0)
(337.887 25.1546 0)
(321.935 39.6486 0)
(296.367 54.7052 0)
(261.995 68.4293 0)
(219.526 76.8574 0)
(169.771 75.1752 0)
(116.392 64.6907 0)
(65.8876 49.2179 0)
(23.6228 33.8848 0)
(-5.7704 23.855 0)
(-31.6985 13.2551 0)
(-41.9586 4.68003 0)
(-43.1835 -8.70675 0)
(-35.9226 -20.6696 0)
(-23.6746 -27.0497 0)
(-11.5779 -21.0473 0)
(-2.27286 -15.0951 0)
(4.00075 3.82208 0)
(28.492 -31.807 0)
(68.2243 -55.3325 0)
(115.526 -67.3347 0)
(164.732 -69.1845 0)
(211.726 -64.1889 0)
(253.747 -54.6955 0)
(288.873 -41.188 0)
(315.88 -26.9774 0)
(329.902 -9.97277 0)
(335.119 2.1315 0)
(330.289 23.2599 0)
(310.94 33.265 0)
(286 56.3153 0)
(250.079 66.5991 0)
(205.757 78.0904 0)
(155.893 76.1121 0)
(99.8873 65.5995 0)
(48.5853 49.6227 0)
(5.3511 32.5894 0)
(-27.125 19.8349 0)
(-49.0875 11.6079 0)
(-62.1162 3.93896 0)
(-66.5615 -4.30305 0)
(-62.0228 -17.1632 0)
(-49.7073 -25.0966 0)
(-33.9078 -25.5607 0)
(-19.3265 -21.0946 0)
(-8.47223 -13.5843 0)
(-2.12447 -6.31265 0)
(-5.32716 23.754 0)
(-9.38347 12.7697 0)
(-3.73611 -2.39184 0)
(15.1708 -24.6714 0)
(47.4753 -46.3627 0)
(90.469 -63.2697 0)
(138.614 -70.2854 0)
(188.431 -69.475 0)
(235.564 -59.9976 0)
(272.659 -47.5028 0)
(300.541 -32.7205 0)
(321.758 -12.7087 0)
(325.504 5.51721 0)
(318.976 24.264 0)
(303.265 46.3183 0)
(276.417 65.7873 0)
(236.826 85.813 0)
(184.915 98.1631 0)
(125.143 95.234 0)
(60.6718 84.349 0)
(2.03998 67.697 0)
(-41.6324 46.8364 0)
(-70.7898 27.4766 0)
(-85.1107 14.3556 0)
(-87.217 4.37317 0)
(-80.043 -9.95595 0)
(-64.0918 -19.4163 0)
(-43.282 -22.1952 0)
(-22.4449 -18.1325 0)
(-6.47926 -7.16782 0)
(3.9118 2.00025 0)
(15.9868 -6.90563 0)
(37.5428 -22.6299 0)
(69.9679 -39.9418 0)
(112.541 -54.7148 0)
(160.044 -60.4289 0)
(207.911 -62.2937 0)
(253.823 -55.6641 0)
(290.562 -42.3432 0)
(317.575 -30.1305 0)
(333.465 -9.45899 0)
(338.137 6.58651 0)
(327.941 34.8266 0)
(303.77 52.5185 0)
(270.699 77.3416 0)
(222.315 90.1553 0)
(164.303 90.3637 0)
(97.5477 80.1198 0)
(36.5816 58.9201 0)
(-14.1612 42.2838 0)
(-51.1594 29.4196 0)
(-75.755 21.4898 0)
(-88.4998 10.5765 0)
(-87.7523 -3.89139 0)
(-76.3152 -24.0999 0)
(-54.5426 -35.4287 0)
(-30.1681 -35.5579 0)
(-8.2943 -25.1283 0)
(4.10573 -0.661455 0)
(6.98852 16.4972 0)
(-0.108328 -9.10133 0)
(-5.88305 -1.11587 0)
(-18.7878 6.94732 0)
(-40.3616 24.2827 0)
(-69.8945 39.8353 0)
(-104.295 50.9483 0)
(-139.13 54.171 0)
(-169.089 47.2891 0)
(-190.717 31.7149 0)
(-201.978 11.9882 0)
(-202.053 -10.0843 0)
(-191.495 -26.5434 0)
(-170.435 -41.7698 0)
(-139.793 -52.4241 0)
(-104.253 -57.4888 0)
(-66.5337 -57.4475 0)
(-29.8355 -52.3369 0)
(2.8594 -45.2625 0)
(31.984 -38.7908 0)
(58.4666 -33.3208 0)
(81.531 -26.5107 0)
(96.2197 -19.6967 0)
(109.04 -6.89267 0)
(113.856 0.82838 0)
(108.457 15.4238 0)
(99.4549 21.0299 0)
(82.3709 31.944 0)
(62.0054 32.4512 0)
(36.9483 33.5849 0)
(12.314 27.6717 0)
(8.33748 -20.8994 0)
(21.9737 -17.101 0)
(30.1912 -8.16139 0)
(31.389 0.132149 0)
(25.5703 5.22844 0)
(14.2263 11.2057 0)
(-4.94598 29.0761 0)
(-37.6235 46.3209 0)
(-78.6075 56.0384 0)
(-119.769 60.7551 0)
(-157.024 56.0104 0)
(-185.143 44.0862 0)
(-201.188 25.5948 0)
(-207.257 5.60901 0)
(-205.835 -12.701 0)
(-188.48 -26.9407 0)
(-168.078 -38.6121 0)
(-137.966 -49.397 0)
(-105.595 -49.4116 0)
(-70.6664 -53.8002 0)
(-39.6811 -41.4531 0)
(-13.6807 -39.3925 0)
(6.12024 -21.8757 0)
(17.1294 -15.5588 0)
(24.4152 -1.11036 0)
(25.6687 3.48474 0)
(24.2224 11.5549 0)
(20.5297 17.612 0)
(13.7084 22.1558 0)
(5.55158 26.425 0)
(1.16275 -1.05248 0)
(6.58765 -6.76988 0)
(13.0346 -14.1624 0)
(21.2967 -14.1628 0)
(28.6128 -15.6357 0)
(35.5257 -10.7667 0)
(40.6397 -8.07294 0)
(43.1306 0.525299 0)
(44.4733 6.14405 0)
(41.6008 15.1923 0)
(36.8007 21.309 0)
(27.771 26.2882 0)
(17.1304 28.7484 0)
(5.79403 26.8178 0)
(-4.32035 39.4085 0)
(-12.9672 34.9183 0)
(-20.3187 28.5776 0)
(-24.9711 22.1384 0)
(-28.1912 17.5767 0)
(-30.4213 14.7794 0)
(-31.7412 9.60022 0)
(-31.3615 6.11294 0)
(-28.804 -2.2574 0)
(-22.5316 -9.43954 0)
(-11.9527 -20.6001 0)
(2.6781 -30.608 0)
(21.7125 -42.4949 0)
(44.6623 -52.1062 0)
(70.1941 -58.7548 0)
(96.2363 -60.937 0)
(120.345 -56.204 0)
(141.497 -48.6091 0)
(157.887 -36.8537 0)
(167.598 -23.9507 0)
(173.915 -12.0809 0)
(172.869 7.38173 0)
(164.332 15.0789 0)
(153.746 36.184 0)
(139.21 46.8273 0)
(120.104 62.6275 0)
(97.1592 69.6427 0)
(70.2179 67.6123 0)
(40.2791 52.617 0)
(12.7801 25.6156 0)
(-11.0233 39.3763 0)
(-29.381 42.3363 0)
(-44.2021 36.0261 0)
(-55.7537 29.982 0)
(-63.3864 15.1724 0)
(-64.1995 4.42039 0)
(-60.8996 -12.6688 0)
(-51.972 -25.2009 0)
(-37.7729 -41.6175 0)
(-20.6458 -50.9493 0)
(2.9349 -61.914 0)
(30.1309 -70.1432 0)
(60.5245 -75.2427 0)
(92.2091 -76.043 0)
(123.995 -71.6252 0)
(152.899 -62.431 0)
(177.027 -51.1461 0)
(196.416 -36.5608 0)
(209.964 -20.0953 0)
(215.794 -3.1269 0)
(215.068 12.4077 0)
(209.258 27.1435 0)
(197.324 41.1089 0)
(181.405 58.2449 0)
(162.674 72.1257 0)
(140.306 83.1483 0)
(112.499 86.9937 0)
(80.6991 79.1424 0)
(47.0952 59.6557 0)
(15.2012 28.0069 0)
(-14.3122 48.0707 0)
(-39.7936 49.7781 0)
(-62.2945 44.6542 0)
(-81.9586 34.8203 0)
(-96.2199 20.0016 0)
(-106.429 4.51945 0)
(-110.326 -7.83883 0)
(-108.213 -27.2564 0)
(-99.5454 -41.6753 0)
(-82.573 -59.1704 0)
(-58.7182 -75.4831 0)
(-27.4559 -91.8683 0)
(9.85573 -107.381 0)
(52.8427 -119.663 0)
(99.7896 -125.439 0)
(147.297 -122.646 0)
(191.994 -111.092 0)
(230.789 -91.5848 0)
(260.387 -65.9926 0)
(279.917 -34.7709 0)
(288.319 1.49972 0)
(284.59 35.4745 0)
(272.066 73.6935 0)
(251.911 112.075 0)
(223.571 145.586 0)
(187.015 160.788 0)
(142.099 150.951 0)
(92.0658 115.845 0)
(46.6549 69.1127 0)
(13.2754 24.3511 0)
(5.19606 12.7127 0)
(25.0753 -30.9376 0)
(53.4508 -70.5175 0)
(89.5535 -105.031 0)
(130.138 -127.164 0)
(172.033 -135.21 0)
(210.131 -132.698 0)
(246.377 -121.121 0)
(280.331 -104.822 0)
(308 -83.6978 0)
(327.664 -70.8047 0)
(343.259 -42.7421 0)
(355.085 -24.028 0)
(348.336 0.810308 0)
(341.597 27.4288 0)
(323.721 54.4761 0)
(299.071 87.8897 0)
(267.557 121.279 0)
(231.747 146.932 0)
(185.149 155.29 0)
(129.764 139.235 0)
(74.2472 102.821 0)
(27.4442 60.4516 0)
(-6.01565 30.9438 0)
(-25.1411 19.1999 0)
(-37.294 2.25237 0)
(-39.2373 -13.2694 0)
(-32.1382 -31.609 0)
(-21.072 -36.1174 0)
(-6.94134 -29.2329 0)
(-5.5545 25.7407 0)
(-12.2561 23.8451 0)
(-18.3085 14.573 0)
(-20.6465 11.3338 0)
(-21.3316 -2.39906 0)
(-17.456 -8.22051 0)
(-9.86112 -26.8382 0)
(0.310974 -35.4739 0)
(18.5334 -52.5204 0)
(41.9544 -68.2219 0)
(71.9334 -83.188 0)
(107.072 -93.976 0)
(145.254 -99.5052 0)
(184.675 -99.6308 0)
(222.724 -91.7952 0)
(255.605 -79.724 0)
(284.026 -61.2687 0)
(306.528 -39.4286 0)
(320.195 -13.8459 0)
(320.832 13.4629 0)
(314.002 32.8551 0)
(298.487 62.4197 0)
(270.976 79.0724 0)
(243.479 98.1964 0)
(205.672 105.218 0)
(164.869 100.249 0)
(120.359 82.4796 0)
(77.8244 54.7766 0)
(40.3947 26.0263 0)
(12.1354 -2.34205 0)
(-3.02814 19.7735 0)
(-7.33501 9.2699 0)
(-6.86711 -1.86843 0)
(-0.737102 -21.0381 0)
(11.722 -41.5874 0)
(31.4106 -61.6959 0)
(57.3835 -79.0067 0)
(88.7792 -89.1486 0)
(121.049 -93.4639 0)
(152.27 -90.5453 0)
(182.425 -81.0479 0)
(207.25 -67.6205 0)
(226.975 -50.7999 0)
(243.277 -27.8063 0)
(251.317 -6.04703 0)
(255.104 16.9752 0)
(251.699 36.0044 0)
(242.507 56.4552 0)
(225.068 76.6652 0)
(204.472 93.2691 0)
(181.305 103.348 0)
(153.245 106.82 0)
(121.215 100.813 0)
(87.7815 85.6864 0)
(56.3822 65.1245 0)
(30.4313 42.6501 0)
(12.4188 21.6323 0)
(2.67252 2.68885 0)
(-0.409188 -16.1199 0)
(-0.760551 -23.5889 0)
(9.34595 -15.8254 0)
(33.1263 -47.5238 0)
(65.2024 -71.4593 0)
(103.11 -89.7589 0)
(142.186 -98.4116 0)
(182.673 -106.791 0)
(221.824 -94.5433 0)
(255.782 -89.0803 0)
(287.673 -72.0422 0)
(308.315 -51.866 0)
(327.166 -32.0107 0)
(336.141 -6.15843 0)
(337.313 15.2673 0)
(332.38 37.1876 0)
(318.734 59.5482 0)
(298.499 80.7074 0)
(271.092 101.465 0)
(237.457 117.076 0)
(197.315 122.341 0)
(150.535 114.019 0)
(101.253 94.5332 0)
(55.5538 69.6426 0)
(20.0643 48.6586 0)
(-8.69325 26.5744 0)
(-22.3416 11.142 0)
(-25.5685 -15.1048 0)
(-21.2035 -32.6725 0)
(-12.7535 -40.1348 0)
(-5.5979 -31.91 0)
(0.258306 -21.5222 0)
(12.9217 -11.5585 0)
(45.6136 -64.6287 0)
(87.4422 -96.7845 0)
(131.603 -110.815 0)
(174.738 -111.544 0)
(214.593 -102.396 0)
(250.317 -86.4324 0)
(279.609 -66.7813 0)
(300.314 -44.4387 0)
(317.411 -19.9662 0)
(322.818 2.72098 0)
(316.792 29.0822 0)
(308.444 49.0714 0)
(286.241 76.3535 0)
(263.342 98.3778 0)
(228.508 115.167 0)
(189.292 123.817 0)
(141.782 115.044 0)
(90.4606 97.0957 0)
(41.7881 71.3131 0)
(0.79636 47.7399 0)
(-29.107 29.3844 0)
(-47.5642 11.8531 0)
(-55.0585 -5.31254 0)
(-51.7545 -27.6168 0)
(-41.0471 -40.512 0)
(-27.1564 -41.7924 0)
(-14.3849 -34.5277 0)
(-5.47162 -22.2347 0)
(-0.627555 -10.2047 0)
(-5.78204 34.0063 0)
(-3.54821 14.0174 0)
(7.12494 -14.0196 0)
(31.4802 -48.8226 0)
(66.3253 -82.3392 0)
(108.852 -105.747 0)
(154.306 -114.933 0)
(197.472 -110.783 0)
(236.253 -97.7342 0)
(267.887 -76.283 0)
(292.41 -46.3893 0)
(306.257 -22.9134 0)
(310.23 4.70875 0)
(307.665 38.1289 0)
(293.324 70.5451 0)
(271.068 99.8394 0)
(244.256 125.175 0)
(206.958 149.511 0)
(158.133 159.772 0)
(103.752 149.196 0)
(48.1107 124.172 0)
(-1.21897 90.737 0)
(-38.2198 56.0554 0)
(-59.5711 31.6029 0)
(-68.2122 10.1588 0)
(-65.366 -13.6393 0)
(-52.555 -30.2466 0)
(-34.8825 -35.1453 0)
(-17.2314 -29.0285 0)
(-4.59859 -10.3758 0)
(5.62729 -1.43089 0)
(22.8182 -21.1444 0)
(52.977 -49.3133 0)
(94.5172 -76.8331 0)
(144.117 -98.3023 0)
(193.553 -104.954 0)
(241.415 -105.328 0)
(285.189 -89.4383 0)
(314.963 -70.9818 0)
(340.165 -44.0864 0)
(351.752 -17.0888 0)
(350.629 16.6043 0)
(344.564 45.1377 0)
(321.884 81.1327 0)
(293.646 110.321 0)
(257.672 138.431 0)
(209.643 149.142 0)
(151.565 144.324 0)
(89.789 119.149 0)
(29.7533 91.6785 0)
(-18.6829 64.5649 0)
(-53.4426 44.6955 0)
(-70.8281 20.2236 0)
(-73.6843 -6.47596 0)
(-65.9724 -38.3873 0)
(-47.073 -55.256 0)
(-26.7518 -56.1665 0)
(-7.84112 -39.0414 0)
(3.84595 -2.96198 0)
(6.91801 26.78 0)
(-4.6087 -5.35033 0)
(-17.0095 9.01574 0)
(-37.4304 26.5911 0)
(-64.685 51.216 0)
(-95.8882 72.0126 0)
(-128.512 84.125 0)
(-158.034 83.0864 0)
(-180.899 68.3666 0)
(-196.605 43.19 0)
(-204.615 13.2712 0)
(-205.773 -17.9911 0)
(-194.162 -46.556 0)
(-171.749 -70.4146 0)
(-142.583 -87.2303 0)
(-108.419 -95.5841 0)
(-72.541 -95.4178 0)
(-38.0979 -87.9219 0)
(-6.40892 -76.6851 0)
(23.365 -65.3113 0)
(49.5692 -56.926 0)
(71.7748 -47.3183 0)
(87.6469 -32.9722 0)
(100.69 -13.0142 0)
(103.581 1.14643 0)
(98.7805 21.8431 0)
(91.2657 34.0495 0)
(75.6746 48.7676 0)
(57.5158 53.7776 0)
(35.3265 56.5259 0)
(12.0652 50.6893 0)
(6.8647 -33.4059 0)
(16.6287 -25.0843 0)
(20.5579 -8.93675 0)
(17.2402 5.66952 0)
(6.55102 18.5339 0)
(-13.8948 33.3074 0)
(-45.4003 63.1891 0)
(-83.116 86.1185 0)
(-121.67 98.0515 0)
(-156.535 97.3022 0)
(-183.532 84.3015 0)
(-201.194 61.0734 0)
(-213.364 32.4351 0)
(-215.192 4.02234 0)
(-209.369 -23.031 0)
(-193.494 -45.8295 0)
(-174.64 -65.4457 0)
(-143.877 -81.1871 0)
(-113.972 -84.7905 0)
(-79.9424 -86.6555 0)
(-50.8584 -72.9962 0)
(-24.7622 -61.5568 0)
(-6.19873 -39.5273 0)
(4.62226 -22.5909 0)
(10.6478 -4.85516 0)
(9.67448 5.15702 0)
(9.23839 15.7525 0)
(7.14884 24.4158 0)
(4.4414 30.8189 0)
(1.52573 36.2164 0)
(2.17627 -3.91232 0)
(8.60067 -11.6021 0)
(14.8828 -19.825 0)
(22.2237 -19.3869 0)
(28.5747 -20.9503 0)
(34.4525 -14.3586 0)
(39.4667 -10.5117 0)
(42.0518 0.788291 0)
(43.1348 7.88915 0)
(40.5521 20.4396 0)
(35.8002 29.5295 0)
(27.5265 37.533 0)
(16.9679 41.5998 0)
(5.52558 39.8225 0)
(-5.09589 53.3815 0)
(-12.4673 48.401 0)
(-18.7384 39.2906 0)
(-24.2091 31.4608 0)
(-27.5343 25.094 0)
(-29.9361 20.9286 0)
(-30.9396 14.2144 0)
(-30.1102 8.11703 0)
(-26.6296 -3.69237 0)
(-19.3677 -15.25 0)
(-8.30609 -30.6421 0)
(6.71136 -45.12 0)
(25.4849 -61.2253 0)
(47.1845 -73.8714 0)
(70.8099 -82.0414 0)
(94.4191 -83.1074 0)
(115.608 -75.9303 0)
(132.68 -65.1712 0)
(146.421 -49.4982 0)
(154.048 -32.5405 0)
(158.378 -13.9788 0)
(157.432 6.79974 0)
(150.293 21.6709 0)
(140.381 45.8056 0)
(125.912 59.587 0)
(110.594 79.0887 0)
(91.0807 90.7621 0)
(68.6526 93.0687 0)
(41.3861 79.881 0)
(13.7811 50.6111 0)
(-7.13052 53.1236 0)
(-21.7235 54.246 0)
(-34.8338 45.3717 0)
(-43.7177 36.1635 0)
(-49.4308 16.4507 0)
(-50.2721 3.51825 0)
(-47.878 -19.4284 0)
(-40.2883 -33.937 0)
(-27.7155 -55.526 0)
(-12.3963 -68.3679 0)
(7.8969 -82.8551 0)
(31.789 -94.7271 0)
(59.1282 -102.243 0)
(88.5929 -102.661 0)
(117.582 -96.8718 0)
(143.109 -85.7668 0)
(165.511 -69.3666 0)
(183.843 -47.9404 0)
(193.829 -26.0389 0)
(198.933 -2.92033 0)
(198.787 17.8057 0)
(189.56 38.3038 0)
(178.921 54.4338 0)
(164.759 74.3255 0)
(147.351 90.6314 0)
(129.622 105.368 0)
(107.981 113.269 0)
(81.1582 109.886 0)
(49.6579 92.6207 0)
(16.9235 59.2113 0)
(-13.2283 69.5455 0)
(-36.5879 67.3783 0)
(-57.0818 59.7146 0)
(-73.3 45.589 0)
(-87.6287 27.1052 0)
(-96.4262 8.1247 0)
(-99.9014 -12.3198 0)
(-98.7229 -34.3918 0)
(-90.2242 -56.7619 0)
(-75.5812 -79.8197 0)
(-54.3172 -102.615 0)
(-27.0532 -124.522 0)
(5.28802 -144.842 0)
(42.4268 -161.779 0)
(82.903 -169.785 0)
(123.8 -165.775 0)
(162.172 -149.376 0)
(194.897 -122.608 0)
(220.307 -88.9317 0)
(237.982 -48.3054 0)
(246.138 -5.94051 0)
(243.636 43.1986 0)
(234.299 88.7634 0)
(218 136.522 0)
(197.897 176.512 0)
(172.062 202.183 0)
(137.48 201.446 0)
(96.4739 170.473 0)
(53.7761 117.197 0)
(16.9046 61.9305 0)
(9.66513 -3.37846 0)
(32.5614 -56.0215 0)
(61.2395 -103.101 0)
(92.8482 -142.495 0)
(125.371 -165.974 0)
(157.063 -173.917 0)
(184.452 -169.237 0)
(213.68 -153.483 0)
(240.225 -134.526 0)
(257.103 -110.345 0)
(279.031 -89.7596 0)
(292.313 -55.8527 0)
(298.508 -33.8555 0)
(298.034 -4.32395 0)
(286.119 31.1441 0)
(275.972 67.7144 0)
(260.966 103.457 0)
(239.737 142.908 0)
(213.703 178.867 0)
(183.533 198.037 0)
(144.05 190.303 0)
(97.2197 153.914 0)
(51.4723 103.079 0)
(15.2746 61.7549 0)
(-10.2522 36.8949 0)
(-25.4159 13.0223 0)
(-31.996 -12.0512 0)
(-30.8386 -38.65 0)
(-21.4708 -49.4716 0)
(-8.30791 -42.7906 0)
(-2.51696 34.506 0)
(-8.99893 32.0452 0)
(-15.1784 21.1279 0)
(-17.7624 16.2371 0)
(-19.5209 -2.54289 0)
(-18.05 -8.92008 0)
(-12.48 -32.4193 0)
(-3.91174 -45.6704 0)
(10.3965 -68.6566 0)
(30.3607 -91.0679 0)
(56.5473 -111.881 0)
(87.6989 -127.415 0)
(121.813 -136.19 0)
(157.74 -135.234 0)
(191.797 -126.688 0)
(222.641 -109.496 0)
(250.343 -84.6618 0)
(270.846 -56.7085 0)
(285.449 -23.9885 0)
(288.16 10.2018 0)
(284.835 44.4501 0)
(273.582 75.273 0)
(251.034 100.267 0)
(228.724 121.735 0)
(196.645 133.336 0)
(164.342 132.343 0)
(126.152 115.998 0)
(87.2997 86.8262 0)
(49.382 53.1345 0)
(15.4888 17.9567 0)
(-4.05334 29.0157 0)
(-9.06748 13.8947 0)
(-10.4437 -3.56325 0)
(-5.78101 -29.4673 0)
(5.45924 -57.6028 0)
(23.4928 -85.1036 0)
(47.0352 -108.395 0)
(73.019 -122.555 0)
(100.302 -126.8 0)
(128.884 -122.426 0)
(153.875 -108.284 0)
(174.739 -91.8906 0)
(196.402 -66.1574 0)
(210.739 -41.0191 0)
(219.844 -12.4541 0)
(221.899 18.5369 0)
(219.848 48.7659 0)
(214.275 74.8227 0)
(204.404 96.2499 0)
(187.552 117.406 0)
(168.321 130.655 0)
(148.737 137.38 0)
(125.306 133.702 0)
(99.404 120.239 0)
(72.4948 97.8553 0)
(47.0665 69.9843 0)
(26.1467 40.9479 0)
(12.0629 12.9691 0)
(3.60484 -11.3042 0)
(-0.254943 -22.6874 0)
(11.0039 -34.3397 0)
(36.5654 -75.067 0)
(67.342 -103.354 0)
(101.137 -126.13 0)
(134.908 -135.619 0)
(170.92 -141.458 0)
(204.537 -129.149 0)
(231.818 -119.541 0)
(261.398 -93.3461 0)
(278.901 -71.6304 0)
(295.599 -43.1412 0)
(304.277 -15.6991 0)
(305.133 14.3938 0)
(300.842 45.1533 0)
(292.147 74.6872 0)
(276.355 102.187 0)
(255.575 126.633 0)
(228.829 147.293 0)
(197.052 158.742 0)
(160.076 155.469 0)
(119.223 137.317 0)
(77.2939 106.961 0)
(41.9629 76.8113 0)
(12.5677 43.5154 0)
(-2.59536 17.8628 0)
(-7.32829 -19.3345 0)
(-6.03899 -40.1167 0)
(-0.957333 -48.894 0)
(0.833848 -38.2468 0)
(1.90102 -23.9118 0)
(16.6199 -37.8246 0)
(52.8282 -99.9257 0)
(91.2538 -134.733 0)
(127.765 -147.973 0)
(162.366 -146.305 0)
(194.209 -132.615 0)
(221.802 -112.398 0)
(245.256 -88.415 0)
(264.587 -60.5864 0)
(273.658 -30.4909 0)
(281.734 0.551717 0)
(284.813 29.4584 0)
(273.116 62.2245 0)
(264.837 92.1382 0)
(242.916 121.291 0)
(218.9 142.69 0)
(190.781 160.107 0)
(151.346 156.627 0)
(109.444 142.111 0)
(63.4539 113.281 0)
(22.419 81.3676 0)
(-9.80561 51.519 0)
(-30.3243 23.2431 0)
(-38.5015 -4.72747 0)
(-36.2418 -36.7429 0)
(-26.9396 -54.554 0)
(-15.9327 -55.7418 0)
(-6.34128 -45.7262 0)
(-0.511255 -28.5868 0)
(0.952447 -12.1686 0)
(-2.81966 41.8986 0)
(0.607781 11.949 0)
(14.7995 -28.7371 0)
(40.3866 -75.041 0)
(74.4217 -117.313 0)
(111.689 -143.96 0)
(148.676 -153.13 0)
(181.519 -146.056 0)
(211.687 -125.981 0)
(237.932 -97.317 0)
(251.864 -65.7127 0)
(260.878 -29.6466 0)
(269.262 13.5061 0)
(267.532 52.7489 0)
(256.858 89.1683 0)
(239.11 127.215 0)
(218.046 161.726 0)
(195.382 186.957 0)
(162.58 205.582 0)
(120.529 204.577 0)
(75.5803 179.546 0)
(29.3641 136.704 0)
(-8.38982 91.3116 0)
(-33.6879 52.9451 0)
(-45.7597 18.6782 0)
(-44.4785 -15.0833 0)
(-34.0979 -39.5069 0)
(-20.121 -45.4479 0)
(-6.71849 -35.8162 0)
(0.596127 -8.96236 0)
(7.76659 -9.8179 0)
(30.8276 -43.5911 0)
(67.2345 -84.0274 0)
(112.709 -119.059 0)
(163.264 -142.625 0)