/*--------------------------------*- C++ -*----------------------------------*\
| =========                 |                                                 |
| \\      /  F ield         | OpenFOAM: The Open Source CFD Toolbox           |
|  \\    /   O peration     | Version:  2.1.1                                 |
|   \\  /    A nd           | Web:      www.OpenFOAM.org                      |
|    \\/     M anipulation  |                                                 |
\*---------------------------------------------------------------------------*/
FoamFile
{
    version     2.0;
    format      ascii;
    class       volScalarField;
    location    "0.000750000";
    object      fH;
}
// * * * * * * * * * * * * * * * * * * * * * * * * * * * * * * * * * * * * * //

dimensions      [0 0 0 0 0 0 0];

internalField   nonuniform List<scalar> 
12384
(
0.0280107
0.028486
0.0286852
0.0287367
0.0288936
0.0286311
0.028773
0.0290354
0.029098
0.0291058
0.0291003
0.029124
0.0291344
0.0291239
0.0289007
0.0288445
0.0289124
0.0289618
0.0290005
0.0290415
0.0290602
0.0290914
0.0290663
0.0290896
0.0290687
0.0290813
0.0290739
0.0290766
0.0290797
0.0290763
0.0290787
0.0290762
0.0290788
0.029076
0.0290781
0.0290754
0.0290804
0.029073
0.0290791
0.0290776
0.0290772
0.0290778
0.0290777
0.0290802
0.0290792
0.0290764
0.0290765
0.0290749
0.0290759
0.0290743
0.0290749
0.0290738
0.0290739
0.0290734
0.0290729
0.029073
0.0290723
0.0290719
0.0290716
0.0290711
0.0290714
0.029071
0.0290713
0.0290709
0.0290712
0.0290711
0.0290713
0.0290717
0.0290717
0.0290722
0.0290722
0.0290727
0.029073
0.0290792
0.0290792
0.0290731
0.0290727
0.0290724
0.0290722
0.0290719
0.0290716
0.0290711
0.0290709
0.0290704
0.0290702
0.0290699
0.0290696
0.0290691
0.0290687
0.0290687
0.0290692
0.0290696
0.0290699
0.0290701
0.0290705
0.0290708
0.0290711
0.0290716
0.029072
0.0290722
0.0290724
0.0290727
0.0290731
0.0290792
0.0290792
0.0290732
0.0290727
0.0290724
0.0290722
0.029072
0.0290716
0.0290712
0.0290709
0.0290704
0.0290702
0.0290699
0.0290696
0.0290689
0.0290687
0.0290687
0.0290691
0.0290696
0.0290699
0.0290702
0.0290704
0.0290709
0.0290712
0.0290716
0.0290719
0.0290722
0.0290723
0.0290727
0.0290732
0.0290792
0.0290792
0.0290732
0.0290727
0.0290725
0.0290722
0.0290719
0.0290716
0.0290711
0.0290708
0.0290704
0.0290701
0.0290699
0.0290696
0.029069
0.0290687
0.0290687
0.0290692
0.0290696
0.0290699
0.0290701
0.0290705
0.0290708
0.0290711
0.0290716
0.0290719
0.0290722
0.0290724
0.0290727
0.0290731
0.0290792
0.0290792
0.0290732
0.0290727
0.0290723
0.0290722
0.0290719
0.0290716
0.0290711
0.0290709
0.0290704
0.0290702
0.0290699
0.0290696
0.0290692
0.0290688
0.0290687
0.029069
0.0290695
0.0290698
0.0290701
0.0290705
0.0290709
0.0290713
0.0290716
0.029072
0.0290722
0.0290725
0.0290727
0.0290731
0.0290792
0.0290792
0.0290732
0.0290727
0.0290725
0.0290722
0.0290719
0.0290716
0.0290711
0.0290709
0.0290705
0.0290702
0.0290699
0.0290696
0.0290691
0.0290687
0.0290686
0.0290692
0.0290696
0.0290699
0.0290701
0.0290705
0.0290708
0.0290711
0.0290716
0.0290719
0.0290722
0.0290724
0.0290727
0.0290731
0.0290792
0.0290792
0.0290731
0.0290729
0.0290724
0.0290722
0.0290718
0.0290716
0.0290711
0.0290709
0.0290705
0.0290702
0.0290699
0.0290696
0.0290691
0.0290687
0.0290687
0.0290692
0.0290696
0.0290699
0.0290701
0.0290705
0.0290708
0.0290711
0.0290716
0.0290719
0.0290722
0.0290724
0.0290727
0.0290731
0.0290792
0.0290792
0.0290731
0.0290727
0.0290725
0.0290722
0.0290719
0.0290715
0.0290711
0.0290707
0.0290705
0.0290701
0.0290699
0.0290696
0.0290693
0.0290687
0.0290687
0.0290689
0.0290695
0.02907
0.0290702
0.0290705
0.0290708
0.0290711
0.0290716
0.0290719
0.0290722
0.0290725
0.0290729
0.0290733
0.0290792
0.0290792
0.0290731
0.0290727
0.0290723
0.0290722
0.0290718
0.0290716
0.0290711
0.0290708
0.0290705
0.0290702
0.0290699
0.0290696
0.0290691
0.0290687
0.0290686
0.0290691
0.0290696
0.0290699
0.0290701
0.0290705
0.0290708
0.0290712
0.0290716
0.029072
0.0290722
0.0290724
0.0290727
0.0290731
0.0290792
0.0290792
0.0290732
0.0290727
0.0290724
0.0290722
0.029072
0.0290716
0.0290711
0.0290709
0.0290704
0.0290702
0.0290699
0.0290696
0.0290691
0.0290687
0.0290687
0.0290691
0.0290696
0.0290699
0.0290702
0.0290705
0.0290709
0.0290711
0.0290716
0.0290719
0.0290722
0.0290724
0.0290727
0.0290732
0.0290792
0.0290792
0.0290731
0.0290728
0.0290723
0.0290721
0.0290717
0.0290715
0.0290711
0.0290709
0.0290704
0.0290703
0.0290699
0.0290696
0.0290692
0.0290687
0.0290686
0.0290691
0.0290696
0.02907
0.02907
0.0290704
0.0290708
0.0290712
0.0290716
0.0290719
0.0290722
0.0290723
0.0290727
0.0290731
0.0290792
0.0186404
0.0207042
0.0202766
0.0197679
0.0199699
0.018608
0.0197314
0.0215518
0.0240798
0.0255713
0.0262585
0.0273209
0.0275203
0.027225
0.0195179
0.019121
0.0197789
0.0202319
0.0206554
0.0213639
0.0218711
0.0227209
0.0234558
0.0241368
0.0249905
0.0254076
0.0260609
0.0262405
0.0267033
0.0268117
0.0272096
0.0271758
0.027515
0.0276225
0.0278046
0.0279682
0.027967
0.0282236
0.0282728
0.0282963
0.0284811
0.0283018
0.0284188
0.0286916
0.0278842
0.0276277
0.0276611
0.0277542
0.0278018
0.0278984
0.0279364
0.0279709
0.0280336
0.0279957
0.0280907
0.0280229
0.0280912
0.028056
0.0280726
0.0280954
0.0280974
0.0281453
0.0281352
0.0281679
0.0281593
0.0281894
0.0281915
0.0282175
0.0282285
0.0282527
0.028266
0.0282837
0.0283113
0.0287988
0.0287994
0.0283098
0.0282867
0.028266
0.0282492
0.0282337
0.0282039
0.0281868
0.0281587
0.0281444
0.0281224
0.0281169
0.0280908
0.0280705
0.0280421
0.0280511
0.0280721
0.0281008
0.0281092
0.0281283
0.0281347
0.0281629
0.0281766
0.0282069
0.0282259
0.0282506
0.0282661
0.0282846
0.0283115
0.0287982
0.0287998
0.0283107
0.0282895
0.0282654
0.0282517
0.0282349
0.0282066
0.0281879
0.0281594
0.0281444
0.028122
0.0281159
0.0280893
0.0280647
0.0280519
0.0280442
0.0280757
0.0280929
0.0281166
0.0281209
0.0281436
0.0281575
0.0281863
0.0282043
0.0282337
0.0282502
0.0282637
0.0282885
0.0283105
0.0287997
0.0287994
0.0283131
0.0282904
0.0282657
0.0282523
0.0282259
0.0282092
0.0281806
0.0281669
0.0281386
0.0281282
0.0281104
0.0280941
0.0280702
0.0280433
0.0280515
0.0280734
0.0281019
0.0281099
0.0281288
0.0281354
0.0281638
0.0281773
0.0282073
0.0282261
0.0282512
0.028266
0.0282843
0.0283109
0.0287988
0.0287996
0.0283105
0.0282883
0.0282636
0.0282499
0.028233
0.0282031
0.0281855
0.0281565
0.0281427
0.0281198
0.0281156
0.0280934
0.0280812
0.0280513
0.0280478
0.0280593
0.0280898
0.028105
0.028127
0.0281435
0.0281732
0.0281867
0.0282137
0.0282308
0.0282561
0.0282699
0.0282907
0.0283144
0.0287991
0.0287997
0.0283104
0.0282856
0.0282675
0.0282452
0.0282304
0.0281987
0.0281832
0.0281553
0.0281446
0.0281231
0.0281186
0.0280944
0.0280763
0.0280439
0.028048
0.0280686
0.0281004
0.02811
0.0281294
0.0281356
0.0281636
0.0281768
0.0282069
0.0282253
0.0282507
0.0282652
0.0282838
0.0283106
0.0287988
0.0287998
0.0283157
0.0282867
0.0282696
0.0282445
0.0282296
0.0281989
0.0281844
0.028157
0.0281462
0.0281246
0.0281195
0.0280946
0.0280755
0.0280436
0.0280489
0.0280693
0.0281001
0.0281094
0.0281288
0.0281351
0.0281632
0.0281767
0.028207
0.0282255
0.0282506
0.0282656
0.0282842
0.0283111
0.0287985
0.0287994
0.0283111
0.0282853
0.0282648
0.0282497
0.0282227
0.0282051
0.0281753
0.0281635
0.0281367
0.028131
0.0281114
0.0281036
0.0280775
0.0280569
0.0280417
0.0280635
0.0280868
0.0281167
0.0281309
0.0281458
0.028167
0.0281835
0.0282124
0.0282298
0.028256
0.0282685
0.028293
0.0283128
0.0288001
0.028798
0.0283113
0.0282827
0.0282658
0.028242
0.0282283
0.0281981
0.0281838
0.0281563
0.0281463
0.0281252
0.0281206
0.0280965
0.0280788
0.0280455
0.0280472
0.0280665
0.0280986
0.0281089
0.0281283
0.0281355
0.028164
0.0281779
0.0282078
0.0282268
0.0282516
0.028267
0.0282849
0.0283112
0.0287988
0.0287996
0.0283106
0.0282873
0.028266
0.0282491
0.0282324
0.0282015
0.0281841
0.028155
0.0281425
0.0281202
0.0281158
0.0280917
0.0280759
0.0280436
0.0280437
0.0280726
0.0280924
0.0281176
0.0281221
0.0281438
0.0281558
0.0281844
0.028201
0.0282315
0.0282469
0.0282641
0.0282855
0.0283091
0.0287996
0.0287984
0.0283104
0.0282815
0.0282654
0.0282396
0.0282264
0.0281951
0.0281819
0.0281538
0.0281457
0.0281237
0.0281204
0.0280963
0.0280834
0.0280497
0.0280449
0.0280642
0.0280996
0.0281097
0.0281258
0.0281333
0.0281612
0.0281751
0.0282056
0.0282242
0.0282497
0.0282662
0.0282845
0.0283117
0.0287984
0.00887765
0.00993702
0.00877032
0.00897048
0.00906673
0.00913988
0.00898229
0.00876405
0.00931356
0.0100602
0.0101302
0.011272
0.0120824
0.0131705
0.00793452
0.00800805
0.0080305
0.00799418
0.00797186
0.00793399
0.00795198
0.00792122
0.0079217
0.00794535
0.00790371
0.00795896
0.00790528
0.00796793
0.00794683
0.00798376
0.00804427
0.00800532
0.00809545
0.00803946
0.00814579
0.00814726
0.00820369
0.00829609
0.00826139
0.00832577
0.00862456
0.00837344
0.00871729
0.00840697
0.00772589
0.00802308
0.00803663
0.00807745
0.00807092
0.00810909
0.00810882
0.00815521
0.00814224
0.00819193
0.00817482
0.00820998
0.00821377
0.00822886
0.00825069
0.00824705
0.00825405
0.00824196
0.00825029
0.0082441
0.0082508
0.00823954
0.00823429
0.00822338
0.00821248
0.00819946
0.0081928
0.00817882
0.00815945
0.00775226
0.00775268
0.00815963
0.00817876
0.00819216
0.00820176
0.00821403
0.00823167
0.00824602
0.00826145
0.00827447
0.00828478
0.00829117
0.0083063
0.00832523
0.00834347
0.00833944
0.00832001
0.00830217
0.00829229
0.0082842
0.00827723
0.00826208
0.00824965
0.00823244
0.0082162
0.00820194
0.00819258
0.0081792
0.00815947
0.00775238
0.00775268
0.00815917
0.00817755
0.00819188
0.00820203
0.0082122
0.00823012
0.00824539
0.00826137
0.00827452
0.00828515
0.00829196
0.00830748
0.00832913
0.00833606
0.00834178
0.00832094
0.00830422
0.00829147
0.00828568
0.00827517
0.00826236
0.00824655
0.00823146
0.00821342
0.00820281
0.00819338
0.00817826
0.00815952
0.00775268
0.00775243
0.00815592
0.0081772
0.00819178
0.00820206
0.0082162
0.00823093
0.00824682
0.00825942
0.00827509
0.00828409
0.00829209
0.00830634
0.00832453
0.00834279
0.00833923
0.00831906
0.00830141
0.00829183
0.00828392
0.00827679
0.00826143
0.00824905
0.00823217
0.00821612
0.00820195
0.00819268
0.00817933
0.00815977
0.00775237
0.00775268
0.00815953
0.00817835
0.00819372
0.00820263
0.00821409
0.00823216
0.0082471
0.00826301
0.00827581
0.0082865
0.00829208
0.00830337
0.00831627
0.0083353
0.00834147
0.00833009
0.00831058
0.00829723
0.00828577
0.00827311
0.00825485
0.0082426
0.00822757
0.00821294
0.00819917
0.00818898
0.00817592
0.00815455
0.00775238
0.00775279
0.00815969
0.00817913
0.00819172
0.00820438
0.00821691
0.00823505
0.00824883
0.00826324
0.00827414
0.0082836
0.00828998
0.00830341
0.00832088
0.00834222
0.00834212
0.00832303
0.00830286
0.00829174
0.00828339
0.0082765
0.00826157
0.00824934
0.00823246
0.00821663
0.00820244
0.00819318
0.00817968
0.00816003
0.00775238
0.00775242
0.00815577
0.00817728
0.00819194
0.00820456
0.0082173
0.00823427
0.00824772
0.00826168
0.00827297
0.00828267
0.00828951
0.00830355
0.00832163
0.00834241
0.00834134
0.0083224
0.00830289
0.00829225
0.00828383
0.00827687
0.00826188
0.00824949
0.00823239
0.00821641
0.00820224
0.00819294
0.00817945
0.00815977
0.00775239
0.00775229
0.00815869
0.00817937
0.00819226
0.00820358
0.00821826
0.00823386
0.00824993
0.00826161
0.00827519
0.00828233
0.00829087
0.00830018
0.00831582
0.00833482
0.0083436
0.0083305
0.00831104
0.00829118
0.00828053
0.00827085
0.00825857
0.00824567
0.00822887
0.00821392
0.00819978
0.00818987
0.00817544
0.00815609
0.00775254
0.00775241
0.00815954
0.00817996
0.00819437
0.00820585
0.00821798
0.00823447
0.00824822
0.00826212
0.00827277
0.00828208
0.00828861
0.00830202
0.00831902
0.00834093
0.00834272
0.00832467
0.00830406
0.00829266
0.00828422
0.00827684
0.00826133
0.00824877
0.00823178
0.00821564
0.00820147
0.0081919
0.00817889
0.00815944
0.00775235
0.00775266
0.00815982
0.00817872
0.00819238
0.00820203
0.00821492
0.00823343
0.00824818
0.00826387
0.00827584
0.00828589
0.00829199
0.00830504
0.00832062
0.00834264
0.00834275
0.00832321
0.00830483
0.00829069
0.00828437
0.00827479
0.00826311
0.00824789
0.00823347
0.00821563
0.0082032
0.00819369
0.00817969
0.00816058
0.0077527
0.0077525
0.00815995
0.00818039
0.00819461
0.00820724
0.00821956
0.00823621
0.00824976
0.00826358
0.00827367
0.00828292
0.00828933
0.00830176
0.0083157
0.00833757
0.00834501
0.00832679
0.0083029
0.00829176
0.00828617
0.00827817
0.00826363
0.00825078
0.00823355
0.0082176
0.00820232
0.00819288
0.00817958
0.00815958
0.00775237
0.0168231
0.0172963
0.0136399
0.0110377
0.0102733
0.0111408
0.0109127
0.0101604
0.00929402
0.00877068
0.00874941
0.00849338
0.00860752
0.00865722
0.0101774
0.0105592
0.0103048
0.0100917
0.00989935
0.00969737
0.00953327
0.00936881
0.00922677
0.00912456
0.00898611
0.00895023
0.00882784
0.0088135
0.00874947
0.00873782
0.00866669
0.00867937
0.00862852
0.00862088
0.00860031
0.00856436
0.00857281
0.00852988
0.00852726
0.00852983
0.00849541
0.00853471
0.00850359
0.00843032
0.00860699
0.0086274
0.00863309
0.00859978
0.00860398
0.00857753
0.00858015
0.00856139
0.00856365
0.00855176
0.00855628
0.00854598
0.00855166
0.00854246
0.00855087
0.00853634
0.00855165
0.00853297
0.00854999
0.00853409
0.00854661
0.00853763
0.00854488
0.00854114
0.00854465
0.00854428
0.00854502
0.00854473
0.00854231
0.00846842
0.00846844
0.00854256
0.0085452
0.00854484
0.00854472
0.00854546
0.00854447
0.00854535
0.00854431
0.00854532
0.0085443
0.00854533
0.00854435
0.00854527
0.00854442
0.0085452
0.00854437
0.00854533
0.00854429
0.00854532
0.00854417
0.00854536
0.00854434
0.00854546
0.00854468
0.00854535
0.00854521
0.00854457
0.00854217
0.00846841
0.00846837
0.0085423
0.00854529
0.00854463
0.00854535
0.0085452
0.00854455
0.0085454
0.00854432
0.00854533
0.00854429
0.00854532
0.00854436
0.00854512
0.00854487
0.00854446
0.00854527
0.00854432
0.00854532
0.00854423
0.00854531
0.00854427
0.0085454
0.00854452
0.00854528
0.00854527
0.00854464
0.0085453
0.00854226
0.00846836
0.0084685
0.00854243
0.00854514
0.00854459
0.00854546
0.00854455
0.00854537
0.00854436
0.0085453
0.00854431
0.0085453
0.00854455
0.0085449
0.00854522
0.0085444
0.00854519
0.00854435
0.00854532
0.00854428
0.00854531
0.00854417
0.00854535
0.00854435
0.00854545
0.00854468
0.00854538
0.00854517
0.0085445
0.00854225
0.00846835
0.00846836
0.00854225
0.00854531
0.00854468
0.00854518
0.00854534
0.00854449
0.00854538
0.00854424
0.0085453
0.00854419
0.00854532
0.00854431
0.00854531
0.00854437
0.00854518
0.00854437
0.00854527
0.00854439
0.00854528
0.00854452
0.00854532
0.00854452
0.00854532
0.00854459
0.00854546
0.00854462
0.00854492
0.00854252
0.00846824
0.00846843
0.00854257
0.00854513
0.00854507
0.00854471
0.0085455
0.00854438
0.00854534
0.0085442
0.00854531
0.00854428
0.00854536
0.00854435
0.0085453
0.00854442
0.0085452
0.00854437
0.00854532
0.0085443
0.00854534
0.00854419
0.00854536
0.00854435
0.00854546
0.00854468
0.00854541
0.00854514
0.00854452
0.00854224
0.00846838
0.0084682
0.0085427
0.00854455
0.0085454
0.00854464
0.00854548
0.00854441
0.00854537
0.00854428
0.00854533
0.00854431
0.00854537
0.00854435
0.0085453
0.00854443
0.00854519
0.00854437
0.00854533
0.0085443
0.00854533
0.00854418
0.00854536
0.00854435
0.00854545
0.00854468
0.00854539
0.00854517
0.00854454
0.00854219
0.0084684
0.00846827
0.00854248
0.00854477
0.00854464
0.00854554
0.00854457
0.00854539
0.00854429
0.00854532
0.0085442
0.00854534
0.00854431
0.00854535
0.00854439
0.00854523
0.0085444
0.00854521
0.00854435
0.0085453
0.0085446
0.00854473
0.00854523
0.00854447
0.00854532
0.00854452
0.00854542
0.0085445
0.0085452
0.00854267
0.0084684
0.00846843
0.00854231
0.00854449
0.00854538
0.00854466
0.00854551
0.00854445
0.0085454
0.00854427
0.00854535
0.0085443
0.00854537
0.00854436
0.00854532
0.00854442
0.00854518
0.00854437
0.00854531
0.0085443
0.00854532
0.0085442
0.00854536
0.00854438
0.00854545
0.00854471
0.00854536
0.00854521
0.0085445
0.00854227
0.00846834
0.00846837
0.00854225
0.00854533
0.00854491
0.00854477
0.00854547
0.00854442
0.00854536
0.00854423
0.00854531
0.00854425
0.00854532
0.00854433
0.00854529
0.00854448
0.00854457
0.00854524
0.00854434
0.00854532
0.00854428
0.00854533
0.00854425
0.00854537
0.00854442
0.00854549
0.00854472
0.00854489
0.00854529
0.00854233
0.00846841
0.0084684
0.00854248
0.00854451
0.00854537
0.00854453
0.00854548
0.00854432
0.00854537
0.00854415
0.00854537
0.00854418
0.00854541
0.0085443
0.00854536
0.00854439
0.00854515
0.00854446
0.0085454
0.00854447
0.00854546
0.00854443
0.0085456
0.00854458
0.00854572
0.00854492
0.00854554
0.00854536
0.00854465
0.0085422
0.00846838
0.0277534
0.0280898
0.0275291
0.0199899
0.0147514
0.0142237
0.0143625
0.0139785
0.0125867
0.0114155
0.0105091
0.0100538
0.00944827
0.00937948
0.0139795
0.0152931
0.0148014
0.0141121
0.0135473
0.0130808
0.0126916
0.0123586
0.0121207
0.0118925
0.0117028
0.0115713
0.0114742
0.0113521
0.0113047
0.0112364
0.0111717
0.0111903
0.0110811
0.0111124
0.0110208
0.0110126
0.0109983
0.0109119
0.0109119
0.0108592
0.0107801
0.0107784
0.0106863
0.0106981
0.0110894
0.0110872
0.0110452
0.0110467
0.0110107
0.0110052
0.0109782
0.0109789
0.0109545
0.0109607
0.0109377
0.0109497
0.010928
0.0109405
0.0109226
0.0109302
0.0109206
0.0109194
0.0109172
0.0109133
0.0109134
0.0109113
0.0109099
0.0109111
0.0109091
0.0109105
0.0109097
0.0109115
0.0109096
0.0109072
0.0109057
0.0109096
0.0109097
0.0109105
0.0109106
0.0109092
0.0109109
0.0109091
0.010911
0.0109089
0.0109111
0.0109089
0.0109111
0.0109096
0.0109111
0.0109096
0.0109112
0.0109091
0.010911
0.0109087
0.010911
0.0109087
0.0109111
0.0109092
0.0109109
0.0109099
0.0109104
0.0109112
0.0109098
0.010907
0.0109055
0.0109097
0.0109093
0.0109107
0.0109098
0.0109096
0.0109106
0.0109092
0.0109109
0.0109088
0.010911
0.0109089
0.010911
0.0109098
0.01091
0.010911
0.0109093
0.010911
0.0109088
0.010911
0.0109087
0.0109109
0.010909
0.0109106
0.0109095
0.0109098
0.0109107
0.0109094
0.0109097
0.0109055
0.0109061
0.0109095
0.0109096
0.010911
0.0109093
0.0109109
0.0109091
0.0109111
0.0109089
0.010911
0.0109092
0.0109108
0.01091
0.01091
0.0109109
0.0109094
0.0109111
0.0109091
0.0109109
0.0109087
0.010911
0.0109087
0.0109111
0.0109093
0.0109109
0.01091
0.0109103
0.0109111
0.0109097
0.010907
0.0109056
0.0109097
0.0109095
0.0109107
0.0109099
0.0109094
0.0109106
0.010909
0.0109109
0.0109086
0.010911
0.0109086
0.010911
0.0109091
0.0109109
0.0109094
0.010911
0.0109094
0.0109109
0.0109095
0.010911
0.0109094
0.010911
0.0109093
0.010911
0.0109096
0.010911
0.0109103
0.0109098
0.0109065
0.0109056
0.0109096
0.0109098
0.0109098
0.0109106
0.010909
0.0109109
0.0109088
0.010911
0.0109086
0.0109111
0.0109088
0.0109112
0.0109095
0.0109112
0.0109096
0.0109112
0.0109091
0.010911
0.0109087
0.010911
0.0109087
0.0109111
0.0109092
0.0109109
0.0109098
0.0109104
0.0109111
0.0109097
0.010907
0.0109068
0.0109095
0.010911
0.0109096
0.0109112
0.0109091
0.010911
0.0109089
0.010911
0.0109086
0.0109111
0.0109089
0.0109112
0.0109095
0.0109112
0.0109096
0.0109112
0.0109091
0.010911
0.0109087
0.010911
0.0109087
0.0109111
0.0109092
0.0109109
0.0109099
0.0109104
0.0109112
0.0109097
0.010907
0.0109071
0.0109102
0.010911
0.0109111
0.0109096
0.0109112
0.0109091
0.0109112
0.0109087
0.010911
0.0109087
0.010911
0.010909
0.0109111
0.0109094
0.010911
0.0109097
0.0109109
0.0109097
0.0109105
0.0109104
0.0109096
0.0109109
0.0109091
0.0109108
0.0109091
0.0109109
0.0109091
0.0109095
0.0109058
0.0109072
0.0109098
0.0109114
0.0109096
0.0109113
0.0109091
0.0109112
0.0109088
0.0109111
0.0109085
0.0109111
0.0109088
0.0109112
0.0109095
0.0109112
0.0109096
0.0109112
0.0109092
0.010911
0.0109088
0.010911
0.0109088
0.0109111
0.0109093
0.0109109
0.01091
0.0109103
0.0109111
0.0109097
0.010907
0.0109056
0.0109097
0.0109098
0.0109107
0.0109101
0.0109094
0.010911
0.010909
0.0109111
0.0109086
0.0109111
0.0109088
0.0109112
0.0109095
0.0109111
0.0109109
0.0109097
0.0109112
0.0109089
0.0109112
0.0109086
0.010911
0.0109089
0.010911
0.0109092
0.0109106
0.0109106
0.0109098
0.0109098
0.0109057
0.0109071
0.0109096
0.0109115
0.0109095
0.0109114
0.010909
0.0109114
0.0109087
0.0109113
0.0109083
0.0109113
0.0109086
0.0109114
0.0109093
0.0109113
0.0109098
0.0109114
0.0109096
0.0109113
0.0109089
0.0109112
0.0109089
0.0109113
0.0109094
0.0109109
0.0109099
0.0109103
0.010911
0.0109096
0.010907
0.0291786
0.0292039
0.0287088
0.027268
0.0230026
0.0196188
0.0180923
0.0183648
0.0171189
0.0151845
0.0138442
0.0125185
0.0115396
0.0108432
0.019686
0.0226717
0.0220675
0.0206773
0.0191926
0.0180624
0.0172345
0.0165643
0.016084
0.015695
0.015298
0.0150925
0.0148242
0.0146249
0.0145107
0.0143435
0.0142459
0.014197
0.0140026
0.0140359
0.013876
0.0138421
0.0137478
0.0136675
0.0136004
0.0135331
0.0134637
0.0134069
0.0132916
0.013213
0.0140855
0.0140369
0.0140119
0.0138749
0.0138575
0.0137704
0.0137526
0.0137022
0.0136876
0.0136546
0.01365
0.0136213
0.0136273
0.0135987
0.0136096
0.0135836
0.0135935
0.0135708
0.013582
0.0135577
0.0135745
0.0135509
0.013568
0.0135518
0.0135619
0.013556
0.0135608
0.0135588
0.0135581
0.0134697
0.0134707
0.0135561
0.0135604
0.01356
0.0135595
0.01356
0.0135594
0.01356
0.0135596
0.0135602
0.0135599
0.0135602
0.0135603
0.0135609
0.0135605
0.0135608
0.0135603
0.0135605
0.0135598
0.0135601
0.0135596
0.0135599
0.0135594
0.0135601
0.0135594
0.0135602
0.0135608
0.0135602
0.0135573
0.0134696
0.0134707
0.0135561
0.0135604
0.0135598
0.0135602
0.0135599
0.0135594
0.0135601
0.0135595
0.0135602
0.0135598
0.0135602
0.0135602
0.0135611
0.0135599
0.0135605
0.0135607
0.0135602
0.0135602
0.0135598
0.0135601
0.0135594
0.01356
0.0135594
0.0135599
0.0135601
0.0135599
0.0135604
0.0135562
0.0134707
0.01347
0.0135559
0.0135602
0.01356
0.0135602
0.0135593
0.0135599
0.0135595
0.01356
0.0135598
0.0135603
0.0135601
0.0135602
0.013561
0.0135605
0.0135607
0.0135603
0.0135605
0.0135597
0.0135601
0.0135596
0.0135599
0.0135594
0.0135601
0.0135594
0.0135603
0.0135607
0.01356
0.0135573
0.0134697
0.0134707
0.0135562
0.0135605
0.01356
0.0135599
0.0135598
0.0135593
0.01356
0.0135594
0.01356
0.0135597
0.01356
0.01356
0.0135605
0.0135601
0.0135606
0.0135602
0.0135605
0.0135599
0.0135605
0.0135604
0.0135601
0.0135596
0.01356
0.0135594
0.0135603
0.01356
0.0135601
0.0135563
0.0134699
0.0134707
0.0135563
0.0135604
0.0135598
0.0135593
0.0135599
0.0135593
0.0135599
0.0135594
0.01356
0.0135598
0.0135603
0.0135604
0.0135609
0.0135606
0.013561
0.0135605
0.0135606
0.0135599
0.0135602
0.0135597
0.0135599
0.0135594
0.0135601
0.0135595
0.0135603
0.0135607
0.0135601
0.0135573
0.0134697
0.0134705
0.0135567
0.0135598
0.0135607
0.0135597
0.01356
0.0135593
0.0135598
0.0135595
0.01356
0.0135599
0.0135603
0.0135603
0.0135609
0.0135605
0.0135609
0.0135604
0.0135606
0.0135599
0.0135601
0.0135597
0.0135599
0.0135594
0.0135601
0.0135595
0.0135604
0.0135608
0.0135601
0.0135573
0.0134697
0.0134699
0.0135574
0.0135603
0.01356
0.0135604
0.0135595
0.01356
0.0135594
0.0135598
0.0135596
0.0135601
0.0135598
0.0135605
0.0135602
0.0135607
0.0135603
0.0135608
0.0135604
0.0135606
0.01356
0.0135601
0.0135602
0.0135596
0.01356
0.0135592
0.0135601
0.0135598
0.0135601
0.0135558
0.0134706
0.0134697
0.0135573
0.0135602
0.0135608
0.0135598
0.01356
0.0135594
0.0135598
0.0135595
0.01356
0.0135598
0.0135603
0.0135604
0.0135609
0.0135605
0.0135609
0.0135604
0.0135606
0.0135599
0.0135602
0.0135597
0.01356
0.0135595
0.0135601
0.0135594
0.0135603
0.0135607
0.01356
0.0135573
0.0134697
0.0134707
0.0135564
0.0135607
0.0135601
0.0135593
0.01356
0.0135594
0.01356
0.0135595
0.0135601
0.0135599
0.0135603
0.0135603
0.0135609
0.0135606
0.0135608
0.013561
0.0135604
0.0135604
0.0135599
0.0135601
0.0135595
0.01356
0.0135595
0.0135601
0.0135595
0.0135602
0.0135607
0.0135564
0.0134707
0.0134698
0.0135572
0.0135601
0.0135608
0.0135599
0.01356
0.0135594
0.0135599
0.0135595
0.0135601
0.0135599
0.0135605
0.0135607
0.0135614
0.0135613
0.0135617
0.0135613
0.0135614
0.0135607
0.0135609
0.0135602
0.0135605
0.0135599
0.0135605
0.0135597
0.0135599
0.0135606
0.0135598
0.0135567
0.0134693
0.0290904
0.0290355
0.0289536
0.0285102
0.0274252
0.0266705
0.0243163
0.0223031
0.022875
0.0208294
0.0183502
0.016981
0.0150895
0.0132394
0.0265384
0.0304388
0.031269
0.0297764
0.0272182
0.025063
0.0236525
0.0225647
0.0219083
0.0213174
0.0209192
0.0205304
0.0202511
0.0200484
0.0198115
0.0196958
0.0195233
0.0194788
0.0193079
0.0192957
0.0191418
0.0191199
0.0189839
0.0189614
0.0187708
0.018693
0.0185853
0.0183534
0.0182249
0.0180461
0.0195528
0.0194294
0.0192518
0.0191905
0.0190618
0.019045
0.0189475
0.0189557
0.0188835
0.0188927
0.0188489
0.0188483
0.0188254
0.0188215
0.0188001
0.0188095
0.0187758
0.0187968
0.0187602
0.0187833
0.0187508
0.0187691
0.0187473
0.0187575
0.018748
0.018751
0.0187493
0.0187496
0.0187502
0.0187845
0.0187844
0.0187494
0.0187495
0.0187494
0.0187486
0.0187486
0.018748
0.0187482
0.0187478
0.0187481
0.0187477
0.0187477
0.0187472
0.0187476
0.0187472
0.0187476
0.0187471
0.0187476
0.0187473
0.0187478
0.0187478
0.0187479
0.0187477
0.0187482
0.0187481
0.0187489
0.0187496
0.0187494
0.0187503
0.0187841
0.0187843
0.0187493
0.0187492
0.0187493
0.0187488
0.0187486
0.0187478
0.0187481
0.0187477
0.0187481
0.0187476
0.0187477
0.0187471
0.0187476
0.0187473
0.0187471
0.0187475
0.0187472
0.0187477
0.0187477
0.018748
0.0187477
0.018748
0.0187478
0.0187485
0.0187487
0.0187493
0.0187492
0.0187494
0.0187843
0.0187845
0.01875
0.0187498
0.0187494
0.0187489
0.0187483
0.0187483
0.0187479
0.018748
0.018748
0.018748
0.0187473
0.0187473
0.0187477
0.018747
0.0187476
0.0187471
0.0187476
0.0187473
0.0187479
0.0187478
0.0187479
0.0187478
0.0187482
0.0187481
0.018749
0.0187495
0.0187495
0.0187502
0.0187841
0.0187843
0.0187494
0.0187492
0.0187493
0.0187487
0.0187485
0.0187478
0.018748
0.0187477
0.018748
0.0187476
0.0187475
0.0187472
0.0187475
0.0187471
0.0187476
0.0187472
0.0187476
0.0187474
0.0187479
0.018748
0.018748
0.0187479
0.0187483
0.0187484
0.0187492
0.0187494
0.0187496
0.01875
0.0187844
0.0187843
0.0187494
0.0187493
0.0187494
0.0187486
0.0187485
0.018748
0.018748
0.0187479
0.0187479
0.0187477
0.0187477
0.0187473
0.0187475
0.0187472
0.0187477
0.0187472
0.0187476
0.0187474
0.0187478
0.0187478
0.0187479
0.0187478
0.0187482
0.0187481
0.0187491
0.0187496
0.0187495
0.0187503
0.0187841
0.0187844
0.0187501
0.0187496
0.0187497
0.0187488
0.0187485
0.018748
0.0187479
0.0187478
0.0187479
0.0187477
0.0187477
0.0187473
0.0187475
0.0187472
0.0187477
0.0187471
0.0187476
0.0187473
0.0187478
0.0187478
0.0187479
0.0187478
0.0187482
0.0187481
0.018749
0.0187495
0.0187495
0.0187503
0.0187841
0.0187844
0.0187503
0.0187496
0.0187494
0.018749
0.0187484
0.0187482
0.0187479
0.0187478
0.0187478
0.0187477
0.0187474
0.0187476
0.0187471
0.0187476
0.0187472
0.0187477
0.0187472
0.0187479
0.0187474
0.0187479
0.0187481
0.018748
0.0187483
0.0187484
0.0187491
0.0187494
0.0187494
0.0187495
0.0187844
0.0187841
0.0187501
0.0187497
0.0187496
0.0187489
0.0187484
0.018748
0.0187478
0.0187478
0.0187479
0.0187477
0.0187476
0.0187474
0.0187475
0.0187472
0.0187477
0.0187471
0.0187477
0.0187473
0.0187478
0.0187478
0.018748
0.0187478
0.0187482
0.0187481
0.018749
0.0187496
0.0187495
0.0187502
0.0187841
0.0187843
0.0187495
0.0187494
0.0187492
0.0187485
0.0187487
0.018748
0.0187481
0.0187478
0.018748
0.0187477
0.0187476
0.0187474
0.0187476
0.0187471
0.0187471
0.0187475
0.0187473
0.0187475
0.0187477
0.0187479
0.0187478
0.018748
0.018748
0.0187487
0.0187485
0.0187493
0.0187494
0.0187494
0.0187843
0.0187844
0.0187503
0.0187499
0.0187497
0.0187493
0.0187485
0.0187484
0.0187478
0.018748
0.0187478
0.0187479
0.0187476
0.0187474
0.0187474
0.0187471
0.0187473
0.0187468
0.0187469
0.0187469
0.0187474
0.0187473
0.0187474
0.0187472
0.0187475
0.0187475
0.0187482
0.0187488
0.0187486
0.0187495
0.0187837
0.0289041
0.0288798
0.0292621
0.0300812
0.0302582
0.0291639
0.0280527
0.0279008
0.0267437
0.0265687
0.0238428
0.0207619
0.0183255
0.0152889
0.0299955
0.0339871
0.0381868
0.0390204
0.0364351
0.0332775
0.0310304
0.0295574
0.0285484
0.0277566
0.027151
0.0265748
0.02615
0.025809
0.0254252
0.0252578
0.0249248
0.0248472
0.0245752
0.0244999
0.0242943
0.0242286
0.023946
0.0239626
0.0236618
0.0236455
0.0233903
0.0231481
0.022822
0.0225608
0.0252821
0.0250197
0.0246528
0.0243828
0.0241979
0.024059
0.0239654
0.0238912
0.0238394
0.023781
0.0237581
0.0237199
0.0236954
0.023686
0.023652
0.0236584
0.0236213
0.0236352
0.0235961
0.0236155
0.0235795
0.0235971
0.0235711
0.0235832
0.0235683
0.0235762
0.0235679
0.0235696
0.0235667
0.0235927
0.0235923
0.0235669
0.0235699
0.0235726
0.0235736
0.0235748
0.0235752
0.0235754
0.0235754
0.0235756
0.0235756
0.0235756
0.0235754
0.0235756
0.0235754
0.0235755
0.0235753
0.0235755
0.0235753
0.0235757
0.0235753
0.0235752
0.023575
0.0235751
0.0235744
0.0235739
0.0235728
0.0235694
0.0235676
0.0235922
0.0235927
0.0235671
0.0235697
0.0235724
0.0235743
0.0235747
0.0235753
0.0235753
0.0235754
0.0235756
0.0235757
0.0235756
0.0235753
0.0235755
0.0235752
0.0235753
0.0235754
0.0235753
0.0235755
0.0235755
0.0235755
0.0235753
0.0235752
0.0235752
0.0235746
0.0235741
0.0235726
0.0235698
0.0235673
0.0235928
0.0235923
0.023567
0.0235701
0.0235724
0.023574
0.0235744
0.0235752
0.0235751
0.0235755
0.0235755
0.0235758
0.0235754
0.0235754
0.0235756
0.0235753
0.0235755
0.0235753
0.0235755
0.0235753
0.0235756
0.0235753
0.0235752
0.023575
0.0235751
0.0235744
0.0235739
0.0235729
0.0235695
0.0235674
0.0235922
0.0235928
0.0235672
0.0235698
0.0235726
0.0235739
0.0235746
0.0235751
0.0235751
0.0235752
0.0235754
0.0235754
0.0235754
0.0235752
0.0235754
0.0235751
0.0235755
0.0235753
0.0235755
0.0235757
0.0235759
0.023576
0.0235755
0.0235754
0.0235752
0.0235745
0.0235739
0.0235722
0.0235697
0.0235669
0.0235919
0.023593
0.0235672
0.0235699
0.0235726
0.0235737
0.0235747
0.023575
0.0235752
0.0235751
0.0235755
0.0235755
0.0235757
0.0235755
0.0235756
0.0235754
0.0235756
0.0235754
0.0235756
0.0235754
0.0235757
0.0235754
0.0235753
0.0235751
0.0235752
0.0235745
0.023574
0.0235729
0.0235696
0.0235675
0.0235923
0.0235929
0.0235672
0.0235698
0.0235729
0.0235737
0.0235747
0.023575
0.0235752
0.0235751
0.0235755
0.0235756
0.0235757
0.0235755
0.0235756
0.0235754
0.0235756
0.0235754
0.0235756
0.0235754
0.0235757
0.0235753
0.0235753
0.023575
0.0235752
0.0235745
0.023574
0.0235728
0.0235695
0.0235676
0.0235923