/*--------------------------------*- C++ -*----------------------------------*\
| =========                 |                                                 |
| \\      /  F ield         | OpenFOAM: The Open Source CFD Toolbox           |
|  \\    /   O peration     | Version:  2.1.1                                 |
|   \\  /    A nd           | Web:      www.OpenFOAM.org                      |
|    \\/     M anipulation  |                                                 |
\*---------------------------------------------------------------------------*/
FoamFile
{
    version     2.0;
    format      ascii;
    class       volScalarField;
    location    "0.000750000";
    object      k;
}
// * * * * * * * * * * * * * * * * * * * * * * * * * * * * * * * * * * * * * //

dimensions      [0 2 -2 0 0 0 0];

internalField   nonuniform List<scalar> 
12384
(
0.101584
0.101321
0.102477
0.103234
0.103401
0.104174
0.103349
0.103547
0.102069
0.101902
0.102366
0.101861
0.102087
0.101561
0.100701
0.101151
0.101191
0.101516
0.101772
0.101916
0.102093
0.10211
0.102088
0.102073
0.101892
0.10191
0.101758
0.101788
0.101679
0.101651
0.101479
0.101452
0.101226
0.101114
0.100945
0.100788
0.100633
0.100368
0.100359
0.100227
0.0999273
0.100002
0.0996429
0.0997502
0.0993676
0.0993804
0.0993808
0.099355
0.0993674
0.099342
0.0993492
0.0993429
0.0993316
0.0993404
0.0993119
0.0993253
0.0993016
0.0992986
0.0992828
0.0992674
0.099254
0.0992358
0.0992255
0.0992121
0.0992044
0.0991997
0.0991941
0.0991932
0.0991889
0.0991887
0.0991862
0.0991859
0.0991842
0.0991808
0.0991795
0.099185
0.0991863
0.0991868
0.099187
0.0991875
0.099187
0.0991883
0.0991878
0.0991891
0.0991884
0.0991899
0.0991893
0.0991904
0.0991899
0.0991907
0.0991896
0.0991901
0.0991889
0.0991896
0.0991878
0.0991889
0.0991871
0.0991879
0.0991863
0.0991865
0.0991857
0.099185
0.0991841
0.0991805
0.0991795
0.0991848
0.0991866
0.0991865
0.0991867
0.0991874
0.0991873
0.0991884
0.0991876
0.0991893
0.0991885
0.0991899
0.0991893
0.0991896
0.0991909
0.0991907
0.0991904
0.0991892
0.0991899
0.0991884
0.0991893
0.0991877
0.0991885
0.0991871
0.0991872
0.0991869
0.0991865
0.0991865
0.0991847
0.0991795
0.0991796
0.0991847
0.0991866
0.0991858
0.0991874
0.0991867
0.0991878
0.0991872
0.0991886
0.0991881
0.0991895
0.0991894
0.0991895
0.0991903
0.0991902
0.0991906
0.0991896
0.0991902
0.0991889
0.0991896
0.099188
0.0991889
0.0991872
0.0991878
0.0991863
0.0991864
0.0991857
0.099185
0.099184
0.0991804
0.0991794
0.0991846
0.0991865
0.0991865
0.0991869
0.0991873
0.0991871
0.0991885
0.0991877
0.0991892
0.0991884
0.09919
0.0991893
0.0991904
0.0991898
0.0991908
0.0991897
0.0991903
0.099189
0.0991894
0.0991882
0.0991884
0.0991874
0.0991876
0.0991864
0.0991867
0.0991855
0.0991863
0.0991843
0.0991796
0.0991796
0.0991851
0.0991861
0.099187
0.0991868
0.0991878
0.099187
0.0991885
0.0991877
0.0991892
0.0991885
0.0991899
0.0991893
0.0991904
0.0991899
0.0991908
0.0991896
0.0991902
0.0991889
0.0991896
0.099188
0.0991889
0.0991872
0.0991879
0.0991863
0.0991863
0.0991856
0.099185
0.099184
0.0991804
0.0991804
0.0991839
0.0991845
0.099186
0.0991858
0.0991874
0.099187
0.0991883
0.0991877
0.0991891
0.0991884
0.0991898
0.0991892
0.0991904
0.0991899
0.0991908
0.0991896
0.0991902
0.0991889
0.0991896
0.0991878
0.0991889
0.0991871
0.0991879
0.0991863
0.0991864
0.0991857
0.0991849
0.099184
0.0991806
0.09918
0.0991839
0.0991853
0.0991854
0.0991865
0.0991861
0.0991877
0.0991871
0.0991887
0.0991879
0.0991894
0.0991889
0.0991901
0.0991895
0.0991906
0.0991899
0.0991906
0.0991892
0.0991898
0.0991886
0.0991882
0.0991884
0.0991875
0.0991878
0.0991866
0.0991872
0.0991858
0.0991866
0.0991851
0.0991796
0.0991809
0.099184
0.0991846
0.0991859
0.0991857
0.0991872
0.0991868
0.0991883
0.0991876
0.0991891
0.0991884
0.0991898
0.0991892
0.0991904
0.0991899
0.0991908
0.0991896
0.0991902
0.099189
0.0991896
0.0991879
0.0991888
0.0991871
0.0991878
0.0991864
0.0991864
0.0991857
0.099185
0.099184
0.0991804
0.0991793
0.0991847
0.0991862
0.0991867
0.0991868
0.0991876
0.0991869
0.0991885
0.0991875
0.0991891
0.0991883
0.0991897
0.099189
0.0991901
0.0991909
0.0991909
0.0991898
0.099189
0.0991897
0.0991883
0.099189
0.0991875
0.0991885
0.099187
0.0991877
0.0991869
0.0991868
0.0991862
0.0991849
0.0991794
0.0991809
0.0991841
0.0991851
0.0991863
0.0991863
0.0991875
0.0991877
0.0991885
0.0991881
0.0991892
0.0991887
0.0991898
0.0991892
0.0991905
0.0991899
0.0991907
0.0991896
0.0991903
0.0991889
0.0991893
0.0991879
0.0991888
0.0991872
0.0991879
0.0991865
0.0991867
0.0991856
0.0991848
0.0991839
0.0991805
0.10036
0.114137
0.116949
0.119168
0.120755
0.127499
0.128144
0.128477
0.126831
0.122339
0.11842
0.114585
0.109756
0.101633
0.100993
0.10417
0.104529
0.105346
0.106196
0.106919
0.107755
0.108083
0.108616
0.108609
0.108646
0.108351
0.108022
0.10752
0.107081
0.106529
0.105952
0.105431
0.104746
0.104339
0.103705
0.103263
0.102815
0.102378
0.102072
0.10176
0.1014
0.101259
0.100934
0.0997718
0.0993246
0.100425
0.100426
0.10043
0.10042
0.100408
0.100392
0.100375
0.100356
0.100345
0.100319
0.100315
0.100275
0.100278
0.100243
0.100229
0.100202
0.100179
0.100159
0.100136
0.100119
0.100101
0.100093
0.100081
0.100081
0.100075
0.100078
0.100081
0.100075
0.0991496
0.0991422
0.100078
0.100077
0.10008
0.10008
0.100078
0.100079
0.100072
0.100074
0.100067
0.100069
0.100063
0.100065
0.100059
0.10006
0.100057
0.100063
0.10006
0.100067
0.100064
0.100072
0.10007
0.100077
0.100075
0.100081
0.100077
0.100077
0.100082
0.100076
0.099149
0.0991421
0.100079
0.100077
0.10008
0.100077
0.100078
0.100079
0.100073
0.100075
0.100067
0.100069
0.100063
0.100065
0.100057
0.10006
0.10006
0.100059
0.100066
0.100063
0.10007
0.100067
0.100076
0.100072
0.100079
0.100078
0.100077
0.10008
0.100077
0.100079
0.099142
0.0991459
0.100077
0.100079
0.100081
0.100077
0.100081
0.100074
0.100076
0.10007
0.100071
0.100063
0.100066
0.100062
0.100059
0.100061
0.100057
0.100063
0.10006
0.100067
0.100064
0.100071
0.10007
0.100077
0.100074
0.100081
0.100077
0.100077
0.100082
0.100076
0.099149
0.099142
0.10008
0.100077
0.100079
0.100077
0.100078
0.100079
0.100072
0.100075
0.100067
0.10007
0.100063
0.100066
0.100059
0.100062
0.100057
0.100062
0.100061
0.100066
0.100066
0.10007
0.100071
0.100077
0.100076
0.100081
0.100078
0.100081
0.10008
0.100076
0.0991484
0.0991422
0.100079
0.100078
0.100079
0.100081
0.100077
0.100079
0.100072
0.100075
0.100065
0.100069
0.100063
0.100066
0.100059
0.10006
0.100057
0.100063
0.10006
0.100067
0.100064
0.100072
0.10007
0.100077
0.100074
0.100081
0.100077
0.100077
0.100082
0.100076
0.099149
0.0991482
0.100076
0.100083
0.100078
0.100081
0.100076
0.100078
0.100071
0.100075
0.100066
0.100069
0.100063
0.100066
0.100059
0.10006
0.100057
0.100063
0.10006
0.100067
0.100064
0.100072
0.10007
0.100077
0.100074
0.100081
0.100077
0.100077
0.100082
0.100076
0.099149
0.0991499
0.100076
0.100082
0.100081
0.100077
0.100081
0.100074
0.100076
0.10007
0.100071
0.100064
0.100067
0.10006
0.100063
0.100057
0.10006
0.100059
0.100065
0.100064
0.100068
0.10007
0.100069
0.100075
0.100074
0.100081
0.100078
0.100082
0.100079
0.100078
0.0991436
0.099149
0.100077
0.100083
0.100077
0.10008
0.100075
0.100078
0.100071
0.100074
0.100065
0.100069
0.100063
0.100066
0.100059
0.100061
0.100057
0.100063
0.10006
0.100067
0.100064
0.100071
0.10007
0.100077
0.100075
0.100081
0.100077
0.100077
0.100082
0.100076
0.0991491
0.0991421
0.10008
0.100076
0.100079
0.10008
0.100078
0.100079
0.100072
0.100075
0.100066
0.100069
0.100063
0.100066
0.100059
0.10006
0.10006
0.100059
0.100066
0.100063
0.10007
0.100066
0.100075
0.100072
0.10008
0.100078
0.10008
0.100079
0.100077
0.10008
0.0991422
0.0991492
0.100076
0.100083
0.100077
0.10008
0.100075
0.100079
0.100072
0.100075
0.100066
0.10007
0.100062
0.100065
0.100058
0.100061
0.100057
0.100063
0.100061
0.100067
0.100063
0.100071
0.100069
0.100076
0.100075
0.100081
0.100077
0.100077
0.100082
0.100075
0.0991492
0.109205
0.132873
0.11942
0.117422
0.117228
0.125452
0.122937
0.122864
0.121439
0.119366
0.115303
0.111696
0.109028
0.101676
0.101325
0.106535
0.106263
0.106572
0.106832
0.10707
0.107184
0.10723
0.107199
0.1069
0.106778
0.1063
0.106076
0.105545
0.105218
0.104719
0.104314
0.103934
0.103402
0.103216
0.102647
0.10251
0.102153
0.101876
0.101608
0.101374
0.101231
0.101018
0.100872
0.0998975
0.0994733
0.10045
0.100428
0.100397
0.100375
0.100353
0.100328
0.100296
0.100287
0.100256
0.100254
0.100228
0.100208
0.100196
0.100166
0.100158
0.100138
0.100126
0.10011
0.100088
0.100075
0.100055
0.100053
0.100044
0.100048
0.100048
0.100051
0.100058
0.100065
0.0992333
0.0992411
0.100058
0.10005
0.100047
0.100044
0.100033
0.100032
0.10002
0.100021
0.10001
0.100014
0.100005
0.100006
0.0999932
0.0999927
0.0999887
0.100001
0.100001
0.100012
0.100006
0.100016
0.100013
0.100024
0.100024
0.100037
0.100041
0.100047
0.100058
0.100063
0.0992322
0.099241
0.100056
0.10005
0.100049
0.100041
0.100035
0.100031
0.100019
0.10002
0.100009
0.100014
0.100005
0.100006
0.0999939
0.0999923
0.099993
0.0999949
0.100008
0.100005
0.100014
0.100009
0.10002
0.100019
0.100031
0.100035
0.100041
0.100049
0.100049
0.100057
0.099241
0.0992394
0.100062
0.10005
0.10005
0.100039
0.100038
0.100026
0.100026
0.100016
0.100017
0.100009
0.100011
0.100002
0.0999943
0.0999922
0.0999888
0.100002
0.100001
0.100013
0.100007
0.100016
0.100013
0.100025
0.100025
0.100038
0.100041
0.100047
0.100056
0.100063
0.0992328
0.0992413
0.100057
0.10005
0.100048
0.100041
0.100033
0.100031
0.100019
0.10002
0.100008
0.100012
0.100005
0.100008
0.0999965
0.0999964
0.0999878
0.0999969
0.0999981
0.100009
0.100007
0.100016
0.100018
0.100028
0.100029
0.100039
0.100041
0.100051
0.100053
0.100069
0.0992348
0.0992405
0.100056
0.10005
0.100044
0.100043
0.100031
0.100031
0.100018
0.100021
0.10001
0.100015
0.100005
0.100008
0.0999948
0.0999935
0.0999875
0.100001
0.100001
0.100012
0.100007
0.100016
0.100013
0.100024
0.100024
0.100037
0.100041
0.100047
0.100056
0.100063
0.0992326
0.0992363
0.100064
0.100055
0.100043
0.100044
0.100031
0.100031
0.100019
0.100021
0.10001
0.100015
0.100006
0.100007
0.0999945
0.0999933
0.0999878
0.100001
0.100001
0.100012
0.100006
0.100016
0.100013
0.100024
0.100024
0.100037
0.100041
0.100047
0.100056
0.100063
0.0992323
0.0992341
0.100065
0.100054
0.100048
0.100039
0.100038
0.100025
0.100026
0.100013
0.100017
0.100007
0.100013
0.100003
0.100003
0.0999907
0.0999925
0.0999907
0.100003
0.100005
0.100012
0.100016
0.100019
0.100028
0.100028
0.10004
0.10004
0.10005
0.10005
0.10006
0.0992407
0.0992326
0.100063
0.100056
0.100043
0.100044
0.100031
0.100031
0.100019
0.100022
0.10001
0.100015
0.100006
0.100008
0.0999955
0.099994
0.0999872
0.0999993
0.1
0.100011
0.100006
0.100016
0.100013
0.100025
0.100025
0.100038
0.100041
0.100048
0.100056
0.100063
0.0992329
0.0992417
0.100057
0.10005
0.100048
0.100042
0.100032
0.100031
0.100018
0.10002
0.100008
0.100013
0.100004
0.100008
0.0999953
0.0999925
0.0999917
0.0999949
0.100008
0.100005
0.100014
0.100009
0.100021
0.100018
0.100031
0.100032
0.100043
0.100046
0.10005
0.100056
0.0992412
0.099233
0.100063
0.100055
0.100042
0.100044
0.100031
0.100032
0.100017
0.100022
0.100009
0.100015
0.100005
0.100009
0.0999969
0.0999954
0.0999863
0.0999976
0.100001
0.100012
0.100006
0.100015
0.100012
0.100024
0.100024
0.100037
0.100041
0.100047
0.100058
0.100063
0.0992324
0.144709
0.190717
0.143399
0.130438
0.129171
0.140196
0.132173
0.128526
0.127142
0.124063
0.117976
0.113933
0.110922
0.101423
0.101635
0.111106
0.110285
0.110037
0.109739
0.109591
0.109218
0.108967
0.108575
0.10814
0.107726
0.107125
0.10676
0.106046
0.105598
0.10504
0.104636
0.104132
0.103648
0.10333
0.102782
0.102581
0.102133
0.102007
0.101614
0.101364
0.101271
0.100891
0.100918
0.0999128
0.0994486
0.100392
0.100376
0.100365
0.100339
0.100321
0.100291
0.100273
0.100257
0.10022
0.100219
0.100172
0.100175
0.100137
0.100127
0.100107
0.100076
0.100068
0.100035
0.100019
0.0999971
0.0999745
0.099958
0.099941
0.0999327
0.0999239
0.0999258
0.0999274
0.0999248
0.0991816
0.0991745
0.0999217
0.0999227
0.0999222
0.0999212
0.0999179
0.0999173
0.0999168
0.0999163
0.099916
0.0999154
0.0999148
0.099914
0.0999142
0.0999134
0.0999146
0.0999141
0.0999149
0.0999152
0.0999161
0.0999167
0.0999164
0.0999168
0.099917
0.0999176
0.0999151
0.0999185
0.0999236
0.0999238
0.0991812
0.0991752
0.0999231
0.0999235
0.0999218
0.0999181
0.0999156
0.0999184
0.0999172
0.0999166
0.0999162
0.0999157
0.0999151
0.0999146
0.0999134
0.0999124
0.0999165
0.0999145
0.0999144
0.0999152
0.0999159
0.0999163
0.0999166
0.099917
0.099918
0.0999152
0.0999181
0.0999216
0.099923
0.0999231
0.099175
0.0991754
0.0999202
0.0999246
0.0999208
0.0999188
0.0999177
0.0999175
0.0999169
0.0999164
0.099916
0.0999153
0.0999158
0.0999143
0.099912
0.0999144
0.099915
0.0999145
0.099915
0.0999153
0.0999161
0.0999166
0.0999164
0.0999167
0.0999171
0.0999175
0.0999155
0.0999189
0.0999243
0.0999234
0.0991812
0.0991749
0.0999231
0.0999227
0.0999218
0.0999188
0.0999156
0.0999178
0.0999171
0.0999168
0.0999166
0.0999163
0.0999157
0.0999149
0.0999149
0.0999143
0.0999152
0.0999144
0.0999147
0.0999151
0.0999154
0.0999154
0.0999161
0.0999168
0.0999178
0.0999182
0.099919
0.0999219
0.0999266
0.0999211
0.0991779
0.0991746
0.0999222
0.0999216
0.0999199
0.0999201
0.099918
0.0999176
0.099917
0.0999168
0.0999165
0.0999156
0.099915
0.099914
0.0999139
0.099913
0.0999141
0.0999137
0.0999145
0.0999149
0.0999159
0.0999164
0.0999162
0.0999166
0.0999168
0.0999172
0.0999151
0.0999188
0.0999241
0.0999232
0.0991813
0.0991795
0.0999192
0.0999229
0.0999194
0.0999176
0.099917
0.0999168
0.0999166
0.0999165
0.0999162
0.0999155
0.0999148
0.0999139
0.0999139
0.099913
0.0999142
0.0999138
0.0999146
0.099915
0.099916
0.0999165
0.0999163
0.0999166
0.0999168
0.0999173
0.0999151
0.0999186
0.0999239
0.0999235
0.0991814
0.0991806
0.0999221
0.0999241
0.0999212
0.0999171
0.099917
0.0999169
0.0999168
0.0999165
0.0999165
0.0999161
0.0999151
0.0999148
0.0999143
0.0999147
0.0999139
0.0999146
0.0999144
0.0999143
0.0999169
0.0999168
0.099916
0.0999168
0.0999178
0.0999183
0.0999197
0.0999217
0.0999246
0.0999201
0.0991752
0.0991809
0.0999231
0.0999226
0.0999192
0.0999174
0.0999167
0.0999166
0.0999164
0.0999164
0.0999161
0.0999156
0.099915
0.099914
0.099914
0.0999131
0.0999143
0.0999137
0.0999145
0.0999149
0.0999158
0.0999163
0.0999161
0.0999165
0.0999171
0.0999175
0.0999156
0.0999188
0.0999243
0.0999234
0.0991811
0.0991744
0.0999232
0.0999219
0.0999215
0.0999198
0.0999172
0.0999174
0.0999168
0.0999165
0.0999162
0.0999157
0.0999149
0.099914
0.0999135
0.0999159
0.0999154
0.0999131
0.0999138
0.0999147
0.0999153
0.099916
0.0999164
0.0999165
0.099917
0.0999173
0.0999201
0.0999209
0.0999217
0.0999224
0.0991744
0.0991807
0.0999222
0.0999228
0.0999195
0.099918
0.099917
0.099917
0.099917
0.099917
0.0999169
0.0999166
0.0999158
0.0999148
0.0999138
0.0999128
0.0999137
0.0999125
0.099913
0.0999132
0.0999149
0.0999157
0.0999158
0.0999162
0.0999165
0.0999178
0.0999149
0.0999187
0.0999237
0.0999242
0.0991815
0.143913
0.242892
0.229615
0.166798
0.148013
0.171061
0.153261
0.144543
0.139415
0.133317
0.125265
0.120295
0.115992
0.101393
0.10194
0.118741
0.116755
0.11553
0.114342
0.113487
0.112551
0.111676
0.110858
0.110034
0.109267
0.108415
0.107717
0.10696
0.106292
0.105672
0.105091
0.104449
0.104029
0.103487
0.103169
0.102735
0.102318
0.102179
0.101681
0.101525
0.101389
0.101039
0.101059
0.0998352
0.099577
0.100508
0.100462
0.100418
0.100379
0.100366
0.100324
0.100315
0.100282
0.100256
0.100247
0.100198
0.100205
0.100159
0.100159
0.100136
0.100108
0.100105
0.100068
0.100065
0.100027
0.100018
0.0999885
0.0999751
0.0999571
0.0999526
0.0999467
0.0999403
0.0999411
0.0991861
0.0991927
0.0999347
0.0999435
0.0999379
0.0999363
0.0999419
0.0999349
0.0999416
0.0999346
0.0999423
0.0999348
0.0999419
0.0999342
0.0999405
0.0999336
0.0999404
0.099934
0.099942
0.0999347
0.099943
0.099935
0.0999426
0.0999347
0.0999418
0.099935
0.0999418
0.0999405
0.0999367
0.0999401
0.0991853
0.0991931
0.0999351
0.0999436
0.099937
0.0999405
0.0999415
0.099935
0.0999414
0.0999346
0.0999422
0.0999348
0.0999421
0.0999343
0.0999402
0.0999375
0.0999332
0.0999412
0.0999344
0.0999427
0.0999349
0.0999427
0.0999347
0.0999417
0.0999352
0.0999416
0.0999399
0.099937
0.0999434
0.0999353
0.0991931
0.0991899
0.0999359
0.0999434
0.0999369
0.0999422
0.0999354
0.0999418
0.0999351
0.0999421
0.0999351
0.0999416
0.0999343
0.0999383
0.0999396
0.0999337
0.0999405
0.0999342
0.0999421
0.0999349
0.099943
0.0999352
0.0999425
0.0999348
0.0999417
0.0999351
0.0999419
0.0999405
0.0999371
0.0999397
0.0991855
0.0991931
0.0999354
0.0999432
0.0999371
0.0999392
0.0999417
0.099935
0.0999419
0.0999347
0.099943
0.099935
0.099943
0.0999347
0.0999418
0.0999341
0.0999409
0.0999346
0.099941
0.0999352
0.0999402
0.0999363
0.0999405
0.0999355
0.0999416
0.0999358
0.099942
0.0999373
0.0999411
0.0999363
0.0991886
0.099193
0.0999349
0.0999423
0.0999416
0.0999354
0.0999422
0.0999346
0.0999424
0.0999345
0.099943
0.0999345
0.0999422
0.099934
0.0999405
0.0999332
0.0999399
0.0999337
0.0999416
0.0999346
0.0999428
0.0999349
0.0999425
0.0999347
0.0999417
0.0999349
0.099942
0.0999404
0.0999369
0.0999397
0.0991855
0.0991885
0.0999379
0.0999374
0.0999428
0.0999354
0.0999422
0.0999348
0.0999425
0.0999346
0.0999429
0.0999346
0.099942
0.0999341
0.0999404
0.0999333
0.09994
0.0999337
0.0999418
0.0999346
0.0999429
0.099935
0.0999426
0.0999347
0.0999417
0.099935
0.099942
0.0999405
0.0999367
0.09994
0.0991854
0.0991862
0.0999373
0.0999379
0.0999371
0.0999422
0.0999349
0.0999424
0.0999348
0.0999431
0.0999351
0.099943
0.0999349
0.099942
0.0999343
0.099941
0.0999341
0.0999405
0.0999345
0.0999403
0.0999352
0.0999367
0.0999406
0.0999353
0.0999415
0.0999357
0.0999423
0.0999374
0.0999439
0.099935
0.099192
0.0991852
0.0999391
0.0999364
0.0999425
0.0999353
0.0999422
0.0999346
0.0999426
0.0999347
0.0999431
0.0999345
0.0999422
0.0999341
0.0999405
0.0999332
0.0999399
0.0999337
0.0999416
0.0999346
0.0999426
0.099935
0.0999423
0.0999347
0.0999415
0.0999349
0.0999417
0.0999406
0.0999372
0.0999396
0.0991855
0.099193
0.0999357
0.099943
0.0999371
0.0999378
0.099942
0.0999347
0.0999421
0.0999345
0.099943
0.0999346
0.0999426
0.0999341
0.0999408
0.099933
0.0999341
0.0999404
0.0999341
0.0999422
0.0999345
0.099943
0.0999345
0.0999422
0.0999346
0.099942
0.0999358
0.0999375
0.099943
0.099935
0.0991929
0.0991862
0.0999389
0.0999365
0.0999429
0.0999353
0.0999424
0.0999344
0.099943
0.0999346
0.0999439
0.0999348
0.0999432
0.0999339
0.0999402
0.0999327
0.0999387
0.0999327
0.099939
0.0999335
0.0999422
0.0999345
0.0999421
0.0999344
0.0999412
0.0999346
0.0999408
0.0999405
0.0999368
0.0999405
0.0991854
0.152541
0.264206
0.302276
0.275216
0.203416
0.203863
0.174099
0.169694
0.159395
0.149211
0.137954
0.130724
0.125107
0.103586
0.102284
0.131421
0.127825
0.124133
0.121148
0.119057
0.117167
0.115331
0.113761
0.11234
0.111199
0.109916
0.108986
0.108074
0.107122
0.106429
0.105653
0.105014
0.104488
0.103772
0.103452
0.102897
0.102525
0.102291
0.101858
0.101676
0.101424
0.101183
0.101161
0.0998974
0.0995839
0.100595
0.100492
0.100511
0.100443
0.100439
0.100373
0.10036
0.100315
0.10029
0.100258
0.100236
0.100216
0.10019
0.100172
0.100156
0.100131
0.100128
0.100091
0.100091
0.100049
0.100048
0.100011
0.100003
0.0999785
0.0999704
0.0999592
0.0999555
0.0999525
0.0991959
0.0991942
0.0999497
0.0999508
0.0999497
0.0999498
0.0999518
0.099949
0.0999519
0.0999489
0.0999523
0.0999489
0.0999525
0.0999486
0.0999509
0.0999481
0.099951
0.0999483
0.0999522
0.0999494
0.0999531
0.0999492
0.0999528
0.0999491
0.0999516
0.0999491
0.0999502
0.0999486
0.0999483
0.0999497
0.0991945
0.0991947
0.0999501
0.0999511
0.0999492
0.0999503
0.0999515
0.0999495
0.0999517
0.0999492
0.0999525
0.0999491
0.0999528
0.0999488
0.0999501
0.0999511
0.0999484
0.0999513
0.0999489
0.0999532
0.0999493
0.099953
0.0999494
0.0999521
0.0999495
0.0999516
0.0999504
0.0999492
0.0999508
0.0999498
0.0991947
0.0991957
0.0999507
0.0999515
0.0999484
0.0999511
0.0999491
0.0999518
0.0999489
0.0999521
0.0999489
0.0999519
0.0999494
0.0999507
0.09995
0.0999485
0.0999511
0.0999485
0.0999523
0.0999495
0.0999531
0.0999492
0.0999527
0.0999491
0.0999515
0.099949
0.09995
0.0999488
0.0999488
0.0999498
0.0991948
0.0991947
0.0999498
0.0999506
0.0999492
0.0999504
0.0999517
0.0999495
0.0999523
0.0999495
0.0999532
0.0999495
0.0999536
0.0999492
0.099952
0.099949
0.0999517
0.0999488
0.0999519
0.0999494
0.0999508
0.099948
0.099951
0.0999487
0.0999513
0.099949
0.0999506
0.0999485
0.0999506
0.0999502
0.099195
0.0991949
0.0999495
0.09995
0.0999513
0.0999499
0.0999525
0.0999492
0.0999529
0.0999492
0.0999532
0.099949
0.0999525
0.0999484
0.0999508
0.0999477
0.0999505
0.099948
0.0999519
0.0999492
0.0999529
0.0999491
0.0999528
0.0999491
0.0999515
0.0999488
0.09995
0.0999486
0.0999487
0.0999496
0.0991948
0.099194
0.0999506
0.0999494
0.0999507
0.0999482
0.0999521
0.0999489
0.0999526
0.0999491
0.0999529
0.0999488
0.0999524
0.0999483
0.0999508
0.0999478
0.0999508
0.0999481
0.099952
0.0999492
0.099953
0.0999491
0.0999528
0.0999491
0.0999515
0.0999489
0.09995
0.0999485
0.0999485
0.0999497
0.0991946
0.0991939
0.0999491
0.0999492
0.0999486
0.0999503
0.0999485
0.0999519
0.0999489
0.099953
0.0999491
0.099953
0.0999493
0.0999523
0.0999485
0.0999515
0.0999487
0.0999509
0.0999488
0.0999512
0.0999496
0.0999494
0.0999511
0.0999489
0.0999518
0.0999495
0.0999516
0.0999489
0.099952
0.0999507
0.0991947
0.0991947
0.0999494
0.0999482
0.0999502
0.0999477
0.0999519
0.0999486
0.0999526
0.0999489
0.099953
0.0999489
0.0999526
0.0999484
0.0999508
0.0999478
0.0999507
0.0999481
0.0999519
0.0999492
0.0999527
0.099949
0.0999524
0.0999488
0.0999513
0.099949
0.09995
0.0999487
0.0999487
0.0999495
0.0991947
0.0991944
0.0999495
0.0999501
0.0999489
0.0999505
0.0999519
0.0999491
0.0999524
0.0999491
0.0999529
0.0999489
0.0999528
0.0999486
0.0999508
0.0999483
0.0999482
0.0999504
0.0999485
0.0999525
0.0999489
0.0999529
0.099949
0.0999525
0.0999489
0.0999518
0.0999496
0.0999493
0.0999502
0.0999495
0.0991942
0.099195
0.0999496
0.0999484
0.0999505
0.0999478
0.0999523
0.0999487
0.0999532
0.0999494
0.099954
0.0999495
0.0999533
0.0999484
0.0999512
0.0999474
0.0999501
0.0999474
0.099951
0.0999491
0.0999528
0.0999496
0.0999529
0.0999496
0.0999519
0.0999498
0.0999517
0.09995
0.0999497
0.0999515
0.0991947
0.161251
0.281705
0.323567
0.344319
0.311843
0.258577
0.212535
0.183225
0.182278
0.178571
0.163484
0.149985
0.141576
0.106218
0.104304
0.156098
0.150521
0.140563
0.132684
0.127544
0.123629
0.120489
0.11789
0.115737
0.113982
0.112261
0.110819
0.109594
0.108386
0.107492
0.106527
0.105713
0.105113
0.104342
0.10394
0.103342
0.102891
0.102516
0.102184
0.101849
0.101602
0.101421
0.101275
0.0999823
0.0997025
0.100776
0.100552
0.10059
0.100465
0.100489
0.100425
0.100392
0.100363
0.100322
0.100289
0.100275
0.100228
0.100229
0.100189
0.100182
0.100158
0.100143
0.100125
0.100109
0.100087
0.100069
0.100044
0.10003
0.100005
0.0999907
0.0999763
0.0999702
0.0999638
0.0991756
0.0991764
0.0999618
0.0999625
0.0999621
0.0999632
0.0999639
0.0999642
0.0999643
0.0999648
0.0999646
0.0999646
0.0999649
0.0999644
0.0999639
0.0999643
0.0999642
0.0999645
0.0999646
0.0999654
0.0999653
0.0999651
0.0999653
0.0999649
0.0999642
0.0999644
0.0999638
0.0999618
0.0999618
0.0999607
0.0991744
0.0991763
0.0999617
0.0999624
0.0999627
0.0999631
0.0999646
0.0999644
0.0999641
0.0999649
0.0999646
0.0999648
0.0999649
0.0999646
0.0999637
0.0999658
0.0999644
0.0999642
0.0999646
0.0999653
0.0999649
0.099965
0.0999651
0.0999643
0.0999645
0.0999646
0.0999631
0.0999625
0.0999623
0.0999615
0.0991763
0.0991752
0.099962
0.0999623
0.0999622
0.0999632
0.0999644
0.0999644
0.0999646
0.0999647
0.0999644
0.0999643
0.0999647
0.0999649
0.0999636
0.0999644
0.0999643
0.0999645
0.0999647
0.0999653
0.0999652
0.0999651
0.0999653
0.0999649
0.0999643
0.0999644
0.0999635
0.0999621
0.0999621
0.0999608
0.0991745
0.0991763
0.0999615
0.0999622
0.0999624
0.0999633
0.0999646
0.0999647
0.0999646
0.0999652
0.0999652
0.0999651
0.0999657
0.099965
0.0999646
0.0999649
0.0999644
0.0999645
0.0999644
0.0999649
0.099964
0.0999637
0.0999645
0.0999643
0.0999644
0.0999644
0.0999631
0.0999619
0.0999616
0.0999615
0.0991747
0.0991763
0.0999615
0.099962
0.0999634
0.0999634
0.099964
0.0999644
0.0999648
0.0999651
0.0999652
0.0999649
0.0999649
0.0999643
0.0999639
0.0999641
0.0999639
0.0999642
0.0999644
0.0999651
0.0999651
0.099965
0.0999652
0.0999648
0.0999642
0.0999643
0.0999634
0.0999619
0.099962
0.0999607
0.0991745
0.0991754
0.0999612
0.099962
0.0999618
0.0999628
0.0999642
0.0999645
0.0999649
0.0999652
0.0999651
0.0999648
0.0999648
0.0999643
0.0999639
0.0999641
0.099964
0.0999643
0.0999644
0.0999651
0.0999652
0.099965
0.0999653
0.0999648
0.0999642
0.0999644
0.0999635
0.0999619
0.0999619
0.0999607
0.0991745
0.0991743
0.09996
0.0999612
0.0999621
0.0999629
0.0999642
0.0999646
0.099965
0.0999657
0.0999653
0.0999654
0.0999653
0.0999647
0.0999646
0.0999644
0.0999647
0.0999638
0.0999642
0.0999642
0.0999645
0.099964
0.0999642
0.0999641
0.0999643
0.0999643
0.0999631
0.0999623
0.0999626
0.0999624
0.0991761
0.0991745
0.0999607
0.0999615
0.0999618
0.0999628
0.0999643
0.0999646
0.0999651
0.0999652
0.0999654
0.0999649
0.099965
0.0999643
0.0999639
0.0999641
0.0999639
0.0999642
0.0999643
0.0999651
0.099965
0.0999649
0.099965
0.0999647
0.0999641
0.0999644
0.0999635
0.0999619
0.0999621
0.0999608
0.0991745
0.0991764
0.0999614
0.0999619
0.0999618
0.0999639
0.099964
0.0999643
0.0999646
0.099965
0.099965
0.0999648
0.0999652
0.0999645
0.0999641
0.099964
0.0999639
0.0999639
0.0999644
0.0999652
0.0999648
0.0999652
0.099965
0.0999646
0.0999643
0.0999638
0.0999631
0.0999618
0.099962
0.0999616
0.0991763
0.0991746
0.0999604
0.099961
0.0999613
0.0999622
0.099964
0.0999643
0.0999653
0.0999651
0.0999657
0.099965
0.0999652
0.0999642
0.0999642
0.0999639
0.0999641
0.0999645
0.0999653
0.0999659
0.0999655
0.0999655
0.0999657
0.099966
0.0999651
0.0999654
0.0999655
0.0999634
0.0999638
0.0999627
0.0991746
0.173742
0.29129
0.336534
0.324338
0.289592
0.26138
0.26033
0.233581
0.20852
0.208577
0.194115
0.171853
0.167197
0.109922
0.12051
0.226701
0.21044
0.177694
0.154982
0.141592
0.133205
0.127358
0.123024
0.119714
0.117124
0.11484
0.11295
0.111371
0.109861
0.108699
0.107571
0.106578
0.105831
0.104986
0.104312
0.103749
0.103187
0.102738
0.102432
0.102012
0.101889
0.101816
0.101758
0.100457
0.0993968
0.100785
0.100503
0.100627
0.100497
0.100526
0.100459
0.100419
0.100389
0.100351
0.100314
0.100295
0.100257
0.100248
0.100211
0.100207
0.100183
0.10017
0.100153
0.100131
0.100117
0.100094
0.100076
0.100057
0.100037
0.100019
0.1
0.0999912
0.0999817
0.0991732
0.0991712
0.0999774
0.0999779
0.0999776
0.0999794
0.0999795
0.0999804
0.09998
0.0999809
0.0999803
0.0999812
0.0999811
0.0999826
0.099982
0.099982
0.0999814
0.099983
0.0999823
0.0999822
0.0999811
0.0999813
0.0999809
0.0999809
0.0999799
0.0999803
0.0999793
0.0999773
0.0999777
0.0999762
0.0991716
0.0991713
0.0999773
0.0999778
0.099978
0.0999788
0.0999798
0.0999804
0.0999799
0.0999811
0.0999805
0.0999815
0.0999812
0.0999829
0.099982
0.099983
0.0999819
0.0999823
0.0999829
0.0999815
0.0999816
0.0999807
0.0999814
0.0999802
0.0999806
0.09998
0.0999791
0.0999778
0.0999777
0.0999773
0.0991713
0.0991717
0.0999772
0.0999775
0.0999775
0.0999788
0.0999802
0.0999798
0.0999806
0.0999805
0.0999806
0.0999805
0.0999814
0.0999827
0.0999817
0.0999819
0.0999815
0.099983
0.0999823
0.0999821
0.0999811
0.0999813
0.099981
0.0999809
0.0999799
0.0999803
0.0999791
0.0999773
0.0999779
0.0999763
0.0991717
0.0991713
0.0999773
0.0999776
0.0999778
0.0999793
0.09998
0.0999807
0.0999803
0.0999815
0.0999809
0.0999818
0.0999817
0.0999832
0.0999826
0.0999826
0.0999815
0.0999828
0.099982
0.0999814
0.0999802
0.0999798
0.0999803
0.0999802
0.0999799
0.0999799
0.0999788
0.0999776
0.0999777
0.0999773
0.0991718
0.0991709
0.099977
0.0999776
0.0999782
0.0999797
0.0999797
0.0999807
0.0999805
0.0999813
0.0999809
0.0999815
0.0999812
0.0999826
0.0999821
0.099982
0.0999812
0.0999828
0.0999821
0.0999819
0.099981
0.0999811
0.0999809
0.0999809
0.0999799
0.0999802
0.0999789
0.0999773
0.0999777
0.0999763
0.0991717
0.0991711
0.0999768
0.0999777
0.099977
0.0999792
0.0999798
0.0999805
0.0999805
0.0999813
0.0999807
0.0999813
0.099981
0.0999826
0.099982
0.099982
0.0999813
0.0999829
0.0999821
0.099982
0.0999811
0.0999812
0.0999809
0.0999809
0.0999799
0.0999802
0.0999791
0.0999773
0.0999777
0.0999762
0.0991716
0.0991719
0.0999758
0.0999777
0.0999777
0.0999788
0.0999801
0.0999802
0.099981
0.0999812
0.0999814
0.0999812
0.0999819
0.0999823
0.0999831
0.0999815
0.0999821
0.0999818
0.0999824
0.0999806
0.0999809
0.0999802
0.0999801
0.0999803
0.0999799
0.0999802
0.0999788
0.0999778
0.0999779
0.0999776
0.0991712
0.0991715
0.0999765
0.0999773
0.0999772
0.0999791
0.09998
0.0999806
0.0999806
0.0999814
0.0999809
0.0999816
0.0999812
0.0999827
0.0999821
0.0999821
0.0999812
0.0999829
0.099982
0.0999819
0.0999809
0.099981
0.0999807
0.0999807
0.0999797
0.0999802
0.099979
0.0999772
0.0999778
0.0999764
0.0991717
0.0991712
0.0999769
0.0999775
0.0999775
0.09998
0.0999797
0.0999805
0.0999804
0.0999813
0.0999807
0.0999815
0.0999815
0.0999827
0.0999823
0.099982
0.0999818
0.0999822
0.0999827
0.0999815
0.0999815
0.0999808
0.0999813
0.0999804
0.0999805
0.0999795
0.0999795
0.0999775
0.0999777
0.0999772
0.0991711
0.0991714
0.0999761
0.0999768
0.0999771
0.099979
0.0999801
0.0999806
0.0999812
0.0999817
0.0999817
0.0999819
0.0999819
0.0999821
0.099982
0.0999825
0.0999821
0.0999827
0.0999826
0.0999828
0.0999815
0.0999819
0.0999813
0.0999819
0.0999809
0.0999811
0.0999797
0.0999783
0.0999793
0.0999774
0.0991721
0.184087
0.307006
0.353692
0.350717
0.297135
0.24821
0.240329
0.272113
0.280499
0.304784
0.326284
0.318407
0.353238
0.475962
0.162948
0.120507
0.403735
0.48038
0.379463
0.266659
0.201668
0.168492
0.150341
0.139303
0.131757
0.126296
0.122107
0.118909
0.116285
0.11411
0.11221
0.110629
0.10919
0.107974
0.106875
0.106018
0.105154
0.104528
0.103835
0.103272
0.102926
0.102454
0.102119
0.101997
0.102014
0.102697
0.10022
0.100604
0.10238
0.101986
0.101406
0.101018
0.100816
0.100662
0.100585
0.100497
0.100453
0.100391
0.10036
0.100322
0.100292
0.100271
0.100241
0.100231
0.100208
0.100189
0.100175