/*--------------------------------*- C++ -*----------------------------------*\
| =========                 |                                                 |
| \\      /  F ield         | OpenFOAM: The Open Source CFD Toolbox           |
|  \\    /   O peration     | Version:  2.1.1                                 |
|   \\  /    A nd           | Web:      www.OpenFOAM.org                      |
|    \\/     M anipulation  |                                                 |
\*---------------------------------------------------------------------------*/
FoamFile
{
    version     2.0;
    format      ascii;
    class       volScalarField;
    location    "0.000750000";
    object      rhoUnburned;
}
// * * * * * * * * * * * * * * * * * * * * * * * * * * * * * * * * * * * * * //

dimensions      [1 -3 0 0 0 0 0];

internalField   nonuniform List<scalar> 
12384
(
0.959147
0.977232
0.958577
0.988857
0.987637
0.998921
0.985994
0.969981
0.94297
0.936418
0.950936
0.950155
0.964888
0.970887
0.946904
0.947706
0.946178
0.94609
0.946501
0.9471
0.947337
0.94697
0.944702
0.938875
0.933083
0.928542
0.926635
0.926379
0.927108
0.927808
0.927545
0.926973
0.923072
0.919151
0.920222
0.911023
0.910197
0.908662
0.900648
0.902918
0.895461
0.897684
0.892693
0.894305
0.874055
0.87436
0.873642
0.872631
0.873029
0.871956
0.872184
0.871461
0.871047
0.871169
0.87048
0.870741
0.870122
0.870298
0.869381
0.869499
0.868116
0.868306
0.866585
0.867093
0.86565
0.866074
0.865424
0.865494
0.865359
0.865206
0.865262
0.86518
0.865198
0.865116
0.865105
0.865151
0.865156
0.865157
0.86515
0.865158
0.865154
0.865161
0.865154
0.865161
0.865156
0.865162
0.865159
0.86517
0.865169
0.865173
0.865165
0.865167
0.865155
0.865162
0.865159
0.86516
0.865154
0.865158
0.865152
0.86515
0.865154
0.86515
0.865156
0.865107
0.865104
0.865148
0.865158
0.865153
0.865155
0.865155
0.865153
0.865161
0.865154
0.865161
0.865154
0.865162
0.865162
0.865171
0.865167
0.865169
0.865171
0.865163
0.865163
0.865155
0.865162
0.865155
0.86516
0.865156
0.865156
0.865154
0.865153
0.865159
0.865148
0.865104
0.865104
0.865149
0.865158
0.865151
0.865153
0.865154
0.865159
0.865153
0.86516
0.865159
0.865162
0.865158
0.865166
0.865167
0.865167
0.865173
0.865165
0.865167
0.865155
0.865163
0.865159
0.86516
0.865154
0.865158
0.86515
0.865152
0.865154
0.86515
0.865157
0.865105
0.865104
0.865148
0.865159
0.865153
0.865153
0.865157
0.865152
0.865161
0.865154
0.865161
0.865154
0.865162
0.865163
0.865169
0.865168
0.865173
0.865166
0.865168
0.865155
0.865162
0.865157
0.865158
0.865152
0.865159
0.865149
0.865156
0.86515
0.865158
0.865149
0.865106
0.865106
0.865149
0.865154
0.865155
0.865149
0.865158
0.865154
0.865161
0.865155
0.865161
0.865154
0.865162
0.865162
0.86517
0.865169
0.865174
0.865165
0.865167
0.865155
0.865162
0.865159
0.86516
0.865154
0.865159
0.865153
0.865153
0.865154
0.86515
0.865157
0.865105
0.865103
0.865157
0.86515
0.865156
0.865146
0.865159
0.865154
0.865161
0.865154
0.865161
0.865154
0.865162
0.865162
0.86517
0.865169
0.865173
0.865165
0.865167
0.865155
0.865162
0.865158
0.86516
0.865154
0.865159
0.865153
0.86515
0.865154
0.86515
0.865157
0.865106
0.865102
0.865154
0.865154
0.865153
0.865151
0.86515
0.865159
0.865153
0.865159
0.865158
0.865162
0.865155
0.865166
0.865165
0.865173
0.865167
0.865172
0.865164
0.86516
0.865158
0.865158
0.865162
0.865153
0.865159
0.865153
0.865153
0.865149
0.865157
0.865149
0.865104
0.865105
0.865157
0.86515
0.865159
0.865146
0.865159
0.865154
0.865161
0.865155
0.865161
0.865154
0.865162
0.865162
0.86517
0.865169
0.865174
0.865166
0.865167
0.865155
0.865162
0.865158
0.86516
0.865154
0.865158
0.865152
0.865149
0.865154
0.86515
0.865157
0.865105
0.865106
0.865151
0.865157
0.865156
0.865151
0.865157
0.865155
0.865159
0.865157
0.865162
0.865156
0.865162
0.865159
0.86517
0.865169
0.865167
0.865169
0.865161
0.865161
0.865153
0.86516
0.865156
0.865158
0.865151
0.865158
0.865147
0.865155
0.865154
0.865148
0.865104
0.865112
0.865164
0.865158
0.865165
0.865153
0.865165
0.865153
0.865162
0.865154
0.865161
0.865151
0.865158
0.865155
0.865163
0.865156
0.865164
0.865152
0.865156
0.865152
0.865158
0.865151
0.865155
0.865145
0.865154
0.865146
0.865147
0.865152
0.865148
0.865152
0.865101
1.20912
1.14538
1.10688
1.08567
1.10025
1.10749
1.0888
1.05658
1.01959
0.992267
0.980906
0.971933
0.965322
0.974309
1.04195
1.04643
1.0388
1.03265
1.02766
1.01945
1.01489
1.00516
0.995248
0.986661
0.974998
0.965761
0.955906
0.953485
0.948234
0.948153
0.943974
0.9428
0.937018
0.933844
0.926758
0.925417
0.916768
0.917193
0.90753
0.910466
0.900708
0.905097
0.898238
0.898122
0.883912
0.885695
0.885458
0.885052
0.88357
0.882913
0.881485
0.881402
0.879977
0.880334
0.878867
0.879632
0.878241
0.87891
0.877659
0.877843
0.876227
0.876323
0.874505
0.874764
0.873546
0.873218
0.873092
0.872488
0.872492
0.872048
0.871973
0.871801
0.871514
0.867444
0.867393
0.871498
0.871696
0.871867
0.872011
0.872135
0.87239
0.872528
0.872768
0.872882
0.873071
0.873114
0.873334
0.873502
0.873746
0.873667
0.873493
0.873248
0.873179
0.873016
0.872969
0.872727
0.872618
0.872358
0.872203
0.871993
0.871866
0.871716
0.871485
0.867414
0.86739
0.87149
0.871671
0.871874
0.871987
0.87212
0.872368
0.87252
0.872762
0.872883
0.873075
0.873123
0.873347
0.873552
0.873661
0.873728
0.873457
0.873319
0.873117
0.873084
0.872889
0.872779
0.872534
0.872387
0.872131
0.872001
0.871888
0.871679
0.871492
0.86739
0.867394
0.871476
0.871666
0.871874
0.871981
0.872203
0.872341
0.872585
0.872695
0.872937
0.873018
0.873173
0.873307
0.873504
0.873737
0.873664
0.873483
0.87324
0.873174
0.873013
0.872963
0.87272
0.872611
0.872354
0.872201
0.871988
0.871867
0.871718
0.87149
0.867409
0.867391
0.871491
0.871681
0.871889
0.872007
0.872137
0.872398
0.87254
0.872786
0.872897
0.873093
0.873125
0.873314
0.873411
0.873668
0.873695
0.873601
0.873341
0.873216
0.873028
0.872893
0.872643
0.872533
0.872303
0.872162
0.871949
0.871837
0.871667
0.871462
0.867404
0.867392
0.871495
0.871706
0.871854
0.872045
0.872163
0.872433
0.872558
0.872797
0.872881
0.873065
0.873099
0.873305
0.873452
0.873731
0.873693
0.873522
0.873252
0.873173
0.873007
0.872961
0.872721
0.872616
0.872358
0.872208
0.871993
0.871874
0.871722
0.871492
0.867408
0.867399
0.871447
0.871697
0.871837
0.872047
0.87217
0.872431
0.872548
0.872782
0.872866
0.873053
0.873091
0.873304
0.873459
0.873733
0.873686
0.873517
0.873254
0.873178
0.873012
0.872965
0.872725
0.872616
0.872358
0.872206
0.871993
0.871871
0.871719
0.871488
0.867411
0.867409
0.871492
0.87171
0.87188
0.872001
0.872232
0.872374
0.872629
0.872722
0.872951
0.872993
0.873163
0.873224
0.873448
0.873616
0.873748
0.873561
0.873369
0.873115
0.873
0.872874
0.872694
0.872561
0.872316
0.872172
0.871949
0.871848
0.87164
0.871474
0.867387
0.867416
0.871487
0.871731
0.87187
0.872069
0.87218
0.872435
0.872553
0.872787
0.872866
0.873047
0.873082
0.873288
0.873431
0.873716
0.8737
0.87354
0.873267
0.873182
0.873016
0.872962
0.872718
0.872606
0.87235
0.872195
0.871985
0.871859
0.871712
0.871487
0.867409
0.867393
0.871492
0.871691
0.871869
0.872012
0.872145
0.872411
0.87255
0.872799
0.872899
0.87309
0.87312
0.873328
0.873455
0.87373
0.87373
0.873483
0.873321
0.873107
0.873073
0.872887
0.872791
0.872547
0.872413
0.872152
0.872028
0.871881
0.871704
0.871502
0.867391
0.86742
0.871499
0.871747
0.871877
0.872097
0.872202
0.872464
0.872572
0.872807
0.872871
0.873056
0.873081
0.873283
0.873387
0.87367
0.873713
0.873551
0.873249
0.873167
0.87303
0.872973
0.872735
0.872622
0.872364
0.872213
0.871998
0.871866
0.871717
0.87148
0.867412
1.0272
1.18596
1.2616
1.26231
1.23806
1.24072
1.22328
1.22188
1.21542
1.20197
1.18762
1.15765
1.13304
1.11255
1.18729
1.18717
1.18589
1.18495
1.18288
1.18106
1.18006
1.17877
1.18061
1.17837
1.17873
1.17278
1.17082
1.16436
1.16346
1.16211
1.1592
1.159
1.15243
1.15337
1.14311
1.14491
1.13376
1.13592
1.12536
1.12767
1.11553
1.12063
1.11066
1.11704
1.10056
1.09695
1.09587
1.09406
1.09441
1.09251
1.09273
1.09082
1.09055
1.0898
1.08899
1.08873
1.08772
1.08765
1.08635
1.08647
1.08503
1.0852
1.08383
1.08342
1.08275
1.08226
1.08206
1.082
1.08199
1.08202
1.08217
1.08224
1.08253
1.08781
1.08778
1.08246
1.08221
1.08203
1.08191
1.08174
1.08152
1.08132
1.08112
1.08094
1.08082
1.08072
1.08054
1.08028
1.08006
1.0801
1.08036
1.08058
1.08072
1.08082
1.08092
1.0811
1.08128
1.0815
1.08172
1.0819
1.08203
1.08221
1.08247
1.08778
1.08778
1.08247
1.08222
1.08204
1.08189
1.08177
1.08153
1.08133
1.08112
1.08094
1.08082
1.08072
1.08053
1.08023
1.08015
1.08008
1.08034
1.08057
1.08072
1.08081
1.08093
1.08111
1.08131
1.08152
1.08175
1.08189
1.08202
1.08221
1.08247
1.08778
1.08778
1.08251
1.08223
1.08204
1.0819
1.08172
1.08151
1.08132
1.08114
1.08095
1.08082
1.08072
1.08053
1.08029
1.08006
1.0801
1.08037
1.08059
1.08073
1.08082
1.08093
1.08111
1.08129
1.0815
1.08172
1.0819
1.08203
1.08221
1.08246
1.08778
1.08778
1.08247
1.08221
1.08202
1.08189
1.08174
1.08151
1.0813
1.0811
1.08092
1.0808
1.08071
1.08058
1.0804
1.08017
1.08007
1.08023
1.08047
1.08065
1.08079
1.08097
1.0812
1.08137
1.08156
1.08176
1.08193
1.08208
1.08224
1.08253
1.08777
1.08778
1.08246
1.08221
1.08204
1.08187
1.0817
1.08147
1.08128
1.0811
1.08095
1.08084
1.08074
1.08058
1.08034
1.08008
1.08007
1.08032
1.08057
1.08073
1.08083
1.08093
1.08111
1.08128
1.0815
1.08172
1.08189
1.08202
1.0822
1.08246
1.08778
1.08778
1.08251
1.08223
1.08203
1.08187
1.08169
1.08148
1.08129
1.08112
1.08096
1.08085
1.08074
1.08058
1.08033
1.08007
1.08008
1.08033
1.08057
1.08072
1.08082
1.08093
1.08111
1.08128
1.0815
1.08172
1.0819
1.08202
1.08221
1.08246
1.08778
1.08778
1.08248
1.0822
1.08204
1.08188
1.08169
1.08148
1.08128
1.08111
1.08095
1.08084
1.08074
1.08061
1.08041
1.08016
1.08006
1.08021
1.08048
1.08072
1.08087
1.081
1.08115
1.08133
1.08154
1.08175
1.08192
1.08207
1.08225
1.08251
1.08778
1.08778
1.08246
1.0822
1.082
1.08186
1.08169
1.08148
1.08129
1.08112
1.08097
1.08086
1.08076
1.0806
1.08036
1.08009
1.08006
1.0803
1.08055
1.08072
1.08082
1.08093
1.08111
1.08129
1.0815
1.08173
1.08191
1.08204
1.08221
1.08247
1.08778
1.08778
1.08246
1.08221
1.08203
1.0819
1.08173
1.08149
1.08129
1.08109
1.08093
1.08081
1.08072
1.08056
1.08034
1.08007
1.08007
1.08031
1.08056
1.08073
1.08083
1.08094
1.0811
1.08129
1.08149
1.08172
1.08189
1.08201
1.08219
1.08245
1.08778
1.08779
1.08247
1.0822
1.082
1.08185
1.08167
1.08146
1.08127
1.0811
1.08095
1.08084
1.08074
1.08059
1.0804
1.08013
1.08002
1.08026
1.08056
1.08072
1.08078
1.0809
1.08108
1.08125
1.08147
1.0817
1.08189
1.08202
1.0822
1.08246
1.08778
0.92019
1.03299
1.31998
1.30988
1.28153
1.2114
1.2025
1.1962
1.21283
1.23176
1.2397
1.21682
1.17938
1.16651
1.15341
1.14982
1.15341
1.15492
1.15551
1.15515
1.15398
1.15603
1.15921
1.16223
1.16515
1.16439
1.16184
1.15533
1.15444
1.14801
1.1497
1.14666
1.14436
1.14393
1.13612
1.13914
1.12878
1.13241
1.12246
1.12558
1.11907
1.1182
1.11731
1.11626
1.08876
1.08784
1.08833
1.08871
1.08732
1.08793
1.0862
1.0868
1.08495
1.08526
1.08432
1.0835
1.08357
1.0826
1.08262
1.08193
1.08171
1.0809
1.08082
1.07938
1.07971
1.07818
1.07859
1.07766
1.07789
1.07749
1.07758
1.07749
1.0775
1.07846
1.07841
1.07745
1.07742
1.07742
1.0774
1.07742
1.0774
1.07742
1.0774
1.07741
1.07739
1.0774
1.07739
1.0774
1.07739
1.0774
1.07739
1.0774
1.07739
1.07741
1.07739
1.07741
1.0774
1.07741
1.0774
1.07741
1.0774
1.07741
1.07746
1.0784
1.07841
1.07745
1.07742
1.07741
1.07741
1.07742
1.0774
1.07742
1.0774
1.07741
1.07739
1.07741
1.07739
1.0774
1.07739
1.07739
1.0774
1.07739
1.07741
1.07739
1.07741
1.0774
1.07741
1.0774
1.07742
1.07741
1.07741
1.07742
1.07745
1.07841
1.0784
1.07745
1.07743
1.07741
1.07742
1.0774
1.07742
1.0774
1.07741
1.07739
1.07741
1.07739
1.0774
1.0774
1.07739
1.0774
1.07739
1.0774
1.07739
1.07741
1.07739
1.07741
1.0774
1.07741
1.0774
1.07741
1.0774
1.07741
1.07746
1.07841
1.07841
1.07744
1.07742
1.07741
1.0774
1.07742
1.0774
1.07742
1.0774
1.07741
1.07739
1.07741
1.07739
1.0774
1.07739
1.0774
1.07739
1.0774
1.07739
1.07741
1.07739
1.07741
1.0774
1.07742
1.0774
1.07742
1.07741
1.07743
1.07744
1.07842
1.0784
1.07744
1.07741
1.07742
1.0774
1.07742
1.0774
1.07742
1.0774
1.07741
1.07739
1.0774
1.07739
1.0774
1.07739
1.0774
1.07739
1.0774
1.07739
1.07741
1.07739
1.07741
1.0774
1.07741
1.0774
1.07741
1.0774
1.07741
1.07746
1.07841
1.07841
1.07745
1.07741
1.07742
1.0774
1.07742
1.0774
1.07741
1.0774
1.07741
1.07739
1.0774
1.07739
1.0774
1.07739
1.0774
1.07739
1.0774
1.07739
1.07741
1.07739
1.07741
1.0774
1.07741
1.0774
1.07741
1.0774
1.07741
1.07746
1.0784
1.07841
1.07745
1.07742
1.07741
1.07742
1.0774
1.07742
1.0774
1.07741
1.07739
1.07741
1.07739
1.0774
1.07739
1.0774
1.07739
1.0774
1.07739
1.0774
1.0774
1.07739
1.07741
1.0774
1.07742
1.0774
1.07742
1.07741
1.07743
1.07744
1.07841
1.07841
1.07746
1.07741
1.07742
1.0774
1.07741
1.0774
1.07741
1.07739
1.07741
1.07739
1.0774
1.07739
1.0774
1.07739
1.0774
1.07739
1.0774
1.07739
1.07741
1.07739
1.07741
1.0774
1.07741
1.0774
1.07741
1.07741
1.07741
1.07746
1.07841
1.07841
1.07745
1.07742
1.07741
1.07741
1.07742
1.0774
1.07742
1.0774
1.07741
1.07739
1.0774
1.07739
1.0774
1.07739
1.07739
1.0774
1.07739
1.0774
1.07739
1.07741
1.0774
1.07742
1.0774
1.07742
1.0774
1.07742
1.07742
1.07744
1.07841
1.07842
1.07746
1.07742
1.07743
1.0774
1.07742
1.0774
1.07742
1.07739
1.07741
1.07739
1.0774
1.07739
1.0774
1.07738
1.0774
1.07738
1.07739
1.07738
1.0774
1.07738
1.0774
1.07739
1.07741
1.07739
1.07741
1.0774
1.07741
1.07745
1.0784
0.612099
0.626711
0.68676
1.23966
1.32288
1.32294
1.23211
1.14367
1.14837
1.18325
1.2119
1.22678
1.21107
1.15514
1.09878
1.08492
1.09232
1.1025
1.10828
1.112
1.11289
1.11606
1.12085
1.12416
1.12964
1.1309
1.13027
1.12295
1.12358
1.11289
1.11684
1.10929
1.112
1.10602
1.10672
1.10213
1.10013
1.09775
1.09541
1.09188
1.09372
1.08797
1.0914
1.08837
1.05893
1.0595
1.05892
1.05866
1.05831
1.05701
1.05746
1.05585
1.05619
1.05443
1.05438
1.05354
1.05282
1.05274
1.05222
1.05204
1.05167
1.05113
1.05115
1.05004
1.05001
1.04904
1.04884
1.04843
1.04814
1.04811
1.04789
1.04791
1.04786
1.04792
1.04786
1.04781
1.04781
1.0478
1.04779
1.0478
1.04778
1.0478
1.04777
1.0478
1.04777
1.0478
1.04777
1.04778
1.04777
1.04778
1.04777
1.04779
1.04777
1.0478
1.04777
1.0478
1.04778
1.0478
1.04778
1.0478
1.04779
1.04779
1.04781
1.04784
1.04786
1.0478
1.04781
1.04779
1.0478
1.0478
1.04778
1.0478
1.04777
1.0478
1.04777
1.04779
1.04777
1.04778
1.04778
1.04777
1.04779
1.04777
1.0478
1.04777
1.0478
1.04777
1.0478
1.04778
1.0478
1.0478
1.04779
1.04781
1.0478
1.04786
1.04785
1.04781
1.04781
1.04779
1.0478
1.04778
1.0478
1.04778
1.0478
1.04777
1.04779
1.04777
1.04778
1.04778
1.04777
1.04779
1.04777
1.04779
1.04777
1.0478
1.04777
1.0478
1.04778
1.0478
1.04778
1.0478
1.04779
1.04779
1.04781
1.04784
1.04786
1.0478
1.04781
1.04779
1.04779
1.0478
1.04778
1.0478
1.04777
1.0478
1.04777
1.0478
1.04777
1.04779
1.04777
1.04779
1.04777
1.04779
1.04777
1.04779
1.04777
1.04779
1.04778
1.0478
1.04778
1.0478
1.04779
1.0478
1.0478
1.04784
1.04786
1.04781
1.0478
1.0478
1.04779
1.0478
1.04778
1.0478
1.04777
1.0478
1.04777
1.04779
1.04777
1.04778
1.04776
1.04778
1.04776
1.04779
1.04777
1.0478
1.04777
1.0478
1.04778
1.0478
1.04778
1.0478
1.04779
1.04779
1.04781
1.04784
1.04784
1.04781
1.04779
1.0478
1.04778
1.0478
1.04778
1.0478
1.04777
1.0478
1.04777
1.04779
1.04777
1.04779
1.04776
1.04778
1.04776
1.04779
1.04777
1.0478
1.04777
1.0478
1.04778
1.0478
1.04778
1.0478
1.04779
1.04779
1.04781
1.04784
1.04784
1.0478
1.04779
1.04778
1.0478
1.04778
1.0478
1.04778
1.0478
1.04777
1.0478
1.04777
1.04779
1.04777
1.04779
1.04777
1.04778
1.04777
1.04779
1.04778
1.04778
1.04779
1.04778
1.0478
1.04778
1.0478
1.04779
1.04781
1.04781
1.04786
1.04783
1.04781
1.04778
1.0478
1.04778
1.0478
1.04778
1.04781
1.04777
1.0478
1.04777
1.0478
1.04777
1.04778
1.04776
1.04778
1.04776
1.04779
1.04777
1.0478
1.04777
1.0478
1.04778
1.0478
1.04778
1.0478
1.04779
1.04779
1.04781
1.04784
1.04786
1.04781
1.0478
1.04779
1.04779
1.0478
1.04778
1.0478
1.04777
1.0478
1.04777
1.0478
1.04776
1.04779
1.04777
1.04777
1.04778
1.04776
1.04779
1.04776
1.0478
1.04777
1.0478
1.04778
1.0478
1.04779
1.04779
1.0478
1.0478
1.04785
1.04785
1.04782
1.04779
1.04781
1.04778
1.04781
1.04778
1.04781
1.04778
1.0478
1.04777
1.0478
1.04776
1.04778
1.04776
1.04778
1.04776
1.04778
1.04776
1.04779
1.04776
1.04779
1.04777
1.04779
1.04778
1.04779
1.04779
1.04779
1.04781
1.04784
0.617091
0.623412
0.621874
0.716907
1.10551
1.22404
1.2496
1.23001
1.1129
1.10432
1.14169
1.18219
1.19692
1.20315
1.02497
0.997499
1.00545
1.02371
1.04203
1.05472
1.06117
1.06559
1.07173
1.07631
1.0842
1.08685
1.08904
1.08521
1.08385
1.07275
1.07832
1.0699
1.07266
1.06914
1.0706
1.0654
1.06799
1.06163
1.06511
1.05818
1.06148
1.05714
1.05897
1.05828
1.02301
1.02443
1.02464
1.02536
1.02531
1.02572
1.02403
1.025
1.02291
1.02379
1.0213
1.0225
1.02037
1.02112
1.02031
1.02015
1.02008
1.01974
1.01962
1.01898
1.0188
1.01803
1.01786
1.01727
1.01718
1.01685
1.01669
1.01663
1.01663
1.0176
1.01753
1.01655
1.0165
1.0165
1.0165
1.0165
1.0165
1.01649
1.01649
1.01649
1.01648
1.01649
1.01647
1.01648
1.01647
1.01648
1.01647
1.01648
1.01648
1.01649
1.01649
1.01649
1.01649
1.01649
1.0165
1.0165
1.01649
1.0165
1.01654
1.01754
1.01753
1.01655
1.0165
1.0165
1.0165
1.0165
1.0165
1.01649
1.01649
1.01649
1.01648
1.01649
1.01648
1.01647
1.01648
1.01647
1.01648
1.01648
1.01649
1.01648
1.01649
1.01649
1.01649
1.0165
1.0165
1.0165
1.0165
1.0165
1.01655
1.01753
1.01754
1.01655
1.0165
1.0165
1.0165
1.0165
1.0165
1.01649
1.01649
1.01648
1.01649
1.01648
1.01648
1.01647
1.01647
1.01648
1.01647
1.01648
1.01648
1.01649
1.01649
1.01649
1.01649
1.01649
1.0165
1.01649
1.01649
1.0165
1.01654
1.01754
1.01753
1.01655
1.0165
1.0165
1.0165
1.0165
1.0165
1.01649
1.01649
1.01649
1.01648
1.01649
1.01648
1.01648
1.01648
1.01648
1.01648
1.01648
1.01648
1.01648
1.01648
1.01649
1.01649
1.0165
1.0165
1.0165
1.0165
1.0165
1.01655
1.01754
1.01753
1.01655
1.0165
1.0165
1.0165
1.0165
1.0165
1.0165
1.01649
1.01649
1.01648
1.01648
1.01647
1.01647
1.01647
1.01647
1.01647
1.01648
1.01648
1.01649
1.01648
1.01649
1.01649
1.0165
1.0165
1.01649
1.01649
1.0165
1.01654
1.01754
1.01753
1.01654
1.0165
1.0165
1.0165
1.0165
1.01649
1.0165
1.01649
1.01649
1.01648
1.01648
1.01648
1.01648
1.01647
1.01647
1.01647
1.01648
1.01648
1.01649
1.01648
1.01649
1.01649
1.01649
1.0165
1.01649
1.01649
1.0165
1.01654
1.01754
1.01754
1.01653
1.0165
1.0165
1.0165
1.01649
1.0165
1.01649
1.01649
1.01648
1.01649
1.01648
1.01648
1.01648
1.01648
1.01648
1.01648
1.01648
1.01648
1.01648
1.01648
1.01649
1.01649
1.0165
1.0165
1.0165
1.0165
1.0165
1.01655
1.01753
1.01754
1.01654
1.0165
1.01649
1.01649
1.0165
1.01649
1.0165
1.01649
1.01649
1.01648
1.01648
1.01647
1.01647
1.01647
1.01647
1.01647
1.01648
1.01648
1.01649
1.01648
1.01649
1.01649
1.01649
1.0165
1.0165
1.01649
1.0165
1.01654
1.01754
1.01753
1.01655
1.0165
1.0165
1.01651
1.0165
1.0165
1.01649
1.01649
1.01649
1.01648
1.01648
1.01647
1.01648
1.01647
1.01647
1.01647
1.01647
1.01648
1.01648
1.01649
1.01649
1.01649
1.0165
1.0165
1.0165
1.0165
1.01649
1.01654
1.01753
1.01755
1.01655
1.0165
1.0165
1.0165
1.0165
1.01649
1.0165
1.01649
1.01649
1.01648
1.01648
1.01647
1.01647
1.01646
1.01646
1.01646
1.01647
1.01647
1.01647
1.01647
1.01648
1.01648
1.01649
1.01649
1.0165
1.01649
1.0165
1.01654
1.01755
0.627262
0.624106
0.623685
0.68276
0.973129
1.08617
1.15007
1.17316
1.17798
1.05894
1.06818
1.09998
1.16748
1.19672
0.953684
0.918741
0.913691
0.931301
0.959155
0.981314
0.994414
1.00219
1.0068
1.01275
1.01835
1.02422
1.02658
1.02439
1.02436
1.0124
1.01517
1.0103
1.01044
1.00925
1.00859
1.00701
1.00737
1.00258
1.00595
1.00028
1.00421
1.00055
1.00429
1.00403
0.967865
0.967025
0.968759
0.968963
0.968714
0.968911
0.968728
0.967247
0.96772
0.966101
0.965304
0.965307
0.964043
0.964331
0.963628
0.963662
0.963488
0.963236
0.963152
0.962905
0.962394
0.962173
0.96142
0.961517
0.960823
0.960687
0.960675
0.960409
0.960443
0.960029
0.959956
0.960304
0.960301
0.960296
0.960304
0.960302
0.960306
0.960301
0.960302
0.960299
0.960303
0.960301
0.960307
0.9603
0.960307
0.960301
0.960308
0.960302
0.960307
0.9603
0.960304
0.960298
0.960307
0.960303
0.960308
0.9603
0.960292
0.960298
0.96029
0.959945
0.959946
0.960299
0.9603
0.960295
0.960301
0.960302
0.960308
0.960302
0.960303
0.960299
0.960304
0.960301
0.960308
0.960301
0.960303
0.960307
0.960301
0.960307
0.960301
0.960305
0.9603
0.960303
0.960304
0.960309
0.960303
0.960302
0.960295
0.9603
0.960299
0.959946
0.959942
0.960297
0.960294
0.960297
0.9603
0.960307
0.960301
0.960306
0.960299
0.960302
0.960298
0.960308
0.960307
0.960301
0.960308
0.960301
0.960307
0.960301
0.960306
0.960299
0.960303
0.960298
0.960307
0.960303
0.960308
0.9603
0.960292
0.960298
0.960292
0.959945
0.959946
0.9603
0.9603
0.960295
0.960303
0.960303
0.960306
0.960304
0.960303
0.9603
0.960304
0.960302
0.960307
0.960302
0.960308
0.9603
0.960307
0.960301
0.960306
0.960299
0.960302
0.960299
0.960306
0.960301
0.960305
0.960296
0.960296
0.960296
0.960293
0.959941
0.959946
0.9603
0.9603
0.960295
0.960304
0.960302
0.960307
0.960302
0.960302
0.9603
0.960304
0.960301
0.960306
0.960301
0.960306
0.960299
0.960307
0.960301
0.960307
0.9603
0.960304
0.960299
0.960307
0.960303
0.960308
0.960298
0.960292
0.960297
0.960291
0.959945
0.959946
0.960293
0.960299
0.960291
0.9603
0.960301
0.960306
0.960302
0.960303
0.9603
0.960304
0.960301
0.960306
0.960302
0.960306
0.9603
0.960308
0.960301
0.960306
0.9603
0.960304
0.960298
0.960307
0.960303
0.960308
0.960299
0.960294
0.960297
0.960291
0.959945
0.959942
0.960291
0.960296
0.960297
0.960298
0.960306
0.960301
0.960307
0.960298
0.960303
0.9603
0.960306
0.960302
0.960307
0.960301
0.960308
0.960301
0.960307
0.9603
0.960305
0.960303
0.960298
0.960305
0.960301
0.960306
0.960299
0.960298
0.960299
0.960301
0.959945
0.959944
0.960293
0.960298
0.960292
0.960302
0.960302
0.960307
0.960304
0.960302
0.9603
0.960304
0.960301
0.960306
0.960301
0.960306
0.9603
0.960307
0.960301
0.960306
0.9603
0.960303
0.960297
0.960307
0.960303
0.960308
0.9603
0.960292
0.960298
0.960292
0.959945
0.959946
0.960299
0.960299
0.960296
0.960305
0.960303
0.960306
0.960302
0.960303
0.960299
0.960304
0.960302
0.960305
0.960301
0.960304
0.960304
0.9603
0.960305
0.960301
0.960303
0.960299
0.960302
0.960302
0.960307
0.960301
0.960303
0.960296
0.960298
0.960299
0.959945
0.95995
0.960301
0.960304
0.960297
0.960303
0.960303
0.960302
0.960304
0.960299
0.9603
0.960298
0.9603
0.960301
0.9603
0.960302
0.960299
0.960304
0.960304
0.960307
0.960302
0.960306
0.960303
0.96031
0.960307
0.960312
0.96031
0.960305
0.960309
0.960301
0.959948
0.624761
0.624859
0.627253
0.742073
1.05863
1.08591
1.02141
1.12735
1.11031
1.16922
1.0311
1.05254
1.11279
1.19898
0.926702
0.880795
0.855389
0.853138
0.877661
0.906863
0.925792
0.937404
0.939538
0.947421
0.953743
0.961001
0.965526
0.964714
0.969574
0.958084
0.959215
0.957909
0.954612
0.956984
0.955489
0.955739
0.956001
0.953912
0.955021
0.951827
0.954196
0.952976
0.957465
0.957166
0.908239
0.915325
0.915451
0.918894
0.919737
0.91972
0.920126
0.919881
0.919024
0.918831
0.917785
0.917716
0.916681
0.91696
0.91622
0.916437
0.916183
0.916131
0.916094
0.915743
0.915707
0.915243
0.914886
0.914432
0.914254
0.91399
0.913659
0.913749
0.913525
0.913297
0.913211
0.913441
0.913412
0.913383
0.913374
0.913361
0.913352
0.913351
0.913348
0.913343
0.91334
0.913341
0.913345
0.913344
0.913345
0.913345
0.913346
0.913345
0.913343
0.913342
0.913344
0.913352
0.913353
0.913352
0.913364
0.91337
0.913379
0.913411
0.913427
0.9132
0.913195
0.913432
0.913408
0.913382
0.913367
0.91336
0.91335
0.913352
0.913348
0.913343
0.91334
0.913341
0.913346
0.913344
0.913347
0.913345
0.913345
0.913346
0.913342
0.913341
0.913344
0.913349
0.913353
0.913351
0.913362
0.913369
0.91338
0.913407
0.913431
0.913194
0.9132
0.913433
0.913404
0.913382
0.91337
0.913363
0.913351
0.913352
0.913348
0.913341
0.91334
0.913343
0.913345
0.913343
0.913346
0.913344
0.913346
0.913345
0.913343
0.913342
0.913343
0.913351
0.913353
0.913352
0.913364
0.91337
0.913378
0.91341
0.913429
0.9132
0.913195
0.913432
0.913407
0.91338
0.913371
0.913362
0.913352
0.913354
0.91335
0.913345
0.913342
0.913343
0.913347
0.913346
0.913348
0.913345
0.913346
0.913345
0.913339
0.913338
0.913338
0.913348
0.913349
0.913351
0.913362
0.91337
0.913383
0.913408
0.913434
0.913204
0.913193
0.913432
0.913407
0.913381
0.913372
0.913361
0.913352
0.913353
0.91335
0.913344
0.913341
0.91334
0.913344
0.913344
0.913345
0.913343
0.913345
0.913344
0.913342
0.913341
0.913343
0.91335
0.913352
0.913351
0.913363
0.913369
0.913378
0.913409
0.913428
0.913199
0.913195
0.913431
0.913407
0.913378
0.913371
0.913362
0.913352
0.913353
0.91335
0.913344
0.913341
0.91334
0.913344
0.913344
0.913345
0.913344
0.913345
0.913344
0.913342
0.913341
0.913344
0.91335
0.913353
0.913351
0.913363
0.913369
0.913379
0.91341
0.913428
0.913199
0.913202
0.913428
0.913408
0.913383
0.913371
0.913364
0.913353
0.913353
0.913351
0.913345
0.913343
0.913343
0.913345
0.913347
0.913345
0.913346
0.913344
0.913345
0.913339
0.91334
0.91334
0.913346
0.91335
0.91335
0.913361
0.913369
0.913381
0.913408
0.913433
0.913197
0.9132
0.91343
0.913409
0.91338
0.913371
0.913363
0.913352
0.913354
0.91335
0.913345
0.913342
0.913341
0.913344
0.913344
0.913345
0.913343
0.913345
0.913344
0.913342
0.913341
0.913343
0.91335
0.913352
0.913351
0.913363
0.913369
0.913378
0.91341
0.913429
0.9132
0.913195
0.913431
0.913406
0.91338
0.91337
0.913362
0.913351
0.913354
0.913349
0.913344
0.913342
0.913342
0.913344
0.913345
0.913345
0.913345
0.913344
0.913344
0.913341
0.913341
0.913343
0.913349
0.913351
0.913351
0.91336
0.913372
0.913379
0.913408
0.913434
0.913198
0.9132
0.913434
0.913412
0.913383
0.913375
0.91336
0.913354
0.913352
0.913349
0.913343
0.913343
0.91334
0.91334
0.913339
0.913339
0.913339
0.913341
0.913344
0.91334
0.913339
0.913342
0.913346
0.913346
0.913353
0.913362
0.913373
0.913387
0.913431
0.913471
0.913257
0.623511
0.622632
0.68046
0.864346
1.04017
1.05104
0.997971
1.06361
1.11387
1.07089
1.18375
1.03168
1.03082
1.07322
1.03629
1.02822
0.952814
0.895183
0.828707
0.805801
0.816533
0.8406
0.858286
0.86666
0.86818
0.875278
0.878346
0.884693
0.888911
0.891595
0.891132
0.89046
0.88086
0.886377
0.879074
0.881283
0.881166
0.878637
0.881575
0.876851
0.878894
0.878371
0.876288
0.880431
0.87883
0.884994
0.863028
0.862763
0.849075
0.845464
0.850717
0.847406
0.849828
0.8486
0.848292
0.847927
0.84767
0.846142
0.846757
0.844776
0.845549
0.844118
0.844403
0.84395
0.844066
0.843755
0.843969
0.843507
0.843703
0.843132
0.842985
0.842797
0.842221
0.842205
0.841902
0.841754
0.841606
0.840403
0.839242
0.839288
0.840247
0.841457
0.841505
0.841498
0.841489
0.841473
0.841469
0.841462
0.841466
0.841462
0.841464
0.841458
0.841462
0.841459
0.841464
0.841461
0.841463
0.841459
0.841463
0.84146
0.841467
0.841461
0.841467
0.841464
0.841479
0.841482
0.841494
0.841499
0.841449
0.840248
0.83921
0.839209
0.840243
0.841448
0.84149
0.841495
0.841482
0.841471
0.841468
0.841463
0.841465
0.841461
0.841463
0.841458
0.841462
0.84146
0.841461
0.841464
0.841459
0.841463
0.841458
0.841464
0.841461
0.841465
0.841463
0.841468
0.841471
0.841482
0.841496
0.841491
0.841448
0.840243
0.839209
0.839209
0.840245
0.841449
0.841493
0.841496
0.841482
0.841478
0.841464
0.841467
0.84146
0.841465
0.841459
0.841461
0.841459
0.84146
0.841463
0.84146
0.841462
0.841458
0.841463
0.841459
0.841466
0.841461
0.841466
0.841464
0.841479
0.841483
0.841494
0.841499
0.841449
0.840248
0.83921
0.839209
0.840243
0.841448
0.841492
0.841496
0.841483
0.841471
0.841469
0.841463
0.841465
0.841462
0.841464
0.841458
0.841463
0.841459
0.841464
0.84146
0.841462
0.841458
0.841461
0.84146
0.841464
0.841459
0.841465
0.841464
0.841479
0.841482
0.841495
0.841495
0.841451
0.840246
0.839208
0.839208
0.840244
0.841448
0.841494
0.841493
0.841487
0.841472
0.84147
0.841461
0.841466
0.841461
0.841465
0.841459
0.841464
0.84146
0.841465
0.841462
0.841463
0.84146
0.841463
0.84146
0.841467
0.841461
0.841466
0.841463
0.841478
0.841482
0.841496
0.841498
0.841448
0.840246
0.83921
0.83921
0.840246
0.841448
0.841496
0.841492
0.841491
0.841471
0.841471
0.841461
0.841467
0.841461
0.841465
0.841459
0.841464
0.84146
0.841465
0.841461
0.841463
0.84146
0.841463
0.841459
0.841467
0.841461
0.841467
0.841464
0.841479
0.841482
0.841497
0.841499
0.841449
0.840246
0.83921
0.83921
0.840248
0.841449
0.841495
0.841499
0.841485
0.841481
0.841463
0.841468
0.84146
0.841467
0.841459
0.841463
0.841459
0.841463
0.84146
0.841463
0.84146
0.841461
0.841457
0.841461
0.841463
0.841461
0.841463
0.841463
0.841474
0.841481
0.841496
0.841491
0.841447
0.840245
0.839209
0.83921
0.840249
0.841449
0.8415
0.841493
0.841493
0.841472
0.841471
0.841462
0.841467
0.841461
0.841466
0.841459
0.841464
0.84146
0.841465
0.841461
0.841463
0.841459
0.841463
0.841459
0.841466
0.841461
0.841466
0.841464
0.841478
0.841482
0.841494
0.841499
0.841449
0.840248
0.83921
0.839209
0.840243
0.841449
0.841494
0.841495
0.841484
0.841473
0.84147
0.841463
0.841467
0.841462
0.841466
0.841459
0.841464
0.84146
0.841465
0.841464
0.84146
0.841464
0.841459
0.841466
0.841462
0.841468
0.841463
0.84147
0.841472
0.841489
0.841494
0.841494
0.841449
0.840244
0.839212
0.839213
0.84025
0.84145
0.841501
0.841497
0.841494
0.841473
0.841471
0.841463
0.841472
0.841465
0.84147
0.841464
0.841468
0.841464
0.841469
0.841463
0.841464
0.84146
0.841463
0.84146
0.841465
0.841462
0.841465
0.841469
0.84148
0.841479
0.841492
0.841496
0.841453
0.840265
0.839269
0.840208
0.619796
0.66371
0.80628
0.922417
0.96008
1.0033
1.00821
0.919449
1.02374
1.01993
1.05916
1.13602
0.961567
0.985146
0.976925
0.958257
0.915292
0.842957
0.80006
0.767395
0.771707
0.788364
0.800128
0.804774
0.810406
0.809823
0.814955
0.821204
0.828333
0.830554
0.831939
0.833209
0.824431
0.82804
0.824303
0.822862
0.825703
0.822653
0.825962
0.82219
0.824015
0.822165
0.821634
0.822298
0.820406
0.82384
0.810467
0.81051
0.796501
0.795309
0.79797
0.794731
0.797445
0.795577
0.79535
0.795785
0.794042
0.794891
0.792975
0.793441
0.792613
0.791971
0.792369
0.791466
0.792132
0.791377
0.791961
0.791278
0.79178
0.790885
0.791287
0.790545
0.790329
0.790263
0.789812
0.789914
0.78955
0.789624
0.788327
0.788292
0.789448
0.789424
0.78942
0.78942