/*--------------------------------*- C++ -*----------------------------------*\
| =========                 |                                                 |
| \\      /  F ield         | OpenFOAM: The Open Source CFD Toolbox           |
|  \\    /   O peration     | Version:  2.1.1                                 |
|   \\  /    A nd           | Web:      www.OpenFOAM.org                      |
|    \\/     M anipulation  |                                                 |
\*---------------------------------------------------------------------------*/
FoamFile
{
    version     2.0;
    format      ascii;
    class       volScalarField;
    location    "0.000750000";
    object      T;
}
// * * * * * * * * * * * * * * * * * * * * * * * * * * * * * * * * * * * * * //

dimensions      [0 0 0 1 0 0 0];

internalField   nonuniform List<scalar> 
12384
(
314.059
311.136
305.576
308.799
308.962
310.065
308.501
306.845
303.504
302.542
304.452
304.432
306.26
307.163
303.603
303.631
303.508
303.559
303.675
303.784
303.852
303.852
303.514
302.809
302.013
301.447
301.188
301.15
301.262
301.337
301.308
301.233
300.725
300.215
300.351
299.14
299.047
298.817
297.78
298.073
297.082
297.379
296.715
296.931
294.214
294.253
294.157
294.016
294.074
293.924
293.956
293.857
293.801
293.817
293.724
293.76
293.674
293.697
293.573
293.588
293.401
293.426
293.193
293.263
293.066
293.123
293.036
293.045
293.027
293.008
293.014
293.004
293.006
293.002
293
293.001
293.001
293
293.001
292.999
292.999
292.999
292.999
292.999
292.999
292.999
292.997
292.998
292.997
292.998
292.997
292.998
292.998
292.999
292.998
292.999
292.999
292.999
292.999
293
292.999
293
293
293.001
293
293.001
293
292.999
293.001
292.999
292.999
292.999
292.999
292.999
293
292.999
292.997
292.998
292.997
292.997
292.998
292.997
292.999
293
292.999
292.999
292.999
292.999
292.999
293
292.999
293
293.001
293
293
293
293
293
293.001
292.999
292.999
292.999
292.999
292.998
292.999
292.998
292.998
292.998
292.998
292.998
292.997
292.998
292.999
292.999
292.998
292.999
292.999
292.999
292.999
293
292.999
293
293
293
293
293.001
293
292.999
293
292.999
292.999
292.999
292.999
292.999
293
292.999
292.997
292.998
292.997
292.998
292.997
292.998
292.998
292.999
292.998
292.999
292.999
292.999
292.999
293.001
293
293
293
293
293
293.001
293.001
293
293.001
292.999
292.998
292.999
292.999
292.999
293
292.999
292.997
292.998
292.997
292.998
292.997
292.998
292.998
292.999
292.998
292.999
292.999
292.999
292.999
293
293
293
293
293
293.001
293.001
293
293
293.001
293
292.998
292.999
292.999
292.999
293
292.999
292.997
292.998
292.997
292.998
292.997
292.998
292.998
292.999
292.998
292.999
292.999
292.999
292.999
293
292.999
293
293
293
293.001
293.001
293
292.999
293
292.999
292.999
292.999
292.999
292.998
292.999
292.998
292.998
292.997
292.998
292.998
292.998
292.997
292.999
292.999
292.998
292.999
292.999
292.999
292.999
293.002
293
293
293.001
293
293
293
293
293
293.001
293
292.998
292.999
292.999
292.999
293
292.999
292.997
292.998
292.997
292.998
292.997
292.998
292.999
292.999
292.998
292.999
292.999
292.999
292.999
293
293
293
293
293
293
293.001
293.001
293
293.001
293
292.999
292.999
292.998
292.999
292.999
292.999
292.998
292.998
292.997
292.997
292.998
292.997
292.999
292.999
292.998
292.998
292.999
292.998
292.999
293.001
292.999
293.001
293.001
293
293.001
293.001
293.001
293.001
293.001
293
293
292.999
292.998
292.998
292.998
292.999
292.997
292.997
292.998
292.998
292.998
292.997
292.997
292.998
292.997
292.998
292.998
292.999
292.999
293
293
293
293.001
293.001
440.77
379.758
322.554
309.456
310.795
310.083
309.627
308.227
306.956
305.357
304.632
305.087
303.975
305.017
303.675
303.742
303.819
303.536
303.573
303.271
303.626
303.212
303.228
302.851
302.559
301.833
301.431
301.291
301.194
301.328
301.228
301.052
300.735
300.397
299.78
299.671
298.701
298.861
297.802
298.13
297.093
297.499
296.665
297.024
294.148
294.093
294.074
294.186
294.002
294.073
293.89
293.959
293.798
293.847
293.711
293.792
293.613
293.736
293.523
293.626
293.368
293.471
293.187
293.285
293.083
293.101
293.064
293.027
293.033
293
293.008
293.006
292.997
293.001
292.989
292.994
292.989
292.994
292.997
292.989
292.997
292.987
292.998
292.987
292.997
292.986
292.995
292.987
292.994
292.988
292.995
292.986
292.996
292.986
292.997
292.987
292.998
292.987
292.997
292.99
292.992
292.998
292.992
292.996
292.989
292.994
292.988
292.997
292.99
292.99
292.997
292.987
292.997
292.987
292.997
292.987
292.995
292.988
292.991
292.994
292.987
292.996
292.986
292.997
292.986
292.997
292.987
292.997
292.99
292.991
292.997
292.989
292.994
292.989
292.991
292.995
292.99
292.998
292.989
292.998
292.988
292.997
292.987
292.996
292.988
292.994
292.99
292.988
292.994
292.988
292.995
292.986
292.996
292.986
292.997
292.987
292.998
292.987
292.997
292.99
292.992
292.997
292.992
292.996
292.989
292.994
292.989
292.997
292.992
292.989
292.997
292.987
292.997
292.986
292.997
292.986
292.996
292.987
292.994
292.988
292.994
292.987
292.996
292.988
292.995
292.988
292.996
292.988
292.997
292.989
292.997
292.992
292.995
292.994
292.989
292.993
292.991
292.991
292.996
292.988
292.998
292.987
292.998
292.986
292.997
292.986
292.996
292.987
292.994
292.988
292.995
292.986
292.996
292.986
292.997
292.987
292.998
292.987
292.997
292.99
292.992
292.997
292.992
292.996
292.997
292.992
292.997
292.988
292.998
292.988
292.998
292.987
292.997
292.986
292.997
292.985
292.996
292.987
292.994
292.988
292.995
292.986
292.996
292.986
292.997
292.986
292.998
292.987
292.997
292.99
292.992
292.998
292.992
292.996
292.997
292.994
292.996
292.997
292.989
292.998
292.987
292.998
292.986
292.998
292.986
292.996
292.986
292.995
292.988
292.995
292.988
292.995
292.987
292.995
292.993
292.989
292.996
292.988
292.997
292.989
292.997
292.989
292.994
292.99
292.997
292.993
292.998
292.989
292.998
292.988
292.999
292.986
292.997
292.986
292.997
292.985
292.996
292.987
292.994
292.988
292.995
292.986
292.996
292.986
292.997
292.987
292.998
292.987
292.997
292.99
292.992
292.997
292.993
292.996
292.99
292.994
292.989
292.995
292.996
292.989
292.997
292.987
292.997
292.986
292.997
292.986
292.996
292.987
292.994
292.993
292.988
292.996
292.985
292.997
292.986
292.997
292.987
292.998
292.988
292.997
292.994
292.989
292.994
292.989
292.998
292.994
293
292.989
292.999
292.988
292.999
292.986
292.999
292.984
292.997
292.984
292.996
292.985
292.994
292.987
292.994
292.985
292.995
292.986
292.996
292.986
292.997
292.987
292.996
292.989
292.992
292.997
292.993
292.997
502.825
475.559
388.801
329.351
310.888
310.308
308.663
308.522
308.709
308.39
307.117
305.459
304.112
303.36
303.709
303.831
303.692
303.571
303.312
303.105
302.983
302.837
303.01
302.796
302.809
302.239
301.998
301.39
301.292
301.196
300.962
300.927
300.319
300.413
299.427
299.646
298.564
298.896
297.764
298.07
297.228
297.413
296.813
297.111
294.355
294.382
294.3
294.144
294.188
294.018
294.058
293.894
293.872
293.836
293.75
293.75
293.657
293.672
293.557
293.572
293.417
293.425
293.282
293.236
293.166
293.103
293.07
293.052
293.031
293.019
293.024
293.014
293.017
293.013
293.011
293.01
293.01
293.009
293.01
293.007
293.009
293.009
293.009
293.007
293.008
293.007
293.006
293.007
293.007
293.007
293.006
293.007
293.006
293.008
293.007
293.009
293.009
293.008
293.007
293.009
293.01
293.009
293.01
293.011
293.011
293.009
293.009
293.009
293.009
293.008
293.008
293.009
293.009
293.007
293.007
293.006
293.006
293.006
293.008
293.008
293.007
293.006
293.006
293.008
293.007
293.009
293.009
293.008
293.008
293.009
293.009
293.01
293.009
293.011
293.011
293.009
293.01
293.01
293.009
293.007
293.009
293.009
293.009
293.007
293.007
293.007
293.006
293.006
293.008
293.008
293.007
293.007
293.006
293.008
293.007
293.009
293.009
293.008
293.007
293.009
293.01
293.009
293.01
293.011
293.011
293.009
293.01
293.009
293.009
293.008
293.008
293.009
293.009
293.007
293.008
293.006
293.006
293.007
293.007
293.007
293.006
293.007
293.007
293.008
293.007
293.009
293.009
293.008
293.007
293.009
293.01
293.01
293.01
293.01
293.011
293.01
293.01
293.009
293.009
293.007
293.009
293.009
293.008
293.007
293.008
293.006
293.006
293.007
293.007
293.007
293.006
293.007
293.006
293.007
293.007
293.009
293.009
293.009
293.007
293.009
293.01
293.01
293.01
293.011
293.011
293.011
293.01
293.01
293.009
293.007
293.008
293.009
293.008
293.007
293.008
293.007
293.006
293.007
293.007
293.007
293.006
293.007
293.006
293.007
293.007
293.009
293.009
293.009
293.007
293.009
293.01
293.009
293.01
293.011
293.011
293.011
293.01
293.01
293.009
293.007
293.009
293.009
293.009
293.007
293.007
293.006
293.007
293.007
293.008
293.007
293.007
293.007
293.007
293.008
293.008
293.009
293.009
293.008
293.007
293.009
293.01
293.01
293.01
293.011
293.011
293.011
293.009
293.009
293.009
293.008
293.009
293.009
293.008
293.007
293.008
293.007
293.006
293.007
293.007
293.007
293.006
293.007
293.006
293.007
293.007
293.009
293.009
293.008
293.007
293.009
293.01
293.009
293.01
293.011
293.011
293.01
293.01
293.01
293.009
293.008
293.009
293.009
293.008
293.007
293.008
293.007
293.007
293.006
293.008
293.008
293.006
293.006
293.007
293.008
293.007
293.008
293.009
293.009
293.007
293.009
293.009
293.009
293.009
293.011
293.013
293.012
293.011
293.011
293.01
293.009
293.01
293.009
293.008
293.007
293.008
293.007
293.007
293.006
293.007
293.006
293.006
293.007
293.007
293.007
293.007
293.007
293.008
293.007
293.007
293.009
293.009
293.009
293.011
293.011
1810.35
1855.09
1575.63
622.305
391.707
332.967
310.846
307.37
308.363
309.588
310.304
307.533
303.935
302.782
303.424
303.617
303.64
303.478
303.259
302.948
302.591
302.555
302.702
302.834
302.985
302.795
302.42
301.667
301.521
300.801
300.906
300.597
300.265
300.245
299.347
299.661
298.547
298.888
297.827
298.141
297.432
297.353
297.235
297.044
294.314
294.251
294.297
294.31
294.152
294.192
293.998
294.049
293.843
293.871
293.763
293.67
293.676
293.567
293.571
293.489
293.472
293.374
293.372
293.207
293.25
293.078
293.127
293.024
293.053
293.008
293.019
293.011
293.007
293.008
293.001
293.002
293.001
293.003
293.002
293
293.001
293
293.001
293
293
292.999
293
292.999
293
293
293.001
292.999
293
292.999
293
293
293.001
293
293
293
293.001
293.002
293.002
293.002
293.002
293.002
293.001
293.002
293.002
293
293.001
293
293.001
293
293
293
293
293
292.999
292.999
292.999
293
292.999
293
293
293.001
293
293.001
293
293
293.002
293.001
293.002
293.002
293.002
293.002
293.002
293.001
293
293.001
293.001
293.001
293
293.001
293
293.001
293
292.999
293
292.999
293.001
293
293
292.999
293
293
293.001
293
293
293
293
293.002
293.001
293.002
293.002
293.002
293.001
293.002
293.001
293
293.001
293
293.001
293
293
292.999
293
292.999
293.001
293
293
292.999
293
293
293.001
293
293.001
293.001
293
293.001
293.001
293.003
293.002
293.003
293.002
293.001
293.001
293.001
293.002
293
293.001
293
293.001
292.999
293
292.999
293.001
292.998
293
293
293.001
292.999
293
292.999
293
293
293.001
292.999
293
293.001
293
293.002
293.001
293.002
293.002
293.002
293.002
293.001
293.001
293
293.001
293
293.001
292.999
293
292.999
293.001
292.999
293
292.999
293.001
292.999
293
292.999
293
293
293.001
293
293
293.001
293.001
293.002
293.001
293.002
293.003
293.003
293.003
293.001
293.001
293.001
293
293.001
292.999
293
292.999
293
292.999
293.001
293
293
293
293
293
293.001
293
293
293.001
293.001
293
293.001
293.002
293.002
293.001
293.002
293.002
293.002
293.003
293.001
293.001
293
293.001
292.999
293.001
292.999
293
292.999
293.001
292.998
293
293
293.001
292.999
293
292.999
293
293
293.001
293
293
293.001
293
293.002
293.001
293.002
293.001
293.002
293.001
293.002
293.001
293
293.001
293
293.001
293
293
292.999
293
292.999
293
292.999
293
293
292.999
293
292.999
293.001
293
293.001
293
293.002
293.002
293.001
293.002
293.001
293.004
293.003
293.003
293.002
293.002
292.999
293.001
293
293.001
292.999
293.001
292.999
292.999
292.998
292.998
292.997
292.998
292.998
292.998
292.998
293
292.999
293
293
293
293
293
293.002
293.002
293.002
2305.32
2309.78
2300.85
2010.04
1155.02
692.325
414.401
320.539
305.821
308.246
310.086
310.978
308.508
302.632
302.855
303.187
303.272
303.487
303.315
303.065
302.654
302.519
302.708
302.739
303.087
303.014
302.817
301.866
301.874
300.62
300.972
300.137
300.308
299.697
299.642
299.167
298.864
298.563
298.229
297.816
297.912
297.257
297.521
297.185
294.503
294.544
294.458
294.389
294.328
294.151
294.182
293.984
294.012
293.799
293.791
293.682
293.603
293.585
293.523
293.499
293.45
293.389
293.383
293.259
293.253
293.142
293.119
293.07
293.04
293.035
293.014
293.014
293.009
293.01
293.003
293.002
293.003
293.002
293.001
293.002
293
293.001
292.999
293.002
292.999
293
292.998
293
292.998
293
292.998
293.001
292.998
293.002
292.999
293.002
292.998
293.001
293.001
293.002
293.002
293.001
293.003
293.001
293.004
293.002
293.004
293.001
293.002
293.002
292.999
293.002
292.999
293.002
292.999
293.001
292.998
293
292.999
292.998
293
292.998
293
292.999
293.002
292.999
293.001
292.999
293.002
293.002
293.001
293.004
293.002
293.003
293.002
293.002
293.003
293.001
293.003
293
293.001
292.998
293.002
292.999
293.001
292.998
293
293
292.998
293
292.998
293.001
292.998
293.002
292.999
293.002
292.998
293.001
293
293.002
293.002
293.001
293.003
293.001
293.003
293.002
293.004
293.001
293.002
293.002
292.999
293.001
292.999
293.002
292.999
293
292.998
293
292.998
293
292.998
293
292.998
293.001
293
293.001
292.999
293.001
293
293.002
293
293.002
293.002
293.002
293.003
293.002
293.003
293.003
293.001
293.003
293
293.001
292.999
293.002
292.999
293
292.998
293
292.998
293
292.998
293.001
292.998
293.002
292.999
293.002
292.998
293.001
293.001
293.002
293.002
293.001
293.003
293.001
293.002
293.003
293.001
293.003
293
293.002
292.999
293.001
292.999
293.002
292.999
293.001
292.998
293
292.998
293
292.998
293.001
292.998
293.002
292.999
293.002
292.998
293.001
293.001
293.002
293.002
293.001
293.003
293.001
293.001
293.002
293.001
293
293.002
292.999
293.001
292.998
293.002
292.999
293.002
292.998
293.001
292.998
293
292.998
293
292.999
293
292.999
293.001
293.001
292.999
293.001
293
293.003
293.001
293.004
293.002
293.003
293.001
293.003
293.001
293.002
293
293.002
292.999
293.001
292.999
293.002
292.999
293.001
292.998
293
292.998
293
292.998
293.001
292.998
293.002
292.999
293.002
292.998
293.001
293.001
293.002
293.002
293.001
293.003
293.001
293.003
293.002
293.004
293.002
293.001
293.002
293
293.001
292.999
293.002
292.999
293
292.998
293
292.998
292.999
293
292.998
293
292.999
293.002
292.999
293.001
292.999
293.003
293.001
293.002
293.003
293.002
293.003
293.002
293.004
293.001
293.003
293.001
293.003
292.999
293
292.998
293.002
292.998
293
292.997
293
292.998
293
292.998
293
292.998
293
292.998
293.001
292.998
293.001
292.999
293.001
293.002
293.001
293.002
293
2328.65
2324.18
2319.59
2306.78
2188.08
2016.1
1260.96
555.291
333.094
304.248
306.96
309.889
310.184
309.895
301.963
302.569
302.739
303.124
303.337
303.318
303.004
302.602
302.683
302.609
303.084
302.974
302.935
302.234
301.886
300.467
300.936
299.9
300.029
299.601
299.577
298.977
299.075
298.351
298.554
297.73
298.013
297.393
297.525
297.292
294.427
294.573
294.493
294.479
294.387
294.371
294.11
294.189
293.899
293.977
293.669
293.783
293.532
293.597
293.496
293.471
293.443
293.409
293.372
293.306
293.268
293.183
293.157
293.09
293.077
293.041
293.023
293.018
293.014
293.011
293.003
293.003
293.003
293.003
293.003
293.002
293.002
293.002
293.002
293.001
293.001
293
293
293
293
293
293
293
293.001
293
293.002
293.001
293.003
293.001
293.002
293.002
293.002
293.003
293.002
293.003
293.002
293.003
293.003
293.003
293.003
293.002
293.002
293.002
293.002
293.002
293.001
293.001
293.001
293
293
293
293
293.001
293
293.001
293.001
293.002
293.002
293.002
293.001
293.003
293.003
293.002
293.003
293.002
293.003
293.003
293.003
293.003
293.002
293.002
293.001
293.002
293.001
293.002
293.001
293.001
293.001
293
293
293
293
293
293.001
293
293.002
293.002
293.003
293.001
293.002
293.002
293.002
293.003
293.003
293.003
293.002
293.003
293.002
293.003
293.003
293.001
293.002
293.002
293.002
293.002
293.001
293
293.001
293
293
293
293
293
293.001
293
293.001
293.001
293.002
293.001
293.003
293.002
293.003
293.003
293.002
293.003
293.003
293.003
293.002
293.003
293.002
293.002
293.002
293.002
293.002
293.001
293.001
293
293
293
293
293
293
293
293.001
293
293.002
293.002
293.003
293.001
293.002
293.002
293.002
293.003
293.003
293.003
293.003
293.002
293.004
293.002
293.002
293.002
293.002
293.002
293.002
293.001
293.001
293
293.001
293
293
293
293
293
293.001
293
293.002
293.001
293.003
293.001
293.002
293.002
293.002
293.003
293.003
293.003
293.003
293.002
293.003
293.003
293.002
293.002
293.001
293.002
293.001
293.002
293
293.001
293
293
293
293
293
293.001
293
293.002
293.001
293.002
293.002
293.001
293.002
293.002
293.003
293.003
293.003
293.002
293.003
293.002
293.004
293.002
293.003
293.002
293.002
293.002
293.002
293.001
293.001
293
293
293
293
293
293
293
293.001
293
293.002
293.002
293.003
293.001
293.002
293.002
293.002
293.003
293.003
293.003
293.003
293.003
293.002
293.003
293.003
293.002
293.002
293.002
293.002
293.002
293.002
293
293
293
293
293.001
293.001
293.001
293
293.002
293.001
293.002
293.002
293.002
293.002
293.002
293.003
293.002
293.003
293.002
293.005
293.003
293.004
293.003
293.003
293.002
293.002
293.002
293.001
293.001
293.001
293.001
293.001
293.001
293.001
292.999
292.999
293.001
293.001
293
293.001
293
293.001
293.001
293.001
293.001
293.002
293.003
293.002
293.004
2325.73
2324.69
2318.05
2327.58
2361.31
2374.95
2268.67
2137.6
743.342
338.034
304.542
306.311
311.998
312.916
302.067
302.164
302.286
302.782
303.271
303.408
303.246
302.9
302.584
302.545
302.769
302.914
302.904
302.325
302.076
300.481
300.637
299.904
299.817
299.538
299.373
299.099
298.959
298.381
298.541
297.786
298.067
297.399
297.63
297.381
294.91
294.681
294.689
294.585
294.447
294.39
294.313
294.076
294.11
293.861
293.76
293.721
293.565
293.575
293.482
293.473
293.44
293.404
293.381
293.347
293.274
293.244
293.145
293.155
293.066
293.05
293.047
293.014
293.021
293.012
293.003
293.003
293.002
293.001
293.001
293.001
293
293
293
293
292.999
292.999
292.999
292.999
292.999
293
292.999
293
292.999
293
292.999
293.001
293
293.001
293
293.001
293.002
293.001
293.002
293.001
293.003
293.002
293.002
293.001
293.001
293.001
293.001
293
293
293
292.999
293
293
292.999
293
292.999
293
292.999
293
292.999
293
293
293
293.001
293.001
293.001
293.002
293.003
293.002
293.002
293.001
293.001
293.002
293.001
293.001
293
293.001
293
293
292.999
292.999
293
292.999
293
292.999
293
292.999
293
292.999
293
292.999
293.001
293
293.001
293
293.001
293.002
293.001
293.002
293.001
293.002
293.002
293.003
293.002
293.001
293.001
293.001
293
293
293
292.999
293
292.999
293
292.999
293
292.999
293
292.999
293
293
293
293
293
293
293.001
293.001
293.001
293.001
293.001
293.002
293.002
293.002
293.002
293.001
293.001
293
293
293
293
292.999
293
292.999
293
292.999
293
292.999
293
292.999
293
292.999
293.001
293
293.001
293
293.001
293.002
293.001
293.002
293.001
293.001
293.001
293.001
293.002
293
293.001
293
293
293
293
292.999
293
292.999
293
293
293
292.999
293
292.999
293
292.999
293.001
293
293.001
293
293.001
293.002
293.001
293.002
293.001
293.001
293.001
293.001
293.002
293.001
293
293
293
293.001
292.999
293
292.999
293
292.999
293
292.999
292.999
292.999
292.999
292.999
292.999
293
293
293.001
293
293.001
293.001
293.002
293.002
293.002
293.001
293.001
293.001
293.002
293
293.001
293
293
293
293
292.999
293
292.999
293
292.999
293
292.999
292.999
292.999
293
292.999
293.001
293
293.001
293
293.001
293.002
293.001
293.002
293.001
293.003
293.002
293.002
293.002
293.002
293
293
293
293.001
293
292.999
293
292.999
292.999
293
293
293
292.999
293
292.999
293
293
293
293
293.001
293
293.002
293.001
293.002
293.002
293.002
293.002
293.002
293.002
293.001
293.001
293
293.001
293
293
293
293
292.999
292.999
292.998
292.999
292.999
292.999
292.999
293
292.999
293
292.999
292.999
293
293
293.001
293.001
293.001
293
2321.74
2314.6
2325.71
2365.9
2424.03
2430.48
2410.42
2410.11
2329.73
689.467
333.759
305.723
310.267
315.904
303.382
301.266
302.022
302.326
302.968
303.401
303.373
303.162
302.275
302.279
302.441
302.641
302.734
302.184
302.383
300.659
300.535
300.095
299.544
299.592
299.255
299.145
298.911
298.583
298.448
297.892
297.986
297.504
297.755
297.314
294.316
295.058
294.455
294.752
294.502
294.443
294.318
294.231
294.038
293.96
293.784
293.741
293.574
293.594
293.464
293.495
293.424
293.426
293.386
293.352
293.316
293.266
293.198
293.148
293.113
293.082
293.037
293.046
293.015
293.017
293.005
293.004
293.004
293.004
293.004
293.003
293.002
293.003
293.001
293.002
293.001
293.002
293.001
293.001
293.001
293.001
293.001
293.001
293.001
293.002
293.001
293.002
293.002
293.003
293.003
293.003
293.004
293.004
293.004
293.004
293.004
293.004
293.004
293.003
293.003
293.003
293.003
293.003
293.002
293.002
293.001
293.002
293.001
293.001
293.001
293.001
293.001
293.001
293.002
293.001
293.002
293.002
293.003
293.003
293.003
293.003
293.003
293.004
293.004
293.004
293.004
293.004
293.004
293.003
293.003
293.003
293.003
293.001
293.002
293.001
293.002
293.002
293.001
293.001
293.001
293.001
293.001
293.001
293.001
293.002
293.001
293.002
293.002
293.003
293.003
293.003
293.004
293.004
293.004
293.004
293.004
293.004
293.004
293.003
293.003
293.003
293.003
293.003
293.002
293.002
293.001
293.002
293.001
293.001
293.001
293.001
293.001
293.001
293.001
293.002
293.001
293.002
293.002
293.003
293.003
293.003
293.003
293.004
293.004
293.004
293.003
293.004
293.004
293.003
293.003
293.003
293.003
293.003
293.001
293.002
293.001
293.002
293.001
293.001
293.001
293.001
293.001
293.001
293.001
293.002
293.001
293.002
293.002
293.003
293.003
293.003
293.004
293.003
293.004
293.004
293.003
293.004
293.004
293.004
293.003
293.003
293.002
293.002
293.001
293.002
293.001
293.002
293.001
293.001
293.001
293.001
293.001
293.001
293.001
293.002
293.001
293.002
293.002
293.003
293.003
293.003
293.004
293.004
293.004
293.004
293.004
293.003
293.004
293.003
293.003
293.003
293.003
293.002
293.002
293.001
293.002
293.001
293.001
293.001
293.001
293.001
293.001
293.001
293.002
293.002
293.002
293.001
293.002
293.003
293.003
293.003
293.003
293.004
293.003
293.003
293.004
293.004
293.004
293.004
293.003
293.003
293.003
293.003
293.001
293.002
293.001
293.002
293.001
293.001
293.001
293.001
293.001
293.001
293.001
293.002
293.001
293.002
293.002
293.003
293.003
293.003
293.004
293.004
293.004
293.004
293.004
293.004
293.004
293.004
293.003
293.003
293.003
293.003
293.002
293.002
293.001
293.002
293.001
293.001
293.001
293.001
293.001
293.001
293.002
293.001
293.002
293.001
293.003
293.002
293.003
293.003
293.003
293.004
293.004
293.004
293.004
293.003
293.003
293.004
293.004
293.003
293.003
293.003
293.002
293.002
293.001
293.002
293.001
293.002
293.002
293.002
293.001
293.001
293.001
293.002
293.001
293.002
293.001
293.002
293.002
293.003
293.003
293.004
293.003
293.004
2312.21
2320.72
2360.31
2374.32
2398.16
2421.89
2427.57
2428.79
2433.96
2381.72
760.506
352.33
307.12
308.276
307.103
309.486
304.441
303.807
302.029
302.36
302.888
303.375
303.421
303.04
302.207
302.235
302.084
302.299
302.461
302.363
302
301.534
300.082
300.528
299.413
299.529
299.331
298.892
299.082
298.311
298.443
298.066
297.505
297.644
296.909
297.138
295.887
296.299
295.601
295.136
295.347
294.694
294.808
294.539
294.398
294.261
294.184
293.907
293.967
293.653
293.733
293.517
293.53
293.458
293.454
293.396
293.417
293.333
293.358
293.261
293.238
293.199
293.118
293.107
293.061
293.039
293.022
293.022
293.008
293.014
293.001
293.002
293.002
293.001
293.001
293
293.001
293
293
292.998
292.999
292.998
292.999
292.999
292.999
292.999
292.999
292.998
292.999
292.998
292.999
292.998
293
293
293.001
293
293
293.001
293
293.001
293.003
293.003
293.001
293.001
293
293.001
293.001
293
293
293
293
292.998
292.999
292.998
292.999
292.999
292.999
292.999
292.999
292.999
292.998
292.999
292.998
293
293
293.001
293
293.001
293.001
293
293.001
293.001
293.003
293.003
293.001
293
293
293.001
293
293.001
293
293
292.999
292.999
292.999
292.999
292.999
292.999
292.999
292.999
292.999
292.998
292.999
292.998
292.999
292.998
293
293
293.001
293
293.001
293.001
293
293.001
293.003
293.003
293.001
293.001
293
293.001
293.001
293
293.001
293
293
292.998
292.999
292.998
292.999
292.998
292.999
292.999
292.999
292.999
292.999
292.999
292.999
292.999
293
293
293.001
293
293.001
293
293
293
293.003
293.003
293.001
293.001
293
293.001
293.001
293
293.001
292.999
293
292.998
292.999
292.998
292.999
292.998
292.999
292.999
292.999
292.998
292.999
292.998
292.999
292.998
293
293
293.001
293
293
293.001
293
293.001
293.003
293.003
293.001
293
293.001
293
293.001
293
293.001
292.999
293
292.998
292.999
292.998
292.999
292.999
292.999
292.999
292.999
292.998
292.999
292.998
292.999
292.998
293
293
293.001
293
293
293.001
293
293.001
293.003
293.003
293.001
293
293.001
293.001
293
293.001
293
293
292.998
292.999
292.998
292.999
292.998
292.999
292.999
292.999
292.999
292.999
292.999
292.999
292.999
292.999
293
293
293.001
293
293.001
293
293.001
293.001
293.003
293.003
293.001
293
293.002
293
293.001
293
293.001
292.999
293
292.998
292.999
292.998
292.999
292.998
292.999
292.999
292.999
292.998
292.999
292.998
292.999
292.998
293
293
293.001
293
293.001
293.001
293
293.001
293.003
293.003
293.001
293.001
293
293.001
293.001
293
293.001
293
293
292.998
292.999
292.998
292.999
292.999
292.999
292.999
292.999
292.999
292.998
292.999
292.998
293
292.999
293
293
293.001
293
293
293.001
293.001
293.004
293.004
293.001
293.001
293.001
293.001
293.001
293
293.001
293
293
292.998
292.999
292.998
292.999
292.998
292.999
292.998
292.999
292.998
293
292.998
293
292.998
292.999
292.999
293
293.001
293.001
293.001
293.001
293.002
293.004
293.004
2325.76
2356.23
2313.76
2277
2273.82
2341.9
2378.37
2390.93
2390.38
2364.63
1336.07
468.695
315.6
306.927
306.577
307.173
306.39
303.66
304.186
302.599
302.855
303.387
303.326
302.663
302.606
301.587
301.64
301.911
302.409
302.248
302.054
301.767
300.26
300.42
299.686
299.289
299.423
298.882
299.077
298.364
298.49
297.93
297.741
297.577
297.075
297.094
296.053
296.4
295.424
295.338
295.376
294.737
294.948
294.567
294.42
294.381
294.072
294.117
293.797
293.825
293.655
293.554
293.562
293.43
293.493
293.377
293.442
293.329
293.392
293.247
293.303
293.181
293.146
293.128
293.061
293.072
293.022
293.028
293.013
293.008
293.006
293.005
293.004
293.004
293.002
293.003
293.002
293.002
293.001
293
293
293.001
293.001
293.001
293.001
293.001
293.001
293.001
293.001
293
293
293.001
293.002
293.003
293.002
293.003
293.002
293.002
293.002
293.002
293.002
293.002
293.002
293.002
293.002
293.003
293.002
293.003
293.002
293.002
293.001
293
293
293.001
293.001
293.001
293.001
293.001
293.001
293.001
293.001
293
293
293.001
293.002
293.002
293.003
293.002
293.002
293.002
293.002
293.002
293.002
293.002
293.002
293.002
293.002
293.002
293.003
293.002
293.003
293.002
293.001
293
293
293.001
293.001
293.001
293.001
293.001
293.001
293.001
293.001
293
293
293.001
293.002
293.003
293.002
293.003
293.002
293.002
293.002
293.002
293.002
293.002
293.002
293.002
293.002
293.003
293.002
293.003
293.002
293.002
293.001
293
293
293.001
293.001
293.001
293.001
293.001
293.001
293.001
293.001
293
293
293.001
293.002
293.003
293.002
293.003
293.002
293.002
293.002
293.002
293.001
293.002
293.002
293.002
293.002
293.003
293.002
293.003
293.002
293.001
293.001
293
293
293.001
293.001
293.001
293.001
293.001
293.001
293.001
293.001
293
293
293.001
293.002
293.003
293.002
293.003
293.002
293.002
293.002
293.002
293.002
293.002
293.002
293.002
293.002
293.003
293.002
293.003
293.002
293.001
293.001
293
293
293.001
293.001
293.001
293.001
293.001
293.001
293.001
293.001
293
293
293.001
293.002
293.003
293.002
293.003
293.002
293.002
293.002
293.002
293.002
293.002
293.002
293.002
293.002
293.002
293.003
293.002
293.003
293.002
293.001
293
293
293.001
293.001
293.001
293.001
293.001
293.001
293.001
293.001
293
293
293.001
293.002
293.002
293.002
293.003
293.002
293.002
293.002
293.002
293.001
293.002
293.002
293.003
293.002
293.003
293.002
293.003
293.002
293.002
293.001
293
293
293.001
293.001
293.001
293.001
293.001
293.001
293.001
293.001
293
293
293.001
293.002
293.003
293.002
293.003
293.002
293.002
293.002
293.002
293.002
293.002
293.002
293.002
293.002
293.003
293.003
293.003
293.002
293.002
293.001
293
293
293.001
293.001
293.001
293.001
293.001
293.001
293.001
293.001
293
293.001
293.001
293.002
293.002
293.003
293.002
293.003
293.002
293.002
293.002
293.001
293.002
293.003
293.002
293.002
293.003
293.002
293.003
293.002
293.002
293.001
293.002
293.002
293.001
293
293.001
293.001
293.001
293.001
293.001
293.001
293.002
293.002
293.002
293.002
293.003
293.003
293.002
293.003
293.003
293.003
293.003
293.003
293.004
2333.2
2288.56
2163.95
2110.31
2167.54
2242.66
2314.35
2312.19
2325.86
2277.93
2193.01
673.045
347.551
307.506
303.742
305.934
304.753
304.409
303.748
303.243
303.102
303.533
303.461
302.41
302.802
301.137
301.444
301.659
301.977
302.255
301.946
301.987
300.249
300.719
299.585
299.313
299.416
298.894
298.925
298.457
298.466
297.878
297.907
297.25
297.275
296.827
296.473
296.266
295.505
295.801
295.177
295.102
294.892
294.615
294.612
294.324
294.226
294.078
293.907
293.798
293.695
293.579
293.567
293.44
293.483
293.393
293.408
293.36
293.355
293.283
293.295
293.189
293.21
293.101
293.098
293.065
293.03
293.032
293.01
293.013
293.002
293.003
293
293
292.999
292.999
292.998
292.998
292.999
292.998
292.999
292.997
292.998
292.998
292.997
292.997
292.998
292.998
292.997
292.998
292.998
292.999
292.998
292.998
292.998
292.999
292.998
292.998
292.999
292.998
292.999
292.999
292.998
292.999
292.998
292.999
292.998
292.998
292.998
292.998
292.999
292.998
292.998
292.997
292.998
292.998
292.997