/*--------------------------------*- C++ -*----------------------------------*\
| =========                 |                                                 |
| \\      /  F ield         | OpenFOAM: The Open Source CFD Toolbox           |
|  \\    /   O peration     | Version:  2.1.1                                 |
|   \\  /    A nd           | Web:      www.OpenFOAM.org                      |
|    \\/     M anipulation  |                                                 |
\*---------------------------------------------------------------------------*/
FoamFile
{
    version     2.0;
    format      ascii;
    class       volScalarField;
    location    "0.007950000";
    object      cSound;
}
// * * * * * * * * * * * * * * * * * * * * * * * * * * * * * * * * * * * * * //

dimensions      [0 1 -1 0 0 0 0];

internalField   nonuniform List<scalar> 
12384
(
1136.25
1132.74
1128.23
1124.29
1122.19
1122.06
1122.68
1124.71
1127.47
1131.1
1135.44
1141.48
1146.46
1151.77
1090.62
1097.57
1110.11
1118.05
1120.32
1120.85
1120.88
1121.36
1121.19
1120.49
1119.47
1118.17
1116.57
1114.61
1112.48
1110.58
1108.4
1106.95
1105.81
1104.98
1104.26
1104.07
1103.84
1103.81
1103.98
1104.86
1105.71
1104.04
1090.31
1074.76
1125.1
1125.55
1123.9
1123.66
1123.38
1123.22
1122.63
1122.56
1122.32
1122.05
1121.51
1121.02
1120.52
1120.28
1120.19
1120.05
1120.03
1119.96
1120.25
1120.43
1120.8
1121.19
1121.82
1122.46
1123.29
1123.97
1124.81
1125.36
1124.59
1124.5
1120.48
1119.84
1119.42
1119.35
1119.66
1119.76
1119.82
1120.18
1120.44
1120.74
1121.14
1121.33
1121.54
1121.54
1120.9
1120.83
1120.29
1119.62
1119.91
1119.61
1119.54
1120.06
1120.02
1119.94
1120.09
1120.24
1120.2
1119.87
1119.71
1119.56
1121.97
1122.2
1122.78
1123.5
1123.82
1123.53
1122.91
1122.77
1121.53
1120.73
1119.39
1118.76
1118.16
1118.18
1117.96
1119.06
1119.3
1120.85
1120.63
1121.21
1120.67
1119.4
1118.64
1118.81
1118.09
1117.66
1117.43
1117.89
1118.48
1118.78
1125.02
1129.66
1131.47
1130.25
1129.19
1128.54
1127.7
1127.7
1127.86
1127.61
1127.74
1128.13
1128.19
1128.24
1128.3
1128.16
1128.09
1127.72
1127.44
1127.31
1127.31
1127.27
1127.45
1127.84
1128.35
1128.97
1128.44
1126.02
1125.29
1125.56
1110.55
1116.23
1117.25
1117.03
1116.28
1115.64
1114.3
1113.25
1111.95
1110.81
1110.04
1109.51
1109.07
1108.78
1108.3
1107.64
1107.66
1107.17
1106.92
1106.69
1106.8
1107.9
1108.37
1110.01
1111.41
1112.09
1100.37
1075.88
1077.92
1079.35
1125.8
1133.05
1134.17
1134.02
1133.15
1132.9
1132.93
1132.9
1132.91
1132.75
1132.33
1132.31
1132.46
1132.2
1132.21
1132.86
1133.42
1134.08
1134.58
1135.64
1134.57
1125.08
1122.89
1123.61
1124.2
1124.93
1125.53
1125.78
1125.74
1125.37
1135.21
1135.37
1135.83
1136.12
1136.19
1136.08
1135.86
1135.44
1135.04
1134.33
1133.99
1133.6
1133.6
1133.61
1134.13
1134.55
1134.9
1135.11
1135.53
1141.27
1142.7
1142.61
1142.18
1141.74
1141.87
1141.89
1142.42
1143.05
1142.6
1142.86
1132.29
1133.24
1134.32
1135.75
1136.79
1137.43
1137.7
1137.52
1136.98
1136.18
1135.51
1135.03
1134.21
1133.95
1134.29
1134.32
1134.93
1135.6
1135.65
1134.88
1137.39
1139.72
1140.46
1140.94
1141.4
1142.31
1142.82
1142.3
1141.98
1142.09
1151.45
1151.47
1151.45
1151.35
1151.42
1151.02
1150.52
1149.39
1148.46
1147.15
1146.74
1145.78
1145.83
1145.69
1146.5
1147.3
1151.29
1150.7
1150.39
1149.91
1149.79
1149.62
1149.64
1149.69
1149.79
1149.98
1150.32
1150.48
1150.76
1151.62
1135.21
1133.69
1134.47
1140.81
1143.37
1143.12
1143.7
1144.12
1144.54
1144.64
1145.13
1144.94
1145.82
1145.44
1146.72
1146.32
1147.87
1147.47
1148.73
1148.47
1149.42
1148.83
1150.06
1149.41
1150.75
1150.64
1151.85
1152.26
1152.31
1151.62
1161.93
1159.64
1156.69
1154.62
1153.42
1153.72
1160.18
1190.5
1200.55
1198.8
1194.86
1192.71
1189.62
1188.5
1186.3
1185.32
1183.52
1182.48
1181.24
1180.94
1181.15
1182.73
1185.07
1188.1
1190.67
1193.38
1194.77
1195.14
1194.37
1187.76
1128.16
1119.33
1111.59
1108.8
1109.11
1111.16
1112.89
1114.95
1116.83
1119.64
1125
1132.66
1142.85
1150.91
1091.09
1100.23
1114.06
1121.96
1125.49
1127.21
1128.62
1129.08
1128.65
1126.76
1124.46
1121.9
1118.52
1113.91
1109.67
1106.9
1105.11
1104.04
1103.11
1102.4
1101.67
1101.05
1100.7
1100.68
1101.27
1102.24
1103.91
1105
1101.74
1092.03
1125.35
1125.29
1124.15
1123.69
1123.19
1123.03
1122.67
1122.21
1121.21
1120.19
1118.98
1118.37
1118.48
1118.73
1119.27
1119.6
1119.98
1120.29
1120.48
1120.75
1120.83
1121.13
1121.39
1121.85
1122.53
1123.32
1124.11
1125.01
1125.51
1125.5
1120.49
1119.69
1119.21
1119.34
1119.26
1119.34
1119.7
1120.09
1120.73
1121.46
1121.83
1122.05
1121.65
1120.76
1119.7
1118.54
1118.03
1117.61
1117.38
1117.88
1118.27
1118.88
1119.6
1119.99
1120.29
1120.25
1120.36
1120.29
1120.01
1119.82
1121.89
1121.95
1122.59
1123.55
1123.49
1121.73
1119.84
1118.28
1116.74
1115.82
1114.18
1113.78
1113.04
1113.08
1113.42
1114.16
1115.57
1117.04
1118.61
1120.32
1120.55
1120.47
1119.37
1118.32
1116.5
1114.1
1113.72
1114.95
1117
1117.57
1125.83
1130.44
1131.38
1129.68
1128.14
1127.18
1126.76
1126.15
1125.84
1126.33
1126.33
1126.53
1127.01
1127.17
1127.08
1127.01
1126.94
1126.95
1126.97
1127
1126.96
1127.05
1127.22
1127.35
1127.65
1128.29
1128.63
1127.61
1126.07
1125.4
1111.37
1117.32
1118.04
1117.51
1116.29
1114.59
1112.13
1109.81
1107.8
1106.75
1106.3
1106.67
1106.61
1106.44
1106.29
1105.86
1105.76
1105.13
1105.37
1105.3
1105.46
1105.69
1106.61
1107.61
1109.48
1111.17
1108.11
1093.67
1079.67
1079.3
1124.92
1132.83
1133.97
1132.93
1132.18
1132.15
1132.26
1132.48
1132.56
1132.48
1132.85
1133.12
1132.81
1133.09
1133.14
1133.24
1133.59
1134.2
1134.41
1135.1
1135.5
1130.98
1123.78
1121.66
1122.98
1124.51
1126.19
1127.71
1127.94
1127.19
1134.86
1135.04
1136.02
1136.28
1136.07
1135.57
1134.82
1133.85
1132.59
1131.63
1130.9
1130.28
1130.1
1130.31
1130.92
1131.97
1133.23
1134.02
1134.53
1137.79
1141.18
1142.01
1140.64
1139.46
1138.96
1138.91
1139.85
1141.64
1143.18
1142.95
1131.98
1132.59
1134
1136.61
1138.23
1138.6
1137.43
1135.79
1133.91
1132.12
1130.68
1129.11
1128.41
1128.05
1128.4
1129.52
1130.66
1132.23
1133.88
1134.44
1135.6
1137.33
1138.75
1139.47
1139.89
1141.63
1143.99
1144.66
1143.34
1142.27
1151.29
1151.15
1151.4
1152.14
1151.97
1151.27
1149.7
1147.96
1146.14
1144.27
1143.13
1142.37
1142.1
1143.22
1144
1145.72
1148.85
1150.85
1150.49
1149.89
1149.03
1148.96
1149.03
1149.18
1149.59
1149.84
1150.08
1150.36
1150.72
1151.65
1139.81
1139.69
1141.62
1143.13
1143.38
1143.58
1144.14
1144.59
1144.88
1145.27
1145.78
1145.74
1146.57
1146.17
1147.18
1146.15
1147.37
1146.35
1147.38
1147.09
1147.87
1147.34
1147.64
1147.22
1147.47
1147.85
1149.46
1151.1
1152.05
1151.78
1171.64
1161.62
1153.79
1151.01
1151.38
1158.86
1182
1198.7
1199.52
1196.53
1193.22
1191.77
1189.96
1189.15
1188.3
1186.89
1185.39
1182.81
1179.91
1176.88
1175.15
1174.81
1176.82
1180.48
1184.13
1188.65
1193.12
1194.72
1193.67
1186.73
1114.28
1105.49
1103.64
1106.27
1110.84
1115.08
1118.17
1121.46
1122.86
1123.57
1124.22
1127.19
1137.33
1149.43
1091.26
1101.93
1117.08
1126.17
1129.59
1131.81
1132.52
1131.12
1127.14
1123.85
1122.34
1120.78
1116.65
1111.36
1107.46
1105.84
1105.54
1105.72
1105.81
1105.66
1104.94
1103.85
1102.51
1101.44
1100.55
1100.61
1101.69
1103.68
1104.36
1098.52
1125.25
1125.15
1124.3
1124.57
1125.15
1125.7
1124.56
1122.2
1119.26
1117.01
1115.86
1117.1
1118.88
1120.71
1121.84
1122.36
1122.69
1122.73
1122.79
1122.75
1122.84
1122.51
1122.4
1122.3
1122.33
1122.87
1123.43
1124.26
1125.23
1125.73
1120.27
1119.46
1119.16
1119.3
1119.3
1119.31
1119.48
1119.71
1120.41
1121.29
1121.73
1120.8
1119
1117.39
1116.12
1114.89
1114.08
1113.03
1113.01
1112.99
1114.19
1115.54
1117.55
1118.79
1119.59
1120.14
1120.32
1120.29
1120.25
1119.97
1121.8
1121.6
1122.55
1122.89
1120.52
1118.53
1116.89
1115.66
1114.16
1113.16
1111.44
1110.95
1109.52
1109.56
1109.45
1110.48
1111.66
1113.17
1115.3
1117.41
1119.46
1120.05
1120.06
1119.11
1117.19
1113.62
1113.16
1113.86
1116.65
1117.08
1126.16
1131.01
1131.84
1130.49
1129.78
1129.25
1128.39
1127.06
1125.52
1125.4
1126.17
1126.49
1126.5
1126.31
1126.05
1126.1
1126.7
1127.5
1128.29
1128.89
1129.23
1129.24
1128.98
1128.43
1127.8
1127.82
1128.17
1128.12
1126.92
1125.74
1112.07
1118.1
1118.72
1117.73
1116.48
1114.94
1112.47
1109.87
1107.7
1106.57
1106.55
1106.39
1106.5
1106.13
1106.64
1106.67
1106.98
1107.29
1107.42
1107.19
1107.05
1107.16
1106.9
1107.07
1107.8
1109.71
1110.07
1104.93
1090.71
1080.17
1122.81
1132.26
1133.83
1132.16
1132.56
1132.76
1132.65
1132.67
1132.95
1133.73
1134.44
1134.4
1134.66
1135.07
1135.53
1135.41
1135.13
1135.05
1135
1134.87
1135.46
1134.14
1127.72
1121.1
1119.78
1121.59
1124.68
1128.3
1129.56
1128.83
1134.62
1135.66
1136.41
1136.17
1135.61
1134.73
1133.44
1131.84
1130.07
1128.87
1127.2
1125.96
1125.87
1126.25
1127.09
1128.66
1130.14
1131.84
1132.98
1134.52
1138.25
1141.13
1140.42
1138.81
1137.69
1137.39
1137.56
1138.97
1142.24
1143.05
1131.7
1131.87
1134.13
1138.21
1139.17
1137.89
1135.29
1132.43
1130.13
1128.07
1125.96
1124.15
1123.32
1122.65
1122.64
1123.85
1126.14
1127.92
1130.33
1132.31
1133.7
1135.34
1137.03
1138
1137.69
1139.71
1143.5
1146.63
1145.88
1143.5
1150.76
1150.27
1151.67
1152.61
1152.03
1150.18
1148.15
1144.75
1141.91
1139.28
1138.05
1137.38
1138.26
1138.67
1140.67
1142.36
1145.4
1148.33
1150.02
1149.4
1148.59
1148.43
1149.04
1149.84
1150.56
1150.95
1150.96
1150.73
1150.78
1151.69
1142.66
1143.72
1144.15
1143.48
1143.68
1144.29
1145.16
1145.93
1147.06
1148.14
1149.77
1150.29
1152.02
1151.16
1152.25
1150.38
1150.19
1148.36
1148.1
1146.93
1148.03
1147.37
1147.5
1146.35
1146.29
1146.12
1147.07
1149.43
1151.4
1151.59
1173.53
1157.49
1150.66
1151.87
1158.9
1177.51
1196.24
1200.87
1198.45
1196.43
1196.05
1196.32
1196.9
1197.28
1197.14
1196.2
1194.69
1192.72
1189.2
1184.55
1178.7
1175
1174.61
1178.24
1181.03
1184
1191.12
1193.51
1191.59
1184.39
1101.05
1101.74
1106.81
1113.93
1119.89
1123.36
1124.64
1125.56
1127.6
1130.03
1129.2
1128.02
1133.86
1147.67
1091.12
1101.96
1118.23
1128.52
1132.15
1133.46
1131.8
1125.03
1117.3
1112.76
1114.95
1117.23
1112.8
1108.19
1106.7
1106.92
1107.8
1108.6
1109.15
1109.23
1108.86
1107.95
1106.48
1104.24
1102.07
1100.69
1100.53
1101.97
1103.96
1100.68
1125.46
1125.37
1125.14
1126.65
1127.85
1128.1
1125.74
1120.56
1115.59
1113.42
1115.78
1119.79
1122.53
1123.23
1123.31
1122.77
1122.07
1121.54
1121.29
1121.76
1122.03
1122.65
1123.03
1123.08
1122.95
1122.83
1123.09
1123.71
1124.63
1125.59
1120.07
1119.38
1119.49
1120.03
1120.18
1120.13
1119.69
1119.76
1120.13
1121.13
1121.05
1118.7
1116.87
1115.54
1114.52
1113.03
1111.62
1110.46
1109.74
1109.52
1110.24
1111.76
1113.98
1116.33
1118.33
1119.44
1119.95
1120.18
1120.25
1120.02
1121.72
1121.38
1123.45
1120.42
1118.16
1116.72
1115.54
1114.12
1112.42
1110.5
1109.05
1107.36
1106.89
1106.13
1106.61
1107
1108.31
1110.24
1112.33
1114.55
1117.03
1119.18
1119.76
1119.76
1118.2
1115.84
1115.41
1115.15
1117.63
1118.78
1126.17
1131.55
1133.13
1132.98
1133.93
1134.61
1132.29
1128.3
1125.87
1125.12
1125.84
1126.48
1125.58
1124.44
1124.61
1125.65
1127.36
1129.3
1130.99
1132.37
1133
1132.71
1131.96
1130.86
1129.5
1128.29
1127.99
1128.05
1127.32
1125.86
1112.56
1119.06
1119.47
1118.25
1117.56
1116.2
1114.38
1112.29
1109.88
1108.07
1106.88
1106.22
1106.17
1106.62
1107
1107.51
1108.92
1109.21
1109.82
1110
1110.22
1109.27
1108.6
1107.68
1107.52
1108.44
1109.9
1108.25
1098.46
1085.17
1120.32
1131.15
1133.18
1133.2
1133.85
1133.21
1132.73
1132.85
1133.82
1134.95
1135.24
1135.95
1136.94
1137.09
1137.11
1137.51
1137.26
1136.47
1135.9
1135.3
1135.25
1135.25
1130.99
1123.19
1119.07
1119.03
1122.21
1127.41
1130.86
1130.1
1135.12
1136.44
1136.46
1136.06
1135.41
1134.1
1132.13
1130.34
1127.26
1124.89
1122.76
1122.04
1121.31
1121.64
1122.79
1124.22
1126.44
1129.5
1131.03
1132.63
1135.49
1139.49
1140.43
1138.84
1137.64
1136.89
1137.05
1137.37
1140.48
1143.02
1131.4
1131.54
1136.67
1140.35
1139.47
1136.48
1132.89
1130.01
1127.33
1124.34
1121.59
1119.83
1117.98
1117.26
1117.43
1118.26
1120.26
1123.38
1126.52
1129.48
1131.65
1133.59
1135.24
1136.85
1137.55
1138.31
1143.15
1147.22
1147.7
1144.46
1150.08
1150.56
1152.83
1152.86
1151.11
1148.33
1144.52
1140.25
1137
1133.25
1131.18
1131.14
1131.71
1134.85
1136.21
1139.12
1141.78
1145.41
1147.78
1148.27
1147.43
1148.1
1149.29
1150.78
1151.59
1151.68
1151.36
1151.02
1151.05
1151.89
1144.06
1144.88
1144.15
1143.86
1144.6
1145.73
1147.05
1149.02
1151.07
1153.65
1155.5
1157.08
1158.76
1157.66
1158.12
1156.54
1155.23
1152.49
1150.84
1148.05
1148.32
1148.19
1147.6
1146.04
1145.34
1144.63
1145.64
1148.07
1150.78
1151.38
1173.04
1157.36
1156.69
1161.66
1174.57
1192.71
1201.72
1200.61
1199.34
1198.59
1200.06
1199.89
1200.72
1199.74
1199.22
1198.91
1198.56
1197.47
1195.88
1192.55
1186.97
1178.98
1174.41
1177.01
1181.7
1180.56
1184.2
1188.92
1186.4
1181.49
1100.47
1107.1
1116.3
1124.53
1130.25
1132.74
1131.59
1128.3
1126.97
1129.57
1132.82
1131.08
1133.21
1146.19
1090.89
1100.25
1116.97
1128.87
1132.87
1133.11
1127.19
1115.19
1103.26
1100.42
1108.8
1114.17
1109.43
1107.27
1107.55
1108.46
1109.57
1110.73
1111.74
1112.02
1111.64
1111.01
1109.68
1107.74
1104.95
1102.18
1100.53
1101.13
1103.28
1101.41
1125.31
1125.47
1125.55
1127.79
1129.82
1129.48
1124.91
1116.39
1111.41
1113.84
1119.53
1123.11
1123.72
1123
1121.36
1119.71
1118.73
1118.36
1118.37
1118.64
1119.7
1120.75
1121.91
1122.74
1123.17
1123.07
1123.06
1123.38
1124.18
1125.3
1119.98
1119.53
1120.03
1120.77
1121.15
1120.94
1120.43
1119.69
1119.95
1120.76
1120.24
1117.54
1116.24
1115.31
1113.85
1111.3
1109.75
1107.53
1105.95
1105.98
1106.27
1108.12
1110.66
1113.58
1116.44
1118.14
1119.29
1119.91
1120.08
1119.97
1121.75
1121.33
1121.56
1118.38
1117.12
1116.1
1114.79
1112.88
1110.85
1108.26
1107.29
1104.61
1103.78
1103.21
1102.73
1103.83
1105.25
1106.81
1109.53
1112.03
1114.73
1117.38
1118.91
1119.66
1119.11
1117.99
1117.81
1117
1119.49
1121.1
1125.66
1131.82
1134.65
1136.12
1139.02
1140.98
1137.42
1129.94
1125.49
1125.21
1125.88
1125.71
1124.23
1122.99
1123.75
1126.11
1129.08
1132.05
1134.44
1136.21
1136.68
1136.59
1135.5
1133.88
1131.92
1129.68
1128.25
1127.91
1127.31
1125.9
1113.01
1119.97
1120.65
1119.43
1118.66
1117.86
1116.66
1115.22
1113.2
1110.64
1108.08
1106.65
1106.56
1106.61
1107.26
1109.07
1109.92
1111.25
1112.83
1113.03
1112.8
1112.33
1110.89
1109.27
1107.93
1107.89
1109.18
1109.41
1103.23
1088.4
1118.07
1131.57
1132.72
1135.23
1134.81
1133.1
1132.52
1133.39
1134.39
1135.65
1136.62
1138.13
1138.32
1138.55
1138.49
1138.21
1138.52
1138.02
1137.17
1136.04
1135.47
1135.55
1133.07
1126.17
1120.04
1118.98
1120.91
1126
1131.41
1131.14
1136.39
1136.26
1136.29
1136.08
1135.4
1133.51
1130.95
1127.78
1124.38
1121.62
1119.51
1118.06
1117.36
1117.33
1118.43
1120.65
1123
1125.89
1129.32
1130.76
1133.29
1137.55
1140.05
1139.43
1137.73
1136.58
1136.87
1137.22
1139.21
1142.34
1131
1132.82
1140.58
1142.34
1139.67
1135.13
1131.32
1128.06
1124.74
1121.04
1118.13
1114.84
1112.58
1111.76
1112.05
1113.34
1115.49
1118.55
1122.88
1126.25
1129.72
1131.75
1133.89
1136.04
1136.64
1138.34
1143.18
1148.37
1148.99
1146.08
1150.03
1151.96
1153.53
1152.01
1149.45
1145.95
1140.75
1135.67
1130.02
1125.5
1122.88
1121.94
1124.66
1127.39
1132.26
1135.4
1139.08
1142.17
1145.32
1146.86
1146.47
1147.75
1149.91
1151.4
1152.11
1151.94
1151.65
1151.45
1151.54
1152.01
1144.88
1145.22
1144.41
1144.69
1145.96
1147.67
1150.01
1152.82
1156.04
1158.72
1161.15
1162.16
1163.16
1163.14
1162.16
1160.55
1159.81
1156.28
1154.37
1149.91
1148.74
1148.62
1148.08
1145.68
1144.67
1143.78
1144.91
1147.43
1150.41
1151.18
1172.9
1161.66
1167.53
1174.8
1187.99
1199.91
1202.85
1200.78
1200.76
1200.57
1201.09
1199.9
1198.89
1197.58
1197.63
1197.59
1197.54
1197.63
1196.6
1195.23
1192.5
1186.34
1176.72
1173.28
1180.94
1183.01
1177.97
1179.77
1179.41
1179.39
1108.88
1116.33
1127.1
1136.21
1141.58
1143.16
1141.18
1134.63
1127.87
1128.21
1133.39
1133.43
1133.79
1145.72
1090.56
1097.63
1112.52
1125.64
1131.18
1130.35
1120.98
1104.45
1090.88
1092.22
1106.87
1111.99
1107.88
1107.7
1108.3
1109.31
1110.95
1113.23
1115.26
1115.9
1115.35
1113.55
1111.85
1109.93
1107.16
1103.65
1100.95
1100.62
1102.62
1101.41
1125.74
1126.13
1126.49
1129.14
1131.28
1129.63
1122.03
1110.67
1110.19
1117.4
1123.28
1124.1
1122.7
1120.33
1118.61
1117.14
1116.46
1116.04
1115.9
1116.24
1116.78
1118.34
1120.01
1121.67
1122.86
1123.21
1123.18
1123.33
1123.91
1125.08
1120.04
1119.55
1120.45
1121.76
1122.13
1121.67
1120.85
1120.02
1119.69
1120.45
1119.69
1117.18
1116.64
1115.44
1112.78
1110.2
1107.36
1104.01
1103.19
1102.14
1103.1
1104.68
1107.39
1111.16
1114.16
1116.75
1118.51
1119.4
1119.8
1119.84
1121.67
1121.6
1118.93
1117.59
1116.89
1115.78
1114.24
1111.99
1109.62
1106.69
1105.48
1102.59
1102.73
1101.31
1101.78
1101.55
1102.81
1104.49
1107.1
1109.77
1112.89
1115.65
1118.25
1119.16
1119.41
1118.57
1118.95
1118.38
1120.85
1122.96
1125.19
1131.51
1135.89
1138.78
1142.63
1144.53
1140.4
1131.29
1125.23
1124.75
1126.06
1125.02
1122.65
1122.32
1123.84
1126.9
1130.6
1134.05
1137.14
1139.24
1140.6
1140.55
1139.13
1136.84
1134.09
1131.15
1128.97
1127.85
1127.04
1125.7
1112.94
1121.08
1122.29
1121.56
1120.72
1119.36
1118.83
1118.14
1116.64
1113.63
1109.9
1107.27
1106.44
1106.63
1107.98
1109.43
1110.99
1113.53
1113.99
1114.85
1115
1113.89
1112.63
1110.56
1108.75
1107.8
1108.75
1109.16
1105.17
1089.12
1117.31
1133.28
1134.37
1136.91
1135.21
1132.89
1132.52
1133.72
1134.85
1136.95
1137.46
1138.94
1139.16
1140.23
1140.89
1140.5
1139.83
1138.78
1138.47
1136.73
1135.78
1135.59
1134.24
1128.78
1122.48
1120.36
1121.29
1125.65
1131.71
1132.1
1136.54
1136.31
1136.42
1136.44
1135.37
1133.18
1130.4
1125.92
1122.47
1119.41
1117.52
1114.89
1113.75
1113.79
1114.32
1116.88
1119.93
1123.26
1126.88
1129.22
1131.62
1135.89
1139.34
1139.46
1138.06
1136.34
1136.78
1137.58
1138.52
1141.9
1131.4
1137.45
1144.47
1143.89
1139.44
1134.21
1130.02
1126.91
1122.45
1118.21
1114.55
1111.77
1110.04
1109.04
1108.24
1109.02
1111.29
1114.99
1118.77
1123.91
1127.53
1130.61
1132.77
1134.61
1136.44
1138.49
1143.55
1149.94
1151.08
1147.27
1151.19
1155.06
1153.42
1150.76
1148.14
1143.31
1137.34
1130.6
1124.77
1118.37
1114.51
1114.43
1115.7
1121.72
1125.98
1131.8
1135.97
1139.6
1143.22
1145.29
1145.67
1147.74
1150.01
1151.55
1151.82
1151.9
1151.89
1152.08
1152.54
1152.59
1145.21
1145.36
1144.77
1145.77
1147.61
1150.09
1153.08
1156.71
1159.92
1162.8
1164.33
1165.58
1165.33
1166.45
1164.72
1162.94
1161.96
1158.74
1156.58
1152.76
1149.18
1149.23
1148.78
1146.02
1145.02
1144.08
1145.12
1147.79
1150.4
1150.89
1173.83
1167.42
1178.25
1186.25
1196.18
1202.78
1203.14
1201.34
1201.79
1200.63
1200.22
1196.92
1195.43
1193.57
1193.28
1194.33
1196.31
1197.16
1197.07
1194.95
1192.91
1190.93
1183.06
1170.56
1172.63
1187.38
1182.6
1177.73
1179.42
1181.91
1114.68
1124.91
1138.69
1146.64
1148.92
1148.73
1147.73
1141.54
1130.89
1127.13
1132.87
1135.42
1135.08
1145.86
1090.55
1094.41
1105.94
1118.66
1124.44
1122.17
1110.69
1092.91
1083.1
1089.53
1107.54
1110.07
1107.23
1107.84
1108.45
1109.82
1112.63
1116.43
1118.86
1119.51
1118.63
1116.29
1113.63
1111.53
1108.68
1104.66
1101.24
1100.75
1102.58
1101.4
1125.71
1126.46
1127.07
1129.95
1131.58
1126.99
1114.85
1106.65
1113.17
1122.48
1124.39
1123.46
1120.57
1118.35
1117.47
1116.58
1116.1
1115.7
1115.65
1115.72
1116.14
1116.92
1118.65
1120.36
1122.09
1123.25
1123.3
1123.2
1123.69
1124.8
1119.94
1119.62
1121.12
1122.57
1122.83
1122.18
1121.39
1120.32
1119.45
1120.41
1119.27
1117.54
1117.22
1115.34
1112.49
1109.07
1105.4
1102.14
1101.32
1100.3
1100.82
1102.46
1104.83
1108.81
1112.32
1115.36
1117.55
1118.79
1119.41
1119.68
1121.68
1121.3
1118.1
1117.65
1116.84
1115.62
1113.99
1111.45
1108.99
1105.83
1104.2
1101.88
1101.58
1100.79
1100.58
1100.57
1101.65
1102.55
1105.33
1107.9
1111.56
1114.21
1117.17
1119.01
1119.27
1118.99
1119.41
1118.69
1122.18
1125.04
1124.28
1130.1
1135.93
1140.15
1144
1144.55
1140.08
1130.95
1125.13
1124.59
1125.89
1124.45
1121.89
1121.56
1123.78
1127.25
1131.16
1135.3
1139.16
1142.24
1144.09
1144.07
1142.28
1139.13
1135.73
1132.54
1129.29
1127.85
1126.87
1125.33
1113.18
1121.98
1124.89
1125.13
1124.05
1122.06
1120.83
1120.1
1119.2
1116.88
1112.07
1107.94
1106.59
1106.9
1107.78
1109.79
1112.14
1113.67
1115.33
1116.84
1116.8
1115.43
1113.94
1111.46
1109.27
1107.9
1108.43
1109.01
1105.58
1089.16
1117.47
1134.59
1136.9
1138.7
1135.28
1132.78
1132.44
1134.2
1135.59
1137.37
1138.01
1140
1140.34
1141.06
1141.15
1141.44
1141.28
1139.7
1139.31
1137.32
1136.14
1135.63
1134.84
1130.67
1125.22
1123.19
1123.21
1127.17
1132.47
1132.9
1135.69
1135.49
1136.53
1136.97
1135.78
1133.03
1129.68
1125.08
1121.19
1118.41
1114.94
1111.68
1110.62
1110.76
1112.12
1113.7
1117.52
1120.5
1124.79
1128.67
1130.32
1134.42
1138.42
1139.34
1138.17
1136.12
1137.25
1138.01
1138.35
1141.27
1133.5
1142.45
1147.49
1145.04
1139.47
1133.34
1129.37
1125.65
1120.76
1116.47
1113.1
1108.87
1107.16
1105.92
1106.33
1107.35
1109.32
1111.71
1116.41
1121.08
1126.95
1129.43
1131.66
1133.97
1136.39
1138.37
1145.42
1152.16
1151.64
1148.54
1156.54
1155.77
1151.59
1149.78
1146.93
1141.23
1134.35
1127.37
1119.36
1113.24
1108.08
1106.25
1109.09
1114.27
1122.27
1128
1134.03
1137.74
1141.46
1144.26
1145
1147.96
1149.45
1149.77
1149.54
1149.07
1149.04
1149.18
1149.71
1150.83
1145.6
1145.67
1145.49
1146.96
1149.41
1152.33
1155.87
1159.34
1162.79
1164.75
1166.09
1166.97
1166.48
1167.65
1166.5
1164.49
1162.64
1159.61
1157.17
1154.9
1150.42
1149.32
1150.12
1146.57
1145.97
1145.54
1146.44
1148.57
1150.47
1150.8
1175.67
1172.24
1185.98
1194.46
1200.51
1203.88
1203.51
1201.89
1202.02
1199.89
1197.78
1193.59
1191.66
1189.2
1189.13
1190.87
1193.03
1195.89
1197.03
1195.33
1191.8
1190.42
1189.3
1174.6
1162.5
1181.07
1191.24
1186.58
1186.91
1189.38
1117.91
1133.64
1147.32
1150.12
1147.88
1146.66
1147.26
1144.13
1132.67
1127.84
1133.62
1136.38
1137.22
1146.83
1090.36
1092.52
1098.77
1108.13
1112.5
1109.27
1096.97
1083.62
1080.55
1091.15
1108.62
1108.93
1107.11
1107.65
1108.13
1110.25
1114.19
1118.21
1120.2
1120.81
1119.75
1116.85
1113.86
1111.67
1108.66
1104.59
1101.17
1100.67
1102.37
1101.05
1126.18
1127.28
1128.23
1131.1
1131.7
1123.46
1106.65
1106.4
1117.88
1124.11
1124.4
1121.88
1119.81
1118.11
1116.79
1116.67
1115.64
1115.09
1114.8
1115.04
1115.21
1116.04
1117.75
1119.61
1121.44
1123.05
1123.32
1123.3
1123.66
1124.83
1119.97
1119.99
1121.41
1123.03
1123.46
1122.79
1121.86
1120.62
1119.28
1120.31
1119.38
1118.06
1117.73
1115.46
1112.8
1108.81
1104.99
1101.7
1100.61
1099.31
1099.78
1101.44
1103.6
1107.08
1111.36
1114.37
1116.55
1118.23
1119.09
1119.46
1121.38
1119.63
1117.66
1117.51
1116.71
1115.42
1113.95
1111.28
1108.98
1105.15
1103.88
1101.3
1101.45
1099.97
1100.66
1100.16
1100.88
1101.9
1104.33
1106.84
1110.59
1113.68
1116.25
1118.38
1119.02
1119.09
1119.34
1119.21
1123.09
1125.55
1123.64
1128.02
1134.28
1139.56
1142.89
1143.08
1137.51
1129.08
1124.61
1124.85
1125.81
1123.69
1121.78
1121.31
1123.37
1126.87
1131.23
1135.7
1139.82
1142.66
1144.76
1144.94
1143.47
1140.68
1136.79
1133.06
1129.59
1127.47
1126.55
1125.08
1112.24
1122.34
1126.86
1128.84
1128.85
1126.21
1123.41
1122.06
1121.31
1119.46
1114.33
1108.71
1107
1106.84
1107.53
1109.73
1112.24
1113.45
1115.94
1116.88
1117.08
1115.51
1114.14
1111.41
1109.4
1107.82
1108.38
1108.71
1104.52
1086.45
1118.79
1134.84
1140.24
1140.35
1135.48
1132.56
1132.41
1134.51
1135.54
1137.56
1138.49
1140.12
1140.47
1141.5
1141.2
1141.2
1141.6
1139.95
1139.86
1137.79
1136.49
1135.63
1135.24
1132
1127.93
1126.2
1125.99
1130.41
1134.11
1134.04
1135.54
1135.63
1136.21
1137.09
1136.25
1133.3
1129.97
1124.81
1121.09
1118.02
1113.47
1110.78
1109.57
1109.3
1110.74
1112.27
1115.65
1119.66
1123.32
1127.39
1129.9
1133.51
1137.48
1138.98
1137.87
1135.92
1137.26
1138.78
1138.85
1141.17
1138.15
1146.54
1149.15
1146.01
1139.84
1133.14
1129.1
1125.22
1120.01
1115.92
1111.94
1107.82
1106.64
1105.11
1104.86
1106.38
1107.31
1110.82
1114.77
1120.25
1125.01
1128.82
1131.28
1133.73
1135.86
1139.32
1146.89
1152.73
1152.84
1149.43
1158.84
1155.91
1151.42
1149.73
1146.2
1139.61
1132.41
1125.28
1117.4
1109.7
1104.96
1103.51
1104.68
1110.49
1118.9
1125.14
1132.05
1136.18
1140.38
1142.98
1144.81
1147.77
1148.66
1148.47
1148.19
1148.26
1148.02
1147.61
1146.86
1146.73
1145.75
1146.37
1146.31
1148.24
1150.83
1154.04
1157.48
1161.06
1163.78
1165.61
1166.36
1167.34
1166.84
1168.08
1166.61
1165.82
1162.07
1159.7
1156.94
1155.41
1151.48
1149.42
1151.46
1147.8
1146.65
1146.9
1147.85
1149.31
1150.39
1150.25
1178.17
1176.44
1187.58
1199.23
1202.61
1204.43
1203.82
1202.17
1201.75
1198.85
1195.88
1191.63
1189.25
1186.61
1187.33
1188.42
1191.91
1195.08
1196.93
1195.53
1191.26
1188.42
1189.62
1182.85
1158.86
1161.93
1186.73
1190.27
1188.34
1188.8
1121.95
1141.3
1150.65
1147.19
1141.78
1141.88
1144.54
1141.32
1131.94
1129.91
1135.99
1138.34
1140.92
1142.69
1123.37
1102.11
1091
1091.47
1093.65
1098.41
1100.02
1095.57
1086.38
1079.77
1080.58
1095.17
1109.05
1108.36
1107.14
1107.07
1107.73
1110.24
1114.14
1117.4
1119.11
1119.95
1118.37
1115.88
1113.26
1110.96
1107.37
1103.29
1101
1101.26
1102.25
1101.09
1104.22
1120.18
1126.29
1127.74
1129.01
1131.35
1128.42
1111.73
1100.02
1109.01
1121.49
1124.64
1124.33
1121.66
1119.8
1118.37
1117.22
1116.33
1115.92
1114.96
1114.8
1115.01
1115.17
1116.2
1117.4
1119.51
1121.39
1122.87
1123.37
1123.19
1123.53
1124.57
1124.6
1122.39
1120.16
1119.82
1121.38
1123.44
1124.12
1123.52
1122.24
1121.03
1119.32
1120.28
1119.91
1118.53
1118.35
1116.57
1113.44
1109.86
1105.75
1102.35
1100.99
1099.59
1099.84
1101.36
1103.28
1106.78
1110.59
1113.72
1115.93
1117.62
1118.59
1119.14
1122.06
1121.53
1121.24
1118.17
1118.11
1117.86
1116.99
1115.66
1113.97
1111.86
1109.34
1105.74
1103.99
1101.34
1101.22
1099.93
1100.35
1100.11
1100.7
1101.65
1103.96
1106.57
1110.36
1113.13
1115.85
1117.86
1118.79
1119.2
1119.09
1121
1125.32
1126.49
1126.88
1126.8
1123.78
1125.89
1131.03
1136.18
1139.17
1138.09
1133
1126.97
1124.07
1124.85
1126.04
1123.61
1121.57
1121.1
1122.73
1126.22
1130.51
1135.04
1138.83
1142.07
1144.51
1144.6
1143.11
1140.18
1136.91
1132.4
1129.09
1127.29
1125.91
1124.65
1115.26
1109.59
1111.99
1121.81
1128.49
1132.18
1133.7
1131.43
1127.89
1124.89
1122.94
1121.49
1117.68
1110.68
1107.37
1106.88
1107.79
1109.43
1111.67
1112.88
1114.46
1115.89
1115.95
1115.12
1113.17
1110.66
1109.01
1107.91
1108.37
1108.19
1101.25
1088.96
1127.76
1130.34
1124.01
1138.44
1144.18
1142.29
1135.89
1132.55
1132.32
1134.28
1135.5
1137.6
1138.2
1140.2
1140.61
1141.53
1141.64
1141.42
1141.9
1139.76
1139.86
1138.05
1136.43
1135.73
1135.46
1132.98
1130.18
1128.11
1129.24
1134.63
1135.55
1134.84
1134.41
1134.33
1134.58
1134.52
1135.21
1136.61
1136.72
1134.22
1130.13
1125.55
1121.64
1118.17
1113.98
1111.24
1109.62
1109.48
1110.25
1111.68
1115.3
1119.2
1123.11
1126.91
1129.37
1133.01
1136.8
1138.27
1136.93
1135.69
1137.72
1139.41
1139.36
1140.43
1141.8
1143.23
1144.17
1149.71
1149.65
1146.51
1140.63
1133.74
1129.44
1125.54
1120.45
1116.15
1112.31
1108.16
1106.61
1105.27
1104.77
1106.46
1106.94
1110.49
1115.37
1119.23
1125.11
1128.62
1131.34
1133.29
1136.71
1141.48
1149.9
1153.6
1152.66
1152.29
1157.81
1159.75
1159.25
1155.62
1151.41
1149.25
1145.82
1139.19
1131.41
1125.7
1116.62
1109.83
1104.2
1102.69
1104
1110.03
1117.25
1124.92
1130.77
1135.82
1139.72
1142.49
1145.26
1147.75
1148.43
1148.6
1148.99
1149.33
1149.27
1148.56
1147.42
1146.18
1145.71
1145.13
1146.24
1146.72
1146.59
1148.68
1151.62
1154.83
1158.2
1161.6
1163.88
1165.85
1166.78
1167.02
1166.91
1167.68
1165.93
1165
1161.38
1157.89
1156.76
1154.83
1152.34
1149.22
1152.82
1149.37
1147.55
1147.79
1148.66
1149.74
1150.67
1153.22
1171.02
1181.02
1182.19
1182.72
1191.56
1202.16
1203.88
1205.05
1203.93
1202.31
1201.68
1198.28
1195.37
1191.52
1188.48
1186.8
1187.21
1189.14
1191.89
1195.28
1197.33
1195.23
1189.53
1186.07
1188.24
1187.98
1163.03
1144.2
1163.81
1174.91
1180.1
1204.17
1236.57
1243.52
1125.6
1145.93
1149.94
1141.8
1136.99
1139.04
1142.15
1138.78
1132.92
1134.22
1138.79
1141.13
1142.39
1134.37
1110.72
1095.51
1090.7
1091.13
1091.02
1091.35
1090.4
1086.74
1081.48
1079.08
1083.44
1099.51
1109.1
1108.11
1106.84
1106.47
1106.99
1109.33
1112.43
1114.8
1116.44
1116.47
1115.58
1113.64
1111.4
1108.26
1104.96
1101.98
1101.18
1101.45
1101.94
1105.36
1117.08
1123.39
1127.24
1129.05
1130.53
1130.91
1121.63
1098.9
1097.97
1112.55
1122.93
1124.95
1124.35
1122.03
1120.38
1118.89
1118.15
1117
1116.53
1115.87
1115.48
1115.36
1115.76
1117.17
1118.43
1120.17
1121.99
1123.16
1123.34
1123.17
1123.53
1124.59
1125.05
1123.09
1120.83
1120.09
1121.54
1123.52
1124.67
1124.26
1122.75
1121.2
1119.42
1119.91
1120.6
1118.87
1118.99
1117.68
1114.92
1111.18
1107.61
1103.83
1102.34
1100.93
1100.97
1102.19
1104.6
1107.22
1110.74
1113.69
1115.56
1117.1
1118.31
1118.96
1122.22
1121.41
1119.59
1117.67
1118.03
1117.92
1117.41
1116.1
1114.51
1112.68
1110.07
1106.7
1105.23
1101.97
1101.39
1100.12
1100.23
1100.16
1101.22
1102.13
1104.47
1107.08
1110.61
1113.16
1115.7
1117.68
1118.56
1119.14
1118.98
1123.33
1126.06
1126.52
1126.22
1125.77
1124.86
1124.6
1127.23
1130.5
1132.6
1131.35
1127.67
1124.69
1123.99
1124.98
1126.14
1124.03
1121.73
1121.11
1122.04
1125.12
1129.33
1133.36
1136.77
1140.26
1142.76
1142.95
1141.14
1138.85
1135.27
1131.15
1128.29
1126.92
1125.59
1123.02
1112.26
1108.73
1110.96
1120.16
1127.85
1132.55
1134.49
1134
1131.41
1127.63
1124.77
1122.95
1119.98
1112.58
1108.25
1107.14
1107.24
1108.73
1111.07
1112.34
1113.54
1113.5
1113.7
1112.87
1111.5
1109.69
1108.52
1108.1
1108.44
1105.66
1096.92
1099.88
1134.48
1133.32
1130.75
1143.22
1148.11
1145.15
1136.95
1132.73
1132.03
1133.99
1135.29
1136.91
1137.75
1139.43
1140.27
1141.27
1141.62
1141.24
1141.24
1139.48
1139.49
1138.01
1136.38
1135.86
1135.66
1133.7
1131.94
1128.8
1130.44
1135.16
1135.83
1134.99
1134.21
1133.56
1133.76
1133.35
1134
1136.08
1137.3
1135.39
1131.45
1127.07
1122.81
1119.48
1116.18
1112.27
1110.49
1109.99
1111.2
1113.22
1116.23
1119.86
1123.62
1127.13
1129.71
1132.97
1136.28
1137.51
1135.67
1136.22
1138.79
1140.73
1140.22
1140.18
1141.25
1143.63
1148.14
1150.58
1149.09
1146.69
1142.19
1134.82
1130.17
1126.73
1121.73
1117.42
1113.89
1110.9
1108.55
1107.11
1107.06
1107.49
1108.1
1112.77
1115.53
1120.38
1125.6
1129.13
1131.13
1134.26
1137.67
1144.62
1152.19
1153.1
1152.67
1154.48
1161.69
1161.78
1160.89
1158