/*--------------------------------*- C++ -*----------------------------------*\
| =========                 |                                                 |
| \\      /  F ield         | OpenFOAM: The Open Source CFD Toolbox           |
|  \\    /   O peration     | Version:  2.1.1                                 |
|   \\  /    A nd           | Web:      www.OpenFOAM.org                      |
|    \\/     M anipulation  |                                                 |
\*---------------------------------------------------------------------------*/
FoamFile
{
    version     2.0;
    format      ascii;
    class       volScalarField;
    location    "0.007950000";
    object      sL;
}
// * * * * * * * * * * * * * * * * * * * * * * * * * * * * * * * * * * * * * //

dimensions      [0 1 -1 0 0 0 0];

internalField   nonuniform List<scalar> 
12384
(
8.21301
7.87338
7.43987
7.14539
6.93005
6.88385
6.88303
7.01198
7.14987
7.44183
7.78384
8.31236
8.90462
9.68439
3.56813
3.84317
4.29714
4.63371
4.61904
4.54408
4.4917
4.48736
4.45675
4.42718
4.39122
4.34456
4.29191
4.22915
4.15811
4.09315
4.04131
3.99134
3.95385
3.93998
3.91648
3.93959
3.94186
3.9707
3.99839
4.04632
4.01644
3.75115
3.23686
2.85694
2.99326
3.03548
3.08114
3.15061
3.21048
3.32352
3.36954
3.42858
3.44134
3.46856
3.46772
3.46753
3.44218
3.41134
3.36516
3.3174
3.28348
3.24684
3.23512
3.21376
3.21411
3.2056
3.20408
3.18682
3.19549
3.22746
3.26907
3.26014
3.21297
3.20965
3.03323
3.01366
3.01028
3.00502
3.01438
3.02529
3.01935
3.03868
3.04393
3.04989
3.05807
3.04668
3.03747
3.02314
2.95746
2.94472
2.8986
2.81641
2.83429
2.79967
2.80188
2.84788
2.83761
2.84466
2.86857
2.87866
2.89037
2.88145
2.86494
2.84937
3.34147
3.31576
3.31905
3.3178
3.29814
3.2815
3.26425
3.25623
3.19677
3.226
3.09487
3.13906
3.02428
3.06698
3.0106
3.10778
3.09468
3.189
3.22314
3.32867
3.35523
3.12524
2.94712
2.96221
2.95906
2.97909
2.98329
3.00388
3.01828
3.01904
3.02644
3.14971
3.16293
3.09715
3.05209
3.0242
2.98798
3.01029
3.0359
3.03252
3.06219
3.10983
3.13788
3.17645
3.21541
3.23161
3.23645
3.22608
3.204
3.18704
3.17529
3.14863
3.14142
3.15019
3.16159
3.17716
3.18475
3.16584
3.23742
3.29338
2.07752
2.29365
2.32048
2.32432
2.29284
2.28783
2.23102
2.20619
2.1579
2.12166
2.10356
2.09473
2.08434
2.07319
2.05586
2.00346
1.99914
1.96527
1.93844
1.90394
1.90892
1.98141
2.01279
2.11677
2.19041
2.24497
1.84946
1.41072
1.47603
1.50026
2.75916
3.00461
3.04962
3.04467
3.00557
3.00781
3.01724
3.01249
3.00723
2.98588
2.9319
2.90995
2.92121
2.88616
2.88564
2.94376
2.99532
3.06064
3.13795
3.22439
3.23961
2.93504
2.84683
2.84464
2.83731
2.84658
2.84878
2.85026
2.85202
2.82186
2.94756
2.98406
3.02029
3.04008
3.03994
3.02359
2.99587
2.95409
2.92102
2.85588
2.83002
2.80489
2.80984
2.81876
2.86655
2.91894
2.97157
3.01394
3.01365
2.93179
2.8822
2.86736
2.83446
2.79488
2.8112
2.80402
2.82358
2.83644
2.74913
2.64751
2.27205
2.30787
2.3769
2.47381
2.56109
2.6214
2.64305
2.63058
2.59391
2.53388
2.48123
2.45424
2.39098
2.38209
2.3978
2.40162
2.45878
2.52128
2.53658
2.46511
2.40492
2.4067
2.39442
2.39184
2.3869
2.41235
2.43219
2.44201
2.46935
2.48793
3.07905
3.07427
3.07933
3.068
3.06611
3.02021
2.96742
2.87214
2.79027
2.68071
2.63547
2.55985
2.58396
2.58224
2.65019
2.60869
2.23848
2.06953
2.03984
1.98963
1.97457
1.93764
1.93134
1.92979
1.94632
1.96281
1.98758
1.99747
2.01842
2.10842
1.44483
1.44127
1.4421
1.53796
1.61459
1.58356
1.59904
1.60479
1.62099
1.61733
1.64786
1.6288
1.68832
1.65705
1.75658
1.72335
1.84221
1.81239
1.9002
1.89142
1.97072
1.94575
2.04098
2.01957
2.10759
2.09669
2.17363
2.20099
2.22574
2.22155
2.41446
2.34256
2.23153
2.15407
2.09421
2.10285
2.3099
3.33974
3.60164
3.51363
3.35136
3.29684
3.15613
3.14134
3.03657
3.01742
2.93763
2.90967
2.85536
2.84122
2.82606
2.86565
2.9027
2.98942
3.03491
3.10849
3.12728
3.15536
3.14786
2.98061
7.4924
6.82224
6.22316
6.02979
5.98201
6.03587
6.11983
6.25484
6.3615
6.51921
6.79442
7.40298
8.40649
9.55243
3.59405
3.96056
4.48594
4.79655
4.77498
4.76621
4.82293
4.88075
4.90021
4.81229
4.66725
4.51967
4.34741
4.15425
4.0379
3.95511
3.89402
3.85543
3.81861
3.79903
3.78456
3.78473
3.79701
3.82372
3.88327
3.95052
4.0002
3.92763
3.64471
3.28733
3.00927
3.05344
3.16168
3.32205
3.46056
3.53829
3.54557
3.57798
3.58131
3.59135
3.54857
3.49186
3.42748
3.35252
3.29736
3.23773
3.21534
3.19749
3.18185
3.18887
3.18495
3.19397
3.19043
3.18566
3.18326
3.1956
3.23854
3.27023
3.26381
3.23548
3.04764
3.01863
3.0188
3.03065
3.0341
3.04643
3.07448
3.09277
3.11248
3.13042
3.13036
3.1139
3.06893
3.00322
2.95138
2.86569
2.82873
2.79797
2.75817
2.77709
2.77107
2.79683
2.83092
2.84919
2.87317
2.87093
2.89276
2.90443
2.90106
2.89485
3.34171
3.3008
3.29312
3.26493
3.23433
3.27291
3.31946
3.36156
3.34832
3.36566
3.27108
3.2711
3.20694
3.1925
3.1914
3.18674
3.21861
3.23797
3.24379
3.29851
3.36047
3.32508
3.09055
2.95941
2.92716
2.91773
2.91865
2.95456
2.99742
3.03988
3.0601
3.16283
3.13524
3.04198
2.98063
2.95332
2.95808
2.94514
2.95546
3.00356
3.011
3.08269
3.20588
3.28954
3.34937
3.38766
3.40546
3.41585
3.41691
3.40977
3.39155
3.37064
3.33581
3.27853
3.23167
3.20145
3.19247
3.17936
3.18995
3.23705
2.11173
2.32315
2.35582
2.32383
2.29088
2.23684
2.1372
2.06773
1.99523
1.96942
1.96177
1.96027
1.97005
1.96605
1.94996
1.95163
1.94555
1.88383
1.8909
1.88495
1.89043
1.89406
1.95087
1.99821
2.09001
2.17825
2.0853
1.69107
1.46428
1.48793
2.74214
3.00094
3.04112
3.00482
2.98142
2.97707
2.97739
2.97441
2.94985
2.89992
2.88673
2.88435
2.83277
2.83312
2.82502
2.84243
2.89214
2.96187
3.01667
3.09859
3.1965
3.11928
2.90205
2.8164
2.78855
2.79878
2.8275
2.86548
2.89207
2.8875
2.89715
2.92571
3.02081
3.03122
2.99698
2.94313
2.88424
2.82009
2.74967
2.69215
2.65259
2.61416
2.60714
2.61875
2.66275
2.73554
2.81046
2.88472
2.94787
2.97562
2.92454
2.83313
2.76247
2.70527
2.69521
2.68221
2.71958
2.78689
2.84233
2.69937
2.25841
2.27171
2.35616
2.53446
2.67177
2.67905
2.61773
2.51399
2.40084
2.30661
2.23419
2.13342
2.08926
2.07613
2.0936
2.15699
2.21005
2.30053
2.40285
2.45343
2.44897
2.42729
2.40824
2.39775
2.37743
2.36334
2.39392
2.41981
2.46992
2.4797
3.02965
3.03276
3.03381
3.10212
3.06046
2.97327
2.83941
2.70754
2.57279
2.44766
2.37749
2.33917
2.32277
2.39683
2.46679
2.57092
2.49442
2.26549
2.15322
2.09185
2.02689
1.92249
1.87618
1.88148
1.90261
1.91335
1.92909
1.95782
1.99801
2.11132
1.50135
1.50945
1.58229
1.61182
1.60632
1.59933
1.61665
1.63642
1.65064
1.67318
1.71437
1.71423
1.77801
1.7551
1.83155
1.76757
1.85125
1.78718
1.85534
1.83736
1.90936
1.89744
1.96853
1.97487
2.01529
2.03771
2.10665
2.15742
2.20867
2.22801
2.74058
2.41071
2.14824
2.03294
2.02005
2.2859
3.06839
3.61062
3.57595
3.50779
3.40296
3.39854
3.33257
3.31173
3.27725
3.20498
3.14538
3.03182
2.91239
2.77061
2.6803
2.6336
2.6891
2.77196
2.88519
3.00529
3.11773
3.15283
3.12772
2.95155
6.5042
5.92809
5.74173
5.79724
5.906
6.06549
6.19451
6.40585
6.60553
6.72537
6.73993
6.92478
7.78227
9.28479
3.6086
4.04712
4.68715
5.04057
5.10278
5.24154
5.46854
5.55622
5.39416
5.15262
4.92152
4.661
4.34418
4.06824
3.97232
3.92151
3.93379
3.97312
3.9995
3.99913
3.95292
3.89726
3.84338
3.83092
3.82788
3.86959
3.94538
3.97512
3.83543
3.49571
2.99694
3.06825
3.21231
3.39415
3.45523
3.4408
3.39922
3.43725
3.43435
3.41714
3.35257
3.25842
3.19879
3.17352
3.16324
3.15202
3.13939
3.14026
3.14608
3.14538
3.16336
3.17119
3.17909
3.17827
3.1687
3.16772
3.19559
3.23857
3.26923
3.25928
3.03223
3.00557
3.01633
3.02654
3.02416
3.02405
3.04289
3.0734
3.11111
3.12314
3.12532
3.04468
2.95332
2.88184
2.82375
2.74794
2.71959
2.63594
2.645
2.62151
2.66875
2.69993
2.77672
2.80785
2.83883
2.86984
2.88363
2.89235
2.91465
2.90907
3.34069
3.28079
3.25733
3.22075
3.30053
3.39371
3.45719
3.49416
3.46668
3.4691
3.37554
3.39057
3.29581
3.29924
3.25581
3.2967
3.30528
3.28747
3.29661
3.28435
3.32489
3.36771
3.27397
3.05771
2.92653
2.89262
2.9034
2.9202
2.96287
3.02042
3.05723
3.16425
3.12501
3.04896
3.0194
3.00431
3.00903
3.00768
2.95416
2.97636
3.05569
3.16331
3.29683
3.36793
3.38482
3.40106
3.45019
3.50035
3.55367
3.59474
3.61512
3.61403
3.58325
3.49695
3.38353
3.28768
3.22752
3.19386
3.18371
3.21437
2.1325
2.35296
2.36722
2.34476
2.29216
2.25277
2.15177
2.06254
1.98715
1.96114
1.94148
1.9544
1.96734
1.97499
2.00439
1.99727
2.00164
2.01177
2.01678
1.99462
1.98425
2.00073
1.98525
1.99087
2.01712
2.09915
2.13304
1.95452
1.61629
1.47676
2.68108
2.99177
3.04676
2.98429
3.00999
3.0121
2.97772
2.94334
2.90146
2.89805
2.90784
2.85364
2.83059
2.854
2.89298
2.88295
2.88587
2.92187
2.96713
3.0111
3.09816
3.15303
3.02854
2.82253
2.72772
2.73455
2.7605
2.82018
2.8707
2.91328
2.86982
2.97161
3.04185
2.98777
2.91733
2.85266
2.78178
2.71876
2.62886
2.58027
2.53001
2.47619
2.49304
2.50257
2.50956
2.55106
2.64545
2.73827
2.8142
2.88939
2.94637
2.84611
2.75643
2.72066
2.69774
2.66693
2.6197
2.64842
2.81391
2.7558
2.24955
2.24731
2.38881
2.67084
2.75417
2.64
2.46712
2.31274
2.20365
2.11694
1.99881
1.93516
1.92947
1.9028
1.88554
1.92542
1.99306
2.08189
2.20012
2.31679
2.38614
2.41505
2.43012
2.41085
2.3898
2.39796
2.36927
2.41438
2.48129
2.52457
2.99955
2.93043
3.05552
3.10186
3.00754
2.83568
2.66555
2.49935
2.36339
2.23701
2.17354
2.11612
2.15777
2.1481
2.26655
2.37806
2.50214
2.45049
2.35133
2.29893
2.22591
1.9792
1.90478
1.93639
1.98754
2.00724
1.99631
1.97732
1.99792
2.11836
1.62638
1.66231
1.64777
1.61565
1.61201
1.63537
1.67628
1.72508
1.80269
1.87048
1.9819
2.02194
2.13534
2.08669
2.16837
2.05788
2.05153
1.94062
1.92272
1.83641
1.91547
1.8931
1.9734
1.9605
2.00875
1.99208
2.04474
2.11455
2.1772
2.20814
2.81029
2.3033
2.06324
2.07414
2.29828
2.93508
3.53797
3.68544
3.6196
3.60679
3.6549
3.70883
3.74402
3.76887
3.76804
3.71337
3.62339
3.51948
3.33484
3.12298
2.86813
2.67638
2.6089
2.68468
2.77911
2.89481
3.07906
3.12048
3.08722
2.8663
5.68264
5.66912
5.77805
5.93179
6.06923
6.15481
6.15282
6.22925
6.5475
7.0276
7.10871
6.99825
7.43177
9.00015
3.61009
4.06922
4.82564
5.34604
5.54405
5.77973
5.93323
5.72562
5.22647
4.87382
4.77598
4.55087
4.16606
3.98455
3.96972
4.07414
4.24056
4.39253
4.49094
4.50006
4.42186
4.27549
4.12123
3.96574
3.87381
3.8569
3.9011
3.9627
3.9024
3.58825
3.01437
3.08797
3.24951
3.37809
3.35762
3.29683
3.27664
3.30731
3.27204
3.22948
3.14714
3.13646
3.14594
3.1625
3.16839
3.17078
3.16864
3.15956
3.1435
3.16338
3.15183
3.17418
3.17422
3.17966
3.17001
3.15657
3.1676
3.20635
3.25007
3.26365
3.01149
2.99377
3.0045
2.9971
2.96736
2.97445
3.00356
3.05189
3.08471
3.11293
3.07665
2.94795
2.87641
2.81027
2.75926
2.69952
2.62973
2.56952
2.54915
2.51957
2.55613
2.60115
2.67465
2.74228
2.80325
2.84667
2.86513
2.88439
2.90723
2.91354
3.34013
3.26941
3.19331
3.28976
3.42181
3.49361
3.51245
3.51381
3.49518
3.44816
3.43535
3.37822
3.39439
3.34133
3.37024
3.33452
3.34928
3.37279
3.35134
3.3262
3.30834
3.34453
3.35445
3.20627
3.00309
2.92063
2.95626
2.95408
2.98823
3.03239
3.05456
3.16155
3.16081
3.1259
3.15764
3.20298
3.13022
3.04332
2.99081
2.96609
3.05115
3.2463
3.3049
3.2586
3.28018
3.35243
3.47258
3.61889
3.74784
3.8453
3.90315
3.87244
3.81694
3.74288
3.59794
3.43381
3.30338
3.22798
3.18591
3.1984
2.14313
2.38149
2.38871
2.36344
2.34948
2.31342
2.24888
2.16595
2.07511
2.01635
1.9859
1.96939
1.96944
1.9978
2.01704
2.02779
2.11096
2.11899
2.14981
2.15641
2.1793
2.11535
2.09201
2.03688
2.01805
2.04532
2.11032
2.06983
1.78551
1.50691
2.61916
2.95203
3.0359
3.04356
3.06346
3.02278
2.95774
2.89897
2.89244
2.91221
2.86042
2.85127
2.90031
2.89505
2.89647
2.94808
2.94682
2.92507
2.94489
2.96658
3.02325
3.11723
3.08977
2.89183
2.72985
2.69967
2.73562
2.79682
2.84508
2.9073
2.92716
3.04156
3.01347
2.93502
2.86957
2.79821
2.7269
2.63577
2.56008
2.51417
2.4422
2.44602
2.41019
2.4293
2.46582
2.46787
2.50054
2.57496
2.6914
2.78947
2.86792
2.87106
2.77488
2.714
2.73697
2.6921
2.63521
2.58757
2.72322
2.7846
2.25023
2.25962
2.58043
2.8697
2.77935
2.53616
2.32409
2.19173
2.08357
1.96874
1.88819
1.87174
1.81162
1.79058
1.79334
1.79951
1.84737
1.92412
2.0249
2.16079
2.28244
2.37682
2.40966
2.43364
2.44187
2.40147
2.40833
2.39565
2.46301
2.51543
2.9255
2.93903
3.1333
3.07591
2.88288
2.67964
2.48573
2.3118
2.17119
2.08079
2.01056
1.98492
1.93538
2.00299
2.04096
2.19173
2.32904
2.47076
2.4578
2.4281
2.34046
2.0393
1.93061
2.02731
2.10067
2.10493
2.05951
2.0126
2.031
2.14746
1.67637
1.69815
1.64894
1.63247
1.65681
1.71966
1.80185
1.92579
2.06533
2.23338
2.36079
2.47868
2.61834
2.52307
2.58899
2.46661
2.38598
2.20737
2.10631
1.91356
1.92395
1.9238
1.96878
1.96312
1.97995
1.97631
2.00571
2.0737
2.14806
2.18898
2.80544
2.3185
2.30271
2.41061
2.84801
3.42821
3.74563
3.7179
3.77143
3.805
3.97331
3.9805
4.0809
4.03203
3.99573
3.9585
3.90375
3.80281
3.69374
3.49358
3.22766
2.87945
2.64479
2.63914
2.75935
2.76535
2.88512
3.01898
2.94205
2.74475
5.64698
5.81606
5.99766
6.20695
6.46334
6.57936
6.42159
6.0574
6.05767
6.5721
7.2632
7.18271
7.34838
8.76835
3.60713
4.01188
4.83807
5.57007
5.90173
6.11205
5.99549
5.3657
4.61549
4.3499
4.50019
4.32734
4.00934
3.96077
4.12747
4.40809
4.7079
4.95598
5.12305
5.15523
5.05018
4.84823
4.54303
4.25742
4.03831
3.92165
3.89983
3.96003
3.93121
3.63027
2.99237
3.0687
3.20991
3.29638
3.24268
3.17754
3.20848
3.20305
3.14302
3.08316
3.10331
3.15838
3.19213
3.19939
3.20542
3.17931
3.18173
3.1914
3.19992
3.19132
3.20578
3.19329
3.19029
3.18295
3.17662
3.16281
3.15576
3.17829
3.22708
3.25282
2.995
2.9907
2.99065
2.95655
2.93317
2.93502
2.96918
3.01945
3.06945
3.09297
3.0158
2.90092
2.84293
2.79447
2.73836
2.61302
2.58662
2.55846
2.50647
2.53289
2.49907
2.52777
2.57505
2.67848
2.75233
2.79429
2.8472
2.87579
2.89363
2.91014
3.34537
3.25211
3.19175
3.39424
3.48192
3.49445
3.50215
3.48893
3.49268
3.42428
3.51105
3.40254
3.41488
3.40262
3.35048
3.39826
3.40066
3.36445
3.40674
3.35844
3.3363
3.33304
3.37077
3.30239
3.11845
2.96938
3.02568
3.01903
3.02478
3.06442
3.0215
3.16539
3.21271
3.23647
3.32167
3.41754
3.31103
3.07465
2.97563
2.98459
3.0687
3.24592
3.24908
3.14091
3.18739
3.37004
3.59442
3.82026
4.00189
4.12573
4.14663
4.13515
4.06958
3.9658
3.81738
3.60159
3.40076
3.26338
3.18796
3.18576
2.16206
2.40551
2.42812
2.41331
2.43442
2.42017
2.38664
2.3252
2.23495
2.12179
2.02873
1.98032
1.9899
1.99003
2.0108
2.12073
2.16853
2.24174
2.35663
2.3655
2.36191
2.33255
2.23506
2.13266
2.05123
2.02434
2.0755
2.09906
1.88881
1.553
2.55841
2.99141
3.02036
3.13744
3.10571
3.0006
2.91477
2.89507
2.87109
2.87881
2.87004
2.94133
2.9276
2.9029
2.87233
2.87466
2.95362
2.95336
2.96043
2.9526
2.98422
3.06137
3.1044
2.98021
2.77733
2.70488
2.73047
2.78789
2.84099
2.89883
3.0584
3.04979
2.95849
2.89326
2.8424
2.77014
2.67907
2.58242
2.51061
2.43992
2.37256
2.33141
2.30458
2.29715
2.35104
2.4341
2.45597
2.48034
2.55573
2.67701
2.79504
2.86809
2.77354
2.71733
2.7236
2.70816
2.66409
2.56907
2.64923
2.76529
2.23588
2.33754
2.90362
3.04241
2.77038
2.44323
2.2433
2.10769
1.97936
1.87735
1.82542
1.72088
1.62898
1.60923
1.63794
1.69205
1.74181
1.81185
1.92257
2.00767
2.18744
2.29272
2.38574
2.42788
2.4322
2.464
2.44147
2.42702
2.48615
2.57437
2.90995
3.07996
3.15359
2.94342
2.70921
2.52099
2.32929
2.15741
2.04705
1.90906
1.83841
1.75898
1.82747
1.82504
1.93824
2.01348
2.2064
2.34279
2.44929
2.47546
2.41164
2.0495
1.98071
2.09896
2.17354
2.16055
2.12467
2.0993
2.11093
2.17637
1.71552
1.71417
1.66624
1.67357
1.74119
1.84454
1.99238
2.1757
2.39375
2.59081
2.79106
2.87602
2.98874
2.97431
2.89158
2.77994
2.7231
2.45942
2.34597
2.04548
1.95058
1.92757
1.98417
1.94929
1.96077
1.94662
1.9918
2.04685
2.12666
2.17346
2.81603
2.48692
2.68845
2.88186
3.30803
3.69694
3.84011
3.80398
3.94377
4.02569
4.16548
4.18893
4.22627
4.18123
4.19655
4.12801
4.0278
3.93088
3.78056
3.65671
3.47384
3.18293
2.78038
2.58413
2.70749
2.76042
2.67145
2.72998
2.69041
2.63974
6.01759
6.05642
6.39325
7.06943
7.74294
8.01013
7.70258
6.77142
5.97329
6.14373
7.10807
7.34814
7.37483
8.66689
3.5978
3.9065
4.66161
5.57256
6.01963
6.09943
5.719
4.7715
4.00035
3.96446
4.34065
4.12334
3.9413
4.07081
4.39481
4.79812
5.16519
5.48155
5.72842
5.7959
5.69776
5.38035
4.96706
4.54176
4.20333
3.99372
3.92655
3.95614
3.92703
3.61951
3.02616
3.08487
3.20064
3.24884
3.18476
3.18135
3.21096
3.12998
3.05809
3.04834
3.15003
3.20994
3.20702
3.21459
3.21323
3.18303
3.17207
3.169
3.16513
3.17912
3.17026
3.19862
3.19367
3.19479
3.18925
3.1668
3.15545
3.16997
3.20802
3.24354
2.99568
2.96887
2.96234
2.9452
2.9267
2.91519
2.92541
2.98886
3.05072
3.0691
2.98846
2.88068
2.8536
2.8027
2.67734
2.57799
2.58684
2.47692
2.5136
2.45136
2.48642
2.49905
2.52518
2.61648
2.69157
2.75413
2.82299
2.85447
2.87736
2.90013
3.33469
3.22008
3.29257
3.44172
3.45884
3.46049
3.47574
3.46564
3.47744
3.42612
3.54188
3.43072
3.55784
3.47006
3.51898
3.44742
3.46
3.42751
3.43331
3.39968
3.35988
3.33624
3.37127
3.35021
3.20621
3.05229
3.06794
3.05809
3.04079
3.05895
3.00964
3.16387
3.26538
3.33124
3.46645
3.54155
3.41543
3.13839
2.96154
2.96802
3.1067
3.22576
3.12187
3.08565
3.18073
3.42371
3.7118
3.96838
4.18327
4.30113
4.38205
4.38295
4.29289
4.15713
3.98196
3.74646
3.50145
3.30234
3.17883
3.16766
2.15022
2.44833
2.47122
2.49524
2.53285
2.53018
2.5526
2.50381
2.43018
2.28239
2.10019
2.00881
1.97463
1.97442
2.05497
2.13935
2.22301
2.41304
2.44174
2.49791
2.50394
2.42026
2.35656
2.21868
2.09892
2.02356
2.05173
2.07668
1.91572
1.54128
2.55059
3.06815
3.10443
3.21858
3.11873
2.98079
2.89095
2.87406
2.84219
2.92134
2.88799
2.93138
2.87043
2.90869
2.94489
2.9238
2.93603
2.93463
2.99437
2.94196
2.96026
3.02778
3.09282
3.03577
2.85473
2.765
2.76216
2.8037
2.86487
2.90861
3.09815
3.0101
2.93406
2.88035
2.82672
2.7491
2.62448
2.53627
2.47416
2.37707
2.36231
2.34145
2.32207
2.3144
2.27202
2.29612
2.41073
2.46194
2.50394
2.57503
2.70987
2.81135
2.78694
2.72193
2.70934
2.71354
2.67911
2.61037
2.61233
2.75746
2.25896
2.6487
3.24087
3.19413
2.76009
2.39355
2.18544
2.0349
1.91625
1.79857
1.71672
1.65193
1.64471
1.66333
1.59723
1.58093
1.62455
1.74689
1.81053
1.94858
2.07827
2.24632
2.34645
2.39935
2.47895
2.49437
2.49936
2.51454
2.56643
2.5958
3.00237
3.25144
3.10143
2.7976
2.60427
2.39447
2.20621
2.06254
1.91932
1.83597
1.79383
1.82113
1.73077
1.75689
1.75975
1.88748
2.05418
2.22501
2.38553
2.4668
2.41572
2.03841
2.00815
2.14039
2.17845
2.20288
2.20259
2.20743
2.2292
2.22949
1.72973
1.7229
1.6882
1.74006
1.84706
2.00124
2.19437
2.44744
2.68478
2.92651
3.07703
3.2246
3.2227
3.31352
3.12447
2.98538
2.89327
2.62336
2.49959
2.23958
1.98833
1.94879
1.98898
1.95928
1.95891
1.94366
1.9815
2.05147
2.11934
2.15275
2.85674
2.69916
3.06635
3.27941
3.60075
3.82768
3.89974
3.91516
4.09943
4.15873
4.33823
4.28416
4.35633
4.3074
4.28555
4.23621
4.19015
4.05086
3.90245
3.69032
3.52207
3.37931
3.05478
2.5633
2.49835
2.83406
2.73485
2.60225
2.64437
2.68983
6.18067
6.31657
7.40629
8.54825
9.07631
9.19372
9.03426
7.92794
6.38514
6.04047
6.94027
7.46077
7.4704
8.64841
3.60575
3.79285
4.33064
5.20549
5.74431
5.73544
5.15751
4.1492
3.59956
3.80051
4.24712
4.00012
3.92939
4.21899
4.6513
5.0861
5.46091
5.85551
6.13522
6.22563
6.15535
5.82108
5.30103
4.78654
4.34066
4.06405
3.96021
3.98659
3.92234
3.5997
3.01555
3.05768
3.13616
3.15828
3.12331
3.15544
3.12185
2.99675
2.98486
3.1006
3.20817
3.23707
3.22315
3.20184
3.21724
3.20794
3.20547
3.20696
3.22004
3.21558
3.22088
3.21363
3.21835
3.19097
3.18836
3.17588
3.15686
3.15013
3.18849
3.22273
2.97835
2.94496
2.96831
2.94879
2.90807
2.89744
2.90692
2.95905
3.01789
3.06801
2.97502
2.89012
2.88274
2.7775
2.66204
2.57548
2.5367
2.45152
2.50963
2.46105
2.47639
2.49727
2.50051
2.56501
2.64176
2.72872
2.78534
2.8294
2.85567
2.8897
3.31315
3.20402
3.38601
3.40596
3.41444
3.41795
3.44292
3.43092
3.46905
3.44595
3.5438
3.50644
3.62841
3.60301
3.57329
3.52425
3.53066
3.44783
3.4656
3.41482
3.41423
3.34265
3.37556
3.36323
3.26711
3.12172
3.12432
3.10824
3.0745
3.08068
2.96868
3.12785
3.27753
3.39483
3.53416
3.55794
3.39499
3.13127
2.97554
2.95744
3.10721
3.21467
3.04814
3.01495
3.17893
3.44722
3.74153
4.04805
4.3147
4.51294
4.64004
4.62559
4.49188
4.27712
4.09296
3.85175
3.54245
3.33269
3.18038
3.14274
2.17189
2.48375
2.57127
2.6179
2.6472
2.65364
2.66908
2.67314
2.63414
2.47441
2.21279
2.03421
1.97384
1.99315
2.03602
2.14815
2.3149
2.42446
2.54685
2.64708
2.64314
2.5376
2.44254
2.27989
2.13287
2.03179
2.03064
2.06086
1.91426
1.54674
2.55559
3.12953
3.22932
3.29446
3.11372
2.97356
2.86466
2.87276
2.86604
2.91378
2.87188
2.93038
2.86375
2.85706
2.85015
2.89896
2.95437
2.92435
3.0149
2.93708
2.94949
2.99775
3.07322
3.06229
2.93654
2.85535
2.82253
2.85421
2.90668
2.92798
3.03385
2.958
2.92551
2.8996
2.8344
2.72849
2.59031
2.52025
2.42468
2.36637
2.35357
2.29149
2.29046
2.30074
2.32205
2.27524
2.32333
2.37169
2.46514
2.54658
2.62629
2.75961
2.7812
2.70963
2.71417
2.70979
2.69532
2.63163
2.5901
2.72395
2.38437
3.06503
3.53576
3.30792
2.7704
2.3512
2.16118
1.99892
1.86022
1.7596
1.72018
1.59612
1.62728
1.62614
1.65236
1.65897
1.65532
1.6375
1.77911
1.87545
2.0447
2.18537
2.30854
2.41015
2.47404
2.4926
2.57224
2.60874
2.60475
2.66908
3.3435
3.24659
2.92706
2.68069
2.51171
2.31901
2.09942
1.9877
1.79675
1.77929
1.76305
1.70582
1.74723
1.66435
1.70071
1.80139
1.94449
2.14036
2.31718
2.42581
2.37839
2.011
2.0221
2.10971
2.14069
2.13076
2.13039
2.12118
2.12068
2.1516
1.75268
1.74376
1.73456
1.81668
1.9591
2.14789
2.39036
2.64199
2.9251
3.11885
3.30347
3.4217
3.38724
3.49732
3.31644
3.12268
2.96155
2.68812
2.52931
2.3889
2.07697
1.9459
2.03081
1.96258
1.9702
1.97018
1.99151
2.06432
2.11762
2.15015
2.91717
2.86124
3.32899
3.56993
3.76227
3.90239
3.97423
4.01871
4.20588
4.27105
4.39197
4.36421
4.45149
4.40947
4.36687
4.31738
4.17302
4.08324
3.94496
3.74445
3.49274
3.36316
3.26495
2.75235
2.29053
2.66077
2.86652
2.77584
2.75302
2.75985
6.23416
6.92041
8.63427
9.28535
9.24772
9.23936
9.27989
8.59226
6.69921
6.11573
7.06953
7.56803
7.61485
8.72209
3.58745
3.72971
3.95126
4.58618
5.02059
4.98156
4.35882
3.64611
3.45395
3.80772
4.15241
3.92256
3.99402
4.35945
4.80822
5.20446
5.58797
5.97556
6.21151
6.33125
6.27757
5.90786
5.34221
4.78868
4.35106
4.09961
3.99115
3.9878
3.85896
3.54911
3.04975
3.07549
3.13084
3.14461
3.15533
3.17007
3.04817
2.96287
3.0409
3.18094
3.24229
3.22232
3.23259
3.23011
3.18031
3.24609
3.20294
3.1932
3.18475
3.20937
3.18392
3.19897
3.2256
3.20246
3.18164
3.18656
3.1534
3.15877
3.18629
3.22137
2.96569
2.96546
2.97051
2.93915
2.90919
2.89352
2.90411
2.92921
3.00142
3.0666
2.97982
2.91643
2.90384
2.77462
2.67339
2.55756
2.5179
2.45864
2.51508
2.45228
2.46438
2.50329
2.49482
2.5367
2.62911
2.70078
2.75285
2.80777
2.84146
2.87341
3.25743
3.20674
3.33246
3.33644
3.36218
3.37343
3.39308
3.38376
3.46783
3.41043
3.56793
3.53993
3.7265
3.65627
3.71912
3.60959
3.58151
3.50871
3.48339
3.44362
3.4413
3.37379
3.36518
3.38076
3.30337
3.1765
3.1617
3.11315
3.04741
3.03918
2.95189
3.07147
3.24365
3.39312
3.49404
3.50946
3.32336
3.07089
2.96171
2.97464
3.0985
3.16545
3.04278
2.98878
3.14308
3.40352
3.73694
4.07803
4.36755
4.50655
4.63382
4.65084
4.55912
4.39691
4.15423
3.89374
3.56779
3.3044
3.17361
3.13553
2.13299
2.50672
2.63676
2.73983
2.79082
2.75269
2.73311
2.76249
2.77701
2.65296
2.33858
2.0577
1.99069
1.98965
2.01522
2.13817
2.3287
2.40319
2.60825
2.65119
2.67196
2.54929
2.46068
2.27691
2.14179
2.01996
2.0234
2.04055
1.87013
1.46037
2.60609
3.12814
3.36769
3.35467
3.12107
2.95691
2.85153
2.88478
2.83817
2.89328
2.87672
2.9012
2.80581
2.81517
2.75679
2.79335
2.90486
2.88675
3.02031
2.94303
2.94966
2.97581
3.06456
3.07915
3.00707
2.94566
2.89103
2.93158
2.98069
2.98476
3.03983
3.00636
2.95866
2.90656
2.84395
2.71929
2.5905
2.48963
2.42404
2.36851
2.31235
2.31954
2.31061
2.27886
2.3284
2.29938
2.31751
2.38506
2.41468
2.50548
2.61605
2.7251
2.77594
2.72356
2.73297
2.71068
2.69569
2.66782
2.61221
2.73885
2.69247
3.45351
3.70932
3.40881
2.80628
2.34476
2.14758
1.98823
1.83429
1.76694
1.68934
1.60172
1.65592
1.61284
1.59817
1.67474
1.60651
1.64493
1.74527
1.90155
1.99878
2.17405
2.31059
2.41546
2.46598
2.57438
2.61849
2.65844
2.6985
2.71177
3.40637
3.2284
2.89041
2.65166
2.45694
2.24074
2.03973
1.89159
1.77888
1.77918
1.73508
1.72603
1.66628
1.67382
1.70759
1.72864
1.90224
2.07261
2.2684
2.38663
2.29862
1.99817
2.06439
2.16479
2.19015
2.19349
2.16064
2.11061
2.03368
1.98199
1.77121
1.79288
1.78959
1.89664
2.05927
2.26941
2.51446
2.7881
3.02516
3.22677
3.35391
3.5082
3.45555
3.56336
3.35732
3.25471
2.9077
2.7008
2.49923
2.41144
2.16625
1.96392
2.05981
1.99682
1.9869
2.00742
2.04315
2.08251
2.12299
2.11793
2.99095
2.98038
3.3934
3.74182
3.85175
3.94709
4.03531
4.08276
4.259
4.31982
4.40452
4.4285
4.52216
4.3912
4.43796
4.27556
4.21019
4.08084
3.92817
3.73986
3.48509
3.27868
3.23777
3.01331
2.21644
2.17979
2.76512
2.79031
2.72676
2.74498
6.3659
7.75197
9.21337
9.08154
8.58477
8.77245
9.08504
8.27012
6.6875
6.4822
7.4316
7.76994
7.97703
8.09416
5.81177
4.19317
3.62656
3.69418
3.74164
3.99142
4.22497
4.13547
3.69859
3.39304
3.43812
3.88836
4.04871
3.89077
4.06118
4.41751
4.84025
5.18799
5.52819
5.81653
6.01566
6.20001
6.0517
5.66535
5.12707
4.65638
4.28865
4.09686
4.04388
3.98172
3.77655
3.46469
3.10824
3.08855
3.05368
3.07232
3.09919
3.12237
3.13602
3.10196
2.94189
2.93707
3.07465
3.21909
3.25726
3.24728
3.23117
3.23614
3.21272
3.20332
3.23349
3.19
3.19987
3.21497
3.18639
3.2165
3.1985
3.20606
3.18484
3.1716
3.15709
3.1462
3.1736
3.19376
3.17225
3.09228
2.98091
2.93484
2.95509
2.95425
2.93133
2.91442
2.90256
2.92933
2.97957
3.08069
3.00208
2.94478
2.93027
2.82094
2.6852
2.55028
2.5196
2.45875
2.50539
2.45187
2.46103
2.50449
2.48195
2.53817
2.58521
2.67987
2.72718
2.77557
2.81038
2.85409
3.14039
3.21917
3.23299
3.25028
3.27694
3.26944
3.2894
3.31944
3.33411
3.35817
3.43163
3.41318
3.54945
3.53822
3.72519
3.68625
3.7427
3.64994
3.60543
3.533
3.49111
3.46852
3.45882
3.37001
3.38088
3.37757
3.32484
3.22033
3.21688
3.12817
3.07007
3.03162
3.03254
3.00797
2.94471
3.00236
3.15275
3.29637
3.38283
3.33822
3.19598
3.01483
2.93301
2.978
3.11179
3.14802
3.02683
2.97286
3.08702
3.34766
3.67408
4.03204
4.27872
4.45034
4.62198
4.62084
4.50146
4.36058
4.17266
3.81359
3.51716
3.28296
3.13201
3.13046
2.56534
2.14704
2.14783
2.50022
2.72823
2.88104
2.97953
2.91455
2.83829
2.82224
2.83472
2.80958
2.55255
2.16386
2.01084
1.98582
2.04195
2.12705
2.28692
2.36582
2.48515
2.58674
2.59412
2.53445
2.39069
2.22554
2.11205
2.01493
2.01692
2.00792
1.78673
1.52052
2.86263
3.00279
2.77165
3.31038
3.49396
3.42307
3.12888
2.95576
2.85473
2.86474
2.82852
2.90132
2.85584
2.89881
2.81584
2.81586
2.79088
2.80276
2.91242
2.86302
3.01384
2.95716
2.93238
2.97637
3.0652
3.09399
3.05378
2.99913
2.93571
3.02281
3.0656
3.03941
3.01111
3.00852
3.01409
3.01316
2.97737
2.90345
2.85217
2.74908
2.60407
2.49683
2.43727
2.3466
2.30901
2.34107
2.31106
2.30097
2.29708
2.29446
2.31089
2.37526
2.42125
2.49175
2.58369
2.70653
2.76931
2.74134
2.74012
2.71201
2.70674
2.70109
2.61998
2.69166
2.84711
3.11924
3.23613
3.7791
3.76768
3.45803
2.91064
2.37724
2.16705
1.99526
1.85932
1.77391
1.69342
1.59395
1.64431
1.61518
1.58424
1.67476
1.58144
1.66039
1.81471
1.84713
2.02573
2.17727
2.31579
2.39743
2.54679
2.61562
2.68547
2.76965
2.78626
2.89951
3.26586
3.34338
3.32808
3.12992
2.86423
2.58828
2.41944
2.20918
1.97559
1.89984
1.73518
1.75379
1.67677
1.66791
1.63911
1.70675
1.67423
1.74413
1.85442
2.05846
2.23091
2.35272
2.20737
2.02266
2.14702
2.23396
2.24843
2.24566
2.2378
2.18592
2.08101
1.92096
1.80977
1.72152
1.79301
1.81379
1.80872
1.92769
2.10772
2.32087
2.56261
2.82738
3.03999
3.25319
3.38714
3.45515
3.4511
3.49858
3.28993
3.17676
2.83235
2.55481
2.48886
2.35316
2.23246
1.98161
2.09762
2.02423
2.01532
2.01158
2.05568
2.09201
2.12216
2.23041
2.71433
3.06552
3.11502
3.20923
3.54249
3.86085
3.90228
3.99708
4.04612
4.10806
4.28286
4.31272
4.37364
4.46016
4.44523
4.41295
4.39924
4.30982
4.1669
4.0607
3.9317
3.68388
3.35615
3.17222
3.18841
3.14997
2.35534
1.7456
2.19958
2.45213
2.60457
3.13722
3.55898
3.64194
6.58161
8.38128
9.19742
8.34229
7.98529
8.42426
8.7099
7.92883
6.961
7.18912
7.80505
8.00609
8.0356
6.90102
4.73298
3.82909
3.62906
3.69675
3.63421
3.63415
3.668
3.5556
3.3939
3.33822
3.5247
3.93981
3.96614
3.88359
4.0627
4.3941
4.76201
5.06914
5.33043
5.47666
5.62287
5.63485
5.50424
5.17368
4.78835
4.44563
4.2307
4.10777
4.03999
3.865
3.56045
3.26629
3.14766
3.09116
3.08055
3.09504
3.12443
3.1491
3.14841
3.02707
2.94272
2.96926
3.11661
3.24845
3.26186
3.24985
3.24206
3.2171
3.23834
3.20384
3.21305
3.20696
3.18122
3.16539
3.16861
3.2197
3.19487
3.18527
3.18802
3.16107
3.15837
3.15231
3.17754
3.20588
3.19469
3.12593
3.02822
2.95139
2.98218
2.9799
2.971
2.95226
2.92034
2.91816
2.95475
3.06683
3.04893
2.96547
2.97142
2.87342
2.74563
2.58174
2.53143
2.44445
2.48081
2.44305
2.45648
2.49454
2.52129
2.50872
2.58726
2.68058
2.70885
2.76211
2.80112
2.84963
3.16002
3.22915
3.15787
3.15623
3.12075
3.12992
3.20482
3.26215
3.28311
3.34804
3.39005
3.36733
3.5441
3.47462
3.62494
3.62713
3.66687
3.60759
3.61207
3.52608
3.49379
3.47691
3.45366
3.37043
3.38562
3.38397
3.32224
3.26836
3.19363
3.08531
3.05446
2.99928
2.97621
2.95292
2.96822
2.96311
3.03928
3.13243
3.19161
3.13476
3.03405
2.96198
2.93906
2.97846
3.10565
3.16344
3.03262
2.97403
3.03278
3.25434
3.5789
3.89664
4.12801
4.35599
4.52111
4.51993
4.39262
4.28912
4.04343
3.70385
3.43265
3.24197
3.12916
3.05908
2.36156
2.08805
2.1174
2.45098
2.71886
2.89545
3.00366
3.00984
2.93759
2.83683
2.83598
2.87347
2.71539
2.2541
2.06263
2.0085
2.00747
2.08544
2.241
2.34376
2.43636
2.41678
2.43046
2.36996
2.28902
2.15434
2.0741
2.01726
2.02127
1.9154
1.68676
1.79459
3.14895
3.10352
2.99772
3.48745
3.62682
3.50197
3.1851
2.97668
2.85486
2.86354
2.83394
2.86817
2.8512
2.88684
2.84336
2.84967
2.84404
2.84809
2.90495
2.87059
3.00636
2.96977
2.93502
2.99247
3.07949
3.10547
3.0929
2.98827
2.94501
3.03696
3.08778
3.07269
3.04997
3.02632
3.0658
3.04872
3.01909
2.9882
2.89786
2.78666
2.64792
2.52112
2.44613
2.37287
2.32352
2.28164
2.27987
2.26887
2.31704
2.34721
2.30499
2.38768
2.44265
2.51022
2.61304
2.70648
2.76685
2.77841
2.7345
2.718
2.72503
2.73426
2.66149
2.66896
2.77296
3.13825
3.62899
3.86478
3.70235
3.47635
3.06041
2.44965
2.20315
2.03535
1.90218
1.80779
1.74092
1.67593
1.68862
1.67499
1.68508
1.67342
1.60041
1.77402
1.76945
1.91611
2.05535
2.21873
2.31416
2.47138
2.59284
2.66213