/*--------------------------------*- C++ -*----------------------------------*\
| =========                 |                                                 |
| \\      /  F ield         | OpenFOAM: The Open Source CFD Toolbox           |
|  \\    /   O peration     | Version:  2.1.1                                 |
|   \\  /    A nd           | Web:      www.OpenFOAM.org                      |
|    \\/     M anipulation  |                                                 |
\*---------------------------------------------------------------------------*/
FoamFile
{
    version     2.0;
    format      ascii;
    class       volVectorField;
    location    "0.007950000";
    object      U;
}
// * * * * * * * * * * * * * * * * * * * * * * * * * * * * * * * * * * * * * //

dimensions      [0 1 -1 0 0 0 0];

internalField   nonuniform List<vector> 
12384
(
(-0.146539 1.30742 0)
(1.89033 -0.220642 0)
(5.62888 -1.19723 0)
(10.1822 -1.43413 0)
(14.5663 -1.47137 0)
(18.2753 -1.00012 0)
(20.8671 -0.667501 0)
(21.8458 0.398811 0)
(21.2456 0.834278 0)
(18.9919 1.61946 0)
(15.7535 2.00377 0)
(11.2525 2.2758 0)
(6.83061 2.48622 0)
(2.14185 2.16794 0)
(-4.75443 3.55683 0)
(-15.9918 5.37904 0)
(-29.8932 6.39529 0)
(-45.3362 7.19317 0)
(-59.9184 5.77837 0)
(-70.536 4.46666 0)
(-77.4789 1.01873 0)
(-79.1168 -0.121316 0)
(-75.876 -3.56866 0)
(-68.386 -4.96243 0)
(-56.1191 -6.79814 0)
(-41.266 -8.0915 0)
(-23.4862 -9.37347 0)
(-3.38608 -10.3488 0)
(18.4552 -10.5274 0)
(40.0909 -10.0406 0)
(59.9402 -8.54117 0)
(76.729 -6.43224 0)
(88.3066 -3.90339 0)
(95.3719 -1.01959 0)
(96.0022 1.92554 0)
(90.1648 5.38 0)
(79.5528 7.31581 0)
(63.7965 9.82124 0)
(45.8187 10.232 0)
(27.1945 9.60295 0)
(11.5592 7.82926 0)
(0.281164 5.16783 0)
(-4.72544 0.888987 0)
(-5.58319 -3.42259 0)
(-6.82415 6.43206 0)
(-22.2072 8.58549 0)
(-38.7835 7.71507 0)
(-51.1883 5.758 0)
(-57.7576 1.06459 0)
(-58.0376 0.325639 0)
(-52.2849 -4.73282 0)
(-39.5262 -7.08976 0)
(-23.2274 -8.47865 0)
(-5.55658 -9.35898 0)
(14.3415 -10.3662 0)
(35.6074 -11.2891 0)
(58.0575 -11.8405 0)
(80.6871 -11.1774 0)
(101.37 -10.9068 0)
(119.23 -7.84024 0)
(132.768 -7.37539 0)
(140.684 -3.25658 0)
(144.551 0.671304 0)
(139.76 1.81169 0)
(128.864 7.28952 0)
(112.227 8.48074 0)
(90.8823 11.332 0)
(66.724 11.2863 0)
(43.3104 10.5669 0)
(22.9015 8.52884 0)
(7.02819 5.98303 0)
(-2.7471 1.79789 0)
(-6.13326 -1.64435 0)
(-5.30929 -7.15243 0)
(-8.02928 8.41724 0)
(-27.6879 11.4001 0)
(-50.5697 11.7159 0)
(-70.2612 9.40779 0)
(-84.3642 5.26094 0)
(-88.9848 0.327802 0)
(-84.946 -3.28772 0)
(-75.1832 -6.26239 0)
(-60.5103 -7.92512 0)
(-42.8949 -9.36107 0)
(-22.8443 -10.5679 0)
(0.752168 -12.1541 0)
(26.9033 -14.2233 0)
(56.4303 -15.0646 0)
(88.2052 -15.2251 0)
(116.265 -14.1881 0)
(141.956 -10.3281 0)
(161.393 -7.39983 0)
(170.104 -2.61172 0)
(168.03 3.42566 0)
(156.232 8.85022 0)
(136.072 12.8314 0)
(105.935 15.8014 0)
(72.8089 15.9048 0)
(43.1739 13.7971 0)
(17.9728 10.4586 0)
(0.00118184 6.2325 0)
(-9.13119 0.481261 0)
(-10.4516 -1.83425 0)
(-5.64582 -7.83905 0)
(-6.47545 6.06746 0)
(-15.2227 3.76038 0)
(-18.7035 0.292943 0)
(-13.6848 -5.13908 0)
(1.2762 -10.4477 0)
(25.8506 -14.9819 0)
(58.1976 -18.3703 0)
(96.5173 -20.3902 0)
(134.601 -20.0873 0)
(171.26 -17.2813 0)
(205.82 -16.8257 0)
(229.099 -8.49185 0)
(249.307 -8.67161 0)
(253.085 1.73467 0)
(247.375 4.36963 0)
(226.679 15.0877 0)
(193.975 18.2614 0)
(149.145 24.556 0)
(99.9921 24.458 0)
(54.2097 21.3163 0)
(16.4696 15.8284 0)
(-11.0413 10.7682 0)
(-28.311 5.57524 0)
(-36.5898 1.5275 0)
(-38.6226 -1.46531 0)
(-38.6299 -2.10809 0)
(-32.3396 -5.30942 0)
(-22.1597 -6.47531 0)
(-11.1263 -5.99397 0)
(-3.0205 -3.93865 0)
(-7.52022 7.67279 0)
(-26.0002 11.296 0)
(-49.6527 13.1786 0)
(-73.8224 12.4762 0)
(-92.8884 8.59906 0)
(-103.28 3.61386 0)
(-106.209 -0.0119011 0)
(-100.691 -3.52883 0)
(-88.805 -6.85523 0)
(-74.554 -8.21992 0)
(-57.1638 -8.76175 0)
(-36.7637 -10.5859 0)
(-14.3676 -12.0815 0)
(11.2304 -13.443 0)
(39.688 -14.8625 0)
(70.0713 -14.9106 0)
(99.9007 -13.954 0)
(127.101 -11.9164 0)
(149.265 -8.6585 0)
(163.809 -4.58298 0)
(169.632 0.282301 0)
(164.43 6.77934 0)
(146.643 12.7805 0)
(118.883 17.3087 0)
(83.97 18.876 0)
(48.296 16.9652 0)
(18.3777 12.875 0)
(-1.38523 6.23481 0)
(-8.55389 -1.27235 0)
(-6.61886 -9.04351 0)
(-9.30379 9.89472 0)
(-28.2966 10.8191 0)
(-47.5431 9.24148 0)
(-62.2014 7.39165 0)
(-71.4645 3.17416 0)
(-73.892 1.1233 0)
(-71.8108 -2.2048 0)
(-64.6545 -4.93534 0)
(-51.5917 -7.96308 0)
(-34.5877 -10.4999 0)
(-11.8202 -13.4437 0)
(16.077 -16.313 0)
(48.6415 -18.8038 0)
(84.5399 -20.0474 0)
(121.952 -19.9828 0)
(158.305 -17.2857 0)
(189.765 -16.8911 0)
(214.07 -10.4999 0)
(231.634 -7.01899 0)
(239.855 -0.103138 0)
(232.107 2.67155 0)
(214.148 13.3444 0)
(185.44 16.1582 0)
(143.347 23.4544 0)
(96.3066 23.9453 0)
(50.4889 20.5619 0)
(14.0773 14.3227 0)
(-7.38817 5.49845 0)
(-13.5251 -1.89471 0)
(-7.52992 -12.4382 0)
(-9.10847 10.0252 0)
(-22.8077 6.96488 0)
(-30.2339 3.02189 0)
(-31.5261 1.49397 0)
(-24.6215 -5.67535 0)
(-5.61289 -11.1684 0)
(23.3743 -15.7551 0)
(58.7605 -18.7083 0)
(97.9699 -20.1646 0)
(138.159 -19.0804 0)
(176.405 -16.1187 0)
(207.339 -13.1073 0)
(230.459 -8.57894 0)
(245.048 -4.31072 0)
(248.137 3.33827 0)
(239.078 9.15214 0)
(215.564 16.0268 0)
(179.3 22.5069 0)
(133.803 26.2424 0)
(85.4953 24.3848 0)
(42.5881 19.3557 0)
(11.1928 12.6144 0)
(-7.58631 6.76118 0)
(-15.0122 1.3829 0)
(-17.3895 -1.13704 0)
(-15.0709 -2.55311 0)
(-9.65377 -3.50771 0)
(-4.04931 -2.2409 0)
(0.0713965 -1.13371 0)
(0.854377 0.963959 0)
(-9.07218 9.62485 0)
(-15.9829 2.08404 0)
(-15.0563 0.131355 0)
(-4.84251 -7.37317 0)
(16.8861 -13.1527 0)
(47.8545 -17.1476 0)
(84.9851 -19.6628 0)
(124.038 -20.0345 0)
(162.692 -18.6927 0)
(195.849 -15.9909 0)
(222.099 -10.3662 0)
(239.53 -7.15257 0)
(243.049 0.200992 0)
(234.897 8.38935 0)
(211.878 15.9895 0)
(174.592 22.9507 0)
(126.76 26.5101 0)
(76.5309 24.742 0)
(32.4446 20.1796 0)
(-0.628279 13.9906 0)
(-21.8394 7.77106 0)
(-32.6633 2.54863 0)
(-34.654 1.00736 0)
(-34.471 -0.552739 0)
(-30.3766 -3.34291 0)
(-21.2246 -4.17181 0)
(-12.081 -3.29445 0)
(-4.48593 -1.75177 0)
(-0.493387 0.64913 0)
(0.0249583 1.3522 0)
(-11.2539 12.5678 0)
(-26.1534 7.88173 0)
(-32.2766 2.88193 0)
(-29.7952 -1.3237 0)
(-18.3625 -7.23648 0)
(3.10259 -12.343 0)
(33.3454 -16.4946 0)
(70.2912 -19.8753 0)
(110.577 -20.8383 0)
(152.03 -20.1512 0)
(188.896 -17.0013 0)
(217.993 -14.0461 0)
(238.135 -6.80177 0)
(246.321 -1.14026 0)
(239.098 6.7341 0)
(216.032 16.1586 0)
(178.33 23.8132 0)
(129.357 26.8417 0)
(77.7842 24.8487 0)
(33.0741 20.2295 0)
(-0.779588 13.9587 0)
(-21.7259 7.20994 0)
(-29.4127 -0.396103 0)
(-28.6906 -3.13005 0)
(-23.6065 -8.04395 0)
(-14.029 -5.62681 0)
(-3.94149 -5.25175 0)
(1.61874 -1.35285 0)
(3.25685 0.399381 0)
(2.2353 3.51212 0)
(-20.2082 19.4768 0)
(-45.195 10.7592 0)
(-53.7373 0.399035 0)
(-42.8786 -9.13813 0)
(-16.9393 -16.1375 0)
(21.1526 -21.0551 0)
(65.0109 -22.3921 0)
(109.096 -21.745 0)
(148.518 -17.1016 0)
(176.511 -11.4259 0)
(192.103 -1.56872 0)
(187.691 5.18744 0)
(162.861 18.0357 0)
(125.396 21.8266 0)
(77.8332 24.0967 0)
(31.0274 20.6718 0)
(-8.62359 17.0607 0)
(-36.6443 9.24446 0)
(-50.4978 1.63803 0)
(-51.8952 -1.71266 0)
(-42.5038 -9.93441 0)
(-23.0839 -12.328 0)
(-2.25856 -10.7819 0)
(14.3823 -7.76188 0)
(25.2486 -4.56513 0)
(30.4501 -0.809739 0)
(31.2707 0.435247 0)
(28.3519 3.30742 0)
(20.1806 5.55749 0)
(8.14158 7.78784 0)
(5.09068 -6.1021 0)
(8.84847 0.453399 0)
(7.95418 2.44915 0)
(1.29398 5.9289 0)
(-10.8739 8.73755 0)
(-27.7356 10.3335 0)
(-47.8812 12.29 0)
(-69.6845 12.0359 0)
(-90.3544 12.2584 0)
(-108.319 8.19637 0)
(-119.438 7.56691 0)
(-126.298 1.32542 0)
(-123.597 1.75126 0)
(-117.411 -5.77766 0)
(-102.758 -5.03644 0)
(-85.3312 -10.4563 0)
(-63.058 -9.50533 0)
(-40.0379 -12.4251 0)
(-16.244 -10.1265 0)
(5.92246 -11.9052 0)
(26.7307 -8.87878 0)
(46.8014 -11.1469 0)
(64.706 -7.72003 0)
(80.2618 -7.89032 0)
(87.334 -0.53328 0)
(87.9146 2.24333 0)
(75.0591 8.90754 0)
(55.8164 12.322 0)
(31.7133 12.7273 0)
(10.0754 10.6755 0)
(4.44111 -7.25594 0)
(13.0002 -7.11109 0)
(19.9566 -5.10639 0)
(23.2967 -2.70885 0)
(19.854 -0.133395 0)
(12.4097 3.51401 0)
(-0.231108 5.45904 0)
(-17.5232 9.29866 0)
(-42.5776 11.8259 0)
(-71.3741 15.0106 0)
(-103.261 14.3704 0)
(-133.195 14.2064 0)
(-157.205 7.24215 0)
(-170.582 5.56095 0)
(-173.661 -2.97236 0)
(-167.594 -4.02004 0)
(-153.011 -9.73402 0)
(-132.42 -11.0388 0)
(-106.589 -13.1818 0)
(-79.2162 -12.7669 0)
(-51.7887 -12.2723 0)
(-26.9766 -9.65392 0)
(-5.85647 -7.81081 0)
(9.75941 -4.98626 0)
(20.792 -2.43782 0)
(26.8852 0.206447 0)
(28.2307 2.57618 0)
(24.7554 4.78223 0)
(17.4681 6.78715 0)
(6.70106 8.84038 0)
(0.68596 1.6411 0)
(4.39743 -1.82613 0)
(9.19468 -4.34853 0)
(14.781 -4.73163 0)
(19.8849 -4.69691 0)
(24.0261 -3.20631 0)
(26.8364 -1.64562 0)
(27.6095 1.20696 0)
(26.8247 2.95093 0)
(23.8945 5.10422 0)
(20.2266 6.53267 0)
(14.6501 7.46996 0)
(8.98549 8.2187 0)
(2.95542 7.31089 0)
(-6.57612 12.6072 0)
(-20.2142 16.9301 0)
(-34.673 18.8849 0)
(-48.0984 18.9183 0)
(-59.054 14.9234 0)
(-66.284 9.8649 0)
(-69.9815 1.95096 0)
(-69.3198 -2.59505 0)
(-63.6003 -10.9058 0)
(-54.6032 -16.0485 0)
(-42.0572 -20.5703 0)
(-26.1283 -24.4237 0)
(-7.45638 -28.2608 0)
(13.4434 -30.8696 0)
(35.4864 -31.4017 0)
(57.1259 -29.5066 0)
(76.5707 -25.0068 0)
(92.6083 -18.4434 0)
(103.998 -11.0054 0)
(110.472 -2.81633 0)
(111.382 5.70214 0)
(106.384 14.3813 0)
(97.9559 21.1924 0)
(85.5241 27.2473 0)
(69.399 29.5674 0)
(52.0028 29.0835 0)
(34.6818 24.9728 0)
(19.475 18.0102 0)
(8.39271 9.11407 0)
(1.47971 -0.497923 0)
(-8.13841 21.8215 0)
(-24.5393 25.5736 0)
(-38.9093 22.1237 0)
(-46.7694 14.1303 0)
(-49.5247 1.28282 0)
(-44.7825 -4.16352 0)
(-34.2464 -15.3405 0)
(-20.69 -21.64 0)
(-4.07345 -24.9156 0)
(13.4309 -28.1337 0)
(33.6686 -31.0305 0)
(55.5135 -33.9547 0)
(79.1803 -35.4607 0)
(102.719 -33.9969 0)
(124.562 -32.2882 0)
(143.238 -24.624 0)
(157.289 -19.941 0)
(167.181 -10.9026 0)
(169.337 -1.54822 0)
(166.169 6.55957 0)
(158.786 17.6319 0)
(145.765 24.2904 0)
(129.152 31.0956 0)
(108.243 33.1742 0)
(84.7673 32.7114 0)
(60.8508 28.3531 0)
(38.6857 21.7327 0)
(20.4105 13.0074 0)
(7.07795 3.65744 0)
(0.17631 -7.29462 0)
(-12.7496 29.4888 0)
(-37.4859 35.686 0)
(-60.6062 33.5684 0)
(-77.1029 24.7633 0)
(-85.39 11.7434 0)
(-86.5047 -0.404064 0)
(-81.4685 -10.7321 0)
(-70.7107 -18.5502 0)
(-55.9747 -24.0062 0)
(-38.1458 -28.0809 0)
(-16.9124 -31.9144 0)
(7.56633 -37.3664 0)
(36.3982 -43.0123 0)
(68.2065 -45.8213 0)
(101.031 -46.394 0)
(133.096 -41.6395 0)
(158.903 -33.952 0)
(179.721 -21.9638 0)
(193.349 -9.06789 0)
(195.715 5.61692 0)
(188.901 21.4834 0)
(173.273 34.4544 0)
(151.222 43.275 0)
(122.916 46.9934 0)
(91.9356 43.0276 0)
(61.2225 34.7524 0)
(35.6806 23.736 0)
(16.5915 10.3102 0)
(4.65833 1.56332 0)
(-0.207728 -10.5602 0)
(-4.73522 15.4142 0)
(-8.61149 6.78725 0)
(-5.92993 -3.98053 0)
(4.78143 -18.3924 0)
(23.9891 -32.7288 0)
(51.3314 -45.6276 0)
(84.4336 -54.373 0)
(122.768 -59.4414 0)
(160.216 -57.7266 0)
(197.557 -51.405 0)
(230.662 -44.0359 0)
(254.564 -27.9612 0)
(274.574 -16.7275 0)
(277.459 0.404579 0)
(274.944 15.0763 0)
(264.613 35.8844 0)
(241.019 48.5852 0)
(211.48 65.9134 0)
(172.618 68.7791 0)
(126.95 66.6525 0)
(80.0481 53.7899 0)
(38.7685 39.9206 0)
(6.29465 24.1691 0)
(-15.4786 12.7193 0)
(-27.5836 2.65676 0)
(-32.4926 -3.19535 0)
(-30.0226 -12.88 0)
(-22.7326 -17.8599 0)
(-12.8697 -17.5124 0)
(-3.90766 -12.53 0)
(-10.52 26.0078 0)
(-32.302 34.4034 0)
(-54.3672 36.6625 0)
(-72.5014 31.7503 0)
(-84.264 20.943 0)
(-88.5774 7.85249 0)
(-86.2328 -2.7913 0)
(-79.2301 -11.9122 0)
(-68.3317 -18.6487 0)
(-53.184 -23.3479 0)
(-37.8729 -25.7281 0)
(-20.7077 -29.3456 0)
(0.646646 -34.7341 0)
(24.3768 -39.2566 0)
(51.5108 -42.6417 0)
(81.0188 -43.7121 0)
(110.557 -41.3623 0)
(137.824 -35.462 0)
(160.686 -25.9735 0)
(176.854 -13.9289 0)
(184.532 1.09156 0)
(183.331 16.07 0)
(174.038 31.6411 0)
(155.963 45.1301 0)
(130.178 52.2464 0)
(98.4077 51.0535 0)
(65.1696 41.9379 0)
(35.9633 26.8456 0)
(14.3605 9.44515 0)
(1.70019 -6.17907 0)
(-11.7604 31.61 0)
(-32.481 31.927 0)
(-49.4216 26.0775 0)
(-60.3974 18.2551 0)
(-66.2353 8.55056 0)
(-66.2678 1.30052 0)
(-62.8454 -6.56126 0)
(-55.0547 -14.2072 0)
(-42.911 -22.6256 0)
(-27.3341 -30.6684 0)
(-5.66771 -39.0538 0)
(21.1829 -47.7175 0)
(52.7739 -54.8793 0)
(87.8491 -57.984 0)
(124.501 -58.1348 0)
(158.006 -52.4035 0)
(189.117 -46.5823 0)
(214.573 -32.2963 0)
(230.097 -19.8681 0)
(237.569 -3.13038 0)
(236.203 9.88178 0)
(226.032 29.26 0)
(203.799 44.3657 0)
(177.019 60.4798 0)
(141.031 66.396 0)
(100.137 62.2425 0)
(60.5632 47.3834 0)
(28.296 26.3446 0)
(8.72005 7.05411 0)
(0.0656528 -10.6652 0)
(-7.59539 27.3311 0)
(-17.4476 17.8624 0)
(-21.2854 6.29597 0)
(-17.0305 -2.04148 0)
(-3.91135 -19.8438 0)
(17.6707 -34.4684 0)
(47.2484 -46.6764 0)
(83.0397 -54.8678 0)
(122.117 -57.5642 0)
(161.525 -54.6885 0)
(196.946 -48.7289 0)
(227.308 -38.7409 0)
(251.639 -23.9695 0)
(265.801 -9.31329 0)
(268.028 7.34741 0)
(260.399 25.2999 0)
(245.283 42.69 0)
(220.832 58.7439 0)
(187.068 70.3583 0)
(145.721 72.0388 0)
(100.968 61.9822 0)
(58.6403 45.4381 0)
(25.4627 27.5598 0)
(3.61972 12.5941 0)
(-9.18811 3.57232 0)
(-13.8599 -2.96896 0)
(-11.9237 -8.60996 0)
(-7.49368 -6.92385 0)
(-3.11256 -4.12128 0)
(-0.640492 0.447576 0)
(-2.14825 20.1016 0)
(-1.99666 3.46063 0)
(4.80397 -5.34575 0)
(20.3345 -23.3118 0)
(43.7708 -38.5489 0)
(74.4543 -50.1484 0)
(110.181 -56.8252 0)
(148.076 -58.348 0)
(185.063 -53.6214 0)
(218.031 -46.28 0)
(242.611 -31.9244 0)
(259.68 -17.6072 0)
(268.831 0.883341 0)
(264.262 20.9812 0)
(250.337 41.1965 0)
(226.875 59.1445 0)
(192.559 71.8061 0)
(148.421 74.2048 0)
(99.8236 65.2536 0)
(55.04 50.1711 0)
(18.9817 31.7221 0)
(-6.74885 15.3816 0)
(-21.335 8.85147 0)
(-28.9601 2.28911 0)
(-29.2627 -5.95994 0)
(-23.2567 -11.2469 0)
(-14.7177 -9.90021 0)
(-6.27974 -5.7551 0)
(-1.708 0.952721 0)
(0.0325854 4.21173 0)
(-6.30882 31.0298 0)
(-13.0923 18.2828 0)
(-13.5629 4.03293 0)
(-5.95653 -7.85643 0)
(9.9104 -23.3219 0)
(33.6777 -37.3105 0)
(64.8623 -49.4235 0)
(102.027 -57.5669 0)
(142.426 -60.8105 0)
(182.122 -58.8667 0)
(218.052 -50.669 0)
(248.195 -37.8209 0)
(268.053 -21.1612 0)
(276.604 -3.32896 0)
(276.885 17.6905 0)
(266.018 39.1168 0)
(242.674 59.5345 0)
(208.483 72.9268 0)
(164.224 74.4329 0)
(114.148 65.7746 0)
(67.4513 50.3297 0)
(30.1935 31.4328 0)
(3.80422 12.1421 0)
(-9.98247 1.99053 0)
(-14.2243 -8.01467 0)
(-12.8868 -14.2813 0)
(-5.65122 -12.4933 0)
(0.520548 -6.49201 0)
(2.56442 -1.62149 0)
(3.31276 3.55935 0)
(-8.46278 43.9959 0)
(-16.0666 22.0452 0)
(-13.4295 -3.88478 0)
(3.08796 -28.4387 0)
(31.6614 -47.5044 0)
(69.4357 -60.4701 0)
(112.305 -65.0638 0)
(154.438 -61.4702 0)
(192.319 -49.1927 0)
(220.57 -31.3934 0)
(235.75 -7.9521 0)
(240.239 17.6286 0)
(226.808 43.6219 0)
(197.139 61.988 0)
(155.096 72.3372 0)
(101.777 68.249 0)
(50.5001 57.5507 0)
(7.43603 37.4493 0)
(-21.6401 14.1116 0)
(-35.4567 -1.32034 0)
(-34.0735 -22.3978 0)
(-23.1645 -29.2141 0)
(-9.66795 -26.9401 0)
(1.76076 -19.5528 0)
(10.9086 -12.2784 0)
(16.4345 -3.97437 0)
(18.924 0.513513 0)
(18.1149 7.70565 0)
(13.7392 13.7963 0)
(5.89663 20.6645 0)
(0.162719 -5.2604 0)
(-3.76351 5.38265 0)
(-11.6152 10.855 0)
(-24.0421 20.2899 0)
(-40.8312 27.5961 0)
(-60.0814 32.3177 0)
(-81.09 35.5678 0)
(-100.602 34.7486 0)
(-117.905 31.6656 0)
(-131.698 24.8338 0)
(-139.603 17.8582 0)
(-144.911 6.11204 0)
(-141.318 -0.277699 0)
(-134.758 -13.8901 0)
(-118.56 -17.7452 0)
(-101.417 -28.6703 0)
(-77.1124 -29.7066 0)
(-52.8491 -35.9372 0)
(-28.6511 -31.1785 0)
(-5.30284 -33.87 0)
(15.2889 -27.8297 0)
(35.2681 -30.1881 0)
(52.6332 -24.4536 0)
(69.8038 -20.9618 0)
(79.7848 -4.97063 0)
(82.4064 6.52984 0)
(74.2158 23.5204 0)
(59.2516 34.6432 0)
(36.8619 38.481 0)
(12.9303 34.3554 0)
(2.92536 -19.1494 0)
(8.44371 -18.0234 0)
(11.4353 -12.1131 0)
(9.99013 -3.69384 0)
(0.695859 4.64721 0)
(-13.4449 14.6505 0)
(-34.7957 21.2307 0)
(-63.9261 33.2017 0)
(-96.6206 37.8337 0)
(-129.503 45.6296 0)
(-158.94 39.3272 0)
(-182.147 37.8911 0)
(-198.073 19.6964 0)
(-208.308 12.7607 0)
(-206.811 -6.76263 0)
(-199.199 -15.3936 0)
(-183.55 -27.309 0)
(-160.96 -33.636 0)
(-135.154 -38.0379 0)
(-107.436 -38.3132 0)
(-80.3297 -36.0102 0)
(-54.8732 -29.8084 0)
(-33.7232 -23.1668 0)
(-16.9491 -15.4579 0)
(-4.77726 -7.95171 0)
(4.0731 -1.92604 0)
(8.84595 4.60104 0)
(10.3828 10.7313 0)
(8.52057 17.0081 0)
(3.59431 21.7103 0)
(1.89269 0.249602 0)
(7.09422 -4.8254 0)
(12.8511 -8.69317 0)
(19.3625 -8.66467 0)
(24.6902 -8.20014 0)
(29.0148 -5.58198 0)
(31.5635 -2.42524 0)
(32.0866 2.05943 0)
(30.8863 5.53517 0)
(27.2381 8.91559 0)
(22.8593 11.9392 0)
(16.5917 13.2804 0)
(10.1424 14.8806 0)
(3.34087 13.6957 0)
(-6.26989 23.3562 0)
(-18.7047 28.3918 0)
(-31.2823 29.8498 0)
(-41.9744 28.1811 0)
(-50.2901 21.1028 0)
(-55.1134 12.6407 0)
(-56.8196 1.50031 0)
(-54.9508 -7.31851 0)
(-49.3133 -18.6811 0)
(-39.9879 -27.6183 0)
(-27.4079 -35.1065 0)
(-12.3123 -41.0959 0)
(6.01943 -47.4462 0)
(26.5621 -51.7419 0)
(47.746 -52.1801 0)
(68.1387 -48.4752 0)
(86.2234 -41.0236 0)
(100.904 -30.0489 0)
(110.897 -17.7543 0)
(115.554 -3.86766 0)
(114.885 9.11268 0)
(110.679 22.3303 0)
(102.515 33.6644 0)
(90.7236 42.2304 0)
(77.14 47.608 0)
(61.5242 48.2094 0)
(44.99 43.5737 0)
(29.0673 34.5954 0)
(14.9768 22.2841 0)
(4.20119 7.97124 0)
(-8.336 37.6307 0)
(-22.1165 39.8568 0)
(-32.9722 32.547 0)
(-38.1776 18.0488 0)
(-37.1654 -0.219354 0)
(-29.7779 -13.0554 0)
(-18.2995 -26.6893 0)
(-4.78638 -36.4068 0)
(10.6119 -40.6034 0)
(27.1823 -46.6115 0)
(46.8753 -51.5211 0)
(68.7619 -56.8215 0)
(92.6828 -59.795 0)
(116.378 -57.3596 0)
(138.385 -53.2282 0)
(157.036 -42.2963 0)
(169.725 -31.3652 0)
(177.369 -17.999 0)
(181.265 -3.22707 0)
(178.156 11.4442 0)
(169.958 25.7312 0)
(159.041 37.2893 0)
(143.896 47.1113 0)
(126.321 52.9479 0)
(105.662 54.4341 0)
(82.959 50.8047 0)
(59.8756 42.381 0)
(38.098 30.4222 0)
(19.4797 16.2298 0)
(5.65945 -1.5822 0)
(-13.4485 55.7845 0)
(-38.012 60.8191 0)
(-58.6768 52.7762 0)
(-72.5472 36.3113 0)
(-79.3256 15.7058 0)
(-79.6727 -2.65252 0)
(-74.005 -18.4353 0)
(-63.4184 -30.9419 0)
(-49.2809 -39.9249 0)
(-31.825 -46.3112 0)
(-11.6664 -53.8564 0)
(12.6443 -63.3697 0)
(41.4514 -72.8657 0)
(72.7131 -78.2776 0)
(105.908 -78.4554 0)
(136.972 -70.5222 0)
(164.696 -59.7907 0)
(187.151 -37.1343 0)
(199.848 -18.4549 0)
(204.957 6.95115 0)
(200.906 29.1707 0)
(188.328 50.9831 0)
(170 66.2205 0)
(145.684 74.8188 0)
(116.948 72.8809 0)
(87.9484 63.587 0)
(59.8849 47.9666 0)
(35.1692 28.6792 0)
(16.7017 12.4167 0)
(4.54354 -6.09435 0)
(-4.70862 21.3603 0)
(-3.74914 5.36658 0)
(1.75722 -12.6039 0)
(14.671 -35.0858 0)
(34.9081 -57.0368 0)
(61.8522 -76.6783 0)
(93.4824 -89.772 0)
(129.507 -96.4756 0)
(163.539 -94.3274 0)
(197.732 -84.7449 0)
(226.617 -70.992 0)
(248.371 -49.1931 0)
(266.371 -29.0451 0)
(273.255 -3.38014 0)
(274.189 20.8195 0)
(262.245 47.7021 0)
(249.942 71.5663 0)
(227.745 93.2576 0)
(198.844 106.623 0)
(163.746 110.178 0)
(121.176 98.9082 0)
(78.7739 79.3679 0)
(39.7854 54.4901 0)
(10.2491 32.7974 0)
(-9.23782 14.0895 0)
(-19.8066 -0.581373 0)
(-22.1169 -17.1456 0)
(-18.4837 -27.0448 0)
(-11.3538 -28.0319 0)
(-3.64276 -21.688 0)
(-9.54749 46.4853 0)
(-27.9308 55.4946 0)
(-44.8586 55.3405 0)
(-57.5661 45.0728 0)
(-65.132 27.7791 0)
(-67.5476 9.39024 0)
(-65.0548 -6.20719 0)
(-58.0308 -20.98 0)
(-49.4963 -29.6755 0)
(-38.5717 -35.4917 0)
(-25.1953 -40.7058 0)
(-11.6387 -46.5804 0)
(5.10867 -54.6023 0)
(26.6626 -63.8698 0)
(51.6242 -70.3316 0)
(78.7453 -72.0782 0)
(106.568 -68.6927 0)
(132.721 -59.1352 0)
(154.833 -44.3186 0)
(171.222 -25.1623 0)
(180.105 -2.53833 0)
(181.057 19.9258 0)
(175.6 43.2978 0)
(163.201 64.4489 0)
(143.929 78.9688 0)
(119.023 82.563 0)
(89.425 73.9701 0)
(58.6327 55.0434 0)
(30.7201 30.8983 0)
(9.18666 6.03314 0)
(-11.1253 54.6519 0)
(-29.8421 51.1567 0)
(-44.6053 40.2648 0)
(-53.3215 26.2217 0)
(-57.7621 12.1048 0)
(-57.3663 0.262411 0)
(-53.6919 -11.6172 0)
(-47.6572 -22.7307 0)
(-36.8768 -35.8627 0)
(-22.731 -49.4158 0)
(-3.37545 -63.5593 0)
(20.7679 -77.7537 0)
(50.1035 -88.9697 0)
(82.1943 -94.2218 0)
(114.984 -95.574 0)
(146.906 -84.9369 0)
(175.765 -73.896 0)
(197.478 -54.5502 0)
(211.618 -32.9107 0)
(221.725 -6.80896 0)
(220.506 16.433 0)
(211.657 41.1957 0)
(197.718 65.3535 0)
(175.715 86.0545 0)
(149.515 99.9993 0)
(117.499 99.5864 0)
(82.1461 84.3901 0)
(48.7547 55.9959 0)
(22.3516 25.7528 0)
(5.80103 -2.21756 0)
(-5.36722 40.6066 0)
(-11.628 26.1732 0)
(-12.3803 6.59982 0)
(-5.39697 -10.1348 0)
(10.0823 -35.8926 0)
(32.5229 -59.2251 0)
(61.2069 -77.8165 0)
(95.6131 -89.8971 0)
(132.783 -93.892 0)
(167.514 -90.7793 0)
(199.291 -80.1383 0)
(228.059 -60.5943 0)
(248.734 -39.1349 0)
(260.615 -14.902 0)
(265.595 8.68094 0)
(261.127 34.8425 0)
(247.585 62.1626 0)
(228.692 86.4083 0)
(203.304 105.281 0)
(170.237 113.977 0)
(131.056 107.821 0)
(89.0832 87.117 0)
(50.5927 59.5626 0)
(21.4517 34.014 0)
(1.61708 14.9879 0)
(-7.64598 0.465292 0)
(-9.34267 -11.2328 0)
(-6.77757 -11.2803 0)
(-3.22598 -7.98501 0)
(-0.948137 -0.497577 0)
(0.171601 22.8777 0)
(3.5951 1.46875 0)
(13.0748 -16.4801 0)
(30.155 -41.6651 0)
(53.1246 -64.2624 0)
(82.2409 -81.9707 0)
(115.41 -92.2575 0)
(150.662 -94.8018 0)
(184.206 -87.2264 0)
(214.014 -74.8408 0)
(239.897 -54.1421 0)
(255.301 -29.3691 0)
(261.12 -2.17495 0)
(260.699 26.1426 0)
(251.829 56.2434 0)
(235.856 84.9668 0)
(212.675 106.968 0)
(180.455 117.79 0)
(139.834 113.813 0)
(95.5055 95.1267 0)
(53.97 68.2299 0)
(20.1803 41.6 0)
(-4.05514 24.9779 0)
(-18.1922 9.88454 0)
(-22.7568 -5.15754 0)
(-19.4708 -16.868 0)
(-12.3745 -15.5946 0)
(-5.22396 -10.0249 0)
(-0.912874 1.18311 0)
(0.524062 6.67588 0)
(-1.20046 40.5592 0)
(-1.85223 22.6845 0)
(1.77221 2.14753 0)
(11.8194 -18.3883 0)
(28.2865 -41.152 0)
(51.9393 -63.4814 0)
(82.02 -82.3573 0)
(117.703 -95.4328 0)
(155.539 -100.746 0)
(192.415 -96.771 0)
(226.478 -81.8489 0)
(253.471 -63.027 0)
(271.73 -39.1242 0)
(281.244 -10.3998 0)
(279.087 21.7593 0)
(271.542 53.0885 0)
(257.821 82.1033 0)
(234.661 106.469 0)
(202.705 118.627 0)
(162.677 114.301 0)
(117.629 96.1391 0)
(74.4299 67.9607 0)
(40.199 38.4445 0)
(16.0118 15.8511 0)
(1.81894 -3.75955 0)
(-1.21311 -16.5184 0)
(-1.58737 -17.6394 0)
(0.331883 -9.69975 0)
(1.26974 -2.16508 0)
(0.468689 5.62032 0)
(-1.52739 52.7788 0)
(2.62206 20.6462 0)
(14.3449 -17.8324 0)
(35.1735 -52.1671 0)
(64.6447 -80.8878 0)
(100.571 -99.3084 0)
(139.978 -106.01 0)
(178.532 -98.9228 0)
(212.613 -80.2067 0)
(238.935 -52.6155 0)
(254.972 -17.2871 0)
(255.345 20.7533 0)
(246.836 59.3803 0)
(229.474 94.9695 0)
(195.217 116.469 0)
(152.062 120.529 0)
(102.372 105.592 0)
(55.3487 76.8968 0)
(16.8971 38.5503 0)
(-6.43128 7.04348 0)
(-14.7775 -26.584 0)
(-15.4133 -38.1219 0)
(-12.5762 -36.3522 0)
(-7.95034 -27.6122 0)
(-3.4747 -17.7987 0)
(0.999614 -7.92678 0)
(4.33009 -0.660158 0)
(5.99356 8.84272 0)
(5.96824 17.4521 0)
(3.13131 28.7496 0)
(-3.75871 0.677599 0)
(-12.9896 15.5769 0)
(-25.5282 25.4589 0)
(-41.6731 38.3752 0)
(-59.7697 47.8817 0)
(-78.5472 54.617 0)
(-96.7618 57.1198 0)
(-114.343 54.8061 0)
(-129.001 48.5734 0)
(-141.873 38.5038 0)
(-149.364 26.4117 0)
(-154.051 9.02631 0)
(-149.792 -3.9627 0)
(-144.92 -21.6523 0)
(-127.371 -33.1446 0)
(-109.925 -47.9861 0)
(-86.4288 -50.7862 0)
(-61.2159 -60.047 0)
(-37.3689 -53.4073 0)
(-14.784 -55.1136 0)
(5.39725 -47.1223 0)
(23.5049 -48.3919 0)
(39.4891 -42.0355 0)
(54.7668 -34.3882 0)
(63.7577 -12.7317 0)
(67.314 9.22058 0)
(61.2147 34.3853 0)
(50.0831 52.9908 0)
(32.0821 61.951 0)
(11.4501 59.9205 0)
(0.910354 -27.6606 0)
(2.16632 -25.372 0)
(0.997359 -15.5757 0)
(-5.11119 -0.411837 0)
(-18.0945 13.509 0)
(-37.1217 32.1732 0)
(-63.4157 44.5021 0)
(-94.9234 63.8767 0)
(-126.687 66.4197 0)
(-157.238 75.5061 0)
(-182.264 60.7153 0)
(-202.695 53.6246 0)
(-214.7 30.3968 0)
(-221.51 11.8224 0)
(-223.76 -8.35307 0)
(-213.704 -28.8441 0)
(-198.177 -45.2348 0)
(-176.322 -57.7129 0)
(-150.629 -64.1395 0)
(-123.188 -64.7328 0)
(-96.19 -59.4581 0)
(-72.1438 -50.7373 0)
(-51.0292 -38.6148 0)
(-35.5116 -27.0459 0)
(-23.2259 -14.5532 0)
(-14.1471 -6.88196 0)
(-7.89166 4.35294 0)
(-3.30762 13.5902 0)
(-1.91081 21.6972 0)
(-1.11332 27.3866 0)
(3.05404 -2.89991 0)
(9.65943 -9.32012 0)
(16.6525 -13.7649 0)
(23.3369 -13.1027 0)
(29.0758 -11.9197 0)
(33.3701 -7.58911 0)
(35.4951 -3.05034 0)
(35.4254 3.47624 0)
(33.7697 8.73926 0)
(29.8479 13.264 0)
(24.3328 18.1345 0)
(17.6821 19.715 0)
(10.5023 21.9252 0)
(3.47123 20.6107 0)
(-5.10078 32.2754 0)
(-14.8539 37.6645 0)
(-24.2359 38.0695 0)
(-32.449 34.7116 0)
(-38.329 25.0717 0)
(-41.5624 13.8881 0)
(-42.3484 0.141501 0)
(-39.8249 -12.0862 0)
(-34.3738 -26.5576 0)
(-26.5543 -37.9321 0)
(-15.2993 -48.4028 0)
(-1.41377 -57.4171 0)
(15.1478 -65.5803 0)
(33.9886 -70.9981 0)
(53.2502 -71.2272 0)
(71.1411 -65.515 0)
(86.7755 -55.2183 0)
(98.9321 -40.4372 0)
(107.059 -23.2454 0)
(110.917 -3.87956 0)
(110.547 13.5191 0)
(105.556 30.0233 0)
(97.2186 44.0789 0)
(87.0956 55.4371 0)
(74.7145 62.5111 0)
(61.2015 64.6456 0)
(46.7075 60.9683 0)
(31.616 51.1271 0)
(17.2375 36.4365 0)
(5.29071 19.2159 0)
(-6.06974 52.8009 0)
(-16.4648 52.3349 0)
(-23.322 40.248 0)
(-24.6284 20.2753 0)
(-22.0385 -3.08967 0)
(-14.4539 -21.5161 0)
(-4.59901 -36.7423 0)
(6.8338 -48.7217 0)
(19.5491 -54.2134 0)
(34.5524 -63.3772 0)
(52.9349 -71.5836 0)
(74.4942 -79.4908 0)
(98.4466 -84.1059 0)
(121.614 -79.8197 0)
(142.185 -73.5808 0)
(159.157 -58.6296 0)
(171.375 -43.068 0)
(178.997 -23.2356 0)
(178.316 -4.25362 0)
(174.247 14.4751 0)
(168.079 31.9236 0)
(156.686 48.5452 0)
(144.578 61.2899 0)
(129.033 70.0335 0)
(111.19 73.5566 0)
(91.2261 71.6053 0)
(69.8582 63.5056 0)
(48.2983 50.5257 0)
(27.3513 33.6609 0)
(8.63851 11.9881 0)
(-12.0374 81.1182 0)
(-33.9422 83.1789 0)
(-52.2863 68.9889 0)
(-64.0616 45.7601 0)
(-69.7954 19.5659 0)
(-69.8555 -5.05596 0)
(-64.973 -26.1805 0)
(-55.7725 -42.6242 0)
(-42.9351 -53.9599 0)
(-27.8627 -63.5785 0)
(-9.79901 -73.9653 0)
(12.0597 -87.8169 0)
(37.8888 -101.82 0)
(67.014 -108.923 0)
(97.8737 -110.637 0)
(126.505 -99.6143 0)
(154.154 -83.6064 0)
(176.431 -57.9411 0)
(190.528 -27.8685 0)
(198.671 4.29779 0)
(195.849 35.8156 0)
(186.79 64.9005 0)
(170.919 85.5423 0)
(150.765 98.2593 0)
(125.988 100.151 0)
(99.5416 91.4908 0)
(72.2368 73.7375 0)
(47.1209 51.1971 0)
(25.427 29.5932 0)
(7.87747 5.85886 0)
(-2.19631 24.6939 0)
(-1.62868 1.82795 0)
(4.50226 -22.9828 0)
(16.7821 -52.1698 0)
(35.051 -80.2656 0)
(59.2703 -105.36 0)
(87.929 -122.414 0)
(119.147 -129.564 0)
(149.68 -127.921 0)
(179.013 -112.557 0)
(205.716 -96.3023 0)
(223.545 -64.9824 0)
(238.602 -38.5005 0)
(249.47 -6.86434 0)
(249.737 24.5857 0)
(246.848 56.5808 0)
(232.901 86.294 0)
(218.109 114.279 0)
(198.004 133.101 0)
(171.007 144.112 0)
(138.474 137.719 0)
(100.778 118.362 0)
(63.7076 89.0483 0)
(32.0467 58.8118 0)
(8.28194 30.8902 0)
(-6.72526 6.94795 0)
(-12.9187 -17.2004 0)
(-12.6025 -32.9335 0)
(-8.2601 -36.3178 0)
(-2.78747 -30.3971 0)
(-6.43446 63.1356 0)
(-18.8168 71.5299 0)
(-30.3291 68.5643 0)
(-39.3072 53.946 0)
(-44.6209 32.6216 0)
(-45.9407 9.79132 0)
(-44.8019 -9.29532 0)
(-40.5413 -26.4618 0)
(-33.5242 -38.5607 0)
(-26.7919 -45.4348 0)
(-18.5696 -50.6048 0)
(-7.76562 -60.3458 0)
(4.80098 -72.2037 0)
(21.9076 -84.6026 0)
(44.099 -95.3214 0)
(68.6445 -98.7827 0)
(93.909 -94.3616 0)
(118.106 -82.0549 0)
(138.638 -62.4394 0)
(153.607 -37.5546 0)
(162.992 -8.87434 0)
(166.67 22.1492 0)
(162.993 52.0892 0)
(153.789 78.8052 0)
(138.702 98.8348 0)
(118.261 108.096 0)
(93.6757 103.108 0)
(65.9114 84.4104 0)
(37.5893 57.4738 0)
(11.9524 27.5035 0)
(-9.60744 74.299 0)
(-25.501 67.9579 0)
(-37.4281 52.1149 0)
(-45.0248 33.2425 0)
(-48.728 15.1261 0)
(-49.2098 -0.144662 0)
(-46.2747 -15.5096 0)
(-40.3814 -30.6652 0)
(-31.737 -47.1487 0)
(-19.3482 -65.7984 0)
(-2.71688 -85.1627 0)
(18.5103 -104.149 0)
(43.3864 -119.654 0)
(70.2066 -127.837 0)
(99.6414 -127.447 0)
(126.992 -115.282 0)
(151.013 -100.367 0)
(171.503 -72.3543 0)
(184.772 -45.7452 0)
(190.992 -13.9501 0)
(191.365 17.9364 0)
(186.327 48.7359 0)
(172.328 80.5771 0)
(157.367 105.643 0)
(137.559 124.943 0)
(113.117 129.295 0)
(85.1549 116.595 0)
(55.7698 86.6073 0)
(29.6629 49.3394 0)
(9.09408 13.0559 0)
(-3.03154 50.172 0)
(-6.29608 30.8158 0)
(-5.27977 4.56338 0)
(3.46306 -20.2957 0)
(18.8222 -52.6429 0)
(40.0856 -82.5973 0)
(67.463 -106.762 0)
(98.5753 -122.663 0)
(130.21 -127.557 0)
(160.634 -122.395 0)
(190.573 -104.837 0)
(213.48 -82.5826 0)
(229.876 -55.2165 0)
(240.275 -21.3001 0)
(244.398 12.6626 0)
(241.854 44.1444 0)
(232.833 76.821 0)
(216.426 107.997 0)
(196.025 132.985 0)
(171.056 147.679 0)
(139.359 147.051 0)
(103.075 127.792 0)
(66.7005 95.8283 0)
(35.1132 60.31 0)
(12.2779 31.1229 0)
(0.0622769 7.50505 0)
(-4.06867 -11.2436 0)
(-3.76643 -13.9103 0)
(-1.87035 -10.7327 0)
(-0.757258 -1.73982 0)
(1.87775 22.4955 0)
(6.86973 -2.7274 0)
(16.8446 -28.4846 0)
(32.6199 -59.4602 0)
(52.9377 -87.8071 0)
(78.415 -110.503 0)
(107.583 -124.17 0)
(139.213 -127.234 0)
(168.726 -117.514 0)
(194.422 -99.7536 0)
(215.389 -71.7368 0)
(230.097 -40.2623 0)
(239.907 -3.81028 0)
(241.298 30.9769 0)
(235.951 66.0128 0)
(223.526 101.52 0)
(205.61 132.529 0)
(183.184 151.893 0)
(153.213 154.265 0)
(116.115 138.191 0)
(76.9651 109.225 0)
(40.7707 74.7743 0)
(12.9909 47.8518 0)
(-5.16654 22.7381 0)
(-14.461 -1.17173 0)
(-13.6148 -18.7385 0)
(-8.95447 -20.6969 0)
(-3.46884 -12.634 0)
(-0.00476128 1.99502 0)
(0.727121 9.68614 0)
(0.881398 43.3276 0)
(3.97955 23.933 0)
(9.41956 -2.09665 0)
(20.5152 -29.8908 0)
(37.3882 -59.78 0)
(59.5794 -88.3099 0)
(88.1526 -113.797 0)
(120.391 -131.717 0)
(154.376 -137.334 0)
(188.512 -129.985 0)
(217.085 -112.396 0)
(238.504 -85.7804 0)
(254.362 -51.921 0)
(263.589 -13.6212 0)
(266.524 22.9411 0)
(259.036 61.739 0)
(247.299 97.8114 0)
(231.586 129.52 0)
(208.837 149.517 0)
(179.181 154.036 0)
(142.057 137.671 0)
(103.142 108.759 0)
(65.2911 71.1844 0)
(35.1917 37.4687 0)
(17.2241 7.78631 0)
(7.35278 -14.5307 0)
(6.34948 -18.9044 0)
(6.87409 -11.1657 0)
(5.06571 -1.50065 0)
(3.79275 6.28833 0)