/*--------------------------------*- C++ -*----------------------------------*\
| =========                 |                                                 |
| \\      /  F ield         | OpenFOAM: The Open Source CFD Toolbox           |
|  \\    /   O peration     | Version:  2.1.1                                 |
|   \\  /    A nd           | Web:      www.OpenFOAM.org                      |
|    \\/     M anipulation  |                                                 |
\*---------------------------------------------------------------------------*/
FoamFile
{
    version     2.0;
    format      ascii;
    class       volScalarField;
    location    "0.002950000";
    object      cSound;
}
// * * * * * * * * * * * * * * * * * * * * * * * * * * * * * * * * * * * * * //

dimensions      [0 1 -1 0 0 0 0];

internalField   nonuniform List<scalar> 
12384
(
1072.53
1054.64
1025.31
1001.84
990.099
992.296
1003.67
1013.89
1006.48
991.938
990.026
1013
1041.96
727.063
695.048
925.018
905.636
908.343
914.953
922.292
927.137
937.266
942.259
955.567
971.413
972.715
996.572
988.178
990.178
980.674
976.052
968.49
964.031
956.756
949.527
937.624
929.39
921.628
922.201
968.344
993.594
1036.62
602.73
512.231
959.406
1002.81
1035.52
1044.62
1042.75
1039.83
1037.7
1034.93
1035.87
1037
1046.28
1044.88
1065
1069.91
1080.87
1078.83
1084.73
1076.38
1074.4
1065.81
1043.9
1020.24
995.354
970.386
948.827
949.429
1000.83
1014.59
1019.94
629.514
1001.33
1054.83
1071.18
1077.71
1072.27
1056.96
1052.31
1053.73
1054.18
1059.92
1063.97
1065.6
1069
1073.56
1071.67
1074.44
1073.09
1069.48
1064.1
1054.92
1045.29
1025.63
988.32
947.173
934.934
961.386
995.569
1018.2
1019.2
697.347
1054.97
1036.08
1056.82
1058.94
1062.65
1059.12
1062.25
1064.14
1066.85
1058.37
1032.45
1021.45
986.066
984.646
981.488
968.15
984.933
959.595
976.833
942.144
936.67
938.925
539.325
498.299
473.146
468.731
476.192
482.802
497.445
500.197
585.463
941.18
945.84
972.773
1006.09
1031.26
1051.85
1065.55
1069.83
1066.98
1060.59
1049.89
1043.24
1030.62
1034.23
1023.39
1028.81
1031.04
1039.56
1080.45
564.604
521.087
522.985
552.675
572.946
598.466
608.097
595.635
599.318
626.199
514.152
548.22
604.014
687.256
717.997
740.62
723.87
732.643
688.568
630.002
594.705
539.301
500.261
496.538
488.662
486.666
493.312
486.076
490.523
484.627
488.377
482.338
489.967
477.936
483.855
566.421
623.061
640.269
649.487
663.975
415.54
426.15
423.604
428.113
420.79
412.188
410.385
410.474
410.104
410.127
409.08
409.4
408.231
408.627
407.598
407.79
407.488
406.955
407.204
406.601
406.858
406.344
406.534
406.165
406.271
406.018
406.132
405.932
406.031
406.034
405.27
405.147
405.137
405.128
405.12
405.107
405.099
405.082
405.077
405.055
405.055
405.032
405.02
405.01
404.993
404.995
404.984
404.992
404.986
404.991
404.985
404.988
404.987
404.988
404.988
404.991
404.991
404.994
405.002
405.127
405.117
404.992
404.982
404.978
404.976
404.973
404.968
404.967
404.963
404.96
404.957
404.954
404.948
404.943
404.939
404.938
404.941
404.947
404.954
404.959
404.961
404.965
404.969
404.971
404.974
404.977
404.98
404.982
404.99
405.116
405.116
404.99
404.982
404.978
404.976
404.972
404.97
404.966
404.964
404.96
404.958
404.954
404.949
404.942
404.938
404.938
404.941
404.947
404.954
404.957
404.96
404.963
404.967
404.969
404.973
404.976
404.978
404.981
404.99
405.116
405.116
404.989
404.981
404.978
404.977
404.973
404.97
404.967
404.964
404.959
404.958
404.953
404.948
404.942
404.938
404.938
404.942
404.948
404.954
404.958
404.96
404.964
404.966
404.97
404.972
404.976
404.977
404.981
404.989
405.116
405.116
404.989
404.981
404.977
404.976
404.971
404.97
404.966
404.965
404.961
404.959
404.955
404.95
404.943
404.941
404.939
404.943
404.947
404.953
404.956
404.961
404.963
404.968
404.969
404.974
404.977
404.98
404.981
404.991
405.117
1047.58
1016.97
983.458
960.373
951.201
945.355
942.972
945.543
946.743
940.06
948.337
976.664
1020.5
686.184
922.813
919.446
912.132
909.396
913.684
930.643
949.183
978.268
1003.31
1048.01
1068.17
1100.16
1110.83
1096.61
1063.61
1024.24
997.394
983.108
971.641
964.443
951.678
937.751
924.398
921.71
938.54
972.324
989.85
1020.2
1024.84
564.365
963.796
1011.5
1038.75
1038.74
1037.14
1031.65
1030.42
1034.53
1043.24
1056.03
1063.42
1079.73
1090.23
1092.9
1109.46
1104
1105.03
1100.15
1101.19
1100.02
1087.09
1056.24
1013.61
964.221
939.647
961.233
1004.94
1020.93
1019.53
663.559
1005.91
1060.11
1076.75
1071.19
1069.97
1063.14
1057.1
1056.6
1063.24
1063.47
1071.57
1077.92
1082.03
1084.63
1086.54
1079.33
1075.08
1067.53
1057
1041.75
1027.45
1008.5
976.979
948.651
941.99
969.575
997.46
1019.38
1028.12
1026.54
1039.09
1013.81
1003.62
1013.84
1008.34
1015.08
1029.69
1046.75
1053.03
1052.72
1047.77
1032.62
1011.97
1000.75
996.613
985.145
989.75
968.552
973.539
933.568
932.343
931.052
935.501
917.898
543.11
471.566
479.151
486.706
502.38
501.882
597.761
916.929
959.283
1021.02
1061.29
1072.52
1074.33
1073.74
1073.14
1069.2
1063.43
1055.12
1045.51
1042.44
1041.35
1040.1
1037.82
1032.46
1033.07
1069.21
591.979
582.018
710.651
942.37
953.191
954.739
905.176
902.959
591.395
599.982
530.228
929.246
917.92
991.728
1062.91
1077.82
1074.08
1072.57
1074.52
1073.34
1057.07
1027.01
718.769
587.75
562.333
557.413
550.392
547.125
546.457
553.102
540.393
516.431
507.565
498.064
501.054
574.105
625.88
621.61
617.839
618.4
414.851
416.632
430.167
422.406
435.385
426.255
411.028
399.734
400.517
400.989
401.226
401.819
401.366
401.831
401.404
401.556
401.506
401.498
401.589
401.505
401.568
401.45
401.538
401.387
401.54
401.349
401.538
401.373
401.578
404.003
402.901
400.388
400.236
400.185
400.194
400.163
400.132
400.118
400.056
400.051
399.968
399.952
399.835
399.776
399.693
399.705
399.72
399.806
399.845
399.906
399.917
399.98
399.989
400.049
400.065
400.119
400.143
400.188
400.353
403.017
403.004
400.339
400.167
400.116
400.096
400.041
400.018
399.96
399.942
399.885
399.864
399.806
399.759
399.671
399.635
399.607
399.653
399.721
399.823
399.884
399.925
399.984
400.009
400.066
400.083
400.135
400.143
400.187
400.327
403.102
402.998
400.346
400.164
400.144
400.093
400.074
400.015
399.994
399.937
399.916
399.858
399.827
399.741
399.675
399.611
399.617
399.647
399.733
399.791
399.855
399.882
399.947
399.969
400.03
400.055
400.109
400.134
400.175
400.343
403.007
403.11
400.324
400.162
400.146
400.092
400.074
400.012
399.989
399.927
399.901
399.838
399.808
399.724
399.665
399.613
399.612
399.661
399.726
399.812
399.843
399.905
399.928
399.987
400.008
400.068
400.084
400.139
400.159
400.32
403.107
403.011
400.344
400.156
400.134
400.077
400.06
399.996
399.981
399.922
399.909
399.849
399.825
399.746
399.685
399.617
399.617
399.647
399.731
399.79
399.853
399.878
399.942
399.964
400.027
400.049
400.106
400.133
400.175
400.344
403.011
1002.12
1005.6
1022.2
1046.36
1060.47
1059.39
1035.99
993.768
963.641
941.989
922.926
938.162
991.826
655.68
887.674
905.357
903.777
917.051
950.555
1009.25
1068.18
1113.4
1132.63
1152.48
1164.5
1175.45
1186.58
1180.88
1165.78
1129.82
1079.1
1036.46
1005.26
980.71
960.586
939.323
926.908
920.047
931.02
950.811
975.907
1002.28
1029.51
590.49
972.739
1016.52
1036
1032.59
1022.51
1019.36
1026.85
1037.15
1057.95
1077.33
1092.31
1102.97
1110.26
1108.81
1115.36
1108.29
1097.45
1076.26
1062.46
1074.19
1096.46
1092.85
1059.55
984.834
941.434
963.155
994.761
1012.78
1027.37
728.614
1007.2
1053.48
1066.48
1074.73
1070.07
1066.47
1060.68
1057.38
1060.47
1071.96
1077.91
1091.11
1098.29
1092.95
1083.85
1072.71
1054.52
1032.24
1009.6
994.724
988.847
982.914
973.211
956.832
947.029
956.334
986.882
1017.24
1033.92
1021.16
1016.71
990.447
978.592
972.406
979.453
992.747
1001.68
1016.29
1038.97
1053.86
1053.44
1049.97
1039.15
1024.34
1004.56
995.688
986.866
973.697
979.605
947.062
922.931
905.233
878.488
875.032
963.645
505.131
518.808
545.657
548.928
514.482
634.471
918.683
985.933
1056.53
1088.54
1094.63
1099.07
1087.81
1085.08
1080.23
1081.47
1075.51
1072.62
1070.24
1073.38
1069.22
1056.33
1047.69
1041.2
1047.57
1049.52
1055.66
1061.65
1021.34
1030.64
1001.04
954.689
900.852
595.175
554.193
537.543
862.656
960.898
985.173
1030.79
1061.87
1082.12
1088.28
1073.87
1076.27
1060.96
1042.42
1046.78
1046.08
1039.95
1046.24
1054.57
1063.49
1052.58
1056.57
1108.08
667.796
576.239
557.405
565.75
653.026
662.833
661.28
635.255
622.8
398.514
416.936
422.034
439.061
434.264
444.242
429.28
399.595
369.837
368.155
368.72
367.817
368.3
367.264
367.804
366.872
367.257
366.46
366.701
366.12
366.293
365.875
365.967
365.704
365.688
365.593
365.492
365.552
365.319
362.944
362.112
364.581
364.774
364.761
364.826
364.816
364.878
364.876
364.933
364.939
364.998
365.026
365.107
365.179
365.223
365.231
365.178
365.122
365.046
365.016
364.971
364.944
364.905
364.88
364.839
364.812
364.775
364.746
364.599
361.959
361.949
364.585
364.742
364.782
364.813
364.841
364.875
364.903
364.934
364.963
364.998
365.034
365.097
365.163
365.213
365.226
365.198
365.12
365.035
364.977
364.949
364.903
364.865
364.835
364.803
364.777
364.751
364.718
364.563
361.951
361.95
364.581
364.73
364.771
364.796
364.827
364.857
364.891
364.918
364.954
364.987
365.034
365.097
365.175
365.219
365.228
365.184
365.12
365.048
365.008
364.968
364.932
364.896
364.864
364.826
364.796
364.76
364.733
364.587
361.948
361.951
364.583
364.732
364.757
364.789
364.824
364.861
364.897
364.93
364.969
365.005
365.049
365.11
365.18
365.225
365.224
365.183
365.109
365.046
365.001
364.966
364.929
364.897
364.864
364.829
364.798
364.768
364.731
364.587
361.953
361.951
364.585
364.739
364.781
364.807
364.838
364.866
364.899
364.924
364.957
364.99
365.033
365.09
365.165
365.213
365.231
365.19
365.126
365.054
365.014
364.974
364.936
364.899
364.866
364.828
364.797
364.762
364.734
364.589
361.949
1023.03
1066.54
1126.87
1176.9
1197.84
1197.39
1178.25
1145.43
1094.66
1037.12
965.258
916.579
953.711
638.243
873.655
896.343
917.08
977.858
1070.95
1130.43
1156.83
1168.04
1167.08
1176.37
1166.1
1178.83
1181.75
1199.15
1202.48
1195.32
1161.09
1123.37
1070.45
1018.96
976.522
946.274
923.64
912.695
910.412
918.723
949.566
963.478
987.001
553.776
978.475
1020.77
1031.49
1022.23
1012.83
1012.11
1021.25
1042.8
1070.34
1093.3
1101.89
1111.39
1115.57
1117.75
1110.36
1102.62
1076.58
1048.21
1024.59
1023.69
1064.44
1103.78
1095.94
1011.33
940.695
960.06
988.923
1018.5
1028.83
1017.13
1031.1
1055.88
1063.06
1064.49
1070.83
1064.68
1062.5
1058.75
1065.03
1082.56
1105.45
1108.59
1101.1
1081.13
1052.37
1011.45
978.986
951.98
939.781
934.029
934.541
938.356
946.365
947.551
940.43
946.964
972.434
1018.58
1042.08
1033.6
986.614
970.961
955.549
961.605
978.477
990.706
991.063
1002.58
1026.74
1044.51
1056.95
1061.17
1057.64
1046.37
1023.94
1000.04
1001.48
976.773
982.794
949.113
923.885
883.805
872.612
896.931
912.003
910.084
891.507
884.311
934.192
550.562
681.043
902.334
996.448
1066.17
1099.9
1111.62
1111.19
1102.85
1105.89
1108.96
1114.27
1112.94
1113.48
1109.28
1105.12
1088.8
1080.83
1067.24
1061.14
1063.2
1061.03
1056.02
1053.11
1069.35
1082.49
1074.61
1025.96
939.796
649.399
560.112
543.998
828.174
919.805
1019.83
1028.01
1061.44
1085.5
1093.62
1090.7
1085.68
1093.64
1039.74
1063
1062.13
1056.93
1061.12
1061.64
1059.14
1050.2
1064.58
1083.76
1091
1100.7
1119.63
1134.7
1182.48
742.315
711.852
672.001
636.95
409.994
412.412
444.722
452.127
474.16
467.95
471.304
452.085
415.944
370.055
367.367
367.674
366.909
366.788
366.154
366.102
365.558
365.543
365.147
365.066
364.845
364.703
364.577
364.48
364.34
364.331
364.2
364.219
364.104
363.667
363.028
363.467
363.461
363.5
363.455
363.478
363.442
363.458
363.426
363.441
363.414
363.429
363.408
363.425
363.406
363.416
363.394
363.397
363.378
363.382
363.369
363.37
363.361
363.361
363.354
363.352
363.347
363.343
363.304
362.843
362.834
363.294
363.335
363.336
363.342
363.34
363.347
363.345
363.351
363.349
363.355
363.354
363.362
363.363
363.371
363.369
363.37
363.36
363.357
363.35
363.347
363.349
363.342
363.344
363.337
363.34
363.334
363.334
363.294
362.823
362.833
363.294
363.33
363.338
363.337
363.343
363.342
363.347
363.346
363.351
363.351
363.357
363.359
363.368
363.368
363.372
363.366
363.364
363.355
363.355
363.35
363.35
363.344
363.346
363.339
363.34
363.333
363.333
363.293
362.833
362.823
363.294
363.33
363.337
363.336
363.342
363.342
363.348
363.346
363.353
363.352
363.358
363.36
363.368
363.368
363.368
363.368
363.36
363.358
363.352
363.353
363.347
363.348
363.342
363.343
363.338
363.338
363.329
363.295
362.824
362.833
363.295
363.33
363.339
363.338
363.343
363.343
363.348
363.347
363.352
363.352
363.358
363.358
363.367
363.367
363.372
363.365
363.364
363.356
363.356
363.351
363.352
363.345
363.347
363.34
363.341
363.335
363.334
363.293
362.833
1101.25
1162.61
1216.21
1239.14
1233.26
1217.99
1202.11
1185.3
1165.82
1137.2
1062.04
930.839
924.38
624.372
874.334
915.558
1030.13
1127.42
1158.78
1168.83
1154.99
1142.33
1116.31
1101.77
1068.94
1071.41
1102.17
1137.01
1175.74
1194.73
1194.73
1169.78
1131.38
1073.52
1008.89
957.827
925.22
905.804
894.264
886.162
884.276
864.051
945.421
533.745
980.287
1018.4
1028.62
1015.12
1007.02
1008.61
1024.2
1048.31
1079.38
1099.42
1110.95
1116.4
1117.76
1116.83
1109.33
1103.07
1097.23
1082.53
1053.74
1023.82
1042.26
1098.32
1113.1
1034.07
937.644
945.776
985.287
1014.71
1032.32
1022.58
1043.76
1050.58
1054.06
1063.7
1062.35
1064.87
1057.2
1068.95
1091.38
1116.68
1124.58
1112.74
1081.47
1038.42
989.806
953.834
938.1
930.894
922.031
920.414
919.279
916.854
911.577
918.077
922.656
925.201
952.736
1003.71
1031.51
1032.1
988.041
966.371
958.911
971.97
986.969
994.045
994.678
1000.63
1013.44
1041.07
1053.85
1063.95
1067.48
1061.91
1044.19
1021.23
1006.43
994.089
978.826
963.616
928.151
891.619
855.559
860.339
880.698
871.81
872.282
879.03
639.753
526.709
702.201
906.678
986.299
1067
1103.45
1122.64
1124.78
1127.05
1137.07
1147.55
1153.07
1154.46
1148.58
1136.96
1132.77
1122.79
1121.87
1110.53
1105.44
1090.79
1086.61
1070.26
1074.7
1068.53
1089.97
1099.09
1084.06
1007.95
945.247
570.475
535.943
797.117
906.29
999.79
1040.98
1063.92
1093.52
1098.64
1097.12
1114.45
1112.87
1065.91
1076.67
1080.37
1076.37
1098.96
1090.98
1093
1083.56
1075.36
1086.62
1112.13
1122.5
1158.59
1199.93
1194.18
1189.51
1163.79
701.441
648.018
403.646
426.109
450.182
491.504
498.905
517.84
499.925
496.211
473.46
428.005
374.66
372.353
372.707
371.556
371.866
370.731
371.058
370.167
370.435
369.753
369.963
369.436
369.593
369.192
369.312
369.002
369.113
368.869
368.957
368.774
368.27
368.312
368.34
368.261
368.291
368.226
368.248
368.193
368.214
368.165
368.186
368.144
368.164
368.128
368.146
368.115
368.13
368.104
368.117
368.095
368.107
368.088
368.1
368.083
368.095
368.081
368.09
368.076
368.07
368.026
368.015
368.059
368.067
368.078
368.066
368.078
368.065
368.077
368.066
368.078
368.066
368.078
368.067
368.079
368.068
368.079
368.068
368.08
368.07
368.073
368.076
368.066
368.078
368.065
368.077
368.065
368.077
368.064
368.07
368.005
368.016
368.061
368.077
368.064
368.077
368.065
368.077
368.065
368.077
368.066
368.078
368.066
368.078
368.068
368.079
368.068
368.079
368.068
368.078
368.066
368.078
368.066
368.078
368.065
368.078
368.066
368.077
368.064
368.059
368.016
368.008
368.066
368.066
368.065
368.078
368.066
368.078
368.066
368.078
368.066
368.078
368.067
368.079
368.069
368.077
368.078
368.069
368.08
368.067
368.079
368.067
368.078
368.066
368.079
368.066
368.079
368.066
368.071
368.065
368.01
368.016
368.061
368.077
368.064
368.078
368.065
368.078
368.065
368.078
368.065
368.078
368.067
368.079
368.068
368.08
368.069
368.08
368.069
368.079
368.066
368.079
368.067
368.079
368.067
368.079
368.066
368.077
368.065
368.058
368.015
1179.17
1224.68
1253.23
1236.3
1203.68
1173.68
1154.3
1148.59
1150.41
1146.76
1113.85
965.751
902.914
624.776
888.09
1018.72
1142.18
1174.43
1171.81
1134.55
1082.89
1000.12
957.837
939.964
947.029
950.605
965.864
1016.29
1116.02
1167.24
1187.47
1185.66
1160.13
1120.01
1050.05
981.646
932.243
895.088
865.476
840.008
819.843
842.411
654.242
513.35
990.588
1015.69
1019.24
1009.34
1000.66
1004.08
1018.27
1046.68
1079.46
1098.54
1108.52
1114.44
1117.06
1117.84
1116.98
1113.55
1116.76
1110.67
1090.45
1051.21
1039.94
1098.03
1119.41
1033.08
931.976
932.962
972.941
1007.87
1017.9
1023.53
1048.72
1048.06
1049.72
1056.09
1060.37
1056.12
1069.14
1094.7
1125.06
1139.5
1125.28
1091.12
1041.83
992.209
966.189
957.878
961.823
967.379
970.318
966.953
957.478
943.198
931.126
915.286
913.849
920.824
930.747
972.644
1004.68
1002.16
974.044
968.954
973.1
987.219
996.989
996.702
1000.06
1001.3
1015.54
1037.45
1050.66
1061.7
1070.34
1071.76
1054.79
1043.99
1016.28
1002.5
997.164
947.482
923.881
895.558
872.135
864.4
857.348
862.587
856.284
845.833
851.243
531.634
993.68
904.319
983.7
1054.61
1114.96
1134.07
1147.31
1154.85
1166.8
1172.34
1184.09
1193.22
1199.08
1179.21
1188.93
1170.71
1177.57
1175.62
1173.25
1164.31
1147.6
1111.38
1082.81
1068.92
1092.18
1119.49
1112.65
1095.91
992.389
638.203
537.48
774.868
911.7
1032.39
1054.16
1080.72
1097.58
1098.11
1108.9
1119.93
1099.42
1025.9
1025.26
1016.8
1030.75
1050.59
1079.21
1106.47
1121.68
1110.72
1118.06
1109.02
1163.67
1167.59
1212.43
1210.12
1164.04
1164.69
709.623
636.87
408.529
462.414
492.445
518.681
541.002
525.496
533.63
522.293
515.553
488.711
430.86
379.794
379.019
378.845
377.896
377.766
377.011
376.878
376.386
376.229
375.918
375.742
375.548
375.37
375.254
375.048
375.078
374.758
374.879
374.274
374.019
374.387
374.314
374.34
374.254
374.261
374.199
374.199
374.154
374.151
374.121
374.117
374.094
374.092
374.076
374.072
374.061
374.057
374.049
374.045
374.042
374.037
374.037
374.028
374.035
374.025
374.03
374.018
373.986
373.569
373.557
373.974
374.01
374.017
374.012
374.016
374.011
374.015
374.01
374.014
374.01
374.014
374.011
374.015
374.011
374.015
374.011
374.016
374.013
374.01
374.012
374.011
374.015
374.01
374.014
374.01
374.014
374.008
373.982
373.562
373.557
373.979
374.013
374.011
374.015
374.01
374.014
374.01
374.014
374.01
374.013
374.01
374.015
374.011
374.015
374.011
374.015
374.011
374.014
374.01
374.015
374.011
374.016
374.01
374.015
374.011
374.013
374.007
373.975
373.558
373.563
373.979
374.004
374.009
374.014
374.01
374.015
374.011
374.015
374.011
374.015
374.01
374.015
374.012
374.013
374.013
374.013
374.016
374.011
374.016
374.011
374.015
374.012
374.016
374.011
374.016
374.011
374.006
373.978
373.564
373.557
373.979
374.012
374.01
374.015
374.01
374.015
374.01
374.014
374.01
374.015
374.011
374.016
374.013
374.018
374.013
374.017
374.013
374.017
374.012
374.016
374.012
374.017
374.012
374.017
374.011
374.014
374.007
373.974
373.557
1229.11
1255.95
1243.45
1208.96
1173.84
1143.07
1113.37
1076.56
1052.78
1078.78
1098.65
990.618
895.233
645.428
931.019
1115.07
1177.9
1164.59
1111.65
1001.66
936.162
923.185
924.279
932.111
942.281
950.605
954.279
972.056
1054.76
1132.14
1171.42
1181.77
1173.46
1141.9
1094.07
1012.03
940.984
882.581
836.056
805.709
792.675
796.523
578.891
515.253
989.332
1015.45
1019.73
1010.77
1010.08
1017.67
1038.57
1067.53
1097.03
1110.22
1116.55
1122.54
1125.17
1129.41
1132.13
1131.88
1125.12
1116.66
1092.09
1054.74
1056.87
1112.13
1116.44
998.791
927.553
944.963
982.333
994.104
997.22
1012.62
1041.48
1042.23
1050.72
1053.65
1052.77
1066.49
1096.45
1127.11
1145.03
1138.6
1103.79
1059.79
1014.1
992.04
991.141
993.888
992.214
992.13
989.632
984.993
984.825
991.101
969.063
956.558
933.395
920.11
918.811
939.608
976.616
989.181
974.876
973.306
983.397
1000.19
1008.01
1009.64
1004.83
1006.65
1016.78
1034.57
1049.4
1059.84
1070.62
1073.02
1071.56
1057.18
1038.88
1033.75
1002.81
975.951
918.974
896.264
870.944
852.707
839.25
833.383
842.587
885.196
885.125
526.834
832.939
903.875
966.886
1069.32
1126.27
1157.51
1167.57
1177.6
1185.52
1196.66
1212.66
1227.58
1221.24
1196.33
1187.68
1179.68
1178.13
1186
1192.94
1207.07
1209.45
1209.78
1179.01
1109.1
1095.14
1110.18
1128.37
1116.51
1055.45
864.459
548.991
854.609
974.468
1079.65
1093.97
1107.33
1109.54
1103.71
1111.54
1120.73
1065.45
1009.33
989.23
1015.14
1014
1042.23
1043.01
1066.73
1088.19
1124.63
1126.68
1160.2
1164.26
1194.95
1201.7
1213.66
1207.56
1181.28
732.565
650.285
461.962
551.539
524.745
517.083
533.629
551.744
533.966
547.761
541.354
532.339
498.252
424.195
389.885
389.119
389.265
387.942
388.195
387.082
387.341
386.51
386.701
386.065
386.201
385.717
385.817
385.419
385.519
385.146
385.226
385.055
385.052
384.86
384.856
384.7
384.736
384.618
384.646
384.553
384.579
384.503
384.53
384.467
384.491
384.441
384.461
384.422
384.437
384.407
384.42
384.396
384.408
384.389
384.399
384.383
384.392
384.381
384.384
384.373
384.373
384.493
384.48
384.361
384.366
384.373
384.367
384.371
384.364
384.369
384.363
384.368
384.362
384.367
384.361
384.365
384.361
384.365
384.362
384.367
384.364
384.36
384.363
384.363
384.368
384.363
384.369
384.364
384.368
384.361
384.37
384.491
384.481
384.366
384.368
384.364
384.369
384.362
384.367
384.361
384.367
384.361
384.366
384.361
384.366
384.361
384.365
384.361
384.365
384.361
384.366
384.362
384.368
384.363
384.369
384.364
384.37
384.364
384.367
384.36
384.362
384.481
384.493
384.366
384.357
384.361
384.369
384.364
384.369
384.363
384.368
384.363
384.368
384.362
384.367
384.361
384.362
384.362
384.362
384.366
384.362
384.368
384.362
384.369
384.363
384.37
384.365
384.371
384.364
384.359
384.364
384.493
384.481
384.367
384.368
384.364
384.37
384.363
384.369
384.362
384.369
384.361
384.367
384.361
384.367
384.362
384.366
384.361
384.365
384.361
384.367
384.361
384.367
384.362
384.369
384.363
384.37
384.364
384.367
384.359
384.358
384.477
1264.88
1267.89
1237.52
1193.75
1171.34
1148.18
1076.11
982.881
966.595
988.741
1039.05
968.615
884.036
957.062
1028.16
1126.86
1154.36
1121.88
1004.67
939.862
926.115
930.14
942.759
958.691
974.605
983.88
993.844
1011.64
1063.14
1125.86
1154.15
1172.84
1171.8
1156.64
1120.39
1044.97
948.946
871.781
821.439
801.889
793.665
784.613
584.628
563.981
990.971
1005.88
1007.89
1005.8
1004.57
1020.09
1049.22
1081.73
1105.41
1117.9
1123.01
1126.29
1133.29
1139.31
1146.83
1141.5
1122.93
1107.06
1085.74
1066.45
1090.69
1121.95
1057.44
943.937
939.175
969.859
981.71
983.782
983.257
985.775
1034.39
1037.22
1046.34
1050.65
1062.91
1092.75
1126.72
1146.61
1146.66
1120.64
1080.96
1047.58
1025.94
1013.61
999.429
990.246
990.261
993.048
995.432
991.352
991.758
976.842
975.688
966.659
963.359
946.094
920.569
926.101
956.671
977.832
968.196
980.818
1003.44
1032.89
1053.65
1046.12
1026.78
1013.38
1017.39
1033.13
1046.75
1056.84
1063.62
1077
1075.42
1068.81
1061.9
1044.22
1048.38
1025.9
978.53
918.471
891.889
863.841
856.495
867.18
897.671
896.273
904.684
662.282
818.19
912.979
998.193
1103.37
1152.51
1170.69
1184.72
1191.84
1200.04
1206.77
1210.45
1201.01
1183.92
1173.49
1159.3
1158.8
1162.2
1167.5
1179.87
1190.43
1208.34
1223.93
1229.27
1230.68
1181.66
1137.55
1126.32
1124
1054.14
900.422
583.63
997.922
1052.2
1101.21
1120.54
1124.29
1114.48
1107.72
1123.11
1113.52
1053.55
1034.6
1018.15
1033.1
1050.93
1067.06
1085.62
1088.9
1102.56
1111
1118.23
1176.63
1181.85
1212.15
1213.4
1217.45
1220.39
1205.71
791.279
625.901
544.573
560.921
532.792
509.938
569.076
541.122
556.826
552.258
567.096
557.053
544.27
494.396
411.38
400.55
400.468
399.072
399.194
398.013
397.919
397.392
397.157
396.762
396.611
396.258
396.159
395.843
395.754
395.464
395.378
395.222
395.949
395.376
395.29
395.151
395.096
395.01
394.975
394.915
394.89
394.839
394.838
394.784
394.798
394.747
394.766
394.722
394.741
394.705
394.722
394.695
394.707
394.687
394.697
394.681
394.689
394.672
394.674
394.655
394.66
394.81
394.801
394.647
394.65
394.659
394.661
394.664
394.664
394.665
394.662
394.664
394.662
394.664
394.662
394.663
394.662
394.663
394.662
394.665
394.664
394.661
394.662
394.662
394.665
394.662
394.662
394.657
394.653
394.645
394.651
394.811
394.801
394.65
394.648
394.653
394.659
394.659
394.663
394.661
394.662
394.661
394.663
394.662
394.663
394.662
394.663
394.662
394.663
394.662
394.664
394.663
394.664
394.663
394.665
394.663
394.663
394.657
394.653
394.644
394.647
394.801
394.811
394.649
394.641
394.65
394.658
394.66
394.664
394.662
394.664
394.662
394.664
394.662
394.664
394.662
394.661
394.662
394.662
394.664
394.663
394.665
394.662
394.664
394.663
394.665
394.661
394.661
394.654
394.642
394.647
394.811
394.803
394.65
394.648
394.652
394.66
394.66
394.664
394.662
394.664
394.662
394.664
394.663
394.665
394.663
394.665
394.663
394.664
394.663
394.665
394.663
394.665
394.663
394.666
394.662
394.663
394.656
394.648
394.629
394.609
394.762
1279.76
1261.11
1226.03
1208.54
1198.95
1161.27
1037.32
972.475
1002.9
1007.48
1003.12
940.8
868.856
854.025
983.301
1102.98
1131.71
1136.93
1110.65
1016.42
958.472
946.143
945.955
950.797
966.459
979.057
990.231
1008.09
1032.59
1066.28
1104.05
1129.07
1151.31
1162.27
1167.65
1157.47
1129.17
1052.45
936.196
853.335
817.139
812.578
822.78
834.182
882.459
906.26
922.038
952.995
983.529
1009.38
1017.22
1029.22
1051.71
1090.16
1114.02
1125.91
1128.94
1133.55
1139.05
1143.91
1147.84
1155.81
1151.93
1130.65
1108.08
1099.61
1095.45
1098.39
1109.32
1063.81
959.396
931.244
949.883
965.597
978.634
988.156
990.559
993.492
1001.88
1009.06
1021.98
1034.14
1040.93
1057.06
1085.69
1119.43
1143.19
1149.67
1139.24
1107.69
1082.12
1054.49
1022.91
997.808
987.473
989.958
997.981
1004.95
1011.65
1004.9
1002.97
978.616
981.116
984.319
973.67
955.54
923.571
931.071
966.517
969.936
950.459
931.926
969.522
989.103
1026.26
1071.65
1095.75
1090.36
1064.76
1034.35
1020.54
1029.83
1043.46
1050.49
1061.33
1070.04
1079.78
1086.07
1076.45
1074.17
1061.01
1057.95
1024.59
962.373
896.567
884.311
891.728
918.097
934.63
936.383
918.105
917.93
924.132
947.524
902.238
981.819
1060.36
1133.54
1167.51
1187.64
1195.81
1204.33
1205.08
1203.8
1191.97
1175.03
1156.42
1150.46
1143.2
1146.65
1144.81
1152.21
1163.17
1174.97
1195.63
1219.06
1234.53
1240.16
1238.71
1203.38
1156.61
1126.24
1081.23
966.274
899.706
1015.23
633.883
989.673
1014.09
1081
1118.09
1132.1
1127.42
1128.23
1121.33
1124.03
1057.17
1061.21
1058.07
1061.73
1069.61
1089.32
1105.18
1132.2
1128.58
1137.24
1137.4
1170.72
1194.88
1221.34
1234.92
1230.58
1229.61
1213.22
1173.41
804.625
627.789
656.743
714.251
807.842
768.619
640.735
539.014
579.505
564.736
585.445
579.967
581.974
566.857
546.385
470.675
416.196
417.02
415.206
415.31
414.174
414.103
413.168
413.416
412.528
412.765
412.073
412.173
411.736
411.64
411.258
411.236
411.189
412.648
412.421
412.505
411.373
411.331
410.967
411.059
410.801
410.895
410.71
410.778
410.652
410.693
410.609
410.633
410.574
410.588
410.547
410.556
410.525
410.531
410.507
410.513
410.493
410.501
410.482
410.486
410.468
410.467
410.457
410.523
411.253
411.964
411.962
411.254
410.513
410.454
410.454
410.454
410.459
410.46
410.463
410.46
410.462
410.46
410.463
410.462
410.463
410.462
410.464
410.462
410.465
410.463
410.458
410.458
410.46
410.461
410.458
410.455
410.45
410.447
410.447
410.517
411.254
411.955
411.955
411.246
410.516
410.45
410.446
410.451
410.452
410.458
410.457
410.46
410.458
410.461
410.461
410.463
410.462
410.463
410.462
410.463
410.462
410.463
410.46
410.462
410.46
410.462
410.459
410.457
410.45
410.445
410.445
410.511
411.246
411.955
411.955
411.253
410.513
410.441
410.443
410.45
410.454
410.459
410.46
410.461
410.46
410.462
410.461
410.463
410.462
410.46
410.461
410.462
410.463
410.461
410.462
410.459
410.461
410.46
410.46
410.455
410.453
410.447
410.443
410.511
411.253
411.954
411.954
411.248
410.517
410.45
410.446
410.452
410.454
410.46
410.458
410.461
410.458
410.46
410.458
410.461
410.461
410.463
410.462
410.463
410.462
410.463
410.46
410.461
410.457
410.46
410.453
410.454
410.446
410.442
410.44
410.509
411.242
411.908
411.364
1286.25
1262.38
1238.47
1222.97
1211.97
1165.39
1012.65
970.902
1063
1102.98
1043.04
946.72
864.362
812.798
850.139
1057.92
1134.41
1114.48
1026.75
981.089
966.73
959.55
964.925
978.271
982.979
986.206
988.501
994.556
1008.89
1034.22
1068.63
1104.31
1123.97
1139.91
1145.04
1141.78
1117.04
1027.17
909.467
840.453
816.753
837.144
873.819
897.936
914.851
935.827
975.905
991.367
998.385
1013.55
1039.57
1081.08
1112.97
1122.75
1126.63
1127.03
1131.07
1133.85
1141.63
1152.1
1162.03
1157.55
1132.83
1103.98
1094.02
1096.48
1095.82
1085.11
1037.28
963.887
933.746
938.576
950.762
964.919
976.783
986.971
994.566
1003.04
1004.94
1011.6
1022.1
1030.65
1043.74
1070.18
1102.87
1134.26
1147.01
1149.43
1134.66
1113.39
1082.8
1043.98
1006.85
989.753
989.229
998.259
1006
1011.97
1017.87
1017.4
1008.38
981.485
976.724
987.623
990.703
954.651
938.113
952.757
970.353
969.319
948.354
956.596
971.013
1013.77
1068.44
1118.57
1136.12
1116.11
1090.68
1060.92
1036.29
1028.56
1034.42
1047.27
1058.88
1069.87
1083.29
1092.39
1101.69
1092.17
1090.3
1082.41
1071.87
1062.82
1010.17
968.014
975.756
996.301
990.986
956.566
931.431
915.622
923.546
947.464
976.924
1021.56
1093.15
1146.1
1177.72
1197.7
1204.64
1209.25
1207.74
1201.62
1184.91
1171.98
1152.84
1141.57
1138.23
1129.12
1135.45
1141.22
1148.25
1162.5
1181.98
1205.16
1232.05
1247.95
1248.22
1239.54
1205.32
1157.16
1104.8
1059.43
991.442
986.086
993.879
987.743
990.221
1036.89
1101.17
1138.63
1151.39
1145.14
1145.94
1122.24
1101.31
1091.22
1083.96
1083.01
1094.33
1104.55
1122.71
1154.07
1168.47
1165.24
1160.28
1182.55
1186.85
1230.83
1238.03
1247.54
1239.2
1232.51
1209.09
1154.98
1113.36
1100.36
1057.49
1058.38
1125.86
875.487
662.273
573.412
601.128
594.872
603.911
592.783
589.878
572.536
524.896
439.256
431.622
429.759
430.338
428.286
429.035
427.379
427.828
426.778
426.984
426.239
426.376
425.73
425.927
425.247
425.561
424.886
426.161
425.822
425.889
425.324
425.32
425.096
425.076
424.89
424.94
424.759
424.834
424.686
424.75
424.637
424.688
424.603
424.641
424.575
424.606
424.554
424.577
424.538
424.555
424.525
424.539
424.515
424.523
424.502
424.508
424.497
424.513
424.615
425.335
425.329
424.616
424.499
424.496
424.492
424.493
424.497
424.5
424.503
424.502
424.503
424.504
424.505
424.506
424.507
424.506
424.507
424.506
424.507
424.506
424.501
424.5
424.502
424.501
424.498
424.493
424.488
424.486
424.488
424.502
424.611
425.322