/*--------------------------------*- C++ -*----------------------------------*\
| =========                 |                                                 |
| \\      /  F ield         | OpenFOAM: The Open Source CFD Toolbox           |
|  \\    /   O peration     | Version:  2.1.1                                 |
|   \\  /    A nd           | Web:      www.OpenFOAM.org                      |
|    \\/     M anipulation  |                                                 |
\*---------------------------------------------------------------------------*/
FoamFile
{
    version     2.0;
    format      ascii;
    class       volScalarField;
    location    "0.002950000";
    object      H;
}
// * * * * * * * * * * * * * * * * * * * * * * * * * * * * * * * * * * * * * //

dimensions      [0 0 0 0 0 0 0];

internalField   nonuniform List<scalar> 
12384
(
0.00011866
6.67238e-05
2.12339e-05
6.46204e-06
2.25986e-06
1.19544e-06
8.76309e-07
7.2659e-07
9.37763e-07
8.70218e-07
1.12311e-06
2.6913e-06
1.48647e-05
7.20804e-06
2.13891e-07
6.68701e-07
3.23044e-07
2.45407e-07
1.89993e-07
1.54717e-07
1.57449e-07
1.67554e-07
1.97076e-07
2.34343e-07
2.79431e-07
3.72616e-07
9.66136e-07
6.03175e-07
5.74086e-07
2.83253e-07
1.81398e-07
1.12255e-07
8.58972e-08
6.83165e-08
6.02224e-08
5.70956e-08
6.51573e-08
1.6054e-07
3.22471e-07
4.2751e-06
1.35958e-05
4.13751e-05
4.40053e-06
1.17001e-06
5.37966e-06
1.0049e-05
1.71972e-05
1.87731e-05
1.95866e-05
1.85316e-05
1.87615e-05
1.92922e-05
2.01698e-05
2.30617e-05
2.75576e-05
3.15379e-05
3.58106e-05
3.75586e-05
4.48816e-05
4.5628e-05
4.68764e-05
4.49194e-05
3.98193e-05
3.54994e-05
1.55335e-05
7.09232e-06
2.18996e-06
5.60583e-07
1.65815e-07
2.05728e-07
1.93154e-06
8.22766e-06
1.50503e-05
3.54648e-06
1.39015e-05
5.05058e-05
6.70966e-05
5.34507e-05
4.6655e-05
4.28286e-05
3.61876e-05
3.46928e-05
4.05659e-05
4.57969e-05
5.25917e-05
5.81038e-05
6.18096e-05
6.20018e-05
6.24311e-05
6.13299e-05
5.90616e-05
5.14785e-05
4.02568e-05
2.49177e-05
1.39888e-05
5.41445e-06
1.25532e-06
2.76599e-07
1.53601e-07
3.91486e-07
1.22911e-06
5.35177e-06
1.01767e-05
4.34583e-06
3.67272e-06
2.67331e-06
1.36233e-05
2.79825e-05
2.82788e-05
3.11531e-05
3.60268e-05
4.18506e-05
4.96345e-05
5.59542e-05
6.85662e-05
5.74595e-05
5.27975e-05
4.66299e-05
4.70497e-05
3.09352e-05
3.54619e-05
2.51841e-05
2.70925e-05
1.69263e-05
1.17687e-05
5.84598e-06
1.12645e-07
3.68317e-08
4.31558e-09
2.89238e-10
4.16949e-11
7.07662e-11
1.35895e-10
5.07233e-11
3.16688e-07
6.52829e-07
1.14986e-06
3.15365e-06
8.94375e-06
1.83959e-05
2.6071e-05
3.26667e-05
3.48853e-05
3.9078e-05
4.44302e-05
4.83725e-05
4.96633e-05
4.93047e-05
4.79909e-05
4.60053e-05
4.1572e-05
3.78453e-05
3.51286e-05
1.626e-05
2.33259e-07
4.95029e-09
1.03263e-08
2.92456e-08
5.00552e-08
5.5167e-08
4.53666e-08
5.37695e-08
3.696e-08
3.28375e-09
6.96173e-09
1.0718e-07
6.74653e-07
2.80438e-06
4.48846e-06
8.23918e-06
1.03541e-05
1.25417e-05
1.0803e-05
7.57399e-06
6.99029e-06
2.89122e-06
6.93566e-07
1.48513e-07
5.47584e-08
2.40532e-08
1.33587e-08
4.71159e-09
2.61403e-09
7.17375e-10
2.18812e-10
6.34209e-12
1.21999e-13
2.30747e-14
7.55504e-15
7.47406e-15
1.49235e-15
9.64002e-16
1.42564e-16
1.44423e-18
7.88638e-34
1.99666e-33
5.72263e-34
4.76228e-37
1.07858e-40
2.55412e-44
3.14393e-48
2.81943e-52
2.21191e-56
1.67135e-60
1.38687e-64
1.30555e-68
1.47801e-72
1.91259e-76
2.6673e-80
3.8455e-84
5.6042e-88
8.19338e-92
1.19147e-95
1.72196e-99
2.46857e-103
3.49832e-107
4.90878e-111
6.78022e-115
9.25024e-119
1.23807e-122
1.63284e-126
2.10922e-130
2.68438e-134
3.423e-138
4.80234e-152
2.19699e-155
4.23815e-159
7.00753e-163
1.08171e-166
1.58972e-170
8.99366e-176
5.17811e-181
8.76904e-186
3.74961e-190
2.00892e-194
9.91369e-199
3.1761e-203
7.28358e-208
1.37555e-212
2.35031e-217
3.7641e-222
5.96724e-227
9.96072e-232
1.81663e-236
3.67805e-241
8.54871e-246
2.24049e-250
6.92189e-255
2.58624e-259
8.81917e-264
2.88249e-268
8.5387e-273
2.16839e-277
1.54637e-282
3.94195e-305
7.23362e-306
8.18578e-310
4.96649e-314
2.25419e-318
8.39912e-323
0
0
0
0
0
0
0
0
0
0
0
0
0
0
0
0
0
0
0
0
0
0
0
0
0
0
0
0
0
0
0
0
0
0
0
0
0
0
0
0
0
0
0
0
0
0
0
0
0
0
0
0
0
0
0
0
0
0
0
0
0
0
0
0
0
0
0
0
0
0
0
0
0
0
0
0
0
0
0
0
0
0
0
0
0
0
0
0
0
0
0
0
0
0
0
0
0
0
0
0
0
0
0
0
0
0
0
0
0
0
0
0
0
0
5.04703e-05
1.95622e-05
7.05697e-06
3.12993e-06
1.626e-06
6.80448e-07
2.27484e-07
9.05592e-08
4.33429e-08
3.98937e-08
1.06361e-07
5.18982e-07
6.50659e-06
5.17872e-06
5.52881e-07
6.63939e-07
4.66018e-07
2.33459e-07
1.27959e-07
1.48154e-07
2.45285e-07
7.79444e-07
3.64416e-06
2.12183e-05
5.31101e-05
0.00012888
0.000161376
9.85645e-05
2.90301e-05
4.66417e-06
1.01213e-06
4.04385e-07
2.08703e-07
1.04695e-07
6.00985e-08
4.85699e-08
6.59783e-08
1.14741e-07
5.50945e-07
4.03626e-06
1.0789e-05
3.49284e-05
4.1738e-05
3.3732e-06
5.8535e-06
1.02752e-05
1.64212e-05
1.61257e-05
1.46515e-05
1.21484e-05
1.21948e-05
1.4747e-05
1.91154e-05
2.9323e-05
4.20963e-05
5.18848e-05
6.09305e-05
6.79972e-05
7.15531e-05
7.41425e-05
6.54428e-05
6.03729e-05
5.55509e-05
5.51146e-05
4.12517e-05
1.74236e-05
3.11824e-06
3.15042e-07
1.28942e-07
3.67957e-07
2.09786e-06
6.20316e-06
1.07508e-05
4.05942e-06
1.07127e-05
4.46838e-05
5.2297e-05
5.91457e-05
5.20147e-05
4.18334e-05
3.97915e-05
4.18175e-05
4.68419e-05
5.24885e-05
5.84972e-05
6.30523e-05
6.49522e-05
6.60242e-05
6.64173e-05
6.61118e-05
6.34902e-05
5.58186e-05
3.30481e-05
1.3421e-05
5.74459e-06
2.30332e-06
6.46424e-07
2.15684e-07
1.82681e-07
5.47961e-07
1.53668e-06
4.25996e-06
1.29237e-05
1.56756e-05
1.53681e-06
1.22794e-06
2.41337e-06
5.26472e-06
7.83076e-06
1.18595e-05
1.84996e-05
2.83156e-05
4.61784e-05
5.74324e-05
6.01303e-05
5.3811e-05
5.48016e-05
5.44306e-05
4.94063e-05
4.84804e-05
4.46342e-05
3.35511e-05
2.72327e-05
1.10391e-05
6.69565e-06
2.83925e-06
8.99773e-07
3.89829e-07
4.81781e-08
8.61765e-10
1.0231e-09
6.41818e-09
1.25465e-08
3.17238e-09
3.15683e-07
2.24316e-07
2.05424e-06
1.18462e-05
3.49962e-05
4.05625e-05
4.27714e-05
4.32171e-05
4.56669e-05
4.63857e-05
5.13771e-05
5.17519e-05
5.27711e-05
5.40578e-05
5.47985e-05
5.67497e-05
5.46754e-05
3.99454e-05
2.5648e-05
1.31084e-05
8.46079e-07
5.16857e-07
5.30776e-07
3.01096e-07
6.87843e-07
1.18832e-07
1.09129e-08
8.10443e-09
4.89941e-08
1.83809e-09
5.43699e-08
2.3628e-07
8.73041e-08
9.50734e-07
1.74697e-05
4.07713e-05
3.62309e-05
3.38398e-05
4.26266e-05
6.13684e-05
6.93266e-05
7.44039e-05
2.201e-05
9.14743e-06
6.9413e-06
5.47118e-06
4.44735e-06
3.85283e-06
3.50803e-06
4.13149e-06
1.94438e-06
3.20854e-07
1.84265e-09
4.5361e-10
1.9115e-10
5.81527e-11
1.06361e-12
9.4443e-14
1.59219e-15
1.76305e-18
1.40289e-32
2.26188e-32
1.49499e-32
1.03477e-35
2.38806e-39
1.5546e-42
1.40619e-45
3.35713e-49
2.24065e-53
1.66113e-57
1.04234e-61
7.9559e-66
5.87975e-70
6.08364e-74
6.01558e-78
7.62418e-82
8.71961e-86
1.18641e-89
1.41155e-93
1.91063e-97
2.2722e-101
2.99004e-105
3.60097e-109
4.67613e-113
5.61957e-117
7.19007e-121
8.81964e-125
1.11171e-128
1.46724e-132
3.09403e-136
2.72754e-148
7.69636e-152
1.17701e-155
1.75753e-159
2.59268e-163
3.83311e-167
5.46705e-171
3.74125e-176
9.74362e-181
4.68664e-185
2.85867e-189
1.34326e-193
3.89884e-198
8.16719e-203
1.37646e-207
2.11253e-212
3.04205e-217
4.45974e-222
6.77517e-227
1.13849e-231
2.11124e-236
4.55922e-241
1.10723e-245
3.08406e-250
1.01678e-254
3.5602e-259
1.18349e-263
3.57388e-268
9.62563e-273
1.48569e-277
7.44422e-300
3.80985e-301
3.91468e-305
2.27492e-309
1.00861e-313
3.70163e-318
1.23516e-322
0
0
0
0
0
0
0
0
0
0
0
0
0
0
0
0
0
0
0
0
0
0
0
0
0
0
0
0
0
0
0
0
0
0
0
0
0
0
0
0
0
0
0
0
0
0
0
0
0
0
0
0
0
0
0
0
0
0
0
0
0
0
0
0
0
0
0
0
0
0
0
0
0
0
0
0
0
0
0
0
0
0
0
0
0
0
0
0
0
0
0
0
0
0
0
0
0
0
0
0
0
0
0
0
0
0
0
0
0
0
0
0
0
1.61538e-05
2.20514e-05
4.04387e-05
6.93812e-05
7.93587e-05
5.84004e-05
1.86595e-05
2.29866e-06
3.72252e-07
7.45773e-08
1.5488e-08
5.16729e-08
2.24002e-06
2.69667e-06
1.33638e-07
3.3155e-07
1.24819e-07
9.05469e-08
2.39084e-07
4.43461e-06
5.35722e-05
0.000221912
0.000294633
0.000359759
0.000342098
0.000386354
0.000407432
0.000407148
0.000417731
0.000235258
4.44517e-05
8.71382e-06
2.09412e-06
4.99455e-07
1.10617e-07
6.04359e-08
5.10653e-08
9.46287e-08
2.92972e-07
1.50925e-06
6.60645e-06
2.17302e-05
3.33378e-05
2.33927e-06
6.22556e-06
1.12877e-05
1.41542e-05
9.9904e-06
7.90606e-06
6.63719e-06
8.34667e-06
1.30597e-05
2.61155e-05
4.87513e-05
6.64344e-05
8.27592e-05
9.82641e-05
9.34583e-05
0.000106216
8.65724e-05
4.72996e-05
2.44529e-05
1.27995e-05
1.43222e-05
3.21146e-05
3.89179e-05
1.13515e-05
6.29474e-07
1.35979e-07
5.58761e-07
2.23102e-06
5.25307e-06
6.59069e-06
3.61544e-06
8.02648e-06
2.98571e-05
4.44268e-05
4.6655e-05
4.97069e-05
4.26483e-05
4.26627e-05
4.17989e-05
4.3952e-05
3.93104e-05
4.54502e-05
5.56417e-05
6.31378e-05
6.46366e-05
6.45683e-05
5.91551e-05
3.9976e-05
1.49734e-05
5.34283e-06
2.49647e-06
1.48432e-06
7.96598e-07
3.64123e-07
1.67163e-07
1.48422e-07
3.6164e-07
1.30771e-06
5.06914e-06
1.19078e-05
1.55106e-05
1.15351e-06
7.42731e-07
8.36607e-07
1.67492e-06
3.82754e-06
7.25469e-06
1.0114e-05
1.59357e-05
3.29618e-05
5.21826e-05
6.3222e-05
6.34214e-05
5.88766e-05
6.68993e-05
6.93884e-05
6.84503e-05
6.20846e-05
4.74133e-05
3.88442e-05
1.13121e-05
4.27822e-06
1.09218e-06
4.82534e-07
2.1002e-07
7.07042e-07
2.04809e-08
2.94437e-08
1.04214e-07
2.78846e-07
9.98253e-08
2.91652e-07
1.92919e-07
5.32885e-06
3.38866e-05
4.82304e-05
5.63705e-05
5.59052e-05
5.68653e-05
5.46994e-05
5.55293e-05
5.55041e-05
5.49057e-05
5.796e-05
5.71772e-05
5.99662e-05
6.00265e-05
5.8972e-05
4.43483e-05
3.07059e-05
2.28747e-05
2.67243e-05
3.40217e-05
3.18326e-05
1.87459e-05
1.01839e-05
2.49917e-06
1.47107e-07
4.30106e-09
1.05675e-08
2.20228e-10
7.41337e-08
5.55428e-09
3.4824e-06
7.55206e-06
3.77088e-05
6.12772e-05
6.29972e-05
6.11615e-05
5.41585e-05
6.49784e-05
5.68948e-05
5.24606e-05
5.37837e-05
5.55146e-05
5.6329e-05
5.55878e-05
4.9481e-05
4.9534e-05
6.23807e-05
6.38578e-05
5.40367e-05
1.21178e-05
3.22793e-06
9.65969e-07
1.43539e-06
4.2458e-06
4.16003e-08
1.9608e-08
1.26588e-10
1.66444e-14
1.23544e-33
2.33127e-30
1.96113e-29
1.89468e-32
1.51475e-37
4.08422e-42
2.638e-47
2.6081e-52
1.70419e-56
4.41578e-61
2.65568e-65
1.00584e-69
1.03216e-73
6.57421e-78
9.09129e-82
6.57405e-86
7.74597e-90
6.73052e-94
7.56979e-98
7.4021e-102
8.71223e-106
1.01881e-109
1.33137e-113
1.91109e-117
2.69005e-121
4.40409e-125
6.42427e-129
1.13076e-132
1.67785e-136
1.73881e-141
3.54762e-153
2.34749e-155
3.21959e-159
4.64228e-163
7.29493e-167
1.09584e-170
1.7207e-174
2.58432e-178
1.05422e-182
6.05587e-187
4.87537e-191
2.20472e-195
7.24095e-200
1.58831e-204
2.6733e-209
3.67122e-214
4.30133e-219
4.80954e-224
5.33898e-229
6.85697e-234
9.66273e-239
1.58562e-243
2.97791e-248
6.53682e-253
1.79156e-257
5.65987e-262
1.74227e-266
4.86301e-271
1.11542e-275
6.64593e-282
2.41309e-303
9.22961e-304
9.23121e-308
4.95848e-312
2.02746e-316
7.03549e-321
0
0
0
0
0
0
0
0
0
0
0
0
0
0
0
0
0
0
0
0
0
0
0
0
0
0
0
0
0
0
0
0
0
0
0
0
0
0
0
0
0
0
0
0
0
0
0
0
0
0
0
0
0
0
0
0
0
0
0
0
0
0
0
0
0
0
0
0
0
0
0
0
0
0
0
0
0
0
0
0
0
0
0
0
0
0
0
0
0
0
0
0
0
0
0
0
0
0
0
0
0
0
0
0
0
0
0
0
0
0
0
0
0
0
5.70024e-05
0.000179947
0.000498775
0.000723146
0.000672693
0.000583876
0.000485584
0.000287046
6.81219e-05
9.19163e-06
2.99166e-07
8.76996e-09
4.4558e-07
9.96555e-07
4.18892e-08
9.61597e-08
8.62485e-08
7.58215e-07
5.09587e-05
0.000277829
0.000333361
0.000299613
0.000242983
0.000259676
0.000202129
0.000239885
0.000242214
0.000303178
0.000344451
0.00039221
0.000383672
0.000225525
4.10543e-05
5.34952e-06
6.60619e-07
6.83567e-08
4.55863e-08
5.55837e-08
1.20563e-07
4.02907e-07
2.50496e-06
4.02115e-06
9.47412e-06
7.41698e-07
6.55359e-06
1.01806e-05
1.06509e-05
7.33826e-06
4.76694e-06
4.58947e-06
6.47749e-06
1.42056e-05
3.37593e-05
6.61257e-05
8.97634e-05
0.000111467
0.000120589
0.0001253
0.000107838
8.06075e-05
3.01554e-05
8.50508e-06
3.51107e-06
2.17076e-06
7.32723e-06
3.43942e-05
3.11991e-05
1.33206e-06
1.21142e-07
5.72096e-07
2.16641e-06
4.38333e-06
5.72342e-06
6.54557e-06
5.47998e-06
1.98169e-05
3.30556e-05
3.90962e-05
4.23196e-05
4.36327e-05
4.20586e-05
3.52007e-05
3.79402e-05
4.78684e-05
5.95215e-05
6.84013e-05
6.47738e-05
5.65479e-05
3.393e-05
8.75691e-06
2.43138e-06
8.20516e-07
3.99824e-07
2.79961e-07
2.27603e-07
1.72533e-07
1.40845e-07
1.07441e-07
8.62254e-08
1.76158e-07
1.02627e-06
5.86905e-06
1.28783e-05
1.43552e-05
9.87963e-07
6.18837e-07
6.94437e-07
1.58811e-06
4.48273e-06
7.07578e-06
7.91501e-06
9.57874e-06
1.8515e-05
4.37109e-05
6.28942e-05
6.48373e-05
6.51529e-05
6.53293e-05
7.20758e-05
7.95769e-05
7.79768e-05
6.14779e-05
3.84541e-05
1.36215e-05
3.66977e-06
7.28303e-07
1.92116e-07
1.90553e-07
1.27592e-07
7.65087e-08
3.00658e-08
7.79984e-08
2.10502e-07
1.88303e-07
2.62733e-07
1.59521e-07
9.07564e-06
4.12738e-05
5.72638e-05
6.0117e-05
5.80852e-05
5.768e-05
5.21111e-05
5.05259e-05
4.5451e-05
4.71899e-05
4.41109e-05
4.77029e-05
4.31214e-05
4.97166e-05
5.27971e-05
6.01971e-05
6.24524e-05
5.92358e-05
5.74902e-05
4.15845e-05
4.21093e-05
3.69652e-05
4.29293e-05
2.5086e-05
4.3594e-06
3.17382e-08
1.043e-08
3.36415e-10
5.07232e-08
4.60583e-10
4.97274e-07
2.24171e-05
4.74187e-05
6.4525e-05
6.45855e-05
6.53176e-05
6.28215e-05
4.96035e-05
2.65951e-05
3.33737e-05
3.0514e-05
2.83142e-05
2.96203e-05
3.06281e-05
3.49199e-05
3.56396e-05
5.27705e-05
3.62473e-05
2.73905e-05
2.83451e-05
3.06234e-05
3.10984e-05
3.16022e-05
2.67267e-05
5.03821e-06
1.85756e-06
1.53691e-07
3.48751e-10
7.53416e-26
1.58187e-22
3.59804e-22
9.2355e-24
4.18869e-28
1.17187e-32
4.1907e-38
2.13966e-44
6.17691e-51
5.26939e-56
1.52719e-60
1.01731e-64
4.56163e-69
4.52348e-73
2.95776e-77
3.41348e-81
2.71259e-85
3.07287e-89
2.77013e-93
3.00265e-97
3.08137e-101
3.43351e-105
4.20985e-109
5.34677e-113
7.75134e-117
1.09793e-120
1.75829e-124
2.63388e-128
4.23464e-132
2.59313e-136
6.96543e-148
6.16643e-151
7.56398e-155
1.16519e-158
1.673e-162
2.61826e-166
3.79659e-170
5.861e-174
8.50048e-178
7.5594e-182
4.04271e-186
1.43712e-190
3.31179e-195
5.71562e-200
7.69035e-205
9.2692e-210
9.89522e-215
1.05385e-219
1.11887e-224
1.31254e-229
1.68383e-234
2.53332e-239
4.41419e-244
9.35492e-249
2.35288e-253
6.91297e-258
1.89052e-262
4.81971e-267
1.03293e-271
3.77109e-277
1.1556e-297
2.03335e-299
1.70134e-303
7.87023e-308
2.88085e-312
8.89665e-317
2.52962e-321
0
0
0
0
0
0
0
0
0
0
0
0
0
0
0
0
0
0
0
0
0
0
0
0
0
0
0
0
0
0
0
0
0
0
0
0
0
0
0
0
0
0
0
0
0
0
0
0
0
0
0
0
0
0
0
0
0
0
0
0
0
0
0
0
0
0
0
0
0
0
0
0
0
0
0
0
0
0
0
0
0
0
0
0
0
0
0
0
0
0
0
0
0
0
0
0
0
0
0
0
0
0
0
0
0
0
0
0
0
0
0
0
0
0.000483349
0.000833205
0.000726717
0.000493043
0.00042199
0.00041945
0.000465253
0.000484731
0.000422107
0.000243903
2.29272e-05
3.67689e-08
8.31835e-08
4.29994e-07
1.13419e-08
5.92584e-08
9.57511e-06
0.000271935
0.000319796
0.00024283
0.00017495
0.000135921
8.4282e-05
4.58777e-05
1.51174e-05
1.36324e-05
4.57306e-05
0.000147601
0.000240713
0.000301922
0.000361256
0.000410964
0.000308078
6.11801e-05
4.05999e-06
2.20517e-07
4.2792e-08
3.88066e-08
4.69585e-08
7.3976e-08
5.82783e-08
3.00201e-08
1.98131e-06
2.95304e-07
6.43006e-06
1.01107e-05
8.756e-06
5.19038e-06
3.34574e-06
3.47844e-06
5.33694e-06
1.38927e-05
3.78457e-05
7.70417e-05
0.000102089
0.000114108
0.000115066
0.000115662
0.000102544
8.50902e-05
6.02117e-05
3.4646e-05
7.20257e-06
1.99151e-06
2.96182e-06
2.10953e-05
3.8701e-05
2.41747e-06
6.71901e-08
2.20856e-07
1.21852e-06
2.58585e-06
3.38649e-06
4.32818e-06
4.08647e-06
1.05156e-05
2.27157e-05
3.38796e-05
4.07909e-05
3.549e-05
3.35096e-05
3.827e-05
5.91585e-05
7.40576e-05
7.15338e-05
7.41393e-05
5.58569e-05
1.83663e-05
3.4342e-06
1.34401e-06
5.46609e-07
3.68221e-07
4.08892e-07
2.87281e-07
1.49446e-07
1.05481e-07
7.09703e-08
6.00048e-08
4.86658e-08
6.79469e-08
3.8416e-07
4.74707e-06
1.05896e-05
1.07359e-05
1.00303e-06
7.26052e-07
1.26818e-06
3.25584e-06
6.90815e-06
6.7103e-06
5.96798e-06
6.30568e-06
1.12962e-05
3.41602e-05
5.89796e-05
6.57347e-05
6.73158e-05
6.91932e-05
7.42038e-05
8.0018e-05
8.06621e-05
6.98009e-05
4.08117e-05
1.06525e-05
3.01168e-06
5.8616e-07
1.18122e-07
6.10774e-08
7.92978e-08
9.22662e-08
8.45897e-08
1.57765e-08
4.76882e-08
7.3118e-08
2.76348e-07
3.50355e-07
8.91702e-06
4.12421e-05
5.93491e-05
5.93101e-05
5.30672e-05
4.33653e-05
3.72273e-05
2.89065e-05
2.69533e-05
2.53295e-05
2.48847e-05
2.56606e-05
2.83977e-05
2.84402e-05
3.19531e-05
3.5431e-05
3.84388e-05
4.47599e-05
4.93659e-05
5.92753e-05
5.80261e-05
4.5589e-05
5.49737e-05
5.36552e-05
3.535e-05
1.25751e-06
5.98669e-08
1.73522e-09
2.63279e-08
3.98557e-11
1.73048e-07
8.6907e-06
5.22198e-05
6.60161e-05
6.32232e-05
6.25614e-05
5.34257e-05
2.69908e-05
1.49107e-05
1.86388e-05
1.62855e-05
1.45226e-05
1.61445e-05
1.37096e-05
1.57085e-05
1.53749e-05
1.65331e-05
1.98737e-05
1.61604e-05
1.76764e-05
1.75834e-05
1.22399e-05
8.08153e-06
8.41467e-06
8.1485e-06
5.33879e-06
1.84009e-06
4.03834e-08
1.13523e-19
7.52629e-17
3.84358e-16
2.93411e-18
4.88979e-22
5.71724e-26
2.88359e-30
1.67002e-35
1.64068e-41
4.68795e-48
4.5811e-53
1.17211e-57
1.20823e-61
5.22865e-66
5.84971e-70
4.04688e-74
5.1045e-78
3.97903e-82
5.01542e-86
4.1919e-90
5.19066e-94
4.70215e-98
6.12356e-102
6.47809e-106
9.56357e-110
1.19804e-113
1.95376e-117
2.70997e-121
4.50749e-125
6.57192e-129
2.10834e-140
6.42415e-144
7.8269e-148
1.09654e-151
1.69206e-155
2.45216e-159
3.7432e-163
5.40052e-167
8.14189e-171
1.16374e-174
1.57126e-178
4.34651e-183
8.96144e-188
1.28545e-192
1.57006e-197
1.61356e-202
1.55965e-207
1.4084e-212
1.31959e-217
1.2784e-222
1.4009e-227
1.72009e-232
2.55044e-237
4.47095e-242
9.607e-247
2.37938e-251
6.00099e-256
1.40596e-260
3.04028e-265
2.93714e-270
8.70134e-290
1.64685e-292
1.06385e-296
4.30656e-301
1.36625e-305
3.85772e-310
9.7651e-315
2.3604e-319
4.94066e-324
0
0
0
0
0
0
0
0
0
0
0
0
0
0
0
0
0
0
0
0
0
0
0
0
0
0
0
0
0
0
0
0
0
0
0
0
0
0
0
0
0
0
0
0
0
0
0
0
0
0
0
0
0
0
0
0
0
0
0
0
0
0
0
0
0
0
0
0
0
0
0
0
0
0
0
0
0
0
0
0
0
0
0
0
0
0
0
0
0
0
0
0
0
0
0
0
0
0
0
0
0
0
0
0
0
0
0
0
0
0
0
0.00105179
0.000859389
0.000447622
0.000338035
0.000394532
0.000432759
0.000381061
0.000359027
0.000363923
0.000327715
0.000132791
3.42914e-07
1.94751e-08
1.8111e-07
1.29347e-08
5.53147e-06
0.000317309
0.000328698
0.000216037
0.00011339
2.6829e-05
1.3679e-06
2.01849e-07
6.5341e-08
6.80901e-08
7.25741e-08
1.36198e-07
1.21137e-06
9.44457e-05
0.000232655
0.000307038
0.000364599
0.000415
0.000260755
2.88212e-05
8.43351e-07
4.29147e-08
1.65368e-08
7.00116e-09
2.91498e-09
1.19039e-09
2.61921e-09
9.52986e-08
1.41286e-07
6.06098e-06
8.37473e-06
6.63865e-06
3.94898e-06
2.95543e-06
3.26596e-06
5.61618e-06
1.35467e-05
3.7675e-05
7.14718e-05
8.80696e-05
9.45126e-05
9.75847e-05
0.000104626
0.000109075
0.000106864
0.000117124
8.65201e-05
3.51811e-05
4.69054e-06
2.673e-06
1.97187e-05
4.44387e-05
1.61017e-06
3.21894e-08
6.18434e-08
4.32028e-07
1.3476e-06
1.57129e-06
2.29178e-06
3.09756e-06
8.14968e-06
1.60671e-05
2.76346e-05
3.02744e-05
3.1476e-05
3.82019e-05
7.02199e-05
7.07324e-05
6.43001e-05
7.00297e-05
6.48421e-05
1.92457e-05
3.69797e-06
1.50242e-06
1.76914e-06
2.68268e-06
3.55281e-06
3.98038e-06
2.97905e-06
2.1941e-06
1.26063e-06
4.85162e-07
2.33992e-07
1.02876e-07
6.09133e-08
1.33744e-07
1.37033e-06
7.91527e-06
9.11165e-06
1.06146e-06
1.1645e-06
2.94889e-06
7.21329e-06
7.27296e-06
5.68297e-06
4.90102e-06
5.44259e-06
9.6359e-06
2.88061e-05
5.58673e-05
6.63185e-05
6.83847e-05
6.72831e-05
7.21137e-05
7.24201e-05
8.24084e-05
7.97732e-05
3.78235e-05
8.35933e-06
1.5736e-06
3.35117e-07
8.05999e-08
3.66091e-08
3.1426e-08
2.47684e-08
8.26495e-09
5.65813e-09
3.66375e-09
3.04079e-08
1.38908e-05
1.06082e-06
6.11653e-06
3.42548e-05
6.04881e-05
5.66349e-05
3.93419e-05
3.00917e-05
2.02591e-05
1.73724e-05
1.57573e-05
2.26945e-05
3.33427e-05
3.18225e-05
3.83355e-05
3.15594e-05
3.56659e-05
3.25707e-05
2.88433e-05
2.86514e-05
3.13112e-05
4.00199e-05
5.48252e-05
4.56871e-05
5.43875e-05
4.97148e-05
4.91931e-05
4.73339e-05
1.39266e-06
5.43199e-09
1.91999e-08
6.73463e-12
2.15031e-07
1.88689e-05
6.17473e-05
6.3764e-05
6.29896e-05
6.01825e-05
3.81722e-05
1.89244e-05
1.40513e-05
2.25558e-05
2.29251e-05
2.45869e-05
2.30633e-05
1.8721e-05
1.46287e-05
1.1336e-05
9.71286e-06
8.79808e-06
1.12281e-05
9.8653e-06
9.33701e-06
6.82342e-06
4.82601e-06
5.93675e-06
7.46981e-06
8.94044e-06
3.2994e-06
1.36709e-07
4.21513e-15
5.61872e-12
2.14633e-12
2.06301e-14
4.64614e-18
5.9247e-22
7.26355e-26
9.0056e-30
2.99103e-34
8.28756e-40
6.13983e-46
1.47559e-50
7.01484e-55
5.42159e-59
3.50367e-63
3.13115e-67
3.06417e-71
2.82742e-75
3.11191e-79
2.82197e-83
3.28806e-87
2.93105e-91
3.63461e-95
3.43773e-99
4.86115e-103
5.31178e-107
8.71006e-111
1.08486e-114
1.827e-118
1.93896e-122
7.29664e-134
2.54414e-137
3.11678e-141
4.72151e-145
6.84519e-149
1.0435e-152
1.51857e-156
2.27576e-160
3.29056e-164
4.84869e-168
6.96328e-172
9.92449e-176
1.74565e-180
2.20453e-185
2.30962e-190
2.12182e-195
1.76357e-200
1.40359e-205
1.11526e-210
9.24426e-216
8.35519e-221
8.46638e-226
1.00778e-230
1.42995e-235
2.45483e-240
5.03321e-245
1.12945e-249
2.46899e-254
4.98953e-259
3.92509e-264
1.31501e-282
8.66098e-286
4.5166e-290
1.54627e-294
4.32851e-299
1.08161e-303
2.49124e-308
5.45066e-313
1.14065e-317
2.32211e-322
0
0
0
0
0
0
0
0
0
0
0
0
0
0
0
0
0
0
0
0
0
0
0
0
0
0
0
0
0
0
0
0
0
0
0
0
0
0
0
0
0
0
0
0
0
0
0
0
0
0
0
0
0
0
0
0
0
0
0
0
0
0
0
0
0
0
0
0
0
0
0
0
0
0
0
0
0
0
0
0
0
0
0
0
0
0
0
0
0
0
0
0
0
0
0
0
0
0
0
0
0
0
0
0
0
0
0
0
0
0
0.000948241
0.000456836
0.000320506
0.000408526
0.000468568
0.000346893
0.000188061
6.65073e-05
2.55664e-05
4.9802e-05
8.38884e-05
1.44051e-06
6.21956e-09
8.74123e-08
7.08571e-08
0.000186318
0.000380407
0.000204316
7.81468e-05
1.7049e-06
9.01855e-08
3.31212e-08
2.6531e-08
3.41794e-08
5.37696e-08
8.56193e-08
1.08938e-07
2.42181e-07
6.32383e-06
0.000151564
0.000261344
0.000330762
0.000390157
0.000391172
0.000126542
5.46244e-06
8.82358e-08
5.70868e-09
8.59975e-10
1.58092e-10
6.72462e-11
6.26963e-11
2.28451e-08
1.14818e-07
5.76544e-06
6.90664e-06
5.02217e-06
3.12271e-06
2.628e-06
3.58945e-06
7.24133e-06
1.6219e-05
5.05392e-05
8.60837e-05
9.59883e-05
9.53824e-05
9.608e-05
0.000105856
0.00012248
0.000130007
0.000124592
8.60317e-05
2.86416e-05
5.29951e-06
4.24792e-06
3.55932e-05
3.95023e-05
3.33565e-07
1.76093e-08
6.38878e-08
3.90491e-07
6.54073e-07
6.75749e-07
1.13303e-06
2.70576e-06
6.93357e-06
1.57703e-05
1.99676e-05
2.42495e-05
3.48835e-05
7.05137e-05
6.93491e-05
6.17464e-05
6.12368e-05
6.89389e-05
3.85322e-05
7.44703e-06
3.80306e-06
5.02361e-06
8.08768e-06
1.01521e-05
9.35998e-06
9.08703e-06
8.30157e-06
8.54724e-06
7.185e-06
2.86516e-06
1.45912e-06
6.59137e-07
2.3683e-07
1.16729e-07
3.94834e-07
2.23993e-06
3.71881e-06
1.10534e-06
2.08364e-06
6.01577e-06
1.02043e-05
9.69044e-06
7.51555e-06
5.58595e-06
5.68082e-06
9.52058e-06
2.57763e-05
5.37508e-05
6.60009e-05
6.80669e-05
6.88569e-05
6.71345e-05
7.12789e-05
7.33684e-05
7.62427e-05
5.33839e-05
1.01385e-05
9.98245e-07
2.63513e-07
7.02663e-08
3.69053e-08
1.50237e-08
5.12017e-09
7.76932e-10
2.28997e-09
1.63658e-09
7.1152e-09
1.94551e-07
1.25274e-06
7.30077e-06
3.74924e-05
5.90317e-05
4.21468e-05
2.83701e-05
1.87433e-05
1.37452e-05
1.82978e-05
4.67178e-05
0.00011138
0.000150612
0.000103285
7.95638e-05
6.77142e-05
6.29096e-05
7.20077e-05
8.37813e-05
0.000107289
9.66746e-05
8.29874e-05
2.9093e-05
4.08869e-05
5.07077e-05
4.31888e-05
3.03337e-05
3.67594e-05
3.23324e-05
1.88802e-08
2.90316e-08
8.46786e-10
1.85942e-06
6.18489e-05
5.81015e-05
5.74259e-05
5.96362e-05
5.45395e-05
3.03745e-05
1.54173e-05
2.01214e-05
3.42762e-05
4.61604e-05
4.13469e-05
4.19558e-05
2.80045e-05
2.22985e-05
1.50012e-05
1.20188e-05
9.78438e-06
9.12781e-06
8.18574e-06
8.0444e-06
5.36274e-06
5.22401e-06
7.43062e-06
5.919e-06
6.66825e-06
4.17813e-06
5.67362e-07
1.95121e-09
1.14629e-08
3.4436e-09
8.32852e-11
1.21838e-14
3.533e-18
3.80706e-22
4.37469e-26
7.76306e-30
1.09129e-33
9.39495e-39
5.78461e-44
3.987e-48
2.19766e-52
2.28801e-56
1.70275e-60
1.98927e-64
1.6604e-68
1.99406e-72
1.78025e-76
2.11806e-80
1.94525e-84
2.2717e-88
2.1878e-92
2.68097e-96
2.94008e-100
4.12691e-104
5.22785e-108
8.0112e-112
1.17381e-115
4.67195e-127
1.06579e-130
1.41571e-134
2.01085e-138
3.13806e-142
4.55972e-146
7.01089e-150
1.01212e-153
1.52839e-157
2.18075e-161
3.23929e-165
4.57262e-169
6.62814e-173
6.97923e-178
6.43837e-183
5.04407e-188
3.67923e-193
2.5146e-198
1.73754e-203
1.2197e-208
9.24442e-214
7.66618e-219
7.36006e-224
8.11857e-229
1.06352e-233
1.70013e-238
3.32812e-243
6.77098e-248
1.3148e-252
1.3889e-257
6.27548e-275
8.642e-279
3.35013e-283
9.50641e-288
2.29165e-292
5.05696e-297
1.0417e-301
2.06785e-306
3.95013e-311
7.41651e-316
1.35769e-320
0
0
0
0
0
0
0
0
0
0
0
0
0
0
0
0
0
0
0
0
0
0
0
0
0
0
0
0
0
0
0
0
0
0
0
0
0
0
0
0
0
0
0
0
0
0
0
0
0
0
0
0
0
0
0
0
0
0
0
0
0
0
0
0
0
0
0
0
0
0
0
0
0
0
0
0
0
0
0
0
0
0
0
0
0
0
0
0
0
0
0
0
0
0
0
0
0
0
0
0
0
0
0
0
0
0
0
0
0
0.000636766
0.000368466
0.000368578
0.000497554
0.000498014
0.000372416
5.66034e-05
1.69549e-06
7.10902e-07
1.71828e-06
1.13818e-05
5.58001e-07
2.51337e-09
3.02259e-07
5.3373e-06
0.000192769
0.000214842
9.31808e-05
1.33174e-06
7.96358e-08
3.77709e-08
3.5827e-08
4.70309e-08
1.42492e-07
3.8511e-07
5.32494e-07
1.10233e-06
2.03246e-06
1.38709e-05
0.000127913
0.00021492
0.00029587
0.000362738
0.000418075
0.000283436
2.33917e-05
2.33921e-07
2.18063e-09
1.7735e-10
7.09897e-11
7.00734e-11
3.94287e-11
2.00668e-08
1.46289e-07
4.87658e-06
5.06128e-06
4.06565e-06
2.82195e-06
2.64068e-06
4.60723e-06
1.04448e-05
3.18329e-05
7.96242e-05
0.00010043
9.69256e-05
9.26178e-05
0.000101494
0.000116607
0.000141547
0.000144118
0.000103409
5.86726e-05
1.98366e-05
6.81837e-06
1.52764e-05
5.29576e-05
4.00869e-06
3.06192e-08
3.64751e-08
2.00432e-07
3.97021e-07
4.18523e-07
3.86582e-07
4.56657e-07
2.69552e-06
7.07164e-06
1.29345e-05
1.64168e-05
2.76851e-05
5.60457e-05
6.91235e-05
6.03911e-05
5.89393e-05
6.67561e-05
5.45164e-05
2.00699e-05
1.13215e-05
1.13273e-05
1.09223e-05
8.67285e-06
6.18493e-06
5.43996e-06
4.47034e-06
3.86405e-06
4.4108e-06
6.51632e-06
1.02972e-05
5.56707e-06
2.49712e-06
7.3653e-07
1.95514e-07
2.30346e-07
1.20592e-06
2.82825e-06
1.40831e-06
4.19034e-06
1.24907e-05
2.9055e-05
3.88528e-05
2.68389e-05
1.15593e-05
7.71034e-06
9.56924e-06
2.16082e-05
4.78864e-05
6.45592e-05
7.26722e-05
6.5962e-05
6.41289e-05
6.45718e-05
6.47075e-05
7.23015e-05
6.81067e-05
3.91237e-05
3.72079e-06
4.35844e-07
6.47288e-08
1.21897e-08
2.70399e-09
1.31353e-09
2.39229e-09
5.24257e-09
6.08617e-09
8.27742e-09
5.75136e-08
1.1565e-06
5.54533e-06
3.8252e-05
7.03321e-05
4.21965e-05
2.02061e-05
1.3951e-05
1.9038e-05
3.94703e-05
9.05989e-05
0.000126762
8.65645e-05
6.61638e-05
4.54867e-05
4.51996e-05
4.49152e-05
5.10879e-05
6.78024e-05
8.88075e-05
0.000129734
0.000165515
0.000180091
0.000135287
3.10824e-05
2.39927e-05
1.8333e-05
2.04943e-05
4.72621e-05
1.65265e-07
2.52803e-07
1.35958e-06
3.32126e-05
6.1531e-05
5.64705e-05
5.69723e-05
5.74964e-05
4.71803e-05
2.42029e-05
1.56183e-05
2.22894e-05
3.24652e-05
4.58025e-05
5.58205e-05
4.37763e-05
3.89667e-05
2.10737e-05
1.65631e-05
1.22333e-05
1.08657e-05
9.81389e-06
7.77425e-06
7.98003e-06
6.27541e-06
6.9923e-06
8.24097e-06
9.63924e-06
4.96057e-06
5.32859e-06
1.00829e-06
1.56248e-06
2.9354e-06
1.25546e-06
1.82228e-07
7.06526e-11
1.13463e-14
1.56808e-18
1.56883e-22
2.07004e-26
6.0626e-30
1.33886e-33
4.05526e-38
1.55397e-42
1.15952e-46
1.077e-50
8.90388e-55
9.57672e-59
8.38875e-63
9.61382e-67
8.75093e-71
1.04208e-74
9.79524e-79
1.13177e-82
1.07716e-86
1.24133e-90
1.28292e-94
1.68223e-98
1.9768e-102
2.916e-106
4.0076e-110
1.69937e-121
2.98031e-125
4.52186e-129
7.05482e-133
1.05993e-136
1.61438e-140
2.41498e-144
3.63142e-148
5.37582e-152
7.93119e-156
1.16111e-159
1.68071e-163
2.42915e-167
3.43838e-171
2.69955e-176
1.78178e-181
1.08735e-186
6.33097e-192
3.70446e-197
2.2176e-202
1.42046e-207
9.91589e-213
7.85984e-218
6.91671e-223
7.03186e-228
8.68223e-233
1.37854e-237
2.47233e-242
4.41145e-247
4.99052e-252
3.46699e-268
1.28518e-272
3.50617e-277
7.94769e-282
1.62382e-286
3.11321e-291
5.71571e-296
1.01843e-300
1.77541e-305
3.04815e-310
5.17164e-315
8.69803e-320
0
0
0
0
0
0
0
0
0
0
0
0
0
0
0
0
0
0
0
0
0
0
0
0
0
0
0
0
0
0
0
0
0
0
0
0
0
0
0
0
0
0
0
0
0
0
0
0
0
0
0
0
0
0
0
0
0
0
0
0
0
0
0
0
0
0
0
0
0
0
0
0
0
0
0
0
0
0
0
0
0
0
0
0
0
0
0
0
0
0
0
0
0
0
0
0
0
0
0
0
0
0
0
0
0
0
0
0
0.000420082
0.000312735
0.000401858
0.000498341
0.000553585
0.000418207
1.272e-05
8.483e-07
3.26293e-06
3.82637e-06
3.01349e-06
1.55115e-07
6.67017e-10
1.70736e-09
8.22467e-07
8.58448e-05
0.000186669
0.000174213
6.25626e-05
1.92497e-06
1.60514e-07
8.00958e-08
4.77804e-08
9.22618e-08
1.57409e-07
3.47501e-07
7.17411e-07
2.00107e-06
6.7654e-06
2.40931e-05
8.4297e-05
0.000180101
0.000251255
0.000310045
0.000373721
0.000411592
0.000347247
3.08337e-05
1.55201e-07
5.6586e-10
9.06053e-11
1.54599e-10
6.06944e-10
1.68078e-09
3.50307e-08
1.4366e-07
2.71125e-07
5.63627e-07
2.35992e-06
4.39611e-06
3.28987e-06
3.01632e-06
8.08604e-06
2.85708e-05
8.56094e-05
0.000104008
9.65424e-05
9.58174e-05
9.627e-05
0.000103486
0.000114285
0.000144874
0.000150558
0.00011776
7.12982e-05
3.8392e-05
2.35087e-05
2.07243e-05
3.37252e-05
5.53307e-06
6.72129e-08
2.44006e-08
8.70197e-08
2.47262e-07
4.36967e-07
5.70594e-07
5.64154e-07
6.12123e-07
8.40231e-07
2.05833e-06
4.07876e-06
8.15816e-06
1.06743e-05
1.95504e-05
4.60275e-05
6.88308e-05
6.04423e-05
5.69968e-05
6.22465e-05
6.8254e-05
5.09767e-05
2.8317e-05
1.64982e-05
1.08276e-05
8.29087e-06
6.34001e-06
4.84701e-06
3.27789e-06
3.31729e-06
3.08051e-06
3.10545e-06
4.41669e-06
7.76144e-06
9.92735e-06
6.54792e-06
1.78458e-06
3.16192e-07
3.03657e-07
1.3296e-06
2.00705e-06
1.84403e-06
2.8545e-06
2.94471e-06
1.0377e-05
3.76541e-05
6.38999e-05
6.5742e-05
6.79308e-05
4.55045e-05
1.45013e-05
1.06278e-05
1.79463e-05
3.74263e-05
6.49852e-05
7.02622e-05
7.12047e-05
6.25435e-05
5.63397e-05
6.04924e-05
5.90315e-05
6.49815e-05
6.70059e-05
4.41603e-05
4.67327e-06
2.26604e-07
1.61233e-08
3.74428e-09
7.03034e-09
2.39339e-08
3.14598e-08
3.73782e-08
2.96349e-08
2.60252e-08
8.63915e-08
2.2327e-07
1.6134e-06
9.77184e-06
5.20196e-05
8.18038e-05
3.96228e-05
2.1364e-05
2.06441e-05
2.75809e-05
5.4475e-05
9.43761e-05
7.13262e-05
4.54697e-05
4.58834e-05
4.75074e-05
4.7583e-05
4.78153e-05
4.61096e-05
4.8837e-05
6.50789e-05
0.000102942
0.000140617
0.000173183
0.00020553
0.000191804