/*--------------------------------*- C++ -*----------------------------------*\
| =========                 |                                                 |
| \\      /  F ield         | OpenFOAM: The Open Source CFD Toolbox           |
|  \\    /   O peration     | Version:  2.1.1                                 |
|   \\  /    A nd           | Web:      www.OpenFOAM.org                      |
|    \\/     M anipulation  |                                                 |
\*---------------------------------------------------------------------------*/
FoamFile
{
    version     2.0;
    format      ascii;
    class       volScalarField;
    location    "0.002950000";
    object      rhoUnburned;
}
// * * * * * * * * * * * * * * * * * * * * * * * * * * * * * * * * * * * * * //

dimensions      [1 -3 0 0 0 0 0];

internalField   nonuniform List<scalar> 
12384
(
1.42406
1.51678
1.70587
1.95621
2.28893
2.73351
3.53167
5.13646
5.17582
5.19346
5.28538
5.36313
5.20804
4.60061
4.06761
4.03267
4.03031
4.06289
4.05027
4.07713
4.00232
4.17351
4.07138
4.31685
4.66598
4.14344
3.36452
3.50692
3.7132
4.3212
4.9031
5.29252
5.46691
5.2878
5.31073
5.18569
5.20423
5.06043
5.02555
4.56401
4.302
4.07449
3.11357
2.28121
3.55394
3.51645
3.43289
3.45463
3.38559
3.35211
3.33767
3.20888
3.22188
3.18371
3.34578
3.22668
3.74096
3.96428
4.06703
4.24034
4.32592
4.18104
4.52805
4.59363
4.87623
5.05402
5.39433
5.71325
6.06067
6.03699
5.51328
5.08846
4.61389
3.20454
4.36249
4.20889
4.21177
4.57626
4.75787
4.63822
4.79156
5.03365
4.90777
5.05028
5.08938
5.04178
5.12593
5.288
5.21502
5.40555
5.46249
5.47251
5.43455
5.39438
5.40959
5.59107
5.98368
6.38442
6.50233
5.98102
5.77972
4.96632
4.88068
3.72687
5.6763
8.88332
8.24102
7.35803
7.49313
6.86025
6.4884
6.12037
5.8862
5.26755
4.33075
4.58393
3.75035
3.99673
3.60137
3.37094
3.4511
2.9
3.11415
2.60382
2.78928
2.81818
2.33089
2.09232
2.14169
2.11304
2.32012
2.16244
2.21258
2.15417
4.39619
7.43958
7.33783
7.20247
7.26604
7.05274
7.42341
7.70018
8.17892
8.35722
8.38347
8.04426
7.98458
7.23707
7.40484
6.6426
6.93829
6.80306
6.26282
7.80056
3.843
3.67548
3.80213
4.08677
4.52429
4.93354
5.64192
6.22895
7.05395
8.23041
3.38823
3.62453
3.47155
3.81706
3.98252
4.11848
3.93274
3.99478
3.62967
2.98183
2.56089
2.19075
1.93104
1.97959
2.01727
2.04154
2.28666
2.29707
2.4666
2.60368
2.67286
2.80636
2.89188
2.78616
3.13281
5.39388
8.8612
10.8827
10.9172
10.6698
1.02854
1.21305
1.1291
1.16564
1.05153
0.946273
0.92536
0.926567
0.921805
0.92297
0.910383
0.914682
0.901207
0.906042
0.894476
0.896644
0.893435
0.887217
0.890085
0.883303
0.886114
0.880508
0.882438
0.878539
0.879489
0.876883
0.877933
0.875906
0.876765
0.875191
0.866885
0.867346
0.86738
0.867245
0.867248
0.867119
0.867096
0.866957
0.86693
0.866772
0.866776
0.866648
0.866572
0.866611
0.866446
0.866515
0.866313
0.866366
0.86618
0.866225
0.866087
0.866116
0.866021
0.86603
0.865962
0.865954
0.865917
0.865906
0.865854
0.865322
0.865204
0.865733
0.865773
0.865789
0.865795
0.86581
0.865824
0.86583
0.865843
0.865852
0.865864
0.865875
0.8659
0.865921
0.865936
0.86594
0.865929
0.865904
0.865871
0.865853
0.865843
0.865828
0.865815
0.865804
0.865793
0.865778
0.865772
0.86576
0.865726
0.865191
0.865196
0.865728
0.865764
0.865778
0.865785
0.865801
0.865811
0.865824
0.865831
0.865845
0.865855
0.865871
0.865898
0.865921
0.865938
0.86594
0.865926
0.865903
0.865874
0.865862
0.865849
0.865835
0.865825
0.865813
0.865799
0.865784
0.865778
0.865764
0.86573
0.865195
0.86519
0.865728
0.865765
0.865775
0.865778
0.865796
0.865808
0.865819
0.865834
0.865848
0.86586
0.865877
0.865901
0.865925
0.865942
0.865939
0.865927
0.865904
0.865875
0.865859
0.865852
0.865837
0.865825
0.865812
0.865804
0.865788
0.86578
0.865768
0.865734
0.865196
0.865198
0.865734
0.865767
0.865784
0.865793
0.865808
0.865817
0.86583
0.865839
0.865849
0.86586
0.865876
0.8659
0.865924
0.865937
0.865945
0.865928
0.865909
0.865888
0.865874
0.865858
0.865845
0.865828
0.86582
0.865806
0.865791
0.865782
0.865774
0.865735
0.8652
1.50652
1.56688
1.58941
1.6282
1.73057
1.953
2.4118
3.20694
4.60175
5.48355
5.51702
5.47236
5.30246
4.18989
4.04572
4.00757
4.05589
4.05774
4.02733
4.0456
4.01163
3.66466
2.65154
2.22635
1.81973
1.79755
1.65457
1.88974
2.11564
2.71288
3.40351
3.84807
4.26752
4.75679
5.2239
5.22208
5.13657
5.10269
4.86416
4.57063
4.34541
4.10976
3.93406
2.71945
3.54551
3.57585
3.52609
3.43637
3.45497
3.40969
3.33291
3.28826
3.2426
3.28948
3.15901
3.50275
3.54109
3.72823
4.02128
3.98251
4.17888
4.18144
4.42472
4.5618
4.83383
5.11618
5.42734
5.87165
6.04086
5.94243
5.49167
5.05476
4.78072
3.45706
4.80846
4.61237
4.66921
4.3998
4.5643
4.68288
4.67159
4.70272
4.8529
4.70958
4.84854
4.9049
4.83046
4.91495
5.09685
5.03854
5.21514
5.29688
5.32429
5.37152
5.4593
5.70296
6.01711
6.40983
6.2936
6.00997
5.50527
5.30577
4.90658
4.92503
7.44445
8.31146
7.51327
7.47351
6.75613
6.40235
6.19629
6.00545
5.3012
4.93594
4.82539
4.6961
4.28298
3.87095
3.88887
3.28899
3.4329
2.9103
3.07192
2.7416
2.93973
2.75289
3.11941
3.07618
2.40363
2.21655
2.31704
2.31021
2.35442
2.3412
4.56511
7.58797
6.79858
6.87704
6.7054
6.99518
7.14288
7.46248
7.81102
8.07432
8.0839
8.07441
7.63903
7.37482
7.0694
6.63292
6.53719
6.49375
6.29127
7.35106
3.91112
4.09792
6.26809
8.43667
7.83931
10.8372
10.8725
16.0691
6.33465
7.77074
3.65164
7.60918
6.6519
6.63003
5.88451
5.62244
5.73801
5.67493
5.62559
4.89097
4.24177
3.00286
3.19899
2.48074
2.09379
2.16221
2.18362
2.22854
2.36365
2.38474
2.64371
2.59413
2.77839
2.71384
2.9419
5.21467
9.23296
11.0706
12.0083
12.245
1.50621
1.48032
1.74502
1.55716
1.78675
1.51108
1.15835
0.970599
0.968264
0.95792
0.95236
0.946157
0.936654
0.933047
0.92788
0.921013
0.921542
0.912077
0.914786
0.906002
0.909237
0.901891
0.904862
0.898874
0.901235
0.89675
0.89838
0.895941
0.895722
0.884442
0.877151
0.888043
0.888725
0.888723
0.888693
0.888599
0.88871
0.888532
0.888746
0.888545
0.888842
0.888731
0.889155
0.889309
0.889557
0.889434
0.88925
0.888807
0.888557
0.888218
0.888119
0.887781
0.887725
0.887378
0.887333
0.886989
0.886947
0.886664
0.885953
0.874287
0.874184
0.885847
0.886578
0.886862
0.886887
0.887191
0.887231
0.887547
0.887565
0.887873
0.887907
0.888221
0.888376
0.888814
0.888922
0.8891
0.888839
0.888595
0.888086
0.887855
0.887683
0.887372
0.887323
0.887009
0.886996
0.886703
0.886731
0.88647
0.885905
0.873726
0.874215
0.885782
0.886642
0.886663
0.886954
0.886973
0.887297
0.887324
0.887635
0.887669
0.887985
0.888067
0.888503
0.888741
0.889078
0.888999
0.888922
0.888483
0.888281
0.887939
0.88788
0.887535
0.887498
0.887165
0.88712
0.886817
0.886765
0.886532
0.885813
0.874162
0.87369
0.8859
0.886624
0.886653
0.886953
0.886968
0.887307
0.88735
0.887683
0.887737
0.888077
0.888151
0.888581
0.888787
0.889065
0.889071
0.888806
0.888573
0.888135
0.888056
0.887725
0.887683
0.887362
0.887331
0.887005
0.886996
0.886689
0.886654
0.885918
0.873721
0.874164
0.885799
0.886684
0.886709
0.887032
0.887039
0.887386
0.887384
0.887713
0.887702
0.888037
0.88808
0.888495
0.888702
0.889064
0.889006
0.888928
0.888499
0.888293
0.887962
0.887907
0.887564
0.887531
0.887191
0.887153
0.886839
0.886784
0.886544
0.885818
0.874154
1.47692
1.40159
1.32014
1.29642
1.34372
1.44894
1.69388
2.09356
2.58093
3.27386
4.97101
5.74183
5.43852
4.0055
4.1992
4.10026
4.07517
4.17407
4.11971
2.74377
1.93816
1.54423
1.33146
1.25788
1.20319
1.20043
1.20566
1.24135
1.36923
1.72313
2.19983
2.55483
2.87324
3.43982
4.55877
5.12537
5.16224
4.98625
4.87072
4.62483
4.42542
4.16698
4.32745
3.11116
3.68289
3.53344
3.54003
3.56964
3.49461
3.45441
3.44446
3.30091
3.2696
3.28705
3.3398
3.20939
2.79665
2.99993
2.77679
3.40278
4.20509
4.35937
4.67405
4.73753
5.01046
5.11683
5.44596
5.79759
6.0234
5.85842
5.5132
5.13142
5.03176
4.35316
4.91773
4.9532
4.73938
4.79496
4.57711
4.63529
4.57609
4.48896
4.60093
4.81444
4.67425
4.76986
4.88466
4.78682
4.8852
5.12678
5.1353
5.33171
5.45366
5.40395
5.40202
5.64426
6.15394
6.31069
6.2633
5.68901
5.59127
5.14446
5.11669
4.88535
7.96886
7.4701
7.44351
6.70411
6.33604
6.09829
5.86038
5.38752
5.09603
5.07297
4.74556
4.71955
4.66502
4.27569
3.80438
3.47571
3.28986
2.95222
3.10755
2.97433
2.91387
3.18304
2.91748
3.23655
3.78808
2.407
2.5701
2.91182
2.81707
2.5475
5.02089
6.88093
6.37852
6.43089
6.7581
6.62577
7.14492
7.03332
7.52917
7.67299
7.84602
7.91118
7.28123
7.2736
6.5756
6.63666
6.20108
6.3821
6.22794
6.72459
6.80085
6.68097
7.59951
6.75845
7.91426
8.76539
10.549
13.387
6.80176
6.69041
3.50505
6.78067
5.06172
5.41367
5.24321
5.44178
5.45491
5.62876
5.52002
5.09195
3.61988
2.60352
2.74446
2.77141
2.64735
2.85467
2.98334
3.29987
3.21973
3.66625
6.6607
3.39687
2.50289
2.61443
2.81236
4.95917
7.82707
9.48297
10.0949
11.7532
1.6452
1.79337
1.62423
2.00304
1.93154
2.32132
2.03527
1.54695
1.15257
1.13316
1.13081
1.1245
1.12127
1.11049
1.11085
1.10031
1.10298
1.09407
1.09719
1.08941
1.09247
1.08556
1.08873
1.08274
1.08553
1.08086
1.08295
1.08007
1.08138
1.09531
1.08559
1.07092
1.06978
1.06948
1.0691
1.06881
1.06839
1.06809
1.06767
1.06735
1.06693
1.06654
1.06594
1.06539
1.06497
1.06488
1.06498
1.0653
1.06556
1.06576
1.06587
1.06606
1.06616
1.06634
1.06649
1.06666
1.06683
1.06701
1.06783
1.08344
1.08331
1.06772
1.06681
1.06658
1.06639
1.06623
1.06602
1.06586
1.06566
1.0655
1.06528
1.06508
1.06471
1.06433
1.06403
1.06397
1.06412
1.06458
1.06507
1.06541
1.06558
1.06584
1.06607
1.06624
1.06643
1.06658
1.06674
1.06693
1.06783
1.08329
1.08328
1.06773
1.06687
1.06661
1.06648
1.06628
1.06612
1.06592
1.06575
1.06554
1.06535
1.06507
1.06471
1.06425
1.064
1.06394
1.0642
1.06457
1.065
1.06522
1.06547
1.06567
1.06589
1.06607
1.0663
1.06647
1.06669
1.06684
1.0677
1.08329
1.08328
1.06772
1.06684
1.06669
1.06651
1.0663
1.0661
1.06588
1.06569
1.06545
1.06525
1.06498
1.06464
1.06422
1.06397
1.06398
1.06421
1.06465
1.06501
1.06528
1.06548
1.0657
1.06588
1.06609
1.06627
1.06647
1.06664
1.06686
1.0677
1.08327
1.08327
1.06771
1.06682
1.06656
1.06642
1.06623
1.06607
1.06588
1.06573
1.06553
1.06535
1.06509
1.06477
1.06432
1.06405
1.06393
1.06419
1.06455
1.06498
1.0652
1.06545
1.06566
1.06588
1.06606
1.0663
1.06647
1.06669
1.06684
1.06769
1.0833
1.25443
1.12888
1.04107
1.00119
1.0267
1.09354
1.22779
1.45595
1.73373
2.06542
2.95711
5.83241
5.51863
4.00595
4.09354
4.19786
4.18895
3.77627
2.03577
1.41302
1.17556
1.17041
1.23639
1.33279
1.46993
1.48231
1.40192
1.27149
1.16933
1.21035
1.39256
1.70392
2.05029
2.48484
3.36053
5.13827
5.0135
4.95915
4.83557
4.66713
4.43959
4.56063
4.33043
2.98257
3.69786
3.69705
3.57185
3.57533
3.59545
3.52429
3.3841
3.32184
3.29511
3.22957
2.90909
2.56501
2.42198
2.39403
2.70839
3.33532
4.07499
4.50166
4.84367
5.03703
5.26485
5.37481
5.46199
5.95671
6.08905
5.86693
5.5844
5.41304
5.10051
5.01337
6.48815
5.6155
5.17659
4.75198
4.74973
4.52823
4.60676
4.55862
4.44496
4.45077
4.6082
4.48047
4.5645
4.7338
4.72557
4.9651
5.20534
5.16473
5.24109
5.32007
5.30603
5.45053
5.99823
6.22625
5.96534
5.76139
5.34789
5.19913
5.05103
4.87838
6.66524
6.91207
6.59514
6.43856
6.09366
5.90578
5.36785
5.3208
5.20166
4.84561
4.81694
4.75437
4.72039
4.55674
4.11706
3.39944
3.53879
2.83841
3.20536
2.90781
3.12049
3.13889
3.78872
4.00144
4.02482
4.16997
4.92672
4.06802
5.30288
2.96153
5.97579
6.42833
5.79064
6.0883
6.31176
6.48477
6.77926
6.76707
7.23744
7.3358
7.58897
7.53136
7.38519
6.59767
6.51586
5.70868
5.98261
5.73461
5.85561
6.42316
6.4295
6.73587
6.77228
7.8933
7.63969
8.79691
9.57228
12.4939
6.39126
6.99579
3.46957
7.03584
5.34375
5.90177
5.36924
5.45996
5.32181
5.42749
5.33985
4.52384
3.52717
2.1801
2.62579
2.59754
2.50827
2.75872
3.03755
3.03037
3.41587
3.29511
3.44909
3.70465
4.19401
5.23517
6.74808
12.1671
6.07134
7.28152
7.80656
9.44726
1.61266
1.26354
1.60716
1.44165
1.95278
1.95935
2.40671
2.28694
1.74372
1.16759
1.13256
1.13319
1.12735
1.12205
1.1168
1.11331
1.10819
1.1064
1.10228
1.10031
1.09786
1.09554
1.09398
1.09261
1.09062
1.09065
1.08865
1.08915
1.08796
1.09079
1.08024
1.07748
1.07715
1.07716
1.07694
1.07691
1.07668
1.07661
1.07636
1.0763
1.07606
1.07601
1.07577
1.07571
1.07551
1.07549
1.07535
1.07537
1.07526
1.07529
1.0752
1.0752
1.07516
1.07513
1.07514
1.07509
1.07514
1.07511
1.07535
1.07806
1.07793
1.07521
1.07497
1.07496
1.07493
1.07492
1.0749
1.07489
1.07486
1.07486
1.07483
1.07482
1.07479
1.07476
1.07473
1.07473
1.07474
1.07479
1.07481
1.07485
1.07486
1.07487
1.0749
1.0749
1.07493
1.07492
1.07495
1.07496
1.07518
1.07797
1.07791
1.07519
1.07497
1.07493
1.07493
1.07491
1.0749
1.07488
1.07487
1.07485
1.07484
1.07481
1.07479
1.07475
1.07474
1.07473
1.07475
1.07477
1.07482
1.07483
1.07485
1.07486
1.07488
1.07489
1.07492
1.07492
1.07495
1.07496
1.07518
1.07791
1.07796
1.07518
1.07497
1.07493
1.07493
1.0749
1.0749
1.07487
1.07487
1.07484
1.07483
1.07481
1.07479
1.07475
1.07474
1.07474
1.07475
1.07479
1.07481
1.07484
1.07484
1.07487
1.07488
1.0749
1.07491
1.07493
1.07493
1.07498
1.07518
1.07797
1.07792
1.07518
1.07497
1.07493
1.07493
1.0749
1.0749
1.07487
1.07487
1.07485
1.07484
1.07482
1.0748
1.07476
1.07475
1.07473
1.07476
1.07478
1.07482
1.07483
1.07485
1.07486
1.07489
1.07489
1.07492
1.07492
1.07495
1.07497
1.07519
1.07792
0.972507
0.929802
0.943646
1.02195
1.1148
1.203
1.26154
1.30451
1.37265
1.49369
1.97656
4.04029
5.78746
3.99759
4.55363
4.26032
2.56358
1.45824
1.16146
1.18866
1.4856
2.08342
3.55687
4.31787
4.35913
4.02089
3.54885
2.36508
1.57089
1.24233
1.19355
1.26128
1.49417
1.92473
2.57898
4.00325
4.9859
4.9143
4.85184
4.64567
5.06396
4.73681
4.18119
2.94136
3.67573
3.64253
3.76188
3.67573
3.71387
3.63828
3.63176
3.53777
3.53088
3.1617
2.76883
2.66788
2.53936
2.5303
2.81488
3.31265
4.08035
4.26361
4.83376
5.19794
5.50781
5.55223
5.70536
6.10341
6.40589
6.22438
6.05508
5.81871
5.73964
5.53891
7.39217
6.38669
5.34474
5.01536
4.55402
4.65412
4.46911
4.53694
4.42633
4.30578
4.21315
4.3983
4.55717
4.76764
5.00543
4.93051
5.04462
5.07666
4.95056
5.08836
5.36092
5.55757
5.33441
5.64476
5.87797
5.47963
5.41258
4.99568
4.96301
5.00919
7.1151
6.67614
6.46295
6.20031
5.76515
5.59912
5.35939
5.31724
5.00197
4.90577
4.7737
4.71926
4.68283
4.51004
4.37621
3.78643
3.50014
3.2018
3.02277
3.51268
3.52371
3.70706
3.71003
3.82493
4.18311
4.05844
4.2295
4.9874
3.70121
2.93206
5.15422
5.38047
5.13828
5.84927
5.89536
6.35029
6.48846
6.85718
7.01663
7.29853
7.62387
7.94704
7.22432
6.433
5.73939
5.33641
5.16388
5.20385
5.5318
5.56501
6.15634
6.24414
6.97891
7.15802
7.54989
8.05986
9.43005
10.4981
12.0616
5.32036
3.16224
6.75572
5.34972
6.03516
5.67578
5.28581
5.38455
5.29273
4.92975
4.35096
3.12113
2.10942
2.30955
2.33623
2.51375
2.7377
2.80213
3.1013
3.11163
3.07114
3.2006
4.11579
4.49513
5.60428
7.52456
7.82273
10.8248
16.6196
5.97773
7.29188
1.25233
1.10341
0.829263
1.39977
1.40504
1.93776
1.98483
2.4517
2.38122
1.75027
1.12382
1.0995
1.09918
1.09246
1.09125
1.08314
1.08268
1.07627
1.07603
1.07106
1.0709
1.06703
1.06683
1.06398
1.06379
1.06169
1.06182
1.06027
1.06076
1.05986
1.04972
1.04997
1.04983
1.04966
1.04955
1.0494
1.04926
1.04913
1.04897
1.04885
1.0487
1.04861
1.04847
1.0484
1.04826
1.04822
1.0481
1.04808
1.04796
1.04796
1.04786
1.04786
1.04778
1.04779
1.04771
1.04776
1.04767
1.04774
1.04775
1.04799
1.04789
1.04764
1.04759
1.04751
1.04759
1.0475
1.04759
1.0475
1.04758
1.04749
1.04757
1.04749
1.04756
1.04748
1.04755
1.04747
1.04755
1.04747
1.04754
1.04751
1.0475
1.04757
1.04748
1.04757
1.04749
1.04758
1.04749
1.04758
1.04753
1.04792
1.04783
1.0476
1.04749
1.04758
1.04749
1.04757
1.04749
1.04757
1.04749
1.04757
1.04748
1.04756
1.04748
1.04755
1.04747
1.04755
1.04748
1.04755
1.04748
1.04756
1.04748
1.04757
1.04749
1.04757
1.04749
1.04757
1.0475
1.04758
1.0476
1.04784
1.04789
1.04756
1.04756
1.04757
1.04748
1.04757
1.04748
1.04757
1.04748
1.04756
1.04748
1.04756
1.04747
1.04755
1.04749
1.04749
1.04755
1.04747
1.04756
1.04748
1.04756
1.04748
1.04757
1.04748
1.04757
1.04748
1.04757
1.04753
1.04757
1.04788
1.04784
1.0476
1.04749
1.04758
1.04749
1.04758
1.04749
1.04758
1.04749
1.04757
1.04748
1.04757
1.04748
1.04756
1.04748
1.04755
1.04748
1.04755
1.04748
1.04757
1.04749
1.04757
1.04749
1.04757
1.04749
1.04758
1.0475
1.04758
1.04761
1.04785
0.883341
0.911895
1.02038
1.14635
1.26172
1.34879
1.39367
1.40389
1.41889
1.44621
1.6379
3.02114
5.94129
4.15892
4.61638
2.87132
1.29693
1.11184
1.39112
2.51582
4.15569
4.37386
4.61242
4.74334
4.99581
4.98536
4.84673
4.14755
2.90975
1.62764
1.24387
1.18074
1.25179
1.54556
2.09076
3.1505
4.92094
4.87297
4.891
4.9411
4.81112
5.06246
4.71696
2.8543
3.98527
3.84892
3.67651
3.75902
3.62305
3.55048
3.45342
3.49543
3.52621
3.37964
3.16292
3.02035
2.8564
2.66651
2.57373
2.66666
2.75258
3.59825
4.583
5.36973
5.54769
5.37208
5.17614
6.50768
6.9368
6.79431
6.48775
6.35985
6.20541
6.12235
7.7715
6.61074
5.71637
4.96427
4.7856
4.5169
4.58753
4.35034
4.23311
4.13937
4.18605
4.50866
4.7464
4.9592
5.00497
4.91723
4.74241
4.70812
4.68616
4.76702
4.7141
4.59885
4.94271
4.84357
5.13847
5.55762
5.31539
5.08124
4.76774
4.63491
6.2799
6.47952
6.32792
5.90545
5.84359
5.43281
5.40648
5.09637
5.07188
4.8751
4.70079
4.60795
4.5551
4.45167
4.15993
4.21714
3.54864
3.31081
3.65994
3.26984
3.89894
4.28216
4.50449
4.68425
4.48451
5.02923
5.3398
4.46181
4.9569
3.0257
3.92867
4.35088
5.52773
5.10462
6.17681
6.39516
6.88908
6.98048
7.07116
7.15922
7.79182
6.46551
5.20538
5.03503
4.3816
4.66465
4.53255
4.53384
5.00609
5.28794
5.69791
5.886
6.85746
7.30759
7.55926
7.95891
7.98823
9.10228
8.90563
5.78122
3.17658
6.10425
5.45195
6.38899
5.50997
5.45162
5.17793
4.92645
4.68094
3.86718
3.14551
2.0503
2.3832
2.37979
2.63084
2.81878
2.99827
3.11945
3.32891
3.24023
3.79231
3.35577
5.69153
5.24117
7.12122
8.10806
7.60695
10.7376
4.98314
5.51403
1.18072
0.687433
0.634036
0.856453
1.56986
1.55735
1.98976
2.10377
2.51869
2.36886
1.5904
1.06533
1.05952
1.05987
1.05132
1.05291
1.04348
1.04619
1.03785
1.04084
1.03359
1.03662
1.03031
1.03333
1.0279
1.03035
1.02722
1.02742
1.02718
1.02927
1.01966
1.01644
1.01655
1.01646
1.01644
1.01637
1.01626
1.01616
1.01603
1.01592
1.01579
1.01568
1.01556
1.01548
1.01536
1.01532
1.01519
1.01519
1.01505
1.01508
1.01494
1.01498
1.01486
1.01487
1.01483
1.01481
1.0148
1.01481
1.01499
1.01723
1.01713
1.01487
1.01467
1.01463
1.01465
1.01463
1.01465
1.01463
1.01465
1.01462
1.01464
1.01461
1.01464
1.01461
1.01463
1.01461
1.01463
1.0146
1.01462
1.01463
1.01462
1.01464
1.01461
1.01464
1.01462
1.01464
1.01462
1.01466
1.01479
1.01707
1.01711
1.01481
1.01462
1.01464
1.01461
1.01464
1.01462
1.01464
1.01462
1.01464
1.01461
1.01463
1.01461
1.01463
1.0146
1.01463
1.0146
1.01463
1.01461
1.01463
1.01461
1.01464
1.01461
1.01464
1.01461
1.01464
1.01462
1.01466
1.01483
1.01709
1.01706
1.0148
1.01467
1.01465
1.01462
1.01464
1.01461
1.01463
1.01461
1.01463
1.01461
1.01463
1.0146
1.01463
1.01462
1.01462
1.01463
1.0146
1.01463
1.01461
1.01464
1.01461
1.01463
1.01461
1.01463
1.01461
1.01464
1.01466
1.01481
1.01706
1.01711
1.01481
1.01463
1.01464
1.01462
1.01464
1.01462
1.01464
1.01462
1.01464
1.01461
1.01463
1.01461
1.01463
1.0146
1.01462
1.0146
1.01462
1.01461
1.01463
1.01461
1.01463
1.01461
1.01463
1.01461
1.01464
1.01462
1.01466
1.01485
1.01711
0.846717
0.968137
1.11391
1.2652
1.36103
1.406
1.50207
1.69128
1.92296
1.87525
1.76413
2.57442
6.26111
4.52079
4.5767
1.79698
1.16193
1.49114
3.75345
4.21456
4.50998
4.80077
4.93192
4.94118
4.69907
4.3322
4.25419
4.38689
3.73387
2.28051
1.46379
1.22541
1.20674
1.31954
1.75601
2.57342
4.38652
4.90507
4.86623
4.95486
5.01099
4.95824
3.56673
2.85724
3.89765
3.93593
4.07272
3.98186
3.99212
3.9661
3.94289
3.96282
3.55903
3.24522
3.161
3.02213
2.8427
2.49246
2.18162
2.1141
2.46182
3.4655
4.76545
5.3423
5.73426
4.8056
4.87435
7.0293
7.43013
7.24429
6.90802
6.6487
6.55395
6.37308
7.3384
6.52354
5.73523
5.20833
4.66941
4.66071
4.45774
4.22168
4.03565
4.05403
4.38705
4.6362
4.85233
4.93689
4.9057
4.78858
4.72835
4.6309
4.46632
4.25737
4.20092
4.65076
4.63011
4.66379
4.39711
4.5827
5.12117
5.03333
4.84659
4.87877
6.57725
6.26301
5.97758
5.93524
5.55949
5.44316
5.20374
5.11471
4.96208
4.78424
4.68184
4.57847
4.46687
4.21067
4.24959
4.06416
3.97376
4.08141
3.59222
4.03496
4.0874
4.36803
4.36321
4.18884
4.38397
4.67772
5.61038
7.32461
6.76937
3.03335
2.7966
4.39791
4.75026
5.75398
6.61703
7.07153
7.09386
6.99266
6.79259
5.87056
4.30305
3.37593
3.02661
3.19567
3.4351
3.45297
3.46981
3.1238
2.95815
2.68016
2.70199
2.95682
5.47778
6.64272
7.5968
7.6704
7.1668
6.55787
7.29349
6.39176
3.28288
7.64339
5.78178
6.08549
5.41133
5.18062
5.1914
4.88248
4.29833
3.76306
2.90135
2.29791
2.22062
2.73851
2.62515
3.14396
3.0798
3.40316
3.35681
3.62951
3.40446
4.54828
4.91695
6.23982
6.31889
6.80811
8.3695
9.35226
4.21907
5.21406
0.759222
0.621157
0.578533
0.858477
1.13683
1.75129
1.78154
2.10019
2.17511
2.51122
2.18855
1.30023
1.00062
1.00267
0.99987
0.994319
0.993028
0.987353
0.986763
0.982749
0.98187
0.978991
0.978054
0.976151
0.975265
0.973956
0.973563
0.972639
0.972905
0.971935
0.961171
0.963046
0.962848
0.962725
0.962697
0.962569
0.962445
0.962332
0.962187
0.962088
0.961946
0.961863
0.961727
0.961664
0.961544
0.961491
0.961403
0.961343
0.961286
0.961224
0.96119
0.961129
0.961112
0.961067
0.961036
0.961028
0.960993
0.961031
0.961011
0.96041
0.960333
0.96092
0.960889
0.960843
0.960872
0.960841
0.960879
0.960842
0.960879
0.960841
0.960878
0.960843
0.960875
0.960845
0.960872
0.960843
0.960868
0.960834
0.960857
0.960871
0.960856
0.960866
0.960828
0.960867
0.960826
0.960865
0.960829
0.960876
0.960822
0.960225
0.960271
0.960849
0.960833
0.960861
0.960826
0.960869
0.960832
0.960875
0.960835
0.960873
0.960835
0.960872
0.960839
0.96087
0.960842
0.960869
0.960841
0.96087
0.960836
0.960869
0.960828
0.960866
0.960825
0.960864
0.960823
0.960863
0.960838
0.960881
0.960871
0.960271
0.960216
0.960846
0.960891
0.960872
0.960827
0.960863
0.960822
0.960866
0.960826
0.960867
0.960829
0.960871
0.960836
0.96087
0.960861
0.96086
0.960869
0.960838
0.96087
0.960832
0.960868
0.960826
0.960866
0.960823
0.960859
0.960818
0.96086
0.960881
0.96086
0.960212
0.960268
0.960847
0.960835
0.960861
0.960821
0.960867
0.960822
0.960873
0.960824
0.960873
0.960832
0.960876
0.960837
0.960871
0.960839
0.96087
0.960844
0.960873
0.960839
0.960875
0.960835
0.960873
0.960827
0.960867
0.960819
0.960866
0.960841
0.960886
0.960887
0.960294
0.907564
1.04448
1.18933
1.29537
1.31613
1.39236
1.76766
2.3278
2.55293
2.45545
2.154
2.74649
6.36496
6.27927
3.34674
1.90503
1.70718
3.19744
4.75428
4.8724
4.90137
5.04012
5.05336
4.53667
3.80058
3.47381
3.3852
3.4903
3.41073
2.55689
1.67647
1.33132
1.20923
1.23068
1.48051
2.17955
3.52198
4.91559
4.92619
4.91955
4.81904
5.01788
3.57956
3.32387
4.04963
4.01024
3.86804
3.85185
3.79458
3.7154
3.75251
3.72622
3.34033
3.00077
2.94561
2.83735
2.49192
2.1026
1.83666
1.95864
2.94693
4.57421
4.93772
5.47969
5.12663
4.36414
5.7642
7.35497
7.48695
7.22537
6.83876
6.60191
6.21435
6.07006
6.84946
6.24362
5.69111
5.23745
4.68486
4.63272
4.27369
4.05224
4.07432
4.36045
4.6001
4.85839
4.97912
4.98843
4.95037
4.94825
4.87388
4.77112
4.58584
4.33079
4.32302
3.77736
3.52551
3.65528
4.23415
4.52376
4.62299
4.81016
4.70106
4.75987
6.01935
6.07644
5.96724
5.49664
5.34392
5.10353
5.09366
4.95872
4.94244
4.80753
4.66645
4.565
4.31015
4.27565
4.01907
3.91368
4.21836
4.03063
4.65288
4.65732
5.00835
4.98832
5.33843
5.55733
6.37546
7.14719
8.05013
6.82226
7.64973
4.55673
4.22129
4.96585
6.10673
7.29808
6.10551
6.21757
6.58771
6.26663
5.30306
4.16616
3.44456
3.36752
3.97426
4.28346
5.41108
4.81593
4.82016
4.15293
3.41309
2.91164
2.53085
2.35478
2.31067
2.64087
5.56562
6.93398
6.34414
5.7406
6.42417
6.03461
3.61965
7.76303
5.65121
5.73001
5.26675
5.27862
5.11527
4.61296
4.40865
3.64749
2.62286
2.64843
2.49287
2.43907
3.03121
2.92922
3.41811
3.29575
3.80815
3.82391
3.40601
5.06015
4.77891
6.34613
6.04129
5.85456
6.09717
8.29084
3.80757
3.40752
0.461807
0.819632
1.03656
0.919079
1.3176
1.31708
1.88947
1.88539
2.14265
2.1809
2.39206
1.83112
1.0338
0.949143
0.947467
0.94224
0.941415
0.937099
0.932789
0.934748
0.928213
0.931137
0.925224
0.928258
0.922958
0.926302
0.921633
0.924922
0.922084
0.92417
0.913074
0.911626
0.912757
0.912749
0.913007
0.913077
0.913011
0.912936
0.91283
0.912694
0.912637
0.912453
0.91245
0.912266
0.912261
0.912109
0.912102
0.911984
0.911958
0.911887
0.911836
0.911815
0.911751
0.911739
0.91172
0.911708
0.91172
0.911744
0.911738
0.911019
0.910925
0.911633
0.911617
0.911571
0.91156
0.911539
0.911535
0.911526
0.911532
0.91152
0.911522
0.911513
0.911521
0.911515
0.911521
0.911512
0.911518
0.911503
0.911507
0.911524
0.911519
0.911517
0.91151
0.911518
0.911524
0.911545
0.911562
0.9116
0.911573
0.910833
0.910888
0.911575
0.911586
0.911561
0.911539
0.911535
0.911517
0.911524
0.911516
0.911518
0.911509
0.911513
0.91151
0.911516
0.911512
0.911516
0.911511
0.911514
0.911508
0.911511
0.911506
0.911514
0.911509
0.911515
0.91152
0.911544
0.911564
0.911604
0.911594
0.910884
0.910836
0.911579
0.911618
0.911572
0.911539
0.91153
0.911511
0.911517
0.91151
0.911513
0.911505
0.911513
0.911509
0.911517
0.911523
0.91152
0.911517
0.911509
0.911514
0.911507
0.911513
0.911509
0.911516
0.911509
0.911524
0.91153
0.911558
0.911613
0.91159
0.910836
0.910877
0.91157
0.911585
0.911561
0.911536
0.911527
0.911512
0.911517
0.91151
0.911513
0.911511
0.911512
0.911507
0.911512
0.911504
0.91151
0.911507
0.911512
0.911505
0.911509
0.911506
0.91151
0.911504
0.911514
0.911515
0.911547
0.911583
0.91167
0.911769
0.911063
0.979575
1.09524
1.20941
1.25888
1.26535
1.43984
2.10673
2.54554
2.3739
2.3487
2.37951
2.93147
6.38326
5.90304
3.3379
2.12888
1.99419
2.13121
3.59288
4.83497
5.0344
5.19587
5.23823
5.03934
5.03632
4.58151
3.92834
3.30766
2.91809
2.68923
2.48509
2.08177
1.61822
1.3431
1.23214
1.21175
1.37056
2.05293
3.31535
4.96249
4.96176
4.90924
4.79167
4.79661
4.81874
4.85364
4.78795
4.66361
4.55078
4.49771
4.50348
4.61202
4.37134
4.04739
3.46785
3.1127
3.12521
2.9806
2.73173
2.43246
2.07512
1.72787
1.76828
2.47043
4.35173
4.79751
5.14658
5.17598
4.63213
5.68234
6.89206
7.04364
6.93041
6.67317
6.51482
6.16942
5.73405
5.41684
5.37616
5.16559
5.93524
5.81505
5.54922
5.03472
4.76569
4.39708
4.12705
4.1199
4.29812
4.45579
4.73106
4.87575
4.94733
5.01112
5.07445
5.0855
5.06033
4.89437
4.61454
4.05842
3.89105
3.66208
3.78416
3.6283
3.46752
3.89916
4.08947
4.42099
4.69097
4.55479
4.43113
3.93573
5.56828
5.47667
5.27648
5.17385
4.82103
4.77707
4.75888
4.95645
4.83754
4.83728
4.69837
4.4842
4.42179
4.17312
3.98116
4.0449
3.98443
4.55375
4.49862
4.74094
4.48742
4.56364
4.92674
6.57736
8.03898
8.76685
7.99329
7.97555
7.08122
7.388
7.44803
6.64452
6.92854
7.8641
8.54005
7.6518
5.4057
5.54336
5.57317
5.04298
4.30847
3.67087
3.40629
4.22511
5.65416
5.3707
5.1618
5.16664
4.80647
4.81906
4.56452
3.55638
2.80234
2.3814
2.2295
2.19501
2.43577
3.8505
6.18728
5.22606
5.37259
5.81248
5.61556
6.47303
4.03028
5.47299
4.01206
5.73696
5.66641
5.38704
5.2465
4.91103
4.16131
3.91254
2.3475
2.55415
2.36554
2.77189
2.78103
3.43033
3.2381
3.70955
3.61933
4.27523
4.17806
4.90768
5.4209
5.02506
4.69838
4.87842
4.96708
6.58188
6.81442
4.24161
1.79909
1.81372
2.11536
2.54281
2.20842
1.76267
1.21186
1.74515
1.65463
2.05882
1.99431
2.18074
2.14746
2.1166
1.27658
0.876991
0.880614
0.873146
0.871592
0.868276
0.865063
0.861768
0.862214
0.858012
0.858728
0.855745
0.855399
0.854829
0.852842
0.853758
0.852708
0.850186
0.844459
0.842898
0.840138
0.845602
0.844085
0.845312
0.84434
0.8447
0.844275
0.844302
0.844076
0.84403
0.84383
0.843791
0.843629
0.843594
0.843462
0.843433
0.843327
0.843305
0.843224
0.843203
0.843155
0.843122
0.843108
0.843064
0.843072
0.843063
0.843062
0.843058
0.842777
0.839767
0.836895
0.836866
0.839704
0.842705
0.84294
0.84293
0.842921
0.842895
0.842889
0.842871
0.842878
0.842863
0.842869
0.842854
0.842859
0.84285
0.842854
0.842847
0.842854
0.842843
0.842849
0.842872
0.842869
0.842862
0.842857
0.842872
0.84288
0.84291
0.842915
0.842917
0.84263
0.83962
0.836801
0.836801
0.839651
0.842638
0.842902
0.842923
0.842899
0.842897
0.842867
0.842877
0.842858
0.842869
0.842852
0.842859
0.842847
0.842853
0.842848
0.842853
0.842846
0.842855
0.842848
0.842861
0.84285
0.842865
0.842852
0.842874
0.842875
0.842907
0.842919
0.842926
0.842655
0.839651
0.836799
0.836802
0.839624
0.842647
0.842937
0.842932
0.842897
0.842892
0.842862
0.842869
0.842853
0.842863
0.842848
0.842857
0.842846
0.842853
0.842859
0.842857
0.842853
0.842846
0.842858
0.84285
0.842867
0.842854
0.842869
0.842859
0.842888
0.842888
0.842918
0.842928
0.842652
0.83962
0.836802
0.836798
0.83964
0.842633
0.8429
0.842925
0.842891
0.842891
0.842855
0.842873
0.842854
0.842872
0.842854
0.842868
0.842853
0.842859
0.842847
0.842852
0.842845
0.842853
0.842847
0.842864
0.842853
0.842876
0.842858
0.842892
0.842883
0.842923
0.842934
0.842947
0.842662
0.83967
0.836985
0.839197
1.03521
1.13344
1.19636
1.23721
1.25841
1.48077
2.27574
2.57631
2.10738
1.83959
2.15158
2.81502
5.12336
6.2542
5.59412
3.34207
2.2363
3.46662
5.06679
5.23098
5.33641
5.31617
5.27246
5.22485
4.96136
4.93923
4.8483
4.72812
4.01258
3.34779
2.83831
2.36848
1.91995
1.56415
1.36144
1.32068
1.49244
2.22228
3.57178
5.07144
4.90787
4.86605
4.72358
4.78871
4.60575
4.70148
4.69389
4.7731
4.73666
4.67746
4.61877
4.25501
3.71177
3.81166
3.94773
3.94066
3.93861
3.43432
2.6173
2.02124
1.66815
1.66749
2.3467
4.24206
4.71431
5.02056
5.45826
5.34194
6.17503
6.64226
6.75017
6.51177
6.08064
5.87219
5.69493
5.56796
5.34362
5.34219
5.1891
5.39389
5.71817
5.59877
5.22014
5.07516
4.57381
4.40415
4.24053
4.14477
4.38717
4.60957
4.76549
4.92494
5.07825
5.13438
5.16899
5.1768
5.14046
4.89998
4.49365
3.89697
3.79147
3.26528
3.13975
3.37853
3.63413
3.67526
4.10541
4.29059
4.06993
4.36203
4.18984
4.88638
5.01043
5.37006
5.22511
4.60776
4.45663
4.3635
4.63923
4.68194
4.85782
4.75988
4.65359
4.67344
4.60383
4.3447
4.06583
3.84798
4.2244
4.28092
4.86215
4.96763
4.94847
5.84457
6.88211
7.81966
8.26789
8.14087
8.23713
7.73124
7.39776
6.96425
6.98989
8.10428
10.1924
9.81399
9.72272
6.65445
5.14878
4.99472
4.92002
4.36986
3.85503
3.34349
3.51508
4.0034
4.89721
4.56665
4.88197
4.67353
4.98879
5.06273
4.94399
4.51745
3.23009
2.53294
2.19804
2.08736
2.10876
2.38796
3.77359
5.41229
4.56166
5.07487
6.26269
8.48537
9.26925
5.29771
4.62492
5.72095
5.81915
5.55111
5.54207
5.00052
4.51479