/*--------------------------------*- C++ -*----------------------------------*\
| =========                 |                                                 |
| \\      /  F ield         | OpenFOAM: The Open Source CFD Toolbox           |
|  \\    /   O peration     | Version:  2.1.1                                 |
|   \\  /    A nd           | Web:      www.OpenFOAM.org                      |
|    \\/     M anipulation  |                                                 |
\*---------------------------------------------------------------------------*/
FoamFile
{
    version     2.0;
    format      ascii;
    class       volScalarField;
    location    "0.002950000";
    object      sL;
}
// * * * * * * * * * * * * * * * * * * * * * * * * * * * * * * * * * * * * * //

dimensions      [0 1 -1 0 0 0 0];

internalField   nonuniform List<scalar> 
12384
(
9.31124
7.71794
5.46397
3.77614
2.68215
1.99237
1.38793
0.783441
0.813138
0.811734
0.827307
0.924945
1.14301
1.52705
0.766515
0.76988
0.703666
0.669678
0.64781
0.633132
0.635925
0.636074
0.650364
0.659171
0.671005
0.787584
1.59339
1.38913
1.37536
1.02469
0.799844
0.65639
0.586897
0.577861
0.564141
0.561212
0.574171
0.616196
0.682209
0.966958
1.13341
1.31264
2.01601
2.97461
1.04497
1.12217
1.20455
1.22537
1.23345
1.22959
1.22425
1.24202
1.2465
1.26522
1.28354
1.31197
1.30734
1.30546
1.33993
1.31966
1.34016
1.33567
1.28736
1.26956
1.1608
1.05445
0.899323
0.745301
0.634941
0.648821
0.883972
1.07063
1.13496
2.11766
1.13284
1.35924
1.42811
1.39178
1.34462
1.31422
1.28407
1.26706
1.30156
1.32644
1.36414
1.39512
1.41375
1.42314
1.43128
1.41155
1.38251
1.34235
1.27969
1.20405
1.12776
1.00316
0.823089
0.667206
0.619176
0.7131
0.824563
1.02025
1.10645
1.60701
1.88573
0.856147
1.05326
1.15948
1.15834
1.18566
1.225
1.27001
1.32002
1.37234
1.43088
1.37787
1.38725
1.33657
1.356
1.3004
1.32193
1.29765
1.29396
1.25623
1.19139
1.08619
1.16837
1.31417
1.49178
1.54315
1.88092
2.36738
3.01715
3.115
1.97309
0.730562
0.788186
0.907151
1.02097
1.11433
1.14883
1.17974
1.18396
1.20362
1.23092
1.25787
1.26473
1.27969
1.26892
1.27706
1.24642
1.22752
1.2224
1.08095
2.70514
2.14071
1.92612
1.61985
1.58122
1.53892
1.7323
2.22642
3.30622
4.35504
2.32334
2.39594
2.57191
2.47227
2.24137
2.45278
2.9152
3.05318
3.14041
3.07022
2.78024
3.02271
3.13993
3.15946
2.9628
2.86529
2.82829
2.51871
2.45328
2.12199
2.05575
1.73574
1.74557
1.51668
1.4757
2.24219
2.71696
2.96086
3.53511
4.53118
2.03899
2.11448
2.05525
2.18173
2.1589
2.13024
2.11771
2.11769
2.11405
2.11348
2.10244
2.10543
2.09266
2.09671
2.08538
2.08723
2.08424
2.0786
2.08136
2.07493
2.07782
2.07225
2.07444
2.07039
2.07175
2.06886
2.07031
2.06799
2.06937
2.07326
2.06498
2.05952
2.05908
2.05901
2.05874
2.05857
2.05834
2.05808
2.05792
2.05755
2.05744
2.05703
2.05668
2.05632
2.05601
2.05599
2.056
2.05623
2.05636
2.05651
2.05655
2.05668
2.05676
2.05687
2.05698
2.05711
2.05719
2.05732
2.05772
2.06345
2.06335
2.05765
2.05722
2.05703
2.05693
2.05677
2.05663
2.0565
2.05638
2.05624
2.05612
2.05596
2.05573
2.05547
2.05532
2.05524
2.05539
2.05564
2.05599
2.05618
2.0563
2.05649
2.05662
2.05676
2.05687
2.05702
2.05711
2.05726
2.05761
2.06337
2.06333
2.05759
2.05719
2.05705
2.05694
2.0568
2.05666
2.05653
2.05641
2.05628
2.05614
2.05598
2.0557
2.05546
2.05526
2.05525
2.05539
2.05566
2.05592
2.0561
2.05624
2.0564
2.05652
2.05668
2.05681
2.05696
2.05704
2.05719
2.05758
2.06334
2.06336
2.05755
2.05718
2.05708
2.05698
2.05685
2.0567
2.05656
2.0564
2.05625
2.05611
2.05593
2.05567
2.05544
2.05525
2.05526
2.05542
2.05566
2.05596
2.05612
2.05625
2.05639
2.05654
2.05667
2.0568
2.05693
2.05705
2.05718
2.05755
2.06336
2.06333
2.05757
2.05717
2.05702
2.0569
2.05676
2.05665
2.05652
2.05642
2.05629
2.05617
2.056
2.05575
2.0555
2.05531
2.05527
2.05541
2.05567
2.0559
2.05608
2.05623
2.05639
2.05655
2.05668
2.05682
2.05696
2.05707
2.05718
2.05759
2.06335
7.43935
5.79503
4.57333
3.73517
3.14793
2.46458
1.73033
1.14432
0.670465
0.528354
0.601351
0.743188
1.04079
1.77286
0.747198
0.778253
0.730406
0.664931
0.623536
0.631235
0.671018
0.9091
1.71604
3.27491
4.68069
6.64927
7.92472
6.68499
4.77592
2.68255
1.60075
1.19374
0.907891
0.724952
0.565472
0.546552
0.54451
0.586345
0.72742
0.960551
1.10594
1.28717
1.32117
2.38961
1.05263
1.13241
1.1923
1.1944
1.17989
1.15784
1.16257
1.18962
1.23872
1.296
1.36718
1.39415
1.43446
1.45284
1.45482
1.46606
1.42299
1.40253
1.3741
1.36783
1.30825
1.16665
0.943172
0.688877
0.608705
0.705948
0.892594
1.04127
1.09179
1.85927
1.09209
1.32325
1.38241
1.39075
1.35506
1.31853
1.30688
1.31681
1.34172
1.37997
1.40538
1.43633
1.47995
1.50488
1.51423
1.50785
1.45644
1.37231
1.24651
1.12458
1.01525
0.896967
0.754041
0.646272
0.637107
0.736922
0.85882
0.98087
1.13743
1.15932
0.961843
0.780892
0.864934
0.955788
1.01646
1.08141
1.14014
1.20019
1.31773
1.39725
1.41679
1.388
1.37524
1.39075
1.36683
1.38182
1.35932
1.34533
1.29784
1.18436
1.09776
0.990213
0.832208
0.746626
1.24985
1.52672
1.9011
2.4056
2.88804
2.95114
1.73429
0.631952
0.86081
1.06834
1.21338
1.2379
1.2473
1.24208
1.24792
1.24631
1.27104
1.27297
1.30261
1.30013
1.32261
1.34903
1.32432
1.24739
1.17823
1.06737
2.69193
2.54842
1.23937
0.644807
0.730685
0.572958
0.415741
0.376625
2.29311
3.17022
2.23883
0.635659
0.570321
0.782838
1.13936
1.27681
1.24629
1.23796
1.28778
1.42186
1.4737
1.52468
1.53562
2.37305
3.07631
3.456
3.61695
3.70713
3.70722
3.68833
3.64649
3.51734
2.99065
2.73694
2.54807
3.02133
2.89442
1.96422
1.52813
1.28472
1.05528
0.821608
0.974664
0.839052
1.01726
1.16451
1.43739
1.58987
1.61321
1.67707
1.68587
1.74127
1.7351
1.77308
1.76257
1.79099
1.78506
1.81131
1.80617
1.82759
1.81952
1.83634
1.82951
1.8419
1.83889
1.84587
1.84635
1.84856
1.85519
1.97756
1.95253
1.82952
1.82073
1.82088
1.81945
1.82029
1.81706
1.81862
1.81403
1.81592
1.81038
1.81147
1.80446
1.80289
1.79788
1.7997
1.79988
1.80525
1.80664
1.8107
1.81067
1.81469
1.81456
1.81843
1.81862
1.82216
1.82264
1.82558
1.83371
1.96506
1.96489
1.83341
1.82507
1.8218
1.82155
1.818
1.81758
1.81389
1.81372
1.81012
1.80978
1.80612
1.80439
1.79929
1.79808
1.79599
1.79902
1.80179
1.80765
1.8103
1.81226
1.81587
1.8164
1.82004
1.82014
1.82354
1.82318
1.82619
1.83262
1.96982
1.96444
1.83404
1.82419
1.82401
1.82062
1.82045
1.81668
1.81642
1.81279
1.81246
1.80877
1.80789
1.80285
1.80015
1.79624
1.79719
1.79804
1.80313
1.80539
1.80936
1.81
1.814
1.81438
1.81825
1.81873
1.82224
1.82279
1.82545
1.83368
1.965
1.97019
1.83265
1.82441
1.82408
1.82062
1.82047
1.81656
1.81611
1.81225
1.81167
1.80772
1.80692
1.80197
1.79961
1.79642
1.79635
1.79942
1.80207
1.80714
1.80799
1.81184
1.81229
1.81602
1.81633
1.82009
1.82016
1.82371
1.82411
1.83251
1.96992
1.96505
1.83389
1.82375
1.8235
1.81978
1.81973
1.81572
1.81578
1.81197
1.81212
1.80825
1.8078
1.803
1.80067
1.79647
1.79718
1.79803
1.80301
1.80533
1.80918
1.80977
1.81375
1.8141
1.81804
1.81844
1.82208
1.82267
1.82541
1.83369
1.96515
5.78598
6.46539
7.84888
9.20376
9.2283
8.10142
5.50981
3.04178
1.8292
1.13282
0.553503
0.543405
0.90095
1.80417
0.622192
0.703398
0.621294
0.582755
0.665746
1.68465
3.82745
7.18519
8.90483
11.5087
11.6771
13.3174
14.2945
13.9904
13.4651
8.71665
4.71292
3.00623
2.10711
1.33076
0.745701
0.540031
0.531665
0.571004
0.679756
0.849082
1.03244
1.20918
1.27082
1.80146
1.05298
1.14384
1.17109
1.12965
1.08866
1.07006
1.09837
1.17281
1.27863
1.38335
1.46836
1.77384
2.28648
2.06294
2.70331
1.83239
1.3454
1.21604
1.11373
1.15644
1.25511
1.28291
1.10354
0.755271
0.614024
0.742273
0.898627
1.01353
1.05192
1.25059
1.07582
1.24854
1.33243
1.34248
1.3448
1.32541
1.31428
1.31299
1.29866
1.29784
1.34124
1.3941
1.43764
1.47149
1.47296
1.39782
1.28966
1.13881
1.00529
0.913794
0.856829
0.787427
0.70099
0.632128
0.619165
0.708649
0.836406
1.00749
1.12289
1.16013
0.779072
0.745122
0.760335
0.844042
0.942985
1.02645
1.07241
1.14327
1.25616
1.36186
1.43646
1.4399
1.41692
1.42506
1.45708
1.46945
1.4509
1.40314
1.35627
1.17549
1.03416
0.849258
0.771561
0.6783
0.789057
1.41254
1.46293
1.54702
1.77036
3.09396
1.22412
0.630861
0.979754
1.21103
1.28552
1.34191
1.35452
1.3712
1.34506
1.36813
1.37404
1.40127
1.4149
1.43184
1.46204
1.45295
1.3843
1.27573
1.20404
1.15301
1.17034
1.20848
1.16975
1.12681
1.02491
0.849417
0.589104
0.357474
1.45524
1.50592
2.00637
0.393569
0.971919
1.0485
1.27125
1.41173
1.45168
1.4152
1.35607
1.55564
1.76924
1.88235
1.86508
1.8606
1.87928
1.84957
1.82694
1.79802
1.80794
1.72262
1.50143
2.69172
4.13597
4.62476
4.65199
6.04409
6.8872
6.41907
4.16991
2.07281
0.193164
0.407228
0.621702
0.610984
0.416866
0.329419
0.229527
0.181595
0.187035
0.174604
0.190215
0.178134
0.193097
0.183729
0.195318
0.18842
0.193767
0.188285
0.18983
0.187579
0.18754
0.187623
0.185686
0.187828
0.184137
0.188056
0.183482
0.18821
0.182136
0.128873
0.125563
0.180837
0.185798
0.185639
0.187511
0.187459
0.189285
0.189388
0.19115
0.191453
0.193226
0.19405
0.196399
0.198352
0.199714
0.199965
0.198847
0.197425
0.195678
0.194867
0.193899
0.193149
0.19231
0.191621
0.190705
0.190001
0.189141
0.188361
0.184738
0.125196
0.125159
0.184615
0.188521
0.189542
0.190325
0.19105
0.191907
0.192628
0.193424
0.194186
0.195091
0.196032
0.197636
0.199345
0.200644
0.200979
0.200269
0.198236
0.196039
0.194532
0.193827
0.19264
0.191676
0.190899
0.190115
0.189429
0.188799
0.187944
0.184091
0.12519
0.125226
0.184495
0.188255
0.18929
0.189915
0.190711
0.191459
0.192311
0.193048
0.193958
0.194821
0.196011
0.197656
0.199652
0.200804
0.201036
0.199908
0.198232
0.196398
0.195352
0.194323
0.193374
0.19246
0.191656
0.190686
0.189913
0.189026
0.188319
0.184673
0.125182
0.125233
0.184578
0.188324
0.188947
0.189756
0.190645
0.191567
0.192474
0.193335
0.194332
0.195264
0.196405
0.197968
0.199792
0.200962
0.200938
0.199868
0.197945
0.196317
0.195156
0.194252
0.193307
0.192483
0.191632
0.190771
0.189972
0.189199
0.188285
0.184659
0.12526
0.125234
0.184589
0.188472
0.189527
0.190194
0.190972
0.191706
0.192508
0.193193
0.194019
0.194858
0.195978
0.197445
0.199377
0.200635
0.201108
0.200022
0.19837
0.19651
0.195488
0.194446
0.193478
0.192536
0.191697
0.190739
0.189945
0.189039
0.188349
0.184723
0.125182
8.95974
13.4183
19.2273
21.5178
20.1137
17.99
15.2147
11.0445
6.88052
4.09247
1.60101
0.433728
0.729287
1.68662
0.528486
0.587352
0.57822
0.835658
3.56513
8.3062
11.0076
10.8407
9.44285
10.1374
8.03982
9.61427
9.83871
12.3217
13.6433
14.3594
12.5247
8.5105
4.9044
2.79738
1.31565
0.557294
0.519886
0.538469
0.59592
0.704245
0.904143
0.96004
1.08049
2.00471
1.05844
1.12565
1.13557
1.07613
1.01446
1.01222
1.07038
1.18233
1.32425
1.57005
1.92796
2.63253
2.9876
3.23202
2.55019
1.88843
1.27047
1.07966
0.939449
0.908784
1.05119
1.25114
1.23221
0.830041
0.602348
0.744318
0.893433
0.98178
1.0271
1.05137
0.983146
1.16886
1.25311
1.29854
1.31812
1.31972
1.29256
1.26957
1.28432
1.34013
1.423
1.48328
1.46993
1.40168
1.27734
1.0822
0.916933
0.803775
0.731263
0.687859
0.670371
0.651052
0.617887
0.590875
0.57944
0.647595
0.816693
1.02703
1.13176
1.15103
0.785835
0.733073
0.750419
0.842641
0.965821
1.02747
1.05606
1.08281
1.17214
1.32189
1.43009
1.4762
1.48238
1.4829
1.5048
1.55305
1.50373
1.47783
1.34904
1.20169
1.00368
0.81306
0.655072
0.650026
0.624216
0.569852
0.490459
0.574613
0.661165
1.89563
0.796408
0.623843
1.05934
1.26548
1.34928
1.42089
1.46996
1.47292
1.4946
1.49907
1.51164
1.505
1.52577
1.55997
1.57091
1.60715
1.57843
1.55282
1.5036
1.39907
1.35834
1.25203
1.25205
1.19966
1.23688
1.1169
0.900908
0.468515
1.07586
1.0988
1.83962
0.28272
0.741474
1.17383
1.3237
1.48329
1.53203
1.50141
1.55932
1.69058
1.70924
1.86354
1.79235
1.77806
1.79653
1.77534
1.77946
1.78002
1.78875
1.76921
1.70326
1.70332
1.67382
1.6202
1.55495
2.11772
7.33446
7.51529
7.18354
4.68646
0.540657
1.12662
1.63639
2.18928
1.97761
1.57493
0.982604
0.467484
0.224634
0.171715
0.161956
0.168241
0.159781
0.16462
0.158035
0.161944
0.157069
0.15955
0.156482
0.157744
0.156148
0.156523
0.155774
0.155809
0.15539
0.155321
0.155142
0.154969
0.15432
0.144345
0.144587
0.154647
0.154756
0.155559
0.154891
0.155468
0.154967
0.15544
0.155036
0.155479
0.155152
0.155577
0.15536
0.155801
0.155605
0.155874
0.155578
0.15569
0.155407
0.155523
0.155328
0.155416
0.155255
0.155325
0.155169
0.155224
0.155044
0.155044
0.154135
0.14394
0.143939
0.154128
0.155061
0.155047
0.155241
0.155157
0.155344
0.155261
0.155441
0.155364
0.155545
0.155484
0.1557
0.155697
0.155895
0.155809
0.155867
0.155623
0.155586
0.155387
0.155331
0.155395
0.155209
0.155288
0.155102
0.155195
0.155009
0.155057
0.15413
0.143725
0.143921
0.154165
0.154928
0.155167
0.155092
0.155267
0.155196
0.15537
0.155299
0.155472
0.155412
0.155599
0.15559
0.155829
0.155802
0.155923
0.155738
0.155738
0.155508
0.155557
0.155376
0.155435
0.155258
0.155327
0.155144
0.155212
0.155017
0.155033
0.154129
0.143925
0.143742
0.15414
0.154953
0.155137
0.155077
0.155269
0.155197
0.155385
0.155311
0.155498
0.155434
0.155622
0.155607
0.155832
0.1558
0.155799
0.155838
0.155607
0.155615
0.155429
0.155491
0.15531
0.155382
0.155203
0.155273
0.155096
0.155153
0.154924
0.154157
0.143742
0.143904
0.154173
0.154939
0.155181
0.155106
0.155286
0.155211
0.155389
0.155309
0.155486
0.155415
0.155604
0.155578
0.155818
0.155789
0.155931
0.155747
0.155749
0.15552
0.155574
0.155394
0.155456
0.155278
0.155346
0.155163
0.155226
0.155032
0.155045
0.154129
0.143923
20.5701
24.8257
21.724
17.4487
15.6843
14.9672
15.2588
15.2486
13.8241
10.8919
5.14621
0.847418
0.579943
1.54661
0.435143
0.553438
2.2093
8.30449
10.8701
9.51618
6.8279
4.4624
1.79568
1.31856
1.14514
1.43493
2.02356
4.58004
9.323
12.2837
13.7687
13.7839
10.479
5.36611
2.43673
0.87154
0.514848
0.507822
0.525428
0.55929
0.539033
0.493132
0.883032
2.01326
1.05626
1.11779
1.09086
1.02299
0.969211
0.976108
1.04096
1.16858
1.32787
1.7823
2.47927
2.68694
2.8648
2.90263
2.32302
1.87856
1.40704
1.27957
1.06446
0.895529
0.933978
1.17977
1.26198
0.892714
0.55826
0.650964
0.818704
0.908125
0.947997
0.976534
0.928311
1.06459
1.19597
1.26338
1.30624
1.28732
1.2668
1.28164
1.38884
1.54778
1.6138
1.55498
1.40571
1.18841
0.971929
0.834153
0.757395
0.72468
0.699944
0.675051
0.635816
0.59998
0.582036
0.558535
0.536827
0.573991
0.72196
1.00369
1.1096
1.1099
0.779456
0.754923
0.814441
0.929369
1.02943
1.03117
1.02488
1.03451
1.11795
1.2696
1.41089
1.4957
1.52827
1.55483
1.55362
1.58965
1.57856
1.49074
1.37024
1.13927
0.961815
0.763123
0.618686
0.564151
0.572701
0.586368
0.575814
0.461877
0.840536
1.82084
0.800172
0.710491
1.07805
1.2718
1.38204
1.49255
1.54029
1.55164
1.54852
1.52466
1.50796
1.49139
1.51701
1.54329
1.58388
1.60072
1.62562
1.63283
1.62134
1.62183
1.57879
1.50927
1.39396
1.26225
1.29931
1.34591
1.18431
0.780704
0.511865
0.949924
1.66861
0.212012
0.65289
1.04742
1.33883
1.50416
1.54538
1.56869
1.65218
1.6486
1.60223
1.73748
1.68113
1.6524
1.65894
1.6094
1.63124
1.62153
1.63156
1.66805
1.62035
1.58557
1.56564
1.44708
1.3225
1.31617
1.28067
1.12994
6.99456
6.48968
0.989397
1.93627
3.38357
3.73047
3.78769
3.96648
3.31395
2.18371
1.06306
0.459022
0.326043
0.303699
0.317161
0.295532
0.308552
0.29032
0.301623
0.287806
0.296367
0.286253
0.292579
0.285097
0.289788
0.28412
0.287612
0.283229
0.285811
0.282355
0.283747
0.280784
0.284478
0.284577
0.285917
0.28379
0.285102
0.283414
0.28448
0.283103
0.284104
0.282868
0.28386
0.282762
0.283688
0.282724
0.283562
0.282702
0.283429
0.282662
0.283309
0.28264
0.28322
0.282655
0.283166
0.282666
0.283123
0.282657
0.283067
0.282601
0.282457
0.281136
0.281022
0.282382
0.282594
0.283055
0.282561
0.283059
0.282561
0.283065
0.282571
0.283065
0.2826
0.28308
0.282643
0.283103
0.282679
0.283122
0.28269
0.283141
0.282744
0.282902
0.283002
0.282599
0.283094
0.282565
0.283067
0.28254
0.283045
0.282512
0.282819
0.280714
0.281156
0.282447
0.283064
0.282549
0.283072
0.282563
0.283067
0.282576
0.283063
0.282587
0.283076
0.282628
0.283101
0.282679
0.283124
0.28269
0.283117
0.282662
0.283088
0.282612
0.283075
0.282592
0.283083
0.282581
0.283073
0.282573
0.283025
0.282558
0.282432
0.281121
0.280826
0.282667
0.28268
0.282572
0.283087
0.282594
0.283102
0.282601
0.283087
0.282602
0.283097
0.282638
0.283122
0.282696
0.283043
0.283062
0.282713
0.28313
0.282651
0.283103
0.282613
0.283092
0.28261
0.283106
0.282615
0.283112
0.282601
0.282835
0.28261
0.280891
0.281126
0.282453
0.283052
0.282543
0.283087
0.282563
0.283095
0.282578
0.283089
0.282581
0.283089
0.282614
0.283115
0.28267
0.28314
0.282697
0.283138
0.282676
0.283104
0.282622
0.283087
0.282611
0.283104
0.282614
0.2831
0.282591
0.283039
0.282574
0.282423
0.281088
28.9126
24.4667
16.8823
14.0089
13.9545
13.7702
12.8853
12.7695
13.0867
12.6062
8.97886
1.65157
0.474819
1.34325
0.443016
1.86564
9.78437
11.7014
8.52617
3.34974
1.25435
0.83735
0.640564
0.550451
0.548564
0.552724
0.646758
1.12363
2.996
8.71558
12.1947
13.6181
13.5085
9.34785
4.12154
1.46074
0.528273
0.457129
0.40878
0.359789
0.321218
0.354237
0.75143
2.02779
1.03867
1.08049
1.06
0.984548
0.954294
0.972747
1.04522
1.16756
1.32672
1.59055
1.88411
2.10312
2.27042
2.55745
2.7316
2.61586
2.89907
1.89525
1.2685
0.991161
0.919164
1.29845
1.55686
0.843039
0.496882
0.544845
0.709082
0.823426
0.845954
0.886214
0.890977
1.02585
1.13508
1.23533
1.25538
1.25734
1.27923
1.43512
1.61488
1.68377
1.64851
1.47032
1.19656
0.976746
0.869386
0.855177
0.904638
0.943349
0.95621
0.925952
0.881034
0.821145
0.715323
0.649633
0.593205
0.561149
0.624839
0.85498
1.04197
1.06425
0.79959
0.80475
0.912196
1.0299
1.03256
1.01441
0.99518
1.01886
1.0918
1.24379
1.39794
1.50673
1.56558
1.59866
1.62019
1.60778
1.6348
1.55048
1.32223
1.10901
0.874321
0.700673
0.567547
0.506997
0.499978
0.478645
0.410698
0.408389
0.370378
1.44144
1.15054
0.807314
1.02305
1.26111
1.41937
1.52659
1.55488
1.53934
1.49249
1.46188
1.42896
2.05003
2.73408
1.91932
2.56288
1.67491
2.03805
1.87156
1.65396
1.60422
1.59627
1.6024
1.50425
1.26033
1.33988
1.4654
1.46365
1.28415
0.786225
0.84645
1.62609
0.172822
0.662373
1.13528
1.42484
1.53004
1.57675
1.62533
1.67079
1.61424
1.60934
1.78704
1.7526
1.77581
1.72963
1.67327
1.6034
1.55111
1.51948
1.50833
1.51176
1.50312
1.39086
1.34011
1.22431
1.24945
1.29894
1.27178
6.40253
6.46352
1.27988
3.59013
4.62663
3.90412
4.53903
4.42567
4.58501
4.21408
3.28229
1.76189
0.803706
0.580193
0.559088
0.559741
0.541421
0.53847
0.530879
0.523072
0.523731
0.512992
0.518467
0.505967
0.514088
0.500897
0.510148
0.496918
0.506231
0.494102
0.500099
0.476342
0.487309
0.506143
0.502427
0.504681
0.501096
0.502315
0.499892
0.500731
0.499025
0.499725
0.498555
0.499127
0.498277
0.498725
0.498154
0.498399
0.498095
0.498159
0.498066
0.49797
0.498077
0.497882
0.498103
0.497848
0.49813
0.497853
0.498033
0.497656
0.496345
0.479456
0.479315
0.496212
0.497707
0.497971
0.497808
0.497941
0.497768
0.497903
0.497747
0.497901
0.497764
0.49792
0.497799
0.49795
0.497809
0.497965
0.497828
0.498013
0.49787
0.497766
0.497839
0.497763
0.497929
0.497765
0.497905
0.497761
0.497904
0.497642
0.496581
0.479602
0.479341
0.496508
0.49787
0.497787
0.497944
0.497752
0.497895
0.497736
0.497885
0.49775
0.497908
0.497784
0.497959
0.497828
0.497976
0.497833
0.497972
0.497815
0.497935
0.497785
0.497927
0.497773
0.49794
0.497785
0.497949
0.497786
0.497875
0.497622
0.496303
0.479422
0.479633
0.496506
0.497498
0.497719
0.497905
0.497787
0.497943
0.497787
0.497926
0.497785
0.497949
0.497798
0.497979
0.497835
0.497867
0.49789
0.497849
0.497988
0.497804
0.497954
0.497786
0.497936
0.497797
0.497958
0.497822
0.497988
0.497792
0.497597
0.496468
0.479661
0.479331
0.496496
0.497841
0.497777
0.497935
0.497776
0.497919
0.497771
0.497907
0.497774
0.497921
0.497807
0.497982
0.497869
0.498041
0.497887
0.498034
0.497879
0.497993
0.497839
0.497961
0.497829
0.497987
0.497852
0.498003
0.497804
0.497903
0.497637
0.496251
0.479342
26.2227
17.249
13.9458
14.5193
14.7142
13.4482
10.9862
7.67891
5.55487
6.50786
7.79306
2.50487
0.40446
1.09354
0.557732
6.14079
13.0692
7.85985
1.56268
0.870318
0.57619
0.498402
0.483292
0.498591
0.569303
0.694061
0.724701
0.775318
1.57042
4.64522
9.9796
12.5927
13.6481
12.2665
6.61461
2.37488
0.667951
0.398942
0.306671
0.247767
0.22154
0.219367
0.988993
1.81059
1.03765
1.05478
1.00366
0.953799
0.938923
0.967224
1.05934
1.18748
1.60923
2.03611
2.12138
2.31873
2.51682
3.11668
3.85404
4.07986
3.48189
2.19263
1.24979
1.00779
0.969047
1.65093
1.77661
0.675834
0.451234
0.542519
0.695089
0.743532
0.748569
0.80354
0.880674
1.01013
1.13224
1.18376
1.22459
1.26494
1.43205
1.63592
1.71256
1.70357
1.55871
1.2785
1.06722
0.980261
1.01443
1.07914
1.0877
1.08356
1.06941
1.06419
1.07143
1.03542
0.926857
0.846457
0.759727
0.654496
0.587863
0.695372
0.903908
0.980054
0.797736
0.873246
1.00784
1.07184
1.0757
1.04826
1.01928
1.02479
1.09364
1.23308
1.38754
1.49906
1.58512
1.64594
1.65586
1.66198
1.64446
1.59337
1.3981
1.11021
0.808344
0.66953
0.560632
0.515956
0.456691
0.395196
0.320023
0.347434
0.335337
1.13688
0.68785
0.82408
1.03526
1.25416
1.40153
1.54498
1.53043
1.47798
1.44123
1.99373
3.87266
6.60146
7.28511
4.80829
3.77573
3.10872
2.95304
3.54367
4.22262
5.49671
5.3508
4.97684
1.85435
1.56606
1.4803
1.51151
1.53146
1.56544
1.18197
0.46639
1.77024
0.307905
0.87283
1.44367
1.59254
1.61807
1.6058
1.6532
1.66963
1.57866
1.68387
1.85304
1.91375
1.83472
1.84504
1.73907
1.69801
1.60194
1.54849
1.48536
1.49151
1.40399
1.38782
1.27358
1.26788
1.56358
1.24167
1.24381
5.33113
6.54104
2.64673
5.2552
4.58004
3.42923
3.51271
4.54547
4.2166
4.52883
4.5887
4.10239
2.46312
1.29658
1.1059
1.05597
1.08124
1.03276
1.05536
1.01847
1.0368
1.00912
1.02357
1.00232
1.01334
0.996782
1.00519
0.991285
0.997799
0.98443
0.987943
0.9828
1.01237
0.99797
1.00041
0.992593
0.995778
0.990095
0.992908
0.988314
0.990873
0.987108
0.989525
0.986389
0.988468
0.98601
0.987658
0.985826
0.987053
0.985702
0.986661
0.985646
0.986385
0.985625
0.986219
0.985638
0.986114
0.985655
0.985904
0.985375
0.985397
0.99167
0.991383
0.985204
0.985449
0.985904
0.985509
0.98587
0.985377
0.985773
0.985298
0.985712
0.98528
0.985655
0.985288
0.985599
0.985303
0.985606
0.985332
0.985688
0.985462
0.985291
0.985457
0.98535
0.985775
0.985361
0.985804
0.985393
0.985768
0.985286
0.985848
0.992071
0.991584
0.985565
0.98573
0.985412
0.985818
0.985333
0.985734
0.985264
0.985678
0.985266
0.985664
0.985286
0.985625
0.985299
0.98559
0.985312
0.985608
0.985303
0.98567
0.985314
0.985753
0.985339
0.985811
0.985392
0.98585
0.985422
0.985667
0.985245
0.985351
0.991601
0.992143
0.985576
0.985095
0.985287
0.985769
0.9854
0.985828
0.985355
0.985768
0.985328
0.985733
0.985296
0.985673
0.985314
0.9854
0.985423
0.985324
0.985664
0.985302
0.985734
0.985324
0.985777
0.985361
0.985847
0.985451
0.985901
0.985427
0.985238
0.985449
0.99219
0.991588
0.985573
0.985722
0.985403
0.985866
0.985357
0.985851
0.985294
0.985795
0.98526
0.985724
0.985244
0.985669
0.985283
0.985641
0.985294
0.985592
0.985264
0.985646
0.985267
0.98572
0.985293
0.985814
0.985361
0.985903
0.985394
0.985691
0.985191
0.985191
0.991372
20.7861
15.5486
14.7512
15.7941
15.9455
13.893
7.07181
2.80441
2.21764
2.69994
4.38095
2.04898
0.361142
0.677384
1.6456
5.99157
7.20857
2.47958
0.823919
0.56016
0.506053
0.500601
0.530053
0.666939
0.982955
1.18754
1.33435
1.36136
1.7974
3.81805
7.67294
11.1863
12.8934
13.4892
9.56863
3.66316
0.992652
0.349858
0.250651
0.224134
0.224416
0.206475
0.891155
1.37031
1.01669
1.02116
0.983888
0.948554
0.931948
1.00519
1.12676
1.2935
1.75417
2.28768
2.36534
2.41428
3.0483
3.95462
5.22576
4.88723
2.732
1.38275
1.19404
1.03725
1.32928
2.08848
1.13016
0.490096
0.49776
0.629371
0.697263
0.70442
0.706634
0.719773
0.889316
1.01902
1.11081
1.15444
1.24785
1.40273
1.62736
1.71339
1.71204
1.62434
1.39578
1.19816
1.11993
1.11958
1.11499
1.08187
1.04649
1.00404
0.971896
0.962722
0.978791
1.05381
1.12657
1.04349
0.909553
0.773494
0.637511
0.647548
0.813269
0.921843
0.835867
0.958371
1.09795
1.22033
1.27488
1.22499
1.11858
1.06716
1.09532
1.21288
1.35517
1.46501
1.57224
1.6478
1.69826
1.71162
1.6724
1.65452
1.5431
1.2823
0.976371
0.704312
0.57177
0.45304
0.36652
0.324013
0.34455
0.390166
0.390452
0.943756
0.553866
0.803915
0.994996
1.22
2.18688
2.05059
1.7299
1.63832
2.08438
3.31624
5.33013
5.69758
3.83341
2.78889
1.62916
1.6693
1.75895
2.18549
3.20052
4.27248
6.2512
7.86604
8.44471
7.35182
2.115
1.51473
1.49347
1.53248
1.29021
0.635094
2.59438
0.800788
1.23001
1.52811
1.61588
1.61288
1.62151
1.684
1.62661
1.58705
1.72881
1.80915
1.87403
1.9047
1.81014
1.80206
1.6678
1.62149
1.52616
1.49831
1.49812
1.37421
1.39133
1.378
1.52272
1.71832
1.93906
1.20669
4.40002
5.52487
4.71995
2.15854
2.03098
2.9555
4.23968
3.89726
4.2747
4.14515
4.59731
4.87489
4.60735
2.97269
1.78152
1.67475
1.6747
1.63154
1.64064
1.60168
1.61219
1.58212
1.59435
1.56552
1.58079
1.55248
1.56868
1.54094
1.55589
1.52976
1.53907
1.52221
1.57823
1.56992
1.55526
1.55591
1.54798
1.54798
1.54375
1.54386
1.54134
1.54093
1.54017
1.53905
1.53932
1.53787
1.53865
1.53721
1.53813
1.53686
1.53776
1.53669
1.53747
1.53659
1.53728
1.53653
1.53703
1.53627
1.53641
1.5355
1.53574
1.54383
1.54374
1.53553
1.5357
1.53615
1.5363
1.53644
1.53647
1.5365
1.53645
1.53649
1.53647
1.53652
1.53647
1.5365
1.53645
1.53653
1.53647
1.53662
1.53655
1.53636
1.53642
1.53647
1.53655
1.53646
1.53639
1.53618
1.53596
1.53552
1.53584
1.54443
1.54381
1.53582
1.53568
1.53597
1.53624
1.53629
1.53644
1.53639
1.53646
1.53643
1.53651
1.53648
1.53652
1.53647
1.53651
1.53647
1.53652
1.53648
1.53654
1.5365
1.53656
1.5365
1.53656
1.53649
1.53645
1.5362
1.53593
1.53547
1.53559
1.54385
1.54439
1.53574
1.5353
1.53582
1.5362
1.53633
1.53651
1.53648
1.53653
1.5365
1.53656
1.53649
1.53655
1.53647
1.5364
1.53644
1.53647
1.53656
1.53649
1.53657
1.53649
1.53654
1.5365
1.53655
1.53641
1.53634
1.536
1.53536
1.53563
1.54439
1.54392
1.53585
1.53567
1.53595
1.53625
1.53636
1.53651
1.53648
1.53653
1.53649
1.53651
1.53651
1.53655
1.53652
1.53659
1.53652
1.53656
1.53651
1.53657
1.53653
1.53658
1.53655
1.5366
1.5365
1.53647
1.53612
1.5357
1.53469
1.53356
1.54175
16.7993
14.2193
15.0918
16.3375
17.1907
14.1144
4.56061
2.33902
3.1622
3.2892
3.11827
1.54326
0.303038
0.344597
1.44435
5.30313
5.89814
5.52787
2.00782
0.865422
0.617305
0.556214
0.545528
0.568434
0.61592
0.758882
1.0059
1.46715
2.00732
2.71758
3.55675
5.3008
8.46227
10.8709
12.8918
13.2862
11.1478
4.09065
1.01167
0.293604
0.234745
0.247644
0.296917
0.342375
0.502092
0.613552
0.663893
0.752655
0.893541
0.972581
0.941717
0.931638
1.05782
1.38379
1.99777
2.6211
2.50232
2.62967
3.04336
3.59543
4.33218
5.93631
5.73687
3.54763
1.43924
1.29303
1.20733
1.31437
1.73765
1.13153
0.551916
0.479962
0.566544
0.652947
0.709357
0.737718
0.745159
0.760657
0.801432
0.898668
0.958532
1.04663
1.09067
1.18766
1.3402
1.5809
1.69791
1.70869
1.67133
1.5455
1.37009
1.24254
1.16577
1.11124
1.07176
1.04324
1.00432
0.967302
0.939567
0.949679
0.956607
1.00443
1.07482
1.11653
1.06772
0.883035
0.701301
0.691233
0.824951
0.876204
0.87179
0.946155
0.931434
1.08928
1.26975
1.46428
1.57489
1.53678
1.33675
1.14884
1.11509
1.18231
1.29429
1.41016
1.50559
1.62472
1.70967
1.72126
1.72105
1.66453
1.6338
1.57003
1.30759
0.97933
0.646103
0.455893
0.366984
0.386726
0.468389
0.484967
0.502838
0.487837
0.482408
0.571377
0.643477
0.821215
1.00872
1.54185
3.09842
2.66399
2.12591
2.31589
2.70382
3.75307
4.42342
2.949
1.61388
1.62976
1.64419
1.64257
1.66922
1.66954
1.95462
2.93379
4.92613
7.08538
8.49096
9.6033
9.29081
3.95312
1.47133
1.49379
1.6306
0.888452
0.491221
0.88816
2.59452
1.02497
1.33923
1.30628
1.50504
1.59363
1.63204
1.64663
1.64573
1.58605
1.76849
1.80727
1.89014
1.85454
1.86052
1.76165
1.71401
1.50893
1.51058
1.45182
1.44875
1.39392
1.35205
1.99706
2.7296
2.46395
2.43537
1.52769
1.30852
4.06294
4.40255
4.03624
1.87404
1.73928
1.74185
2.96579
3.5114
4.33247
4.03376
4.33456
4.30913
4.81887
5.0736
4.82218
3.24219
2.39475
2.42672
2.37513
2.39023
2.3535
2.36481
2.33466
2.34836
2.32258
2.33394
2.31321
2.32122
2.30488
2.3092
2.29264
2.2952
2.29946
2.3527
2.34725
2.3585
2.30965
2.31589
2.29819
2.30656
2.29498
2.30103
2.29341
2.29739
2.29244
2.29496
2.29172
2.29335
2.29112
2.2922
2.29064
2.29137
2.29026
2.29077
2.28993
2.2903
2.28965
2.28997
2.28942
2.28957
2.28902
2.28898
2.28872
2.29122
2.31892
2.34472
2.34472
2.31903
2.29109
2.28879
2.28887
2.28881
2.28909
2.28904
2.28924
2.28909
2.28924
2.28913
2.28928
2.28921
2.28929
2.28923
2.28929
2.28922
2.28933
2.28927
2.28905
2.28908
2.28914
2.2892
2.28905
2.28899
2.28871
2.28866
2.28864
2.29134
2.31917
2.34462
2.34463
2.31889
2.29126
2.28877
2.28857
2.28882
2.28883
2.28911
2.28901
2.28918
2.28906
2.28923
2.28916
2.28927
2.28921
2.28927
2.28921
2.28928
2.2892
2.28928
2.28915
2.28925
2.28911
2.28925
2.28904
2.28904
2.28873
2.28862
2.28855
2.29111
2.31889
2.34464
2.34462
2.31913
2.29116
2.28845
2.28849
2.28881
2.28887
2.28915
2.28908
2.28923
2.28912
2.28927
2.28918
2.28929
2.28922
2.28916
2.28919
2.28922
2.28929
2.28918
2.28926
2.2891
2.28923
2.28908
2.28919
2.28892
2.28891
2.28863
2.28852
2.29111
2.31915
2.3446
2.34463
2.31898
2.29129
2.28878
2.28856
2.28887
2.28886
2.2892
2.28904
2.28921
2.28904
2.2892
2.28907
2.28922
2.28915
2.28926
2.28921
2.28929
2.28921
2.28928
2.28911
2.28922
2.28901
2.28918
2.28887
2.28896
2.28857
2.28847
2.28835
2.29102
2.3187
2.34296
2.32303
14.9082
14.2328
15.3145
16.2238
17.0038
13.6188
3.53164
2.26797
5.25295
7.81782
4.57324
1.70826
0.387088
0.212656
0.29172
2.15016
5.25052
2.28866
0.884747
0.685437
0.621758
0.59237
0.60892
0.659869
0.702248
0.716207
0.729781
0.759115
1.06773
1.61317
2.50588
3.87467
5.98698
8.89236
10.9443
11.9002
9.07774
3.21275
0.744959
0.261066
0.239698
0.312162
0.442296
0.533516
0.627746
0.704665
0.804472
0.848794
0.907698
0.928987
0.985058
1.21304
1.71196
1.65672
1.62441
1.63652
1.65515
1.9768
2.9988
4.44479
6.24602
6.24899
3.8785
1.43717
1.28559
1.24223
1.17099
1.24045
0.87122
0.573899
0.484722
0.535216
0.632374
0.728035
0.781754
0.795678
0.824831
0.861375
0.917284
0.962744
1.00342
1.05158
1.12519
1.22625
1.44697
1.63596
1.68793
1.81082
1.63478
1.52888
1.38089
1.23114
1.12439
1.07176
1.05935
1.04588
1.02124
0.982483
0.959389
0.978051
0.986621
1.04358
1.12295
1.14622
1.09137
0.897168
0.744159
0.775524
0.88005
0.872758
0.913605
0.959565
1.05693
1.22049
1.48015
1.66909
1.69353
1.68124
1.54008
1.30909
1.16734
1.16531
1.23033
1.30613
1.42184