/*--------------------------------*- C++ -*----------------------------------*\
| =========                 |                                                 |
| \\      /  F ield         | OpenFOAM: The Open Source CFD Toolbox           |
|  \\    /   O peration     | Version:  2.1.1                                 |
|   \\  /    A nd           | Web:      www.OpenFOAM.org                      |
|    \\/     M anipulation  |                                                 |
\*---------------------------------------------------------------------------*/
FoamFile
{
    version     2.0;
    format      ascii;
    class       volVectorField;
    location    "0.002950000";
    object      U;
}
// * * * * * * * * * * * * * * * * * * * * * * * * * * * * * * * * * * * * * //

dimensions      [0 1 -1 0 0 0 0];

internalField   nonuniform List<vector> 
12384
(
(9.54355 7.28466 0)
(30.0657 11.3942 0)
(48.5215 11.5177 0)
(67.5333 10.0227 0)
(88.3392 11.7334 0)
(101.878 6.46528 0)
(110.357 7.41578 0)
(114.875 7.63089 0)
(121.631 13.7394 0)
(120.824 9.52933 0)
(100.498 11.5816 0)
(78.7113 5.056 0)
(43.4969 1.94092 0)
(15.7739 7.81362 0)
(9.06174 3.65417 0)
(24.536 11.7589 0)
(26.8335 -2.26015 0)
(28.4798 -5.9464 0)
(32.0096 -9.58554 0)
(38.9498 -8.73101 0)
(38.6148 -9.88239 0)
(40.6047 -9.12133 0)
(30.4764 -11.838 0)
(7.66548 -20.4925 0)
(-5.49816 -14.3263 0)
(-78.7944 -41.1706 0)
(-93.1645 -11.5909 0)
(-150.084 -26.6357 0)
(-163.788 3.54183 0)
(-172.645 6.58963 0)
(-171.62 16.9102 0)
(-164.547 19.7514 0)
(-151.161 27.5061 0)
(-149.196 18.0741 0)
(-135.478 24.6708 0)
(-121.743 16.7132 0)
(-101.511 16.7173 0)
(-75.263 7.59117 0)
(-50.1895 11.5086 0)
(-26.3233 4.99837 0)
(-23.3834 16.2846 0)
(-30.5617 48.2422 0)
(-12.8695 4.09937 0)
(4.70294 19.0964 0)
(2.87672 3.36545 0)
(13.7583 6.93698 0)
(28.6843 6.32224 0)
(37.0705 2.57037 0)
(53.8724 8.40638 0)
(64.0098 -0.815056 0)
(81.7307 8.98761 0)
(98.5815 1.10206 0)
(116.373 4.71865 0)
(146.538 0.431244 0)
(137.534 -4.23159 0)
(110.306 -22.5848 0)
(98.0189 -11.0563 0)
(59.0657 -29.5379 0)
(26.8196 -15.6789 0)
(45.3267 4.64662 0)
(65.832 -1.15385 0)
(71.902 11.9924 0)
(79.3747 14.6752 0)
(75.9737 6.29034 0)
(62.3687 16.2562 0)
(81.2561 9.48586 0)
(105.833 3.51618 0)
(117.917 -7.50297 0)
(99.1424 -1.22073 0)
(49.6185 14.1474 0)
(18.1135 5.7729 0)
(15.2648 -9.14819 0)
(24.4153 -2.72664 0)
(-11.1667 15.7822 0)
(-33.7984 30.9352 0)
(-90.9744 28.36 0)
(-148.299 26.9464 0)
(-193.98 -1.7406 0)
(-211.661 -24.0284 0)
(-242.005 -45.1688 0)
(-226.138 -16.6766 0)
(-194.187 -33.1217 0)
(-182.737 -15.5326 0)
(-142.297 -24.626 0)
(-101.976 -21.4024 0)
(-60.1348 -22.3373 0)
(-10.5567 -15.512 0)
(35.8123 -24.9136 0)
(66.2491 -14.6212 0)
(106.1 -19.1486 0)
(144.079 -9.52392 0)
(184.018 -6.60578 0)
(229.2 6.90905 0)
(267.08 17.0007 0)
(294.717 27.0726 0)
(288.541 27.6585 0)
(230.146 29.1154 0)
(116.057 24.425 0)
(-1.86157 21.27 0)
(-81.8363 17.8429 0)
(-94.1089 33.5834 0)
(-75.846 24.4026 0)
(-56.0835 81.0258 0)
(-43.4719 44.0716 0)
(-55.1056 -28.2423 0)
(-131.259 -22.8696 0)
(-173.481 -15.902 0)
(-172.053 -24.544 0)
(-143.698 -39.5848 0)
(-86.5073 -38.6939 0)
(-40.1522 -31.4134 0)
(3.00171 -39.7792 0)
(-11.6663 -50.692 0)
(11.044 -29.4383 0)
(-1.5726 -38.4981 0)
(-21.1159 -12.7069 0)
(-13.5261 -3.70514 0)
(-11.5232 -7.62107 0)
(41.1555 -0.64117 0)
(41.1532 -27.7216 0)
(78.7317 -4.84567 0)
(107.375 -27.3082 0)
(101.866 4.85278 0)
(125.32 -1.7894 0)
(53.0798 23.379 0)
(39.4752 29.4978 0)
(4.71019 14.158 0)
(-6.46732 -0.467408 0)
(5.03739 -15.4696 0)
(-9.94703 -0.668292 0)
(-48.2267 -7.82837 0)
(-69.8386 14.7679 0)
(-71.1729 13.0618 0)
(-21.5834 8.06532 0)
(6.76335 5.27148 0)
(37.8507 -12.1471 0)
(103.966 1.88482 0)
(164.316 -33.6699 0)
(245.364 -6.01321 0)
(312.751 -16.8526 0)
(336.399 14.0958 0)
(370.461 -3.60457 0)
(361.466 7.04681 0)
(356.393 9.18413 0)
(318.201 19.5552 0)
(221.756 21.1523 0)
(101.362 37.8209 0)
(-13.8942 33.3236 0)
(-129.482 26.5792 0)
(-181.649 16.5009 0)
(-229.751 -14.9961 0)
(-238.773 -3.14695 0)
(-305.613 5.85074 0)
(-162.777 29.0107 0)
(-83.7231 0.715277 0)
(-108.827 3.14734 0)
(-102.546 -8.56485 0)
(-60.1524 -53.7658 0)
(-15.8907 5.70035 0)
(-39.7503 -9.23923 0)
(-145.092 43.8294 0)
(-212.915 30.2217 0)
(-195.395 66.9113 0)
(-36.5213 45.9407 0)
(20.6258 34.7771 0)
(71.9101 13.9352 0)
(80.2907 94.3267 0)
(38.5511 70.0839 0)
(16.2811 51.7832 0)
(28.938 39.0465 0)
(76.8688 5.62795 0)
(109.294 -21.9515 0)
(98.9818 -71.5753 0)
(41.1155 -17.539 0)
(-21.0622 -50.7355 0)
(-36.2086 11.9513 0)
(-22.8821 -2.52577 0)
(-15.8976 6.4956 0)
(-3.77993 -2.67533 0)
(20.3448 -2.42919 0)
(65.1459 2.32732 0)
(95.2108 -4.61629 0)
(115.655 3.07907 0)
(142.446 -7.24853 0)
(175.142 5.0523 0)
(206.685 -11.7455 0)
(211.54 20.6695 0)
(267.314 -10.5272 0)
(224.042 26.7832 0)
(-57.1221 28.6098 0)
(-310.975 28.0785 0)
(-289.896 12.7481 0)
(-181.38 7.06063 0)
(-51.9863 16.1454 0)
(-30.9896 -105.34 0)
(-6.5754 -39.5897 0)
(23.1033 -107.516 0)
(18.6559 -65.5352 0)
(23.1014 -48.9093 0)
(15.7054 -8.62226 0)
(14.4174 -0.908182 0)
(15.9663 -1.14663 0)
(15.772 -1.94381 0)
(15.7574 -1.23921 0)
(15.3541 -1.42655 0)
(14.0615 -0.901292 0)
(13.7997 -0.86359 0)
(11.84 -0.612717 0)
(12.0413 -0.500536 0)
(10.0657 -0.521687 0)
(9.67544 -0.165425 0)
(8.75919 -0.343169 0)
(7.89603 -0.120589 0)
(7.27227 -0.186224 0)
(6.39052 -0.128072 0)
(5.76125 -0.0933635 0)
(4.96722 -0.12281 0)
(4.30293 -0.0306485 0)
(3.57658 -0.037105 0)
(2.96695 -0.0068106 0)
(2.19988 0.0456665 0)
(1.64578 0.044042 0)
(0.826616 0.040547 0)
(0.268006 0.0600541 0)
(0.0563478 -0.0375997 0)
(0.140876 -0.05815 0)
(0.206603 -0.0288955 0)
(0.258888 -0.104065 0)
(0.28359 -0.0276642 0)
(0.315399 -0.0800034 0)
(0.325755 -0.029186 0)
(0.327953 -0.0520281 0)
(0.321036 -0.0239904 0)
(0.317558 -0.035863 0)
(0.281683 -0.0213526 0)
(0.286945 -0.0191471 0)
(0.245778 -0.0191778 0)
(0.241286 -0.0107195 0)
(0.213711 -0.0109823 0)
(0.19672 -0.00826308 0)
(0.177828 -0.00785428 0)
(0.157482 -0.00245701 0)
(0.141269 -0.00678926 0)
(0.121139 0.00334005 0)
(0.10894 -0.00806037 0)
(0.0915711 0.00850353 0)
(0.0814609 -0.00893124 0)
(0.066591 0.0110996 0)
(0.0557437 -0.00800609 0)
(0.0426684 0.00848741 0)
(0.0349248 -0.0039389 0)
(0.0216547 0.00532348 0)
(0.0144839 -0.00208867 0)
(0.00225851 0.0039999 0)
(9.56421e-05 -0.000569537 0)
(0.0016374 -0.00272162 0)
(0.00392748 -0.00230105 0)
(0.00444265 -0.000758391 0)
(0.00457749 -0.00107676 0)
(0.00439158 -8.8726e-05 0)
(0.00344746 -0.000495072 0)
(0.00288241 0.000306774 0)
(0.00190189 -0.000290738 0)
(0.00154578 0.000486464 0)
(0.000806246 -0.000316954 0)
(0.000712533 0.000470779 0)
(0.00026848 -0.000491792 0)
(0.000410613 0.000405282 0)
(0.00030876 -0.000675865 0)
(0.000616606 0.000244688 0)
(0.000699294 -0.000769542 0)
(0.000934389 5.91932e-05 0)
(0.00102479 -0.000664342 0)
(0.00138144 0.000564013 0)
(0.000248862 0.00081109 0)
(-6.58883e-05 -9.24579e-05 0)
(-0.000514964 0.000361571 0)
(-0.000873177 -0.000289376 0)
(-0.00140395 0.000151087 0)
(-0.00160359 -0.00071101 0)
(-0.00172264 -0.000226313 0)
(-0.00142655 -0.00133985 0)
(-0.000924601 -0.000525992 0)
(-0.000662156 -0.000466003 0)
(0.000697606 -0.000784426 0)
(0.00156603 -0.000890985 0)
(0.00124389 -0.000157581 0)
(0.000986031 -0.000894824 0)
(0.000673362 -3.17538e-05 0)
(0.000183392 -0.000691808 0)
(-0.000104393 3.55142e-05 0)
(-0.000507189 -0.000603331 0)
(-0.00065597 8.71152e-05 0)
(-0.000890041 -0.000590805 0)
(-0.000853727 0.00010206 0)
(-0.000914041 -0.000719824 0)
(-0.000731876 6.75115e-05 0)
(-0.000450125 -0.00103851 0)
(-4.1519e-05 -1.97e-05 0)
(0.00044222 -0.00105262 0)
(0.000757261 3.7479e-05 0)
(0.00100177 -0.000771864 0)
(0.000948784 0.000109218 0)
(0.000955454 -0.000541506 0)
(0.000588486 0.000179958 0)
(0.000210098 -0.000468136 0)
(-0.000504093 0.000144438 0)
(-0.00111633 -0.000561547 0)
(-0.00185536 -2.92739e-05 0)
(-0.00223142 -0.000841354 0)
(-0.00239305 -0.000143559 0)
(-0.00257038 -0.00124715 0)
(-0.000739329 -0.00197514 0)
(0.00058255 8.77054e-06 0)
(-0.000337407 0.00142538 0)
(-0.00109669 0.000419396 0)
(-0.000744927 -0.00115014 0)
(0.000731763 -0.00154397 0)
(0.00147565 -0.000503014 0)
(0.0018364 -0.00076618 0)
(0.00186043 -6.00328e-05 0)
(0.00156029 -0.000451066 0)
(0.00118452 7.53647e-05 0)
(0.000775335 -0.000478689 0)
(0.000472629 6.3086e-05 0)
(0.000342205 -0.000677339 0)
(0.000283253 6.11726e-05 0)
(0.000431447 -0.000849962 0)
(0.000701468 0.000266961 0)
(-0.000427124 0.000344512 0)
(-0.000243453 -0.000740151 0)
(-0.000141774 0.000210573 0)
(5.31506e-06 -0.000678212 0)
(-0.000126123 0.000188583 0)
(-0.000231461 -0.000521062 0)
(-0.000571823 0.000132149 0)
(-0.000759639 -0.000577671 0)
(-0.00100469 -7.91335e-05 0)
(-0.000917484 -0.000909323 0)
(-0.000806325 -0.00034297 0)
(-0.000563886 -0.00112044 0)
(-0.000707862 0.000276712 0)
(-0.00199043 7.7948e-05 0)
(-0.00151957 -0.000889138 0)
(0.000733345 -0.000998437 0)
(0.00131283 -0.00107561 0)
(0.000630458 -0.000598052 0)
(4.97974e-05 -0.00101649 0)
(-0.000521765 -0.000587705 0)
(-0.0012389 -0.000724799 0)
(-0.00175887 -0.000650068 0)
(-0.0022138 -0.000624922 0)
(-0.00253245 -0.000649628 0)
(-0.00271614 -0.000571226 0)
(-0.00289402 -0.000513543 0)
(-0.00280543 -0.000609168 0)
(-0.00284778 -0.00030904 0)
(-0.00244232 -0.000813925 0)
(-0.00208451 -0.000212244 0)
(-0.00121358 -0.00103462 0)
(-0.000619787 -2.571e-07 0)
(0.000222796 -0.00101607 0)
(0.000727291 0.000133856 0)
(0.00100704 -0.000674754 0)
(0.00091446 2.74751e-05 0)
(0.000750633 -0.000558042 0)
(0.000189461 -2.6097e-06 0)
(-0.000404066 -0.000558241 0)
(-0.00114824 -0.000148624 0)
(-0.00159097 -0.000804199 0)
(-0.00184628 -0.000223833 0)
(-0.00222993 -0.00108924 0)
(-0.000422059 -0.00171479 0)
(0.00107653 0.000966565 0)
(12.2286 17.4861 0)
(37.0973 15.7945 0)
(53.3114 11.5806 0)
(68.8655 11.4014 0)
(81.3943 12.1373 0)
(94.5518 8.57534 0)
(111.415 12.3842 0)
(119.979 17.5354 0)
(121.979 23.8881 0)
(113.298 18.7467 0)
(99.2925 23.8882 0)
(79.561 22.1198 0)
(45.0265 19.8208 0)
(14.5518 21.7763 0)
(15.9485 -2.14001 0)
(31.3366 5.24227 0)
(34.4037 -11.9942 0)
(39.6358 -21.2378 0)
(45.2371 -30.8732 0)
(51.1913 -30.0824 0)
(44.8822 -33.7386 0)
(42.668 -30.2546 0)
(15.0579 -33.8929 0)
(-0.926989 -37.2255 0)
(-55.4088 -54.5481 0)
(-97.5059 -42.484 0)
(-150.522 -55.0951 0)
(-177.935 -18.7761 0)
(-192.449 -7.51799 0)
(-198.534 34.0658 0)
(-187.373 48.4241 0)
(-175.678 61.8289 0)
(-163.611 68.1912 0)
(-150.18 61.3993 0)
(-140.544 60.4515 0)
(-123.751 52.7138 0)
(-103.968 45.4416 0)
(-85.0423 30.1407 0)
(-57.6008 37.8543 0)
(-53.4133 14.9529 0)
(-42.427 45.8209 0)
(-33.9385 61.5528 0)
(-20.0396 -3.12461 0)
(-9.95477 12.1861 0)
(7.55818 11.8539 0)
(18.1004 14.4594 0)
(29.2755 14.2292 0)
(46.4116 5.26994 0)
(57.0357 11.1904 0)
(72.9512 5.64431 0)
(97.4165 10.5319 0)
(107.695 4.26925 0)
(123.344 8.77966 0)
(148.83 -10.786 0)
(122.885 -26.3468 0)
(110.121 -49.2536 0)
(106.408 -64.3963 0)
(68.2606 -31.2194 0)
(73.7474 -51.4437 0)
(44.0863 24.5247 0)
(67.1362 2.09973 0)
(82.8403 25.4289 0)
(89.0952 21.6559 0)
(91.3036 21.7971 0)
(79.5518 38.9564 0)
(83.1205 34.7603 0)
(89.8231 15.2147 0)
(96.7483 -5.47131 0)
(82.7811 0.333175 0)
(46.1093 23.7066 0)
(18.6137 18.12 0)
(-4.52232 -1.97751 0)
(-13.6028 5.74331 0)
(-26.3901 7.47774 0)
(-32.2917 78.9522 0)
(-110.941 32.0858 0)
(-188.378 -6.95119 0)
(-241.868 -60.0816 0)
(-248.483 -53.7864 0)
(-217.727 -66.9201 0)
(-216.143 -45.468 0)
(-196.774 -52.2238 0)
(-164.736 -54.9498 0)
(-139.755 -50.0985 0)
(-97.3829 -44.9087 0)
(-52.1557 -55.2769 0)
(-18.612 -46.9269 0)
(23.777 -47.9479 0)
(63.522 -44.1912 0)
(84.6775 -31.3382 0)
(116.012 -11.2048 0)
(157.313 3.14985 0)
(196.918 28.2227 0)
(236.529 50.3197 0)
(261.347 70.0133 0)
(251.127 81.6281 0)
(193.582 87.6119 0)
(96.3473 71.9398 0)
(-26.0032 60.7999 0)
(-92.1514 67.2302 0)
(-110.882 79.8752 0)
(-104.467 88.2013 0)
(-92.4921 145.986 0)
(-55.8408 93.6485 0)
(-55.1685 -54.4632 0)
(-98.9364 -24.5086 0)
(-116.987 -28.5697 0)
(-120.78 -42.3099 0)
(-91.1593 -62.2332 0)
(-56.343 -54.9552 0)
(-28.2942 -71.1395 0)
(-22.3291 -71.3295 0)
(-8.48658 -73.5417 0)
(3.36813 -66.0129 0)
(-3.90488 -95.2092 0)
(-7.38747 -64.1146 0)
(15.7345 -51.1317 0)
(-1.4874 -36.7924 0)
(14.9663 -8.77729 0)
(12.4005 -49.8707 0)
(31.1235 -18.5355 0)
(37.3223 -59.0109 0)
(35.2051 -2.38632 0)
(29.7428 -25.3346 0)
(-15.5182 67.5593 0)
(-37.5872 25.2016 0)
(-34.4863 29.4575 0)
(-22.014 -39.2366 0)
(-6.7042 -30.009 0)
(-13.7382 -4.91327 0)
(-48.4542 -16.6195 0)
(-62.4118 -0.244272 0)
(-48.0303 7.81947 0)
(-11.0324 24.5251 0)
(15.8365 5.10074 0)
(74.5666 -4.86397 0)
(150.349 24.9624 0)
(158.163 -7.86704 0)
(202.234 -6.88329 0)
(227.18 -4.96162 0)
(258.737 14.3994 0)
(262.145 18.973 0)
(277.191 24.1873 0)
(273.461 38.0379 0)
(248.123 58.4276 0)
(168.999 58.6965 0)
(70.6331 110.983 0)
(-51.3227 68.5993 0)
(-135.017 81.9413 0)
(-216.877 22.9947 0)
(-255.561 14.815 0)
(-264.393 28.8173 0)
(-326.24 47.849 0)
(-212.821 126.023 0)
(-107.498 15.4447 0)
(-133.928 10.284 0)
(-224.215 6.46725 0)
(-91.6716 29.7904 0)
(-13.2237 17.3441 0)
(-202.692 30.5082 0)
(-374.255 111.434 0)
(-258.333 157.39 0)
(-184.271 183.806 0)
(-64.0357 195.434 0)
(34.4615 101.963 0)
(126.711 115.796 0)
(239.507 220.977 0)
(232.503 224.041 0)
(267.331 214.619 0)
(308.626 118.314 0)
(381.393 73.9312 0)
(431.825 -10.9679 0)
(410.246 -50.981 0)
(321.288 -91.6878 0)
(127.669 -19.025 0)
(-2.45078 9.30417 0)
(-44.3157 2.41299 0)
(-4.73533 2.61639 0)
(15.5741 -2.26644 0)
(63.6568 -4.67556 0)
(105.72 0.450246 0)
(136.347 -4.42505 0)
(184.163 8.41676 0)
(211.005 0.160257 0)
(230.585 8.04228 0)
(268.896 1.76665 0)
(283.403 25.3858 0)
(283.828 0.800108 0)
(346.316 17.1839 0)
(12.2753 47.7587 0)
(-257.385 71.4071 0)
(-253.44 56.343 0)
(-178.808 50.8484 0)
(-65.2621 41.8827 0)
(5.72331 -114.833 0)
(-19.2709 -171.643 0)
(1.47121 -200.171 0)
(43.3417 -250.536 0)
(57.5872 -210.077 0)
(72.5494 -175.503 0)
(42.0911 -65.2257 0)
(15.5128 -3.76945 0)
(15.52 -5.39279 0)
(16.0505 -2.67443 0)
(15.4879 -5.00572 0)
(14.242 -1.68682 0)
(14.0705 -3.37421 0)
(12.1563 -1.2299 0)
(11.8546 -1.82017 0)
(10.298 -1.30169 0)
(9.53457 -0.792466 0)
(8.61915 -0.908335 0)
(7.75385 -0.505509 0)
(7.05363 -0.422415 0)
(6.24572 -0.38257 0)
(5.63501 -0.169572 0)
(4.83061 -0.279871 0)
(4.30499 -0.0281076 0)
(3.4798 -0.131195 0)
(3.03492 0.0787441 0)
(2.16673 0.0155448 0)
(1.68973 0.195224 0)
(0.885119 0.0919014 0)
(0.238852 0.192038 0)
(0.0202537 -0.223371 0)
(0.095416 -0.253559 0)
(0.144435 -0.196467 0)
(0.217592 -0.231148 0)
(0.281368 -0.160324 0)
(0.320637 -0.158452 0)
(0.342604 -0.134652 0)
(0.351235 -0.0934309 0)
(0.345937 -0.112554 0)
(0.334313 -0.0485085 0)
(0.315609 -0.0914207 0)
(0.293649 -0.0220894 0)
(0.270488 -0.0686769 0)
(0.243468 -0.0164717 0)
(0.224636 -0.0466656 0)
(0.197083 -0.0140072 0)
(0.180936 -0.0334771 0)
(0.157574 -0.00499449 0)
(0.137099 -0.028373 0)
(0.120046 -0.0014934 0)
(0.102013 -0.0260571 0)
(0.0858922 -0.0017732 0)
(0.0770718 -0.0227685 0)
(0.0555216 -0.0033157 0)
(0.0477112 -0.0234306 0)
(0.0313981 -0.00615186 0)
(0.020201 -0.0208945 0)
(0.00852006 -0.0083488 0)
(-0.00359771 -0.018132 0)
(-0.0111573 -0.0126139 0)
(0.0205215 -0.0166284 0)
(0.0189538 -0.0151563 0)
(0.0168927 -0.014397 0)
(0.0142797 -0.015043 0)
(0.0135995 -0.0128343 0)
(0.0121203 -0.0144503 0)
(0.0116189 -0.0116856 0)
(0.0104343 -0.0139892 0)
(0.00984268 -0.011121 0)
(0.008632 -0.0136834 0)
(0.00779932 -0.010922 0)
(0.0064183 -0.0133221 0)
(0.00513596 -0.0109451 0)
(0.00349436 -0.0127717 0)
(0.00175939 -0.0109909 0)
(-9.01303e-06 -0.0124649 0)
(-0.00187052 -0.0110861 0)
(-0.00371426 -0.0125496 0)
(-0.00592925 -0.0114112 0)
(-0.00667011 -0.0114731 0)
(-0.0101179 -0.0118645 0)
(-0.0113757 -0.0110428 0)
(-0.0125709 -0.0131552 0)
(-0.0136717 -0.0111258 0)
(-0.0143714 -0.0135327 0)
(-0.015049 -0.0118539 0)
(-0.0154842 -0.0143598 0)
(-0.0157654 -0.0131 0)
(-0.0135942 -0.0148024 0)
(-0.00771253 -0.012426 0)
(0.0110135 -0.0152858 0)
(0.0194523 -0.0127812 0)
(0.0173645 -0.0138502 0)
(0.0155987 -0.0118442 0)
(0.0140741 -0.0135896 0)
(0.0127605 -0.0114095 0)
(0.0114939 -0.0133759 0)
(0.0104752 -0.0111997 0)
(0.00938148 -0.0132016 0)
(0.00842716 -0.011109 0)
(0.00730138 -0.0129536 0)
(0.0060803 -0.0110958 0)
(0.00465917 -0.0126608 0)
(0.00294908 -0.011238 0)
(0.00122396 -0.0124725 0)
(-0.000542085 -0.0112219 0)
(-0.0022781 -0.0126329 0)
(-0.00382325 -0.0110549 0)
(-0.00515527 -0.0128426 0)
(-0.00641384 -0.0109734 0)
(-0.00744059 -0.0129875 0)
(-0.00853589 -0.0109335 0)
(-0.00942514 -0.013114 0)
(-0.0105476 -0.0111513 0)
(-0.011477 -0.013355 0)
(-0.0127246 -0.0117339 0)
(-0.0139819 -0.013152 0)
(-0.016284 -0.0123347 0)
(-0.0178833 -0.0132772 0)
(-0.0194877 -0.0145793 0)
(0.00885627 -0.0109094 0)
(0.0162607 -0.0144685 0)
(0.0142849 -0.0135488 0)
(0.0112809 -0.0135185 0)
(0.00993847 -0.0149118 0)
(0.00943049 -0.0123839 0)
(0.00897202 -0.0137684 0)
(0.00852115 -0.0115341 0)
(0.00809407 -0.0131821 0)
(0.00746986 -0.0112822 0)
(0.00677149 -0.0129616 0)
(0.00579246 -0.0113348 0)
(0.00457669 -0.0127446 0)
(0.00299031 -0.0114462 0)
(0.00204678 -0.0116943 0)
(-0.000970513 -0.012004 0)
(-0.00220578 -0.0113077 0)
(-0.00372593 -0.0128939 0)
(-0.00519432 -0.0113459 0)
(-0.00633592 -0.0131581 0)
(-0.00739765 -0.0113002 0)
(-0.00818423 -0.0133387 0)
(-0.00905126 -0.0115836 0)
(-0.0097384 -0.0137683 0)
(-0.0107485 -0.0122832 0)
(-0.0116901 -0.0143395 0)
(-0.0131374 -0.012769 0)
(-0.0144176 -0.0132089 0)
(-0.0143682 -0.0138612 0)
(-0.00698408 -0.0122544 0)
(0.0106393 -0.0156513 0)
(0.0185881 -0.0131092 0)
(0.0161613 -0.0144856 0)
(0.013763 -0.0123362 0)
(0.012021 -0.0143294 0)
(0.0103576 -0.0118783 0)
(0.00913805 -0.0142473 0)
(0.00801235 -0.0115712 0)
(0.00714095 -0.0140963 0)
(0.00632423 -0.011335 0)
(0.0055994 -0.0137221 0)
(0.00485891 -0.0112551 0)
(0.00404033 -0.0132224 0)
(0.00315182 -0.0112492 0)
(0.00202769 -0.0130693 0)
(0.000721653 -0.0112458 0)
(-0.000759805 -0.0127984 0)
(-0.00250151 -0.0111607 0)
(-0.00398458 -0.0127636 0)
(-0.00529385 -0.010968 0)
(-0.00619638 -0.0130686 0)
(-0.00725154 -0.0109264 0)
(-0.00804037 -0.0131361 0)
(-0.00912493 -0.011023 0)
(-0.010074 -0.0133472 0)
(-0.0112593 -0.0115199 0)
(-0.012576 -0.0132393 0)
(-0.014637 -0.0122912 0)
(-0.0166435 -0.0132166 0)
(-0.0187 -0.0139245 0)
(10.2611 20.9607 0)
(31.9275 21.1244 0)
(58.8905 19.3074 0)
(82.3129 15.5168 0)
(102.032 16.0343 0)
(118.134 20.6926 0)
(129.174 26.1161 0)
(131.716 30.8116 0)
(130.363 33.2499 0)
(129.987 33.3881 0)
(118.102 34.7756 0)
(88.485 45.8631 0)
(39.6927 56.8523 0)
(10.9327 34.7072 0)
(1.88724 -20.7131 0)
(14.0866 -9.67792 0)
(25.7312 -33.1892 0)
(30.1263 -41.5096 0)
(37.0735 -46.9192 0)
(41.4195 -51.357 0)
(37.6853 -53.3513 0)
(45.508 -48.3637 0)
(5.68861 -58.695 0)
(-24.1188 -42.1461 0)
(-78.3255 -93.555 0)
(-137.048 -35.8641 0)
(-169.856 -74.7597 0)
(-227.403 -8.73851 0)
(-222.421 -7.14741 0)
(-230.21 40.1944 0)
(-218.339 70.445 0)
(-198.967 87.5845 0)
(-178.09 96.0311 0)
(-164.293 93.171 0)
(-145.506 88.763 0)
(-124.135 81.482 0)
(-105.719 67.2616 0)
(-86.6474 57.2904 0)
(-72.8057 61.2257 0)
(-78.4377 26.2951 0)
(-61.7237 74.3771 0)
(-58.0873 22.2524 0)
(-24.3287 12.3127 0)
(8.40975 16.6813 0)
(6.54639 25.7899 0)
(20.4781 13.3367 0)
(30.334 15.2775 0)
(42.4003 13.4999 0)
(66.7866 11.6076 0)
(77.499 12.4973 0)
(95.2411 14.8279 0)
(120.132 10.8801 0)
(121.198 7.13455 0)
(132.378 -10.2865 0)
(109.107 -55.6987 0)
(106.775 -37.6615 0)
(100.897 -98.4736 0)
(80.073 -33.7368 0)
(84.893 -56.4556 0)
(69.0586 3.17943 0)
(76.8945 0.170806 0)
(92.4007 10.0307 0)
(89.019 21.3784 0)
(93.5846 33.8302 0)
(84.8794 64.328 0)
(86.3492 68.4541 0)
(89.6648 45.3911 0)
(93.4193 10.6638 0)
(79.9961 7.80447 0)
(48.5189 18.0337 0)
(8.56233 16.7901 0)
(-28.5273 9.49935 0)
(-30.1171 46.4126 0)
(-12.2819 17.1271 0)
(-81.0245 60.076 0)
(-165.33 0.492882 0)
(-199.581 -50.0762 0)
(-212.014 -69.298 0)
(-222.694 -83.8527 0)
(-227.96 -62.6159 0)
(-196.34 -75.2992 0)
(-178.293 -84.8957 0)
(-150.169 -81.8953 0)
(-109.193 -102.343 0)
(-88.9029 -96.0436 0)
(-56.2558 -92.7835 0)
(-7.92242 -91.9367 0)
(16.9483 -85.6388 0)
(43.4337 -72.4056 0)
(70.5022 -75.6022 0)
(85.2397 -33.639 0)
(115.479 -10.3208 0)
(158.107 22.7112 0)
(199.452 56.2033 0)
(229.516 96.3536 0)
(233.116 129.657 0)
(176.784 134.572 0)
(61.0428 119.782 0)
(-36.2005 102.227 0)
(-94.0874 100.594 0)
(-105.368 102.605 0)
(-92.3701 123.071 0)
(-54.5334 150.683 0)
(-8.93266 148.729 0)
(-23.7023 -30.4358 0)
(-57.9721 -29.2803 0)
(-90.4719 -54.6599 0)
(-79.5108 -65.8075 0)
(-50.836 -87.2231 0)
(-34.6775 -96.9715 0)
(-16.6192 -84.9278 0)
(9.11793 -63.9228 0)
(-1.40006 -66.4611 0)
(2.02137 -67.5737 0)
(26.3387 -73.6166 0)
(40.7066 -83.6901 0)
(49.9088 -74.0316 0)
(40.2375 -82.2137 0)
(42.137 -57.2314 0)
(-13.5324 -50.9081 0)
(5.05958 -47.953 0)
(-1.33383 -74.2891 0)
(-12.9631 -8.11283 0)
(17.7546 -27.5152 0)
(-57.7369 64.4865 0)
(-46.4773 38.7615 0)
(-64.7365 -3.67446 0)
(-116.456 -61.6888 0)
(-73.5159 -73.2449 0)
(-42.6132 -33.7911 0)
(-48.5997 -46.5102 0)
(-44.2798 -11.7995 0)
(-23.2996 -49.3695 0)
(0.412835 25.2977 0)
(64.8581 25.8841 0)
(113.643 62.035 0)
(162.896 69.8453 0)
(131.82 49.5909 0)
(143.819 12.3151 0)
(143.601 23.8665 0)
(158.144 14.6619 0)
(153.529 40.5872 0)
(146.231 27.1853 0)
(154.566 54.8292 0)
(132.906 69.8773 0)
(94.5673 107.711 0)
(-1.31314 117.693 0)
(-102.088 109.817 0)
(-192.933 67.63 0)
(-278.203 35.718 0)
(-343.148 2.7146 0)
(-377.308 6.26438 0)
(-390.184 37.4356 0)
(-337.028 122.845 0)
(-289.235 23.4479 0)
(-270.338 43.9223 0)
(-183.843 91.1114 0)
(-140.002 266.52 0)
(-158.021 58.1838 0)
(-192.639 119.757 0)
(-286.745 195.824 0)
(-274.385 354.318 0)
(-144.002 199.764 0)
(-38.9804 210 0)
(64.4901 145.406 0)
(206.544 262.156 0)
(477.684 460.67 0)
(428.088 398.878 0)
(498.501 311.534 0)
(523.457 170.296 0)
(552.988 98.1046 0)
(495.736 30.468 0)
(414.137 15.3685 0)
(246.763 -28.2315 0)
(35.5575 105.339 0)
(-239.433 29.7006 0)
(-285.079 20.6442 0)
(-238.173 -16.3699 0)
(-232.028 0.356187 0)
(-184.486 -12.7876 0)
(-118.412 0.384796 0)
(-54.8166 -0.745939 0)
(18.5016 30.1139 0)
(79.7551 20.3314 0)
(238.559 31.9498 0)
(301.092 42.4995 0)
(300.998 21.2816 0)
(332.132 27.496 0)
(319.976 -16.1171 0)
(118.031 -63.5806 0)
(-170.238 109.492 0)
(-198.888 132.447 0)
(-164.738 123.914 0)
(-60.6527 69.8851 0)
(-63.8863 -136.208 0)
(-48.5156 -185.169 0)
(-27.8037 -288.691 0)
(23.4479 -272.507 0)
(80.2334 -328.08 0)
(115.432 -289.335 0)
(137.762 -263.502 0)
(80.6695 -119.144 0)
(17.4377 -10.9906 0)
(13.4126 -5.70951 0)
(13.4984 -5.25611 0)
(12.8016 -4.58805 0)
(11.9009 -3.33395 0)
(11.0167 -3.26503 0)
(9.90406 -1.84437 0)
(9.14502 -2.32657 0)
(8.11299 -1.15991 0)
(7.47506 -1.46011 0)
(6.58104 -0.849403 0)
(6.07519 -0.804938 0)
(5.27011 -0.64953 0)
(4.8344 -0.365035 0)
(4.0711 -0.482001 0)
(3.67367 -0.0792168 0)
(2.93603 -0.320243 0)
(2.5757 0.196446 0)
(1.85466 -0.220146 0)
(1.42542 0.447007 0)
(0.772616 -0.0469987 0)
(0.187793 0.348904 0)
(0.0955427 -0.426485 0)
(0.19665 -0.445958 0)
(0.270277 -0.359925 0)
(0.290994 -0.360778 0)
(0.288165 -0.280787 0)
(0.29291 -0.253886 0)
(0.286341 -0.215907 0)
(0.282093 -0.161803 0)
(0.272621 -0.169713 0)
(0.270216 -0.09826 0)
(0.24953 -0.13407 0)
(0.249848 -0.0549829 0)
(0.214421 -0.098664 0)
(0.207163 -0.0334731 0)
(0.179186 -0.070995 0)
(0.161568 -0.0178791 0)
(0.145465 -0.0542221 0)
(0.128684 -0.00664277 0)
(0.119034 -0.0443253 0)
(0.102069 -0.00106165 0)
(0.096691 -0.0361904 0)
(0.0808957 -0.0019997 0)
(0.0750943 -0.026634 0)
(0.0633328 -0.00405717 0)
(0.0618585 -0.0242024 0)
(0.0505085 -0.00575169 0)
(0.0471103 -0.0213284 0)
(0.0364165 -0.00533416 0)
(0.0256479 -0.0130217 0)
(0.00774887 -0.0197475 0)
(-0.00484665 -0.022734 0)
(-0.01047 -0.0122425 0)
(-0.0139942 -0.0110263 0)
(-0.0135738 -0.017427 0)
(-0.0128296 -0.00968958 0)
(-0.0121737 -0.0168777 0)
(-0.0109046 -0.00864539 0)
(-0.0100283 -0.0163976 0)
(-0.00840169 -0.00802391 0)
(-0.00726435 -0.0159411 0)
(-0.0053928 -0.00761696 0)
(-0.00404267 -0.0153341 0)
(-0.00220389 -0.00715158 0)
(-0.000905785 -0.0144983 0)
(0.000611129 -0.00667925 0)
(0.00173558 -0.01416 0)
(0.00297645 -0.0066063 0)
(0.00425784 -0.0144923 0)
(0.00571666 -0.00715937 0)
(0.00640117 -0.0134908 0)
(0.0114907 -0.0136616 0)
(0.012885 -0.00707016 0)
(0.0140533 -0.0154702 0)
(0.0147315 -0.00714652 0)
(0.0156583 -0.0160252 0)
(0.0161794 -0.00770278 0)
(0.0169191 -0.0168591 0)
(0.0173227 -0.00863209 0)
(0.0173191 -0.0176665 0)
(0.0190473 -0.00947998 0)
(-0.00384262 -0.0202441 0)
(-0.0115302 -0.00790319 0)
(-0.0139425 -0.0158817 0)
(-0.0146503 -0.00700337 0)
(-0.0150412 -0.0157876 0)
(-0.0145231 -0.00700439 0)
(-0.0139278 -0.0156692 0)
(-0.0126843 -0.00710462 0)
(-0.0114959 -0.0154998 0)
(-0.00978831 -0.00711522 0)
(-0.00823119 -0.0151256 0)
(-0.00632928 -0.00693222 0)
(-0.0046681 -0.0145651 0)
(-0.00293532 -0.00663124 0)
(-0.00147125 -0.0141575 0)
(-4.23254e-05 -0.00657466 0)
(0.00154761 -0.0143983 0)
(0.00305652 -0.0068147 0)
(0.00488925 -0.0148967 0)
(0.00648974 -0.00700872 0)
(0.008335 -0.0152159 0)
(0.00974292 -0.00698713 0)
(0.0113272 -0.0153952 0)
(0.0124362 -0.00697478 0)
(0.0136316 -0.0155595 0)
(0.0144229 -0.00708389 0)
(0.0149262 -0.0149965 0)
(0.0150423 -0.00689422 0)
(0.011162 -0.00871163 0)
(0.0050268 -0.0194062 0)
(-0.0155395 -0.0115305 0)
(-0.0142868 -0.0159807 0)
(-0.0127326 -0.0125661 0)
(-0.0147009 -0.0083079 0)
(-0.0147126 -0.0174707 0)
(-0.0142643 -0.00854808 0)
(-0.0136096 -0.0164118 0)
(-0.0124786 -0.0078712 0)
(-0.0112711 -0.0158097 0)
(-0.00973194 -0.0075817 0)
(-0.00826186 -0.0154462 0)
(-0.00667669 -0.0073615 0)
(-0.00523607 -0.0149539 0)
(-0.00381972 -0.0072062 0)
(-0.00262325 -0.0135348 0)
(0.00202219 -0.0138855 0)
(0.00371423 -0.00720865 0)
(0.00517131 -0.0149851 0)
(0.00637929 -0.007387 0)
(0.00788304 -0.0154734 0)
(0.00909476 -0.00756251 0)
(0.0104838 -0.0158071 0)
(0.0113853 -0.00775652 0)
(0.0122894 -0.0162331 0)
(0.0126388 -0.00810173 0)
(0.0128371 -0.0167031 0)
(0.012674 -0.00802677 0)
(0.0126627 -0.0160119 0)
(0.0149863 -0.0159524 0)
(0.0153156 -0.0105059 0)
(-0.00401264 -0.0205484 0)
(-0.0119693 -0.00892761 0)
(-0.0146591 -0.0166408 0)
(-0.0155977 -0.00783461 0)
(-0.0161588 -0.0168052 0)
(-0.0158916 -0.00783548 0)
(-0.0153832 -0.0169217 0)
(-0.014359 -0.00782046 0)
(-0.01316 -0.0168026 0)
(-0.0115804 -0.00765861 0)
(-0.00987469 -0.0163071 0)
(-0.00797829 -0.00740414 0)
(-0.00603711 -0.0155153 0)
(-0.00420466 -0.00707032 0)
(-0.00238385 -0.014866 0)
(-0.000829168 -0.00671216 0)
(0.000952614 -0.0143862 0)
(0.00257913 -0.00659847 0)
(0.00457258 -0.0146428 0)
(0.00633828 -0.00683862 0)
(0.00830391 -0.0152262 0)
(0.00987763 -0.00688996 0)
(0.0115792 -0.0154481 0)
(0.0128434 -0.00681435 0)
(0.0141308 -0.0156105 0)
(0.0150281 -0.00686289 0)
(0.0156052 -0.0151621 0)
(0.0157348 -0.00650171 0)
(0.0114779 -0.00850937 0)
(0.00526589 -0.019076 0)
(16.6707 25.4035 0)
(46.3341 24.7747 0)
(67.2004 21.6098 0)
(88.9281 12.7458 0)
(114.773 9.22199 0)
(140.414 16.8792 0)
(155.949 22.7244 0)
(170.608 36.67 0)
(171.432 45.0932 0)
(149.872 55.9388 0)
(120.646 55.5798 0)
(89.3425 74.6915 0)
(42.6163 91.3618 0)
(15.1119 55.8344 0)
(0.956413 -47.8647 0)
(-1.67748 -37.0369 0)
(14.2191 -57.3886 0)
(35.8404 -75.8592 0)
(48.9988 -74.1758 0)
(59.0858 -70.6336 0)
(47.93 -74.0274 0)
(33.3831 -66.2283 0)
(-12.8638 -99.5552 0)
(-38.0549 -64.6428 0)
(-95.4385 -97.8061 0)
(-119.6 -49.954 0)
(-167.979 -58.8362 0)
(-202.998 -18.5279 0)
(-229.475 10.3328 0)
(-236.081 49.3796 0)
(-232.435 79.2587 0)
(-218.334 101.532 0)
(-197.547 115.849 0)
(-177.446 115.003 0)
(-156.745 112.962 0)
(-137.919 98.6368 0)
(-118.31 92.066 0)
(-104.083 75.6181 0)
(-84.4126 77.3134 0)
(-66.2427 42.7717 0)
(-53.762 62.5381 0)
(-28.2966 15.839 0)
(0.205411 -41.6002 0)
(-4.3349 21.6143 0)
(2.82035 26.1014 0)
(16.4326 22.7643 0)
(42.8955 11.5383 0)
(58.2402 10.3207 0)
(69.4149 8.15629 0)
(93.1617 11.7128 0)
(117.788 4.30278 0)
(128.532 1.03332 0)
(126.069 -10.9797 0)
(116.214 -30.7699 0)
(98.8899 -77.9947 0)
(94.2008 -68.4904 0)
(93.995 -101.677 0)
(105.021 -59.6113 0)
(107.63 -58.782 0)
(94.4766 -23.173 0)
(90.6151 -2.56829 0)
(89.9851 -4.56283 0)
(98.0458 7.59344 0)
(92.368 36.4699 0)
(84.0921 79.0619 0)
(76.4929 98.9646 0)
(68.6397 78.9149 0)
(69.8571 36.5881 0)
(58.2352 17.6258 0)
(14.6803 12.6395 0)
(-24.1444 9.80073 0)
(-42.9985 5.52417 0)
(-58.9651 45.865 0)
(-33.1139 6.49354 0)
(-63.5068 -49.9062 0)
(-170.743 -47.022 0)
(-217.441 -58.0849 0)
(-233.062 -59.6528 0)
(-208.947 -64.0926 0)
(-196.319 -72.0352 0)
(-195.661 -76.8239 0)
(-157.671 -96.6567 0)
(-132.698 -111.851 0)
(-110.209 -124.771 0)
(-69.1562 -135.377 0)
(-45.6026 -137.098 0)
(-32.0483 -134.12 0)
(-12.9905 -133.604 0)
(3.4003 -118.356 0)
(33.7091 -104.729 0)
(70.0069 -89.8294 0)
(99.5314 -46.2347 0)
(138.769 -0.947672 0)
(180.433 45.9729 0)
(216.781 95.3199 0)
(209.619 129.114 0)
(152.17 138.331 0)
(51.7424 146.398 0)
(-50.922 149.096 0)
(-91.9518 132.897 0)
(-103.138 136.521 0)
(-95.8988 145.398 0)
(-56.5227 160.988 0)
(-26.8812 147.142 0)
(-50.6565 -3.14257 0)
(-89.3525 -29.1427 0)
(-74.9308 -39.8281 0)
(-58.3783 -74.528 0)
(-48.8988 -79.9277 0)
(-27.6505 -89.898 0)
(-4.0405 -61.2072 0)
(-6.72554 -42.151 0)
(3.84448 -31.6557 0)
(20.2871 -15.2274 0)
(36.7604 -32.987 0)
(56.6966 -52.066 0)
(83.1896 -77.0274 0)
(71.2893 -103.69 0)
(77.5424 -92.3715 0)
(-16.427 -90.9814 0)
(-36.2885 -46.1377 0)
(-22.7145 -99.5694 0)
(-39.7539 -6.32141 0)
(-39.8715 -52.8602 0)
(-58.7936 35.9102 0)
(-98.0184 22.8582 0)
(-136.072 -11.1186 0)
(-170.905 -69.2749 0)
(-213.584 -112.939 0)
(-173.069 -104.09 0)
(-103.914 -84.8442 0)
(-184.345 -64.2151 0)
(-15.5364 -8.94203 0)
(70.3383 31.0807 0)
(47.7214 77.3272 0)
(127.182 146.916 0)
(185.511 190.321 0)
(134.369 135.263 0)
(114.143 102.279 0)
(97.0567 53.0246 0)
(87.0759 54.3738 0)
(59.517 30.5947 0)
(32.5269 42.0818 0)
(37.7844 37.4186 0)
(31.1877 54.3366 0)
(-16.8995 104.68 0)
(-91.2723 110.229 0)
(-225.272 96.6333 0)
(-316.232 49.3933 0)
(-383.991 3.89708 0)
(-403.088 -30.7066 0)
(-382.406 -41.2012 0)
(-353.858 -34.5727 0)
(-271.664 19.3367 0)
(-217.82 -30.287 0)
(-196.985 49.5732 0)
(-179.082 70.946 0)
(-126.328 149.497 0)
(-128.761 86.2025 0)
(-152.976 123.663 0)
(-189.017 186.789 0)