/*--------------------------------*- C++ -*----------------------------------*\
| =========                 |                                                 |
| \\      /  F ield         | OpenFOAM: The Open Source CFD Toolbox           |
|  \\    /   O peration     | Version:  2.1.1                                 |
|   \\  /    A nd           | Web:      www.OpenFOAM.org                      |
|    \\/     M anipulation  |                                                 |
\*---------------------------------------------------------------------------*/
FoamFile
{
    version     2.0;
    format      ascii;
    class       volScalarField;
    location    "0.002950000";
    object      Xi;
}
// * * * * * * * * * * * * * * * * * * * * * * * * * * * * * * * * * * * * * //

dimensions      [0 0 0 0 0 0 0];

internalField   nonuniform List<scalar> 
12384
(
1.55245
1.93373
2.47972
3.16078
4.01863
5.01247
6.14365
8.62205
8.57677
8.72449
7.41986
6.02324
3.78047
1.4391
1.93793
4.49957
8.04013
10.0999
13.472
17.1592
19.3221
23.3276
25.0062
27.3209
29.3801
26.0518
18.5238
18.2401
18.0678
19.657
20.2308
22.8777
20.8254
18.5943
18.7937
18.1966
18.6354
17.06
12.9362
11.3032
7.2053
5.76149
1.42476
1.0279
15.8059
29.019
36.6347
48.5518
50.6923
61.9813
60.0079
65.1968
62.142
62.545
60.2002
57.6773
58.6874
54.493
55.5991
47.1771
49.1896
41.1821
36.2826
32.0648
27.7009
27.711
29.8043
28.5435
27.8639
23.6752
15.1517
10.8258
7.23925
1.31474
25.2306
40.9663
53.9153
69.225
80.0598
87.1819
93.4342
98.4377
99.0662
102.426
103.682
105.042
107.833
107.935
106.171
104.791
96.189
85.9141
71.1398
55.5053
42.2422
32.7518
30.5793
29.7601
28.7874
19.7457
13.0507
9.16951
6.12458
1.54458
16.6292
57.0235
65.9112
68.7244
76.6292
76.5848
73.235
67.3808
60.9707
52.9427
47.5029
50.8298
53.015
63.8585
46.8487
53.4745
32.0819
35.1885
19.2716
14.9688
10.0369
8.75124
1.64113
1.25831
1.03109
1.00138
1.00007
1.00002
1.00001
1
1.14262
5.72187
13.5101
20.2563
22.9784
25.5433
27.5005
33.0823
33.7959
35.6745
34.8737
32.7056
28.306
23.3338
19.2698
18.6523
19.8519
18.4252
14.5371
12.5663
1.16003
1.01291
1.05723
1.34147
1.61757
1.77811
1.57611
1.18449
1.01634
1.00029
1.00255
1.03925
1.17644
1.5874
2.10495
2.48302
2.10845
2.13988
1.62283
1.29858
1.212
1.07104
1.01528
1.00395
1.00178
1.00104
1.00074
1.00053
1.00038
1.00028
1.0001
1.00001
1
1
1
1
1
1
1
1
1
1
1
1
1
1
1
1
1
1
1
1
1
1
1
1
1
1
1
1
1
1
1
1
1
1
1
1
1
1
1
1
1
1
1
1
1
1
1
1
1
1
1
1
1
1
1
1
1
1
1
1
1
1
1
1
1
1
1
1
1
1
1
1
1
1
1
1
1
1
1
1
1
1
1
1
1
1
1
1
1
1
1
1
1
1
1
1
1
1
1
1
1
1
1
1
1
1
1
1
1
1
1
1
1
1
1
1
1
1
1
1
1
1
1
1
1
1
1
1
1
1
1
1
1
1
1
1
1
1
1
1
1
1
1
1
1
1
1
1
1
1
1
1
1
1
1
1
1
1
1
1
1
1
1
1
1
1
1
1
1
1
1
1
1
1
1
1
1
1
1
1
1
1
1
1
1
1
1
1
1.85304
2.20996
2.8243
3.56576
4.51384
5.68436
7.35823
9.8684
14.1643
16.1352
13.1808
9.62013
5.77869
1.51373
5.88338
9.26348
12.5413
15.5985
19.0826
23.4753
27.5426
28.4352
22.9993
18.4555
16.5945
14.6534
14.2075
16.2464
19.9147
27.8716
37.3747
43.4046
46.9543
48.2866
51.9775
53.069
56.7729
58.7297
51.9322
36.4107
24.1364
15.6801
8.95118
1.26112
35.345
47.1557
57.374
67.2207
74.7592
80.9552
83.7976
85.0852
84.9267
85.1485
84.2889
87.3694
88.0282
89.6311
92.452
92.3943
93.9465
91.9101
87.178
78.2436
67.7691
57.5823
51.5059
50.2609
45.5606
37.3194
28.9538
18.6468
12.3314
1.9497
54.8218
69.925
79.9311
86.7804
94.719
101.097
103.751
103.505
101.259
96.5097
93.364
91.0764
90.6695
91.422
93.1251
93.7591
93.7941
92.1782
88.034
81.6362
73.8652
66.3041
60.4086
55.7287
49.0225
35.6739
25.0825
17.562
11.3637
6.91421
45.4693
77.4645
87.0565
87.6881
88.8651
88.7123
87.2268
85.912
85.167
90.5555
101.686
113.226
117.795
113.963
107.106
90.9173
75.3002
57.9301
43.5494
33.6877
26.4825
26.8845
18.691
12.8917
1.59769
1.00778
1.00212
1.00205
1.00107
1.00024
1.60809
15.3557
21.4869
30.5746
44.3453
61.6598
79.938
96.5441
107.202
109.934
103.576
89.4902
73.4831
60.5647
51.1231
44.0764
37.833
30.0822
24.9157
16.9322
1.38227
1.33755
3.35988
13.0981
11.961
13.5584
14.7008
12.9335
1.09319
1.00124
1.03312
4.22421
8.35682
10.3739
13.3991
17.2924
19.9547
17.8384
13.1887
7.82034
4.80697
3.52642
1.61933
1.13755
1.0701
1.05047
1.04083
1.03586
1.03387
1.03973
1.02306
1.0044
1.00009
1.00003
1.00002
1.00001
1
1
1
1
1
1
1
1
1
1
1
1
1
1
1
1
1
1
1
1
1
1
1
1
1
1
1
1
1
1
1
1
1
1
1
1
1
1
1
1
1
1
1
1
1
1
1
1
1
1
1
1
1
1
1
1
1
1
1
1
1
1
1
1
1
1
1
1
1
1
1
1
1
1
1
1
1
1
1
1
1
1
1
1
1
1
1
1
1
1
1
1
1
1
1
1
1
1
1
1
1
1
1
1
1
1
1
1
1
1
1
1
1
1
1
1
1
1
1
1
1
1
1
1
1
1
1
1
1
1
1
1
1
1
1
1
1
1
1
1
1
1
1
1
1
1
1
1
1
1
1
1
1
1
1
1
1
1
1
1
1
1
1
1
1
1
1
1
1
1
1
1
1
1
1
1
1
1
1
1
1
1
1
1
2.13312
2.53583
2.84345
3.29563
3.9999
4.8697
6.40978
9.11034
12.2595
14.9823
19.4664
16.9307
8.677
1.55794
10.6915
16.0044
21.3549
26.4026
29.5909
20.5687
15.1909
12.7622
13.092
13.0087
14.0838
13.8742
13.9515
14.4582
15.2341
19.8109
27.4815
33.4222
37.5129
43.9028
56.6809
64.4208
64.6907
63.6185
57.7994
45.7069
31.8664
20.1184
11.2954
1.58687
43.0535
56.7199
64.6975
74.0489
82.4376
88.888
92.2339
91.7468
90.2865
88.8976
88.4038
81.03
70.156
75.8252
65.4699
84.6801
104.27
110.342
113.547
104.062
88.122
70.9631
60.9931
61.0171
59.9271
48.4552
35.4529
26.2897
19.7601
3.21375
66.5345
81.9199
85.582
91.8787
97.0984
101.652
103.291
102.362
101.528
99.9295
95.5678
93.5324
94.2855
94.6397
96.8918
100.476
102.368
105.037
104.393
99.7744
92.5937
86.2809
80.0291
73.6921
68.2448
56.2639
43.6902
29.2928
17.8583
8.44726
72.1305
85.3116
91.7946
87.9842
85.3761
83.3101
82.4141
81.1869
82.7915
90.4088
99.4352
109.517
117.077
115.559
107.786
97.4406
85.4599
72.6604
61.7344
55.6836
49.6938
48.3697
37.7906
30.2282
15.7643
1.26002
1.27885
1.32384
1.22079
1.00797
2.42575
17.8491
22.9331
33.4633
53.7363
77.6003
104.715
123.322
137.51
138.898
137.488
128.589
116.993
105.088
90.6318
79.3542
68.5783
56.9481
47.633
40.0989
28.6673
22.2279
15.3745
11.8231
13.6937
11.8407
13.1653
14.8129
1.2747
1.00688
1.09094
9.03882
11.5594
16.7451
24.629
31.8634
33.9695
31.1218
23.1559
13.6701
8.18917
5.55808
4.282
3.59466
3.29489
3.24421
3.24599
3.32492
3.30832
3.52777
4.00645
1.25201
1.03694
1.00839
1.01186
1.02692
1.00023
1.00012
1.00001
1
1
1
1
1
1
1
1
1
1
1
1
1
1
1
1
1
1
1
1
1
1
1
1
1
1
1
1
1
1
1
1
1
1
1
1
1
1
1
1
1
1
1
1
1
1
1
1
1
1
1
1
1
1
1
1
1
1
1
1
1
1
1
1
1
1
1
1
1
1
1
1
1
1
1
1
1
1
1
1
1
1
1
1
1
1
1
1
1
1
1
1
1
1
1
1
1
1
1
1
1
1
1
1
1
1
1
1
1
1
1
1
1
1
1
1
1
1
1
1
1
1
1
1
1
1
1
1
1
1
1
1
1
1
1
1
1
1
1
1
1
1
1
1
1
1
1
1
1
1
1
1
1
1
1
1
1
1
1
1
1
1
1
1
1
1
1
1
1
1
1
1
1
1
1
1
1
1
1
1
1
2.13546
2.41544
2.61386
3.13368
3.94998
4.91317
6.1676
8.11326
10.8622
13.2663
18.4629
32.7327
15.1678
1.74131
19.1979
27.6691
33.8823
32.5789
16.0688
11.35
10.9976
12.7023
15.7138
17.4043
22.0598
21.7449
22.3176
20.1471
19.199
18.9274
20.813
25.2678
32.1284
39.657
55.0391
83.8026
81.6489
77.5385
69.8884
54.9101
35.7777
22.6093
14.6665
1.40626
51.2439
68.7626
72.7575
80.5537
90.0043
95.9574
97.6949
96.1883
93.6339
87.5972
78.5754
65.9501
61.2356
58.6474
67.5817
82.4331
104.746
115.16
122.45
121.766
106.391
85.8167
72.0126
74.2305
76.0043
59.7552
45.1063
35.8818
25.9838
10.9737
86.5617
100.016
98.199
97.4693
102.457
104.587
106.453
105.522
101.408
96.9159
92.7823
90.1784
92.53
97.3823
103.624
113.862
122.851
126.541
126.983
124.126
117.066
108.968
101.52
94.0652
90.299
81.1576
63.5172
45.8329
32.071
14.599
66.2101
85.0284
88.7138
86.1839
81.7414
79.4011
78.5421
81.9966
87.0106
91.9559
99.4751
106.961
113.13
114.816
110.802
99.7152
95.2792
82.4789
78.372
73.3166
75.029
76.3438
74.5266
62.1989
51.8684
26.0878
20.83
12.8764
8.39238
1.2541
4.52656
25.1282
31.3146
42.637
69.7299
101.666
127.718
144.419
155.054
161.003
165.106
167.994
165.539
155.38
144.032
124.577
107.314
81.3031
57.0977
41.0173
33.6213
32.7583
31.7748
26.5326
22.157
14.6112
11.7616
14.1199
2.00357
1.07788
1.13478
12.797
16.9582
22.8546
37.882
49.3681
47.5395
39.6911
28.0761
18.2167
12.5163
8.3313
6.72965
5.36978
4.6624
4.29427
4.18284
3.98787
3.86321
3.64007
3.58863
3.56784
3.66291
3.77726
3.90804
3.521
1.04023
1.0106
1.00051
1.00002
1
1
1
1
1
1
1
1
1
1
1
1
1
1
1
1
1
1
1
1
1
1
1
1
1
1
1
1
1
1
1
1
1
1
1
1
1
1
1
1
1
1
1
1
1
1
1
1
1
1
1
1
1
1
1
1
1
1
1
1
1
1
1
1
1
1
1
1
1
1
1
1
1
1
1
1
1
1
1
1
1
1
1
1
1
1
1
1
1
1
1
1
1
1
1
1
1
1
1
1
1
1
1
1
1
1
1
1
1
1
1
1
1
1
1
1
1
1
1
1
1
1
1
1
1
1
1
1
1
1
1
1
1
1
1
1
1
1
1
1
1
1
1
1
1
1
1
1
1
1
1
1
1
1
1
1
1
1
1
1
1
1
1
1
1
1
1
1
1
1
1
1
1
1
1
1
1
1
1
1
1.84784
2.32952
3.05142
4.29616
5.72488
7.14291
8.405
9.68562
11.1878
12.7064
16.8677
38.4771
32.2578
2.14131
36.9322
42.8443
23.2026
12.1873
10.9552
12.7036
17.3619
25.5106
50.2286
67.429
79.1015
74.9413
65.3837
41.574
27.1548
22.559
21.11
21.0775
24.3329
33.416
48.1957
80.5076
101.178
93.9157
83.614
67.1737
53.4497
35.7663
18.5105
1.30432
57.9847
78.089
81.288
87.3688
96.4901
102.29
104.798
102.55
98.8289
85.015
70.6424
67.7224
64.8928
64.295
73.386
84.4246
100.952
103.791
111.638
119.143
113.743
94.006
80.4046
84.7209
96.6847
79.7671
62.6753
52.4762
40.9773
18.3265
107.55
121.86
112.148
108.674
107.731
110.873
110.022
106.481
97.9133
89.6099
85.9314
88.7296
95.2626
106.853
121.826
132.429
139.318
140.329
137.479
134.828
132.781
126.869
116.831
114.797
117.414
112.714
96.5738
74.7108
64.27
46.1085
75.6071
79.4838
84.0347
80.8152
77.2853
78.564
82.6508
88.7853
92.2827
96.507
100.805
105.821
109.596
109.832
108.438
101.325
95.7046
91.2144
87.3421
92.5167
97.3139
105.871
106.228
95.0351
74.9789
52.3935
35.3613
28.5328
3.03669
1.14297
7.79228
59.026
90.9807
90.287
99.6395
122.235
142.709
158.79
172.542
186.402
202.342
217.775
220.883
215.111
203.47
185.077
159.699
127.123
90.8092
55.5196
37.8142
31.6592
32.753
38.8011
36.0645
21.4929
13.4984
12.0418
10.2947
1.6563
1.20086
29.5618
53.9827
61.9813
68.7866
72.0687
69.3993
58.4799
43.5139
32.762
24.4106
16.3842
12.0923
8.96007
7.70071
6.13304
5.33562
5.09075
4.85184
4.62413
4.53571
4.55515
4.33861
4.23537
4.08202
3.87577
3.76978
3.40615
1.00876
1.00037
1
1
1
1
1
1
1
1
1
1
1
1
1
1
1
1
1
1
1
1
1
1
1
1
1
1
1
1
1
1
1
1
1
1
1
1
1
1
1
1
1
1
1
1
1
1
1
1
1
1
1
1
1
1
1
1
1
1
1
1
1
1
1
1
1
1
1
1
1
1
1
1
1
1
1
1
1
1
1
1
1
1
1
1
1
1
1
1
1
1
1
1
1
1
1
1
1
1
1
1
1
1
1
1
1
1
1
1
1
1
1
1
1
1
1
1
1
1
1
1
1
1
1
1
1
1
1
1
1
1
1
1
1
1
1
1
1
1
1
1
1
1
1
1
1
1
1
1
1
1
1
1
1
1
1
1
1
1
1
1
1
1
1
1
1
1
1
1
1
1
1
1
1
1
1
1
1
1
1
1
1.73587
2.68076
4.05442
5.89763
7.61137
9.23957
11.1004
12.843
14.4031
15.7736
18.7626
43.5858
86.9179
3.79347
55.2595
31.2945
13.3804
12.4606
15.446
28.888
56.7819
74.9176
91.8462
104.598
110.338
114.128
109.566
84.9499
50.5084
27.1335
22.4619
21.3788
21.8631
26.8485
41.1445
70.2857
118.971
114.14
105.336
92.6268
77.821
65.8727
7.89258
1.22834
67.1316
87.4311
86.6176
92.8435
99.5577
105.005
107.025
106.473
103.365
95.1012
86.5502
80.8758
76.6717
70.9273
67.6774
69.0211
64.8975
81.8304
99.4425
110.804
113.461
90.2244
74.6263
97.0681
117.959
104.369
86.3713
78.4314
71.3722
30.3672
130.562
139.742
127.048
118.576
118.237
116.86
113.511
101.256
90.7384
86.5606
87.4256
95.4472
108.761
124.246
134.768
137.505
133.594
130.734
128.146
128.799
126.778
122.923
124.994
125.713
131.356
139.256
133.164
111.921
97.5776
88.4727
58.969
80.2191
90.1281
88.4727
92.2208
94.8671
97.8713
97.6878
98.2244
99.697
101.86
104.673
106.449
106.442
103.011
101.882
94.8477
92.8146
99.3822
103.129
118.865
132.106
138.362
129.522
104.832
82.7355
64.8353
46.8964
26.0935
1.31359
40.924
194.685
199.996
174.899
156.211
147.314
160.212
178.322
198.228
219.253
246.457
211.889
184.647
226.612
182.652
216.349
172.495
151.652
127.34
89.3273
56.8727
38.0172
37.1722
49.7315
53.6155
43.8956
27.6985
16.3821
11.8676
3.66032
1.37725
97.5419
137.493
148.182
137.748
121.828
103.895
88.3407
74.4404
63.216
51.2925
35.5639
27.6749
21.7178
17.4446
12.4224
9.1095
7.49709
6.79229
6.31819
6.07525
5.56638
5.77962
5.1577
5.00717
4.33962
3.78362
3.6472
1.01937
1.00107
1
1
1
1
1
1
1
1
1
1
1
1
1
1
1
1
1
1
1
1
1
1
1
1
1
1
1
1
1
1
1
1
1
1
1
1
1
1
1
1
1
1
1
1
1
1
1
1
1
1
1
1
1
1
1
1
1
1
1
1
1
1
1
1
1
1
1
1
1
1
1
1
1
1
1
1
1
1
1
1
1
1
1
1
1
1
1
1
1
1
1
1
1
1
1
1
1
1
1
1
1
1
1
1
1
1
1
1
1
1
1
1
1
1
1
1
1
1
1
1
1
1
1
1
1
1
1
1
1
1
1
1
1
1
1
1
1
1
1
1
1
1
1
1
1
1
1
1
1
1
1
1
1
1
1
1
1
1
1
1
1
1
1
1
1
1
1
1
1
1
1
1
1
1
1
1
1
1
1
1
2.05369
3.4897
5.28141
7.12473
8.93948
10.9418
13.9563
19.4455
26.6381
27.951
28.2421
53.9551
173.18
7.9328
78.4522
22.3272
14.5127
19.3082
52.0078
72.0389
92.6242
104.504
110.446
111.453
105.042
93.3826
91.3829
91.8056
66.5395
37.5428
24.7375
22.2494
21.7786
23.7165
33.9404
59.2101
118.068
142.209
142.728
138.003
131.479
123.279
5.21421
1.42015
74.271
93.7118
93.9574
97.5089
104.113
109.691
111.709
111.103
96.3336
85.0239
83.0401
78.0166
72.8096
62.7483
54.005
51.2944
55.7906
72.3378
97.1248
107.172
110.191
78.4813
70.782
116.779
137.182
121.075
109.506
115.952
118.011
65.227
146.65
156.21
139.188
131.717
126.583
122.494
109.774
96.0402
89.5866
89.6075
97.0026
111.315
125.419
133.999
133.911
132.182
135.477
137.741
137.82
133.824
126.268
125.216
128.239
130.93
132.034
142.307
158.201
150.252
133.014
133.977
93.114
110.02
114.448
114.512
116.001
115.29
111.244
105.967
101.296
100.446
102.004
103.569
103.909
101.42
100.74
98.2204
96.7367
97.3623
101.645
117.112
137.887
150.652
157.082
147.506
138.673
127.636
123.057
103.994
76.4504
1.69013
108.963
312.182
269.954
233.047
193.798
169.373
179.843
199.949
220.823
196.884
141.699
108.505
103.765
128.805
139.766
143.405
133.619
105.796
82.4489
57.6379
43.2183
30.4255
37.6773
39.1168
44.5816
62.5307
52.9616
32.4029
21.585
30.323
1.60043
135.487
154.599
170.994
203.573
202.605
183.604
153.767
129.821
112.986
89.0615
68.2464
53.8428
49.0772
36.1016
26.9869
18.3339
13.589
10.5678
9.15333
8.04015
7.93552
7.33761
7.06437
6.09475
4.68592
4.34228
3.87791
1.04297
1.00557
1.00001
1.00004
1.00002
1
1
1
1
1
1
1
1
1
1
1
1
1
1
1
1
1
1
1
1
1
1
1
1
1
1
1
1
1
1
1
1
1
1
1
1
1
1
1
1
1
1
1
1
1
1
1
1
1
1
1
1
1
1
1
1
1
1
1
1
1
1
1
1
1
1
1
1
1
1
1
1
1
1
1
1
1
1
1
1
1
1
1
1
1
1
1
1
1
1
1
1
1
1
1
1
1
1
1
1
1
1
1
1
1
1
1
1
1
1
1
1
1
1
1
1
1
1
1
1
1
1
1
1
1
1
1
1
1
1
1
1
1
1
1
1
1
1
1
1
1
1
1
1
1
1
1
1
1
1
1
1
1
1
1
1
1
1
1
1
1
1
1
1
1
1
1
1
1
1
1
1
1
1
1
1
1
2.45343
4.08072
6.01652
8.13406
9.95336
12.4448
20.9521
40.6754
53.6213
56.1043
50.5562
85.3811
284.715
78.5139
64.6624
29.9292
25.3164
46.1561
84
101.88
110.534
116.569
118.534
107.032
87.1178
78.7086
74.2891
74.7752
66.9937
44.9662
30.0541
24.5775
22.9103
22.9448
28.6165
49.3703
100.916
170.757
183.423
176.109
161.45
152.675
8.37554
3.70779
88.4329
98.8146
95.9261
99.1934
105.503
108.665
109.863
107.725
92.7268
79.4635
76.9114
74.3461
62.865
51.7724
42.4452
43.4
61.6163
92.6718
98.8258
107.893
93.4998
69.6338
96.0344
147.84
145.352
133.002
139.96
160.307
164.308
143.279
172.095
171.168
151.915
143.971
133.307
121.151
104.839
96.1384
94.6139
100.292
113.074
127.244
135.914
140.23
145.67
155.428
167.328
177.208
179.235
167.841
148.62
123.282
112.866
120.988
133.994
144.811
163.395
170.603
156.481
177.677
153.801
139.841
134.2
126.441
122.343
119.466
117.18
110.439
103.224
99.9196
100.56
102.291
100.829
99.069
95.875
94.0146
96.2758
96.3751
104.873
118.1
139.848
163.874
179.874
193.713
210.092
217.842
213.216
199.449
185.511
19.1137
209.88
359.73
325.726
274.444
166.119
157.271
180.081
198.011
182.318
145.446
114.568
111.564
137.161
154.256
196.784
176.802
163.666
138.862
107.544
85.8309
60.9547
43.6592
30.2587
22.6691
42.4914
61.1234
53.648
36.8191
27.04
28.3793
2.42486
103.307
123.557
152.565
215.321
234.531
226.492
201.408
184.061
163.745
131.422
112.918
92.0958
78.7999
63.6717
44.4151
31.3309
21.5169
16.4589
13.0423
10.7225
10.386
9.18336
8.49921
6.94903
5.48178
4.16007
4.46778
1.11927
1.01621
1.02259
1.11504
1.07339
1.00545
1
1
1
1
1
1
1
1
1
1
1
1
1
1
1
1
1
1
1
1
1
1
1
1
1
1
1
1
1
1
1
1
1
1
1
1
1
1
1
1
1
1
1
1
1
1
1
1
1
1
1
1
1
1
1
1
1
1
1
1
1
1
1
1
1
1
1
1
1
1
1
1
1
1
1
1
1
1
1
1
1
1
1
1
1
1
1
1
1
1
1
1
1
1
1
1
1
1
1
1
1
1
1
1
1
1
1
1
1
1
1
1
1
1
1
1
1
1
1
1
1
1
1
1
1
1
1
1
1
1
1
1
1
1
1
1
1
1
1
1
1
1
1
1
1
1
1
1
1
1
1
1
1
1
1
1
1
1
1
1
1
1
1
1
1
1
1
1
1
1
1
1
1
1
1
1
2.92028
4.66142
6.88064
9.17672
10.8747
14.172
31.1091
52.9585
52.2381
58.7889
71.3779
120.366
374.778
293.648
111.844
56.9728
41.5684
39.8227
65.0318
94.8417
108.158
115.998
122.645
126.293
128.577
119.543
105.451
86.8473
74.17
63.2402
54.5807
42.6483
31.6087
26.7331
24.1372
23.9583
27.1846
48.7418
106.05
206.488
218.136
201.103
176.083
160.602
116.618
94.8847
119.977
129.535
123.158
108.944
102.564
104.277
102.428
94.448
80.3479
70.7287
73.7386
71.0765
63.7398
55.7481
47.6207
37.7338
37.4495
50.5023
90.1393
97.5352
103.472
100.033
83.8581
105.536
152.951
161.723
149.715
148.428
165.823
191.149
199.825
173.983
184.354
212.8
205.118
184.831
165.159
149.255
134.418
116.69
105.293
101.226
102.916
111.05
124.543
137.516
148.73
160.216
173.16
188.573
207.711
222.784
224.695
202.455
176.665
141.73
120.458
116.707
125.003
144.117
168.728
181.349
174.178
180.923
249.717
221.839
157.092
141.509
130.627
122.013
115.668
113.999
115.139
114.038
105.623
99.9013
99.1991
99.2542
99.9228
95.9777
92.4523
92.1442
92.5072
97.9115
101.435
108.606
122.901
145.103
182.298
230.906
275.957
290.492
282.762
302.403
300.085
269.559
282.043
269.441
346.833
406.419
358.639
251.989
141.827
142.496
164.776
163.462
153.845
129.996
116.95
143.163
193.721
173.667
158.933
158.661
161.935
174.557
168.153
132.984
94.3765
69.5403
53.1773
38.5007
29.4751
40.2458
58.1266
40.6468
33.9095
116.167
131.069
93.2657
7.32427
120.374
117.891
182.44
232.363
249.226
249.276
235.989
216.69
206.133
166.981
159.137
140.639
121.87
94.4537
67.8101
44.4329
31.4811
22.6051
18.273
15.041
13.2124
11.7113
8.31036
6.09506
5.39854
4.46376
4.63157
3.78651
1.25424
1.14132
1.14747
1.33956
1.71842
1.61257
1.09956
1.00279
1
1
1
1
1
1
1
1
1
1
1
1
1
1
1
1
1
1
1
1
1
1
1
1
1
1
1
1
1
1
1
1
1
1
1
1
1
1
1
1
1
1
1
1
1
1
1
1
1
1
1
1
1
1
1
1
1
1
1
1
1
1
1
1
1
1
1
1
1
1
1
1
1
1
1
1
1
1
1
1
1
1
1
1
1
1
1
1
1
1
1
1
1
1
1
1
1
1
1
1
1
1
1
1
1
1
1
1
1
1
1
1
1
1
1
1
1
1
1
1
1
1
1
1
1
1
1
1
1
1
1
1
1
1
1
1
1
1
1
1
1
1
1
1
1
1
1
1
1
1
1
1
1
1
1
1
1
1
1
1
1
1
1
1
1
1
1
1
1
1
1
1
1
1
1
1
1
1
1
1
1
1
1
1
1
1
1
3.38174
4.97083
7.71041
10.6407
12.4938
16.4421
39.3883
57.3938
41.6213
37.5898
59.4525
118.768
324.353
445.409
309.316
95.9418
51.5171
73.9841
113.855
120.136
124.127
130.372
135.327
137.678
140.167
146.719
152.393
154.375
128.331
100.666
76.9835
57.9723
43.0226
32.7325
28.0433
26.5583
31.3171
57.0533
129.749
232.359
233.625
197.247
159.211
142.962
132.486
128.091
117.602
122.545
128.435
110.336
99.6519
89.5129
77.3363
83.8335
88.928
90.5182
90.6034
79.7961
59.8314
45.2297
35.6167
34.6941
47.0432
90.1514
100.307
106.994
114.694
111.036
133.602
161.464
171.152
158.957
146.356
147.333
168.615
202.914
227.047
241.468
249.109
250.474
226.022
190.516
167.899
152.226
130.968
116.068
108.428
101.118
108.521
117.423
130.842
147.415
163.83
177.372
190.703
210.249
234.835
255.791
258.375
233.458
208.689
169.301
139.079
128.781
137.505
160.695
189.785
193.407
178.547
175.539
158.865
152.132
144.228
135.934
125.344
116.415
115.107
112.988
113.635
113.867
111.393
104.806
100.347
100.978
99.8527
95.361
91.0179
88.7101
91.6717
93.7244
100.429
106.427
113.191
135.535
175.592
223.585
245.641
256.882
297.751
353.026
375.7
359.515
338.767
404.809
452.29
411.548
350.075
191.715
129.406
131.315
145.778
146.597
136.832
116.229
119.564
133.796
170.669
163.246
172.148
175.961
190.04
205.502
215.954
192.252
132.852
95.6954
73.323
59.6504
48.2828
41.4043
56.0715
69.86
55.3025
101.588
237.336
282.873
268.592
218.02
215.443
243.118
260.124
252.52
264.375
257.973
249.235
230.146
211.027
208.5
195.819
171.554
144.755
108.229
71.7249
50.5206
37.0442
27.6401
21.9026
18.9042
15.4512
9.80382
7.14903
5.41538
4.82499
4.44717
5.31803
4.39947
4.2636
4.11572
3.60173
3.37189
3.6579
1.93237
1.07112
1.00118
1
1
1
1
1
1
1
1
1
1
1
1
1
1
1
1
1
1
1
1
1
1
1
1
1
1
1
1
1
1
1
1
1
1
1
1
1
1
1
1
1
1
1
1
1
1
1
1
1
1
1
1
1
1
1
1
1
1
1
1
1
1
1
1
1
1
1
1
1
1
1
1
1
1
1
1
1
1
1
1
1
1
1
1
1
1
1
1
1
1
1
1
1
1
1
1
1
1
1
1
1
1
1
1
1
1
1
1
1
1
1
1
1
1
1
1
1
1
1
1
1
1
1
1
1
1
1
1
1
1
1
1
1
1
1
1
1
1
1
1
1
1
1
1
1
1
1
1
1
1
1
1
1
1
1
1
1
1
1
1
1
1
1
1
1
1
1
1
1
1
1
1
1
1
1
1
1
1
1
1
1
1
1
1
1
1
3.54263
5.42634
9.14704
13.2
15.1419
19.4338
44.4478
66.8954
45.6756
29.8175
38.1463
80.6287
220.053
454.194
294.264
83.1521
79.1836
124.592
133.879
135.339
140.339
142.254
140.846
143.251
151.119
159.366
167.776
173.842
175.459
175.003
168.074
158.951
125.819
83.2344
57.5201
45.931
49.9093
80.8137
159.978
247.013
241.368
193.26
150.82
129.21
124
122
117.41
121.429
121.345
94.7346
66.4775
69.5546
88.8445
96.6515
99.7752
97.2742
92.2012
56.2449
41.5332
34.6219
36.1436
50.0122
97.4494
108.734
115.928
129.565
144.125
161.412
177.396
178.491
164.136
154.102
149.583
153.691
170.014
200.105
228.046
239.088
247.826
239.614
217.13
185.055
170.108
149.17
129.666
116.067
109.503
106.252
107.4
116.426
130.5
149.813
167.036
178.58
193.127
214.631
244.615
272.928
285.01
259.966
235.587
196.984
175.857
159.806
168.941
189.718
204.627
192.625
180.573
170.691
149.657
137.65
137.201
125.386
116.989
115.678
115.844
117.669
118.051
121.466
119.762
114.003
108.992
105.761
100.889
94.876
90.3112
89.3805
89.361
94.2265
96.7924
103.612
117.954
134.894
156.214
175.273
189.657
213.522
269.382
349.05
391.616
378.393
377.165
408.451
410.667
368.046
323.607
160.541
117.188
121.229
126.549
122.945
125.134
99.8998
118.11
117.852
187.11
205.284
209.548
223.824
232.296
244.674
255.144
257.565
166.433
115.264
91.6764
74.2593
63.735
56.0518
54.1531
104.877
103.542
122.481
182.32
261.763
330.519
343.056
334.689
334.658
341.594
324.698
298.767
289.13
287.992
260.245
276.889
254.511
258.211
235.324
223.404
172.112
134.148
91.7566
68.2848
50.9007
37.028
28.2542
22.1366
12.5094
8.12102
6.48602
5.29034
5.01008
5.03257
5.96774
5.52446
4.43211
4.059
3.83137
3.4227
3.53229
1.85967
1.04306
1.00008
1
1
1
1
1
1
1
1
1
1
1
1
1
1
1
1
1
1
1
1
1
1
1
1
1
1
1
1
1
1
1
1
1
1
1
1
1
1
1
1
1
1
1
1
1
1
1
1
1
1
1
1
1
1
1
1
1
1
1
1
1
1
1
1
1
1
1
1
1
1
1
1
1
1
1
1
1
1
1
1
1
1
1
1
1
1
1
1
1
1
1
1
1
1
1
1
1
1
1
1
1
1
1
1
1
1
1
1
1
1
1
1
1
1
1
1
1
1
1
1
1
1
1
1
1
1
1
1
1
1
1
1
1
1
1
1
1
1
1
1
1
1
1
1
1
1
1
1
1
1
1
1
1
1
1
1
1
1
1
1
1
1
1
1
1
1
1
1
1
1
1
1
1
1
1
1
1
1
1
1
1
1
1
1
1
4.11896
6.11431
11.1521
18.404
20.6176
23.8702
48.4248
75.8466
60.9677
32.2171
27.7171
44.181
111.653
219.873
112.109
63.8881
118.393
140.015
144.344
146.094
145.832
144.108
145.205
150.649
159.746
169.346
175.308
182.369
186.002
189.345
191.981
190.913
188.034
181.438
172.441
146.546
125.371
146.561
229.337
258.291
247.02
196.767
151.852
129.58
120.773
118.092
108.446
101.408
85.0173
62.7213
89.2154
103.275
118.339
121.201
115.843
107.547
68.5098
51.2052
43.945
48.1929
74.0744
114.759
124.062
131.285
149.673
168.687
183.171
185.631
179.128
171.193
170.494
167.559
166.838
172.313
187.591
199.474
212.501
223.254
220.919
214.76
196.927
180.747
163.678
147.138
128.745
116.036
107.671
103.868
103.638
108.06
120.229
138.593
156.516
167.766
179.489
201.665
235.371
274.279
306.396
282.24
261.952
227.043
209.089
201.949
203.968
211.464
208.116
189.73
172.103
156.652
142.601
131.986
126.677
120.474
113.366
114.145
118.068
119.637
121.827
124.227
126.958
126.366
121.961
113.058
103.455
94.3504
89.7516
89.0742
92.9444
93.6846
98.3927
109.053
122.052
137.721
149.432
159.663
172.198
194.326
241.356
317.858
367.049
370.193
360.482
359.044
347.961
319.702
208.612
128.158
105.39
105.328
108.963
105.496
102.573
102.174
118.162
123.097
223.25
243.801
264.26
263.047
269.005
286.651
288.049
282.67
179.567
119.872
97.1492
83.2609
71.1012
64.985
63.9653
74.8518
161.56
162.444
188.992
225.774
296.802
352.771
354.93
354.789
363.471
371.29
362.134
351.325
325.403
337.813
312.018
327.146
305.343
318.743
284.396
258.698
203.825
159.736
117.486
83.9262
48.4056
28.9799
23.0238
13.5836
9.9443
6.96073
5.81436
5.26459
5.7192
5.4892
6.15771
5.57291
4.58832
4.0505
3.89719
3.52414
3.60939
1.31454
1.00859
1
1
1
1
1
1
1
1
1
1
1
1
1
1
1
1
1
1
1
1
1
1
1
1
1
1
1
1
1
1
1
1
1
1
1
1
1
1
1
1
1
1
1
1
1
1
1
1
1
1
1
1
1
1
1
1
1
1
1
1
1
1
1
1
1
1
1
1
1
1
1
1
1
1
1
1
1
1
1
1
1
1
1
1
1
1
1
1
1
1
1
1
1
1
1
1
1
1
1
1
1
1
1
1
1
1
1
1
1
1
1
1
1
1
1
1
1
1
1
1
1
1
1
1
1
1
1
1
1
1
1
1
1
1
1
1
1
1
1
1
1
1
1
1
1
1
1
1
1
1
1
1
1
1
1
1
1
1
1
1
1
1
1
1
1
1
1
1
1
1
1
1
1
1
1
1
1
1
1
1
1
1
1
1
1
4.48577
7.19733
14.3358
26.4523
30.1714
31.181
52.1199
76.7473
72.8994
41.1181
26.9469
27.6002
42.4362
53.1199
47.1156
80.383
133.632
143.738
144.806
144.721
144.234
145.613
150.725
158.571
167.299
175.192
183.357
189.412
197.156
201.705
206.833
212.138
214.646
217.866
221.731
224.399
231.903
244.006
265.465
269.632
245.513
193.893
153.89
131.374
121.359
93.9222
70.2289
58.0138
61.084
96.6752
120.697
144.745
153.562
151.748
144.958
137.172
131.493
130.389
132.168
140.111
149.08
155.315
159.233
170.606
183.296
188.483
186.623
184.646
187.738
191.534
193.201
188.964
188.732
191.701
197.49
204.643
209.724
205.095
203.526
193.181
183.301
169.76
160.124
143.274
128.834
116.782
109.361
103.608
100.445
101.08
106.369
117.454
132.134
144.728
153.18
170.909
207.518
257.094
306.679
301.633
290.473
252.939
247.227
236.919
231.818
222.775
203.345
179.261
161.173
150.433
133.968
126.338
119.862
113.933
110.751
109.237
111.662
115.43
119.66
121.645
126.782
128.337
123.001
114.327
103.283
95.3934
92.3716
92.2504
94.4488
96.5233
105.955
115.932
129.222
142.628
154.214
162.131
171.934
188.608
218.083
265.481
316.555
338.143
328.196
311.318
266.053
177.016
130.415
103.087
93.3584
94.3845
102.153
100.612
109.606
107.107
153.283
167.346
247.754
284.206
306.284
286.562
289.371
323.954
307.668
225.594
155.441
108.878
86.0723
77.4843
69.1065
67.0106
65.6018
71.3546
86.329
172.429
210.162
235.033
276.503
302.007
314.405
317.109
327.386
329.512
343.146
329.966
349.124
331.229
351.016
345.546
338.265
336.535
340.83
317.952
265.943
214.902
167.869
93.637
54.7662
36.8114
25.2265
22.0767
11.7396
8.49641
6.27363
5.50674
5.23745
6.11768
5.05007
5.76038
5.26855
4.62457
4.02491
3.86757
3.6173
1.46885
1.03497
1.00001
1
1
1
1
1
1
1
1
1
1
1
1
1
1
1
1
1
1
1
1
1
1
1
1
1
1
1
1
1
1
1
1
1
1
1
1
1
1
1
1
1
1
1
1
1
1
1
1
1
1
1
1
1
1
1
1
1
1
1
1
1
1
1
1
1
1
1
1
1
1
1
1
1
1
1
1
1
1
1
1
1
1
1
1
1
1
1
1
1
1
1
1
1
1
1
1
1
1
1
1
1
1
1
1
1
1
1
1
1
1
1
1
1
1
1
1
1
1
1
1
1
1
1
1
1
1
1
1
1
1
1
1
1
1
1
1
1
1
1
1
1
1
1
1
1
1
1
1
1
1
1
1
1
1
1
1
1
1
1
1
1
1
1
1
1
1
1
1
1
1
1
1
1
1
1
1
1
1
1
1
1
1
1
1
4.76245
8.0433
15.9187
30.5206
42.4429
45.7585
58.0743
72.7516
65.8795
42.1622
28.435
26.1229
29.0576
34.5266
51.9209
103.191
126.111
132.224
135.503
141.328
143.465
147.569
153.958
162.313
170.557
177.669
187.969
194.151
203.647
210.299
219.335
228.374
240.324
250.564
263.121
278.604
287.887
296.582
291.937
271.235
230.735
186.111
152.838
131.063
85.5878
56.9191
43.9505
48.366
93.2979
111.538
140.484
159.645
171.566
175.626
176.048
175.229
175.325
175.366
177.438
177.619
177.699
179.515
185.254
190.913
193.326
192.083
193.929
201.233
210.276
208.932
211.633
206.138
209.818
208.84
208.714
205.584
202.897
201.153
190.233
182.963
170.609
161.683
149.729
138.315
128.183
118.47
111.529
107.063
104.519
103.27
103.48
106.625
112.07
118.98
123.929
134.38
161.582
216.04
273.156
305.459
315.372
275.62
277.783
261.321
248.717
230.872
205.442
180.88
159.103
140.387
130.147
120.663
114.71
109.109
108.52
108.517
107.192
107.51
108.451
114.637
117.291
116.903
114.775
109.198
102.944
96.6589
92.5229
90.7407
91.027
99.4634
100.137
82.7045
87.8611
107.427
135.632
169.918
177.054
187.998
202.773
226.258
250.304
283.149
296.961
288.288
203.404
157.303
127.331
105.692
94.2545
92.1504
94.5712
104.332
126.739
132.921
203.943
208.601
275.972
306.551
330.9
311.691
337.624
331.667
277.38
177.112
113.847
87.05
71.8934
60.5349
58.7052
58.0414
60.1827
64.3876
72.7918
87.3489
137.878
244.149
270.518
300.537
313.275
332.033
329.878
342.051
327.559
345.116
331.996
345.507
350.742
355.749
356.544
379.148
370.717
286.317
227.163
184.168
133.193
83.4533
54.8387
40.7833
33.6983
24.9503
24.7883
10.316
7.46101
5.97816
5.43069
4.87187
5.22838
4.23323
5.36641
4.8145
4.45834
3.95763
3.91558
1.82093
1.04013
1.00001
1
1
1
1
1
1
1
1
1
1
1
1
1
1
1
1
1
1
1
1
1
1
1
1
1
1
1
1
1
1
1
1
1
1
1
1
1
1
1
1
1
1
1
1
1
1
1
1
1
1
1
1
1
1
1
1
1
1
1
1
1
1
1
1
1
1
1
1
1
1
1
1
1
1
1
1
1
1
1
1
1
1
1
1
1
1
1
1
1
1
1
1
1
1
1
1
1
1
1
1
1
1
1
1
1
1
1
1
1
1
1
1
1
1
1
1
1
1
1
1
1
1
1
1
1
1
1
1
1
1
1
1
1
1
1
1
1
1
1
1
1
1
1
1
1
1
1
1
1
1
1
1
1
1
1
1
1
1
1
1
1
1
1
1
1
1
1
1
1
1
1
1
1
1
1
1
1
1
1
1
1
1
1
1
3.64444
6.6363
13.4688
23.3234
39.567
50.8423
54.7493
53.528
41.4149
31.309
26.031
24.9732
26.9069
31.6487
40.617
52.1916
57.7849
54.5688
71.1287
128.103
137.363
145.288
152.375
160.427
169.691
176.331
184.861
192.65
201.459
208.846
219.449
230.39
246.295
265.069
281.728
294.569
301.088
293.472
273.494
237.831
201.213
165.911
111.242
65.1502
45.1699
35.2325
32.5003
35.9317
56.6204
96.3452
113.188
133.717
162.386
178.274
183.79
187.011
187.844
186.205
181.6
177.348
175.034
177.657
182.248
188.17
192.168
197.59
205.027
213.93
220.006
216.273
221.783
216.688
217.943
215.659
213.593
212.787
206.979
197.23
190.91
177.831
169.338
157.664
148.053
136.969
129.351
121.308
113.674
110.612
108.402
109.816
110.694
109.492
109.326
110.338
109.843
110.162
117.006
152.187
216.447
273.655
305.493
291.384
298.301
278.817
259.731
238.654
209.801
180.255
155.023
138.201
129.448
121.983
113.214
109.468
108.383
110.555
112.55
109.469
111.631
111.39
109.734
108.405
105.162
101.93
97.2675
93.2711
89.2174
88.0912
89.2337
88.7512
60.9064
51.8571
58.6325
70.8501
89.1541
112.576
130.403
145.543
157.576
159.628
179.956
186.845
192.755
181.754
171.42
154.128
137.655
122.61
117.804
109.605
115.266
128.128
141.8
165.069
259.303
261.706
320.644
349.814
347
363.336
361.277
353.451
234.483
123.257
81.9141
60.3025
51.5243
46.3376
44.8185
45.1291
48.8524
53.3754
60.0971
70.8596
82.4518
107.039
168.681
192.341
209.134
305.679
310.502
344.508
360.413
354.937
364.839
372.154
382.475
390.451
393.776
311.578
163.713
143.357
125.52
108.545
87.9125
63.6603
45.4029
39.2475
39.3928
37.1286
24.005
18.9244
8.13769
6.3119
5.26863
4.76606
4.146
4.1273
3.5631
4.27316
4.56275
4.32381