/*--------------------------------*- C++ -*----------------------------------*\
| =========                 |                                                 |
| \\      /  F ield         | OpenFOAM: The Open Source CFD Toolbox           |
|  \\    /   O peration     | Version:  2.1.1                                 |
|   \\  /    A nd           | Web:      www.OpenFOAM.org                      |
|    \\/     M anipulation  |                                                 |
\*---------------------------------------------------------------------------*/
FoamFile
{
    version     2.0;
    format      ascii;
    class       volScalarField;
    location    "0.004150000";
    object      p;
}
// * * * * * * * * * * * * * * * * * * * * * * * * * * * * * * * * * * * * * //

dimensions      [1 -1 -2 0 0 0 0];

internalField   nonuniform List<scalar> 
12384
(
1.05024e+06
1.0377e+06
1.02084e+06
996676
987406
947355
954139
897929
919251
871014
889259
851995
861858
848254
731215
729964
730532
728150
727228
716045
717162
710647
709856
711121
716515
717514
713271
705847
694955
693477
683339
701064
695325
713635
723421
727228
725825
714955
710455
687882
688594
660697
667779
659070
881812
875027
873211
863921
845720
839568
806655
818088
783204
796062
784850
781036
808192
811917
829137
829891
820876
809345
790080
772912
751539
755622
721262
733530
704897
705720
697605
680086
683452
672254
685319
683160
696464
704175
724873
730177
741224
748729
750112
750638
747236
745852
743173
731755
758955
732465
805658
773648
866671
879418
912983
941935
948645
955350
957431
955532
956068
954918
956811
955675
724078
718007
712212
699978
679963
660935
617893
636317
568934
600705
544593
553378
555808
540810
562726
545095
584418
571213
606426
606265
612508
633527
632797
644660
650694
654158
660128
661251
660000
661263
564422
574221
565688
595625
578612
628756
607980
670015
661668
702122
699957
726409
720888
742575
760114
767333
775883
771015
758714
740028
719468
717525
712820
723844
732854
744685
753764
757765
759591
755950
788580
784025
784584
783740
785141
786989
788333
786958
787802
779476
781945
744899
741958
732086
691735
707504
697162
702698
716069
731381
742692
740666
727213
702723
686772
661805
665684
639184
648456
637845
980180
922503
846813
813242
799555
796179
808137
806194
815733
815964
826450
814970
804529
783110
786617
776389
778288
771835
772122
764358
763413
749525
749838
731532
732188
712887
715323
699876
702011
699383
831543
826341
811900
811571
846174
825093
902050
917034
920616
937727
930502
953013
945492
974265
997462
1.00985e+06
1.01801e+06
1.03324e+06
1.04388e+06
1.05495e+06
1.0611e+06
1.06465e+06
1.0673e+06
1.06699e+06
1.06471e+06
1.05223e+06
1.04989e+06
1.01133e+06
991392
931478
968385
965682
965945
959438
958720
937487
919639
915650
939525
994035
1.0488e+06
1.10342e+06
1.12918e+06
1.13827e+06
1.11848e+06
1.06143e+06
1.02182e+06
909479
946934
824920
871497
767924
805224
727009
755184
707280
724510
702816
709680
702893
1.15386e+06
1.1641e+06
1.16826e+06
1.16725e+06
1.1458e+06
1.10815e+06
1.06707e+06
1.04814e+06
1.03751e+06
1.03382e+06
1.0388e+06
1.0434e+06
1.04348e+06
1.04094e+06
1.0304e+06
1.01221e+06
982598
950893
901178
879274
808153
818410
821645
787525
904853
907859
955142
969263
980496
988612
1.19686e+06
1.18412e+06
1.1759e+06
1.16746e+06
1.14975e+06
1.1344e+06
1.13802e+06
1.11046e+06
1.11425e+06
1.06421e+06
1.07567e+06
1.01359e+06
1.03308e+06
974483
994328
938893
958365
908393
928186
901994
915148
927476
944639
958498
1.0033e+06
996119
1.03249e+06
1.04099e+06
1.04246e+06
1.04925e+06
1.16951e+06
1.15545e+06
1.13803e+06
1.10002e+06
1.06726e+06
1.07001e+06
997162
999490
990329
953931
970177
947122
981745
960666
1.01334e+06
998444
1.045e+06
1.05374e+06
1.0777e+06
1.09617e+06
1.09895e+06
1.09188e+06
1.0803e+06
1.02121e+06
1.01134e+06
946648
958606
906215
917083
910415
1.04443e+06
1.03345e+06
1.01477e+06
993638
986995
943529
954826
897955
919873
872729
890537
855385
866089
852312
728119
729037
728431
727007
723219
718974
716062
713971
714271
711631
716057
715370
709837
701393
690722
687984
681934
694445
695329
708357
720645
727156
725770
719509
710483
693319
691340
664406
667376
654175
878346
873721
871879
860632
844928
829980
814621
804984
788602
788502
786201
782532
800280
810497
820125
823532
817839
805973
790119
775645
758300
753533
730582
726819
718617
702987
697385
693009
677762
672635
679437
687801
701058
713158
726862
734235
733702
734225
735837
733491
729992
723415
717967
731601
720784
744330
769425
782636
841656
853198
908005
920348
944333
946349
948762
948698
948296
946054
948243
947634
720655
717124
707016
694096
673602
663609
613961
635915
576432
578793
566584
549056
548764
545936
560158
546098
582575
573806
604552
611921
619794
633761
639269
646797
653348
656699
656275
658876
658781
658557
566941
566896
574071
589859
584426
628159
618531
664559
669943
689861
696746
713303
717452
735294
750012
771484
773407
773911
757760
745640
725681
723448
722397
724708
735994
746801
757699
768680
769890
772887
790360
790753
791190
790359
789507
787675
790749
789432
786957
784827
775718
766704
729861
739877
697465
702469
700483
703937
711600
728782
737431
738685
722531
703382
682961
662390
661618
644677
648901
646980
986834
898992
851013
806896
798856
797362
795605
804067
801820
815784
810693
802091
781193
780203
764558
766582
758836
760406
754809
755190
745325
747910
733449
734115
716236
715829
695272
699251
690791
689072
806634
789782
801346
802469
812234
870666
868944
907037
914904
909567
929520
942871
950972
974874
986635
1.00752e+06
1.02299e+06
1.02877e+06
1.03911e+06
1.04525e+06
1.05013e+06
1.05199e+06
1.05267e+06
1.05092e+06
1.04018e+06
1.04374e+06
1.01949e+06
1.00059e+06
980804
944944
970008
962527
963111
954777
939913
919865
896407
901232
932856
984983
1.04002e+06
1.08528e+06
1.11323e+06
1.11498e+06
1.10435e+06
1.05453e+06
997501
918606
938510
828089
863996
773799
796447
730731
747618
711058
718408
709254
708433
711595
1.16682e+06
1.1663e+06
1.15856e+06
1.13973e+06
1.10933e+06
1.07553e+06
1.04641e+06
1.03033e+06
1.02021e+06
1.03057e+06
1.03308e+06
1.03887e+06
1.04256e+06
1.03731e+06
1.0277e+06
1.0058e+06
979733
941008
895698
869836
788856
812898
791130
783410
874269
895178
941286
964494
979623
992336
1.20515e+06
1.19319e+06
1.18282e+06
1.16452e+06
1.13818e+06
1.13545e+06
1.11729e+06
1.11289e+06
1.09625e+06
1.06805e+06
1.05977e+06
1.02055e+06
1.02329e+06
982466
991615
945223
957776
913514
928933
912995
908171
943426
937897
981631
990937
1.00607e+06
1.03105e+06
1.03443e+06
1.04324e+06
1.04117e+06
1.14827e+06
1.13264e+06
1.11794e+06
1.09018e+06
1.06794e+06
1.04038e+06
1.02079e+06
977924
995672
951920
965294
948727
978632
960148
1.00689e+06
1.00257e+06
1.03995e+06
1.05668e+06
1.07838e+06
1.09117e+06
1.09898e+06
1.08656e+06
1.07688e+06
1.03141e+06
1.01574e+06
958704
964539
915473
925166
904250
1.03876e+06
1.02483e+06
1.01194e+06
990368
978483
945770
949509
903312
918820
872660
892031
856817
869585
853608
728662
727712
726063
723120
722068
716630
718285
712926
714563
716452
713581
711847
704306
698660
686878
688812
682759
689280
689950
708960
714396
723640
725067
719587
711551
701942
692275
678512
677086
678388
875804
870524
869746
856390
842639
825072
814351
797560
798839
778624
788302
781686
799164
803418
815830
817440
813051
798835
789207
768171
765413
741292
745172
721290
725642
705846
704206
692098
688402
687341
704103
714472
722707
729208
732701
733497
734615
728150
720981
714249
707760
701743
706802
693658
727368
707092
774586
747861
835260
833918
883640
907686
920201
936736
940229
939908
939711
941658
941920
941986
718563
716562
696082
697919
660467
669594
614718
635943
573260
595269
550246
565561
540476
547820
558746
552502
579882
577346
606719
613846
630280
642832
646658
650894
656351
663277
666861
664248
664983
663336
575317
580368
578626
600048
590343
637530
626305
667738
660298
686462
688994
698482
707509
739726
732389
762640
773965
769814
763527
750162
734772
730561
723441
728554
734694
747227
760777
770148
777140
781801
794025
797013
795648
791202
791914
790842
790139
791535
792509
788152
775764
775026
737726
733468
708642
715107
700236
705989
716744
721375
733430
732265
721401
703238
678501
665511
659504
647886
649674
646012
954431
886670
860473
787105
810514
784698
793386
789210
801264
791024
796137
770798
770619
743381
752674
741215
746241
738121
740861
731599
737388
724602
730749
715522
716074
697153
694897
679107
676116
675913
783134
790042
777882
808122
795215
839726
876377
866734
899899
893844
891256
920004
943919
967902
983292
994057
1.01278e+06
1.0255e+06
1.02544e+06
1.02937e+06
1.03255e+06
1.03238e+06
1.02513e+06
1.0185e+06
1.02391e+06
1.00546e+06
991702
979737
980078
967701
956158
953220
947973
934644
918845
898930
884597
886643
923486
969146
1.02365e+06
1.06695e+06
1.08799e+06
1.08846e+06
1.0828e+06
1.01317e+06
1.01058e+06
905227
926941
830265
853879
768776
788052
723739
744729
708122
721209
707779
712475
711033
1.1646e+06
1.14642e+06
1.13146e+06
1.10131e+06
1.06986e+06
1.04112e+06
1.01616e+06
1.00587e+06
1.00924e+06
1.01952e+06
1.03098e+06
1.03618e+06
1.03916e+06
1.03629e+06
1.02343e+06
1.00031e+06
974784
928104
896880
843573
790707
796955
775912
765136
853614
875450
916942
945962
965033
981415
1.20938e+06
1.1933e+06
1.17983e+06
1.15279e+06
1.13646e+06
1.119e+06
1.11653e+06
1.09349e+06
1.09199e+06
1.04828e+06
1.05815e+06
1.01226e+06
1.0248e+06
981109
993926
945001
961932
913187
933834
917003
910111
958904
939237
995536
983484
1.01746e+06
1.01709e+06
1.02796e+06
1.02852e+06
1.03503e+06
1.11812e+06
1.10815e+06
1.09281e+06
1.07963e+06
1.05307e+06
1.02945e+06
1.0289e+06
974774
991566
946096
966038
952822
963959
964535
999432
998352
1.04025e+06
1.05275e+06
1.08065e+06
1.09113e+06
1.09578e+06
1.08368e+06
1.07965e+06
1.03737e+06
1.03063e+06
974626
985621
941816
949516
931431
1.0265e+06
1.02036e+06
1.00588e+06
984818
971903
944741
942934
908434
917671
877824
890264
864073
868548
858207
723774
725523
722787
722824
719032
718424
717094
721632
716457
714718
715964
706999
701079
696345
685407
682608
676787
689129
689303
702163
713818
720715
723498
721232
715507
706222
701862
694471
689482
669434
870763
865741
864579
852370
840416
822604
808734
795874
795507
777326
787498
786718
794776
805347
806787
808529
801812
796694
777093
772252
753497
751345
735979
736341
722818
722167
709724
705927
699296
694478
727170
729303
731233
733933
734389
730034
722361
714148
700600
693637
683157
683354
669498
694790
679760
717707
725945
755376
795317
820265
862005
880085
909631
916039
926416
929078
931238
929680
929697
931257
716863
714429
705775
685782
671646
658621
626126
628106
580599
593241
551982
565127
543025
548662
562697
551382
579480
589409
606969
626856
639389
639879
649122
654676
657737
657021
658313
660895
659661
660273
567280
571742
575139
604637
608552
630962
649604
658286
671683
672580
687771
688603
701406
708859
739985
737633
760576
766697
759281
748640
740097
729417
730677
728671
729772
744943
756587
770592
781161
788437
800956
796686
792416
795500
793688
792130
791282
795019
792817
794248
778585
780542
745433
753127
713834
716553
716723
705578
712425
723235
723491
726471
718793
698995
679103
667526
657945
648113
650682
650050
929375
888796
830676
813809
781212
789399
778317
779389
772353
788863
754263
747004
718874
737703
717310
727580
718400
724088
714935
721316
710000
722092
708232
713813
698633
697416
679212
674156
661682
658445
737814
726594
746954
758748
810321
797788
834630
861088
840682
882425
875870
876117
913958
946970
969240
976817
980784
994780
1.00437e+06
1.003e+06
997007
986272
984161
984993
973660
970079
972290
978621
958617
968924
935723
924697
911403
907832
893785
878213
871131
885484
903790
953093
997055
1.0373e+06
1.06168e+06
1.07148e+06
1.02997e+06
1.0173e+06
979321
908990
908062
818292
806164
774125
729226
737045
705979
716765
705375
712220
711364
716306
1.15506e+06
1.1256e+06
1.09548e+06
1.06035e+06
1.02773e+06
1.00232e+06
986697
990240
997683
1.00859e+06
1.02431e+06
1.03614e+06
1.03563e+06
1.03213e+06
1.01212e+06
993580
960827
909508
888204
801313
807113
741742
736494
764942
800508
845822
886497
917553
937640
957472
1.20813e+06
1.19123e+06
1.16728e+06
1.14245e+06
1.12088e+06
1.09772e+06
1.08619e+06
1.08483e+06
1.04388e+06
1.05381e+06
1.02041e+06
1.02535e+06
1.00015e+06
995412
978929
954262
956085
918159
931514
915672
929619
956367
960316
986786
994956
1.00862e+06
1.01789e+06
1.01695e+06
1.02332e+06
1.01696e+06
1.09011e+06
1.07962e+06
1.07956e+06
1.05519e+06
1.05341e+06
1.02276e+06
1.01933e+06
978516
981563
955956
943461
952433
947142
960357
994456
988023
1.03366e+06
1.05306e+06
1.07469e+06
1.09203e+06
1.09238e+06
1.08498e+06
1.08223e+06
1.04333e+06
1.03713e+06
994733
984778
960415
942887
930945
1.02079e+06
1.01191e+06
995705
984786
961575
948870
932472
914038
915692
882195
897374
863541
876883
864401
725787
725874
720748
721581
717961
717479
722474
722043
728026
718973
710244
710852
696331
693852
687053
678910
680072
680466
698096
693757
715728
718956
722054
723988
714506
719523
704803
697954
688548
696994
866156
861239
860269
849662
839817
817228
813235
793847
790306
783598
790884
792145
800021
804103
805577
803476
797908
788066
768366
769494
745560
752624
735985
741799
727801
724765
716830
713297
713250
711494
747609
748982
749421
746565
739251
731553
718976
707471
691746
678769
672616
661434
673731
657011
691121
672143
738030
716565
794649
788988
842771
859729
888585
909675
917835
923180
921524
921662
921507
923488
742986
712112
704136
703344
662965
672963
618289
636061
576362
600373
549755
570232
545079
551916
558713
556229
596159
586639
628134
631791
645370
661334
662832
662937
668935
676554
677463
674839
672871
673614
603247
602210
610394
606355
622487
651004
648601
667495
666660
678243
677310
690718
692607
703898
710963
738748
733058
751855
751664
743825
732825
731257
716011
720433
723803
732338
746577
764557
776623
788061
785691
791729
796402
791098
787065
787763
789800
794487
795527
795369
780218
785293
748383
762607
726113
734260
714811
721254
711850
716034
723321
720504
711776
692623
685465
659816
663323
654957
652509
649712
915908
848206
846642
780424
793008
758850
760918
754222
754432
717826
727434
694822
714809
683968
708545
696136
706304
698726
708613
699609
711734
699378
709023
695082
699175
681298
681132
662166
653928
647523
703663
726458
738121
748167
758123
809054
787101
818999
833264
808031
864282
867977
865210
894077
923564
938700
937831
938317
949873
951199
942561
941508
940717
933663
928637
936068
951781
944978
952309
960269
907713
917366
910553
879094
856633
845345
838823
845146
901038
921079
977986
1.00262e+06
1.02737e+06
1.00923e+06
1.02465e+06
973674
956461
875698
887636
779256
805988
719544
736999
692981
708062
693230
705773
703743
713933
713344
1.12061e+06
1.09167e+06
1.05994e+06
1.01545e+06
984759
967135
959750
966818
988024
1.00621e+06
1.02078e+06
1.03138e+06
1.03461e+06
1.01955e+06
1.0047e+06
980290
933992
893896
868747
768965
803529
696769
733604
735709
765334
802718
840896
874256
901596
922244
1.1943e+06
1.17269e+06
1.14861e+06
1.11991e+06
1.09132e+06
1.06871e+06
1.06806e+06
1.02868e+06
1.04275e+06
1.00616e+06
1.02357e+06
999665
1.00412e+06
981707
985976
949112
957222
918194
934089
915195
958301
944103
981561
978566
998546
1.00414e+06
1.00498e+06
1.00878e+06
1.00443e+06
1.01036e+06
1.05782e+06
1.06287e+06
1.0505e+06
1.04982e+06
1.03542e+06
1.02608e+06
1.00993e+06
973065
985845
940773
935765
938134
942929
933461
989965
985202
1.01388e+06
1.05139e+06
1.06977e+06
1.08583e+06
1.09264e+06
1.08709e+06
1.0795e+06
1.05041e+06
1.05649e+06
1.01164e+06
1.01834e+06
982368
990476
975869
1.00856e+06
996992
990894
973510
960479
942923
933748
918613
911684
889338
896336
868109
879871
862529
715977
724812
722050
716131
717164
724263
723640
726685
722107
723926
717679
703671
705217
687316
687454
684955
677988
690851
687743
703485
711965
722034
731081
723703
729225
714987
712465
708772
717954
711336
863839
857217
855223
852242
833849
821104
812829
797204
787758
784729
794396
797269
798452
805717
805041
800479
786422
786963
756559
764841
740212
748183
737544
741794
732802
735091
728462
724184
718773
715136
767939
766136
760762
753971
744713
731975
719512
702962
685257
678270
656220
659714
645470
663912
664452
675494
705718
716548
762708
777427
816689
847215
870388
891536
905170
909710
913675
911891
905071
916224
730359
743060
707896
705967
676160
666629
625733
633472
579407
599441
556587
569895
558149
560166
573021
571581
587079
609915
627783
640682
660989
659599
662423
671635
672131
670241
670357
672256
670414
665282
583483
590466
600158
615594
647633
646587
664860
664348
675410
673774
684800
682599
698949
696941
711813
712804
733344
720233
733341
727223
726672
711083
714613
707431
714037
719736
732967
753347
768644
781439
791176
783145
773393
776101
786122
791283
791901
792662
794822
790249
788611
777710
762961
756972
751448
735362
733143
719911
722998
713855
715024
710015
700981
698915
671105
675136
660538
659277
658118
657644
854888
860699
795711
801454
756647
768025
744412
736193
712289
726981
675217
693824
660494
691895
673997
696186
689418
702497
696002
704164
695008
703822
693384
697752
684843
686627
668782
661223
648722
647813
652319
649100
653022
694779
701162
726532
780122
745315
782370
782041
760447
819229
842049
824851
832701
868018
888757
889597
881629
891369
908778
907927
895518
887486
906674
921629
926111
939199
943170
949521
856854
853718
863526
858755
836385
815890
828539
836754
872066
918080
939662
977950
976027
998713
970646
961603
904173
894741
827098
790003
733823
735169
682758
696284
670135
689703
690399
704889
709646
727084
1.06189e+06
1.04952e+06
1.01668e+06
980922
948619
934453
942954
960068
975562
1.00519e+06
1.02574e+06
1.02521e+06
1.02409e+06
1.01127e+06
995548
956637
909328
881755
835276
762957
756466
685196
703612
696240
724783
759852
793756
832578
857924
880840
1.1612e+06
1.14318e+06
1.12115e+06
1.08364e+06
1.04838e+06
1.05334e+06
1.00638e+06
1.01901e+06
979042
1.00954e+06
988255
1.00295e+06
988465
988814
977511
958522
946400
933363
931638
935279
951181
951377
985362
980381
992425
995632
1.00295e+06
995239
999815
990359
1.04876e+06
1.03591e+06
1.04086e+06
1.03276e+06
1.02967e+06
1.01986e+06
1.00062e+06
982650
949967
953595
914528
922042
930713
931376
940451
1.00448e+06
990688
1.04152e+06
1.06304e+06
1.0777e+06
1.08805e+06
1.08612e+06
1.07924e+06
1.06514e+06
1.05476e+06
1.03358e+06
1.02448e+06
995229
983750
971482
998788
991959
978480
967607
950920
943190
927244
920089
911166
895458
901197
874261
877472
867048
734840
726445
732733
727106
725711
720117
724944
730545
735631
726099
718616
714137
701059
696570
685319
680483
686750
686026
698150
701963
716271
729645
723915
732896
729684
737025
729533
737144
714956
711048
860933
860802
858749
850566
842260
813755
822330
792545
801133
793219
794386
801376
803521
803582
802000
800361
776021
780269
752926
751878
741794
737658
741328
738183
739249
734992
732442
731040
730406
730643
781534
776054
768714
759684
748272
734511
720240
704607
684007
681133
654028
652085
652999
643420
675893
655047
716814
689404
769133
747068
819545
812962
864809
871650
896882
907582
901858
902838
904967
904327
768904
737742
737625
708867
671554
679923
614687
640592
577913
604338
561715
577143
564215
571892
574164
573274
607909
617678
634826
656875
659724
667549
677705
676925
682829
687588
690304
687375
685936
688451
638691
637796
639896
647025
652477
666460
669063
674890
674829
682821
680788
693794
690919
705743
701348
721441
717958
730267
722112
728825
709296
703509
686812
691941
701589
712512
726350
744778
764244
776343
772489
768304
773000
772038
771938
777023
778583
787174
786728
789487
780962
774717
769916
760800
758403
751681
741824
737253
720715
724249
705404
712604
694240
687048
677333
672371
665490
667219
664307
662117
867867
794812
806148
751411
754879
721527
723801
693105
701135
660531
678650
644513
670544
654047
681465
676197
692688
692519
699257
696406
700021
695201
697278
688248
689153
677605
676036
660823
643850
653673
650932
666523
679004
665462
713941
704419
719016
762188
708906
741175
710685
681340
723322
772951
761464
771029
807159
833091
846312
849106
854227
859020
858963
886022
889064
887063
886087
908794
911640
920596
850111
821009
787258
796208
799648
809218
834038
810351
874891
896224
926012
946484
983370
959875
960875
924149
919425
839036
841747
743693
761784
693223
703330
662460
677339
667367
695752
693765
721217
721944
1.02885e+06
997333
978463
953353
921838
913210
936254
956782
979662
996855
1.02324e+06
1.02578e+06
1.01546e+06
1.00665e+06
975331
931637
914265
840150
810910
747215
729239
654657
667694
652516
681591
714575
746225
787674
822233
852235
1.11198e+06
1.10169e+06
1.07757e+06
1.02851e+06
1.04614e+06
973745
987332
947820
986276
962138
991666
985989
993198
984453
972700
958338
946843
933268
932427
928499
955434
959240
981538
982430
987923
986938
988817
994465
988786
992315
1.02191e+06
1.02999e+06
1.0307e+06
1.02869e+06
1.02165e+06
1.00871e+06
1.0018e+06
979257
935044
943054
914945
896512
894630
930901
911900
980175
994363
1.01873e+06
1.05396e+06
1.07092e+06
1.07977e+06
1.08374e+06
1.08352e+06
1.07574e+06
1.07092e+06
1.05744e+06
1.03715e+06
1.04017e+06
1.02413e+06
1.02121e+06
976002
976708
968402
957468
943536
938493
918910
924828
904666
908148
896036
893985
880655
875204
687525
738027
719668
731786
728372
730095
730394
731358
735384
739785
731355
715598
705158
702249
690797
694547
685695
699831
693145
713369
726959
725478
743341
744069
745911
740533
750209
730964
743292
751298
867035
872647
862350
855972
846268
823346
820837
807027
800712
801313
798797
802026
807643
807002
796949
797659
772217
775740
740211
753723
729646
740328
735578
739208
737951
738226
737150
737073
735511
734401
794599
788320
774506
761754
749091
737704
721926
709137
689508
684833
651746
649643
649050
643561
673355
654666
710180
692423
746759
752989
791032
819765
836022
871829
877964
890262
892641
878220
868656
893070
764929
768136
724866
732410
664739
686741
610758
638892
580424
603957
570451
583301
575126
571634
579239
605479
606214
627317
647392
654313
665050
676923
675987
682989
687266
688739
689508
690994
690980
688878
630187
638538
644245
653306
666471
667867
676013
675909
683417
681048
694001
690524
708535
700095
718997
704836
707448
715579
725607
703067
704410
693622
697986
693423
700612
705475
728216
741889
760353
772739
749700
760190
761564
769539
774096
774311
781346
778200
778806
771515
771329
766431
765858
758196
761424
755563
755153
745237
733631
717939
705849
709151
680435
682968
670674
667525
667663
667041
668582
670716
778367
803752
749376
762108
725133
733043
703496
698568
667018
669954
638550
655236
641303
660604
666333
682448
688716
696791
698593
700496
697457
699024
692752
692674
689442
685769
666354
678584
669710
637342
622341
609499
612402
633225
619577
669475
655465
665714
693364
667527
715037
709030
669283
691581
745398
757111
750438
778072
820532
842483
851284
851138
870480
866127
858964
861070
886193
881044
907901
909506
731917
779195
828759
813163
816711
814933
836173
826216
847147
910412
904676
945712
944413
957266
942957
941071
888458
876462
801269
791181
722067
731386
678420
685752
658742
676732
685829
716306
722134
751179
999777
973543
958463
926606
914293
919111
910050
964938
970652
1.00604e+06
1.00835e+06
1.01044e+06
1.01019e+06
988980
957723
931746
892250
819266
789438
732895
716254
630145
665715
649776
648617
709243
694586
790904
779531
865274
1.06981e+06
1.05465e+06
1.01262e+06
1.02621e+06
959764
983699
921965
956242
928554
969566
968338
989619
999980
1.00654e+06
1.00196e+06
992744
984688
967849
964758
955016
971970
977707
979938
984912
984839
988109
984066
981528
983107
981147
1.02498e+06
1.02125e+06
1.01812e+06
1.01941e+06
1.01175e+06
1.00942e+06
986067
983309
928489
943124
887111
903528
881830
917374
907150
958840
984179
1.01009e+06
1.04014e+06
1.06421e+06
1.07314e+06
1.08551e+06
1.08671e+06
1.07749e+06
1.07319e+06
1.05593e+06
1.05121e+06
1.03128e+06
1.02682e+06
1.02458e+06
979605
964510
958888
948624
939585
930304
924450
917694
901211
909265
888995
892519
865287
836194
753972
783366
763862
748748
758939
736272
736890
736703
738852
740454
739802
736684
732804
731404
715834
701788
697694
688964
695249
695922
705396
725865
722424
745215
748341
754312
751232
756540
745661
761056
764621
785902
774928
800553
848963
849565
853365
853990
849384
838811
826084
814797
809470
807144
808029
806570
805321
806769
796123
789637
768607
766068
739061
737955
732086
728464
734081
734507
737378
737152
739273
740089
742942
749412
753859
738834
765812
764644
760267
754509
748286
740695
728122
715001
696749
688818
664492
674629
660364
660912
673258
674410
707814
697877
751755
737770
801743
792337
844550
846574
877313
869726
866549
862029
865279
863368
861995
841199
804228
774328
749869
718363
667168
679857
606269
634734
580792
604098
577738
587701
580904
592867
597082
603978
616339
641667
644130
660370
673867
674199
682674
688467
690223
695317
697118
696901
692517
687418
685643
678940
675398
669967
671977
674394
673953
677267
676126
683199
681200
693460
691463
708151
702636
724516
719196
743794
747921
719605
704467
712735
708521
706877
691913
691201
700439
714415
737237
751752
765595
769033
749567
733539
755928
743728
744655
744057
748587
758507
754099
763180
769807
769537
761093
760151
751126
756744
752655
757728
755691
749036
732029
718383
713644
674162
682863
668091
656033
659789
666984
665752
662331
667519
643307
701819
729500
720730
746472
712474
725882
697724
696788
674198
653909
640240
648406
635133
652165
646906
666799
678331
690058
696404
700774
699172
698087
696779
699969
693702
688151
682199
694996
668824
663986
660928
611248
627072
624081
629579
620627
625187
651633
631243
677312
675581
685818
688978
655586
674798
694520
715055
716053
742097
773251
790391
795899
808900
824348
847503
845741
856089
858305
865942
825745
814257
814342
835035
650653
622121
783449
771662
766691
802609
823425
842069
846461
843223
869158
903645
913432
949174
965384
965920
944075
939894
908093
859568
835077
788093
760523
713369
719010
669932
683185
676999
704199
713071
738946
750300
749159
745283
760839
857922
916038
922468
913403
912728
928033
943528
981161
988013
1.00901e+06
1.00645e+06
995047
978129
955084
928523
874083
814216
803311
696364
725919
624118
665680
616460
659987
641808
735313
727270
839986
865803
886589
766517
949803
961532
999799
929028
952240
893208
923138
892980
932479
944680
972018
996123
1.01234e+06
1.01985e+06
1.02365e+06
1.01308e+06
997852
973746
967241
962428
964771
969866
983189
986757
983319
977880
979597
976013
972291
979533
957665
941695
1.00363e+06
1.0137e+06
1.01886e+06
1.01449e+06
1.01422e+06
1.00292e+06
991944
973649
948027
928636
885994
893172
873874
915119
896816
956630
962921
1.00586e+06
1.03476e+06
1.05027e+06
1.07082e+06
1.08635e+06
1.08268e+06
1.08494e+06
1.08781e+06
1.07818e+06
1.07548e+06
1.06253e+06
1.06403e+06
1.05369e+06
1.05646e+06
1.05703e+06
941333
947188
938388
940115
930528
930027
916783
919229
904158
908182
890414
891692
871710
872969
815076
811659
779456
773626
750196
760240
741867
734789
739297
744283
749302
750672
748205
732109
725629
715276
708911
709534
703983
709598
717626
720358
744626
752075
764517
769796
782878
775630
787107
778930
795149
803667
805722
824841
867478
862308
867286
864067
857591
848626
835057
827942
817463
811640
809298
809419
803870
801433
792022
786682
765803
769433
734722
744387
724733
728898
729493
732652
737325
735545
740612
741625
746210
747441
751300
745914
759620
754388
751051
748504
745279
740419
732340
719578
702223
691223
692320
668595
663852
662931
686409
672351
720129
704331
759868
746137
785622
810801
819976
849544
850021
871199
866487
856600
846038
867928
832542
842910
798777
788706
738153
738107
652185
683989
599633
629174
584619
600777
586954
591922
597931
595390
598047
619345
631653
635283
656640
668069
669466
681052
686364
688418
694019
696965
697894
698605
698189
693572
683674
675873
682836
679040
675770
676564
677564
676220
681315
678412
692093
690474
708812
704037
727130
721406
738821
739652
741697
759381
746318
714245
700227
689826
696218
700364
716975
738958
749078
761002
773338
771732
753303
742382
748343
746346
751424
752647
751386
750953
762394
749378
741644
741772
745090
735971
744422
738966
747473
747208
751960
741038
736455
713352
686431
659980
656249
650033
662219
654437
645800
648568
646865
662165
660159
660183
716848
723431
706945
724427
698830
704154
675702
668977
651829
641166
640185
634832
646811
652354
665232
679141
686889
698658
697688
706629
703027
707594
700547
697934
691210
698944
694076
711489
689067
686648
661106
625072
623382
619806
609331
595103
590889
614648
600185
646210
644476
660718
672814
669737
690708
718919
728061
759052
782979
793668
807135
808180
832882
833930
843377
854362
860883
852719
852915
830416
806535
838390
744241
730398
785163
820627
870612
890534
892478
880095
869627
876347
909688
910506
948491
960103
968479
969713
965071
935952
922053
890917
826860
838713
760583
759686
707218
704691
685609
692402
704443
723560
745729
769490
750850
775755
850880
890269
913938
921949
918281
925408
923552
955931
970438
993120
989502
988471
989173
973229
964736
922188
896232
822614
816941
714218
724038
660066
640011
660324
645184
695812
714752
808444
846589
940932
908266
922358
928330
924167
924985
950482
900041
912643
868345
906653
902300
938352
975484
1.01122e+06
1.03563e+06
1.04845e+06
1.05342e+06
1.05014e+06
1.03911e+06
1.02478e+06
1.00643e+06
1.00311e+06
1.00827e+06
993141
989805
988662
988598
981757
978697
980723
973840
981738
973104
972982
1.00273e+06
1.01069e+06
1.01048e+06
1.01558e+06
1.00956e+06
1.0085e+06
987493
980935
954676
927876
907199
907390
894421
912550
902000
945575
965281
1.01865e+06
1.01658e+06
1.05164e+06
1.0777e+06
1.08119e+06
1.0857e+06
1.09864e+06
1.08153e+06
1.08191e+06
1.06637e+06
1.07232e+06
1.06474e+06
1.06658e+06
1.07102e+06
1.07439e+06
953151
942306
942444
930650
930294
919125
918209
915125
904635
908510
895212
900599
878445
883386
849033
832806
784420
797199
759674
764823
750013
754825
747385
750858
753068
754693
751420
747412
733935
721833
709137
702427
704907
717539