/*--------------------------------*- C++ -*----------------------------------*\
| =========                 |                                                 |
| \\      /  F ield         | OpenFOAM: The Open Source CFD Toolbox           |
|  \\    /   O peration     | Version:  2.1.1                                 |
|   \\  /    A nd           | Web:      www.OpenFOAM.org                      |
|    \\/     M anipulation  |                                                 |
\*---------------------------------------------------------------------------*/
FoamFile
{
    version     2.0;
    format      ascii;
    class       volScalarField;
    location    "0.004150000";
    object      rhoEu;
}
// * * * * * * * * * * * * * * * * * * * * * * * * * * * * * * * * * * * * * //

dimensions      [1 -1 -2 0 0 0 0];

internalField   nonuniform List<scalar> 
12384
(
1.08478e+06
1.0193e+06
948340
890917
865326
804817
815092
766259
838135
826576
851239
704245
267250
-58015.1
-117189
-4351.17
41145.4
57683.9
62445.3
57364.8
66394.7
70618.2
80494.5
92156.4
107087
118907
124952
127370
124996
130287
124116
139674
130412
145043
158657
143758
78443.8
38488.5
70940.5
75766.5
48983.8
-47793.8
-97050.3
-106341
136732
147363
155275
156808
156153
171251
158121
187169
170838
186104
179586
165844
167703
154446
146431
123054
96855
73116.5
46856.2
13917.1
-12202.3
31102.4
101969
184269
156895
142447
93926.2
13614.3
-55777.9
-103060
-199333
-206001
-194976
-182859
-161315
-145217
-126474
-106791
-95157.6
-80062.6
-75058.5
-64491
-62809.9
-62983.4
-53615.6
-67846
-36868.1
-53519.5
-22961.4
-8285.01
-24669.2
-12463.5
-20276.1
40433.3
79353.1
99838.9
104209
107549
109384
108381
-47482.2
-39688.8
-38642.6
-40940.1
-44505.4
-42274.3
-52578
-24867.8
-46863.7
-18284.7
-42749.7
-30261.3
-33171.1
-44765
-44754.1
-66130.8
-64813.4
-83061.5
-79457.3
-85415
-90662.1
-85024.9
-98821
-106642
-95034.7
-72077.3
-84422.2
-90879.2
-91629.4
-93932.8
-295942
-303012
-279601
-252259
-241202
-202027
-201393
-167170
-164560
-142880
-136893
-122017
-115451
-102411
-78645.6
-72875
-57458.6
-55897.6
-58513.2
-62338.8
-66848.5
-60528.1
-53164.8
-44288.1
-39779.5
-34316.9
-33975.9
-47388.9
-59874.4
-39676.8
-93344.9
-104124
-128734
-144008
-127889
-91717.4
-77954.8
-81132.2
-84575.5
-98996.4
-98985.8
-134113
-136833
-159777
-181199
-180149
-183496
-179571
-172512
-160914
-153894
-155520
-164122
-177768
-188193
-205017
-206982
-229537
-339186
-439367
136844
59903.2
-32016.9
-93501
-92881.4
25421.5
57487.4
59669.8
74206.1
81285.8
92807.1
83336.1
79763
54798.8
58809.9
39275.9
35464.4
24570.3
19725.8
10522
5727.05
-2412.42
-6728.83
-13938.3
-12995.1
-23124.8
-21786.2
-35156.8
-33469.4
-56463
30317.3
36896.1
4979.33
-90566.5
-147895
-103913
1604.98
34677.1
56634.5
88370.7
102719
127756
124889
142936
152860
150205
139169
132197
120961
113476
105299
98706.5
89731.9
74667.6
44302.5
-9116.81
-33140.8
5482.91
49575.1
-16447.3
164106
151120
130029
191487
289408
268452
272509
273266
282526
308320
336417
373752
391062
398337
366658
325161
255331
177566
173282
93814.7
106513
38481.8
47420.3
-2678.76
302.673
-31009.7
-32518.6
-50006.8
-48403.1
-37112
38728.6
155408
243790
294568
305311
315852
301232
280835
247784
208095
173400
139861
109006
84561.3
60353.1
42884
26128.7
13899.4
-7588.46
-6238.64
-34673.7
-28095.2
-5203.14
-37986.8
4978.86
-7517.83
17791.3
11644
2969.83
-2958.97
-131318
-35153.4
193795
202085
180457
187900
192152
171125
154779
116963
103568
57484.8
51641.2
21176.1
17604.6
-3391.98
2511.28
-22168.6
-6325.6
-19589.4
-12033.6
-7832.54
-10448.4
-51869.6
-102209
-42712.3
37012.2
54045.5
33190.7
21436.4
-118113
32387
164234
162474
130547
110109
14712.1
-393.032
-39211.4
-49995.2
-62624.2
-74546.7
-77471.3
-78723.9
-82358.1
-79489.5
-54820.2
-51375.1
-33426.6
-25571.5
-24838.3
-20115.9
-25718
-49133.7
-10369.8
-62637.7
-31198.1
-69532.7
-75853.5
-84976.3
899834
872857
829653
784413
766327
685683
707106
618124
691625
700702
821750
753927
445274
26072.9
-114267
54734.5
47128.5
4599.07
-40358.2
-64706.1
-63827.1
-47266.2
-23169.6
1355.65
30913.4
53695.1
69421.2
79657
84552.3
93299.3
96034.9
112687
121583
134672
154283
153295
121417
64878.2
51558.5
63935
72161.6
-8190.6
-79099.6
-110725
138084
162255
116489
112578
135618
163983
186503
202699
200954
205540
197508
180451
169105
154453
137677
122600
105169
84234.1
58907.6
33017
5567.36
-3729.89
6121.06
68065
138988
171879
157632
97762.4
-19533.9
-98340.3
-203391
-186276
-162231
-135085
-107850
-87690.5
-73656.9
-60760.2
-48529.9
-42179.6
-36744.1
-35971.2
-36480.1
-30216.5
-34590.5
-31727
-24288.8
-26047.3
-6617.98
-9727.14
4212
-2583.07
-14910
433.184
32449.3
81223.5
95416.4
100359
103888
105151
-43708.6
-64023.2
-78448.1
-78117.7
-76912.3
-61123.5
-70169.5
-35634.3
-51117.3
-30931.9
-28702.9
-27522.2
-22803.8
-27387
-25840.2
-39330.6
-32160.5
-47348.1
-47682
-52317.5
-59489.5
-61626.6
-73515
-88318.5
-91068.9
-75943.3
-70445.3
-75135.7
-90413.4
-101621
-298868
-298395
-266453
-231176
-215081
-185815
-190581
-160608
-149055
-128965
-123709
-103286
-99518.5
-76683.3
-67337.1
-41331.9
-40411.2
-31528.3
-37556.1
-35488.7
-37289.5
-25675.7
-16712.8
-5121.38
7544.8
11371.4
3744.98
-13475.3
-40228.8
-40631.9
-89036
-104271
-129188
-135086
-100459
-81574.9
-85706.9
-105446
-124074
-140320
-154874
-169363
-178412
-171948
-188495
-184113
-180682
-176124
-170155
-160206
-158457
-162974
-175731
-192016
-207736
-222390
-218133
-229190
-301247
-424370
145195
19999.3
-66834.3
-102260
-10806
41796.6
46942.8
43285.1
32029.4
33677.7
25051.2
8908.63
-4653.33
-14080.3
-25580.7
-26976.9
-24826.2
-17622.6
-12440.6
-10141.6
-17591.9
-20238.2
-31075.6
-26843.8
-26924.4
-22296.6
-28333.8
-24415.5
-33382.2
-56876.5
25115.8
-18686.2
-134571
-155057
-103727
-23105.8
5083.91
53225.7
78639.7
82360.2
103768
118220
125921
143242
149226
159745
162996
154393
144546
129147
117423
110471
107187
99789.8
74469.2
55861.3
-6405.09
-58349.9
-11780.1
703.835
161585
140364
132746
251989
302757
286951
265224
252358
259750
279808
313555
343951
368067
371531
346174
301631
218737
135872
125704
29353.5
39129.4
-25903.2
-4044.96
-41640.9
-26521.2
-48976.4
-43604
-54166.4
-53686
-32316.9
118100
168281
298433
333071
348224
350461
326299
295522
256787
228662
188990
152981
119994
85728.7
58695.8
37298.6
23746.1
-1422.6
-27762.9
-39103.4
-74115
-63659.9
-62885.2
-75711
-41255.7
-20573.7
5516.84
15206.5
12711
4747.7
-57468.1
82885.8
217071
213472
206170
221901
214441
209863
183552
153830
126183
85127.3
72362.9
34063.5
34225.1
2947.81
7636.63
-12622.9
117.234
1765.99
3100.53
39500.3
37124.9
45942.3
-21538.5
-68323.8
-59318.2
18167.5
76426.3
47359.8
-99616.2
89867.3
168275
140936
85574.7
16083.6
-57672.8
-80622.1
-50226.4
-29754.8
15418.8
47724
93999.5
114828
149216
153593
178316
184401
196449
194021
192031
173910
147635
86642.1
27947.9
-111557
-55572.6
-59071.3
-50327.7
-69507.8
860270
809578
762506
730048
720482
683586
691307
620194
630289
600794
755259
764700
583420
114527
-42525.6
52742.5
-15542.1
-106851
-145295
-148770
-132332
-101904
-59298.4
-18094.8
17008.8
44280.1
60970.4
72861.5
74050.5
81701.1
82802
86717.2
94610.2
115100
138509
152797
145612
99886.1
58661.9
55128.6
80865.3
36999.5
-46235.9
-91218.3
151932
87036.1
17844.4
28594.5
88031.7
139706
175669
181908
183345
159719
145574
122385
112962
100456
95644.8
92027.9
85350.2
72421.2
56195
28332.2
11605.6
-15467.7
-18441.3
-11532.2
60328.2
129818
191900
157791
38343.1
-80110.9
-159277
-145023
-112154
-84875.7
-66130.1
-53996.6
-45669.9
-44499.9
-44523.7
-42171
-43536.6
-42701.7
-41471.2
-45136.9
-34769.2
-43413.1
-22929.2
-33547.7
-6183.28
-4747.43
6345.89
12888.2
-10043.3
-16046.9
-3467.23
45943.2
81654.2
95906.2
99324.4
97847.7
-119041
-118660
-113613
-91852.4
-83122.5
-52847.1
-54951
-23033.7
-31508.3
-5343.59
-13354.5
-609.901
-8355.05
-10073.1
-11031.2
-19478.4
-18653
-28926.9
-25919.9
-32277.9
-32801
-36146.2
-50501.6
-70273.2
-84314.7
-77636.6
-59316.9
-57164.1
-70606.5
-95701.5
-301400
-283564
-242229
-209632
-205789
-184911
-181132
-154823
-148769
-127503
-119636
-112773
-104673
-87130.3
-86216.2
-69649.1
-54363.9
-54504.2
-48055
-43393.2
-35610.3
-22219.8
-7773.85
9225.71
24709.5
40056.1
42298.1
21602.2
-12889.8
-28871.7
-78461
-102587
-123609
-111929
-80174.4
-87946.6
-114789
-139731
-152213
-150740
-142642
-138248
-147178
-157890
-166032
-164696
-169787
-167079
-158281
-158964
-157001
-166460
-184008
-200743
-218550
-226666
-231635
-232855
-282350
-415805
99150.8
-24970.9
-84737.7
-59182.4
35690.4
37839.1
28887.3
4501.33
112.801
-3894.7
-1734.34
-12675.2
-31191.9
-55444
-69252.4
-85860.8
-86760
-78683.4
-60954.8
-48638.2
-40032.6
-51014
-49099.9
-35918.1
-22039
-30954.1
-33480.9
-34003.3
-33626.8
-56097.4
5531.78
-98469.7
-166684
-120740
-81419.4
-30972.2
11689.8
22759.3
55427.5
58865.9
58477.9
79040.7
96115.8
112388
122807
132488
151424
162734
154286
139600
120122
99815.9
85449.6
73672.5
67057.8
44970.9
15420.6
-38149
-83007.1
12694.5
146705
128635
167433
297426
313719
277279
243221
219924
221698
241894
280524
319744
328114
325449
281994
197968
130051
7258.24
-43208.4
-112824
-144271
-178165
-172207
-177140
-148452
-125589
-89409.2
-77654.6
-62661.6
-32355.2
140975
238604
325744
343535
347503
326664
291386
258688
227757
195776
173751
149270
120763
85849
49900.2
21582.4
-10785.8
-64118.6
-98207.1
-133778
-145602
-132995
-115313
-112223
-86124
-63893.8
-28878.3
3374.1
18927
10649.7
-17693.6
184564
236130
231551
245191
248236
252377
229254
217252
169795
151734
98077.5
82838.1
38474.7
28176.3
-8658.4
-7512.67
-33545.6
-18717.5
-15880.3
-11288.3
45867.6
43256.4
102690
69888.9
60125.5
-21300.6
-59237.4
49447.2
63215.9
-72271.4
117984
152104
92358.3
-6986.39
-44918.8
-6409.59
26224.2
86702.4
99440.5
149932
158463
171163
178776
196706
196615
224689
229163
245190
246027
239857
216151
197184
136393
124634
48408
-42665
-90196.1
-24143.8
-21287.6
787598
682273
597205
558441
550489
560972
618895
600979
623519
579262
687803
763208
641215
180863
78044.2
49911.9
-70007.5
-153543
-164168
-138533
-90884.4
-32648.8
13733.8
53280.9
85699.3
100258
113931
124967
122243
117464
102719
97966.5
92735.1
97162.1
123957
145500
153660
127594
80326.3
55659.9
85454.6
77857.9
-6515.9
-91089.2
161416
32259.3
-26578.7
2156.29
94541.9
151732
159396
146032
125092
88929.4
68222.2
48613.2
43404.3
46901.1
51634.7
57394.6
57022.5
54139.6
34813.7
18373.3
-1762.97
-17045.6
-29900.1
-34940.6
-1871.82
80336.2
173326
197140
93361.7
-64572.6
-135362
-102325
-71582.8
-57919.3
-50103.4
-46015.6
-45623.7
-46147.1
-51862.4
-53918.3
-55753.3
-58605.3
-64231
-57141.2
-63408.3
-51690.9
-52714.3
-39603
-31472.2
-12639.9
-4052.68
6783.53
-1723.99
-25986.9
-23647.5
13731.4
56083.9
78848.9
93912.5
91702
-153626
-129216
-107249
-86406.3
-65967.4
-44282.1
-34099.1
-7951.12
-11098.8
13112.1
4091.43
14820.2
8548.05
3674.86
6617.16
-10324.7
-9914.03
-8623.61
-15863.9
-10836.3
-11925.8
-22896.6
-29830.8
-45878.4
-68803.1
-78985.2
-70723.5
-54596.5
-60943.9
-91858.9
-306711
-266681
-228987
-200800
-203082
-187241
-172529
-152309
-139717
-134956
-127933
-126949
-123092
-113893
-94515.3
-86549.5
-69053.4
-48437.9
-39721.2
-25096.9
-12371.7
-1016.8
13429.8
23752.4
34871.5
57056.1
67153.3
54529.3
17812.5
-12770.3
-73505.6
-105218
-117755
-86610.9
-77438.7
-104142
-134720
-149532
-141240
-125536
-125947
-127195
-145127
-148427
-170220
-169507
-166714
-170149
-164837
-162194
-173041
-192868
-213596
-227261
-232750
-234008
-235820
-236262
-275777
-409112
68376.5
-45169.7
-71174.5
-1332.79
29382
37152.8
2480.89
-7565.28
-1383.54
24942.7
21366.7
10462.6
-9147.37
-26624.1
-64859.8
-94206.9
-117194
-119538
-105572
-78441.3
-64723.6
-59904.1
-57287.5
-31888.5
-28520
-32820.5
-51994.4
-35393.9
-35106.9
-59807.4
-45709.8
-181700
-175852
-119045
-63006.6
-58516.5
-25085.6
6280.01
1584.8
32599.2
32796.3
34870.8
58193.9
78130.6
89037.9
92450.8
102091
131027
155467
153190
122267
81174.2
62126.9
59273.9
30614.5
20573.2
19210.5
-414.709
-72932.7
-9127.16
138762
120060
217034
322118
317120
271941
239181
226070
212599
219392
246156
284938
304248
283531
194274
114698
-13627.2
-122307
-163170
-178930
-185739
-197251
-216830
-252554
-263233
-230019
-170716
-117777
-78313.5
-24597.3
157907
284933
333065
340486
327696
290140
250993
220064
190973
160033
137413
137573
117367
81319.8
35773.8
-4311.56
-69873.9
-134220
-135652
-164866
-133486
-147393
-130234
-102122
-74163.2
-41036.1
-18802
-8160.27
20708.3
21883.7
22607
234213
254561
260790
269293
258737
249706
234093
200529
192465
143217
117807
64431.6
33648.2
1345.96
-29012.6
-35736
-60936.8
-51708.6
-53847.6
-34730
15245.7
41988.5
93408.2
116782
121891
82459
5447.5
-16057.7
83449.6
-50379
121368
132269
15552.8
-17745.4
25327.9
90255.1
118225
165321
157857
162854
174110
171875
178611
203049
190396
225172
236059
250361
260811
252195
232454
208080
132948
105413
71778.6
40845
-74856.2
-48316.5
3293.27
701041
550218
467244
442216
418919
436085
479804
541833
605185
575990
664637
740376
694238
240731
123140
37404.9
-113442
-164917
-138399
-76214.8
-2849.07
51440.6
95642.2
113591
127646
154079
168692
191036
191575
174535
151384
117336
110909
88252
117794
138610
155865
145131
96649.6
72412.5
82899.5
94810.7
17362.4
-62129.8
165813
34716.2
-37225
-6502.47
111668
151016
138567
91992.1
53551.2
24910.5
11457.8
11878.8
20113.4
29860.9
35223.3
39055.3
37150.5
29921.5
9512.47
-503.125
-23770.2
-27339.6
-39125.2
-41208.4
-33600.1
27589.8
131953
208960
139144
-41340.5
-109905
-65752.6
-47091
-41049.1
-37435
-35784.6
-40289.7
-44845.8
-53026.5
-58358
-61251.7
-65404.5
-66461
-76388.5
-70827.8
-79907.9
-64854.3
-66585.2
-41587
-29913
-17436.1
-427.791
-12820.2
-24337.2
-33132
-6810.34
24286.9
52841.9
84515.8
93550.7
-134002
-127586
-106019
-86510.5
-85514.1
-69230.1
-62935.6
-36277.1
-30810.9
6153.9
-3205.72
15417.5
7358.92
5327.54
1911.95
-7888.59
6984.66
-9121.53
6398
603.876
-910.623
1695.91
-14277.7
-38267.3
-57839.3
-66416.7
-62055.5
-48222
-49650.3
-80983.6
-292443
-244208
-204824
-206065
-199208
-179400
-161769
-142192
-140222
-134615
-136669
-127871
-123243
-110185
-96351.5
-71264.1
-61576
-34180.5
-9514.34
1675.32
5334.34
11138.8
7831.17
20292.4
34933
57000.3
81259.1
76973.7
40044.2
-651.212
-79079.7
-103338
-91184.9
-73408.2
-88433.9
-124555
-142911
-140637
-127044
-119538
-126470
-126520
-146184
-151341
-166548
-166323
-172272
-168266
-173527
-184595
-197502
-232869
-253092
-259768
-245937
-245104
-233604
-235500
-276007
-407418
41768.3
-75567
-33410.7
-885.495
40100.4
7278.91
-10752.3
-9290.58
16284.4
17408.6
26357.4
16853.8
18549.5
-10905.9
-29181.5
-76292.1
-115643
-139740
-132963
-106852
-73002.1
-74647
-51764.8
-36319.5
-28540.6
-51399.7
-62281.3
-43545.8
-33415.7
-60471.6
-71097.9
-198387
-174056
-128883
-100287
-62171.9
-64079.6
-43024.6
-23568.8
-30011.3
17075
28343.6
27480.4
41710.4
53976.1
55114.3
50563.1
65979.4
104708
123358
103680
71338.8
45398
29437.3
12658.5
4087.23
12721.7
-8422.27
-49431.5
-58545
127451
143756
292612
345906
315187
261821
236854
224705
239804
211254
228679
258639
262962
213341
146408
2661.61
-112509
-143211
-106370
-106873
-106622
-135969
-168321
-211706
-252635
-291052
-245433
-168151
-98545.1
-25138.2
165232
307383
336074
324790
294837
261931
230964
189147
159829
141614
110285
121604
113551
66346.9
24895.8
-37055
-121661
-150026
-149670
-184959
-141830
-167639
-127811
-111213
-79965.6
-36639.1
1312.79
13888.6
28172.4
38257.2
66405.8
256972
270367
277772
269747
254488
238442
206912
210039
172710
167831
112252
74905.3
27231.5
5166.83
-31112
-38606.1
-64264.3
-60455.2
-75266.5
-43078.9
-32882.7
27979.9
68226.4
116414
139495
122926
65067.7
-54650.7
80509.1
-41678.6
122476
81255.7
-25366.9
38195.2
102906
152754
159671
193051
156140
161847
165502
169977
155224
198890
187463
204890
234372
246954
260322
264411
249457
220247
144320
101971
64348.3
84491.7
-145.355
-48690.5
49169.7
627150
460792
426401
406572
397700
389329
423080
502053
570876
581409
665684
747668
743701
304110
99653.3
-13285.2
-140848
-144446
-88815
-9450.83
48784.8
85757.3
101558
119471
137772
161265
208877
213917
212026
191272
153380
130793
102592
97758
113315
138261
167729
152430
125370
76710.1
86494
112081
66620.4
-37752.2
167412
50964
-38497.3
-11783.3
118109
148174
104325
43378.7
2836.14
-15469.9
-6535.87
2629.98
14568.8
20840.2
22782
15095
2096.62
-5573.79
-29365.9
-33639
-50651.6
-47192.8
-50242.6
-49781.2
-45733.4
-5477.93
99682.2
211147
157501
-33809.4
-78507.6
-41856.9
-34681.2
-28402.2
-24587.9
-26686.2
-30576.9
-39376.6
-48984.8
-51591.3
-64013.6
-64937.4
-73791
-72564.5
-86449.7
-82290
-88212.9
-70466.4
-67082.2
-32128
-39145.7
-5774.38
-30241.1
-38108.7
-44464.7
-26792.1
-1087.71
37203.2
68787.2
98863.4
-139435
-119693
-133275
-124990
-118726
-114959
-93894.5
-77136.4
-55938.6
-18334.8
-14529.7
2647.01
5480.11
1473.89
6473.12
-2763.81
-3127.81
3265.47
6841.29
7140.29
17862.6
6167.02
-7288.63
-19851.2
-42605.3
-62842.1
-62550.5
-48550.9
-44943.8
-85391.6
-290128
-225309
-205614
-202376
-186601
-165103
-140351
-136643
-132993
-136245
-128553
-124418
-105097
-95737.6
-78759.2
-66375.4
-38835
-23987.6
316.826
4223.81
3373.08
-2105.38
7041.47
10098.1
28927.8
55381.5
84501.1
86481.7
51280.9
5640.6
-77398.8
-107701
-99812.3
-83854.5
-101359
-124695
-132551
-128573
-119188
-117530
-120603
-134783
-148754
-154016
-152468
-161967
-162450
-174884
-186072
-214827
-244956
-279229
-293392
-276419
-261880
-241339
-237668
-238257
-290892
-410784
-15114.2
-65995.9
-41905.3
21353.2
14935.2
5713.27
-24448
-16007.8
986.425
28668.9
5826.82
9659.3
-9602.9
3291.47
-20545.3
-44198.5
-98042.7
-139598
-155186
-124488
-88644.2
-73667.1
-54684.3
-33451.3
-43048.5
-64628.2
-64430.4
-39750.5
-33329.9
-57783.2
-112485
-224493
-207142
-148977
-133089
-115766
-83562.1
-95077.3
-68877
-55273.6
-59962.3
-15175.3
11702.4
282.111
-3915.85
12307.2
19422.1
25152.2
45934.5
80906.4
92576.7
59667.8
15939.9
7984.37
12335.2
8533.61
-6260.53
-7387.85
-35875.5
-83277.6
118573
141363
302758
363004
316424
258844
249110
236255
246222
240349
199529
238036
233782
183126
65332.5
-63936
-132859
-75962.6
-49370.1
-66122.5
-95477.8
-128651
-176034
-201273
-243196
-286596
-286584
-211897
-105271
-3712.77
163734
313407
329218
307716
261378
222913
214915
186062
131870
125486
94940.8
110791
98179.4
55988.2
18888.5
-65464.5
-140185
-155412
-176166
-191098
-180135
-178735
-170057
-148820
-106383
-50961.8
6456.67
39370.3
40786.3
56384
96933.6
268750
283175
270396
255169
244413
199868
197642
170833
188330
162054
139361
82969.8
44878.5
12398.7
-14052.7
-29793.5
-35784.9
-36920.5
-42977.4
-50372.9
-52894.3
918.825
43486.9
96594.1
126252
141554
96266.5
-21137.5
64690.4
-22140.2
108574
40304.9
12948.3
96839.1
153597
182568
179030
169689
170576
146240
153096
158755
159341
163434
209861
188212
225096
240288
250853
262707
258062
233892
171834
89557
60092.3
76016.7
35196.1
-56427.6
50643.7
578395
432223
411138
423724
414758
412306
436655
509843
596215
642467
726655
763167
774557
392051
52413.9
-72003
-131692
-107864
-45343
3381.05
39613.8
63623.7
75807.4
80544.3
98733.8
137451
176575
217748
200963
177397
147899
119089
108941
103198
120093
153002
164355
170642
136021
105552
104292
144153
89176.7
-20465.4
148523
63083
-34612.2
-21223.2
127540
133807
79093.8
9967.66
-11736.4
-24018.7
-20246.7
-6925.37
-8563.4
-11549.8
-21267.3
-24747.5
-45745.8
-38091.6
-52056.7
-52195.2
-54061.6
-58785.6
-52277.8
-52941.6
-47545.8
-24302.2
76041.2
210733
168858
-16437
-57634.9
-30510.7
-23256.1
-16791.3
-13493.1
-16440.5
-21897.4
-32279.7
-46321.8
-50730.3
-66262
-71248.6
-71786.8
-81852.9
-82551
-96168.9
-83541.6
-86547.6
-60097.2
-50011.1
-35021.4
-33095.9
-45578.3
-59181.8
-53532.7
-35498.1
10357.5
45206
70199.9
95002.1
-125374
-151486
-145805
-166153
-156381
-150365
-138638
-111236
-86102
-50766
-29297.1
-9547.93
-9542.95
-2320.71
-5289.9
-14688.2
6289.93
3756.57
8226.12
18795.5
10154.5
1147.16
-9806
-30903.4
-43710.3
-53041.7
-50802.9
-37932.7
-36324
-77310.4
-260125
-204887
-191568
-190122
-168218
-135742
-123444
-125056
-129390
-126556
-121701
-105890
-94840.4
-76994.2
-69154.7
-42125.4
-23062.7
2194.56
3354.83
4601.6
-10607.4
-8672.45
-13403.6
1863.21
25778.1
63731.9
91255.4
87041.5
52215.3
3582.15
-92197.9
-109954
-81564.6
-85171.5
-112887
-124034
-123016
-112673
-107072
-112416
-121025
-134582
-135684
-140056
-130357
-143003
-153819
-175231
-204648
-252784
-287805
-312577
-309618
-283998
-262218
-246096
-240002
-248228
-318640
-415969
-3489.13
-97555.6
-29672.9
-9777.08
7787.5
-30932
-36499.3
-37709.1
-6891.09
-16652.7
-14652.6
-37613.7
-29079.7
-30699.3
-13278.3
-35951.2
-75970.9
-135039
-165216
-147235
-93731.1
-77742.4
-53251.2
-40650.2
-52516.6
-85521.7
-55105.7
-34707.5
-36837.8
-52960.7
-119899
-228813
-206941
-178987
-141813
-140484
-131918
-101169
-122414
-96830.7
-104595
-114729
-82903.8
-33879.2
-38998.1
-43481.9
-40648.7
-20159.5
19086.2
60583.3
61909.6
27644.7
2456.78
15953.9
8115.64
35090.1
62502.5
46020.9
-28447.1
-64814.5
142431
173551
311278
350822
312224
265678
255192
221330
255242
253027
192831
216836
228118
142880
26047
-99161.3
-110826
-54743.4
-30395.3
-62705.1
-90718
-144647
-198897
-239336
-266204
-288622
-287000
-209319
-94761
-4373.72
181761
299359
318563
290165
228580
191550
196167
175401
115415
104200
78550.4
106395
82798.1
54032.9
7249.64
-70296.3
-121817
-173447
-188404
-198321
-201329
-202621
-190029
-173174
-130804
-73747.9
6652.88
49391.1
63304.6
76719.8
116811
271977
271071
253241
259616
187051
178902
151736
175612
159817
176049
151507
109909
54012.3
20910.8
3569.59
-8834.41
-3048.48
-530.083
-14531.9
-19115.6
-53070.9
-23810.3
21479.1
74050.6
111502
133486
114674
-14988.1
56989
-12976.8
101906
-12523.9
62671.3
139684
178868
197844
183292
157138
164899
149605
140605
142129
175544
151194
201421
201321
211199
235360
246332
253178
259911
248460
204875
98662.8
55755.8
58450.2
38953.3
-26062.1
90245.1
529857
413147
415259
454205
471481
499773
554973
633595
652431
636035
611338
709104
762092
427554
-64938.9
-98564.6
-114493
-77506
-41222
-17502.5
-615.825
5318.5
16099.3
31312.4
47044.9
74492.7
123830
184349
201428
194964
155508
144179
118032
128747
149864
165126
198763
186691
154920
116234
128200
142303
133837
29910.6
137735
61534.6
-29451.3
-29955.5
120011
131032
60006.9
8920.91
-17140.7
-26584.6
-26681.1
-26969.3
-22491.4
-26641.7
-28306.5
-22755.2
-29922.6
-30238
-53494.4
-55884.8
-66775.5
-60598.4
-56697.1
-52758
-49235.2
-28292.7
69898.2
217129
169162
-19590
-37128.1
-17674.8
-13991.1
-8300.81
-6806.55
-7271.85
-13587.7
-25350.3
-40082
-50290.3
-69789
-74959.5
-76271.9
-85273
-81549.5
-99766.9
-80280.9
-77572.9
-64544.1
-48476.4
-54353.9
-46043.9
-75389.3
-65434.1
-55222
-6200.03
17837.3
-47836.6
-9278.86
76499.5
-150073
-160256
-172779
-165647
-184935
-172275
-174917
-142328
-121825
-88963.4
-50349.6
-28113.7
-14998
-19604.4
-13280.5
735.131
-4407.51
3479.7
11718.8
5647.62
318.81
-4643.77
-19637.6
-25626.9
-33621.8
-41834.6
-41117.4
-23347.8
-35252.6
-87622.9
-246383
-188862
-183662
-171407
-134178
-111249
-108377
-114729
-117664
-120316
-106372
-97715.9
-79413.7
-74519.6
-54758.3
-41386.2
-14402.8
6010.22
14095
-4778.88
4305.17
12316.5
23160.2
27800.4
50382.3
77860.1
98171.1
79507.8
36574
-4174.04
-105275
-108036
-88894.9
-92164.1
-106840
-107317
-92791.8
-89299.9
-86932.5
-103897
-107908
-120398
-115181
-120166
-108039
-121238
-137462
-173259
-214914
-286242
-327036
-338760
-332905
-304599
-285591
-269514
-266980
-293665
-361303
-428357
-65841.6
-101204
-72661.9
-8831.06
-17183.1
-30740.1
-63083.1
-51286.4
-45530.8
-32943.1
-53023.4
-58855.9
-67500.5
-49089.5
-33443.9
-28920.7
-65264.9
-125634
-171721
-164379
-102271
-75488.2
-55827.3
-42189.4
-67252.2
-80900.3
-53533.7
-21323.7
-22858.7
-67996.2
-119812
-227576
-235373
-186998
-184957
-163123
-169888
-159962
-139394
-151484
-115955
-114991
-129061
-96158.8
-55603.2
-52973.8
-70838.2
-62331
-7131.26
51773
59013.8
23922
10865
-926.15
31393.7
101417
138228
115429
73387.6
-44844.4
123930
192294
357080
379535
327539
263837
246621
220673
233644
271028
179761
208830
193039
117911
-5693.83
-101383
-103283
-35572.3
-36566.9
-42449.8
-90400.3
-131111
-179162
-234119
-260662
-265444
-219114
-136982
-48818.6
20974.8
200177
298231
313200
262374
215276
182290
154856
160746
89491.5
89948.6
64265
91725
70377.3
45787.4
7540.87
-42278.2
-102159
-168579
-186819
-200078
-208978
-212138
-198437
-164708
-137155
-69491
5441.66
73776.6
68942.7
107889
142949
269046
254150
262954
195476
191229
135243
152666
133162
166306
162278
168424
136574
83066.8
47812.7
34806.5
24468.1
40624.6
47531.5
29523.4
16992.5
-24874.9
-33088.7
12536.5
66896.3
114592
129017
101624
-26062.5
8630.74
10607.9
91670.6
432.328
97757.2
165961
196158
189942
190417
153290
162742
130145
150220
144117
170671
161938
195605
205848
213503
229431
242633
247189
261157
256197
219427
104842
29815.3
22876.1
-4624.43
26703.8
65628.4
527332
395443
413771
473592
540363
618145
667414
607904
450623
371313
309337
455794
609523
456374
214045
83872.6
-59647.5
-112938
-88481.1
-77983
-56246.2
-49618
-38066.5
-32944.6
-25973.8
-21326.1
-10753.3
21712.7
61614.8
122441
176180
186273
186601
174520
166509
181424
179080
212260
209074
195636
154859
136233
133440
179033
173562
90410.2
68265.9
66428.8
90687.6
25960.5
-34933
-35390
90627.4
137845
56416.8
10106.8
-12700.8
-22488.6
-26177.4
-26814.5
-22399.6
-11475.6
-3384.61
9590.54
9259.29
5335.77
-24145.9
-45414.9
-57556
-68474.5
-62120.3
-54880.7
-48415.5
-24407.8
94618.1
209206
47994.1
-93908.4
-63285.8
-47006.5
-20296
-16587.1
-11940.9
-5108.31
-2946.01
-3134.33
-3883.56
-15131.9
-31071.4
-44925.1
-62419.6
-62648.2
-74434.7
-74810.9
-75770.3
-75039
-66994
-71427.6
-57431.1
-68652.4
-59626.8
-83375.2
-62980.9
-40459.6
-4613.56
-34327.2
-103035
-96177.3
-57348.6
-38618.8
-120768
-133164
-143412
-156780
-144735
-169225
-177321
-181400
-192207
-166262
-151497
-115177
-88968.4
-57571.6
-41559.3
-20663.4
-15902.2
-13286.9
-9707.06
2447.49
-6716.91
-5973.99
-6641.4
-17785.8
-19916.4
-22894.8
-30304.1
-32976.9
-24565.5
-19025.9
-41403
-83100.5
-126896
-177902
-220250
-173131
-169926
-143181
-105883
-95325.7
-100065
-103746
-108469
-104045
-100379
-83994
-79159.5
-57224.1
-41866
2426.34
26163.8
11806.9
5158.37
21796.9
38534.6
50003.5
50060.6
57431.4
79197.4
94361.3
93105.7
60394.2
18408.8
-14163.9
-70532.4
-108586
-102045
-109871
-92094.5
-103875
-105773
-91339.8
-80401.5
-73135.6
-65907.1
-75669.7
-80228.1
-91499.5
-93704.1
-93970.6
-87232.1
-97283.9
-117909
-171384
-216402
-303681
-355062
-384967
-371033
-359124
-345379
-335564
-340956
-372160
-405330
-389961
-197044
-113719
-80268.3
-144022
-92942.8
-49457.3
-23009.2
-50878
-68061.5
-85906.1
-79009.1
-72838
-67187.8
-81513.6
-81265.6
-71195.7
-46402.3
-35359.8
-67207.8
-122284
-176834
-181809
-111195
-74631.5
-56315.3
-45405.6
-82946.8
-73223.9
-30820.3
-33711.9
-32226.9
-57413.4
-128066
-108711
-97103.9
-162109
-242544
-208892
-177968
-188115
-166768
-168064
-156995
-147348
-169159
-143149
-130903
-94301.3
-90379.8
-76904.9
-65908.9
-62345.1
-32897.5
18877.2
34443.3
11681.3
-3048.44
-13638.4
69305
129000
114744
106493
90772
76977.5
-41453.4
66016.9
184298
226210
336757
371644
331310
283957
250258
236302
252622
258992
169020
204105
193975
105987
-21644.8
-99892
-110117
-48164.5
-21423.2
-23793.2
-55779.4
-76583
-86270.3
-105160
-124712
-121229
-78101.4
-32607.5
18415
42822.5
-17912.8
-13314.5
108573
233591
272450
247554
193691
158579
150477
103579
71551.6
56727.3
64837
74649.7
46833.8
44940.5
26463.2
-9975.42
-69607.1
-131866
-160131
-202017
-199214
-206109
-190358
-157005
-127343
-67059.4
37969.1
63711.8
100675
90256
45433.9
-56192.3
103897
222782
254892
203311
192699
120500
131766
107029
132285
140506
163586
178294
160540
99437.6
57623
51091.5
39554.7
41053.6
59157.4
49864.4
22866.4
-20595.3
-20013.3
33204.1
86562.2
111990
109789
56157
-50460.1
-33301.7
-53030.8
-42530.7
29193.4
60628.3
42129.5
130212
186032
197668
196335
183819
168222
147247
130728
142726
134997
173102
155535
199880
200513
218934
232108
233999
244843
260801
253353
241287
142808
40757.2
23201.7
-10385.3
-27908
18898.8
235360
240822
476960
376612
384343
469666
560691
662707
715138
649667
426412
217006
100986
177497
328480
411287
186116
-11716.4
-116526
-113647
-107264
-76070.6
-71665.5
-64618.6
-52100.9
-42719.3
-35620
-31744.9
-29224.9
-30095.6
-3564.49
46410.3
112276
170700
187576
193116
201315
195362
221711
219548
217292
195717
178579
161351
179957
189378
199469
154654
105941
83874.2
91774.3
46247.3
-3660.32
-29721.1
53287.5
139638
62461.9
16666
-8282.83
-18175.4
-20883.5
-18631
-19883.7
-15829.4
-1303.62
20887.3
36113.9
39433.9
-6715.75
-47894.5
-57889
-69570.6
-62259.8
-56535
-42656.9
13834.9
149514
121988
-61676.8
-80464.5
-42671.9
-29776.4
-17921.2
-22367.5
-16152.6
-5774.4
-1572.52
-1972.29
872.031
-4696.2
-20198.5
-35227
-45077.5
-66135.8
-75149.4
-76416.8
-68228.3
-78430.8
-65302.6
-76570
-66407.8
-84362.1
-80987.7
-69261.4
-41403.1
-2782.52
-29733.3
-83520.8
-114071
-121972
-124859
-120880
-147800
-138823
-127728
-129662
-133621
-150509
-175477
-172971
-198297
-172623
-160569
-128710
-106525
-88082.9
-63562.1
-51392.6
-39861.4
-24082.6
-14795.8
-18877.8
-8926.2
-6533.02
-11945.6
-9440.36
-10215.6
-14362.8
-13478.9
-11488.3
-10001.8
-19799.8
-56007.1
-115844
-178312
-187170
-186560
-156467
-146838
-111307
-86301.2
-88029.4
-95842.6
-105038
-100560
-98668.2
-84650.9
-83493.5
-63817
-59341.4
-31490.6
-1219.37
29448.1
57967.7
50524.1
36187.5
44326.7
58691
78512.6
87659.7
97795.3
100881
74187
39150.4
6247.45
-33734.1
-94437.6
-109168
-102796
-98373.2
-87602.3
-90818.3
-89320.3
-74638.3
-51155
-59095.3
-63218.9
-71907.9
-71268.5
-83396.1
-74886.4
-82297.2
-68146.2
-79794.2
-95972.2
-172347
-196516
-299826
-372968
-408677
-406292
-399522
-385013
-383587
-392078
-407921
-420624
-396648
-287177
-142108
-102773
-135382
-146826
-64304.6
-47081.6
-44558.8
-82317.9
-95096.9
-106424
-101714
-99237
-102790
-94312.7
-75566.2
-54595.8
-45389.7
-78255.6
-132497
-184615
-191544
-116932
-66742.8
-59526.3
-45150
-90193.2
-67711.9
-40545
-17142.3
-35840.1
-47163.2
-95518.6
-92364.9
-69992.5
-106869
-226761
-226094
-204721
-187136
-195261
-179690
-176219
-179212
-165134
-161444