/*--------------------------------*- C++ -*----------------------------------*\
| =========                 |                                                 |
| \\      /  F ield         | OpenFOAM: The Open Source CFD Toolbox           |
|  \\    /   O peration     | Version:  2.1.1                                 |
|   \\  /    A nd           | Web:      www.OpenFOAM.org                      |
|    \\/     M anipulation  |                                                 |
\*---------------------------------------------------------------------------*/
FoamFile
{
    version     2.0;
    format      ascii;
    class       volScalarField;
    location    "0.004150000";
    object      rhoUnburned;
}
// * * * * * * * * * * * * * * * * * * * * * * * * * * * * * * * * * * * * * //

dimensions      [1 -3 0 0 0 0 0];

internalField   nonuniform List<scalar> 
12384
(
1.72233
1.74401
1.77618
1.79309
1.81625
1.79397
1.81236
1.70675
1.67499
1.5561
1.66734
1.96858
3.26961
6.18482
7.18985
4.77353
4.16028
3.96051
3.9212
3.93514
3.87765
3.81898
3.73445
3.64366
3.5402
3.45071
3.38909
3.3419
3.3065
3.25641
3.24279
3.1909
3.17379
3.11062
3.01908
3.09641
3.62312
4.06995
3.76446
3.66685
3.9857
5.14369
6.13288
6.15319
4.00578
3.8171
3.73323
3.71815
3.71865
3.70377
3.76851
3.74711
3.85958
3.90466
4.06967
4.19769
4.29539
4.39218
4.38102
4.3976
4.4078
4.4337
4.51263
4.78741
4.99182
4.33964
3.28747
2.70859
2.69873
2.78735
3.10826
3.8837
5.18904
6.35034
6.28818
6.2967
6.43853
6.4994
6.66371
6.68668
6.76705
6.82323
6.83331
6.83689
6.81415
6.80904
6.79834
6.71346
6.98516
6.76406
7.05959
7.18265
6.44566
5.9976
6.10709
5.8961
5.93722
5.20971
4.96493
4.80122
4.73989
4.6756
4.64347
4.63522
5.02601
4.86442
4.90755
5.0615
5.25459
5.47191
5.66964
5.57477
5.20167
5.48875
4.96588
5.03634
5.05167
4.91318
5.10383
4.9416
5.29328
5.1685
5.48228
5.4782
5.53652
5.47116
5.72759
5.86036
5.78197
5.23864
5.57611
5.75263
5.76628
5.83528
5.49474
5.34332
4.94612
5.14841
5.03878
5.54363
5.41766
6.04909
6.03164
6.44952
6.45853
6.71065
6.66314
6.51706
5.99395
5.89718
5.63165
5.60294
5.66144
5.76924
5.90628
5.87793
5.76191
5.56565
5.43032
5.2333
5.11305
5.26564
5.59378
5.336
6.37586
6.65606
7.3107
7.36181
7.24261
6.15472
5.67692
5.69447
5.80547
6.16497
6.23419
6.46739
6.51265
6.52569
6.21685
6.43544
6.38853
6.4784
6.62201
6.78171
6.88589
6.85493
6.71743
6.4551
6.26199
5.97897
5.9634
5.673
5.97138
6.43258
4.98369
5.27854
5.93026
6.90096
6.48458
4.13249
3.95128
4.05073
4.0633
4.07346
4.07739
4.17991
4.12258
4.26001
4.1246
4.16053
4.1058
4.10502
4.10615
4.14724
4.20156
4.25296
4.33725
4.3772
4.38557
4.41309
4.3679
4.44629
4.42311
4.79862
5.18591
5.0946
5.36278
6.907
7.14312
5.41383
4.29047
4.1946
4.26522
4.29671
4.3653
4.36696
4.39782
4.36106
4.312
4.3
4.30149
4.29037
4.29654
4.30493
4.33485
4.37388
4.44734
4.54731
4.83726
5.64382
6.73784
6.4961
5.94665
6.30488
4.69583
4.7187
4.76706
3.81414
3.28083
3.48697
3.55388
3.59896
3.59088
3.57176
3.5531
3.53812
3.52395
3.50965
3.54062
3.45362
3.6089
3.48582
3.71576
3.69779
3.85036
3.9865
4.08579
4.29493
4.35229
4.53682
4.56703
4.70839
4.7269
4.5696
7.31369
5.78107
4.37325
4.15148
4.25383
4.27158
4.31047
4.3894
4.43423
4.50117
4.55115
4.61225
4.67849
4.73492
4.82067
4.8829
4.95961
5.0782
5.32048
5.54339
6.02776
6.12413
6.2069
6.55992
5.59585
5.61188
5.26596
5.36468
5.60149
5.93943
10.246
7.96319
4.50528
4.40891
4.55251
4.48704
4.47751
4.44834
4.51625
4.48051
4.57007
4.58854
4.68984
4.66477
4.79231
4.76212
4.81513
4.91758
4.83204
4.91594
4.84378
4.8521
5.00057
5.89489
7.93412
7.17843
6.52314
6.44732
6.65721
6.72756
9.87291
7.42005
6.06333
5.87914
5.93136
6.06533
6.56417
6.80266
7.39051
7.48696
7.91534
8.16138
8.34542
8.31506
8.3487
8.0145
7.47246
7.33908
7.08818
7.04498
7.06763
7.00086
7.0751
7.27792
6.726
7.32927
6.96985
7.23905
7.41042
7.49101
1.83601
1.85269
1.88647
1.921
1.9645
2.00712
2.04638
2.0427
1.95151
1.73392
1.64062
1.74436
2.58231
5.03541
7.08421
4.01188
4.06683
4.61344
5.39186
5.96363
5.99131
5.64805
5.18367
4.76013
4.36412
4.08107
3.8813
3.74399
3.64729
3.5565
3.48285
3.39014
3.29343
3.21391
3.09781
3.07718
3.26439
3.75745
3.89936
3.75212
3.73504
4.53037
5.75583
6.26263
3.95363
3.59925
3.93305
3.96956
3.79369
3.6034
3.46894
3.40486
3.4506
3.50309
3.6508
3.84441
4.03747
4.23684
4.39068
4.47535
4.50917
4.53583
4.60219
4.73853
4.92591
4.95907
4.57168
3.6835
2.94386
2.60712
2.63973
3.04919
4.41818
6.22199
6.26952
6.38412
6.40032
6.37656
6.43725
6.28098
6.08407
5.98193
5.89999
5.94256
5.98726
6.13655
6.23508
6.26918
6.42537
6.26203
6.21154
6.0962
5.88256
5.87764
5.86452
5.89809
6.02206
5.66118
5.2861
4.82176
4.67632
4.60074
4.58572
4.58459
5.00563
5.56202
6.07987
6.30204
6.38157
6.27727
5.79457
5.97741
5.40405
5.39693
5.25501
5.06711
5.04111
4.99648
5.10681
4.96353
5.27754
5.18878
5.25671
5.13701
5.0942
5.08969
5.30888
5.66033
5.74806
5.38312
5.24474
5.33884
5.70376
6.03303
5.47812
5.15576
5.00225
5.13766
5.19613
5.7165
5.74846
6.24558
6.30995
6.47917
6.48173
6.41179
6.22847
5.71035
5.525
5.13265
5.0941
4.9465
4.98527
4.95164
4.97861
4.85198
4.77526
4.64256
4.50702
4.4929
4.62308
4.86221
5.27064
5.31459
6.18791
6.72167
7.36704
7.29231
6.35887
5.61753
5.64578
6.1646
6.75278
6.93262
7.08177
7.16913
6.95325
7.10561
6.75327
6.81605
6.81588
6.86312
6.95572
7.13749
7.23731
7.24565
7.06364
6.82113
6.52414
6.19226
6.04114
5.76071
5.90521
6.4311
4.91733
5.52763
6.60661
7.12072
4.86509
4.17834
4.23165
4.45607
4.69713
4.82115
4.98652
5.2313
5.3707
5.45578
5.37723
5.20601
4.90575
4.64873
4.44188
4.38409
4.46942
4.62186
4.82403
4.87705
4.81345
4.68702
4.56418
4.39545
4.43357
4.82262
5.09877
5.5443
7.69986
6.60259
5.47914
4.55292
4.49002
4.4387
4.50181
4.65789
4.66538
4.67361
4.66857
4.59016
4.52303
4.44608
4.382
4.34241
4.3286
4.3597
4.40261
4.45575
4.51088
4.55674
4.53399
4.52643
5.15864
6.59629
6.48338
6.19276
4.72186
4.81361
4.67004
3.59825
3.3413
3.50306
3.63884
3.80456
3.8619
3.87255
3.83438
3.80267
3.74644
3.67631
3.68875
3.60598
3.74776
3.85982
4.04503
4.38736
4.49247
4.95054
4.70099
4.95365
4.68656
4.80974
4.6717
4.77182
4.80325
4.55836
6.4067
5.27738
4.20136
4.10484
4.04355
4.01446
4.13244
4.23515
4.3055
4.31886
4.34361
4.39167
4.48468
4.62873
4.7577
4.85614
4.94924
5.26087
5.74404
6.35342
6.70333
6.99565
6.86235
6.86214
6.95916
6.36195
5.84561
5.64981
5.63425
5.84033
8.77029
5.92147
4.48095
4.48241
4.44943
4.30697
4.22136
4.17782
4.19045
4.20867
4.27883
4.36114
4.40065
4.52351
4.53094
4.63658
4.66096
4.69074
4.6327
4.54771
4.47341
4.24573
4.20564
4.39145
5.50235
6.89898
7.43056
6.60277
6.249
6.48396
9.37652
6.66334
5.93267
5.94555
6.17778
6.60633
7.52605
7.59064
6.8378
5.94451
5.19637
4.54596
4.09607
3.71056
3.64485
3.52351
3.51779
3.50534
3.50845
3.5903
3.67774
3.79467
4.01352
4.38349
5.07926
8.04598
7.13133
7.0689
7.03461
7.19221
1.90335
1.97687
2.05563
2.06156
2.05602
2.02742
2.06171
2.10051
2.13492
1.96269
1.70144
1.61935
2.16141
4.19944
5.40754
4.01151
4.92475
7.08442
7.0878
7.04448
7.06728
7.01375
5.88867
5.04518
4.46313
4.09106
3.85493
3.70652
3.6328
3.58433
3.54683
3.55292
3.48101
3.39851
3.22515
3.12207
3.12237
3.42915
3.8009
3.85822
3.62249
4.04306
5.21076
5.95464
3.79983
4.15842
4.97381
4.87213
4.22163
3.73904
3.50036
3.4276
3.50358
3.66657
3.91077
4.17269
4.37574
4.53338
4.61475
4.63568
4.65098
4.66651
4.74281
4.87977
5.01468
5.20897
5.18433
4.81363
3.77941
2.94817
2.49702
2.60755
3.64047
5.81885
6.58129
6.42739
6.32066
5.9257
5.66476
5.57083
5.5384
5.59676
5.67378
5.71488
5.81103
5.84383
5.91172
5.9574
5.8396
5.88481
5.68172
5.67542
5.5451
5.50232
5.62027
5.7146
6.05482
6.04238
5.73743
5.08082
4.72408
4.58568
4.56802
4.62158
6.92005
6.90967
6.70783
6.69394
6.30296
5.82214
5.79346
5.2525
5.34755
5.02835
5.09944
5.16907
4.97645
5.02778
5.11195
5.03565
5.22306
5.17279
4.86557
4.78512
4.66752
4.66597
4.87377
5.27831
5.62766
5.49962
5.09506
5.00296
5.25637
5.88291
5.48437
5.18772
5.04368
5.32957
5.41798
5.98791
5.93325
6.27039
6.10389
6.22768
6.16854
6.17685
6.02145
5.6538
5.55741
5.2982
5.0568
5.02186
4.91876
4.85093
4.74137
4.61343
4.44772
4.27888
4.14046
4.04582
4.13524
4.44475
4.91292
5.10802
5.86821
6.74885
7.3219
6.78162
5.60813
5.62747
6.34629
6.92598
7.23369
7.43936
7.46379
7.50699
7.15357
7.07997
6.81308
6.8527
6.70447
6.77437
6.91166
7.00141
7.175
7.20788
7.11971
6.93974
6.64483
6.39522
6.15627
5.85343
5.88557
6.34626
5.05284
6.0086
7.00626
5.79733
4.39616
4.30134
4.61204
5.04154
5.20295
5.25986
5.25697
5.40984
5.77054
6.19363
6.42873
6.37641
6.36598
5.82821
5.24479
4.87694
4.7804
5.09905
5.31296
5.13381
4.93583
4.91235
4.78862
4.54698
4.45631
4.86791
5.18961
7.03988
6.63341
5.94574
5.04885
4.77275
4.71901
4.92313
4.853
4.93109
5.01647
4.9233
4.83611
4.74475
4.67722
4.60309
4.48257
4.37857
4.33241
4.33207
4.37246
4.5037
4.65986
4.85032
4.91243
4.64243
4.56238
5.34884
7.22951
6.18097
4.79639
4.88869
4.39348
3.45007
3.36319
3.55022
3.73196
3.90447
4.02264
4.05037
4.04393
3.98855
3.95943
3.86186
3.93721
4.01993
4.43416
5.14721
6.06923
7.19837
7.52141
6.80564
6.90458
6.22072
6.26375
5.83937
5.61647
5.20314
4.99016
4.62873
6.02974
4.64309
4.11677
4.00311
3.92749
4.01716
4.21098
4.42479
4.60854
4.68656
4.57985
4.4599
4.47136
4.64807
4.88651
5.14215
5.62413
6.67297
7.99342
7.70405
7.37956
7.50281
7.35064
7.30292
8.08459
8.0913
7.05781
6.30034
5.87534
5.89959
7.92882
4.91951
4.47517
4.40908
4.22164
4.08052
3.99862
4.00472
4.00417
4.10315
4.18561
4.36902
4.4947
4.71144
4.84913
5.0908
5.13288
5.25278
5.05402
4.86666
4.66492
4.2558
4.11029
3.86432
4.05598
4.42563
5.79143
7.2982
6.31181
6.3799
8.70533
6.27314
5.89203
6.14136
6.84408
6.86429
5.81321
4.76541
4.12955
3.73258
3.49354
3.38966
3.37002
3.33108
3.35741
3.30586
3.27942
3.23264
3.20224
3.19575
3.24554
3.36402
3.5527
3.90872
4.06448
4.452
6.12283
7.61237
6.75975
6.65316
2.03896
2.30074
2.49636
2.5224
2.48945
2.33745
2.1998
2.14904
2.17655
2.08164
1.80789
1.59218
1.95323
3.73909
3.73649
4.03946
6.06132
7.08576
7.07024
7.07502
6.71006
5.31476
4.48984
3.94571
3.5894
3.37742
3.20614
3.08112
3.04211
3.08192
3.19433
3.35216
3.43778
3.50036
3.35089
3.20162
3.09963
3.24042
3.61265
3.87035
3.61713
3.72226
4.69865
5.99457
3.69442
4.72177
5.69493
5.29167
4.16304
3.62431
3.55812
3.63727
3.86406
4.19816
4.5248
4.81774
4.90682
4.90787
4.83007
4.76725
4.75642
4.78086
4.91815
5.09185
5.23756
5.38004
5.44093
5.42077
4.65997
3.53596
2.66592
2.46156
3.14616
5.4972
6.58948
6.12424
5.56627
5.53412
5.56588
5.57715
5.5995
5.61695
5.68915
5.75594
5.78111
5.87316
5.95336
5.87411
5.96784
5.70105
5.71991
5.46061
5.50086
5.34194
5.54531
5.61864
5.93866
6.27223
6.09114
5.42654
4.90992
4.65351
4.52205
4.59931
6.97181
6.92303
6.79131
6.40933
5.71391
5.23543
4.80549
4.40392
4.25604
4.00423
4.04597
4.03537
4.21385
4.3573
4.49953
4.77809
4.73931
4.6363
4.56986
4.40697
4.33637
4.41731
4.5271
4.80575
5.26854
5.49632
5.2977
4.94377
5.03241
5.76308
5.32774
5.0434
5.05391
5.50254
5.70014
5.94991
6.0203
5.96455
5.96683
5.91246
5.9999
5.96307
6.0196
6.01887
5.65643
5.38875
5.11552
4.80904
4.66775
4.47631
4.34975
4.22453
4.10813
4.02109
3.91761
3.79126
3.81688
4.09134
4.58442
4.93754
5.7475
6.83762
7.13913
5.9417
5.44544
6.04087
6.90132
7.29636
7.51467
7.3237
7.25783
7.30966
7.0159
7.02428
6.64859
6.68054
6.71137
6.64087
6.74916
6.90875
6.97169
7.05461
7.01526
6.84181
6.64479
6.46369
6.2186
5.90894
5.89316
6.35404
5.1419
6.24428
6.32321
4.91113
4.39928
4.46137
4.96418
5.10984
4.88984
4.48033
4.36675
4.48537
4.73854
5.17278
5.91417
6.15593
6.18227
6.28643
6.17851
5.53875
5.15832
5.35213
5.52527
5.18543
5.03808
5.01478
5.10375
4.56772
4.48876
5.01754
5.65475
6.86671
6.01614
5.59895
4.98806
5.22811
5.18558
5.09526
5.28014
5.02963
5.00328
4.99195
4.84006
4.75202
4.74886
4.76938
4.71959
4.54527
4.3792
4.30283
4.35775
4.4957
4.68055
4.89786
5.19158
5.07582
4.57399
4.67864
6.15264
6.38833
4.8492
4.9256
4.04735
3.39802
3.3416
3.47288
3.56601
3.63897
3.79659
4.01871
4.13971
4.14041
4.06862
4.02931
4.17259
4.69073
5.93918
8.0447
8.41151
7.90799
7.9249
7.66469
7.2332
7.12237
6.52231
6.25189
5.86195
5.79563
5.37466
4.64958
5.88192
4.37809
4.03809
3.86458
3.76707
3.85988
4.09217
4.44728
4.7981
5.0558
5.00593
4.61864
4.51818
4.73302
5.14913
5.75554
7.15467
8.4035
8.48697
7.82402
7.97848
7.38216
7.3408
7.61869
7.94612
7.52766
7.26658
7.161
6.3634
6.09924
7.28374
4.64487
4.42133
4.24258
4.03648
3.95807
3.95203
4.00794
4.0327
4.09783
4.27366
4.51402
4.91397
5.31766
5.71271
6.12763
6.22213
6.48381
6.21147
5.97434
5.41986
4.713
4.2874
3.88744
3.67791
3.63739
4.12829
5.41275
6.7054
6.11643
8.2138
6.09732
5.90187
6.5912
6.45449
5.12633
4.21064
3.6768
3.44598
3.42721
3.44848
3.504
3.55836
3.58976
3.54208
3.54261
3.46416
3.3973
3.30271
3.20007
3.15892
3.23059
3.45957
4.02594
4.44493
4.49727
4.69686
6.8673
6.99451
6.36857
2.25844
2.71935
2.93277
2.96263
2.93785
2.80923
2.58971
2.35079
2.23296
2.12985
1.88482
1.59553
1.81765
3.39436
3.34253
4.20057
7.04614
7.09142
7.07852
6.29249
4.7936
4.02497
3.57037
3.32674
3.12391
2.89393
2.6924
2.53758
2.50559
2.57871
2.76053
3.05733
3.27484
3.50449
3.41323
3.26425
3.10865
3.15288
3.47017
3.78835
3.64984
3.58236
4.38936
5.56771
3.6529
4.70933
5.95669
5.49017
4.01902
3.62099
3.73527
4.08396
4.48657
4.86188
5.08095
5.07193
4.96094
4.82456
4.77158
4.74794
4.80293
4.91566
5.1528
5.34169
5.6142
5.63892
5.69594
5.65563
5.31748
4.21457
3.02632
2.45033
2.86799
5.12458
6.41775
5.3684
5.37801
5.47082
5.50549
5.50825
5.56468
5.60687
5.67243
5.70933
5.6917
5.68912
5.71745
5.83141
5.7916
5.83857
5.74421
5.60183
5.52466
5.32022
5.55071
5.53124
5.99928
6.26774
6.29963
5.71856
5.22316
4.87303
4.55152
4.51663
7.22548
6.87726
6.75355
6.36619
5.99504
5.68239
5.14364
4.70634
4.22278
3.78652
3.69161
3.5844
3.67643
3.76797
3.98657
4.17463
4.16732
4.29287
4.1426
4.12922
4.08738
4.08971
4.29121
4.66695
5.07598
5.31025
5.22497
4.92318
4.90726
5.55709
5.5798
5.2915
5.43999
5.61772
5.83494
5.99618
5.80731
5.86779
5.8281
5.91447
5.89233
5.96763
5.91689
5.91768
5.62007
5.15613
4.90656
4.57172
4.28411
4.15374
4.0952
4.04546
4.04545
3.94515
3.83123
3.6991
3.62469
3.86951
4.38739
4.86597
5.76318
6.77481
6.27144
5.47294
5.64345
6.69572
7.1089
7.41401
7.32969
7.09705
7.19056
7.16087
6.84125
6.96704
6.674
6.79845
6.68634
6.80019
6.75554
6.82876
6.93206
6.91746
6.80915
6.63095
6.60169
6.34669
6.27023
5.98456
5.90841
6.35308
5.29689
6.5513
5.5356
4.71025
4.37146
4.69998
4.99916
4.78704
4.24848
3.9918
3.87065
3.8793
3.97773
4.30553
4.80989
5.70341
5.99542
6.06951
6.19355
6.05788
5.43115
5.69209
5.54114
5.23865
5.08623
5.26198
5.2801
4.60147
4.46368
5.11457
5.93784
6.51266
5.70893
5.5139
5.55925
5.35717
5.68272
5.504
5.26369
5.28052
4.78372
4.64149
4.64037
4.62932
4.69349
4.83856
4.99107
4.94144
4.67957
4.48131
4.44275
4.5422
4.73561
5.01049
5.29879
5.29243
4.94591
4.70649
5.4717
7.03374
4.98219
4.86279
3.74227
3.30536
3.24688
3.29058
3.21199
3.24078
3.42619
3.77019
4.14657
4.22968
4.24602
4.19203
4.55561
5.90101
8.42959
8.39387
8.82239
7.91394
8.13851
7.42313
7.60343
7.15727
7.10327
6.53932
6.12212
5.78988
5.88019
4.81168
5.90402
4.28969
3.97193
3.72964
3.60396
3.60445
3.79203
4.28052
4.86181
5.23034
5.35016
4.74829
4.58184
4.90959
5.47622
6.66678
8.58143
8.55172
8.52082
7.67107
8.0711
7.02922
7.39432
7.38378
7.65193
7.08615
6.87728
7.23076
6.98694
6.45626
6.78585
4.56654
4.35421
4.0964
3.94887
3.93775
4.01294
4.06079
4.08562
4.15714
4.25493
4.62692
5.13572
5.7629
6.2105
6.65093
6.687
6.94678
6.81815
6.94726
6.23802
5.62584
4.73234
4.12767
3.71969
3.48883
3.58111
4.31821
6.88746
6.06786
7.94682
6.00784
6.09065
6.82844
5.12527
4.10924
3.58722
3.40719
3.398
3.5448
3.62764
3.69765
3.71513
3.7532
3.65088
3.64886
3.60369
3.53611
3.46355
3.34976
3.19744
3.14203
3.30942
3.9106
4.65733
4.9342
4.57227
5.38944
7.11925
6.1148
2.42614
2.9975
3.07944
3.05583
3.02955
2.99011
2.83583
2.5267
2.30953
2.12768
1.86523
1.57158
1.68348
3.02229
3.48817
4.96134
7.07448
7.05904
6.65641
4.92514
4.08033
3.67676
3.47482
3.29025
3.06612
2.77503
2.47981
2.36131
2.37884
2.50187
2.73047
3.01183
3.26296
3.46928
3.41406
3.2919
3.09734
3.11317
3.3341
3.72201
3.66222
3.49564
4.05453
5.30535
3.63365
4.55086
6.0243
5.63102
3.94807
3.67676
4.04451
4.61792
5.07536
5.31761
5.17537
5.02637
4.84401
4.80669
4.7925
4.92193
5.09435
5.31431
5.67128
5.86621
6.1366
6.06483
5.99072
5.89651
5.64025
4.81094
3.40151
2.5119
2.77971
5.00733
5.58121
5.13472
5.29313
5.35258
5.40908
5.49451
5.53359
5.61577
5.62986
5.59589
5.57386
5.53774
5.5338
5.48431
5.80042
5.64129
5.92868
5.53823
5.78706
5.25349
5.77355
5.54426
6.19663
6.43985
6.43039
5.94321
5.51388
5.01094
4.63233
4.44306
7.09316
7.16135
6.78783
6.74977
6.45137
6.35505
5.93212
5.47872
4.56499
3.93767
3.64262
3.4664
3.41517
3.51036
3.61123
3.77586
3.90092
3.91219
3.9144
3.9101
3.85777
3.9697
4.15411
4.39171
4.76556
5.15075
5.15813
4.90935
4.8133
5.62014
5.34542
5.20041
5.43646
5.7308
5.96344
5.77068
5.81181
5.7891
5.90912
5.91759
6.0075
5.93768
5.98926
5.8748
5.44295
5.1139
4.72186
4.45305
4.20591
4.12072
4.09168
4.04178
3.93608
3.90638
3.79627
3.64408
3.54666
3.77791
4.3253
4.86097
5.74806
6.78959
6.23414
5.56
5.99681
6.84571
7.15773
7.27196
6.97982
6.81472
6.84697
6.97748
6.83643
6.7974
6.8063
6.75458
6.8614
6.81918
6.8905
6.81198
6.81101
6.69401
6.50643
6.47437
6.29145
6.37603
6.1642
5.99181
5.98801
6.45912
5.63753
6.34588
5.28657
4.51341
4.50852
4.77745
5.02628
4.58116
4.01694
3.65237
3.64584
3.7114
3.84458
3.91925
4.26309
4.90451
5.7237
6.08653
6.14297
6.14216
5.76884
5.74667
5.60612
5.25365
5.2586
5.51328
5.07918
4.4115
4.43291
5.15297
6.68483
5.88382
5.0194
5.12134
5.16871
5.43325
5.7941
5.72263
5.50834
5.13732
5.05835
4.60113
4.42176
4.55111
4.78347
4.93878
5.19587
5.34116
5.14514
4.75267
4.53049
4.60655
4.90747
5.2361
5.46795
5.54521
5.61534
5.32482
5.41929
7.46649
5.08607
4.97837
3.7193
3.27939
3.17047
3.06032
2.95993
2.98623
3.1364
3.48878
4.13373
4.35222
4.32843
4.40298
5.1477
7.39871
8.49691
8.72747
7.61561
7.55388
7.48303
7.55454
7.08427
7.25986
6.93963
6.79515
6.20326
5.88683
5.88996
4.65171
6.07057
4.3105
3.92898
3.65137
3.51193
3.50673
3.60454
4.05608
4.9198
5.36482
5.55116
4.78259
4.6773
5.09212
5.7855
7.59346
8.44638
8.46903
8.2033
7.61296
7.57557
6.87407
7.03158
6.92838
7.18239
7.11906
6.74225
7.15205
7.73451
6.97783
6.55938
4.56339
4.28737
4.06735
3.92354
3.99747
4.08552
4.16036
4.20667
4.18214
4.26169
4.51847
5.14386
5.87668
6.42683
6.73533
6.7402
6.65034
6.46276
6.49578
6.63061
6.38878
5.35197
4.52418
3.92062
3.56357
3.40324
3.8124
5.95069
6.06084
7.69632
5.98097
6.32697
5.75961
4.27138
3.6427
3.40247
3.42851
3.52803
3.67113
3.76967
3.80696
3.78405
3.77275
3.75459
3.65264
3.63615
3.58049
3.54001
3.48401
3.34288
3.16194
3.2024
3.72019
4.80647
5.25338
4.81456
5.01787
7.07121
6.06932
2.5393
3.09477
3.07427
2.95143
2.9062
2.89582
2.75982
2.48721
2.16783
1.91961
1.72363
1.55271
1.58648
2.62965
4.07701
6.2928
7.20488
7.18162
5.59734
4.67902
4.19341
3.937
3.81574
3.6787
3.41833
3.02601
2.64522
2.38498
2.42218
2.56273
2.83484
3.08654
3.27655
3.40593
3.36882
3.22299
3.06755
3.0393
3.25499
3.58589
3.61064
3.41313
3.83781
5.09256
3.76028
4.50091
5.97036
5.78823
3.91176
3.7549
4.35125
5.01442
5.33079
5.43157
5.33647
5.14486
5.17988
5.23435
5.37737
5.45953
5.74602
5.71695
5.98159
6.06491
6.14919
6.23574
6.04802
5.9766
5.74944
5.16963
3.68194
2.56014
2.77633
4.81607
5.22749
5.03924
5.1427
5.24478
5.37086
5.51933
5.59373
5.70435
5.79714
5.75119
5.74296
5.64875
5.49936
5.53937
5.64415
5.86252
5.80917
5.77537
5.72432
5.49312
5.83917
5.88163
6.53577
6.72697
6.4982
6.03774
5.27289
4.91398
4.68986
4.46697
7.44294
7.05509
6.99975
6.70295
6.36765
6.47967
5.87876
6.10717
5.31709
4.47146
3.77518
3.53987
3.48298
3.4461
3.54017
3.70454
3.6608
3.74178
3.75347
3.73893
3.84029
3.99282
4.2068
4.52951
4.79301
5.0183
5.03149
4.82472
4.76671
5.55369
5.81232
5.64418
5.85707
5.96659
5.84712
5.80372
5.79433
5.88517
5.94055
6.04712
6.02668
6.09063
5.97728
5.80552
5.50971
4.97746
4.62613
4.33445
4.2577
4.19956
4.20094
4.05084
3.99909
3.88705
3.75946
3.55692
3.50893
3.80248
4.38133
4.90222
5.99102
6.71318
5.64453
5.54541
6.27729
6.72619
6.84448
6.56352
6.37978
6.45548
6.61948
6.77141
6.71993
6.6263
6.67326
6.74424
6.88823
6.98279
6.88738
6.8948
6.62641
6.5425
6.23919
6.15407
6.14316
6.1657
6.07189
6.01237
6.10016
6.56285
5.56351
6.74637
5.09299
4.62795
4.52316
5.01437
4.98009
4.57363
3.88311
3.70007
3.71031
3.86235
3.95989
4.00882
4.03627
4.45049
5.62015
5.95227
6.2233
6.13878
5.9446
5.81338
5.64833
5.34709
5.4416
5.87503
4.70425
4.21393
4.44532
5.14107
6.67038
6.05586
5.24751
4.92942
5.28297
5.2903
5.47807
5.86288
5.47802
5.34635
5.22955
5.32857
4.95299
4.64641
4.96538
5.41028
5.78961
5.93037
5.5736
4.98426
4.69823
4.75967
5.05977
5.42116
5.90041
5.52075
5.13015
5.2005
5.86324
7.09139
5.16149
4.88857
3.54072
3.22165
3.02225
2.91988
2.85401
2.8646
3.05034
3.28952
4.12125
4.44424
4.46239
4.58466
5.60013
8.05692
8.80515
8.31072
7.49107
7.49514
7.68643
7.00546
7.18135
6.82905
6.95012
6.55341
6.27942
5.87747
6.06834
4.68905
6.1486
4.38677
3.921
3.62093
3.50891
3.49942
3.57247
3.99014
5.01455
5.53065
5.63517
4.74709
4.77435
5.21748
6.07362
7.99917
8.40824
7.96091
7.84731
7.36352
7.23236
6.4995
6.62054
6.45642
6.7227
7.04597
6.88891
7.29171
7.6717
7.40759
6.55211
4.60508
4.32274
4.01544
3.9576
4.0674
4.15965
4.24822
4.27577
4.29911
4.26462
4.40752
4.96583
5.90277
6.60635
6.75269
6.74943
6.3415
6.07818
6.10494
6.27166
6.7538
5.98889
4.97632
4.19265
3.66314
3.38974
3.59563
5.67498
6.09045
7.5253
5.98529
6.82872
4.8829
3.81732
3.45495
3.39577
3.51572
3.65802
3.76414
3.81452
3.86662
3.87611
3.79764
3.83865
3.72275
3.65889
3.59804
3.549
3.52248
3.45704
3.26445
3.14873
3.48811
4.78426
5.55164
5.20756
5.4266
6.87321
5.94389
2.59748
3.09974
3.00166
2.78552
2.64305
2.5144
2.23843
2.03763
1.88297
1.92983
1.93629
1.72384
1.61396
2.54569
5.84606
7.20245
7.09111
6.35381
5.47566
5.02794
4.74644
4.65037
4.51447
4.33271
4.06737
3.62612
3.06872
2.60231
2.44269
2.52267
2.76075
2.96773
3.16316
3.2412
3.18211
3.07126
2.91858
2.97025
3.19108
3.50795
3.52358
3.36973
3.64308
4.74077
3.95195
4.65946
5.83897
5.92275
3.98842
3.81761
4.53986
5.10469
5.40936
5.53929
5.50731
5.49915
5.39863
5.38846
5.29053
5.17778
5.12787
5.21424
5.56422
5.84021
6.15825
6.1511
6.05511
5.9579
5.78877
5.28041
3.78563
2.5575
2.81185
4.88804
5.00072
4.8778
4.98012
5.13905
5.38905
5.56094
5.68057
5.86658
6.04258
6.08248
6.20761
6.05864
5.81234
5.87216
5.76309
6.08698
5.87809
5.77687
5.94922
5.73598
6.3586
6.368
7.30373
6.89083
6.41195
5.48374
5.24687
6.27208
5.58706
4.65886
7.31524
7.16281
6.6683
6.68854
6.16415
6.44541
5.83844
6.13808
5.54969
5.47721
4.22357
3.83827
3.57505
3.63016
3.60094
3.58831
3.67367
3.69044
3.70182
3.81311
3.94699
4.09015
4.29879
4.44335
4.61712
4.79829
4.84446
4.61081
4.77654
5.80947
5.68987
5.70017
5.90014
5.9119
5.81404
5.73266
5.82515
5.88397
6.02442
6.05865
6.18578
6.13191
6.20351
6.02214
5.52837
5.11033
4.6544
4.39473
4.29103
4.30061
4.04606
3.77982
3.66216
3.64809
3.57434
3.47498
3.55327
3.94345
4.58001
4.8995
6.22343
6.57069
5.69324
5.67757
6.09998
6.18364
5.8804
5.7432
5.67875
5.98354
6.07688
6.34027
6.19665
6.31074
6.10343
6.54044
6.88155
7.03974
7.03366
6.83114
6.56524
6.4071
6.02225
6.01613
5.93816
5.95661
5.98106
6.01756
6.27098
6.72047
6.16677
6.96827
5.53973
4.54034
4.61838
4.92471
5.22164
4.64228
4.15342
3.8047
3.87945
4.06309
4.23987
4.18435
4.12671
4.24393
5.15878
5.94388
6.26834
6.24986
6.01885
5.72705
5.70961
5.42061
5.71065
5.51286
4.47096
4.06196
4.35569
5.44678
6.39373
5.7648
4.81724
4.69203
4.58676
5.02874
5.00429
5.1398
5.37744
5.19972
5.34527
5.30793
5.24764
5.28998
5.13018
5.52083
5.84862
6.21011
5.9973
5.12786
4.68369
4.77857
5.07745
5.91403
5.73359
5.04687
4.77533
4.66881
4.99706
7.04634
5.81556
4.94143
3.59088
3.15161
2.98836
2.88914
2.84486
2.89331
3.00559
3.27938
4.12616
4.5533
4.52661
4.73191
5.88706
8.23486
8.53603
8.13897
7.63265
7.33752
7.16326
7.16613
6.58797
6.70163
6.38637
6.34145
6.10254
6.16
5.40306
4.36181
6.42011
4.57283
3.92785
3.65262
3.50865
3.54239
3.64765
4.07969
5.23765
5.6835
5.53994
4.72257
4.87863
5.32217
6.16691
7.55026
8.04875
7.60212
7.50796
7.13275
7.03478
6.22362
6.58435
6.4262
6.4038
6.98473
6.727
7.34199
7.30234
7.3395
6.62963
4.68942
4.32141
4.06962
4.04401
4.06591
4.14217
4.21398
4.35828
4.36548
4.33244
4.33052
4.7153
5.67578
6.48694
6.58372
6.58131
6.16148
5.87699
5.87156
6.04812
6.59775
6.41186
5.27317
4.30111
3.64828
3.41036
3.66004
5.93431
6.44272
7.3793
6.01224
6.29976
4.34322
3.58188
3.40294
3.45185
3.59287
3.73686
3.82043
3.8831
3.87361
3.86
3.81557
3.81802
3.79423
3.71366
3.63568
3.54441
3.5295
3.5011
3.36521
3.15216
3.34805
4.68536
5.92516
5.97774
6.31287
6.30521
6.12625
2.6272
3.11565
2.96117
2.66712
2.36985
2.07745
1.92051
2.02776
2.41373
2.74836
2.9516
2.38478
1.88429
2.2967
2.89646
4.0492
6.38755
7.3355
6.81261
6.30372
5.75661
5.57749
5.358
5.26398
5.15236
5.05408
4.86118
4.37616
3.76276
3.05913
2.63628
2.52357
2.57979
2.69479
2.83751
2.89059
2.88986
2.82154
2.82705
2.93344
3.19735
3.41253
3.43404
3.28113
3.50306
4.37107
4.29503
4.51619
4.42557
5.00799
5.88117
5.94108
4.24739
3.79792
4.55323
5.07431
5.36269
5.4633
5.46957
5.3896
5.23752
5.04851
4.85596
4.63565
4.46758
4.48919
4.74967
5.17543
5.56518
5.99911
6.00217
5.90157
5.74258
5.20272
3.53607
2.61558
3.90149
6.2886
5.23067
5.09437
5.01582
4.87924
4.88241
5.04407
5.35783
5.61854
5.7051
5.92468
6.22424
6.4345
6.41752
6.34729
6.32166
6.15772
6.01958
6.00809
5.93387
6.1062
6.18301
6.52945
6.87357
7.44821
7.2241
6.33814
5.67781
6.17499
7.76958
7.56673
6.63776
6.17368
7.8912
8.07536
7.43123
6.9118
6.59986
6.32359
5.98687
6.2238
5.73818
6.10003
5.63279
5.81009
5.40592
4.53547
4.12175
3.82039
3.7711
3.77429
3.79347
3.77676
3.90554
3.98907
4.07771
4.23415
4.32763
4.42377
4.57951
4.70774
4.65183
4.6123
4.91396
5.7692
6.45301
6.24266
6.09358
6.00041
6.11238
5.95832
5.76748
5.75691
5.77548
5.89336
5.95201
6.14176
6.18382
6.33117
6.22373
5.98123
5.47897
4.75847
4.42909
4.50306
4.50637
4.20809
3.83827
3.60849
3.50765
3.49301
3.45043
3.53634
3.79559
4.26237
4.69604
4.80833
5.2687
5.94857
6.21091
6.35074
5.61902
5.82183
5.90381
5.61547
5.3584
5.23977
5.14295
5.3212
5.36236
5.57495
5.55378
5.57179
5.42021
5.8239
6.69582
7.02089
7.05162
6.88829
6.68959
6.16475
6.14422
5.98036
5.86877
5.9208
6.03951
6.18088
6.4447
6.74275
6.42432
6.79427
6.22892
6.68331
6.05892
4.8359
4.54319
4.98238
5.24207
5.24959
4.61659
4.26311
4.07086
4.27056
4.47855
4.41473
4.25721
4.26648
5.12696
5.94612
6.33811
6.33047
6.0197
5.61419
5.76441
5.49207
6.08191
5.1344
4.19511
4.179
4.45065
5.15764
5.43422
5.82448
6.12438
6.20441
5.34235
4.75104
4.8369
4.73173
5.15292
5.20157
5.32125
5.37388
5.13501
5.29509
5.43325
5.2886
5.55223
5.76015
6.05923
6.39098
6.39501
5.32123
4.74253
4.79783
5.25554
6.35971
5.45895
5.02696
4.88207
4.6453
4.44211
4.74603
6.11742
3.55212
5.69305
4.88626
3.61246
3.14248
2.93716
2.83964
2.82712
2.88532
3.02193
3.32677
4.30234
4.58765
4.58488
4.74072
5.96203
8.12929
8.56103
8.37382
7.51993
6.95259
7.01801
6.70863
6.62476
6.11828
6.21271
6.07794
6.2172
5.17606
4.29577
3.90829
4.80914
5.46216
7.42089
4.89712
4.02517
3.68024
3.60181
3.63482
3.74066
4.47971
5.51795
5.85918
5.26808
4.74875
5.0271
5.30904
5.99899
6.91684
7.71461
7.43035
7.53625
6.73819
7.08768
6.15988
6.58346
6.10929
6.52531
6.3348
6.74192
7.07675
7.82792
7.19867
4.88293
6.01514
7.31734
5.05655
4.41607
4.12991
4.06493
4.12943
4.06264
4.15517
4.29746
4.44026
4.41027
4.2968
4.48146
5.44801
6.45722
6.40391
6.35664
6.29918
5.97829
5.94127
6.19203
6.73633
6.32818
5.01483
4.02196
3.58481
3.56776
4.19636
6.39814
6.85979
7.1369
7.07935
7.12929
6.19058
5.44162
3.96963
3.48261
3.41666
3.49982
3.6551
3.73659
3.88283
3.8555
3.83556
3.79327
3.71756
3.79923
3.79484
3.76854
3.67042
3.5544
3.53146
3.50754
3.40004
3.19833
3.21017
4.30075
5.96575
6.26365
6.6253
6.88731
5.49131
3.12712
3.07083
2.62222
3.11422
2.98505
2.63744
2.25728
1.95416
1.77544
1.92173
2.49008
3.52666
4.35685
3.77526
2.83218
2.62293
3.4403
5.58609
7.59196
7.53821
7.1038
6.27089
6.03496
5.80661
5.54851
5.39102
5.31636
5.2813
5.2475
5.17005
4.69863
3.94632
3.20665
2.75442
2.61598
2.62425
2.639
2.70378
2.69687
2.75451
2.82776
2.99585
3.21577
3.3573
3.37478
3.34974
3.52778
4.00589
4.26255
4.50377
4.6756
4.96962
5.4085
5.81452
4.62975
3.77239
4.41872
4.91659
5.16963
5.24295
5.2299
5.16466
5.15204
5.10998
4.87463
4.54716
4.19215
4.10111
4.37944
5.07103
5.2468
5.72139
5.80988
5.82459
5.58505
4.53764
3.06415
3.21624
5.6083
5.76391
5.04329
5.00161
4.90204
4.82751
4.82708
4.93457
5.21412
5.55365
5.69397
5.84152
6.20017
6.58134
6.64709
6.45934
6.42527
6.4063
6.57716
6.46999
6.51569
6.76136
6.91644
7.09264
7.40564
7.49911
6.74046
5.82199
6.33651
7.69633
8.50049
8.40017
8.25483
8.28177
7.89093
7.73239
7.02283
6.78123
6.30681
6.34999
5.73271
6.12197
5.57839
6.00376
5.68056
5.86024
5.67858
5.61869
4.90099
4.5547
4.31231
4.12776
4.04323
4.1091
4.07526
4.09945
4.17615
4.21263
4.27218
4.37177
4.4329
4.46425
4.48152
4.60545
5.17122
6.52976
6.30237
6.13172
6.14464
6.10535
6.04998
5.84058
5.54081
5.60878
5.75461
5.7621
5.93774
6.01416
6.2775
6.31488
6.40974
6.2282
5.51164
4.83592
4.43338
4.24071
4.30042
4.25799
3.94795
3.65396
3.51072
3.52478
3.62988
3.82618
4.19822
4.52963
4.68608
4.90931
5.73906
6.10474
6.22702
5.97607
5.48736
5.50229
5.48106
5.18928
4.84922
4.92628
4.97553
5.14303
5.1631
5.3839
5.23621
5.31613
4.98826
5.25741
5.96077
6.83393
7.11949
6.92702
6.59371
6.28263
6.23329
6.19606
6.31716
6.22432
6.15033
6.26956
6.43295
6.72229
6.65549
6.53088
6.66647
6.84501
6.16702
5.03977
4.64278
4.69719
5.32925
5.34612
5.07855
4.90718
4.75073
4.79074
4.75095
4.5525
4.34776
4.41542
5.35236
6.02343
6.381
6.47414
6.05646
5.36691
5.82114
5.51963
6.30833
5.01257
4.32829
4.16925
4.5038
4.85794
6.06647
6.09676
5.50679
6.28079
5.71068
4.77494
4.42089
4.57993
4.53232
4.9468
4.98571
5.14981
5.25694
5.23665
5.37811
5.57732
5.65075
5.92247
6.22456
6.56519
6.29695
5.25318
4.65538
4.83081
5.39633
6.31568
5.39459
5.09435
5.07521
5.00888
4.64097
4.17297
3.93051
3.8566
5.53595
4.36157
3.35162
3.04033
2.8614
2.80363
2.84398
2.93035
3.07594
3.57489
4.42632
4.6326
4.68501
4.75408
5.74362
7.89038
8.48161
8.52212
7.44664
6.69649
6.32636
5.60292
4.8096
4.61265
4.47791
4.3643
4.29886
4.17203
4.68067
5.43971