/*--------------------------------*- C++ -*----------------------------------*\
| =========                 |                                                 |
| \\      /  F ield         | OpenFOAM: The Open Source CFD Toolbox           |
|  \\    /   O peration     | Version:  2.1.1                                 |
|   \\  /    A nd           | Web:      www.OpenFOAM.org                      |
|    \\/     M anipulation  |                                                 |
\*---------------------------------------------------------------------------*/
FoamFile
{
    version     2.0;
    format      ascii;
    class       volScalarField;
    location    "0.004150000";
    object      T;
}
// * * * * * * * * * * * * * * * * * * * * * * * * * * * * * * * * * * * * * //

dimensions      [0 0 0 1 0 0 0];

internalField   nonuniform List<scalar> 
12384
(
3112.26
3116.92
3122.92
3122.04
3122.52
3111
3113.77
3085.52
3077.99
3050.83
3025.03
2819.39
2744.99
2664.46
2466.23
2617.38
2699.24
2731.61
2744.91
2747.39
2755.33
2760.58
2767.05
2776.03
2786.74
2796.28
2798.37
2800.27
2799.92
2804.22
2804.21
2819.68
2817.4
2840.57
2869.81
2889.57
2853.5
2725.96
2666.2
2563.86
2491.72
2407.4
2444.59
2545.55
2931.04
2986.1
3013.79
3021.24
3016.24
3013.6
2993.38
2993.2
2962.98
2958.99
2939.28
2922.15
2900.37
2890.11
2879.13
2858.3
2846.76
2844.66
2829.87
2799.22
2776.65
2849.23
2978.98
3034.5
3018.13
3016.97
3001.31
2960.61
2802.97
2555.6
2800.12
2796.26
2807.71
2812.05
2823.86
2824.8
2828.99
2833.15
2831.76
2833.13
2830.19
2831.14
2832.81
2828.57
2849.36
2837.86
2883.43
2870.43
2907.83
2921.84
2943.1
2969.35
2950.56
2951.2
2866.37
2842.54
2861.34
2873.29
2875.22
2867.77
2700.63
2697.02
2699.89
2697.85
2689.99
2680.73
2652.05
2663.55
2608.09
2632.41
2582.77
2590.16
2587.37
2572.51
2583.16
2567
2593.92
2583.87
2608.83
2605.78
2607.28
2621.64
2625.93
2650.58
2683.56
2649.18
2560.67
2502.83
2493.19
2493.19
2288.4
2578.33
2625.85
2640.24
2622.68
2674.56
2672.07
2734.6
2739.44
2770.96
2779.98
2796.48
2802.48
2811.68
2828.24
2830.55
2839.64
2837.94
2832.94
2823.48
2813.88
2812.25
2814.06
2823.11
2832.28
2843.4
2855.46
2867.67
2810.7
2572.76
2662.16
2666.91
2683.58
2679.34
2748.06
2735.07
2707.12
2694.97
2693.95
2683.33
2690.61
2660.35
2674.23
2665.13
2650.48
2662.84
2657.22
2664.1
2676.69
2690.03
2701.31
2706.17
2699.19
2684.33
2673.38
2655.91
2651.35
2618.18
2627.84
2141.97
2391.77
2425.83
2441.79
2560.61
2727.17
2572.78
2551.52
2573.99
2593.55
2604.47
2618.67
2623.57
2605.12
2607.24
2601.23
2599.64
2603.13
2611.14
2625.95
2644.51
2667.87
2688.54
2705.47
2720.01
2722.54
2697.61
2675.64
2641.33
2621.49
2634.79
2438.35
2422.33
2447.99
2679.64
2743.27
2459.07
2470.14
2482.9
2488.83
2500.18
2501.8
2520.12
2522.85
2545.61
2565.22
2579.86
2593.75
2613.64
2634.61
2660.28
2685.14
2704.09
2711.8
2697.74
2696.21
2779.23
3008.29
2679.83
2537.89
2609.24
2514.69
2580.55
2718.93
2951.89
2895.19
2884.57
2883.07
2884.43
2903.83
2931.32
2950.72
2964.66
2965.21
2962.98
2940.77
2918.56
2874.76
2831.28
2815.95
2763.25
2764.04
2718.09
2724.06
2694.5
2701.91
2688.56
2700.32
2707
2742.95
2797.23
2265.82
2709.09
2992.53
2928.74
2895.37
2881.57
2863.75
2847.86
2833.82
2819.71
2810.17
2802.7
2794.72
2786.85
2777.66
2767.25
2752.33
2738.5
2717.82
2711.65
2676
2693.34
2703.05
2709.73
2777.07
2792.21
2835.81
2881.73
2936.94
2993.67
2255.47
2849.23
2923.28
2881.17
2849.7
2833.21
2825.55
2798.32
2796.28
2756.76
2757.09
2724.08
2725.74
2704.52
2703.71
2687.66
2689.82
2675.39
2683.18
2679.18
2685.41
2695.41
2718.71
2796.84
2973.6
2554.72
2365.1
2315.77
2343.13
2451.47
2276.03
2353.16
2344.77
2308.86
2311.38
2393.23
2458.46
2550.17
2622.9
2613.81
2703.15
2722.52
2835.6
2844.4
2981.81
2980.68
2982.37
2991.51
3006.74
3019.19
3011.7
2976.6
2926.94
2757.8
2619.73
2363.02
2286.59
2258.63
2302.4
2393.55
3117.28
3120.04
3129.44
3136.89
3146.47
3134.82
3130.07
3103.68
3110.02
3085.17
3057.62
2994.4
2818.49
2661.36
2466.72
2691.08
2751.26
2749.12
2732.42
2714.81
2710.57
2715.25
2726.29
2739.95
2759.77
2773.61
2783.99
2787.74
2787.11
2789.92
2789.35
2799.31
2807.2
2822.97
2851.66
2883.65
2883.42
2810.38
2731.11
2631.55
2550.86
2443.55
2435.5
2531.77
2955.97
3061.81
3047.14
3044.68
3047.26
3050.34
3049.86
3045.49
3031.29
3020.82
3004.72
2983.14
2970.26
2936.76
2904.62
2868
2843.5
2829.65
2820.35
2806.03
2783.58
2781.77
2820.32
2933.08
3018.27
3021.34
3014.74
2993.41
2893.56
2583.24
2793.22
2799.34
2802.43
2781.45
2769.88
2767.43
2763.89
2764
2764.99
2762.62
2760.06
2754.37
2754.32
2760.6
2763.91
2781.08
2814.46
2844.16
2888.37
2910.36
2922.65
2940.65
2953.78
2952.45
2938.02
2895.73
2905.02
2925.4
2926.08
2909.8
2719.63
2719.51
2691.52
2671.84
2658.97
2660.47
2633.79
2669.09
2628.17
2646.88
2646.28
2629.64
2625.43
2619.32
2622.1
2609.83
2628.42
2619.07
2632.05
2631.33
2629.2
2632.57
2633.4
2644.76
2670.54
2679.97
2621.38
2601.69
2597.48
2570.89
2344.38
2613.88
2622.76
2634.44
2637.47
2691.95
2679.74
2687.18
2683.69
2714.13
2738.09
2765.1
2751.08
2768.86
2761.22
2776.6
2761.89
2760.22
2746.26
2738.45
2731.74
2743.31
2756.55
2776.18
2801.32
2823.93
2844.5
2866.15
2854.54
2801.9
2662.2
2681.16
2698.01
2746.54
2745.57
2706.16
2684.94
2670.19
2661.79
2668.31
2676.66
2626.26
2517.7
2478.98
2411.69
2408.18
2398.39
2395.97
2393.91
2401.03
2402.24
2413.17
2430.88
2472.28
2547
2633.61
2659.6
2631.11
2633.81
2244.39
2439.65
2505.89
2632.21
2762.09
2634.65
2569.39
2579.52
2624.14
2649.8
2672.93
2681.02
2675.87
2664.04
2653.37
2636.37
2617.09
2595.9
2587.66
2588.51
2614.28
2669.65
2741.05
2801
2826.64
2815.11
2849.84
2822.16
2739.17
2647.78
2631.75
2418.44
2445.98
2781.46
2660.02
2453.28
2446.3
2441.18
2459.8
2465.13
2463.66
2480.24
2495.3
2507.49
2526.81
2542.56
2561.81
2576.96
2585.93
2599.82
2625.09
2670.74
2735.95
2801.52
2827.68
2745.02
2661.87
2683.72
2912.04
2696.33
2563.81
2538.91
2616.22
2895.58
2932.91
2908.09
2936.04
2943.45
2947.91
2955.13
2964.97
2974.12
2986.05
2992.23
2996.49
2966.12
2919.87
2857.67
2793.25
2779.2
2707.04
2714.14
2654.11
2660.83
2617.33
2634.89
2615.95
2636.92
2653.56
2704.47
2790.59
2470.84
3046.11
2960.32
2927.01
2948.04
2982.07
2988.53
2976.3
2943.31
2900.34
2846.12
2796.88
2763.16
2740.28
2721.49
2711.71
2711.8
2718.53
2728.04
2739.92
2721.02
2754.31
2755.19
2783.6
2834.86
2849.01
2862.15
2881.76
2925.56
2989.3
2556.48
3015.81
2904.62
2863.1
2829.73
2809.5
2783.38
2764.67
2741.51
2717.37
2702.74
2680.57
2676.38
2656.98
2659.82
2638.11
2643.99
2618.92
2630.77
2622.81
2626.4
2648.58
2640.8
2686
2784.5
2939.46
2850.74
2512.31
2303.44
2348.81
2292.4
2353.15
2331.86
2356.67
2468.8
2668.42
2873.82
2974.46
2906.43
2806.7
2736.66
2644.18
2601.42
2541.3
2564.63
2548.28
2567.65
2572.2
2584.94
2609.29
2644.8
2682.44
2729.06
2771.25
2840.44
2969.13
2635.37
2350.29
2294.39
2331.21
3131.28
3141.62
3148.66
3142.74
3139.11
3130.89
3125.62
3082.7
3089.33
3100.71
3077.35
3058.55
2935.21
2682.45
2556.7
2734.52
2739.12
2706.06
2668.66
2655.73
2662.04
2679.39
2709.9
2744.56
2774.78
2799.04
2815.4
2826.43
2826.21
2825.88
2817.46
2807.88
2803.64
2807.32
2829.86
2862.34
2891.64
2863.59
2795.27
2692.72
2614.13
2505.52
2446.65
2533
3007.07
3033.14
2997.31
3003.49
3029.42
3045.41
3044.16
3032.16
3019.97
2997.14
2976.1
2948.12
2931.51
2908.08
2888.87
2861.2
2836.27
2817.68
2807.87
2789.05
2780.45
2755.62
2761.56
2788.15
2912.97
3009.17
3025.63
3006.15
2951.03
2629.23
2798.82
2795.88
2746.03
2740.41
2752.47
2766.37
2776.65
2778.39
2775.01
2773.99
2763.74
2758.68
2750.94
2744.06
2748.11
2748.01
2777.45
2788.3
2852
2881.43
2914.09
2922.43
2935.53
2945.84
2942.12
2936.5
2915
2934.3
2937.65
2914.84
2616.2
2607.75
2603.58
2629.36
2635.54
2669.89
2664.79
2700.93
2670.05
2696.96
2667.95
2672.67
2648.66
2649.47
2647.07
2638.43
2652.04
2643.96
2653.35
2649.2
2650.86
2650.28
2641.44
2642.34
2656.53
2684.2
2669.56
2643.41
2642.12
2612.72
2440.54
2626.71
2625.63
2647.99
2655.01
2653.57
2609.36
2668.97
2689.19
2684.03
2660.83
2635.74
2627
2620.98
2611.48
2609.85
2612.66
2608.67
2616.85
2628.7
2647.7
2674.18
2705.16
2737.83
2767.66
2798.1
2827.92
2852.95
2871.02
2854.08
2639.07
2691.99
2733.42
2752.22
2718.58
2680.55
2653.18
2646.48
2653.54
2571.05
2463.3
2424.05
2405.76
2432.36
2449.8
2479.86
2484.74
2485.8
2475.06
2448.72
2418.48
2388.98
2374.37
2372.35
2407.82
2513.14
2642.11
2648.88
2637.42
2318.71
2476.39
2653.16
2828.33
2698.51
2605.15
2576.52
2625.98
2663.4
2691.75
2697.59
2699.34
2686.12
2687.91
2677.28
2679.02
2661.18
2637.75
2601.6
2577.07
2570.15
2615.73
2726.75
2797.93
2688.31
2638.05
2702.37
2866.35
2802.54
2682.03
2631.34
2414.06
2661.42
2718.55
2469.32
2390.58
2411.3
2429.36
2424.17
2442.94
2450.29
2458.08
2483.74
2507.78
2533.25
2557.93
2581.75
2607.17
2620.96
2613.55
2598.55
2596.7
2659.85
2766.77
2868.4
2889.7
2732.6
2598.6
2662.97
2961.66
2561.76
2553.06
2713.44
2970.58
2927.36
2934.8
2970.43
2972.02
2964.7
2963.28
2939.96
2917.15
2919
2949.35
2983.4
2945.14
2864.02
2808.83
2741.55
2741.65
2736.32
2760.78
2719.48
2706.53
2637.08
2612.91
2576.55
2581.21
2594.89
2657.26
2775.87
2674.69
3016.54
2944.86
2967.27
3047.83
3091.88
3086.1
3070.23
3058.44
3031.06
2947.9
2841.2
2762.02
2726.09
2713
2739.49
2788.13
2828.98
2874.44
2869.71
2835.95
2807.45
2772.38
2749.93
2838.53
2905.6
2937.18
2916.48
2920.26
2978.25
2851.53
2955.7
2887.78
2851.14
2828.97
2806.52
2792.7
2762.63
2742.98
2715.7
2706.95
2699.17
2713.09
2718.8
2736.67
2736.01
2735.59
2708.16
2681.54
2644.48
2624.66
2645.91
2627.65
2650.1
2639.84
2699.11
2848.06
2948.34
2408.28
2254.37
2299.82
2346.4
2352.68
2510.6
2793.82
2984.01
2841.16
2685.41
2601.59
2529.46
2528.03
2516.43
2529.08
2540.84
2567.31
2568.18
2575.16
2562.81
2551.67
2541.47
2551.84
2582.51
2647.71
2729.29
2786.83
2760.01
2897.48
2742.04
2355.83
2277.61
3148.73
3150.37
3124.06
3109.2
3108.34
3111.03
3112.28
3086.05
3064.98
3082.99
3097.65
3065.08
3030.76
2723.39
2708.78
2748.03
2724.45
2667.73
2639.54
2648.31
2681.49
2730.51
2776.99
2820.5
2859.08
2889.05
2915.2
2934.5
2934.16
2924.2
2898
2865.09
2828.44
2803.51
2816.77
2845.05
2884.82
2886.38
2836.36
2739.62
2668.77
2567.7
2471.18
2523.24
3039.6
2990.86
2963.32
2986.15
3034.37
3041.41
3021.15
2995.33
2972.79
2935.83
2905.27
2871.77
2855.99
2854.82
2848.28
2836.47
2819.34
2805.04
2782.23
2768.16
2752.57
2746.81
2735.2
2738.11
2800.37
2936.01
3021.82
3020.26
2974.14
2660.09
2821.96
2724.27
2740.88
2772.32
2789.78
2790.63
2790.51
2789.58
2783.24
2778.7
2773.56
2767.97
2760.61
2764.09
2756.26
2767.22
2766.1
2788.07
2823.6
2860.26
2893.96
2900.99
2916.52
2937.26
2935.99
2937.97
2939.31
2942.05
2942.22
2919.97
2563.49
2586.71
2620.67
2650.34
2675.85
2694.21
2710.55
2714.8
2690.2
2694.1
2675.07
2681.51
2667.56
2667.34
2668.12
2656.25
2665.04
2668.41
2668.55
2670.55
2668.91
2659.22
2651.58
2643.81
2651.25
2670.71
2687.45
2663.99
2651.85
2626.15
2527.2
2624.15
2621.16
2663.69
2628.68
2615.55
2666.52
2647.15
2613.49
2587.58
2575.44
2559.5
2548.38
2536.38
2533.51
2524.52
2536.37
2559.48
2587.57
2630.13
2674.5
2716.07
2748.95
2769.34
2785.09
2802.43
2818.41
2843.48
2867.14
2870.2
2620.58
2696.32
2738.86
2734.83
2694.51
2656.09
2638.07
2635.41
2536.31
2469.97
2461.99
2515.23
2557.2
2602.39
2594.38
2605.31
2606.29
2589.35
2574.26
2544.91
2502.81
2466.03
2440.2
2421.25
2419.27
2477.52
2597.47
2654.47
2640.52
2354.27
2526.04
2788.55
2789.15
2665.27
2582.84
2600.79
2643.85
2660.47
2646.84
2640.35
2612.69
2600.97
2598.56
2627.25
2645.42
2673.8
2665.55
2642.88
2598.48
2577.61
2587.84
2724.26
2742.26
2601.44
2536.66
2625.09
2857.58
2826.51
2699.48
2629.05
2413.14
2803.24
2564.12
2389.95
2389.22
2380.61
2397.87
2418.14
2415.86
2443.85
2447.52
2449.35
2473.07
2501.57
2533.88
2571.88
2613.81
2655.14
2669.1
2642.93
2599.17
2586.31
2683.59
2834.81
2891.78
2841.42
2648.75
2599.9
2761.63
2662.26
2561.79
2819.56
2948.05
2922.3
2962.94
2992.18
2992.66
2993.46
2988.53
2976.65
2910.48
2871.02
2923.85
2975.32
2870.04
2795.04
2758.51
2805.03
2850.1
2640.63
2537.43
2476.26
2443.18
2561.79
2706.65
2639.51
2568.28
2561.35
2620.97
2764.35
2797.42
2985.23
2941.86
3016.32
3094.41
3105.94
3091.64
3071.72
3034.81
3028.59
3011.25
2868.58
2756.21
2715.2
2739.06
2816.49
2900
2925.51
2793.99
2631.94
2572.67
2501.36
2497.33
2531.44
2581.22
2660.67
2806.13
2950.1
2927.78
2963.82
3018.55
2929.34
2879.13
2856.29
2846.6
2837.03
2821.07
2790.79
2751.32
2735.14
2726.17
2751.07
2791.98
2841.1
2894.64
2914.92
2935.41
2919.57
2890.75
2830.07
2749.33
2705.33
2660.33
2642.73
2613.94
2577.43
2654
2852.62
2797.99
2204.91
2299.43
2341.67
2429.19
2761.89
2975.8
2777.01
2646.05
2557.29
2553.47
2547.14
2565.21
2601.91
2631.11
2649.88
2668.51
2662.18
2675.44
2664.52
2635.54
2583.17
2538.98
2544.4
2619.7
2763.1
2882.07
2855.49
2813.91
2957.83
2475.5
2229.92
3155.17
3072.25
3030.68
3028.5
3022.28
3033.68
3051.65
3050.56
3041.57
3062.89
3110.67
3058.1
3077.35
2784.73
2773.8
2763.55
2698.15
2635.94
2632.6
2672.65
2738.46
2799.06
2852.16
2887.68
2924.86
2967.75
2984.74
2990.84
2986.33
2975.03
2953.21
2903.73
2858.67
2803.43
2810.36
2834.89
2875.89
2897.02
2861.6
2784.9
2708.43
2614.94
2495.56
2533.15
3051.2
2971.37
2945.06
2976.76
3043.08
3020.71
2979.53
2932.93
2895.2
2854.93
2824.7
2807.39
2810.99
2821.05
2820.01
2811.74
2794.7
2776.33
2749.7
2737.38
2719.44
2722.83
2715.34
2712.55
2732.08
2843.53
2993.7
3033.37
2994.89
2698.72
2755.51
2732.17
2791.12
2801.04
2800.54
2802.1
2802.67
2803.47
2794.08
2778.2
2768.9
2760.26
2769.15
2762.34
2763.5
2756
2778.9
2779.47
2818.37
2841.51
2872.25
2883.48
2891.7
2922.3
2929.73
2935.14
2940.78
2946.04
2940.39
2920.34
2585.71
2601.38
2637.59
2653.27
2663.46
2673.7
2689.49
2700.8
2678.13
2690.08
2667.42
2685.12
2676.05
2682.59
2679.31
2672.06
2688.64
2676.67
2694.7
2683.99
2679.91
2679.67
2663.36
2643.65
2645.6
2666.35
2689.52
2680.91
2657.79
2638.28
2610.33
2634.72
2657.62
2656.17
2622.01
2657.55
2616.91
2591.8
2571.2
2564.03
2554.38
2547.81
2530.26
2509.36
2499.15
2512.45
2529.77
2582.16
2657.63
2724.36
2775.66
2799
2803.65
2810.41
2812.67
2812.82
2817.82
2833.86
2857.74
2874.34
2604.89
2712.07
2748.24
2714.74
2672.49
2624.16
2627.31
2595.05
2540.12
2553.57
2585.91
2610.29
2601.71
2620.27
2618.56
2639.02
2617
2602.11
2577.13
2557.64
2539.91
2530.03
2552.83
2548.36
2522.31
2515.27
2606.99
2663.6
2643.44
2353.62
2564.09
2835.37
2749.13
2616.49
2593.13
2601.75
2638.38
2619.97
2592.99
2554.23
2548.88
2532.49
2543.45
2540.43
2575.81
2617.91
2665.38
2661.2
2628.76
2582.82
2589.73
2726.29
2695.71
2543.53
2518.57
2632.05
2897.3
2804.29
2705.77
2630.74
2415.61
2786.41
2455.84
2362
2348.1
2374.34
2367.23
2392.16
2409.67
2393.15
2412.7
2409.18
2403.46
2422.83
2459.16
2508.35
2566.03
2631.47
2682.31
2671.8
2605.64
2567.13
2631.47
2778.07
2873.02
2859.44
2778.01
2618.88
2684.43
2829.5
2582.18
2906.24
2936.98
2921.72
2972.08
2995.76
2993.56
2984.69
2997.71
2997.51
2937.31
2830.4
2886.38
2932.32
2817.91
2748.71
2811.36
2716.35
2533.18
2374.1
2351.26
2244.75
2231.54
2191.64
2345
2639.19
2616.1
2549.9
2599.51
2758.5
2839.58
2964.9
2947.09
3042.72
3101.73
3094.76
3073.39
3073.76
3033.78
2967.96
3024.41
2867.94
2747.42
2711.1
2776.08
2882.39
2936.07
2788.83
2637.41
2492.31
2474.77
2397.28
2438.89
2477.76
2530.48
2584.14
2682.15
2845.36
2931.71
2946.49
3034.68
2913.09
2875.82
2872.77
2887
2903.73
2889.33
2840.55
2793.71
2745.67
2742.93
2755.25
2822.99
2898.04
2957.68
2981.43
2994.06
2984.78
2993.08
2978.29
2937.84
2830.96
2743.6
2672.74
2621.93
2574.19
2554.04
2690.62
2996.8
2237.83
2294.09
2355.93
2543.87
3014.13
2808.81
2648.21
2577.38
2557.94
2585.78
2601.93
2641.98
2670.75
2682
2674.28
2698.5
2686.3
2692.38
2708.99
2709.39
2680.74
2597.45
2531.86
2569.62
2722.5
2920.38
2980.05
2896.43
2889.56
2714.53
2267.29
3134.63
2998.24
2999.27
3006.22
3001.55
2985.79
2986.24
2996.78
3025.03
3077.09
3112.56
3049.86
3087.34
2875.29
2760.68
2742.09
2660.29
2614.23
2635.64
2702.25
2764.74
2816.42
2849.68
2893.14
2938.4
2978.99
2996.75
2988.92
2989.77
2976.26
2937.42
2890.04
2838.58
2800.12
2807.5
2832.2
2877.25
2902.02
2886.79
2810.75
2743.32
2662.21
2545.49
2536.83
3055.01
2940.24
2934.03
2972.94
3041.58
2997.51
2923.6
2855.57
2811.65
2779.56
2779.46
2780.62
2788.89
2789.99
2786.61
2769.22
2744.36
2727.08
2694.67
2696.95
2675.36
2689.22
2688.26
2688.3
2693.09
2773.94
2944.41
3035.98
3001.44
2710.18
2743.16
2781.64
2809.05
2809.33
2810.4
2813.6
2806.37
2788.03
2757.18
2731.58
2705.82
2706.38
2711.02
2739.58
2752.71
2758.33
2761.04
2779.11
2800.23
2841.39
2842.7
2858.94
2868.05
2907.27
2920.22
2927.31
2939.45
2937.49
2922.28
2911.66
2586.37
2633.23
2636.9
2651.26
2646.62
2636.77
2638.34
2662.67
2676.74
2680.02
2666.1
2681.32
2686.54
2691.08
2697.01
2690.15
2690.37
2696.25
2696.89
2691.39
2695.52
2685.53
2667.36
2651.44
2643.12
2655.5
2679.54
2680.48
2655.64
2637.31
2610.81
2641.19
2657.53
2637.2
2657.84
2622.78
2600.82
2586.74
2581.44
2573
2573.41
2557.27
2543.66
2517.46
2512.88
2524.4
2578.75
2654.89
2747.98
2802.64
2822.43
2814.8
2815.32
2811.66
2818.18
2817.09
2813.67
2825.54
2849.29
2867.53
2607.27
2705.95
2718.25
2690
2645.73
2617.3
2625.08
2614.62
2603.75
2591.18
2593.92
2585.84
2587.3
2600.19
2625.33
2635.74
2630.12
2584.38
2569.08
2559.26
2570.96
2618.43
2677.49
2696.64
2652.07
2625.32
2658.17
2665.99
2646.29
2330.16
2564.07
2836.7
2679.6
2612.34
2574.61
2612.98
2615.57
2586.44
2549.01
2546.26
2517.68
2524.8
2507.32
2523.23
2519.1
2561.03
2628.31
2683.01
2657.24
2598.07
2575.24
2722.98
2660.74
2536.66
2536.09
2746
2867.7
2760.02
2699.19
2637.17
2383.98
2762.28
2382.35
2321.99
2312.1
2326.96
2370.65
2355.28
2369.31
2358.61
2329.94
2351.25
2361.51
2353.99
2372.04
2431.59
2507.47
2593.29
2661.92
2672.31
2604.1
2546.49
2596.66
2771.23
2900.05
2926.49
2926.16
2849.33
2737.98
2970.67
2566.81
2930.62
2907.81
2918.45
2975.26
3001.24
3002.36
2991
2981.73
2986.35
2966.89
2787.26
2848.59
2903.72
2751.34
2757.94
2826.13
2566.22
2431.24
2388.88
2334.56
2268.1
2174.48
2135.45
2151.05
2417.61
2658.4
2555.17
2612.24
2773.6
2813.17
2947.36
2943.36
3049.85
3093.15
3086.08
3063.85
3056.38
3032.54
2917.94
3022.96
2849.66
2730.55
2716.57
2810.8
2906.02
2910.39
2756.15
2601.52
2484.51
2457.09
2430.14
2463.56
2497.44
2559.07
2592.39
2621.57
2756.39
2923.88
2926.08
3020.73
2899.72
2878.49
2896.28
2947.05
2985.56
2971.46
2917.68
2841.4
2784.29
2743.16
2745.18
2811.51
2905.66
2965.47
2987.02
3000.31
2948.76
2915.44
2936.1
2997.75
2955.67
2843.08
2734.26
2654.62
2579.27
2525.59
2598.3
2929.79
2269.11
2297.5
2383.37
2727.53
2912.83
2690.17
2596.16
2577.77
2593.21
2629.74
2672.93
2695.16
2719.5
2744.59
2756.08
2749.53
2743.9
2696.42
2696.84
2709.66
2721.74
2686.41
2573.38
2542.76
2681.53
2929.61
3035.01
2955.44
2904.41
2866.12
2265.93
3109.96
2975.49
2997.59
3019.55
3014.56
2996.74
2983.9
3018.48
3090.88
3112.07
3088.99
3042.41
3067.59
2983.29
2748.69
2683.85
2631.18
2611.23
2642.1
2689.93
2737.53
2763.99
2793.51
2821.4
2870.6
2939.74
2985.42
2992.12
2984.91
2961.44
2904.25
2851.13
2817.65
2795.56
2808.47
2841.81
2881.32
2918.56
2902.93
2847.71
2781.4
2719.1
2566.65
2531.89
3031.72
2893.77
2933.5
2965.44
3037.15
2978.36
2882.37
2790.23
2758.5
2738.61
2740.42
2754.08
2749.98
2741.39
2744.94
2748.59
2739.37
2756.2
2738.47
2731.39
2713.2
2695.98
2688.19
2678.37
2679.78
2731.96
2904.82
3039.14
3004.28
2724.37
2759.06
2804.59
2812.38
2820.88
2819.49
2817.88
2795.72
2761.15
2718.29
2691.03
2670.23
2666.13
2681.16
2698.39
2744.53
2745.83
2767.26
2765.42
2810.17
2824.3
2817.19
2820.43
2865.05
2900.46
2911.94
2929.78
2930.06
2891.56
2867.85
2887.44
2631.22
2668.7
2717.31
2702.6
2678.91
2646.17
2593.01
2614.41
2647.36
2676.99
2659.3
2679.19
2681.61
2694.29
2695.2
2687.9
2703.7
2700.93
2698.83
2702.8
2697.6
2685.09
2663.24
2640.24
2639.39
2656.91
2684.18
2679.38
2654.58
2648.94
2661.28
2668.76
2674.87
2663.54
2646.2
2626.3
2627.77
2617.36
2603.89
2597.29
2589.09
2583.98
2560.76
2546.19
2539.51
2573.59
2641.16
2736.35
2801.37
2818.33
2798.51
2779.34
2759.81
2777.47
2803.39
2812.92
2809.23
2820.28
2846.14
2861.62
2600.43
2710.94
2711.86
2672.61
2619.01
2602.74
2612.23
2604.41
2592.34
2575.94
2567.58
2555.14
2560.56
2562.15
2597.9
2626.79
2657.34
2592.04
2556.4
2578.42
2633.15
2679.69
2670.12
2672.91
2686.22
2688.34
2678.87
2664.79
2646.1
2276.04
2588.44
2789.1
2669.5
2571.79
2573.24
2590.84
2603.77
2553.61
2537.33
2507.3
2523.03
2509.75
2522.78
2506.55
2512.56
2518.6
2591.62
2680.27
2691.93
2613.12
2567.82
2708.32
2664.93
2538.92
2635.56
2896.95
2803.03
2710.59
2686.74
2646.22
2381.44
2756.47
2397.14
2293.24
2308.28
2306.05
2320.69
2353.97
2316.37
2324.23
2298.71
2276.78
2297.85
2320.7
2320.41
2362.32
2443.8
2554.96
2658.68
2675.64
2584.53
2519.08
2595.19
2819.4
2924.39
2758.73
2654.21
2736.86
2942.03
2963.62
2615.67
2916.63
2853.98
2890.13
2966.92
3003.65
3020.59
3003.09
2984.23
2962.33
2977.41
2743.45
2842.51
2862.74
2711.48
2789.68
2756.37
2518.04
2488.57
2420.48
2401.33
2351.79
2264.01
2173.12
2188.93
2426.34
2667.86
2586.23
2651.31
2795.2
2788.99
2927.17
2931.21
3038.61
3078.76
3078.23
3059.31
3045.9
3021.46
2861.72
3014.27
2819.8
2710.39
2728.44
2824.59
2896.13
2913.32
2796.09
2669.92
2551.87
2497.92
2473.18
2496.46
2515.66
2569.6
2606.51
2607.02
2699.16
2885.66
2911.63
2990.76
2880.22
2873.61
2925.25
3017.15
3052.31
3042.95
2996.42
2922.62
2824.91
2762.93
2737.71
2792.81
2895.33
2963.73
2987.87
2981.46
2824.75
2765.3
2800.8
2883.55
3001.82
2926.1
2800.22
2692.51
2586.87
2516.28
2551.83
2884.85
2335.82
2298.35
2453.89
2954.31
2803.11
2631.57
2587.47
2601.66
2640.07
2684.17
2736.66
2786.05
2841.49
2898.9
2947.27
2905.48
2869.8
2780.37
2704.37
2690.11
2708.39
2724.96
2651.21
2540.78
2637.67
2917.87
3051.52
3002.67
2988.02
2795.19
2329.92
3085.39
2964.05
3008.57
3036.77
3060.7
3079.03
3111.06
3125.9
3107.54
3105.28
3097.28
3069.69
3066.32
3023.14
2677.01
2638.69
2592.51
2609.6
2643.36
2676.03
2701.27
2713.52
2724.35
2737.67
2767.47
2833.44
2927.89
2986.74
2986.45
2975.66
2922.49
2873.53
2830.56
2826.53
2843.83
2869.23
2924.25
2943.88
2925.12
2868.63
2819.12
2749.74
2606.62
2553.9
2916.76
2816.71
2934.92
2962.64
3029.41
2977.27
2860.46
2778.46
2739.73
2726.23
2729.83
2759.29
2818.75
2874.29
2900.14
2908.87
2895.82
2889.63
2872.83
2876.31
2838.66
2786.42
2737.13
2700.94
2685.54
2728.37
2896.73
3043.07
3000.86
2721.77
2779.09
2814.61
2813.19
2818.4
2824.94
2820.8
2786.18
2752.78
2710.91
2682.47
2658.69
2657.58
2675.5
2695.06
2738.8
2741.05
2772.08
2778.17
2782.88
2789.78
2789.56
2822.36
2859.67
2902.51
2911.16
2916.56
2812.29
2694.25
2743.99
2839.95
2693.81
2801.17
2794.39
2786.55
2755.36
2722.55
2596
2579.23
2563.95
2649.79
2653.11
2660.6
2674.76
2674.23
2685.44
2699.69
2693.33
2696.67
2701.12
2696.62
2685.97
2667.33
2640.36
2634.08
2643.78
2664.27
2693.29
2655.97
2654.93
2645.01
2664.2
2681.61
2672.48
2668.81
2654.18
2665.2
2669.41
2652.95
2638.55
2620.21
2616.55
2605.69
2595.48
2566.19
2572.65
2596.9
2680.51
2774.36
2812.85
2792.78
2772.1
2751.36
2751.25
2768.95
2795.04
2802.24
2808.66
2821.43
2844.58
2864.67
2589.59
2709.48
2696.31
2656.08
2613.43
2611.11
2621.91
2610.28
2602.25
2578.23
2572.7
2553.78
2554.26
2545.85
2566.81
2591.62
2663.48
2603.76
2543.84
2574.51
2660.44
2672.3
2638.46
2642.04
2643.54
2654.54
2656.49
2655.48
2601.14
2207.23
2529.96
2795.36
2629.06
2569.99
2548.25
2588.71
2583.6
2560.36
2516.65
2514.96
2502.04
2518.05
2512.83
2522.28
2509.12
2510.85
2562.61
2672.37
2722.61
2638.48
2555.25
2686.13
2673.44
2568.96
2759.56
2860.18
2732.97
2699.22
2692.16
2639.46
2357.48
2707.54
2388.11
2269.7
2241.82
2281.98
2282.61
2295.14
2310.35
2281.86
2311.94
2309.11
2273.69
2278.66
2313.42
2354.98
2423.94
2533.37
2667.62
2690.26
2581.72
2516.7
2622.9
2881.1
2731.86
2521.52
2464.72
2480.51
2627.11
2942.65
2505.16
2888.16
2859.96
2896.99
2972.48
3005
3020.83
3001.78
2964.12
2959.33
2971.06
2709.73
2800.26
2830.24
2680.81
2805.46
2744.12
2595.69
2522.24
2505.72
2496.32
2549.77
2563.65
2496.76
2514.4
2674.34
2679.8
2674.21
2738.67
2835.17
2760.31
2924.04
2918.46
3009.73
3061.85
3066.21
3027.46
3036.05
2972.21
2841.89
2997.71
2782.42
2695.23
2733.82
2826.47
2877.58
2890.61
2861.02
2751.94
2620.94
2551.11
2501.91
2515.68
2538.63
2566.51
2613
2596.19
2717.23
2859.26
2922.43
2979.59
2862.05
2867.69
2956.23
3041.67
3097.5
3083.6
3059.84
2994.28
2900.76
2794.59
2744.05
2774.68
2890.75
2973.75
2999.05
2995.16
2768.55
2684.68
2713.64
2805.09
2942.01
2973.36
2838.11
2702.81
2577.9
2517.93
2560.39
2918.39
2481.61
2305.66
2532.87
2999.15
2718.12
2608.96
2597.05
2629.84
2689.37
2741.44
2811.54
2889.9
2998.59
3064
3087.5
3070.18
3008.47
2903.78
2764.81
2685.78
2684.09
2719.48
2707.57
2560
2592.92
2892.06
3044.26
3042.2
3012.81
2653.14
2399.87
3079.37
2949.11
3004.83
3055.83
3111.27
3127.99
3112.67
3111.29
3100.16
3089.03
3054.44
3103.43
3092.25
3042.95
2908.91
2838.22
2712.21
2631.11
2618.95
2633.42
2679.4
2713.04
2735.38
2737.64
2724.16
2703.44
2690.63
2721.66
2805.81
2923.91
2976.31
2984.54
2971.49
2942.4
2910.04
2907.97
2909.82
2940.78
2964.07
2965.4
2939.15
2889.39
2831.81
2781.25
2631.56
2571.02
2503.64
2520.47
2675.09
2732.66
2934.41
2947.3
3021.23
2993.97
2892.73
2819.46
2795.3
2826.64
2879.43
2909.95
2899.53
2902.96
2906.64
2913.86
2909.07
2902
2877.87
2861.26
2859.69
2863.4
2815.39
2753.58
2717.82
2755.4
2941.43
3032.66
2922.22
2851.76
2747.85
2748.22
2780.33
2794.89
2796.75
2808.65
2828.25
2830.95
2790.75
2758.78
2725.53
2696.02
2664.42
2667.25
2668.76
2687.06
2715.24
2729.41
2749.42
2745.02
2755.8
2750.61
2796.68
2826.17
2879.87
2888.66
2873.97
2731
2614.42
2617.48
2667.91
2703.6
2663.13
2717.15
2854.74
2798.9
2777.51
2735.8
2746.24
2747.07
2642.2
2578.6
2499.3
2544.81
2626.81
2657.01
2650.27
2664.82
2670.72
2672.45
2675.81
2686.25
2676.64
2668.48
2654.55
2633.37
2629.42
2636.23
2651.04
2678.38
2664.41
2631.38
2655.23
2646.83
2656.17
2729.18
2698.79
2697.59
2686.3
2679.76
2691.27
2712.67
2708.62
2694.67
2675.94
2662.1
2645.87
2638.32
2617.78
2604.05
2595.8
2645.25
2731.69
2784.48
2798.79
2789.46
2763.85
2751.79
2750.28
2765.03
2788.14
2800.15
2815.65
2836.1
2854.12
2830.94
2642.84
2583.27
2616.48
2702.16
2679.71
2633.56
2611.72
2627.29
2641.85
2639.09
2643.35
2627.64
2619.07
2597.12
2584.99
2570.33
2570.45
2568.12
2642.43
2632.88
2511
2528.12
2632.26
2635.58
2643.27
2634.34
2629.64
2636.48
2644.51
2628.32
2389.28
2165.57
2291.78
2421.48
2499.34
2740.86
2661.55
2536.28
2536.91
2557.75
2588.11
2552.38
2518.95
2496.32
2503.32
2502.21
2522.06
2518.08
2510.58
2510.07
2553.44
2671.99
2742.17
2663.7
2543.98
2656.23
2704.92
2598.93
2854.91
2796.36
2713.78
2679.48
2687.01
2661.71
2690.78
2828.49
2560.38
2576.35
2603.29
2304.34
2258.69
2242.48
2282.84
2291.77
2303.94
2310.01
2282.65
2297.19
2293.19
2301.56
2308.85
2364.17
2455.83
2577.52
2688.97
2698.45
2566.77
2511.06
2660.66
2910.48
2617.83
2472.11
2400.55
2414.72
2437.66
2711.81
2492.97
2401.75
2627.49
2876.98
2826.32
2884.11
2970.44
3015.13
3019.12
2992.32
2946.41
2949.45
2962.56
2675.73
2817.88
2806.39
2647.68
2792.5
2842.28
2675.3
2599.99
2565.5
2625.72
2786.7
2820.71
2789.11
2771.73
2755.53
2762.72
2774.83
2822.82
2872.65
2848.2
2465.32
2623.15
2866.69
2889.84
2980.79
3030.82
3028.84
3002.87
3024.56
2905.21
2847.72
2933.85
2743.67
2677.64
2734.52
2819.34
2853.1
2857.48
2868.85
2833.95
2639.72
2601.18
2518.02
2528.5
2533.45
2562.82
2573.73
2629.69
2674.87
2898.42
2929.41
2934.98
2929.45
2890.38
2816.46
2871.49
2952.13
3065.46
3080.57
3091.16
3070.74
3044.16
2972.4
2861.1
2767.32
2760.03
2876.78
2978.88
2990.79
3017.33
2836.59
2680.22
2685.47
2769.59
2928.74
2963.2
2802.63
2639.35
2550.37
2545.52
2655.81
2939.86
2712.98
2553.6
2300.1
2348.61
2715.64
2896.84
2669.46
2611.22
2614.12
2666.15
2727.3
2800.84
2869.94
2990.95
3075.33
3104.19
3124.16
3107.19
3088.99
2984.39
2829.97
2704.57
2668.84
2699.65
2717.21
2595.7
2560.06
2829.83
3048.98
3000.78
3009.92
3011.35
2867.67
2574.29
2554.58
3054.53
2935.05
2989.14
3056.12
3118.8
3127.81
3091.28
3101.66
3104.84
3030.85
2951.08
2980.27
3060.88
3027.78
2920.19
2781.12
2684.43
2651.14
2646.28
2699.27
2757.6
2801.04
2830.35
2826.36
2793.16
2736.94
2681.04
2643.68
2670.06
2765.98
2896.82
2967.69
2980.72
2978.64
2978.78
2971.05
2980.35
2982.5
2985.61
2970.78
2933.28
2867.26
2807.06
2742.86
2620.38
2566.95
2516.19
2475.08
2498.2
2672.02
2944.63
2952.57
3004.12
3011.47
2954.05
2919.87
2921.79
2910.7
2895.57
2877.19
2874.83
2883.2
2905.59
2919.89
2923.9
2916.44
2870.39
2837.12
2838.31
2849.98
2866.71
2811.63
2768.68
2840.39
3002.35
2973.64
2873.81
2765.79
2745.5
2761.02
2783.74
2783.42
2788.4
2799.46
2815.35
2828
2802.96
2776.5
2756.97
2729.69
2701.41
2662.03
2652.16
2658.07
2684.85
2675.72
2713.61
2701.5
2744.28
2758.26
2803
2855.59
2872.38
2865.62
2754.08
2636.89
2597.78
2593.4
2622.09
2683.96
2786.58
2876.43
2815.26
2758.09
2732.56
2718.23
2713.44
2731.79
2697
2610.36
2493.81
2479.94
2511.57
2592.32
2653.19
2653.54
2646.5
2653.02
2655.52
2646.29
2645.58
2637.17
2627.45
2630.84
2638.72
2652.19
2653.93
2642.24
2621.33
2638.11
2672.07
2663.24
2732.23
2733.67
2711.41
2704.61
2695.98
2703.1
2731.97
2745.16
2738.05
2721.55
2715.08
2700.85
2690.68
2668.01
2652.48
2617.92
2615.53
2647.63
2730.99
2816.45
2825.71
2790.1
2764.11
2753.4
2762.31
2775.89
2794.1
2817.84
2834.36
2844.87
2817.46
2716.34
2614.46
2610.98
2655.46
2705.83
2680.28
2644.2
2634.15
2651.2
2675.74
2669.85
2670.53
2663.77
2661.03
2646.36
2642.67
2615.32
2601.78
2576.81
2610.09
2651.99
2488.45
2447.93
2485.12
2504.44
2517.12
2498.75
2508.6
2520.79
2503.77
2415.97
2237.67
2125.43
2209.4
2369.86
2484.74
2663.18
2671.73
2562.6
2509.91
2539.69
2558.71
2571.08
2534.84
2515.03
2507.17
2505.84
2520.53
2520.71
2509.63
2511.57
2563.45
2681.09
2746.13
2674.52
2536.11
2622.58
2736.16
2627.26
2893.61
2754.91
2683.48
2684.09
2680.64
2671.47
2814.73
2610.71
2457.82
2451.12
2744.21
2408.05
2232.5
2223.95
2220.9
2264.68
2275.78
2290.18
2300.19
2292.57
2292.82
2307.13
2337.03
2403.71
2510.39
2639.1
2737.54
2717.54
2555.26
2504.64
2702.42
2893.01
2592.95
2450.4
2413.1
2439.5
2475.28
2503.36
2474.46
2509.82
2695.13
2897.44
2878.31
2926.04
2993.37
3016.01
3001.55
2966.05
2942.57
2953.69
2903.39
2641.56
2836.33
2778.56
2620.29
2739.58
2906.07
2785.63
2658.66
2621.34
2694.04
2867.2
2838.33
2822.39
2813.3
2817.84
2830.56
2858.51
2885.4
2675.72
2373.94
2507.86
2830.65
2892.59
2886.42
2947.95
2985.65