/*--------------------------------*- C++ -*----------------------------------*\
| =========                 |                                                 |
| \\      /  F ield         | OpenFOAM: The Open Source CFD Toolbox           |
|  \\    /   O peration     | Version:  2.1.1                                 |
|   \\  /    A nd           | Web:      www.OpenFOAM.org                      |
|    \\/     M anipulation  |                                                 |
\*---------------------------------------------------------------------------*/
FoamFile
{
    version     2.0;
    format      ascii;
    class       volScalarField;
    location    "0.004150000";
    object      Tu;
}
// * * * * * * * * * * * * * * * * * * * * * * * * * * * * * * * * * * * * * //

dimensions      [0 0 0 1 0 0 0];

internalField   nonuniform List<scalar> 
12384
(
1427.16
1382.29
1333.67
1298.56
1279.28
1250.53
1253.49
1245.51
1298.61
1326.53
1325.87
1163.75
701.487
353.372
277.28
410.937
468.097
488.314
491.679
481.767
489.222
491.685
501.853
514.742
533.36
547.376
553.748
555.371
552.179
559.05
552.684
575.771
574.16
599.678
623.74
607.651
520.546
466.065
507.256
513.288
477.701
354.847
292.152
275.3
568.974
584.985
593.105
587.571
574.84
573.181
542.119
553.292
515.807
518.87
491.55
475.145
483.164
474.818
487.723
488.826
484.55
477.204
459.584
425.194
396.532
453.92
556.333
669.446
640.162
619.701
551.982
436.486
338.239
280.319
270
270
270
270
270
270
270
270
270
270
270
270
270
270
270
270
286.016
270
337.943
368.586
375.104
398.994
394.517
455.841
490.805
509.294
514.214
519.883
524.601
525.463
356.139
363.914
358.348
342.44
320.874
299.988
270
282.824
270
270
270
270
270
270
270
270
270
270
270
270
270
282.73
270
270
280.011
316.057
304.072
298.123
297.239
294.365
270
270
270
270
270
270
270
270
270
270
270
270
270
284.087
316.066
323.843
342.268
341.218
331.717
316.631
300.488
300.158
304.048
319.126
330.993
348.875
361.242
352.288
340.895
370.049
308.994
294.975
270
270
270
304.986
321.309
316.373
310.724
290.906
290.811
270
270
270
270
270
270
270
270
270
270
270
270
270
270
270
270
270
270
270
529.705
466.291
378.566
306.801
298.929
431.479
456.274
447.518
453.102
453.349
459.95
444.279
443.474
419.342
434.254
424.945
431.525
429.061
430.623
424.849
422.089
413.105
407.777
396.889
396.76
382.163
384.835
368.405
372.614
343.254
447.479
453.892
420.915
312.071
270
304.956
408.203
422.328
418.497
425.986
418.863
431.622
426.905
446.081
463.918
472.925
478.233
488.222
494.156
500.654
502.728
501.871
495.241
480.941
452.767
404.162
380.057
418.247
459.064
400.215
562.745
554.312
538.021
601.016
673.124
625.353
605.16
597.838
618.119
659.336
698.963
736.324
753.09
759.342
735.968
712.106
652.576
597.506
581.27
506.569
512.455
435.682
445.257
383.459
392.85
354.663
361.635
343.006
349.853
365.651
443.051
538.372
615.62
626.576
595.747
573.606
547.249
527.249
515.298
504.551
500.368
495.664
488.883
482.206
469.78
456.35
436.492
413.216
374.747
352.195
297.734
298.621
296.992
272.377
367.101
369.383
416.854
421.724
418.13
413.32
328.404
387.152
577.311
574.58
545.355
542.216
543.222
528.964
522.513
498.677
494.322
461.979
460.687
436.226
432.988
411.452
414.803
386.106
400.505
384.068
395.098
400.722
400.502
361.974
312.245
378.084
446.199
458.756
442.558
433.859
334.508
439.476
535.103
536.135
514.415
497.86
421.868
401.608
361.066
343.019
324.915
306.023
304.427
298.155
303.535
310.522
342.809
353.102
375.627
387.627
390.677
396.383
392.151
370.468
407.052
361.034
389.805
354.62
348.629
337.43
1274.29
1257.71
1231.56
1203.68
1189.88
1138.05
1148.01
1091.88
1153.83
1198.65
1303.55
1249.83
891.769
443.176
280.196
484.982
474.769
416.997
354.9
319.27
316.684
335.015
365.135
395.823
433.911
463.058
482.483
493.831
498.977
509.464
515.519
539.13
555.214
578.5
607.999
613.123
575.314
501.038
483.325
499.232
507.425
405.152
314.293
270
569.965
605.918
547.596
534.813
551.138
572.587
586.128
591.898
573.533
566.131
542.764
514.571
502.012
487.117
478.439
474.43
470.404
463.221
449.403
429.863
405.303
399.99
417.383
505.647
609.817
661.749
643.48
558.036
388.152
285.446
270
270
270
270
270
279.111
288.236
293.879
298.946
296.08
292.478
282.897
276.371
280.352
270
286.501
300.746
314.112
354.135
362.872
389.842
392.295
389.933
412.965
448.427
497.952
512.028
518.308
522.297
523.879
358.258
324.698
295.843
281.594
270
270
270
270
270
270
270
270
270
270
270
270
270
270
280.424
290.377
296.449
303.526
293.819
279.494
280.6
306.134
318.467
314.604
294.335
279.866
270
270
270
270
270
270
270
270
270
270
270
278.559
284.597
317.136
330.795
364.691
365.406
374.401
362.022
357.286
345.375
353.529
359.333
371.994
390.804
399.918
397.134
384.941
360.94
366.371
312.496
293.58
270
270
294.564
317.919
313.552
289.882
270
270
270
270
270
270
270
270
270
270
270
270
270
270
270
270
270
270
270
270
270
270
537.626
429.985
334.17
279.927
378.037
427.57
423.581
411.421
391.356
388.562
373.809
353.495
335.738
330.849
329.321
339.963
355.474
374.444
388.424
396.382
390.512
387.884
374.118
378.248
377.403
382.672
372.347
378.491
366.758
336.767
442.422
395.44
270
270
297.39
373.685
377.096
400.532
402.382
390.802
402.964
411.644
418.479
438.475
452.475
472.035
487.639
495.144
501.602
502.318
503.772
506.767
510.166
506.752
483.408
464.849
408.456
356.27
403.964
416.811
559.691
540.021
528.703
626.038
653.193
624.934
596.398
582.435
600.902
636.449
680.446
713.752
736.396
740.843
718.718
686.726
615.986
542.865
527.137
425.397
432.865
350.595
378.165
327.676
354.127
327.696
342.26
333.82
338.535
369.491
501.624
547.28
623.475
618.173
616.443
612.734
585.983
563.47
543.432
537.336
524.597
512.722
499.77
481.645
464.785
447.373
430.083
393.456
348.522
310.468
270
270
270
270
297.226
332.123
377.476
400.885
413.651
417.212
373.229
480.518
578.573
561.634
547.164
556.843
552.869
551.586
538.115
519.362
505.649
477.357
473.842
443.188
446.275
415.876
419.214
395.843
407.618
406.56
410.906
448.389
448.284
457.865
394.468
348.282
360.197
431.773
475.916
453.991
345.514
481.543
538.427
521.379
482.09
423.701
350.218
316.81
342.956
358.623
397.6
423.723
467.561
487.629
520.613
529.627
551.463
561.42
573.64
574.491
575.27
564.255
545.19
496.298
443.094
298.851
363.596
362.668
371.696
352.705
1243.36
1206.65
1170.74
1152.39
1148.84
1133.53
1134.96
1086.3
1086.95
1092.45
1238.19
1276.55
1048.55
537.306
364.319
482.074
390.327
270
270
270
270
270
321.888
375.74
421.815
457.776
479.433
493.613
494.702
502.962
504.473
509.546
521.42
549.454
581.588
604.186
600.882
544.204
491.009
485.901
518.47
461.531
354.777
296.729
584.592
517.883
427.276
430.083
492.635
549.868
583.769
585.98
575.917
537.013
510.856
475.693
464.715
452.347
452.742
453.639
452.142
444.871
434.169
412.447
401.081
375.095
378.752
392.658
493.672
599.458
689.552
644.868
471.877
310.527
270
270
270
290.368
308.058
316.875
321.472
316.513
309.568
304.625
296.521
291.995
289.75
281.564
299.661
289.271
328.014
318.217
367.754
374.137
393.976
400.555
381.336
384.741
405.711
462.712
500.99
516.422
519.099
516.749
270
270
270
270
270
294.379
270
305.606
270
295.715
270
272.525
270
270
270
270
272.481
272.955
304.003
312.266
328.409
335.109
322.93
300.872
286.016
299.705
330.241
336.934
320.385
286.869
270
270
270
270
270
270
270
270
270
270
270
270
278.349
306.706
306.955
332.013
350.685
349.709
353.885
353.321
355.569
365.283
377.578
397.625
416.777
436.461
439.037
417.904
386.161
378.695
323.382
293.39
270
279.277
319.246
311.676
281.6
270
270
270
270
270
270
270
270
270
270
270
270
270
270
270
270
270
270
270
270
270
270
270
503.181
383.004
306.974
319.953
416.439
409.386
390.2
356.032
348.623
338.305
339.271
319.281
301.628
273.393
270
270
272.911
293.601
324.96
344.319
358.67
343.134
346.386
364.166
384.726
371.621
364.949
360.124
358.288
327.486
421.561
298.534
270
276.973
308.74
344.949
366.915
352.307
375.34
370.526
365.532
386.364
405.091
425.089
440.709
456.224
481.076
500.94
505.089
502.475
494.958
486.982
483.455
479.496
476.768
457.541
429.697
379.211
330.081
427.875
542.401
518.308
534.94
635.894
643.749
613.365
581.991
563.253
575.062
606.67
648.427
685.835
697.306
695.985
657.904
584.434
521.146
399.579
350.69
270
270
270
270
270
270
270
282.509
299.872
321.742
361.549
517.926
582.138
616.898
622.685
638.757
626.844
592.411
561.496
539.829
525.326
521.676
514.132
499.619
476.906
450.381
426.146
390.228
323.829
270
270
270
270
270
270
270
273.198
320.403
361.552
392.565
406.186
396.854
550.042
574.268
562.141
570.988
574.575
579.899
562.342
556.832
521.519
515.058
476.699
472.859
438.085
434.876
398.745
401.586
371.734
387.75
388.46
396.921
453.692
455.353
509.291
481.359
471.704
396.036
358.615
456.951
465.076
362.529
501.886
527.953
487.525
405.093
364.706
397.908
423.909
469.481
476.506
512.591
517.127
527.692
535.632
554.379
561.163
586.02
595.558
610.164
613.056
610.263
595.422
583.848
539.891
532
464.024
373.594
325.671
394.368
397.526
1184.87
1087.74
1010.73
982.531
980.97
1007.14
1064.92
1064.27
1076.33
1061.46
1171.69
1271.03
1125.73
607.605
515.667
476.118
315.016
270
270
270
283.989
359.755
420.818
475.185
520.203
542.317
562.675
578.417
575.543
567.137
545.744
534.125
525.07
528.238
560.858
589.174
605.525
575.291
515.833
483.11
521.661
509.794
402.034
292.516
592.784
453.425
370.113
393.53
500.155
570.057
575.466
556.019
523.949
472.085
444.989
418.759
415.894
421.229
429.18
436.726
435.594
432.382
411.738
396.824
377.77
367.708
356.998
358.453
405.635
522.866
660.292
696.117
549.418
331.059
270
276.201
309.263
319.697
323.028
322.722
318.978
314.737
305.011
298.517
292.824
287.887
278.047
290.722
279.346
306.632
308.157
335.558
352.556
378.521
389.21
395.723
386.608
364.915
376.628
425.23
474.436
500.093
515.074
512.219
270
270
270
275.815
300.807
319.643
327.41
356.545
337.578
365.217
335.164
344.361
317.238
310.077
307.883
283.823
300.303
311.339
324.156
345.893
357.788
351.492
348.289
331.588
305.028
295.09
311.125
338.312
332.076
290.907
270
270
270
270
270
270
270
270
270
270
270
270
270
270
296.352
307.313
332.169
356.064
364.985
378.476
388.859
398.199
412.812
422.505
435.743
460.875
467.795
449.787
412.289
391.631
327.857
287.208
270.199
308.494
322.068
293.482
270
270
270
280.879
278.018
274.231
270
270
270
270
270
270
270
270
270
270
270
270
270
270
270
270
270
270
478.328
361.573
314.966
379.993
398.837
397.224
352.289
337.877
342.665
376.577
367.207
354.365
325.645
310.672
270
270
270
270
270
301.626
320.023
326.297
329.008
367.254
375.549
370.808
337.242
355.509
347.773
309.779
362.783
270
270
270
319.605
302.539
323.266
343.911
327.081
362.119
362.433
363.948
392.033
414.424
426.106
431.239
443.518
474.429
501.562
506.205
486.987
459.814
451.449
456.34
436.443
432.097
432.982
415.356
343.315
407.175
524.102
488.125
545.597
626.989
637.47
613.758
594.098
592.814
585.702
594.938
617.894
648.95
666.478
649.545
573.871
492.17
375.941
270
270
270
270
270
270
270
270
270
270
270
295.016
360.641
516.829
593.081
608.97
633.528
653.315
631.029
589.965
553.121
524.406
502.375
493.985
504.714
492.883
465.545
428.722
391.401
320.177
270
270
270
270
270
270
270
270
298.556
316.506
319.967
357.118
383.01
417.305
570.497
573.092
577.433
589.966
586.799
578.575
564.162
534.6
528.144
494.236
478.474
442.391
419.106
395.746
366.351
364.681
336.432
350.41
348.655
372.973
425.276
454.049
501.578
522.652
525.097
491.099
421.616
401.221
480.343
375.022
503.462
514.573
424.553
392.072
430.938
482.141
502.757
531.35
520.94
516.625
521.901
519.177
525.787
551.743
547.298
582.09
597.786
614.22
624.072
618.672
605.714
590.757
536.717
515.592
487.071
456.802
337.891
371.351
418.435
1105.17
954.305
878.585
859.566
845.938
869.635
922.518
996.042
1055.76
1052.34
1143.17
1245.78
1183.42
670.796
574.474
456.528
270
270
270
303.505
399.461
472.478
533.416
561.176
584.632
623.888
649.374
682.048
684.262
661.003
625.586
572.966
555.914
521.072
553.005
577.919
603.925
592.886
533.911
499.61
515.333
528.832
429.611
329.693
594.166
455.871
352.983
378.17
520.482
571.671
556.312
498.831
452.823
415.253
401.791
403.408
416.085
429.399
434.994
436.754
430.101
416.47
388.821
377.027
348.713
351.558
341.183
347.034
360.965
446.934
597.9
710.157
611.331
362.48
272.791
323.37
336.853
335.217
332.019
329.615
321.632
315.101
305.578
298.997
297.618
292.8
295.316
281.43
295.545
283.779
315.301
312.815
353.431
366.273
381.022
393.633
375.439
364.652
361.687
400.034
438.995
471.298
505.352
515.574
270
270
270
284.985
283.465
302.681
303.516
339.569
337.002
390.181
363.585
388.943
362.221
358.733
343.726
327.055
350.976
334.523
369.973
371.549
382.262
391.548
374.629
345.043
320.981
312.471
322.184
345.873
348.029
307.763
270
270
270
270
270
270
270
270
270
270
270
270
270
270
283.569
318.835
332.352
368.12
398.405
412.338
416.198
421.732
413.492
426.739
441.782
463.155
483.311
468.408
425.602
395.302
317.928
286.105
300.388
322.869
308.254
270.591
270
270
276.892
284.838
272.846
272.097
270
270
270
270
270
270
270
270
270
270
270
270
270
270
270
270
270
270
454.908
321.471
356.391
373.975
406.655
360.979
336.176
337.873
372.532
373.159
389.22
371.314
374.797
334.598
315.601
270
270
270
270
270
305.605
298.836
332.669
358.302
374.423
344.886
322.458
341.4
343.675
299.018
328.007
270
270
270
270
302.232
281.516
305.872
327.564
317.485
375.383
389.177
388.094
401.686
409.325
405.267
397.253
410.543
448.777
470.335
458.45
436.612
421.205
417.236
409.167
409.317
423.967
407.164
366.936
354.84
492.367
480.739
580.837
624.37
630.444
618.059
623.457
620.422
630.497
597.623
600.402
618.434
622.13
580.297
513.695
373.863
270
270
270
270
272.748
270
270
270
270
270
270
270
270
346.701
495.17
582.661
601.648
636.341
654.202
641.285
604.988
550.873
511.57
492.344
472.068
490.584
484.787
444.648
407.216
345.072
270
270
270
270
270
270
270
270
270
304.641
324.621
310.759
317.769
349.241
433.127
567.403
571.873
588.625
597.084
591.67
578.401
544.048
537.244
503.611
500.554
458.771
432.379
394.317
379.191
348.221
352.392
328.871
340.871
325.178
364.789
378.43
439.922
479.475
520.976
540.97
524.946
476.265
360.586
478.85
376.401
502.019
475.56
382.335
441.511
495.427
531.694
533.647
547.558
511.604
508.188
507.264
509.984
499.608
543.019
538.248
558.68
588.913
607.611
624.242
628.613
616.93
598.205
543.878
511.128
480.316
498.519
416.391
369.616
456.301
1037.19
866.768
837.487
827.197
823.563
820.916
858.512
946.462
1021.85
1056.59
1145.66
1248.1
1234.32
742.173
543.718
385.674
270
270
287.429
391.252
469.138
519.659
543.012
570.134
599.536
639.128
706.62
720.626
718.468
688.837
634.53
594.113
551.861
534.935
550.364
576.231
614.45
599.614
565.308
502.7
516.145
546.775
483.842
355.079
595.263
474.189
348.7
369.826
528.262
568.7
517.955
447.522
403.185
383.664
398.485
411.221
426.555
433.887
435.102
422.437
402.341
387.327
350.31
342.776
318.259
325.691
325.73
333.317
344.086
401.045
547.924
708.466
635.284
372.337
317.487
353.658
350.161
345.624
340.547
332.213
326.554
316.63
310.176
310.681
302.65
305.597
297.568
306.143
286.839
297.276
293.796
318.625
326.262
368.005
357.427
389.021
357.126
348.488
349.455
379.24
411.69
453.022
488.154
519.452
270
270
270
270
270
270
270.297
293.997
316.256
375.536
374.451
402.07
399.882
390.496
388.585
370.996
368.712
381.117
390.391
397.006
414.283
402.07
386.462
371.206
343.088
318.442
322.188
345.571
354.08
300.596
270
270
270
270
270
270
270
270
270
270
270
270
270
270
294.068
312.001
349.483
369.523
404.227
412.494
415.502
410.554
422.628
421.512
438.53
461.032
483.045
470.909
425.896
391.346
319.911
278.417
285.758
307.955
292.896
270.758
270
270.374
282.616
284.867
280.906
270
270
270
270
270
270
270
270
270
270
270
270
270
270
270
270
270
270
270
397.509
333.428
343.377
397.559
374.839
357.205
321.834
339.261
366.603
409.148
380.503
385.24
354.784
367.131
332.325
304.908
270
270
270
270
281.142
297.573
324.106
359.734
353.636
325.271
318.876
347.02
340.912
297.144
270
270
270
270
270
270
276.426
270
295.156
317.257
314.294
372.916
398.974
378.648
362.575
366.073
359.361
358.051
380.059
420.182
436.026
413.947
384.465
382.649
395.824
403.018
399.603
406.31
377.556
318.989
454.78
428.408
551.148
614.782
628.795
635.229
661.498
660.13
654.269
628.047
571.394
590.221
582.722
539.672
424.516
299.289
270
274.589
296.927
286.747
270
270
270
270
270
270
270
270
270
366.221
456.886
556.906
585.061
630.544
644.616
632.949
618.579
568.312
497.852
484.116
461.483
481.436
468.491
427.483
388.133
301.457
270
270
270
270
270
270
270
270
270
285.788
314.961
304.092
276.977
309.808
430.339
552.54
568.235
581.223
594.438
596.542
560.04
545.178
506.099
510.191
484.954
467.693
423.817
391.126
366.499
348.861
350.327
357.362
370.292
368.127
360.141
357.618
412.894
455.443
502.821
528.901
540.018
503.202
394.29
467.463
385.473
489.133
439.643
414.782
489.514
533.59
551.705
543.719
524.161
517.824
493.45
497.734
509.599
513.572
518.65
560.027
544.811
575.572
594.032
611.538
627.876
624.69
606.946
563.821
498.915
475.018
490.96
451.647
359.959
457.748
992.646
838.948
827.541
847.891
846.683
846.58
876.823
958.129
1062.13
1125.3
1203.51
1255.98
1262.27
839.224
478.01
305.705
270
270
346.111
409.559
458.108
490.131
507.008
516.024
544.407
602.036
663.922
724.398
705.578
672.867
625.344
580.935
560.981
544.649
561.404
594.421
613.274
620.411
577.527
535.57
533.303
578.54
508.272
371.856
575.322
486.44
354.343
358.626
539.798
553.235
489.681
412.973
393.434
382.166
388.865
406.014
404.583
401.176
389.365
382.598
352.273
355.155
327.906
323.403
315.796
311.046
323.603
327.024
340.828
374.91
512.954
704.953
647.276
395.34
345.7
368.422
362.139
353.668
344.578
333.506
325.987
315.612
304.298
307.355
295.958
299.205
305.643
296.204
301.136
279.007
306.164
295.64
335.723
342.345
358.002
354.219
335.916
325.068
342.551
373.576
425.865
462.658
488.753
511.772
270
270
270
270
270
270
270
270
275.136
336.096
364.087
398.821
396.527
406.311
397.115
378.782
405.908
402.233
410.369
425.045
415.572
404.998
390.666
363.197
347.001
335.531
340.24
360.476
366.72
314.79
270
270
270
270
270
270
270
270
270
270
270
270
270
279.381
289.642
328.473
354.865
390.57
396.894
406.273
394.051
403.57
397.659
412.066
433.431
466.402
483.073
462.231
418.073
384.96
299.253
272.303
307.981
305.844
277.277
270
271.505
286.858
294.503
290.585
279.916
270
270
270
270
270
270
270
270
270
270
270
270
270
270
270
270
270
270
270
408.071
286.26
358.176
361.21
371.515
318.543
313.929
316.929
370.958
365.064
374.733
342.337
348.688
337.867
352.578
321.641
270.675
270
270
270
274.589
289.406
323.612
348.298
338.376
289.974
336.046
354.656
335.99
300.802
270
270
270
270
270
270
270
270
270
290.414
286.061
270
308.164
349.22
320.244
297.123
292.225
301.556
338.425
384.847
395.893
376.695
358.766
378.067
377.66
418.902
460.044
459.452
380.712
321.241
440.777
414.912
520.589
578.394
626.664
655.981
690.97
670.436
672.412
638.961
558.644
562.55
570.352
493.284
381.945
270
270
272.297
304.671
270
270
270
270
270
270
270
270
270
270
364.022
438.166
520.579
564.178
617.056
625.471
620.321
618.284
570.346
492.147
469.677
451.332
478.885
452.823
417.668
365.479
279.167
270
270
270
270
270
270
270
270
270
270
289.568
284.517
270
283.008
408.704
526.947
544.324
568.61
606.173
565.705
558.89
519.646
518.616
485.969
489.767
469.263
435.613
386.482
355.54
348.223
354.272
385.423
406.786
400.377
394.858
355.566
385.165
431.391
480.925
514.757
533.182
517.876
399.668
461.763
384.017
480.983
385.411
456.967
521.651
550.577
559.06
541.586
513.327
515.861
507.386
504.113
513.818
551.712
528.206
568.213
562.746
564.591
583.93
599.748
617.149
628.478
616.583
588.252
505.128
469.186
472.974
454.065
391.678
488.583
953.953
825.654
836.661
884.629
913.038
948.246
1021.5
1101.72
1133.45
1111.05
1089
1184.97
1241.93
864.561
311.679
271.843
270
306.924
353.933
385.205
407.02
415.171
429.598
449.981
472.029
512.814
586.249
675.457
704.22
693.347
637.661
613.8
575.345
579.141
600.121
616.076
656.549
641.171
600.415
548.534
559.683
577.685
555.555
424.123
559.724
482.46
364.563
352.289
531.987
549.661
469.008
413.87
388.649
379.834
380.288
380.267
385.751
380.688
378.99
384.425
374.013
368.855
330.349
323.29
300.658
309.908
316.724
326.497
337.054
368.661
503.119
711.213
645.826
391.547
368.564
385.398
372.671
358.702
342.496
332.802
322.838
309.884
295.156
293.159
273.835
278.947
288.361
280.148
295.105
270
302.697
301.107
318.453
335.948
319.047
329.271
289.1
316.005
340.444
406.142
434.994
365.785
402.923
489.003
270
270
270
270
270
270
270
270
270
279.299
333.919
372.263
392.697
384.528
392.706
411.464
401.597
412.492
423.502
415.418
408.414
401.645
382.155
374.447
363.923
353.807
356.064
382.367
368.933
301.441
270
270
270
270
270
270
270
270
270
270
270
270
270
270
298.286
314.757
350.272
380.122
396.322
382.459
405.274
424.795
439.924
439.107
454.3
471.935
479.182
445.479
399.004
383.065
279.219
271.472
296.973
297.742
285.143
286.572
305.854
311.498
315.635
296.754
292.446
277.438
282.431
272.808
284.772
270
270
270
270
270
270
270
270
270
270
270
270
270
270
270
330.962
283.787
304.925
370.753
347.961
328.941
291.325
315.28
329.799
359.51
335.976
329.789
310.339
326.817
337.072
338.975
289.956
270
270
270
270
292.947
317.421
344.189
315.042
300.108
339.858
375.734
357.115
277.318
270
270
270
270
270
270
270
270
270
270
282.656
283.119
270
275.095
303.943
286.487
270
270
307.637
374.185
395.009
369.456
364.844
352.168
391.846
464.57
512.447
519.975
487.623
323.713
339.279
385.172
538.357
601.622
645.003
666.068
695.579
676.17
658.741
648.688
543.52
551.994
543.466
470.568
352.763
270
270
287.309
282.488
290.353
270
270
270
270
270
270
270
270
311.089
409.472
408.465
491.096
550.404
590.47
617.355
615.531
585.219
561.855
472.021
462.696
443.881
467.303
439.286
404.107
353.83
292.225
270
270
270
270
270
270
270
270
270
270
276.005
282.804
270
291.228
388.874
495.831
514.797
568.084
558.934
582.711
540.331
541.901
499.076
497.759
479.293
478.92
454.937
407.544
372.937
368.925
378.02
416.975
442.921
436.271
423.691
378.929
369.202
417.466
471.069
514.967
528.795
506.763
387.261
421.359
392.763
468.953
392.428
484.265
540.563
560.381
550.76
544.829
513.303
525.48
507.759
539.992
546.088
576.834
565.864
580.96
579.182
569.724
577.213
589.784
606.461
628.846
622.781
597.595
509.857
443.43
438.032
411.549
439.982
470.219
950.001
812.711
839.539
910.792
992.484
1082.96
1136.3
1078.87
920.299
828.746
763.857
918.721
1086.88
902.913
670.967
506.428
315.547
270
295.336
308.972
336.869
345.892
360.038
367.081
375.609
382.758
397.364
440.177
495.722
585.442
664.537
682.551
679.433
659.28
640.922
649.869
645.752
678.071
674.38
654.708
602.459
575.153
569.736
616.61
594.172
484.483
488.875
476.78
505.723
442.856
359.178
349.952
498.299
559.849
466.582
416.923
392.288
380.678
375.04
373.413
378.643
392.051
402.945
419.181
422.44
417.346
379.538
348.412
324.443
304.518
312.708
323.606
337.311
372.003
536.285
697.879
478.796
292.353
330.964
335.249
357.513
369.44
367.204
357.505
341.102
329.503
323.826
308.681
288.435
277.803
270
277.248
271.455
277.124
286.709
286.79
304.365
292.837
312.387
291.084
298.693
270
293.134
333.179
389.51
365.127
294.844
301.076
342.132
364.877
286.047
270
270
270
270
270
270
270
270
270
270
270
271.394
321.719
346.485
379.149
385.724
388.973
394.374
412.106
400.221
402.386
402.346
388.463
386.073
382.249
372.489
368.888
380.334
388.38
359.398
302.914
270
270
270
270
270
270
270
270
270
270
270
270
270
270
270
283.801
302.351
357.869
390.203
373.804
367.089
396.459
429.604
453.735
455.717
457.424
470.758
471.179
457.417
420.668
393.03
385.315
330.992
283.891
281.795
270
291.159
279.899
281.672
302.084
315.521
327.188
337.377
326.642
320.51
307.215
302.646
301.267
307.019
292.177
270
270
270
270
270
270
270
270
270
270
270
270
270
270
270
274.572
308.056
270
282.375
324.189
352.054
309.468
290.092
271.895
292.465
306.718
324.384
303.326
299.099
303.491
327.568
335.771
292.111
270
270
270
270
294.678
315.61
338.478
288.762
312.239
374.523
362.351
348.176
303.632
270
270
273.894
270
270
270
270
270
270
270
270
270
270
270
270
284.274
270
270
270
270
283.757
349.869
376.229
363.476
349.411
334.139
420.288
473.875
470.332
487.252
508.589
466.733
286.256
487.156
364.913
384.122
494.049
593.035
658.909
698.462
707.275
688.908
666.277
635.449
531.777
553.544
547.494
467.993
343.582
270
270
270
295.725
302.699
285.115
270
270
270
270
270
270
324.697
406.631
459.507
393.102
372.503
270
403.935
512.421
577.823
595.486
589.559
576.41
507.967
458.927
438.75
450.808
455.61
419.072
400.468
360.054
312.392
270
270
270
270
270
270
270
270
270
270
290.677
270
270.904
298.668
466.841
323.957
306.792
419.915
500.371
514.261
557.621
526.824
552.076
521.618
517.979
493.62
486.5
489.419
477.613
425.1
382.63
383.931
387.639
404.897
436.459
436.395
412.739
368.791
372.686
430.471
485.055
511.836
513.618
468.284
362.144
379.911
364.933
375.786
395.835
438.378
428.733
510.045
555.129
559.698
555.713
541.247
535.674
523.79
531.482
558.302
563.6
602.606
575.224
599.653
580.526
578.329
577.872
579.45
599.557
626.617
623.323
612.944
540.971
452.445
435.944
404.204
388.005
432.38
616.559
620.517
917.142
799.864
816.676
911.08
1020.29
1129.82
1188.73
1120.34
893.464
657.767
528.82
608.637
777.353
842.785
612.471
381.394
270
270.03
277.496
316.626
317.858
324.943
340.55
353.344
362.85
369.528
374.262
374.299
408.513
474.876
567.989
651.113
676.228
680.81
686.86
675.071
699.792
691.913
685.677
655.211
628.065
604
617.554
622.643
616.083
547.174
515.995
501.964
506.089
459.132
398.795
362.291
458.112
565.367
478.082
426.774
397.196
383.141
377.647
379.271
376.784
379.39
395.867
423.755
447.29
456.996
405.127
354.187
335.405
313.345
315.323
322.897
343.828
420.72
610.028
574.205
328.926
302.36
341.031
345.256
360.682
362.583
362.868
358.609
344.835
330.209
324.844
313.316
289.234
270
270
270
270
270
271.278
270
285.988
270
283.366
270
270
272.309
304.162
367.011
345.692
298.05
270
270
270
273.89
270
270
270
270
270
270
270
270
270
270
270
270
270
270
306.946
324.709
341.761
368.263
382.675
378.743
395.298
400.64
394.903
399.491
398.983
393.948
395.344
398.375
401.226
389.817
342.612
270
270
270
270
270
270
270
278.768
274.067
270
270
270
270
270
270
272.926
273.082
309.79
350.312
386.64
419.266
408.089
393.525
414.353
438.959
460.158
461.667
461.371
454.904
424.661
403.46
395.261
369.536
302.422
279.781
276.141
281.411
299.086
298.522
302.026
320.872
351.44
341.897
336.762
326.589
326.961
309.48
320.046
308.95
326.789
310.595
290.745
270
270
270
270
270
270
270
270
270
270
270
270
270
270
270
283.156
270
270
317.152
329.672
330.311
278.288
270
270
270
276.543
271.932
281.438
298.732
321.406
326.44
281.112
270
270
270
270
308.909
310.297
337.093
275.937
322.796
362.192
388.829
356.242
332.232
270
273.331
310.816
270
270
270
270
270
270
270
270
270
270
270
270
270
270
270
270
270
297.247
357.002
383.43
352.785
345.831
341.435
428.864
461.748
466.597
458.145
478.406
554.885
523.279
520.331
371.898
453.866
600.36
676.546
728.44
735.277
716.979
694.997
681.946
604.106
548.836
558.455
535.749
462.3
357.697
270
270
270
292.796
332.83
313.521
339.364
355.851
365.554
364.538
377.447
390.95
417.234
395.338
371.74
337.758
336.338
294.778
426.186
505.863
555.85
571.548
570.332
541.435
457.626
430.788
410.52
450.623
433.26
409.129
404.532
379.795
330.737
293.828
270
270
270
270
270
270
270
270
270
270
279.904
271.707
393.082
412.98
370.231
319.561
410.374
455.301
521.215
523.136
548.148
524.205
547.686
521.085
504.498
496.94
500.563
505.827
459.132
400.22
405.29
425.087
399.447
414.217
419.397
395.941
378.118
419.752
469.272
495.637
465.883
368.319
316.404
345.357
371.863
387.851
396.702
404.294
388.264
461.393
531.308
558.631
566.093
555.058
552.238
543.695
534.089
559.009
581.958
585.855
598.826
575.214
593.504
584.89
594.652
566.448
579.749
603.313
620.296
627.686
627.123
578.75
482.21
426.573
447.202
509.207
597.779
655.162
665.41
936.231
797.292
807.938
878.188
1013.16
1146.43
1218.61
1223.49
1069.29
747.739
496.248
423.371
470.862
601.149
414.452
291.498
270
292.3
279.216
313.557
320.498
346.812
351.467
364.443
369.21
371.3
366.73
365.315
364.161
386.692
436.87
517.951
587.019
643.107
648.343
682.82
675.929
675.721
658.27
640.94
606.415
596.945
585.388
591.458
579.021
554.848
524.419
507.995
504.91
459.95
431.498
393.454
410.019
552.758
505.979
440.515
413.948
397.549
383.025
373.729
362.272
355.673
351.38
387.976
436.372
477.636
450.644
386.643
339.953
328.091
325.305
337.606
385.401
516.302
609.49
433.861
275.511
303.182
338.391
343.352
348.486
345.757
350.331
354.663
351.548
336.805
327.473
324.177
310.51
301.259
270
270
270
270
270
270
270
270
270
270
270
293.812
351.097
345.37
299.185
270
270
270
270
270
270
280.406
287.334
270
270
270
270
270
270
270
270
270
270
270.923
283.697
297.893
324.482
344.157
355.754
378.73
398.314
399.021
411.251
417.393
414.337
413.316
410.793
405.371
393.702
357.687
285.863
270
270
270
270
270
270
276.134
296.184
282.378
270
270
270
270
270
278.849
270
287.395
326.503
364.06
399.012
413.45
414.077
420.862
428.415
443.575
460.802
459.244
439.613
420.032
401.506
399.376
383.819
338.166
288.602
275.422
279.403
295.32
302.303
297.498
307.969
319.837
326.44
331.244
336.131
315.975
301.362
297.563
294.193
304.895
321.298
326.082
304.351
270
270
270
270
270
270
270
270
270
270
270
270
270
270
270
270
270
270
270
316.71
309.697
300.495
270
270
270
270
270
282.271
302.556
332.54
307.716
270
270
270
270
270
311.874
300.343
343.549
305.27
338.467
367.481
370.828
364.051
317.51
317.48
324.828
275.045
270
270
270
270
270
270
270
270
270
270
270
270
270
270
270
270
270
314.529
372.547
381.161
356.498
344.108
341.453
414.623
459.272
454.525
443.464
474.069
487.67
515.615
482.667
463.761
583.836
680.95
729.02
754.793
752.555
728.252
700.524
651.28
580.674
556.077
570.72
535.98
468.258
360.795
289.353
270
270
289.577
336.917
339.571
350.79
364.535
418.481
375.678
361.301
336.288
325.556
319.17
308.022
299.182
285.212
310.349
436.771
507.111
539.469
552.166
544.651
488.25
418.369
407.753
421.849