/*--------------------------------*- C++ -*----------------------------------*\
| =========                 |                                                 |
| \\      /  F ield         | OpenFOAM: The Open Source CFD Toolbox           |
|  \\    /   O peration     | Version:  2.1.1                                 |
|   \\  /    A nd           | Web:      www.OpenFOAM.org                      |
|    \\/     M anipulation  |                                                 |
\*---------------------------------------------------------------------------*/
FoamFile
{
    version     2.0;
    format      ascii;
    class       volScalarField;
    location    "0.003650000";
    object      G;
}
// * * * * * * * * * * * * * * * * * * * * * * * * * * * * * * * * * * * * * //

dimensions      [0 0 0 0 0 0 0];

internalField   nonuniform List<scalar> 
12384
(
1
1
1
1
1
1
1
1
1
1
1
1
1
1
1
0.998841
0.997873
0.997984
0.997642
0.995069
0.990882
0.981652
0.969121
0.973423
0.94076
0.975476
0.97208
0.988567
0.995018
0.997443
0.999235
0.99969
0.999921
0.999986
0.999999
1
1
1
1
0.999996
0.999995
0.999997
1
1
1
1
0.999998
0.999782
0.992014
0.947145
0.821903
0.733888
0.597325
0.6745
0.763407
0.937162
0.996364
0.99988
0.999999
1
1
1
1
1
1
1
1
1
1
0.999999
0.999999
1
1
1
0.999994
0.99956
0.99715
0.988825
0.964262
0.916224
0.823436
0.724551
0.604015
0.504507
0.440123
0.397701
0.37011
0.371367
0.332958
0.318708
0.30104
0.284377
0.266693
0.266035
0.278934
0.33215
0.458038
0.663343
0.916427
0.999368
0.999972
0.999994
1
1
0.999899
0.9959
0.98586
0.969355
0.939751
0.888192
0.81249
0.714052
0.616616
0.519604
0.457691
0.401517
0.420982
0.423808
0.475082
0.508483
0.554166
0.613238
0.685632
0.751228
0.841738
0.887229
0.942717
0.967478
0.987413
0.996568
0.999565
0.999988
0.999999
1
1
0.999643
0.997343
0.994073
0.984149
0.952388
0.872169
0.795101
0.774014
0.892163
0.893994
0.848519
0.676147
0.59705
0.504707
0.426068
0.346688
0.29627
0.277242
0.261152
0.530998
0.795081
0.957485
0.968121
0.993411
0.999071
0.999993
0.999928
0.999991
1
1
0.999234
0.990311
0.986311
0.994319
0.993734
0.98798
0.963364
0.583432
0.270683
0.337545
0.538303
0.709652
0.769419
0.82132
0.81887
0.817979
0.80807
0.798383
0.758378
0.712309
0.625198
0.52152
0.448144
0.413112
0.445975
0.778697
0.990369
0.999998
1
1
0.999998
0.999938
0.99996
0.999987
1
1
1
1
1
1
1
1
1
1
1
0.999991
0.999229
0.991082
0.975405
0.957145
0.961018
0.985027
0.998839
0.999993
1
1
1
1
1
1
1
1
1
1
1
1
1
1
1
1
1
1
1
1
1
1
1
1
1
1
1
1
1
1
1
1
1
1
1
1
1
1
1
1
1
1
1
1
1
1
1
1
1
1
1
1
1
1
1
1
1
1
1
1
1
1
1
1
1
1
1
1
1
1
1
1
1
1
1
1
1
1
1
1
1
1
1
1
1
1
1
1
1
1
1
1
1
1
1
1
1
1
1
1
1
1
1
1
1
1
1
1
1
1
1
1
1
1
1
1
1
1
1
1
1
1
1
1
1
1
1
1
1
1
1
1
1
1
1
1
1
1
1
1
1
1
1
1
1
1
1
1
1
1
1
1
1
1
1
1
1
1
1
1
1
1
1
1
1
1
1
1
1
0.999852
0.995506
0.999771
0.999756
0.999818
0.999847
0.999655
0.999385
0.998017
0.995107
0.977572
0.94738
0.857553
0.705055
0.622413
0.539599
0.58114
0.646015
0.688505
0.793428
0.885646
0.982928
0.997399
0.99867
0.991169
0.918754
0.685177
0.485072
0.997709
1
1
0.999988
0.998713
0.962368
0.441344
0.0774299
0.00564083
0.00262878
0.00132623
0.00100398
0.00110492
0.00191871
0.00644936
0.154238
0.749633
0.990881
0.999888
0.999997
1
1
1
0.999999
0.999999
0.999989
0.999771
0.975137
0.783806
0.74202
0.851802
1
0.999253
0.899326
0.724143
0.478706
0.23205
0.0870638
0.028584
0.00952148
0.00345614
0.0015244
0.000769092
0.000442347
0.000297392
0.000241266
0.000252335
0.000293776
0.000389896
0.000510276
0.000651257
0.000847571
0.00110586
0.00145618
0.00198071
0.00298642
0.00873388
0.101274
0.535707
0.855659
0.96344
0.999999
0.995069
0.751943
0.509672
0.253928
0.084129
0.0203813
0.00367284
0.000579009
7.60852e-05
1.0826e-05
1.33709e-06
2.50371e-07
4.83892e-08
1.42677e-08
8.03217e-09
8.34713e-09
1.81346e-08
7.44511e-08
4.85387e-07
3.39314e-06
2.90948e-05
0.000178196
0.00103941
0.00355109
0.0131896
0.0361295
0.0956163
0.255044
0.512852
0.999683
0.998699
0.601724
0.366765
0.266249
0.278451
0.271411
0.713668
0.784707
0.566198
0.133249
0.124565
0.120218
0.107337
0.0758273
0.0391907
0.0172106
0.00680951
0.00272303
0.00114698
0.000642599
0.000478385
0.000520148
0.00073406
0.00124002
0.00237063
0.0409167
0.233316
0.0418507
0.0890192
0.976972
0.999961
0.866986
0.677505
0.60336
0.535292
0.420617
0.270169
0.0359096
0.00336027
0.0102893
0.0682992
0.128853
0.175059
0.203413
0.223381
0.230969
0.226929
0.215249
0.200051
0.191824
0.193527
0.204348
0.196848
0.0969563
0.0101248
0.000895142
0.00168538
0.0104319
0.228325
0.999995
0.999982
0.499997
0.276148
0.245238
0.280512
0.399727
0.413182
0.16573
0.0124728
0.00269481
0.0686758
0.613404
0.262387
0.0517037
0.0135155
0.00652056
0.00476603
0.00487963
0.00615519
0.00957077
0.0182594
0.0390957
0.0904478
0.213539
0.400095
0.71481
0.960438
0.999461
0.999997
1
1
1
1
1
1
0.997136
0.812726
0.182176
0.0257183
0.00340421
0.00106678
0.00149792
0.00263026
0.00762537
0.0172702
0.0793588
0.25062
0.592102
0.852369
0.988539
0.99994
1
1
1
1
1
1
1
1
1
1
1
1
1
1
1
1
0.964352
0.389474
0.00981017
0.000587211
1.14258e-05
1.10071e-06
7.23953e-07
6.23856e-08
9.02937e-08
5.84336e-08
9.707e-07
1.96457e-06
8.43953e-06
1.01212e-05
1.65778e-05
6.07964e-06
1.13434e-05
0
1
1
1
1
1
1
1
1
1
1
1
1
1
1
1
1
1
1
1
1
1
0.999996
0.999761
0.617434
1
0
0
1
1
1
1
1
1
1
1
1
1
1
1
1
1
1
1
0.951063
0.781177
0.340969
0.723546
1
1
1
1
1
1
1
1
1
1
1
1
1
1
1
1
1
1
1
1
1
1
1
1
0.0914282
0.999326
1.14917e-07
0.999794
1
1
1
1
1
1
1
1
1
1
1
1
1
1
1
1
1
1
1
1
1
1
1
1
1
1
1
1
1
1
1
1
0.999999
1
0.994647
0.998954
0.998554
0.999669
0.999961
0.999982
0.99999
0.999984
0.999984
0.999975
0.999942
0.99986
0.998693
0.98531
0.920005
0.768631
0.69579
0.713782
0.757369
0.838073
0.916881
0.992324
0.999502
0.999865
0.997793
0.949761
0.618927
0.350689
0.974947
1
1
0.999479
0.978204
0.590065
0.0234282
0.00305318
0.00133216
0.000924633
0.000692018
0.000752727
0.00110295
0.00215959
0.00526156
0.0354946
0.361526
0.901418
0.997184
0.999957
0.999998
1
1
1
1
1
0.999995
0.994523
0.65821
0.548899
0.658156
0.999998
0.996526
0.756843
0.635349
0.358245
0.137741
0.0414488
0.0104659
0.00323533
0.0012028
0.000519319
0.000318873
0.00021231
0.000182409
0.00019353
0.000229943
0.000402034
0.000644578
0.00101203
0.00145499
0.00214554
0.00300542
0.00357627
0.00344713
0.00277123
0.00272618
0.0107759
0.109033
0.513851
0.848488
0.999912
0.98731
0.578944
0.342916
0.166953
0.0649606
0.0204761
0.00549599
0.00113788
0.000188898
2.79976e-05
3.84921e-06
4.86693e-07
9.39827e-08
1.6041e-08
5.80098e-09
3.03533e-09
3.00677e-09
7.33039e-09
4.79033e-08
5.59422e-07
8.42851e-06
8.27571e-05
0.000653032
0.00253065
0.00877912
0.0234541
0.054007
0.125511
0.216703
0.989656
0.958887
0.365112
0.323215
0.33284
0.821148
0.887848
0.532597
0.128228
0.104555
0.0968158
0.0937449
0.0815397
0.0566116
0.0322035
0.0169749
0.00988017
0.00614209
0.00381633
0.00244552
0.00160943
0.00130534
0.00125221
0.00141064
0.00177306
0.00256483
0.00388883
0.0654703
0.115477
0.0623353
0.867229
0.995812
0.568117
0.53837
0.435536
0.321095
0.227261
0.0645086
0.0103025
0.0232269
0.0780539
0.088229
0.0957136
0.104044
0.113027
0.118075
0.118803
0.117609
0.111809
0.110271
0.120102
0.141819
0.175038
0.218366
0.236292
0.0769102
0.0021731
0.000258268
0.000808266
0.0186972
0.98373
0.987384
0.170984
0.0954159
0.0936534
0.153638
0.222853
0.171351
0.0189897
0.00105846
0.00603799
0.506656
0.36099
0.0654612
0.0119692
0.00361592
0.00130785
0.000799515
0.000677197
0.000782119
0.0011581
0.00198144
0.00398039
0.0107
0.0395953
0.134884
0.334164
0.664765
0.961625
0.99483
1
1
1
1
1
0.97228
0.653698
0.183346
0.00944813
0.00111324
0.000508392
0.0012647
0.0126587
0.100528
0.366735
0.656477
0.770507
0.793388
0.791524
0.849726
0.926643
0.985001
0.999519
1
1
1
1
1
1
1
1
1
1
1
1
1
1
0.999998
0.962359
0.40933
0.0160886
0.000367555
6.11467e-06
4.36407e-07
1.382e-07
4.45817e-07
6.09046e-06
0.000247553
0.00256548
0.01876
0.0833402
0.315725
0.676731
0.962112
0.999725
1
1
1
1
1
1
1
1
1
1
1
1
1
1
1
1
1
1
1
1
1
1
1
1
0.999998
1
1
1
1
1
1
1
1
1
1
1
1
1
1
1
1
1
1
0.999814
0.990603
0.999669
0.999995
1
1
1
1
1
1
1
1
1
1
1
1
1
1
1
1
1
1
1
1
1
1
1
1
1
0.999984
0.9999
0.789783
1
1
1
1
1
1
1
1
1
1
1
1
1
1
1
1
1
1
1
1
1
1
1
1
1
1
1
1
1
1
1
1
1
1
0.999917
0.999147
0.993461
0.997746
0.999832
0.999955
0.999975
0.999974
0.999982
0.999989
0.999995
0.999995
0.999993
0.999972
0.999096
0.977292
0.853249
0.801095
0.770115
0.840816
0.891227
0.979071
0.998947
0.999986
0.999979
0.998447
0.88215
0.397485
0.217119
0.889952
1
0.999999
0.924872
0.313106
0.00801167
0.00263856
0.00161366
0.00134731
0.00157954
0.00237557
0.00428228
0.0225758
0.107035
0.104471
0.0881629
0.229314
0.742188
0.978188
0.999223
0.99995
0.999996
1
1
1
1
0.999998
0.98855
0.473061
0.346939
0.4403
0.999976
0.991317
0.727798
0.427224
0.120086
0.0162585
0.0028649
0.000988083
0.00052177
0.000397517
0.000318708
0.000246684
0.000222917
0.000195899
0.000217335
0.000402029
0.000546007
0.00131002
0.00245551
0.00377268
0.0054401
0.00778085
0.009768
0.00906795
0.00571525
0.00306327
0.004261
0.029187
0.230569
0.642633
0.997768
0.972617
0.457589
0.341091
0.236781
0.142868
0.0714458
0.0272609
0.00869462
0.00225208
0.000537141
0.000119397
2.51545e-05
4.07666e-06
6.96353e-07
1.40734e-07
5.083e-08
2.70239e-08
3.02665e-08
7.82423e-08
6.2123e-07
9.91198e-06
9.51736e-05
0.000801072
0.00302953
0.00912229
0.0207565
0.0355435
0.0620446
0.077296
0.928042
0.836359
0.308327
0.340621
0.84422
0.5733
0.156483
0.110002
0.0853469
0.0735978
0.0652743
0.0521868
0.0311086
0.0146237
0.00712591
0.00454232
0.00389644
0.00465337
0.00703712
0.00699529
0.00763721
0.00705996
0.00675125
0.00537636
0.0048836
0.0043985
0.0048139
0.00587024
0.133015
0.041099
0.790255
0.965359
0.305435
0.318747
0.254717
0.193627
0.080683
0.0171286
0.0230622
0.0552633
0.0617539
0.0619845
0.0676895
0.0727309
0.0779176
0.076675
0.0737028
0.0659014
0.0485548
0.0303177
0.0387181
0.0841753
0.154575
0.209084
0.240841
0.12155
0.00284664
0.000183685
0.000269444
0.00259134
0.805238
0.96812
0.0600589
0.0191692
0.0223568
0.0742299
0.131832
0.0639603
0.00200882
0.00033939
0.0217849
0.387053
0.122081
0.0201865
0.00459738
0.00119152
0.000497551
0.00028147
0.000252842
0.000282628
0.000364226
0.000562986
0.000952042
0.00209785
0.00888335
0.0437207
0.150532
0.378726
0.710158
0.919591
1
1
0.999981
0.68812
0.611724
0.413355
0.133802
0.0152734
0.000815702
0.000206682
0.00113809
0.0245364
0.290271
0.529831
0.551454
0.469756
0.410547
0.376233
0.400563
0.477116
0.601623
0.738348
0.870791
0.957032
0.997533
1
1
1
1
1
1
1
1
1
1
1
1
0.997216
0.702519
0.213253
0.029147
0.00566684
0.000372786
0.00011042
0.000153539
0.00325925
0.034734
0.14209
0.216547
0.255414
0.295335
0.350563
0.441402
0.571789
0.711284
0.833356
0.940062
0.993309
0.999936
1
1
1
1
1
1
1
1
0.999968
0.886305
0.939553
0.993559
0.999343
0.999952
0.999994
0.999999
0.999999
0.999998
0.999981
0.999988
0.991532
0.999986
0.998744
1
1
1
1
1
1
1
1
1
1
1
1
1
1
1
0.995431
0.997242
0.999439
0.999468
0.997972
0.99899
1
1
1
1
1
1
1
1
1
1
1
1
1
1
1
1
1
1
1
1
1
1
1
1
1
1
0.999996
1
1
1
1
1
1
1
1
1
1
1
1
1
1
1
1
1
1
1
1
1
1
1
1
1
1
1
1
1
1
1
1
1
1
0.996365
0.999947
0.992362
0.999279
0.999901
0.999728
0.996487
0.993001
0.993839
0.999331
0.999944
0.999992
0.999993
0.999927
0.998298
0.937489
0.850935
0.755566
0.841921
0.877549
0.969755
0.998831
0.999993
0.999999
0.999975
0.985175
0.53196
0.0726117
0.0323733
0.457903
0.999996
0.999758
0.172923
0.00850524
0.00335973
0.0024621
0.00269602
0.0042069
0.00944302
0.0283713
0.491053
0.869765
0.907642
0.771832
0.440969
0.390336
0.661479
0.935678
0.9924
0.99907
0.999872
0.999996
1
1
1
0.999988
0.843436
0.270747
0.202268
0.307643
0.999677
0.988674
0.569006
0.143164
0.0103809
0.00161701
0.000631499
0.000490273
0.000550467
0.000668477
0.000842968
0.00105356
0.00146668
0.00193879
0.00269744
0.00273551
0.00516892
0.00591899
0.0104264
0.0147127
0.0186961
0.0222821
0.0241517
0.0199107
0.0107246
0.00472592
0.00431837
0.0183806
0.141988
0.470659
0.989193
0.941193
0.486617
0.443697
0.322555
0.201689
0.105372
0.0505104
0.0206443
0.00966752
0.00437456
0.0021846
0.000840223
0.00032362
6.29028e-05
1.67105e-05
3.64877e-06
1.33888e-06
8.0971e-07
1.25434e-06
4.14278e-06
3.40584e-05
0.00021902
0.00125675
0.00425687
0.0108976
0.0184578
0.0215333
0.0286813
0.0278562
0.810593
0.664368
0.282951
0.531614
0.354976
0.153143
0.104469
0.0752627
0.0595072
0.0509261
0.0403735
0.0228984
0.00909023
0.0034701
0.00154516
0.000952806
0.00111782
0.00231378
0.00631657
0.0169109
0.0332068
0.0446661
0.0381601
0.0235833
0.0128995
0.00826611
0.00583678
0.00696756
0.113645
0.020739
0.703184
0.877846
0.168705
0.180039
0.15952
0.0951014
0.0267181
0.0190615
0.0387248
0.0479894
0.0494551
0.0548544
0.0591795
0.144478
0.110843
0.0578418
0.0517432
0.0384508
0.0122552
0.00294463
0.00302959
0.0196135
0.0965582
0.176152
0.207797
0.0838964
0.00277077
0.000113
0.000126317
0.000636129
0.421194
0.989689
0.0204675
0.00390156
0.00543134
0.0338384
0.0813897
0.0235229
0.000275031
0.00014423
0.0358165
0.171147
0.0440182
0.00980165
0.00262424
0.00103278
0.000485873
0.000314667
0.000232157
0.0002075
0.000213594
0.000274868
0.000460082
0.0007584
0.00209344
0.0128249
0.0742782
0.196031
0.328337
0.576284
0.999941
1
0.205799
0.0783337
0.119997
0.070557
0.0152553
0.00158001
0.00022041
0.00051293
0.0156962
0.242013
0.384319
0.33457
0.263627
0.240578
0.240484
0.268814
0.298606
0.332561
0.372559
0.393688
0.426829
0.494567
0.670196
0.943396
1
1
1
1
1
1
1
1
1
1
0.994939
0.814734
0.341552
0.153867
0.153694
0.0969148
0.0393255
0.033596
0.0634054
0.114852
0.113249
0.0915425
0.0713241
0.0606675
0.0591136
0.0670719
0.0894138
0.130261
0.188454
0.271744
0.384328
0.558239
0.721629
0.942891
1
1
1
1
1
1
0.752873
0.203149
0.152803
0.576632
0.848944
0.994537
0.999362
0.999984
0.999978
0.999906
0.998597
0.996504
0.974063
0.982207
0.895439
0.824842
0.997736
0.999991
1
1
1
1
1
1
1
1
1
1
1
1
0.999998
0.999945
0.999994
0.999999
0.999982
0.998123
0.998696
0.994185
0.99995
0.999882
0.999993
0.999999
1
1
1
1
1
1
1
1
1
1
1
1
1
1
1
1
1
1
1
0.999988
1
0.999999
1
1
1
1
1
1
1
1
1
1
1
1
1
1
1
1
1
1
1
1
1
1
1
1
1
1
1
1
1
1
1
1
1
1
0.999926
0.999971
0.99968
0.999934
0.999558
0.974894
0.830769
0.784413
0.916717
0.981553
0.997715
0.999229
0.998925
0.99073
0.931683
0.797995
0.69489
0.738173
0.848808
0.975204
0.999126
0.999998
1
0.999995
0.990728
0.558438
0.0407866
0.00247931
0.000577506
0.0397744
0.998719
0.941468
0.0086386
0.00401086
0.00367777
0.00458793
0.00841719
0.0181477
0.0520605
0.666316
0.985619
0.998945
0.997632
0.975706
0.800417
0.648392
0.775273
0.913083
0.980009
0.995103
0.999654
0.999995
1
1
0.999999
0.996129
0.272754
0.117706
0.119949
0.221079
0.995529
0.978933
0.335121
0.0334158
0.00472242
0.0011895
0.000580084
0.000448196
0.000422498
0.000465619
0.000625331
0.00097594
0.00179792
0.00345822
0.00733658
0.0170399
0.0243952
0.0461764
0.0504694
0.0645987
0.062595
0.0585559
0.0463128
0.0296458
0.0139128
0.00608219
0.00562323
0.0219848
0.127945
0.337945
0.967056
0.908567
0.551406
0.3798
0.24822
0.155301
0.0970222
0.0589068
0.040342
0.0241574
0.0170894
0.0095909
0.00583756
0.0024777
0.00113465
0.000360758
0.000153785
5.95953e-05
3.20926e-05
3.3952e-05
5.85414e-05
0.000208465
0.000723632
0.00241926
0.00629441
0.0113939
0.011966
0.00959344
0.0122513
0.0091311
0.700245
0.534656
0.220938
0.297355
0.147629
0.104464
0.0748621
0.0566204
0.0471125
0.0414507
0.0284182
0.0118372
0.00349588
0.00110108
0.00041055
0.000237291
0.000332331
0.00105372
0.00528053
0.0175419
0.0586983
0.118486
0.114655
0.0540911
0.0220034
0.0100741
0.00597075
0.0152479
0.0866222
0.0098371
0.672448
0.758365
0.109174
0.122414
0.103437
0.0371674
0.0161448
0.0223313
0.0381709
0.0428013
0.0491149
0.055457
0.118815
0.179525
0.257928
0.049939
0.0433321
0.0287165
0.00636563
0.000633175
0.000288177
0.00143746
0.0193323
0.0743326
0.0945577
0.0263606
0.0015127
0.000146152
0.000105335
0.000164565
0.167422
0.902767
0.00677598
0.00208877
0.00265751
0.0169293
0.0426849
0.0049006
3.46613e-05
4.67614e-05
0.0159994
0.0567495
0.0154116
0.00503854
0.0025256
0.001489
0.00124317
0.000999743
0.000650774
0.000323295
0.000197849
0.000193746
0.000303587
0.000584175
0.000918825
0.00219164
0.0195062
0.122495
0.14587
0.200847
0.996805
1
0.0162783
0.0061472
0.0114131
0.00858097
0.00202979
0.000358023
0.000324403
0.00845678
0.14288
0.255242
0.214772
0.16694
0.164242
0.187383
0.215196
0.239502
0.247079
0.234147
0.207632
0.169809
0.129221
0.118994
0.151105
0.32538
0.990869
1
1
1
1
1
1
1
1
0.986561
0.746955
0.455986
0.193601
0.311438
0.376231
0.32434
0.208568
0.143133
0.0859126
0.0561202
0.0309398
0.0208136
0.0148297
0.0139475
0.0146352
0.0191743
0.0263986
0.0351105
0.0505701
0.0565845
0.0792415
0.104447
0.152833
0.330248
1
1
1
1
1
0.971834
0.249231
0.0241266
0.0175599
0.140743
0.577289
0.948375
0.999128
0.999609
0.999235
0.993654
0.983713
0.915055
0.906792
0.661686
0.741049
0.326791
0.903107
0.893712
1
1
1
1
1
1
1
1
1
1
1
0.999355
0.999993
0.999998
1
1
1
0.999985
0.995824
0.9992
0.922539
0.982582
0.977852
0.989683
1
1
1
1
1
1
1
1
1
1
1
1
1
1
1
1
1
1
1
0.999991
1
1
1
1
1
1
1
1
1
1
1
1
1
1
1
1
1
1
1
1
1
1
1
1
1
1
1
1
1
1
1
1
1
1
1
1
0.999997
0.99999
0.999975
0.999896
0.985634
0.771865
0.558586
0.597469
0.696777
0.853922
0.884816
0.887978
0.800291
0.644575
0.561204
0.443182
0.673406
0.833446
0.989767
0.9999
0.999999
1
0.999838
0.899519
0.225831
0.00736702
0.000931306
0.000227449
0.000234493
0.00270614
0.970931
0.585895
0.00365948
0.00343212
0.00562994
0.00974365
0.0173725
0.0317649
0.113736
0.375281
0.921374
0.996188
0.999075
0.997547
0.970296
0.91648
0.909107
0.953289
0.985553
0.998021
0.99994
0.999996
0.999999
0.999998
0.999505
0.421249
0.0887604
0.0482863
0.0699116
0.159499
0.968995
0.934524
0.145221
0.0202623
0.00493226
0.00155629
0.000659079
0.000361261
0.000242612
0.000189873
0.000195725
0.000240779
0.000387547
0.000666958
0.00143932
0.00368064
0.0135507
0.0302494
0.0757974
0.0828281
0.0745683
0.0516658
0.0294892
0.014161
0.00759461
0.00560718
0.0117955
0.049358
0.143505
0.215595
0.917115
0.859762
0.373273
0.201863
0.119822
0.0834875
0.0624967
0.0507777
0.0434696
0.0393547
0.0325211
0.0291701
0.0224013
0.0171872
0.00864368
0.00407454
0.00124632
0.000645432
0.000386915
0.000339368
0.000442981
0.000822613
0.00172126
0.00344717
0.00616119
0.0065825
0.00424033
0.00338573
0.00461075
0.00263042
0.554174
0.440059
0.269489
0.129528
0.102024
0.0768132
0.0576964
0.0492463
0.0461422
0.0404722
0.024048
0.00821845
0.00202975
0.000552395
0.000182283
8.83328e-05
0.000123374
0.000437436
0.0024059
0.0103309
0.0234445
0.0567598
0.0647624
0.0375516
0.0154568
0.00774424
0.00494638
0.0387193
0.0304011
0.00400537
0.659857
0.623613
0.0881245
0.0988947
0.0597545
0.0188494
0.0158068
0.0298714
0.0369661
0.0443773
0.0545125
0.0634166
0.0652436
0.251635
0.278724
0.120358
0.0420963
0.0296435
0.0101118
0.0011395
0.000162152
0.00010544
0.000481124
0.00297945
0.00553827
0.00248078
0.000500995
0.000127839
5.7338e-05
3.97113e-05
0.0629628
0.125724
0.00279374
0.00111324
0.00251541
0.011645
0.0125138
0.000841714
6.30974e-06
7.56256e-06
0.00578102
0.0206356
0.00707175
0.0032892
0.0025564
0.00312211
0.00428552
0.00566972
0.0038256
0.00133846
0.000378826
0.000218166
0.000257124
0.000524072
0.0011175
0.00114509
0.00227753
0.0338824
0.0912696
0.0572825
0.991942
1
0.000928563
0.00126337
0.00145216
0.00134707
0.000435707
0.000267405
0.00192471
0.0577229
0.157019
0.130668
0.101253
0.106404
0.13542
0.182085
0.224225
0.249118
0.246219
0.217845
0.150633
0.0857839
0.042268
0.0258013
0.0253758
0.046386
0.622924
0.999989
1
1
1
1
1
1
0.96872
0.626898
0.384893
0.161183
0.265492
0.43604
0.4215
0.30296
0.171205
0.0917486
0.0439206
0.0236142
0.012566
0.0088703
0.00688936
0.00705716
0.00726353
0.00889406
0.0106973
0.0141471
0.0147416
0.017843
0.0163914
0.0176122
0.0209817
0.0521628
0.998261
1
0.999929
1
1
0.99709
0.559127
0.0835233
0.00490925
0.0184072
0.187456
0.753936
0.990594
0.997769
0.993792
0.967795
0.846278
0.789604
0.465704
0.502947
0.171243
0.243854
0.519615
0.567713
0.999032
0.99998
1
1
1
1
1
1
1
1
1
0.999798
0.999776
1
1
1
1
1
0.999989
0.999999
0.994576
0.963272
0.970488
0.812737
0.999908
0.999884
1
1
1
1
1
1
1
1
1
1
1
1
1
1
1
1
1
1
1
1
1
1
1
1
1
1
1
1
1
1
1
1
1
1
1
1
1
1
1
1
1
1
1
1
1
1
1
0.999999
0.999999
1
0.999999
0.999997
1
1
0.999925
0.999996
0.999959
0.998777
0.955448
0.716206
0.419424
0.374643
0.353975
0.30773
0.318076
0.247848
0.259808
0.260563
0.403864
0.687185
0.941685
0.998286
0.999929
0.999987
0.999693
0.944231
0.25397
0.0132105
0.00208494
0.0101074
0.0346234
0.0353461
0.00825971
0.00290307
0.849168
0.295195
0.00236771
0.00363726
0.00682638
0.0102105
0.0128989
0.0146081
0.0190427
0.0262211
0.0566169
0.360113
0.947649
0.990861
0.985851
0.981304
0.982154
0.98895
0.997122
0.999714
0.999965
0.999988
0.999934
0.994886
0.323309
0.0642324
0.026159
0.028389
0.072842
0.228653
0.930112
0.814561
0.066845
0.0123354
0.00361974
0.00133385
0.000561931
0.00027281
0.000145153
8.3877e-05
6.32214e-05
5.81003e-05
6.6881e-05
6.8067e-05
8.6277e-05
0.000121103
0.000212875
0.000624807
0.00146029
0.00341558
0.00369961
0.00318658
0.00237084
0.00211318
0.00261754
0.00627838
0.0251701
0.0749569
0.0979901
0.0796756
0.747039
0.745908
0.177565
0.074865
0.0375814
0.0248876
0.0214249
0.0210195
0.0228934
0.0252082
0.0282195
0.0302246
0.0323441
0.0340002
0.0328537
0.0272086
0.0144088
0.00483001
0.00187114
0.00101697
0.000957795
0.00112619
0.00158187
0.00217473
0.00218496
0.00132373
0.000786844
0.00106876
0.00137572
0.000710543
0.427564
0.332853
0.0974275
0.0884012
0.0736788
0.0596348
0.05153
0.0498502
0.0530824
0.0471237
0.0263887
0.00835291
0.00196835
0.000475891
0.00013866
5.20838e-05
5.11629e-05
0.000149859
0.000601072
0.00504097
0.00543578
0.0075263
0.00952737
0.00798812
0.00540368
0.00392921
0.0224624
0.00678133
0.00257164
0.000981392
0.484904
0.518689
0.0799201
0.0855272
0.0310113
0.0134781
0.0201272
0.032102
0.0408291
0.0537239
0.0686679
0.0752143
0.0732394
0.118027
0.386071
0.251334
0.0463872
0.0368047
0.0219152
0.00588422
0.000602209
6.44954e-05
3.73273e-05
5.45462e-05
0.000102408
0.000112164
9.29358e-05
6.31488e-05
3.60914e-05
6.13716e-05
0.0549618
0.0510707
0.00279827
0.00191141
0.002946
0.00496667
0.00290336
0.000151239
1.2157e-06
2.11906e-06
0.00137539
0.0123436
0.00464323
0.00268618
0.00279787
0.00491276
0.0119597
0.0327562
0.0375381
0.0103295
0.00161866
0.000433664
0.000308437
0.000531288
0.00140572
0.00195828
0.00109505
0.00436951
0.0605905
0.0199021
0.976211
0.995572
0.000661408
0.00029536
0.000280194
0.000214063
0.000148938
0.000370548
0.0107547
0.0797738
0.0758143
0.0542932
0.0559159
0.0812997
0.128011
0.19428
0.257993
0.301212
0.29874
0.232558
0.120692
0.0513283
0.0182362
0.00767269
0.00578072
0.008171
0.269715
0.982711
1
1
1
1
0.999989
0.999382
0.84414
0.352041
0.196497
0.0636639
0.317643
0.462966
0.401107
0.265994
0.137932
0.0701305
0.0322446
0.0182143
0.0101591
0.00803985
0.00640943
0.00707778
0.007086
0.0111152
0.0166481
0.023058
0.0252025
0.0191543
0.0132302
0.00847949
0.00781869
0.012885
0.861731
0.991244
0.474947
0.988981
0.999957
0.999787
0.960946
0.410836
0.0489558
0.00427433
0.0390496
0.268074
0.912227
0.971446
0.85938
0.700596
0.593559
0.390686
0.469524
0.26942
0.387987
0.232822
0.50445
0.491713
0.962413
0.993775
0.999999
1
1
1
1
1
0.999997
1
0.999999
0.999624
0.997984
0.999923
1
1
1
1
1
1
0.996161
0.991705
0.987856
0.705362
0.995305
0.99265
0.999974
1
1
1
1
1
1
1
1
1
1
1
1
1
1
1
1
1
1
1
0.999999
1
1
1
1
1
1
1
1
1
1
1
1
1
1
1
1
1
1
1
1
1
1
1
1
1
0.999979
0.999871
0.999914
0.999285
0.990889
0.977693
0.987761
0.999295
0.842848
0.999212
0.999963
0.99954
0.999253
0.99555
0.952003
0.756022
0.473173
0.271662
0.215256
0.162241
0.194109
0.255463
0.409863
0.655286
0.87531
0.97157
0.992248
0.993486
0.974986
0.739334
0.197545
0.00586923
0.00253371
0.00632569
0.027247
0.0604656
0.0544778
0.0325335
0.0135958
0.00386959
0.0265155
0.335442
0.351543
0.00832939
0.00370432
0.00508393
0.00501623
0.00382546
0.00292173
0.00275083
0.00344862
0.00506474
0.00914224
0.0160023
0.052204
0.412998
0.825899
0.884553
0.938759
0.972056
0.995029
0.998716
0.999001
0.994377
0.860289
0.0723478
0.0276517
0.0147941
0.0150571
0.0335886
0.147617
0.246988
0.236195
0.598603
0.40337
0.0130189
0.00968112
0.00460647
0.00196992
0.00083372
0.000300489
0.000117295
5.55863e-05
3.09837e-05
2.1726e-05
1.81884e-05
1.80282e-05
1.28067e-05
9.50593e-06
7.63975e-06
7.17881e-06
8.9755e-06
1.563e-05
3.35542e-05
5.97502e-05
9.34255e-05
0.000157939
0.000402949
0.00197764
0.0109066
0.0351894
0.0375877
0.0170452
0.00726691
0.00688283
0.332162
0.206259
0.0115514
0.0136373
0.00731487
0.00458843
0.00372938
0.0034912
0.00422674
0.00523001
0.00702404
0.00908679
0.0118074
0.0146221
0.0175927
0.0210633
0.0243959
0.0240136
0.0171012
0.00789108
0.00318702
0.00150993
0.00106847
0.000851959
0.000627084
0.00037454
0.000192187
0.000166009
0.000291781
0.000313642
0.000185866
0.00363988
0.119755
0.0790527
0.0215656
0.0520393
0.0571794
0.0542075
0.0504708
0.0505586
0.0559247
0.0611576
0.0563682
0.0350098
0.0126515
0.002867
0.000646063
0.000177569
5.31077e-05
2.59309e-05
4.27535e-05
0.000150126
0.000436979
0.00279433
0.00594491
0.00248844
0.00272951
0.00173402
0.00248578
0.00162583
0.000895237
0.000320884
0.000487525
0.019396
0.548873
0.507606
0.0840948
0.0746454
0.0724886
0.0209638
0.013346
0.0252212
0.0371511
0.0511283
0.0727998
0.0929947
0.0969779
0.0854922
0.0750778
0.353298
0.481615
0.0574128
0.0458265
0.0345282
0.0182397
0.00420466
0.000255985
4.98145e-05
2.80901e-05
3.90064e-05
5.84251e-05
6.28322e-05
3.93234e-05
3.59354e-05
9.20022e-05
0.000605958
0.0657333
0.0747507
0.00624151
0.00282445
0.00201374
0.00195614
0.00227948
0.000823322
3.17699e-05
2.82945e-07
5.1781e-07
0.000212431
0.010172
0.00581458
0.00281112
0.00291985
0.00544916
0.016443
0.0648994
0.14641
0.0712099
0.0088948
0.00146846
0.000634415
0.000718577
0.00173049
0.00383052
0.00154831
0.000972859
0.00836905
0.0185124
0.0216059
0.71481
0.758558
0.00070303
0.000124542
0.000127341
8.75253e-05
0.000126894
8.1359e-05
0.000868232
0.0228244
0.0533992
0.0287082
0.0229881
0.0336814
0.0590465
0.107288
0.184886
0.259536
0.302795
0.275098
0.173978
0.0738968
0.0285151
0.00934527
0.00331542
0.00219789
0.00266223
0.0866972
0.944235
0.999753
0.994924
0.140762
0.999924
0.901298
0.00813973
0.707887
0.897949
0.626962
0.16306
0.0741996
0.0249552
0.242572
0.397413
0.324658
0.203094
0.103885
0.0557652
0.0296886
0.0187671
0.0118089
0.0097703
0.00886609
0.0106066
0.0133378
0.0188957
0.0259247
0.0292307
0.0228377
0.0144229
0.00818449
0.00542811
0.00522209
0.010336
0.0399906
0.999832
0.999982
0.307106
0.696491
0.864128
0.916108
0.92844
0.924529
0.851895
0.370911
0.0194018
0.00700023
0.0300063
0.281078
0.610991
0.483132
0.254384
0.188792
0.179538
0.143498
0.302756
0.321344
0.490218
0.664524
0.655168
0.840263
0.926773
0.996466
0.999917
1
1
1
1
1
0.999963
0.999987
0.99988
0.997707
0.99365
0.982661
0.989699
0.99996
1
1
0.999999
0.999431
0.997338
0.766609
0.632789
0.856556
0.484997
0.981687
0.932358
0.996818
0.999752
1
1
1
1
1
1
1
1
0.999887
1
0.533063
0.000545664
0.999923
1
1
1
1
1
1
0.999965
0.999998
1
1
1
1
1
1
1
1
1
1
1
1
1
1
1
1
1
1
1
1
1
1
1
1
1
1
1
0.999353
0.99913
0.99969
0.998395
0.986181
0.963195
0.949439
0.957185
0.875017
0.979737
0.98904
0.990462
0.989502
0.985588
0.949729
0.829963
0.656049
0.485477
0.442694
0.389059
0.496937
0.492463
0.598268
0.560591
0.508336
0.331539
0.164753
0.0309583
0.00243949
0.00225103
0.00182911
0.00205282
0.00437
0.0132745
0.0224326
0.0183837
0.010826
0.00604762
0.00368258
0.00311945
0.00816791
0.0210847
0.0650035
0.00521089
0.00401524
0.00320623
0.00150048
0.00060266
0.000321837
0.000319787
0.000516318
0.000832349
0.00138507
0.0020393
0.00374963
0.00641435
0.048284
0.215417
0.526727
0.766749
0.883192
0.929842
0.739528
0.0709372
0.00854713
0.00498098
0.0069579
0.0126791
0.020715
0.0451727
0.110447
0.0760107
0.0188214
0.00657716
0.00470216
0.00591445
0.00621668
0.00321485
0.00140807
0.000589301
0.00017146
4.91805e-05
1.87364e-05
1.00199e-05
6.62691e-06
5.87311e-06
6.62394e-06
5.25562e-06
3.55903e-06
2.013e-06
1.7562e-06
1.65675e-06
2.20031e-06
3.5581e-06
7.54323e-06
2.53485e-05
0.000223654
0.00167888
0.00577681
0.00741727
0.00472615
0.00217466
0.00101539
0.000612349
0.00103269
0.00124701
0.00093437
0.00098885
0.000860662
0.000537592
0.000393157
0.000321991
0.000355172
0.000457875
0.000717615
0.0011809
0.00197284
0.00324826
0.00453041
0.00579082
0.00726514
0.00893708
0.0103971
0.0111983
0.00956466
0.0065634
0.00348618
0.00155179
0.000709137
0.000271453
9.45326e-05
5.28523e-05
5.61928e-05
0.000104296
9.0518e-05
0.000145326
0.00146362
0.0179662
0.0143619
0.0147641
0.0328847
0.0393752
0.044412
0.0486625
0.0539333
0.0647145
0.0765839
0.0739244
0.0534402
0.0234838
0.00617721
0.00133216
0.000346286
9.32168e-05
2.50059e-05
1.42369e-05
2.36288e-05
6.29519e-05
0.000149398
0.000252012
0.000341909
0.000397188
0.000362764
0.000245273
0.0001183
7.76575e-05
0.000388223
0.0159369
0.258751
0.32788
0.181908
0.0838955
0.0785148
0.0344926
0.0126707
0.014354
0.0307874
0.0473586
0.072146
0.108664
0.139511
0.13614
0.109778
0.085964
0.224863
0.662759
0.24234
0.0607532
0.0454704
0.0317831
0.0139561
0.00162248
0.000287667
9.43585e-05
7.64149e-05
5.10853e-05
4.28352e-05
4.23782e-05
5.87975e-05
0.000126625
0.000333105
0.00103385
0.00244205
0.00267192
0.00199399
0.00125859
0.00124632
0.000983316
0.000311822
9.14163e-06
1.50418e-07
1.2407e-07
1.45702e-05
0.00457806
0.0109176
0.00503614
0.00371296
0.00482005
0.0120852
0.0377703
0.100314
0.113853
0.0337006
0.00600112
0.00192888
0.0014405
0.0026073
0.00649375
0.00507544
0.000832425
0.0016818
0.0271039
0.00920504
0.0171928
0.00155837
2.25168e-05
0.00062189
0.0023901
0.00027445
3.29488e-05
0.000240308
0.00360118
0.0311818
0.0274621
0.0135683
0.0122696
0.0182068
0.034818
0.0618068
0.101566
0.139361
0.144286
0.114737
0.0613908
0.0285163
0.0129656
0.00475034
0.00198595
0.00139604
0.00155649
0.141729
0.935364
0.999474
0.966021
0.0373968
0.0772811
0.0317517
0.167057
0.734659
0.813403
0.462027
0.142988
0.0204598
0.008816
0.0493894
0.228124
0.205628
0.12726
0.0694524
0.0411492
0.0248333
0.0182907
0.01198
0.0104968
0.00879221
0.00922225
0.00843067
0.00804976
0.007092
0.00639051
0.00479102
0.00365729
0.00269154