/*--------------------------------*- C++ -*----------------------------------*\
| =========                 |                                                 |
| \\      /  F ield         | OpenFOAM: The Open Source CFD Toolbox           |
|  \\    /   O peration     | Version:  2.1.1                                 |
|   \\  /    A nd           | Web:      www.OpenFOAM.org                      |
|    \\/     M anipulation  |                                                 |
\*---------------------------------------------------------------------------*/
FoamFile
{
    version     2.0;
    format      ascii;
    class       volScalarField;
    location    "0.003650000";
    object      H2;
}
// * * * * * * * * * * * * * * * * * * * * * * * * * * * * * * * * * * * * * //

dimensions      [0 0 0 0 0 0 0];

internalField   nonuniform List<scalar> 
12384
(
0.00136581
0.00220275
0.00273463
0.00300549
0.0025904
0.00182839
0.00113046
0.000644923
0.000314948
0.000149023
5.47118e-05
5.73978e-05
0.000300916
0.000368006
7.39926e-06
1.15099e-05
4.00914e-05
8.71172e-05
0.000137744
0.000169764
0.000188413
0.00017723
0.000161548
0.000151861
0.000118555
0.000118565
0.000109345
0.000103238
0.000112943
0.000105782
0.00011217
0.000103832
0.000100235
9.78929e-05
0.000102199
9.82645e-05
8.2881e-05
5.03275e-05
2.8438e-05
1.16964e-05
9.66674e-06
1.49845e-05
0.000127973
0.000712796
0.00038214
0.00032205
0.000197445
0.000151331
0.000116517
9.55882e-05
8.16417e-05
7.56716e-05
6.98104e-05
7.46467e-05
7.96035e-05
0.000107963
0.000152347
0.000224959
0.000369957
0.000733834
0.00159806
0.00250279
0.00283457
0.00303925
0.00296435
0.00272737
0.00241077
0.00196735
0.00151184
0.000762979
0.000294068
6.35745e-05
2.61254e-05
3.29839e-05
0.00125381
0.0012899
0.00128919
0.00130956
0.00131714
0.00168793
0.00192576
0.00214782
0.00224926
0.00221749
0.00226229
0.00223035
0.00208766
0.00192658
0.00169338
0.00107616
0.00109303
0.00085223
0.000658701
0.00049904
0.000403967
0.000315094
0.000234004
0.000194155
0.000220507
0.00192985
0.00186015
0.000611023
0.000214523
0.00011167
0.000877939
0.00101698
0.00141828
0.00179129
0.00198255
0.00198462
0.00191936
0.00171338
0.00145406
0.0010675
0.000982794
0.000687592
0.000780314
0.000603834
0.000741756
0.000781055
0.000849015
0.000904157
0.0009923
0.00105225
0.00192452
0.00199962
0.00283119
0.00268024
0.00245392
0.00167671
0.000786327
0.0003766
9.45993e-05
0.000106097
4.48568e-05
6.40601e-05
0.000125704
0.000295365
0.000469028
0.000837978
0.00190573
0.00304067
0.00479098
0.00607832
0.0074505
0.00837588
0.00911045
0.00943815
0.00960671
0.00965565
0.00973646
0.00958384
0.00957544
0.00961059
0.00923561
0.00930684
0.00901769
0.00890297
0.00875144
0.00838287
0.00683704
0.000510513
3.18104e-05
2.25276e-05
0.000230494
0.000161432
0.000145891
0.000514304
0.00623232
0.0138437
0.0145003
0.0034723
3.65801e-05
9.60279e-06
1.14794e-05
3.19019e-05
7.14329e-05
0.000144861
0.000373421
0.00053199
0.000941748
0.00101476
0.00100538
0.000613906
0.000316383
0.000123652
4.27712e-05
1.59808e-05
5.63889e-06
2.21715e-06
1.8319e-06
3.07894e-06
5.61112e-06
8.17939e-06
1.3405e-05
1.86133e-05
3.01905e-05
4.34529e-05
6.98771e-05
0.000114531
0.000142079
7.76078e-05
1.65949e-05
3.66748e-06
3.77811e-06
4.24469e-05
0.00252419
0.0116032
0.0151151
0.0170463
0.0202486
0.0203557
0.0203909
0.0203964
0.0203706
0.0203889
0.0202265
0.0199509
0.0169599
0.0120821
0.00469085
8.37165e-05
9.85159e-06
1.2584e-05
6.22876e-06
4.28191e-06
3.2283e-06
2.5105e-06
3.85377e-06
8.53732e-06
1.57989e-05
1.56149e-05
9.47556e-06
9.1543e-06
8.08718e-06
8.34957e-06
9.10892e-06
9.68954e-06
8.65677e-06
8.10106e-06
8.61726e-06
1.02355e-05
1.08469e-05
1.08754e-05
1.12421e-05
1.10248e-05
1.11247e-05
8.6568e-06
9.87582e-06
1.03898e-05
1.24034e-05
1.66446e-05
3.57843e-05
0.000129823
1.38578e-05
1.3287e-05
2.28791e-05
4.91148e-05
7.92052e-05
8.36914e-05
4.46841e-05
1.41475e-05
4.4394e-06
2.24354e-06
1.7027e-06
2.10836e-06
3.0087e-06
5.71107e-06
8.22834e-06
9.4384e-06
9.91425e-06
1.20485e-05
1.14909e-05
1.26792e-05
1.41105e-05
1.09582e-05
1.5551e-05
1.08871e-05
1.13764e-05
1.04862e-05
1.04662e-05
1.01657e-05
1.69365e-05
4.86835e-05
1.3766e-06
1.36684e-06
1.50411e-06
1.71307e-06
2.26138e-06
2.85405e-06
5.0242e-06
8.20371e-06
1.19766e-05
1.31431e-05
1.5372e-05
1.55919e-05
1.27559e-05
1.12802e-05
9.15977e-06
7.4951e-06
5.75288e-06
4.39163e-06
4.40159e-06
2.71051e-06
3.01592e-06
3.8668e-06
4.74151e-06
6.12179e-06
9.02597e-06
1.30084e-05
2.2188e-05
3.90179e-05
6.14291e-05
8.68141e-05
1.24946e-06
1.16869e-06
1.35703e-06
2.08927e-06
2.68811e-06
3.91704e-06
5.4793e-06
6.93322e-06
8.00388e-06
7.21605e-06
8.01155e-06
6.75566e-06
6.99772e-06
9.21875e-06
7.52942e-06
4.67483e-06
3.9582e-06
3.65435e-06
3.79823e-06
2.93689e-06
3.13562e-06
3.61035e-06
4.31107e-06
5.30167e-06
6.65991e-06
1.09193e-05
1.91146e-05
3.7578e-05
5.9172e-05
7.13884e-05
4.51388e-06
6.01024e-06
5.07764e-06
5.85461e-06
1.55221e-05
6.85595e-06
4.46465e-06
3.59364e-06
4.72248e-06
3.95241e-06
4.29234e-06
6.1486e-06
6.95334e-06
9.10054e-06
1.22884e-05
1.19465e-05
1.04598e-05
8.47176e-06
7.47903e-06
5.4069e-06
4.87464e-06
5.99721e-06
8.57609e-06
7.50134e-06
6.22909e-06
7.55309e-06
1.04405e-05
1.8437e-05
2.99973e-05
2.83626e-05
0.0132381
0.0185326
0.0204533
0.0210605
0.0212654
0.0200616
0.0165822
0.0103407
0.00437955
0.0011386
0.000254725
6.79577e-05
6.18992e-05
0.000225674
8.07939e-06
7.25688e-05
0.000484316
0.000953548
0.00169993
0.00252853
0.00318371
0.00351753
0.00359221
0.00320024
0.0023755
0.0014766
0.000832898
0.00041522
0.000272858
0.000176019
0.000157703
0.000140114
0.000125102
0.000116313
0.000112463
0.000138293
0.000147998
0.000112501
5.15047e-05
1.99573e-05
1.05155e-05
1.44624e-05
0.000117098
0.000722099
0.000370399
0.000325237
0.000218009
0.000157765
9.89939e-05
7.33178e-05
5.409e-05
5.04684e-05
4.90355e-05
5.13594e-05
5.77642e-05
6.80542e-05
8.81031e-05
0.000144165
0.000250498
0.000505907
0.0010659
0.00213881
0.00306788
0.00394055
0.0042482
0.00448869
0.00407749
0.00330654
0.0022796
0.000980824
0.000268238
7.03669e-05
2.65235e-05
3.48193e-05
0.00127201
0.00100504
0.00147438
0.00283696
0.00393949
0.00442998
0.00429369
0.00394523
0.00362083
0.00342496
0.00348111
0.00352812
0.00371994
0.00389561
0.00423495
0.00413729
0.0040167
0.00353026
0.00278536
0.00200489
0.00119416
0.000693078
0.000397542
0.000236723
0.000199237
0.000472219
0.00103528
0.00158475
0.00088117
0.000168402
0.000856896
0.00108756
0.00133435
0.00117003
0.000853484
0.000511332
0.000326638
0.000206128
0.000129077
9.13763e-05
6.46147e-05
5.07199e-05
4.05829e-05
3.75561e-05
3.80444e-05
4.24805e-05
5.95686e-05
9.17233e-05
0.000160218
0.000319346
0.000676227
0.00142215
0.00222429
0.0024317
0.00236396
0.00167008
0.0008682
0.00041449
0.000130679
9.80654e-05
5.7611e-05
0.000114065
0.000263636
0.000667688
0.00270768
0.00538846
0.00801416
0.00972232
0.0109778
0.0117364
0.0121096
0.0121473
0.0118721
0.0114048
0.0109953
0.010659
0.0104149
0.0102689
0.0102523
0.0101505
0.010086
0.00985227
0.00968689
0.00950284
0.00950762
0.00924092
0.00818401
0.00336237
0.000108202
2.50203e-05
0.0119126
0.00822234
0.0044736
0.00648039
0.0121842
0.0150997
0.00818343
0.000277885
5.47296e-05
0.000138743
0.00249616
0.00618358
0.00981402
0.0112171
0.0127543
0.0129951
0.0133785
0.0131007
0.0130762
0.0126839
0.0121417
0.0102488
0.00592508
0.000614398
3.17861e-05
4.50619e-06
2.22809e-06
3.04074e-06
5.32113e-06
8.30977e-06
1.86515e-05
5.56203e-05
8.49094e-05
0.000133117
0.000177601
0.000232973
0.000158538
3.4783e-05
5.42035e-06
3.05784e-06
2.88099e-05
0.00661096
0.0195661
0.02521
0.0256791
0.0241432
0.0234417
0.0219781
0.0210958
0.020131
0.019474
0.0197126
0.021357
0.0243868
0.0272853
0.0231103
0.0145101
0.00283984
2.3726e-05
1.15566e-05
6.64766e-06
4.41777e-06
3.0987e-06
2.86758e-06
4.68054e-06
1.11365e-05
1.57863e-05
6.70129e-06
4.67514e-06
3.0882e-06
2.89409e-06
4.34044e-06
6.04656e-06
1.05967e-05
1.61414e-05
3.7643e-05
9.08715e-05
0.000264006
0.0006271
0.00207363
0.00297644
0.00438883
0.00264593
0.0023482
0.000685863
0.000114886
2.28138e-05
4.50966e-06
2.64654e-06
7.39936e-06
1.23595e-05
1.14057e-05
2.07366e-05
4.40408e-05
5.82642e-05
4.66093e-05
2.28649e-05
9.02157e-06
4.19914e-06
1.90137e-06
1.49314e-06
9.86233e-07
6.59577e-07
7.67761e-07
5.52403e-07
6.3881e-07
6.5674e-07
1.27904e-06
1.52392e-06
2.21915e-06
2.91204e-06
2.31015e-06
1.85256e-06
2.0633e-06
2.44081e-06
3.76689e-06
4.12273e-06
3.23255e-06
9.43882e-07
5.31111e-07
1.35437e-06
1.28056e-06
1.37898e-06
1.49702e-06
1.99295e-06
2.63566e-06
3.78581e-06
5.33524e-06
7.05667e-06
9.31014e-06
1.13381e-05
1.27247e-05
1.33093e-05
1.34423e-05
1.26259e-05
1.13256e-05
7.40165e-06
4.59418e-06
1.89233e-06
1.25385e-06
3.84056e-07
2.59703e-07
1.81747e-07
1.84949e-07
1.81581e-07
2.63816e-07
3.80709e-07
8.21632e-07
2.14787e-06
4.48782e-06
1.19206e-06
1.0898e-06
1.24946e-06
1.45946e-06
1.95277e-06
2.569e-06
3.14042e-06
3.63118e-06
3.92067e-06
4.58932e-06
4.08498e-06
5.49506e-06
1.1848e-05
1.32307e-05
3.68608e-05
1.71485e-05
8.54819e-06
4.42349e-06
3.98625e-06
2.214e-06
2.59679e-06
1.71868e-06
1.26573e-06
1.42675e-06
1.22155e-06
1.46784e-06
1.77479e-06
2.27757e-06
4.00375e-06
7.26589e-06
4.85285e-06
5.80477e-06
6.42344e-06
9.12588e-06
2.5283e-05
8.04301e-06
5.55854e-06
4.5426e-06
2.10486e-06
4.18807e-06
3.21952e-06
4.2514e-06
3.05969e-06
4.58165e-06
5.01146e-06
5.77356e-06
6.06168e-06
5.36552e-06
4.96033e-06
4.49155e-06
4.45588e-06
4.08694e-06
3.63759e-06
3.42648e-06
2.65005e-06
2.7824e-06
2.57199e-06
3.05558e-06
6.73107e-06
1.30138e-05
0.0265785
0.0215852
0.0179535
0.0172322
0.0197987
0.024445
0.0271282
0.0264291
0.0207504
0.011469
0.00283904
0.000341908
5.54539e-05
8.89069e-05
1.18138e-05
0.000283927
0.000791266
0.00166706
0.00292243
0.00390155
0.00487222
0.00568706
0.00629966
0.00657305
0.00629417
0.00531741
0.00368362
0.00172569
0.000760341
0.000311474
0.000222643
0.000173896
0.00015418
0.000143396
0.000147439
0.000210089
0.000263393
0.000217179
8.74726e-05
2.62069e-05
1.07061e-05
1.43425e-05
0.000109099
0.000658166
0.000333196
0.000306428
0.000222901
0.000129034
7.10056e-05
5.16863e-05
4.57287e-05
4.28357e-05
4.23312e-05
4.83203e-05
5.87929e-05
7.28945e-05
9.97877e-05
0.000136574
0.000202394
0.000356537
0.000666644
0.00137665
0.00244653
0.00371593
0.00501234
0.00623513
0.00659019
0.00571131
0.00363145
0.00120947
0.000216946
5.4632e-05
2.82061e-05
4.47674e-05
0.000961068
0.00191392
0.00563445
0.0063865
0.00486255
0.00288474
0.00124347
0.000733478
0.000502426
0.000448935
0.000481505
0.000606322
0.000875185
0.00153252
0.00226778
0.00369451
0.00481679
0.00553129
0.00551523
0.00500863
0.00399338
0.00261958
0.00116207
0.0004468
0.000223202
0.000230424
0.000385306
0.000737738
0.0010275
0.000256847
0.000959147
0.000965687
0.000828802
0.00061271
0.000433505
0.00028698
0.000190512
0.000117027
7.0018e-05
4.55163e-05
3.18039e-05
2.18474e-05
1.8997e-05
1.60085e-05
1.49976e-05
1.5297e-05
1.73469e-05
2.29611e-05
4.02259e-05
9.30337e-05
0.00022716
0.000600089
0.0014107
0.00191393
0.00184224
0.0012854
0.00069587
0.00037547
0.000133752
9.82244e-05
7.5205e-05
0.000241944
0.00152986
0.00502518
0.00852588
0.0102383
0.0111357
0.011713
0.0121108
0.0126315
0.0126197
0.0119404
0.0107301
0.00984106
0.00924387
0.00883954
0.00866737
0.00870925
0.00892903
0.00919038
0.00934233
0.00933619
0.00924597
0.00913983
0.00941755
0.00980424
0.00916933
0.00659261
0.000570502
3.47741e-05
0.0224689
0.0190629
0.0148232
0.0148797
0.0169639
0.0110137
0.00215347
0.000219696
0.000915708
0.00790019
0.0110522
0.0139528
0.014572
0.0153434
0.0153564
0.0149205
0.0136085
0.0118918
0.0108922
0.011111
0.0127005
0.0135536
0.0124625
0.00712017
0.000353477
1.33602e-05
2.62721e-06
2.53877e-06
5.82275e-06
8.133e-06
2.35896e-05
0.000103342
0.000167849
0.000220576
0.000435411
0.000475336
0.000166759
1.75582e-05
3.51041e-06
9.39583e-06
0.00226165
0.018083
0.0244739
0.024691
0.0232821
0.0223342
0.0217739
0.0209399
0.0194009
0.0175565
0.0153904
0.0136406
0.0139672
0.0176222
0.0236809
0.028474
0.0240407
0.0121515
0.000238749
1.05686e-05
4.83068e-06
2.90634e-06
2.32481e-06
4.28695e-06
8.62954e-06
1.28821e-05
1.15271e-05
4.73909e-06
2.56554e-06
2.65604e-06
4.5653e-06
1.56849e-05
7.02243e-05
0.000448904
0.00377252
0.00898198
0.0151319
0.0195951
0.0221639
0.0235299
0.024816
0.0249344
0.0254677
0.0249769
0.0240155
0.021059
0.0155962
0.00463742
2.04067e-05
1.49631e-06
1.1602e-05
9.86273e-06
1.42933e-05
2.4651e-05
3.20074e-05
2.38837e-05
1.42184e-05
9.1152e-06
5.57554e-06
3.41011e-06
1.94409e-06
1.05415e-06
6.43515e-07
6.72074e-07
1.06886e-06
2.30522e-06
6.27605e-06
1.61646e-05
3.91304e-05
8.82426e-05
0.000219164
0.000493616
0.00141073
0.00334276
0.00535803
0.00681878
0.00749422
0.00674524
0.00107179
1.08145e-05
1.24449e-06
1.16898e-06
1.17083e-06
1.3077e-06
1.43703e-06
1.91641e-06
2.5362e-06
2.93506e-06
4.90821e-06
8.29436e-06
1.75999e-05
3.57118e-05
9.01945e-05
0.000256927
0.00103448
0.00246645
0.00287603
0.00269631
0.00203919
0.0016701
0.000456948
0.000226713
4.65001e-05
1.41755e-05
2.49396e-06
8.26649e-07
3.10965e-07
2.94106e-07
3.11833e-07
4.95319e-07
1.05972e-06
1.01081e-06
1.09723e-06
1.33617e-06
1.5443e-06
2.1024e-06
3.18154e-06
6.09238e-06
1.40689e-05
5.66002e-05
0.00026371
0.000995356
0.00587603
0.00738723
0.0104539
0.00971789
0.0103441
0.00822888
0.00698785
0.00430937
0.00116432
0.000286571
5.35581e-05
2.02489e-05
7.06768e-06
2.99271e-06
1.78716e-06
1.38585e-06
1.36265e-06
1.84259e-06
4.77166e-06
5.65108e-06
1.03977e-05
2.78847e-05
0.000127921
7.21673e-05
0.000105905
6.59466e-05
4.45711e-05
8.10353e-05
6.89551e-05
4.7257e-05
1.81944e-05
3.11534e-05
2.38949e-05
2.52926e-05
3.19823e-05
2.18264e-05
2.25115e-05
2.70119e-05
2.7408e-05
2.40561e-05
2.10332e-05
2.03988e-05
2.65194e-05
2.04085e-05
1.57826e-05
5.43093e-06
2.59484e-06
2.29734e-06
0.0154845
0.00562751
0.00175776
0.00146875
0.00321143
0.00875428
0.0187707
0.0264232
0.0277854
0.024269
0.0141036
0.00301506
0.000208244
4.99151e-05
3.10232e-05
0.000291265
0.000952079
0.00210805
0.00301752
0.00319974
0.00336523
0.00374752
0.00464276
0.00564743
0.00621628
0.00611735
0.00503592
0.00290611
0.000998963
0.000378096
0.000238985
0.000180071
0.000166313
0.000161807
0.000215249
0.000351276
0.000497898
0.000320905
9.07189e-05
1.87385e-05
7.01363e-06
1.17023e-05
0.000107733
0.000575842
0.000285211
0.000196781
0.000102763
6.08604e-05
4.9626e-05
4.34324e-05
4.2197e-05
4.32866e-05
5.54557e-05
7.54166e-05
0.000133306
0.000204337
0.000230772
0.000222552
0.00023985
0.00031197
0.000478776
0.000840916
0.00140757
0.00252841
0.00445471
0.00675804
0.00834744
0.00783191
0.00481826
0.00114666
0.000132799
4.17698e-05
3.40215e-05
6.58628e-05
0.0009882
0.00722825
0.00779293
0.00311137
0.000403225
0.000143818
9.96957e-05
8.49494e-05
8.8875e-05
9.71309e-05
0.000105519
0.000123041
0.000143589
0.000198974
0.000405166
0.000777382
0.00250545
0.00454983
0.00585361
0.00627525
0.00588546
0.00469253
0.00289949
0.00101564
0.000335635
0.000198816
0.000214458
0.000352832
0.000800321
0.000333249
0.000969296
0.000887544
0.00145239
0.00186072
0.00161944
0.000943897
0.000422643
0.000199933
0.000101119
5.48472e-05
3.37027e-05
2.18272e-05
1.67858e-05
1.29139e-05
1.18675e-05
1.17172e-05
1.2309e-05
1.51746e-05
2.2116e-05
4.32731e-05
0.000118145
0.000295482
0.000753045
0.00102332
0.00101552
0.000811787
0.000430773
0.000267904
0.000123686
9.40658e-05
0.000123594
0.00107997
0.00585709
0.00927183
0.0106412
0.0111775
0.0117013
0.0125889
0.0133702
0.0133348
0.0120132
0.0101534
0.00893227
0.00810151
0.00731803
0.00670038
0.00669835
0.00715346
0.00794855
0.00881476
0.00944726
0.00941755
0.00896844
0.00877045
0.00909551
0.00965585
0.00978274
0.00779056
0.00151628
3.97036e-05
0.0243654
0.0241633
0.0213865
0.0195349
0.0139923
0.00486482
0.000775665
0.00195822
0.00833365
0.0118171
0.014384
0.0148065
0.0153628
0.0156248
0.0156199
0.0141812
0.0103924
0.00626604
0.00304955
0.00307769
0.00603492
0.0102798
0.0117479
0.00887387
0.00129659
2.21983e-05
4.21497e-06
2.82499e-06
4.48627e-06
6.76826e-06
5.87911e-05
8.87849e-05
7.51307e-05
0.000120223
0.000339099
0.000692712
0.000149293
1.15677e-05
4.92947e-06
4.53529e-05
0.0088406
0.0220986
0.0254356
0.0243621
0.0237783
0.0237654
0.0235269
0.0226912
0.0213065
0.0190112
0.0156995
0.0119099
0.00981642
0.0113371
0.0181113
0.0267805
0.0291974
0.0205539
0.00433716
1.2729e-05
5.55414e-06
3.26735e-06
3.20328e-06
6.02292e-06
1.15356e-05
1.25087e-05
6.54289e-06
3.13824e-06
2.66721e-06
5.88577e-06
3.45685e-05
0.000602574
0.00603719
0.0133423
0.0194897
0.0231909
0.0256947
0.0260828
0.0261141
0.0260285
0.0258772
0.0264102
0.0271848
0.0284395
0.0294894
0.0296071
0.0286167
0.0248695
0.0117211
4.33274e-06
9.58811e-06
6.84947e-06
8.40385e-06
1.37728e-05
1.78624e-05
1.60625e-05
1.19416e-05
1.05899e-05
1.15165e-05
1.27145e-05
9.04275e-06
5.42599e-06
4.68198e-06
7.93851e-06
2.99116e-05
0.000147704
0.000987218
0.00346736
0.00590282
0.00891742
0.01082
0.0125377
0.0145083
0.0162523
0.017358
0.0179791
0.018793
0.0189345
0.0184082
0.0122229
1.08345e-06
1.02796e-06
9.77573e-07
1.09349e-06
1.16899e-06
1.39849e-06
1.76085e-06
2.4349e-06
4.45667e-06
1.40438e-05
5.46803e-05
0.000273806
0.00315353
0.00880159
0.0144091
0.0182849
0.0210506
0.0232816
0.0229787
0.0252671
0.025156
0.0241984
0.0222915
0.0185443
0.0125705
0.00465493
8.62388e-05
5.46913e-06
5.68293e-07
3.16797e-07
9.82007e-07
8.40839e-07
8.70892e-07
9.96259e-07
1.47621e-06
3.88076e-06
1.06345e-05
6.39832e-05
0.000911841
0.00631083
0.0117489
0.0148522
0.0168092
0.0183455
0.0184361
0.0203304
0.0214277
0.0223594
0.024095
0.0234489
0.0233521
0.0195396
0.0149896
0.00913546
0.00198538
0.000168232
1.79535e-05
5.29436e-06
1.91733e-06
1.11421e-06
4.45431e-06
7.43526e-06
2.39334e-05
0.000224236
0.00378846
0.00598601
0.0112913
0.01005
0.0114321
0.0113524
0.0115604
0.0100544
0.00875986
0.00635675
0.00260168
0.00245697
0.00119994
0.00105102
0.000974999
0.0011914
0.00164726
0.00191854
0.00191556
0.00258524
0.00310385
0.00238178
0.00092157
0.000146812
9.22965e-06
2.1325e-06
0.00680168
0.000839408
0.000407551
0.000433058
0.000672152
0.00213456
0.00859282
0.0178321
0.0241732
0.0253384
0.0223422
0.0123143
0.00167419
4.6063e-05
0.000115686
0.000430141
0.00139682
0.00232413
0.00166648
0.000801835
0.000562939
0.000593098
0.00107709
0.00227384
0.00360597
0.00412265
0.00313842
0.0015428
0.000496519
0.000272835
0.000185323
0.000172024
0.000161175
0.000211812
0.000398707
0.000752145
0.000728716
0.000278446
4.5082e-05
6.56531e-06
2.33937e-06
4.06257e-06
4.03258e-05
0.000400855
0.000167342
9.0806e-05
5.77764e-05
4.73874e-05
4.26085e-05
4.15382e-05
4.5114e-05
6.21322e-05
0.000120574
0.000395405
0.000963025
0.00115666
0.000859639
0.000507794
0.000342332
0.000325452
0.000395808
0.000555643
0.000846085
0.00157819
0.00384182
0.00734277
0.00933211
0.00881233
0.00464486
0.000561218
7.6775e-05
3.73942e-05
4.75978e-05
0.000104234
0.00278285
0.00906379
0.00317732
0.000264744
0.000112212
7.78398e-05
7.05985e-05
7.29095e-05
7.87229e-05
8.16118e-05
8.9183e-05
9.99944e-05
0.000116924
0.000151641
0.000187755
0.000421357
0.000833238
0.00279702
0.0047343
0.00594962
0.0060396
0.00508743
0.00331792
0.00142581
0.000418026
0.00020338
0.000171529
0.000242372
0.000608055
0.000336148
0.000935538
0.00253479
0.00558902
0.00564021
0.00405663
0.00216096
0.000831374
0.000329513
0.000174322
9.95143e-05
5.93054e-05
3.45542e-05
2.27019e-05
1.61502e-05
1.43431e-05
1.26812e-05
1.27502e-05
1.54673e-05
2.09537e-05
3.72019e-05
8.43772e-05
0.000188701
0.000386989
0.000523019
0.000584344
0.000431088
0.000244969
0.000191127
0.000108007
8.96847e-05
0.000217866
0.0039953
0.00883825
0.0106757
0.0112106
0.011968
0.0131399
0.013996
0.0141864
0.0125443
0.0101897
0.00873477
0.00784583
0.00666239
0.00533298
0.00479608
0.0052187
0.00642284
0.00787381
0.00917165
0.00972297
0.0095717
0.00894446
0.00846136
0.00886333
0.00981923
0.0100388
0.00827022
0.00145077
3.81806e-05
0.026777
0.0271517
0.0241723
0.0180884
0.00841739
0.00237323
0.00226549
0.00703173
0.0115512
0.0141161
0.0145545
0.0153132
0.0158919
0.016324
0.0162621
0.0136908
0.00806127
0.00193565
0.000240531
0.000191345
0.00088529
0.00541997
0.00862647
0.0068179
0.000764898
2.61059e-05
4.51284e-06
3.04574e-06
3.98365e-06
3.77797e-06
0.000182543
5.75789e-05
3.38679e-05
5.01329e-05
0.000164944
0.000594056
0.000132455
1.06582e-05
8.76736e-06
0.000244238
0.013619
0.0232676
0.025078
0.0246669
0.0244465
0.0248573
0.0249486
0.0246744
0.0235754
0.0215775
0.0181491
0.0132671
0.00840246
0.00629518
0.00862493
0.0182783
0.0280521
0.0267453
0.0112754
1.9051e-05
4.72642e-06
2.37678e-06
2.76826e-06
6.11619e-06
1.03725e-05
1.16267e-05
6.00077e-06
4.21427e-06
7.10642e-06
4.89847e-05
0.00193531
0.00967932
0.0177608
0.0228072
0.02499
0.0255365
0.0248001
0.023749
0.0228112
0.0225645
0.0226689
0.023481
0.0245422
0.0265621
0.0290846
0.0308851
0.0319073
0.0320428
0.0273254
0.00328955
7.1253e-06
5.26937e-06
5.19584e-06
6.22917e-06
9.18762e-06
1.13614e-05
1.53494e-05
2.35336e-05
5.30248e-05
0.000107671
0.000134049
0.00012974
0.000193726
0.000809438
0.00405195
0.00821822
0.0106529
0.0128932
0.0135328
0.0142066
0.0143285
0.0147514
0.0144296
0.0142519
0.0138356
0.0135268
0.0147253
0.0168522
0.0204711
0.0226256
8.73417e-07
8.24543e-07
8.57205e-07
9.90084e-07
9.81325e-07
1.20177e-06
1.37375e-06
2.16848e-06
5.71473e-06
2.42811e-05
0.000253955
0.00315173
0.00977919
0.0152758
0.0193485
0.0221828
0.0241129
0.0262701
0.0275592
0.0299578
0.0313911
0.0321833
0.0343856
0.0334611
0.0332687
0.0294165
0.0208568
0.00567037
1.95153e-05
3.65733e-07
6.98543e-07
7.16867e-07
7.17885e-07
9.9397e-07
2.12293e-06
1.14768e-05
6.52942e-05
0.00205785
0.00904299
0.0140653
0.0149551
0.0136145
0.0121696
0.0123101
0.0109925
0.0132475
0.0157011
0.0188327
0.0222855
0.0261659
0.0285471
0.0300002
0.030023
0.0284036
0.0235673
0.0139633
0.00253545
8.93873e-05
5.06202e-06
9.98296e-07
4.42159e-06
1.26166e-05
0.000118486
0.00454876
0.0148699
0.0181878
0.0183688
0.0199218
0.0223183
0.0246231
0.0260452
0.0264987
0.0264661
0.0253792
0.0222252
0.0186738
0.0151192
0.012304
0.0117599
0.0131028
0.0143375
0.016008
0.0172618
0.0186275
0.0188537
0.0165347
0.0125684
0.00637715
0.000183118
3.78426e-06
0.00562671
0.000548835
0.000397121
0.000562925
0.000620689
0.000960817
0.00305734
0.00746827
0.012721
0.016394
0.0180558
0.015436
0.00588834
0.000152769
0.00035189
0.00101306
0.00189277
0.00128624
0.000368222
0.000137833
0.000104865
0.000141866
0.00027535
0.000579048
0.000974417
0.00105942
0.000703611
0.00039476
0.000220837
0.000161117
0.000142043
0.000150047
0.000223488
0.000458688
0.000998556
0.00106116
0.00041328
6.22543e-05
7.31314e-06
1.3128e-06
5.76332e-07
8.29147e-07
9.37083e-06
0.000197521
8.54453e-05
6.10038e-05
4.73817e-05
4.04101e-05
4.0354e-05
4.28907e-05
5.86615e-05
0.00010935
0.0003965
0.00155688
0.00282185
0.00279811
0.00201187
0.000963854
0.000510316
0.000368862
0.000377658
0.00047881
0.000731401
0.00179204
0.00491533
0.00849407
0.00978924
0.00788816
0.00261258
0.000175618
4.29276e-05
3.5696e-05
6.54112e-05
0.000134109
0.00569957
0.00628592
0.00111034
0.000393913
0.000209787
0.000151778
0.00012632
0.000106965
9.27821e-05
8.55107e-05
8.60509e-05
9.10211e-05
0.000100276
0.000110332
0.000134833
0.00017155
0.000400814
0.000922997
0.00278379
0.00387831
0.00419112
0.00339938
0.00221946
0.00092558
0.000360618
0.000175972
0.000143836
0.000233486
0.000517153
0.000300643
0.00221334
0.00848653
0.00884066
0.00651362
0.00458617
0.00310608
0.00188225
0.00109545
0.000571536
0.000382693
0.000204334
0.000118492
5.93848e-05
3.46328e-05
2.11991e-05
1.87774e-05
1.80603e-05
1.96991e-05
2.58723e-05
4.03343e-05
7.54081e-05
0.000137992
0.000234322
0.000323356
0.000316542
0.00021062
0.000133071
0.000132812
8.53845e-05
8.90989e-05
0.000451608
0.00663727
0.0104081
0.0113067
0.0123086
0.0134286
0.014618
0.0148832
0.0136356
0.0110356
0.00914769
0.00825353
0.00723346
0.0055114
0.003983
0.00380979
0.00510715
0.00723477
0.00936842
0.010356
0.0104298
0.00954562
0.00886923
0.00872261
0.00928107
0.0101656
0.0103086
0.00715084
0.000750795
3.80478e-05
0.0271308
0.0277262
0.0226635
0.0129524
0.00447558
0.00248818
0.00463679
0.0106185
0.0134817
0.0143978
0.0152059
0.0157148
0.0161003
0.0167426
0.0165503
0.0137524
0.00726389
0.00100435
0.000107504
5.58611e-05
9.97692e-05
0.000606109
0.00289768
0.00228013
0.000182324
2.05083e-05
5.35137e-06
3.4125e-06
2.88719e-06
2.51425e-06
0.000181053
3.16083e-05
2.37528e-05
3.12837e-05
0.000110688
0.000477987
0.000102548
1.10002e-05
1.4522e-05
0.000749639
0.0157407
0.0240536
0.0254645
0.0247954
0.0245652
0.0249261
0.0252767
0.0254365
0.0251759
0.0239666
0.0212407
0.016894
0.0108205
0.00526677
0.0030579
0.00577017
0.0179889
0.0272004
0.0173327
4.43306e-05
4.82705e-06
2.56839e-06
2.90652e-06
6.01609e-06
9.29887e-06
8.854e-06
6.68825e-06
9.51382e-06
5.92631e-05
0.00210191
0.0106456
0.0186538
0.0239065
0.0251982
0.0247861
0.0239188
0.0226459
0.0216725
0.0216404
0.021857
0.0222486
0.0226902
0.0238005
0.0258906
0.0296116
0.032714
0.0325591
0.0336218
0.0323094
0.0183774
5.86333e-06
4.28441e-06
3.66746e-06
4.77742e-06
6.03411e-06
8.75878e-06
1.7294e-05
6.7122e-05
0.000332665
0.00225619
0.00449709
0.00581146
0.00764564
0.0100427
0.0126041
0.0138851
0.0148855
0.0142206
0.0137991
0.0128552
0.0117304
0.0102695
0.00863542
0.00769839
0.00597832
0.00620395
0.0065085
0.00932529
0.0147506
0.0218954
6.60529e-07
9.00503e-07
1.2676e-06
1.56268e-06
1.67998e-06
1.44682e-06
1.37133e-06
2.01661e-06
5.18768e-06
2.9377e-05
0.000790749
0.0068159
0.0129426
0.0167721
0.0190715
0.0200062
0.0199484
0.0195301
0.0190046
0.0202149
0.021487
0.0235582
0.0255815
0.0286791
0.0318345
0.0347596
0.0351405
0.0271534
0.00608763
9.75682e-07
6.96078e-07
7.7053e-07
1.18169e-06
1.64466e-06
3.04947e-06
2.45794e-05
0.000220947
0.00698414
0.0129749
0.0134108
0.0105895
0.00694865
0.0061671
0.00311547
0.00704015
0.00571403
0.00738315
0.010638
0.0130343
0.0200176
0.0237732
0.0301734
0.0331103
0.0342769
0.0340729
0.030236
0.0179863
0.0015532
1.29401e-05
1.22854e-06
5.22382e-06
3.17505e-05
0.00102314
0.011966
0.0170439
0.0141548
0.0114774
0.0155679
0.0180089
0.0215019
0.0244812
0.0285144
0.0304502
0.0323286
0.0337672
0.0326582
0.0291307
0.0254125
0.0233044
0.0234587
0.0246952
0.026555
0.0287046
0.0298154
0.0287208
0.0239695
0.0173446
0.011024
0.0023752
8.84909e-06
0.00631663
0.000888675
0.00133211
0.00207221
0.000989001
0.000639776
0.000893198
0.00146495
0.00252936
0.00423534
0.00694526
0.0100604
0.00764512
0.000405578
0.00076455
0.0015581
0.00143454
0.000408719
0.000118648
7.13736e-05
7.16757e-05
9.73264e-05
0.000155094
0.000207674
0.000251239
0.000230397
0.000175501
0.000135347
0.000112286
0.000131628
0.000163992
0.000350494
0.000801293
0.00122544
0.000957244
0.000234478
2.88284e-05
4.21381e-06
9.56606e-07
6.37785e-07
6.26624e-07
9.0736e-07
4.17404e-06
0.00010768
6.73025e-05
5.36989e-05
4.06044e-05
4.03886e-05
4.51015e-05
5.72672e-05
8.60462e-05
0.000167368
0.000318216
0.00106657
0.0024443
0.00314214
0.00276447
0.00165016
0.000851114
0.000541239
0.000510701
0.000700732
0.00139106
0.00377074
0.00736968
0.00942008
0.00877025
0.00445099
0.000430808
6.30736e-05
2.90439e-05
3.4666e-05
8.28319e-05
0.000201861
0.00644453
0.00479526
0.00310115
0.00231917
0.000991527
0.000450511
0.000246241
0.00016421
0.000117656
9.696e-05
8.87613e-05
8.66368e-05
8.84072e-05
8.62984e-05
8.91226e-05
0.000111532
0.000124083
0.000279404
0.000490865
0.00112661
0.0013721
0.00102951
0.000631452
0.000370328
0.000211271
0.000155327
0.000173873
0.00028878
0.000438501
0.000236999
0.00456976
0.0106502
0.00812548
0.00598531
0.00477068
0.00389271
0.00328113
0.00285646
0.00252781
0.0019748
0.00148484
0.000840827
0.000428111
0.000179421
8.211e-05
3.97742e-05
3.00121e-05
2.79996e-05
3.287e-05
4.53244e-05
6.95695e-05
0.000108983
0.000148706
0.000175928
0.000137089
9.17382e-05
7.92857e-05
0.000101103
6.65059e-05
8.71957e-05
0.00114866
0.00847179
0.0112859
0.0123627
0.0136389
0.0148008
0.0154253
0.0146853
0.0122998
0.00982713
0.00860268
0.00803792
0.0069995
0.00509181
0.00334498
0.00331752
0.00513361
0.00831474
0.0107501
0.0116011
0.0112919
0.0102832
0.00988865
0.00979364
0.0102787
0.0107822
0.00910106
0.00472607
0.000238905
3.32969e-05
0.0270542
0.0269685
0.0180089
0.00842745
0.00312079
0.00346406
0.00856613
0.0125274
0.0140943
0.0150964
0.0155646
0.0155935
0.0157264
0.0163127
0.0168836
0.0146185
0.00855183
0.00245614
0.000182583
4.68894e-05
3.08102e-05
4.6782e-05
9.49512e-05
9.75413e-05
3.89799e-05
1.21927e-05
5.06181e-06
2.9729e-06
2.52198e-06
2.68994e-06
4.29118e-05
2.42159e-05
1.88362e-05
3.12322e-05
0.000123985
0.000317836
9.07215e-05
1.29563e-05
1.61877e-05
0.0011508
0.0158014
0.0235567
0.0254137
0.0247735
0.0242828
0.0246487
0.0249222
0.0253685
0.0254027
0.0250854
0.0233051
0.0203116
0.0150736
0.00854603
0.00267677
0.000996902
0.0051975
0.022188
0.020713
0.00022193
5.33291e-06
2.48982e-06
2.86256e-06
5.92499e-06
9.07896e-06
8.88483e-06
1.12153e-05
4.04464e-05
0.00108056
0.0101625
0.0187224
0.0237388
0.0252527
0.0246238
0.0232525
0.0218086
0.0211965
0.0210302
0.0209761
0.0211744
0.0217597
0.0223684
0.0232411
0.0250726
0.0298088
0.0354433
0.0351254
0.0330937
0.0255037
0.0142812
4.46264e-06
3.82493e-06
3.16115e-06
2.80608e-06
3.41799e-06
6.88948e-06
2.09715e-05
0.000162559
0.00227342
0.00649597
0.00999154
0.0120274
0.0134374
0.0138301
0.0147236
0.0144623
0.0140997
0.0125483
0.0109731
0.00859402
0.00651708
0.00483215
0.0039936
0.00308335
0.00336091
0.00337622
0.00434472
0.00657188
0.0127974
0.0204421
6.16542e-07
1.51295e-06
3.9716e-06
6.65237e-06
9.6327e-06
6.1721e-06
4.73483e-06
2.75304e-06
4.75628e-06
2.01683e-05
0.000694815
0.00813292
0.0134396
0.0158714
0.0164933
0.015557
0.0142069
0.0119333
0.0113311
0.0101258
0.0113896
0.0120641
0.0130813
0.0167041
0.0189507
0.0246183
0.0306256
0.0336856
0.0231151
2.20169e-05
5.8802e-07
1.67713e-06
3.43971e-06
4.60482e-06
6.43004e-06
2.85052e-05
0.000534235
0.00885119
0.0117512
0.00994395
0.00525284
0.00371654
0.00422543
0.00517357
0.0048458
0.00488392
0.00459482
0.00547677
0.00602072
0.0122846
0.0183086
0.0266064
0.0333889
0.0358285
0.0366596
0.0363222
0.0256434
0.00294145
1.81473e-05
2.98479e-06
5.422e-06
0.00010413
0.00479631
0.012655
0.0107784
0.00733189
0.00813231
0.0127867
0.016833
0.0211814