/*--------------------------------*- C++ -*----------------------------------*\
| =========                 |                                                 |
| \\      /  F ield         | OpenFOAM: The Open Source CFD Toolbox           |
|  \\    /   O peration     | Version:  2.1.1                                 |
|   \\  /    A nd           | Web:      www.OpenFOAM.org                      |
|    \\/     M anipulation  |                                                 |
\*---------------------------------------------------------------------------*/
FoamFile
{
    version     2.0;
    format      ascii;
    class       volScalarField;
    location    "0.003650000";
    object      HO2;
}
// * * * * * * * * * * * * * * * * * * * * * * * * * * * * * * * * * * * * * //

dimensions      [0 0 0 0 0 0 0];

internalField   nonuniform List<scalar> 
12384
(
2.87364e-05
2.42682e-05
2.101e-05
1.95828e-05
2.22765e-05
2.54206e-05
2.9614e-05
2.92797e-05
2.60183e-05
1.91158e-05
1.09154e-05
5.88056e-06
4.83944e-06
4.46534e-06
3.50178e-06
3.97378e-06
6.04422e-06
7.29694e-06
7.93741e-06
7.78338e-06
7.72977e-06
7.46245e-06
7.33899e-06
7.50488e-06
7.07936e-06
7.72237e-06
7.53128e-06
8.04966e-06
8.32927e-06
8.4259e-06
8.6829e-06
8.61203e-06
8.64711e-06
8.68457e-06
9.25247e-06
1.05625e-05
1.1119e-05
9.88954e-06
7.95431e-06
5.28155e-06
4.44669e-06
4.54276e-06
6.06909e-06
2.87512e-06
1.03109e-05
1.10068e-05
9.83517e-06
8.74959e-06
7.67523e-06
6.96065e-06
6.30735e-06
6.13281e-06
5.74031e-06
5.87079e-06
5.94051e-06
6.38095e-06
7.33922e-06
8.19793e-06
9.25339e-06
8.55086e-06
5.82966e-06
3.79866e-06
3.15025e-06
2.30197e-06
2.12222e-06
1.81758e-06
2.0312e-06
2.03045e-06
1.96124e-06
2.64801e-06
4.72669e-06
5.68622e-06
4.97129e-06
5.18833e-06
1.44951e-06
1.43173e-06
1.43101e-06
1.41964e-06
1.41615e-06
1.21713e-06
1.0906e-06
9.70991e-07
9.13961e-07
9.32384e-07
9.11433e-07
9.33918e-07
1.00828e-06
1.09464e-06
1.21166e-06
1.52721e-06
1.51966e-06
2.46199e-06
3.02401e-06
3.48939e-06
4.31254e-06
4.82758e-06
5.28788e-06
5.71703e-06
5.54323e-06
1.0898e-06
1.12762e-06
3.15773e-06
5.51581e-06
6.05281e-06
2.28744e-06
1.88392e-06
1.39085e-06
1.19853e-06
1.09995e-06
1.09916e-06
1.13277e-06
1.24021e-06
1.37368e-06
1.731e-06
1.96771e-06
2.83061e-06
2.54504e-06
3.06447e-06
2.65e-06
2.53654e-06
2.33878e-06
2.17666e-06
1.92115e-06
1.74554e-06
1.14128e-06
1.10531e-06
6.63092e-07
7.43262e-07
8.43449e-07
1.23768e-06
2.62402e-06
4.38345e-06
6.00089e-06
5.98222e-06
5.43873e-06
5.71676e-06
6.04412e-06
4.8754e-06
3.91985e-06
2.49669e-06
1.10683e-06
5.24338e-07
1.42233e-07
8.97624e-08
5.49643e-08
3.617e-08
1.61493e-08
1.81653e-08
1.59004e-08
1.58829e-08
1.56482e-08
1.63508e-08
1.58412e-08
1.60871e-08
2.2097e-08
2.56845e-08
4.91937e-08
4.31164e-08
6.07554e-08
7.15677e-08
1.17742e-07
3.42805e-06
5.28979e-06
4.84826e-06
5.47785e-06
6.144e-06
6.27661e-06
3.45924e-06
6.78425e-08
3.84022e-09
3.40434e-09
1.8344e-07
6.3242e-06
4.24208e-06
4.5897e-06
5.49869e-06
6.2589e-06
5.93324e-06
4.48391e-06
3.38824e-06
2.19729e-06
1.97649e-06
2.00448e-06
3.13451e-06
4.73886e-06
5.95772e-06
5.69732e-06
4.52409e-06
3.18499e-06
2.17961e-06
2.00067e-06
1.94226e-06
2.54364e-06
2.7176e-06
4.5127e-06
4.89959e-06
5.22631e-06
5.68942e-06
5.88039e-06
5.96383e-06
5.8747e-06
6.06505e-06
4.61801e-06
2.89117e-06
2.98519e-06
6.17336e-06
7.8413e-07
9.71026e-09
3.35231e-09
1.86033e-09
7.21756e-10
7.14855e-10
7.12001e-10
7.10496e-10
7.14859e-10
7.18825e-10
7.38882e-10
9.62067e-10
1.90192e-09
9.18988e-09
1.55728e-07
5.92341e-06
4.34787e-06
5.17873e-06
2.62171e-06
2.38906e-06
2.03254e-06
1.88951e-06
2.15196e-06
3.09477e-06
3.58293e-06
3.56878e-06
3.46541e-06
3.43135e-06
3.33417e-06
3.38006e-06
3.50792e-06
3.56489e-06
3.50209e-06
3.48602e-06
3.59587e-06
3.80558e-06
3.85148e-06
3.85036e-06
3.85917e-06
3.89963e-06
4.0006e-06
3.77372e-06
4.30552e-06
4.96329e-06
5.36751e-06
6.46463e-06
7.80746e-06
8.72119e-06
4.88855e-06
5.48765e-06
6.55814e-06
7.78458e-06
8.32872e-06
8.05136e-06
7.06172e-06
5.04588e-06
3.34335e-06
2.48219e-06
2.05672e-06
2.19579e-06
2.41772e-06
3.06538e-06
3.37477e-06
3.54725e-06
3.56051e-06
3.82278e-06
3.70958e-06
3.8635e-06
3.49054e-06
3.63467e-06
3.57628e-06
3.66213e-06
3.72694e-06
3.67806e-06
3.68814e-06
3.68061e-06
4.29162e-06
5.39263e-06
1.82456e-06
1.82741e-06
1.92298e-06
2.03527e-06
2.31504e-06
2.51358e-06
3.19241e-06
3.84456e-06
4.51471e-06
4.73422e-06
5.25803e-06
5.79573e-06
6.1854e-06
6.0535e-06
5.68324e-06
5.22599e-06
4.65475e-06
3.41775e-06
3.40303e-06
2.47957e-06
2.75217e-06
2.85582e-06
3.07116e-06
3.50837e-06
3.89444e-06
4.50586e-06
5.18431e-06
6.10571e-06
7.005e-06
7.22244e-06
1.87456e-06
1.82783e-06
1.94444e-06
2.26859e-06
2.4666e-06
2.87601e-06
3.18347e-06
3.52754e-06
3.63763e-06
3.64807e-06
3.69406e-06
3.74117e-06
3.97884e-06
5.27317e-06
4.92967e-06
3.36098e-06
2.88168e-06
2.93251e-06
2.95609e-06
2.65683e-06
2.86396e-06
3.62943e-06
3.46365e-06
4.61e-06
5.21328e-06
6.80119e-06
8.3128e-06
1.07042e-05
1.26572e-05
1.35157e-05
5.43182e-06
6.24532e-06
5.49632e-06
5.86282e-06
8.83404e-06
5.55823e-06
3.13571e-06
3.34395e-06
3.11304e-06
3.13578e-06
3.12684e-06
4.60118e-06
4.77928e-06
6.20788e-06
7.33891e-06
7.70788e-06
7.76005e-06
6.62057e-06
6.34138e-06
5.27135e-06
5.17807e-06
6.0917e-06
7.50345e-06
6.72299e-06
5.9275e-06
6.37118e-06
7.07023e-06
8.60879e-06
1.01231e-05
9.63937e-06
2.9778e-06
1.21086e-06
8.74507e-07
8.35404e-07
8.30809e-07
1.05531e-06
1.68156e-06
4.55219e-06
1.39281e-05
2.50584e-05
1.9447e-05
1.00162e-05
5.92564e-06
5.43333e-06
3.58409e-06
7.4156e-06
8.46033e-06
7.19822e-06
5.2267e-06
4.36995e-06
3.38681e-06
3.08114e-06
2.68204e-06
3.06723e-06
3.65494e-06
5.08792e-06
6.81593e-06
8.38544e-06
8.90995e-06
8.91633e-06
8.97356e-06
8.99927e-06
8.87287e-06
9.11403e-06
9.39971e-06
1.07886e-05
1.20944e-05
1.25161e-05
1.00535e-05
6.84543e-06
4.76761e-06
4.52673e-06
6.12443e-06
2.8506e-06
9.91937e-06
1.07761e-05
9.82972e-06
9.13956e-06
7.24713e-06
6.40676e-06
5.616e-06
5.62612e-06
5.54607e-06
5.60818e-06
5.67905e-06
5.78221e-06
5.96342e-06
6.8838e-06
8.16872e-06
8.82895e-06
7.6568e-06
4.78619e-06
3.5035e-06
1.84012e-06
1.61241e-06
1.18382e-06
1.23404e-06
1.52051e-06
2.06443e-06
2.7304e-06
4.86471e-06
5.72751e-06
4.96534e-06
5.22081e-06
1.4412e-06
1.98945e-06
1.33257e-06
6.32051e-07
1.86125e-07
1.57387e-07
1.63117e-07
1.81635e-07
2.00698e-07
3.19087e-07
2.11155e-07
2.09871e-07
2.01436e-07
1.90645e-07
1.72355e-07
1.77262e-07
1.83508e-07
2.11272e-07
6.5656e-07
1.05507e-06
1.47017e-06
2.92776e-06
4.35532e-06
5.44935e-06
5.64818e-06
3.91358e-06
1.92079e-06
1.2716e-06
2.36771e-06
5.77078e-06
2.35927e-06
1.55971e-06
1.43211e-06
1.51729e-06
2.36513e-06
3.36239e-06
4.47377e-06
5.20669e-06
5.58006e-06
5.62689e-06
5.4378e-06
5.3203e-06
5.09805e-06
4.96864e-06
4.98459e-06
5.10536e-06
5.28967e-06
5.46806e-06
5.32855e-06
4.40746e-06
2.85872e-06
1.40009e-06
9.72806e-07
8.69354e-07
8.89461e-07
1.24181e-06
2.38175e-06
4.16226e-06
5.9402e-06
5.98112e-06
5.54614e-06
5.96603e-06
5.01624e-06
2.98911e-06
6.94619e-07
1.09079e-07
5.74797e-08
3.8341e-08
2.16245e-08
9.35485e-09
8.21177e-09
8.09875e-09
8.94562e-09
1.04236e-08
1.17762e-08
1.29028e-08
1.37561e-08
1.41423e-08
1.4262e-08
1.41971e-08
1.41195e-08
1.43269e-08
1.49756e-08
1.58703e-08
1.75207e-08
2.82443e-08
6.33035e-08
3.63393e-07
5.95523e-06
5.05944e-06
7.94966e-09
2.84819e-08
1.4298e-07
4.33948e-08
7.58285e-09
2.82529e-09
2.69304e-08
5.17985e-06
6.21894e-06
6.18523e-06
7.91608e-07
5.84791e-08
1.47823e-08
1.05272e-08
6.02315e-09
5.30243e-09
4.98072e-09
5.26156e-09
5.31725e-09
6.57189e-09
8.29479e-09
1.40592e-08
8.43603e-08
3.12732e-06
5.24459e-06
2.83988e-06
2.20625e-06
1.97648e-06
2.58703e-06
2.80241e-06
5.0702e-06
5.97681e-06
6.20348e-06
5.88927e-06
5.6612e-06
5.32593e-06
5.75606e-06
5.40395e-06
3.20466e-06
2.61835e-06
5.26326e-06
4.93303e-08
9.67835e-10
2.16685e-10
2.05986e-10
3.1236e-10
3.94715e-10
5.49482e-10
6.36904e-10
8.63825e-10
1.07762e-09
1.01057e-09
6.1992e-10
2.59554e-10
1.57168e-10
4.35464e-10
4.19295e-09
6.40201e-07
5.06845e-06
4.83982e-06
2.61586e-06
2.37516e-06
1.96459e-06
1.9611e-06
2.46797e-06
3.28554e-06
3.56291e-06
3.13244e-06
2.71958e-06
2.38222e-06
2.32521e-06
2.70255e-06
3.06787e-06
3.68586e-06
4.22175e-06
5.18601e-06
5.77767e-06
4.90282e-06
3.0469e-06
1.04443e-06
5.76985e-07
1.76155e-07
7.34759e-07
8.83462e-07
2.94702e-06
6.19709e-06
5.83027e-06
3.83776e-06
3.43703e-06
5.01215e-06
4.71531e-06
5.34573e-06
6.453e-06
7.52607e-06
7.89743e-06
7.73878e-06
6.28225e-06
4.55354e-06
3.31514e-06
2.24477e-06
1.96764e-06
1.58846e-06
1.34529e-06
1.40374e-06
1.20522e-06
1.28462e-06
1.30442e-06
1.68845e-06
1.82995e-06
2.07266e-06
2.02652e-06
2.09079e-06
1.92994e-06
2.03098e-06
2.16833e-06
2.61835e-06
2.69796e-06
2.49993e-06
1.52176e-06
1.1977e-06
1.81974e-06
1.78946e-06
1.84977e-06
1.92305e-06
2.2088e-06
2.4569e-06
2.94271e-06
3.29219e-06
3.77652e-06
4.37066e-06
5.10595e-06
5.72347e-06
6.23827e-06
6.43288e-06
6.31761e-06
6.01905e-06
5.08192e-06
3.91859e-06
2.44236e-06
2.0209e-06
1.14127e-06
1.02218e-06
8.48407e-07
8.974e-07
9.13871e-07
1.09528e-06
1.39435e-06
2.06498e-06
2.90391e-06
4.18308e-06
1.8791e-06
1.81921e-06
1.90782e-06
2.13999e-06
2.2795e-06
2.50423e-06
2.79048e-06
2.86832e-06
2.90642e-06
3.05046e-06
2.97818e-06
3.35395e-06
4.87119e-06
6.09927e-06
7.98432e-06
5.4455e-06
3.80446e-06
3.13079e-06
3.23788e-06
2.54147e-06
3.49813e-06
2.70302e-06
2.84257e-06
3.15957e-06
3.07493e-06
3.4007e-06
3.82222e-06
4.17505e-06
5.32284e-06
6.95202e-06
5.68466e-06
6.23262e-06
6.48429e-06
7.57846e-06
1.17202e-05
6.92427e-06
3.5165e-06
4.1815e-06
2.33592e-06
3.52245e-06
3.31073e-06
4.46986e-06
3.87399e-06
5.25292e-06
5.55251e-06
6.33597e-06
6.54886e-06
6.31332e-06
6.11315e-06
6.01596e-06
6.21717e-06
5.9668e-06
5.44534e-06
5.22127e-06
4.65672e-06
4.74618e-06
4.46823e-06
4.8054e-06
6.47577e-06
8.42343e-06
2.20994e-07
3.27915e-07
4.84603e-07
5.73675e-07
4.45833e-07
3.03669e-07
2.89213e-07
3.89804e-07
8.60263e-07
3.21422e-06
1.52284e-05
1.79361e-05
8.18269e-06
6.05563e-06
4.12724e-06
8.75804e-06
7.43019e-06
5.71639e-06
4.67717e-06
3.48398e-06
2.77792e-06
2.18412e-06
1.80704e-06
1.65731e-06
1.6647e-06
2.09802e-06
2.76364e-06
4.6117e-06
7.36305e-06
8.9517e-06
8.97286e-06
9.18211e-06
9.17038e-06
9.45024e-06
9.74343e-06
1.14965e-05
1.31457e-05
1.45383e-05
1.17865e-05
7.68191e-06
4.80027e-06
4.53513e-06
6.13421e-06
3.03701e-06
9.65199e-06
1.00226e-05
9.26564e-06
8.09323e-06
6.11323e-06
5.71656e-06
5.53585e-06
5.55124e-06
5.50503e-06
5.57455e-06
5.69553e-06
5.83545e-06
5.86545e-06
6.16279e-06
7.07199e-06
8.21763e-06
8.61786e-06
6.93649e-06
4.75105e-06
2.73886e-06
1.6592e-06
9.39333e-07
7.11329e-07
8.60425e-07
1.31154e-06
2.73209e-06
5.2199e-06
5.55596e-06
4.98395e-06
5.48524e-06
2.12023e-06
1.10593e-06
9.70963e-08
5.22213e-08
1.32292e-07
5.9178e-07
1.43605e-06
2.81584e-06
3.48107e-06
3.99982e-06
3.51897e-06
3.14572e-06
2.35696e-06
1.31154e-06
9.31529e-07
2.05195e-07
1.45238e-07
1.05896e-07
1.0721e-07
1.32307e-07
1.84423e-07
7.38139e-07
1.48585e-06
4.05706e-06
5.48775e-06
5.42853e-06
4.37646e-06
2.78501e-06
1.93761e-06
5.08566e-06
2.05256e-06
2.03857e-06
2.43509e-06
3.06687e-06
3.87801e-06
4.69573e-06
5.30391e-06
5.61057e-06
5.57212e-06
5.30253e-06
4.90384e-06
4.50413e-06
4.30404e-06
4.05783e-06
4.01554e-06
4.01763e-06
4.13794e-06
4.47941e-06
5.06503e-06
5.48411e-06
5.02588e-06
3.08319e-06
1.39022e-06
1.13287e-06
1.15889e-06
1.44034e-06
2.87909e-06
4.36815e-06
5.87555e-06
5.95215e-06
5.76899e-06
5.13969e-06
1.30192e-06
1.30434e-07
5.38205e-08
3.99539e-08
1.76199e-08
9.49748e-09
8.28441e-09
6.71203e-09
6.73342e-09
8.79653e-09
1.2525e-08
1.52977e-08
2.11848e-08
2.60005e-08
2.82538e-08
2.80942e-08
2.49434e-08
2.2414e-08
1.89786e-08
1.93649e-08
2.00178e-08
2.22002e-08
1.84842e-08
1.55062e-08
2.72927e-08
7.61526e-08
3.25585e-06
5.35606e-06
3.99892e-10
9.42072e-10
3.17756e-09
3.13519e-09
1.65463e-09
1.05076e-08
9.63123e-07
5.62141e-06
2.30225e-06
3.41225e-08
1.07971e-08
4.3751e-09
3.73217e-09
3.07057e-09
3.04422e-09
3.52396e-09
4.7632e-09
8.94904e-09
1.19713e-08
1.14528e-08
6.60296e-09
4.95483e-09
7.41439e-09
4.50919e-08
4.48989e-06
4.18837e-06
2.37033e-06
2.19118e-06
2.61719e-06
2.80494e-06
5.82705e-06
6.39214e-06
5.81481e-06
5.50934e-06
4.01863e-06
3.81512e-06
5.68986e-06
4.58648e-06
2.7868e-06
3.82785e-06
9.31155e-07
1.47338e-09
2.46074e-10
2.42225e-10
3.98728e-10
5.16544e-10
5.70181e-10
6.57411e-10
1.10747e-09
1.67791e-09
3.31035e-09
4.99612e-09
4.72402e-09
1.68736e-09
3.7816e-10
9.26146e-11
3.35027e-10
8.73581e-09
5.23467e-06
4.52139e-06
2.76025e-06
2.30635e-06
2.0986e-06
2.22097e-06
2.92863e-06
3.38482e-06
3.35257e-06
2.51946e-06
2.19872e-06
2.22033e-06
2.74559e-06
4.08572e-06
5.51594e-06
3.75207e-06
2.15789e-07
2.748e-08
3.75309e-09
1.09126e-09
5.46747e-10
4.04415e-10
2.45462e-10
2.40344e-10
2.12779e-10
2.25124e-10
2.89173e-10
5.85571e-10
2.60632e-09
1.37141e-07
5.94441e-06
2.7321e-06
4.82552e-06
4.82205e-06
5.47449e-06
6.50034e-06
7.01532e-06
6.46309e-06
5.67937e-06
4.56283e-06
3.70235e-06
2.77466e-06
2.20013e-06
1.62793e-06
1.33416e-06
1.32949e-06
1.58568e-06
2.12688e-06
3.10469e-06
4.104e-06
5.02632e-06
5.48615e-06
4.96609e-06
3.94832e-06
1.40875e-06
4.13958e-07
1.34594e-07
5.27112e-08
4.45424e-08
5.28469e-08
1.72886e-06
3.75669e-06
1.77059e-06
1.71796e-06
1.73888e-06
1.81413e-06
1.93195e-06
2.19906e-06
2.50418e-06
2.63362e-06
3.40475e-06
4.19111e-06
5.69997e-06
7.0395e-06
8.32628e-06
7.30964e-06
2.74112e-06
1.30856e-06
8.72344e-07
8.40991e-07
1.02658e-06
1.22031e-06
3.94288e-06
5.41972e-06
5.7328e-06
4.64839e-06
2.7048e-06
1.86433e-06
1.36687e-06
1.27174e-06
1.52607e-06
1.8432e-06
1.82768e-06
1.80021e-06
1.84566e-06
1.96502e-06
2.19483e-06
2.34972e-06
2.78061e-06
3.35832e-06
4.41106e-06
5.89749e-06
5.0436e-06
2.07299e-06
1.06749e-07
8.07084e-08
3.46916e-08
2.13196e-08
1.34346e-08
3.61314e-08
4.36982e-08
3.13091e-07
2.92851e-06
9.2577e-06
1.1428e-05
9.02396e-06
6.57446e-06
4.80205e-06
3.95639e-06
3.60291e-06
3.51907e-06
3.98601e-06
5.68712e-06
6.26029e-06
8.18218e-06
1.2259e-05
1.82904e-05
1.37457e-05
8.03505e-06
8.47217e-06
6.18127e-06
8.23766e-06
8.15402e-06
9.59511e-06
7.96515e-06
1.03101e-05
1.02772e-05
1.08306e-05
1.30558e-05
1.14787e-05
1.17883e-05
1.25259e-05
1.23946e-05
1.18413e-05
1.0985e-05
1.06343e-05
1.13892e-05
1.02137e-05
9.71392e-06
6.38525e-06
4.68585e-06
4.50004e-06
5.89257e-07
4.19876e-06
1.4019e-05
1.57049e-05
9.52758e-06
2.52145e-06
5.06482e-07
2.424e-07
2.49841e-07
4.65423e-07
1.87385e-06
1.21259e-05
1.34343e-05
5.80896e-06
6.24858e-06
9.35754e-06
7.9915e-06
6.0388e-06
5.2222e-06
5.27533e-06
4.78284e-06
4.12674e-06
2.90625e-06
2.39656e-06
1.95334e-06
1.92033e-06
2.26771e-06
3.61478e-06
6.34398e-06
8.46445e-06
9.06368e-06
9.01551e-06
9.41003e-06
9.59993e-06
1.07833e-05
1.20511e-05
1.44847e-05
1.53046e-05
1.2376e-05
6.79817e-06
4.19141e-06
4.37938e-06
6.14025e-06
3.27712e-06
9.36108e-06
8.64405e-06
7.305e-06
5.87508e-06
5.67649e-06
5.62578e-06
5.50733e-06
5.55916e-06
5.65998e-06
5.8716e-06
6.12748e-06
6.33433e-06
6.00473e-06
5.7965e-06
6.21267e-06
7.49039e-06
8.72971e-06
8.71577e-06
6.96891e-06
4.4575e-06
1.86704e-06
7.60073e-07
5.6864e-07
5.48076e-07
9.49185e-07
2.88555e-06
5.67568e-06
5.33577e-06
5.12611e-06
5.64822e-06
2.04483e-06
4.26529e-08
3.516e-08
4.75957e-07
4.36509e-06
6.0332e-06
6.18394e-06
6.11979e-06
6.05406e-06
5.96494e-06
5.86764e-06
5.79722e-06
5.68691e-06
5.40903e-06
4.15854e-06
2.62482e-06
8.13398e-07
1.64171e-07
9.16903e-08
6.78268e-08
8.57192e-08
1.4744e-07
5.96329e-07
1.9754e-06
4.65308e-06
5.58025e-06
5.48249e-06
4.53794e-06
2.59886e-06
4.66059e-06
2.04224e-06
2.27525e-06
1.36875e-06
1.16039e-06
1.28389e-06
2.10581e-06
3.9389e-06
5.25593e-06
5.62014e-06
5.41967e-06
4.95338e-06
4.52776e-06
4.16086e-06
3.89807e-06
3.74862e-06
3.74403e-06
3.79675e-06
4.03647e-06
4.45892e-06
5.18634e-06
5.586e-06
4.61349e-06
2.66941e-06
1.87973e-06
1.92459e-06
2.52541e-06
4.0322e-06
4.95191e-06
5.89368e-06
5.93159e-06
5.88475e-06
1.53399e-06
8.7352e-08
3.26877e-08
2.08022e-08
1.11319e-08
9.55573e-09
6.82452e-09
5.07929e-09
5.11986e-09
8.68904e-09
1.43638e-08
2.45264e-08
3.39448e-08
4.29242e-08
5.02371e-08
5.03972e-08
4.46699e-08
3.7017e-08
2.65516e-08
2.00583e-08
1.89336e-08
2.43316e-08
2.57941e-08
2.3546e-08
1.59734e-08
1.56905e-08
6.37215e-08
1.31408e-06
5.52857e-06
2.2204e-10
2.37826e-10
5.44038e-10
9.12659e-10
4.28901e-09
1.36897e-07
2.67206e-06
1.07974e-06
3.10645e-08
8.96668e-09
4.1094e-09
3.56283e-09
3.10539e-09
2.81358e-09
2.8852e-09
4.23354e-09
1.35785e-08
6.40357e-08
5.26423e-07
5.11259e-07
7.91759e-08
1.40683e-08
9.77247e-09
2.58623e-08
1.43166e-06
4.80153e-06
2.82794e-06
2.43559e-06
2.75481e-06
2.71609e-06
7.20896e-06
6.59064e-06
6.32519e-06
5.93852e-06
4.64097e-06
2.87384e-06
5.77881e-06
4.03894e-06
3.04448e-06
5.63256e-06
2.68412e-08
5.36178e-10
2.20259e-10
2.55029e-10
3.65945e-10
3.64205e-10
3.96476e-10
4.7651e-10
6.18069e-10
1.23093e-09
3.02639e-09
9.49618e-09
1.59167e-08
1.13705e-08
1.53257e-09
1.74651e-10
8.40239e-11
7.01593e-10
1.74947e-07
4.30676e-06
2.59728e-06
2.0693e-06
2.05665e-06
2.65699e-06
3.29616e-06
3.40908e-06
3.10229e-06
2.38979e-06
2.22469e-06
2.99955e-06
4.91218e-06
3.07574e-06
9.77931e-08
5.62223e-09
1.20544e-09
4.52378e-10
2.19673e-10
2.05756e-10
2.02658e-10
2.05319e-10
2.07534e-10
1.85914e-10
1.50477e-10
1.00277e-10
7.39242e-11
7.48501e-11
8.17358e-11
2.14149e-10
8.38992e-09
3.68607e-06
4.41014e-06
4.37867e-06
4.5393e-06
5.35446e-06
5.88982e-06
5.81128e-06
5.38343e-06
4.67563e-06
4.41353e-06
4.26778e-06
3.7758e-06
3.02449e-06
2.90953e-06
3.34765e-06
4.88915e-06
5.42099e-06
1.95318e-06
3.50465e-07
1.06874e-07
3.10843e-08
1.43621e-08
6.38398e-09
4.7109e-09
2.98119e-09
1.91554e-09
1.67815e-09
1.41659e-09
1.35026e-09
1.51452e-09
9.37619e-09
1.68298e-06
1.64722e-06
1.63615e-06
1.70673e-06
1.76739e-06
1.94187e-06
2.20029e-06
2.52361e-06
3.42867e-06
5.1273e-06
7.13993e-06
6.8424e-06
7.02359e-07
4.3903e-08
1.04879e-08
4.18386e-09
2.04782e-09
1.24417e-09
5.9913e-10
4.61563e-10
2.24421e-10
3.13326e-10
4.92933e-10
1.44529e-09
6.3391e-09
1.44241e-07
7.48809e-06
4.87015e-06
2.0366e-06
1.59565e-06
1.82734e-06
1.73721e-06
1.7468e-06
1.83784e-06
2.26056e-06
3.36009e-06
4.38967e-06
6.36986e-06
2.30852e-06
5.77051e-08
7.81041e-09
4.07403e-09
4.46535e-09
3.53e-09
3.15831e-09
1.45447e-09
6.68111e-10
8.32114e-10
9.6127e-10
2.6135e-09
2.62863e-09
9.7626e-09
3.74593e-08
1.4137e-07
3.75986e-06
1.47299e-05
9.80994e-06
6.27854e-06
4.11264e-06
3.21359e-06
5.51637e-06
7.27359e-06
1.13867e-05
1.83129e-05
4.2229e-06
1.24125e-06
3.86426e-08
8.17525e-08
2.05201e-08
3.0401e-08
4.96469e-08
8.27534e-08
1.95089e-07
4.78184e-07
4.17839e-06
5.9435e-06
1.23611e-05
1.35364e-05
1.39268e-05
1.12081e-05
8.34985e-06
6.6794e-06
6.34241e-06
4.59857e-06
3.38725e-06
4.62883e-06
9.66876e-06
1.57191e-05
8.02695e-06
4.55465e-06
3.07467e-06
1.83527e-05
1.97951e-05
2.01764e-05
2.02219e-05
1.34064e-05
2.83412e-06
6.28242e-07
3.1693e-07
3.39962e-07
5.54205e-07
2.27598e-06
1.3741e-05
6.16472e-06
9.46375e-06
9.39829e-06
7.69122e-06
6.61918e-06
8.49076e-06
1.04363e-05
1.12067e-05
1.04753e-05
8.97747e-06
5.54141e-06
3.80766e-06
2.73708e-06
3.70777e-06
5.56251e-06
7.918e-06
8.72015e-06
8.49863e-06
9.18469e-06
9.32985e-06
1.03793e-05
1.16519e-05
1.26756e-05
1.47406e-05
1.54392e-05
9.90404e-06
4.54703e-06
2.60443e-06
2.99914e-06
5.82723e-06
4.34233e-06
8.32471e-06
6.86967e-06
5.86414e-06
5.72996e-06
5.65114e-06
5.56042e-06
5.57296e-06
5.75132e-06
5.81543e-06
5.70829e-06
4.16906e-06
3.75048e-06
4.09274e-06
4.81788e-06
5.67158e-06
6.86832e-06
8.26459e-06
9.04569e-06
8.38456e-06
5.50512e-06
1.89837e-06
6.48009e-07
3.60748e-07
4.33891e-07
8.706e-07
4.09065e-06
5.69263e-06
5.18072e-06
5.42984e-06
5.70526e-06
6.57776e-07
2.08976e-08
4.41223e-07
5.14931e-06
6.23249e-06
6.24144e-06
6.17453e-06
6.10961e-06
5.98884e-06
5.94499e-06
5.83693e-06
5.82482e-06
5.7633e-06
5.61712e-06
5.37882e-06
4.04765e-06
2.45683e-06
6.65224e-07
1.53522e-07
8.6209e-08
8.1007e-08
1.29747e-07
3.85406e-07
1.35794e-06
4.1673e-06
5.55071e-06
5.72098e-06
5.32368e-06
3.15324e-06
4.62207e-06
2.13026e-06
8.13487e-07
1.15076e-07
1.13431e-07
1.9887e-07
1.00676e-06
2.43592e-06
4.46048e-06
5.40246e-06
5.6152e-06
5.45722e-06
4.96704e-06
4.57172e-06
4.10231e-06
3.9961e-06
3.84543e-06
3.87939e-06
4.04872e-06
4.43949e-06
5.02607e-06
5.6376e-06
5.28401e-06
4.16446e-06
3.33873e-06
3.17527e-06
3.99249e-06
5.16404e-06
5.49123e-06
5.86841e-06
5.86919e-06
5.42709e-06
1.85803e-07
2.82185e-08
1.49581e-08
1.1028e-08
8.82108e-09
5.30508e-09
4.49717e-09
4.31786e-09
7.13749e-09
1.43861e-08
2.71092e-08
3.70276e-08
5.03504e-08
1.20466e-07
1.49962e-07
1.28222e-07
5.42222e-08
3.77779e-08
2.4321e-08
1.61589e-08
1.69137e-08
2.55461e-08
3.11699e-08
2.58431e-08
1.57798e-08
1.50237e-08
5.58133e-08
1.3473e-06
5.49803e-06
1.59995e-10
1.42618e-10
2.88311e-10
1.47208e-09
3.01965e-08
8.70373e-07
9.28648e-07
4.67671e-08
1.02725e-08
4.49343e-09
3.9102e-09
3.26758e-09
2.94768e-09
2.67203e-09
2.27564e-09
4.79898e-09
3.4073e-08
1.10126e-06
5.27623e-06
5.53887e-06
2.33294e-06
1.13907e-07
2.8554e-08
4.8677e-08
2.6724e-06
5.06372e-06
2.91363e-06
2.53901e-06
2.73248e-06
2.74418e-06
8.03928e-06
6.66715e-06
5.81623e-06
5.71309e-06
5.79707e-06
3.15924e-06
5.86662e-06
3.90245e-06
3.67436e-06
5.08675e-06
5.01095e-09
4.08672e-10
2.32655e-10
2.53835e-10
2.57646e-10
2.45308e-10
2.40873e-10
2.52936e-10
3.88035e-10
5.90594e-10
1.50943e-09
5.36903e-09
3.19172e-08
7.02952e-08
2.97467e-08
1.4777e-09
1.28964e-10
1.74314e-10
1.14656e-08
4.58992e-06
2.81329e-06
2.15775e-06
2.3047e-06
3.06159e-06
3.56092e-06
3.34533e-06
2.99974e-06
2.632e-06
3.21336e-06
5.22572e-06
1.13354e-06
1.75513e-08
1.76084e-09
5.12453e-10
2.49618e-10
2.30694e-10
2.53221e-10
3.85264e-10
4.87096e-10
5.01438e-10
4.87106e-10
3.80145e-10
2.45247e-10
1.63888e-10
7.84534e-11
1.04569e-10
1.01991e-10
7.49162e-11
1.28515e-10
3.83156e-07
4.18473e-06
3.75507e-06
3.74554e-06
3.95525e-06
4.51536e-06
4.92763e-06
5.23612e-06
5.40717e-06
5.86342e-06
5.94585e-06
5.86718e-06
5.68791e-06
5.35488e-06
2.47746e-06
2.01533e-07
3.82016e-08
1.45493e-08
6.23002e-09
5.6397e-09
5.0062e-09
4.78033e-09
4.20443e-09
4.79195e-09
4.92935e-09
5.22956e-09
5.48405e-09
4.24786e-09
2.00225e-09
7.38706e-10
5.12844e-10
1.56597e-06
1.53932e-06
1.57361e-06
1.64814e-06
1.68013e-06
1.81521e-06
1.94905e-06
2.44806e-06
3.80971e-06
5.87376e-06
6.73481e-06
5.97237e-07
3.71755e-08
8.70775e-09
3.29782e-09
1.82566e-09
1.00823e-09
5.89358e-10
3.83104e-10
1.51839e-10
7.6011e-11
8.95773e-11
4.91525e-11
1.107e-10
1.1476e-10
3.89394e-10
2.15875e-09
1.79411e-07
7.3182e-06
1.72222e-06
1.77164e-06
1.80219e-06
1.81364e-06
2.13793e-06
2.94738e-06
5.48296e-06
7.47346e-06
1.31208e-06
2.96769e-08
8.24583e-09
4.52897e-09
7.35452e-09
8.1107e-09
1.06452e-08
1.48934e-08
6.90749e-09
2.97631e-09
1.54012e-09
2.17777e-09
8.39118e-10
1.03424e-09
1.44687e-09
1.45225e-09
2.70536e-09
7.55494e-09
6.28275e-08
3.46035e-06
1.42858e-05
6.12277e-06
2.99747e-06
5.45822e-06
9.02863e-06
1.73935e-05
2.88967e-06
3.0263e-07
1.02444e-07
8.49651e-09
1.66552e-08
2.40217e-09
2.67402e-09
2.19191e-09
3.21112e-09
5.33006e-09
5.96072e-09
2.76421e-08
6.96484e-08
1.29862e-07
2.72905e-07
2.78434e-07
1.9174e-07
1.45698e-07
8.97547e-08
6.67509e-08
5.29532e-08
4.54782e-08
6.92427e-08
1.62774e-07
6.84835e-07
1.56461e-05
5.85171e-06
4.18601e-06
1.91535e-05
1.95527e-05
1.95587e-05
1.9891e-05
1.91275e-05
1.06932e-05
3.67737e-06
1.43469e-06
8.74624e-07
8.57599e-07
1.33241e-06
5.98353e-06
9.05363e-06
1.00455e-05
9.4298e-06
8.44467e-06
1.0537e-05
1.23417e-05
1.0643e-05
9.67779e-06
1.03735e-05
1.05351e-05
9.91876e-06
8.03649e-06
7.0615e-06
7.73008e-06
8.11375e-06
8.24444e-06
8.08583e-06
8.3825e-06
8.94099e-06
1.0334e-05
1.10615e-05
1.16899e-05
1.28176e-05
1.54985e-05
1.03632e-05
4.64721e-06
2.12713e-06
1.45528e-06
1.61297e-06
3.95367e-06
5.66975e-06
6.7359e-06
5.92881e-06
5.74903e-06
5.68101e-06
5.49728e-06
5.61929e-06
5.71692e-06
5.85975e-06
5.74564e-06
2.89544e-06
2.13449e-06
1.9692e-06
2.26354e-06
3.39658e-06
5.09341e-06
6.77282e-06
7.79805e-06
8.45008e-06
7.51031e-06
4.08707e-06
1.29472e-06
4.32114e-07
3.05705e-07
4.05733e-07
1.64703e-06
5.38452e-06
5.30718e-06
5.09736e-06
5.55694e-06
5.61704e-06
8.63003e-08
5.31887e-08
1.5003e-06
4.43946e-06
5.6786e-06
5.96143e-06
6.07761e-06
6.02721e-06
5.95092e-06
5.90055e-06
5.80487e-06
5.77571e-06
5.69032e-06
5.68001e-06
5.70586e-06
5.43912e-06
4.11178e-06
2.1804e-06
6.78693e-07
2.00702e-07
1.81292e-07
3.50619e-07
9.52744e-07
2.22613e-06
4.47372e-06
5.65261e-06
5.84007e-06
5.33027e-06
3.41361e-06
4.82906e-06
9.70378e-07
3.16231e-08
2.8419e-08
5.37576e-08
1.68696e-07
5.18838e-07
1.14929e-06
1.55239e-06
3.18584e-06
4.17528e-06
5.19288e-06
5.59872e-06
5.39279e-06
4.97218e-06
4.41993e-06
4.28885e-06
4.22737e-06
4.3342e-06
4.72112e-06
5.1271e-06
5.61614e-06
5.58128e-06
5.0784e-06
4.5257e-06
4.593e-06
5.30915e-06
5.78456e-06
5.77787e-06
5.828e-06
5.81473e-06
3.99395e-06
4.94405e-08
1.60004e-08
1.08438e-08
7.94598e-09
5.04956e-09
3.95202e-09
3.72443e-09
4.90554e-09
1.18612e-08
2.25309e-08
3.2726e-08
4.43396e-08
1.11394e-07
1.94402e-07
2.05572e-07
1.36012e-07
4.49059e-08
2.23824e-08
1.44864e-08
1.45574e-08
2.01154e-08
2.82704e-08
2.912e-08
2.27555e-08
1.47087e-08
1.67203e-08
7.32313e-08
2.73096e-06
5.49711e-06
1.40116e-10
1.29483e-10
4.43305e-10
5.53576e-09
1.66614e-07
8.256e-07
1.6079e-07
1.33641e-08
5.14888e-09
4.1671e-09
3.44258e-09
2.76438e-09
3.57682e-09
3.31188e-09
1.96552e-09
4.7475e-09
4.34814e-08
1.98646e-06
5.91887e-06
5.73956e-06
5.944e-06
3.14767e-06
6.08496e-07
9.2815e-07
5.55686e-06
4.68865e-06
3.12086e-06
2.7374e-06
2.51519e-06
2.32604e-06
7.97008e-06
6.20453e-06
5.49133e-06
5.35274e-06
5.9848e-06
3.72729e-06
5.86986e-06
3.92382e-06
4.28501e-06
2.70343e-06
3.10058e-09
3.49687e-10
2.2822e-10
2.48404e-10
2.61999e-10
2.47375e-10
2.33299e-10
2.24486e-10
2.36399e-10
3.52147e-10
6.32293e-10
1.91298e-09
1.29055e-08
1.26683e-07
5.33334e-07
9.93858e-08
1.56602e-09
1.58998e-10
1.77459e-09
5.53777e-06
2.83725e-06
2.26131e-06
2.34342e-06
3.04282e-06
3.5122e-06
3.40451e-06
3.13921e-06
3.48319e-06
5.33197e-06
1.04853e-06
1.46477e-08
1.48974e-09
3.96368e-10
2.45599e-10
2.59302e-10
3.81728e-10
5.14773e-10
6.14773e-10
6.08415e-10
5.81741e-10
5.25208e-10
4.62748e-10
3.2636e-10
1.8736e-10
7.14696e-11
4.70703e-11
1.16592e-10
8.03834e-11
5.93139e-11
1.29415e-09
3.6222e-06
3.46718e-06
3.36087e-06
3.60823e-06
3.86875e-06
4.34116e-06
5.39034e-06
6.02136e-06
4.68136e-06
9.40222e-07
1.63069e-07
1.02212e-07
4.11279e-08
1.63633e-08
8.24568e-09
5.26726e-09
4.2352e-09
5.00028e-09
5.35263e-09
5.21704e-09
9.86937e-09
1.60876e-08
2.7958e-08
4.3697e-08
1.02748e-07
8.56049e-08
5.5315e-08
2.34767e-08
4.15952e-09
5.89957e-10
1.38931e-06
1.60306e-06
1.81592e-06
2.0778e-06
2.1046e-06
2.08658e-06
1.93399e-06
2.39946e-06
3.62132e-06
6.36186e-06
3.22564e-06
8.88284e-08
1.44441e-08
6.08918e-09
3.53034e-09
1.98596e-09
2.00109e-09
2.12984e-09
1.90191e-09
1.47237e-09
5.88508e-10
5.86058e-10
2.37375e-10
3.12166e-10
1.45208e-10
1.93379e-10
1.75207e-10
1.12992e-09
1.73116e-07
2.62443e-06
1.77708e-06
1.86931e-06
2.28733e-06
2.71058e-06
3.53573e-06
7.13959e-06
7.76829e-06
1.45304e-07
2.24048e-08
1.52666e-08
2.66317e-08
5.99281e-08
9.0974e-08
4.94509e-07
4.5567e-08
7.69433e-08
4.22203e-08
3.05862e-08
1.23082e-08
2.92673e-09
1.49606e-09
1.15901e-09
7.15753e-10
8.14371e-10
1.06451e-09
2.48059e-09
2.68675e-08
4.81338e-06
8.29552e-06
3.17697e-06
5.91729e-06
1.27924e-05
1.28597e-05
5.13931e-07
1.92708e-07
2.5948e-07
5.82574e-08
4.62214e-08
7.4833e-09
3.93021e-09
4.22581e-09
2.68013e-09
1.93485e-09
4.17429e-09
4.25339e-09
4.96297e-09
1.17093e-08
1.95779e-08
2.6198e-08
2.5523e-08
2.03972e-08
1.52668e-08
9.67181e-09
7.45835e-09
8.66715e-09
1.9009e-08
7.84868e-08
2.96328e-07
4.56965e-06
7.81486e-06
3.45687e-06
1.79805e-05
1.5535e-05
1.24787e-05
1.77709e-05
1.94228e-05
1.8331e-05
1.44937e-05
9.82413e-06
6.51614e-06
3.53695e-06
2.55556e-06
4.17311e-06
1.10255e-05
9.72527e-06
9.36495e-06
1.07366e-05
1.30378e-05
1.07326e-05
9.02162e-06
8.80924e-06
8.87009e-06
9.42475e-06
9.17744e-06
8.93698e-06
8.40819e-06
7.99367e-06
7.96117e-06
7.49428e-06
8.31821e-06
8.85925e-06
1.03084e-05
1.01886e-05
1.0928e-05
1.2904e-05
1.38011e-05
7.51519e-06
3.45919e-06
1.742e-06
1.4296e-06
1.39119e-06
1.65609e-06
3.00794e-06
6.13208e-06
6.08146e-06
5.85671e-06
5.61409e-06
5.56355e-06
5.6596e-06
5.76047e-06
5.91453e-06
5.87375e-06
5.44647e-06
3.53573e-06
2.19725e-06
1.62602e-06
1.81888e-06
2.38084e-06
4.09731e-06
5.88623e-06
6.68468e-06
6.43095e-06
4.39851e-06
1.39723e-06
4.89209e-07
2.99838e-07
3.29137e-07
7.68333e-07
4.2194e-06
5.51042e-06
4.86588e-06
5.0461e-06
5.67049e-06
5.22981e-06
4.92274e-08
1.3236e-07
4.76175e-07
8.79138e-07
2.07796e-06
4.06585e-06
5.17145e-06
5.76157e-06
5.91464e-06
5.88733e-06
5.79671e-06
5.79762e-06
5.70549e-06
5.72681e-06
5.66631e-06
5.70262e-06
5.65182e-06
4.79694e-06
3.61416e-06
1.52841e-06
1.3973e-06
1.90415e-06
3.06088e-06
4.38999e-06
5.44993e-06
5.77844e-06
5.67943e-06
4.88286e-06
4.04457e-06
5.3181e-06
1.64711e-07
1.37121e-08
3.55881e-08
9.13305e-08
1.54878e-07
2.04868e-07
4.26026e-07
6.46384e-07
8.15429e-07
1.10333e-06
1.3544e-06
2.39323e-06
3.89571e-06
5.29068e-06
5.5974e-06
5.08521e-06
4.82671e-06
4.76221e-06
4.92474e-06
5.26659e-06
5.54573e-06
5.62182e-06
5.5349e-06
5.42419e-06
5.68153e-06
5.76816e-06
5.79785e-06
5.78104e-06
5.67434e-06
5.76527e-06
1.4981e-06
3.19549e-08
1.10869e-08
7.80634e-09
4.87451e-09
3.82921e-09
3.19606e-09
3.89704e-09
8.11037e-09
1.56743e-08
2.91747e-08
3.55299e-08
4.72252e-08
1.34633e-07
3.85877e-07
4.01586e-07
1.35248e-07
3.20982e-08
1.38124e-08
1.09654e-08
1.17732e-08
1.50495e-08
1.59255e-08
1.63277e-08
1.4495e-08
1.29924e-08
3.28874e-08
1.9372e-07
5.15368e-06
5.38248e-06
1.55786e-10
1.55409e-10
1.51392e-09
3.03397e-08
4.96508e-07
3.21023e-07
2.96578e-08
7.64364e-09
4.52419e-09
3.58761e-09
3.06599e-09
3.07061e-09
4.4313e-09
3.18036e-09
2.38781e-09
3.97041e-09
2.91341e-08
8.33423e-07
5.5777e-06
5.69829e-06
5.23652e-06
5.69686e-06
5.97138e-06
5.9144e-06
5.41165e-06
4.06919e-06
3.08323e-06
2.53754e-06
2.41357e-06
2.44929e-06
6.48097e-06
5.79198e-06
4.9491e-06
5.38764e-06
5.88574e-06
4.64172e-06
5.82562e-06
4.16594e-06
4.34655e-06
1.51487e-06
3.06532e-09
3.99293e-10