/*--------------------------------*- C++ -*----------------------------------*\
| =========                 |                                                 |
| \\      /  F ield         | OpenFOAM: The Open Source CFD Toolbox           |
|  \\    /   O peration     | Version:  2.1.1                                 |
|   \\  /    A nd           | Web:      www.OpenFOAM.org                      |
|    \\/     M anipulation  |                                                 |
\*---------------------------------------------------------------------------*/
FoamFile
{
    version     2.0;
    format      ascii;
    class       volScalarField;
    location    "0.003650000";
    object      p;
}
// * * * * * * * * * * * * * * * * * * * * * * * * * * * * * * * * * * * * * //

dimensions      [1 -1 -2 0 0 0 0];

internalField   nonuniform List<scalar> 
12384
(
764028
769451
771902
768654
782298
777581
785460
783916
786429
785049
785975
783150
783731
784769
692321
685483
689060
688273
686276
668053
661346
649017
643132
653699
636500
682002
671970
713774
712980
727966
727196
727644
728854
731743
733340
738154
743399
748272
771816
769959
807048
805308
833928
834405
829189
805758
785042
765002
729852
715834
686987
695962
668805
683433
682124
688047
709623
708838
710027
698279
696403
678883
684103
656503
664501
625215
640751
629917
635316
646764
655306
669897
677579
685223
747218
742448
746920
757387
755304
805825
834405
861672
890062
877572
864459
828278
823279
801282
818383
826153
818904
815773
811993
812999
825583
841050
846851
844267
830512
818888
806932
799832
797179
794211
585461
589852
595012
599309
600948
599378
598786
589477
588896
575621
553690
559784
524231
536593
506687
510510
510242
506978
509477
507118
535810
518346
607950
593878
688355
716088
748540
757528
761866
759951
650761
682713
799321
791427
803021
801522
792307
788768
784866
786590
787694
790054
788800
783222
773481
757597
756938
727181
794328
752124
882369
904304
926124
856542
831008
773891
785488
748506
748478
717236
1.09782e+06
1.11042e+06
1.10097e+06
1.09698e+06
1.07506e+06
1.07947e+06
1.06357e+06
1.07116e+06
1.05402e+06
1.00041e+06
946773
848768
870751
811067
828805
802200
808832
790076
791684
767331
773236
756430
764349
763067
718729
638692
589680
431928
461153
417627
844861
877113
744675
766525
731987
754301
766829
779446
789113
803878
805761
806343
821147
790808
789357
691896
729127
713633
712467
714233
709431
693120
685816
671967
674490
669181
701207
718098
733947
754068
467157
455331
467990
458006
471772
469462
490968
489710
513290
516748
533900
542261
567803
560644
595830
627889
659877
674082
659375
656562
636733
673941
731208
761879
810198
863878
909768
958728
981109
996357
955321
967736
979596
987681
975187
949148
918718
879707
820612
784535
692024
687312
586288
609142
547884
567344
540593
548101
518336
527345
493192
510524
493509
533167
537644
573964
582013
599022
607440
602881
649006
659858
681737
664820
756395
744768
822946
847380
889859
911347
953179
997592
1.04194e+06
1.06803e+06
1.06979e+06
1.03948e+06
1.00891e+06
906124
909386
761072
804067
744921
771977
788395
816498
849594
881983
912922
951588
951792
829897
833117
832858
771214
760219
754374
741649
741887
731726
798236
766323
886563
983372
1.09181e+06
1.0676e+06
958011
755032
844125
835526
869445
871093
1.00743e+06
987745
1.11111e+06
1.16152e+06
1.27419e+06
1.31041e+06
1.36739e+06
1.39516e+06
1.41528e+06
1.64073e+06
1.64303e+06
1.59314e+06
1.59544e+06
1.57401e+06
1.41019e+06
880237
1.01891e+06
806230
951346
889922
1.06053e+06
1.05914e+06
1.20875e+06
1.28755e+06
1.35953e+06
1.37152e+06
1.29622e+06
1.30566e+06
1.21934e+06
1.23817e+06
1.3481e+06
1.47076e+06
1.39603e+06
1.3418e+06
1.34599e+06
1.33342e+06
1.34258e+06
1.3256e+06
1.26176e+06
764823
770144
768492
775626
775237
782349
780133
783703
782315
784197
782762
785364
784239
785173
693439
698978
697814
694838
680821
678445
658021
660037
645044
654594
649867
679077
678771
703932
710015
722868
723746
732542
726622
736976
732130
747682
742253
763101
766648
785173
804279
814555
832015
840478
822294
807745
777568
773683
720074
724263
680048
699632
670590
688226
693584
696000
705202
710064
704564
694854
689082
681401
679069
659166
658854
624225
636230
625029
628920
638261
649581
659345
669002
675080
740466
751680
771403
773473
808427
832888
849120
853489
835359
834746
805065
793344
771955
785909
784362
788092
790004
774631
780473
796693
805824
820670
831917
829543
822337
812000
798168
793195
793623
793459
610756
601217
606185
601316
601907
602150
593702
594325
581005
581998
552907
560979
535697
518373
518612
513789
507778
508131
515908
502566
549594
529728
620824
602962
687753
712106
739848
749508
752992
755464
640551
755685
761607
793801
794456
794245
789359
783246
781063
781712
782987
782858
781492
774274
761410
748962
734710
742828
734550
782820
815178
874475
854764
840655
775645
788662
761094
762088
746506
733615
1.08521e+06
1.06265e+06
1.04086e+06
1.00947e+06
1.00359e+06
980729
983618
966472
950794
933254
863873
873391
834903
833233
812062
811938
796597
790413
779017
770356
761572
759945
750687
753622
728458
635542
657677
457327
499023
447318
960688
843608
853153
731812
764171
747794
753137
760508
766275
774901
776013
786207
788009
787277
740982
719347
696327
697359
712516
713318
705692
697895
682948
678514
673025
678480
691683
713538
724856
740480
444659
439591
440503
464173
468948
483159
484415
500352
506537
520118
532979
546946
557683
568587
595877
618337
653225
662354
655014
652414
679333
659987
744874
771095
819003
864485
911563
934108
964173
968188
946313
955590
966803
963191
953773
943524
917682
873681
832834
758416
727468
646381
630277
568943
567969
547960
550784
537377
529272
518272
496832
503833
504444
534078
535651
574616
580151
590129
588690
598105
659621
681261
683195
684599
744981
764476
829943
850737
889965
916774
951323
986974
1.0189e+06
1.03911e+06
1.03753e+06
1.02363e+06
989415
947830
849339
833359
752820
771546
769108
804947
825014
867990
898601
945619
970378
1.00349e+06
889409
889039
881561
872783
832118
839914
815419
796945
778340
780601
804461
875273
935620
1.03068e+06
1.04675e+06
939590
799529
822666
887259
857312
1.00723e+06
998306
1.07683e+06
1.16416e+06
1.21757e+06
1.28265e+06
1.32455e+06
1.36587e+06
1.39514e+06
1.40147e+06
1.65118e+06
1.62928e+06
1.60489e+06
1.62526e+06
1.5868e+06
1.46281e+06
894538
1.04951e+06
831020
959465
921911
1.07668e+06
1.05371e+06
1.19468e+06
1.24486e+06
1.35076e+06
1.3626e+06
1.37076e+06
1.37751e+06
1.40109e+06
1.44877e+06
1.43403e+06
1.37853e+06
1.36525e+06
1.35266e+06
1.37761e+06
1.34531e+06
1.32943e+06
1.32145e+06
1.34511e+06
765580
771146
769187
776409
776911
778043
781135
780165
779878
781075
781059
781037
784510
782860
700059
693270
695513
690414
691971
675162
673706
656438
658019
658649
655862
678582
674207
694167
698397
720114
718586
730274
729071
739581
733891
752132
746031
774292
768007
800804
802513
822981
832527
840536
826357
810261
785616
767774
715820
735104
679463
700187
680487
686472
696112
698377
700480
698025
696651
686633
681891
678626
676525
658421
654096
623763
624355
619092
623249
632832
637403
649654
654602
659980
758634
777404
783884
825099
850269
864203
856531
834959
819050
775617
763955
740803
729205
716123
730137
746766
738837
746325
742027
764274
794755
804138
809163
813045
808281
797741
792441
792364
785354
784463
590593
601964
596968
601859
595322
594057
599413
588615
590009
573974
567201
557043
543550
513527
525594
515135
511982
506195
526989
515961
560038
555478
624023
617036
679387
706157
728866
738714
742963
741391
663256
760405
784112
778375
792325
790963
782352
773449
773536
771766
773630
774185
768176
759893
749282
735024
722597
710312
739097
725463
794479
780290
793187
752649
778904
746243
762782
748239
753935
738798
969742
974240
951943
949014
922307
913558
891691
879006
877034
827131
862136
817521
837323
811504
816615
793201
796488
774092
776082
758359
760637
746438
749203
733131
737396
673315
683300
525098
492691
467769
1.06332e+06
948842
826349
812985
726914
744472
742118
742416
749209
748123
748532
747858
760177
732283
732226
684940
700316
704412
700811
708797
707434
699541
685840
679685
670017
681487
684291
700921
714378
723809
514023
509783
506942
467501
493076
480568
499107
490768
522486
511564
544427
538857
564103
561648
594431
615273
638252
656894
652044
642859
676585
677852
744625
785599
818991
866862
891119
923581
939135
947343
962476
942502
928729
937584
938088
930190
913387
874375
826575
765106
726515
645258
640853
569708
571796
542543
548122
531898
523098
513426
499804
495426
512473
525743
548959
563472
591237
590844
601421
599159
684544
676451
701849
692972
752497
760141
851647
838646
898847
912655
955617
974759
998422
1.00688e+06
1.00834e+06
991423
975676
933822
862301
838036
764151
781278
763212
829084
834051
885758
930960
967708
1.01411e+06
1.027e+06
924513
933038
925948
888860
896890
854281
802217
780758
767091
794434
778560
878831
914359
978546
967403
906815
805548
908143
848696
1.00394e+06
1.03369e+06
1.0932e+06
1.19003e+06
1.1943e+06
1.24229e+06
1.268e+06
1.32373e+06
1.35264e+06
1.37562e+06
1.38698e+06
1.65481e+06
1.61055e+06
1.61174e+06
1.64245e+06
1.5923e+06
1.43777e+06
969322
1.05713e+06
868995
984990
948781
1.07102e+06
1.07864e+06
1.18918e+06
1.25276e+06
1.31356e+06
1.43729e+06
1.46236e+06
1.4473e+06
1.46938e+06
1.46291e+06
1.44229e+06
1.40771e+06
1.39355e+06
1.4038e+06
1.37861e+06
1.40041e+06
1.38993e+06
1.38838e+06
1.37679e+06
767915
768469
771610
772276
775771
776982
775090
778738
775499
776479
781132
781657
777318
783129
712187
718275
712795
706663
688169
691048
671545
674303
663284
671955
669203
670089
678494
681806
689164
702962
725096
723449
736240
734378
748969
744325
766791
767668
785033
800420
812687
828436
834429
841172
823139
814795
783469
759499
727457
728538
682247
702168
693318
690178
695294
698015
692068
683700
676976
678076
676027
675306
670312
657964
645012
618771
621074
612901
613374
619801
628717
633118
641282
642909
773888
783581
830901
861545
869800
863374
848755
810155
781259
745441
703296
680413
667781
690002
700715
690397
706713
693819
715556
725749
755361
785909
792636
791854
790350
783018
777566
775108
784063
786542
634846
623977
621635
615009
616350
609824
595776
602483
584343
586787
563945
569848
541682
532878
516221
524049
512839
529663
524191
540046
579846
564821
628912
623765
675340
691710
715492
723031
727081
729191
726650
778976
761086
782642
772287
772305
770824
775139
763851
761352
759591
757238
753336
744278
730888
712808
707549
713519
689984
725297
705306
762354
747266
774417
720507
744636
732134
752631
749427
751425
979044
923747
890301
853057
837470
804230
791935
792412
756672
798499
765314
817722
791774
807747
783961
791311
765400
769786
750221
755016
742944
747040
726848
728161
722066
703595
674532
672628
573059
482058
1.17926e+06
1.02938e+06
900859
749429
797454
694807
737639
721181
721134
723760
702355
701280
697632
722300
677661
688081
667322
688125
704433
700324
703941
697731
691383
681839
680409
677297
684591
694032
700156
709046
488400
487030
484708
490904
480825
499635
502710
510213
512396
529460
532486
554183
549716
578591
576303
608484
630113
629764
644937
649474
676590
694300
752696
797438
835071
866257
888236
898572
909060
902932
946322
928967
907907
901308
914406
912455
898557
850271
825070
734903
742340
624658
655547
552785
585700
527935
549085
521879
530763
501554
506497
495180
506211
534890
535656
577931
583581
605215
607077
596708
698753
695592
721157
724803
745381
798404
821472
876335
881855
929846
939093
971781
974454
978967
963707
964358
936735
933771
833009
859995
740382
797508
760096
848721
838202
923791
946161
1.00978e+06
1.03885e+06
1.08095e+06
996395
986879
972379
992873
990046
977496
949129
916313
865989
811032
817364
810208
900235
905350
901210
864110
795915
849121
919216
1.0501e+06
1.01934e+06
1.12656e+06
1.17881e+06
1.1895e+06
1.23628e+06
1.28537e+06
1.30076e+06
1.33282e+06
1.34879e+06
1.3529e+06
1.63586e+06
1.61985e+06
1.61608e+06
1.62185e+06
1.62128e+06
1.50119e+06
975918
1.10531e+06
903663
944364
1.04602e+06
1.03464e+06
1.14929e+06
1.20351e+06
1.25505e+06
1.44655e+06
1.48879e+06
1.51509e+06
1.52454e+06
1.51265e+06
1.49756e+06
1.4908e+06
1.47531e+06
1.4495e+06
1.43064e+06
1.42951e+06
1.40726e+06
1.41232e+06
1.39804e+06
1.41334e+06
768085
769945
770584
773657
773006
774842
775782
771090
775287
769051
768680
771847
774887
773440
727306
715191
712680
709967
705657
688030
689851
671615
678144
670506
672308
675227
668339
685132
676473
706537
704198
730368
728341
739260
749218
751007
765206
775120
789751
802503
815203
828343
834142
838843
821084
806251
775121
761943
743102
707561
700653
705831
688304
693328
686940
682160
682788
675820
670059
663807
666647
667282
666037
646390
639126
613838
605803
606619
606786
611690
615563
620581
622648
626424
783644
839397
866239
877264
879125
863739
828058
798504
744853
726906
680277
681181
660256
649556
634052
682283
677027
696324
700134
719822
722984
747528
767893
766171
769610
780448
775231
777584
770698
767928
611301
616647
622066
608518
613503
611040
616101
596363
603578
581266
584709
558910
564039
532610
536492
516677
532752
527667
550875
550247
583871
581796
619830
626183
661594
683448
695358
707922
706025
696375
762660
783930
770360
758353
773843
763228
761638
756919
757714
752256
742106
737829
733495
723848
708441
703861
692160
676046
692365
656634
696784
658408
701855
690232
729084
707557
740923
741343
751633
758886
793442
821744
776983
750784
753860
770786
750717
703213
738397
718943
778821
750164
782027
762847
783194
755065
757164
735450
746126
735935
741454
727310
729731
722520
716243
721249
688827
703271
637346
680413
1.2148e+06
1.05732e+06
970318
739342
800195
689047
717231
703206
699223
725827
703356
707816
697626
648478
679943
661882
672582
653923
672876
700403
693302
694757
692534
687459
680494
683304
680327
689096
693515
694037
570658
546619
559507
542204
504665
496294
513025
511916
530305
525191
546882
541382
564619
556812
590994
587465
614111
633393
625373
660277
668124
727482
747122
821331
839575
871950
879294
885370
885324
869289
944387
902040
886025
858127
868113
884743
869068
842108
796414
742142
719434
632717
639383
564353
585945
525703
546018
513708
507753
504976
492815
491280
505883
516613
550918
564901
599222
609096
616826
609212
713573
714325
738509
727673
782281
788606
829362
870188
900327
912618
948956
948819
970463
961993
958091
919965
913407
866603
872672
804541
761068
790461
769230
850825
849809
937803
960707
1.01916e+06
1.05653e+06
1.09318e+06
1.00879e+06
1.03688e+06
1.06016e+06
1.06068e+06
1.04289e+06
1.02148e+06
997863
959190
914826
879170
823912
831097
799937
849611
821630
823306
790700
814865
984199
958540
1.04036e+06
1.14069e+06
1.13431e+06
1.19367e+06
1.227e+06
1.24566e+06
1.27045e+06
1.28072e+06
1.28545e+06
1.2838e+06
1.61401e+06
1.63369e+06
1.61323e+06
1.66844e+06
1.60116e+06
1.54861e+06
940532
1.14415e+06
921613
1.01569e+06
1.01408e+06
1.09001e+06
1.19768e+06
1.19248e+06
1.38572e+06
1.46428e+06
1.48196e+06
1.51063e+06
1.47976e+06
1.49642e+06
1.50849e+06
1.50604e+06
1.49469e+06
1.47873e+06
1.45387e+06
1.432e+06
1.43315e+06
1.3966e+06
1.40446e+06
1.40681e+06
768245
768720
770678
770528
773315
772269
773118
771423
768573
772837
772908
770768
772604
776024
736010
748028
739330
730455
717135
707688
688180
691781
677573
680523
672776
675444
672777
671160
685473
689100
703974
713550
735487
731135
751858
747334
769987
766703
794852
793967
815392
817672
831203
830433
807736
789947
769246
767680
728901
730203
704396
703725
694883
681124
684173
670395
661729
658677
659225
662909
663133
665073
652336
638540
627830
599064
604274
593462
600172
597840
603304
604481
603904
601441
859559
872822
881873
887444
872887
847002
812988
778688
734504
707918
662274
651516
617533
619309
643606
615743
637960
641590
655611
690225
719972
728380
748857
766260
758369
750395
754072
753231
761229
775243
662812
669039
640969
655525
625295
624422
614361
619956
599746
607139
581199
584389
555737
560293
533663
544631
535622
537569
563228
553909
586436
585716
612620
622825
647653
667068
680034
676285
674169
671783
788013
775196
762466
761699
742001
753453
742668
733722
734643
734344
737728
725950
712189
702344
698592
679760
674524
674661
648029
666288
629564
662471
634346
664604
670735
708834
724994
746042
755404
759992
850444
769097
789761
745993
711003
684355
680430
708437
699959
739659
723718
762411
741243
765267
739445
752329
733133
742947
729332
726646
737530
744147
725347
713762
717991
700533
714128
733107
735838
681201
1.1787e+06
1.03869e+06
960405
784244
761443
681080
702763
691486
684095
683000
665020
640642
626928
654619
612907
626302
636374
662954
645859
657875
685144
685901
685840
680295
683342
680934
686027
682512
683725
685691
579164
588710
547607
546925
556483
518115
509138
523977
528701
543080
537693
554521
555700
565164
571948
591906
598544
606379
634066
645950
685869
729618
778538
824906
857519
876410
876638
857668
852018
839032
921344
893793
867892
866948
861737
850804
854843
806609
802887
714018
735290
630134
660018
551530
592703
520801
549987
502319
519740
484297
498050
500275
487355
535307
531113
581338
595932
622980
623314
610428
718288
741235
730452
766026
751042
819127
810617
877504
888432
916044
927644
951081
932492
929501
905153
904825
862740
872363
809977
819835
733418
794569
743201
860780
848289
941459
957621
1.0265e+06
1.04119e+06
1.07996e+06
1.02727e+06
1.06629e+06
1.08424e+06
1.08994e+06
1.08658e+06
1.06993e+06
1.04338e+06
1.01716e+06
981078
920246
876919
805540
817440
741700
768005
765389
732221
900397
865278
997650
992394
1.09358e+06
1.12573e+06
1.1692e+06
1.204e+06
1.237e+06
1.23339e+06
1.22706e+06
1.22839e+06
1.20731e+06
1.61843e+06
1.62932e+06
1.61652e+06
1.6683e+06
1.58503e+06
1.51744e+06
942770
1.16813e+06
930274
973411
1.07731e+06
1.17478e+06
1.14372e+06
1.34212e+06
1.43742e+06
1.45753e+06
1.49523e+06
1.47969e+06
1.48861e+06
1.48322e+06
1.49903e+06
1.50847e+06
1.51087e+06
1.49714e+06
1.4777e+06
1.4431e+06
1.42988e+06
1.3964e+06
1.38288e+06
1.38395e+06
769336
769658
769552
770967
770738
773108
770581
768577
764144
762068
763264
760006
761550
766419
754328
747118
742748
737445
728553
719307
709152
688839
690950
677739
678874
671505
670591
679766
669155
696759
690534
712702
716173
737193
735183
753806
753184
772541
769713
793701
794748
812705
816661
830215
797129
789628
780333
759166
737865
731407
715179
705873
692844
675816
673081
662363
660402
650874
652719
650737
654622
649121
642201
631121
605772
603836
589118
594072
586316
592773
587501
594024
598002
594763
868923
885514
888570
880946
866020
837494
805537
773354
731448
707702
660007
660923
617779
626576
600260
629819
614635
646752
647658
667142
695782
723413
715838
730574
748972
756563
759229
763735
763993
757156
681232
651180
668112
645500
667857
639506
641472
628397
626296
604805
608803
581511
585746
557171
563865
542880
555885
550824
563108
558397
578701
590093
595613
620324
633800
648814
656238
661451
652726
644977
783705
775556
738614
739192
746651
724610
737803
740360
724775
717735
711807
708252
701354
696789
683227
675269
666834
650927
659561
633438
649715
624076
664165
650905
694295
691111
726633
747267
756284
772262
747682
775554
732962
744088
709358
707262
710374
695460
715029
709043
736549
724636
747709
732507
748156
735069
737085
737758
729538
746278
737156
748757
746732
721597
709779
695824
735315
728285
764522
737508
1.09241e+06
999547
896414
804435
721424
695437
676154
671565
660623
674760
659093
650721
628363
593523
620290
606787
597488
599449
648238
641195
652675
675220
667437
673566
674066
681056
678662
680736
680382
685183
584890
582043
606661
568589
568304
568939
534917
522724
536691
549519
547769
553004
564526
560924
574043
575434
602997
591653
631816
652721
687557
749527
800456
840299
868373
874348
882292
866883
847462
817199
916352
874199
851109
826952
831358
835760
824292
804961
785353
714335
723208
641099
651757
575278
591047
529819
544150
504455
512198
483462
489186
480405
498829
512818
553954
572512
609061
611930
621450
601308
723036
730438
736291
753027
750855
796776
817792
856073
885957
909887
926874
929113
941124
928811
908195
859367
857027
798803
813908
752497
755126
771551
744002
854986
830960
930697
952821
994577
1.04093e+06
1.0443e+06
1.03643e+06
1.05642e+06
1.08403e+06
1.10937e+06
1.1116e+06
1.09021e+06
1.06299e+06
1.02779e+06
1.01104e+06
949957
938769
818642
826365
732177
717985
751913
726382
878167
860240
1.00313e+06
985046
1.05123e+06
1.10718e+06
1.16342e+06
1.17587e+06
1.18926e+06
1.19189e+06
1.17655e+06
1.14851e+06
1.10807e+06
1.516e+06
1.55146e+06
1.61216e+06
1.59839e+06
1.5626e+06
1.43032e+06
1.00052e+06
1.1168e+06
1.0031e+06
986002
1.14118e+06
1.14393e+06
1.24944e+06
1.40401e+06
1.44207e+06
1.4771e+06
1.47214e+06
1.47964e+06
1.46496e+06
1.47388e+06
1.48994e+06
1.50237e+06
1.50678e+06
1.50077e+06
1.47927e+06
1.44833e+06
1.40566e+06
1.36827e+06
1.35029e+06
1.33708e+06
768179
768778
768272
768425
770387
771101
771790
769283
768173
766601
764867
766915
765708
770945
747857
763071
757832
763815
753605
728897
717724
706142
684812
689069
673993
677117
669080
673057
676973
675895
697016
694694
711249
715964
732793
727014
745538
744575
769015
772890
786867
794860
801140
809382
785390
785806
777313
768139
756779
737619
713735
712452
697406
667181
677109
646716
659614
642585
649912
651845
650103
641294
632583
608053
597898
577622
575991
569304
577961
572996
579813
566926
561086
555392
908864
906997
888027
876569
857121
838241
807975
775375
741765
713005
662477
665779
611255
622961
610620
600311
622651
623431
658037
659624
675468
705311
728842
725951
737297
742957
745559
753375
754060
785446
702645
725557
701575
699669
668357
676761
646858
648806
631821
629638
607621
610015
583482
586675
562036
571076
559450
572002
560429
572893
566822
584052
595710
605687
626908
634872
642632
633330
622823
603296
778941
757926
735206
721415
715331
731839
714893
720815
726201
715431
709867
708435
700777
691736
684821
669472
661640
646807
641634
643192
626366
631798
640524
654033
675146
714178
717649
753620
762722
770400
779445
745079
750588
714831
711207
706099
699392
705874
702716
717943
713366
732714
724810
740463
732543
737706
744298
736360
751276
743118
766818
758910
766165
746951
711272
720224
724849
785365
786815
646601
1.01228e+06
914465
862906
746063
752944
665466
693566
653885
663776
655162
651176
621066
622572
603617
578452
591819
607814
601862
606125
645558
638405
642948
666351
659978
669571
675058
685444
694670
687950
680175
648023
627499
620645
635488
566634
562864
572269
558301
534686
548125
569230
555894
563909
572936
563707
576684
599220
577007
660976
633969
709896
771830
818773
844271
875492
895565
866523
874552
821900
781483
915205
881654
856361
845034
842228
835878
819360
779000
786295
702409
729428
639440
668629
577418
610581
528210
561182
500750
519702
482847
497398
491838
490041
525211
535106
587440
588068
599901
598502
530351
719091
720939
716181
751028
728735
801333
782827
861297
855459
904161
913288
929626
927810
902399
887483
864141
808921
814569
753136
764407
718948
752455
740942
821268
831161
905833
931986
973734
997683
1.03372e+06
922962
1.00828e+06
1.07166e+06
1.10642e+06
1.11805e+06
1.09531e+06
1.06299e+06
1.02789e+06
1.02368e+06
947982
939412
822386
848652
703580
747114
781023
728436
870093
913117
981013
1.00458e+06
1.05137e+06
1.09892e+06
1.14808e+06
1.17992e+06
1.17642e+06
1.15161e+06
1.09369e+06
1.05112e+06
963482
1.49716e+06
1.5053e+06
1.46323e+06
1.52569e+06
1.48994e+06
1.29983e+06
1.07983e+06
1.11673e+06
1.02176e+06
991593
1.19337e+06
1.12716e+06
1.32077e+06
1.39498e+06
1.45491e+06
1.45323e+06
1.46483e+06
1.44924e+06
1.46443e+06
1.4723e+06
1.48097e+06
1.49186e+06
1.48767e+06
1.47431e+06
1.45763e+06
1.4278e+06
1.36808e+06
1.32429e+06
1.2851e+06
1.27942e+06
768273
768177
768400
768353
770214
772678
772430
771064
767872
765455
763301
760754
763571
759781
750580
776611
765374
777779
786447
780322
771904
751547
722989
713376
689159
686571
677714
673544
669509
667462
673131
678891
675534
695548
688878
701709
703070
727110
726980
745872
736791
752472
754035
794227
796261
814368
823716
846254
814917
811830
794664
781912
759016
748312
736020
701388
706916
671632
674142
648676
654440
644171
649922
640076
638316
629945
608715
589242
571947
578532
573315
570519
557686
566156
561297
575535
577468
603433
628031
665132
764249
834441
862301
861907
858185
843765
816391
785792
749118
720306
668642
670049
627248
623015
616914
604671
615748
613848
661848
652747
675330
704810
713484
729742
732086
741145
756707
751018
778624
778258
764904
758811
763452
737054
740536
706633
702752
669638
676484
649365
649212
631233
630406
608489
610501
584817
588299
569425
577352
568230
577031
566756
575939
575412
593612
606357
610697
621692
608738
608350
599491
603329
621267
671899
726201
729684
732066
714944
705320
702034
719772
710291
710520
714925
712779
711742
707247
699527
692241
677812
664223
650106
641014
631556
637168
632039
654956
648578
680038
700898
730203
735838
762718
768929
746764
756261
744212
751027
728598
728959
706814
705328
705431
701820
708472
707180
718194
714803
728438
730029
733441
744218
742413
754618
749531
767411
767186
787033
770770
761541
717404
716155
763992
811304
814287
770468
827414
879224
871691
865293
782029
765948
691346
707492
678853
670788
655583
657480
636733
628327
597026
605229
576395
568771
582991
583459
615165
623483
637996
647115
649533
650305
664281
657405
652009
654303
656925
625441
568452
621363
631609
655208
629465
646268
664661
576936
556728
574698
583760
556540
565477
587375
565217
568978
582594
586254
570613
604965
653531
629440
741405
802637
808445
855510
900625
878822
899021
864382
839709
803505
798014
753578
832985
853304
847040
856309
838328
836233
819741
770387
775825
706066
724437
650155
670715
596728
611020
548878
556244
510744
525610
486111
502136
486910
515052
504516
542271
560192
588133
604336
617644
584383
674385
670470
681167
703226
715808
706459
733951
763822
792980
824606
855945
882556
905027
923805
918088
915209
878796
856570
824847
771870
769418
727292
725940
742231
739895
788868
813955
873886
907293
943379
971606
996589
1.03079e+06
998316
968430
1.00836e+06
1.0571e+06
1.09086e+06
1.09763e+06
1.08568e+06
1.05232e+06
1.03103e+06
999256
950646
911774
809511
838448
717334
737485
801193
742343
931871
916542
1.02643e+06
1.03872e+06
1.06773e+06
1.10025e+06
1.15452e+06
1.16334e+06
1.18277e+06
1.14081e+06
1.10427e+06
966768
907210
931599
688090
1.0403e+06
1.20933e+06
1.36764e+06
1.35239e+06
1.30409e+06
1.19216e+06
1.05221e+06
962527
959559
1.05824e+06
1.16618e+06
1.12938e+06
1.33595e+06
1.37345e+06
1.40086e+06
1.43562e+06
1.43834e+06
1.44773e+06
1.42886e+06
1.42636e+06
1.43955e+06
1.43671e+06
1.44401e+06
1.43658e+06
1.41189e+06
1.37471e+06
1.3512e+06
1.29197e+06
1.27872e+06
1.22826e+06
1.21691e+06
1.16853e+06
766748
767367
767216
767593
769475
771665
774073
774365
773489
771396
768387
768045
767040
774522
770990
774335
777170
788648
798535
802589
784943
766567
730876
718231
687803
694182
671500
678581
662157
667376
662808
671935
676714
670472
690724
679796
700317
697315
701896
699137
722870
740930
750168
778640
782146
811453
815977
835333
810650
807565
802831
793985
782247
762556
735296
727563
701605
688800
670629
652475
659874
637960
650682
634794
627723
597335
592067
575368
578081
560389
551781
552036
557364
545087
563323
547218
602683
597357
616665
706245
773214
795375
826828
854537
860023
846449
824813
784279
748650
723751
679530
687021
650973
643683
619350
629476
616837
631398
647290
673110
666602
707402
719876
725426
741027
747574
745009
785803
789322
831876
818625
818143
800708
777627
748809
739873
698173
693618
660835
669146
645913
645554
632351
626890
605247
606971
582729
588960
577100
587607
573592
588406
569302
588036
590205
605878
611808
614546
617593
600118
604888
588999
632311
684449
711332
729989
710928
709809
707243
702072
698163
712956
715499
714190
716694
716060
715769
712223
701730
688928
667108
648077
638228
637778
634708
640443
656194
655959
674165
704357
706967
740693
745386
765644
748355
752266
752120
729801
732025
716058
705084
707833
703481
706702
703776
710018
704713
719249
720515
723870
740157
739455
754112
752298
766779
767564
783071
794194
801561
767368
726334
740592
748464
797793
807119
789674
843409
815416
852731
780625
773498
702230
719851
693302
692454
683585
670666
659629
631781
634108
598225
602676
574650
588421
579917
591434
632842
617498
631269
666969
647798
686749
703513
701323
735371
744907
736169
756286
706365
725752
707257
717510
718556
672198
677003
691635
601235
576604
569112
606745
578071
577425
603211
577576
572607
594279
564840
638497
621137
659376
784446
779750
824542
898086
886005
926271
930982
904908
914475
828474
864351
841515
879205
868486
868875
856335
861147
827650
822676
766203
760877
700170
720358
655037
677582
600781
628294
552010
574399
515552
531085
493509
503368
489460
511368
513191
537964
544266
569051
603123
612070
634335
672624
680559
701385
690717
694699
717081
704246
754469
752355
828125
825115
875618
890174
909368
924244
906564
890233
866250
813600
804105
737210
756184
706132
734418
743336
783135
796540
859952
881155
924212
940627
974972
994545
1.00014e+06
984033
994131
1.02656e+06
1.05362e+06
1.06667e+06
1.05268e+06
1.04131e+06
1.01039e+06
976861
933978
919897
785201
789842
718015
753418
726339
875249
894051
1.01477e+06
1.03448e+06
1.04602e+06
1.06425e+06
1.1368e+06
1.13353e+06
1.18545e+06
1.19646e+06
1.14986e+06
1.14186e+06
999505
1.03508e+06
855940
904710
1.05254e+06
1.06087e+06
1.12042e+06
1.23844e+06
1.16162e+06
1.08474e+06
956303
923033
932907
1.09633e+06
1.0296e+06
1.19672e+06
1.29423e+06
1.31017e+06
1.37193e+06
1.36568e+06
1.38223e+06
1.394e+06
1.4277e+06
1.43726e+06
1.42675e+06
1.42249e+06
1.40127e+06
1.39885e+06
1.36788e+06
1.32853e+06
1.28108e+06
1.2724e+06
1.22662e+06
1.20839e+06
1.17426e+06
1.19013e+06
767235
767070
766175
768087
769118
770707
772672
774146
773739
772033
769871
770019
769476
778521
770224
777135
782848
798579
808599
817865
813116
775793
729880
732301
680372
698396
667744
677775
660210
660454
659199
654802
662413
660510
656360
682012
663364
672573
674881
705036