/*--------------------------------*- C++ -*----------------------------------*\
| =========                 |                                                 |
| \\      /  F ield         | OpenFOAM: The Open Source CFD Toolbox           |
|  \\    /   O peration     | Version:  2.1.1                                 |
|   \\  /    A nd           | Web:      www.OpenFOAM.org                      |
|    \\/     M anipulation  |                                                 |
\*---------------------------------------------------------------------------*/
FoamFile
{
    version     2.0;
    format      ascii;
    class       volScalarField;
    location    "0.003650000";
    object      T;
}
// * * * * * * * * * * * * * * * * * * * * * * * * * * * * * * * * * * * * * //

dimensions      [0 0 0 1 0 0 0];

internalField   nonuniform List<scalar> 
12384
(
2836.02
2907.14
2938.5
2949.45
2941.39
2905.08
2843.77
2770.63
2689.73
2641.65
2611.27
2641.54
2638.92
2618.29
2313.93
2424.87
2595.55
2692.86
2751.13
2765.55
2775.15
2763.77
2753.36
2750.87
2723.96
2732.16
2721.62
2725.36
2733.18
2727.86
2730.77
2718.39
2709.19
2695.17
2690.67
2682.85
2654.4
2586.21
2533.42
2445.22
2450.98
2487.24
2663.61
2702.77
2949.57
2917.9
2851.4
2812.89
2770.65
2746.92
2721.77
2711.96
2699.04
2709.03
2719.04
2750.68
2795.32
2840.29
2900.58
2955.86
3010
3008.79
3007.9
2989.71
2984.94
2959.27
2961.61
2947.32
2940.2
2899.88
2789.12
2575.88
2449.7
2457.3
2854.75
2853.51
2859.47
2869.29
2870.14
2902.96
2922.48
2936.21
2953.46
2944.7
2933.56
2908.12
2907.68
2894.79
2912.64
2921.46
2921.68
2908.42
2894.73
2886.25
2877.39
2868.98
2853.69
2828.7
2840.73
2870.12
2840.74
2814.2
2735.65
2671.02
2580.2
2590.5
2596.92
2601.63
2607.32
2612.82
2619.31
2618.46
2625.98
2618.45
2600.03
2587.95
2566.09
2564.64
2545.74
2550.44
2552.42
2552.26
2553.92
2551.93
2564
2550.26
2614.72
2599.88
2664.73
2684.63
2702.55
2673.21
2550.12
2509.99
2271.21
2351.73
2519.46
2599.52
2645.67
2717.16
2798.13
2869.1
2882.72
2899.76
2879.03
2865.71
2844.49
2824.99
2805.64
2789.1
2783.64
2764.68
2811.8
2789.16
2885.47
2907.87
2943
2911.21
2910.51
2906.09
2937.88
2839.26
2393.56
2308.65
2756.35
2719.59
2705.98
2831.91
2834.45
2736.81
2706.05
2834.06
2553.3
2367.72
2370.16
2431.12
2535.18
2583.01
2676.37
2694.07
2724.63
2720
2718.25
2680.87
2632.15
2519.99
2395.88
2258.25
2098.98
1916.33
1826.18
1690.22
1838.54
1912.45
2269.65
2311.62
2288.46
2354.51
2397.71
2488.26
2544.13
2500.58
2352.55
2277.95
2322.88
2648.92
2949.18
2794.69
2734.61
2654.81
2622.92
2613.97
2611.06
2612.37
2614.97
2611.13
2616.35
2614.74
2669.66
2713.27
2840.52
2696.92
2437.62
2461.86
2179.38
2152.78
2146.42
2126.41
2170.87
2240.7
2306.76
2306.04
2287.23
2284.78
2281.25
2290.2
2313.28
2314.93
2323.9
2339.03
2367.1
2393.43
2384.82
2379.79
2367.47
2391.81
2434.29
2426.44
2446.51
2463.34
2471.74
2524.15
2626.78
2814.65
2502.29
2496.42
2569.15
2667.7
2736.17
2738.64
2651.03
2491.32
2349.29
2265.99
2201.55
2215.59
2172.31
2235.4
2219.8
2244.18
2233.16
2260.69
2233.05
2248.55
2208.08
2212.01
2211.85
2229.4
2239.7
2258.95
2266.5
2278.9
2337.77
2449.32
1901.72
1946.8
1974.94
1980.07
2062.96
2099.34
2231.33
2342.07
2447.77
2495.64
2506.81
2508.91
2500.8
2484.4
2456.96
2429.89
2394.82
2340.71
2351.91
2257.24
2304.44
2286.25
2322.67
2366.06
2417.59
2481.71
2554.83
2630.04
2698.53
2743.02
1990.81
2016.82
2038.52
2044.11
2070.99
2120.44
2161.58
2216.35
2249.38
2299.23
2306.03
2370.38
2406.92
2464.75
2432.63
2365.29
2248.34
2301.33
2299.77
2294.2
2306.74
2343.41
2349.07
2389.86
2420.91
2485.83
2564.08
2657.19
2729.86
2760.95
2366.95
2407.66
2376.78
2408.27
2540.9
2426.85
2285.19
2335.4
2250.41
2330.9
2333.99
2409.81
2416.23
2451.13
2491.28
2492.39
2474.72
2453.31
2429.56
2384.7
2369.34
2395.04
2444.36
2424.09
2405.57
2436.43
2471.08
2554.3
2625.28
2616.44
2961.98
2923.63
2907.3
2905.78
2903.5
2918.48
2949.84
3006.01
3016.52
2916.75
2757.49
2649.35
2629.36
2613.64
2354.92
2672.02
2897
2947.22
2971.13
2970.19
2962.94
2964.06
2957.89
2961.72
2957.67
2962.31
2933.95
2883.7
2847.74
2804.07
2786.72
2768.47
2745.75
2727.99
2714.8
2726.89
2725.95
2688.54
2595.58
2501.86
2451.13
2495.9
2660.06
2722.3
2943.79
2923.78
2868.14
2831.84
2752.58
2716.91
2653.6
2642.34
2610.46
2625.48
2645.89
2680.28
2730.17
2785.77
2851.29
2920.42
2984.38
3012
3010.93
2999.04
2989.66
2960.22
2964.99
2954.63
2944.24
2914.95
2796.34
2597.5
2450.27
2457.26
2860.71
2873.91
2888.64
2872.42
2874.73
2872.42
2877.26
2880.92
2870.76
2872.23
2848.46
2837.12
2818.92
2829.64
2822.94
2835.24
2841.14
2844.58
2861.18
2882.17
2897.36
2891.18
2869.49
2831.58
2818.32
2870.29
2883.54
2865.24
2837.25
2716.42
2597.17
2606.43
2624.19
2639.7
2643.97
2634.82
2597.79
2559.99
2508.29
2469.58
2411.29
2393.24
2350.02
2327.11
2327.59
2335.42
2362.26
2410.06
2467.77
2516.79
2588.48
2591.89
2646.13
2636.04
2682.39
2694.85
2705.23
2677.26
2579.99
2515.05
2299.92
2480.45
2583.72
2696.56
2799.3
2873.3
2879.7
2867.71
2836.62
2791.78
2747.31
2721.6
2708.21
2703.18
2699.17
2699.71
2696.84
2708.04
2708.71
2750.59
2769.7
2802.12
2809.15
2820.32
2821.31
2872.52
2901.79
2921.37
2618.21
2348.87
2735.29
2790.09
2822.88
2783.37
2720.33
2657.43
2740.52
2725.55
2555.3
2663.14
2784.19
2736.46
2687.81
2667.9
2651.73
2643.93
2634.78
2622.2
2613.37
2603.47
2601.75
2618.19
2665.66
2669.85
2322.16
2001.39
1886.16
1712.24
1863.29
1940.91
2392.4
2484.8
2533.68
2505.08
2547.74
2572.11
2549.94
2410.12
2262.13
2284.75
2592.61
2877.14
2675.08
2586.13
2539.67
2525.32
2502.73
2508.21
2523.45
2537.83
2551.81
2565.66
2565.85
2556.32
2543.19
2590.66
2701.7
2875.5
2575.64
2451.2
2170.62
2137.54
2116.97
2141.4
2190.42
2272.54
2305.11
2261.03
2220.8
2191.95
2191.11
2226.57
2261.75
2313.67
2370.03
2466.13
2577.73
2676.17
2722.96
2724.87
2738.39
2693.45
2783.81
2804.8
2835.35
2731.33
2555.7
2339.76
2267.28
2406.7
2484.11
2478.99
2559.71
2655.4
2687.67
2661.29
2554.26
2427.31
2330.29
2244.68
2212.12
2134.54
2099.41
2055.05
2025.94
2018.65
2021.46
2059.96
2068.78
2080.8
2062.83
2059.59
2040
2072.9
2090.89
2161.21
2173.37
2166.46
2050.03
2013.33
1909.38
1964.42
1977.93
1998.81
2059.15
2123.92
2231.24
2316.83
2400.44
2447.12
2472.66
2492.3
2506.7
2511.95
2501.37
2484.16
2426.42
2349.65
2237.96
2191.98
2064.97
2027.42
1989.73
1984.95
1985.37
2018.96
2066.98
2156.89
2256.65
2363.9
2024.26
2047.19
2069.1
2092.02
2109.05
2160.4
2191.81
2221.84
2243.56
2277.73
2294.54
2376.04
2474.11
2502.82
2651.84
2523.36
2413.2
2345.76
2331.76
2257.9
2291.38
2229.62
2204.5
2209.69
2200.67
2213.69
2239.65
2268.07
2341.04
2423.87
2375.92
2399.35
2407.01
2457.18
2609.37
2436.77
2380.64
2369.59
2249.82
2336.97
2309.37
2359.97
2307.07
2362.14
2365.71
2385.43
2387.57
2383.83
2371.44
2348.6
2345.78
2336.52
2323.23
2313.03
2280.99
2287.53
2274.44
2306.94
2407.09
2500.31
2860.52
2902.51
2942.79
2952.87
2929.92
2884.54
2862.27
2868.51
2925.18
3015.97
3040.16
2827.7
2646.9
2573.99
2440.68
2844.7
2935.11
2967.57
2970.1
2965.86
2958.85
2944.44
2945.33
2945.04
2946.04
2965.34
2978.87
2981.02
2941.66
2873.11
2833.93
2805.64
2782.22
2761.69
2749.77
2781.17
2797.27
2774.27
2652.5
2526.97
2448.28
2502.78
2665.37
2743.04
2931.54
2917.24
2870.56
2803.39
2707.97
2661.73
2588.01
2586.32
2574.86
2600.68
2641.54
2687.07
2731.6
2771.49
2825.15
2881.78
2944.73
2995.47
3010.31
3007.02
2987.31
2950.64
2938.74
2935.61
2947.68
2925.49
2771.15
2556.77
2442.11
2470.88
2877.71
2883.65
2823.03
2819.23
2846.87
2878.24
2887.32
2861.43
2839.99
2802.59
2798.74
2786.9
2787.28
2777.65
2788.19
2780.21
2765.17
2765.25
2771.65
2801.99
2845.15
2871.79
2889.12
2857.24
2808.63
2811.28
2851.37
2881.94
2861.99
2755.83
2590.78
2629.54
2645.06
2649.76
2625.72
2590.93
2550.43
2493.79
2442.46
2390.23
2350.18
2313.11
2286.21
2243.73
2247.6
2236
2242.99
2270.27
2344.39
2422.14
2540.53
2604.61
2671.15
2663.65
2696.09
2706.51
2697.97
2666.54
2583.06
2513.64
2360.1
2585.71
2754.63
2844.42
2876.18
2868.21
2824.88
2767.4
2712.12
2677.27
2666.03
2671.72
2690.67
2712.34
2736.05
2754.79
2766.52
2772.82
2781.8
2777.64
2793.95
2773.88
2756.51
2729.22
2768.04
2799.84
2870.23
2899.33
2840.14
2411.76
2516.69
2581.49
2642.94
2643.67
2598.64
2661.03
2756.65
2665.95
2776.71
2703.9
2691.35
2664.75
2683.91
2675.27
2675.92
2657.28
2655.65
2649.92
2651.34
2629.59
2602.65
2578.41
2592.52
2641.09
2620.75
2156.35
1920.88
1779.2
1867.09
1949.27
2530.26
2651.09
2634.83
2633.9
2627.26
2644.37
2552.7
2339.06
2239.26
2402.96
2890.11
2659.28
2565.89
2515.24
2514.81
2484.98
2494.89
2498.85
2502.54
2521.2
2551.8
2590.08
2615.76
2611.2
2576.58
2547.44
2590.12
2733.98
2788.33
2458.39
2229.13
2188.67
2179.79
2178.79
2262.74
2282.25
2294.41
2198.47
2178.01
2163.39
2227.79
2327.24
2481.94
2628.16
2637.97
2561.55
2470.36
2415.96
2377.14
2357.92
2374.24
2381.63
2426.34
2457.15
2485.98
2550.03
2647.35
2866.05
2540.62
2195.61
2475.87
2448.47
2496.51
2572.88
2603.5
2562.47
2496.14
2430.41
2373.93
2311.3
2248.2
2139.36
2099.08
2048.62
2074.59
2113.87
2207.41
2278.84
2362.14
2429.8
2508.11
2549.64
2605.96
2601.45
2590.15
2582.18
2592.51
2608.27
2695.85
2293.32
1916.06
1953.59
1985.77
2007.38
2057.26
2112.73
2221.88
2271.63
2361.37
2426.68
2525.18
2623.18
2755.96
2903.63
3007.32
3002.3
2986.93
2972.16
2917.42
2895.56
2822.31
2766.5
2589.7
2493.02
2269.33
2132.2
2036.06
2017.88
2043.49
2091.3
2031.78
2070.96
2094.09
2119.91
2164.32
2199.31
2232.97
2314.43
2419.64
2614.01
2799.22
2935.21
2923.95
2928.1
2886.25
2846.01
2785.86
2870.66
2871.75
2980.07
3036.71
2931.82
2705.94
2559
2407.87
2290.47
2226.54
2197.52
2200.7
2238.64
2375.62
2396.63
2470.37
2622.16
2857.68
2759.64
2786.49
2733.66
2647.52
2745.31
2710.64
2681.88
2539.05
2622.38
2591.72
2591.09
2633.96
2572.9
2582.19
2607.22
2608.25
2587.74
2568.25
2563.24
2604.06
2562.58
2530.05
2375.92
2278.27
2261.73
2959.57
3059.09
3022
3004.01
3058.76
3045.03
2936.7
2861.93
2852.97
2894.98
3004.2
3062.08
2786.6
2575.22
2556.39
2848.44
2946.79
2974.19
2971.01
2973.52
2970.61
2975.47
2968.45
2965.98
2959.95
2958.15
2969.26
2978.97
2958.93
2885.47
2847.67
2816.56
2799.45
2780.98
2801.1
2842.37
2877.4
2822.26
2662.17
2485.59
2399.88
2467.98
2665.04
2751.89
2906.31
2853.96
2773.06
2694.34
2620.55
2589.3
2547.2
2573.28
2608.95
2674.02
2752.96
2805.12
2818.38
2817.38
2826.66
2863.38
2909.09
2958.95
2991.24
3005.07
2992.24
2945.99
2919.17
2910.3
2929.34
2913
2705.59
2508.87
2443.32
2485.24
2887.1
2793.85
2786.18
2863.24
2837.24
2754.38
2713.63
2681.97
2672.09
2656.15
2634.32
2626.07
2629.05
2667.1
2718.49
2747.57
2755.41
2727.53
2728.66
2738.13
2769.76
2813.73
2846.93
2864.75
2813.84
2778.61
2794.86
2841.51
2865.62
2779.19
2645.47
2674.9
2684.72
2667.22
2659.09
2643.47
2595.59
2543.02
2471.8
2417.89
2359.89
2329.21
2281.93
2255.83
2230.09
2230.69
2223.7
2249.66
2286.12
2370.6
2501.63
2573.27
2671.87
2682.21
2705.92
2691.17
2670.2
2636.41
2558.88
2506.6
2470.52
2763.77
2825.12
2867.62
2821.14
2775.37
2719.14
2680.87
2649.41
2642.43
2658.11
2693.47
2732.31
2770.4
2805.03
2832.28
2846.94
2854.5
2827.99
2814.59
2779.46
2771.73
2745.33
2728.97
2703.16
2761.67
2827.39
2890.09
2896.96
2447.25
2479.95
2477.5
2519.02
2521.37
2576.16
2679.54
2697.57
2725.38
2656.3
2655.52
2654.58
2703.99
2708.64
2715.96
2690.13
2677.57
2683.85
2719.01
2744.47
2740.9
2695.34
2629.96
2596.12
2626.84
2683.57
2232.21
1967.29
1899.8
1918.57
1914.1
2716.73
2714.51
2584.21
2528.81
2658.75
2629.5
2547.49
2290.26
2264.94
2582.76
2757.16
2558.48
2488.77
2494.09
2470.87
2479.72
2466.41
2482.12
2491.17
2490.47
2517.09
2569.43
2625.28
2653.87
2619.41
2557.33
2538.09
2622.92
2831.34
2482.53
2204.78
2170.88
2172.65
2231.55
2276.97
2299.6
2266.45
2193.41
2166.95
2238.27
2399.71
2635.16
2564.95
2439.39
2341.39
2319.53
2309.4
2314.78
2337.34
2351.97
2376.64
2400.16
2442.01
2471.83
2490.46
2499.02
2492.84
2526.23
2736.82
2328.81
2449.93
2403.73
2423.56
2488.82
2521.91
2510.5
2481.57
2455.69
2466.65
2442.43
2399.57
2274.76
2264.54
2244.94
2389.2
2516.27
2652.15
2613.96
2576.57
2499.02
2468.28
2433.67
2415.68
2424.68
2421.79
2452.64
2445.62
2446.18
2434.64
2505.66
1912.56
1949.34
1989.72
2027.61
2054.4
2125.64
2185.25
2277.53
2348.86
2493.26
2680.71
2893.07
2986.3
2902.1
2809.22
2751.07
2696.49
2664.57
2600.91
2599.16
2517.34
2567.85
2568.37
2670.11
2751.66
2916.14
2755.52
2381.78
2102
2037.12
2069.06
2090.31
2110.73
2159.21
2234.75
2348.28
2466.57
2699.8
2926.03
2856.83
2775.46
2724.12
2749.07
2736.39
2727.62
2674.79
2617.19
2635.26
2651.37
2726.89
2717.23
2822.77
2916.79
3002.92
3107.79
2883.56
2540.99
2364.59
2232.53
2171.98
2367.18
2429.98
2587.31
2950.01
3234.54
3166.64
2910.22
2965.76
2846.39
2880.33
2918.16
2956.87
3013.2
3086.19
3156.5
3195.52
3176.57
3160.33
3150.74
3168.58
3182.45
3183.05
3175.65
3168.86
3164.59
3158.35
3106.81
2867.5
2452.32
2243.55
3050.26
2937.46
2835.9
2842.8
2903.66
3036.86
3044.16
2944.25
2885.82
2877.28
2916.12
3027.15
3031.87
2617.37
2740.97
2886.36
2962.15
2981.11
2972.01
2930.78
2899.74
2898.88
2952.1
2982.84
2985.06
2980.43
2974.47
2972.23
2899.33
2856.55
2817.94
2810.79
2793.86
2812.28
2869.72
2923
2920.57
2795.04
2572.76
2360.23
2263.86
2331.67
2554.49
2742.82
2831.55
2749.89
2672.81
2623.09
2589.57
2559.45
2570.93
2631.72
2738.37
2869.41
2942.14
2952.96
2931.8
2890.22
2862.94
2861.5
2887.78
2922.81
2958
2993.41
2999.42
2934.93
2896.79
2892.39
2922.49
2865.07
2613.07
2465.16
2449.73
2500.62
2878.29
2778.52
2856.44
2802.65
2728.25
2694.38
2675.5
2667.8
2645.1
2641.06
2618.06
2628.2
2620.88
2625.73
2620.57
2707.09
2732.31
2739.26
2721.87
2722.18
2730.41
2764.19
2809.39
2827.81
2800.69
2766.01
2766.39
2815.54
2854.09
2769.63
2654.93
2679.02
2623.18
2590.96
2608.97
2622.98
2622.87
2565.41
2521.91
2463.19
2419.4
2357.22
2327.12
2271.65
2262.33
2239.54
2249.24
2256.56
2304.1
2364.41
2475.97
2555.04
2641.78
2664.26
2679.81
2661.32
2621.37
2595.21
2530.63
2486.53
2576.6
2840.31
2841.12
2802.68
2745.12
2689.69
2651.18
2634.21
2627.92
2644.1
2677.16
2714.75
2754.4
2798.01
2838.74
2870.31
2873.29
2852.98
2827.86
2763.39
2734.36
2680.93
2683.67
2661.61
2687.4
2725.44
2831.02
2880.9
2901.83
2450.76
2353.53
2385.18
2413.39
2466.46
2595.52
2686.83
2683.19
2627.52
2617.94
2629.7
2691.59
2700.58
2727.05
2713.37
2700.44
2666.46
2692
2731.15
2644.4
2615.44
2737.99
2691.42
2648.39
2647.79
2645.01
2252.55
1976.19
1933.95
1942.3
1988.69
2860.51
2682.15
2516.61
2413.11
2591.19
2621.2
2524.75
2278.14
2318.44
2766.54
2675.21
2532.73
2485.67
2452.05
2484.88
2483.67
2486.09
2462.37
2468.92
2475.07
2470.73
2512.45
2591.2
2658.44
2688.47
2622.25
2541.05
2544.04
2719.83
2524.44
2277.34
2213.22
2249.13
2301.22
2311.96
2290.56
2261.45
2210.21
2257.82
2420.17
2639.46
2472.13
2340.88
2262.31
2267.57
2267.78
2299.81
2331.59
2327.5
2345.58
2351.86
2400.86
2424.32
2492.45
2519.33
2534.85
2518.01
2487.89
2503.13
2866.56
2422.44
2361.68
2359.86
2389.16
2430.31
2461.81
2500.07
2562.84
2642.5
2669.62
2670.45
2598.31
2632.09
2670.7
2665.07
2549.85
2520.79
2459.66
2450.85
2445.21
2452.26
2460.16
2493.21
2525.45
2566.97
2590.61
2594.78
2557.73
2470.22
2376.08
1911.14
1942.08
1992.6
2028.17
2077.48
2117.68
2173.9
2262.68
2376.28
2565.76
2879.33
2979.8
2888.26
2805.81
2746.98
2689.93
2663.03
2603.59
2589.95
2514.67
2468.2
2482.44
2439.93
2497.06
2498.5
2587.38
2702
2947.44
2554.46
2049.07
2061.89
2119.15
2169.66
2200.61
2282.24
2482.8
2713.31
2984.8
2880.07
2789.68
2745.25
2775.56
2781.6
2811.84
2821.69
2772.2
2718.47
2674.96
2717.4
2646.9
2658.07
2684.64
2681.7
2725.49
2808.09
2963.13
3129.38
2785.33
2362.27
2164.53
2365.85
2498.33
2843.34
3223.63
3126.87
3037.12
2809.92
2870.55
2709.57
2726.9
2702.6
2730.19
2784.31
2791.36
2921.43
2999.11
3044.15
3104.51
3093.82
3074.89
3053.55
3019.93
2992.97
2969.19
2959.04
2992.66
3054.96
3124.05
2901.04
2323.64
3057.63
2882.85
2831.35
2881
2893.88
2950.37
3051.69
3051.82
3003.58
2968.3
2957.18
2992.78
3075.34
2756.85
2887.23
2960.51
2985.38
2964.58
2863.49
2753.97
2722.77
2760.36
2827.78
2903.02
2942.55
2952.28
2920.11
2873.48
2827.3
2800.2
2786.45
2787.19
2828.19
2889.05
2955.59
2952.89
2844.64
2598.92
2350.82
2183.55
2123.92
2158.43
2377.52
2683.64
2739.66
2688.35
2630.84
2608.81
2577.02
2593.21
2623.55
2733.31
2871.48
2971.62
2989.92
2979.88
2959.07
2929.33
2893.25
2878.03
2887.32
2915.85
2950.85
2998.92
2976.12
2905.37
2887
2888.2
2913.76
2730.66
2502.77
2421.22
2446.51
2495.77
2871.85
2815.68
2874.01
2831.92
2777.42
2739.3
2707.66
2674.29
2642.03
2630.88
2614.14
2622.37
2612.18
2616.48
2638.17
2615.86
2672.26
2704.95
2702.54
2718.23
2737.87
2757.64
2783.01
2808.94
2770.94
2729.57
2739.18
2799.98
2843.53
2768.51
2698.17
2609.82
2545.86
2572.65
2570.88
2584.81
2592.58
2602.76
2576.2
2559.87
2510.06
2469.85
2397.33
2352.55
2298.14
2294.12
2285.31
2295.23
2345.22
2383.62
2478.76
2540.15
2606.1
2626.84
2627.58
2594.89
2554.93
2540.56
2484.01
2475.36
2701.97
2855.37
2800.79
2734.83
2656.76
2635.92
2609.94
2599.73
2613.54
2654.32
2695.81
2718.91
2748.27
2797.71
2847.72
2864.98
2866.08
2851.55
2784.8
2734.23
2655.98
2646.22
2619.38
2635.01
2663.5
2742.26
2828.6
2896.95
2868.18
2448.56
2386.01
2345.07
2430.62
2529.67
2624.96
2631.33
2643.17
2603.79
2612.4
2660.16
2679.81
2719.79
2720.7
2730.06
2688.16
2659.52
2672.53
2712.71
2529.78
2458.64
2548.54
2713.2
2713.29
2672.63
2515.13
2196.56
2015.88
1971.08
1961.12
1918.47
2853.57
2587.49
2463.29
2388.23
2516.63
2606.25
2488.46
2281.58
2363.77
2803.66
2609
2472.99
2431.15
2461.96
2461.37
2472.78
2480.65
2488.37
2457.04
2446.33
2441.24
2444.13
2506.72
2605.93
2685.38
2721.02
2623.57
2532.29
2623.01
2604.45
2292.12
2265.01
2248.74
2304.68
2343.55
2302.42
2266.99
2287.58
2445.25
2630.89
2446.76
2306.74
2228.98
2228.8
2249.06
2273.79
2284.47
2273.98
2266.3
2271.5
2289.79
2332.48
2373.84
2438.04
2487.65
2515.76
2537.07
2499.05
2455.44
2576.86
2383.29
2339.38
2320.89
2347.88
2377.99
2424.61
2529.7
2684.67
2820.75
2810.71
2783.17
2687.5
2670.07
2549.3
2538.33
2466.59
2479.78
2466.7
2500.42
2510.81
2557.55
2603.27
2641.4
2713.19
2759.32
2804.73
2812.18
2760.78
2636.45
2443.8
1917.02
1990.52
2050.96
2118.77
2134.32
2173.95
2170.88
2255.77
2363.26
2605.75
2965.71
2929.11
2829.38
2775.96
2732.59
2722.53
2702.27
2715.8
2686.51
2673.61
2596.24
2604.82
2540.12
2567.87
2522.38
2531.95
2532.61
2655.18
2964.51
2165.73
2086.78
2159.68
2219.43
2255.93
2322.84
2590.15
2887.65
2972.61
2867.8
2837.5
2865.76
2893.13
2922.51
2943.96
2866.41
2898.85
2841.05
2881.06
2816.64
2768.13
2706.76
2662.26
2635.7
2640.63
2659.1
2723.4
2900.4
3120.31
2489.37
2184.33
2386.11
2637.59
3149.99
3173.44
3096.27
3112.75
2936
2947.23
2785.43
2748.93
2758.08
2741.02
2698.96
2763.93
2777.7
2798.03
2860.01
2899.38
2928.54
2919.66
2902.5
2875.54
2842.87
2820.24
2831.34
2896.24
3003.54
3084.92
3152.77
2437.31
3056.82
2950.55
2994.37
3029.85
2956.73
2901.28
2944.34
3002.89
3047.12
3061.92
3057.44
3039.38
3065.8
2868.57
2954.15
2976.72
2972.74
2873.15
2743.25
2688.4
2686.58
2718.2
2772.65
2806.27
2828.13
2820.42
2797.6
2779.97
2753.33
2773.47
2790.35
2864.99
2937.75
2965.83
2934.08
2775.34
2513.51
2304.4
2164.22
2133.81
2136.45
2158.52
2286.35
2629.98
2709.31
2673.62
2625.7
2607.32
2607.97
2639.95
2696.15
2789.73
2857.47
2948.21
2979.47
2984.24
2976.2
2959.47
2939.6
2914.49
2923.4
2952.49
2994.05
2991.93
2925.26
2891.94
2879.66
2912.8
2830.93
2569.58
2411.01
2388.54
2463.37
2534.48
2856.28
2833.34
2856.49
2857.65
2859.15
2809.18
2748.84
2690.92
2644.23
2630.7
2615.68
2635.9
2624.63
2632.65
2611.35
2628.6
2606.88
2665.96
2698.11
2732.57
2750.84
2770.43
2749.97
2742.83
2734.85
2735.15
2765.13
2819.46
2816.55
2733.34
2695.3
2526.95
2533.6
2535.25
2561.37
2549.96
2555.83
2554.42
2557.21
2558.44
2573.41
2561.67
2546.47
2477.9
2423.72
2357.92
2346.75
2341.47
2373.09
2403.93
2465.99
2516.59
2547.26
2566.82
2542.99
2500.06
2486.07
2495.78
2443.18
2462.29
2782.24
2835.86
2732.66
2658.87
2619.49
2588.56
2588.78
2600.88
2629.07
2670.07
2694.05
2706.58
2733.77
2787.18
2835.91
2861.93
2861.03
2827.04
2791.15
2716.86
2664.8
2621.32
2643.05
2659.37
2721.81
2772.88
2857.62
2921.14
2763.5
2430.49
2341.15
2355.66
2448
2586.53
2642.09
2657.91
2618.46
2599.72
2630.08
2651.94
2684.39
2699.59
2737.05
2733.46
2710.62
2648.09
2641.97
2677.36
2561.02
2436.33
2399.54
2448.88
2524.14
2472.57
2331.38
2145.18
2046.75
1974.59
1982.79
1976.93
2654.53
2509.73
2400.28
2402.56
2506.69
2579.5
2461.12
2284.43
2354.76
2801.33
2602.46
2482.31
2437.51
2430.63
2473.78
2487.65
2482.14
2462.33
2480.87
2449.39
2422.47
2401.91
2412.92
2506.65
2632.27
2707.27
2735.28
2571.45
2574.36
2761.68
2302.27
2248.98
2283.4
2321.57
2354.74
2344.66
2330.29
2418.48
2644.77
2464.18
2293.04
2214.62
2209.11
2226.02
2252.6
2258.42
2257.16
2225.56
2242.97
2257.15
2271.71
2311.6
2353.07
2406.56
2449.98
2466.68
2513.09
2514.86
2541.73
2622.13
2354.15
2323.18
2306.49
2285.49
2309.9
2396.26
2545.53
2777.73
2866.07
2747.52
2686.23
2594.77
2579.98
2525.23
2527.14
2495.75
2524.74
2542.43
2596.16
2646.5
2716.02
2764.8
2817.57
2860.96
2893.58
2901.56
2892.21
2824.11
2696.34
2512.36
1949.1
2091.37
2224.51
2308.88
2359.57
2341.03
2320.52
2286.02
2355.55
2542.59
2958.53
2903.47
2836.02
2797.87
2779.18
2772.37
2795.69
2804.14
2823.84
2808.47
2785.16
2782.45
2737.58
2751.74
2693.84
2666.4
2591.39
2568.38
2723.69
2570.93
2138.43
2256.72
2337.13
2373.79
2414.13
2611.37
2982.27
2957.97
2918.58
2919.1
3011.8
2982.34
3002.08
2921.96
2926.04
2932.13
2908.62
2979.52
2948.97
2911.91
2793.01
2698.38
2627.64
2620.98
2614.87
2620.3
2765.57
3098.36
2538.55
2288.51
2388.71
2818.55
3211.34
3175.17
3197.88
3203.99
3028.42
2976.92
2835.34
2754.23
2779.14
2737.86
2748.14
2776.7
2768.01
2755.61
2754.96
2773.04
2791.62
2812.13
2811.43
2798.07
2777.44
2755.65
2757.86
2856.77
3028.41
3152.61
3157.73
2585.74
3036.81
3048.1
3057.74
3050.45
2990.54
2865.32
2869.65
2915.06
2975.28
2983.08
2997.54
3059.52
3076.8
2884.22
2952.1
2963.8
2924.68
2829.01
2747.45
2699.18
2706.72
2720.68
2734.77
2746.32
2740.87
2741.4
2740.54
2759.2
2802.28
2859.87
2919.77
2942.74
2932.76
2830.58
2630.15
2421.31
2296.31
2244.46
2304.49
2396.54
2446.12
2388.78
2375.87
2598.67
2708.57
2663.82
2630.25
2655.31
2694.59
2723.57
2733.33
2758.01
2757.22
2810.24
2893.81
2958.21
2973.57
2967.28
2973.15
2967.47
2976.57
2993.83
2985.62
2928.8
2893.08
2877.82
2902.78
2846.14
2609.64
2430.94
2370.07
2420.87
2588.23
2674.96
2863.52
2810.5
2797.24
2808.75
2833.63
2842.71
2805.3
2732.76
2667.82
2637.48
2621.35
2646.94
2624.2
2633.87
2630.08
2605.38
2614.33
2613.31
2655.84
2670.01
2687.9
2709.43
2723.26
2718.13
2728.33
2742.12
2771.79
2791.24
2762.97
2716.99
2671.2
2558.31
2552.99
2565.19
2549.89
2557.77
2537.9
2541.14
2536.57
2542.25
2538.32
2550.6
2543.56
2558.16
2563.35
2536.83
2459.26
2423.71
2398.59
2419.08
2433.12
2462.09
2477.16
2464.07
2430.63
2405.17
2432.62
2438.09
2401.27
2446.55
2798.8
2801.13
2685.23
2612.85
2579.02
2582.78
2577.55
2611.82
2665.36
2698.52
2708.07
2707.12
2716.84
2762.04
2821.75
2846.1
2860.66
2838.18
2796
2766.89
2715.19
2693.77
2696.33
2725.54
2774.46
2848.97
2892.25
2878.83
2569.41
2390.93
2391.59
2351.65
2503.86
2618.52
2652.21
2644.49
2605.59
2609.68
2626.26
2640.23
2651.27
2697.74
2739.44
2759.23
2722.75
2653.38
2608.82
2613.72
2668.55
2505.87
2389.29
2329.64
2322.94
2285.61
2216.15
2146.43
2091.94
2079.87
2143.11
2159.68
2552.83
2496.13
2444.44
2437.98
2548.84
2548.54
2449.96
2265.69
2343.75
2751.87
2617.18
2469.64
2434.67
2436.9
2448.49
2466.41
2484.19
2478.99
2462.47
2472.61
2427.69
2379.92
2358.67
2409.92
2561.46
2667.89
2743.87
2686.61
2577.63
2835.78
2358.49
2300.11
2295.92
2356.74
2339.3
2360.93
2420.2
2605.27
2523.61
2313.24
2216.05
2182.46
2208.45
2235.08
2241.34
2240.35
2242.31
2218.2
2281.07
2263.27
2300.06
2328.75
2350.28
2392.5
2431.51
2442.94
2452.08
2542.49
2741.52
2765.36
2320.07
2334.19
2338.57
2294.82
2276.44
2355.82
2533.68
2841.09
2838.05
2700.4
2661.46
2567.81
2580.47
2540.5
2580.45
2562.74
2619.99
2644.45
2712.31
2760.26
2802.61
2825.82
2834.83
2864.3
2869.99
2892.82
2872.88
2812.66
2700.99
2462.67
2041
2292.82
2524
2696.6
2705.34
2694.05
2568.42
2501.44
2428.96
2516.78
2831.57
2918.42
2843.51
2820.01
2822.99
2840.89
2853.25
2886.83
2877.82
2896.49
2881.95
2904.23
2882.65
2909.07
2875.5
2856.07
2788.05
2680.09
2612.69
2797.43
2487.95
2478.28
2444.71
2482.81
2521.71
2630.99
2944.74
2980.9
2950.82
2985.13
3059.93
3009.49
3035.7
2948.03
2968.3
2972.59
2931.11
3004.8
3006.26
3003.69
2891.35
2760.67
2630.61
2602.44
2606.8
2600.88
2721.85
3058.23
2641.83
2529.43
2435.25
3008.62
3164.24
3199.18
3269.67
3225.71
3102.74
3056.55
2908.84
2788.76
2787.32
2682.92
2724.95
2737.45
2759.31
2754.5
2741.16
2720.44
2726.18
2738.6
2753.2
2754.89
2738.51
2711.32
2701.76
2798.88
3052.16
3173.23
3032.32
2891.52
3008.06
3059.61
3047.62
3045.49
2984.82
2853.58
2887.84
2930.6
2926.42
2915.23
2926.08
2955
3033.08
2869.1
2907.18
2944.59
2928.42
2916.79
2900.12
2847.76
2797.24
2758.67
2740.99
2745.09
2742.63
2757.86
2770.81
2798.31
2833.25
2866
2893.4
2908.77
2875.68
2804.23
2678.42
2551.95
2428.4
2367.39
2360.97
2448.43
2530.36
2571.72
2561.32
2554.81
2497.23
2608.15
2659.76
2716.46
2729.85
2702.29
2718.18
2755.96
2767.99
2768.6
2761.58
2748.17
2751.25
2751.55
2765.5
2881.82
2927.53
2961.6
2967.78
2974.49
2975.72
2972.7
2929.5
2897.96
2891.34
2906.83
2798.27
2604.31
2453.73
2384.9
2409.37
2627.6
2668.04
2616.24
2634.83
2672.98
2718.53
2728.59
2754.01
2776.28
2817.63
2856.38
2842.97
2765.59
2687.86
2646.07
2626.95
2655.74
2637.26
2635.99
2635.34
2618.63
2610.78
2603.13
2642.04
2649.75
2673.67
2699.29
2720.91
2767.4
2813.92
2846.06
2847
2836.11
2819.49
2764.07
2754.66
2704.03
2641.7
2583.95
2613.83
2588.34
2581.57
2562.88
2573.2
2567.35
2581.2
2592.86
2610.59
2618.79
2625.04
2603.81
2584.53
2558.32
2579.42
2552.97
2499.21
2450.85
2440.91
2423.27
2408.41
2380.31
2343.23
2348.02
2374
2381.12
2363.33
2460.72
2574.99
2738.42
2771.49
2751.78
2654.41
2606.9
2590.25
2596.9
2637.22
2675.84
2710.32
2732.99
2731.78
2718.18
2708.17
2737
2799.94
2829.9
2847.79
2850.52
2830.42
2806.04
2787.71
2772.67
2788.92
2794.68
2844.54
2886.36
2844.68
2599.67
2451.8
2491.37
2636.8
2536.35
2407.37
2372.46
2519.7
2649.66
2653.88
2631.8
2603.47
2608.07
2612.26
2606.77
2620.71
2667.12
2742.34
2774.6
2747.64
2675.41
2586.85
2560.41
2614.34
2643.46
2465.51
2364.64
2323.54
2294.83
2274.05
2234.91
2216.95
2238.75
2334.37
2424.55
2451.74
2525.82
2615.32
2580.89
2533.76
2545.88
2580.29
2574.42
2412.68
2237.17
2291.89
2628.66
2663.31
2505.64
2422.49
2427.54
2436.26
2442.69
2465.45
2460.73
2478.04
2471.8
2446.01
2401.73
2337.26
2325.24
2459.93
2653.92
2647.79
2784.65
2588.07
2760.87
2783.51
2779.76
2545.85
2351.81
2289.35
2351.14
2421.2
2388.46
2500.34
2668.85
2426.65
2221.98
2168.8
2198.99
2207.82
2233.06
2248.08
2239.9
2225.92
2255.49
2292.11
2265.87
2328.22
2351
2341.35
2384.46
2434.04
2406.73
2450.06
2586.29
2883.21
2378.06
2290.85
2247.3
2324.69
2439.1
2437.98
2344.37
2270.51
2307.07
2471.53
2844.29
2825.03
2704.69
2664.36
2582.36
2600
2589.04
2633.3
2651.49
2688.9
2725.11
2775.37
2790.74
2831.21
2833.12
2865.95
2850.04
2868.06
2863.99
2866.78
2848.98
2779.39
2541.29
2449.5
2574.8
2528.68
2743.73
2669.78
2541.25
2477.86
2525.7
2702.44
2851.27
2638.05
2552.38
2696.9
2968.13
2856.61
2849.18
2860.07
2887.66
2909.3
2916.92
2952.21
2958.53
2978.09
2995.95
2988.89
2986.07
2965.53
2946.91
2923.94
2857.8
2738.71
2603.99
2640.22
2737.93
2803.92
2967.42
2762.21
2572.91
2632.33
2719.66
2903.25
3012.57
2958.9
2992.18
3047.46
3030.11
3061.21
3006.45
3012.14
3040.18
2970.21
3059.78
3006.08
3041.9
2950.3
2808.36
2641.34
2588.89
2586.67
2593.32
2687.58
2996.64
2794.05
2689.65
2609.03
2275.96
2408.43
3071.94
3128.48
3199.25
3245.07
3207.56
3140.61
3075.89
3053.36
2979.63
2878.57
2722
2707.9
2683.49
2698.75
2726.02
2734.62
2725.43
2696.5
2687.49
2692.4
2701.88
2704.45
2688.6
2663.15
2716.05
2974.89
3165.95
3170.44
3056.91
2937.7
2846.49
2976.63
3051.92
3039.74
3045.01
2969.25
2844.82
2897.94
2935.45
2925.62
2913.08
2914.39
2916.95
2929.79
2886.79
2873.82
2848.11
2836.92
2849.76
2874.26
2860.57
2838.52
2825.36
2807.57
2813.62
2806.35
2832.77
2829.47
2842.83
2829.37
2808.89
2766.16
2718.78
2656.06
2586.09
2540.92
2468.07
2426.6
2423.59
2487.03
2541.48
2569.3
2577.69
2576.52
2576.5
2568.4
2655.55
2768.97
2791.76
2755.87
2764.06
2812.89
2810.1
2782.2
2755.92
2756.1
2778.1
2772.57
2779.45
2754.83
2799.75
2838.16
2905.62
2932.35
2951.79
2950.46
2927.42
2914.74
2908.18
2859.1
2658.77
2529.2
2479.99
2469.44
2460.97
2552.92
2678.36
2641.27
2591.18
2597.84
2669.58
2703.4
2706.36
2734.79
2766.98
2811.61
2870.55
2873.73
2789.5
2701.79
2646.65
2628.15
2664.48
2662.93
2659.68
2642.38
2644.54
2636.3
2640.4
2651.23
2673.96
2699.6
2798.35
2800.56
2734.43
2707.98
2721.43
2756.5
2817.53
2837.5
2813.63
2699.64
2681.81
2661.53
2647.12
2628.69
2609.73
2589.46
2606.31
2624.08
2664.73
2691.02
2723.34
2754.83
2762.31
2765.82
2752.26
2724.49
2671.77
2619.36
2602.52
2597.09
2563.03
2492.11
2453.98
2398.14
2351.12
2325.27
2327.61
2355.63
2340.6
2379.49
2472.97
2620.65
2783.51
2757.96
2727.41
2649.09
2639.1
2659.51
2696.76
2726.87
2759.5
2771.13
2769.23
2760.82
2740.07
2717.2
2716.96
2764.62
2806.11
2800.76
2817.33
2827.34
2834.96
2830.11
2830.51
2845.13
2848.05
2836.75
2698.93
2537.89
2506.7
2653.85
2631.25
2403.06
2360.04
2359.23
2464.39
2608.54
2649.85
2662.29
2622.99
2605.02
2605.41
2593.07
2582.36
2581.06
2635.75
2718.56
2779.44
2773.6
2695.62
2600.01
2529.41
2558.35
2618.33
2581
2452.81
2386.29
2338.8
2309.16
2289.19
2293.53
2324
2404.62
2499.78
2613.96
2675.28
2723.1
2692.65
2659.22
2628.45
2632.95
2558.35
2368.68
2204.27
2218.07
2442.66
2747.76
2586.3
2457.57
2431.02
2420.23
2440.42
2447.29
2453.72
2492.62
2478
2453.22
2436.95
2357.81
2310.01
2386.12
2623.46
2673.69
2726.35
2755.09
2821.68
2849.29
2796.65
2592.54
2418.69
2351.55
2367.75
2439.01
2541.32
2651.17
2580.17
2335.06
2212.13
2160.98
2185.23
2235.94
2236.38
2236.81
2245.98
2223.31
2280.54
2262.11
2271.58
2345.28
2336.18
2344.77
2399.31
2422.6
2418
2457.88
2603.09
2924.85
2488.86
2536.69
2632.95
2729.4
2834.76
2734.1
2512.08
2345.27
2288.03
2391.06
2721.71
2839.14
2718.85
2680
2608.43
2620.09
2609.57
2670.14
2683.45
2730.65
2740.15
2774.21
2780.26
2797.83
2794.34
2810.21
2802.79
2806.54
2802.81
2801.68
2822.68
2815.75
2761.9
2623.29
2509.21
2476.56
2406.67
2345.25