/*--------------------------------*- C++ -*----------------------------------*\
| =========                 |                                                 |
| \\      /  F ield         | OpenFOAM: The Open Source CFD Toolbox           |
|  \\    /   O peration     | Version:  2.1.1                                 |
|   \\  /    A nd           | Web:      www.OpenFOAM.org                      |
|    \\/     M anipulation  |                                                 |
\*---------------------------------------------------------------------------*/
FoamFile
{
    version     2.0;
    format      ascii;
    class       volScalarField;
    location    "0.007250000";
    object      H2O2;
}
// * * * * * * * * * * * * * * * * * * * * * * * * * * * * * * * * * * * * * //

dimensions      [0 0 0 0 0 0 0];

internalField   nonuniform List<scalar> 
12384
(
1.47093e-06
1.48375e-06
1.48249e-06
1.48458e-06
1.4757e-06
1.46523e-06
1.45334e-06
1.4349e-06
1.41666e-06
1.34713e-06
1.32027e-06
1.31198e-06
1.31494e-06
1.211e-06
1.13682e-06
1.21378e-06
1.23429e-06
1.23384e-06
1.20724e-06
1.18896e-06
1.19998e-06
1.20766e-06
1.23142e-06
1.24607e-06
1.21769e-06
1.20199e-06
1.19054e-06
1.18375e-06
1.1737e-06
1.17601e-06
1.18133e-06
1.20325e-06
1.20546e-06
1.187e-06
1.18916e-06
1.17592e-06
1.17334e-06
1.16241e-06
1.1437e-06
1.12717e-06
1.06886e-06
1.06786e-06
1.16149e-06
1.04923e-06
6.76061e-07
4.36066e-07
3.77136e-07
3.47617e-07
3.44671e-07
3.47408e-07
3.56002e-07
3.65656e-07
3.91223e-07
4.0733e-07
4.34176e-07
4.59444e-07
4.84662e-07
5.08155e-07
5.28845e-07
5.50844e-07
5.62803e-07
5.70245e-07
5.73863e-07
5.75679e-07
5.77548e-07
5.7267e-07
5.74624e-07
5.73434e-07
5.61942e-07
5.42095e-07
4.90352e-07
4.30463e-07
5.64987e-07
7.52909e-07
4.25793e-07
3.63146e-07
3.21614e-07
3.24236e-07
3.39434e-07
3.49703e-07
3.59667e-07
3.60963e-07
3.67877e-07
3.75505e-07
3.79282e-07
3.81952e-07
3.8378e-07
3.82598e-07
3.79831e-07
3.79532e-07
3.79851e-07
3.79839e-07
3.79358e-07
3.81602e-07
3.8264e-07
3.84807e-07
3.86882e-07
3.93129e-07
3.97935e-07
4.05437e-07
4.11172e-07
4.11083e-07
4.15393e-07
4.13172e-07
2.24142e-07
2.26363e-07
2.22597e-07
2.15937e-07
2.12743e-07
2.08562e-07
2.06773e-07
2.0787e-07
2.09386e-07
2.11679e-07
2.1276e-07
2.11661e-07
2.086e-07
2.06332e-07
2.04089e-07
2.02276e-07
2.07983e-07
2.05188e-07
2.13371e-07
2.12954e-07
2.18546e-07
2.22179e-07
3.50876e-07
3.61494e-07
3.32523e-07
2.15017e-07
2.12264e-07
2.11992e-07
2.17323e-07
3.40757e-07
6.98595e-08
7.4745e-08
7.59102e-08
7.71327e-08
7.63694e-08
7.46421e-08
7.33511e-08
7.2149e-08
7.15012e-08
7.12776e-08
7.16199e-08
7.23587e-08
7.31708e-08
7.37547e-08
7.44115e-08
7.45544e-08
7.43093e-08
7.43001e-08
7.45339e-08
7.25353e-08
7.36263e-08
7.27402e-08
7.39884e-08
7.41607e-08
7.51103e-08
7.73777e-08
7.95576e-08
8.27464e-08
8.85097e-08
9.00514e-08
1.25415e-07
1.08638e-07
1.2038e-07
1.30757e-07
1.30468e-07
1.30324e-07
1.26322e-07
1.23724e-07
1.23988e-07
1.245e-07
1.25378e-07
1.24758e-07
1.228e-07
1.25027e-07
1.18013e-07
1.2177e-07
1.14287e-07
1.81749e-07
1.78983e-07
1.83694e-07
1.98699e-07
2.00089e-07
2.1084e-07
2.08602e-07
2.07063e-07
5.35568e-07
7.50782e-07
7.24533e-07
6.98809e-07
6.34087e-07
1.11929e-07
7.0631e-08
6.69424e-08
6.27623e-08
5.54059e-08
5.21102e-08
4.58455e-08
4.45641e-08
4.34754e-08
4.78318e-08
4.45585e-08
4.79515e-08
4.53022e-08
4.52431e-08
4.68746e-08
4.83642e-08
4.76881e-08
4.9755e-08
5.17964e-08
5.30871e-08
6.07852e-08
6.83464e-08
6.6072e-08
6.54112e-08
6.46636e-08
6.40827e-08
6.34183e-08
6.31289e-08
6.31514e-08
6.49457e-08
1.21236e-07
1.23712e-07
1.29977e-07
1.35215e-07
1.38286e-07
1.39422e-07
1.38542e-07
1.37424e-07
1.35571e-07
1.32479e-07
1.31958e-07
1.36327e-07
1.35855e-07
1.45608e-07
1.47757e-07
1.56292e-07
1.54764e-07
9.1464e-08
3.11266e-08
2.94013e-08
3.12315e-08
3.35338e-08
3.51416e-08
3.63014e-08
4.30612e-08
4.63999e-08
4.57872e-08
3.79084e-08
3.15826e-08
2.30401e-08
9.88171e-08
1.02784e-07
1.10207e-07
1.12463e-07
1.14066e-07
1.14621e-07
1.14854e-07
1.14105e-07
1.09233e-07
1.12097e-07
1.0601e-07
1.09849e-07
1.10957e-07
1.12923e-07
1.18064e-07
1.1421e-07
1.04777e-07
8.55037e-08
4.69956e-08
3.93372e-08
4.05543e-08
4.13088e-08
4.13096e-08
4.18131e-08
4.03558e-08
3.98762e-08
3.73617e-08
3.64254e-08
3.40659e-08
3.2301e-08
5.74858e-08
8.19988e-08
9.7847e-08
1.04481e-07
1.09584e-07
1.10512e-07
1.09304e-07
1.06397e-07
1.06659e-07
1.05731e-07
1.06583e-07
1.06845e-07
1.03199e-07
5.72917e-08
2.58744e-08
1.95731e-08
1.9792e-08
2.08278e-08
2.13604e-08
2.13624e-08
2.09539e-08
2.085e-08
2.06142e-08
2.02472e-08
2.04018e-08
2.04259e-08
2.03533e-08
2.08117e-08
2.07054e-08
1.89768e-08
2.59344e-08
2.85717e-08
2.24937e-08
2.10259e-08
2.07062e-08
2.25909e-08
2.28665e-08
2.29102e-08
2.29409e-08
2.34972e-08
2.3379e-08
2.41453e-08
2.41305e-08
2.45618e-08
2.46277e-08
2.4805e-08
2.47787e-08
2.46957e-08
2.45592e-08
2.44264e-08
2.43121e-08
2.41063e-08
2.4142e-08
2.41647e-08
2.40254e-08
2.37195e-08
2.29798e-08
2.19601e-08
2.26139e-08
2.70394e-08
1.20294e-08
1.22108e-08
1.1574e-08
1.03328e-08
9.58139e-09
1.16749e-08
5.6906e-09
2.43868e-09
2.17418e-09
2.08131e-09
1.95275e-09
1.76059e-09
1.71999e-09
1.71649e-09
1.70568e-09
1.70363e-09
1.7046e-09
1.70774e-09
1.70744e-09
1.71058e-09
1.85282e-09
1.931e-09
2.02019e-09
2.10788e-09
2.31413e-09
2.44395e-09
2.59861e-09
3.71496e-09
4.39302e-09
2.35924e-09
1.51502e-06
1.54199e-06
1.5262e-06
1.50465e-06
1.48276e-06
1.47155e-06
1.46235e-06
1.45459e-06
1.45366e-06
1.40337e-06
1.38232e-06
1.30514e-06
1.29573e-06
1.21614e-06
1.15462e-06
1.22877e-06
1.23438e-06
1.21155e-06
1.19742e-06
1.20534e-06
1.24462e-06
1.29302e-06
1.26592e-06
1.22046e-06
1.11979e-06
1.09271e-06
1.14407e-06
1.14607e-06
1.16707e-06
1.21881e-06
1.2357e-06
1.24507e-06
1.26291e-06
1.26534e-06
1.26773e-06
1.25859e-06
1.23946e-06
1.22485e-06
1.19362e-06
1.16689e-06
1.10721e-06
1.06636e-06
1.12313e-06
1.13152e-06
6.60722e-07
4.22258e-07
3.6381e-07
3.35049e-07
3.31002e-07
3.37297e-07
3.59435e-07
3.85283e-07
4.22145e-07
4.5315e-07
4.85989e-07
5.1527e-07
5.42866e-07
5.68964e-07
5.96306e-07
6.10877e-07
7.03152e-07
7.09366e-07
7.14824e-07
7.21323e-07
7.26254e-07
7.31025e-07
7.33214e-07
7.25066e-07
7.09795e-07
5.99672e-07
5.5019e-07
4.69002e-07
4.69594e-07
5.58898e-07
4.11386e-07
3.47382e-07
3.26791e-07
3.48895e-07
3.74769e-07
3.88578e-07
3.93386e-07
3.95272e-07
3.95691e-07
3.9698e-07
4.04301e-07
4.14545e-07
4.20676e-07
4.24988e-07
4.23304e-07
4.17751e-07
4.1103e-07
4.07403e-07
4.09454e-07
4.12237e-07
4.14882e-07
4.19743e-07
4.25023e-07
4.29967e-07
4.32027e-07
4.3182e-07
4.28393e-07
4.23674e-07
4.20219e-07
4.23204e-07
2.22266e-07
2.24908e-07
2.20865e-07
2.14034e-07
2.09231e-07
2.04737e-07
2.05325e-07
2.13442e-07
2.25578e-07
2.37072e-07
3.54228e-07
3.70165e-07
3.78432e-07
3.81159e-07
3.82992e-07
3.80772e-07
3.74761e-07
3.68508e-07
3.51259e-07
2.36637e-07
2.30878e-07
2.25314e-07
2.37477e-07
3.57984e-07
3.60628e-07
2.06316e-07
1.97864e-07
1.98143e-07
1.98713e-07
1.97701e-07
7.04618e-08
7.50769e-08
7.59145e-08
7.5546e-08
7.24927e-08
6.82333e-08
6.5862e-08
6.4989e-08
6.29922e-08
6.43754e-08
6.57809e-08
6.85532e-08
6.96277e-08
7.04092e-08
7.12503e-08
7.23779e-08
7.37944e-08
7.49274e-08
7.50655e-08
7.55514e-08
7.64641e-08
7.63307e-08
7.68622e-08
7.7619e-08
7.74876e-08
7.78941e-08
7.92773e-08
8.19128e-08
8.60425e-08
8.91247e-08
1.24384e-07
1.11285e-07
1.22386e-07
1.21746e-07
1.06535e-07
8.41413e-08
6.50484e-08
7.84402e-08
9.21405e-08
1.05416e-07
1.14009e-07
1.2188e-07
1.2014e-07
1.22992e-07
1.18886e-07
1.18318e-07
1.13598e-07
1.15334e-07
1.76837e-07
1.82802e-07
1.92116e-07
2.00863e-07
2.08129e-07
2.12817e-07
2.07763e-07
2.98088e-07
6.33609e-07
7.35862e-07
6.05254e-07
5.43763e-07
1.11333e-07
6.81343e-08
6.28898e-08
4.6611e-08
4.45491e-08
4.43884e-08
4.49884e-08
5.1142e-08
5.12768e-08
5.09363e-08
4.89804e-08
4.83694e-08
4.67928e-08
4.7163e-08
4.5957e-08
4.63025e-08
4.74058e-08
4.88559e-08
5.09016e-08
5.30687e-08
5.64908e-08
6.4635e-08
6.81727e-08
6.74616e-08
6.79252e-08
6.78647e-08
6.56949e-08
6.38037e-08
6.08704e-08
6.00095e-08
1.20479e-07
1.25866e-07
1.35248e-07
1.43858e-07
1.50942e-07
1.55989e-07
1.59652e-07
1.61309e-07
2.34506e-07
2.39241e-07
2.37594e-07
1.56393e-07
1.57403e-07
1.53838e-07
1.54779e-07
1.58951e-07
1.60203e-07
1.39741e-07
6.46592e-08
3.2137e-08
3.04199e-08
3.26545e-08
3.31367e-08
3.52732e-08
4.17009e-08
5.09813e-08
5.86374e-08
5.94957e-08
4.8895e-08
2.68655e-08
1.07258e-07
1.14616e-07
1.14954e-07
1.14832e-07
1.16822e-07
1.20461e-07
1.23959e-07
1.25581e-07
1.26504e-07
1.95194e-07
2.06773e-07
2.11437e-07
2.09513e-07
2.05038e-07
1.28628e-07
1.25727e-07
1.16599e-07
1.00702e-07
6.02503e-08
4.4667e-08
4.0615e-08
4.17598e-08
4.18545e-08
4.20289e-08
4.11257e-08
4.07091e-08
3.8713e-08
3.73546e-08
3.60014e-08
3.34103e-08
5.22604e-08
6.31602e-08
9.29395e-08
1.01555e-07
1.08587e-07
1.13781e-07
1.19258e-07
1.21057e-07
1.2204e-07
1.20626e-07
1.18623e-07
1.16106e-07
1.12226e-07
9.49881e-08
4.87615e-08
2.38817e-08
2.01799e-08
2.13964e-08
2.35462e-08
2.44581e-08
2.35536e-08
2.25852e-08
1.95011e-08
1.92954e-08
1.9278e-08
1.93826e-08
1.99585e-08
2.04179e-08
2.05466e-08
1.89932e-08
2.57268e-08
2.50537e-08
2.16898e-08
2.159e-08
2.34874e-08
2.43269e-08
2.47416e-08
2.49473e-08
2.49046e-08
2.47233e-08
2.49699e-08
2.45169e-08
2.42449e-08
2.39985e-08
2.32686e-08
2.27618e-08
2.22273e-08
2.15546e-08
2.14266e-08
2.17452e-08
2.24222e-08
2.36443e-08
2.538e-08
2.65868e-08
2.7259e-08
2.68447e-08
2.46966e-08
2.29648e-08
2.26957e-08
2.61857e-08
1.28416e-08
1.43131e-08
1.69287e-08
9.95798e-09
1.03239e-08
7.08442e-09
2.89148e-09
2.2747e-09
2.09784e-09
1.83786e-09
1.82619e-09
1.80065e-09
1.8045e-09
1.80023e-09
1.78159e-09
1.74561e-09
1.68776e-09
1.65325e-09
1.60468e-09
1.56673e-09
1.56535e-09
1.58386e-09
1.64262e-09
1.81826e-09
1.97569e-09
2.27377e-09
2.64523e-09
4.04112e-09
4.51102e-09
2.34876e-09
1.54473e-06
1.52342e-06
1.48406e-06
1.47349e-06
1.47684e-06
1.47517e-06
1.46329e-06
1.4211e-06
1.41414e-06
1.3913e-06
1.37348e-06
1.35131e-06
1.27563e-06
1.20538e-06
1.16227e-06
1.23267e-06
1.22945e-06
1.19954e-06
1.19152e-06
1.22899e-06
1.3077e-06
1.30429e-06
1.17377e-06
1.09995e-06
1.04333e-06
1.0245e-06
1.0933e-06
1.14336e-06
1.21704e-06
1.24797e-06
1.28275e-06
1.28415e-06
1.30687e-06
1.30965e-06
1.31551e-06
1.31104e-06
1.31118e-06
1.30239e-06
1.26796e-06
1.22235e-06
1.16922e-06
1.08502e-06
1.08234e-06
1.15509e-06
6.46873e-07
4.1401e-07
3.5169e-07
3.15836e-07
3.08529e-07
3.16926e-07
3.50365e-07
3.95597e-07
4.57431e-07
5.07287e-07
5.43974e-07
5.55276e-07
5.67781e-07
5.81921e-07
6.01486e-07
6.91453e-07
6.96998e-07
7.03056e-07
7.10911e-07
7.20983e-07
7.30423e-07
7.3945e-07
7.51917e-07
7.58372e-07
7.5509e-07
7.38169e-07
6.11306e-07
5.32948e-07
4.6683e-07
5.02841e-07
3.97569e-07
3.38165e-07
3.39693e-07
3.73984e-07
3.93273e-07
3.92864e-07
3.74694e-07
3.55272e-07
3.47354e-07
3.51838e-07
3.66771e-07
3.92824e-07
4.15258e-07
4.32803e-07
4.35465e-07
4.25994e-07
4.17673e-07
4.19016e-07
4.23607e-07
4.28312e-07
4.4089e-07
4.52316e-07
4.58001e-07
4.67256e-07
4.69001e-07
4.66027e-07
4.5759e-07
4.43294e-07
4.29104e-07
4.25213e-07
2.18319e-07
2.22907e-07
2.23888e-07
2.17155e-07
2.07505e-07
2.02899e-07
2.11895e-07
2.30099e-07
3.62564e-07
4.01065e-07
4.26342e-07
4.42843e-07
4.4813e-07
4.54756e-07
4.61096e-07
4.62473e-07
4.63213e-07
4.65283e-07
4.44106e-07
4.16791e-07
3.68418e-07
2.41793e-07
2.36604e-07
2.43759e-07
3.69704e-07
3.36602e-07
2.19068e-07
2.30495e-07
2.29013e-07
2.0727e-07
6.99778e-08
7.4507e-08
7.49429e-08
7.31519e-08
6.82807e-08
6.40732e-08
6.08411e-08
6.03706e-08
6.19566e-08
6.31468e-08
6.50165e-08
6.69194e-08
7.00061e-08
6.99811e-08
7.09716e-08
7.3702e-08
7.63441e-08
7.82744e-08
8.0844e-08
8.21967e-08
8.22011e-08
8.17025e-08
8.17745e-08
8.20746e-08
8.20496e-08
8.07652e-08
8.00456e-08
8.11117e-08
8.42206e-08
8.77286e-08
1.22561e-07
1.11089e-07
1.14995e-07
8.91695e-08
5.75746e-08
4.83395e-08
4.87414e-08
5.61741e-08
6.34207e-08
1.00417e-07
1.153e-07
1.24133e-07
1.21921e-07
1.23171e-07
1.17045e-07
1.15832e-07
1.11175e-07
1.12218e-07
1.10958e-07
1.12289e-07
1.17223e-07
1.84983e-07
1.99491e-07
2.09957e-07
2.06593e-07
2.34383e-07
3.71831e-07
6.99001e-07
6.50876e-07
5.23977e-07
1.05399e-07
6.70787e-08
4.59492e-08
4.32888e-08
4.47233e-08
5.51962e-08
5.78547e-08
5.79858e-08
5.59131e-08
5.2967e-08
5.00753e-08
5.02681e-08
4.63004e-08
4.55444e-08
4.4439e-08
4.57916e-08
4.59278e-08
4.67597e-08
4.82147e-08
5.02093e-08
5.27622e-08
5.83025e-08
6.61381e-08
8.2518e-08
9.10951e-08
9.1195e-08
8.25032e-08
6.82214e-08
6.53977e-08
5.87463e-08
1.2089e-07
1.30963e-07
1.38999e-07
1.48664e-07
1.59071e-07
2.51297e-07
2.83375e-07
3.08059e-07
3.2569e-07
3.38269e-07
3.41711e-07
3.37095e-07
3.19993e-07
2.94613e-07
2.61678e-07
1.70311e-07
1.66589e-07
1.62406e-07
1.22959e-07
5.45359e-08
3.16124e-08
3.09147e-08
3.06224e-08
3.30191e-08
4.16734e-08
5.0223e-08
5.94296e-08
6.4922e-08
6.09955e-08
3.21721e-08
1.15705e-07
1.13286e-07
1.09771e-07
1.09793e-07
1.16165e-07
1.24617e-07
1.31405e-07
2.22749e-07
2.4889e-07
2.60727e-07
2.75548e-07
2.81088e-07
2.8624e-07
2.79202e-07
2.60116e-07
2.26516e-07
1.27778e-07
1.12961e-07
9.21298e-08
5.67507e-08
4.25393e-08
3.9837e-08
3.92341e-08
4.00808e-08
4.09886e-08
4.01438e-08
3.86011e-08
3.74072e-08
3.63267e-08
3.4997e-08
4.47651e-08
6.11013e-08
8.9454e-08
9.68476e-08
1.08071e-07
1.19112e-07
1.30871e-07
2.19292e-07
2.40702e-07
2.42649e-07
2.2838e-07
1.33975e-07
1.26358e-07
1.1497e-07
7.79248e-08
3.59223e-08
2.17823e-08
2.12275e-08
2.33648e-08
2.46254e-08
2.29064e-08
2.15695e-08
1.90655e-08
1.8852e-08
1.87316e-08
1.90367e-08
1.98e-08
2.04132e-08
2.04825e-08
1.84071e-08
2.49132e-08
2.32726e-08
2.23296e-08
2.29465e-08
2.44003e-08
2.54206e-08
2.58813e-08
2.60234e-08
2.61593e-08
2.56817e-08
2.52874e-08
2.52432e-08
2.5037e-08
2.39116e-08
2.26303e-08
2.07279e-08
1.9159e-08
1.85401e-08
1.88251e-08
2.06568e-08
2.34857e-08
2.63642e-08
2.83455e-08
2.93904e-08
2.99147e-08
2.96409e-08
2.75681e-08
2.39836e-08
2.2558e-08
2.57702e-08
9.7534e-09
1.6899e-08
2.13582e-08
1.00872e-08
8.76082e-09
4.0547e-09
2.42492e-09
2.03648e-09
1.95437e-09
2.01244e-09
2.10661e-09
2.54064e-09
2.62015e-09
2.44463e-09
2.47862e-09
2.06948e-09
1.92885e-09
1.77495e-09
1.65783e-09
1.57213e-09
1.53885e-09
1.55716e-09
1.80876e-09
1.99262e-09
2.33407e-09
2.61958e-09
3.87336e-09
5.03302e-09
4.41959e-09
2.04564e-09
1.53442e-06
1.48894e-06
1.48245e-06
1.49564e-06
1.43974e-06
1.39891e-06
1.38318e-06
1.31414e-06
1.31717e-06
1.39883e-06
1.38533e-06
1.36017e-06
1.27364e-06
1.21149e-06
1.16879e-06
1.23396e-06
1.22417e-06
1.19172e-06
1.19069e-06
1.2488e-06
1.35439e-06
1.28883e-06
1.15898e-06
1.07774e-06
1.01519e-06
9.94093e-07
1.08984e-06
1.17387e-06
1.24264e-06
1.27713e-06
1.29309e-06
1.31335e-06
1.33872e-06
1.33679e-06
1.34823e-06
1.36853e-06
1.36877e-06
1.34688e-06
1.31927e-06
1.27914e-06
1.2186e-06
1.141e-06
1.07414e-06
1.1419e-06
6.60432e-07
4.22677e-07
3.45729e-07
2.96086e-07
2.75595e-07
2.82357e-07
3.30647e-07
4.18569e-07
5.18653e-07
5.93533e-07
7.16471e-07
7.04331e-07
6.8393e-07
5.93569e-07
5.9279e-07
5.92954e-07
6.77544e-07
6.91258e-07
7.17667e-07
7.38844e-07
7.6057e-07
7.69732e-07
7.71752e-07
7.79122e-07
7.81905e-07
7.74769e-07
7.42654e-07
5.86501e-07
4.87951e-07
4.77656e-07
3.89937e-07
3.34838e-07
3.514e-07
3.87972e-07
3.94471e-07
3.70211e-07
3.28608e-07
3.02207e-07
2.99817e-07
3.13656e-07
3.36969e-07
3.71708e-07
4.08624e-07
4.35077e-07
4.36497e-07
4.24112e-07
4.20701e-07
4.26311e-07
4.37827e-07
4.60529e-07
4.82878e-07
4.95814e-07
5.04998e-07
5.05056e-07
5.06308e-07
4.99464e-07
4.87586e-07
4.67634e-07
4.40371e-07
4.26418e-07
2.12093e-07
2.20417e-07
2.26126e-07
2.1436e-07
2.00914e-07
2.02896e-07
2.20723e-07
3.54626e-07
4.06553e-07
4.37154e-07
4.55818e-07
4.67687e-07
4.81007e-07
4.94664e-07
5.02172e-07
5.12109e-07
5.16472e-07
5.23459e-07
5.07269e-07
4.92211e-07
4.35183e-07
3.85556e-07
2.4511e-07
2.42754e-07
3.61127e-07
3.68747e-07
3.58682e-07
4.1436e-07
4.0855e-07
3.4439e-07
6.89901e-08
7.32803e-08
7.32438e-08
7.11814e-08
6.56101e-08
6.24477e-08
5.87005e-08
5.90634e-08
5.95995e-08
6.05128e-08
6.34194e-08
6.55895e-08
6.90396e-08
6.99704e-08
7.25908e-08
7.61294e-08
7.97969e-08
8.43882e-08
8.72965e-08
8.82469e-08
8.828e-08
8.88175e-08
8.69631e-08
8.56225e-08
8.56568e-08
8.47661e-08
8.23193e-08
8.10574e-08
8.28584e-08
8.65293e-08
1.20908e-07
1.07216e-07
9.86344e-08
5.79201e-08
4.03957e-08
3.38091e-08
4.14296e-08
5.2616e-08
6.20223e-08
1.04186e-07
1.20119e-07
1.25813e-07
1.20886e-07
1.21269e-07
1.1563e-07
1.10787e-07
1.09674e-07
1.08554e-07
1.08763e-07
1.10473e-07
1.10684e-07
1.18028e-07
1.22552e-07
1.98293e-07
2.08316e-07
2.13275e-07
2.9005e-07
5.49645e-07
6.5013e-07
5.42427e-07
7.35827e-08
5.84572e-08
4.20448e-08
4.43157e-08
5.80035e-08
6.13062e-08
6.0116e-08
5.69272e-08
5.13604e-08
4.63048e-08
4.46363e-08
4.25736e-08
3.96851e-08
4.13455e-08
4.0816e-08
4.10597e-08
4.31271e-08
4.48263e-08
4.62894e-08
4.79616e-08
5.01892e-08
5.38449e-08
6.17076e-08
6.83302e-08
9.54777e-08
9.43483e-08
8.50155e-08
8.46279e-08
7.00777e-08
6.12338e-08
1.25013e-07
1.30111e-07
1.37454e-07
1.51402e-07
2.43792e-07
2.95199e-07
3.39864e-07
3.76967e-07
4.06558e-07
4.20023e-07
4.26604e-07
4.2442e-07
4.12266e-07
3.92333e-07
3.41516e-07
3.06657e-07
2.61809e-07
1.72468e-07
1.52053e-07
7.63757e-08
4.77191e-08
3.22062e-08
3.03681e-08
3.27387e-08
4.59299e-08
5.87477e-08
6.69636e-08
7.07006e-08
6.92018e-08
3.75493e-08
1.15204e-07
1.07386e-07
1.04031e-07
1.07754e-07
1.20034e-07
1.32556e-07
2.34471e-07
2.76942e-07
3.09214e-07
3.25672e-07
3.4712e-07
3.48233e-07
3.43606e-07
3.37422e-07
3.22372e-07
2.85942e-07
2.31349e-07
1.23268e-07
1.05103e-07
8.36558e-08
5.23092e-08
4.29903e-08
4.02076e-08
4.07622e-08
4.17001e-08
4.05517e-08
3.79385e-08
3.58396e-08
3.46693e-08
3.48629e-08
4.33961e-08
6.08328e-08
8.76714e-08
9.61583e-08
1.10836e-07
1.29854e-07
2.63036e-07
3.23053e-07
3.571e-07
3.61713e-07
3.39552e-07
2.94644e-07
2.39283e-07
1.30283e-07
1.01762e-07
4.71181e-08
2.35562e-08
2.13868e-08
2.3919e-08
2.50164e-08
2.40167e-08
2.29177e-08
2.15562e-08
1.91156e-08
1.8836e-08
1.879e-08
1.94046e-08
1.9959e-08
2.01395e-08
1.78269e-08
2.40626e-08
2.2645e-08
2.33036e-08
2.49063e-08
2.53732e-08
2.63862e-08
2.74423e-08
2.64492e-08
2.66585e-08
2.67411e-08
2.71131e-08
2.58146e-08
2.67658e-08
2.46916e-08
2.40324e-08
2.16627e-08
1.89628e-08
1.75437e-08
1.81184e-08
2.24113e-08
2.7382e-08
3.21595e-08
4.79987e-08
4.96811e-08
4.59571e-08
4.0307e-08
2.9729e-08
2.5044e-08
2.23954e-08
2.57554e-08
6.8723e-09
1.39786e-08
2.33941e-08
9.68535e-09
6.21191e-09
2.74071e-09
2.17043e-09
2.02354e-09
2.45454e-09
2.72022e-09
3.24671e-09
3.57571e-09
3.76454e-09
3.66061e-09
3.42593e-09
3.00132e-09
2.47382e-09
2.0238e-09
1.80146e-09
1.65376e-09
1.56276e-09
1.82869e-09
2.24441e-09
2.75879e-09
3.9727e-09
4.59255e-09
4.59775e-09
4.50024e-09
3.1962e-09
1.39679e-09
1.47985e-06
1.47914e-06
1.49764e-06
1.4171e-06
1.34287e-06
1.23304e-06
1.21904e-06
1.2325e-06
1.27617e-06
1.29836e-06
1.38883e-06
1.35702e-06
1.26831e-06
1.19015e-06
1.16925e-06
1.2354e-06
1.21113e-06
1.1881e-06
1.19032e-06
1.26144e-06
1.3656e-06
1.31366e-06
1.17427e-06
1.10244e-06
1.01579e-06
9.88643e-07
1.09271e-06
1.21096e-06
1.25828e-06
1.28552e-06
1.30979e-06
1.30615e-06
1.31873e-06
1.32704e-06
1.35878e-06
1.36969e-06
1.39518e-06
1.39727e-06
1.3701e-06
1.31986e-06
1.26169e-06
1.17415e-06
1.07589e-06
1.13345e-06
6.75938e-07
4.37252e-07
3.5027e-07
2.84213e-07
1.8323e-07
1.86097e-07
3.27713e-07
4.6537e-07
6.08562e-07
7.72851e-07
8.08813e-07
7.76533e-07
7.14155e-07
6.79123e-07
5.86659e-07
5.85417e-07
6.76572e-07
7.12759e-07
7.48965e-07
7.82091e-07
7.98804e-07
8.14974e-07
8.14071e-07
8.08536e-07
8.03275e-07
7.97185e-07
7.73899e-07
6.23711e-07
5.14428e-07
4.70201e-07
3.86134e-07
3.35168e-07
3.57353e-07
3.91243e-07
3.92943e-07
3.54011e-07
3.1235e-07
2.94477e-07
2.92861e-07
3.0195e-07
3.28705e-07
3.70725e-07
4.13077e-07
4.39941e-07
4.3493e-07
4.21125e-07
4.21708e-07
4.37778e-07
4.69768e-07
4.98863e-07
5.16735e-07
6.09799e-07
6.19165e-07
6.25753e-07
5.38488e-07
5.31002e-07
5.14139e-07
4.89143e-07
4.53076e-07
4.27699e-07
2.0604e-07
2.14209e-07
3.22968e-07
2.03526e-07
1.97472e-07
2.06975e-07
2.31097e-07
3.84625e-07
4.29205e-07
4.47038e-07
4.61931e-07
4.82591e-07
5.10226e-07
5.26859e-07
5.4307e-07
5.47588e-07
5.53827e-07
5.711e-07
5.48811e-07
5.43887e-07
4.92562e-07
4.40944e-07
3.72926e-07
2.47255e-07
2.51539e-07
3.75279e-07
3.79714e-07
4.44733e-07
4.24301e-07
3.446e-07
6.77083e-08
7.156e-08
7.18647e-08
7.0977e-08
6.62688e-08
6.04958e-08
5.66931e-08
5.71451e-08
5.91785e-08
5.85592e-08
6.0249e-08
6.25349e-08
6.7645e-08
6.9638e-08
7.36907e-08
7.83059e-08
8.48096e-08
8.97698e-08
9.16236e-08
9.29284e-08
9.47212e-08
9.33613e-08
9.30835e-08
8.98827e-08
8.77794e-08
8.67489e-08
8.47097e-08
8.22853e-08
8.2079e-08
8.48161e-08
1.19184e-07
1.0105e-07
6.55922e-08
4.57988e-08
3.19731e-08
3.14172e-08
4.17903e-08
5.28337e-08
6.22746e-08
1.08211e-07
1.24451e-07
1.2357e-07
1.19103e-07
1.22247e-07
1.11698e-07
1.08362e-07
1.08822e-07
1.04483e-07
1.03533e-07
1.04389e-07
1.09131e-07
1.13456e-07
1.18109e-07
1.2457e-07
2.07081e-07
2.06684e-07
2.51748e-07
3.7777e-07
6.02212e-07
5.33744e-07
6.53727e-08
4.10097e-08
4.2333e-08
5.81541e-08
6.30689e-08
6.12541e-08
5.69108e-08
5.10407e-08
4.46162e-08
4.28929e-08
3.50261e-08
3.31883e-08
3.36806e-08
3.20968e-08
3.20291e-08
3.33443e-08
3.78399e-08
4.07202e-08
4.36427e-08
4.59984e-08
4.85151e-08
5.15493e-08
5.80186e-08
6.67961e-08
9.41759e-08
9.27482e-08
8.56944e-08
8.79373e-08
8.99918e-08
6.43419e-08
1.24166e-07
1.2438e-07
1.37819e-07
1.56074e-07
2.78445e-07
3.35832e-07
3.89242e-07
4.29141e-07
4.64555e-07
5.61309e-07
5.84624e-07
5.91665e-07
5.54058e-07
4.67675e-07
4.23058e-07
3.66834e-07
3.11489e-07
2.73982e-07
1.65289e-07
1.26486e-07
6.72438e-08
4.70464e-08
3.4139e-08
4.14464e-08
5.51449e-08
7.03291e-08
7.76637e-08
7.65401e-08
7.44235e-08
4.92142e-08
1.08533e-07
1.00832e-07
9.57618e-08
1.10638e-07
1.25017e-07
2.17836e-07
2.78086e-07
3.18373e-07
3.54975e-07
3.86931e-07
3.93103e-07
4.78718e-07
4.75751e-07
3.87483e-07
3.64393e-07
3.31936e-07
2.82743e-07
2.03574e-07
1.15602e-07
9.717e-08
7.20046e-08
5.03707e-08
4.55979e-08
4.82611e-08
4.68007e-08
4.22566e-08
3.94531e-08
3.61907e-08
3.52573e-08
3.43986e-08
5.30351e-08
6.81187e-08
8.61781e-08
9.84412e-08
1.20784e-07
2.63553e-07
3.62966e-07
5.165e-07
5.77602e-07
5.8244e-07
5.36779e-07
3.8921e-07
3.13843e-07
2.36111e-07
1.1685e-07
5.37685e-08
2.47385e-08
2.1741e-08
2.43917e-08
2.44157e-08
2.64969e-08
2.61942e-08
2.55797e-08
2.37353e-08
2.1763e-08
1.85093e-08
1.81066e-08
1.85351e-08
1.85371e-08
1.7329e-08
2.3482e-08
2.33973e-08
2.45406e-08
2.56171e-08
2.79537e-08
2.81613e-08
2.84778e-08
2.9557e-08
2.9897e-08
2.96633e-08
2.90468e-08
2.77472e-08
2.76233e-08
2.7151e-08
2.48343e-08
2.3255e-08
1.99622e-08
1.72637e-08
1.78276e-08
2.33634e-08
3.02281e-08
4.90175e-08
6.34308e-08
6.57464e-08
5.86992e-08
4.7787e-08
3.07744e-08
2.52148e-08
2.23957e-08
2.60434e-08
5.69551e-09
1.26255e-08
2.61477e-08
9.47062e-09
4.58177e-09
2.58872e-09
2.2501e-09
2.51049e-09
2.9835e-09
3.7157e-09
4.41002e-09
5.77755e-09
5.99439e-09
5.78834e-09
4.95501e-09
4.00648e-09
3.33976e-09
2.61133e-09
2.0125e-09
1.75192e-09
1.62345e-09
1.91707e-09
2.41598e-09
4.19751e-09
5.15284e-09
4.55568e-09
3.63806e-09
2.52846e-09
1.43311e-09
1.20667e-09
1.46747e-06
1.51666e-06
1.44099e-06
1.31798e-06
1.23903e-06
1.20201e-06
1.19417e-06
1.16042e-06
1.21412e-06
1.28374e-06
1.32281e-06
1.37543e-06
1.28342e-06
1.19919e-06
1.16912e-06
1.23738e-06
1.21217e-06
1.1873e-06
1.18794e-06
1.24114e-06
1.35456e-06
1.34082e-06
1.21528e-06
1.14361e-06
1.04187e-06
9.89616e-07
1.09934e-06
1.22598e-06
1.27173e-06
1.29201e-06
1.27874e-06
1.28401e-06
1.31172e-06
1.34848e-06
1.38356e-06
1.40436e-06
1.41255e-06
1.4222e-06
1.40988e-06
1.36608e-06
1.29481e-06
1.18987e-06
1.08816e-06
1.12877e-06
7.08577e-07
4.77408e-07
3.91939e-07
3.15008e-07
2.78148e-07
2.88556e-07
3.86166e-07
5.5858e-07
7.82979e-07
8.53661e-07
8.64144e-07
8.21258e-07
7.20403e-07
6.7265e-07
5.76197e-07
5.76646e-07
6.83097e-07
7.40429e-07
7.85514e-07
8.11218e-07
8.27766e-07
8.30642e-07
8.48085e-07
8.31812e-07
8.22284e-07
8.12797e-07
7.93122e-07
7.33727e-07
5.34554e-07
4.66586e-07
3.87675e-07
3.34722e-07
3.57086e-07
3.92947e-07
3.96768e-07
3.64671e-07
3.37926e-07
3.3136e-07
3.25792e-07
3.15529e-07
3.36407e-07
3.7937e-07
4.2507e-07
4.47599e-07
4.30943e-07
4.14145e-07
4.29044e-07
4.65554e-07
4.94692e-07
5.17762e-07
6.30045e-07
6.53946e-07
6.67792e-07
6.62046e-07
6.51465e-07
6.33803e-07
5.35759e-07
5.06656e-07
4.62195e-07
4.23422e-07
1.96125e-07
2.12899e-07
2.20835e-07
1.96881e-07
1.99478e-07
2.10809e-07
2.38703e-07
4.0444e-07
4.27969e-07
4.42736e-07
4.70992e-07
5.07217e-07
5.53415e-07
5.81731e-07
5.94572e-07
6.00477e-07
5.89222e-07
5.97392e-07
5.9107e-07
5.81294e-07
5.37007e-07
4.89124e-07
4.09606e-07
2.53583e-07
2.53313e-07
3.78803e-07
3.92882e-07
4.57479e-07
4.00387e-07
2.21784e-07
6.51907e-08
6.96289e-08
7.04642e-08
6.98264e-08
6.59818e-08
6.22983e-08
5.95806e-08
5.93933e-08
5.93961e-08
5.92676e-08
5.7387e-08
5.99184e-08
6.67722e-08
7.0591e-08
7.53793e-08
8.28554e-08
8.90524e-08
9.20463e-08
9.46699e-08
9.76791e-08
9.52469e-08
9.51961e-08
9.63005e-08
9.49636e-08
9.21573e-08
8.7989e-08
8.49784e-08
8.26054e-08
8.21187e-08
8.3934e-08
1.18333e-07
9.38308e-08
6.00124e-08
3.49006e-08
3.04819e-08
3.02606e-08
4.30243e-08
5.48852e-08
6.3096e-08
1.1387e-07
1.25726e-07
1.20136e-07
1.2135e-07
1.20209e-07
1.09811e-07
1.10262e-07
1.05749e-07
9.81973e-08
9.84515e-08
1.01725e-07
1.03817e-07
1.08321e-07
1.17142e-07
1.24771e-07
2.00519e-07
2.08077e-07
2.33806e-07
3.43218e-07
5.45381e-07
5.16254e-07
5.98412e-08
3.67368e-08
5.39072e-08
6.378e-08
6.28237e-08
5.84595e-08
5.18661e-08
4.64113e-08
3.76513e-08
3.51928e-08
3.20565e-08
3.23471e-08
2.95063e-08
2.97748e-08
3.07871e-08
3.10859e-08
3.29256e-08
3.74292e-08
4.18409e-08
4.47202e-08
4.73129e-08
4.99893e-08
5.55952e-08
6.47154e-08
8.98482e-08
8.84676e-08
8.58235e-08
9.17543e-08
9.66457e-08
6.76982e-08
1.03838e-07
1.1874e-07
1.4314e-07
2.37127e-07
3.05796e-07
3.62916e-07
4.29456e-07
4.72826e-07
6.13133e-07
6.39688e-07
6.63707e-07
6.64478e-07
6.44691e-07
6.05979e-07
4.73387e-07
4.32387e-07
3.50802e-07
3.05044e-07
1.74043e-07
1.49913e-07
1.05983e-07
6.35732e-08
5.04056e-08
5.5682e-08
6.86742e-08
1.0038e-07
1.10227e-07
8.09593e-08
7.63474e-08
5.44429e-08
1.04836e-07
8.90869e-08
9.3194e-08
1.13232e-07
1.31036e-07
2.40612e-07
3.04409e-07
3.6011e-07
3.84548e-07
5.07882e-07
5.06412e-07
5.09447e-07
5.11466e-07
5.05877e-07
3.99415e-07
3.65692e-07
3.21429e-07
2.4768e-07
1.21825e-07
1.05728e-07
8.77888e-08
5.98152e-08
5.50708e-08
5.58234e-08
4.99532e-08
4.22947e-08
3.79119e-08
3.54854e-08
3.35952e-08
3.34932e-08
6.79463e-08
8.42902e-08
8.783e-08
1.04923e-07
2.25335e-07
3.50247e-07
5.58188e-07
6.7146e-07
7.61039e-07
7.60716e-07
6.76866e-07
5.71498e-07
3.73698e-07
2.77985e-07
1.24697e-07
5.62268e-08
2.50576e-08
2.1673e-08
2.49395e-08
2.69284e-08
2.80415e-08
2.88983e-08
2.86663e-08
2.89316e-08
2.66699e-08
2.30117e-08
1.95343e-08
1.7486e-08
1.73903e-08
1.71565e-08
2.32076e-08
2.37879e-08
2.46075e-08
2.7354e-08
2.87639e-08
3.02785e-08
3.23163e-08
3.52846e-08
3.50427e-08
3.55894e-08
3.30879e-08
3.16796e-08
2.9087e-08
2.75996e-08
2.67153e-08
2.48892e-08
2.13612e-08
1.7752e-08
1.73067e-08
2.37739e-08
3.01981e-08
4.8778e-08
6.4475e-08
7.0392e-08
6.11646e-08
4.79436e-08
2.98399e-08
2.416e-08
2.26031e-08
2.66547e-08
4.20987e-09
9.56956e-09
2.72487e-08
9.41839e-09
4.16612e-09
2.46098e-09
2.40813e-09
2.73665e-09
3.71562e-09
5.3283e-09
7.08969e-09
8.40996e-09
9.21232e-09
8.93592e-09
7.73162e-09
6.09774e-09
4.19393e-09
3.25013e-09
2.56297e-09
1.89244e-09
1.69718e-09
1.98881e-09
2.4194e-09
4.53834e-09
5.05725e-09
3.16951e-09
1.66019e-09
1.28758e-09
1.14443e-09
1.22469e-09
1.50991e-06
1.49252e-06
1.31732e-06
1.20829e-06
1.17151e-06
1.15856e-06
1.17536e-06
1.19099e-06
1.19172e-06
1.26629e-06
1.31881e-06
1.37581e-06
1.27631e-06
1.18846e-06
1.16275e-06
1.23876e-06
1.22458e-06
1.19034e-06
1.18302e-06
1.19413e-06
1.3018e-06
1.37478e-06
1.3268e-06
1.18261e-06
1.0718e-06
9.96356e-07
1.10346e-06
1.23952e-06
1.27438e-06
1.27333e-06
1.25657e-06
1.27535e-06
1.34098e-06
1.39262e-06
1.44193e-06
1.44669e-06
1.44568e-06
1.44215e-06
1.42816e-06
1.38993e-06
1.31374e-06
1.2071e-06
1.08443e-06
1.12873e-06
7.39172e-07
5.18126e-07
4.54238e-07
3.9432e-07
3.66558e-07
4.03441e-07
5.35516e-07
7.77459e-07
8.69732e-07
8.92895e-07
8.91326e-07
8.35728e-07
7.10867e-07
5.8295e-07
5.64366e-07
5.74677e-07
7.14999e-07
7.754e-07
8.15106e-07
8.30736e-07
8.28902e-07
8.3316e-07
8.34982e-07
8.37759e-07
8.30974e-07
8.22248e-07
8.0551e-07
7.47338e-07
5.43157e-07
4.65781e-07
3.91291e-07
3.37278e-07
3.50168e-07
3.94561e-07
4.00595e-07
3.91224e-07
3.78832e-07
3.77884e-07
3.58975e-07
3.35356e-07
3.49204e-07
3.93727e-07
4.40618e-07
4.5215e-07
4.19599e-07
4.135e-07
4.48235e-07
4.78888e-07
5.07819e-07
6.36556e-07
6.79295e-07
7.05067e-07
7.13763e-07
7.14222e-07
6.90249e-07
6.61396e-07
6.25414e-07
5.16745e-07
4.66126e-07
4.21567e-07
1.91809e-07
2.08511e-07
2.06087e-07
1.98965e-07
2.08557e-07
2.15767e-07
3.48346e-07
4.07854e-07
4.23586e-07
4.39268e-07
4.86921e-07
5.38011e-07
5.94449e-07
6.07362e-07
6.23913e-07
6.24704e-07
6.18533e-07
6.19769e-07
6.06411e-07
6.06144e-07
5.69416e-07
5.1839e-07
4.42622e-07
2.59392e-07
2.55022e-07
3.81902e-07
4.03779e-07
4.60768e-07
3.41894e-07
2.02629e-07
6.41331e-08
6.87976e-08
6.81211e-08
6.80115e-08
6.75169e-08
6.51824e-08
6.24794e-08
6.09556e-08
5.97381e-08
5.75116e-08
5.6828e-08
6.02537e-08
6.65802e-08
7.02939e-08
7.78467e-08
8.56766e-08
9.01919e-08
9.33504e-08
9.67518e-08
9.40266e-08
9.48482e-08
9.36051e-08
9.34625e-08
9.37484e-08
9.28927e-08
8.91996e-08
8.68203e-08
8.19158e-08
8.18289e-08
8.32312e-08
1.17179e-07
8.62492e-08
5.56468e-08
3.35512e-08
2.98157e-08
3.00752e-08
4.5473e-08
5.74796e-08
7.89279e-08
1.18262e-07
1.24593e-07
1.20742e-07
1.23144e-07
1.1805e-07
1.09669e-07
1.08632e-07
9.8341e-08
9.25214e-08
9.22997e-08
9.52973e-08
9.92256e-08
1.07667e-07
1.18351e-07
1.22831e-07
2.03856e-07
2.06688e-07
2.28491e-07
3.11322e-07
4.03499e-07
4.05965e-07
5.38679e-08
3.92859e-08
6.17412e-08
6.38494e-08
6.14819e-08
5.48753e-08
4.9573e-08
4.34036e-08
3.57205e-08
3.33575e-08
3.11627e-08
2.83145e-08