/*--------------------------------*- C++ -*----------------------------------*\
| =========                 |                                                 |
| \\      /  F ield         | OpenFOAM: The Open Source CFD Toolbox           |
|  \\    /   O peration     | Version:  2.1.1                                 |
|   \\  /    A nd           | Web:      www.OpenFOAM.org                      |
|    \\/     M anipulation  |                                                 |
\*---------------------------------------------------------------------------*/
FoamFile
{
    version     2.0;
    format      ascii;
    class       volScalarField;
    location    "0.007250000";
    object      omega;
}
// * * * * * * * * * * * * * * * * * * * * * * * * * * * * * * * * * * * * * //

dimensions      [0 0 -1 0 0 0 0];

internalField   nonuniform List<scalar> 
12384
(
12847.5
17596
20123.9
22375.2
24384.2
26122.3
27287.5
27743.4
27488.6
26580.4
25041.3
22367
18033.9
11872.3
22346.1
26785.6
29264.5
30595.7
31433.3
32288.8
33331.5
34586.3
35905.4
37209
38117.2
39157.2
41030.2
44470.8
49906.2
55658.7
61638.7
67095.1
71428.2
73713.9
73822.8
71513.1
69292.5
66964.5
64064.5
60120.2
54384
45431.8
30708.2
17618.6
31120.9
35860.8
38997.7
40766.4
41854.3
42722.4
43769.9
45028.5
46777.1
48030.4
49879.1
52530.6
56578.9
63259
71267.7
79487.6
87457.9
94311.4
99208.1
100823
98945.8
93528.3
88989.2
84501.5
79665.8
73761.1
65759.1
53861.1
35331.8
24906.8
34225.9
39857.2
46085.7
52384.3
57926.5
62355.4
66007.4
69461.8
73303.1
76011
75693.1
74487
73440.5
73527.5
75416.3
80487.9
88214.1
96822.1
105770
113916
119918
122641
120392
116193
111387
105117
95632.2
79145.8
52861
35981.2
44544.9
55304.4
62037.4
65865.1
69692.6
75195.4
83798.5
94997.9
107754
120964
133303
143486
150739
153254
151065
144218
138273
132995
127045
119600
108476
90857.7
62521.9
35835.5
31335.4
31276
32016.3
31974.2
31282
29324.6
25563.9
30597.4
33723.1
35798.6
38152.1
41469.2
45645.1
50381.7
55437.4
60337.5
63761.7
66660.9
69822.4
73903
80223.9
87514.3
95224.8
102792
109342
113796
114974
111927
107233
101666
94915
86313.1
74345.7
57034.3
38062.8
32556.2
21267
25751.8
31495.8
38464.7
45934.1
53158.6
59800.9
64902.7
69994.3
77080.1
85821.1
94927.6
104462
113712
121657
127381
129772
126747
122089
116961
110911
103712
94368.5
81186.6
61267.1
37560.2
29788.9
28380.2
28401.2
30623.4
22943.7
28748.3
39716.8
52855
67734
82373.2
97226.4
111179
123066
132737
138781
140697
138349
133269
128772
123752
117623
109762
99309.1
85428.9
66051.5
45602.3
35992.2
32802.7
32090.5
32347.5
31953
30867.9
30017.8
29635.6
33291.5
54081.4
81819.3
102567
119746
133738
144481
151162
152635
147764
138286
130317
123553
116352
108007
96971.8
82750.3
66265.9
52440.4
42527.7
36695
34608.6
35127.3
35424.3
34391.7
32300
29634.8
27124.5
24854.7
23396.7
28409.6
37498.3
58094.4
80974.8
100839
118349
133559
145909
154008
156611
151907
139693
129339
122844
116900
109657
99437.3
86171.7
71599.5
60209.4
49676.9
41533.9
37944
37847.6
37843.4
36475.4
34512.7
32883.8
32115.5
32277.1
42403.3
69319.1
98032.3
124308
143074
153839
158164
154799
140490
124870
113188
103612
95003.9
86162.8
78028.4
72644.4
67789.4
62337.9
56661.8
52037.2
49535
48066.8
46986.1
45335.3
43459.3
41378.6
39561.3
38104.2
36587
35048.6
22169.6
22845.3
31122.2
42900.9
54341.2
63833.5
71498.3
77952.4
83611
88431
88803.8
86034.1
80922.3
74742.3
68180.7
61766
56648.9
53934.5
53635.3
54845.5
56696.4
58018.3
56863.2
55547.7
54743.1
54198.1
53248.8
50875
45767.2
37043.7
13612.4
16507.6
15196
12928.7
11680.5
17711.9
38873.7
59014.1
71281.5
79149.9
85014.8
89995.3
95207.7
100951
102575
99285.9
93162.6
84710.8
75171.5
64808.5
55218.3
47928.1
42215.7
37111.3
32655.8
28554.9
24259.6
19114.3
12959.2
6513.53
17464.5
50743.9
63244
76005.4
88005.1
99158.3
108427
114718
116513
113224
105400
92522.7
75625.3
19815.1
22971
80300.5
96949.4
114887
133537
150585
162700
167888
164507
153838
143499
139338
145755
166922
198326
237589
281878
327923
372240
410447
437516
448153
439639
416233
379783
332775
277585
217406
154572
35933.6
35680.7
146841
185305
216324
238080
249539
251105
239855
221962
205202
193691
191912
206864
243624
293148
351386
414032
477097
536188
585957
619809
632312
619379
584434
531535
461438
376602
282110
187952
44992.3
44386.9
196756
275834
348473
407255
449584
474073
477929
454507
415331
370133
325270
287312
261392
253243
274343
320181
381601
450719
520128
583017
633211
663674
663756
635350
582821
509088
415416
302822
67399.3
37648.2
123644
139840
159239
188267
233091
296444
376464
467739
565293
665225
763176
853379
929209
983333
1.00726e+06
993816
951646
880297
789463
676898
547609
406610
266963
138897
95512.6
97612.2
98072
91555.1
33342.8
28181.6
116029
159383
205608
248880
284556
309320
321396
316147
299257
279774
263536
256868
265377
297362
344788
403489
468802
534847
594850
641361
668234
666078
639147
590929
524923
442300
343195
229004
47469.8
26657.1
139713
186935
222749
243822
248536
245317
244955
254935
286391
336115
399005
472351
552543
634180
710970
775425
821690
838141
825469
786759
726691
646561
545555
422303
279405
139735
72177.1
73927.2
33859.4
26358.6
88985.1
129857
195726
285248
385256
488009
590212
688964
780968
861005
922372
958873
962979
937718
886085
813104
721409
613783
492328
362514
233926
134159
118529
124182
119645
112292
100137
84800.4
31624.5
37462
223838
361116
486225
602767
715207
824104
925396
1.01219e+06
1.07575e+06
1.1081e+06
1.09547e+06
1.05188e+06
973857
871150
740185
583399
411515
254821
162983
141250
138782
135943
137157
136711
128747
115254
98054.6
79305.4
25982.8
28512.2
162545
274312
371952
467962
566595
667804
769598
867126
952774
1.01808e+06
1.05404e+06
1.0431e+06
998020
919091
814573
680384
516495
344898
209624
160953
160213
163546
156342
147836
134826
116874
99705.5
85460.5
32811.4
37161.3
238196
395500
548764
671231
773734
862954
936137
984247
985722
936140
840626
700644
526786
346997
222590
196657
206099
214558
214584
208599
199204
187847
174308
158523
139915
122509
107545
95335.1
34539.2
28590.2
129317
227956
314265
385755
442530
483409
507245
511790
494443
461674
418862
370258
320888
274645
236202
210216
204271
218104
243766
276385
311224
342914
358859
351109
326316
286880
234681
174698
45310.4
20331.4
74896.9
76006.7
73561.8
85306.8
162310
272618
375990
463433
533349
585316
617902
626882
607866
569161
516820
456276
392160
328098
267313
212598
170961
149045
139792
135161
127006
114388
95561.1
71394.9
9237.72
21226.2
63492.8
79087.9
92349.5
103262
111952
118646
122867
124801
123627
118749
109425
95549.4
23840.1
24147.3
95466.8
109890
125889
140407
150142
153478
151410
146410
144327
151065
167648
193177
225172
259795
296384
332236
365715
396195
422753
442419
452809
452224
440981
418672
384608
338035
279282
211109
46646.9
37511
175516
198138
210107
213253
210563
205066
199113
196992
201162
212698
233062
271268
321561
377110
430099
477814
520455
558476
591087
615387
629022
627006
611558
582078
536244
468886
377925
270045
58641.9
50113.1
254643
326357
377472
405778
416060
413019
398939
375636
351676
332616
320208
314341
314484
326283
361183
417164
483034
547845
605114
652000
686353
705559
705972
688369
653830
600273
521816
412295
87691.2
37115
128491
137532
171032
227799
299132
386624
482391
576167
661688
737897
806558
868338
921713
963349
988601
991396
973402
937395
882154
805276
701784
570390
421336
266762
136443
92699.8
101141
105864
36322
29964.4
140709
175622
211021
240301
260482
271792
275335
273408
272124
276934
290079
313136
348362
393141
440033
485668
528628
568706
604917
634443
653185
656356
644016
618455
579682
522636
439086
324374
64372.5
29625.1
181454
208315
225634
236488
245916
262897
288794
325093
375666
428602
480486
530909
581672
633503
684192
730502
767961
790745
794364
780358
752189
709422
645616
550462
418446
262342
128531
78574.4
34659.5
30032.3
112840
172410
273942
391134
501185
597318
680636
753597
819153
876440
923994
956109
968287
959473
931078
885521
823603
742777
639041
512550
371638
235117
136847
102638
104677
116229
111335
94301.5
32906.2
54894
332277
500264
626862
723444
802144
872574
938105
997758
1.04716e+06
1.08065e+06
1.08806e+06
1.07213e+06
1.03407e+06
973003
883456
757751
596202
418692
263945
171712
136469
140560
163577
174096
165790
147091
125233
103320
28279.8
32290.1
241297
355073
463791
566064
657026
735925
806262
870664
928377
976439
1.00999e+06
1.02124e+06
1.01049e+06
983474
936051
855711
724262
549653
368891
230474
163578
138886
142494
159662
158321
139503
117947
100728
34067
42586.1
339547
572269
764498
886827
957061
1.00032e+06
1.03184e+06
1.05355e+06
1.05391e+06
1.03135e+06
978851
879653
724878
527169
333325
226676
208817
213792
220317
226312
230162
228705
217917
195681
163079
128724
103981
98387.3
35919
39691.4
216671
323316
405795
465482
505748
530401
541915
540497
525907
500326
466385
427139
384931
342289
303354
273716
258638
257600
258936
259589
263454
275282
291524
302852
305456
293942
263093
212463
49475.4
24154.1
84308.2
69970
86930.1
163855
275905
391929
488556
561152
611890
644416
661046
662885
649042
622918
587224
544099
492814
432149
361224
284259
209237
150903
113120
92393.3
83645.8
81724.7
80307.8
75875.8
7012.51
23578.4
76005
94004.8
107182
116551
122177
125298
126692
127424
127351
125805
121750
113903
27233.6
25932.5
109879
118199
128628
136902
139251
136137
131096
130106
141144
166273
200229
237755
274807
311513
345117
371545
389834
402598
413061
423095
431180
433821
430695
420829
401701
369565
321569
258225
54637.6
38902.5
197345
199377
189928
175560
163726
159158
164509
180434
205474
237599
277669
329290
391015
449545
493685
522433
540086
552320
563400
574951
585128
588810
587102
578207
557524
515269
441968
338756
68977.2
54087.9
297012
347256
368998
366324
349816
328327
307266
294045
295974
311499
333773
355496
373548
394954
438025
502819
570486
626102
664896
689138
702445
708231
704276
692489
673415
642912
590072
500858
102545
41752
135154
141579
193029
269894
361561
466589
573370
663721
728875
771873
801501
826129
850083
874152
895607
907662
909324
899555
877632
839158
772995
669852
532895
372160
216292
107533
99331.8
115107
38258.7
31999.9
161321
180447
199314
212551
218464
219594
220289
226507
244643
276206
318932
370342
425950
480229
525180
556340
574542
584473
591160
598252
604954
606468
602537
594204
580160
551828
494116
394364
75773
32872.8
221155
220451
217312
221666
240991
280619
331781
390031
453558
508770
549191
575941
594706
611142
629193
650492
674054
694636
706745
710711
708213
698085
672561
614413
508333
356914
199231
100292
34321.8
33340.3
134389
223578
352865
481203
586336
664400
720098
760712
794396
824254
852507
877358
893146
896466
887991
868814
837318
789885
717687
613988
481942
336898
204249
116840
103174
124336
121177
100727
33648.6
76711.1
440971
616032
725610
789576
826090
850785
874139
900846
930336
960423
980224
987990
982077
961213
916847
837214
711029
547101
376901
243392
172487
174519
204739
215472
201959
177290
152135
130968
30647.5
39314.6
293761
416950
539575
647768
727452
777968
807625
828950
850497
875116
901573
923580
937681
947619
949548
926054
847209
703805
521355
350563
225894
159530
159160
185382
184235
159911
133700
115343
35498.9
68288.4
469591
756180
948854
1.03634e+06
1.04997e+06
1.03041e+06
1.00877e+06
1.00223e+06
1.00438e+06
1.00626e+06
996874
951587
843497
665519
452345
287703
228179
221355
233845
253681
272631
282266
276788
252005
209903
158616
113869
98517.1
37633.2
50362.9
287572
388863
458000
500704
524654
537117
541979
539748
529630
514061
493235
466961
434237
396356
357619
326434
309292
301902
286846
258457
225884
206372
212809
235425
261234
277012
270915
237188
52288.6
26476.2
89349
76294.2
134729
241807
363113
471668
550649
600834
629628
644917
651339
650793
642156
631277
617852
598226
565874
515041
441753
351166
256174
172778
112484
73999.6
56833.9
59303.2
69801.3
78624.9
4489.42
25041.6
88579.1
108017
120542
127430
128837
127241
125118
124733
126553
129955
133111
133028
30147.7
27849.2
125393
126242
129507
131127
127070
119020
113077
118437
143040
183628
229653
273904
314524
353404
384170
400434
401620
393221
383802
380631
384901
392443
400523
405569
403386
388283
355277
302070
60841.6
39555.2
218432
203335
174520
142948
121997
119909
138332
171873
215272
263992
315411
377078
447197
505216
536923
543789
533910
517643
504414
500484
506890
519349
534871
549164
555074
540142
489914
400492
77031.9
56492.1
334473
361888
356137
325682
284483
245213
219459
222825
257966
309339
359736
399106
424035
448971
499458
572352
637745
677016
688477
681150
668267
661785
658645
660998
665461
664688
643923
583785
113871
49028.1
142553
149659
216887
309140
415576
534866
648558
730316
769334
773319
757898
739029
727961
730361
746533
768637
792332
813683
826752
825166
795956
724778
607990
451287
284801
141987
98194
120777
40013.8
33812.8
181653
185949
189085
188136
181560
173399
171715
186604
223596
279262
347411
419180
489012
550132
590958
606714
599008
576153
549097
529302
522324
525209
535712
549903
562909
563492
532975
452086
82768.4
36190.2
263862
234428
208621
205545
235539
296936
368981
442577
514630
571439
600927
605861
593754
573261
552888
541786
545666
562962
587284
613547
639280
661005
670184
645880
565308
422904
255045
129113
34734.6
37238.1
158460
277048
420942
549248
641764
697318
721718
725901
721375
718003
721247
734902
753797
774060
791400
803062
805430
793049
754805
679392
564126
420677
272981
158912
122534
134879
128319
105291
34370.4
96421.3
536020
700835
784019
812495
807306
786433
765421
755567
762186
785649
815812
848375
877317
895978
895213
859994
771661
631078
463133
312660
222609
215105
238671
240936
218973
189693
169600
158555
32870.6
51242.7
331411
466552
600980
712196
777913
797115
782059
753574
731381
728230
747110
780187
821598
867550
911957
937023
909301
805282
639889
459653
306719
208074
188392
204757
195947
165628
138517
126255
36822.7
110407
618110
920411
1.07625e+06
1.10552e+06
1.05231e+06
967242
892505
857524
865276
903762
948763
964991
912490
767828
555873
361761
265992
241062
253870
284208
314973
334935
337293
316615
272956
210821
144246
100481
38891.2
58645.1
348412
438732
490863
514136
519439
516149
510515
505258
500365
499175
497247
488541
468353
436305
397193
363521
345927
337351
316824
271078
209107
153854
143383
179458
227475
264294
275075
255716
53904
28033.8
92919.7
98824.3
182845
304364
427584
524614
583138
608947
613002
606140
596295
588954
586304
594138
607808
616655
608511
573326
504400
406614
297345
198148
123491
75969.4
53348.7
55571.2
68910.1
79319.2
3079.72
25742.9
100227
120499
131261
134149
130100
123003
117121
115912
121462
132355
144473
152712
32625.2
29583
140791
134886
130276
125239
115770
104215
98407.5
110299
146647
198432
251461
299549
343130
384619
413011
419237
401840
369190
335504
314866
314836
331287
356278
380730
397808
400920
384150
342248
64946.3
38998.7
236014
212018
170662
124931
93773.4
93364.6
123594
171021
226343
283305
341340
410610
486364
540905
558085
542658
506015
461243
421531
399940
403707
429239
467394
508818
542527
554649
528044
455637
82521.2
56687.6
365333
374819
348432
296466
234637
178920
149918
175926
244873
323427
388028
431729
456716
482960
541902
622851
681512
697937
675495
629436
583034
560285
565400
596447
638789
676529
691128
662113
121268
56116
149531
159500
239167
342876
459616
590721
707958
778123
789952
755126
695024
630895
579790
555578
564628
599832
649915
704805
753298
787000
791166
750417
654354
505131
332832
173069
100787
123457
41983.6
35400.3
198717
193302
185045
173840
158459
143005
138836
160284
211463
283969
367610
452235
532006
597788
633821
634270
601313
545483
481632
429727
407597
419635
455772
500793
543895
571273
564397
499002
85053.4
39061.7
306198
249939
200454
188432
228378
308247
395222
478053
556153
614392
635637
623239
585989
531964
470905
417640
392306
406282
450230
507105
565525
618736
657610
660377
599343
463666
289852
151041
35557.3
43211.5
185106
324040
473228
597670
677006
711563
706724
675893
631383
587814
555855
549380
569726
610000
659681
708673
748025
770706
764861
716712
619314
480342
323876
195376
144404
142805
131118
107676
35399.8
113100
606850
750401
807943
808035
769017
707777
642321
589790
567565
583493
628480
687776
750399
806500
844764
847330
790986
671384
509213
350846
250371
233675
247946
239205
206467
178537
176291
183636
33812.1
67785.9
358200
502734
646345
759323
811494
802274
745545
666741
594160
554145
563100
612345
685265
766885
849930
913968
928124
859881
717025
538065
368229
246455
204132
205222
187811
153149
132334
132529
37969
150252
760697
1.04039e+06
1.13159e+06
1.09626e+06
983290
842599
722337
665292
688125
771548
874592
951766
953533
842312
639261
435421
316243
270305
274021
305596
341882
369630
381963
372112
336029
274006
194175
119439
40703.1
63721.2
400985
478976
512929
514427
495929
468847
444085
431456
434941
454787
478360
491567
486514
461359
420754
382171
363139
356617
338853
291172
221487
148267
114322
159083
218069
262009
277737
263970
54069.5
29641.1
96851
120241
220211
350689
473664
558994
597128
597553
573770
538470
504288
484517
488372
519374
564273
604106
622456
606577
547514
447778
328776
218239
135010
83290.7
58848.1
59393.7
70538.8
76392.4
2543.55
25955.1
111242
130784
138334
136115
126008
113044
102814
101601
113629
134887
156748
171755
34281
30956.6
153325
144610
133072
121493
107388
92894.2
87369.8
104534
149243
207462
263514
313569
359829
404523
431834
429197
394399
337883
276956
233073
228517
260530
308917
355956
392666
412652
410561
376623
66012.2
39179.3
243377
219681
176677
127946
91529.8
89863
123498
174657
232768
291695
352585
427414
507162
556722
559783
525262
466291
396032
327645
284522
288673
335353
401454
471148
530955
566282
559530
502132
84570.9
53945.3
384869
384926
347584
284046
210868
146342
122581
173306
259769
343087
407088
447413
467700
494496
564489
653364
701617
692704
634888
546067
456923
411561
439019
518060
609616
688674
735680
732898
122614
61353.6
156408
169887
258172
369781
493293
631444
751043
810678
800284
734423
637870
532199
435623
374262
374333
430186
511195
601016
682188
745721
776475
760154
681064
537038
359314
189506
103421
126205
44669.5
36892.5
208317
200435
186910
170855
151650
133131
127337
150327
205986
284886
375245
466650
553291
622873
654342
641789
587350
503040
404448
314750
275062
311584
387207
467440
537530
583728
591523
531107
81106.6
41127.2
344321
264616
192111
170449
218715
311661
406935
494771
577411
637938
655731
633508
580883
504069
409757
310198
241099
254462
330298
422163
511079
589898
648773
666838
615399
480581
303944
165412
37009.9
50758.8
212989
361694
511892
633748
703561
723008
696749
638644
559568
473615
394400
349699
368263
438172
527085
614399
688557
741139
761859
735185
651308
513726
348570
211318
151628
141505
128139
111598
39128.3
127078
647194
767687
809710
793289
732040
640074
534839
433730
369637
378647
448467
538747
633905
719916
787240
816300
781489
676265
516579
350770
241563
220849
230230
212762
174148
163451
186962
205815
34463.5
85568.5
377783
526480
676375
791139
833790
804343
716622
596917
471365
381896
378407
451384
557514
671277
784307
876689
920379
878918
756662
581401
400033
257401
195167
189806
173589
149333
140457
139035
40423.7
177380
869390
1.09361e+06
1.11705e+06
1.03108e+06
875275
691510
529618
459568
515644
653307
811384
939122
983028
896570
701983
500855
370376
304179
288452
308341
343776
376384
399415
405205
385613
334869
255155
162225
45534
64806.2
443894
512900
531117
511532
466456
407796
351707
321835
337238
388009
443042
480103
490401
472141
428779
382143
359631
357016
347751
310963
253946
195015
163248
185891
230007
264069
274706
256933
53799.7
31645.2
99231.2
133372
242913
381120
505368
582465
603613
581358
530076
462453
394535
351627
361608
422990
502558
572802
615752
618652
572084
474202
348889
230192
142024
89210.9
65165.9
63793.3
71437.7
71723.6
2724.15
25737.8
119620
137441
141528
134398
118479
100048
86021.2
86297.7
107586
140152
169951
187165
35100.1
32596.7
160660
154578
139192
121349
102908
86098.4
80958.6
101532
149748
208905
264874
315315
364260
412877
440916
432743
385790
312077
227783
154346
142195
200596
275209
342437
395232
427818
435105
398738
64546.8
39876.4
237923
221784
187156
148726
118476
112819
136705
180187
232376
287636
347981
427294
510689
555786
548152
500988
428390
341442
247079
176460
186928
262719
356275
449203
528263
579256
585430
536681
82529.7
51957.1
386164
388188
348954
286212
217450
163819
157834
210702
288458
360883
414374
444533
456391
483933
567813
664227
702319
672678
586432
459766
322790
243735
320838
459907
597796
710330
780111
791194
114582
65031.4
168948
182827
274586
389517
515995
654943
774294
829099
807417
724801
608692
477304
341112
229219
214756
301759
414676
531269
635660
719760
767076
765521
695179
550575
367072
194055
108177
133044
47257.1
39139.1
209860
203640
191207
176226
158435
141122
134867
154123
204812
279983
368470
461175
552885
626831
656610
635264
567381
466391
345507
224509
171320
252379
367405
472371
555190
604524
611176
536429
77128.5
41147.5
376612
277646
183508
150869
205582
304922
402353
492479
579979
643655
663279
641017
586162
504382
399247
279763
179641
191449
287457
395629
498544
587476
650953
668148
613861
472110
296049
169809
40352.1
59921.6
250876
394164
540523
660657
727169
740613
704335
633377
535455
422039
301366
192807
203165
314353
437687
552582
650039
721398
757186
741561
662843
520519
347142
205176
140525
139602
142909
144317
52032.8
137617
654651
760729
801338
781160
710944
605458
478539
340075
224095
225006
325834
440978
556665
659558
742731
782148
755250
653647
491469
318850
208338
199185
215325
203182
180196
187360
214850
224253
39135.8
101003
392552
540638
692434
808137
848034
810782
710403
571904
413054
266785
232953
334982
469431
605038
735187
843186
900171
873688
764675
592155
402443
244337
181128
191384
199569
200197
191712
170614
53382.3
191450
917094
1.07598e+06
1.05639e+06
942843
765237
555502
354506
279084
396767
587145
784461
942353
1.00745e+06
932938
746143
554274
420079
336003
293630
288352
311627
345481
378968
403758
407495
377884
311187
214511
49412.7
61910.1
472395
540437
549613
515038
447918
359347
265028
200857
233619
323535
408019
464116
485392
471494
423879
365549
335577
338347
342039
324178
289693
253704
231541
232566
251105
265682
263968
237879
52797.8
34259.2
100136
138847
253255
396379
524384
598981
610775
573876
502296
407410
303260
220078
235327
336664
447769
540685
600742
617085
580741
486482
357611
233812
143421
91312.4
68644.7
66315.3
71468.8
69150.9
5142.49
25296.7
125027
140393
141491
130527
110372
88433.8
74039
79346.1
109673
149851
182791
197766
137953
41202.2
40506.1
118550
163345
161339
146970
126347
104702
86423.6
81412.8
101681
147027
202413
255263
305000
356887
409840
440898
431911
382057
304950
214817
127979
105589
183186
269637
346354
406904
444051
451687
409437
235406
47476.8
43344.5
152260
221589
209111
187144
164770
147465
142448
155007
184348
224539
271245
328439
411907
499247
543027
530666
480038
406572
319259
222251
142872
158573
245328
348851
451053
537172
592671
602550
552205
327046
62705.3
54216.8
223484
376859
380016
347319
296339
244758
212819
220082
262325
319467
372437
408932
423657
424319
453472
553818
657356
690582
651721
554435
414022
259716
177000
290425
455878
616122
745177
821258
822926
459983
62395.5
65454.1
243272
198410
207572
289776
400279
523081
658819
777350
832579
811768
731204
619385
490656
354662
234784
202916
283136
396427
516852
627048
716143
767038
767934
697612
550306
364562
200503
139995
163814
159167
46735.9
45865.6
153115
198692
195811
191102
183243
171706
158838
153005
165713
205072
268466
347870
438046
533358
612832
645447
621312
553178
454989
341691
239141
217196
302807
415515
516054
590123
625023
610970
517961
262506
56532
52074.3
280384
390226
281518
177189
139927
193279
288951
382179
471621
563694
634230
662013
648748
605215
537405
449853
357235
287843
286891
351456
440135
530768
608271
657294
658241
589502
443110
276629
183270
157969
62042.5
68872.6
234368
294114
417544
556679
675050
743843
760501
728164
662390
569580
460876
343594
245473
233392
319236
433044
546316
645605
718715
754277
737634
654511
503972
323003
184698
168959
202900
227279
235900
212871
82114.2
98830.5
481224
635353
737628
786411
774122
710005
612368
494196
364959
256380
239842
320273
424990
536657
638214
719628
753914
722339
614296
447501
277068
189506
201054
227471
237818
243611
259328
278798
281502
228979
87037.2
94565.1
320824
414855
549058
693927
808013
851780
819747
728162
600805
453668
312259
248456
323116
449842
583616
712880
819342
874534
852509
749035
577898
385212
237307
210874
239783
262780
270443
262019
239986
206093
85078.2
106502
643919
901347
1.00734e+06
977876
860463
686607
483038
281396
226312
392211
596917
800624
959878
1.02056e+06
946658
767771
588966
456506
359621
290635
250430
246035
276283
321619
369386
400122
396636
351158
267294
173020
43074.7
47584.8
251061
483747
558655
566801
528926
453350
352720
244119
163249
200770
301763
394325
455431
479210
464357
411420
339934
296633
301041
318843
321816
309573
292271
277894
268191
264450
258070
242552
216210
148889
41333.8
38318.6
112914
115631
143885
254241
399144
530770
607537
619260
580915
503702
400787
284862
177899
189984
306738
425815
523306
587399
608357
575719
485145
355959
230003
140378
91785.4
72606
72090.6
76767.6
74697
45189.4
7943.32
3434.9
24737.6
125464
139487
139574
126880
105103
82995.2
72123.1
84307.5
118719
159375
190765
203166
168467
96705.5
94228
131058
157818
162504
153496
135163
113165
94498.5
89056.2
106277
144227
190852
236099
283144
337637
395613
432741
429668
388132
323018
250787
189709
173426
220573
293433
365422
424262
458605
459301
403594
272482
121606
116681
174445
188040
180722
173109
167874
164728
163893
168810
184050
209804
245267
297668
385515
477251
522229
513206
470875
410757
341854
272381
223353
228938
290888
378770
471316
550797
600791
606625
549196
385455
148458
123826
262954
348236
356940
337059
304281
274420
262390
274329
303189
339954
372923
390647
387744
376066
408365
526600
635586
672289
640710
556214
438978
327506
285293
361027
503007
655289
781922
852387
835159
561115
180009
195636
272372
190289
202628
288043
392930
506401
635211
756057
821926
816007
755273
667605
567344
468516
388820
356142
389754
466749
562913
657283
734182
776366
768601
692099
544756
366732
216290
156988
173593
186843
168763
160136
170920
174582
179928
186721
189331
186603
179724
174783
180179
205120
251253
316165
400511
499562
585620
625071
610419
559081
486070
409132
355205
361274
424989
510270
585020
630911
633772
582559
464402
281450
161174
201199
388235
377318
267139
166852
134178
182138
266128
348965
433884
529787
610525
653028
658155
636897
596641
543076
488921
450702
445774
477961
533134
593132
641350
660878
633714
544223
398060
256780
197605
204832
205222
221521
237475
290146
411880
547213
668563
749055
779431
763959
717879
649050
569631
487381
426321
405547
440865
512009
595557
673543
729887
750877
721035
626956
473237
303242
197587
194321
217174
234134
238504
229328
226930
273485
462191
596022
703562
765463
770465
726975
653869
565678
476368
408256
386363
419595
487732
572176
652134
713206
729905
686122
570899
404952
253788
193965
212091
244852
268026
285903
302660
311830
303724
273631
240610
255258
301827
398416
528530
667291
785166
843933
833133
768366
672820
565211
467582
413075
432069
511365
615331
721808
808065
847172
818361
715251
550854
371945
248896
225014
245246
265211
269613
257796
238103
232531
281138
354870
620814
830543
928709
908408
808013
665994
511541
386785
375495
491551
662587
838368
970450
1.01122e+06
933340
765419
600326
473933
372344
288365
221734
182540
195791
248924
318299
375298
396652
371924
300556
206568
136703
146920
321392
489296
567797
578560
545662
477204
388998
303013
254875
277713
343952
413317
460351
475473
454002
395684
313585
252261
250984
279267
299681
305358
301761
293536
281131
264887
244009
217969
188556
155157
131569
127087
126729
120518
148112
252244
393109
525088
607477
627304
597950
531608
443596
351881
286654
294432
365618
454438
532418
583876
597111
560390
471124
343831
218143
132482
89332.2
73237.8
73426.2
77787.4
76262.7
58503.2
25756.2
2672.24
24202.2
120644
135730
136550
125361
106729
89344
84122.8
98957.8
130558
165870
192175
199670
166901
91641.3
86726.4
120278
146160
157461
155964
144448
127353
111442
105794
117399
143801
176731
209623
250794
307418
371540
418398
429194
405329
360985
312712
274045
261713
285699
335843
393137
442973
470036
460956
393279
269532
132294
125538
156947
149900
148062
152774
160480
167455
171015
173009
178134
190646
213653
260652
353561
446372
498448
504237
480771
442769
399921
359248
332316
334551
370761
431443
501064
562450
598491
593239
524991
370666
138600
119191
237737
301298
317572
313405
301025
291440
292320
303370
322052
344369
361477
362188
342302
318131
357012
486682
601988
655098
648375
595745
518728
448918
424075
469988
573626
699569
809950
866654
826170
564924
188048
191772
244802
161089
185669
271189
365274
464124
584406
708745
793013
815287
788793
737732
677403
618929
571223
546740
554130
592649
651225
713517
764050
785283
760632
674598
529573
362284
220604
156431
164107
177903
165994
156542
152753
152570
166731
183100
195050
200441
199230
195282
194156
204153
230771
277883
354631
454732
549571
603494
610641
588201
551887
518086
503037
519272
561869
613404
651445
658862
622277
535564
404231
263949
191120
255719
407278
337501
234152
153087
135215
175369
240944
306408
381979
480210
572777
633952
662534
668944
660805
642907
621961
605600
600253
610129
632348
655996
666958
650233
592472
487335
352814
245115
207728
214859
209837
209270
208764
262471
377806
509896
637188
733734
786392
797910
781144
746257
702863
656626
619445
598528
605106
635085
678068
720297
746340
741214
690574
584890
436629
292554
213938
200624
203931
204863
200574
193811
210750
269616
420386
542752
655340
732702
761899
748851
709837
658600
607140
566491
547896
556060
589799
638454
685031
714328
705013
643826
525478
374517
248376
194392
198083
225200
252051
274334
289647