/*--------------------------------*- C++ -*----------------------------------*\
| =========                 |                                                 |
| \\      /  F ield         | OpenFOAM: The Open Source CFD Toolbox           |
|  \\    /   O peration     | Version:  2.1.1                                 |
|   \\  /    A nd           | Web:      www.OpenFOAM.org                      |
|    \\/     M anipulation  |                                                 |
\*---------------------------------------------------------------------------*/
FoamFile
{
    version     2.0;
    format      ascii;
    class       volScalarField;
    location    "0.006550000";
    object      H;
}
// * * * * * * * * * * * * * * * * * * * * * * * * * * * * * * * * * * * * * //

dimensions      [0 0 0 0 0 0 0];

internalField   nonuniform List<scalar> 
12384
(
0.000150993
0.000138982
0.000135731
0.000138656
0.000138161
0.00014299
0.000150157
0.000156925
0.000164332
0.000169105
0.000173778
0.00017382
0.000179986
0.000238961
1.36109e-05
2.15327e-05
2.39608e-05
2.45788e-05
2.37816e-05
2.25131e-05
2.16456e-05
2.14477e-05
2.17421e-05
2.25534e-05
2.41044e-05
2.51857e-05
2.51428e-05
2.79711e-05
3.05016e-05
3.35118e-05
3.59328e-05
3.49627e-05
3.61218e-05
3.57753e-05
3.45517e-05
3.58252e-05
3.41116e-05
3.20598e-05
2.99715e-05
2.65737e-05
2.75262e-05
2.50104e-05
1.31344e-05
8.01035e-06
4.00162e-05
5.26076e-05
6.46702e-05
6.80955e-05
6.58406e-05
6.66555e-05
6.66613e-05
6.76848e-05
6.97528e-05
7.3266e-05
7.65106e-05
8.04502e-05
8.32113e-05
8.55289e-05
8.66725e-05
8.69595e-05
8.58462e-05
8.52713e-05
8.48145e-05
8.39921e-05
8.30715e-05
8.26003e-05
8.11156e-05
8.03487e-05
7.84213e-05
7.51399e-05
7.15618e-05
6.46605e-05
5.83353e-05
6.18206e-05
7.03611e-05
7.19676e-05
7.43938e-05
7.48095e-05
7.53813e-05
7.58909e-05
7.64863e-05
7.7441e-05
7.83549e-05
7.93104e-05
8.05057e-05
8.15894e-05
8.2205e-05
8.23631e-05
8.16321e-05
8.01133e-05
7.76586e-05
7.49546e-05
7.22528e-05
6.99049e-05
6.89379e-05
6.76089e-05
6.85102e-05
6.94649e-05
7.15457e-05
7.38458e-05
7.32732e-05
6.92583e-05
7.05862e-05
7.33708e-05
0.000108593
0.000112718
0.000113067
0.000112192
0.000110801
0.000108755
0.000106011
0.000109315
0.000106016
0.000101735
9.8869e-05
9.70961e-05
9.34805e-05
9.23991e-05
9.10652e-05
9.07851e-05
9.18837e-05
9.48278e-05
9.66772e-05
0.000101152
0.000100966
7.87569e-05
7.30301e-05
7.59924e-05
7.70332e-05
7.80478e-05
7.80747e-05
7.96227e-05
7.57809e-05
7.2821e-05
8.62724e-05
8.56941e-05
8.67539e-05
8.87971e-05
9.00655e-05
8.82603e-05
8.86961e-05
8.74786e-05
8.99485e-05
9.08843e-05
9.26472e-05
9.41717e-05
9.66075e-05
9.67216e-05
9.83726e-05
9.91405e-05
0.000100605
0.000100104
0.000102511
0.000101238
0.000103036
0.000102359
0.000102793
0.000102851
0.000103211
0.00010484
0.000108898
0.000116059
0.0001154
0.00011352
6.45324e-05
5.74417e-05
5.91614e-05
6.72504e-05
6.91182e-05
6.78661e-05
6.87003e-05
7.07582e-05
6.84799e-05
6.99897e-05
6.56999e-05
6.65158e-05
6.20233e-05
6.29016e-05
5.90523e-05
5.95193e-05
5.81121e-05
5.82287e-05
5.7516e-05
5.73271e-05
5.66155e-05
5.73488e-05
5.85215e-05
5.13376e-05
1.62282e-05
1.16785e-05
1.10412e-05
1.09929e-05
1.1189e-05
1.08309e-05
7.23215e-05
8.17016e-05
8.89468e-05
9.11291e-05
9.22864e-05
9.25768e-05
9.15036e-05
9.15584e-05
8.67675e-05
8.90436e-05
8.3558e-05
8.575e-05
8.29883e-05
8.50414e-05
8.48319e-05
8.81043e-05
8.84468e-05
9.20737e-05
9.24076e-05
9.45362e-05
9.41484e-05
9.27387e-05
8.86259e-05
8.97255e-05
9.0618e-05
9.32396e-05
9.52814e-05
9.70173e-05
9.74847e-05
9.73212e-05
7.61026e-05
8.20459e-05
8.35909e-05
8.3083e-05
8.22489e-05
8.11646e-05
7.96798e-05
7.94042e-05
7.86284e-05
7.91487e-05
7.81007e-05
8.12957e-05
8.06796e-05
8.42867e-05
8.50628e-05
8.76853e-05
8.81491e-05
8.88876e-05
8.69728e-05
7.53346e-05
7.41375e-05
7.93696e-05
7.96915e-05
8.15583e-05
8.22117e-05
8.38742e-05
8.32471e-05
8.17513e-05
7.8376e-05
7.74018e-05
8.02843e-05
8.55609e-05
8.89308e-05
8.91969e-05
8.77807e-05
8.73653e-05
8.23806e-05
8.0327e-05
7.68409e-05
7.28642e-05
7.2878e-05
6.95643e-05
7.00791e-05
6.9773e-05
7.08225e-05
7.28533e-05
7.47123e-05
7.726e-05
8.0215e-05
8.30265e-05
7.59185e-05
7.32356e-05
7.3525e-05
7.36425e-05
7.42681e-05
7.36975e-05
7.35603e-05
7.37742e-05
7.30767e-05
7.23818e-05
6.119e-05
6.37618e-05
6.46911e-05
6.61518e-05
6.68554e-05
6.71319e-05
6.69713e-05
6.68235e-05
6.69665e-05
6.61811e-05
6.86716e-05
6.79378e-05
7.14125e-05
7.20679e-05
7.48496e-05
7.6684e-05
7.80563e-05
7.74415e-05
7.41368e-05
6.81856e-05
6.68279e-05
6.7746e-05
6.93446e-05
7.04888e-05
7.14356e-05
7.20114e-05
7.19568e-05
7.1306e-05
6.94556e-05
6.84955e-05
5.44486e-05
5.49908e-05
5.62732e-05
5.546e-05
5.83439e-05
5.98295e-05
6.27779e-05
6.36653e-05
6.57482e-05
6.59867e-05
6.57366e-05
6.67153e-05
6.6642e-05
6.65185e-05
6.61351e-05
6.54135e-05
6.41439e-05
6.27771e-05
6.21734e-05
6.04052e-05
5.86534e-05
5.89305e-05
5.72385e-05
5.67148e-05
5.66954e-05
5.69e-05
5.64007e-05
5.61769e-05
5.6383e-05
5.70191e-05
5.3191e-05
5.26339e-05
5.37541e-05
5.60853e-05
5.63195e-05
1.07749e-05
4.35656e-06
5.60852e-05
4.37074e-05
4.62508e-05
4.8872e-05
4.89224e-05
5.04701e-05
4.99354e-05
5.17363e-05
5.16683e-05
5.35249e-05
5.08675e-05
5.32318e-05
5.5431e-05
5.66014e-05
5.74527e-05
5.80748e-05
5.76745e-05
5.57283e-05
5.0117e-05
4.50947e-05
3.95346e-05
3.88695e-05
4.849e-05
9.15338e-05
9.62191e-05
9.76598e-05
9.8463e-05
9.64183e-05
9.93359e-05
0.00010737
0.000115731
0.000137455
0.000162303
0.000179948
0.000184679
0.000187638
0.000231291
1.36997e-05
2.14412e-05
2.59817e-05
2.52633e-05
2.18067e-05
1.96948e-05
2.01519e-05
2.17213e-05
2.37554e-05
2.37624e-05
2.6997e-05
2.96921e-05
3.33066e-05
3.64452e-05
4.42881e-05
4.76152e-05
5.31323e-05
5.58446e-05
5.70948e-05
5.77238e-05
5.78558e-05
5.69553e-05
5.44879e-05
4.84088e-05
4.35794e-05
3.6907e-05
2.95637e-05
2.76374e-05
1.78229e-05
1.19032e-05
4.13457e-05
5.6057e-05
6.61447e-05
6.65865e-05
6.50943e-05
6.33116e-05
6.35947e-05
6.39492e-05
7.03575e-05
7.74235e-05
8.51552e-05
9.11985e-05
9.36725e-05
9.42284e-05
9.34562e-05
9.12349e-05
8.97222e-05
8.75208e-05
8.71822e-05
8.73473e-05
8.68901e-05
8.86523e-05
8.72038e-05
8.62945e-05
8.37601e-05
7.9516e-05
7.49948e-05
6.90893e-05
6.33325e-05
5.80344e-05
7.07059e-05
7.27846e-05
7.50605e-05
7.61611e-05
7.80509e-05
7.98706e-05
8.15188e-05
8.35129e-05
8.53103e-05
8.76874e-05
8.96351e-05
9.1201e-05
9.19545e-05
9.07645e-05
8.75852e-05
8.22002e-05
7.67567e-05
7.11536e-05
6.68706e-05
6.3287e-05
6.13802e-05
6.06754e-05
6.13198e-05
6.32588e-05
6.65065e-05
6.97459e-05
7.20598e-05
7.148e-05
7.04983e-05
7.45372e-05
0.000106064
0.00011209
0.000112301
0.000109168
0.000106337
0.000106653
0.000102072
9.77516e-05
9.30692e-05
8.98383e-05
8.70604e-05
8.42904e-05
8.09391e-05
8.06668e-05
7.94133e-05
7.95443e-05
8.15882e-05
8.46287e-05
8.94731e-05
9.45194e-05
0.000100102
9.13067e-05
7.72967e-05
7.8228e-05
8.33209e-05
8.71164e-05
8.27507e-05
8.44024e-05
8.52624e-05
8.34866e-05
8.61866e-05
8.58109e-05
8.70701e-05
8.82319e-05
8.66718e-05
8.48654e-05
8.54536e-05
8.76219e-05
9.18465e-05
9.3767e-05
9.70501e-05
9.88108e-05
0.00010103
0.00010367
0.000104102
0.000106318
0.000107753
0.000109895
0.000109029
0.000110899
0.000110973
0.000111737
0.000110959
0.000108348
0.00010673
0.00010527
0.000107119
0.000110493
0.000113053
0.000113537
6.43933e-05
6.53629e-05
7.15395e-05
7.20311e-05
7.63431e-05
8.22713e-05
8.18988e-05
8.05775e-05
7.63622e-05
7.35468e-05
6.99277e-05
6.80794e-05
6.55748e-05
6.48382e-05
6.34184e-05
6.24738e-05
6.28921e-05
6.20612e-05
6.18276e-05
6.0581e-05
5.86304e-05
5.66637e-05
5.87069e-05
5.61569e-05
3.64852e-05
1.35543e-05
1.11974e-05
1.38066e-05
1.69082e-05
1.42487e-05
8.635e-05
9.22364e-05
9.54029e-05
9.5967e-05
9.51835e-05
9.37177e-05
9.1177e-05
9.03456e-05
8.67913e-05
8.624e-05
8.35244e-05
8.28158e-05
8.2714e-05
8.22918e-05
8.46419e-05
8.48103e-05
8.65947e-05
8.87483e-05
9.0592e-05
9.30689e-05
9.44446e-05
9.45733e-05
8.99863e-05
8.91258e-05
9.03635e-05
9.04764e-05
9.20281e-05
9.41478e-05
9.6357e-05
9.80089e-05
8.09977e-05
8.17127e-05
8.04254e-05
7.89259e-05
7.76701e-05
7.57785e-05
7.46146e-05
7.36858e-05
7.172e-05
7.17084e-05
7.30122e-05
7.44372e-05
7.62291e-05
7.83241e-05
8.05003e-05
8.32812e-05
8.60013e-05
8.77234e-05
9.12506e-05
8.40363e-05
7.62154e-05
8.22554e-05
8.35422e-05
8.61123e-05
8.76777e-05
9.07416e-05
9.33395e-05
9.36771e-05
8.90236e-05
8.70322e-05
7.89683e-05
8.54308e-05
8.97655e-05
8.85635e-05
8.47735e-05
7.88136e-05
7.45973e-05
6.94205e-05
6.78696e-05
6.30561e-05
6.27841e-05
6.01556e-05
6.08101e-05
6.12e-05
6.20404e-05
6.49946e-05
6.73562e-05
7.11603e-05
7.56436e-05
8.0751e-05
8.01482e-05
7.44323e-05
7.44343e-05
7.42719e-05
7.49481e-05
7.46158e-05
7.50605e-05
7.48802e-05
7.53982e-05
7.49583e-05
6.03608e-05
6.27304e-05
6.49871e-05
6.70992e-05
6.80912e-05
6.7348e-05
6.69664e-05
6.5911e-05
6.59126e-05
6.63031e-05
6.58541e-05
6.73613e-05
6.88663e-05
6.99605e-05
7.27705e-05
7.3875e-05
7.7332e-05
7.81113e-05
7.77227e-05
7.12641e-05
6.7008e-05
6.87946e-05
7.04181e-05
7.16146e-05
7.22594e-05
7.25568e-05
7.25653e-05
7.2839e-05
7.17793e-05
6.85638e-05
5.49074e-05
5.41766e-05
5.63652e-05
5.84292e-05
6.03872e-05
6.29999e-05
6.72391e-05
7.15041e-05
7.28035e-05
7.38855e-05
7.49772e-05
7.34908e-05
7.25111e-05
7.14428e-05
7.1219e-05
6.96232e-05
6.80789e-05
6.61642e-05
6.45681e-05
6.31704e-05
6.18716e-05
5.97956e-05
5.88705e-05
5.88978e-05
5.79129e-05
5.71903e-05
5.69081e-05
5.66787e-05
5.66226e-05
5.71867e-05
4.84721e-05
4.74084e-05
4.5763e-05
4.67393e-05
5.72962e-05
1.3247e-05
5.69685e-05
4.60289e-05
4.2958e-05
4.62494e-05
4.85209e-05
5.08922e-05
5.00262e-05
5.24945e-05
5.22113e-05
5.32362e-05
5.26229e-05
5.35326e-05
5.25434e-05
5.36698e-05
5.37495e-05
5.42096e-05
5.86878e-05
6.10417e-05
5.79244e-05
5.20242e-05
4.40621e-05
3.91133e-05
3.90645e-05
4.93394e-05
8.64705e-05
9.0155e-05
7.05963e-05
6.18585e-05
6.34581e-05
6.99785e-05
7.14818e-05
7.8152e-05
9.03398e-05
0.000109904
0.000151318
0.00018364
0.000189928
0.000227645
1.39943e-05
2.2911e-05
2.75388e-05
2.35737e-05
1.91653e-05
1.85917e-05
2.03521e-05
2.15929e-05
2.19626e-05
2.16175e-05
2.17788e-05
2.17978e-05
2.68308e-05
3.1861e-05
4.23279e-05
4.71156e-05
5.11538e-05
5.14544e-05
4.97972e-05
4.93805e-05
5.12993e-05
5.32714e-05
5.52734e-05
5.6302e-05
5.24868e-05
4.69458e-05
3.74244e-05
2.89553e-05
2.32095e-05
1.50039e-05
4.23457e-05
5.81196e-05
6.54309e-05
6.33048e-05
5.88378e-05
5.69392e-05
6.17255e-05
6.93334e-05
7.65608e-05
8.20438e-05
8.99516e-05
9.37935e-05
9.25321e-05
8.79971e-05
8.16455e-05
7.51128e-05
7.08312e-05
6.77813e-05
6.76244e-05
6.77455e-05
7.08674e-05
7.4752e-05
7.96275e-05
8.29176e-05
8.49172e-05
8.25757e-05
7.7318e-05
7.21348e-05
6.46167e-05
5.91934e-05
7.07898e-05
7.33549e-05
7.56181e-05
7.80701e-05
8.16808e-05
8.47256e-05
8.67752e-05
8.75948e-05
9.02772e-05
9.235e-05
9.46009e-05
9.60236e-05
9.64684e-05
9.33276e-05
8.49615e-05
7.60077e-05
6.76921e-05
6.1035e-05
5.63913e-05
5.33427e-05
5.16838e-05
5.12997e-05
5.23967e-05
5.56108e-05
5.97519e-05
6.52327e-05
6.85079e-05
7.12111e-05
7.05675e-05
7.31761e-05
0.000107135
0.000111259
0.000109278
0.000104595
0.00010486
9.96629e-05
9.58812e-05
9.31536e-05
9.15922e-05
9.04409e-05
8.74475e-05
8.43664e-05
8.32924e-05
8.12304e-05
7.8776e-05
7.78477e-05
7.77647e-05
7.87909e-05
8.16616e-05
8.74161e-05
9.49988e-05
9.71068e-05
8.51921e-05
7.9251e-05
8.25749e-05
8.37468e-05
8.52165e-05
8.45718e-05
8.86447e-05
8.89369e-05
8.61521e-05
8.5903e-05
8.72918e-05
8.66951e-05
8.40907e-05
8.34347e-05
8.77654e-05
9.08716e-05
9.35314e-05
9.47181e-05
9.7644e-05
9.78466e-05
0.000101077
0.000103565
0.000106071
0.000108926
0.000110912
0.00011338
0.00011631
0.000116481
0.000117807
0.000117621
0.000117828
0.00011431
0.000111181
0.000107612
0.000105565
0.00010678
0.000111971
0.000113533
6.62714e-05
7.13032e-05
7.2805e-05
7.84259e-05
8.52574e-05
8.61232e-05
8.18638e-05
7.52688e-05
6.96113e-05
6.65967e-05
6.55965e-05
6.35702e-05
6.50132e-05
6.17974e-05
6.30518e-05
6.16151e-05
6.27278e-05
6.28705e-05
6.33332e-05
6.31567e-05
6.12712e-05
5.87421e-05
5.96199e-05
5.75683e-05
5.11649e-05
2.76801e-05
1.21088e-05
1.6361e-05
2.51623e-05
1.99062e-05
9.45266e-05
9.63124e-05
9.61191e-05
9.49202e-05
9.33231e-05
9.18961e-05
9.04086e-05
8.92808e-05
8.63395e-05
8.62793e-05
8.22726e-05
8.35384e-05
8.17949e-05
8.30475e-05
8.30494e-05
8.43477e-05
8.59567e-05
8.64556e-05
8.88854e-05
9.05539e-05
9.29693e-05
9.41621e-05
9.45296e-05
8.86032e-05
8.80245e-05
9.00143e-05
9.3456e-05
9.39183e-05
9.56268e-05
9.85033e-05
8.19873e-05
7.98342e-05
7.81552e-05
7.67448e-05
7.49548e-05
7.27692e-05
7.33644e-05
6.93177e-05
6.67077e-05
6.60907e-05
6.53397e-05
6.76172e-05
7.13859e-05
7.59888e-05
7.64802e-05
7.88536e-05
8.18538e-05
8.45003e-05
8.64419e-05
9.02285e-05
8.06711e-05
8.23331e-05
8.34224e-05
8.50154e-05
8.57397e-05
8.98555e-05
9.77245e-05
0.000102391
9.79496e-05
8.92554e-05
7.73722e-05
8.50781e-05
9.03815e-05
8.64914e-05
7.88656e-05
7.41162e-05
6.96102e-05
6.47666e-05
6.6081e-05
5.93452e-05
5.73308e-05
5.43325e-05
5.34146e-05
5.34865e-05
5.4929e-05
5.85207e-05
6.28939e-05
6.50254e-05
6.97907e-05
7.58549e-05
8.14069e-05
7.64612e-05
7.40521e-05
7.46142e-05
7.33507e-05
7.34815e-05
7.37414e-05
7.45151e-05
7.67412e-05
7.70821e-05
6.00564e-05
6.37742e-05
6.76437e-05
6.86872e-05
6.80737e-05
6.66685e-05
6.63445e-05
6.50102e-05
6.35588e-05
6.24042e-05
6.25151e-05
6.40475e-05
6.48737e-05
6.76136e-05
7.0912e-05
7.26019e-05
7.33802e-05
7.64592e-05
7.73558e-05
7.58237e-05
6.78694e-05
6.82193e-05
6.9426e-05
7.03394e-05
7.05051e-05
7.10701e-05
7.01092e-05
7.07184e-05
7.18994e-05
6.98615e-05
5.60762e-05
5.64301e-05
5.83236e-05
5.99932e-05
6.34207e-05
6.8754e-05
7.43314e-05
7.72842e-05
7.99337e-05
8.1137e-05
7.98914e-05
7.79484e-05
7.64834e-05
7.34316e-05
7.11024e-05
6.89773e-05
6.62681e-05
6.4596e-05
6.27837e-05
6.15203e-05
5.94537e-05
5.9192e-05
5.93776e-05
5.86154e-05
5.83711e-05
5.79677e-05
5.75278e-05
5.72281e-05
5.68494e-05
5.69475e-05
5.3657e-05
5.12411e-05
4.87806e-05
5.06953e-05
5.36692e-05
5.81177e-05
4.49446e-05
4.35782e-05
4.54318e-05
4.94421e-05
5.10548e-05
5.40361e-05
5.47114e-05
5.57301e-05
5.72681e-05
5.56724e-05
5.62649e-05
5.47925e-05
5.35997e-05
5.24421e-05
5.16423e-05
5.2397e-05
5.48253e-05
5.95856e-05
6.08894e-05
5.23346e-05
4.28239e-05
3.94899e-05
4.04247e-05
5.35061e-05
7.90273e-05
5.82797e-05
4.61585e-05
4.9415e-05
7.2393e-05
8.98127e-05
9.95141e-05
9.39775e-05
8.62563e-05
8.98823e-05
0.000113129
0.000163072
0.000193037
0.000228535
1.43515e-05
2.53338e-05
2.83513e-05
2.20757e-05
1.77038e-05
1.74169e-05
1.76808e-05
1.64019e-05
1.4692e-05
1.38884e-05
1.6103e-05
2.02795e-05
2.42537e-05
3.44625e-05
4.10874e-05
4.37916e-05
4.23841e-05
4.18318e-05
4.07968e-05
4.06901e-05
4.1555e-05
4.05011e-05
4.59788e-05
5.1342e-05
5.16828e-05
4.83545e-05
4.23931e-05
3.36712e-05
2.63365e-05
1.6028e-05
4.25342e-05
5.84997e-05
6.4368e-05
5.93643e-05
5.43036e-05
5.63354e-05
6.9119e-05
8.20097e-05
8.56028e-05
8.54056e-05
9.08982e-05
9.11661e-05
8.49545e-05
7.44093e-05
6.41344e-05
6.044e-05
5.56561e-05
5.46014e-05
5.30301e-05
5.45776e-05
5.61459e-05
6.06942e-05
6.47312e-05
7.15413e-05
7.77295e-05
8.06747e-05
7.82447e-05
7.33009e-05
6.73172e-05
6.07917e-05
7.0728e-05
7.34357e-05
7.60413e-05
8.04317e-05
8.58688e-05
8.94297e-05
8.92713e-05
9.01043e-05
8.98982e-05
9.05109e-05
9.279e-05
9.61684e-05
9.09352e-05
9.12046e-05
7.92766e-05
6.7496e-05
5.897e-05
5.24753e-05
5.09725e-05
4.72939e-05
4.5954e-05
4.6175e-05
4.69513e-05
5.01733e-05
5.35833e-05
5.97428e-05
6.52431e-05
6.91581e-05
7.07098e-05
7.26745e-05
0.000110591
0.000109141
0.000104219
0.000105911
9.98648e-05
9.70392e-05
9.58545e-05
9.59261e-05
9.58807e-05
9.40864e-05
9.03274e-05
8.87897e-05
8.64822e-05
8.22034e-05
8.01997e-05
7.79397e-05
7.68864e-05
7.67278e-05
7.77321e-05
8.14196e-05
8.92608e-05
9.66136e-05
9.24891e-05
8.32155e-05
8.13915e-05
7.75635e-05
7.5447e-05
8.25824e-05
8.73461e-05
9.21403e-05
8.59654e-05
8.63794e-05
8.70681e-05
8.42911e-05
8.2039e-05
8.60437e-05
8.8693e-05
9.11142e-05
9.13418e-05
9.18125e-05
9.29687e-05
9.63063e-05
9.77602e-05
0.000102451
0.00010521
0.000110011
0.000115638
0.000120925
0.000124805
0.000125429
0.000124356
0.000124455
0.000123324
0.000120905
0.00011554
0.000110336
0.000106463
0.000106156
0.000109187
0.000114223
7.04042e-05
7.46653e-05
7.36182e-05
8.77887e-05
8.87409e-05
8.44158e-05
7.40305e-05
7.0437e-05
6.60712e-05
6.53934e-05
6.96598e-05
6.52345e-05
6.85017e-05
6.65696e-05
6.84121e-05
6.63174e-05
6.60211e-05
6.51159e-05
6.43649e-05
6.40729e-05
6.27094e-05
6.08185e-05
5.73704e-05
5.79197e-05
5.56266e-05
4.24508e-05
2.05414e-05
1.86153e-05
3.16653e-05
2.67968e-05
9.73509e-05
9.66295e-05
9.47343e-05
9.33241e-05
9.23219e-05
9.09918e-05
8.98601e-05
8.87403e-05
8.61244e-05
8.52941e-05
8.44281e-05
8.27803e-05
8.26306e-05
8.17272e-05
8.35001e-05
8.46118e-05
8.46552e-05
8.62088e-05
8.66434e-05
8.94087e-05
9.09934e-05
9.36015e-05
9.29466e-05
9.13996e-05
8.71653e-05
8.90127e-05
9.37751e-05
9.5357e-05
9.65341e-05
9.76789e-05
7.89779e-05
7.85476e-05
7.73404e-05
7.50213e-05
7.53474e-05
6.83986e-05
6.28347e-05
5.74343e-05
5.43199e-05
5.18552e-05
5.27314e-05
5.38582e-05
5.81141e-05
6.33921e-05
6.98915e-05
7.926e-05
7.74587e-05
8.12514e-05
8.36353e-05
8.89175e-05
8.5988e-05
8.23155e-05
8.3928e-05
8.43786e-05
8.50941e-05
8.93132e-05
9.95634e-05
0.000108017
0.000107782
9.42535e-05
7.80022e-05
9.01282e-05
8.90768e-05
8.16598e-05
7.50819e-05
6.98601e-05
6.78714e-05
6.33169e-05
5.84948e-05
5.15681e-05
4.75742e-05
4.5928e-05
4.39513e-05
4.47218e-05
4.62127e-05
4.86284e-05
5.24424e-05
5.88794e-05
6.48241e-05
7.09031e-05
7.77059e-05
7.93168e-05
7.56512e-05
7.46712e-05
7.33116e-05
7.35047e-05
7.31227e-05
7.48793e-05
7.70545e-05
7.81426e-05
6.2972e-05
6.76126e-05
6.87355e-05
6.85291e-05
6.65601e-05
6.41331e-05
6.11001e-05
5.87037e-05
5.64979e-05
5.58889e-05
5.7572e-05
5.98227e-05
5.90475e-05
6.16268e-05
6.5091e-05
6.90358e-05
7.28591e-05
7.40386e-05
7.63963e-05
7.75229e-05
7.08024e-05
6.75388e-05
6.81547e-05
6.95617e-05
6.99438e-05
6.93339e-05
6.77799e-05
6.82482e-05
7.0178e-05
7.01357e-05
5.64782e-05
5.80572e-05
5.89838e-05
6.28364e-05
6.7624e-05
7.48705e-05
8.064e-05
8.4321e-05
8.79432e-05
8.89399e-05
8.85623e-05
8.68211e-05
8.24106e-05
7.72184e-05
7.23946e-05
6.77494e-05
6.51535e-05
6.28677e-05
6.11166e-05
5.92219e-05
5.95589e-05
6.04122e-05
5.95777e-05
5.92046e-05
5.87141e-05
5.83599e-05
5.82556e-05
5.80446e-05
5.7143e-05
5.66636e-05
5.48737e-05
5.48135e-05
5.66977e-05
5.72886e-05
5.79878e-05
4.61707e-05
4.07747e-05
4.51263e-05
4.90341e-05
5.21253e-05
5.55234e-05
5.92439e-05
6.28912e-05
6.43535e-05
6.46921e-05
6.27602e-05
5.99939e-05
5.70813e-05
5.58922e-05
5.31635e-05
5.17212e-05
5.01959e-05
5.09856e-05
5.46561e-05
6.09461e-05
5.7804e-05
4.76579e-05
4.20799e-05
4.51649e-05
6.19036e-05
5.73762e-05
3.64228e-05
4.40928e-05
7.9836e-05
0.000123879
0.000153321
0.000155316
0.000136763
0.000113359
9.30191e-05
0.000101287
0.000145979
0.000190057
0.000230363
1.46558e-05
2.67876e-05
2.85598e-05
2.04712e-05
1.54626e-05
1.47626e-05
1.48326e-05
1.35214e-05
1.30404e-05
1.49549e-05
2.07919e-05
2.88204e-05
3.31999e-05
3.76405e-05
4.00347e-05
3.93629e-05
3.60148e-05
3.48373e-05
3.53003e-05
3.6423e-05
3.76728e-05
3.90036e-05
4.1593e-05
4.14504e-05
4.81608e-05
5.04224e-05
4.50871e-05
3.6503e-05
2.81628e-05
1.77745e-05
4.20815e-05
5.7774e-05
6.31068e-05
5.67183e-05
5.25324e-05
6.19219e-05
8.05258e-05
9.3975e-05
9.3279e-05
8.76915e-05
9.03806e-05
8.73633e-05
7.51506e-05
6.43265e-05
5.49674e-05
5.09895e-05
5.0014e-05
4.87947e-05
4.9556e-05
4.93621e-05
5.0134e-05
5.10693e-05
5.53691e-05
6.3214e-05
6.82034e-05
7.45298e-05
7.59692e-05
7.30192e-05
6.80981e-05
6.16348e-05
7.07756e-05
7.32062e-05
7.6338e-05
8.24196e-05
8.98716e-05
9.1901e-05
9.03298e-05
8.63073e-05
8.36238e-05
8.42323e-05
8.73151e-05
9.33667e-05
9.1591e-05
8.9834e-05
7.42376e-05
6.15133e-05
5.37127e-05
4.99846e-05
4.6344e-05
4.27658e-05
4.1765e-05
4.09478e-05
4.20098e-05
4.51633e-05
5.02548e-05
5.4944e-05
6.19752e-05
6.70259e-05
7.00975e-05
7.23072e-05
0.000109312
0.000104551
0.000100024
0.000102765
9.96625e-05
9.83132e-05
9.90598e-05
9.95397e-05
9.71518e-05
9.28898e-05
8.89906e-05
8.69798e-05
8.13436e-05
8.03936e-05
7.96885e-05
7.91583e-05
7.8341e-05
7.70055e-05
7.65943e-05
7.80974e-05
8.39464e-05
9.3656e-05
9.54489e-05
8.65947e-05
8.12274e-05
7.6534e-05
7.1178e-05
7.36541e-05
8.48963e-05
9.21158e-05
8.5954e-05
8.59101e-05
8.60221e-05
8.16482e-05
8.27951e-05
8.58966e-05
8.81031e-05
8.78666e-05
8.86708e-05
8.86811e-05
9.11826e-05
9.27708e-05
9.78283e-05
0.000101184
0.000106944
0.000112464
0.000121593
0.000127576
0.000133972
0.00013591
0.000135931
0.000132168
0.000128466
0.00012415
0.000120732
0.000113977
0.00010673
0.00010506
0.000106706
0.000112592
7.37111e-05
7.49159e-05
8.33998e-05
9.18683e-05
8.82875e-05
7.82365e-05
7.36876e-05
6.60716e-05
6.53408e-05
6.88361e-05
7.04935e-05
7.22407e-05
7.54321e-05
7.70512e-05
7.78446e-05
7.55557e-05
7.38133e-05
7.09229e-05
6.77951e-05
6.64336e-05
6.44465e-05
6.2089e-05
5.90713e-05
5.7818e-05
5.65409e-05
5.14534e-05
3.46783e-05
2.54424e-05
3.52831e-05
3.51847e-05
9.72094e-05
9.52159e-05
9.36606e-05
9.24187e-05
9.14977e-05
9.09257e-05
8.95518e-05
8.86404e-05
8.61186e-05
8.5944e-05
8.2011e-05
8.13006e-05
8.12362e-05
8.25009e-05
8.2491e-05
8.33074e-05
8.56118e-05
8.53348e-05
8.65811e-05
8.72969e-05
8.97376e-05
9.20184e-05
9.35004e-05
9.19395e-05
9.00484e-05
9.12101e-05
9.35089e-05
9.58904e-05
9.69169e-05
9.80829e-05
7.97624e-05
7.83556e-05
7.63365e-05
7.37117e-05
6.80407e-05
6.08556e-05
5.42051e-05
4.86996e-05
4.4362e-05
4.41745e-05
4.23604e-05
4.4744e-05
4.55504e-05
5.16988e-05
5.77004e-05
6.83076e-05
7.78655e-05
7.8151e-05
8.13689e-05
8.50679e-05
8.90876e-05
8.25893e-05
8.43174e-05
8.45315e-05
8.63432e-05
9.37068e-05
0.000102312
0.000108994
0.000110377
9.94282e-05
7.89634e-05
9.39561e-05
8.58681e-05
7.85956e-05
7.29017e-05
6.80485e-05
6.60708e-05
5.77117e-05
5.06535e-05
4.35639e-05
4.07111e-05
3.76236e-05
3.71323e-05
3.68438e-05
3.89111e-05
4.1451e-05
4.53396e-05
5.10789e-05
5.96108e-05
6.59994e-05
7.34682e-05
7.94707e-05
7.71538e-05
7.45763e-05
7.4331e-05
7.33775e-05
7.40096e-05
7.45102e-05
7.59489e-05
7.8455e-05
6.8305e-05
7.0091e-05
6.91651e-05
6.77065e-05
6.31283e-05
5.89401e-05
5.89529e-05
5.15392e-05
4.66245e-05
4.14734e-05
4.0098e-05
4.12864e-05
4.58464e-05
5.08973e-05
5.91672e-05
6.44967e-05
6.76937e-05
7.39045e-05
7.44861e-05
7.69897e-05
7.41981e-05
6.81419e-05
6.7989e-05
6.98513e-05
7.08683e-05
6.81371e-05
6.67172e-05
6.62562e-05
6.93922e-05
7.07223e-05
5.71514e-05
5.81795e-05
6.02297e-05
6.49234e-05
7.19978e-05
7.99186e-05
8.6544e-05
9.10424e-05
9.5978e-05
9.85156e-05
9.88735e-05
9.48459e-05
8.91027e-05
8.14788e-05
7.38307e-05
6.75855e-05
6.46371e-05
6.19511e-05
5.93158e-05
5.97156e-05
6.1405e-05
5.87928e-05
5.75944e-05
5.79479e-05
5.94258e-05
5.87561e-05
5.82163e-05
5.82804e-05
5.73366e-05
5.6242e-05
5.51864e-05
5.60012e-05
5.63066e-05
5.78074e-05
4.97457e-05
4.11837e-05
4.50206e-05
4.80417e-05
5.13439e-05
5.63499e-05
6.22818e-05
6.8919e-05
7.10992e-05
7.47689e-05
7.34086e-05
7.34092e-05
6.73274e-05
6.22957e-05
5.63432e-05
5.42469e-05
5.32011e-05
5.15227e-05
4.87278e-05
4.92771e-05
5.94217e-05
6.02179e-05
5.50515e-05
5.00554e-05
5.37797e-05
4.33548e-05
3.83105e-05
3.25016e-05
6.34835e-05
0.000132348
0.000176487
0.000182236
0.000175125
0.000156861
0.000131614
0.00010106
9.67722e-05
0.000133803
0.000188062
0.00023405
1.50847e-05
2.87989e-05
2.99937e-05
1.9806e-05
1.60215e-05
1.42364e-05
1.30734e-05
1.26165e-05
1.48448e-05
2.39603e-05
3.98957e-05
4.88486e-05
4.18086e-05
4.06976e-05
3.8178e-05
3.32156e-05
3.43831e-05
3.72391e-05
4.14063e-05
4.19671e-05
4.45323e-05
4.48918e-05
4.34576e-05
4.3487e-05
4.21398e-05
4.66306e-05
4.47863e-05
3.75023e-05
2.89946e-05
1.86916e-05
4.06941e-05
5.59217e-05
6.24879e-05
5.65822e-05
5.61242e-05
6.6618e-05
8.94048e-05
9.51623e-05
9.84736e-05
8.97104e-05
8.93804e-05
8.32464e-05
6.62552e-05
5.56012e-05
4.96843e-05
4.96914e-05
4.86429e-05
4.9848e-05
4.91212e-05
4.93586e-05
4.9059e-05
4.98378e-05
5.01069e-05
5.4566e-05
6.29686e-05
6.72782e-05
7.16849e-05
7.14235e-05
6.79785e-05
6.19516e-05
7.04416e-05
7.28211e-05
7.58174e-05
8.32689e-05
9.13927e-05
8.97964e-05
9.13396e-05
8.45265e-05
7.85907e-05
7.65589e-05
7.94093e-05
8.74664e-05
9.41836e-05
8.84027e-05
7.08659e-05
5.82237e-05
5.34321e-05
4.74491e-05
4.35937e-05
4.00864e-05
3.92377e-05
3.91114e-05
4.01486e-05
4.15662e-05
4.69724e-05
5.35714e-05
5.92233e-05
6.48297e-05
6.94329e-05
7.18166e-05
0.000105294
0.000101023
0.000100394
9.73099e-05
9.97205e-05
9.96785e-05
0.000101813
9.96825e-05
9.42778e-05
8.95131e-05
8.39521e-05
8.06647e-05
7.87675e-05
8.10503e-05
8.1592e-05
8.25268e-05
8.19295e-05
8.03701e-05
7.727e-05
7.74954e-05
8.15724e-05
8.97333e-05
9.6252e-05
8.93463e-05
8.23493e-05
7.73834e-05
7.13518e-05
7.07531e-05
8.13772e-05
8.91743e-05
8.64977e-05
8.60134e-05
8.41732e-05
8.0983e-05
8.22583e-05
8.56717e-05
8.61599e-05
8.58986e-05
8.63594e-05
8.65184e-05
8.73325e-05
9.10758e-05
9.45144e-05
9.98115e-05
0.000104746
0.000114535
0.000124392
0.000136712
0.000142163
0.000143082
0.000142114
0.000139694
0.000134827
0.000127791
0.000123218
0.00011561
0.000108369
0.000104657
0.000106653
0.000111842
7.02603e-05
7.98407e-05
9.18288e-05
9.23998e-05
8.84837e-05
7.58934e-05
7.14658e-05
6.36786e-05
6.754e-05
6.79059e-05
7.45013e-05
7.73306e-05
8.36716e-05
8.45137e-05
8.58554e-05
8.4362e-05
8.11105e-05
7.70771e-05
7.24702e-05
6.8917e-05
6.56571e-05
6.35843e-05
5.97484e-05
5.78398e-05
5.64012e-05
5.45586e-05
4.38943e-05
3.57378e-05
3.88042e-05
4.1742e-05
9.59857e-05
9.40581e-05
9.29006e-05
9.1243e-05
9.13039e-05
8.98178e-05
8.96473e-05
8.73595e-05
8.55891e-05
8.31009e-05
7.98011e-05
7.90068e-05
7.96363e-05
7.85678e-05
7.96803e-05
8.13221e-05
8.50456e-05
8.47449e-05
8.65855e-05
8.6687e-05
8.79164e-05
9.11129e-05
9.17544e-05
9.346e-05
9.35577e-05
9.3145e-05
9.36931e-05
9.64746e-05
9.76467e-05
9.86912e-05
8.0545e-05
7.87355e-05
7.55131e-05
7.26788e-05
6.36173e-05
5.55452e-05
4.86646e-05
4.51402e-05
4.04933e-05
3.65196e-05
3.56895e-05
3.53418e-05
3.77165e-05
4.36629e-05
4.87162e-05
5.88243e-05
7.10831e-05
7.5075e-05
7.98762e-05
8.26533e-05
8.99025e-05
8.57445e-05
8.38169e-05
8.52529e-05
8.84921e-05
9.87232e-05
0.000102844
0.000105424
0.000109934
0.000103041
8.26221e-05
9.31105e-05
8.36499e-05
7.64099e-05
7.19036e-05
7.05422e-05
6.14665e-05
5.14353e-05
4.50881e-05
3.92692e-05
3.70448e-05
3.40802e-05
3.41492e-05
3.50487e-05
3.61372e-05
3.8239e-05
3.99193e-05
4.59697e-05
5.28279e-05
6.46799e-05
7.03922e-05
7.66975e-05
8.08481e-05
7.72933e-05
7.54872e-05
7.51924e-05
7.45386e-05
7.5621e-05
7.52662e-05
7.77e-05
7.1918e-05
7.00697e-05
6.90838e-05
6.3442e-05
5.9571e-05
5.63826e-05
4.62541e-05
3.73607e-05
3.09194e-05
2.75222e-05
2.55672e-05
2.67812e-05
3.0834e-05
3.73706e-05
4.43141e-05
5.72568e-05
6.39661e-05
6.96595e-05
7.39763e-05
7.60546e-05
7.55532e-05
6.99214e-05
6.88007e-05
7.05742e-05
7.09374e-05
6.76589e-05
6.59668e-05
6.62035e-05
6.84208e-05
7.02872e-05
5.84486e-05
5.85883e-05
6.12883e-05
6.6654e-05
7.57715e-05
8.35492e-05
9.1334e-05
9.76466e-05
0.000103424
0.000104397
0.000104217
0.000100653
9.57084e-05
8.6362e-05
7.6381e-05
6.82718e-05
6.39717e-05
6.06774e-05
5.92934e-05
6.01761e-05
5.9981e-05
5.7017e-05
5.57553e-05
5.5066e-05
5.77427e-05
5.95303e-05
5.90239e-05
5.8395e-05
5.70412e-05
5.57605e-05
5.46878e-05
5.56241e-05
5.82768e-05
5.22049e-05
4.34893e-05
4.24693e-05
4.67601e-05
4.95255e-05
5.66187e-05
6.30196e-05
6.88727e-05
7.77379e-05
8.53336e-05
8.71764e-05
8.68478e-05
8.25625e-05
7.34227e-05
6.80464e-05
5.84648e-05
5.46688e-05
5.11683e-05
5.12728e-05
5.0877e-05
4.89522e-05
5.58355e-05
6.21205e-05
6.00925e-05
5.71783e-05
6.21954e-05
9.32366e-06
3.37836e-05
3.75146e-05
0.00010499
0.000176687
0.000180643
0.000164571
0.000163999
0.000157239
0.00013314
0.000102869
9.65472e-05
0.000130936
0.000189838
0.000236754
1.4985e-05
3.02352e-05
2.9726e-05
2.03294e-05
1.53021e-05
1.35255e-05
1.28033e-05
1.41933e-05
2.39819e-05
4.98681e-05
7.21546e-05
6.92362e-05
5.05262e-05
3.98742e-05
3.40553e-05
3.19121e-05
3.51098e-05
4.17361e-05
4.72121e-05
5.3559e-05
5.55676e-05
5.43754e-05
5.08328e-05
4.66025e-05
4.50867e-05
4.29643e-05
4.25159e-05
3.72829e-05
2.912e-05
1.89832e-05
3.95567e-05
5.16344e-05
6.17251e-05
5.68323e-05
5.70031e-05
6.69365e-05
9.41172e-05
9.58608e-05
9.41074e-05
9.08965e-05
8.8554e-05
7.94153e-05
6.24488e-05
5.16763e-05
4.94061e-05
4.97912e-05
4.93963e-05
5.00234e-05
5.05845e-05
5.04065e-05
5.04925e-05
4.96781e-05
4.95758e-05
5.05545e-05
5.63061e-05
6.42452e-05
6.71127e-05
6.91012e-05
6.71623e-05
6.20692e-05
7.05191e-05
7.19914e-05
7.43862e-05
8.21804e-05
9.18656e-05
9.01194e-05
8.84435e-05
8.49961e-05
7.74537e-05
7.32878e-05
7.4092e-05
8.27789e-05
9.3377e-05
8.91678e-05
7.00324e-05
5.69361e-05
5.22926e-05
4.61081e-05
4.21489e-05
3.8514e-05
3.80296e-05
3.76748e-05
3.85694e-05
4.03e-05
4.48331e-05
5.12738e-05
5.703e-05
6.36671e-05
6.88536e-05
7.15538e-05
0.000101478
0.000102903
9.77601e-05
9.70361e-05
9.58023e-05
9.50074e-05
9.65696e-05
9.85801e-05
9.16823e-05
8.46769e-05
7.91759e-05
7.94701e-05
8.10667e-05
8.43204e-05
8.41121e-05
8.48822e-05
8.41819e-05
8.32179e-05
8.07053e-05
7.71495e-05
8.01408e-05
8.803e-05
9.5296e-05
9.12127e-05
8.34649e-05
7.80753e-05
7.4112e-05
6.96871e-05
7.47762e-05
8.53808e-05
8.65478e-05
8.54673e-05
8.3406e-05
8.06088e-05
8.21835e-05
8.36352e-05
8.50443e-05
8.4447e-05
8.57275e-05
8.565e-05
8.61863e-05
8.88306e-05
9.34181e-05
9.81445e-05
0.000105088
0.000114211
0.000126594
0.000135385
0.000144341
0.000147881
0.00014727
0.000142424
0.000139081
0.000131938
0.000125133
0.000118182
0.000109587
0.000104313
0.000105593
0.000110767
7.21512e-05
8.2953e-05
9.36371e-05
9.42681e-05
8.87322e-05
7.74626e-05
7.18913e-05
6.40234e-05
6.56383e-05
7.07271e-05
7.50083e-05
8.05571e-05
8.57621e-05
9.01659e-05
8.75112e-05
8.75143e-05
8.594e-05
8.19612e-05
7.57373e-05
7.14022e-05
6.76802e-05
6.41107e-05
6.04591e-05
5.78632e-05
5.5404e-05
5.58189e-05
5.11021e-05
4.53397e-05
4.53183e-05
5.08958e-05
9.45046e-05
9.37125e-05
9.22632e-05
9.10736e-05
8.9947e-05
8.89168e-05
8.9474e-05
8.56379e-05
8.42375e-05
8.20064e-05
7.83797e-05
7.79738e-05
7.60268e-05