/*--------------------------------*- C++ -*----------------------------------*\
| =========                 |                                                 |
| \\      /  F ield         | OpenFOAM: The Open Source CFD Toolbox           |
|  \\    /   O peration     | Version:  2.1.1                                 |
|   \\  /    A nd           | Web:      www.OpenFOAM.org                      |
|    \\/     M anipulation  |                                                 |
\*---------------------------------------------------------------------------*/
FoamFile
{
    version     2.0;
    format      ascii;
    class       volScalarField;
    location    "0.006550000";
    object      O;
}
// * * * * * * * * * * * * * * * * * * * * * * * * * * * * * * * * * * * * * //

dimensions      [0 0 0 0 0 0 0];

internalField   nonuniform List<scalar> 
12384
(
0.00106043
0.00105027
0.00103916
0.00103855
0.00101967
0.00099455
0.000982105
0.000966959
0.0009615
0.000960746
0.000971859
0.000977528
0.000986548
0.000948221
0.000334795
0.000415355
0.000453801
0.000472308
0.000479029
0.000476739
0.0004686
0.00047036
0.000469867
0.000470904
0.000478095
0.000473276
0.000468035
0.000469763
0.000464462
0.000461928
0.000458949
0.00045363
0.000448245
0.000447535
0.00045639
0.000462601
0.000466694
0.000474611
0.000485314
0.000495213
0.000520739
0.000514065
0.000372857
0.000291565
0.000407678
0.000404306
0.000331291
0.00027668
0.000253625
0.000232803
0.000220355
0.000210858
0.000201696
0.000184526
0.000163892
0.000145637
0.000127436
0.000115437
0.000103971
9.88238e-05
0.000103456
0.000100144
0.000100952
9.75666e-05
0.000101676
0.000101341
0.000112163
0.000119026
0.000133034
0.000152622
0.000173043
0.000254387
0.0003339
0.000320113
0.000150388
0.000146109
0.000150268
0.000157295
0.000157242
0.000153998
0.000149577
0.000147484
0.000143333
0.000138978
0.000136045
0.000133582
0.000131583
0.00013013
0.00012854
0.000126346
0.000133123
0.000128537
0.000134417
0.000130991
0.000133173
0.000134489
0.000144561
0.000145939
0.000156703
0.000164466
0.000167045
0.000136697
0.000113393
0.000115552
6.30843e-05
8.15697e-05
9.45711e-05
0.000102697
0.000108823
0.000112318
0.000112982
9.39333e-05
9.21476e-05
9.99401e-05
9.50819e-05
9.38799e-05
9.75489e-05
9.64911e-05
9.22347e-05
9.69579e-05
0.000104043
0.000106247
0.000118666
0.000110453
9.29515e-05
0.000117153
0.000121055
0.000101398
9.48697e-05
8.40736e-05
8.59124e-05
7.66504e-05
9.32427e-05
0.000104759
1.09497e-05
1.12985e-05
1.38138e-05
1.87816e-05
2.11619e-05
2.01737e-05
1.96329e-05
1.81236e-05
1.93566e-05
1.97528e-05
1.95698e-05
2.07187e-05
2.26576e-05
2.12796e-05
2.27142e-05
2.33915e-05
2.45928e-05
2.41632e-05
2.61774e-05
2.51024e-05
2.50684e-05
2.4545e-05
2.5299e-05
2.57145e-05
2.68052e-05
2.97389e-05
3.36305e-05
2.54388e-05
2.89267e-05
3.91356e-05
6.24771e-05
7.38115e-05
6.18406e-05
3.30569e-05
2.92952e-05
3.87246e-05
3.46142e-05
2.9872e-05
2.79134e-05
2.87761e-05
2.57351e-05
2.81795e-05
2.43271e-05
2.69483e-05
2.39921e-05
2.42564e-05
2.49304e-05
2.59543e-05
2.6785e-05
2.92112e-05
3.11528e-05
2.79735e-05
2.36206e-05
5.55871e-05
0.000180787
0.000192415
0.000190346
0.000186779
0.000183884
0.00018212
4.68644e-05
2.96291e-05
2.21727e-05
1.79857e-05
1.65017e-05
1.5789e-05
1.63975e-05
1.41871e-05
1.31936e-05
1.41577e-05
1.27966e-05
1.36468e-05
1.19723e-05
1.32399e-05
1.29501e-05
1.36651e-05
1.38476e-05
1.6507e-05
1.49373e-05
1.72857e-05
1.96552e-05
1.62471e-05
3.36599e-05
3.10578e-05
2.6295e-05
1.65129e-05
1.42461e-05
1.61288e-05
1.99001e-05
1.63547e-05
3.31129e-05
2.50338e-05
2.60588e-05
2.64436e-05
2.65355e-05
2.62114e-05
3.01199e-05
3.06445e-05
3.00519e-05
3.03332e-05
2.9797e-05
2.84738e-05
2.94485e-05
2.87102e-05
3.0956e-05
3.58452e-05
3.92236e-05
3.55015e-05
1.04576e-05
3.41944e-06
3.11258e-06
5.74598e-06
6.14512e-06
6.26327e-06
6.60691e-06
7.11317e-06
6.71654e-06
5.57055e-06
3.21609e-06
3.7728e-06
2.82881e-05
1.80599e-05
1.85358e-05
1.95915e-05
2.11849e-05
9.87154e-06
1.74661e-05
1.97738e-05
2.51492e-05
2.27003e-05
2.67567e-05
2.39465e-05
2.29131e-05
2.28603e-05
2.42599e-05
2.73329e-05
2.50261e-05
2.63894e-05
1.98815e-05
1.13072e-05
1.05963e-05
7.24478e-06
7.10302e-06
7.59544e-06
8.24988e-06
8.10709e-06
7.96939e-06
7.84524e-06
7.09602e-06
6.38117e-06
4.97624e-06
5.54957e-06
4.17613e-06
4.59778e-06
4.84478e-06
5.04175e-06
5.21195e-06
5.4717e-06
5.90651e-06
5.97827e-06
7.44931e-06
7.43362e-06
7.9669e-06
8.57653e-06
8.41384e-06
9.5146e-06
8.32887e-06
7.39293e-06
3.22641e-06
3.87492e-06
2.8903e-06
2.8771e-06
3.21138e-06
3.58033e-06
3.97441e-06
4.30821e-06
4.39589e-06
4.19216e-06
3.63813e-06
3.59582e-06
6.20127e-06
7.92536e-06
5.68836e-06
6.42169e-06
6.59194e-06
8.12593e-06
7.59051e-06
5.51748e-06
5.76882e-06
5.32617e-06
4.84621e-06
5.118e-06
4.94258e-06
4.84138e-06
4.6928e-06
4.47491e-06
4.15558e-06
3.98215e-06
5.6925e-06
5.55378e-06
5.35858e-06
7.01203e-06
6.75821e-06
7.05047e-06
7.33596e-06
7.53127e-06
7.29888e-06
7.12127e-06
6.89376e-06
5.82573e-06
2.72348e-06
2.53952e-06
2.91711e-06
4.76476e-06
1.59558e-05
0.000182243
0.000144312
5.27992e-06
2.87657e-07
4.01501e-07
5.02664e-07
5.10199e-07
5.60911e-07
5.4542e-07
5.75445e-07
6.01883e-07
6.45442e-07
2.93733e-07
5.12597e-07
8.72446e-07
1.0298e-06
1.17993e-06
1.3337e-06
1.20272e-06
9.54041e-07
5.07325e-07
2.81837e-07
1.52405e-07
1.41402e-07
4.93389e-07
0.00100915
0.00101857
0.000994293
0.00096161
0.000920814
0.000885045
0.000867496
0.000853885
0.000843959
0.000851367
0.000891784
0.000936612
0.000969264
0.000960027
0.000335791
0.000426217
0.000484608
0.000500271
0.000480142
0.000459057
0.000458873
0.000455772
0.0004644
0.00044698
0.000445485
0.0004367
0.00043385
0.000413838
0.000392121
0.000366596
0.000349737
0.000335946
0.000329938
0.00032833
0.000327442
0.000332156
0.000346205
0.00038349
0.000421756
0.000475731
0.000497854
0.000524038
0.000442081
0.000355199
0.000409438
0.000386238
0.000310096
0.000274402
0.000267348
0.000268497
0.00026039
0.000239622
0.000200524
0.000168262
0.000128627
9.81538e-05
8.84151e-05
8.43948e-05
8.94817e-05
9.79763e-05
0.000108302
0.00010829
0.000109732
0.000105898
0.000108075
9.48045e-05
0.000101125
0.000106284
0.00011833
0.000133798
0.000149719
0.000206076
0.000289398
0.000337689
0.000150044
0.000152552
0.000157698
0.000159208
0.000150548
0.000135989
0.000122826
0.000114138
0.000103393
9.58612e-05
8.81797e-05
8.38324e-05
8.18138e-05
8.45586e-05
9.18827e-05
0.000113459
0.00012318
0.000138413
0.000143701
0.000150277
0.000153705
0.000155154
0.000159314
0.000157786
0.000160767
0.000159419
0.000163083
0.000157518
0.000135783
0.000117179
5.61763e-05
7.40418e-05
8.8873e-05
0.000100994
0.000113394
9.77152e-05
0.00010607
0.000110018
0.000122182
0.000122418
0.000134946
0.000130229
0.000133747
0.000138697
0.000138376
0.000141205
0.000135365
0.00013652
0.000128237
0.00012861
0.000111961
0.00010714
0.00011292
8.83591e-05
6.22945e-05
4.90778e-05
6.35811e-05
6.05956e-05
5.8884e-05
6.42584e-05
1.09728e-05
1.19491e-05
1.64673e-05
2.07093e-05
1.94597e-05
1.69076e-05
1.43463e-05
1.54247e-05
1.87916e-05
1.94896e-05
2.27974e-05
2.34882e-05
2.57837e-05
2.81956e-05
2.71399e-05
2.89734e-05
2.99133e-05
3.14976e-05
2.85545e-05
2.98543e-05
2.95503e-05
3.0037e-05
2.93829e-05
2.72847e-05
2.85831e-05
2.89746e-05
3.22205e-05
3.60025e-05
3.81204e-05
3.37745e-05
6.06375e-05
4.83658e-05
4.31485e-05
3.97275e-05
2.64015e-05
1.30031e-05
9.96715e-06
1.41608e-05
2.11946e-05
2.40579e-05
2.6842e-05
2.65681e-05
2.68517e-05
2.58236e-05
2.36283e-05
2.40701e-05
2.46816e-05
2.43489e-05
2.55778e-05
2.68378e-05
2.83064e-05
3.06127e-05
2.0317e-05
3.5427e-05
0.000104551
0.000186517
0.000188646
0.00018147
0.000177189
0.000175581
2.03487e-05
1.46639e-05
1.46427e-05
1.49754e-05
1.4857e-05
1.4027e-05
1.23289e-05
1.40649e-05
1.17522e-05
1.29786e-05
1.1058e-05
1.05961e-05
1.06454e-05
1.03614e-05
1.21531e-05
1.24386e-05
1.18972e-05
1.37007e-05
1.52536e-05
1.57056e-05
1.78716e-05
2.35273e-05
3.03065e-05
2.60675e-05
1.53101e-05
2.34075e-05
2.31882e-05
2.22592e-05
2.20342e-05
2.2586e-05
2.59293e-05
2.68337e-05
2.8245e-05
3.03502e-05
3.71053e-05
3.86655e-05
4.06566e-05
4.24319e-05
4.15722e-05
4.30019e-05
4.40361e-05
4.35926e-05
4.07746e-05
3.94787e-05
3.97358e-05
3.52531e-05
3.69266e-05
4.08694e-05
2.3153e-05
7.92415e-06
4.22721e-06
7.41e-06
8.16497e-06
8.76728e-06
9.27643e-06
1.02824e-05
8.03045e-06
9.84819e-06
5.09818e-06
9.06211e-06
3.3143e-05
1.95708e-05
1.93751e-05
2.22897e-05
1.8068e-05
2.98594e-05
3.57558e-05
3.61691e-05
3.72237e-05
3.51177e-05
3.66783e-05
3.48039e-05
3.61283e-05
3.61663e-05
3.46994e-05
3.5805e-05
3.30624e-05
3.29681e-05
2.82635e-05
1.84358e-05
1.63437e-05
8.79186e-06
7.95204e-06
6.98753e-06
9.67113e-06
9.65566e-06
9.78975e-06
7.6684e-06
7.18725e-06
6.47919e-06
4.9447e-06
5.27442e-06
4.14576e-06
4.93435e-06
5.89677e-06
6.50489e-06
7.49336e-06
8.06655e-06
9.75777e-06
1.04641e-05
1.01044e-05
1.1085e-05
1.1764e-05
1.10634e-05
1.19088e-05
1.01093e-05
1.09859e-05
8.69008e-06
8.25555e-06
5.08641e-06
2.52e-06
2.58572e-06
3.1384e-06
3.88e-06
4.67499e-06
5.31285e-06
5.53926e-06
5.4063e-06
4.40895e-06
3.2898e-06
3.43476e-06
4.97266e-06
6.27837e-06
7.37166e-06
7.56305e-06
6.36455e-06
4.23674e-06
5.01787e-06
2.62011e-06
2.95626e-06
3.69468e-06
2.93282e-06
2.24138e-06
6.0503e-06
6.1539e-06
5.75378e-06
5.41069e-06
5.02129e-06
2.52616e-06
2.75293e-06
4.64737e-06
4.4658e-06
4.73643e-06
6.32155e-06
6.42798e-06
6.52869e-06
6.62461e-06
6.67918e-06
6.72367e-06
5.96366e-06
1.25459e-06
1.04167e-06
7.74472e-07
9.46584e-07
7.16085e-06
0.000175493
1.25735e-05
4.20577e-07
1.85771e-07
3.38741e-07
4.15383e-07
4.84961e-07
3.69148e-07
4.542e-07
4.41686e-07
4.81111e-07
3.6566e-07
5.02096e-07
3.7901e-07
5.33628e-07
5.74813e-07
5.92728e-07
1.38784e-06
2.12879e-06
9.99015e-07
5.83056e-07
2.48923e-07
1.44778e-07
1.43949e-07
4.42877e-07
0.000989127
0.000989583
0.000903896
0.000840815
0.000812526
0.000813973
0.000809313
0.000791695
0.000786239
0.000784703
0.000798777
0.000860039
0.000943009
0.000960324
0.000340885
0.000439066
0.000505638
0.000495581
0.000456751
0.000439917
0.000442364
0.000436279
0.000436985
0.000425055
0.000422727
0.000411686
0.000420581
0.000416548
0.00038577
0.000369125
0.000364189
0.000381491
0.000396087
0.000402151
0.000396708
0.000369517
0.000347043
0.000339553
0.000359698
0.000406856
0.000479007
0.000513927
0.000493535
0.000404387
0.000408228
0.00037413
0.000313968
0.000306124
0.000325498
0.000328382
0.000283006
0.000218647
0.000175687
0.000144406
0.000102891
8.67982e-05
9.77047e-05
0.000131243
0.00016179
0.000200897
0.000222553
0.000235624
0.000237195
0.000226852
0.000207784
0.000191218
0.000162741
0.000133876
0.000119401
0.000121223
0.000145507
0.000171349
0.000248729
0.000326876
0.000149452
0.000157641
0.000160225
0.000152187
0.000129783
0.000109298
9.71668e-05
0.000100341
8.13305e-05
7.43997e-05
6.94021e-05
6.3986e-05
6.02177e-05
6.84951e-05
0.000104431
0.000131068
0.000153421
0.000174276
0.000184096
0.000189896
0.000193597
0.000191142
0.000188163
0.000183771
0.000173144
0.00016539
0.000164427
0.000169109
0.000146772
0.000129817
5.59005e-05
7.99629e-05
9.94549e-05
0.000107627
8.93321e-05
9.97227e-05
0.000116609
0.000116576
0.000118489
0.000124822
0.000136749
0.000135553
0.000145787
0.000148902
0.000150348
0.000159969
0.000166244
0.000166654
0.00016142
0.000145215
0.000128181
0.000102896
0.000108521
9.38992e-05
6.16895e-05
6.46135e-05
5.35552e-05
6.26152e-05
4.87704e-05
4.0077e-05
1.10641e-05
1.31823e-05
1.87406e-05
2.05824e-05
1.59974e-05
1.3244e-05
1.44494e-05
1.78962e-05
2.00215e-05
2.23e-05
2.54836e-05
2.4887e-05
2.78871e-05
2.97466e-05
3.04181e-05
3.20617e-05
3.13939e-05
3.2507e-05
3.45728e-05
3.16747e-05
3.30446e-05
3.30953e-05
3.34307e-05
2.98851e-05
2.96454e-05
2.96333e-05
2.99584e-05
3.11964e-05
3.6891e-05
3.35916e-05
5.20486e-05
4.27307e-05
3.84061e-05
1.68597e-05
1.67389e-05
1.93443e-05
1.8707e-05
3.46406e-05
3.89817e-05
4.25051e-05
4.15726e-05
3.95579e-05
3.85981e-05
3.52194e-05
3.3449e-05
3.16616e-05
3.09694e-05
2.90378e-05
2.82031e-05
2.82519e-05
2.8399e-05
2.97469e-05
1.44819e-05
2.47181e-05
5.42347e-05
0.000143317
0.000185351
0.000180811
0.000151708
0.000167483
9.92955e-06
1.31503e-05
1.52331e-05
1.52264e-05
1.40272e-05
1.25231e-05
1.35088e-05
1.2334e-05
1.18789e-05
1.15049e-05
8.5077e-06
8.91692e-06
7.8939e-06
8.84382e-06
9.28351e-06
1.05506e-05
1.22062e-05
1.10917e-05
1.33492e-05
1.5245e-05
1.57748e-05
1.93883e-05
1.18429e-05
2.78223e-05
2.24956e-05
2.58371e-05
1.35352e-05
2.3645e-05
2.112e-05
1.90718e-05
2.7701e-05
2.8409e-05
3.49351e-05
3.91668e-05
4.4433e-05
4.90122e-05
4.32468e-05
5.57202e-05
6.72241e-05
7.2638e-05
7.45771e-05
6.9184e-05
6.17996e-05
4.45949e-05
5.07806e-05
4.59389e-05
4.2865e-05
4.0091e-05
3.98651e-05
2.03239e-05
6.32203e-06
7.38378e-06
7.99993e-06
8.0762e-06
8.24331e-06
9.65014e-06
8.36976e-06
1.17124e-05
1.32935e-05
8.43834e-06
3.88184e-05
1.93039e-05
2.24108e-05
1.96942e-05
3.19619e-05
3.83954e-05
3.82454e-05
3.83622e-05
3.24131e-05
4.219e-05
4.95791e-05
4.84307e-05
5.53432e-05
5.19231e-05
5.11517e-05
3.99218e-05
3.26721e-05
3.96212e-05
3.50618e-05
2.81992e-05
1.60112e-05
1.14907e-05
6.71605e-06
8.5006e-06
8.07394e-06
8.6302e-06
9.21613e-06
7.53508e-06
7.06995e-06
7.04426e-06
4.91614e-06
4.02352e-06
5.35361e-06
6.71922e-06
8.29832e-06
9.67548e-06
1.18061e-05
9.13349e-06
1.20414e-05
1.46821e-05
1.67715e-05
1.94959e-05
1.57172e-05
1.60412e-05
8.82831e-06
1.44054e-05
1.16275e-05
1.12825e-05
8.46234e-06
4.51807e-06
2.8941e-06
2.21409e-06
2.56742e-06
3.56025e-06
4.6724e-06
5.8476e-06
5.80779e-06
5.79177e-06
5.2208e-06
3.61693e-06
2.98221e-06
4.63108e-06
6.74008e-06
7.09841e-06
6.50769e-06
4.97487e-06
3.88881e-06
2.61388e-06
4.90169e-06
6.44278e-06
5.95293e-06
4.70017e-06
6.09602e-06
3.98833e-06
4.34895e-06
5.74978e-06
5.06304e-06
2.5161e-06
2.66029e-06
5.0856e-06
5.23552e-06
5.83717e-06
7.02452e-06
6.73254e-06
6.56317e-06
6.25169e-06
5.88924e-06
5.86246e-06
6.22948e-06
5.80228e-06
2.88263e-06
2.05593e-06
1.37245e-06
1.88483e-06
2.66239e-05
9.13891e-06
5.35045e-07
2.80501e-07
2.80739e-07
4.29381e-07
4.0264e-07
5.10815e-07
4.45202e-07
4.92664e-07
5.57529e-07
4.86918e-07
5.10473e-07
4.46234e-07
3.95923e-07
3.47155e-07
3.14653e-07
4.63731e-07
6.89536e-07
1.84703e-06
1.99706e-06
6.02844e-07
2.15427e-07
1.49599e-07
1.63412e-07
1.28533e-06
0.000977637
0.000886171
0.000781259
0.000781145
0.00084091
0.000866867
0.000872912
0.000850681
0.000806069
0.000778236
0.000767517
0.000808876
0.000913884
0.00095632
0.000343788
0.000461366
0.000526138
0.000488247
0.00044055
0.000426439
0.000420932
0.000406148
0.000393618
0.000385954
0.000407551
0.000435462
0.000444499
0.000442493
0.000416497
0.000424545
0.000466804
0.000516602
0.000538481
0.000545046
0.000548502
0.000523338
0.00047495
0.000420713
0.000381815
0.000392118
0.000436086
0.000502156
0.000514866
0.000418883
0.00040621
0.000375381
0.0003335
0.000350469
0.000376908
0.000345829
0.000239938
0.000157298
0.000128881
0.000123385
9.48389e-05
0.000100246
0.000138935
0.000210118
0.000268088
0.000305104
0.000324111
0.000332223
0.000328273
0.000323356
0.000312101
0.000285999
0.000254229
0.000209478
0.000170724
0.000143267
0.000139374
0.000158688
0.000219229
0.000316041
0.000148716
0.000160151
0.000159229
0.000139546
0.000105785
8.65094e-05
9.12448e-05
8.3879e-05
8.6339e-05
8.32921e-05
7.49998e-05
6.13525e-05
8.17162e-05
7.78911e-05
0.000117616
0.000156398
0.000190156
0.000205256
0.000213958
0.000223411
0.00022768
0.000228475
0.000223496
0.00021195
0.000199215
0.000181684
0.000169438
0.000171384
0.000160278
0.000130908
7.53567e-05
9.48312e-05
0.000102763
7.68011e-05
9.88152e-05
9.97398e-05
9.70803e-05
9.96621e-05
0.000109674
0.000121766
0.000129997
0.000152041
0.000165047
0.000172355
0.000179566
0.00018395
0.000190357
0.000195307
0.00018277
0.000168456
0.000147932
0.000116455
9.93866e-05
8.60437e-05
6.59314e-05
8.64981e-05
0.000106425
6.94455e-05
5.32681e-05
3.57336e-05
1.1138e-05
1.48002e-05
2.05309e-05
1.75498e-05
1.22226e-05
1.40981e-05
1.55611e-05
1.91789e-05
2.0765e-05
2.08858e-05
2.23744e-05
2.53767e-05
2.54085e-05
2.8903e-05
2.89365e-05
2.97133e-05
3.26081e-05
3.33525e-05
3.52161e-05
3.26233e-05
3.2553e-05
3.77428e-05
3.76839e-05
3.54562e-05
3.03159e-05
2.90477e-05
2.97796e-05
3.13612e-05
3.36804e-05
3.61686e-05
3.82005e-05
3.6353e-05
3.32057e-05
1.12444e-05
1.5141e-05
1.23055e-05
3.8678e-05
2.64115e-05
4.5352e-05
3.53695e-05
2.81442e-05
3.94991e-05
3.82501e-05
3.33374e-05
3.31156e-05
3.20009e-05
3.21194e-05
3.09604e-05
2.93961e-05
2.81177e-05
2.70966e-05
3.01466e-05
3.10531e-05
2.1516e-05
3.36226e-05
8.62695e-05
0.00017363
0.000179347
0.000129557
0.000143691
1.09792e-05
1.60505e-05
1.52599e-05
1.38245e-05
1.23068e-05
1.04498e-05
1.1291e-05
9.68584e-06
6.64253e-06
7.98893e-06
7.00274e-06
5.73998e-06
5.77238e-06
5.43048e-06
7.16806e-06
8.71658e-06
9.65528e-06
9.44763e-06
1.07424e-05
1.36938e-05
1.56602e-05
1.70494e-05
2.16173e-05
2.57267e-05
2.80738e-05
3.30433e-05
1.56114e-05
2.50908e-05
2.33574e-05
1.83183e-05
2.82839e-05
2.93384e-05
3.8253e-05
4.53212e-05
3.97519e-05
6.80715e-05
9.21336e-05
0.000109015
0.000121472
0.000131027
0.000134161
0.000129624
0.000121041
9.51078e-05
6.78712e-05
4.26797e-05
4.79244e-05
4.19543e-05
4.30654e-05
3.11955e-05
5.63842e-06
7.18459e-06
8.26094e-06
8.06706e-06
8.25016e-06
4.32802e-06
1.30106e-05
1.89217e-05
2.02351e-05
1.40077e-05
4.43149e-05
2.27246e-05
1.86749e-05
3.28019e-05
3.45956e-05
3.79616e-05
4.4064e-05
4.14979e-05
5.87047e-05
7.45512e-05
8.49781e-05
8.98762e-05
9.08238e-05
9.23667e-05
8.6603e-05
7.90323e-05
6.96665e-05
4.71381e-05
4.08847e-05
3.52731e-05
2.38625e-05
1.68821e-05
1.02224e-05
8.95843e-06
7.79471e-06
8.66268e-06
9.6718e-06
9.48206e-06
6.172e-06
6.22896e-06
5.43914e-06
5.30035e-06
5.3599e-06
9.56424e-06
1.15176e-05
1.23007e-05
1.77622e-05
2.42855e-05
2.72101e-05
2.9829e-05
2.5021e-05
2.03074e-05
3.36501e-05
3.16555e-05
2.86643e-05
1.84242e-05
8.37313e-06
1.26451e-05
1.14783e-05
8.99902e-06
4.43469e-06
2.1178e-06
2.19188e-06
3.51837e-06
4.9268e-06
5.71626e-06
5.4561e-06
5.35237e-06
5.04405e-06
3.82364e-06
1.01422e-06
5.10421e-06
6.20869e-06
7.62036e-06
5.08142e-06
4.29912e-06
4.53421e-06
4.98449e-06
8.39556e-06
9.27666e-06
8.90618e-06
7.76544e-06
7.6367e-06
6.84403e-06
5.86025e-06
2.69304e-06
3.0443e-06
2.59201e-06
5.18232e-06
6.21654e-06
7.73283e-06
9.55276e-06
9.56541e-06
9.09463e-06
7.99077e-06
6.70594e-06
5.60184e-06
5.31689e-06
5.72446e-06
5.53577e-06
3.32123e-06
3.30735e-06
6.00437e-06
1.18547e-05
8.67468e-06
6.84228e-07
1.8962e-07
2.50969e-07
4.03219e-07
4.41607e-07
4.91345e-07
6.66682e-07
8.42344e-07
9.13443e-07
8.56685e-07
7.45105e-07
5.89709e-07
4.3387e-07
4.96993e-07
3.89983e-07
3.30463e-07
2.49669e-07
3.86651e-07
8.35052e-07
2.43255e-06
1.17762e-06
3.41385e-07
1.97796e-07
2.58961e-07
6.89826e-06
0.000906492
0.000742165
0.00076162
0.000880703
0.000942639
0.000966694
0.000986551
0.000986145
0.000919486
0.000827082
0.000772626
0.000765494
0.000877575
0.000951416
0.000350823
0.000469413
0.000528698
0.000471638
0.000418557
0.000409048
0.000405776
0.000389158
0.000385599
0.000411599
0.000474735
0.000529092
0.000496888
0.000451433
0.000446486
0.000495954
0.000540652
0.000591285
0.000623468
0.000638068
0.000637409
0.000622771
0.000586654
0.000526858
0.00044751
0.000406109
0.000422799
0.000489657
0.00052369
0.000435835
0.000404776
0.000383988
0.000351607
0.000387957
0.00041089
0.000329083
0.000174648
9.17733e-05
9.01195e-05
0.000111655
9.55242e-05
0.000123806
0.00020112
0.000284261
0.000339606
0.000358157
0.00036434
0.000356784
0.000356196
0.000350508
0.000350163
0.000338188
0.000318054
0.00028124
0.000228945
0.0001859
0.000158457
0.000158406
0.00020108
0.000301233
0.000148749
0.000161086
0.000157615
0.000125
8.40874e-05
7.51269e-05
8.16772e-05
9.84044e-05
0.000114158
0.000109237
9.77199e-05
7.11273e-05
8.41882e-05
7.57947e-05
0.000128573
0.00017908
0.000206559
0.000218856
0.000235244
0.000239879
0.000246852
0.000248292
0.000242629
0.000236114
0.000217078
0.000197005
0.000183045
0.000173691
0.000165298
0.000137713
9.49858e-05
9.95261e-05
9.98337e-05
7.97318e-05
8.05094e-05
7.76731e-05
7.75057e-05
8.95264e-05
0.000112056
0.000142316
0.00017596
0.000200018
0.000209632
0.000219499
0.000222641
0.000224701
0.000223966
0.000220601
0.000214121
0.000194833
0.000166214
0.000132078
0.000105299
8.68567e-05
6.93731e-05
9.16783e-05
0.0001215
0.000111465
6.79012e-05
3.75383e-05
1.13758e-05
1.54879e-05
1.97954e-05
1.40828e-05
1.14863e-05
1.38915e-05
1.54257e-05
1.70757e-05
1.8842e-05
1.95142e-05
2.18852e-05
2.25219e-05
2.65428e-05
2.77e-05
2.96508e-05
2.97109e-05
3.2311e-05
3.09674e-05
3.06868e-05
3.16664e-05
3.35145e-05
3.72141e-05
3.71449e-05
3.46191e-05
3.47078e-05
3.16255e-05
2.72053e-05
2.99994e-05
3.12479e-05
3.46715e-05
2.93811e-05
3.09126e-05
1.6857e-05
1.02968e-05
1.87657e-05
3.13237e-05
2.5958e-05
4.24969e-05
4.60132e-05
2.81094e-05
4.24642e-05
3.35376e-05
3.08585e-05
2.61075e-05
2.54123e-05
2.70965e-05
2.85411e-05
2.93882e-05
3.10001e-05
3.11561e-05
2.92372e-05
3.07644e-05
3.20652e-05
2.07537e-05
2.88487e-05
5.5496e-05
0.000114671
0.000154068
0.000116432
0.000116803
1.40178e-05
1.55159e-05
1.40298e-05
1.2521e-05
1.09209e-05
1.20686e-05
9.65934e-06
7.69034e-06
7.14169e-06
9.08947e-06
7.79193e-06
7.42821e-06
7.70636e-06
7.87934e-06
8.11483e-06
5.4097e-06
8.37844e-06
9.57271e-06
9.41466e-06
1.1259e-05
1.41388e-05
1.67899e-05
1.90424e-05
2.44446e-05
2.78061e-05
2.16367e-05
2.50643e-05
2.43613e-05
2.35334e-05
2.01535e-05
2.77587e-05
3.05674e-05
4.00509e-05
5.33247e-05
7.11861e-05
0.000103426
0.000127471
0.000145588
0.000159984
0.00016907
0.000177645
0.000179481
0.00016653
0.000151616
0.000123235
8.60946e-05
4.45489e-05
4.9611e-05
4.46882e-05
4.05043e-05
1.69483e-05
7.34918e-06
8.18266e-06
8.16263e-06
9.05553e-06
1.19633e-05
1.90744e-05
2.29611e-05
2.19621e-05
1.66357e-05
4.19355e-05
2.44294e-05
2.62963e-05
3.61243e-05
3.98339e-05
4.11611e-05
3.98808e-05
6.24828e-05
8.97851e-05
0.000104188
0.000120317
0.000121942
0.000129405
0.000122514
0.000119117
0.000108657
9.55203e-05
7.17514e-05
4.68596e-05
3.7992e-05
2.86173e-05
1.67002e-05
1.44584e-05
9.54008e-06
9.48946e-06
9.84754e-06
1.10917e-05
6.85373e-06
4.76472e-06
5.32606e-06
5.31613e-06
5.45494e-06
1.01297e-05
4.46989e-06
1.67662e-05
2.25545e-05
1.89803e-05
4.51483e-05
7.11098e-05
8.63958e-05
9.19396e-05
9.28146e-05
8.62919e-05
7.1323e-05
4.02494e-05
3.60244e-05
2.03486e-05
9.65152e-06
1.25031e-05
1.09056e-05
6.29928e-06
2.65649e-06
2.39687e-06
3.9149e-06
5.73167e-06
5.56107e-06
3.5891e-06
4.90745e-06
5.20008e-06
4.25204e-06
9.69123e-07
4.16521e-06
6.64697e-06
6.52996e-06
3.75376e-06
7.98001e-06
5.7997e-06
7.07998e-06
7.74875e-06
9.55126e-06
9.58721e-06
9.56843e-06
8.59969e-06
7.02743e-06
5.24419e-06
3.23389e-06
3.15865e-06
4.49343e-06
5.85783e-06
8.11573e-06
2.71991e-06
1.36725e-05
1.75073e-05
1.57527e-05
7.59981e-06
7.80664e-06
5.4281e-06
4.95532e-06
5.39114e-06
5.16644e-06
3.41911e-06
4.47146e-06
1.605e-05
8.37128e-06
1.31681e-06
2.27881e-07
2.9765e-07
3.54833e-07
4.1109e-07
5.36116e-07
8.23968e-07
1.15346e-06
1.07932e-06
1.46178e-06
1.3064e-06
1.33573e-06
9.87026e-07
6.91152e-07
3.80232e-07
4.22076e-07
4.93237e-07
4.29395e-07
1.63778e-07
3.3212e-07
1.64826e-06
1.0919e-06
9.03938e-07
5.07109e-07
1.12577e-06
6.97065e-05
0.000797022
0.000712222
0.000843681
0.000965592
0.000976718
0.000976826
0.00100132
0.00103786
0.00102186
0.000897213
0.000793985
0.000771358
0.00086521
0.000946469
0.000353678
0.000486714
0.000538047
0.000469145
0.000425929
0.000399143
0.000385795
0.00038143
0.000418493
0.000515651
0.000621777
0.000624119
0.000533329
0.000453702
0.000487346
0.000538001
0.000601125
0.000647772
0.000687682
0.000702601
0.000717023
0.000710154
0.000673452
0.000613677
0.000526626
0.00044828
0.000437093
0.000487981
0.000526395
0.000444333
0.000400171
0.000397342
0.000371738
0.000412729
0.000424836
0.00030848
0.000120931
8.45517e-05
6.18876e-05
0.000100998
9.93623e-05
0.000148951
0.000257512
0.000337113
0.00036313
0.000369234
0.000352655
0.000349806
0.000338915
0.000341302
0.000343998
0.000352966
0.000342907
0.000319073
0.000280264
0.000226136
0.000185783
0.000166165
0.000194579
0.00028964
0.000146806
0.000159939
0.000154854
0.000117748
7.85305e-05
8.07502e-05
7.33457e-05
0.00010633
0.000126355
0.000135826
0.000128537
9.4948e-05
5.85558e-05
6.9916e-05
0.000140544
0.000185529
0.000207641
0.000227656
0.000246046
0.000254009
0.000263283
0.000263743
0.000263034
0.000247971
0.000236067
0.000204367
0.000191518
0.000175502
0.000167451
0.000140358
9.52236e-05
0.000100125
0.000102095
9.53762e-05
7.42914e-05
7.43952e-05
6.5145e-05
8.70015e-05
0.000131905
0.0001795
0.000221924
0.000244489
0.000252722
0.000262851
0.000262249
0.000260983
0.000253483
0.000250902
0.000232589
0.00021971
0.000187755
0.000142461
9.78253e-05
8.92456e-05
7.22545e-05
8.30411e-05
0.000115275
0.000129822
8.27656e-05
5.0599e-05
1.38734e-05
1.62113e-05
1.83173e-05
1.22895e-05
1.05304e-05
1.35224e-05
1.53768e-05
1.52434e-05
1.76581e-05
1.72932e-05
1.85959e-05
2.20368e-05
2.3835e-05
2.64654e-05
2.68642e-05
2.95859e-05
3.12795e-05
3.19296e-05
3.47757e-05
3.52941e-05
3.5067e-05
3.56182e-05
3.56582e-05
3.567e-05
3.32048e-05
3.00661e-05
2.8015e-05
2.93101e-05
3.23355e-05
3.40885e-05
4.39595e-05
2.04858e-05
9.91122e-06
1.08348e-05
2.18348e-05
3.40167e-05
3.50604e-05
5.03231e-05
3.62628e-05
4.29026e-05
4.09029e-05
3.08347e-05
2.52495e-05
1.74659e-05
1.58526e-05
1.42703e-05
2.07657e-05
2.32066e-05
2.91193e-05
2.91821e-05
3.01693e-05
3.07729e-05
3.25144e-05
2.21371e-05
3.08697e-05
4.26068e-05
8.1741e-05
0.000111238
0.000104726
0.000100929
1.58544e-05
1.37505e-05
1.30717e-05
1.14408e-05
1.29805e-05
1.07079e-05
8.45416e-06
9.54119e-06
8.7262e-06
7.69762e-06
6.48556e-06
6.06826e-06
6.68382e-06
6.46215e-06
6.601e-06
7.45411e-06
8.9896e-06
7.63548e-06
1.05715e-05
9.97216e-06
1.22482e-05
1.56503e-05
1.60487e-05
2.21938e-05
1.16218e-05
2.55021e-05
2.25589e-05
2.5517e-05
2.62596e-05
2.2498e-05
2.9017e-05
3.50956e-05
4.59553e-05
5.86029e-05
9.44628e-05
0.000123178
0.000147877
0.000169471
0.000194245
0.000210132
0.000215864
0.000213076
0.000208641
0.000188288
0.000162552
0.000123593
8.12925e-05
5.44515e-05
5.06339e-05
4.44814e-05
2.36017e-05
9.05342e-06
7.84897e-06
8.2912e-06
8.59221e-06
1.69551e-05
1.97897e-05
2.22522e-05
2.56103e-05
2.06051e-05
4.24433e-05
2.55699e-05
3.0572e-05
3.68889e-05
4.14655e-05
3.32212e-05
6.0354e-05
9.18874e-05
0.000118947
0.000130045
0.00013791
0.000145986
0.000150944
0.000146583
0.000140861
0.000129243
0.000115713
9.53872e-05
6.54513e-05
3.6374e-05
3.62144e-05
2.34185e-05
1.17904e-05
1.41724e-05
1.12772e-05
1.25254e-05
1.04541e-05
5.05573e-06
6.8589e-06
7.34373e-06
5.1922e-06
8.56225e-06
5.70639e-06
1.72544e-05
2.42347e-05
2.94686e-05
6.81709e-05
0.00010251
0.000133872
0.000158953
0.000170716
0.000173111
0.000155247
0.000128552
9.62531e-05
6.05136e-05
3.51411e-05
1.82719e-05
1.51341e-05
1.19392e-05
5.22253e-06
3.79591e-06
3.06278e-06
4.40031e-06
5.81269e-06
2.13262e-06
3.40983e-06
5.11845e-06
4.95495e-06
4.47261e-06
3.94184e-06
4.50821e-06
6.90786e-06
5.02754e-06
4.91308e-06
8.62488e-06
6.30894e-06
9.10293e-06
1.096e-05
1.26383e-05
1.56915e-05
1.09592e-05
9.11055e-06
6.59955e-06
6.97553e-06
4.22604e-06
3.01662e-06
4.51904e-06
6.88239e-06
9.16037e-06
1.20428e-05
2.18605e-05
2.63956e-05
2.48158e-05
1.5174e-05
8.58444e-06
5.51954e-06
4.80611e-06
5.13613e-06
4.78694e-06
3.27285e-06
4.03266e-06
7.50614e-06
2.41959e-06
3.65813e-07
2.49125e-07
3.16398e-07
3.32275e-07
6.25857e-07
8.64722e-07
8.58621e-07
1.94717e-06
2.83516e-06
2.89729e-06
2.92612e-06
2.3997e-06
1.2475e-06
1.00861e-06
4.80975e-07
4.20599e-07
3.00665e-07
4.27532e-07
3.93167e-07
3.36531e-07
1.02033e-06
4.46095e-06
2.25498e-06
1.88137e-06
7.73831e-06
0.000184822
0.000753373
0.000739489
0.000940884
0.000976717
0.000967603
0.000928574
0.000948724
0.00104397
0.00105728
0.000937635
0.000815958
0.000775683
0.000856567
0.000932322
0.000355793
0.000488604
0.000541788
0.000472653
0.000416617
0.000393761
0.000384981
0.000407268
0.000514162
0.000667431
0.000718535
0.00067092
0.000528894
0.000457797
0.000507171
0.000579477
0.000631092
0.000693432
0.000736297
0.000763624
0.000772019
0.00076105
0.000736545
0.000682027
0.000590857
0.000497406
0.000459079
0.000497033
0.000528167
0.000445932
0.000396781
0.000409249
0.000389131
0.000418349
0.000437821
0.000312284
9.91124e-05
7.59407e-05
8.18174e-05
9.29727e-05
0.000105013
0.000172062
0.00028906
0.000358976
0.000364074
0.000357206
0.000341871
0.000335704
0.000332627
0.000328032
0.000336056
0.000341819
0.000351521
0.000338453
0.000308401
0.000262324
0.00021443
0.000183058
0.000193077
0.000284789
0.000146988
0.000155462
0.00015726
0.000120674
6.79696e-05
7.50492e-05
7.85148e-05
9.26128e-05
0.000128652
0.000144603
0.00014354
0.000113678
6.30216e-05
6.33637e-05
0.000135515
0.000185081
0.000206202
0.000229949
0.000251684
0.000260757
0.000269709
0.000268804
0.000266844
0.000259512
0.00024472
0.000214843
0.000196443
0.000177199
0.000167036
0.000142113
9.76537e-05
7.84089e-05
9.39428e-05
8.83389e-05
9.04184e-05
8.87436e-05
9.37136e-05
9.17284e-05
0.000158231
0.000211649
0.00024938
0.000265581
0.000270944
0.000278102
0.000271269
0.00027174
0.000266849
0.000264843
0.000258732
0.000228221
0.000201915
0.000157172
0.000103063
9.04306e-05
7.31492e-05
8.4899e-05
0.000104135
0.000131325
0.000114668
6.92938e-05
1.41493e-05
1.62822e-05
1.73356e-05
1.27559e-05
1.01743e-05
1.18229e-05
1.41335e-05
1.48253e-05
1.62152e-05
1.65784e-05
1.70625e-05
2.01153e-05
2.29883e-05
2.51648e-05
2.70298e-05
2.85129e-05
2.85684e-05
2.86988e-05
3.14863e-05
3.47254e-05
3.4863e-05
3.58608e-05
3.72826e-05
3.77499e-05
3.38124e-05
3.1952e-05
2.8801e-05
2.86797e-05
3.16119e-05
3.28449e-05
4.10036e-05
1.94762e-05
1.10389e-05
1.07648e-05
2.0513e-05
3.21905e-05
3.14446e-05
5.35242e-05
3.8611e-05
4.65391e-05
3.83617e-05
2.6308e-05
2.19072e-05
1.14446e-05
2.21194e-05
2.19575e-05
1.31842e-05
2.31697e-05
2.42477e-05
2.9984e-05
3.18245e-05
3.13442e-05
3.36716e-05
2.73713e-05
3.31636e-05
4.03551e-05
6.33827e-05
8.3523e-05
8.82532e-05
7.22855e-05
1.355e-05
1.17949e-05
1.23231e-05
1.37909e-05
1.19571e-05
9.74603e-06
7.61226e-06
8.73787e-06
8.02363e-06
7.13324e-06
6.20799e-06
5.93706e-06
5.31263e-06
5.63221e-06