/*--------------------------------*- C++ -*----------------------------------*\
| =========                 |                                                 |
| \\      /  F ield         | OpenFOAM: The Open Source CFD Toolbox           |
|  \\    /   O peration     | Version:  2.1.1                                 |
|   \\  /    A nd           | Web:      www.OpenFOAM.org                      |
|    \\/     M anipulation  |                                                 |
\*---------------------------------------------------------------------------*/
FoamFile
{
    version     2.0;
    format      ascii;
    class       volScalarField;
    location    "0.006550000";
    object      rho;
}
// * * * * * * * * * * * * * * * * * * * * * * * * * * * * * * * * * * * * * //

dimensions      [1 -3 0 0 0 0 0];

internalField   nonuniform List<scalar> 
12384
(
0.841504
0.84688
0.847467
0.845165
0.842233
0.837966
0.836376
0.830347
0.829168
0.824858
0.824354
0.822766
0.821789
0.811324
0.908148
0.892659
0.886592
0.884439
0.886068
0.890621
0.893886
0.893913
0.893237
0.892474
0.894885
0.889157
0.891057
0.889838
0.887054
0.884385
0.881735
0.878237
0.876327
0.875641
0.878036
0.881221
0.883631
0.887519
0.895821
0.900815
0.90708
0.91462
0.961378
0.993158
0.875001
0.858516
0.853946
0.853798
0.854219
0.853995
0.853627
0.853786
0.852579
0.851931
0.850277
0.848574
0.845631
0.84407
0.840268
0.838312
0.8336
0.831241
0.830557
0.827153
0.829412
0.828355
0.8336
0.835278
0.83967
0.842686
0.845305
0.84528
0.848114
0.845994
0.857572
0.860467
0.862188
0.86225
0.861308
0.859693
0.858928
0.860103
0.860677
0.861134
0.862621
0.86402
0.864582
0.864093
0.861792
0.857511
0.8515
0.843335
0.83681
0.82924
0.829296
0.825087
0.831848
0.836705
0.841803
0.84654
0.846516
0.84804
0.844081
0.847574
0.87101
0.872245
0.87584
0.878414
0.881146
0.881923
0.879968
0.875795
0.869241
0.859655
0.850752
0.844988
0.83258
0.829822
0.824692
0.827495
0.831853
0.839822
0.845592
0.845585
0.844405
0.855042
0.85346
0.848029
0.845896
0.839966
0.835966
0.837818
0.835531
0.83812
0.811261
0.811882
0.819837
0.82223
0.829362
0.828468
0.835235
0.831975
0.839881
0.837114
0.844526
0.843611
0.848234
0.847846
0.850266
0.849996
0.852687
0.849557
0.859029
0.8533
0.868745
0.869339
0.878517
0.883927
0.888313
0.889545
0.887232
0.882271
0.882914
0.881076
0.930924
0.930747
0.922883
0.911868
0.90204
0.900383
0.885088
0.886108
0.868107
0.871679
0.849056
0.855385
0.83155
0.840187
0.821247
0.829949
0.823743
0.828995
0.830493
0.836709
0.839876
0.841649
0.840811
0.849548
0.908624
0.922497
0.921632
0.919256
0.91693
0.917267
0.892154
0.877414
0.863394
0.852754
0.843783
0.837585
0.82703
0.825075
0.807173
0.811766
0.793022
0.799737
0.790769
0.798505
0.795041
0.808188
0.80585
0.817094
0.815026
0.820049
0.825171
0.839672
0.84313
0.846414
0.844976
0.849084
0.850954
0.853926
0.854961
0.855978
0.792791
0.790041
0.790849
0.791134
0.790622
0.78847
0.784212
0.784272
0.781652
0.782886
0.778546
0.791653
0.787437
0.802533
0.799628
0.80901
0.806756
0.813305
0.804825
0.80687
0.805209
0.813676
0.811587
0.819333
0.818479
0.823112
0.82439
0.826912
0.827179
0.827398
0.835352
0.822349
0.818061
0.815722
0.816621
0.81657
0.811691
0.81227
0.807951
0.790511
0.799646
0.782604
0.790655
0.789793
0.792573
0.798981
0.803151
0.805257
0.804826
0.802694
0.802848
0.801367
0.798044
0.796325
0.797089
0.794193
0.793204
0.793276
0.791446
0.790645
0.794074
0.790041
0.787644
0.785761
0.784137
0.782916
0.782149
0.7816
0.783057
0.77962
0.791624
0.785624
0.805177
0.801316
0.815685
0.813995
0.820384
0.820134
0.821485
0.820831
0.819657
0.818232
0.819066
0.819018
0.820062
0.821345
0.822045
0.822254
0.821735
0.823467
0.85675
0.862754
0.862262
0.850759
0.840244
0.840226
0.833878
0.826931
0.825226
0.819331
0.815656
0.817031
0.816806
0.817887
0.819386
0.820621
0.820922
0.821701
0.822248
0.82149
0.821426
0.823735
0.821988
0.82302
0.824706
0.827076
0.826978
0.827688
0.827545
0.825084
0.778332
0.778223
0.779413
0.790146
0.805942
0.879819
0.922613
0.797061
0.732898
0.739634
0.745182
0.744603
0.748731
0.744813
0.752591
0.749519
0.758948
0.759085
0.766368
0.770395
0.775187
0.779985
0.782883
0.781109
0.774352
0.761842
0.75166
0.741298
0.738657
0.764931
0.869533
0.866443
0.861936
0.859962
0.86028
0.855167
0.85158
0.842171
0.835189
0.825134
0.820509
0.817565
0.819637
0.812173
0.908096
0.890506
0.884945
0.887086
0.891845
0.895043
0.895752
0.88958
0.888901
0.883341
0.883196
0.879469
0.878436
0.871251
0.867292
0.860417
0.85759
0.855378
0.854004
0.853441
0.852595
0.852231
0.85673
0.861433
0.871195
0.885044
0.897377
0.907991
0.934
0.967045
0.873702
0.856903
0.853393
0.854096
0.854298
0.854487
0.853503
0.851056
0.849779
0.846655
0.843841
0.840232
0.839485
0.836328
0.83483
0.830973
0.830969
0.824344
0.824294
0.823544
0.821033
0.824612
0.824587
0.828441
0.834806
0.838882
0.842665
0.84569
0.847205
0.848524
0.858347
0.862073
0.863191
0.862451
0.860228
0.857301
0.854994
0.855867
0.854483
0.855538
0.85536
0.855837
0.856012
0.855386
0.853673
0.85057
0.845652
0.838798
0.833663
0.825314
0.824423
0.823258
0.826525
0.832435
0.839046
0.843589
0.84802
0.848672
0.849118
0.846648
0.869342
0.86944
0.872921
0.876511
0.880178
0.882055
0.882439
0.879257
0.872445
0.865873
0.859826
0.847847
0.836756
0.838434
0.832967
0.833199
0.835897
0.839434
0.845116
0.847797
0.846188
0.848832
0.85353
0.845235
0.839499
0.8358
0.828603
0.828521
0.828073
0.826147
0.810643
0.812562
0.82112
0.826141
0.83075
0.828561
0.83012
0.828216
0.832689
0.833893
0.837487
0.840755
0.841773
0.844787
0.843215
0.844857
0.84286
0.845867
0.845086
0.849685
0.852686
0.859777
0.868894
0.875871
0.882897
0.887915
0.888789
0.886592
0.883496
0.881732
0.929652
0.922485
0.904724
0.903251
0.890597
0.884438
0.871893
0.874234
0.862317
0.862373
0.849452
0.844512
0.833773
0.828369
0.82497
0.816289
0.821284
0.820711
0.826133
0.831577
0.836
0.839919
0.842271
0.844533
0.864591
0.915247
0.924003
0.909427
0.901326
0.907916
0.865453
0.849337
0.839799
0.834893
0.830515
0.82669
0.817333
0.814767
0.800949
0.799541
0.789437
0.787184
0.788295
0.785828
0.794145
0.795017
0.802189
0.81039
0.812526
0.820367
0.821342
0.834238
0.84197
0.845236
0.843717
0.850418
0.853367
0.853696
0.850729
0.847278
0.790486
0.790658
0.792051
0.792576
0.79159
0.788414
0.786679
0.784605
0.780235
0.781213
0.784093
0.786621
0.791177
0.797799
0.800705
0.809255
0.807946
0.815002
0.809516
0.809028
0.806346
0.814931
0.814344
0.819533
0.818406
0.822327
0.822561
0.825585
0.828358
0.830546
0.838414
0.823374
0.817803
0.817866
0.821627
0.822636
0.822881
0.812198
0.816818
0.799455
0.804708
0.793392
0.79483
0.795741
0.797546
0.802972
0.80589
0.808614
0.808993
0.805796
0.802966
0.802198
0.800279
0.79941
0.799383
0.798194
0.7961
0.79199
0.788656
0.788485
0.796508
0.792519
0.787471
0.784568
0.78444
0.782525
0.784229
0.783536
0.782335
0.787092
0.789241
0.794475
0.803232
0.805668
0.819181
0.817692
0.822977
0.821666
0.822349
0.820769
0.818078
0.816313
0.816645
0.817874
0.820505
0.822476
0.823736
0.82342
0.820913
0.821125
0.843117
0.850427
0.848859
0.843587
0.838863
0.832611
0.824309
0.817357
0.809983
0.805599
0.808175
0.805646
0.807711
0.810189
0.81216
0.813525
0.814729
0.814433
0.813782
0.816663
0.815983
0.814826
0.817331
0.818788
0.820124
0.821471
0.823562
0.825392
0.826459
0.825189
0.766157
0.76303
0.758817
0.763844
0.794454
0.873925
0.806834
0.750696
0.733899
0.738168
0.736625
0.736049
0.731967
0.735369
0.734441
0.737983
0.744119
0.745111
0.751172
0.754402
0.759748
0.768107
0.782033
0.788857
0.780513
0.762968
0.747081
0.73884
0.738512
0.772328
0.87163
0.869973
0.879917
0.883709
0.880622
0.874482
0.868206
0.861599
0.856126
0.841339
0.828902
0.817244
0.817195
0.81244
0.909274
0.88591
0.880352
0.887916
0.897713
0.897199
0.893302
0.888249
0.891433
0.890539
0.894563
0.889373
0.887247
0.875649
0.86644
0.860506
0.857159
0.855891
0.855121
0.85393
0.854003
0.851662
0.850922
0.853274
0.857892
0.868172
0.88353
0.897712
0.917478
0.948979
0.871609
0.854875
0.852838
0.853832
0.855534
0.854804
0.852719
0.846806
0.843796
0.842534
0.839622
0.837991
0.837067
0.836921
0.836265
0.834412
0.831746
0.82815
0.828284
0.823838
0.824487
0.823419
0.826137
0.82451
0.828913
0.834311
0.839359
0.843255
0.845442
0.848334
0.857849
0.862377
0.863141
0.860969
0.856455
0.853256
0.851749
0.850754
0.850317
0.850393
0.852229
0.85244
0.851692
0.850953
0.85059
0.848681
0.845234
0.838656
0.834865
0.825937
0.825512
0.822897
0.824454
0.832413
0.833752
0.843508
0.843982
0.85009
0.848857
0.849148
0.866701
0.868199
0.872956
0.877275
0.880786
0.883361
0.882185
0.876308
0.870503
0.864878
0.853493
0.841143
0.840513
0.835079
0.830094
0.832626
0.836344
0.839826
0.843074
0.847019
0.845894
0.843928
0.846912
0.846868
0.837919
0.837721
0.832095
0.82891
0.8249
0.819188
0.810275
0.812616
0.824323
0.826913
0.829255
0.821927
0.826103
0.824771
0.831849
0.83183
0.839184
0.838384
0.842708
0.841714
0.843482
0.839697
0.838715
0.833666
0.837787
0.83771
0.845079
0.848182
0.860317
0.866267
0.874971
0.881439
0.88611
0.886872
0.885031
0.880924
0.926155
0.909173
0.90325
0.895893
0.879082
0.878803
0.873543
0.875991
0.871434
0.862319
0.858337
0.839212
0.84272
0.819843
0.827639
0.814524
0.817789
0.817942
0.82088
0.827896
0.83175
0.837536
0.840492
0.842533
0.850915
0.882281
0.920204
0.904594
0.878028
0.888447
0.84067
0.835661
0.83357
0.831617
0.826968
0.822938
0.811498
0.809287
0.79205
0.794781
0.777516
0.783465
0.776763
0.782191
0.782925
0.788404
0.795935
0.801412
0.809918
0.813031
0.818891
0.824935
0.836602
0.844218
0.845933
0.852596
0.855437
0.855716
0.850802
0.843946
0.792431
0.793334
0.792859
0.792869
0.790902
0.78769
0.786024
0.783195
0.783318
0.785372
0.7825
0.786791
0.790648
0.792963
0.800247
0.804712
0.807435
0.81369
0.812036
0.8122
0.807
0.814451
0.813616
0.819665
0.818952
0.821314
0.819817
0.819526
0.823029
0.829073
0.839299
0.824853
0.81859
0.82363
0.825312
0.828264
0.82652
0.814255
0.818748
0.799881
0.805809
0.792604
0.799453
0.795893
0.798861
0.80365
0.807449
0.809946
0.810132
0.807267
0.802493
0.800341
0.801076
0.800636
0.798838
0.800496
0.797695
0.792024
0.785243
0.78422
0.796977
0.791298
0.786389
0.784755
0.786195
0.786555
0.787378
0.786556
0.787961
0.786924
0.791433
0.797787
0.803175
0.809404
0.816491
0.821054
0.821592
0.822928
0.823392
0.821822
0.81785
0.815854
0.815619
0.817738
0.820774
0.823289
0.824088
0.823867
0.821652
0.821009
0.838869
0.843128
0.842727
0.839171
0.832459
0.822826
0.814459
0.806272
0.803416
0.802197
0.799493
0.799978
0.804069
0.808162
0.811368
0.814106
0.81472
0.814664
0.817722
0.81804
0.816682
0.818816
0.817502
0.815872
0.817176
0.818693
0.819304
0.820706
0.823135
0.823381
0.776641
0.772993
0.766745
0.776277
0.812757
0.802681
0.752084
0.731732
0.73054
0.731447
0.727367
0.72632
0.726796
0.727271
0.732397
0.730831
0.739061
0.742215
0.746423
0.749387
0.751117
0.753866
0.763346
0.787034
0.786707
0.763999
0.744621
0.73897
0.74188
0.788464
0.878299
0.893445
0.903157
0.893456
0.875797
0.861666
0.856701
0.855584
0.857469
0.854576
0.841153
0.822556
0.816228
0.812111
0.906788
0.884326
0.884009
0.896096
0.902523
0.900624
0.9001
0.901665
0.908322
0.90926
0.909748
0.900162
0.889493
0.877367
0.868103
0.864346
0.866178
0.867935
0.868368
0.867336
0.86519
0.86258
0.859011
0.855497
0.854947
0.859099
0.871738
0.888784
0.907201
0.936159
0.870117
0.853597
0.85154
0.853085
0.853625
0.853048
0.844482
0.840368
0.838821
0.838858
0.837024
0.836756
0.837669
0.838384
0.837864
0.838052
0.834517
0.835548
0.829944
0.831786
0.827285
0.825751
0.826233
0.826907
0.826453
0.830186
0.836033
0.840852
0.84407
0.847245
0.856795
0.861886
0.862103
0.857585
0.851012
0.847629
0.844357
0.845609
0.846006
0.845622
0.846588
0.848247
0.84827
0.846236
0.847292
0.846762
0.844413
0.837063
0.835359
0.827798
0.826397
0.827638
0.827646
0.829173
0.834573
0.838194
0.844227
0.849361
0.85065
0.849932
0.865402
0.868308
0.873054
0.877193
0.880791
0.879289
0.873806
0.868748
0.863079
0.853834
0.840962
0.8411
0.8356
0.824223
0.823265
0.822017
0.826181
0.834465
0.840522
0.844315
0.846142
0.842943
0.84349
0.844985
0.837835
0.839597
0.843754
0.833753
0.82485
0.819515
0.809148
0.814555
0.823744
0.827317
0.821018
0.821167
0.821382
0.826993
0.827796
0.83388
0.834357
0.839833
0.83712
0.839079
0.833197
0.83175
0.824701
0.824885
0.820984
0.825275
0.82744
0.83644
0.84707
0.857491
0.866182
0.874936
0.882977
0.886223
0.885408
0.882
0.920255
0.904291
0.904042
0.880009
0.876806
0.877585
0.887674
0.878268
0.876451
0.858809
0.858049
0.83177
0.836669
0.812158
0.819705
0.809479
0.811608
0.813416
0.816678
0.822341
0.828396
0.834612
0.839821
0.843534
0.844857
0.858034
0.895185
0.901141
0.874516
0.88139
0.831995
0.832615
0.831317
0.828258
0.822811
0.816334
0.803974
0.798892
0.784966
0.778991
0.774376
0.766308
0.768295
0.765288
0.773303
0.780497
0.784049
0.796062
0.800127
0.810966
0.812355
0.821706
0.828529
0.842203
0.845217
0.85223
0.852738
0.851797
0.84658
0.839596
0.794474
0.795298
0.793754
0.791243
0.789342
0.788164
0.787747
0.783804
0.783402
0.780996
0.786665
0.785039
0.789119
0.794511
0.793265
0.805957
0.802273
0.812091
0.813725
0.813701
0.807703
0.812523
0.813867
0.817077
0.819769
0.821638
0.81806
0.815257
0.816196
0.824825
0.843501
0.824253
0.826482
0.828536
0.831176
0.82697
0.830661
0.81414
0.817986
0.801184
0.802164
0.798012
0.792685
0.797612
0.799125
0.802018
0.8069
0.810325
0.810549
0.808939
0.803766
0.800924
0.801224
0.80057
0.798725
0.80115
0.798707
0.791461
0.782597
0.77931
0.793539
0.786886
0.786515
0.78824
0.790931
0.788532
0.789188
0.785944
0.781855
0.785202
0.787556
0.795129
0.800161
0.809283
0.815946
0.821554
0.821072
0.825119
0.823987
0.823217
0.819171
0.815525
0.815144
0.817367
0.821661
0.823577
0.824265
0.823735
0.822296
0.819345
0.835942
0.839338
0.839834
0.834381
0.824986
0.814509
0.806306
0.798825
0.795482
0.790011
0.789848
0.794866
0.798073
0.803481
0.809308
0.812569
0.814194
0.817772
0.819162
0.818844
0.821133
0.818806
0.81555
0.814972
0.814555
0.814948
0.815681
0.817068
0.819663
0.821094
0.78023
0.78086
0.789412
0.801913
0.798591
0.755
0.729583
0.726384
0.727873
0.724051
0.72354
0.721136
0.723017
0.721591
0.727783
0.728837
0.732938
0.737907
0.743694
0.747857
0.751478
0.751391
0.751233
0.770605
0.794017
0.777183
0.752759
0.744669
0.756088
0.818665
0.89559
0.913832
0.90451
0.874713
0.848531
0.83877
0.835566
0.839903
0.846159
0.85347
0.848996
0.828833
0.817172
0.811694
0.909817
0.880917
0.881243
0.896508
0.904392
0.906316
0.90985
0.914946
0.919471
0.914754
0.900894
0.887835
0.879345
0.869405
0.868338
0.871315
0.874014
0.87524
0.873215
0.870688
0.866799
0.863927
0.862994
0.858614
0.856719
0.857629
0.864301
0.880396
0.899951
0.927699
0.870207
0.852712
0.849966
0.851681
0.852691
0.84725
0.839359
0.833003
0.833842
0.836161
0.835413
0.835997
0.837885
0.840111
0.841042
0.837067
0.837881
0.830024
0.832378
0.828012
0.831149
0.828268
0.826902
0.828294
0.827118
0.827931
0.832762
0.838618
0.841923
0.845449
0.85575
0.861189
0.860495
0.8533
0.845995
0.838912
0.83751
0.836874
0.839204
0.843167
0.844817
0.84547
0.846102
0.842482
0.84428
0.843667
0.842034
0.83429
0.83442
0.825433
0.826255
0.822091
0.827119
0.831084
0.833927
0.836144
0.843034
0.84917
0.850395
0.85035
0.86639
0.869
0.871617
0.873106
0.87435
0.871286
0.866263
0.860991
0.85214
0.844497
0.840513
0.840611
0.822766
0.821623
0.819123
0.819487
0.821998
0.826414
0.83497
0.840596
0.842228
0.842489
0.840952
0.840703
0.838312
0.840928
0.845031
0.840078
0.830817
0.818906
0.808719
0.813688
0.824818
0.822219
0.818675
0.816462
0.822554
0.82322
0.829373
0.829147
0.835469
0.834687
0.838535
0.834163
0.833348
0.822695
0.819254
0.806365
0.806982
0.804388
0.81754
0.820823
0.836183
0.844238
0.859269
0.866942
0.877392
0.883798
0.884318
0.880202
0.91718
0.903013
0.890508
0.873167
0.881484
0.88328
0.889205
0.883429
0.87458
0.852149
0.854023
0.82386
0.82155
0.804945
0.807066
0.797051
0.802382
0.808631
0.808552
0.820389
0.824461
0.830814
0.839758
0.844013
0.845208
0.854583
0.873071
0.887629
0.872471
0.869883
0.830265
0.830761
0.8287
0.824614
0.817297
0.809891
0.796096
0.791717
0.772599
0.774735
0.757772
0.76009
0.754595
0.762574
0.763178
0.766384
0.779935
0.782879
0.795613
0.802151
0.81035
0.815055
0.825449
0.834717
0.844552
0.848048
0.849405
0.842519
0.838254
0.835493
0.796691
0.795144
0.794645
0.79183
0.789272
0.790515
0.785811
0.783765
0.778728
0.782306
0.779692
0.789254
0.783626
0.795743
0.790025
0.802456
0.802096
0.80792
0.813263
0.813964
0.810447
0.808888
0.814175
0.815391
0.817902
0.819255
0.814728
0.812462
0.812384
0.819223
0.840183
0.821164
0.829727
0.835539
0.834667
0.83142
0.827014
0.817372
0.816385
0.800112
0.808773
0.792219
0.799325
0.793344
0.797934
0.800471
0.805473
0.810098
0.811147
0.809576
0.806473
0.801907
0.798589
0.799534
0.799554
0.79897
0.801255
0.787813
0.779027
0.776835
0.788425
0.787546
0.790468
0.792883
0.794655
0.788793
0.788042
0.78455
0.790262
0.784573
0.785371
0.789359
0.800999
0.807063
0.811106
0.82071
0.819733
0.825462
0.825502
0.823796
0.820248
0.816272
0.815609
0.817986
0.821107
0.822534
0.822318
0.821357
0.819901
0.819739
0.833376
0.837605
0.837236
0.829692
0.819039
0.806656
0.799909
0.78962
0.786668
0.782412
0.784284
0.783926
0.789639
0.797258
0.806197
0.811185
0.815717
0.817371
0.819281
0.82209
0.820015
0.816336
0.817817
0.817514
0.814215
0.811776
0.810065
0.811935
0.816414
0.818229
0.779772
0.784113
0.801802
0.797536
0.767513
0.732079
0.722404
0.723707
0.720598
0.718679
0.715196
0.718014
0.71833
0.723547
0.722064
0.727364
0.728796
0.733932
0.738121
0.744997
0.750156
0.751809
0.749265
0.753172
0.792453
0.792141
0.773526
0.764334
0.786632
0.848471
0.916162
0.920588
0.886959
0.848661
0.835962
0.83256
0.831516
0.835655
0.841791
0.851198
0.850834
0.834563
0.817161
0.811108
0.907585
0.882701
0.883365
0.903388
0.914752
0.916508
0.921349
0.922974
0.918863
0.896543
0.875618
0.866293
0.866669
0.867192
0.870768
0.877981
0.878392
0.874109
0.869097
0.862288
0.862344
0.862884
0.860507
0.859788
0.855473
0.856536
0.862335
0.87519
0.893639
0.921889
0.869759
0.853061
0.848069
0.849453
0.850303
0.843652
0.833831
0.831389
0.830267
0.834045
0.834108
0.835611
0.837296
0.841723
0.836986
0.838452
0.828173
0.830595
0.823875
0.825143
0.82404
0.829186
0.828182
0.827199
0.828684
0.82736
0.830137
0.836178
0.840399
0.843058
0.854471
0.860104
0.858031
0.850763
0.839822
0.833209
0.831748
0.834419
0.833652
0.834947
0.837654
0.837977
0.837565
0.8364
0.839924
0.840279
0.838199
0.831138
0.83176
0.822543
0.824453
0.824434
0.829222
0.826038
0.835795
0.833219
0.843071
0.847517
0.850493
0.84952
0.865039
0.870204
0.872067
0.869631
0.867242
0.866119
0.859745
0.851583
0.845599
0.846788
0.838555
0.831475
0.8218
0.826653
0.822547
0.823398
0.823203
0.827368
0.828664
0.837884
0.842781
0.839289
0.837579
0.839142
0.838711
0.838816
0.842383
0.84531
0.834488
0.821797
0.807132
0.814647
0.822151
0.820601
0.813288
0.816981
0.817436
0.823636
0.823603
0.829626
0.828076
0.832219
0.828738
0.829081
0.819609
0.813581
0.8001
0.799582
0.790563
0.789639
0.794855
0.807312
0.827492
0.832468
0.852456
0.860504
0.873149
0.881506
0.88379
0.881121
0.914566
0.89932
0.87924
0.871354
0.881733
0.884317
0.892011
0.878428
0.876627
0.852972
0.844854
0.81655
0.816274
0.798122
0.794722
0.792576
0.792
0.798115
0.805348
0.815539
0.819697
0.831302
0.837659
0.843641
0.849122
0.850198
0.863042
0.873413
0.869105
0.868684
0.827365
0.826935
0.825051
0.820437
0.812975
0.804477
0.791058
0.782821
0.766752
0.763182
0.752337
0.750446
0.752151
0.746697
0.753863
0.756699
0.77147
0.77427
0.78894
0.796942
0.804704
0.813682
0.818532
0.83257
0.8386
0.844979
0.840811
0.834158
0.829644
0.83038
0.79946
0.797225
0.795261
0.79326
0.791819
0.788331
0.783307
0.783768
0.785411
0.783885
0.786406
0.784737
0.785544
0.794923
0.788586
0.798702
0.805829
0.802428
0.812241
0.81357
0.811262
0.808622
0.811469
0.815336
0.8175
0.811771
0.811477
0.810459
0.809788
0.815415
0.842307
0.827037
0.836449
0.838777
0.838702
0.830798
0.827507
0.817004
0.821567
0.800648
0.807679
0.794675
0.800329
0.799762
0.80063
0.800522
0.800976
0.813436
0.809381
0.812455
0.809373
0.804207
0.80431
0.804317
0.803741
0.802811
0.793416
0.782468
0.775591
0.774865
0.787368
0.792806
0.797661
0.796041
0.79502
0.785529
0.789057
0.782656
0.783005
0.793603
0.795787
0.800565
0.802223
0.804717
0.8086
0.82088
0.818499
0.824342
0.825995
0.825197
0.821188
0.817553
0.816391
0.818403
0.82176
0.822961
0.822947
0.821763
0.820623
0.818195
0.832545
0.835569
0.834838
0.825867
0.813177
0.801542
0.794384
0.783782
0.781469
0.77366
0.772832
0.775697
0.783238
0.791265
0.801117
0.810484
0.814055
0.817102
0.821879
0.821721
0.817566
0.818852
0.822153
0.819884
0.816423
0.811377
0.808823
0.809392
0.813739
0.815415
0.780871
0.787795
0.799224
0.779559
0.744189
0.722544
0.721984
0.72085
0.719576
0.715924
0.718483
0.71664
0.72106
0.72065
0.725814
0.725855
0.727249
0.733495
0.734265
0.740642
0.74817
0.752731
0.751507
0.747035
0.775866
0.804309
0.797407
0.795159
0.819864
0.920987
0.926237
0.914918
0.863183
0.837866
0.835632
0.840677
0.836269
0.835924
0.842375
0.85154
0.851675
0.834889
0.817164
0.809965
0.911145
0.880137
0.881249
0.900521
0.914685
0.921843
0.923568
0.919565
0.895541
0.865851
0.848193
0.849451
0.859232
0.867028
0.8764
0.882102
0.877724
0.869231
0.859736
0.852165
0.846469
0.846936
0.853253
0.856799
0.856884
0.854152
0.85955
0.873358
0.890372
0.917287
0.871346
0.853644
0.847655
0.847531
0.849217
0.841918
0.832877
0.828902
0.830209
0.831855
0.834484
0.834767
0.838726
0.841153
0.835923
0.832459
0.82587
0.824594
0.826402
0.822025
0.823868
0.823312
0.828957
0.826568
0.828183
0.827816
0.829237
0.833513
0.838142
0.841913
0.852951
0.857455
0.85727
0.85026
0.835804
0.83175
0.827684
0.829126
0.834201
0.836471
0.837694
0.840043
0.839301
0.834904
0.835391
0.836998
0.834573
0.827744
0.830661
0.820151
0.822781
0.820061
0.826034
0.826668
0.835346
0.834592
0.841796
0.846747
0.849389
0.849554
0.862272
0.862954
0.862382
0.864156
0.866172
0.860648
0.854476
0.846487
0.846427
0.844039
0.833508
0.832281
0.822545
0.820048
0.810044
0.809487
0.810228
0.820165
0.829942
0.832279
0.840182
0.841565
0.836758
0.837838
0.837986
0.836948
0.842516
0.842844
0.839914
0.827813
0.806779
0.812376
0.822111
0.815643
0.813158
0.811633
0.817389
0.816737
0.823008
0.821817
0.829253
0.829704
0.832171
0.827882
0.823619
0.809801
0.801169
0.785545
0.788275
0.786395
0.798124
0.793373
0.821103
0.825726
0.845784
0.857245
0.870218
0.879052
0.882445
0.878196
0.912736
0.893455
0.874075
0.871036
0.877225
0.884535
0.889408
0.882851
0.865587
0.862271
0.836436
0.817495
0.808872
0.798843
0.790075
0.787431
0.787544
0.797385
0.799531
0.814331
0.818451
0.829828
0.836416
0.847844
0.849277
0.852312
0.860402
0.866079
0.866665
0.859348
0.823496
0.822148
0.821915
0.817375
0.809
0.800705
0.787069
0.777108
0.758724
0.762146
0.74325
0.749203
0.741121
0.74529
0.752162
0.749717
0.764467
0.76825
0.783592
0.791724
0.803012
0.809166
0.81798
0.826043
0.837383
0.839054
0.833319
0.824871
0.822933
0.822531
0.801087
0.800277
0.797503
0.795284
0.792004
0.78815
0.782296
0.787813
0.780516
0.785303
0.781838
0.789403
0.783516
0.794959
0.789171
0.795654
0.801804
0.805763
0.806454
0.814781
0.812897
0.808413
0.81146
0.813131
0.816547
0.807735
0.809133
0.811622
0.810749
0.811809
0.840146
0.832281
0.840926
0.843289
0.83967
0.834819
0.828526
0.821902
0.818423
0.805605
0.808806
0.797938
0.80004
0.796857
0.802898
0.797642
0.806495
0.809692
0.815321
0.813606
0.812301
0.812016
0.808254
0.804086
0.80552
0.801477
0.783488
0.774183
0.776464
0.773657
0.791371
0.800626
0.802294
0.797843
0.794269
0.786222
0.790018
0.784349
0.796951
0.791454
0.800658
0.802982
0.813339
0.805534
0.805445
0.823237
0.817355
0.821472
0.826759
0.825565
0.821944
0.81842
0.817089
0.817705
0.820033
0.821543
0.822075
0.821288
0.820011
0.820079
0.829746
0.83455
0.833697
0.821844
0.810761
0.796905
0.791086
0.77894
0.775208
0.771476
0.772328
0.772787
0.77966
0.785934
0.797978
0.810021
0.813009
0.818821
0.823067
0.820191
0.817428
0.819697
0.819866
0.815826
0.809877
0.806212
0.80439
0.806634
0.809931
0.810791
0.779231
0.780778
0.786936
0.760464
0.732366
0.720055
0.719888
0.718894
0.715844
0.712793
0.713188
0.716691
0.718727
0.720315
0.728046
0.722934
0.726516
0.732397
0.733913
0.737159
0.746722
0.751511
0.75263
0.746742
0.760289
0.813706
0.812449
0.820332
0.857569
0.999211
0.92843
0.90083
0.849064
0.839935
0.850729
0.85484
0.844236
0.836087
0.842339
0.853553
0.851157
0.834586
0.815995
0.810089
0.910777
0.880371
0.87588
0.898702
0.915664
0.920169
0.91937
0.902062
0.870644
0.844955
0.838716
0.845291
0.859425
0.869645
0.88165
0.884472
0.872589
0.861309
0.847953
0.840891
0.838446
0.838046
0.840255
0.848425
0.854829
0.855929
0.859941
0.872355
0.891426
0.915311
0.870035
0.856893
0.846618
0.845792
0.84645
0.841692
0.831695
0.829818
0.830638
0.832383
0.833556
0.835871
0.837987
0.841077
0.832158
0.833244
0.821979
0.828059
0.82065
0.823481
0.823372
0.821074
0.826906
0.827091
0.828105
0.828187
0.829854
0.832956
0.837009
0.840594
0.848639
0.853876
0.856976
0.84967
0.838176
0.828073
0.822421
0.823822
0.827493
0.8316
0.833074
0.83242
0.833466
0.831051
0.832856
0.833058
0.833746
0.822975
0.830943
0.817868
0.823892
0.818511
0.831042
0.823018
0.837659
0.833192
0.842739
0.844722
0.849716
0.84736
0.864857
0.868341
0.864001
0.860552
0.859095
0.857205
0.848301
0.84366
0.845385
0.841076
0.830796
0.832799
0.814162
0.815294
0.808237
0.81183
0.810834
0.816732
0.829525
0.832318
0.838938
0.841759
0.838036
0.838542
0.837278
0.83681
0.841404
0.841172
0.841687
0.828539
0.80661
0.814062
0.819191
0.815022
0.80857
0.812084
0.811188
0.815791
0.811911
0.816593
0.81881
0.824057
0.821909
0.820473
0.813735
0.806756
0.792846
0.788871
0.782493
0.778037
0.79415
0.792468
0.814993
0.823068
0.843017
0.853437
0.870344
0.878446
0.882236
0.879441
0.910257
0.889478
0.868519
0.866017
0.873349
0.880387
0.884737
0.886998
0.867463
0.857536
0.838869
0.823694
0.804248
0.804622
0.785909
0.792238
0.788051
0.797981
0.798304
0.814141
0.817303
0.827999
0.839538
0.847017
0.851997
0.85459
0.856546
0.863305
0.862502
0.852183
0.822374
0.818109
0.818662
0.815053
0.805967
0.798752
0.782679
0.77862
0.755463
0.759651
0.742463
0.746464
0.740497
0.739204
0.746926
0.745472
0.763129
0.762311
0.781495
0.787339
0.801298
0.807215
0.815582
0.824504
0.833141
0.83398
0.820958
0.819799
0.815602
0.813786
0.812131
0.804804
0.801763
0.797798
0.791155
0.790895
0.78481
0.787144
0.781128
0.788292
0.786602
0.788226
0.784666
0.792797
0.792159
0.792188
0.79861
0.809418
0.804721
0.816379
0.812416
0.811164
0.810667
0.814941
0.809488
0.808074
0.810691
0.813751
0.815078
0.811492
0.847574
0.844349
0.85039
0.848046
0.843
0.836555
0.832164
0.824718
0.820691
0.811184
0.813163
0.797818
0.798839
0.79898
0.805968
0.808777
0.809804
0.818504
0.8128
0.81992
0.817624
0.815113
0.811221
0.813344
0.808906
0.790924
0.777882
0.774916
0.770735
0.768415
0.808544
0.809178
0.805612
0.798358
0.795289
0.785863
0.79398
0.788556
0.799175
0.800415
0.800849
0.807961
0.817232
0.809455
0.81035
0.823311
0.816384
0.82168
0.827017
0.825933
0.821891
0.819109
0.817366
0.817467
0.819253
0.822164
0.822668
0.822254
0.821431
0.819958
0.828551
0.832437
0.83137
0.821507
0.808017
0.794608
0.790024
0.777576
0.776002
0.772298
0.772572
0.774316
0.780199
0.783135
0.797985
0.808659
0.812994
0.820058
0.82452
0.821074
0.816557
0.816772
0.814007
0.808554
0.808469
0.80469
0.80571
0.807962
0.809832
0.811205
0.765662
0.773609
0.773144
0.7477
0.724729
0.720245
0.720165
0.716944
0.717495
0.711991
0.717874
0.715798
0.722474
0.720545
0.729468
0.723968
0.727398
0.732017
0.732103
0.736798
0.745133
0.75193
0.752142
0.746763
0.75326
0.810054
0.82471
0.845494
0.944033
1.06868
0.930039
0.884439
0.845395
0.852119
0.87081
0.869137
0.845502
0.835298
0.842824
0.852877
0.848298
0.827975
0.812174
0.807252
0.832036
0.880747
0.912515
0.889104
0.87267
0.883444
0.901144
0.906828
0.897405
0.871564
0.844684
0.834464
0.83543
0.840673
0.859103
0.875081
0.887013
0.884868
0.871519
0.854958
0.843376
0.832533
0.830313
0.831902
0.836673
0.841715
0.850756
0.856158
0.861001
0.874162
0.888856
0.915631
0.908671
0.895808
0.87694
0.861049
0.849464
0.845311
0.846486
0.842301
0.834004
0.830947
0.832204
0.83298
0.834434
0.83604
0.840364
0.83874
0.834851
0.830075
0.824462
0.824168
0.821765
0.819387
0.822328
0.821609
0.823812
0.829403
0.828097
0.828844
0.828778
0.833619
0.835079
0.840273
0.83167
0.836387
0.847027
0.851627
0.853774
0.851418
0.843319
0.832499
0.825841
0.82502
0.827943
0.831863
0.83453
0.835708
0.834561
0.829913
0.832462
0.832758
0.832195
0.823392
0.828675
0.817366
0.818901
0.817966
0.828512
0.825409
0.83459
0.838904
0.839742
0.848335
0.848442
0.850095
0.838844
0.852427
0.858883
0.860583
0.854422
0.852475
0.857287
0.85222
0.845459
0.844578
0.842989
0.834252
0.839065
0.824668
0.814769
0.812905
0.806333
0.807625
0.807933
0.8174
0.828095
0.835963
0.840825
0.842308
0.839212
0.837471
0.839654
0.837639
0.839409
0.841867
0.839862
0.824454
0.822188
0.808153
0.806037
0.809516
0.817233
0.81138
0.809912
0.805788
0.809355
0.804506
0.804552
0.801372
0.815938
0.822466
0.826296
0.82497
0.819582
0.809263
0.800985
0.790326
0.788742
0.781781
0.79789
0.793957
0.816188
0.824463
0.842719
0.854383
0.867126
0.879023
0.881431
0.878328
0.878447
0.903861
0.903738
0.882057
0.865502
0.862728
0.862462
0.877892
0.878513
0.888904
0.871121
0.863891
0.837401
0.836452
0.806064
0.810369
0.79105
0.79312
0.792363
0.798057
0.802504
0.812545
0.820972
0.830074
0.841582
0.848328
0.85475
0.853832
0.857898
0.859002
0.851155
0.835754
0.814509
0.813882
0.808539
0.811928
0.814689
0.812809
0.806689
0.796818
0.785127
0.77891
0.758611
0.760736
0.742869
0.748952
0.744019
0.742687
0.749394
0.744688
0.763675
0.761175
0.781572
0.78486
0.800281
0.80553
0.815702
0.82471
0.830482
0.823027
0.822804
0.82232
0.820475
0.816517
0.816167
0.820428
0.807537
0.805914
0.802334
0.798994
0.791988
0.793912
0.784498
0.790015
0.784933
0.788238
0.788458
0.787988
0.783868
0.796399
0.785624
0.799751
0.794073
0.810403
0.801992
0.817264
0.811069
0.811899
0.812765
0.812646
0.806884
0.809968
0.814435
0.818383
0.82062
0.820492
0.826082
0.81759
0.832015
0.839723
0.843524
0.845166
0.84249
0.839136
0.8329
0.830529
0.820637
0.821728
0.815187
0.8126
0.804676