/*--------------------------------*- C++ -*----------------------------------*\
| =========                 |                                                 |
| \\      /  F ield         | OpenFOAM: The Open Source CFD Toolbox           |
|  \\    /   O peration     | Version:  2.1.1                                 |
|   \\  /    A nd           | Web:      www.OpenFOAM.org                      |
|    \\/     M anipulation  |                                                 |
\*---------------------------------------------------------------------------*/
FoamFile
{
    version     2.0;
    format      ascii;
    class       volScalarField;
    location    "0.006550000";
    object      T;
}
// * * * * * * * * * * * * * * * * * * * * * * * * * * * * * * * * * * * * * //

dimensions      [0 0 0 1 0 0 0];

internalField   nonuniform List<scalar> 
12384
(
3059.84
3049.21
3047.85
3049.78
3055.22
3057.06
3060.74
3062.83
3066.89
3067.67
3069.51
3068.86
3071.12
3069.38
2810.97
2841.77
2858.92
2864.63
2862.23
2856.54
2853.1
2852.59
2854.83
2859.64
2869.17
2874.09
2886.67
2894.38
2901.98
2911.34
2918.92
2926.13
2928.35
2927.71
2925.86
2919.58
2914.82
2908.54
2904.12
2896.61
2885.54
2869.58
2747.74
2671.76
2933.66
2970.56
2969.17
2960.38
2953.34
2949.51
2947.27
2946.94
2944.01
2942.83
2940.32
2938.9
2936.28
2934.99
2932.35
2931.12
2926.42
2925.19
2924.14
2922.35
2922.28
2921.72
2922.87
2923.85
2925.14
2926.38
2932.15
2955.15
2963.99
2967.46
2918.19
2900.99
2891.47
2886.27
2884.74
2884.02
2884.18
2885.64
2887.75
2890.05
2893.18
2896.33
2898.86
2900.68
2901.44
2900.95
2897.69
2894.37
2890.29
2886.56
2886.31
2884.23
2887.55
2891.28
2893.44
2897.63
2900.07
2900.64
2900.33
2904.15
2882.3
2886.31
2890.49
2893.25
2894.95
2894.46
2892.04
2890.15
2884.18
2875.41
2869.88
2866.07
2857.28
2855.6
2852.27
2853.16
2855.28
2861.68
2867.14
2874.51
2874.12
2858.47
2855.18
2856.99
2856.82
2854.2
2850.26
2851.89
2846.09
2844.96
2760.22
2747.58
2751.71
2756.68
2758.64
2754.38
2755.48
2752.99
2758.53
2760.19
2766.75
2769.55
2774.34
2777.47
2780.28
2782.12
2783.31
2783.99
2787.1
2786.43
2791.69
2791.41
2792.97
2793.52
2794.73
2797.74
2809.67
2832.63
2837
2827.71
2777.75
2781.51
2794.04
2807.7
2805.5
2799.36
2788.09
2788.64
2777.88
2779.79
2766.65
2771.31
2756.69
2762.38
2749.9
2756.73
2752.02
2754.95
2757.03
2763
2768.28
2775.02
2779.61
2771.35
2668.6
2632.21
2630.76
2633.78
2637.38
2636.11
2763.78
2751.26
2753.3
2761.94
2768.52
2773.16
2771.95
2775.51
2768.2
2769.95
2760.96
2762.71
2759.15
2762.99
2762.37
2770.95
2769.69
2776.64
2780.55
2787.56
2785.07
2791.27
2799.55
2805.08
2802.77
2804.29
2802.83
2807.78
2814.53
2823.04
2869.18
2863.11
2862.48
2863.37
2863.96
2863.61
2860.93
2862.08
2860.83
2860.8
2860.58
2867.14
2868.42
2875.63
2878.03
2884.4
2888.43
2886.4
2814.57
2729.76
2727.45
2752.09
2756.33
2765.92
2769.36
2774.18
2772.21
2762.92
2742.34
2724.03
2884.17
2870.43
2873.55
2877.22
2882.09
2887.17
2883.53
2885.26
2881.35
2868.78
2875.63
2862.52
2869.38
2869.26
2871.51
2876.57
2881.49
2883.67
2885.09
2876.09
2824.19
2796.5
2793.96
2795.68
2797.88
2797.63
2799.45
2801.47
2800.29
2798.34
2819.99
2825.86
2829.8
2832.38
2833.78
2834.52
2835.33
2836.29
2838.81
2838.18
2846.66
2845.16
2857.92
2859.3
2868.82
2871.79
2877.5
2874.74
2846.91
2813.09
2800.8
2797.28
2797.78
2800.22
2804.26
2808.53
2810.47
2809.36
2805.52
2808.48
2818.07
2819.51
2823.8
2831.14
2859.54
2870.62
2864.25
2860.65
2861.15
2857.63
2855.67
2856.79
2855.7
2855.12
2854.32
2853.27
2851.93
2851.53
2850.75
2850.74
2850.87
2853.41
2852.12
2854.34
2855.37
2856.52
2856.84
2858.01
2856.98
2848.73
2762.19
2759.6
2765.13
2790.25
2832.4
2778.7
2678.04
2801.42
2623.14
2652.97
2668.34
2670.78
2676.17
2675.36
2683.73
2681.63
2690.87
2694.58
2705.52
2715.09
2728.26
2742.65
2755.83
2750.92
2723.08
2676.29
2628
2582.45
2573.25
2667.9
3007.98
3012.58
3021.33
3021.22
3020.26
3022.44
3029.84
3041.82
3053.21
3064.29
3074.56
3076.36
3074.73
3070.89
2812.3
2854.92
2873.23
2872.41
2855.93
2846.75
2849.29
2857.72
2869.98
2880.03
2889.47
2897.86
2910.23
2924.78
2940.52
2955.43
2959.5
2962.09
2963.44
2964.33
2964.43
2963.54
2963.4
2958.54
2941.7
2923.13
2903.91
2883.16
2818.28
2735.45
2936.98
2971.16
2965.9
2957.61
2955.17
2955.01
2956.96
2958.03
2954.08
2947.84
2942.38
2938.82
2937.37
2935.96
2936.76
2937.36
2939.25
2937.28
2937.85
2936.59
2932.09
2933.69
2929.09
2928.42
2928.61
2927.83
2930.77
2941.22
2960.2
2966.38
2916.3
2895.98
2886.26
2882.01
2880.74
2880.47
2880.69
2883.11
2884.71
2887.74
2890.33
2893.68
2897.77
2901.72
2904.93
2904.66
2903.85
2900.02
2897.66
2892.57
2891.55
2890.72
2891.47
2893.75
2895.36
2896.6
2900.39
2901.46
2903.01
2905.59
2878.99
2883.25
2890.19
2892.8
2891.25
2889.38
2882.52
2875.02
2865.64
2859.66
2853
2845.57
2838.19
2838.77
2836.47
2837.96
2843.36
2848.19
2856.7
2864.26
2870.56
2866.54
2858.58
2859.63
2862.55
2860.76
2848.7
2845.53
2842.85
2840.71
2760.48
2749.12
2755.25
2756.11
2751.59
2743.51
2748.92
2753.18
2761.91
2769.18
2776.63
2783.05
2787.49
2791.74
2794.64
2797.49
2799.19
2801.96
2803.09
2805.8
2805.57
2806.74
2806.54
2803.22
2798.68
2797.67
2802.27
2815.21
2828.1
2822.67
2779.46
2796.93
2805.31
2804.84
2786.36
2779.15
2774.69
2779.06
2776.53
2780.01
2774.78
2773.96
2766.89
2764.53
2760.66
2754.12
2755.64
2754.81
2757.53
2760.96
2764.68
2770.31
2778.52
2777.07
2759.34
2650.38
2627.5
2661.31
2684.55
2667.55
2742.65
2755.44
2773.98
2784.22
2788.17
2788.74
2786.45
2784.04
2778.48
2775.08
2768.86
2767.78
2767.88
2766.35
2771.88
2771.97
2776.64
2779.4
2780.62
2787.68
2788.57
2787.4
2795.97
2800.9
2789.74
2782.44
2778.13
2778.37
2789.64
2808.66
2864.26
2862.91
2865.66
2869.62
2872.32
2875.05
2878.11
2880.28
2879.46
2881.32
2882.79
2881.61
2883.46
2881.92
2882.09
2884.6
2886.33
2891.73
2873.96
2781.16
2737.43
2773.61
2778.71
2782.41
2787.28
2803.26
2820.1
2829.37
2818.36
2796
2887
2868.64
2875.93
2884.93
2893.92
2894.97
2893.71
2887.33
2889.59
2880.2
2883.48
2876.09
2878.98
2879.28
2880.39
2883.15
2884.58
2885.34
2886.41
2883.79
2850.69
2803.27
2791.98
2791.98
2791.9
2794.44
2801.08
2808.71
2812.96
2811.89
2818.2
2821.75
2828.28
2833.43
2837.78
2840.98
2846.26
2849.26
2851.4
2856.09
2859.97
2865.13
2868.54
2871.16
2875.81
2875.02
2877.93
2878.56
2866.96
2824.88
2793.57
2788.25
2792.43
2801.24
2813.71
2824.83
2829.29
2825.54
2810.89
2802.39
2820.2
2822.69
2832.86
2852.32
2866.32
2866.46
2864.31
2866.43
2868.09
2869.61
2872.46
2869.38
2866.85
2861.91
2857.13
2852.63
2848.92
2844.66
2841.72
2843.41
2842.65
2843.17
2846.01
2847.42
2848.97
2850.14
2851.86
2853.92
2855.31
2849.64
2730.3
2717.81
2702.08
2711.03
2803.44
2793.46
2832.36
2674.48
2634.38
2654.96
2660.53
2663.44
2661.79
2665.48
2664.42
2666.48
2670.79
2669.43
2673.35
2675.98
2685.37
2709.2
2756.59
2785.53
2758.36
2684.45
2615.58
2574.97
2574.23
2692.11
3001.66
3005.14
2982.5
2970.82
2974.44
2983.23
2995.11
3000.74
3013.02
3034.37
3058.14
3073.02
3078.73
3073.09
2814.77
2866.25
2882.18
2864.52
2844.94
2843.22
2854.34
2861.45
2865.55
2862.79
2864.29
2874.31
2891.65
2917.04
2937.08
2954.81
2960.17
2963.02
2965.21
2965.84
2966.54
2966.2
2965.95
2966.44
2962.67
2947.57
2924.25
2900.41
2854.52
2777.03
2938.76
2971.47
2965.25
2960.31
2960.72
2961.55
2963.35
2960.83
2952.78
2947.89
2940.51
2938.11
2938.57
2943.97
2951.81
2957.74
2961.11
2963.06
2963.75
2960.92
2958.53
2953.13
2949.22
2942.3
2938.06
2934.53
2930.52
2935.22
2954.06
2964.75
2913.43
2890.55
2882.34
2880.16
2880.38
2881.35
2882.3
2881.47
2884.39
2885.07
2886.33
2887.35
2891.76
2899.46
2904.18
2906.47
2905.83
2901.37
2898.17
2892.86
2891.78
2890.81
2891.65
2896.54
2895.69
2898.65
2897.32
2901.04
2903.71
2906.89
2877.2
2885.23
2889.99
2888.82
2885.98
2877.73
2868.51
2861.41
2856.42
2852.25
2843.73
2837.35
2836.52
2832.07
2829.1
2830.18
2833.08
2837.95
2843.98
2853.83
2862.16
2867.97
2860.13
2859.89
2862.95
2859.3
2851.5
2843.16
2835.84
2830.03
2760.6
2751.08
2756.22
2748.77
2740.86
2743.05
2753.6
2759.72
2770.33
2774.95
2782.18
2784.71
2789.8
2792.62
2798.03
2800.87
2805.4
2807.67
2812.14
2814.22
2816.57
2816.86
2818.5
2814
2807.18
2800.19
2798.98
2805.78
2817.29
2820.73
2786.52
2807.28
2804.21
2783.23
2765.21
2773.52
2783.68
2794.32
2798.44
2797.95
2796.21
2787.88
2786.4
2775.2
2776.68
2768.1
2766.94
2763.35
2761.67
2762.56
2763.39
2766.96
2775.58
2777.61
2774.12
2733.49
2646.87
2679.15
2729.62
2707.07
2750.25
2775.59
2788.9
2792.6
2791.75
2790.39
2785.95
2785.24
2776.54
2776.89
2767.36
2769.29
2765.15
2767.67
2768.33
2771.64
2775.78
2778.85
2782.03
2783.71
2789.34
2787.56
2791.86
2799.24
2793.44
2788.51
2781.91
2772.67
2779.58
2799.55
2863.06
2866.17
2869.62
2876.91
2884.39
2890.82
2899.01
2899.23
2900.98
2902.3
2901.82
2902.14
2903.22
2901.41
2896.09
2890.76
2886.83
2890.72
2890.76
2847.86
2757.16
2773.02
2775.61
2774.42
2776.17
2795.76
2830.45
2854.23
2853.12
2830.74
2890.49
2872.03
2884.92
2895.88
2896.98
2897.2
2896.06
2890.49
2896.13
2885.53
2887.49
2882.44
2885.1
2883.68
2885.39
2890.21
2893.09
2890.62
2888.32
2886.42
2871.41
2828.07
2798.51
2787.11
2783.2
2787.73
2796.75
2810.09
2820.54
2823.18
2817.12
2825.66
2834.81
2841.66
2849.75
2857.73
2864.46
2870.78
2875.22
2879.63
2883.87
2889.52
2891.9
2892.81
2893.06
2887.27
2881.36
2879.44
2878.04
2851.25
2797.61
2783.71
2785.9
2800.65
2820.61
2834.77
2838.69
2835.32
2824.78
2803.47
2822.21
2829.92
2847.91
2862.78
2867.28
2867.56
2873.21
2880.9
2889.06
2894.23
2892.34
2888.67
2882.25
2874.11
2863.51
2853.36
2845.32
2841.64
2843.1
2845.99
2849.49
2855.06
2854.66
2852.89
2851.3
2848.84
2846.29
2847.02
2850.98
2848.41
2773.37
2759.24
2735.77
2749.41
2853.78
2818.97
2679.3
2630.14
2644.23
2657.96
2663.26
2669.32
2675.12
2677.59
2681.71
2676.86
2677.45
2673.55
2670.37
2667.59
2666.24
2667.81
2694.09
2776.09
2779.15
2687.89
2605.43
2576.85
2586.02
2755.93
2991.53
2956.34
2933.26
2950.66
2984.98
3010.39
3020.83
3016.17
3009.39
3010.41
3035.6
3064.77
3077.56
3075.13
2818.24
2877.44
2887.63
2858.17
2839.73
2840.5
2844.32
2837.83
2829.12
2824.12
2835.45
2855.56
2884.27
2914.37
2935.04
2942.41
2944.57
2940.74
2938.82
2939.52
2942.58
2951.56
2955.51
2961.27
2964.55
2959.69
2939.28
2912.39
2873.4
2803.54
2938.94
2971.83
2968.54
2967.08
2968.46
2967.81
2967.07
2952.96
2949.29
2946.51
2939.11
2938.53
2947.33
2959.25
2971.04
2966.19
2962.46
2962.37
2958.85
2961.3
2960.3
2963.5
2967.42
2960.71
2950.24
2942.56
2936.26
2934.2
2944.75
2962.44
2910.88
2886.93
2880.62
2880.54
2883.38
2886.73
2886.83
2892.37
2894.19
2892.81
2888.45
2884.54
2881.95
2896.72
2905.48
2906.67
2903.83
2898.36
2887.54
2877.43
2873.92
2874.86
2878.58
2886.56
2897.67
2897.05
2898.01
2900.18
2903.82
2908.54
2883.32
2888.69
2888.35
2886.68
2875.87
2867.38
2860.73
2856.96
2853.41
2847.46
2840.11
2838.77
2833.35
2825.08
2823.21
2821.14
2822.82
2828.18
2835.81
2843.68
2853.96
2862.82
2863.91
2860.83
2862.36
2855.62
2847.6
2844.91
2835.42
2827.56
2760.52
2753.51
2752.73
2742.29
2738.24
2747.4
2754.11
2762.86
2767.31
2773.1
2775.34
2780.85
2783.56
2789.19
2793.74
2801.58
2808.41
2817.47
2822.25
2826.15
2825.82
2825.74
2825.07
2822.07
2815.02
2806.01
2799.82
2800.83
2810.42
2817.48
2795.51
2805.44
2795.86
2756.83
2768.09
2787.65
2805.61
2811.13
2808.27
2801.82
2803.53
2786.13
2787.95
2773.35
2778.87
2770.73
2771.51
2770.37
2768.17
2766.82
2765.69
2766.49
2769.56
2777.36
2777.6
2766.13
2707.29
2695.13
2750.43
2738.36
2783.22
2790.89
2791.72
2790.6
2789.84
2788.73
2784.17
2782.52
2775.15
2770.15
2767.59
2763.29
2763.32
2761.3
2766.32
2770.05
2771.41
2778.62
2779.64
2784.28
2785.86
2789.87
2785.78
2795.42
2796.91
2795.61
2780.59
2779.74
2791.94
2799.68
2867
2870.28
2876.09
2886.07
2900.07
2903.21
2906.18
2906.96
2908.44
2909.09
2912.12
2911.2
2911.58
2912.02
2907.95
2909.92
2893.25
2892.6
2894.12
2882.44
2798.23
2771.24
2778.46
2776.01
2778.26
2804.6
2844.92
2871
2878.16
2848.2
2895.58
2881.2
2895.64
2898.75
2898.89
2896.05
2900.19
2895.8
2897.88
2890.17
2890.29
2889.36
2887.2
2889.57
2889.85
2890.29
2891.83
2895
2892.89
2888.92
2881.09
2853.91
2819.21
2794.93
2785.85
2791.19
2799.46
2813.34
2825.64
2830.38
2821.65
2834.26
2845.47
2856.15
2867.43
2876.26
2885.93
2892.12
2898.61
2904.96
2911.83
2918.29
2916.26
2916.94
2912.57
2906.31
2894.19
2885.44
2880.45
2869.93
2815.17
2784.77
2783.77
2802.8
2827.75
2840.1
2841.95
2837.31
2829.12
2805.29
2825.03
2838.3
2856.97
2865.48
2868.81
2874.85
2887.24
2900.67
2910.63
2912.78
2912.2
2908.92
2898.05
2885.1
2870.55
2855.77
2844.45
2842.58
2847.33
2857.34
2870.05
2877.48
2879.22
2875.77
2865.77
2854.08
2844.53
2842.56
2846.82
2846.48
2784.39
2785.75
2809.43
2834.05
2815.72
2684.85
2622.54
2638.14
2653.83
2665.71
2679.35
2691.86
2704.56
2710.09
2712.82
2706.01
2695.13
2685.22
2676.95
2671.38
2668.05
2661.93
2659.02
2713.72
2803.07
2741
2641.91
2601.34
2639.34
2849.23
2951.7
2911.16
2928.24
2993.33
3041.71
3055.54
3058.15
3054.45
3034.03
3015.14
3021.19
3053.1
3076.19
3076.07
2822.4
2886.01
2888.19
2850.81
2830.18
2828.67
2820.58
2809.62
2804.75
2816.17
2855.3
2888.51
2909.1
2928.75
2935.2
2931.38
2925.28
2925.48
2928.46
2932.68
2935.47
2937.22
2942.78
2951.93
2956.3
2956.21
2944.28
2919.4
2883.03
2816.96
2937.69
2972.64
2973.36
2974.04
2976.51
2976.44
2959.58
2945.35
2945.76
2945.96
2938.74
2940.82
2956.84
2968.19
2964.33
2961.22
2960.27
2956.15
2957.08
2955.59
2957.57
2957.99
2960.56
2967.51
2964.2
2952.39
2942.24
2935.02
2940.45
2960.11
2910
2885.17
2879.87
2882.21
2889.3
2892.6
2899.03
2903.99
2908.11
2910
2902.88
2890.57
2879.23
2896.09
2904.76
2903.6
2900.25
2884.33
2874.58
2863.3
2859.93
2856.9
2862.71
2874.01
2887.77
2897.31
2897.27
2899.94
2903.15
2908.85
2889.62
2888.51
2883.75
2878.62
2869.9
2862.56
2858.49
2855.37
2849.48
2843.06
2838.08
2835.38
2822.91
2821.1
2818.51
2818.28
2819.1
2821.49
2827.67
2835.6
2845.34
2856.86
2862.65
2859.25
2861.57
2856.17
2844.56
2841.33
2840.44
2826.42
2760.64
2753.45
2749.88
2735.97
2741.02
2745.48
2754.55
2758.91
2764.09
2764.73
2770.15
2773.96
2780.73
2785.9
2794.71
2803.21
2817.23
2826.94
2837.46
2840.99
2842.91
2836.52
2833.43
2827.79
2821.71
2810.33
2802.03
2798.58
2806.05
2813.81
2804.31
2801.12
2766.56
2755.85
2779.01
2797.04
2815.85
2812.33
2807.19
2802.14
2800.54
2784.74
2781.23
2772.78
2771.49
2765.75
2768.64
2771.32
2768.84
2770.94
2768.7
2766.68
2770.3
2776.69
2778.72
2776.69
2760.26
2731.54
2762.28
2764.46
2794.77
2791.15
2789.21
2788.72
2788.86
2786.83
2782.58
2779.69
2768.91
2767.51
2758.01
2756.5
2753.78
2758.91
2759.45
2763.22
2771.43
2772.41
2779.27
2780.91
2785.37
2787.53
2787.48
2788.7
2794.35
2791.39
2774.59
2790.94
2814.71
2811.65
2868.15
2873.1
2884.93
2896.81
2904.06
2908.86
2910.41
2912.65
2913.91
2911.96
2908.64
2915.43
2917.02
2920.4
2912.17
2913.04
2909.04
2895.52
2895.78
2891.97
2836.96
2773.82
2778.06
2778.27
2787.8
2830.15
2866.64
2884.85
2892.32
2864.57
2899.51
2892.45
2900.98
2901.46
2898.98
2900.35
2904.36
2901.97
2900.05
2894.87
2897.77
2889.61
2892.92
2889.16
2891.86
2892.53
2893.48
2895.7
2896.02
2892.41
2886.77
2872.21
2842.6
2815.01
2800.53
2802.3
2811.39
2823.51
2830.77
2834.76
2835.04
2845.4
2859.14
2874.21
2884.51
2894.5
2911.31
2916.12
2924.99
2926.96
2928.02
2929.26
2934.71
2933.29
2932.74
2925.22
2908.95
2896.42
2884.91
2878.15
2836.8
2792.47
2788.46
2808.94
2831.74
2841.57
2842.4
2835.99
2826.48
2810.69
2826.45
2845.1
2860.62
2867.01
2873.58
2883.01
2902.9
2917.49
2930.14
2933.82
2933.63
2922.95
2910.74
2896.12
2879.2
2858.77
2845.16
2841.56
2854.79
2872.82
2891.12
2905.03
2915.26
2911.19
2891.79
2865.69
2844.79
2840.19
2844.12
2843.79
2786.59
2800.99
2846.5
2818.38
2727.65
2634.1
2628.07
2647.06
2663.63
2683.39
2704.82
2730.36
2750.63
2761.1
2756.15
2744.21
2720.41
2699.48
2680.92
2671.77
2668.3
2664.15
2654.67
2657.52
2790.53
2796.23
2720.23
2676.51
2744.41
2917.35
2912.1
2899.49
2969.9
3043.95
3062.61
3065.1
3064.1
3062.35
3047.27
3024.68
3017.22
3045.73
3073.43
3077.02
2826.69
2894.31
2892.93
2849.31
2823.84
2812.18
2804.76
2800.55
2814.52
2865.24
2921.47
2940.87
2940.18
2935.49
2926.88
2917.58
2913.56
2920.53
2930.47
2940.24
2945.45
2947.98
2945.89
2945.84
2951.35
2951.44
2944.49
2921.85
2886.96
2823.59
2933.85
2973.2
2977.57
2979.94
2978.29
2980.25
2952.52
2933.96
2941.86
2944.66
2938.45
2943.99
2966.71
2965.44
2960.36
2960.65
2954
2953.39
2948.35
2949.36
2950.58
2955.56
2956.78
2960.89
2967.7
2962.79
2948.7
2937.14
2938.87
2958.07
2909.75
2885.11
2879.49
2884.49
2892.13
2897.29
2910.27
2917.28
2919.16
2918.75
2913.14
2895.63
2880.66
2892.53
2901.23
2901.37
2892.16
2876.29
2865.94
2854.67
2851.23
2850.28
2855.72
2862.05
2880.43
2893.34
2897.9
2898.97
2903.08
2908.51
2888.46
2886.18
2881.13
2872.45
2864.73
2859.07
2857.19
2852.05
2846.18
2842.42
2833
2825.48
2819.33
2820.91
2817.91
2817.21
2817.3
2819.47
2822.06
2829.73
2841.11
2850.73
2860.26
2858.92
2860.74
2856.74
2845.37
2841.41
2841.97
2830.66
2759.49
2753.94
2745.41
2734.41
2738.91
2745.11
2748.97
2755.76
2755.69
2760.24
2762.01
2768.3
2773.51
2782.26
2789.46
2804.42
2820.32
2841.64
2850.3
2852.81
2850.59
2846.84
2843.16
2831.11
2826.81
2814.55
2804
2797.51
2802.19
2812.46
2802.11
2790.7
2753.32
2758.11
2782.29
2799.63
2816.16
2807.08
2812.25
2801.1
2796.54
2779.86
2780.29
2768.41
2766.01
2764.13
2762.96
2767.25
2769.87
2772.72
2769.02
2771.1
2770.89
2776.39
2780.36
2779.64
2771.71
2767.83
2770.39
2775.67
2791.31
2786.07
2786.46
2786.59
2786.74
2784.72
2780.81
2772.94
2764.42
2759.5
2751.34
2748.71
2747.96
2745
2751.49
2755.99
2766.05
2769.26
2775.74
2780.45
2782.62
2788.26
2786.45
2787.23
2789.21
2778.75
2778.72
2816.49
2841.55
2827.64
2870.66
2879.01
2891.93
2904.29
2908.08
2910.68
2913.56
2914.92
2908.83
2902.84
2902.64
2900.7
2905.01
2915.62
2918.73
2916.56
2915.4
2901.26
2896.79
2895.83
2860.28
2789.78
2776.5
2780.29
2807.93
2861.96
2884.42
2891.23
2893.73
2874.85
2904.01
2898.51
2904.37
2901.92
2901.47
2907.06
2906.36
2905.22
2904.39
2895.68
2889.65
2879.41
2879.34
2881.21
2885.28
2892.87
2893.28
2898.98
2895.61
2897.71
2891.05
2880.88
2865.44
2840.55
2824.68
2820.68
2825.17
2836.71
2836.11
2836.71
2846.01
2859.51
2876.32
2885.39
2898.67
2913.61
2923.05
2930.64
2924.26
2921.26
2919.06
2923.28
2930.91
2944.01
2941.43
2940.69
2924.6
2906.98
2890.36
2882.48
2853.9
2806.75
2797.29
2814.96
2833.31
2843.83
2843.34
2835.56
2826.44
2815.75
2827.18
2848.64
2861.92
2869.25
2877.36
2892.57
2915.67
2932.78
2946.62
2949.51
2946.43
2936.33
2921.83
2905.33
2885.91
2863.68
2844.22
2842.76
2862.85
2880.91
2900.74
2924.89
2936.48
2933.35
2910.51
2873.36
2846.51
2839.82
2842.4
2841.19
2786.76
2800.53
2833.48
2763.92
2661.25
2617.94
2636.64
2657.13
2680.57
2708.57
2745.08
2778.65
2805.21
2819.01
2813.55
2789.24
2753.04
2719.94
2686.57
2669.51
2665.5
2665
2660.18
2640.88
2729.65
2831.73
2799.3
2777.19
2853.1
2802.13
2889.06
2911.79
3020.46
3061.06
3058.6
3048.49
3052.2
3061.11
3047.73
3027.54
3017.04
3043.51
3074.53
3077.28
2827.99
2900.08
2903.71
2850.88
2816.53
2805.38
2800.74
2810.09
2865.41
2939.44
2976.97
2975.55
2952.29
2933.78
2916.37
2904.79
2913.19
2930.41
2949.68
2960.77
2962.4
2961.15
2957.95
2951.43
2948.12
2947.49
2941.08
2920.97
2887.45
2825.64
2930.81
2969.56
2980.81
2984.52
2982.95
2981.56
2950.13
2926.21
2931.34
2942.97
2939.37
2947.32
2966.6
2963.42
2960
2957.15
2949.01
2944.17
2942.01
2940.41
2944.62
2949.21
2955.26
2957.35
2963.07
2966.99
2955.05
2937.77
2938.07
2957.3
2911.77
2885.4
2880.11
2885.33
2893.96
2898.86
2908.43
2917.96
2922.81
2923.74
2920.38
2905.84
2882.64
2889.66
2898.37
2899.31
2887.56
2872.4
2862.55
2850.26
2847.95
2845.52
2849.67
2858.03
2875.25
2889.74
2897.63
2898.45
2902.56
2909.1
2886.52
2883.74
2875.97
2869.41
2859.67
2852.05
2849.71
2850.04
2845.11
2837.66
2827.51
2825.51
2820.69
2818.53
2812.42
2810.76
2810.08
2815.21
2821.49
2826.22
2836.52
2848.85
2857.45
2858.11
2859.28
2856.16
2849.5
2840.63
2839.99
2837.85
2759.79
2753.7
2742.85
2731.97
2738.21
2740.7
2746.58
2748.09
2752.78
2753.29
2759.97
2764.01
2771.81
2779.09
2789.12
2803.27
2825.41
2840.86
2857.56
2860.57
2861.06
2849.91
2847.76
2836.03
2828.26
2817.4
2805.24
2796.81
2800.9
2809.49
2802.27
2777.93
2747.81
2759.3
2778.8
2798.55
2815.06
2808.7
2804.54
2806.65
2791.26
2781.35
2775.35
2770.83
2760.83
2759.96
2761.33
2766.01
2768.9
2772.78
2771.21
2772.1
2772.26
2778.8
2780.38
2782.1
2779.33
2774.65
2776.23
2782.53
2784.36
2779.73
2783.56
2783.63
2784.46
2782.84
2779.24
2768.71
2760.48
2758.57
2745.29
2744.84
2737.95
2739.52
2746.04
2749.35
2760.89
2766.62
2773.53
2778.69
2782.7
2786.35
2788.41
2784.09
2783.36
2769.22
2804.75
2853.59
2863.4
2843.14
2873.28
2885.05
2897.54
2908.55
2909.74
2912.71
2916.72
2911.2
2899.35
2896.92
2893.05
2895.41
2895.97
2905.61
2915.39
2918.25
2917.09
2910.65
2897.42
2897.88
2876.09
2809.29
2783.94
2789.86
2839.64
2882.87
2886.67
2887.28
2888.34
2876.98
2904.69
2904.76
2905.39
2903.45
2903.96
2912.7
2908.92
2908.74
2903.41
2889.26
2882.57
2874.48
2873.58
2872.51
2878.73
2881.57
2895.93
2899.17
2899.43
2898.79
2894.26
2889.94
2878.33
2856.77
2841.66
2835.4
2840.86
2842
2842.48
2837.79
2855.32
2873.46
2886.04
2895.75
2912.27
2923.18
2933.74
2914.47
2897.78
2878.14
2877.1
2881.92
2900.91
2919.33
2938.01
2949.85
2937.53
2915.96
2898.43
2884.78
2863.15
2821.96
2808.56
2818.07
2831.46
2842.84
2843.24
2835.57
2827.38
2822.45
2826.33
2849.8
2862.4
2869.41
2881.92
2897.74
2923.43
2941.78
2955.76
2964.63
2963.49
2948.1
2929.96
2910.57
2892.25
2869.01
2844.28
2845.26
2865.82
2881
2898.99
2919.63
2930.37
2923.93
2896.22
2863.52
2843.39
2838.92
2840.35
2836.78
2778.11
2777.37
2789.34
2706.82
2632.13
2620.59
2643.94
2669.05
2698.28
2736.3
2782.92
2829.7
2866.24
2876.11
2866.93
2827.7
2781.35
2737.34
2694.31
2667
2662.43
2661.05
2660.92
2640.06
2677.42
2852.82
2843.59
2859.32
2921.59
2626.25
2884.72
2945.09
3046.67
3056.53
3028.89
3015.96
3038.39
3062
3047.44
3026.7
3017.73
3047.76
3076.88
3078.28
2828.86
2902.82
2918.13
2870.06
2828.54
2813.89
2818.1
2862.19
2937.43
2990.38
3005.19
2992
2956.08
2928.96
2905.94
2900.68
2916.94
2945.92
2967.6
2982.67
2986.32
2980.45
2969.54
2960.07
2950.53
2944.6
2938.62
2916.6
2885.76
2823.67
2927.41
2959.45
2980.67
2987.32
2987.33
2983.95
2952
2924.67
2928.29
2942.1
2939.89
2952.09
2964.72
2963.53
2958.54
2955.66
2942.89
2940.83
2933.58
2936.13
2939.73
2944.25
2952.28
2956
2960.38
2963.83
2959.79
2939.21
2937.99
2957.66
2912.23
2889.42
2881.6
2881.93
2892.23
2895.4
2899.69
2914.25
2918.33
2921.92
2922.8
2912.39
2883.81
2885.76
2896.23
2896.93
2887.59
2870.35
2863.32
2850.12
2848.89
2844.78
2852.79
2855.98
2875.82
2888.49
2897.5
2897.62
2902.93
2908.5
2885.89
2882.96
2878.2
2867.58
2855.47
2849.96
2846.28
2848.75
2844.05
2834.09
2826.59
2826.53
2819.36
2820.98
2815.65
2814.54
2812.41
2813.93
2822.12
2826.28
2835.21
2847.5
2856.1
2859.82
2858.05
2856.08
2851.22
2841.02
2839.72
2839.33
2759.27
2752.83
2738.84
2732.38
2735.81
2740.36
2741.79
2747.71
2751.7
2758.16
2752.46
2757.17
2763.03
2772.07
2781.11
2798.04
2818.17
2839.83
2849.31
2851.87
2859.14
2849.82
2845.93
2837.87
2828.5
2816.82
2805.88
2796.84
2799.83
2810.19
2801.58
2766.47
2747.15
2754.9
2773.32
2792.13
2807.52
2812.81
2804.5
2801.47
2793.88
2783.97
2773.16
2773.68
2758.92
2763.12
2761.74
2768.62
2767.42
2773.89
2771.32
2772.4
2775.98
2778.79
2781.65
2784.38
2782.14
2779.78
2781.23
2796.12
2776.57
2772.52
2779.6
2781.07
2781.76
2781.51
2776.46
2770.07
2759.55
2756.91
2745.32
2741.94
2732.58
2730.63
2738.77
2744.54
2759.81
2762.33
2773.14
2775.62
2782.53
2785.63
2787.51
2784.33
2775.35
2782.28
2851.61
2871.94
2872.62
2867.97
2884.37
2889.62
2901.21
2910.05
2909.41
2915.6
2917.23
2907.24
2895.85
2892.26
2887.14
2886.27
2889.62
2898.36
2911.92
2917.57
2918.13
2913.81
2899.59
2900.23
2881.8
2828.23
2799.38
2821.95
2870.23
2887.82
2880.24
2882.2
2883.98
2880.37
2908.84
2911.25
2909.56
2906.24
2907.19
2914.45
2911.93
2911.18
2901.5
2890.54
2880.58
2873.07
2869.13
2870.94
2876.53
2883.88
2892.78
2905.22
2900.01
2901.98
2900.18
2893.14
2883.45
2870.94
2851.24
2846.89
2850.52
2845.29
2841.24
2840.08
2874.11
2887.18
2892.24
2903.25
2922.04
2929.46
2924.86
2892.55
2871.24
2856.37
2845.76
2853.44
2873.9
2891.65
2924.38
2957.58
2940.88
2924.11
2903.3
2886.69
2867.49
2835.09
2818.47
2819.08
2829.13
2843.06
2843.74
2836.86
2829.6
2823.6
2825.93
2849.29
2861.32
2870.48
2882.02
2899.2
2927.42
2946.08
2962.19
2972.02
2970.33
2956.58
2934.92
2910.26
2896.49
2872.3
2844.99
2846.41
2866.08
2876.97
2883.74
2894.13
2894.66
2886.1
2870.55
2852.1
2843.34
2840.07
2838.45
2835.92
2738.18
2747.66
2746.04
2665.92
2618.87
2623.48
2651.36
2678.68
2716.25
2759.66
2817.08
2867.3
2908.15
2917.13
2901.66
2852.97
2798.32
2746.77
2695.97
2665.44
2658.19
2658.26
2657.6
2639.61
2653.66
2837.48
2879.75
2918.21
2750.45
2497.39
2888.44
2982.41
3051.5
3031.17
2988.23
2986.24
3034.73
3066.47
3047.37
3023.61
3023.4
3053.83
3077.97
3075.74
3036.14
2931.12
2840.76
2893.98
2933.25
2904.41
2861.35
2848.06
2871.67
2932.91
2990.61
3012.59
3008.06
2998.67
2956.16
2920.18
2895.29
2899.86
2922.81
2954.41
2982.32
2996.11
3000.41
2996.15
2983.86
2968.16
2952.55
2942.97
2931.12
2911.29
2879.56
2822.8
2821.83
2860.58
2912.6
2947.83
2977.39
2988.2
2988.64
2987.08
2960.32
2927.45
2929.76
2940.63
2941.31
2954.05
2966.42
2962.59
2959.75
2952.29
2942.39
2937.03
2932.47
2932.75
2937.86
2943.04
2949.3
2956.41
2958.46
2961.67
2960.63
2939.15
2937.68
2956.36
2967.18
2941.86
2919.6
2897.27
2883.44
2881.96
2888.64
2897.71
2896.19
2908.45
2914.12
2918.44
2922.19
2919.18
2890.84
2882.11
2895.26
2896.5
2892.25
2874.47
2866.5
2853.46
2848.99
2847.4
2855.1
2860.62
2877.02
2892.53
2895.76
2899.48
2903.95
2910.58
2894.26
2883.09
2877.36
2872.99
2874.87
2864.16
2855.45
2847.05
2844.16
2850.2
2842.22
2831.01
2831.25
2822.9
2821.51
2820.71
2816.39
2814.77
2813.11
2816.32
2822.86
2829.49
2837.48
2847.6
2855.87
2857.02
2858.31
2857.13
2850.72
2843.45
2839.68
2828.38
2827.95
2809.03
2767.89
2754.51
2740.69
2731.12
2732.98
2736.17
2743.14
2751.84
2768.12
2770.98
2761.23
2754.76
2761.4
2770.02
2778.47
2790.81
2810.31
2828.86
2840.62
2843.77
2851.17
2843.34
2842.17
2834.78
2826.12
2814.98
2802.91
2796.12
2799.09
2808.69
2806.72
2807.83
2794.26
2757.95
2746.15
2752
2761.45
2783.14
2800.3
2813.3
2805.09
2805.94
2791.99
2791.91
2772.38
2778.19
2763.78
2766.4
2764.89
2767.66
2769.89
2772.07
2774.64
2774.29
2780.79
2779.42
2783.81
2784.38
2785.06
2785.62
2792.43
2792.51
2779.22
2772
2753.86
2758.86
2773.32
2777.73
2779.93
2779.68
2777.53
2771.38
2762.03
2758.53
2748.32
2744.06
2736.87
2735.22
2742.69
2746.47
2761.29
2762.59
2773.57
2774.32
2782.31
2785.08
2787.71
2781.31
2787.72
2852.8
2865.81
2868.45
2874.46
2877.16
2878.19
2885.02
2879.96
2888.39
2899.32
2909.74
2909.23
2916.34
2918.85
2909.37
2897.57
2890.91
2886.94
2886.85
2886.37
2902.07
2905.76
2922.43
2916.97
2914.21
2900.18
2900.62
2883.49
2840.56
2820.9
2854.08
2884.86
2884.28
2880.74
2884.52
2888.25
2892.28
2898.28
2894.58
2902.16
2902.88
2902.05
2903.18
2906.43
2915.61
2913.28
2913.26
2903.16
2896.01
2883.24
2880.34
2873.4
2873.69
2877.88
2880.73
2892.11
2906.42
2907.48
2907.86
2904.53
2896.35
2889.62
2872.83
2855.6
2855.78
2853.67
2848.32
2849.82
2852.45
2863.76
2874.15
2878.24
2884.07
2891.98
2905.27
2923.45
2931.79
2921.1
2882.63
2861.3
2843.99
2837.74
2840.76
2863.79
2877.86
2915.57
2954.49
2943.87
2928.64
2906.85
2887.06
2869.75
2844.64
2825.1
2816.78
2824.48
2840.19
2842.64
2837.25
2831.52
2824.98
2819.57
2819.29
2824.73
2847.41
2861.01
2869.17
2880.53
2897.57
2923.77
2943.36
2959.5
2967.83
2966.91
2953.87
2930.69
2910.55
2896.26
2876.47
2847.64
2848.16
2865.39
2872.16
2869.22
2867.39
2867.14
2859.79
2854.65
2846.64
2840.79
2836.49
2832.93
2826.06
2760.49
2725.93
2686.06
2712.68
2724.21
2647.63
2615.02
2623.26
2655.79
2686.59
2721.45
2774.22
2827.23
2884.28
2924.18
2923.33
2905.59
2853.26
2801.28
2740.35
2693.6
2660.12
2655.41
2654.39
2652.3
2636.5
2641.48
2820.12
2921.67
2878.77
2666.29
2701.25
2557
2452.45
2898.47
3004.86
3041.12
3000.28
2960.49
2975.92
3040.74
3068.58
3051.02
3029.48
3042.18
3068.69
3080.05
3069.96
2998.73
2892.6
2843.44
2902.87
2950.82
2939.61
2916.33
2914.53
2947.04
2991.84
3018.72
3016.6
3003.33
2997.95
2958.04
2914.89
2891.27
2897.08
2923.52
2955.86
2983.14
2998.61
3004.85
2999.19
2988.2
2970.47
2953
2939.92
2925.18
2904.7
2872.5
2819.56
2820.14
2858.52
2902.88
2935.18
2964.75
2984.82
2988.25
2988.59
2969.54
2940.36
2936.28
2941.19
2942.94
2954.02
2967.36
2963.28
2960.22
2951.53
2944.99
2938.27
2935.63
2936.08
2938.77
2944.79
2949.95
2956.42
2957.22
2960.28
2958.4
2937.03
2938.72
2958.62
2968.96
2945.94
2920.85
2901.28
2889.06
2884.74
2885.57
2892.7
2899.03
2904.41
2910.74
2915.68
2920.26
2922.81
2899.84
2875.71
2893.11
2897.2
2894.1
2880.82
2871.91
2862.54
2860.2
2860.88
2861.45
2868.98
2885.88
2892.8
2896.4
2900.03
2905.18
2909.47
2897.17
2877.62
2873.31
2870.13
2875.09
2868.01
2854.82
2845.11
2845.87
2848.62
2841.28
2838.05
2829.29
2826.95
2823.3
2823.02
2821.54
2822.11
2823.32
2824.48
2828.4
2834.71
2841.12
2849.8
2858.66
2857.84
2856.71
2856.42
2849.41
2842
2839.26
2812.43
2813.3
2806.62
2791.29
2773.93
2755.23
2741.19
2731.31
2736.15
2745.95
2767.4
2787.67
2794.24
2771.03
2750.89
2753.73
2762.01
2771.01
2780.79
2796.01
2812.13
2826.69
2832.91
2841.77
2832.41
2838
2826.59
2822.07
2808.15
2800.94
2796.61
2801.3
2811.36
2813.73
2805.62
2785.82
2748.95
2746.97
2750.16
2751.11
2768.62
2793.86
2811.94
2805.48
2807.6
2795.23
2792.08
2783.47
2773.22
2774.95
2765.37
2768.83
2769.34
2772.15
2770.88
2775.98
2776.91
2780.43
2781.69
2784.49
2786.1
2788.43
2788.4
2787.78
2785.94
2770.03
2753.69
2731.04
2739.47
2763.52
2775
2776.5
2780.87
2778.09
2775.64
2764.58
2763.78
2754.84
2747.59
2744.28
2742.88
2746.77
2751.3
2762.74
2766.83
2773.33
2775.61
2781.72
2785.51
2784.19
2778.57
2801.27
2828.53
2818.73
2815.07
2828.65
2845.36
2856.45
2863.32
2874.78
2884.71
2895.18
2909.32
2911.34
2916.11
2916.65
2914
2902.21
2898.17
2889.75
2892.28
2894.89
2904.47
2911.82
2923.02
2915.05
2912.32
2902.97
2897.38
2886.07
2849.23
2843.69
2871.98
2889.1
2884.46
2885.46
2887.71
2888.95
2894.82
2893.8
2896.68
2903.19
2897.37
2903.13
2903.46
2905.71
2917.49
2916.55
2918.28
2913.7
2899.76
2888.46
2886.68
2884.39
2883.04
2886.53
2895.97
2907.38
2913.15
2910.75
2909.04
2906.49
2900.82
2888.4
2867.02
2854.71
2860.84
2859.16