/*--------------------------------*- C++ -*----------------------------------*\
| =========                 |                                                 |
| \\      /  F ield         | OpenFOAM: The Open Source CFD Toolbox           |
|  \\    /   O peration     | Version:  2.1.1                                 |
|   \\  /    A nd           | Web:      www.OpenFOAM.org                      |
|    \\/     M anipulation  |                                                 |
\*---------------------------------------------------------------------------*/
FoamFile
{
    version     2.0;
    format      ascii;
    class       volScalarField;
    location    "0.007550000";
    object      H2O;
}
// * * * * * * * * * * * * * * * * * * * * * * * * * * * * * * * * * * * * * //

dimensions      [0 0 0 0 0 0 0];

internalField   nonuniform List<scalar> 
12384
(
0.227213
0.225915
0.224533
0.223527
0.22291
0.223087
0.22375
0.224787
0.226143
0.227767
0.229821
0.231251
0.23214
0.233684
0.216746
0.215623
0.21628
0.220043
0.222906
0.225723
0.228552
0.230376
0.231611
0.232284
0.232451
0.232234
0.231786
0.231033
0.230006
0.228768
0.227351
0.226218
0.225445
0.224982
0.224756
0.224836
0.224968
0.225117
0.225468
0.225909
0.226911
0.228613
0.223157
0.209524
0.246244
0.248745
0.248946
0.248414
0.247858
0.247316
0.246904
0.246521
0.246185
0.245809
0.245529
0.245294
0.245092
0.244923
0.244835
0.244846
0.244893
0.244959
0.245023
0.245059
0.245066
0.245005
0.24497
0.244919
0.244894
0.244887
0.245221
0.24649
0.245659
0.244654
0.248681
0.24927
0.248471
0.248352
0.248348
0.248371
0.248379
0.248285
0.248187
0.248082
0.247999
0.247941
0.247912
0.247923
0.24795
0.247978
0.248028
0.248137
0.248213
0.248268
0.248395
0.248473
0.248522
0.248596
0.24866
0.248729
0.248751
0.248742
0.248718
0.248572
0.250104
0.250243
0.250338
0.25035
0.250342
0.250323
0.250257
0.250208
0.250151
0.250086
0.250162
0.250197
0.250116
0.25021
0.250176
0.250176
0.250159
0.250107
0.250085
0.250088
0.250159
0.25028
0.251061
0.250702
0.250762
0.250757
0.250734
0.250721
0.250715
0.250724
0.251468
0.251453
0.251441
0.251418
0.251451
0.251444
0.251455
0.251445
0.251406
0.251415
0.251426
0.251433
0.251438
0.251445
0.251456
0.251465
0.251485
0.251486
0.251512
0.251516
0.251535
0.251504
0.251525
0.251503
0.251461
0.251458
0.251439
0.251442
0.25135
0.251287
0.251913
0.25187
0.251853
0.251865
0.251917
0.252054
0.252017
0.251983
0.251938
0.251868
0.251926
0.251876
0.251735
0.25173
0.25173
0.251756
0.251805
0.251793
0.251714
0.25172
0.251702
0.251723
0.251668
0.251628
0.251588
0.25141
0.243556
0.239989
0.242451
0.243951
0.251663
0.251526
0.251449
0.251464
0.25143
0.251414
0.251416
0.251422
0.251452
0.251456
0.251434
0.25142
0.251463
0.251462
0.251409
0.251469
0.251389
0.251335
0.251372
0.251368
0.251407
0.251477
0.251479
0.251468
0.25146
0.251452
0.251445
0.251444
0.251447
0.251454
0.251425
0.251324
0.251262
0.251233
0.251214
0.251206
0.25122
0.251248
0.251275
0.251249
0.251225
0.251191
0.251136
0.251179
0.251098
0.251002
0.251
0.251184
0.251548
0.251406
0.251429
0.251551
0.251551
0.251541
0.251531
0.25152
0.251505
0.251514
0.251359
0.251209
0.251509
0.25144
0.251421
0.251453
0.251488
0.25152
0.251535
0.251509
0.251501
0.251618
0.251551
0.251704
0.251628
0.251753
0.251674
0.251678
0.251643
0.25161
0.251708
0.251851
0.2518
0.251819
0.251817
0.251823
0.251815
0.25182
0.251807
0.251796
0.251775
0.251769
0.252101
0.252071
0.252076
0.252101
0.251928
0.25193
0.252117
0.252135
0.252176
0.252167
0.252161
0.252078
0.252079
0.251949
0.251955
0.251877
0.251586
0.251545
0.251614
0.251649
0.251694
0.251682
0.251694
0.251659
0.251661
0.251628
0.251613
0.251607
0.251562
0.251449
0.252131
0.25216
0.25209
0.251898
0.252006
0.252016
0.252065
0.252064
0.252094
0.252065
0.252091
0.252051
0.252044
0.252031
0.25202
0.252009
0.252037
0.25203
0.252017
0.252017
0.252016
0.252024
0.252032
0.252046
0.252028
0.252071
0.252088
0.252094
0.252052
0.252109
0.251579
0.251632
0.251693
0.251673
0.251558
0.251472
0.251077
0.249295
0.248406
0.248328
0.248309
0.248307
0.248307
0.248315
0.248323
0.248343
0.248367
0.248401
0.248433
0.248459
0.248453
0.248425
0.24839
0.248388
0.248414
0.248514
0.248611
0.248739
0.249242
0.249561
0.223299
0.220212
0.216895
0.215654
0.21603
0.216977
0.218258
0.219595
0.221123
0.223251
0.22614
0.229803
0.231922
0.233732
0.216446
0.215459
0.216817
0.220815
0.224972
0.229619
0.233285
0.235568
0.236388
0.236684
0.236483
0.235555
0.233894
0.231024
0.227312
0.223828
0.221617
0.220519
0.22004
0.219704
0.219532
0.219513
0.219814
0.220652
0.221879
0.223378
0.225065
0.227372
0.226631
0.218322
0.246623
0.248878
0.24892
0.248187
0.247358
0.246532
0.24553
0.244581
0.243231
0.241999
0.241392
0.240957
0.240961
0.241333
0.242087
0.242923
0.243743
0.244436
0.244835
0.24494
0.244948
0.244892
0.244812
0.2447
0.244629
0.244607
0.244759
0.245619
0.246425
0.24629
0.248887
0.249072
0.248449
0.248505
0.248637
0.248741
0.248731
0.248622
0.248385
0.24805
0.247687
0.247377
0.247199
0.247185
0.247308
0.247474
0.247628
0.247687
0.247753
0.247854
0.247876
0.247895
0.247987
0.24811
0.248271
0.248421
0.248569
0.248641
0.248649
0.248639
0.250098
0.250237
0.250311
0.250358
0.250362
0.250247
0.250107
0.249959
0.250321
0.250193
0.250038
0.249845
0.249897
0.249822
0.249716
0.249737
0.249822
0.249962
0.250137
0.250409
0.250032
0.250169
0.250368
0.250595
0.250763
0.25073
0.250582
0.251003
0.250613
0.250732
0.25146
0.251444
0.251462
0.251414
0.25137
0.251362
0.251393
0.251454
0.251444
0.251491
0.25152
0.251532
0.251528
0.251524
0.251519
0.251509
0.251493
0.251488
0.251488
0.251479
0.251475
0.251481
0.251459
0.251443
0.251438
0.251444
0.25143
0.251451
0.251386
0.251305
0.251893
0.251868
0.251916
0.251832
0.251762
0.251748
0.251784
0.251805
0.251797
0.251908
0.251812
0.251743
0.251708
0.251683
0.251697
0.251657
0.251711
0.251678
0.251712
0.251707
0.251695
0.251683
0.251649
0.251678
0.251636
0.251571
0.249754
0.243864
0.242397
0.245467
0.251859
0.251533
0.251408
0.251269
0.251424
0.251441
0.251462
0.251421
0.25145
0.251492
0.251504
0.251538
0.25154
0.251541
0.251501
0.251472
0.251419
0.251444
0.251381
0.251325
0.251327
0.251426
0.251474
0.251489
0.251474
0.251465
0.251445
0.251427
0.251458
0.251421
0.251357
0.251385
0.251317
0.251302
0.251268
0.251223
0.2512
0.251091
0.251084
0.251103
0.251053
0.251068
0.251056
0.251013
0.250999
0.25106
0.250993
0.250996
0.251528
0.25155
0.25141
0.251423
0.251432
0.251457
0.251597
0.251578
0.251548
0.251545
0.251488
0.251257
0.251516
0.251431
0.251448
0.251555
0.251586
0.251616
0.251609
0.251525
0.251531
0.25156
0.251565
0.25164
0.251634
0.251643
0.251646
0.251622
0.251691
0.251659
0.251648
0.25203
0.251837
0.251819
0.25181
0.251831
0.251845
0.251848
0.251829
0.251814
0.251778
0.251766
0.252162
0.25214
0.251974
0.251957
0.251963
0.251994
0.252098
0.252144
0.252168
0.252158
0.252149
0.252102
0.252059
0.25205
0.251982
0.251988
0.251899
0.251753
0.251608
0.251678
0.251871
0.251832
0.251846
0.2517
0.251676
0.251635
0.251619
0.251598
0.25157
0.251448
0.252133
0.252025
0.25193
0.251941
0.252025
0.252012
0.252027
0.25203
0.252008
0.252026
0.252031
0.252024
0.252032
0.252026
0.252017
0.251994
0.251973
0.251957
0.251954
0.251972
0.252007
0.252014
0.252045
0.252052
0.25205
0.252049
0.252088
0.252096
0.252063
0.252091
0.251242
0.251574
0.251911
0.251793
0.251593
0.251222
0.24986
0.248615
0.248336
0.248306
0.248303
0.248317
0.248342
0.248368
0.248399
0.248429
0.248484
0.248563
0.24868
0.248815
0.248956
0.248965
0.24887
0.248695
0.248584
0.248528
0.248569
0.248705
0.24927
0.249604
0.218086
0.213208
0.211786
0.213511
0.217091
0.220305
0.222782
0.224329
0.224624
0.224534
0.225046
0.227217
0.231178
0.233767
0.21626
0.215388
0.216884
0.22097
0.226063
0.231463
0.23516
0.236699
0.23732
0.23756
0.237309
0.236462
0.234173
0.229586
0.223901
0.220659
0.219766
0.219889
0.220431
0.220788
0.220751
0.220267
0.219577
0.219094
0.219157
0.220342
0.22238
0.225353
0.227303
0.222652
0.246788
0.249066
0.24904
0.24832
0.247335
0.246127
0.244726
0.242589
0.240361
0.238989
0.238458
0.238185
0.238537
0.239915
0.241873
0.243659
0.244796
0.24512
0.245241
0.245252
0.245209
0.245092
0.244975
0.24475
0.244582
0.244448
0.244417
0.244927
0.24599
0.246609
0.249008
0.248805
0.248587
0.248892
0.249296
0.24948
0.249384
0.249155
0.248851
0.248394
0.247715
0.247207
0.246901
0.247052
0.247317
0.247588
0.24765
0.247652
0.247678
0.247585
0.247479
0.247363
0.247405
0.247489
0.247757
0.24798
0.248206
0.248419
0.248534
0.248552
0.250101
0.250214
0.250286
0.250348
0.250273
0.250073
0.250152
0.24979
0.249625
0.249456
0.249153
0.24905
0.248965
0.248673
0.248698
0.24872
0.248826
0.249018
0.249293
0.249658
0.250143
0.250055
0.250193
0.250405
0.250615
0.251166
0.24994
0.24942
0.25007
0.250562
0.251468
0.251443
0.251429
0.251345
0.251297
0.251308
0.251384
0.251414
0.2515
0.251561
0.25152
0.251527
0.251522
0.251558
0.251508
0.251448
0.251444
0.251414
0.251362
0.251347
0.251344
0.251359
0.251392
0.251388
0.251415
0.25144
0.251453
0.251455
0.251415
0.251327
0.251895
0.251893
0.251835
0.251721
0.251671
0.251739
0.251812
0.251852
0.251993
0.251849
0.251761
0.251701
0.251651
0.251649
0.251602
0.251631
0.251655
0.251654
0.251657
0.251664
0.251651
0.251648
0.25165
0.251637
0.251621
0.25163
0.25137
0.248687
0.243087
0.24463
0.251848
0.251547
0.25126
0.251437
0.251462
0.251419
0.251442
0.251468
0.251485
0.251506
0.251516
0.251469
0.251474
0.251467
0.251532
0.251507
0.25148
0.251435
0.251467
0.251411
0.251362
0.251366
0.251453
0.251486
0.251707
0.251671
0.25169
0.251681
0.251448
0.251451
0.251471
0.251401
0.251403
0.251367
0.251277
0.251183
0.251026
0.251419
0.250857
0.250366
0.250079
0.249899
0.249974
0.250234
0.250596
0.251185
0.250941
0.250987
0.251296
0.251528
0.251442
0.251389
0.251387
0.251423
0.251609
0.251627
0.251618
0.251561
0.251529
0.25133
0.251534
0.251445
0.251553
0.251641
0.251625
0.251609
0.251412
0.251436
0.251316
0.251875
0.251427
0.251203
0.251139
0.251393
0.25154
0.251906
0.251618
0.25163
0.25166
0.251811
0.251873
0.251814
0.251812
0.251827
0.251864
0.251885
0.251848
0.251807
0.251766
0.251741
0.252103
0.252004
0.251969
0.251974
0.252221
0.252097
0.252125
0.252047
0.252022
0.25204
0.25206
0.252013
0.252089
0.252028
0.251968
0.251946
0.252022
0.251862
0.251802
0.251675
0.251795
0.251844
0.251739
0.251662
0.251603
0.251544
0.251563
0.251593
0.251561
0.251432
0.252012
0.251914
0.251895
0.251951
0.252016
0.25199
0.251967
0.251957
0.251926
0.251916
0.251945
0.251965
0.252005
0.251997
0.252022
0.252029
0.252013
0.251991
0.251984
0.251989
0.252064
0.252138
0.252205
0.252236
0.252222
0.25216
0.252102
0.252086
0.25208
0.252089
0.250682
0.251551
0.251975
0.251682
0.2512
0.250101
0.248822
0.248346
0.248313
0.248339
0.248409
0.248519
0.248579
0.248615
0.248614
0.2486
0.248585
0.248604
0.248692
0.248935
0.249326
0.249674
0.249734
0.249632
0.249445
0.249019
0.248829
0.248957
0.249651
0.249649
0.210746
0.20954
0.212782
0.218633
0.224065
0.227226
0.229192
0.230214
0.230503
0.229051
0.227107
0.227073
0.230341
0.233666
0.216078
0.215243
0.21647
0.220007
0.22505
0.230904
0.234669
0.235938
0.236434
0.236641
0.236876
0.236419
0.233813
0.227579
0.221787
0.220419
0.221441
0.222987
0.224028
0.224418
0.224316
0.223806
0.222486
0.220818
0.219201
0.218811
0.220163
0.223146
0.226698
0.224517
0.24685
0.249246
0.249401
0.248928
0.248139
0.247009
0.245326
0.242661
0.239584
0.238139
0.237707
0.237556
0.238648
0.241364
0.244052
0.245098
0.24532
0.24524
0.244983
0.244762
0.24465
0.24462
0.244642
0.244608
0.244513
0.244063
0.243963
0.244472
0.245407
0.246567
0.248942
0.248835
0.248817
0.249381
0.24983
0.249817
0.249536
0.249283
0.249072
0.248657
0.247667
0.246743
0.246534
0.247072
0.247566
0.247667
0.247592
0.247457
0.247025
0.246722
0.246607
0.246623
0.246665
0.24683
0.247077
0.247324
0.247762
0.248088
0.248334
0.248463
0.250093
0.250186
0.250276
0.25036
0.250481
0.249909
0.24959
0.249436
0.249169
0.248923
0.248451
0.247961
0.247582
0.247363
0.247429
0.247506
0.247692
0.248028
0.248449
0.248928
0.249489
0.250201
0.250124
0.250302
0.250456
0.250928
0.250055
0.249141
0.24993
0.251127
0.251481
0.251444
0.251405
0.251298
0.251316
0.251318
0.251337
0.251457
0.251499
0.25157
0.251533
0.251536
0.251515
0.251505
0.251445
0.251351
0.251266
0.251218
0.251158
0.251142
0.251153
0.251159
0.251207
0.251281
0.251301
0.251353
0.251407
0.251441
0.251427
0.251349
0.251884
0.251925
0.251719
0.251629
0.251676
0.251734
0.251827
0.251859
0.251965
0.251821
0.251671
0.25163
0.251615
0.251592
0.251586
0.251581
0.251636
0.251618
0.251619
0.25165
0.251671
0.251668
0.251679
0.251633
0.251632
0.25161
0.251997
0.250163
0.245528
0.244133
0.25189
0.25142
0.251281
0.251462
0.251426
0.251448
0.251462
0.251478
0.251482
0.251496
0.251525
0.251518
0.251519
0.251507
0.25151
0.251489
0.251477
0.251471
0.25144
0.251476
0.251421
0.25138
0.251408
0.251437
0.251761
0.251673
0.251688
0.251662
0.251639
0.251449
0.251424
0.251481
0.251481
0.251367
0.251219
0.251016
0.251043
0.250026
0.249236
0.248525
0.248113
0.24784
0.247967
0.248431
0.249066
0.249867
0.250817
0.250913
0.251054
0.251693
0.251565
0.251438
0.251394
0.251455
0.251606
0.251617
0.25164
0.251605
0.251556
0.251399
0.251482
0.251504
0.251805
0.25142
0.251584
0.251385
0.251321
0.251728
0.250945
0.250243
0.249785
0.249632
0.249632
0.249824
0.250047
0.250613
0.251257
0.251922
0.251621
0.251704
0.252039
0.251837
0.25179
0.251838
0.251877
0.251887
0.251869
0.251824
0.251771
0.251743
0.252022
0.251953
0.251943
0.252203
0.252092
0.25202
0.251999
0.25201
0.251442
0.251001
0.251109
0.251524
0.252281
0.251975
0.251983
0.251954
0.25195
0.252163
0.251839
0.251823
0.251865
0.251863
0.251829
0.251657
0.251577
0.251517
0.251506
0.251553
0.251529
0.251403
0.251962
0.251903
0.251945
0.251945
0.251918
0.25195
0.251863
0.251824
0.251839
0.251823
0.251826
0.251807
0.251869
0.251889
0.251982
0.252012
0.252046
0.252
0.25198
0.252014
0.252113
0.252205
0.252374
0.252336
0.252332
0.25237
0.252188
0.252119
0.2521
0.252092
0.250388
0.251551
0.251954
0.251297
0.250373
0.249132
0.248396
0.248326
0.248383
0.248538
0.248688
0.248832
0.248936
0.248981
0.24897
0.248885
0.248776
0.248657
0.24862
0.248738
0.249149
0.249821
0.250155
0.250142
0.250076
0.249999
0.249722
0.24977
0.250029
0.249543
0.20723
0.210862
0.218778
0.225596
0.229446
0.231308
0.231984
0.232354
0.232728
0.232226
0.230504
0.22805
0.229616
0.233511
0.216025
0.215095
0.215885
0.218054
0.222296
0.228166
0.232434
0.23403
0.234247
0.234458
0.235409
0.235712
0.232777
0.2253
0.221096
0.222113
0.224291
0.225667
0.225801
0.225256
0.224766
0.224529
0.223947
0.222696
0.220572
0.218781
0.218902
0.221437
0.225823
0.225253
0.246723
0.249395
0.249861
0.249904
0.249704
0.248966
0.246785
0.243657
0.239685
0.237964
0.237454
0.237531
0.240263
0.244061
0.245324
0.245369
0.244884
0.243794
0.242669
0.242004
0.241843
0.242115
0.242662
0.24331
0.243653
0.243632
0.24357
0.24381
0.245078
0.246488
0.249059
0.24891
0.249061
0.249764
0.250073
0.2497
0.249143
0.249021
0.249168
0.248909
0.247576
0.24617
0.246464
0.247288
0.247679
0.247565
0.247147
0.246594
0.246073
0.245841
0.245747
0.245713
0.245843
0.246066
0.246411
0.246766
0.247285
0.247726
0.248108
0.248372
0.250087
0.250173
0.250275
0.250507
0.249753
0.249494
0.249398
0.249344
0.2488
0.247978
0.247169
0.246465
0.245991
0.245796
0.24576
0.246035
0.246541
0.24711
0.247573
0.24821
0.248871
0.249643
0.250512
0.250185
0.250383
0.250779
0.25033
0.249209
0.250484
0.250726
0.251493
0.251459
0.251413
0.251363
0.2513
0.251298
0.251306
0.25145
0.251508
0.251514
0.251541
0.251533
0.25153
0.251418
0.251304
0.251252
0.25116
0.251074
0.251019
0.250988
0.250984
0.251024
0.251056
0.251141
0.251195
0.251295
0.251346
0.251417
0.251436
0.25137
0.251893
0.252085
0.251702
0.25142
0.251441
0.251667
0.251844
0.251854
0.251934
0.251739
0.251689
0.251661
0.251628
0.2516
0.251563
0.251579
0.251612
0.251572
0.251579
0.251587
0.251645
0.251614
0.251633
0.251678
0.251632
0.251627
0.251585
0.250932
0.248067
0.244601
0.251616
0.251188
0.25145
0.251415
0.251437
0.251459
0.251469
0.251476
0.251483
0.251484
0.251361
0.251326
0.251335
0.251317
0.251337
0.251339
0.251481
0.251462
0.25146
0.251441
0.251478
0.251424
0.251399
0.251444
0.251488
0.251717
0.251706
0.251661
0.251579
0.251441
0.251547
0.251662
0.251482
0.251283
0.251067
0.25125
0.249887
0.248631
0.247561
0.246715
0.246021
0.245635
0.245984
0.246659
0.247444
0.24853
0.249745
0.250861
0.250916
0.251307
0.251547
0.251585
0.251602
0.251595
0.25158
0.251611
0.251635
0.25164
0.251561
0.251546
0.251464
0.251604
0.251353
0.251768
0.251503
0.251323
0.251215
0.250683
0.249657
0.248985
0.248458
0.248325
0.248171
0.248429
0.248761
0.249365
0.250177
0.251067
0.251848
0.251615
0.251876
0.251865
0.251812
0.251823
0.251895
0.251866
0.251825
0.251807
0.251744
0.251751
0.251967
0.251894
0.251943
0.252111
0.252032
0.251988
0.251106
0.249765
0.249009
0.248617
0.24869
0.249091
0.250034
0.251092
0.252344
0.251843
0.251943
0.251908
0.251882
0.251852
0.251883
0.251864
0.251872
0.251788
0.25162
0.251499
0.251451
0.251448
0.25143
0.251374
0.251927
0.251886
0.251921
0.251938
0.251884
0.251835
0.251775
0.251716
0.251652
0.251654
0.251638
0.251679
0.251753
0.251805
0.251862
0.25195
0.252009
0.252064
0.252009
0.25201
0.252111
0.252209
0.252367
0.252307
0.252295
0.252326
0.252263
0.252158
0.252119
0.252097
0.250069
0.251315
0.251911
0.250733
0.249622
0.248665
0.24834
0.248383
0.248567
0.24878
0.249017
0.249244
0.249438
0.249502
0.249461
0.24935
0.249122
0.2489
0.248703
0.248603
0.248755
0.249475
0.25026
0.250235
0.249943
0.249931
0.250052
0.250044
0.249968
0.249065
0.20876
0.216681
0.225166
0.230092
0.232413
0.232908
0.232585
0.232386
0.232672
0.232991
0.231912
0.229347
0.229821
0.233546
0.21596
0.214844
0.215178
0.21588
0.218328
0.222875
0.227488
0.229442
0.229467
0.230258
0.232969
0.234231
0.231541
0.223394
0.22188
0.22427
0.226169
0.225834
0.224004
0.222509
0.221907
0.222214
0.222967
0.223034
0.221532
0.219313
0.218358
0.220304
0.225058
0.225533
0.246354
0.249361
0.250207
0.250671
0.250901
0.25025
0.247517
0.243822
0.23966
0.237858
0.237175
0.238356
0.243008
0.245488
0.245513
0.244671
0.242547
0.240866
0.239898
0.239512
0.239474
0.23985
0.24054
0.241526
0.242399
0.242976
0.243052
0.243373
0.244849
0.246427
0.249161
0.249029
0.249246
0.249961
0.250079
0.249408
0.248584
0.248666
0.249095
0.249006
0.247399
0.245704
0.246613
0.247637
0.247662
0.247136
0.246393
0.24566
0.244772
0.243902
0.243474
0.243545
0.244073
0.244917
0.245745
0.246215
0.246729
0.247388
0.247897
0.248277
0.250082
0.250172
0.250226
0.249395
0.249382
0.249418
0.249471
0.248998
0.248011
0.24696
0.246022
0.245215
0.244796
0.244532
0.244569
0.24486
0.245376
0.246099
0.246943
0.247556
0.248354
0.24919
0.250115
0.250154
0.250293
0.250754
0.250457
0.249375
0.250698
0.250933
0.251504
0.251483
0.251451
0.251323
0.251331
0.251332
0.251352
0.251436
0.25154
0.251525
0.251539
0.251568
0.25146
0.251351
0.251226
0.251129
0.25102
0.250998
0.25094
0.250923
0.25088
0.250862
0.250957
0.250983
0.251109
0.251198
0.251284
0.251391
0.251446
0.251388
0.251879
0.252089
0.251661
0.251347
0.251312
0.251646
0.251834
0.251854
0.251934
0.251732
0.251719
0.251679
0.251595
0.251612
0.251594
0.251585
0.251534
0.251542
0.251556
0.251547
0.251547
0.251633
0.251573
0.251648
0.25163
0.25164
0.2516
0.251286
0.248549
0.245282
0.251526
0.251239
0.25146
0.251416
0.251439
0.251467
0.251472
0.251481
0.251484
0.25134
0.251313
0.251306
0.251279
0.251279
0.251277
0.251284
0.251303
0.251341
0.251473
0.251452
0.251432
0.251462
0.251422
0.251436
0.251457
0.251789
0.251738
0.251642
0.251536
0.251436
0.25141
0.251447
0.251412
0.25121
0.250998
0.250516
0.24882
0.24744
0.246045
0.243796
0.242683
0.242149
0.242614
0.243915
0.246147
0.247363
0.248777
0.2501
0.251084
0.251103
0.251655
0.251553
0.251566
0.251558
0.251577
0.251594
0.251637
0.251842
0.251559
0.251542
0.251526
0.251376
0.251325
0.251541
0.251358
0.251288
0.251187
0.249841
0.24872
0.247897
0.247421
0.246918
0.246604
0.24707
0.247832
0.248363
0.249195
0.250252
0.251334
0.251573
0.251736
0.251864
0.251816
0.251813
0.251894
0.251837
0.251768
0.251747
0.251725
0.251753
0.251889
0.251857
0.251991
0.252139
0.251987
0.2511
0.249165
0.246371
0.243528
0.242183
0.242487
0.243982
0.247135
0.249285
0.25079
0.252425
0.251832
0.251878
0.251926
0.251867
0.251903
0.251883
0.251867
0.251851
0.251779
0.251601
0.25147
0.251392
0.251333
0.251341
0.251958
0.251844
0.251871
0.251858
0.251819
0.251769
0.251678
0.251614
0.251587
0.251598
0.251566
0.251553
0.251624
0.251663
0.251743
0.251854
0.251961
0.252043
0.252034
0.252009
0.252082
0.252182
0.252276
0.252319
0.252291
0.252312
0.252372
0.252188
0.252128
0.252071
0.249838
0.250752
0.251892
0.250418
0.249168
0.248485
0.248349
0.248513
0.24874
0.24904
0.249401
0.249672
0.249867
0.249974
0.249944
0.249784
0.249511
0.249198
0.248924
0.248705
0.248564
0.248852
0.250146
0.250497
0.249772
0.248845
0.249182
0.249481
0.249205
0.248362
0.21286
0.222197
0.229628
0.233456
0.234134
0.233763
0.233283
0.232504
0.232413
0.233002
0.232424
0.230423
0.230421
0.233613
0.216004
0.214713
0.214615
0.214255
0.214142
0.216404
0.219833
0.221911
0.222512
0.225053
0.230051
0.232846
0.230069
0.222475
0.223004
0.226178
0.226285
0.223396
0.220794
0.219981
0.21997
0.220418
0.221362
0.222348
0.221737
0.219569
0.2182
0.219716
0.224774
0.225646
0.245898
0.249094
0.250242
0.250882
0.25096
0.249746
0.24653
0.242447
0.239029
0.237449
0.236492
0.240289
0.24524
0.245835
0.244847
0.242286
0.240086
0.238972
0.238736
0.238742
0.238723
0.238932
0.239182
0.240185
0.241265
0.242161
0.242584
0.243081
0.244786
0.24651
0.249275
0.248959
0.249063
0.249721
0.249859
0.249232
0.24856
0.248428
0.248992
0.249025
0.24704
0.245401
0.246802
0.247843
0.247368
0.246515
0.24562
0.244185
0.242837
0.241909
0.241533
0.241593
0.242184
0.243143
0.244585
0.24573
0.246362
0.247101
0.247718
0.248214
0.250095
0.250178
0.250114
0.249141
0.249341
0.249593
0.249329
0.248535
0.247298
0.246132
0.245211
0.244528
0.244304
0.2443
0.244339
0.244359
0.244724
0.245381
0.24641
0.247129
0.247996
0.24879
0.249803
0.250109
0.250228
0.250305
0.250412
0.250171
0.250987
0.251167
0.251518
0.251509
0.251445
0.251417
0.251353
0.251373
0.251405
0.251508
0.251562
0.25153
0.251525
0.251522
0.251422
0.251297
0.251162
0.251135
0.251004
0.250927
0.250894
0.25077
0.250767
0.250782
0.250875
0.250943
0.250998
0.251109
0.251288
0.251367
0.251444
0.251414
0.251892
0.252091
0.251673
0.251344
0.251273
0.251468
0.251794
0.251833
0.25196
0.251746
0.25172
0.251676
0.251641
0.25165
0.251551
0.251593
0.251573
0.25165
0.251699
0.251708
0.251674
0.251636
0.251645
0.251612
0.251694
0.251647
0.251615
0.251393
0.248798
0.246075
0.251401
0.251432
0.251445
0.251465
0.251438
0.251469
0.251478
0.251488
0.251476
0.251322
0.251306
0.251274
0.251273
0.251282
0.25127
0.251256
0.251285
0.251295
0.251476
0.251465
0.251454
0.25141
0.25145
0.251435
0.251436
0.251507
0.251778
0.251646
0.251539
0.251435
0.25141
0.251662
0.251303
0.251121
0.250963
0.249934
0.248079
0.246628
0.243873
0.242145
0.240852
0.240458
0.240839
0.241877
0.244171
0.246552
0.248039
0.249471
0.25064
0.250994
0.251356
0.251791
0.251553
0.251534
0.251548
0.251571
0.251793
0.251739
0.251546
0.25148
0.251604
0.251161
0.251316
0.251547
0.251366
0.251222
0.250684
0.249125
0.248116
0.246933
0.246135
0.245598
0.245359
0.245612
0.246326
0.247751
0.248527
0.249591
0.250813
0.251696
0.251729
0.251839
0.251774
0.251826
0.251866
0.251794
0.251752
0.251735
0.251706
0.2517
0.25173
0.251857
0.252137
0.252025
0.251946
0.249762
0.246359
0.24201
0.238339
0.236485
0.236483
0.238314
0.242324
0.246813
0.249607
0.251458
0.251883
0.251837
0.251968
0.251839
0.251894
0.251869
0.251886
0.25187
0.251868
0.251827
0.251788
0.25161
0.251522
0.251423
0.251951
0.251865
0.251891
0.251833
0.251772
0.251698
0.251561
0.251486
0.251477
0.251504
0.251493
0.251465
0.251542
0.251573
0.251647
0.251779
0.251897
0.251982
0.252087
0.252022
0.252047
0.252138
0.252215
0.252361
0.252318
0.252327
0.252369
0.252202
0.252131
0.252073
0.249772
0.249995
0.251915
0.250455
0.249022
0.248442
0.248377
0.248594
0.248883
0.249256
0.249653
0.250001
0.250295
0.2504
0.250371
0.250201
0.249836
0.249472
0.249091
0.248858
0.248629
0.248517
0.249671
0.250773
0.250507
0.248682
0.248071
0.248222
0.248238
0.24817
0.216674
0.226475
0.233062
0.2344
0.233775
0.232868
0.232474
0.232576
0.232664
0.232901
0.232428
0.230572
0.230809
0.23408
0.216077
0.214666
0.214005
0.213186
0.211554
0.210942
0.21167
0.213033
0.214871
0.21993
0.22772
0.231758
0.228855
0.221865
0.224362
0.22708
0.224579
0.220576
0.219232
0.219842
0.220534
0.220694
0.221001
0.22186
0.221386
0.219412
0.217986
0.219685
0.225135
0.225652
0.245299
0.248344
0.249787
0.250389
0.25006
0.24779
0.244787
0.240433
0.237829
0.236337
0.236665
0.243191
0.245994
0.245556
0.243417
0.240433
0.238928
0.238611
0.238732
0.23886
0.238809
0.238826
0.238754
0.239487
0.24044
0.241581
0.242208
0.24299
0.244992
0.246644
0.249186
0.249013
0.248961
0.24956
0.249715
0.249127
0.248413
0.248477
0.24913
0.24882
0.24651
0.24519
0.247209
0.247941
0.247071
0.245973
0.244604
0.242717
0.241422
0.240791
0.240617
0.240661
0.241158
0.242036
0.24357
0.245387
0.246136
0.246927
0.247654
0.248164
0.250097
0.250164
0.249281
0.249055
0.249356
0.249586
0.249185
0.248251
0.247071
0.245767
0.244868
0.244449
0.244336
0.244376
0.24422
0.244337
0.244545
0.244951
0.246054
0.24691
0.247807
0.248592
0.249605
0.250651
0.250198
0.250271
0.250078
0.250913
0.251468
0.251575
0.251522
0.251518
0.251495
0.251451
0.251421
0.251447
0.251502
0.251544
0.251572
0.251525
0.251555
0.251466
0.251344
0.251244
0.251148
0.251118
0.250997
0.250891
0.250857
0.250717
0.250718
0.250763
0.250784
0.250889
0.251013
0.251124
0.251251
0.251366
0.251411
0.251425
0.251903
0.251934
0.251712
0.251359
0.251255
0.251443
0.251756
0.2518
0.251978
0.251764
0.251729
0.252317
0.25166
0.251647
0.2516
0.25164
0.251553
0.251666
0.251693
0.251694
0.251639
0.251632
0.251669
0.251608
0.251692
0.251658
0.251624
0.251356
0.248852
0.246783
0.251282
0.251414
0.251412
0.251444
0.25143
0.251468
0.251486
0.251488
0.251474
0.251326
0.251291
0.251257
0.251252
0.251246
0.251248
0.251241
0.251289
0.25128
0.251334
0.251477
0.251457
0.25143
0.251468
0.251447
0.251435
0.251501
0.251485
0.251595
0.251708
0.251429
0.251424
0.251559
0.251249
0.251182
0.250968
0.249707
0.247726
0.24632
0.243376
0.241533
0.240226
0.239988
0.240392
0.241068
0.243374
0.245966
0.247677
0.24903
0.250319
0.250931
0.251092
0.251448
0.251611
0.251803
0.251556
0.251577
0.25173
0.251725
0.251492
0.251442
0.251337
0.251032
0.251337
0.251573
0.251375
0.251224
0.250408
0.248825
0.247788
0.246111
0.245422
0.245011
0.244986
0.245148
0.245657
0.246764
0.248184
0.249291
0.25051
0.251558
0.251645
0.251823
0.251739
0.251816
0.251845
0.251708
0.251681
0.251704
0.251697
0.251692
0.251724
0.251908
0.252161
0.251996
0.251111
0.248928
0.244037
0.239596
0.23555
0.233766
0.233707
0.235166
0.238937
0.243998
0.248964
0.250753
0.251859
0.251894
0.251964
0.251898
0.251864
0.251874
0.251823
0.251775
0.251816
0.251802
0.251788
0.251805
0.251845
0.251818
0.251981
0.251846
0.251827
0.251801
0.251702
0.251624
0.25154
0.251526
0.251394
0.251417
0.25138
0.251461
0.25153
0.251558
0.251609
0.251739
0.251796
0.251941
0.252061
0.252051
0.252021
0.252086
0.252152
0.252224
0.252371
0.252357
0.25228
0.25219
0.25211
0.252078
0.25044
0.249603
0.25051
0.250922
0.249345
0.248499
0.248397
0.248627
0.248957
0.249392
0.249782
0.250217
0.250481
0.250636
0.250589
0.250449
0.250112
0.249659
0.249199
0.248942
0.248747
0.248484
0.249021
0.2508
0.251343
0.250052
0.248342
0.248282
0.248633
0.249409
0.218802
0.229777
0.234466
0.234191
0.232737
0.231347
0.230886
0.231377
0.232137
0.232508
0.232122
0.230435
0.230988
0.234002
0.232503
0.226636
0.217786
0.215213
0.213831
0.212745
0.210842
0.208347
0.207116
0.207551
0.209978
0.216592
0.226505
0.2309
0.227421
0.221913
0.225734
0.227055
0.222562
0.219131
0.219301
0.220844
0.221675
0.221463
0.221331
0.221578
0.220773
0.218814
0.217809
0.220294
0.225729
0.225609
0.225771
0.23287
0.244317
0.247355
0.248714
0.248985
0.247859
0.245434
0.24157
0.23813
0.235764
0.235342
0.238207
0.245242
0.246116
0.24507
0.242121
0.239624
0.238667
0.238709
0.238863
0.239075
0.239095
0.23894
0.23877
0.239206
0.240079
0.241248
0.241988
0.243456
0.245419
0.246771
0.246662
0.24821
0.249318
0.249152
0.24894
0.249154
0.249206
0.248785
0.24842
0.248715
0.24921
0.248664
0.24598
0.245208
0.24756
0.247796
0.246638
0.245669
0.243726
0.242009
0.240981
0.240484
0.240303
0.240239
0.240702
0.241657
0.243173
0.245106
0.246074
0.246935
0.247596
0.2481
0.250135
0.250234
0.250153
0.249653
0.248695
0.249176
0.249403
0.2496
0.249171
0.24824
0.246973
0.24585
0.24493
0.244512
0.244452
0.244468
0.244402
0.244418
0.244696
0.245145
0.246068
0.246876
0.247774
0.248561
0.249641
0.25066
0.250189
0.250752
0.25107
0.25147
0.251469
0.251484
0.251502
0.251524
0.251541
0.251544
0.25153
0.251514
0.251509
0.251522
0.251539
0.251557
0.251574
0.251572
0.251516
0.251413
0.251295
0.251242
0.251185
0.251136
0.251041
0.250941
0.250867
0.250778
0.250735
0.25078
0.250809
0.250875
0.251025
0.251131
0.251252
0.251376
0.251432
0.251436
0.251709
0.251771
0.251866
0.251942
0.251724
0.251442
0.251288
0.251448
0.251745
0.251792
0.251998
0.251767
0.251742
0.252274
0.251671
0.251636
0.251635
0.251588
0.251616
0.251575
0.251733
0.251713
0.251673
0.251656
0.251597
0.251641
0.251636
0.251669
0.251639
0.251148
0.248789
0.248389
0.251574
0.251168
0.251221
0.251154
0.251166
0.251416
0.251416
0.251464
0.251488
0.251483
0.251479
0.251329
0.251293
0.251257
0.251225
0.251236
0.251236
0.251259
0.251266
0.251283
0.251324
0.251476
0.251464
0.25143
0.2514
0.251451
0.251428
0.251477
0.251443
0.251398
0.251398
0.251393
0.251425
0.251433
0.251456
0.251606
0.25132
0.251205
0.250967
0.249924
0.247936
0.246443
0.244074
0.24212
0.240837
0.24052
0.240987
0.241613
0.243889
0.245927
0.247622
0.248825
0.250225
0.251305
0.251015
0.251151
0.25145
0.251768
0.25155
0.251498
0.251871
0.251806
0.251462
0.251473
0.251397
0.251214
0.251076
0.250935
0.251294
0.251621
0.25137
0.25125
0.250429
0.248749
0.247765
0.246002
0.245197
0.244928
0.24471