/*--------------------------------*- C++ -*----------------------------------*\
| =========                 |                                                 |
| \\      /  F ield         | OpenFOAM: The Open Source CFD Toolbox           |
|  \\    /   O peration     | Version:  2.1.1                                 |
|   \\  /    A nd           | Web:      www.OpenFOAM.org                      |
|    \\/     M anipulation  |                                                 |
\*---------------------------------------------------------------------------*/
FoamFile
{
    version     2.0;
    format      ascii;
    class       volScalarField;
    location    "0.007550000";
    object      O;
}
// * * * * * * * * * * * * * * * * * * * * * * * * * * * * * * * * * * * * * //

dimensions      [0 0 0 0 0 0 0];

internalField   nonuniform List<scalar> 
12384
(
0.000963469
0.000955104
0.000941244
0.000917284
0.000902545
0.000886987
0.000878705
0.000877079
0.000879365
0.000880498
0.000890318
0.000888197
0.000895371
0.000908923
0.000407427
0.000450108
0.00044683
0.000445484
0.000470012
0.000516222
0.000526833
0.000522886
0.000509672
0.000502879
0.000493046
0.000487576
0.000483042
0.000481866
0.000482712
0.000491904
0.000495825
0.000492186
0.00049177
0.000491089
0.000496105
0.000495431
0.000497465
0.000503378
0.000500412
0.000495235
0.000478128
0.000444158
0.000424464
0.00033358
0.000203697
0.000127115
0.000121201
0.000138489
0.000155895
0.00017375
0.000186397
0.000195612
0.000206683
0.000219411
0.000228538
0.000236482
0.000243272
0.000248993
0.000251782
0.000251163
0.000249255
0.000246765
0.000244371
0.000243279
0.000243207
0.000246226
0.000247681
0.00025048
0.000252003
0.000253238
0.000242673
0.000199626
0.000225463
0.000258546
0.000125622
0.000108275
0.000137608
0.000139348
0.000138802
0.000137026
0.000135902
0.000139241
0.000142688
0.000146302
0.00014921
0.000151119
0.000151916
0.000151376
0.000150301
0.000149487
0.000147906
0.000143697
0.000140969
0.000139351
0.000134361
0.000131571
0.000130316
0.000128085
0.000126481
0.000124695
0.00012457
0.000124936
0.00012497
0.000131694
9.22033e-05
8.59705e-05
8.10779e-05
8.01158e-05
8.01428e-05
8.0901e-05
8.40594e-05
8.66447e-05
8.9622e-05
9.28894e-05
8.99655e-05
8.86672e-05
9.24295e-05
8.8478e-05
9.17049e-05
9.02972e-05
9.10627e-05
9.33232e-05
9.41963e-05
9.36385e-05
9.004e-05
8.64671e-05
5.46227e-05
7.09976e-05
6.72682e-05
6.7293e-05
6.84598e-05
6.93425e-05
6.98738e-05
6.98687e-05
2.06965e-05
2.28275e-05
2.20784e-05
2.0673e-05
1.71361e-05
1.67465e-05
1.60274e-05
1.62878e-05
1.86771e-05
1.85434e-05
1.83762e-05
1.83776e-05
1.83814e-05
1.83723e-05
1.83263e-05
1.83451e-05
1.80417e-05
1.82985e-05
1.76957e-05
1.78732e-05
1.74393e-05
1.87142e-05
1.82643e-05
1.91966e-05
2.08756e-05
2.14981e-05
2.28412e-05
2.27287e-05
2.73905e-05
3.06643e-05
2.98101e-05
3.00059e-05
2.93601e-05
2.53183e-05
2.03967e-05
1.25489e-05
1.26405e-05
1.42719e-05
1.62538e-05
1.9646e-05
1.68817e-05
2.00425e-05
2.80412e-05
2.9315e-05
3.02247e-05
3.00049e-05
2.88695e-05
2.9866e-05
3.42179e-05
3.44519e-05
3.5514e-05
3.43331e-05
3.70021e-05
3.93354e-05
4.1912e-05
4.45031e-05
0.000168447
0.000191764
0.000180581
0.000166773
2.00983e-05
1.42519e-05
1.29725e-05
6.9689e-06
6.39029e-06
6.66621e-06
7.04282e-06
7.416e-06
6.98416e-06
7.29028e-06
9.5972e-06
1.0409e-05
8.79879e-06
8.82414e-06
1.03187e-05
6.55258e-06
8.86889e-06
1.01917e-05
6.91028e-06
8.29727e-06
1.79259e-05
2.47294e-05
2.49654e-05
2.48978e-05
2.50355e-05
2.50442e-05
2.4874e-05
2.4453e-05
2.44191e-05
2.50638e-05
3.50523e-05
3.92446e-05
4.17378e-05
4.28566e-05
4.39418e-05
4.47216e-05
4.4847e-05
4.43511e-05
4.37796e-05
4.53371e-05
4.8156e-05
4.97854e-05
5.20967e-05
4.92176e-05
5.24694e-05
5.60908e-05
5.46364e-05
4.50683e-05
6.94669e-06
8.83622e-06
9.53225e-06
5.2485e-06
5.87891e-06
6.81912e-06
7.94453e-06
8.76451e-06
8.73089e-06
6.32959e-06
7.29576e-06
4.60721e-06
3.08341e-05
3.50583e-05
3.59756e-05
3.3973e-05
3.16065e-05
2.98256e-05
2.91361e-05
3.26678e-05
3.36064e-05
3.08655e-05
3.46949e-05
3.06115e-05
3.45917e-05
3.02383e-05
3.40008e-05
3.41182e-05
3.58187e-05
3.76456e-05
3.11764e-05
1.16078e-05
1.01149e-05
9.85631e-06
9.7577e-06
9.38023e-06
9.40871e-06
8.93827e-06
8.77108e-06
8.33058e-06
7.91524e-06
7.18762e-06
1.19808e-05
1.31779e-05
1.15932e-05
9.43642e-06
1.62632e-05
1.61566e-05
8.79267e-06
8.61301e-06
7.66838e-06
8.66119e-06
9.842e-06
1.37116e-05
1.44704e-05
2.0153e-05
2.01466e-05
1.12704e-05
4.79094e-06
4.43925e-06
4.41269e-06
5.13238e-06
5.00685e-06
5.13469e-06
5.41063e-06
5.60892e-06
5.50457e-06
5.97552e-06
6.11548e-06
5.82235e-06
6.2125e-06
5.62327e-06
6.04331e-06
6.49462e-06
5.08193e-06
5.00986e-06
4.7124e-06
6.09053e-06
5.20955e-06
5.22352e-06
4.48417e-06
5.42478e-06
4.1341e-06
5.23295e-06
5.07986e-06
4.89693e-06
4.68984e-06
4.50773e-06
3.06031e-06
2.86785e-06
2.89281e-06
2.91156e-06
2.97135e-06
3.05312e-06
3.24571e-06
3.42058e-06
4.81793e-06
3.8836e-06
4.14334e-06
4.60866e-06
4.76357e-06
4.46689e-06
2.91544e-06
3.09557e-06
3.2622e-06
3.18088e-06
2.77138e-06
2.45966e-06
1.99679e-06
6.75663e-07
4.29284e-07
4.03902e-07
3.90826e-07
3.7608e-07
3.778e-07
3.59003e-07
3.84018e-07
3.70711e-07
4.0045e-07
3.93869e-07
4.20963e-07
4.19801e-07
4.48354e-07
4.4523e-07
4.23724e-07
4.42699e-07
4.7421e-07
2.40035e-07
3.45768e-07
4.56014e-07
8.9702e-07
7.99145e-07
0.000943307
0.000906681
0.000837732
0.000798582
0.000784022
0.000782485
0.000790265
0.000795323
0.000805451
0.000822521
0.000826024
0.000860129
0.000875632
0.000901512
0.000419169
0.000451945
0.0004456
0.000462347
0.000525261
0.000569021
0.000559305
0.000521841
0.000486096
0.000465472
0.000454138
0.000459956
0.000459855
0.000467596
0.000483951
0.000476008
0.000474598
0.000476938
0.000475487
0.000480382
0.000484854
0.000492923
0.000503271
0.000503598
0.000509093
0.000507646
0.000491668
0.000466095
0.000443491
0.000407057
0.000191417
0.000122837
0.000121619
0.000144984
0.000171496
0.000194875
0.000229865
0.000260621
0.000286566
0.000310024
0.000319768
0.000324389
0.000320461
0.000309598
0.000292617
0.000281211
0.000265077
0.000252213
0.000249129
0.000245684
0.000245801
0.000248313
0.000251639
0.000256398
0.000259684
0.000261525
0.000257376
0.000229557
0.0002019
0.00020495
0.000119872
0.0001139
0.000136961
0.000133591
0.00012879
0.000125025
0.000125475
0.000128966
0.000136813
0.000148172
0.000160419
0.000170693
0.000176433
0.000176551
0.000172534
0.00016679
0.000161024
0.000158847
0.000155975
0.000151169
0.000150016
0.000149334
0.000146064
0.000142342
0.000137594
0.000133632
0.000129575
0.000128016
0.000127976
0.000127094
9.24926e-05
8.65034e-05
8.26475e-05
7.9889e-05
7.92594e-05
8.51541e-05
9.24487e-05
9.99672e-05
8.1713e-05
8.43261e-05
8.89654e-05
9.58145e-05
9.12939e-05
9.32136e-05
9.74321e-05
9.65544e-05
9.39723e-05
8.9804e-05
8.48005e-05
7.64659e-05
9.67153e-05
8.98061e-05
8.37433e-05
7.60322e-05
6.70467e-05
6.83092e-05
7.66152e-05
5.58428e-05
7.45412e-05
6.78011e-05
2.13704e-05
2.27535e-05
1.86314e-05
1.72759e-05
1.67876e-05
1.61503e-05
1.50072e-05
1.34631e-05
1.57338e-05
1.4903e-05
1.45793e-05
1.47343e-05
1.54054e-05
1.62217e-05
1.72308e-05
1.83423e-05
1.95209e-05
2.00943e-05
2.03868e-05
2.07967e-05
2.09442e-05
2.07306e-05
2.13244e-05
2.17827e-05
2.19824e-05
2.20174e-05
2.29265e-05
2.21052e-05
2.53182e-05
2.93957e-05
3.0428e-05
2.82998e-05
2.06498e-05
1.5479e-05
1.32958e-05
1.35814e-05
1.44335e-05
1.60154e-05
1.83713e-05
1.68198e-05
2.36832e-05
2.91292e-05
3.25415e-05
3.48274e-05
3.51842e-05
3.8007e-05
3.53387e-05
3.76614e-05
3.65841e-05
3.67224e-05
3.70327e-05
3.74765e-05
3.88492e-05
3.74227e-05
3.97885e-05
4.40331e-05
8.61517e-05
0.000166816
0.000182386
0.000154514
1.45421e-05
1.46299e-05
1.11779e-05
1.22716e-05
7.29319e-06
9.52107e-06
1.09652e-05
1.45362e-05
1.4092e-05
1.26264e-05
1.21129e-05
1.08444e-05
1.03967e-05
1.01052e-05
1.11058e-05
1.15438e-05
1.24012e-05
9.03005e-06
9.92159e-06
1.14217e-05
1.44512e-05
1.93236e-05
2.52374e-05
2.6337e-05
2.72158e-05
2.75229e-05
2.70774e-05
2.61038e-05
2.19375e-05
2.31326e-05
3.93594e-05
3.65099e-05
3.84006e-05
3.92372e-05
4.17867e-05
4.53515e-05
4.80262e-05
5.52635e-05
5.69487e-05
5.72736e-05
5.99478e-05
5.98466e-05
6.00901e-05
6.119e-05
6.08918e-05
5.60686e-05
5.78457e-05
5.59692e-05
2.38563e-05
6.25529e-06
8.46741e-06
8.41254e-06
8.33227e-06
8.89751e-06
6.19963e-06
9.77805e-06
1.24141e-05
1.15627e-05
9.22145e-06
6.02154e-06
3.06946e-05
3.56558e-05
3.41509e-05
2.68603e-05
2.38913e-05
2.30034e-05
2.4977e-05
3.24104e-05
3.44752e-05
3.68159e-05
3.80052e-05
3.77396e-05
3.84119e-05
3.91235e-05
3.89977e-05
3.95619e-05
3.5712e-05
3.66165e-05
3.61083e-05
1.2561e-05
1.00213e-05
9.90535e-06
1.00657e-05
9.71357e-06
9.94665e-06
9.36534e-06
8.97065e-06
8.57442e-06
8.39428e-06
7.3506e-06
9.33502e-06
1.00885e-05
1.44066e-05
1.37802e-05
1.42229e-05
1.45106e-05
1.19507e-05
1.16652e-05
1.16655e-05
1.23741e-05
1.28634e-05
1.45975e-05
1.64126e-05
1.63927e-05
1.97863e-05
1.65277e-05
1.15392e-05
3.4519e-06
4.66248e-06
4.94311e-06
1.31344e-06
2.70709e-06
1.89336e-06
5.35504e-06
4.88157e-06
5.29642e-06
5.56743e-06
6.01869e-06
6.01712e-06
5.53997e-06
4.60658e-06
5.75725e-06
5.14618e-06
5.21793e-06
5.09912e-06
6.16987e-06
5.63279e-06
5.17306e-06
5.27208e-06
4.57651e-06
4.26915e-06
4.18706e-06
3.70074e-06
3.34165e-06
2.84108e-06
2.45257e-06
2.0603e-06
1.89792e-06
1.89466e-06
2.11162e-06
2.61801e-06
4.56913e-06
5.1047e-06
5.22207e-06
5.20564e-06
5.18326e-06
4.09013e-06
4.55172e-06
4.76956e-06
4.61293e-06
1.0429e-06
2.89308e-06
2.98021e-06
3.88602e-06
2.85737e-06
9.43612e-07
7.8615e-07
3.34493e-07
4.32149e-07
4.241e-07
4.26916e-07
4.37128e-07
4.46483e-07
4.71487e-07
4.72053e-07
4.77652e-07
3.32031e-07
3.26148e-07
3.49349e-07
5.19184e-07
5.86848e-07
6.16831e-07
4.86516e-07
4.81397e-07
2.41376e-07
2.4482e-07
3.05383e-07
4.25669e-07
8.98701e-07
8.5337e-07
0.00088045
0.000799676
0.000746044
0.000753134
0.000769728
0.000789974
0.000816139
0.00082362
0.000824042
0.00081656
0.000807314
0.000812158
0.000847131
0.000891111
0.000422258
0.000450072
0.000444049
0.00047776
0.000572105
0.000600307
0.000564324
0.000514545
0.000482336
0.000462635
0.000450925
0.000449731
0.000452034
0.00046662
0.000468334
0.000466249
0.00047033
0.00047501
0.000477055
0.000486218
0.00049534
0.000501954
0.000511333
0.00051341
0.00051884
0.00051845
0.00050989
0.000487024
0.000459751
0.000423276
0.000189821
0.00011632
0.000117166
0.000140165
0.000173272
0.000212169
0.000259805
0.000306927
0.000353876
0.000377754
0.000384734
0.000382053
0.00036885
0.000337946
0.000295753
0.000267721
0.00025087
0.000240191
0.000236178
0.00023589
0.000237469
0.00024197
0.000246081
0.000254504
0.000260375
0.000265616
0.000268186
0.000249247
0.000216754
0.000195423
0.000115361
0.000126583
0.000131278
0.000121291
0.000108325
0.000102324
0.000105341
0.000112349
0.000122116
0.000137219
0.00016002
0.000172699
0.000183382
0.000178127
0.000173194
0.000163169
0.00016032
0.000159136
0.000156211
0.000158562
0.00016179
0.000168902
0.00016723
0.00016488
0.000152847
0.000146238
0.000140084
0.000134236
0.000131391
0.000130787
9.23734e-05
8.79438e-05
8.42508e-05
8.05057e-05
8.47767e-05
9.53847e-05
8.51152e-05
9.84886e-05
0.000103544
0.000108565
0.000119611
0.000121098
0.000121955
0.000133165
0.00013136
0.000130623
0.000126961
0.000120519
0.000111559
0.000100134
8.46529e-05
9.5803e-05
9.08536e-05
8.39865e-05
7.48253e-05
5.00315e-05
8.71672e-05
0.00010313
8.37847e-05
7.75643e-05
2.13528e-05
2.21433e-05
1.77382e-05
1.67359e-05
1.61463e-05
1.53088e-05
1.35811e-05
1.51177e-05
1.36665e-05
1.27568e-05
1.52861e-05
1.56157e-05
1.67393e-05
1.62854e-05
1.9165e-05
2.19641e-05
2.16397e-05
2.28631e-05
2.45706e-05
2.5062e-05
2.51593e-05
2.46391e-05
2.35224e-05
2.35556e-05
2.25158e-05
2.15829e-05
2.12529e-05
2.17243e-05
2.39155e-05
2.81429e-05
3.01155e-05
2.43827e-05
1.57619e-05
8.44567e-06
9.45125e-06
1.12094e-05
1.36937e-05
1.62861e-05
1.29521e-05
2.28738e-05
3.04178e-05
3.5474e-05
3.86882e-05
3.92469e-05
4.17737e-05
3.95493e-05
3.83276e-05
3.90225e-05
3.87283e-05
3.83926e-05
3.88417e-05
3.89632e-05
3.90415e-05
3.98424e-05
4.10229e-05
4.08327e-05
4.47999e-05
0.000116111
0.000175521
0.000162227
1.62041e-05
1.42616e-05
1.19848e-05
7.5337e-06
1.13557e-05
1.6268e-05
1.58602e-05
1.44524e-05
1.30253e-05
1.13642e-05
1.02712e-05
1.18525e-05
1.13843e-05
1.13583e-05
8.74006e-06
1.00519e-05
1.12053e-05
1.23813e-05
8.96144e-06
9.43206e-06
1.11958e-05
1.48461e-05
1.94436e-05
2.56453e-05
1.76035e-05
1.93806e-05
1.75303e-05
1.70448e-05
2.51547e-05
2.06084e-05
3.30388e-05
3.43996e-05
3.34867e-05
3.64114e-05
4.27599e-05
4.94003e-05
5.95781e-05
4.42652e-05
5.94251e-05
7.30742e-05
8.07498e-05
8.61175e-05
8.37131e-05
7.67245e-05
6.7739e-05
5.1606e-05
6.36585e-05
5.90751e-05
4.07597e-05
1.85236e-05
9.03537e-06
8.15358e-06
8.01796e-06
8.59278e-06
5.61787e-06
9.79239e-06
1.31354e-05
1.52622e-05
1.25301e-05
7.72572e-06
3.03231e-05
3.49677e-05
2.72459e-05
1.97499e-05
2.0608e-05
2.42336e-05
3.80409e-05
4.11382e-05
4.96672e-05
3.09172e-05
4.30272e-05
4.94426e-05
5.15308e-05
4.28571e-05
3.95494e-05
2.96922e-05
4.26726e-05
4.06321e-05
3.77067e-05
2.7043e-05
1.46279e-05
1.02191e-05
9.63016e-06
1.07542e-05
1.19469e-05
1.02249e-05
9.21779e-06
8.60959e-06
8.64957e-06
8.07651e-06
1.16014e-05
1.30998e-05
1.27399e-05
1.38724e-05
6.48689e-06
1.53416e-05
1.76351e-05
2.38169e-05
2.63484e-05
2.64946e-05
2.55102e-05
2.53842e-05
2.03075e-05
2.06384e-05
2.24331e-05
2.1884e-05
1.55839e-05
1.04445e-05
4.0584e-06
4.99856e-06
3.2272e-06
2.11187e-06
4.76113e-06
5.11504e-06
4.78479e-06
5.25501e-06
5.05677e-06
5.43142e-06
5.96808e-06
5.29338e-06
5.72404e-06
5.48412e-06
5.71117e-06
5.97839e-06
5.36065e-06
5.57305e-06
5.47935e-06
5.16312e-06
5.45154e-06
5.57729e-06
5.0627e-06
4.84773e-06
4.27581e-06
5.09653e-06
4.41535e-06
3.55411e-06
2.82855e-06
2.1408e-06
2.04565e-06
4.16385e-06
5.41009e-06
6.63495e-06
7.73013e-06
8.24627e-06
8.01879e-06
7.00088e-06
6.05149e-06
5.76078e-06
4.72908e-06
4.58681e-06
1.48794e-06
2.80508e-06
3.61997e-06
3.13304e-06
1.05386e-06
1.0862e-06
4.00346e-07
4.5531e-07
4.57724e-07
4.36401e-07
4.93973e-07
3.55159e-07
4.76101e-07
5.01362e-07
5.53633e-07
5.09465e-07
4.41071e-07
4.0612e-07
5.1749e-07
5.52265e-07
7.34659e-07
6.08164e-07
7.9007e-07
8.07296e-07
2.75844e-07
7.30966e-07
4.53573e-07
7.53934e-07
6.80439e-07
8.54385e-07
0.00076689
0.000725198
0.00075163
0.000777752
0.000781755
0.000763686
0.000749578
0.000775712
0.000819204
0.000839991
0.000826794
0.000803089
0.000824859
0.000876153
0.000429954
0.000453073
0.000444155
0.000478389
0.000588051
0.000633529
0.000601857
0.000572578
0.000546364
0.000527212
0.000490294
0.000461328
0.000453101
0.0004752
0.00046138
0.000464695
0.000471714
0.000481892
0.000489618
0.000503015
0.00051677
0.000517939
0.00053019
0.000534634
0.000538294
0.000536835
0.000524844
0.000501358
0.000467463
0.00043504
0.000187272
0.000110089
0.000104977
0.00012067
0.000148634
0.000185075
0.00024129
0.000307968
0.000365189
0.000396826
0.000403375
0.000395144
0.00036161
0.000306365
0.000261819
0.000241428
0.000234438
0.000237311
0.000245871
0.000253148
0.000257054
0.000258312
0.000257886
0.000259617
0.00026249
0.000268155
0.000272125
0.00026391
0.000236943
0.000197217
0.000122149
0.000124034
0.000123314
0.000105679
9.16527e-05
9.17421e-05
9.93966e-05
0.0001072
0.000114452
0.000128294
0.000161085
0.000188378
0.000196235
0.000177203
0.00016381
0.000159591
0.000160505
0.000162189
0.00017897
0.000188312
0.000191068
0.00018983
0.000189119
0.000184292
0.000176832
0.000170193
0.000153122
0.000143834
0.000137308
0.000133838
9.27338e-05
8.9459e-05
8.48583e-05
8.04357e-05
7.04502e-05
9.10029e-05
0.000104025
0.000109906
0.000119274
0.000122844
0.000138958
0.000157801
0.000168307
0.00017756
0.00017405
0.00017166
0.000165972
0.000154565
0.000139745
0.000123299
0.000105177
8.24654e-05
9.26736e-05
8.66119e-05
8.19982e-05
5.78615e-05
8.34251e-05
0.000111223
8.70388e-05
5.1509e-05
2.10621e-05
2.16605e-05
1.70986e-05
1.61291e-05
1.13025e-05
1.08609e-05
1.32772e-05
1.1713e-05
1.40494e-05
1.28438e-05
1.50002e-05
1.58161e-05
1.79711e-05
1.93917e-05
2.15016e-05
2.50251e-05
2.76085e-05
2.75303e-05
2.89567e-05
2.92179e-05
2.8791e-05
2.89155e-05
2.78263e-05
2.57665e-05
2.64868e-05
2.48302e-05
2.30526e-05
2.21598e-05
2.33022e-05
2.71337e-05
3.01664e-05
2.04179e-05
1.29384e-05
4.78402e-06
4.16206e-06
9.50541e-06
1.39753e-05
1.69302e-05
1.55965e-05
2.67915e-05
3.76592e-05
4.11616e-05
4.21061e-05
4.25106e-05
4.10075e-05
4.02109e-05
3.73795e-05
3.73308e-05
3.69534e-05
3.58872e-05
3.55369e-05
3.62219e-05
3.65351e-05
3.97097e-05
4.04479e-05
4.20949e-05
2.83814e-05
7.56637e-05
0.000151775
0.000166533
1.32897e-05
8.84989e-06
1.25374e-05
1.16541e-05
1.69818e-05
1.62751e-05
1.47075e-05
1.26713e-05
1.08509e-05
8.91133e-06
6.76795e-06
5.93393e-06
5.37187e-06
5.69386e-06
6.09883e-06
7.71448e-06
9.39545e-06
1.06566e-05
1.19238e-05
8.53924e-06
9.31512e-06
1.16459e-05
1.52285e-05
2.27964e-05
1.46042e-05
2.01147e-05
1.82304e-05
1.86783e-05
1.87877e-05
2.20192e-05
3.38286e-05
2.85923e-05
2.93288e-05
3.73774e-05
4.72085e-05
6.01234e-05
5.51161e-05
8.42656e-05
0.000105994
0.000126366
0.000137842
0.000146858
0.000143208
0.000128837
0.000110632
8.8526e-05
6.19736e-05
6.55274e-05
5.55618e-05
1.9651e-05
1.22115e-05
8.27324e-06
7.96734e-06
8.62218e-06
8.4267e-06
1.30715e-05
1.63465e-05
1.79729e-05
1.55164e-05
9.71033e-06
3.33292e-05
3.12502e-05
1.05611e-05
2.77335e-05
2.37303e-05
3.93444e-05
4.68399e-05
3.35663e-05
5.37285e-05
7.48941e-05
8.67158e-05
9.13071e-05
9.05341e-05
8.50606e-05
8.14504e-05
6.3423e-05
4.63106e-05
2.9128e-05
4.20629e-05
3.48931e-05
1.31387e-05
1.07281e-05
9.90653e-06
1.1474e-05
1.38653e-05
1.16734e-05
9.26746e-06
8.16034e-06
8.092e-06
7.91388e-06
1.28486e-05
1.28844e-05
1.4018e-05
6.72204e-06
1.61723e-05
2.45527e-05
3.00942e-05
2.81526e-05
4.17144e-05
5.52032e-05
5.2836e-05
4.224e-05
2.1412e-05
2.91506e-05
2.57899e-05
2.42405e-05
2.23528e-05
6.34495e-06
1.01213e-05
2.95323e-06
1.52673e-06
1.99829e-06
2.17573e-06
5.16487e-06
4.76483e-06
4.64049e-06
5.30042e-06
5.70039e-06
5.95149e-06
5.01621e-06
5.37491e-06
4.84601e-06
4.8375e-06
6.31944e-06
6.75158e-06
4.86255e-06
6.01638e-06
6.19401e-06
4.64188e-06
4.74216e-06
4.69038e-06
6.09097e-06
5.26557e-06
5.97806e-06
4.85688e-06
5.10562e-06
3.97673e-06
4.35553e-06
4.03706e-06
4.57449e-06
6.22331e-06
7.73532e-06
6.32235e-06
1.0939e-05
1.15007e-05
6.7961e-06
7.4665e-06
6.32648e-06
4.78493e-06
4.52027e-06
7.05221e-07
2.81048e-06
3.86428e-06
1.36811e-06
5.12554e-07
6.23179e-07
4.69747e-07
4.33034e-07
4.85468e-07
4.06117e-07
6.49791e-07
8.58053e-07
8.3481e-07
9.73447e-07
9.25698e-07
8.75808e-07
6.54477e-07
5.29862e-07
5.37665e-07
4.51381e-07
6.57038e-07
1.04148e-06
1.3552e-06
1.44319e-06
1.40507e-06
1.28135e-06
1.03706e-06
1.13562e-06
1.31485e-06
6.75657e-07
0.000697377
0.000736558
0.000769362
0.00074019
0.000684606
0.000651571
0.000636714
0.000658252
0.000709479
0.000790444
0.00083351
0.00081642
0.000821328
0.000861498
0.000428753
0.000450788
0.000434796
0.000471271
0.000569406
0.000644307
0.000655576
0.000631257
0.000629023
0.000602086
0.000550355
0.000484636
0.000459879
0.000468636
0.000459835
0.000465452
0.000479576
0.000496207
0.000522237
0.000541945
0.000553622
0.000558682
0.000559874
0.000558579
0.000556321
0.000552339
0.000539002
0.000513823
0.000478477
0.000440653
0.000190778
0.000104913
9.02488e-05
8.94535e-05
9.78945e-05
0.000119187
0.000193533
0.000287811
0.00036032
0.000395911
0.000403558
0.000389543
0.000326337
0.000260736
0.000234224
0.000233576
0.000249999
0.000269208
0.000287899
0.000298975
0.000301183
0.000297194
0.000288803
0.000278894
0.000273972
0.000276109
0.000277165
0.000271353
0.000244626
0.000200071
0.000117081
0.000120408
0.000114615
9.28982e-05
8.33525e-05
9.4129e-05
0.000110998
0.000114593
0.000109907
0.000118627
0.000163605
0.00020848
0.000198384
0.000172853
0.000159126
0.00016101
0.000175448
0.000191678
0.000207451
0.000212473
0.000214078
0.000215541
0.000212075
0.000206228
0.000196315
0.000186444
0.000167344
0.000154586
0.000143915
0.000136713
9.29372e-05
9.01203e-05
8.51045e-05
7.4874e-05
9.34879e-05
0.000105897
0.000111318
0.000108344
0.000127598
0.000156964
0.000184645
0.000208801
0.000225412
0.000230932
0.000232136
0.000221303
0.000201899
0.000181863
0.000170123
0.000147562
0.000124992
0.000100032
7.17935e-05
9.15457e-05
8.3492e-05
6.49066e-05
7.72489e-05
0.000108774
6.96192e-05
6.92184e-05
2.06394e-05
2.12332e-05
1.64617e-05
1.13405e-05
1.08147e-05
1.04847e-05
1.35197e-05
1.23094e-05
1.50465e-05
1.61473e-05
1.54603e-05
1.68461e-05
1.82679e-05
2.34346e-05
2.67699e-05
2.68175e-05
2.7899e-05
2.96087e-05
3.03956e-05
3.09566e-05
3.0976e-05
3.01459e-05
3.01017e-05
2.82715e-05
2.82005e-05
2.54787e-05
2.51871e-05
2.3053e-05
2.29416e-05
2.62777e-05
2.97292e-05
1.14767e-05
8.70443e-06
7.74704e-06
7.43628e-06
8.06926e-06
1.39292e-05
1.7198e-05
1.76109e-05
3.29031e-05
3.88841e-05
4.10019e-05
4.18045e-05
4.08411e-05
4.06615e-05
3.84941e-05
3.44563e-05
3.47337e-05
3.39744e-05
3.38744e-05
3.25521e-05
3.62022e-05
3.68464e-05
3.647e-05
4.00939e-05
4.12458e-05
4.39725e-05
5.58206e-05
0.000131393
0.000161632
1.83735e-05
1.08602e-05
1.02717e-05
1.74028e-05
1.7126e-05
1.56235e-05
1.36105e-05
1.14063e-05
9.01205e-06
7.16295e-06
1.07236e-05
1.0523e-05
9.71834e-06
1.0149e-05
9.74274e-06
1.05027e-05
6.42507e-06
8.90941e-06
1.0532e-05
1.15978e-05
8.15613e-06
9.61313e-06
1.25359e-05
1.70778e-05
2.49349e-05
1.79287e-05
1.767e-05
1.89046e-05
2.24706e-05
2.41873e-05
2.40401e-05
1.82646e-05
2.96886e-05
4.28335e-05
5.68596e-05
4.94112e-05
8.85683e-05
0.000124733
0.000154951
0.000179493
0.000190558
0.000191344
0.000188979
0.000181758
0.000158744
0.000126996
9.21742e-05
6.0501e-05
6.5012e-05
4.15605e-05
2.22004e-05
9.62754e-06
4.07269e-06
7.37505e-06
1.32125e-05
1.69575e-05
1.99061e-05
2.08738e-05
1.87234e-05
6.45e-06
3.41076e-05
2.39419e-05
2.81875e-05
1.11851e-05
3.11172e-05
4.60405e-05
5.56936e-05
6.18677e-05
9.34262e-05
0.000108845
0.000122899
0.00012595
0.00013059
0.000124146
0.000115737
9.92615e-05
7.50833e-05
5.14434e-05
3.13703e-05
4.15768e-05
2.33897e-05
1.29885e-05
8.60345e-06
1.26664e-05
1.45261e-05
1.21159e-05
9.49121e-06
7.97442e-06
8.11295e-06
6.39989e-06
1.19506e-05
1.42215e-05
1.48737e-05
1.36219e-05
2.34828e-05
3.19188e-05
5.07079e-05
8.65764e-05
0.0001052
0.000115635
0.000113327
0.000104103
7.819e-05
5.27404e-05
2.05466e-05
3.24265e-05
2.54305e-05
2.15015e-05
1.40046e-05
4.34574e-06
1.97041e-06
3.14494e-06
2.70407e-06
2.94571e-06
4.68081e-06
4.98009e-06
4.95626e-06
5.61258e-06
5.78216e-06
4.45462e-06
5.7354e-06
5.23567e-06
5.65074e-06
5.82576e-06
6.24547e-06
5.64044e-06
6.07005e-06
5.70027e-06
6.69807e-06
6.29356e-06
6.65326e-06
5.76408e-06
4.2983e-06
4.9158e-06
5.42884e-06
5.21621e-06
5.31812e-06
3.78244e-06
4.52076e-06
4.56051e-06
6.20437e-06
7.8245e-06
7.17419e-06
1.45769e-05
1.61332e-05
1.21996e-05
8.70427e-06
6.97487e-06
4.87951e-06
4.41771e-06
9.91311e-07
2.11071e-06
3.68767e-06
1.45045e-06
6.6483e-07
3.84882e-07
4.52125e-07
4.95309e-07
4.60976e-07
7.92887e-07
9.85141e-07
1.33986e-06
1.12311e-06
1.39904e-06
1.47848e-06
1.05221e-06
1.25803e-06
9.74595e-07
6.41061e-07
3.61613e-07
4.60458e-07
5.98316e-07
1.38735e-06
1.4686e-06
1.22068e-06
1.06149e-06
1.25355e-06
1.2746e-06
1.1668e-06
5.55788e-07
0.000726183
0.000770624
0.000731708
0.000658042
0.000626117
0.000611851
0.000591649
0.000588593
0.000622728
0.000726491
0.000816686
0.000828146
0.000817508
0.000854223
0.000427062
0.000453683
0.000433529
0.000446037
0.0005275
0.000633685
0.000676289
0.000675132
0.00067474
0.000647345
0.000588137
0.000507138
0.000463203
0.000461098
0.000461058
0.000473369
0.000496916
0.000528326
0.000575112
0.00061483
0.000633473
0.000629655
0.000618783
0.00059577
0.000580836
0.000569238
0.000558118
0.000528468
0.000485899
0.000443112
0.000202437
0.000105602
7.89186e-05
6.48785e-05
5.8667e-05
8.1118e-05
0.000166486
0.000278463
0.000356749
0.000393439
0.000400103
0.00036375
0.000277998
0.000228668
0.000229258
0.000257631
0.000290732
0.0003137
0.000331013
0.000338159
0.000340497
0.000332528
0.000322253
0.000305182
0.000290447
0.000285831
0.000281527
0.000278833
0.000252244
0.000202584
0.000112626
0.000115107
0.000107288
8.58456e-05
8.22933e-05
0.000102529
0.000132487
0.000125201
0.000112572
0.000115024
0.000168843
0.000223973
0.000192115
0.000160487
0.000157929
0.000175636
0.000197739
0.000219779
0.000227007
0.000235804
0.000242328
0.000240997
0.00023348
0.000226189
0.000215528
0.000202505
0.000187988
0.000164634
0.000150047
0.00013972
9.29895e-05
9.00754e-05
8.83608e-05
0.000108628
0.000107039
0.000110186
0.0001042
0.000120732
0.000156677
0.00018911
0.000221431
0.000251033
0.000267248
0.000278742
0.000276859
0.00026376
0.000242343
0.000218386
0.000187427
0.000170352
0.00014207
0.00011423
8.44092e-05
9.15879e-05
8.70942e-05
6.78866e-05
7.52275e-05
0.000104556
7.15053e-05
5.78147e-05
2.02069e-05
2.09151e-05
1.61305e-05
1.52429e-05
1.03735e-05
1.0026e-05
1.31455e-05
1.60952e-05
1.53397e-05
1.64951e-05
1.62459e-05
1.61758e-05
2.17263e-05
2.54475e-05
2.80144e-05
2.98167e-05
3.11116e-05
2.8745e-05
2.95156e-05
2.74829e-05
2.88493e-05
3.20182e-05
2.97181e-05
3.18558e-05
2.916e-05
2.81853e-05
2.71988e-05
2.39769e-05
2.26576e-05
2.5621e-05
3.01396e-05
1.06572e-05
8.17336e-06
7.49935e-06
7.15203e-06
4.00279e-06
1.42661e-05
1.71754e-05
1.80353e-05
3.46367e-05
3.8815e-05
4.07558e-05
4.28467e-05
3.98895e-05
3.85859e-05
3.52235e-05
3.47968e-05
3.27786e-05
3.15273e-05
3.22382e-05
3.34789e-05
3.20798e-05
3.7449e-05
3.65362e-05
3.96703e-05
4.06199e-05
4.32715e-05
4.65963e-05
0.000119259
0.000154124
1.32537e-05
1.20896e-05
1.23433e-05
1.73578e-05
1.71114e-05
1.52417e-05
1.29287e-05
1.02158e-05
7.5576e-06
1.11334e-05
1.0168e-05
9.16304e-06
9.39682e-06
8.85517e-06
9.16056e-06
9.7545e-06
1.05728e-05
1.14633e-05
8.62195e-06
1.08342e-05
1.15459e-05
8.52796e-06
1.08096e-05
1.43119e-05
2.27405e-05
1.34896e-05
1.58705e-05
1.96725e-05
2.46692e-05
2.58853e-05
2.60553e-05
2.75978e-05
3.44265e-05
4.75905e-05
6.11344e-05
7.04835e-05
0.000119649
0.000159071
0.000189116
0.000220877
0.000231749
0.000240211
0.00023173
0.000215158
0.0001861
0.000161275
0.000119559
8.24953e-05
5.48544e-05
5.34381e-05
2.22551e-05
1.91751e-05
1.35671e-05
1.51177e-05
1.8278e-05
2.06673e-05
2.25903e-05
1.37733e-05
2.13485e-05
8.5768e-06
3.00158e-05
2.86607e-05
2.68292e-05
2.5803e-05
4.20187e-05
4.97442e-05
4.89748e-05
8.53638e-05
0.000118619
0.000140236
0.000152925
0.000149437
0.000150253
0.000144787
0.000139643
0.000125803
0.000103756
7.34741e-05
4.43783e-05
4.47671e-05
3.11156e-05
1.53889e-05
9.14266e-06
1.35518e-05
1.43135e-05
1.10034e-05
8.50843e-06
7.88524e-06
7.64898e-06
5.97275e-06
1.37598e-05
1.43419e-05
1.44896e-05
1.57855e-05
2.99421e-05
5.08257e-05
0.000102134
0.000138014
0.000169062
0.000183083
0.000180085
0.000162802
0.00012819
9.85945e-05
6.04497e-05
1.53286e-05
3.2782e-05
2.56556e-05
1.54578e-05
4.9746e-06
2.46944e-06
4.17857e-06
4.763e-06
4.13038e-06
3.60369e-06
4.98013e-06
5.02732e-06
4.52185e-06
4.86945e-06
3.94514e-06
4.582e-06
6.15809e-06
6.75016e-06
7.01826e-06
6.21108e-06
5.05711e-06
5.16802e-06
6.42554e-06
6.12396e-06
6.01165e-06
6.93515e-06
7.95931e-06
5.73789e-06
6.02957e-06
5.98644e-06
5.43892e-06
5.12702e-06
4.86018e-06
4.95463e-06
4.53507e-06
5.73541e-06
7.38044e-06
8.94972e-06
1.31234e-05
1.65905e-05
1.38435e-05
6.56293e-06
7.45422e-06
5.05261e-06
5.51992e-06
7.24741e-07
1.53285e-06
3.4585e-06
5.73895e-07
6.57455e-07
3.68835e-07
4.79925e-07
3.9183e-07
7.4719e-07
1.00873e-06
9.99876e-07
2.0762e-06
2.67934e-06
3.12509e-06
2.95574e-06
2.2408e-06
1.33076e-06
1.38033e-06
9.90549e-07
6.7627e-07
5.31704e-07
4.92655e-07
1.37168e-06
1.03092e-06
1.02158e-06
4.33686e-07
7.4537e-07
5.79529e-07
7.43371e-07
4.03228e-07
0.000788311
0.000749607
0.000657658
0.000633203
0.000654026
0.000687873
0.000664621
0.000622879
0.00060755
0.000679862
0.000798782
0.000840105
0.000814451
0.000845401
0.0004271
0.000452755
0.000431343
0.000417673
0.00045784
0.000551502
0.000608347
0.000640724
0.000639903
0.000645742
0.00060412
0.000513318
0.000471133
0.000462128
0.000463187
0.000484735
0.00052355
0.000581633
0.000656671
0.000707282
0.000734386
0.000723633
0.000688005
0.000642719
0.000615738
0.000594356
0.000568387
0.000538372
0.000488621
0.000443052
0.000216286
0.000113209
7.77241e-05
5.79031e-05
5.61295e-05
9.62234e-05
0.000197899
0.000301461
0.000365364
0.000394413
0.000396133
0.000322444
0.000236871
0.000218249
0.000252408
0.0002963
0.000327066
0.000348602
0.000350819
0.000349959
0.000352563
0.000346471
0.000349218
0.000327618
0.000310462
0.00029591
0.000290169
0.000283225
0.000254803
0.000199753
0.000107583
0.000121075
0.000117568
9.83047e-05
9.33368e-05
0.000111167
0.000130762
0.000135477
0.000119894
0.00011436
0.000180567
0.000233907
0.000189275
0.000152509
0.000169032
0.000194395
0.000220853
0.000234503
0.000251206
0.000268251
0.000275064
0.000274776
0.000263422
0.000252515
0.000231338
0.000216792
0.000198671
0.000173422
0.000155545
0.000141646
9.22901e-05
9.00912e-05
8.69087e-05
0.000111566
0.000110645
9.97315e-05
0.000109648
0.000137886
0.000182593
0.000218756
0.000251125
0.00027806
0.000285234
0.000287641
0.000286126
0.00028507
0.00026886
0.000242173
0.000205452
0.000184444
0.000153787
0.000127925
9.44588e-05
9.39216e-05
8.97381e-05
8.7029e-05
7.78894e-05
7.97785e-05
5.58202e-05
4.5263e-05
1.95397e-05
2.05851e-05
1.93714e-05
1.48456e-05
1.42807e-05
1.3731e-05
1.66631e-05
1.65029e-05
1.56226e-05
1.67056e-05
1.74141e-05
1.87022e-05
2.29015e-05
2.63133e-05
2.9694e-05
2.79986e-05
2.92258e-05
3.00368e-05
2.78045e-05
3.13698e-05
3.11252e-05
3.10333e-05
2.89576e-05
3.03153e-05
3.1748e-05
3.04306e-05
2.57155e-05
2.48329e-05
2.27946e-05
2.47756e-05
2.97617e-05
1.09554e-05
8.60327e-06
6.7647e-06
6.37199e-06
7.88631e-06
1.4966e-05
1.76029e-05
1.68254e-05
3.49085e-05
3.92621e-05
4.11937e-05
4.14137e-05
3.84541e-05
3.96652e-05
3.39075e-05
3.16373e-05
2.50503e-05
2.22266e-05
2.24278e-05
2.52879e-05
3.04029e-05
3.23138e-05
3.69775e-05
3.60326e-05
4.02572e-05
4.27902e-05
4.36226e-05
0.000112809
0.000145313
1.1765e-05
8.40166e-06
1.14717e-05
1.36212e-05
1.72029e-05
1.51967e-05
1.23451e-05
9.3731e-06
7.01241e-06
1.07782e-05
9.26478e-06
9.24933e-06
8.39177e-06