/*--------------------------------*- C++ -*----------------------------------*\
| =========                 |                                                 |
| \\      /  F ield         | OpenFOAM: The Open Source CFD Toolbox           |
|  \\    /   O peration     | Version:  2.1.1                                 |
|   \\  /    A nd           | Web:      www.OpenFOAM.org                      |
|    \\/     M anipulation  |                                                 |
\*---------------------------------------------------------------------------*/
FoamFile
{
    version     2.0;
    format      ascii;
    class       volScalarField;
    location    "0.007550000";
    object      sL;
}
// * * * * * * * * * * * * * * * * * * * * * * * * * * * * * * * * * * * * * //

dimensions      [0 1 -1 0 0 0 0];

internalField   nonuniform List<scalar> 
12384
(
7.79723
7.50536
7.18042
6.8949
6.67532
6.5906
6.61174
6.72193
6.89706
7.15894
7.51169
7.96036
8.3621
9.08582
3.09005
3.40041
3.3701
3.35362
3.56931
3.93554
4.17526
4.27874
4.26768
4.21454
4.14908
4.09175
4.02594
3.96579
3.90258
3.84998
3.81751
3.78169
3.77121
3.76102
3.79327
3.78902
3.80478
3.84869
3.83314
3.80596
3.6655
3.44825
3.24769
2.65162
3.19014
3.20243
3.22142
3.22653
3.20588
3.21767
3.1918
3.21824
3.21542
3.22586
3.21992
3.2256
3.22825
3.2329
3.22755
3.21873
3.20536
3.19338
3.18297
3.18498
3.18992
3.22589
3.23548
3.27488
3.29872
3.33492
3.35276
3.31749
3.26379
3.25336
3.28942
3.35608
3.27777
3.20168
3.17561
3.13624
3.10272
3.11495
3.12501
3.1348
3.14269
3.14497
3.1403
3.13381
3.12662
3.12917
3.12996
3.10227
3.09239
3.09739
3.06346
3.05298
3.0655
3.07046
3.08588
3.10037
3.12131
3.12369
3.09943
3.00412
3.61699
3.52638
3.50982
3.537
3.56919
3.59038
3.61704
3.61826
3.62264
3.63635
3.5396
3.48769
3.53462
3.44693
3.41848
3.44354
3.45763
3.49817
3.52493
3.55349
3.54095
3.40844
3.03671
2.97663
3.01133
3.02733
3.03116
3.018
3.00478
2.96892
3.14562
3.15438
3.18059
3.23003
3.27348
3.27895
3.26386
3.28149
3.24992
3.23545
3.21585
3.21537
3.205
3.19254
3.17388
3.15596
3.12179
3.11694
3.0728
3.06428
3.03116
3.08234
3.0458
3.08238
3.15038
3.15038
3.17697
3.23109
3.34757
3.42521
1.80225
1.90973
1.97021
2.09419
2.16554
2.22201
2.30918
2.3231
2.35069
2.3795
2.38961
2.37406
2.34491
2.30263
2.26428
2.20907
2.13681
2.12421
2.10172
2.07927
2.07916
2.10336
2.12217
2.121
2.10735
1.99822
1.46418
1.41735
1.45926
1.49908
2.74003
3.06779
3.21014
3.34067
3.40827
3.43656
3.42904
3.4135
3.36003
3.34697
3.24584
3.26697
3.19522
3.19779
3.28906
3.33055
3.46137
3.55291
3.63005
3.61994
3.34192
3.10034
3.09399
3.11289
3.1272
3.14034
3.15507
3.16006
3.15383
3.13735
2.85569
2.92424
2.9742
2.99825
2.99718
2.97314
2.9217
2.86087
2.80512
2.7949
2.71426
2.7268
2.7648
2.78809
2.85244
2.94095
3.00602
3.02308
2.92938
2.91814
2.92993
2.92113
2.92138
2.93695
2.95392
2.97144
2.99665
2.98244
2.88138
2.77066
2.89202
2.86011
2.86499
2.87924
2.90759
2.90819
2.90293
2.77228
2.7476
2.51624
2.51489
2.28799
2.30689
2.18389
2.21603
2.20182
2.21211
2.21079
2.25031
2.28286
2.24973
2.21468
2.21703
2.19993
2.21231
2.19525
2.21069
2.21906
2.2427
2.23832
2.06121
2.07999
2.13015
2.15621
2.17835
2.17255
2.1432
2.10788
2.0466
2.03012
1.99847
2.04617
2.01239
2.10133
2.08276
2.1829
2.07639
2.08732
2.00979
2.07582
2.01051
2.11056
2.07026
2.19045
2.17668
2.2664
2.29883
2.3483
2.43183
2.61015
1.43764
1.43184
1.50628
1.80998
1.68152
1.62302
1.52873
1.53212
1.46545
1.45169
1.4539
1.45494
1.45596
1.45853
1.46021
1.46221
1.46494
1.46502
1.47958
1.48048
1.48393
1.47893
1.47855
1.47085
1.45878
1.46332
1.45666
1.46886
1.51983
1.44879
1.76821
1.74596
1.7147
1.72112
1.76816
1.80247
2.03959
3.00269
3.33724
3.33331
3.31788
3.28848
3.29258
3.24768
3.29708
3.25677
3.30669
3.27161
3.31077
3.29178
3.35748
3.36782
3.45582
3.49013
3.52938
3.54129
3.5551
3.54665
3.39024
3.16966
7.04172
6.55128
5.97746
5.67293
5.60642
5.63343
5.72578
5.80401
5.91938
6.09694
6.47279
7.16843
8.03384
9.00032
3.17184
3.41568
3.35471
3.5002
4.02293
4.61472
4.88618
4.80217
4.54855
4.33603
4.16987
4.04613
3.93595
3.80978
3.69983
3.61644
3.58576
3.58921
3.60647
3.63276
3.65822
3.70984
3.78198
3.79374
3.84776
3.85877
3.77533
3.58984
3.39609
3.04729
3.1992
3.20322
3.20577
3.19678
3.18654
3.20662
3.26563
3.34184
3.41179
3.44731
3.44311
3.41209
3.36672
3.31152
3.2592
3.20893
3.17031
3.14609
3.13272
3.134
3.14648
3.16895
3.19172
3.22944
3.26137
3.30128
3.33153
3.35773
3.32472
3.27667
3.32409
3.3251
3.22946
3.17058
3.14859
3.13124
3.13408
3.13269
3.14073
3.16108
3.18076
3.19092
3.19116
3.17843
3.17791
3.1648
3.13429
3.12492
3.09786
3.04099
3.0248
3.02249
3.01188
3.0207
3.03691
3.06768
3.09297
3.11967
3.12697
3.08588
3.61862
3.50854
3.503
3.52039
3.55214
3.5723
3.58662
3.6144
3.62323
3.55738
3.53651
3.55526
3.44411
3.42167
3.44875
3.44146
3.44908
3.46667
3.49687
3.52034
3.54742
3.51889
3.2642
3.01819
3.02307
3.05448
3.0227
3.01086
3.05202
3.08435
3.15488
3.17168
3.23966
3.33004
3.41534
3.43582
3.38918
3.29254
3.20164
3.12507
3.07778
3.05519
3.06866
3.06888
3.07051
3.0794
3.0977
3.09926
3.09347
3.10524
3.11117
3.10157
3.13925
3.16824
3.1788
3.17135
3.19271
3.223
3.30435
3.40807
1.82072
1.97683
2.15751
2.3517
2.43229
2.45838
2.41652
2.40267
2.43773
2.40122
2.34265
2.28026
2.21892
2.18173
2.13057
2.08459
2.08787
2.04855
2.0126
2.01919
2.0343
2.04735
2.07356
2.08413
2.08311
2.05798
1.77653
1.48791
1.47449
1.5626
2.65525
3.05289
3.29258
3.42219
3.41143
3.35927
3.3061
3.24899
3.19947
3.1306
3.11085
3.0557
3.05439
3.05321
3.12097
3.17106
3.26529
3.35933
3.47231
3.56287
3.52849
3.30223
3.10083
3.06559
3.0831
3.09716
3.13562
3.17564
3.21214
3.20939
2.82287
2.89577
2.99715
2.99492
2.95157
2.88399
2.7957
2.72553
2.64956
2.57349
2.57241
2.53296
2.5546
2.62462
2.68652
2.76185
2.86884
2.96984
3.00298
2.92561
2.88898
2.86747
2.85095
2.85428
2.84897
2.87887
2.92427
3.04597
3.0247
2.82273
2.87652
2.85087
2.88483
2.97437
3.04677
3.00293
2.91063
2.73927
2.61122
2.39113
2.32526
2.14061
2.12963
2.05564
2.05338
2.08886
2.1048
2.13938
2.18485
2.26698
2.28676
2.2162
2.23327
2.19396
2.1859
2.16383
2.18318
2.19689
2.24496
2.24389
2.02351
2.043
2.08158
2.09549
2.09416
2.05637
1.99138
1.90641
1.85703
1.85473
1.85878
1.89766
1.92423
2.01503
2.03474
2.15958
2.15141
2.22112
2.04642
2.0221
1.88238
1.97763
1.93668
2.06668
2.0994
2.1882
2.23449
2.30558
2.40572
2.60423
1.4516
1.60529
1.78213
1.76922
1.67348
1.62964
1.58834
1.56186
1.59098
1.53736
1.51881
1.52312
1.49371
1.48619
1.4757
1.4844
1.49022
1.50086
1.50383
1.49456
1.47842
1.46122
1.45573
1.45453
1.45494
1.45513
1.45369
1.46491
1.50886
1.4738
1.96891
1.76968
1.61375
1.65028
1.74844
1.97749
2.72069
3.30474
3.3874
3.3888
3.39614
3.40834
3.4112
3.44845
3.42986
3.42446
3.39862
3.3395
3.28057
3.1821
3.15891
3.18619
3.27587
3.39834
3.4875
3.53402
3.55327
3.54846
3.37088
3.16011
6.30735
5.61764
5.33617
5.37742
5.56714
5.80072
6.04264
6.25671
6.29133
6.23137
6.17677
6.49741
7.48434
8.85539
3.19363
3.40454
3.34339
3.60036
4.37777
5.10239
5.26797
5.0425
4.77652
4.55309
4.3112
4.0669
3.89274
3.70917
3.56716
3.52228
3.53893
3.56922
3.62057
3.68222
3.73968
3.77451
3.86094
3.86512
3.90244
3.92081
3.86164
3.71232
3.51106
3.23808
3.18582
3.18465
3.18389
3.17586
3.22104
3.33666
3.46532
3.60072
3.69839
3.75392
3.72391
3.63932
3.50531
3.36594
3.2532
3.1863
3.14949
3.14983
3.14852
3.15
3.15475
3.17709
3.18426
3.22008
3.23053
3.25888
3.31301
3.35647
3.33972
3.31385
3.30304
3.26739
3.18267
3.17452
3.17083
3.16614
3.16311
3.15077
3.15081
3.16473
3.19659
3.22309
3.24206
3.23499
3.20995
3.1647
3.13515
3.09501
3.01886
2.99509
2.98991
2.96509
2.95159
2.96332
2.9909
3.01158
3.05147
3.08666
3.11736
3.11717
3.61496
3.49195
3.47913
3.51483
3.49163
3.4964
3.54959
3.6004
3.57959
3.55422
3.59315
3.51554
3.43709
3.49852
3.45882
3.45898
3.45387
3.45086
3.45627
3.48015
3.49789
3.5183
3.42275
3.16178
3.02488
2.98396
2.93623
2.92224
2.9619
3.02728
3.13854
3.17689
3.30925
3.46433
3.55871
3.54461
3.42104
3.25865
3.11652
3.01906
2.97287
2.96107
2.97682
3.00935
3.07579
3.15851
3.2254
3.26345
3.34001
3.36136
3.36571
3.34343
3.29596
3.3088
3.27293
3.23978
3.22367
3.21835
3.26783
3.38122
1.82764
2.06681
2.35042
2.52948
2.5141
2.43868
2.36984
2.33675
2.35685
2.28729
2.18224
2.113
2.09668
2.07549
2.06371
2.09855
2.09016
2.04157
2.04612
2.04309
2.06001
2.06326
2.05861
2.06194
2.05512
2.05409
1.95583
1.66055
1.48699
1.54034
2.60886
3.03199
3.42303
3.38463
3.30109
3.2432
3.20429
3.16534
3.14186
3.11229
3.09603
3.04456
3.03458
3.04601
3.07486
3.11524
3.15863
3.23816
3.31844
3.41831
3.49435
3.44895
3.24854
3.07503
3.00575
3.01279
3.06028
3.11711
3.19298
3.24069
2.83133
2.96621
3.01249
2.9561
2.8665
2.77051
2.67924
2.59582
2.52159
2.47623
2.4358
2.43597
2.42802
2.4625
2.54507
2.61148
2.70393
2.81366
2.92214
2.95802
2.88281
2.82351
2.8155
2.81397
2.83082
2.79926
2.81125
2.90963
3.06987
2.94632
2.84197
2.84664
2.95976
3.11738
3.11708
2.95268
2.7747
2.52406
2.4207
2.1482
2.1256
1.93311
1.95507
1.85906
1.90414
1.91774
1.97655
2.02631
2.09094
2.17872
2.28209
2.22938
2.22177
2.22774
2.19595
2.13367
2.16276
2.21083
2.27
2.29554
1.99417
1.96812
2.06257
2.07256
1.9977
1.88657
1.75916
1.67699
1.65227
1.61756
1.60637
1.69423
1.7444
1.8596
1.91939
2.04916
2.11224
2.27899
2.15829
2.09609
1.87193
1.94773
1.94632
2.07592
2.16375
2.27793
2.32713
2.32772
2.40987
2.60298
1.62005
1.81078
1.83635
1.78366
1.69025
1.72384
1.74318
1.73887
1.78024
1.79355
1.74376
1.71593
1.65553
1.58774
1.53393
1.49269
1.48013
1.47449
1.47813
1.46593
1.45183
1.44223
1.42834
1.4213
1.42453
1.4377
1.4493
1.44748
1.48824
1.47411
2.18457
1.77808
1.57198
1.70626
2.01203
2.57541
3.21803
3.42899
3.4543
3.49649
3.55075
3.60981
3.66458
3.65606
3.70301
3.67825
3.63438
3.59568
3.42491
3.28632
3.05364
2.97158
3.00857
3.10631
3.22036
3.39735
3.47358
3.46561
3.21578
3.12176
5.43871
5.22282
5.36883
5.67085
5.89762
6.05345
6.21282
6.50812
6.97277
6.96351
6.58715
6.36519
6.98016
8.6307
3.24881
3.42759
3.35289
3.62803
4.50582
5.30437
5.60076
5.54284
5.3839
5.16347
4.76133
4.23378
3.87748
3.64318
3.50239
3.50945
3.56474
3.64531
3.73989
3.83016
3.92
3.95634
4.01901
4.02273
4.02278
4.00975
3.9583
3.81676
3.59461
3.32768
3.16506
3.16754
3.16265
3.1784
3.26676
3.4058
3.52197
3.62647
3.73302
3.79423
3.78026
3.65731
3.44411
3.27824
3.19047
3.16816
3.17785
3.18365
3.18265
3.17962
3.18656
3.19699
3.20755
3.23168
3.22291
3.2726
3.30306
3.33075
3.3713
3.32726
3.26542
3.20829
3.16051
3.17467
3.18465
3.17102
3.1212
3.10972
3.12875
3.14773
3.17713
3.23177
3.26574
3.22359
3.16045
3.12831
3.07435
2.97855
2.94319
2.93478
2.90139
2.87234
2.89695
2.91118
2.92462
2.96971
3.00716
3.05066
3.09966
3.12464
3.62263
3.48848
3.47624
3.47009
3.41324
3.47529
3.56378
3.58611
3.6006
3.62749
3.62771
3.53082
3.61819
3.52669
3.47491
3.48334
3.50348
3.49705
3.46484
3.44354
3.45902
3.4855
3.4778
3.30454
3.10804
2.99632
2.92896
2.89698
2.91817
2.99169
3.11747
3.17655
3.34892
3.55661
3.66697
3.66832
3.50982
3.30434
3.11531
3.00214
2.95117
2.95495
2.98521
3.07825
3.23029
3.35954
3.48529
3.6179
3.70776
3.73102
3.71557
3.70648
3.63371
3.52732
3.43599
3.36285
3.28665
3.23676
3.25079
3.35201
1.84653
2.14423
2.48835
2.64778
2.5755
2.42646
2.35148
2.33383
2.3104
2.18817
2.07298
2.03097
2.0258
2.05747
2.1405
2.17961
2.16311
2.20416
2.21731
2.18814
2.15628
2.13923
2.10728
2.07019
2.04928
2.03871
2.00557
1.81962
1.53694
1.52387
2.63427
3.28378
3.41589
3.29688
3.22626
3.19185
3.17559
3.15628
3.15664
3.13864
3.09373
3.10716
3.10679
3.12716
3.12014
3.15322
3.17033
3.17728
3.22957
3.3046
3.40119
3.45508
3.36581
3.18224
3.00963
2.96689
3.02757
3.08128
3.1474
3.22536
2.92932
3.05759
3.01357
2.90046
2.78672
2.68166
2.57925
2.52345
2.43664
2.3946
2.35529
2.39179
2.39914
2.38025
2.41721
2.50112
2.58385
2.68379
2.80996
2.91338
2.89583
2.8399
2.80206
2.84192
2.83433
2.81454
2.78117
2.83651
3.01278
2.98098
2.83001
2.87856
3.1336
3.2405
3.06041
2.77951
2.56037
2.32582
2.20603
2.03796
1.98239
1.83999
1.79614
1.79135
1.75252
1.80497
1.84259
1.91
1.99092
2.10351
2.22128
2.29532
2.26095
2.22368
2.21102
2.15993
2.14188
2.17826
2.25286
2.28856
1.94236
2.02804
2.11775
2.02769
1.86936
1.70573
1.59279
1.53468
1.45051
1.4044
1.43254
1.43821
1.55747
1.69373
1.78193
1.9421
2.01629
2.23591
2.22131
2.12314
1.89702
1.91782
1.96531
2.08475
2.18675
2.33624
2.40691
2.39278
2.4415
2.61524
1.75962
1.93136
1.87868
1.79901
1.84164
1.8612
1.995
2.04122
2.10849
2.12745
2.12333
2.05241
1.95506
1.83181
1.69739
1.57345
1.49108
1.46398
1.46765
1.46141
1.44717
1.42833
1.40767
1.38764
1.38515
1.40565
1.4319
1.44601
1.46935
1.4682
2.32532
1.77791
1.60499
1.95533
2.46803
3.06129
3.42668
3.49937
3.55282
3.63764
3.72313
3.7824
3.82734
3.89033
3.86425
3.90022
3.83094
3.84246
3.6908
3.53186
3.22741
2.90701
2.81052
2.8725
2.90592
3.02583
3.14559
3.15349
3.01799
3.12305
5.03944
5.2851
5.62852
5.72255
5.65404
5.52859
5.47928
5.67522
6.3169
7.16733
7.1086
6.62135
6.83185
8.44873
3.24115
3.41483
3.30328
3.49685
4.29913
5.19
5.66254
5.80472
5.77554
5.55192
5.12306
4.38634
3.86508
3.58227
3.4861
3.53081
3.64293
3.80013
3.97174
4.12814
4.23599
4.26404
4.26449
4.23722
4.18877
4.13489
4.05915
3.90962
3.66039
3.36983
3.14322
3.15308
3.16292
3.18263
3.25191
3.35637
3.43993
3.5096
3.63526
3.74764
3.72938
3.53969
3.29671
3.17855
3.17744
3.20374
3.21223
3.22054
3.22805
3.2329
3.22752
3.23407
3.24003
3.24934
3.25828
3.2854
3.28649
3.34941
3.37329
3.33633
3.21539
3.16275
3.12676
3.15302
3.16404
3.11983
3.08345
3.07239
3.07369
3.08892
3.1616
3.27001
3.25692
3.16033
3.1251
3.06205
2.95498
2.9087
2.88308
2.79324
2.74135
2.75529
2.7803
2.82761
2.86473
2.91749
2.96712
3.01863
3.07612
3.12277
3.6314
3.49362
3.46022
3.37072
3.38336
3.51735
3.59313
3.62281
3.64528
3.69025
3.6927
3.69462
3.70697
3.6649
3.66454
3.61726
3.54801
3.52994
3.51288
3.46127
3.43703
3.45482
3.46596
3.39446
3.21639
3.0852
3.02016
2.88414
2.91562
3.00221
3.09783
3.15265
3.33823
3.58119
3.70388
3.71089
3.56534
3.31083
3.09363
2.98063
2.93758
2.95834
3.04486
3.20083
3.43008
3.56512
3.80509
3.9412
4.03527
4.08649
4.09302
4.02748
3.96846
3.83244
3.65194
3.51045
3.37086
3.26839
3.2362
3.32178
1.84395
2.19292
2.56014
2.74634
2.69845
2.50457
2.3252
2.34195
2.29989
2.09662
1.98518
1.9653
2.00525
2.11656
2.20328
2.24736
2.35101
2.43369
2.44941
2.43447
2.35255
2.25843
2.19516
2.11137
2.05993
2.02987
2.0228
1.89726
1.58122
1.52903
2.82032
3.47829
3.33194
3.24253
3.20492
3.17488
3.16777
3.16594
3.15999
3.16468
3.13718
3.17401
3.11641
3.09063
3.11415
3.15447
3.17044
3.19817
3.19696
3.23088
3.30418
3.39174
3.4082
3.28988
3.07618
2.95496
3.00405
3.0709
3.11947
3.21619
3.11651
3.09207
2.98976
2.84403
2.71115
2.6008
2.52944
2.46482
2.37787
2.34034
2.32974
2.26809
2.30105
2.3651
2.39246
2.42935
2.50064
2.57572
2.701
2.83944
2.91571
2.8654
2.8406
2.85142
2.87344
2.8261
2.78406
2.77168
2.98779
3.08116
2.83781
2.98826
3.35949
3.22069
2.88416
2.59587
2.39821
2.22743
2.12825
1.94726
1.90751
1.74179
1.7659
1.67955
1.71677
1.71292
1.78151
1.83667
1.92133
2.02256
2.18063
2.27783
2.30201
2.26909
2.19489
2.19954
2.205
2.20093
2.29513
2.36175
1.99169
2.19049
2.13121
1.91307
1.71412
1.5629
1.45657
1.36462
1.30289
1.32031
1.29317
1.37066
1.40772
1.55647
1.60461
1.8528
1.91629
2.15539
2.22602
2.10609
1.88353
1.9462
1.92242
2.0399
2.13294
2.2929
2.43507
2.49798
2.53502
2.60394
1.80766
1.96145
1.92751
1.90897
1.97988
2.14677
2.22723
2.41339
2.51184
2.49585
2.52382
2.45494
2.33573
2.15264
1.9676
1.74241
1.58482
1.46459
1.46249
1.46251
1.44796
1.42782
1.40406
1.37045
1.36288
1.38202
1.41543
1.43822
1.45654
1.45799
2.44348
1.89259
1.64271
2.25673
2.84152
3.31456
3.52349
3.56972
3.65992
3.76935
3.86773
3.93326
3.94806
3.97505
4.04753
4.0173
3.97872
3.96108
3.8837
3.76914
3.52622
3.13377
2.74113
2.80988
2.91141
2.97651
2.96664
2.98479
2.99864
3.20493
5.22479
5.55968
5.57992
5.46697
5.38153
5.31619
5.13589
5.09455
5.43911
6.61463
7.4026
6.91456
6.82683
8.30042
3.25687
3.4639
3.30941
3.37595
3.94305
4.78756
5.36233
5.58733
5.58634
5.40223
5.14111
4.44132
3.80999
3.51563
3.50219
3.60286
3.77529
4.04844
4.35859
4.61498
4.75391
4.73787
4.65235
4.5119
4.39371
4.28233
4.16411
3.98348
3.70296
3.38798
3.13188
3.13704
3.15334
3.18272
3.22206
3.27728
3.34106
3.42876
3.58938
3.69845
3.63506
3.35984
3.18579
3.17338
3.21967
3.23033
3.23959
3.25322
3.26614
3.27397
3.29552
3.27469
3.29221
3.28858
3.28811
3.27302
3.31892
3.35249
3.36831
3.35447
3.16971
3.10676
3.07409
3.12485
3.1316
3.08625
3.04185
3.04352
3.08456
3.071
3.14159
3.26736
3.20756
3.12209
3.06128
2.94886
2.89727
2.85375
2.74318
2.6881
2.69106
2.68741
2.69107
2.7618
2.7943
2.86609
2.93321
2.98969
3.05342
3.12117
3.64642
3.49919
3.41238
3.30027
3.42958
3.57992
3.63034
3.6399
3.72001
3.77853
3.75913
3.79657
3.84195
3.91176
3.89263
3.80067
3.69821
3.592
3.52472
3.49968
3.43321
3.42569
3.44854
3.43335
3.30175
3.16809
3.09234
2.92015
2.95013
3.03537
3.08026
3.1113
3.27149
3.51791
3.65095
3.6532
3.48394
3.21365
3.04749
2.97333
2.95029
2.99349
3.1408
3.35616
3.60053
3.74915
4.02758
4.17948
4.27696
4.42946
4.49175
4.40511
4.23378
4.0846
3.88247
3.64829
3.46256
3.30117
3.21814
3.29358
1.85956
2.21628
2.61864
2.81731
2.83491
2.61902
2.3424
2.33989
2.28247
2.0464
1.91878
1.933
2.03758
2.12177
2.21032
2.38285
2.52436
2.59065
2.61278
2.60425
2.54908
2.40164
2.30708
2.17301
2.07775
2.02364
2.01542
1.92638
1.62968
1.5312
3.07467
3.456
3.29384
3.24088
3.20124
3.1619
3.16604
3.16162
3.16214
3.19028
3.17178
3.12663
3.09061
3.14626
3.16452
3.18748
3.20721
3.20669
3.17845
3.2112
3.24658
3.32918
3.38235
3.32172
3.14625
2.98517
3.0057
3.08609
3.12685
3.20422
3.19614
3.11633
2.93163
2.79501
2.67922
2.56304
2.49024
2.40202
2.3119
2.3327
2.27137
2.28786
2.25905
2.27339
2.2908
2.39522
2.429
2.54272
2.61964
2.78176
2.87891
2.91418
2.89378
2.90521
2.87928
2.84795
2.7726
2.79489
2.97553
3.0746
2.88092
3.30926
3.47123
3.0743
2.71702
2.49851
2.31403
2.17679
2.05506
1.8688
1.83826
1.7395
1.69701
1.70004
1.63772
1.6731
1.70673
1.80707
1.85367
1.99536
2.19144
2.30354
2.30161
2.35958
2.25227
2.22084
2.27005
2.28935
2.31392
2.35223
2.25016
2.29832
2.05757
1.79162
1.61838
1.45478
1.36657
1.36923
1.37045
1.36112
1.36721
1.35302
1.28873
1.44074
1.53708
1.6716
1.85955
2.06139
2.18582
2.09619
1.86943
1.94384
1.98088
1.98602
2.0669
2.18372
2.32822
2.46123
2.55951
2.60109
1.86485
2.03998
2.01922
2.037
2.18423
2.33962
2.5879
2.67825
2.85729
2.82835
2.88288
2.76866
2.65023
2.47973
2.25898
1.97773
1.72808
1.53064
1.45812
1.46252
1.449
1.43364
1.41264
1.37755
1.36044
1.37436
1.40676
1.43204
1.454
1.45048
2.54526
2.14121
1.65218
2.44378
3.07192
3.42756
3.5649
3.64522
3.76352
3.8663
3.94506
4.02761
4.15038
4.16182
4.14637
4.11417
4.14302
4.00283
3.95323
3.91021
3.73114
3.47976
2.82617
2.68614
2.9395
3.24747
3.17491
3.12444
3.15655
3.32506
5.5587
5.58954
5.42136
5.62748
6.12694
6.3688
5.95477
5.36363
5.23874
6.03898
7.30375
7.15273
6.90808
8.32946
3.25768
3.45944
3.30412
3.22573
3.49701
4.07564
4.56436
4.80653
4.81535
4.90867
4.96309
4.38872
3.77904
3.5168
3.52633
3.69558
3.98766
4.38865
4.86986
5.22025
5.42007
5.32974
5.11063
4.82399
4.61116
4.43732
4.25695
4.03591
3.71827
3.38813
3.09636
3.10117
3.14963
3.17262
3.19758
3.23836
3.30087
3.43187
3.56152
3.62726
3.49371
3.19723
3.17506
3.20807
3.25291
3.25791
3.2571
3.2917
3.2675
3.25692
3.2852
3.25341
3.34288
3.2859
3.29988
3.31035
3.32913
3.34646
3.38235
3.3518
3.11727
3.05961
3.0503
3.10227
3.07524
3.0017
2.94362
2.96526
3.04816
3.069
3.14377
3.26106
3.18144
3.07418
2.97528
2.91656
2.84721
2.72772
2.68354
2.72754
2.74399
2.75267
2.7178
2.76438
2.76531
2.8255
2.89733
2.97329
3.0438
3.11794
3.64687
3.47569
3.3506
3.31568
3.50807
3.62159
3.64827
3.68688
3.77483
3.79805
3.79803
3.88416
3.97648
3.92089
3.9139
3.90694
3.80642
3.69698
3.51522
3.49206
3.42677
3.44425
3.44043
3.4349
3.35898
3.26018
3.13953
2.92713
3.00493
3.06319
3.05933
3.06774
3.18862
3.34706
3.47075
3.4399
3.2648
3.09646
3.00864
2.96481
2.97145
3.0563
3.25648
3.49554
3.69567
3.84779
4.1635
4.29861
4.48424
4.67491
4.68445
4.65421
4.4998
4.25352
4.05722
3.78072
3.51766
3.33436
3.21743
3.25087
1.84558
2.19951
2.60308
2.85755
2.92219
2.69891
2.40497
2.37342
2.26911
2.00526
1.901
1.92494
1.9855
2.09073
2.26586
2.41835
2.56411
2.71411
2.71674
2.67968
2.63358
2.46168
2.36612
2.23803
2.09266
2.01935
1.99897
1.92663
1.6461
1.53229
3.30197
3.38406
3.32902
3.2702
3.20188
3.15823
3.15798
3.15268
3.17804
3.19534
3.12934
3.08983
3.03032
2.98666
3.03231
3.11821
3.17431
3.24952
3.17701
3.19256
3.20952
3.28452
3.34189
3.33662
3.19388
3.03918
3.03178
3.08996
3.13098
3.19301
3.2188
3.11149
2.9139
2.75773
2.66243
2.56355
2.46219
2.38772
2.33285
2.34766
2.30116
2.29635
2.30298
2.3185
2.30591
2.35694
2.4357
2.50429
2.60958
2.72493
2.84578
2.92231
2.90668
2.93923
2.91864
2.88064
2.83506
2.82155
2.98639
3.17101
3.01947
3.72437
3.46656
2.91773
2.63153
2.44089
2.31098
2.09072
2.00087
1.82947
1.84834
1.71461
1.75052
1.67395
1.66925
1.65685
1.71437
1.73607
1.86847
1.99442
2.13666
2.35965
2.3955
2.35613
2.2955
2.32651
2.34626
2.37096
2.42114
2.43783
2.48398
2.29251
1.93624
1.71395
1.53898
1.4082
1.37064
1.39629
1.29944
1.30182
1.28622
1.36754
1.30558
1.35883
1.43848
1.65283
1.73729
2.03885
2.11092
2.03171
1.90349
1.98466
2.07705
2.10888
2.10272
2.1648
2.207
2.27864
2.3511
2.43758
1.88384
2.10788
2.0781
2.17674
2.3501
2.55977
2.77248
3.02401
3.02592
3.10772
3.1241
3.04089
2.91587
2.7343
2.50493
2.19353
1.90927
1.63389
1.4563
1.46033
1.45576
1.44262
1.42665
1.40108
1.37714
1.3809
1.40515
1.42891
1.4514
1.44994
2.56064
2.46042
1.67057
2.42339
3.14607
3.48804
3.60021
3.69307
3.83007
3.89039
4.0152
4.1108
4.17742
4.26083
4.2753
4.25093
4.22208
4.12498
4.02078
3.92154
3.84656
3.71045
3.09956
2.5813
2.66318
3.21479
3.40975
3.3665
3.36297
3.34156
5.76187
5.49049
5.72111
6.94253
8.01519
8.27857
7.77229
6.57853
5.72305
6.18926
7.41523
7.2083
6.98326
8.45707
3.20488
3.48948
3.36727
3.23568
3.25895
3.51355
3.77106
3.87843
4.02161
4.39074
4.7299
4.30271
3.69574
3.48818
3.58034
3.80635
4.23132
4.78223
5.36387
5.79474
5.97193
5.85147
5.48905
5.07796
4.8148
4.55911
4.32322
4.05548
3.69776
3.38016
3.08475
3.07405
3.11961
3.16552
3.19459
3.21936
3.30377
3.45173
3.5119
3.52008
3.32365
3.11115
3.20831
3.23274
3.27815
3.26549
3.26888
3.26404
3.25868
3.25491
3.30287
3.26994
3.35852
3.27735
3.35485
3.31582
3.3203
3.35687
3.37821
3.35056
3.07181
3.05499
3.01817
3.00653
2.99751
2.95975
2.93582
2.96185
3.01894
3.02173
3.16758
3.294
3.13817
3.00848
2.96095
2.86357
2.75297
2.72979
2.75872
2.74024
2.69849
2.71987
2.67838
2.76625
2.76921
2.81225
2.87782
2.97615
3.04427
3.12339
3.67316
3.48012
3.31889
3.40951
3.568
3.64177
3.66642
3.71146
3.78154
3.79266
3.83696
3.9219
3.97757
3.9753
4.06109
3.96176
3.81427
3.77322
3.55865
3.48459
3.42428
3.44982
3.44592
3.42921
3.38717
3.30277
3.10912
2.99218
3.06848
3.09637
3.05587
3.05235
3.09818
3.18276
3.22911
3.18561
3.10151
3.03176
2.99388
2.97238
3.01585
3.13654
3.36556
3.56855
3.71576
3.87695
4.18084
4.3591
4.54095
4.75469
4.75935
4.69253
4.64207
4.35176
4.1391
3.85915
3.56952
3.33171
3.20063
3.2314
1.83414
2.16173
2.55535
2.84408
2.96464
2.73115
2.46301
2.42815
2.29791
1.99475
1.88429
1.86503
1.95519
2.07917
2.20979
2.37302
2.59502
2.72632
2.76747
2.72977
2.69625
2.49084
2.36559
2.25539
2.09849
2.00385
1.98153
1.90637
1.63167
1.52111
3.41339
3.42636
3.41888
3.32112
3.21506
3.15818
3.1447
3.15252
3.18126
3.16992
3.13855
3.10146
3.03804
3.03595
3.05257
3.11543
3.12167
3.24153
3.21676
3.17281
3.20366
3.24948
3.31236
3.32096
3.20224
3.05983
3.06817
3.14998
3.17537
3.20715
3.28035
3.11055
2.93243
2.79091
2.65008
2.55093
2.48846
2.39234
2.32789
2.34738
2.31545
2.30222
2.25891
2.35165
2.24459
2.41649
2.36683
2.54102
2.58449
2.70692
2.87885
2.91086
2.9885
2.9377
2.89922
2.93163
2.89008
2.83576
3.0748
3.23319
3.37119
4.02099
3.42803
2.86649
2.60599
2.41436
2.27025
2.07336
1.9625
1.81875
1.83103
1.72565
1.73577
1.69114
1.65908
1.67407
1.67118
1.78586
1.88363
1.98683
2.21623
2.38716
2.48095
2.39818
2.3008
2.43725
2.461
2.42647
2.44556
2.45617
2.52773
2.16684
1.83924
1.66763
1.52496
1.40774
1.37792
1.34824
1.30124
1.34992
1.35481
1.30248
1.3876
1.32784
1.42456
1.59011
1.72112
1.94698
2.09128
1.90344
1.97021
2.07866
2.17831
2.27669
2.29905
2.33097
2.36604
2.3438
2.27321
2.18708
1.84388
2.14643
2.19314
2.22969
2.46631
2.67851
2.94242
3.08945
3.28753
3.22923
3.2887
3.16073
3.06534
2.8918
2.6747
2.35254
2.06474
1.75592
1.51956
1.45476
1.46048
1.44797
1.4397
1.42447
1.40541
1.39867
1.41106
1.43154
1.47898
1.44894
2.3296
2.62845
2.26238
2.17052
3.01683
3.49107
3.6176
3.72026
3.84406
3.90153
4.10035
4.14541
4.24781
4.24376
4.31606
4.23138
4.29629
4.1306
4.11242
3.92747
3.84416
3.7906
3.40164
2.58578
2.35191
2.76983
3.27781
3.30255
3.17913
2.93957
5.79351
5.53996
6.76401
8.55372
9.04562
8.90891
8.61218
7.81183
6.70813
6.8035
7.59388
7.26058
7.04968
8.42385
7.10037
4.76906
3.32909
3.41703
3.40932
3.26434
3.15562
3.16796
3.23431
3.29929
3.48446
4.03487
4.5591
4.17717
3.68416
3.52487
3.64474
3.93018
4.4399
5.05027
5.69628
6.08762
6.24028
6.09174
5.63805
5.24994
4.92957
4.62663
4.33661
4.00876
3.64535
3.36735
3.10267
3.15299
3.11531
3.06588
3.10313
3.12675
3.14781
3.21601
3.35844
3.41306
3.3965
3.38308
3.16722
3.13073
3.23923
3.25215
3.28192
3.26635
3.28405
3.25134
3.28988
3.2732
3.30467
3.28114
3.34364
3.30117
3.36448
3.29653
3.32931
3.36495
3.37566
3.30288
3.17366
3.03528
3.08166
3.01362
2.94633
2.96896
2.97272
2.9392
2.92099
2.96353
3.02323
3.04512
3.18156
3.27
3.09845
3.01499
2.92307
2.80119
2.76197
2.73235
2.7366
2.71246
2.68894
2.73992
2.68617
2.77507
2.77362
2.8188
2.88933
2.97692
3.0531
3.15911
3.59259
3.64835
3.5622
3.33369
3.27103
3.43854
3.56883
3.63913
3.66329
3.7134
3.76619
3.76971
3.81643
3.88187
3.94211
3.94692
3.97065
3.94117
3.78267
3.71822
3.54762
3.48504
3.42393
3.45302
3.43754
3.44184
3.39318
3.27422
2.97466
3.07458
3.09398
3.09461
3.08443
3.06174
3.02877
3.01362
3.0366
3.06875
3.08077
3.06171
3.03594
3.01242
2.99199
2.99244
3.06831
3.21442
3.43617
3.56778
3.65865
3.84494
4.10695
4.27089
4.51308
4.65773
4.72612
4.66161
4.60292
4.37508
4.12383
3.85119
3.56772
3.31383
3.16397
3.21261
2.82014
2.17332
1.86868
2.11371
2.49373
2.79848
2.93085
2.73711
2.53317
2.47588
2.35701
2.0393
1.87464
1.85061
1.92697
2.01052
2.14481
2.29687
2.47518
2.61874
2.64602
2.65731
2.62964
2.45185
2.33604
2.21287
2.07639
1.97874
1.94719
1.87484
1.59705
1.5548
2.88796
3.48549
3.47306
3.54345
3.54232
3.39971
3.24046
3.16165
3.1371
3.15861
3.17167
3.17443
3.15314
3.10678
3.12622
3.07408
3.08923
3.14747
3.11376
3.23263
3.23371
3.17601
3.19161
3.25076
3.29723
3.31283
3.21365
3.09921
3.17714
3.23193
3.2803
3.34397
3.31296
3.30136
3.22487
3.07892
2.92423
2.8239
2.7004
2.5668
2.51726
2.44914
2.35454
2.30843
2.28944
2.28163
2.24424
2.30872
2.26982
2.39658
2.42431
2.54954
2.60132
2.77337
2.83549
2.95918
2.961
2.91447
2.97419
3.06099
2.94483
2.97557
3.20883
3.28172
3.31685
3.65308
4.05122
4.24953
3.50083
2.86223
2.62544
2.39819
2.24845
2.09809
1.92692
1.82504
1.82219
1.73342
1.79171
1.75368
1.74345
1.73358
1.74068
1.78431
1.91241
2.04748
2.26721
2.43774
2.48416
2.41096
2.37423
2.44245
2.48969
2.49262
2.51985
2.59947
2.78024
2.78679
2.57195
2.08212
1.82621
1.6747
1.51397
1.44324
1.3442
1.37681
1.31762
1.34796
1.34813
1.32634
1.30587
1.46221
1.35134
1.59769
1.7026
1.91675
1.99945
1.88297
1.94639
2.17871
2.23818
2.2991
2.38599
2.41678
2.43417
2.48135
2.43978
2.31412
2.02668
1.91063
1.83687
2.09157
2.24748
2.33236
2.45127
2.73009
2.92491
3.18092
3.26192
3.39741
3.28896
3.27659
3.15134
2.95734
2.73616
2.45206
2.15829
1.84384
1.58675
1.44856
1.461
1.45869
1.44728
1.44235
1.43137
1.42209
1.42473
1.4574
1.49187
1.46121
1.44987
1.54691
1.76501
2.33434
2.86887
2.53049
2.65815
3.26209
3.6158
3.71268
3.81549
3.9164
4.08102
4.10951
4.24862
4.28565
4.28557
4.24246
4.25743
4.19066
4.08919
3.98263
3.82816
3.77236
3.61335
2.68715
2.15574
2.23411
2.7765
2.80659
2.60181
2.63438
3.94312
4.12927
5.80382
5.85474
7.98343
9.22052
9.03448
8.54813
8.50644
8.27181
7.57334
7.50437
7.67496
7.18894
7.2239
8.27862
6.86687
4.56069
3.33542
3.39105
3.48333
3.3806
3.23032
3.14266
3.14035
3.18502
3.37727
3.91648
4.45622
4.07228
3.65092
3.53367
3.6909
4.02723
4.55768
5.18192
5.74061
6.06675
6.15451
5.99893
5.63591
5.28817
4.94834
4.60523
4.27896
3.9151
3.57314
3.32497
3.10489
3.20403
3.13899
3.06418
3.06467
3.09686
3.16368
3.30827
3.3344
3.26384
3.22932
3.24735
3.09215
3.1607
3.25212
3.25743
3.28252
3.27664
3.28844
3.2559
3.27799
3.27377
3.31644
3.30837
3.35039
3.31249
3.33435
3.30879
3.35616
3.36793
3.35825
3.21749
3.08634
3.01812
3.03151
3.01103
2.96543
2.91917
2.90673
2.88195
2.89182
2.96772
2.99212
3.02783
3.23395
3.26845
3.07402
2.9978
2.89921
2.81941
2.77
2.72134
2.77286
2.77797
2.77172
2.72576
2.70933
2.78177
2.80719
2.84194
2.92955
3.00765
3.10257
3.32467
3.71748
3.57217
3.37983
3.24284
3.28894
3.41031
3.54653
3.624
3.64257
3.68322
3.73144
3.72546
3.76159
3.79531
3.84927
3.83206
3.85374
3.79498
3.67517
3.62604
3.52387
3.49389
3.43602
3.45569
3.44979
3.45173
3.35485
3.14434
3.04289
3.1097
3.08799
3.05231
3.02192
3.00913
3.03081
3.00185
3.01899
3.03057
3.02981
3.02546
3.01339
3.00548
3.00193
3.0361
3.1275
3.26488
3.45762
3.52125
3.56563
3.71974
3.93349
4.10204
4.28867
4.46251
4.49341
4.50533
4.44659
4.2445
4.04646
3.79594
3.51486
3.30241
3.18289
3.19969
2.91989
2.25853
1.87369
2.0646
2.40347
2.6948
2.86671
2.73105
2.58797
2.54317
2.44367
2.12504
1.90081
1.84369
1.87455
1.94829
2.05782
2.16769
2.32656
2.47346
2.5054
2.48428
2.46387
2.3497
2.2716
2.12281
2.03357
1.96102
1.92085
1.82277
1.57711
1.57727
2.84542
3.59383
3.56859
3.72626
3.71692
3.53311
3.30863
3.18392
3.14443
3.14422
3.16321
3.20261
3.18615
3.07692
3.05863
3.07769
3.10404
3.11362
3.1218
3.23951
3.2407
3.1862
3.21122
3.24523
3.29521
3.28933
3.18054
3.10335
3.21332
3.24808
3.32539
3.36339
3.36076
3.33044
3.27738
3.14967
2.98661
2.85734
2.76173
2.6624
2.55459
2.47185
2.43288
2.45712
2.39614
2.32976
2.3624
2.39149
2.37825
2.42347
2.47851
2.57347
2.69758
2.7813
2.92355
2.97922
2.95579
2.99365
3.18315
3.12012
3.08441
3.12948
3.23528
3.26754
3.62649
4.18951
4.51766
4.45747
3.66542
2.92307
2.63257
2.42611
2.24905
2.13947
1.93488
1.85535
1.86461
1.70784
1.68671
1.7058
1.69975
1.67939
1.73462
1.8783
1.99474
2.15192
2.33904
2.5331
2.50229
2.35261
2.40438
2.46185
2.53864
2.7169
2.87666