/*--------------------------------*- C++ -*----------------------------------*\
| =========                 |                                                 |
| \\      /  F ield         | OpenFOAM: The Open Source CFD Toolbox           |
|  \\    /   O peration     | Version:  2.1.1                                 |
|   \\  /    A nd           | Web:      www.OpenFOAM.org                      |
|    \\/     M anipulation  |                                                 |
\*---------------------------------------------------------------------------*/
FoamFile
{
    version     2.0;
    format      ascii;
    class       volScalarField;
    location    "0.008100000";
    object      G;
}
// * * * * * * * * * * * * * * * * * * * * * * * * * * * * * * * * * * * * * //

dimensions      [0 0 0 0 0 0 0];

internalField   nonuniform List<scalar> 
12384
(
1
1
1
1
1
1
1
1
1
1
1
1
1
1
1
1
1
1
1
1
1
1
1
1
1
1
1
1
1
1
1
1
1
1
1
1
1
1
1
1
1
1
1
1
1
1
1
1
1
1
1
1
1
1
1
1
1
1
1
1
1
0.999999
0.999999
0.999999
0.999999
0.999999
0.999999
0.999999
1
1
1
1
1
1
1
1
1
1
1
1
0.999999
1
1
1
1
1
1
1
1
0.999998
0.999993
0.999987
0.999989
0.999995
0.999996
0.999997
0.999997
0.999997
0.999998
0.999999
1
1
1
1
1
1
1
1
1
1
1
0.999996
0.999973
0.999883
0.999716
0.999444
0.999448
0.999613
0.999705
0.999858
0.999898
0.99995
0.999977
0.999994
0.999999
1
1
1
1
1
1
1
1
1
1
1
1
1
1
1
1
1
1
1
1
1
1
1
1
0.999999
0.999994
0.999982
0.999962
0.999959
0.999972
0.999984
0.999991
0.999994
0.999997
0.999999
1
1
1
1
1
1
1
1
1
0.999999
0.999998
0.999996
0.999992
0.999982
0.999957
0.999859
0.999537
0.998635
0.996362
0.991614
0.983883
0.975457
0.969661
0.974362
0.9781
0.984543
0.990084
0.994725
0.998078
0.999784
0.999999
1
1
1
1
1
1
1
1
1
0.999998
0.999987
0.999933
0.999749
0.999268
0.998731
0.997833
0.998106
0.998581
0.99919
0.999529
0.999772
0.999917
0.999985
1
1
1
1
1
1
1
1
1
1
1
1
1
0.999999
0.999992
0.999954
0.999806
0.999378
0.99844
0.996961
0.995313
0.994673
0.995717
0.997209
0.99847
0.999288
0.999748
0.999964
0.999999
1
1
1
1
1
1
1
1
1
1
1
1
1
1
1
1
0.999996
0.999971
0.999835
0.999322
0.998014
0.995269
0.992652
0.9904
0.992821
0.995422
0.997326
0.998678
0.999548
0.999925
0.999998
1
1
1
1
1
1
1
1
1
1
1
0.999999
0.999995
0.999986
0.999945
0.999749
0.999198
0.997991
0.996231
0.994694
0.994945
0.996974
0.998488
0.999427
0.999894
0.999995
1
1
1
1
1
1
1
1
1
1
1
1
1
1
1
1
1
1
1
0.999997
0.99999
0.99998
0.999963
0.999968
0.999949
0.99994
0.999918
0.999883
0.999906
0.999953
0.999979
0.999993
0.999995
0.999996
0.999994
0.999982
0.999971
0.999944
0.999967
0.999978
0.999992
0.999997
0.999999
1
1
1
1
1
1
1
1
1
1
0.999999
0.999995
0.999991
0.999983
0.999983
0.999968
0.999976
0.999973
0.999994
0.999998
1
1
1
1
1
1
1
1
1
1
1
1
1
1
1
1
1
1
1
1
1
1
1
1
1
1
1
1
1
1
1
1
1
1
1
1
1
1
1
1
0.999986
0.999849
0.999251
0.997996
0.996637
0.995998
0.996827
0.998165
0.999357
0.999868
0.99999
1
1
1
1
1
1
1
1
1
1
1
1
1
1
1
0.999999
0.999961
0.99936
0.99557
0.986131
0.966784
0.95042
0.935361
0.935931
0.944845
0.960197
0.977647
0.990686
0.997677
0.999736
0.999991
1
1
1
1
0.999982
0.999812
0.999499
0.999345
0.999536
0.999809
0.999946
0.999991
0.999999
1
0.999998
0.999964
0.999222
0.992242
0.963935
0.903802
0.817026
0.742249
0.714116
0.722861
0.772133
0.852449
0.931919
0.982458
0.998278
0.999963
1
1
1
1
1
1
1
1
0.999983
0.999332
0.993856
0.972286
0.922103
0.847054
0.75708
0.67234
0.630249
0.635113
0.652467
0.721354
0.799937
0.886658
0.963287
0.996066
0.9999
1
1
1
1
1
1
1
1
1
1
0.999979
0.99981
0.999537
0.999507
0.999745
0.99993
0.999989
0.999999
1
1
0.999999
0.999989
0.999812
0.998297
0.990954
0.972334
0.942971
0.909493
0.884278
0.880449
0.900495
0.928353
0.960692
0.986977
0.998516
0.999975
1
1
1
0.999971
0.999683
0.998746
0.997213
0.995926
0.996147
0.997543
0.998435
0.998698
0.998092
0.993593
0.974021
0.916206
0.795344
0.625089
0.449705
0.31298
0.215011
0.163724
0.145437
0.150737
0.176623
0.24355
0.373603
0.618059
0.888393
0.98514
0.99996
1
1
1
1
1
1
0.999995
0.999749
0.996299
0.977476
0.923914
0.831831
0.712707
0.602016
0.517695
0.487253
0.485964
0.533897
0.615476
0.732014
0.864334
0.968138
0.998533
0.999999
1
1
1
1
1
1
1
1
1
1
0.999998
0.999799
0.996731
0.978233
0.921462
0.81434
0.672363
0.529766
0.420759
0.359397
0.334787
0.345618
0.417524
0.553377
0.731559
0.910325
0.992251
0.999979
1
1
1
1
1
1
1
1
1
1
1
1
1
0.999999
0.999938
0.998271
0.982068
0.916604
0.775145
0.603015
0.438815
0.332145
0.263881
0.255857
0.297794
0.382938
0.531768
0.741931
0.923129
0.992886
0.999967
1
1
1
1
1
1
1
1
1
1
1
0.999983
0.999057
0.988812
0.943134
0.842087
0.698981
0.551488
0.449714
0.409048
0.425238
0.510328
0.663256
0.858545
0.976819
0.99925
1
1
1
1
1
1
1
1
1
1
1
1
1
1
1
0.999985
0.99903
0.987471
0.942739
0.867112
0.774078
0.684317
0.667881
0.628485
0.657024
0.708421
0.784481
0.857881
0.930982
0.973543
0.994129
0.998462
0.999459
0.999161
0.998043
0.993669
0.985559
0.977092
0.979135
0.99041
0.998471
0.999998
1
1
1
1
1
0.999998
0.999946
0.999832
0.998528
0.989896
0.966988
0.943339
0.925582
0.934181
0.937301
0.962877
0.976795
0.991884
0.996904
0.999565
0.999941
0.999999
1
1
1
1
1
1
1
1
1
1
1
1
1
1
1
1
1
1
1
1
1
1
1
1
1
1
1
1
1
1
1
1
1
1
1
0.999996
0.999949
0.999732
0.999221
0.998444
0.997508
0.996682
0.996201
0.996619
0.997288
0.998539
0.999449
0.999897
0.999994
1
1
1
1
1
1
1
1
1
1
1
1
1
0.999992
0.999827
0.998519
0.993667
0.981475
0.964278
0.937051
0.919492
0.896893
0.899761
0.90403
0.923817
0.944271
0.967367
0.985552
0.996229
0.999567
0.99999
1
1
1
0.999848
0.999608
0.999548
0.999642
0.999777
0.999898
0.999957
0.999977
0.999982
0.999967
0.999752
0.997897
0.988904
0.96466
0.918659
0.845287
0.764133
0.69613
0.638891
0.637284
0.678783
0.738434
0.824982
0.917159
0.979171
0.998186
0.999974
1
1
1
1
1
1
0.999994
0.999489
0.994789
0.978887
0.947812
0.900352
0.841174
0.771758
0.724616
0.671384
0.646808
0.671158
0.697711
0.74208
0.800581
0.877465
0.957568
0.994665
0.999841
1
1
1
1
1
1
1
1
0.999998
0.999971
0.999947
0.999967
0.999988
0.999996
0.999998
0.999999
0.999999
0.999999
0.999997
0.999961
0.999578
0.997513
0.99148
0.981309
0.969667
0.952462
0.933586
0.922524
0.914776
0.914229
0.924087
0.940255
0.964488
0.988274
0.998931
0.999992
1
1
0.999817
0.999599
0.999378
0.999112
0.99883
0.99852
0.998369
0.997747
0.995568
0.987936
0.959447
0.896274
0.80131
0.689432
0.579077
0.474451
0.383149
0.310584
0.26929
0.22542
0.212883
0.220198
0.235889
0.28247
0.40612
0.659381
0.899409
0.991015
0.999997
1
1
1
1
0.999999
0.999784
0.995452
0.972777
0.920339
0.845399
0.761462
0.660923
0.582125
0.531723
0.477395
0.484268
0.508116
0.554306
0.625298
0.728385
0.862362
0.9693
0.998806
1
1
1
1
1
1
1
1
1
1
0.999921
0.997486
0.980198
0.928585
0.835522
0.713041
0.580759
0.469511
0.37968
0.318641
0.310678
0.317831
0.331717
0.390025
0.520498
0.703034
0.8962
0.990736
0.999971
1
1
1
1
1
1
1
1
1
1
1
1
0.999984
0.99887
0.981398
0.901829
0.748511
0.566307
0.420593
0.299082
0.217584
0.18332
0.164603
0.178691
0.224049
0.302709
0.446473
0.666025
0.880868
0.985387
0.99988
1
1
1
1
1
1
1
1
1
0.999998
0.999409
0.985802
0.913322
0.769357
0.598305
0.446486
0.341744
0.292436
0.254881
0.256424
0.29073
0.383007
0.554003
0.78783
0.952222
0.998204
1
1
1
1
1
1
1
1
1
1
1
1
1
0.999991
0.99917
0.988317
0.948422
0.885681
0.815979
0.793229
0.754224
0.772502
0.765095
0.799503
0.816632
0.851611
0.888245
0.91746
0.948426
0.970798
0.985566
0.993959
0.995408
0.996588
0.99698
0.997073
0.993119
0.989039
0.988148
0.994347
0.999992
1
1
1
1
0.999999
0.99989
0.9995
0.996768
0.981694
0.95166
0.924937
0.926246
0.924797
0.94468
0.952904
0.969235
0.9778
0.991204
0.994146
0.998379
0.999501
0.999952
0.999999
1
1
1
1
1
1
1
1
1
1
1
1
1
1
1
1
1
1
1
1
1
1
1
1
1
1
1
1
1
1
1
1
1
0.99999
0.99989
0.999594
0.999321
0.999218
0.999216
0.999187
0.999116
0.999031
0.998981
0.998916
0.999
0.999323
0.999742
0.99996
0.999999
1
1
1
1
1
1
1
1
1
1
0.999999
0.999984
0.999771
0.998281
0.99357
0.98515
0.97202
0.957633
0.938666
0.922795
0.909491
0.900138
0.905749
0.912444
0.929574
0.948067
0.969459
0.986862
0.996924
0.999764
0.999998
1
1
0.999232
0.999361
0.999699
0.999879
0.999939
0.999951
0.999945
0.999923
0.999837
0.999448
0.996943
0.985997
0.960007
0.9191
0.865951
0.81713
0.774619
0.724825
0.67661
0.631396
0.637421
0.680002
0.752332
0.840273
0.932327
0.986612
0.999307
0.999995
1
1
1
1
1
0.999872
0.996627
0.981581
0.955321
0.92378
0.893542
0.867068
0.841331
0.809258
0.785186
0.757575
0.737494
0.743596
0.751956
0.774002
0.81765
0.891668
0.966035
0.996216
0.999906
1
1
1
1
1
1
1
0.999989
0.999974
0.999993
1
1
1
1
0.999999
0.999997
0.999993
0.999964
0.999535
0.996681
0.988594
0.97979
0.977089
0.975352
0.974663
0.974131
0.969063
0.963572
0.958573
0.952269
0.949401
0.9551
0.974407
0.993898
0.99977
1
1
0.999136
0.999564
0.999809
0.999863
0.999813
0.99967
0.999345
0.998155
0.993004
0.969863
0.89223
0.770627
0.656075
0.578138
0.540223
0.522606
0.517509
0.491578
0.458863
0.415573
0.38913
0.350037
0.315489
0.295892
0.33197
0.493504
0.766579
0.953317
0.999961
1
1
1
1
0.999975
0.997947
0.977398
0.919367
0.84674
0.781691
0.729369
0.672267
0.654998
0.604939
0.59648
0.574072
0.570333
0.584227
0.610245
0.661221
0.75915
0.895369
0.983787
0.999747
1
1
1
1
1
1
1
1
0.999995
0.999408
0.990375
0.94888
0.860326
0.744976
0.628324
0.538696
0.468397
0.407307
0.350547
0.317015
0.326596
0.356598
0.36649
0.415273
0.540986
0.733522
0.924299
0.995915
0.999996
1
1
1
1
1
1
1
1
1
1
1
0.999888
0.993493
0.929854
0.762829
0.576467
0.418777
0.333559
0.248655
0.210802
0.175312
0.161685
0.155903
0.16866
0.209075
0.281829
0.434689
0.666142
0.889796
0.989646
0.999962
1
1
1
1
1
1
1
1
0.999946
0.995215
0.937493
0.766919
0.55813
0.400414
0.308554
0.24939
0.193235
0.173179
0.180402
0.199346
0.243285
0.339647
0.532815
0.793864
0.962871
0.99954
1
1
1
1
1
1
1
1
1
1
1
0.999999
0.999748
0.993825
0.967983
0.917857
0.887888
0.862202
0.875437
0.875011
0.89513
0.890907
0.908242
0.911845
0.916031
0.915881
0.924905
0.933276
0.94723
0.96316
0.973671
0.983604
0.990064
0.997973
0.999646
0.999523
0.996746
0.988842
0.986685
0.999984
1
1
1
1
0.999946
0.999378
0.996165
0.982248
0.946997
0.925779
0.925677
0.936574
0.955521
0.962745
0.972992
0.983715
0.983745
0.991686
0.992973
0.996467
0.998364
0.999766
0.999985
1
1
1
1
1
1
1
1
1
1
1
1
1
1
1
1
1
1
1
1
1
1
1
1
1
1
1
1
1
1
1
1
0.999993
0.999881
0.999482
0.999249
0.999463
0.999706
0.999854
0.999918
0.999941
0.999938
0.999919
0.999853
0.999751
0.99964
0.999711
0.9999
0.999991
1
1
1
0.999999
1
1
1
1
1
1
0.99999
0.999867
0.99878
0.994509
0.987165
0.980013
0.974017
0.970427
0.965107
0.960715
0.9498
0.944737
0.935962
0.935332
0.937055
0.947254
0.960404
0.977235
0.991363
0.998594
0.999949
1
0.999999
0.997016
0.998898
0.99981
0.999973
0.99999
0.999981
0.999919
0.999764
0.999367
0.997447
0.98818
0.961292
0.911142
0.849771
0.813923
0.811809
0.813248
0.806365
0.790964
0.756241
0.710273
0.67634
0.7066
0.785965
0.881412
0.961512
0.995546
0.999899
0.999999
1
1
1
0.999998
0.999158
0.988614
0.958555
0.925084
0.900903
0.901558
0.909192
0.917114
0.916371
0.904773
0.889306
0.863889
0.834245
0.805281
0.792177
0.798349
0.840916
0.918667
0.980728
0.998587
0.999985
1
1
1
1
1
1
0.999964
0.999973
0.999999
1
1
1
1
1
0.999994
0.999981
0.999868
0.998238
0.989134
0.973278
0.967721
0.973475
0.98232
0.991594
0.994728
0.995343
0.993159
0.988167
0.980364
0.968929
0.961216
0.965486
0.985756
0.998466
0.999999
1
0.996638
0.999346
0.999942
0.999986
0.99998
0.999943
0.999796
0.998867
0.992288
0.954312
0.819853
0.644663
0.530458
0.490354
0.518266
0.602184
0.687876
0.740158
0.764101
0.740233
0.659438
0.566539
0.46203
0.37586
0.325983
0.39938
0.635481
0.889754
0.999882
1
1
1
1
0.999836
0.992096
0.943285
0.856882
0.788107
0.747368
0.73767
0.754361
0.769742
0.749619
0.715508
0.69938
0.682666
0.661187
0.64908
0.65072
0.696652
0.813248
0.943973
0.996268
0.99999
1
1
1
1
1
1
1
0.999969
0.998162
0.979104
0.908528
0.781936
0.651432
0.567713
0.53098
0.521823
0.523779
0.512391
0.448511
0.393654
0.390918
0.39569
0.408208
0.449031
0.595001
0.8068
0.967259
0.99933
1
1
1
1
1
1
1
1
1
1
0.999999
0.99959
0.979493
0.845191
0.624306
0.440955
0.351839
0.297139
0.260586
0.249357
0.248883
0.228789
0.214652
0.191758
0.188149
0.220003
0.30123
0.484275
0.735754
0.941683
0.997892
0.999999
1
1
1
1
1
1
0.999998
0.999686
0.982971
0.852473
0.603551
0.404537
0.292471
0.237143
0.197874
0.193547
0.175706
0.160863
0.152837
0.175027
0.219302
0.347679
0.584768
0.875186
0.992312
0.999992
1
1
1
1
1
1
1
1
1
1
0.999981
0.99848
0.984773
0.954641
0.922008
0.922838
0.927281
0.950512
0.956777
0.970278
0.973082
0.976091
0.972184
0.963374
0.947598
0.926106
0.918425
0.929847
0.942259
0.953096
0.964916
0.981032
0.99682
0.999979
0.99999
0.998698
0.985369
0.973107
0.999981
1
1
1
0.999999
0.999785
0.997892
0.987263
0.957606
0.931193
0.927592
0.946409
0.964698
0.978382
0.988028
0.990811
0.995276
0.99415
0.994381
0.993246
0.995262
0.995852
0.999208
0.999944
1
1
1
1
1
1
1
1
1
1
1
1
1
1
1
1
1
1
1
1
1
1
1
1
1
1
1
1
1
1
1
0.999998
0.999956
0.9996
0.999135
0.999335
0.999745
0.999933
0.999989
0.999998
1
1
0.999999
0.999994
0.999971
0.999894
0.999794
0.999856
0.999972
0.999999
1
1
0.999997
1
1
1
1
1
0.999998
0.999965
0.999609
0.996671
0.988902
0.982189
0.980133
0.985253
0.987552
0.992255
0.992517
0.991741
0.986479
0.98042
0.970577
0.963911
0.959695
0.963166
0.972493
0.985759
0.995792
0.999618
1
0.999998
0.99125
0.997776
0.999856
0.999997
0.999999
0.999994
0.999909
0.999525
0.998521
0.99458
0.976573
0.926458
0.848342
0.784067
0.76854
0.80328
0.869791
0.919487
0.918923
0.881457
0.825718
0.773347
0.724109
0.756885
0.839968
0.932628
0.986888
0.999287
0.999997
1
1
1
0.999974
0.997161
0.974397
0.925835
0.887109
0.87708
0.906162
0.93947
0.967673
0.983492
0.987979
0.980703
0.96452
0.930524
0.881371
0.832831
0.799886
0.817741
0.88001
0.955343
0.994078
0.999837
1
1
1
1
1
1
0.999934
0.999967
0.999999
1
1
1
1
1
0.999994
0.999977
0.999765
0.996531
0.979041
0.956006
0.951699
0.970618
0.988896
0.997657
0.999439
0.99982
0.999736
0.998904
0.994983
0.98412
0.969563
0.964319
0.976301
0.994733
0.999997
1
0.990743
0.998875
0.999978
0.999999
0.999999
0.999992
0.999933
0.999331
0.9931
0.948793
0.771671
0.555177
0.436475
0.427482
0.515939
0.6728
0.834161
0.928323
0.968325
0.956643
0.903836
0.786521
0.604909
0.448083
0.332794
0.353932
0.535937
0.812761
0.999841
1
1
1
0.999999
0.999478
0.982451
0.906151
0.804795
0.7488
0.740073
0.775027
0.851783
0.880238
0.903781
0.916381
0.886258
0.829493
0.768546
0.713423
0.672649
0.666358
0.746508
0.888989
0.984484
0.999773
1
1
1
1
1
0.999999
0.999999
0.99992
0.996734
0.966244
0.865641
0.711728
0.581538
0.531764
0.546805
0.608213
0.673038
0.721418
0.717861
0.630982
0.527329
0.426872
0.435622
0.418739
0.505727
0.695959
0.907809
0.993664
0.999986
1
1
1
1
1
1
1
1
1
0.999997
0.999004
0.957435
0.761409
0.51999
0.364818
0.330908
0.295451
0.33219
0.40988
0.408402
0.371889
0.315608
0.268204
0.219464
0.207404
0.248871
0.376001
0.608702
0.863827
0.988514
0.999974
1
1
1
1
1
0.999993
0.999992
0.998992
0.959814
0.753828
0.478864
0.314362
0.234789
0.216634
0.251383
0.306723
0.331594
0.290254
0.211373
0.176303
0.172399
0.251691
0.420934
0.757966
0.974292
0.999922
1
1
0.999999
0.999998
0.999999
1
1
1
1
1
0.999854
0.995938
0.979316
0.956756
0.945688
0.961195
0.972129
0.987796
0.992965
0.997042
0.998211
0.998437
0.996939
0.990375
0.971057
0.935429
0.903504
0.905717
0.935374
0.94433
0.958473
0.971916
0.995498
0.999972
0.999995
0.998467
0.980716
0.966684
0.999984
1
1
1
0.999996
0.999518
0.994738
0.976154
0.943802
0.93289
0.948917
0.968987
0.986624
0.995121
0.998837
0.999232
0.99943
0.998751
0.997607
0.993784
0.994707
0.993217
0.997787
0.999806
0.999999
1
1
1
1
1
1
1
1
1
1
1
1
1
1
1
1
1
1
1
1
1
1
1
1
1
1
1
1
1
1
0.999996
0.999902
0.999381
0.99919
0.999571
0.999895
0.999989
1
1
1
1
1
1
0.999997
0.999967
0.999874
0.999823
0.999944
0.999997
1
1
0.999992
1
1
1
1
1
0.999996
0.999952
0.99921
0.993561
0.982885
0.980143
0.983108
0.992714
0.996907
0.999419
0.999806
0.999876
0.999651
0.998244
0.994096
0.98597
0.97744
0.972093
0.974385
0.981702
0.992094
0.998477
1
0.999998
0.981243
0.995495
0.999852
1
1
0.999999
0.999919
0.999435
0.997998
0.992291
0.967735
0.900263
0.806385
0.733501
0.705549
0.795147
0.915577
0.982202
0.995035
0.98479
0.928066
0.851843
0.771229
0.762072
0.816524
0.908099
0.975257
0.997415
0.999994
1
1
1
0.999848
0.993039
0.955241
0.888967
0.844348
0.845894
0.900003
0.951581
0.989022
0.998906
0.999822
0.999715
0.997234
0.98093
0.944355
0.880532
0.833439
0.812616
0.856329
0.934385
0.987364
0.9994
0.999999
1
1
1
1
1
0.999931
0.999968
0.999999
1
1
1
1
1
0.999997
0.999986
0.999782
0.995532
0.970974
0.937641
0.936984
0.970272
0.991391
0.999232
0.99998
1
0.999999
0.999961
0.999115
0.992698
0.97785
0.960962
0.969284
0.989123
0.999996
1
0.981752
0.997758
0.999988
1
1
0.999999
0.999975
0.999533
0.994326
0.954384
0.763483
0.512686
0.383139
0.39152
0.505626
0.702366
0.911892
0.991117
0.999829
0.999645
0.99044
0.924158
0.742542
0.529208
0.352696
0.323863
0.476875
0.749087
0.999903
1
1
1
0.999998
0.999049
0.973767
0.87778
0.772453
0.727116
0.743611
0.823436
0.919348
0.962609
0.989953
0.992757
0.978946
0.941192
0.860646
0.775376
0.701956
0.659287
0.702093
0.841807
0.968138
0.99904
1
1
1
1
1
0.999998
0.999999
0.99988
0.995648
0.957487
0.832872
0.657429
0.529064
0.498159
0.567506
0.708116
0.858951
0.941578
0.940627
0.859663
0.744736
0.544404
0.468641
0.424455
0.466637
0.615033
0.84604
0.979843
0.999786
1
1
1
1
1
1
1
1
1
0.999995
0.998235
0.936896
0.699466
0.458569
0.326786
0.324127
0.324272
0.467377
0.658404
0.791164
0.75771
0.579786
0.438811
0.270297
0.233795
0.243167
0.329397
0.522145
0.802388
0.973556
0.999879
1
1
1
1
1
0.999985
0.999984
0.997485
0.92883
0.667833
0.399608
0.257586
0.217397
0.243099
0.382645
0.525502
0.586981
0.46624
0.281087
0.200198
0.147102
0.211729
0.339647
0.655741
0.949991
0.999802
0.999999
0.999999
0.999991
0.999968
0.999937
0.999964
0.999995
1
1
1
0.999455
0.993617
0.979354
0.968352
0.970034
0.983979
0.992368
0.998134
0.999594
0.999968
0.999994
0.999989
0.999809
0.997577
0.983718
0.944221
0.887307
0.883496
0.931742
0.957347
0.963447
0.977132
0.993442
0.999764
0.999882
0.995729
0.974348
0.963792
0.999987
1
1
1
0.999994
0.999308
0.992111
0.968221
0.945615
0.945927
0.966358
0.986127
0.996936
0.999647
0.999985
0.999995
0.999979
0.999679
0.998817
0.993781
0.993032
0.990977
0.995731
0.999357
0.999997
1
1
1
1
1
1
1
1
1
1
1
1
1
1
1
1
1
1
1
1
1
1
1
1
1
1
1
1
1
1
0.999997
0.99989
0.999413
0.999351
0.999714
0.99995
0.999997
1
1
1
1
1
1
0.999999
0.999981
0.999891
0.999816
0.999924
0.999993
1
1
0.999987
1
1
1
1
1
0.999998
0.999954
0.998703
0.989986
0.978121
0.978198
0.983742
0.994699
0.998682
0.999938
0.999999
1
1
0.999975
0.999362
0.99592
0.989037
0.982225
0.978748
0.981138
0.988579
0.996407
1
0.999999
0.971734
0.990216
0.99966
1
1
1
0.999951
0.999503
0.998387
0.992863
0.965259
0.897515
0.788073
0.688335
0.66435
0.761586
0.919376
0.994074
0.999975
0.99983
0.983865
0.917763
0.810483
0.781819
0.813237
0.893663
0.963061
0.994282
0.999992
1
1
0.999999
0.999534
0.987672
0.936251
0.855342
0.803466
0.812227
0.874994
0.947877
0.991651
0.999812
1
1
0.999964
0.996784
0.976207
0.915969
0.865369
0.822677
0.850982
0.921693
0.982334
0.999009
0.999997
1
1
1
1
1
0.999957
0.999976
0.999999
1
1
1
1
1
0.999999
0.999996
0.999882
0.996082
0.967456
0.925345
0.927308
0.966616
0.991499
0.999602
0.999998
1
1
0.999999
0.999712
0.99522
0.979188
0.961341
0.958669
0.982725
0.999997
1
0.972606
0.995815
0.999978
1
1
1
0.999993
0.999722
0.995704
0.967074
0.794782
0.50742
0.372719
0.36202
0.49996
0.686882
0.920986
0.996242
0.999999
0.999998
0.998302
0.957676
0.780591
0.556037
0.355827
0.315752
0.456837
0.707753
0.999975
1
1
1
0.999998
0.998906
0.970909
0.86501
0.760192
0.716023
0.751848
0.851601
0.949703
0.990694
0.999901
0.999995
0.99938
0.986493
0.921879
0.824119
0.720276
0.66198
0.680195
0.809451
0.953219
0.997971
0.999999
1
1
1
1
0.999998
0.999998
0.999867
0.995533
0.955579
0.823768
0.635043
0.495507
0.483316
0.571465
0.764317
0.948655
0.998663
0.999129
0.973538
0.872361
0.667933
0.530337
0.437837
0.466023
0.575509
0.800577
0.964535
0.999205
1
1
1
1
1
1
1
1
1
0.999992
0.997943
0.927245
0.675903
0.436676
0.312569
0.31165
0.363513
0.580685
0.870668
0.990779
0.986455
0.865895
0.611263
0.360227
0.288069
0.256233
0.317863
0.501637
0.764664
0.963636
0.999811
1
1
1
1
1
0.999992
0.999973
0.99543
0.901783
0.603878
0.349705
0.23352
0.214209
0.288848
0.546888
0.861756
0.970397
0.79467
0.418862
0.240158
0.142127
0.182691
0.305926
0.611359
0.931243
0.999643
0.999994
0.999987
0.999921
0.99962
0.998664
0.997613
0.998426
0.999782
1
1
0.998957
0.99371
0.98442
0.98066
0.984635
0.993302
0.997783
0.99977
0.999989
1
1
1
0.999965
0.99835
0.984422
0.939026
0.874508
0.862463
0.935711
0.973948
0.982467
0.987529
0.99357
0.999034
0.998872
0.993045
0.974576
0.975961
0.999993
1
1
1
0.999997
0.999374
0.991893
0.969513
0.952843
0.960771
0.977841
0.993575
0.999336
0.999989
1
1
0.999998
0.999733
0.99849
0.992283
0.988359
0.987592
0.992797
0.998605
0.99999
1
1
1
1
1
1
1
1
1
1
1
1
1
1
1
1
1
1
1
1
1
1
1
1
1
1
1
1
1
1
1
1
0.999999
0.999925
0.999564
0.999493
0.99977
0.999959
0.999997
1
1
1
1
1
1
0.999998
0.999967
0.999872
0.999837
0.999948
0.999996
1
1
1
0.999998
0.999985
1
1
1
1
1
0.999999
0.999959
0.998215
0.987995
0.973847
0.974813
0.978619
0.991364
0.996906
0.99973
0.99999
1
1
0.999996
0.9998
0.998273
0.993993
0.987235
0.983317
0.983938
0.987433
0.994634
0.999493
1
1
0.996707
0.96456
0.982853
0.998812
0.999999
1
1
0.999984
0.999706
0.999021
0.996114
0.975102
0.91006
0.798386
0.694808
0.648935
0.725316
0.878373
0.982133
0.999818
0.999966
0.993326
0.942627
0.851353
0.797444
0.827739
0.892024
0.956246
0.991175
0.999271
1
1
0.999993
1
0.999991
0.99912
0.983987
0.925377
0.837263
0.775858
0.779393
0.839375
0.924852
0.981488
0.999012
0.999995
1
0.999994
0.998704
0.985502
0.937807
0.882063
0.842204
0.864639
0.921875
0.981682
0.999067
0.999998
1
1
1
1
1
1
1
0.99998
0.999987
0.999999
1
1
1
1
1
1
1
0.999966
0.997625
0.971393
0.923983
0.922884
0.962117
0.989947
0.99933
0.999993
1
1
0.999998
0.999659
0.994732
0.97679
0.955244
0.95552
0.979636
0.998838
1
1
0.995214
0.970525
0.993415
0.999919
1
1
1
0.999999
0.999885
0.997309
0.979956
0.863898
0.571487
0.400257
0.372765
0.479129
0.657316
0.870558
0.977868
0.999175
0.999645
0.994028
0.940405
0.766501
0.536179
0.35426
0.336933
0.468196
0.713499
0.974384
1
1
0.999999
1
1
0.999999
0.999257
0.975422
0.875734
0.765795
0.722493
0.759174
0.856577
0.949797
0.991723
0.999951
1
0.999902
0.993215
0.944019
0.837282
0.730636
0.659235
0.672325
0.801852
0.950427
0.99805
1
1
1
1
1
1
1
0.999998
0.999996
0.99984
0.995672
0.960035
0.838143
0.646393
0.503751
0.478282
0.566944
0.748206
0.936143
0.998312
0.999876
0.992664
0.923976
0.731424
0.582638
0.457809
0.479487
0.582725
0.789234
0.958156
0.998864
0.999999
1
1
1
1
1
1
1
1
1
1
0.99999
0.998158
0.935938
0.686032
0.451325
0.327977
0.308454
0.373917
0.58979
0.851856
0.993727
0.996418
0.923597
0.686903
0.436153
0.331551
0.267686
0.351046
0.506934
0.771227
0.968509
0.999929
1
1
1
1
1
1
1
0.999988
0.999841
0.990733
0.872927
0.571839
0.330536
0.220661
0.206908
0.303125
0.572315
0.913861
0.995718
0.882787
0.464468
0.259611
0.145101
0.182715
0.289873
0.614683
0.931502
0.999184
0.999857
0.999735
0.998528
0.994633
0.984632
0.975237
0.968881
0.981537
0.997441
1
1
0.999768
0.998699
0.995226
0.990249
0.9885
0.991238
0.996431
0.99891
0.999905
0.999997
1
1
0.999999
0.999788
0.995629
0.972396
0.917386
0.84962
0.854621
0.940568
0.988916
0.994984
0.996602
0.995957
0.998002
0.995479
0.987465
0.968126
0.980717
0.999428
1
1
1
1
1
0.999999
0.999655
0.993922
0.975447
0.963136
0.968622
0.983473
0.995132
0.999545
0.999992
1
1
0.999961
0.999014
0.995697
0.98741
0.979357
0.983291
0.989035
0.997735
0.999978
1
1
1
1
1
1
1
1
1
1
1
1
1
1
1
1
1
1
1
1
1
1
1
1
1
1
1
1
1
1
1
1
1
1
1
0.999965
0.99971
0.999571
0.999756
0.999926
0.999988
0.999999
1
1
1
1
0.999997
0.999976
0.999908
0.99986
0.99992
0.999988
0.999999
1
1
1
0.999972
0.999986
1
1
1
1
1
1
0.999973
0.998368
0.987648
0.97065
0.965996
0.964436
0.977312
0.98466
0.994014
0.997961
0.999424
0.999711
0.999558
0.998866
0.99701
0.993878
0.990863
0.988421
0.988155
0.991544
0.996455
0.99918
1
1
0.996177
0.966751
0.976302
0.996471
0.999977
1
1
0.999995
0.999898
0.99963
0.998637
0.98841
0.942023
0.849456
0.725936
0.652349
0.698691
0.820054
0.933482
0.984678
0.993699
0.980802
0.938858
0.87162
0.824968
0.852942
0.904468
0.956846
0.990703
0.999384
1
0.999999
0.999968
0.999999
0.999993
0.999394
0.987161
0.933733
0.849447
0.77086
0.760095
0.80063
0.880846
0.945573
0.987626
0.998191
0.99972
0.99941
0.995413
0.980499
0.937535
0.893357
0.860333
0.883186
0.93469
0.985069
0.999416
1
1
1
1
1
1
1
1
0.999996
0.999996
0.999999
1
1
1
1
1
1
1
0.999995
0.999133
0.981081
0.933725
0.924129
0.955554
0.98484
0.99796
0.999848
0.999993
0.999996
0.999936
0.998575
0.99099
0.969286
0.95158
0.954555
0.98494
0.999322
1
1
0.977162
0.971342
0.993463
0.999753
1
1
1
1
0.999964
0.998807
0.991265
0.936021
0.674411
0.471863
0.396601
0.454699
0.585015
0.765864
0.89399
0.964159
0.973163
0.951826
0.857243
0.683817
0.488612
0.375592
0.387988
0.544785
0.796879
0.938357
0.999998
1
0.999999
1
1
1
0.999712
0.985355
0.903469
0.794884
0.739193
0.765124
0.836088
0.918888
0.971593
0.995944
0.999193
0.99776
0.983992
0.930781
0.825859
0.734298
0.67056
0.695272
0.820017
0.956969
0.998575
1
1
1
1
1
1
1
1
0.999999
0.999934
0.997705
0.97539
0.881279
0.71287
0.547609
0.486459
0.539959
0.689554
0.858672
0.963246
0.987992
0.975351
0.909652
0.74264
0.599106
0.511032
0.527044
0.632307
0.812813
0.967777
0.999236
0.999999
1
1
1
1
1
1
1
1
1
1
0.999992
0.999038
0.961669
0.746338
0.496818
0.360753
0.3207
0.346749
0.484122
0.672817
0.848332
0.903295
0.810735
0.628859
0.44667
0.334478
0.320513
0.391019
0.553206
0.803375
0.977604
0.99998
1
1
1
1
1
1
1
0.999998
0.999865
0.991341
0.880134
0.583942
0.346063
0.22265
0.209692
0.259142
0.418956
0.656957
0.798596
0.6813
0.366909
0.238365
0.149896
0.203623
0.320019
0.635414
0.937959
0.997018
0.998866
0.999234
0.998907
0.998145
0.995363
0.990248
0.983707
0.982907
0.98851
0.995755
0.998875
0.999586
0.999644
0.998641
0.995947
0.993675
0.993712
0.996692
0.998531
0.999643
0.999906
0.999972
0.999928
0.99953
0.99654
0.981196
0.938613
0.869955
0.822318
0.858024
0.954928
0.995772
0.999341
0.999604
0.998754
0.998221
0.994821
0.987868
0.97727
0.991874
0.999565
0.999998
1
1
1
1
1
0.999908
0.99675
0.983593
0.971294
0.972612
0.982784
0.992659
0.998169
0.999617
0.999855
0.999695
0.997986
0.993869
0.982694
0.977215
0.964521
0.976182
0.983856
0.997771
0.99997
1
1
1
1
1
1
1
1
1
1
1
1
1
1
1
1
1
1
1
1
1
1
1
1
1
1
1
1
1
1
1
1
1
1
1
0.999989
0.999824
0.999609
0.999647
0.999783
0.999896
0.999957
0.99998
0.999985
0.99998
0.999955
0.999893
0.999807
0.999789
0.999882
0.999971
0.999998
1
1
1
1
0.99995
0.999995
1
1
1
1
1
1
0.999989
0.99903
0.989832
0.970396
0.957591
0.94352
0.947059
0.947915
0.960125
0.966914
0.978588
0.984501
0.98782
0.99007
0.990933
0.991725
0.991732
0.992539
0.99448
0.996872
0.998933
0.999747
1
1
0.99807
0.973564
0.971583
0.992498
0.999739
0.999998
1
0.999996
0.999965
0.999906
0.99975
0.997272
0.974652
0.9096
0.81186
0.711143
0.678029
0.739178
0.837033
0.910172
0.945062
0.938074
0.914972
0.870475
0.855374
0.888062
0.924062
0.966468
0.992758
0.999651
1
0.999999
0.999968
1
0.999999
0.999853
0.994323
0.96037
0.889433
0.806156
0.760598
0.773986
0.828073
0.883298
0.933646
0.964347
0.978026
0.981974
0.973751
0.957419
0.917132
0.895611
0.881274
0.906207
0.95307
0.990997
0.99976
1
1
1
1
1
1
1
1
1
1
1
1
1
1
1
1
1
1
1
0.999841
0.991819
0.95285
0.931734
0.951319
0.975602
0.992709
0.997953
0.999296
0.999373
0.998317
0.993453
0.980661
0.960562
0.947686
0.964314
0.992121
0.999813
1
1
0.983299
0.982098
0.99494
0.999561
0.999989
1
1
1
0.999984
0.999582
0.997297
0.983051
0.827853
0.595408
0.458177
0.456371
0.531099
0.634466
0.722171
0.783291
0.813318
0.772669
0.695445
0.574735
0.474529
0.435654
0.494616
0.66955
0.8822
0.976544
1
1
1
1
1
1
0.999952
0.994681
0.942558
0.843064
0.773542
0.763247
0.80196
0.856795
0.907668
0.950289
0.9659
0.961598
0.934777
0.881152
0.800317
0.731212
0.699406
0.742258
0.863063
0.971692
0.999344
1
1
1
1
1
1
1
1
1
0.999984
0.999383
0.989704
0.93664
0.794419
0.627706
0.538577
0.526146
0.577206
0.693908
0.821999
0.885239
0.87803
0.801592
0.692465
0.631212
0.581258
0.600114
0.708313
0.875802
0.984235
0.999835
1
1
1
1
1
1
1
1
1
1
1
0.999997
0.999717
0.984276
0.833445
0.602116
0.419018
0.337289
0.319103
0.349971
0.425495
0.531152
0.558183
0.531006
0.468307
0.387053
0.347226
0.360898
0.454722
0.631779
0.854251
0.989086
0.999997
1
1
1
1
1
1
1
1
0.999931
0.995564
0.915971
0.654167
0.388847
0.248952
0.208796
0.189622
0.264335
0.334998
0.364784
0.343076
0.255398
0.197013
0.176944
0.242977
0.393503
0.702125
0.941006
0.993124
0.997258
0.999073
0.999725
0.999948
0.999977
0.99992
0.99954
0.999019
0.99881
0.999372
0.999844
0.999972
0.999991
0.999911
0.998983
0.996769
0.994531
0.994696
0.99554
0.99738
0.997343
0.997578
0.995403
0.988823
0.970215
0.934885
0.872055
0.809828
0.802201
0.887434
0.971658
0.99862
0.999944
0.999986
0.999887
0.999537
0.997959
0.994972
0.992126
0.996445
0.99933
0.999985
0.999999
1
1
1
1
0.999991
0.99902
0.991053
0.978328
0.97268
0.97489
0.982918
0.988934
0.992405
0.991516
0.990056
0.977547
0.974267
0.953014
0.956106
0.950038
0.966496
0.98412
0.998296
0.999986
1
1
1
1
1
1
1
1
1
1
1
1
1
1
1
1
1
1
1
1
1
1
1
1
1
1
1
1
1
1
1
1
1
1
1
0.999998
0.999909
0.999629
0.999436
0.999409
0.999435
0.999471
0.999464
0.999419
0.99935
0.999252
0.999224
0.999373
0.99965
0.999883
0.99998
0.999998
1
1
1
1
0.999968
0.999999
1
1
1
1
1
1
0.999998
0.999689
0.994309
0.978079
0.956129
0.929948
0.914697
0.901066
0.900038
0.901304
0.912636
0.928885
0.949852
0.964151
0.977338
0.985595
0.992149
0.996294
0.99852
0.99958
0.999925
0.99998
1
1
0.998865
0.982326
0.972783
0.988701
0.998805
0.999947
0.999991
0.999985
0.999972
0.999972
0.999974
0.999751
0.994642
0.965949
0.897533
0.804659
0.737517
0.731322
0.763298
0.80746
0.840835
0.867901
0.873301
0.876517
0.892242
0.92327
0.952295
0.981008
0.996295
0.999836
1
0.999999
0.999978
1
1
0.999994
0.999129
0.987473
0.946537