/*--------------------------------*- C++ -*----------------------------------*\
| =========                 |                                                 |
| \\      /  F ield         | OpenFOAM: The Open Source CFD Toolbox           |
|  \\    /   O peration     | Version:  2.1.1                                 |
|   \\  /    A nd           | Web:      www.OpenFOAM.org                      |
|    \\/     M anipulation  |                                                 |
\*---------------------------------------------------------------------------*/
FoamFile
{
    version     2.0;
    format      ascii;
    class       volScalarField;
    location    "0.008100000";
    object      H;
}
// * * * * * * * * * * * * * * * * * * * * * * * * * * * * * * * * * * * * * //

dimensions      [0 0 0 0 0 0 0];

internalField   nonuniform List<scalar> 
12384
(
0.000130451
0.00011366
9.50944e-05
8.73441e-05
8.13796e-05
7.98387e-05
8.13566e-05
8.56118e-05
8.72712e-05
9.86995e-05
0.00011419
0.000131109
0.000159516
0.000194267
2.39611e-05
3.42672e-05
5.35978e-05
6.20018e-05
6.16719e-05
6.13911e-05
6.1312e-05
6.10645e-05
6.02964e-05
5.85908e-05
5.65094e-05
5.41276e-05
5.14677e-05
4.81152e-05
4.52082e-05
4.2329e-05
3.98717e-05
4.12421e-05
3.99793e-05
3.95248e-05
3.84416e-05
3.89805e-05
3.79193e-05
3.8158e-05
3.81108e-05
3.90423e-05
4.06075e-05
3.93541e-05
2.41704e-05
1.6928e-05
7.87748e-05
7.3912e-05
6.66614e-05
6.71315e-05
6.49277e-05
6.3579e-05
6.26307e-05
6.18982e-05
6.04507e-05
5.83505e-05
5.62945e-05
5.48977e-05
5.3899e-05
5.3976e-05
5.36657e-05
5.45114e-05
5.26488e-05
5.41776e-05
5.33816e-05
5.43783e-05
5.4303e-05
5.50363e-05
5.58144e-05
5.77568e-05
6.03651e-05
6.03625e-05
6.32389e-05
6.5224e-05
6.41228e-05
6.4567e-05
7.64776e-05
7.3901e-05
7.27613e-05
7.19886e-05
7.12378e-05
7.04924e-05
6.98466e-05
6.94947e-05
6.90456e-05
6.89679e-05
6.92119e-05
6.9797e-05
7.02038e-05
7.05258e-05
7.06474e-05
7.04623e-05
7.01988e-05
7.01597e-05
6.99518e-05
7.00929e-05
7.04555e-05
7.15498e-05
7.27635e-05
7.36661e-05
7.4558e-05
7.62141e-05
7.851e-05
7.84804e-05
7.7939e-05
7.76216e-05
9.69401e-05
9.67434e-05
9.65005e-05
9.57458e-05
9.49254e-05
9.49928e-05
9.94179e-05
9.87956e-05
9.96221e-05
9.78734e-05
9.73054e-05
9.68025e-05
9.65409e-05
9.63851e-05
9.52987e-05
9.73451e-05
9.74878e-05
0.000100454
0.000101076
0.000103258
9.74035e-05
9.25725e-05
9.01453e-05
8.95671e-05
8.88093e-05
9.28878e-05
9.34184e-05
8.93409e-05
8.99737e-05
9.0169e-05
9.41196e-05
9.52892e-05
9.26311e-05
9.13873e-05
9.04344e-05
8.97696e-05
8.95314e-05
8.92896e-05
8.93053e-05
8.98758e-05
9.04951e-05
9.08455e-05
9.24556e-05
9.36463e-05
9.44862e-05
9.49976e-05
9.52206e-05
9.52303e-05
9.46411e-05
9.51102e-05
9.47445e-05
9.48478e-05
9.52014e-05
9.51852e-05
9.54921e-05
9.58737e-05
9.59407e-05
9.65288e-05
9.78449e-05
9.91037e-05
7.18873e-05
7.68629e-05
7.60462e-05
7.45097e-05
7.24288e-05
7.04191e-05
6.84156e-05
6.68693e-05
6.59952e-05
6.55268e-05
6.54516e-05
6.55489e-05
6.57682e-05
6.5835e-05
6.56604e-05
6.52223e-05
6.45997e-05
6.47763e-05
6.41546e-05
6.39034e-05
6.30017e-05
6.33067e-05
6.39986e-05
6.49604e-05
6.5473e-05
6.75379e-05
6.56215e-05
3.26852e-05
2.68399e-05
2.77391e-05
8.96666e-05
9.2288e-05
9.23197e-05
9.24366e-05
9.24928e-05
9.31019e-05
9.35295e-05
9.39102e-05
9.38062e-05
9.32901e-05
9.18322e-05
9.19946e-05
9.04048e-05
9.09809e-05
8.93664e-05
9.02874e-05
9.0939e-05
9.21367e-05
9.23797e-05
9.37689e-05
9.50187e-05
9.17228e-05
8.92383e-05
8.92778e-05
8.9601e-05
8.95495e-05
8.97421e-05
8.91673e-05
8.89857e-05
8.81178e-05
8.51713e-05
8.65512e-05
8.76049e-05
8.89825e-05
8.88871e-05
8.87673e-05
8.85771e-05
8.83476e-05
8.79291e-05
8.74473e-05
8.6838e-05
8.63696e-05
8.60982e-05
8.55249e-05
8.65228e-05
8.81833e-05
8.95397e-05
9.19154e-05
9.3158e-05
9.42017e-05
8.86577e-05
8.84219e-05
8.82306e-05
8.82879e-05
8.81694e-05
8.85924e-05
8.85703e-05
8.82342e-05
8.3648e-05
7.84037e-05
8.25649e-05
8.58454e-05
8.86488e-05
9.10552e-05
9.20583e-05
9.22673e-05
9.1159e-05
8.9802e-05
8.80752e-05
8.64292e-05
8.42638e-05
8.32219e-05
8.19023e-05
8.2117e-05
8.22029e-05
8.28777e-05
8.39166e-05
8.58146e-05
8.75885e-05
8.75016e-05
8.2588e-05
8.10592e-05
8.09039e-05
7.99458e-05
8.01152e-05
7.91662e-05
7.94357e-05
7.87738e-05
7.9113e-05
7.87388e-05
8.45413e-05
8.4488e-05
8.46759e-05
8.47373e-05
8.48956e-05
8.46106e-05
8.40102e-05
8.30633e-05
8.22173e-05
8.13156e-05
8.05355e-05
8.04558e-05
8.11527e-05
8.22112e-05
8.54654e-05
8.6366e-05
7.6547e-05
6.70316e-05
6.62294e-05
6.62551e-05
6.61062e-05
6.63767e-05
6.61452e-05
6.61348e-05
6.56588e-05
6.66609e-05
6.73987e-05
6.79323e-05
6.8447e-05
6.99788e-05
6.17868e-05
6.02392e-05
6.03926e-05
6.52409e-05
6.62728e-05
6.62543e-05
6.60966e-05
6.53442e-05
6.36144e-05
6.42222e-05
6.20905e-05
6.27046e-05
6.19026e-05
6.22087e-05
6.15794e-05
6.14929e-05
6.04325e-05
6.03788e-05
5.91171e-05
5.92004e-05
5.8721e-05
5.88875e-05
5.84814e-05
5.83997e-05
5.89158e-05
5.78916e-05
5.87159e-05
5.85709e-05
5.83279e-05
5.86753e-05
5.21718e-05
5.15099e-05
5.11919e-05
5.17372e-05
5.33645e-05
5.37521e-05
5.35293e-05
5.30615e-05
4.87761e-05
4.83454e-05
5.03477e-05
5.31018e-05
5.17316e-05
5.42336e-05
5.40939e-05
5.64568e-05
5.78612e-05
6.00188e-05
5.96441e-05
6.318e-05
6.27162e-05
6.26714e-05
6.21594e-05
6.28278e-05
6.22248e-05
6.22378e-05
6.01602e-05
5.73569e-05
5.82007e-05
6.13737e-05
9.88309e-05
7.46575e-05
5.94172e-05
5.44571e-05
5.48175e-05
5.33351e-05
5.77053e-05
6.21458e-05
6.68686e-05
7.26991e-05
8.35348e-05
0.000102625
0.000138241
0.000188606
2.47429e-05
3.92559e-05
5.97015e-05
6.84187e-05
6.75815e-05
7.158e-05
7.25609e-05
6.98238e-05
6.87917e-05
6.26937e-05
5.85543e-05
5.54646e-05
5.11541e-05
4.55686e-05
4.1276e-05
4.11408e-05
3.94344e-05
3.81091e-05
3.72148e-05
3.65659e-05
3.58688e-05
3.55805e-05
3.52897e-05
3.5354e-05
3.54322e-05
3.62075e-05
3.80687e-05
3.98125e-05
3.56512e-05
2.70035e-05
7.87467e-05
7.24521e-05
6.74321e-05
6.42238e-05
6.37007e-05
6.43684e-05
6.38293e-05
5.95266e-05
5.38412e-05
4.92197e-05
5.08827e-05
4.8517e-05
5.14444e-05
5.45207e-05
5.634e-05
5.76622e-05
5.75213e-05
5.7767e-05
5.70024e-05
5.65292e-05
5.60218e-05
5.56958e-05
5.59758e-05
5.65506e-05
5.82579e-05
6.08563e-05
6.05166e-05
6.34431e-05
6.60948e-05
6.76645e-05
7.67013e-05
7.39663e-05
7.32438e-05
7.25441e-05
7.1425e-05
7.03954e-05
6.90687e-05
6.76391e-05
6.71994e-05
6.75287e-05
6.79869e-05
6.91356e-05
7.01975e-05
7.09208e-05
7.08111e-05
7.00059e-05
6.88244e-05
6.71031e-05
6.60597e-05
6.61609e-05
6.64411e-05
6.7479e-05
6.94578e-05
7.15156e-05
7.3302e-05
7.49237e-05
7.68718e-05
7.84047e-05
7.88812e-05
7.83961e-05
9.67746e-05
9.6189e-05
9.52457e-05
9.3771e-05
9.75017e-05
9.84058e-05
9.87176e-05
9.89841e-05
9.86076e-05
9.75242e-05
9.68695e-05
9.5608e-05
9.44364e-05
9.45114e-05
9.53262e-05
9.55625e-05
9.75857e-05
9.88494e-05
9.97093e-05
0.000101541
9.83717e-05
9.66426e-05
9.1988e-05
9.29997e-05
8.64926e-05
8.45992e-05
8.62599e-05
9.06413e-05
8.96117e-05
9.04402e-05
9.44798e-05
9.47474e-05
9.14949e-05
9.03406e-05
8.93031e-05
8.88392e-05
8.85426e-05
8.84353e-05
8.87238e-05
9.01189e-05
9.12811e-05
9.41636e-05
9.60831e-05
9.66563e-05
9.68267e-05
9.71317e-05
9.70486e-05
9.75965e-05
9.84867e-05
9.78957e-05
9.82424e-05
9.85608e-05
9.9286e-05
9.88001e-05
9.76177e-05
9.71823e-05
9.64271e-05
9.6219e-05
9.69329e-05
9.69151e-05
7.26291e-05
7.73532e-05
7.59374e-05
7.32569e-05
6.99864e-05
6.67995e-05
6.52192e-05
6.44186e-05
6.41512e-05
6.42867e-05
6.39816e-05
6.44952e-05
6.48667e-05
6.51474e-05
6.5138e-05
6.4968e-05
6.46116e-05
6.42621e-05
6.42965e-05
6.38702e-05
6.36679e-05
6.34979e-05
6.32838e-05
6.35828e-05
6.42512e-05
6.60458e-05
6.62912e-05
5.52706e-05
3.42486e-05
2.78945e-05
8.93242e-05
9.19905e-05
9.22573e-05
9.23823e-05
9.28934e-05
9.37055e-05
9.40711e-05
9.38801e-05
9.32683e-05
9.22162e-05
9.21209e-05
9.06705e-05
8.95561e-05
8.84606e-05
8.86607e-05
8.82843e-05
8.89086e-05
8.95952e-05
9.06267e-05
9.19007e-05
9.29501e-05
9.34828e-05
9.16377e-05
8.92359e-05
9.09174e-05
9.08761e-05
8.971e-05
9.01909e-05
8.97177e-05
8.9365e-05
8.42995e-05
8.55838e-05
8.82762e-05
8.87657e-05
8.76242e-05
8.67224e-05
8.57328e-05
8.46445e-05
8.33963e-05
8.19955e-05
8.05525e-05
7.95214e-05
7.91863e-05
7.91268e-05
7.92958e-05
8.11218e-05
8.42861e-05
8.70815e-05
9.00504e-05
9.39948e-05
9.24495e-05
8.83514e-05
8.65191e-05
8.65224e-05
8.69224e-05
8.72673e-05
8.76923e-05
8.87885e-05
8.85412e-05
8.11217e-05
8.21244e-05
8.42116e-05
8.85094e-05
9.36007e-05
9.5699e-05
9.39275e-05
9.03398e-05
8.61701e-05
8.21772e-05
7.89117e-05
7.63557e-05
7.39146e-05
7.3333e-05
7.22122e-05
7.26539e-05
7.36216e-05
7.59771e-05
7.91748e-05
8.27628e-05
8.57392e-05
8.83118e-05
8.32674e-05
8.11226e-05
7.99344e-05
7.96434e-05
7.8975e-05
7.9772e-05
7.9554e-05
7.93439e-05
7.9136e-05
8.42866e-05
8.3812e-05
8.39724e-05
8.40655e-05
8.47957e-05
8.35119e-05
8.15153e-05
7.98179e-05
7.93524e-05
7.92659e-05
7.76724e-05
7.72076e-05
7.75797e-05
7.91168e-05
8.11768e-05
8.34575e-05
8.14587e-05
7.35403e-05
6.91336e-05
6.91665e-05
7.00889e-05
6.68919e-05
6.57157e-05
6.59969e-05
6.52616e-05
6.52841e-05
6.58055e-05
6.6627e-05
6.7647e-05
6.99448e-05
6.60701e-05
6.54652e-05
6.65114e-05
6.62871e-05
6.605e-05
6.65812e-05
6.62417e-05
6.65975e-05
6.65437e-05
6.63067e-05
6.70371e-05
6.71994e-05
6.74686e-05
6.70952e-05
6.64129e-05
6.46354e-05
6.30436e-05
6.16196e-05
6.03767e-05
5.85618e-05
5.85494e-05
5.89307e-05
5.93077e-05
5.87644e-05
5.90198e-05
5.88943e-05
5.85579e-05
5.86391e-05
5.89958e-05
5.87229e-05
5.01574e-05
5.14219e-05
5.13593e-05
5.48516e-05
5.47802e-05
5.40507e-05
5.33119e-05
4.86756e-05
4.84362e-05
5.04399e-05
5.3276e-05
5.5787e-05
5.60382e-05
5.80668e-05
5.88131e-05
6.01389e-05
6.03176e-05
6.33026e-05
6.23698e-05
6.51754e-05
6.53071e-05
6.68605e-05
6.56253e-05
6.42954e-05
6.37585e-05
6.52185e-05
6.28211e-05
5.89638e-05
5.84703e-05
6.19944e-05
6.08301e-05
4.99629e-05
4.73809e-05
5.16063e-05
5.62383e-05
6.47128e-05
7.09659e-05
7.59365e-05
7.51859e-05
8.19974e-05
8.31346e-05
8.65164e-05
0.000120134
0.000178091
2.51772e-05
4.27622e-05
6.59196e-05
7.37007e-05
8.00236e-05
8.3538e-05
7.85036e-05
6.87538e-05
5.19499e-05
4.64697e-05
4.6891e-05
4.48665e-05
4.32939e-05
4.01141e-05
4.06587e-05
3.95458e-05
3.89869e-05
3.89556e-05
3.89368e-05
3.90247e-05
3.87172e-05
3.833e-05
3.70228e-05
3.60366e-05
3.49916e-05
3.46356e-05
3.55769e-05
3.78346e-05
3.92591e-05
3.35928e-05
7.85565e-05
7.1361e-05
6.79304e-05
6.88418e-05
7.10512e-05
7.26208e-05
6.64533e-05
5.60307e-05
4.87122e-05
4.68229e-05
4.83111e-05
5.58624e-05
6.09656e-05
6.32778e-05
6.40313e-05
6.38028e-05
6.30663e-05
6.26117e-05
6.20999e-05
6.15962e-05
6.08164e-05
6.00388e-05
5.89752e-05
5.81439e-05
5.79803e-05
5.91146e-05
6.11578e-05
6.09377e-05
6.42458e-05
6.7321e-05
7.63484e-05
7.44266e-05
7.46265e-05
7.48406e-05
7.43871e-05
7.29399e-05
7.09855e-05
6.88267e-05
6.73493e-05
6.765e-05
6.96882e-05
7.14978e-05
7.31338e-05
7.32505e-05
7.20372e-05
6.94233e-05
6.58338e-05
6.29269e-05
6.12781e-05
6.04807e-05
6.11088e-05
6.27674e-05
6.50064e-05
6.77232e-05
7.05569e-05
7.31506e-05
7.52323e-05
7.70661e-05
7.84814e-05
7.85157e-05
9.65378e-05
9.53735e-05
9.36835e-05
9.63532e-05
9.82687e-05
9.92657e-05
9.96386e-05
9.90499e-05
9.79608e-05
9.61577e-05
9.44515e-05
9.24996e-05
9.18972e-05
9.07293e-05
9.04484e-05
9.24359e-05
9.42359e-05
9.62331e-05
9.79733e-05
9.93359e-05
0.000101839
9.76003e-05
9.53508e-05
9.04157e-05
8.73499e-05
8.37506e-05
8.59595e-05
9.23731e-05
9.097e-05
9.16506e-05
9.42633e-05
9.41013e-05
9.09247e-05
9.07259e-05
9.06555e-05
9.04661e-05
8.97415e-05
8.91282e-05
8.90414e-05
9.10025e-05
9.32263e-05
9.61165e-05
9.63257e-05
9.5049e-05
9.49117e-05
9.55556e-05
9.73947e-05
9.91681e-05
0.000100699
0.000101863
0.00010367
0.000104134
0.000103793
0.000103308
0.000101641
9.92351e-05
9.77872e-05
9.6551e-05
9.62771e-05
9.72487e-05
7.30533e-05
7.58319e-05
7.61471e-05
7.3451e-05
7.05187e-05
6.81779e-05
6.66016e-05
6.64189e-05
6.65702e-05
6.66679e-05
6.65011e-05
6.61407e-05
6.60138e-05
6.59133e-05
6.59133e-05
6.60988e-05
6.62859e-05
6.64212e-05
6.65325e-05
6.69362e-05
6.60749e-05
6.60983e-05
6.55466e-05
6.45835e-05
6.38993e-05
6.44006e-05
6.60664e-05
6.38435e-05
4.60492e-05
3.1297e-05
8.84042e-05
9.18675e-05
9.23464e-05
9.25985e-05
9.42757e-05
9.45995e-05
9.39813e-05
9.31268e-05
9.2032e-05
9.19804e-05
9.12888e-05
8.94902e-05
8.88397e-05
8.88561e-05
8.73207e-05
8.79859e-05
8.83038e-05
8.87109e-05
8.92623e-05
9.00584e-05
9.1464e-05
9.23827e-05
9.2346e-05
9.04419e-05
8.92714e-05
8.87062e-05
8.96613e-05
9.10382e-05
9.02573e-05
9.00848e-05
8.36375e-05
8.65513e-05
8.90614e-05
8.7895e-05
8.62405e-05
8.5209e-05
8.40614e-05
8.23185e-05
8.01002e-05
8.26618e-05
7.77132e-05
7.38592e-05
7.09349e-05
7.19006e-05
7.34221e-05
7.60973e-05
8.16475e-05
8.21014e-05
8.54353e-05
8.93392e-05
9.49869e-05
9.13216e-05
8.65357e-05
8.67953e-05
8.7936e-05
8.79692e-05
8.7304e-05
8.71398e-05
8.95468e-05
8.41196e-05
8.1491e-05
8.2464e-05
8.82418e-05
9.52167e-05
9.66786e-05
9.46625e-05
8.79351e-05
8.17674e-05
7.73194e-05
7.31928e-05
7.45037e-05
6.98556e-05
6.64142e-05
6.5103e-05
6.49404e-05
6.68768e-05
7.11446e-05
7.25561e-05
7.62448e-05
8.1055e-05
8.46742e-05
8.74706e-05
8.32196e-05
8.0739e-05
8.03493e-05
7.92662e-05
7.98033e-05
7.90087e-05
7.93866e-05
7.94327e-05
8.55337e-05
8.26545e-05
8.41757e-05
8.39591e-05
8.36753e-05
8.07881e-05
7.9366e-05
7.74446e-05
7.52464e-05
7.24034e-05
7.13082e-05
7.02657e-05
7.06505e-05
7.21801e-05
7.51778e-05
7.85882e-05
8.22809e-05
7.85577e-05
7.34008e-05
7.28151e-05
7.55921e-05
7.00742e-05
6.60641e-05
6.61984e-05
6.73321e-05
6.73276e-05
6.69938e-05
6.67367e-05
6.74273e-05
6.9854e-05
6.79441e-05
6.78534e-05
6.71291e-05
6.66322e-05
6.62063e-05
6.64922e-05
6.7749e-05
6.90988e-05
7.16234e-05
7.29278e-05
7.63277e-05
7.65478e-05
7.78546e-05
7.63235e-05
7.46595e-05
7.21991e-05
6.94739e-05
6.68352e-05
6.27144e-05
6.02447e-05
5.9065e-05
5.90744e-05
5.98038e-05
5.96215e-05
6.04632e-05
5.95438e-05
5.93808e-05
5.87144e-05
5.86693e-05
5.91729e-05
4.90391e-05
5.21281e-05
5.41047e-05
5.48124e-05
5.38668e-05
5.23994e-05
4.88531e-05
4.8226e-05
5.03171e-05
5.36584e-05
5.54864e-05
5.9991e-05
6.04533e-05
6.33997e-05
6.43082e-05
6.70622e-05
6.6277e-05
6.89938e-05
6.72378e-05
6.97075e-05
6.49782e-05
6.76184e-05
6.67854e-05
6.44107e-05
6.29384e-05
6.33277e-05
6.39368e-05
5.97599e-05
5.9218e-05
6.49928e-05
4.35614e-05
4.59218e-05
5.22956e-05
6.76092e-05
7.72816e-05
8.74255e-05
9.01974e-05
8.92356e-05
9.02931e-05
9.62334e-05
9.5412e-05
9.03978e-05
0.00010792
0.000166604
2.50102e-05
4.33866e-05
7.035e-05
8.16552e-05
8.94412e-05
9.07369e-05
7.84443e-05
5.51965e-05
3.37217e-05
2.92519e-05
3.33014e-05
4.07223e-05
4.14122e-05
4.05002e-05
3.97482e-05
3.99204e-05
4.05648e-05
4.15969e-05
4.26311e-05
4.32591e-05
4.35772e-05
4.32294e-05
4.16786e-05
3.9315e-05
3.67645e-05
3.48602e-05
3.43283e-05
3.59028e-05
3.85685e-05
3.57935e-05
7.85456e-05
7.16507e-05
7.04127e-05
7.38851e-05
8.32713e-05
8.27363e-05
6.48766e-05
4.52153e-05
4.33845e-05
4.7751e-05
5.97749e-05
6.55221e-05
6.35196e-05
6.50522e-05
6.22346e-05
5.99308e-05
5.80449e-05
5.76248e-05
5.79951e-05
5.85511e-05
5.97489e-05
6.04692e-05
6.08454e-05
6.02707e-05
5.95698e-05
5.92958e-05
6.02926e-05
5.91908e-05
6.24867e-05
6.61997e-05
7.58496e-05
7.50706e-05
7.60271e-05
7.66991e-05
7.65274e-05
7.55522e-05
7.30702e-05
7.00576e-05
6.8012e-05
6.8487e-05
7.15983e-05
7.43461e-05
7.62623e-05
7.50774e-05
7.0966e-05
6.5084e-05
5.99204e-05
5.6287e-05
5.45693e-05
5.58469e-05
5.37056e-05
5.5982e-05
5.95252e-05
6.33784e-05
6.71614e-05
7.06806e-05
7.36356e-05
7.57774e-05
7.75317e-05
7.81922e-05
9.64479e-05
9.43711e-05
9.54055e-05
9.78174e-05
9.92636e-05
9.94175e-05
9.89892e-05
9.79495e-05
9.58688e-05
9.31772e-05
9.11452e-05
8.9119e-05
8.71848e-05
8.69048e-05
8.64593e-05
8.7129e-05
8.9931e-05
9.24756e-05
9.48177e-05
9.72826e-05
9.96598e-05
0.000102755
9.78431e-05
9.32346e-05
9.25835e-05
8.76714e-05
9.0367e-05
9.0449e-05
9.36386e-05
9.49155e-05
9.40341e-05
9.38604e-05
9.13495e-05
9.13711e-05
9.28423e-05
9.29599e-05
9.11412e-05
8.99738e-05
8.93863e-05
9.09188e-05
9.38807e-05
9.60279e-05
9.40055e-05
9.2975e-05
9.36726e-05
9.66615e-05
0.000100375
0.000103921
0.000106023
0.000109184
0.000109996
0.000110219
0.000109732
0.000107831
0.000105218
0.000102765
9.92071e-05
9.73699e-05
9.61676e-05
9.65023e-05
7.34811e-05
7.57453e-05
7.7022e-05
7.5044e-05
7.34275e-05
7.24277e-05
7.21889e-05
7.25781e-05
7.26769e-05
7.20425e-05
7.0063e-05
6.76494e-05
6.64074e-05
6.59008e-05
6.60694e-05
6.68685e-05
6.79575e-05
6.93989e-05
7.0119e-05
7.05817e-05
7.03344e-05
6.99921e-05
6.84025e-05
6.63546e-05
6.49026e-05
6.39347e-05
6.50851e-05
6.55768e-05
5.82071e-05
3.56647e-05
8.69559e-05
9.1878e-05
9.26082e-05
9.41586e-05
9.53897e-05
9.47218e-05
9.33782e-05
9.19036e-05
9.1901e-05
9.11142e-05
9.04408e-05
8.89242e-05
8.99332e-05
8.85837e-05
8.96355e-05
8.88899e-05
8.8616e-05
8.87268e-05
8.87657e-05
8.89479e-05
8.97912e-05
9.15689e-05
9.21048e-05
9.15263e-05
9.01186e-05
8.7625e-05
8.89359e-05
9.01232e-05
9.14888e-05
9.03818e-05
8.42713e-05
8.9199e-05
8.86191e-05
8.68103e-05
8.60121e-05
8.50654e-05
8.30915e-05
8.02916e-05
8.12549e-05
7.34237e-05
6.7291e-05
6.25037e-05
5.95154e-05
5.86474e-05
6.05604e-05
6.47355e-05
6.98616e-05
7.80103e-05
8.14652e-05
8.52029e-05
9.03801e-05
9.29433e-05
8.80445e-05
8.64496e-05
8.84037e-05
8.94655e-05
8.89599e-05
8.72063e-05
8.87082e-05
8.6917e-05
8.13786e-05
8.16244e-05
9.23516e-05
9.99959e-05
9.90872e-05
9.40755e-05
8.49182e-05
7.83456e-05
7.3474e-05
7.18039e-05
6.57143e-05
5.97992e-05
5.63378e-05
5.40637e-05
5.39632e-05
5.52154e-05
5.88418e-05
6.49723e-05
7.37333e-05
7.53946e-05
8.06155e-05
8.43159e-05
8.64477e-05
8.26402e-05
8.10676e-05
8.02727e-05
7.94278e-05
7.93331e-05
7.89673e-05
7.97981e-05
8.4472e-05
8.39116e-05
8.41307e-05
8.47413e-05
8.14705e-05
7.89756e-05
7.81627e-05
7.31353e-05
6.99122e-05
7.05681e-05
6.40959e-05
6.18396e-05
6.32643e-05
6.84653e-05
6.87847e-05
7.30443e-05
7.78394e-05
8.05982e-05
7.82764e-05
7.66113e-05
7.84967e-05
7.23968e-05
6.69169e-05
6.80154e-05
6.97253e-05
6.95534e-05
6.88509e-05
6.76386e-05
6.77319e-05
7.02492e-05
6.90275e-05
6.87617e-05
6.73404e-05
6.68443e-05
6.76135e-05
6.87921e-05
7.17711e-05
7.51329e-05
7.98951e-05
8.30835e-05
8.64477e-05
8.61403e-05
8.68798e-05
8.45098e-05
8.23293e-05
7.80077e-05
7.52064e-05
7.13505e-05
6.72667e-05
6.33049e-05
5.94148e-05
5.86962e-05
5.97333e-05
6.07316e-05
5.9982e-05
5.96382e-05
5.96443e-05
5.91927e-05
5.85749e-05
5.89654e-05
4.92917e-05
5.252e-05
5.27224e-05
5.23555e-05
5.1989e-05
4.97054e-05
4.73051e-05
4.89614e-05
5.29715e-05
5.63216e-05
5.91599e-05
6.31666e-05
6.69955e-05
6.90591e-05
7.04555e-05
7.41094e-05
7.03893e-05
7.36486e-05
7.0557e-05
7.09239e-05
6.835e-05
6.87212e-05
6.80409e-05
6.7067e-05
6.19099e-05
6.45582e-05
6.61542e-05
6.21956e-05
6.20113e-05
6.59421e-05
4.71433e-05
5.61552e-05
7.33731e-05
9.83325e-05
0.000112359
0.000122218
0.000117826
0.000103271
9.1452e-05
9.74606e-05
0.000106422
0.000100942
0.000106557
0.000158032
2.43674e-05
4.09092e-05
7.08258e-05
8.74161e-05
9.56184e-05
9.30352e-05
7.33527e-05
4.18684e-05
2.3477e-05
2.07437e-05
2.98e-05
3.87786e-05
4.01474e-05
3.96567e-05
3.98342e-05
4.0888e-05
4.25877e-05
4.50136e-05
4.73231e-05
4.92509e-05
4.94169e-05
4.8873e-05
4.65297e-05
4.36633e-05
3.97564e-05
3.63432e-05
3.42362e-05
3.47092e-05
3.73348e-05
3.63645e-05
7.8916e-05
7.29847e-05
7.07263e-05
8.15107e-05
9.17115e-05
8.58012e-05
5.69604e-05
4.02656e-05
4.51131e-05
6.07033e-05
6.51464e-05
6.45996e-05
6.32807e-05
5.89003e-05
5.4999e-05
5.28156e-05
5.10529e-05
5.06721e-05
5.01493e-05
5.16762e-05
5.36248e-05
5.64243e-05
5.898e-05
6.06348e-05
6.08323e-05
6.0471e-05
6.0477e-05
5.87164e-05
6.11798e-05
6.55684e-05
7.57645e-05
7.52792e-05
7.64185e-05
7.64882e-05
7.61299e-05
7.6167e-05
7.52862e-05
7.15696e-05
6.86037e-05
6.89393e-05
7.33381e-05
7.66324e-05
7.85144e-05
7.52124e-05
6.76892e-05
6.04861e-05
5.48453e-05
5.21776e-05
4.93771e-05
4.88917e-05
4.98929e-05
5.2111e-05
5.55637e-05
5.80418e-05
6.33669e-05
6.81835e-05
7.18861e-05
7.45138e-05
7.65931e-05
7.76968e-05
9.63385e-05
9.34747e-05
9.39814e-05
9.87241e-05
9.86348e-05
9.86713e-05
9.83346e-05
9.68195e-05
9.37701e-05
9.11984e-05
8.78372e-05
8.51409e-05
8.28836e-05
8.16829e-05
8.23535e-05
8.34649e-05
8.53736e-05
8.78835e-05
9.15185e-05
9.46691e-05
9.76735e-05
0.000100656
0.000103655
9.6232e-05
9.19951e-05
9.22214e-05
9.39082e-05
9.22229e-05
9.56822e-05
9.79819e-05
9.37698e-05
9.41223e-05
9.25249e-05
9.37109e-05
9.68104e-05
9.71289e-05
9.47178e-05
9.14169e-05
8.94977e-05
9.07783e-05
9.36862e-05
9.53788e-05
9.28112e-05
9.20763e-05
9.44601e-05
9.84791e-05
0.000104153
0.000107795
0.000113431
0.000117039
0.000119135
0.000117881
0.000115368
0.000112781
0.00011006
0.000105858
0.000101725
9.78259e-05
9.6433e-05
9.63751e-05
7.36174e-05
7.56287e-05
7.56015e-05
7.74298e-05
7.71786e-05
7.75062e-05
7.84864e-05
7.96686e-05
7.9731e-05
7.80034e-05
7.39347e-05
6.90537e-05
6.64518e-05
6.57462e-05
6.62136e-05
6.76993e-05
7.02337e-05
7.2006e-05
7.36119e-05
7.51175e-05
7.55498e-05
7.39393e-05
7.23277e-05
6.96197e-05
6.67856e-05
6.46686e-05
6.45496e-05
6.56781e-05
6.48117e-05
4.08717e-05
8.62531e-05
9.12093e-05
9.23418e-05
9.5726e-05
9.6117e-05
9.44781e-05
9.25135e-05
9.20108e-05
9.14514e-05
9.04535e-05
8.98101e-05
9.01202e-05
9.04645e-05
8.84376e-05
8.67703e-05
8.73465e-05
8.81818e-05
8.8484e-05
8.87352e-05
8.86265e-05
8.8879e-05
9.0277e-05
9.21272e-05
9.20111e-05
8.87459e-05
8.77807e-05
8.9021e-05
9.01478e-05
9.12211e-05
9.04952e-05
8.69005e-05
9.05766e-05
8.78417e-05
8.68673e-05
8.67176e-05
8.52242e-05
8.18994e-05
7.8637e-05
7.3796e-05
6.55279e-05
5.8999e-05
5.41964e-05
5.13062e-05
4.98651e-05
5.01921e-05
5.37878e-05
6.01396e-05
6.8611e-05
7.8749e-05
8.227e-05
8.6609e-05
9.35687e-05
9.0123e-05
8.60926e-05
8.77361e-05
8.99663e-05
9.01709e-05
8.98333e-05
8.79103e-05
8.82551e-05
8.10787e-05
8.24808e-05
9.72751e-05
0.000105751
0.000101461
9.21612e-05
8.16509e-05
7.54466e-05
7.39255e-05
6.56762e-05
5.80246e-05
5.15639e-05
4.75885e-05
4.60101e-05
4.56839e-05
4.6962e-05
5.0011e-05
5.51376e-05
6.36033e-05
7.44421e-05
7.63105e-05
8.11414e-05
8.45059e-05
8.43488e-05
8.23285e-05
8.10686e-05
8.01332e-05
7.89871e-05
7.93119e-05
8.00499e-05
8.37619e-05
8.44175e-05
8.56881e-05
8.33406e-05
7.86821e-05
7.66279e-05
7.32087e-05
6.85744e-05
6.26831e-05
5.26728e-05
4.72978e-05
4.4841e-05
4.59815e-05
5.08083e-05
6.0913e-05
6.79545e-05
7.30702e-05
7.89181e-05
7.99016e-05
7.86153e-05
8.0449e-05
7.32051e-05
6.77806e-05
6.93386e-05
6.97784e-05
6.97215e-05
6.95049e-05
6.97522e-05
6.91226e-05
6.95763e-05
6.95983e-05
6.88429e-05
6.77797e-05
6.78683e-05
6.9742e-05
7.1608e-05
7.68197e-05
8.21577e-05
8.8953e-05
9.14028e-05
9.50662e-05
9.59168e-05
9.50052e-05
9.14232e-05
8.77718e-05
8.30674e-05
7.77585e-05
7.29951e-05
6.97089e-05
6.50441e-05
6.08184e-05
5.8708e-05
5.93503e-05
6.04384e-05
5.933e-05
5.85655e-05
5.8525e-05
5.88231e-05
5.80964e-05
5.84505e-05
5.00483e-05
5.33543e-05
5.18982e-05
5.06517e-05
4.98545e-05
4.82712e-05
4.77405e-05
5.08759e-05
5.55269e-05
5.85856e-05
6.27567e-05
6.84899e-05
7.24771e-05
7.61994e-05
7.73481e-05
8.01444e-05
7.80929e-05
7.70277e-05
7.45838e-05
7.27634e-05
6.90809e-05
7.0706e-05
7.0066e-05
7.06202e-05
6.51938e-05
6.25626e-05
6.59195e-05
6.51877e-05
6.72035e-05
6.39075e-05
6.05461e-05
7.54866e-05
0.000107006
0.000142687
0.000162645
0.000168879
0.00016257
0.00013754
0.000102427
9.21128e-05
0.000103439
0.000109479
0.000109529
0.000153846
2.37088e-05
3.50329e-05
6.41435e-05
8.65897e-05
9.6736e-05
9.01255e-05
6.61789e-05
3.41054e-05
1.85283e-05
1.81162e-05
2.82472e-05
3.90301e-05
3.94961e-05
3.93638e-05
3.97591e-05
4.21465e-05
4.52496e-05
5.05944e-05
5.57891e-05
5.90162e-05
5.88897e-05
5.64587e-05
5.2085e-05
4.76692e-05
4.30831e-05
3.82251e-05
3.50047e-05
3.40802e-05
3.63522e-05
3.63268e-05
7.92493e-05
7.48902e-05
7.41054e-05
8.64986e-05
9.58371e-05
7.89615e-05
4.41356e-05
3.77072e-05
5.42647e-05
6.65329e-05
6.59415e-05
6.31101e-05
5.80577e-05
5.39927e-05
5.16752e-05
4.91843e-05
4.91164e-05
4.78742e-05
4.80756e-05
4.73588e-05
4.89605e-05
5.11795e-05
5.51274e-05
5.84846e-05
6.06347e-05
6.12518e-05
6.12984e-05
5.86696e-05
6.06849e-05
6.48257e-05
7.58419e-05
7.55339e-05
7.64092e-05
7.60243e-05
7.55031e-05
7.58001e-05
7.61421e-05
7.39921e-05
6.93752e-05
6.85107e-05
7.4075e-05
7.82384e-05
7.92707e-05
7.46667e-05
6.60277e-05
5.75839e-05
5.27361e-05
4.79816e-05
4.55145e-05
4.38108e-05
4.43888e-05
4.6937e-05
5.14541e-05
5.37867e-05
5.97145e-05
6.54374e-05
7.03494e-05
7.3452e-05
7.56777e-05
7.71678e-05
9.59558e-05
9.80772e-05
9.63947e-05
9.77127e-05
9.72521e-05
9.79839e-05
9.7846e-05
9.58576e-05
9.23005e-05
8.90653e-05
8.48777e-05
8.19989e-05
8.09556e-05
8.13462e-05
8.05129e-05
8.16047e-05
8.26357e-05
8.44802e-05
8.79494e-05
9.14479e-05
9.57228e-05
9.90999e-05
0.000102062
9.77291e-05
9.42629e-05
9.10623e-05
9.57652e-05
9.22101e-05
9.69207e-05
9.95392e-05
9.33814e-05
9.49633e-05
9.40489e-05
9.56531e-05
9.9082e-05
0.00010182
9.76432e-05
9.21485e-05
8.9778e-05
9.04665e-05
9.35709e-05
9.46702e-05
9.24418e-05
9.21504e-05
9.58592e-05
9.9969e-05
0.000106278
0.000112158
0.000119535
0.000121614
0.000125514
0.000126331
0.000123534
0.000118764
0.000112919
0.000108811
0.000104652
9.88652e-05
9.62885e-05
9.51961e-05
7.39611e-05
7.56648e-05
7.60755e-05
7.72266e-05
7.91142e-05
8.08469e-05
8.13621e-05
8.2687e-05
8.34275e-05
8.40583e-05
7.84661e-05
7.05679e-05
6.6489e-05
6.53266e-05
6.62613e-05
6.87801e-05
7.20271e-05
7.46721e-05
7.65183e-05
7.89479e-05
7.86405e-05
7.78599e-05
7.54654e-05
7.1725e-05
6.83669e-05
6.53154e-05
6.45861e-05
6.55586e-05
6.35487e-05
4.42685e-05
8.45689e-05
9.14254e-05
9.36145e-05
9.58145e-05
9.60804e-05
9.40536e-05
9.2014e-05
9.15365e-05
9.10597e-05
9.01611e-05
8.96089e-05
9.12363e-05
8.81721e-05
8.70382e-05
8.86376e-05
8.7984e-05
8.73798e-05
8.7907e-05
8.86588e-05
8.86826e-05
8.82639e-05
8.91536e-05
9.08611e-05
9.17617e-05
8.89805e-05
8.86314e-05
8.69881e-05
8.87664e-05
9.16883e-05
9.12855e-05
8.88086e-05
9.03216e-05
8.81184e-05
8.8407e-05
8.76577e-05
8.52507e-05
8.15028e-05
8.01099e-05
6.9138e-05
6.01304e-05
5.28215e-05
4.88019e-05
4.51751e-05
4.45353e-05
4.53067e-05
4.86314e-05
5.14745e-05
6.10636e-05
7.12453e-05
8.28814e-05
8.43929e-05
9.01764e-05
9.15543e-05
8.65526e-05
8.6895e-05
8.98623e-05
9.27475e-05
9.10808e-05
8.84566e-05
8.8512e-05
8.12394e-05
8.63918e-05
0.000105661
0.000109585
0.000102378
8.99477e-05
7.98879e-05
7.34502e-05
6.9741e-05
6.10081e-05
5.18332e-05
4.57392e-05
4.24374e-05
4.15802e-05
4.07269e-05
4.20678e-05
4.35121e-05
4.82381e-05
5.56575e-05
6.64479e-05
7.25194e-05
7.83347e-05
8.21777e-05
8.47673e-05
8.36113e-05
8.17446e-05
8.1132e-05
7.97662e-05
7.97316e-05
8.05179e-05
8.41638e-05
8.74411e-05
8.58395e-05
8.09805e-05
7.76114e-05
7.52875e-05
6.96215e-05
6.18371e-05
4.91105e-05
4.21802e-05
3.61102e-05
3.42946e-05
3.57677e-05
4.11788e-05
4.83746e-05
6.18306e-05
6.91694e-05
7.49673e-05
7.99082e-05
8.08022e-05
8.15867e-05
7.31696e-05
6.90197e-05
7.09281e-05
7.16969e-05
7.20749e-05
7.19306e-05
7.12763e-05
7.02856e-05
7.07734e-05
6.9989e-05
6.89689e-05
6.83091e-05
6.95706e-05
7.13967e-05
7.59628e-05
8.20688e-05
8.83103e-05
9.55423e-05
9.91601e-05
0.000102298
0.000102485
0.000102663
9.89317e-05
9.30105e-05
8.57006e-05
7.85829e-05
7.32234e-05
7.00025e-05
6.72751e-05
6.1946e-05
5.92607e-05
5.9682e-05
6.0804e-05
5.89886e-05
5.85017e-05
5.84898e-05
5.87385e-05
5.82366e-05
5.82408e-05
5.03637e-05
5.21388e-05
5.12348e-05
5.02415e-05
4.91033e-05
4.8076e-05
4.96571e-05
5.34499e-05
5.71539e-05
6.3298e-05
6.79998e-05
7.20765e-05
7.96777e-05
8.81844e-05
8.9616e-05
9.15844e-05
8.70856e-05
8.33351e-05
7.58568e-05
7.59166e-05
7.02762e-05
7.04792e-05
6.8327e-05
7.02344e-05
6.96751e-05
6.37474e-05
6.29911e-05
6.65217e-05
6.4527e-05
6.50265e-05
7.22868e-05
0.000104307
0.00015301
0.000178049
0.000180668
0.000179137
0.000179343
0.000163957
0.000117702
9.16069e-05
0.000101438
0.000115461
0.000113113
0.000154646
2.3218e-05
2.87675e-05
4.97438e-05
7.90842e-05
8.76737e-05
8.27828e-05
5.41743e-05
2.4987e-05
1.63429e-05
1.88605e-05
3.2197e-05
3.9335e-05
3.90707e-05
3.91208e-05
3.99484e-05
4.38661e-05
4.9813e-05
5.72423e-05
6.33635e-05
6.77014e-05
6.79448e-05
6.39548e-05
5.75334e-05
5.09469e-05
4.53014e-05
4.02423e-05
3.55696e-05
3.40524e-05
3.57645e-05
3.59763e-05
7.97591e-05
7.74965e-05
7.73879e-05
8.9997e-05
9.6325e-05
6.53548e-05
3.32122e-05
4.22266e-05
6.25693e-05
6.84895e-05
6.592e-05
5.96481e-05
5.61216e-05
5.27392e-05
5.11818e-05
4.88627e-05
4.897e-05
4.79657e-05
4.77695e-05
4.76101e-05
4.70044e-05
4.84733e-05
5.15141e-05
5.58464e-05
5.93691e-05
6.15338e-05
5.89216e-05
5.92078e-05
6.04924e-05
6.46765e-05
7.5884e-05
7.57393e-05
7.65585e-05
7.55775e-05
7.48634e-05
7.55043e-05
7.60932e-05
7.56713e-05
7.1614e-05
6.8066e-05
7.26182e-05
7.88726e-05
7.99219e-05
7.57089e-05
6.61628e-05
5.57821e-05
5.12177e-05
4.66317e-05
4.37611e-05
4.25991e-05
4.25259e-05
4.32878e-05
4.76163e-05
5.26259e-05
5.70417e-05
6.31136e-05
6.89783e-05
7.26502e-05
7.48619e-05
7.68048e-05
9.54722e-05
9.64363e-05
9.64506e-05
9.51643e-05
9.58494e-05
9.71622e-05
9.754e-05
9.53591e-05
9.14909e-05
8.78306e-05
8.29491e-05
8.1066e-05
8.20266e-05
8.14753e-05
8.17823e-05
8.09584e-05
8.02718e-05
8.2504e-05
8.52433e-05
9.02039e-05
9.35853e-05
9.74453e-05
0.000101044
9.72902e-05
9.57962e-05
9.22641e-05
9.24721e-05
9.34256e-05
9.85279e-05
9.71428e-05
9.30939e-05
9.53173e-05
9.58047e-05
9.7304e-05
0.000100682
0.000102873
9.96602e-05
9.38199e-05
9.006e-05
9.04478e-05
9.32445e-05
9.4604e-05
9.25234e-05
9.26041e-05
9.62522e-05
0.000101012
0.000109667
0.000114958
0.000122323
0.00012698
0.000129679
0.000128913
0.000127527
0.000123586
0.000116849
0.000111946
0.000104369
0.0001003
9.65124e-05
9.52901e-05
7.38272e-05
7.594e-05
7.62928e-05
7.81795e-05
8.0275e-05
8.11463e-05
8.27718e-05
8.34811e-05
8.42695e-05
8.43299e-05
8.30024e-05
7.24897e-05
6.66898e-05
6.50022e-05
6.63389e-05
6.91798e-05
7.22091e-05
7.64046e-05
7.87471e-05
8.22527e-05
8.27237e-05
8.10101e-05
7.85678e-05
7.40476e-05
7.02889e-05
6.62531e-05
6.45098e-05
6.56202e-05
6.43045e-05
4.60818e-05
8.35034e-05
9.14996e-05
9.48871e-05
9.42454e-05
9.59096e-05
9.39473e-05
9.17107e-05
9.14315e-05
9.07931e-05
8.98639e-05
9.02468e-05