/*--------------------------------*- C++ -*----------------------------------*\
| =========                 |                                                 |
| \\      /  F ield         | OpenFOAM: The Open Source CFD Toolbox           |
|  \\    /   O peration     | Version:  2.1.1                                 |
|   \\  /    A nd           | Web:      www.OpenFOAM.org                      |
|    \\/     M anipulation  |                                                 |
\*---------------------------------------------------------------------------*/
FoamFile
{
    version     2.0;
    format      ascii;
    class       volScalarField;
    location    "0.008100000";
    object      H2O2;
}
// * * * * * * * * * * * * * * * * * * * * * * * * * * * * * * * * * * * * * //

dimensions      [0 0 0 0 0 0 0];

internalField   nonuniform List<scalar> 
12384
(
1.6614e-06
1.66795e-06
1.67694e-06
1.71342e-06
1.6975e-06
1.69139e-06
1.68458e-06
1.67806e-06
1.6363e-06
1.61608e-06
1.60156e-06
1.51648e-06
1.49008e-06
1.46602e-06
1.26242e-06
1.28871e-06
1.22473e-06
1.18022e-06
1.15453e-06
1.14575e-06
1.14314e-06
1.14217e-06
1.14743e-06
1.15193e-06
1.15922e-06
1.16662e-06
1.17399e-06
1.18279e-06
1.18304e-06
1.19118e-06
1.19969e-06
1.22542e-06
1.22524e-06
1.23487e-06
1.23311e-06
1.25876e-06
1.25968e-06
1.27557e-06
1.28411e-06
1.29406e-06
1.30182e-06
1.27078e-06
1.23376e-06
1.19087e-06
4.65686e-07
5.34015e-07
6.25233e-07
7.61453e-07
8.07177e-07
8.32174e-07
8.47289e-07
8.56875e-07
8.69975e-07
8.86199e-07
8.96713e-07
8.99703e-07
8.94196e-07
8.83131e-07
8.58617e-07
8.42642e-07
8.27909e-07
8.16456e-07
7.94041e-07
7.86359e-07
7.69425e-07
7.59507e-07
7.32316e-07
7.0572e-07
6.65228e-07
5.61961e-07
5.41705e-07
5.15739e-07
5.18355e-07
5.1217e-07
3.81097e-07
4.08929e-07
4.23114e-07
4.3556e-07
4.48358e-07
4.60089e-07
4.71879e-07
4.84041e-07
4.98771e-07
5.06182e-07
5.09704e-07
5.08634e-07
5.06505e-07
5.03286e-07
4.99451e-07
4.93896e-07
4.88879e-07
4.86454e-07
4.75958e-07
4.71059e-07
4.67903e-07
4.68355e-07
4.68728e-07
4.54702e-07
4.40634e-07
4.18549e-07
3.97432e-07
3.92264e-07
3.93625e-07
3.94091e-07
2.00792e-07
1.94784e-07
1.94376e-07
1.99845e-07
2.09965e-07
2.18453e-07
3.26659e-07
3.36113e-07
3.44174e-07
3.40409e-07
3.46599e-07
3.33597e-07
3.42124e-07
3.37238e-07
3.32147e-07
3.4435e-07
3.41421e-07
3.43088e-07
3.41338e-07
3.30071e-07
2.19403e-07
1.94156e-07
1.87991e-07
1.92725e-07
1.98549e-07
2.95075e-07
2.93812e-07
1.97568e-07
1.94212e-07
1.91719e-07
6.11001e-08
5.79329e-08
5.42503e-08
5.35222e-08
5.27449e-08
5.23048e-08
5.24679e-08
5.25303e-08
5.28985e-08
5.39679e-08
5.51406e-08
5.64866e-08
5.91289e-08
6.1389e-08
6.31864e-08
6.44462e-08
6.51014e-08
6.52256e-08
6.4415e-08
6.48305e-08
6.39261e-08
6.36667e-08
6.37128e-08
6.30573e-08
6.26091e-08
6.23555e-08
6.24865e-08
6.67646e-08
7.32728e-08
7.55308e-08
8.32738e-08
6.38536e-08
7.16281e-08
7.88067e-08
8.5278e-08
9.24112e-08
9.86818e-08
1.04184e-07
1.08708e-07
1.12098e-07
1.15041e-07
1.17328e-07
1.19117e-07
1.19961e-07
1.19924e-07
1.18916e-07
1.1698e-07
1.14597e-07
1.12427e-07
1.11317e-07
1.08327e-07
1.08341e-07
1.0865e-07
1.09256e-07
1.08774e-07
1.05974e-07
1.1181e-07
4.72967e-07
5.39123e-07
5.28786e-07
4.54203e-08
3.93352e-08
4.08786e-08
4.5288e-08
4.8008e-08
4.95281e-08
5.05063e-08
5.13471e-08
5.15932e-08
5.1369e-08
4.98042e-08
5.00678e-08
4.87125e-08
4.91575e-08
4.72517e-08
4.8e-08
4.88039e-08
4.99497e-08
4.93545e-08
5.01747e-08
4.94403e-08
5.48748e-08
6.2589e-08
6.27728e-08
6.32907e-08
6.31441e-08
6.2612e-08
6.09634e-08
6.00641e-08
5.97624e-08
1.12774e-07
1.10601e-07
1.03845e-07
1.02103e-07
1.02638e-07
1.05866e-07
1.0982e-07
1.13747e-07
1.17209e-07
1.19833e-07
1.21462e-07
1.22333e-07
1.23273e-07
1.22636e-07
1.25505e-07
1.29001e-07
1.3032e-07
1.36656e-07
1.42069e-07
6.9547e-08
3.90849e-08
4.01312e-08
4.17035e-08
4.36247e-08
4.49138e-08
4.53421e-08
4.31442e-08
3.79013e-08
2.73014e-08
2.14598e-08
1.103e-07
1.02469e-07
9.55475e-08
9.3602e-08
9.24497e-08
8.93403e-08
9.56865e-08
9.86691e-08
1.01558e-07
1.04448e-07
1.04341e-07
1.06665e-07
1.06872e-07
1.08764e-07
1.08889e-07
1.09695e-07
1.08888e-07
1.10057e-07
1.10436e-07
1.05826e-07
4.96365e-08
4.41643e-08
4.45267e-08
4.40584e-08
4.4296e-08
4.25795e-08
4.13845e-08
3.93012e-08
3.82607e-08
3.63023e-08
6.0989e-08
5.9126e-08
5.86587e-08
5.78962e-08
5.75108e-08
5.70208e-08
5.66361e-08
5.61679e-08
5.60796e-08
5.59848e-08
5.60124e-08
5.68114e-08
5.84693e-08
6.00503e-08
7.6192e-08
7.92027e-08
3.86011e-08
2.06898e-08
2.06809e-08
2.36802e-08
2.30631e-08
2.44332e-08
2.41356e-08
2.38933e-08
2.22228e-08
2.11731e-08
2.14936e-08
2.16553e-08
2.18225e-08
2.20537e-08
3.09266e-08
3.05534e-08
3.07061e-08
3.2501e-08
3.23101e-08
3.08432e-08
2.93869e-08
2.82249e-08
2.65898e-08
2.73831e-08
2.55326e-08
2.67943e-08
2.57663e-08
2.66867e-08
2.62321e-08
2.63142e-08
2.54344e-08
2.55019e-08
2.4494e-08
2.47766e-08
2.46549e-08
2.54762e-08
2.53157e-08
2.57753e-08
2.62085e-08
2.50678e-08
2.52733e-08
2.43884e-08
2.33271e-08
2.47431e-08
7.21355e-09
8.85281e-09
1.00331e-08
1.1366e-08
1.25277e-08
1.30849e-08
1.28302e-08
7.12516e-09
2.63197e-09
2.46294e-09
2.84554e-09
3.24086e-09
3.61851e-09
4.12547e-09
4.22673e-09
4.70299e-09
5.00641e-09
5.47411e-09
5.52174e-09
6.19877e-09
6.11822e-09
6.20231e-09
5.89016e-09
5.59039e-09
4.54876e-09
4.30038e-09
3.81564e-09
3.3373e-09
3.38844e-09
4.12293e-09
1.67973e-06
1.71339e-06
1.69945e-06
1.6724e-06
1.66382e-06
1.65533e-06
1.64746e-06
1.64365e-06
1.64199e-06
1.64806e-06
1.63944e-06
1.58488e-06
1.49656e-06
1.46815e-06
1.26717e-06
1.28572e-06
1.20484e-06
1.15703e-06
1.07467e-06
1.06696e-06
1.09315e-06
1.12308e-06
1.20655e-06
1.22197e-06
1.21615e-06
1.21136e-06
1.19933e-06
1.19997e-06
1.19641e-06
1.22325e-06
1.22434e-06
1.22542e-06
1.22834e-06
1.2344e-06
1.23633e-06
1.24505e-06
1.25067e-06
1.27209e-06
1.27933e-06
1.29122e-06
1.29839e-06
1.28945e-06
1.25588e-06
1.2347e-06
4.68973e-07
5.58252e-07
7.62463e-07
8.33993e-07
8.48629e-07
8.40558e-07
8.39588e-07
8.73412e-07
9.15792e-07
9.41579e-07
9.91425e-07
9.12548e-07
8.66217e-07
8.26514e-07
7.85707e-07
7.70479e-07
7.48268e-07
7.45682e-07
7.388e-07
7.42023e-07
7.42519e-07
7.40915e-07
7.29793e-07
7.16638e-07
6.92628e-07
6.60624e-07
5.6007e-07
5.39549e-07
5.10487e-07
4.90487e-07
3.8721e-07
4.10559e-07
4.23489e-07
4.36354e-07
4.51141e-07
4.70598e-07
4.96562e-07
5.13252e-07
5.23218e-07
5.28454e-07
5.22229e-07
4.99568e-07
4.81759e-07
4.72281e-07
4.6746e-07
4.6765e-07
4.70602e-07
4.71142e-07
4.73103e-07
4.7885e-07
4.78548e-07
4.75043e-07
4.70496e-07
4.6325e-07
4.52136e-07
4.34832e-07
4.14398e-07
3.99428e-07
3.93827e-07
3.95891e-07
2.01669e-07
1.95554e-07
1.98477e-07
2.1286e-07
3.37901e-07
3.61097e-07
3.75541e-07
3.83517e-07
3.87378e-07
3.91192e-07
3.93088e-07
3.94292e-07
3.91263e-07
3.92326e-07
3.96763e-07
3.87603e-07
3.83548e-07
3.74003e-07
3.6242e-07
3.47543e-07
2.30973e-07
2.11722e-07
1.93475e-07
2.9395e-07
3.44565e-07
3.57882e-07
3.46544e-07
3.14715e-07
1.97273e-07
1.93963e-07
6.09657e-08
5.67485e-08
5.2884e-08
5.23678e-08
5.18463e-08
5.21081e-08
5.2428e-08
5.28762e-08
5.37889e-08
5.61345e-08
5.9093e-08
6.40596e-08
6.84367e-08
7.12161e-08
7.26767e-08
7.33682e-08
7.3121e-08
7.31055e-08
7.3471e-08
7.33607e-08
7.30261e-08
7.255e-08
7.26692e-08
7.08857e-08
6.79432e-08
6.50255e-08
6.32583e-08
6.39793e-08
6.71702e-08
7.07475e-08
8.10821e-08
6.08147e-08
7.12311e-08
8.13835e-08
9.20077e-08
1.01486e-07
1.08362e-07
1.12638e-07
1.14818e-07
1.16536e-07
1.19275e-07
1.20929e-07
1.22174e-07
1.22771e-07
1.22297e-07
1.20995e-07
1.18892e-07
1.16679e-07
1.13459e-07
1.11703e-07
1.11624e-07
1.10551e-07
1.09761e-07
1.09953e-07
1.09571e-07
1.06771e-07
1.0767e-07
2.43595e-07
4.67864e-07
5.26381e-07
4.59305e-08
3.92941e-08
4.25705e-08
4.76825e-08
4.89706e-08
4.92752e-08
5.0387e-08
5.1257e-08
5.12023e-08
4.9993e-08
4.99276e-08
4.77814e-08
4.61481e-08
4.45211e-08
4.46751e-08
4.43466e-08
4.52951e-08
4.63779e-08
4.77906e-08
4.92778e-08
4.81573e-08
5.09734e-08
5.79709e-08
6.46898e-08
7.81622e-08
7.90788e-08
6.66546e-08
6.48304e-08
6.05163e-08
5.84607e-08
1.11369e-07
1.07725e-07
9.64449e-08
9.4938e-08
9.97572e-08
1.07487e-07
1.15544e-07
1.24195e-07
1.3287e-07
1.40562e-07
1.46649e-07
1.51315e-07
1.54766e-07
1.54905e-07
1.5115e-07
1.47531e-07
1.43843e-07
1.38586e-07
1.41894e-07
1.21042e-07
5.93586e-08
3.95751e-08
4.10092e-08
4.74915e-08
5.29226e-08
5.57827e-08
5.52663e-08
5.08873e-08
3.89711e-08
2.38116e-08
1.13287e-07
1.04964e-07
9.5634e-08
8.57775e-08
8.65854e-08
9.01409e-08
1.01202e-07
1.08995e-07
1.1726e-07
1.24151e-07
1.29251e-07
1.31727e-07
1.33333e-07
1.33403e-07
1.33041e-07
1.31695e-07
1.27195e-07
1.21737e-07
1.1509e-07
1.12539e-07
7.95694e-08
5.16352e-08
4.6081e-08
4.66187e-08
4.76254e-08
4.61787e-08
4.45453e-08
4.14739e-08
3.87369e-08
3.67335e-08
6.13462e-08
5.86491e-08
5.7414e-08
5.62069e-08
5.46807e-08
5.34591e-08
5.24768e-08
5.30489e-08
5.43051e-08
6.65133e-08
7.11927e-08
7.49402e-08
7.65218e-08
7.70621e-08
7.40693e-08
8.01878e-08
5.50856e-08
3.24773e-08
2.18048e-08
2.70642e-08
3.0167e-08
2.58165e-08
2.34388e-08
1.99147e-08
2.0042e-08
2.01145e-08
2.04911e-08
2.09327e-08
2.14105e-08
2.19784e-08
3.2493e-08
3.25269e-08
3.33806e-08
3.2412e-08
3.10114e-08
3.05444e-08
2.96239e-08
3.00476e-08
3.03476e-08
3.02706e-08
3.0723e-08
3.10517e-08
3.11946e-08
3.08588e-08
3.04924e-08
2.91949e-08
2.81964e-08
2.75661e-08
2.67238e-08
2.52519e-08
2.55037e-08
2.68448e-08
2.86171e-08
2.9572e-08
3.08442e-08
3.08693e-08
2.9457e-08
2.69987e-08
2.50919e-08
2.47216e-08
5.55612e-09
7.07437e-09
1.08848e-08
1.40138e-08
1.69757e-08
1.33932e-08
7.6763e-09
3.29985e-09
2.46251e-09
2.78532e-09
3.20466e-09
3.50345e-09
4.16196e-09
4.43418e-09
4.497e-09
4.69656e-09
4.75764e-09
5.49871e-09
5.53345e-09
6.39813e-09
6.61875e-09
7.14208e-09
6.9755e-09
6.57514e-09
6.04167e-09
4.95382e-09
4.31112e-09
3.58502e-09
3.43456e-09
4.26785e-09
1.71963e-06
1.68804e-06
1.65829e-06
1.64642e-06
1.61307e-06
1.58878e-06
1.57375e-06
1.57391e-06
1.56655e-06
1.62618e-06
1.63128e-06
1.58764e-06
1.55711e-06
1.46095e-06
1.26924e-06
1.29335e-06
1.1901e-06
1.07776e-06
1.07121e-06
1.11402e-06
1.18913e-06
1.30178e-06
1.33534e-06
1.34565e-06
1.33021e-06
1.2682e-06
1.22835e-06
1.20753e-06
1.22727e-06
1.23141e-06
1.24023e-06
1.26002e-06
1.26826e-06
1.27189e-06
1.26833e-06
1.27111e-06
1.26507e-06
1.27245e-06
1.27699e-06
1.28762e-06
1.29785e-06
1.30932e-06
1.28171e-06
1.24815e-06
4.70423e-07
5.7671e-07
7.78624e-07
7.90614e-07
6.40545e-07
6.07133e-07
6.49186e-07
8.47535e-07
9.81104e-07
9.72724e-07
8.68838e-07
7.9313e-07
7.43647e-07
7.20123e-07
6.99146e-07
7.00811e-07
6.77801e-07
6.94424e-07
6.68766e-07
6.79883e-07
6.77804e-07
6.88597e-07
6.93151e-07
6.99094e-07
6.936e-07
6.77689e-07
6.51882e-07
5.57316e-07
5.33392e-07
5.05948e-07
3.87771e-07
4.05602e-07
4.10684e-07
4.13528e-07
4.20445e-07
4.37042e-07
4.65869e-07
5.00805e-07
5.15693e-07
5.11832e-07
4.84009e-07
4.54309e-07
4.38704e-07
4.36545e-07
4.43929e-07
4.5801e-07
4.70902e-07
4.84335e-07
4.94136e-07
4.88623e-07
4.89596e-07
4.93948e-07
4.84989e-07
4.73933e-07
4.60699e-07
4.46332e-07
4.28561e-07
4.11295e-07
3.99784e-07
3.9768e-07
2.02806e-07
1.99249e-07
2.07506e-07
3.4449e-07
3.69153e-07
3.78908e-07
3.85106e-07
3.91669e-07
4.01953e-07
4.12925e-07
4.22743e-07
4.27867e-07
4.39992e-07
4.37892e-07
4.35759e-07
4.36546e-07
4.24796e-07
4.10955e-07
3.91306e-07
3.69101e-07
3.46261e-07
2.26649e-07
2.07666e-07
1.98018e-07
3.37414e-07
3.64798e-07
3.52386e-07
3.00526e-07
1.80189e-07
1.77791e-07
6.02916e-08
5.54993e-08
5.18792e-08
5.23113e-08
5.28979e-08
5.3676e-08
5.40872e-08
5.44605e-08
5.50803e-08
5.81569e-08
6.29791e-08
6.90813e-08
7.27389e-08
7.3174e-08
7.31514e-08
7.29967e-08
7.34293e-08
7.50234e-08
7.47957e-08
7.45961e-08
7.59276e-08
7.63069e-08
7.63117e-08
7.61315e-08
7.37709e-08
6.97405e-08
6.56265e-08
6.37185e-08
6.44489e-08
6.82099e-08
7.79153e-08
5.14268e-08
6.83319e-08
7.94854e-08
8.943e-08
9.71962e-08
1.01505e-07
1.04759e-07
1.06954e-07
1.09336e-07
1.12625e-07
1.16689e-07
1.19174e-07
1.2012e-07
1.19749e-07
1.18298e-07
1.15591e-07
1.12706e-07
1.09554e-07
1.09126e-07
1.06842e-07
1.07001e-07
1.08491e-07
1.09243e-07
1.09899e-07
1.08053e-07
1.0568e-07
1.13999e-07
2.97231e-07
4.89743e-07
4.68363e-08
3.97439e-08
4.26784e-08
4.72774e-08
4.5605e-08
4.6746e-08
4.89885e-08
5.02008e-08
4.91663e-08
4.86098e-08
4.63896e-08
4.29687e-08
4.10147e-08
4.04666e-08
3.85761e-08
3.94132e-08
4.06041e-08
4.22565e-08
4.41972e-08
4.63633e-08
4.78446e-08
4.77399e-08
5.22239e-08
6.13119e-08
8.12135e-08
8.36251e-08
8.3028e-08
8.18696e-08
6.53265e-08
5.92704e-08
1.10562e-07
9.84696e-08
8.73083e-08
9.46257e-08
1.02384e-07
1.10258e-07
1.20875e-07
1.34305e-07
1.48661e-07
2.34781e-07
2.7051e-07
2.96061e-07
3.09796e-07
3.19109e-07
3.12898e-07
2.87787e-07
2.49936e-07
1.55514e-07
1.47429e-07
1.40833e-07
1.02297e-07
5.19999e-08
3.77743e-08
4.68103e-08
5.61708e-08
6.12397e-08
6.21411e-08
5.90253e-08
5.00637e-08
2.76694e-08
1.13031e-07
1.1096e-07
9.66669e-08
7.43522e-08
7.5369e-08
9.42561e-08
1.08088e-07
1.19434e-07
1.30846e-07
1.37991e-07
2.24213e-07
2.45122e-07
2.59561e-07
2.69108e-07
2.65708e-07
2.56963e-07
2.38168e-07
1.39424e-07
1.2893e-07
1.20596e-07
1.05008e-07
7.45256e-08
5.34394e-08
4.76842e-08
4.86392e-08
4.80723e-08
4.63725e-08
4.22271e-08
3.9156e-08
3.70694e-08
7.49758e-08
5.94077e-08
5.8731e-08
5.5031e-08
5.23758e-08
5.04681e-08
5.16134e-08
5.49096e-08
7.8823e-08
9.24433e-08
1.04252e-07
1.08299e-07
1.07018e-07
1.00493e-07
9.11889e-08
8.69745e-08
7.73375e-08
4.77367e-08
3.05745e-08
2.99644e-08
3.92016e-08
3.144e-08
2.05463e-08
1.96031e-08
1.99261e-08
2.00338e-08
2.0223e-08
2.05171e-08
2.11465e-08
2.18187e-08
3.27723e-08
3.31491e-08
3.29203e-08
3.20554e-08
3.04644e-08
2.98433e-08
3.08668e-08
3.19229e-08
3.33601e-08
3.32932e-08
3.55431e-08
3.46831e-08
3.5746e-08
3.42574e-08
3.31726e-08
3.1681e-08
3.08557e-08
3.00233e-08
2.71311e-08
2.56896e-08
2.47399e-08
2.58719e-08
2.92616e-08
3.22429e-08
3.52219e-08
3.52138e-08
3.41909e-08
3.01694e-08
2.61075e-08
2.55428e-08
5.12984e-09
9.11459e-09
1.32001e-08
1.39962e-08
1.30266e-08
7.37285e-09
3.45409e-09
2.45113e-09
2.70538e-09
3.15642e-09
3.44566e-09
3.83863e-09
3.88363e-09
4.23528e-09
4.26582e-09
4.61018e-09
4.52705e-09
5.06904e-09
4.79429e-09
5.24462e-09
5.65822e-09
6.80099e-09
7.06579e-09
6.68444e-09
5.87066e-09
5.71623e-09
4.51213e-09
3.69692e-09
3.6012e-09
4.66315e-09
1.66482e-06
1.65605e-06
1.62352e-06
1.57864e-06
1.49979e-06
1.45682e-06
1.4235e-06
1.41774e-06
1.44323e-06
1.49165e-06
1.5535e-06
1.57478e-06
1.56305e-06
1.46451e-06
1.2691e-06
1.29674e-06
1.20009e-06
1.08749e-06
1.09839e-06
1.16838e-06
1.32567e-06
1.40405e-06
1.38001e-06
1.34146e-06
1.3321e-06
1.27798e-06
1.2356e-06
1.22846e-06
1.23799e-06
1.26974e-06
1.30683e-06
1.33993e-06
1.35376e-06
1.36713e-06
1.35172e-06
1.34037e-06
1.31129e-06
1.2871e-06
1.28099e-06
1.28556e-06
1.29579e-06
1.30366e-06
1.29354e-06
1.2548e-06
4.70429e-07
5.75829e-07
7.448e-07
6.1002e-07
4.9468e-07
4.81048e-07
6.36375e-07
9.0461e-07
9.79706e-07
8.51528e-07
7.53091e-07
7.07004e-07
6.16131e-07
7.09195e-07
7.21695e-07
7.36894e-07
7.39029e-07
7.37661e-07
7.26871e-07
7.02783e-07
6.93552e-07
6.78688e-07
6.76126e-07
6.76269e-07
6.8033e-07
6.75947e-07
6.61679e-07
5.67028e-07
5.48429e-07
5.16743e-07
3.84388e-07
3.96907e-07
3.91619e-07
3.84718e-07
3.88242e-07
4.04238e-07
4.3377e-07
4.74229e-07
5.05846e-07
4.91615e-07
4.508e-07
4.25078e-07
4.11334e-07
4.20372e-07
4.44948e-07
4.74829e-07
5.05736e-07
5.31473e-07
5.38376e-07
6.19403e-07
5.28401e-07
5.16772e-07
5.03643e-07
4.93369e-07
4.73579e-07
4.55411e-07
4.38591e-07
4.21565e-07
4.06733e-07
4.00685e-07
2.04188e-07
2.0551e-07
3.32042e-07
3.69326e-07
3.73984e-07
3.77302e-07
3.83593e-07
3.98738e-07
4.17588e-07
4.39157e-07
4.63916e-07
4.81819e-07
4.92554e-07
4.98984e-07
4.98502e-07
4.85538e-07
4.71681e-07
4.52478e-07
4.2447e-07
3.94946e-07
3.65975e-07
3.37686e-07
2.19208e-07
2.04053e-07
3.04051e-07
3.40058e-07
3.31281e-07
1.98021e-07
1.55807e-07
1.45625e-07
5.98928e-08
5.47953e-08
5.13806e-08
5.09616e-08
5.20161e-08
5.28498e-08
5.36192e-08
5.50945e-08
5.57318e-08
5.83922e-08
6.46297e-08
7.09876e-08
7.23476e-08
7.20583e-08
7.17017e-08
7.2633e-08
7.51589e-08
7.58547e-08
7.62419e-08
7.76122e-08
7.744e-08
7.79256e-08
7.88467e-08
7.8765e-08
7.75963e-08
7.40911e-08
6.89782e-08
6.48017e-08
6.36368e-08
6.64374e-08
7.53592e-08
4.99161e-08
6.40986e-08
7.38269e-08
8.1289e-08
8.65824e-08
8.95774e-08
9.17146e-08
9.38781e-08
9.80451e-08
1.03874e-07
1.1168e-07
1.16421e-07
1.18123e-07
1.17765e-07
1.15734e-07
1.12412e-07
1.09847e-07
1.06417e-07
1.04284e-07
1.0278e-07
1.03759e-07
1.04658e-07
1.06288e-07
1.07838e-07
1.08079e-07
1.05561e-07
1.06858e-07
2.2276e-07
3.6066e-07
4.85754e-08
4.28552e-08
4.39397e-08
4.30305e-08
4.18179e-08
4.5403e-08
4.91724e-08
4.91937e-08
4.84465e-08
4.52726e-08
4.20571e-08
3.83156e-08
3.77865e-08
3.52335e-08
3.61092e-08
3.55951e-08
3.62598e-08
3.80661e-08
4.02879e-08
4.29093e-08
4.54718e-08
4.70922e-08
4.85362e-08
5.68494e-08
7.67693e-08
8.29337e-08
8.00861e-08
8.35611e-08
8.2821e-08
6.23257e-08
1.0779e-07
8.49398e-08
8.57724e-08
9.63446e-08
1.01438e-07
1.09041e-07
1.23682e-07
1.43292e-07
2.41299e-07
2.99288e-07
3.44847e-07
3.75086e-07
3.91888e-07
3.97751e-07
3.99473e-07
3.84601e-07
3.41126e-07
2.80566e-07
1.60222e-07
1.51216e-07
1.3207e-07
6.75021e-08
4.19258e-08
4.19473e-08
5.46568e-08
6.33422e-08
6.63237e-08
6.44453e-08
5.66288e-08
3.5117e-08
1.11791e-07
1.11754e-07
9.14001e-08
7.7118e-08
7.78469e-08
9.86065e-08
1.14701e-07
1.28609e-07
1.4034e-07
2.387e-07
2.79294e-07
3.06008e-07
3.30248e-07
3.3797e-07
3.39729e-07
3.287e-07
3.09097e-07
2.76882e-07
2.24376e-07
1.31455e-07
1.20161e-07
1.00133e-07
7.78179e-08
5.37265e-08
4.90686e-08
4.87695e-08
4.63324e-08
4.25006e-08
3.85133e-08
3.74127e-08
7.92661e-08
7.48856e-08
5.81939e-08
5.28395e-08
4.95411e-08
4.98868e-08
6.49715e-08
8.86523e-08
1.13082e-07
2.04222e-07
2.42517e-07
2.58884e-07
2.54833e-07
2.18927e-07
1.19472e-07
1.01844e-07
9.26273e-08
5.8458e-08
4.25679e-08
3.63259e-08
4.49243e-08
3.56557e-08
2.05294e-08
1.97475e-08
2.04544e-08
2.06369e-08
2.08915e-08
2.08237e-08
2.11399e-08
2.18044e-08
3.33386e-08
3.38705e-08
3.29744e-08
3.17736e-08
3.1438e-08
3.17986e-08
3.3598e-08
3.53845e-08
3.74425e-08
3.83853e-08
3.94046e-08
3.81284e-08
3.8969e-08
3.67095e-08
3.63217e-08
3.29707e-08
3.26971e-08
3.13364e-08
2.96504e-08
2.75868e-08
2.42418e-08
2.4085e-08
2.92978e-08
3.51739e-08
5.03647e-08
5.57043e-08
4.98233e-08
3.29988e-08
2.71254e-08
2.55429e-08
5.25361e-09
9.4619e-09
9.99043e-09
1.00871e-08
7.05254e-09
3.8016e-09
2.37106e-09
2.52374e-09
3.00367e-09
3.44276e-09
3.73822e-09
4.05951e-09
4.5217e-09
4.74102e-09
5.0603e-09
5.49642e-09
5.04865e-09
5.44488e-09
5.12216e-09
5.31182e-09
5.13547e-09
6.16388e-09
6.83248e-09
7.4443e-09
5.70209e-09
5.99977e-09
5.05673e-09
4.24399e-09
4.20067e-09
4.9852e-09
1.66157e-06
1.62079e-06
1.52688e-06
1.44827e-06
1.34659e-06
1.32705e-06
1.31787e-06
1.29179e-06
1.29096e-06
1.39136e-06
1.47751e-06
1.54303e-06
1.55606e-06
1.45717e-06
1.26665e-06
1.30383e-06
1.21723e-06
1.11431e-06
1.1319e-06
1.21e-06
1.36306e-06
1.4068e-06
1.33086e-06
1.29876e-06
1.30783e-06
1.25989e-06
1.23023e-06
1.23803e-06
1.27843e-06
1.34221e-06
1.3879e-06
1.42305e-06
1.44745e-06
1.4572e-06
1.45127e-06
1.42897e-06
1.3843e-06
1.34288e-06
1.30486e-06
1.28826e-06
1.29312e-06
1.30413e-06
1.29899e-06
1.25893e-06
4.66293e-07
5.59184e-07
6.19019e-07
5.2414e-07
3.97498e-07
4.41893e-07
8.00943e-07
9.9218e-07
9.35044e-07
7.38034e-07
6.05399e-07
6.15945e-07
7.3158e-07
7.65074e-07
7.88197e-07
8.0105e-07
8.03401e-07
8.05809e-07
7.94521e-07
7.82734e-07
7.4728e-07
7.20704e-07
6.90749e-07
6.76272e-07
6.68677e-07
6.67572e-07
6.60376e-07
5.71597e-07
5.56686e-07
5.271e-07
3.80984e-07
3.85508e-07
3.76387e-07
3.69908e-07
3.69817e-07
3.78414e-07
4.03733e-07
4.46766e-07
4.86013e-07
4.88016e-07
4.3313e-07
4.01799e-07
3.95154e-07
4.1361e-07
4.52863e-07
4.96265e-07
5.37582e-07
6.4885e-07
6.6759e-07
6.79781e-07
6.81907e-07
6.49246e-07
6.10221e-07
5.07988e-07
4.90389e-07
4.6686e-07
4.45416e-07
4.27809e-07
4.12801e-07
4.03249e-07
2.05199e-07
2.10999e-07
3.65673e-07
3.70421e-07
3.71791e-07
3.74799e-07
3.83841e-07
4.05706e-07
4.32593e-07
4.72549e-07
5.03023e-07
5.27508e-07
5.42464e-07
5.45553e-07
5.47421e-07
5.36925e-07
5.16985e-07
4.9109e-07
4.62691e-07
4.22936e-07
3.86516e-07
3.54712e-07
3.24883e-07
2.11871e-07
2.01335e-07
3.08997e-07
3.12812e-07
1.9979e-07
1.40726e-07
1.15593e-07
5.9789e-08
5.4762e-08
5.13934e-08
5.07576e-08
5.13024e-08
5.04428e-08
5.33067e-08
5.55281e-08
5.59424e-08
5.84067e-08
6.48163e-08
7.15822e-08
7.18307e-08
7.10431e-08
7.15147e-08
7.38984e-08
7.60078e-08
7.67829e-08
8.03511e-08
8.14331e-08
8.21269e-08
8.05151e-08
7.923e-08
7.98066e-08
7.9757e-08
7.7492e-08
7.20765e-08
6.65136e-08
6.38007e-08
6.59051e-08
7.29907e-08
4.82977e-08
5.0097e-08
6.27009e-08
6.91144e-08
7.31148e-08
7.53476e-08
7.73233e-08
7.94475e-08
8.43374e-08
9.35948e-08
1.07102e-07
1.14397e-07
1.16756e-07
1.1587e-07
1.12753e-07
1.10065e-07
1.06312e-07
1.02417e-07
1.00986e-07
1.00757e-07
9.88185e-08
1.01752e-07
1.03797e-07
1.06946e-07
1.07555e-07
1.05544e-07
1.05187e-07
1.82654e-07
3.28365e-07
5.17581e-08
4.29964e-08
4.50821e-08
3.48326e-08
3.50415e-08
4.55774e-08
4.9563e-08
4.93682e-08
4.6104e-08
4.17915e-08
3.80394e-08
3.60023e-08
3.11991e-08
2.96811e-08
2.87069e-08
2.90067e-08
2.9834e-08
3.38697e-08
3.68017e-08
3.98439e-08
4.30212e-08
4.53663e-08
4.79173e-08
5.36615e-08
6.35982e-08
8.03419e-08
7.4464e-08
7.95178e-08
8.58585e-08
6.52736e-08
9.23892e-08
7.56115e-08
8.82048e-08
9.35324e-08
9.62728e-08
1.07009e-07
1.2675e-07
1.50279e-07
2.85442e-07
3.49867e-07
4.02789e-07
4.48038e-07
4.75064e-07
4.71403e-07
4.60527e-07
4.49728e-07
4.15338e-07
3.56695e-07
2.77227e-07
1.60097e-07
1.46469e-07
1.03179e-07
5.0739e-08
3.73858e-08
4.85303e-08
6.23044e-08
6.80511e-08
7.95076e-08
6.14117e-08
4.24428e-08
1.09782e-07
1.10627e-07
7.65751e-08
8.11406e-08
7.96293e-08
1.02914e-07
1.20361e-07
1.3511e-07
2.2777e-07
2.81013e-07
3.24854e-07
3.56289e-07
3.82958e-07
4.00135e-07
4.03444e-07
3.9983e-07
3.71808e-07
3.38672e-07
2.8732e-07
2.20961e-07
1.30236e-07
1.16298e-07
9.90527e-08
6.17382e-08
5.41102e-08
5.00377e-08
4.63035e-08
4.07179e-08
3.81702e-08
3.73696e-08
8.09912e-08
6.14717e-08
5.41572e-08
4.96228e-08
4.76555e-08
5.24043e-08
8.84928e-08
1.20915e-07
2.62286e-07
3.30202e-07
3.75128e-07
3.91396e-07
3.80008e-07
3.41172e-07
2.71579e-07
1.23237e-07
1.04374e-07
8.54927e-08
5.18143e-08
4.28639e-08
4.95032e-08
3.7318e-08
2.06284e-08
2.02231e-08
2.08938e-08
2.12298e-08
2.14284e-08
2.14056e-08
2.14291e-08
2.17903e-08
3.38367e-08
3.40721e-08
3.32641e-08
3.23128e-08
3.30071e-08
3.32506e-08
3.6131e-08
3.87739e-08
4.24393e-08
4.18015e-08
4.40721e-08
4.63475e-08
4.55678e-08
4.16947e-08
3.95948e-08
3.67494e-08
3.36545e-08
3.04368e-08
2.98883e-08
2.78435e-08
2.50751e-08
2.31109e-08
2.87856e-08
3.60703e-08
5.64824e-08
6.23608e-08
5.49852e-08
3.34758e-08
2.69446e-08
2.52556e-08
5.33776e-09
7.29716e-09
6.42497e-09
5.81126e-09
4.01898e-09
2.58711e-09
2.31825e-09
2.7439e-09
3.29049e-09
3.626e-09
4.06088e-09
4.69442e-09
5.35463e-09
6.93812e-09
7.34049e-09
7.82052e-09
7.17514e-09
6.05547e-09
5.53482e-09
5.58391e-09
5.14825e-09
5.49554e-09
5.37098e-09
7.92047e-09
7.06424e-09
4.67381e-09
6.53565e-09
6.02137e-09
5.18074e-09
5.9333e-09
1.64264e-06
1.5296e-06
1.3844e-06
1.36142e-06
1.37599e-06
1.40186e-06
1.39815e-06
1.34066e-06
1.28629e-06
1.28951e-06
1.35661e-06
1.51234e-06
1.5462e-06
1.45481e-06
1.26613e-06
1.30912e-06
1.25278e-06
1.1573e-06
1.17295e-06
1.24385e-06
1.38193e-06
1.39565e-06
1.26905e-06
1.28418e-06
1.29518e-06
1.23472e-06
1.23161e-06
1.2712e-06
1.33947e-06
1.39934e-06
1.445e-06
1.47881e-06
1.49723e-06
1.52006e-06
1.51945e-06
1.50231e-06
1.45813e-06
1.39099e-06
1.33874e-06
1.30223e-06
1.29381e-06
1.30305e-06
1.30103e-06
1.25869e-06
4.61676e-07
5.32564e-07
5.74618e-07
4.54329e-07
3.39074e-07
4.92691e-07
9.66561e-07
9.93457e-07
7.80892e-07
5.90908e-07
6.08048e-07
7.35503e-07
7.76354e-07
8.00631e-07
8.30463e-07
8.21862e-07
8.32674e-07
8.25133e-07
8.24399e-07
8.13964e-07
8.03225e-07
7.73657e-07
7.32935e-07
6.95039e-07
6.73298e-07
6.61846e-07
6.56776e-07
5.70303e-07
5.61288e-07
5.32495e-07
3.78207e-07
3.77464e-07
3.66845e-07
3.63478e-07
3.64685e-07
3.65722e-07
3.76794e-07
4.16765e-07
4.68069e-07
4.84429e-07
4.32047e-07
3.90885e-07
3.81656e-07
4.06338e-07
4.56856e-07
5.14397e-07
6.38325e-07
6.74754e-07
6.98611e-07
7.02728e-07
7.00535e-07
6.90085e-07
6.6939e-07
5.34611e-07
5.0174e-07
4.76324e-07
4.51841e-07
4.32154e-07
4.16505e-07
4.05106e-07
2.05652e-07
3.15821e-07
3.76036e-07
3.70596e-07
3.71736e-07
3.72176e-07
3.8087e-07
4.08781e-07
4.45448e-07
4.96094e-07
5.30553e-07
5.59422e-07
5.83631e-07
5.9212e-07
5.80381e-07
5.73995e-07
5.54673e-07
5.26317e-07
4.89949e-07
4.43029e-07
4.05574e-07
3.70951e-07
3.38915e-07
2.194e-07
2.07829e-07
2.02994e-07
3.00923e-07
2.03082e-07
1.30988e-07
9.56445e-08
5.99495e-08
5.56228e-08
5.19686e-08
5.08423e-08
4.89878e-08
4.98683e-08
5.10857e-08
5.47074e-08
5.62697e-08
5.81852e-08
6.46887e-08
7.13206e-08
7.15911e-08
7.07997e-08
7.20638e-08
7.35689e-08
7.66543e-08
7.90523e-08
8.32265e-08
8.13362e-08
8.40193e-08
8.47558e-08
8.33242e-08
8.14132e-08
7.96424e-08
7.86149e-08
7.49787e-08
6.79188e-08
6.36788e-08
6.44428e-08
7.17093e-08
4.67117e-08
4.78899e-08
5.09261e-08
5.36182e-08
5.54102e-08
5.63796e-08
5.68637e-08
5.777e-08
6.84659e-08
8.44201e-08
1.02605e-07
1.13067e-07
1.15021e-07
1.13947e-07
1.11029e-07
1.07959e-07
1.04193e-07
9.89415e-08
9.82483e-08
9.47889e-08
9.53129e-08
9.65494e-08
9.91817e-08
1.03609e-07
1.05658e-07
1.05683e-07
1.03931e-07
1.12104e-07
3.0761e-07
5.33218e-08
4.16317e-08
4.02507e-08
3.24129e-08
3.41063e-08
4.6251e-08
4.96336e-08
4.79635e-08
4.37331e-08
3.92651e-08
3.52517e-08
3.13779e-08
2.89872e-08
2.7927e-08
2.85744e-08
2.83539e-08
2.83316e-08
2.92436e-08
3.35815e-08
3.72321e-08
4.05384e-08
4.35302e-08
4.58102e-08
5.12499e-08
6.06499e-08
7.47514e-08
6.26438e-08
6.53508e-08
8.52946e-08
6.76136e-08
6.51133e-08
7.40242e-08
8.52718e-08
8.54508e-08
8.93619e-08
1.04568e-07
1.30679e-07
2.3398e-07
3.18534e-07
3.87378e-07
4.45238e-07
5.62478e-07
6.11399e-07
6.32813e-07
6.20454e-07
5.86424e-07
4.58003e-07
4.15838e-07
3.29751e-07
2.52948e-07
1.55076e-07
1.23928e-07
5.94283e-08
3.76831e-08
4.20229e-08
5.96294e-08
8.33186e-08
8.32499e-08
6.50996e-08
4.77433e-08
1.09514e-07
1.02369e-07
8.10649e-08
8.44865e-08
8.0847e-08
1.06395e-07
1.26355e-07
1.39336e-07
2.5172e-07
3.17082e-07
3.56208e-07
3.95789e-07
4.26748e-07
5.11545e-07
5.16753e-07
5.10296e-07
4.18743e-07
3.84376e-07
3.37862e-07
2.70914e-07
1.40187e-07
1.25797e-07
1.11168e-07
9.25656e-08
6.02371e-08
5.28972e-08
4.68075e-08
3.92648e-08
3.72176e-08
3.73763e-08
6.23877e-08
5.49704e-08
5.01145e-08
4.72748e-08
4.88394e-08
7.61562e-08
1.16236e-07
2.68411e-07
3.63493e-07
5.18964e-07
5.84798e-07
6.16288e-07
6.04023e-07
5.32571e-07
3.75302e-07
2.63285e-07
1.19534e-07
9.49578e-08
5.78084e-08
5.05656e-08
5.38167e-08
3.74666e-08
2.13658e-08
2.17831e-08
2.32678e-08
2.36275e-08
2.31005e-08
2.19702e-08
2.13667e-08
2.16167e-08
3.42499e-08
3.42581e-08
3.35502e-08
3.35066e-08
3.35457e-08
3.62953e-08
3.84299e-08
4.16155e-08
4.51357e-08
4.85308e-08
5.18631e-08
5.2565e-08
5.38773e-08
4.8956e-08
4.36137e-08
3.79517e-08
3.31069e-08
3.02005e-08
2.92712e-08
2.91404e-08
2.57867e-08
2.28874e-08
2.81118e-08
3.62051e-08
5.38807e-08
6.15022e-08
5.24631e-08
3.26129e-08
2.6768e-08
2.51659e-08
5.19403e-09
6.1465e-09
4.3005e-09
3.91791e-09
2.7253e-09
2.3434e-09
2.49527e-09
2.9965e-09
3.44813e-09
4.02969e-09
4.64546e-09
5.98044e-09
8.11602e-09
1.05326e-08
1.08046e-08
1.13358e-08
9.89695e-09
8.39366e-09
5.86607e-09
5.8523e-09
5.21625e-09
5.49513e-09
5.22716e-09
6.92879e-09
1.02443e-08
4.67478e-09
4.73109e-09
6.72938e-09
6.31146e-09
6.16234e-09
1.60461e-06
1.46903e-06
1.37199e-06
1.41657e-06
1.45067e-06
1.48476e-06
1.4855e-06
1.42731e-06
1.32782e-06
1.27697e-06
1.3266e-06
1.48973e-06
1.53268e-06
1.44366e-06
1.26425e-06
1.30444e-06
1.29317e-06
1.27383e-06
1.22266e-06
1.33449e-06
1.41661e-06
1.34031e-06
1.24366e-06
1.28015e-06
1.27384e-06
1.2259e-06
1.24078e-06
1.31277e-06
1.38487e-06
1.4306e-06
1.4597e-06
1.48984e-06
1.51368e-06
1.543e-06
1.54916e-06
1.5482e-06
1.50148e-06
1.44143e-06
1.35391e-06
1.31305e-06
1.29187e-06
1.30526e-06
1.30179e-06
1.25363e-06
4.5444e-07
5.01784e-07
5.23001e-07
4.09055e-07
3.26179e-07
5.98281e-07
1.02669e-06
9.4145e-07
6.04986e-07
5.82602e-07
7.1633e-07
7.59079e-07
7.96906e-07
8.03695e-07
8.35293e-07
8.23401e-07
8.43354e-07
8.23541e-07
8.23641e-07
8.25998e-07
8.20227e-07
8.07756e-07
7.72733e-07
7.24093e-07
6.86331e-07
6.65307e-07
5.75361e-07
5.69079e-07
5.61997e-07
5.38216e-07
3.74017e-07
3.72346e-07
3.62479e-07
3.6618e-07
3.68947e-07
3.60855e-07
3.58938e-07
3.81058e-07
4.42159e-07
4.84236e-07
4.42884e-07
3.88332e-07
3.7371e-07
3.99437e-07
4.55278e-07
5.12758e-07
6.47699e-07
6.88651e-07
7.13599e-07
7.23929e-07
7.20415e-07
7.0391e-07
6.87023e-07
6.39991e-07
5.17765e-07
4.84173e-07
4.56245e-07
4.35502e-07
4.18478e-07
4.07283e-07
2.06747e-07
3.35813e-07
3.71666e-07
3.74385e-07
3.70994e-07
3.67724e-07
3.75406e-07
4.0667e-07
4.49963e-07
5.08588e-07
5.43449e-07
5.86246e-07
6.06945e-07
6.04829e-07
6.05754e-07
5.96178e-07
5.70823e-07
5.53464e-07
5.10639e-07
4.69992e-07
4.1999e-07
3.83046e-07
3.51587e-07
2.27474e-07
2.1167e-07
2.06313e-07
2.11555e-07
1.95928e-07
1.15607e-07
7.16935e-08
6.03941e-08
5.67305e-08
5.33134e-08
5.15629e-08
4.94947e-08
4.99538e-08
5.0693e-08
5.50009e-08
5.65891e-08
5.83106e-08
6.41319e-08
7.10778e-08
7.14416e-08
7.09333e-08
7.17757e-08
7.33246e-08
7.88185e-08
7.98089e-08
8.29178e-08
8.3398e-08
8.34014e-08
8.1899e-08
8.31601e-08
8.32905e-08
8.10064e-08
8.03801e-08
7.46396e-08
6.96591e-08
6.40335e-08
6.46058e-08
7.21316e-08
4.53325e-08
4.47748e-08
4.73934e-08
4.97265e-08
5.11798e-08
5.18549e-08
5.16172e-08
5.2593e-08
5.52106e-08
7.02139e-08
9.80344e-08
1.1215e-07
1.13857e-07
1.1306e-07
1.09498e-07
1.04728e-07
1.04688e-07
9.80959e-08
9.61193e-08
9.26719e-08
9.16738e-08
9.63219e-08
9.75201e-08
1.03464e-07
1.05122e-07
1.04737e-07
1.03353e-07
1.10259e-07
2.94565e-07
5.3619e-08
4.14423e-08
3.27384e-08
2.87952e-08
3.29735e-08
4.6706e-08
4.94037e-08
4.69437e-08
4.20847e-08
3.74959e-08
3.11328e-08