/*--------------------------------*- C++ -*----------------------------------*\
| =========                 |                                                 |
| \\      /  F ield         | OpenFOAM: The Open Source CFD Toolbox           |
|  \\    /   O peration     | Version:  2.1.1                                 |
|   \\  /    A nd           | Web:      www.OpenFOAM.org                      |
|    \\/     M anipulation  |                                                 |
\*---------------------------------------------------------------------------*/
FoamFile
{
    version     2.0;
    format      ascii;
    class       volScalarField;
    location    "0.002400000";
    object      alphat;
}
// * * * * * * * * * * * * * * * * * * * * * * * * * * * * * * * * * * * * * //

dimensions      [1 -1 -1 0 0 0 0];

internalField   nonuniform List<scalar> 
12384
(
1.166e-05
4.63079e-06
2.87593e-06
3.34764e-06
4.39638e-06
4.22434e-06
2.57124e-06
8.66708e-07
8.24314e-07
1.97651e-06
2.90221e-06
5.08734e-06
1.40586e-05
1.1428e-05
6.02852e-06
2.47027e-06
2.38693e-06
2.88894e-06
2.48067e-06
2.50679e-06
4.57417e-06
2.30975e-06
4.67281e-06
4.83367e-06
3.67369e-06
6.64994e-06
1.07523e-05
4.55701e-06
1.48647e-06
1.93163e-06
5.13692e-06
6.05115e-06
6.59424e-06
9.17232e-06
1.60895e-05
2.70509e-05
3.08057e-05
3.53426e-05
4.9905e-05
7.65125e-05
4.64637e-05
1.93449e-05
1.09816e-05
1.3669e-05
3.54157e-06
4.82631e-06
2.62307e-05
4.51468e-05
7.14984e-05
8.38891e-05
0.000110414
0.000135389
0.00012508
0.000233571
0.000113043
5.93074e-05
1.37774e-05
5.85077e-06
9.68549e-06
1.81745e-05
3.01374e-05
5.10814e-05
7.82578e-05
7.3396e-05
4.95168e-05
3.58162e-05
2.19307e-05
1.91326e-05
1.25432e-05
9.12184e-06
6.54777e-06
6.55233e-06
6.83299e-06
3.82464e-06
4.52634e-06
1.39477e-06
6.45899e-07
1.14743e-06
6.19492e-06
3.47991e-05
9.66315e-05
9.22267e-05
0.000142689
0.000166079
0.00024142
0.000353992
0.000342438
0.000183311
0.000145771
0.000127363
8.57272e-05
4.78951e-05
3.74841e-05
2.9414e-05
3.67424e-05
3.80548e-05
3.27646e-05
2.18641e-05
1.15084e-05
5.97681e-06
3.62411e-06
3.24363e-06
4.05155e-06
6.78723e-06
2.60504e-06
1.45117e-06
9.27155e-07
6.73694e-07
5.55388e-07
5.05152e-07
5.24212e-07
6.22562e-07
7.89567e-07
1.19377e-06
2.01872e-06
4.41627e-06
8.40571e-06
4.19482e-06
2.66198e-06
1.93197e-06
1.50811e-06
1.21137e-06
9.93644e-07
8.15951e-07
6.84773e-07
5.69703e-07
5.06809e-07
4.9679e-07
5.59109e-07
6.95563e-07
1.01993e-06
1.6807e-06
3.36174e-06
7.41146e-06
6.95948e-06
4.3005e-06
2.76314e-06
1.9346e-06
1.44467e-06
1.15563e-06
9.68478e-07
8.48419e-07
7.7189e-07
7.13516e-07
6.78621e-07
6.60874e-07
6.4118e-07
6.47927e-07
6.4459e-07
6.6541e-07
6.92412e-07
7.12128e-07
7.55447e-07
8.13491e-07
8.60413e-07
9.47363e-07
1.03294e-06
1.17418e-06
1.34538e-06
1.63056e-06
2.04463e-06
2.8223e-06
4.58601e-06
1.21067e-05
2.78231e-05
2.10464e-05
1.45686e-05
1.13675e-05
9.53474e-06
8.65322e-06
8.23595e-06
8.05007e-06
8.01884e-06
8.07225e-06
8.31452e-06
8.68382e-06
9.20987e-06
9.74442e-06
1.03904e-05
1.11114e-05
1.2026e-05
1.30816e-05
1.44094e-05
1.59539e-05
1.79418e-05
2.02574e-05
2.32624e-05
2.69961e-05
3.2513e-05
3.99978e-05
5.08941e-05
7.09352e-05
0.000116671
0.000137005
0.000136631
0.000136733
0.000136736
0.000136739
0.000136736
0.00013674
0.000136737
0.00013674
0.000136736
0.000136741
0.000136735
0.00013674
0.000136736
0.000136743
0.000136738
0.000136741
0.000136734
0.00013673
0.000136724
0.00013672
0.000136718
0.000136714
0.000136711
0.000136709
0.000136704
0.000136701
0.000136697
0.000136694
0.000136685
0.000136603
0.000136602
0.000136686
0.000136691
0.000136696
0.000136697
0.000136702
0.000136705
0.000136707
0.00013671
0.000136712
0.000136714
0.000136717
0.000136721
0.000136727
0.000136728
0.00013673
0.000136726
0.000136723
0.000136718
0.000136715
0.000136713
0.000136711
0.000136708
0.000136705
0.000136702
0.000136699
0.000136696
0.000136692
0.000136684
0.000136602
0.000136604
0.000136682
0.000136691
0.000136696
0.000136701
0.000136703
0.000136707
0.000136709
0.000136712
0.000136714
0.000136716
0.000136718
0.000136723
0.000136724
0.000136729
0.000136727
0.000136728
0.000136722
0.000136716
0.000136714
0.000136712
0.000136708
0.000136707
0.000136705
0.000136703
0.0001367
0.000136697
0.000136696
0.000136689
0.000136589
0.000136604
0.000136686
0.000136691
0.000136696
0.000136698
0.000136703
0.000136705
0.000136708
0.00013671
0.000136713
0.000136715
0.000136718
0.000136721
0.000136726
0.000136727
0.00013673
0.000136726
0.000136723
0.000136717
0.000136715
0.000136713
0.00013671
0.000136707
0.000136705
0.000136702
0.000136698
0.000136696
0.000136692
0.000136684
0.000136602
0.000136591
0.000136688
0.000136693
0.000136698
0.0001367
0.000136704
0.000136707
0.000136709
0.000136712
0.000136714
0.000136716
0.000136719
0.000136722
0.000136727
0.00013673
0.00013673
0.000136726
0.000136722
0.000136718
0.000136715
0.000136713
0.000136711
0.000136709
0.000136706
0.000136704
0.0001367
0.000136697
0.000136692
0.000136688
0.00013659
0.000136601
0.000136686
0.000136692
0.000136696
0.0001367
0.000136703
0.000136708
0.000136708
0.000136713
0.000136711
0.000136717
0.000136717
0.000136722
0.000136725
0.000136726
0.000136728
0.000136723
0.000136722
0.000136717
0.000136715
0.000136713
0.00013671
0.000136708
0.000136704
0.000136702
0.000136697
0.000136695
0.000136692
0.000136683
0.000136601
4.79657e-06
6.08287e-06
9.45979e-06
1.26897e-05
1.65481e-05
1.99076e-05
2.03023e-05
2.1397e-05
6.28521e-05
9.15495e-05
8.42797e-05
7.38726e-05
6.84017e-05
2.18317e-05
6.46318e-06
5.8075e-05
3.40281e-05
1.32094e-05
1.44484e-05
1.78297e-05
2.24857e-05
3.23224e-05
4.41518e-05
5.51961e-05
6.68752e-05
7.70551e-05
8.23477e-05
8.28292e-05
8.19274e-05
9.88241e-05
8.81782e-05
8.49182e-05
7.83062e-05
7.35397e-05
7.20826e-05
0.000117163
0.000207482
0.000224798
0.000207695
0.00016477
0.000112665
7.93887e-05
6.13249e-05
1.81503e-05
0.000199278
0.000732209
0.00033152
0.000464109
0.000558523
0.000549877
0.000473736
0.000447203
0.000419708
0.000341493
0.000316967
0.000318977
0.000314886
0.00017149
0.000121068
8.82104e-05
7.00901e-05
5.94915e-05
5.18937e-05
5.15338e-05
5.26579e-05
0.000117792
0.000189661
0.00020227
0.000207767
0.00018386
0.000137535
8.63837e-05
5.48538e-05
4.32243e-06
1.70655e-05
0.000332297
0.00110997
0.00228198
0.00322618
0.00190398
0.00118278
0.00120688
0.00116259
0.00118839
0.00137662
0.00162565
0.0010606
0.000285272
0.000119785
0.000167185
0.000143495
0.000125159
0.000138691
0.000138086
0.000136613
0.000136842
0.000139166
0.000137894
0.000121373
9.34351e-05
6.32509e-05
4.21331e-05
3.08423e-05
4.88716e-06
1.27835e-06
1.23746e-05
9.78119e-06
8.97178e-06
9.27343e-06
1.04706e-05
1.23909e-05
1.72749e-05
2.08673e-05
2.34441e-05
2.13502e-05
2.27918e-05
2.53196e-05
2.92755e-05
3.31459e-05
3.62176e-05
3.77275e-05
3.80613e-05
3.7133e-05
3.53857e-05
3.23626e-05
2.84814e-05
2.43181e-05
1.96378e-05
1.56434e-05
1.16619e-05
9.82538e-06
1.00474e-05
1.49653e-05
3.08232e-06
3.36433e-06
3.39895e-05
2.74435e-05
2.17863e-05
1.72952e-05
1.4151e-05
1.21411e-05
1.07568e-05
9.69848e-06
9.09187e-06
8.67818e-06
8.52848e-06
8.48821e-06
8.61581e-06
8.97645e-06
9.34662e-06
1.01084e-05
1.10425e-05
1.21043e-05
1.39314e-05
1.57949e-05
1.90345e-05
2.27618e-05
1.82825e-05
1.16472e-05
7.19272e-06
4.19278e-06
3.19845e-06
4.68692e-06
1.01169e-05
1.16797e-05
1.12806e-05
1.05568e-05
9.59114e-06
8.95819e-06
8.45512e-06
8.20071e-06
8.11253e-06
8.17092e-06
8.30788e-06
8.59736e-06
8.97662e-06
9.54538e-06
1.01768e-05
1.09818e-05
1.19115e-05
1.30344e-05
1.42641e-05
1.57335e-05
1.74775e-05
1.96358e-05
2.22869e-05
2.55356e-05
2.96111e-05
3.50782e-05
4.29803e-05
5.57e-05
7.80821e-05
0.000128327
0.000138266
0.000137959
0.000404711
0.000376151
0.000362473
0.000359004
0.000364192
0.000376411
0.000397721
0.000427685
0.000463794
0.000504813
0.000563851
0.000632408
0.000632115
0.000632077
0.000631935
0.000632214
0.000632193
0.000632564
0.000632549
0.000632822
0.000632726
0.000632975
0.000632822
0.000633018
0.000632809
0.000632991
0.000632894
0.000607686
0.000137933
0.000137934
0.000608167
0.000633048
0.000632922
0.000633037
0.000632835
0.000633005
0.000632767
0.00063289
0.000632596
0.000632693
0.000632381
0.000632314
0.000632023
0.00063201
0.000631867
0.000632159
0.00063214
0.00063252
0.000632513
0.000632807
0.000632718
0.000632975
0.000632828
0.00063303
0.000632815
0.000632986
0.000632876
0.000607672
0.000137932
0.000137934
0.00060793
0.000632978
0.000633091
0.000632837
0.000632984
0.000632768
0.000632905
0.000632639
0.000632734
0.000632463
0.000632488
0.000632111
0.000632175
0.000631888
0.000632023
0.000632028
0.000632368
0.000632414
0.000632588
0.000632688
0.000632692
0.000632932
0.000632805
0.000633002
0.000632856
0.000633107
0.000632895
0.000609146
0.000137869
0.000137943
0.000608115
0.000633037
0.000632917
0.000633033
0.000632819
0.000632989
0.000632742
0.000632852
0.000632557
0.000632658
0.000632352
0.000632303
0.000632027
0.000632017
0.00063187
0.000632158
0.000632153
0.000632531
0.000632524
0.00063281
0.000632731
0.000632987
0.000632844
0.000633048
0.000632832
0.000632992
0.00063287
0.000607651
0.000137931
0.00013786
0.000608711
0.000632794
0.000632946
0.000633083
0.000632952
0.000633086
0.000632848
0.000632936
0.000632634
0.000632708
0.000632345
0.000632304
0.000632014
0.000631956
0.000631957
0.000632007
0.000632281
0.000632332
0.000632675
0.000632602
0.000632884
0.000632783
0.000633003
0.000632861
0.000633008
0.000632894
0.000632888
0.000608815
0.000137862
0.000137933
0.000608097
0.000632989
0.000632866
0.000632998
0.000632804
0.00063304
0.000632823
0.000633004
0.000632713
0.00063282
0.000632464
0.000632399
0.000632038
0.000632049
0.00063187
0.000632137
0.000632141
0.000632474
0.00063248
0.000632811
0.000632745
0.000633027
0.000632887
0.000633095
0.000632864
0.000632992
0.000632821
0.000607589
0.000137928
2.35857e-06
9.63481e-06
1.46035e-05
2.12408e-05
2.90836e-05
3.67427e-05
3.43288e-05
3.57863e-05
4.8036e-05
6.00704e-05
6.76247e-05
8.18714e-05
8.31065e-05
1.6833e-05
5.60877e-06
5.63233e-05
3.21839e-05
2.98773e-05
3.78975e-05
5.49564e-05
7.35182e-05
9.11918e-05
9.93107e-05
0.000104168
0.000112065
0.00012464
0.000134805
0.000134945
0.000130998
0.000127032
0.000122821
0.000111993
9.37638e-05
8.55814e-05
7.86257e-05
6.72086e-05
6.78011e-05
0.000179817
0.00021129
0.00017524
0.000138794
0.000102268
7.9129e-05
1.40923e-05
0.000246046
0.000865932
0.00036331
0.00044056
0.000514082
0.000581198
0.000542854
0.000606514
0.000715869
0.000843649
0.000950769
0.00102993
0.000922935
0.000802575
0.000540554
0.000371977
0.000245483
0.000165042
0.000112849
9.3123e-05
8.39282e-05
7.61111e-05
6.00366e-05
5.63896e-05
0.000128008
0.000169053
0.000136477
9.28764e-05
6.76559e-05
4.0372e-06
2.11646e-05
0.000497975
0.00139801
0.00275864
0.00409807
0.00355884
0.00178474
0.00206597
0.00240659
0.00334328
0.00451443
0.00476884
0.00396164
0.00169392
0.00072606
0.000338123
0.000165901
9.7861e-05
0.000137515
0.000178291
0.000177386
0.000153106
0.000130512
0.000121022
0.000105707
8.19268e-05
5.82624e-05
4.23124e-05
3.53882e-05
3.45616e-06
9.73593e-07
1.13628e-05
1.10543e-05
1.23032e-05
1.5676e-05
2.10844e-05
2.81412e-05
3.9861e-05
3.94614e-05
3.96354e-05
3.34981e-05
3.3223e-05
3.06384e-05
3.10552e-05
3.26663e-05
3.48107e-05
3.59126e-05
3.54211e-05
3.38317e-05
3.13499e-05
2.79141e-05
2.36471e-05
1.89056e-05
1.55499e-05
1.30638e-05
1.17223e-05
1.12984e-05
1.26118e-05
1.79284e-05
2.11319e-06
2.80029e-06
1.77645e-05
1.59403e-05
1.44117e-05
1.29512e-05
1.20304e-05
1.13016e-05
1.07967e-05
1.05976e-05
1.04572e-05
1.0563e-05
1.09034e-05
1.12489e-05
1.18801e-05
1.28335e-05
1.37407e-05
1.53531e-05
1.71742e-05
1.93794e-05
2.25463e-05
2.61021e-05
3.15027e-05
3.81212e-05
3.71555e-05
2.39315e-05
1.48204e-05
8.55153e-06
5.49237e-06
6.38812e-06
1.1788e-05
8.89565e-06
8.94176e-06
9.2586e-06
9.37011e-06
9.50875e-06
9.66905e-06
9.92061e-06
1.02849e-05
1.07215e-05
1.11993e-05
1.1684e-05
1.2311e-05
1.31496e-05
1.41417e-05
1.53092e-05
1.67491e-05
1.84952e-05
2.03735e-05
2.25481e-05
2.51123e-05
2.82558e-05
3.19815e-05
3.6493e-05
4.23986e-05
5.00565e-05
6.08377e-05
7.72709e-05
0.000106009
0.000173833
0.000178045
0.000177612
0.000399595
0.000427789
0.00046745
0.000517639
0.000569972
0.000626968
0.000679719
0.000740165
0.000790639
0.000790563
0.000790108
0.000789886
0.000789299
0.000789171
0.000788984
0.000789421
0.000789647
0.000790213
0.00079029
0.000790695
0.000790727
0.000791096
0.000791088
0.000791452
0.000791445
0.000791742
0.000791647
0.000768345
0.000177516
0.000177516
0.000768695
0.000791842
0.000791622
0.000791662
0.000791328
0.000791349
0.000790987
0.000790989
0.000790592
0.000790543
0.00079008
0.000789838
0.000789223
0.000789092
0.000788915
0.000789352
0.000789578
0.000790141
0.000790229
0.000790649
0.000790692
0.000791064
0.000791079
0.000791448
0.000791439
0.000791732
0.000791645
0.000768346
0.000177515
0.000177513
0.00076825
0.000791569
0.000791642
0.000791322
0.00079135
0.000791009
0.00079102
0.00079067
0.000790666
0.000790275
0.000790204
0.00078968
0.000789453
0.000788988
0.000789066
0.000789119
0.000789744
0.000790108
0.000790499
0.000790695
0.000790859
0.000791234
0.000791238
0.000791571
0.000791531
0.000791818
0.000791632
0.000768625
0.00017756
0.000177513
0.000768481
0.000791809
0.000791597
0.000791647
0.000791306
0.000791316
0.000790959
0.00079096
0.00079057
0.000790525
0.000790075
0.000789853
0.000789252
0.00078911
0.000788903
0.000789324
0.000789552
0.000790126
0.000790221
0.000790647
0.000790692
0.000791071
0.000791082
0.000791458
0.000791461
0.00079175
0.000791656
0.000768405
0.000177516
0.000177555
0.000768303
0.000791564
0.000791671
0.0007916
0.000791283
0.000791261
0.000790896
0.000790875
0.00079048
0.000790429
0.000789981
0.000789785
0.000789216
0.000789007
0.000789014
0.000789211
0.000789789
0.000789991
0.000790439
0.000790489
0.000790876
0.00079089
0.000791243
0.000791252
0.000791569
0.000791593
0.000791581
0.000768155
0.000177555
0.000177509
0.000768434
0.000791747
0.000791531
0.000791577
0.000791241
0.000791267
0.000790907
0.00079093
0.000790557
0.00079052
0.000790077
0.000789895
0.000789304
0.000789141
0.000788875
0.000789268
0.000789499
0.000790077
0.000790178
0.000790602
0.000790658
0.000791053
0.000791073
0.000791447
0.000791455
0.000791732
0.000791646
0.000768398
0.000177513
1.91691e-06
1.69269e-05
2.15682e-05
3.12179e-05
4.64684e-05
6.08862e-05
6.32919e-05
4.92123e-05
5.11149e-05
4.37761e-05
4.80101e-05
6.41908e-05
8.51924e-05
1.21647e-05
5.57002e-06
6.57447e-05
8.52108e-05
8.81364e-05
9.30794e-05
0.000103513
0.000123339
0.000135172
0.000143352
0.000153473
0.000172045
0.000198417
0.000215188
0.000219551
0.00022303
0.000222923
0.000217814
0.000190972
0.00015307
0.000129836
0.000108453
9.72834e-05
0.000108491
0.000122763
0.000115047
0.000200757
0.000192344
0.000151173
0.000110681
1.9283e-05
0.000294253
0.00112598
0.000399489
0.000422298
0.000462895
0.000582489
0.000769841
0.00115235
0.00160805
0.0019574
0.00217801
0.00227352
0.00220233
0.00199576
0.00173628
0.00130373
0.000873023
0.000538232
0.000333074
0.000230038
0.000176678
0.000129861
0.000101745
9.72157e-05
6.53564e-05
0.000114743
0.000164188
0.000133881
0.000100657
4.96354e-06
1.95705e-05
0.000533613
0.00125289
0.00208679
0.00313288
0.00383687
0.00469164
0.0063954
0.0114052
0.0181266
0.0180047
0.00871442
0.00737806
0.0037941
0.00189588
0.000986461
0.000467999
0.000239596
0.000148388
0.00010938
0.000160154
0.000228651
0.000203207
0.000153213
0.000122266
9.90203e-05
7.3678e-05
5.54214e-05
4.5496e-05
2.98594e-06
9.64572e-07
1.55462e-05
2.33545e-05
3.58215e-05
5.13302e-05
5.65648e-05
5.9496e-05
6.52635e-05
7.06039e-05
8.38549e-05
7.40234e-05
7.00046e-05
5.68517e-05
4.77924e-05
4.14454e-05
3.86706e-05
3.8329e-05
3.79946e-05
3.62586e-05
3.34431e-05
2.9478e-05
2.44798e-05
1.97609e-05
1.57902e-05
1.31613e-05
1.1802e-05
1.16686e-05
1.30576e-05
1.74999e-05
1.80597e-06
2.97573e-06
1.05483e-05
9.15713e-06
8.44953e-06
8.11311e-06
7.98412e-06
7.97012e-06
8.14817e-06
8.31343e-06
8.70104e-06
8.9829e-06
9.52534e-06
1.01142e-05
1.07272e-05
1.17424e-05
1.28411e-05
1.42335e-05
1.61392e-05
1.81529e-05
2.12556e-05
2.45752e-05
2.98814e-05
3.61896e-05
4.64128e-05
5.063e-05
3.13823e-05
1.77215e-05
5.73847e-06
6.04964e-06
1.006e-05
6.15562e-06
6.30898e-06
6.80498e-06
7.2197e-06
7.58192e-06
7.96244e-06
8.4293e-06
8.93866e-06
9.52376e-06
1.01497e-05
1.08616e-05
1.16529e-05
1.2576e-05
1.3607e-05
1.48194e-05
1.61932e-05
1.77308e-05
1.95138e-05
2.15485e-05
2.39293e-05
2.71118e-05
3.07947e-05
3.52986e-05
4.10709e-05
4.8573e-05
5.90197e-05
7.49476e-05
0.000102987
0.000169329
0.000176693
0.000176283
0.000308323
0.000337806
0.000375726
0.000421782
0.000477124
0.000541555
0.000615286
0.000696128
0.000795428
0.000795415
0.000795364
0.000795326
0.000795282
0.000795259
0.00079524
0.000795254
0.000795261
0.000795295
0.000795294
0.000795318
0.000795312
0.000795336
0.000795338
0.000795375
0.000795356
0.000795441
0.00079515
0.000765354
0.000176227
0.000176228
0.000765304
0.000795121
0.000795349
0.000795353
0.00079532
0.000795322
0.000795297
0.000795304
0.000795275
0.000795278
0.000795243
0.000795229
0.000795189
0.000795189
0.000795174
0.000795209
0.000795218
0.000795263
0.000795264
0.000795299
0.000795293
0.000795324
0.000795324
0.000795367
0.000795351
0.000795431
0.000795145
0.000765354
0.000176226
0.000176227
0.00076532
0.000795076
0.000795421
0.000795359
0.000795366
0.000795325
0.000795328
0.000795295
0.000795299
0.000795266
0.000795267
0.000795223
0.000795218
0.000795181
0.000795189
0.000795185
0.000795237
0.00079523
0.000795341
0.000795363
0.000795288
0.000795326
0.000795316
0.000795354
0.000795345
0.000795385
0.000795082
0.000765268
0.000176207
0.000176229
0.000765342
0.000795123
0.000795351
0.000795353
0.000795319
0.000795322
0.000795298
0.000795303
0.000795274
0.000795274
0.000795244
0.000795231
0.000795192
0.000795188
0.000795168
0.000795202
0.000795211
0.000795256
0.000795258
0.000795291
0.00079529
0.000795322
0.000795326
0.000795364
0.000795348
0.000795428
0.000795144
0.000765342
0.000176226
0.000176207
0.000765309
0.000795071
0.00079534
0.000795409
0.000795352
0.000795349
0.000795308
0.000795317
0.00079528
0.00079528
0.000795244
0.000795234
0.000795187
0.000795248
0.000795249
0.00079518
0.000795232
0.000795237
0.000795273
0.000795273
0.000795307
0.000795302
0.000795338
0.000795338
0.000795386
0.00079535
0.000795122
0.000765299
0.000176206
0.000176227
0.000765298
0.00079511
0.000795337
0.000795341
0.000795315
0.000795316
0.000795295
0.0007953
0.000795277
0.000795278
0.000795245
0.000795241
0.000795191
0.000795187
0.000795167
0.000795195
0.000795205
0.000795251
0.000795254
0.00079529
0.000795287
0.000795321
0.000795319
0.000795365
0.000795347
0.000795424
0.000795146
0.000765356
0.000176227
2.10961e-06
2.22825e-05
2.50178e-05
3.45181e-05
5.13759e-05
7.08576e-05
6.20304e-05
5.72988e-05
5.94648e-05
5.21163e-05
4.38757e-05
3.94681e-05
6.55381e-05
1.01325e-05
8.90661e-06
0.000129455
0.000188618
0.000217307
0.000195686
0.000186615
0.00019607
0.000203472
0.000212401
0.000227165
0.000250549
0.000276197
0.000290178
0.00029693
0.000307143
0.000316207
0.000314087
0.000288682
0.000243471
0.000190951
0.000153984
0.000145225
0.000156206
0.000189332
0.000201605
0.000112377
0.000225005
0.000182999
0.000148064
3.16845e-05
0.000305037
0.00153105
0.000473029
0.000374948
0.000390683
0.000790999
0.00139533
0.00218264
0.00280356
0.00308713
0.00321869
0.00326057
0.00324299
0.00312568
0.00287722
0.0025394
0.00206241
0.00148603
0.000974027
0.000652164
0.000449506
0.000297098
0.000216995
0.000188593
0.000134631
8.1778e-05
0.000142109
0.000209464
0.000180433
9.17341e-06
1.34678e-05
0.000474561
0.000916851
0.00148637
0.00181078
0.00203449
0.00229062
0.00486057
0.0137056
0.0250852
0.0321697
0.0244582
0.00920998
0.00369412
0.00211772
0.00140045
0.000839865
0.00043929
0.000266339
0.000188541
0.000152197
0.000117915
0.000195848
0.000257026
0.000196915
0.00014154
0.000109786
8.51452e-05
6.82576e-05
3.63607e-06
1.22444e-06
3.28277e-05
5.04036e-05
5.17477e-05
5.24171e-05
6.24829e-05
7.82134e-05
0.000120755
0.000151572
0.000214612
0.000184529
0.000166743
0.00012259
9.15365e-05
6.77033e-05
5.34528e-05
4.55696e-05
4.21043e-05
3.99937e-05
3.74206e-05
3.36493e-05
2.89711e-05
2.32735e-05
1.82663e-05
1.44336e-05
1.21772e-05
1.11852e-05
1.16007e-05
1.37223e-05
1.48925e-06
2.83995e-06
7.39842e-06
5.95851e-06
5.37746e-06
5.25184e-06
5.38783e-06
5.67042e-06
5.95902e-06
6.31215e-06
6.65543e-06
7.15929e-06
7.57203e-06
8.19335e-06
8.92998e-06
9.6558e-06
1.08985e-05
1.19599e-05
1.3804e-05
1.54694e-05
1.82638e-05
2.11373e-05
2.56147e-05
3.08846e-05
3.9103e-05
5.02258e-05
6.532e-05
2.28059e-05
6.68197e-06
4.93853e-06
7.32629e-06
4.46193e-06
4.48872e-06
5.11012e-06
5.9883e-06
7.35264e-06
7.32181e-06
7.44479e-06
7.74541e-06
8.15871e-06
8.7143e-06
9.35865e-06
1.01426e-05
1.10231e-05
1.2054e-05
1.31874e-05
1.4505e-05
1.59813e-05
1.77057e-05
1.96491e-05
2.19588e-05
2.46365e-05
2.79235e-05
3.18041e-05
3.68789e-05
4.34071e-05
5.2524e-05
6.63509e-05
9.08983e-05
0.000146854
0.00017116
0.000170738
0.000204824
0.000238731
0.000264814
0.000294387
0.00033097
0.000376651
0.000432863
0.000498377
0.000578301
0.000671028
0.000775138
0.000774916
0.000775065
0.000774886
0.000775032
0.00077486
0.000775023
0.000774851
0.000775026
0.000774841
0.000775019
0.000774823
0.000775004
0.000774816
0.000774994
0.000774829
0.000774631
0.000745333
0.000170644
0.000170645
0.000745294
0.000774508
0.000774988
0.000774801
0.000774996
0.00077481
0.000775001
0.000774815
0.000775002
0.000774814
0.000774994
0.000774805
0.000774981
0.000774798
0.000774974
0.000774805
0.000774985
0.000774814
0.000775
0.000774816
0.000774996
0.000774809
0.000774993
0.000774806
0.000774986
0.000774825
0.00077462
0.000745335
0.000170642
0.000170649
0.000745332
0.000774684
0.000774812
0.000774998
0.000774811
0.000775005
0.000774818
0.000775011
0.000774815
0.000775003
0.000774811
0.000774991
0.000774806
0.000774977
0.000774802
0.000774973
0.000774799
0.000774968
0.000774864
0.000774836
0.000774994
0.000774807
0.000774998
0.000774814
0.000775003
0.000774819
0.000774726
0.000744914
0.000170679
0.000170642
0.000745314
0.000774508
0.000774986
0.000774805
0.000774996
0.00077481
0.000775005
0.000774815
0.000775004
0.000774814
0.000774991
0.000774804
0.000774975
0.000774802
0.000774971
0.000774801
0.000774978
0.000774809
0.000774994
0.00077481
0.000774993
0.000774808
0.000774986
0.000774801
0.000774981
0.00077483
0.000774613
0.000745318
0.000170642
0.00017068
0.000745027
0.000774696
0.000774973
0.000774818
0.000775004
0.000774813
0.000775
0.000774811
0.000775003
0.000774812
0.000774992
0.000774797
0.000774976
0.000774802
0.000774813
0.00077497
0.000774796
0.000774988
0.000774804
0.000775
0.000774811
0.000774998
0.000774807
0.000774992
0.000774803
0.000774973
0.000774646
0.000745067
0.000170675
0.000170643
0.00074529
0.000774498
0.000774987
0.000774799
0.000774994
0.000774806
0.000775009
0.00077481
0.00077501
0.000774815
0.000774997
0.000774806
0.000774981
0.000774791
0.000774967
0.000774794
0.000774969
0.000774806
0.000774995
0.000774809
0.000774999
0.000774811
0.000774991
0.000774805
0.000774982
0.000774835
0.000774612
0.000745348
0.000170643
2.68525e-06
2.27581e-05
2.90055e-05
4.01134e-05
5.4291e-05
6.41402e-05
6.24338e-05
6.38853e-05
8.2745e-05
8.65108e-05
8.23435e-05
5.86979e-05
4.44565e-05
6.68112e-06
1.69339e-05
0.000239554
0.000344589
0.000385534
0.00035416
0.000326533
0.000318014
0.000322858
0.000334528
0.000349955
0.000364164
0.000375923
0.000380817
0.000383919
0.000391866
0.000400268
0.000398829
0.00037744
0.000341336
0.000297859
0.000255328
0.000243576
0.000254553
0.000294373
0.000269993
0.000158394
0.000294108
0.000255502
0.000221732
0.000109594
0.000280335
0.00206835
0.000554129
0.00037719
0.000391643
0.00157847
0.00215754
0.00278767
0.00324143
0.00350267
0.00349241
0.00347387
0.0033351
0.00315364
0.00305018
0.00297976
0.00281979
0.00251034
0.00201019
0.00148889
0.00109632
0.000748032
0.000510581
0.00038252
0.000285468
0.000226807
0.000108482
0.000312293
0.000357976
2.58609e-05
9.24212e-06
0.000422247
0.000677773
0.000938574
0.00109219
0.000925888
0.000796429
0.00412272
0.0160536
0.0271173
0.0317569
0.0165603
0.00954215
0.00481062
0.0025008
0.0017194
0.00112834
0.000708713
0.000460278
0.000323088
0.000242593
0.000186227
0.000139203
0.000204778
0.000296365
0.000243651
0.000176386
0.000138036
0.000107495
5.94156e-06
1.21683e-06
4.34894e-05
4.948e-05
4.51277e-05
5.74816e-05
9.4397e-05
0.000185811
0.000354533
0.000421601
0.000588358
0.00047468
0.000397566
0.000264126
0.000178751
0.00012014
8.44518e-05
6.38964e-05
5.2371e-05
4.61828e-05
4.22317e-05
3.89105e-05
3.44003e-05
2.88497e-05
2.27624e-05
1.74455e-05
1.35634e-05
1.14218e-05
1.05475e-05
1.08063e-05
1.15897e-06
1.57603e-06
6.84743e-06
5.78154e-06
4.76272e-06
4.06112e-06
3.97939e-06
4.17561e-06
4.52781e-06
4.87379e-06
5.27879e-06
5.63984e-06
6.19099e-06
6.59661e-06
7.34029e-06
7.96518e-06
8.94366e-06
9.98234e-06
1.13899e-05
1.29865e-05
1.51912e-05
1.76659e-05
2.13097e-05
2.55718e-05
3.20193e-05
4.05204e-05
5.42145e-05
3.05137e-05
8.71562e-06
3.91837e-06
4.95782e-06
3.25493e-06
3.39147e-06
4.56558e-06
6.22041e-06
8.1567e-06
1.011e-05
9.22543e-06
8.70957e-06
8.5172e-06
8.57009e-06
8.87602e-06
9.38686e-06
1.00508e-05
1.07713e-05
1.16358e-05
1.27724e-05
1.40839e-05
1.56738e-05
1.75168e-05
1.97193e-05
2.21597e-05
2.50943e-05
2.87254e-05
3.29295e-05
3.83208e-05
4.60558e-05
5.78686e-05
7.80784e-05
0.000122295
0.000165433
0.000133481
0.000150925
0.000175699
0.000198369
0.000225386
0.000258954
0.000299673
0.000348276
0.000404705
0.000470539
0.000549978
0.000643955
0.000750888
0.000750954
0.000750823
0.000750921
0.000750802
0.000750904
0.000750792
0.000750901
0.000750782
0.000750888
0.000750767
0.000750867
0.000750754
0.000750851
0.000750768
0.00075058
0.000722497
0.000164986
0.000164986
0.0007225
0.000750492
0.000750856
0.000750749
0.000750862
0.000750761
0.000750866
0.000750767
0.00075087
0.000750764
0.000750865
0.000750759
0.000750853
0.000750749
0.000750854
0.000750753
0.000750858
0.000750762
0.00075087
0.000750763
0.000750867
0.000750755
0.000750855
0.000750746
0.000750841
0.000750762
0.000750567
0.000722494
0.000164985
0.000164988
0.000722518
0.000750584
0.000750756
0.000750857
0.000750756
0.000750867
0.000750766
0.000750876
0.000750768
0.000750877
0.000750765
0.000750867
0.000750762
0.000750859
0.000750755
0.000750852
0.00075075
0.000750834
0.000750809
0.000750788
0.00075086
0.00075076
0.000750864
0.000750761
0.000750863
0.00075076
0.000750611
0.000722449
0.000164985
0.000164988
0.000722479
0.000750481
0.000750851
0.000750744
0.000750862
0.000750756
0.000750868
0.000750766
0.000750872
0.000750768
0.000750862
0.000750753
0.000750852
0.000750749
0.000750849
0.000750753
0.000750857
0.000750757
0.000750863
0.00075076
0.000750857
0.000750745
0.000750852
0.000750744
0.000750839
0.000750773
0.000750559
0.000722492
0.000164984
0.000164986
0.000722458
0.000750605
0.000750854
0.000750774
0.000750865
0.00075076
0.000750864
0.000750763
0.00075087
0.000750763
0.000750866
0.000750749
0.000750843
0.000750778
0.00075078
0.000750838
0.000750746
0.000750861
0.000750755
0.000750864
0.000750759
0.000750859
0.000750755
0.000750852
0.000750754
0.000750839
0.000750583
0.000722464
0.000164983
0.000164988
0.000722479
0.000750483
0.000750852
0.00075074
0.000750857
0.000750753
0.000750867
0.000750762
0.000750874
0.000750764
0.000750869
0.000750751
0.000750848
0.000750739
0.000750841
0.000750739
0.000750843
0.000750751
0.000750862
0.000750763
0.000750867
0.000750758
0.000750855
0.000750752
0.000750852
0.000750781
0.000750568
0.000722514
0.000164985
3.13885e-06
2.44452e-05
3.49374e-05
4.75958e-05
5.70736e-05
6.72443e-05
7.12847e-05
9.36446e-05
0.000145492
0.000193402
0.000192585
0.000138674
8.00474e-05
1.15943e-05
3.12558e-05
0.00050786
0.000655046
0.000662772
0.000593167
0.000519046
0.000479378
0.000460476
0.000457229
0.00045313
0.000450958
0.000450648
0.00045173
0.000463775
0.000481295
0.000498682
0.000511962
0.000518394
0.000516426
0.000507103
0.000501315
0.000459851
0.000478243
0.000538816
0.000524765
0.00032785
0.00040353
0.000439937
0.000364628
0.000865413
0.000343233
0.00255531
0.000707001
0.000475932
0.000634568
0.00214664
0.00249673
0.00279829
0.00323322
0.00350866
0.00345573
0.00314245
0.00277497
0.00250345
0.00245292
0.00246212
0.00249216
0.00256666
0.00257012
0.00234447
0.00199912
0.00160524
0.00112751
0.000823507
0.000619255
0.000516995
0.000421357
0.000525253
0.000835421
8.90982e-05
4.15664e-06
0.000391956
0.000488895
0.000631742
0.000709432
0.0008454
0.00383475
0.0140564
0.0214671
0.0214573
0.0179181
0.00932861
0.0087607
0.00508728
0.0029356
0.0019923
0.00141557
0.000952746
0.000650275
0.000478136
0.000353514
0.000274189
0.000220876
0.000169472
0.000263412
0.000381711
0.000339427
0.0002669
0.000216414
1.74947e-05
1.39045e-06
5.09143e-05
5.08162e-05
0.000100223
0.000195731
0.000408162
0.000823382
0.00131368
0.00139637
0.00162378
0.00118345
0.000924718
0.000548163
0.000343547
0.000210436
0.000140554
9.967e-05
7.5106e-05
6.01376e-05
5.15341e-05
4.52639e-05
4.03965e-05
3.53844e-05
3.00872e-05
2.37618e-05
1.80508e-05
1.36161e-05
1.09951e-05
9.54409e-06
8.85176e-07
1.30363e-06
8.64674e-06
8.99805e-06
7.17945e-06
5.01518e-06
3.83932e-06
3.57039e-06
3.69647e-06
3.95869e-06
4.23814e-06
4.56674e-06
4.92904e-06
5.36099e-06
5.83991e-06
6.4332e-06
7.15976e-06
7.9501e-06
9.12085e-06
1.02665e-05
1.20911e-05
1.39154e-05
1.67504e-05
1.99153e-05
2.45339e-05
3.06393e-05
3.96467e-05
4.43603e-05
1.31235e-05
3.5291e-06
3.15632e-06
2.37171e-06
3.35289e-06
5.53751e-06
8.08441e-06
1.03547e-05
1.24745e-05
1.42534e-05
1.23247e-05
1.09933e-05
1.01905e-05
9.71975e-06
9.62025e-06
9.77827e-06
1.01985e-05
1.07996e-05
1.16487e-05
1.26742e-05
1.39609e-05
1.54624e-05
1.72435e-05
1.93237e-05
2.17976e-05
2.46671e-05
2.83998e-05
3.27566e-05
3.89865e-05
4.78061e-05
6.12858e-05
8.77803e-05
0.000144754
9.11708e-05
0.000108744
0.000126874
0.000145286
0.000168202
0.000195745
0.000230592
0.00026909
0.000313751
0.000366979
0.000431837
0.000514008
0.000616927
0.000710939
0.000710858
0.000710888
0.000710839
0.000710865
0.000710816
0.000710853
0.000710798