/*--------------------------------*- C++ -*----------------------------------*\
| =========                 |                                                 |
| \\      /  F ield         | OpenFOAM: The Open Source CFD Toolbox           |
|  \\    /   O peration     | Version:  2.1.1                                 |
|   \\  /    A nd           | Web:      www.OpenFOAM.org                      |
|    \\/     M anipulation  |                                                 |
\*---------------------------------------------------------------------------*/
FoamFile
{
    version     2.0;
    format      ascii;
    class       volScalarField;
    location    "0.002400000";
    object      c;
}
// * * * * * * * * * * * * * * * * * * * * * * * * * * * * * * * * * * * * * //

dimensions      [0 0 0 0 0 0 0];

internalField   nonuniform List<scalar> 
12384
(
1
1
1
1
1
1
1
1
0.305515
0.0247383
0.000236246
6.44538e-06
2.30247e-07
7.28658e-09
7.3878e-05
0.00118288
0.0185239
0.0734983
0.13638
0.331156
1
1
1
1
1
1
1
1
1
1
0.3266
0.22583
0.170231
0.108571
0.0608875
0.0181992
0.00247827
0.000574797
0.000132947
1.21874e-05
6.82825e-07
1.47174e-08
2.03718e-10
2.67722e-12
0.000186761
0.0108895
0.0847379
0.287089
1
1
1
1
1
1
1
1
1
1
0.232567
0.143102
0.112968
0.0906627
0.0766782
0.0583047
0.0389143
0.00982871
0.00111092
0.000228629
1.97365e-05
9.03417e-08
3.08087e-10
1.03451e-12
3.38365e-15
1.14518e-17
5.13995e-17
1.77158e-13
7.54314e-10
2.50389e-06
0.00474405
0.0529787
0.189206
0.212416
0.292264
0.321189
0.310765
0.21543
0.135453
0.0602795
0.0352234
0.00780838
0.00324924
0.000784016
3.97624e-05
2.13901e-06
9.78448e-08
1.9644e-09
2.51321e-11
5.07429e-14
8.12062e-17
1.15499e-19
1.81074e-22
2.93294e-25
4.6327e-28
7.03308e-31
3.14572e-39
1.87616e-38
3.95304e-38
1.01661e-38
1.11744e-40
2.29236e-43
1.3997e-46
1.8553e-49
1.48089e-52
1.43325e-55
6.91335e-59
1.74371e-61
1.31639e-64
5.40766e-68
1.42458e-71
1.23309e-75
1.18525e-79
1.28251e-83
1.56757e-87
2.13164e-91
3.16278e-95
4.98494e-99
8.11229e-103
1.35505e-106
2.2813e-110
3.82373e-114
6.47649e-118
1.10096e-121
1.88317e-125
3.24728e-129
1.18e-143
2.8008e-145
1.51424e-148
5.70263e-152
1.8313e-155
5.89309e-159
2.09888e-162
8.41848e-166
1.86473e-171
5.67699e-177
5.18595e-182
1.01975e-186
2.63772e-191
5.00303e-196
5.28386e-201
4.08227e-206
2.84324e-211
1.94208e-216
1.3389e-221
9.09882e-227
6.38824e-232
4.6146e-237
3.6757e-242
2.22559e-247
1.02262e-252
3.66266e-258
1.07335e-263
2.64374e-269
6.3049e-275
1.8191e-280
9.88872e-304
2.57028e-306
2.24676e-311
1.18456e-316
2.91499e-322
0
0
0
0
0
0
0
0
0
0
0
0
0
0
0
0
0
0
0
0
0
0
0
0
0
0
0
0
0
0
0
0
0
0
0
0
0
0
0
0
0
0
0
0
0
0
0
0
0
0
0
0
0
0
0
0
0
0
0
0
0
0
0
0
0
0
0
0
0
0
0
0
0
0
0
0
0
0
0
0
0
0
0
0
0
0
0
0
0
0
0
0
0
0
0
0
0
0
0
0
0
0
0
0
0
0
0
0
0
0
0
0
0
0
0
0
0
0
0
0
0
0
0
0
0
0
0
0
0
0
0
0
0
0
0
0
0
0
0
0
0
0
0
0
0
0
0
0
0
0
0
0
0
0
0
0
0
0
0
0
0
0
0
0
0
0
0
0
0
0
0
0
0
0
0
0
0
0
0
0
0
0
0
0
0
0
0
0
0
0
0
0
0
0
0
0
0
0
0
0
0
0
0
0
0
1
1
1
1
1
1
1
1
0.174907
0.0482219
0.00962641
0.000216384
4.98318e-06
1.69306e-07
0.00221051
0.0405472
0.25304
1
1
1
1
1
1
1
1
1
1
1
1
1
1
1
1
1
1
0.415877
0.0883926
0.0209137
0.00389649
0.000357434
3.36756e-05
7.27685e-07
1.19034e-08
1.50342e-10
0.00625776
0.119702
1
1
1
1
1
1
1
1
1
1
1
1
1
1
1
1
1
1
1
0.286549
0.0696678
0.0298391
0.00655689
4.48856e-05
9.683e-08
2.46362e-10
7.79059e-13
2.55031e-15
1.02527e-15
3.85993e-12
1.51291e-08
9.94397e-05
0.0414501
0.388336
1
1
1
1
1
1
1
1
1
0.256779
0.133415
0.0822002
0.0177145
0.00103218
7.22919e-05
1.59566e-06
2.48993e-08
5.02993e-11
5.23006e-14
2.80131e-17
2.03412e-20
2.37994e-23
3.31732e-26
5.03853e-29
6.79775e-36
5.6276e-35
1.69978e-34
7.04018e-35
1.35921e-36
2.91216e-39
1.88662e-42
2.51907e-45
2.06185e-48
2.08689e-51
1.00628e-54
2.47754e-57
1.8832e-60
7.43224e-64
1.79514e-67
3.413e-72
1.70999e-76
1.02489e-80
9.02564e-86
3.22451e-89
1.86715e-92
1.92523e-96
1.26857e-100
1.05961e-104
1.2039e-108
1.99938e-112
3.34964e-116
2.34178e-119
4.58266e-123
8.12562e-127
7.47707e-140
1.78031e-141
9.04515e-145
3.02892e-148
7.98894e-152
1.86994e-155
4.31909e-159
1.11867e-162
3.15834e-166
1.50778e-171
2.03564e-176
4.66498e-181
1.76279e-185
3.38212e-190
3.27984e-195
2.24948e-200
1.33239e-205
7.86824e-211
4.97788e-216
3.26066e-221
2.25385e-226
1.61456e-231
1.27139e-236
8.4639e-242
4.22264e-247
1.56036e-252
4.3898e-258
9.61628e-264
1.99382e-269
4.71307e-275
4.06739e-298
1.18949e-300
9.22079e-306
4.60602e-311
1.82214e-316
4.79244e-322
0
0
0
0
0
0
0
0
0
0
0
0
0
0
0
0
0
0
0
0
0
0
0
0
0
0
0
0
0
0
0
0
0
0
0
0
0
0
0
0
0
0
0
0
0
0
0
0
0
0
0
0
0
0
0
0
0
0
0
0
0
0
0
0
0
0
0
0
0
0
0
0
0
0
0
0
0
0
0
0
0
0
0
0
0
0
0
0
0
0
0
0
0
0
0
0
0
0
0
0
0
0
0
0
0
0
0
0
0
0
0
0
0
0
0
0
0
0
0
0
0
0
0
0
0
0
0
0
0
0
0
0
0
0
0
0
0
0
0
0
0
0
0
0
0
0
0
0
0
0
0
0
0
0
0
0
0
0
0
0
0
0
0
0
0
0
0
0
0
0
0
0
0
0
0
0
0
0
0
0
0
0
0
0
0
0
0
0
0
0
0
0
0
0
0
0
0
0
0
0
0
0
0
0
1
1
1
1
1
1
1
1
0.582644
0.413853
0.164596
0.0338466
0.000260282
3.5589e-06
0.0253351
0.282439
1
1
1
1
1
1
1
1
1
1
1
1
1
1
1
1
1
1
1
1
1
0.146458
0.0305247
0.0118619
0.00126143
2.77671e-05
4.94467e-07
7.08376e-09
0.00970911
0.137636
1
1
1
1
1
1
1
1
1
1
1
1
1
1
1
1
1
1
1
1
1
1
0.209674
0.0190026
5.20641e-05
7.30231e-08
1.87431e-10
6.37445e-13
2.3352e-16
1.3003e-12
5.07328e-09
1.14464e-05
0.0208428
0.237335
1
1
1
1
1
1
1
1
1
1
1
1
0.323466
0.0913336
0.0162454
0.000510239
2.22422e-05
3.68313e-07
9.74466e-10
4.28472e-14
4.40979e-18
3.3289e-21
7.32174e-24
2.01782e-26
2.02624e-32
3.04178e-31
1.63565e-30
1.06989e-30
3.15487e-32
4.93778e-35
2.89773e-38
2.87705e-41
2.25013e-44
1.91105e-47
9.22227e-51
2.34006e-53
2.2403e-56
1.26038e-59
4.68736e-63
1.06283e-66
1.57883e-70
1.04991e-74
7.16073e-80
6.23695e-84
5.31752e-88
3.59029e-92
5.55724e-97
6.4435e-102
4.13883e-106
7.63051e-109
7.87306e-113
1.39218e-115
1.4403e-119
1.36018e-123
1.48094e-135
3.9317e-137
1.93488e-140
6.14435e-144
1.47056e-147
2.85041e-151
5.0586e-155
8.67734e-159
1.76962e-162
4.29103e-166
7.56801e-171
3.14629e-175
1.26233e-179
2.08295e-184
1.80846e-189
1.08598e-194
5.27549e-200
2.44958e-205
1.23879e-210
6.95808e-216
4.29515e-221
2.82168e-226
2.02542e-231
1.45019e-236
8.96253e-242
4.04377e-247
1.23614e-252
2.5438e-258
4.65881e-264
9.25298e-270
2.22726e-292
6.38964e-295
4.35169e-300
1.95137e-305
7.16701e-311
2.30823e-316
5.13828e-322
0
0
0
0
0
0
0
0
0
0
0
0
0
0
0
0
0
0
0
0
0
0
0
0
0
0
0
0
0
0
0
0
0
0
0
0
0
0
0
0
0
0
0
0
0
0
0
0
0
0
0
0
0
0
0
0
0
0
0
0
0
0
0
0
0
0
0
0
0
0
0
0
0
0
0
0
0
0
0
0
0
0
0
0
0
0
0
0
0
0
0
0
0
0
0
0
0
0
0
0
0
0
0
0
0
0
0
0
0
0
0
0
0
0
0
0
0
0
0
0
0
0
0
0
0
0
0
0
0
0
0
0
0
0
0
0
0
0
0
0
0
0
0
0
0
0
0
0
0
0
0
0
0
0
0
0
0
0
0
0
0
0
0
0
0
0
0
0
0
0
0
0
0
0
0
0
0
0
0
0
0
0
0
0
0
0
0
0
0
0
0
0
0
0
0
0
0
0
0
0
0
0
0
1
1
1
1
1
1
1
1
1
1
0.640202
0.266577
0.0509846
0.000220944
0.115543
1
1
1
1
1
1
1
1
1
1
1
1
1
1
1
1
1
1
1
1
1
1
0.998675
0.998149
0.0756553
0.00907737
8.26676e-05
8.68388e-07
1.08657e-08
0.00781876
0.12354
1
1
1
1
1
1
1
1
1
1
1
1
1
1
1
1
1
1
1
1
1
1
1
0.230457
0.0236139
3.03691e-05
5.1384e-08
1.46378e-10
4.97275e-17
1.30832e-14
6.79153e-11
1.64235e-07
0.000524404
0.0147317
0.0385078
0.0319098
0.0386036
0.0653879
0.190686
0.982911
1
1
1
1
1
1
1
1
0.362876
0.0669356
0.00458302
0.000137412
1.31875e-06
2.64988e-09
1.22448e-13
7.04868e-18
7.38465e-21
1.64257e-23
1.72143e-28
3.76549e-27
2.08841e-26
1.082e-26
3.08718e-28
3.39916e-31
1.65348e-34
1.57648e-37
1.20261e-40
9.94252e-44
4.49896e-47
1.13794e-49
1.06336e-52
5.79434e-56
2.34175e-59
8.00019e-63
2.2965e-66
4.6988e-70
6.50944e-74
6.89102e-78
6.31133e-82
4.70714e-86
8.70272e-91
9.58122e-96
6.66707e-100
4.42242e-104
2.51628e-108
2.68351e-111
1.33262e-115
4.46876e-120
1.19479e-130
2.69564e-132
1.23399e-135
3.95211e-139
9.58675e-143
1.84868e-146
2.98465e-150
4.68404e-154
7.30317e-158
1.50602e-161
3.56281e-165
4.48889e-169
1.01789e-173
1.35582e-178
1.0687e-183
5.83279e-189
2.47658e-194
9.19739e-200
3.53425e-205
1.53275e-210
7.79141e-216
4.39236e-221
2.74616e-226
1.90096e-231
1.3999e-236
8.96413e-242
3.27007e-247
6.88474e-253
1.12063e-258
1.92374e-264
1.60099e-286
4.7325e-289
2.64756e-294
1.06437e-299
3.64023e-305
1.10337e-310
3.02753e-316
5.82997e-322
0
0
0
0
0
0
0
0
0
0
0
0
0
0
0
0
0
0
0
0
0
0
0
0
0
0
0
0
0
0
0
0
0
0
0
0
0
0
0
0
0
0
0
0
0
0
0
0
0
0
0
0
0
0
0
0
0
0
0
0
0
0
0
0
0
0
0
0
0
0
0
0
0
0
0
0
0
0
0
0
0
0
0
0
0
0
0
0
0
0
0
0
0
0
0
0
0
0
0
0
0
0
0
0
0
0
0
0
0
0
0
0
0
0
0
0
0
0
0
0
0
0
0
0
0
0
0
0
0
0
0
0
0
0
0
0
0
0
0
0
0
0
0
0
0
0
0
0
0
0
0
0
0
0
0
0
0
0
0
0
0
0
0
0
0
0
0
0
0
0
0
0
0
0
0
0
0
0
0
0
0
0
0
0
0
0
0
0
0
0
0
0
0
0
0
0
0
0
0
0
0
0
1
1
1
1
1
1
1
1
1
1
1
0.999953
0.320302
0.0197489
0.179117
1
1
1
1
1
1
1
1
1
1
1
1
1
1
1
1
1
1
1
1
1
1
1
1
0.999141
0.026565
8.10412e-05
9.78224e-07
1.54576e-08
0.00408594
0.0912374
1
1
1
1
1
1
1
1
1
1
1
1
1
1
1
1
1
1
1
1
1
1
1
1
0.160239
0.00921322
7.35361e-06
1.48365e-08
1.82753e-14
4.69118e-13
2.40356e-12
3.7842e-11
4.40837e-08
2.99766e-06
1.51042e-05
6.16762e-05
0.000204086
0.000783938
0.00887481
0.139831
0.998784
1
1
1
1
1
1
1
1
1
0.272044
0.0259033
0.000299958
1.92225e-06
2.94423e-09
1.10278e-13
1.49851e-17
1.60157e-20
2.28929e-24
3.84881e-23
1.19595e-22
4.60715e-23
1.68056e-24
1.91971e-27
9.35845e-31
9.82648e-34
7.85412e-37
6.18427e-40
2.44634e-43
5.67939e-46
4.93137e-49
2.50812e-52
9.29961e-56
2.88165e-59
8.19283e-63
2.23216e-66
5.33886e-70
9.52666e-74
1.29086e-77
1.49548e-81
1.5202e-85
1.37449e-89
1.0921e-93
7.57864e-98
4.304e-102
1.98776e-106
7.04569e-111
1.73561e-115
3.92478e-126
5.44901e-128
2.20557e-131
7.27905e-135
2.03906e-138
4.64217e-142
8.86725e-146
1.44094e-149
2.32199e-153
4.11348e-157
9.12495e-161
2.61165e-164
7.41876e-168
7.95481e-173
5.77714e-178
2.9659e-183
1.16651e-188
3.73213e-194
1.13729e-199
3.67707e-205
1.42387e-210
6.48253e-216
3.39259e-221
1.97903e-226
1.32387e-231
1.00505e-236
4.85901e-242
1.10947e-247
1.76279e-253
2.76446e-259
1.20841e-280
3.28284e-283
1.65309e-288
5.98363e-294
1.90074e-299
5.48785e-305
1.41965e-310
3.35269e-316
5.2865e-322
0
0
0
0
0
0
0
0
0
0
0
0
0
0
0
0
0
0
0
0
0
0
0
0
0
0
0
0
0
0
0
0
0
0
0
0
0
0
0
0
0
0
0
0
0
0
0
0
0
0
0
0
0
0
0
0
0
0
0
0
0
0
0
0
0
0
0
0
0
0
0
0
0
0
0
0
0
0
0
0
0
0
0
0
0
0
0
0
0
0
0
0
0
0
0
0
0
0
0
0
0
0
0
0
0
0
0
0
0
0
0
0
0
0
0
0
0
0
0
0
0
0
0
0
0
0
0
0
0
0
0
0
0
0
0
0
0
0
0
0
0
0
0
0
0
0
0
0
0
0
0
0
0
0
0
0
0
0
0
0
0
0
0
0
0
0
0
0
0
0
0
0
0
0
0
0
0
0
0
0
0
0
0
0
0
0
0
0
0
0
0
0
0
0
0
0
0
0
0
0
0
1
1
1
1
1
1
1
1
1
1
1
1
0.999337
0.0875143
0.285596
1
1
1
1
1
1
1
1
1
1
1
1
1
1
1
1
1
1
1
1
1
1
1
1
0.998613
0.0354498
0.0028474
2.24011e-05
4.15586e-07
0.00139266
0.0734913
1
1
1
1
1
1
1
1
1
1
1
1
1
1
1
1
1
1
1
1
1
1
1
1
1
0.0818864
0.00223305
2.0221e-06
1.04213e-11
7.5559e-11
3.65257e-10
1.37251e-09
5.09298e-09
1.54552e-08
5.07007e-07
9.01333e-06
0.000172193
0.0087175
0.0417149
0.411989
1
1
1
1
1
1
1
1
1
1
1
0.359327
0.0446116
0.000353688
1.57425e-06
1.46779e-09
2.57987e-14
2.23411e-17
2.57984e-20
1.85877e-19
3.4804e-19
1.3366e-19
8.21451e-21
1.34952e-23
9.05956e-27
1.53924e-29
2.23801e-32
1.33259e-35
2.75552e-39
3.53106e-42
2.52707e-45
1.07614e-48
3.5673e-52
1.01254e-55
2.57665e-59
6.28211e-63
1.55222e-66
3.75089e-70
7.97372e-74
1.37348e-77
1.98554e-81
2.49012e-85
2.69645e-89
2.49049e-93
1.88137e-97
1.07356e-101
4.21836e-106
9.68592e-111
5.82906e-122
4.41975e-124
1.38962e-127
4.19978e-131
1.26871e-134
3.61266e-138
8.74292e-142
1.78568e-145
3.20323e-149
5.94592e-153
1.18886e-156
3.12089e-160
9.78229e-164
3.95147e-167
2.63944e-172
1.31984e-177
4.94533e-183
1.45975e-188
3.78284e-194
9.57318e-200
2.73655e-205
9.42813e-211
3.93589e-216
1.89135e-221
1.03968e-226
6.65805e-232
3.54916e-237
1.0111e-242
1.74777e-248
2.67969e-254
9.14581e-275
2.59118e-277
9.92588e-283
3.1113e-288
8.84769e-294
2.39412e-299
5.99643e-305
1.34714e-310
2.78422e-316
3.50787e-322
0
0
0
0
0
0
0
0
0
0
0
0
0
0
0
0
0
0
0
0
0
0
0
0
0
0
0
0
0
0
0
0
0
0
0
0
0
0
0
0
0
0
0
0
0
0
0
0
0
0
0
0
0
0
0
0
0
0
0
0
0
0
0
0
0
0
0
0
0
0
0
0
0
0
0
0
0
0
0
0
0
0
0
0
0
0
0
0
0
0
0
0
0
0
0
0
0
0
0
0
0
0
0
0
0
0
0
0
0
0
0
0
0
0
0
0
0
0
0
0
0
0
0
0
0
0
0
0
0
0
0
0
0
0
0
0
0
0
0
0
0
0
0
0
0
0
0
0
0
0
0
0
0
0
0
0
0
0
0
0
0
0
0
0
0
0
0
0
0
0
0
0
0
0
0
0
0
0
0
0
0
0
0
0
0
0
0
0
0
0
0
0
0
0
0
0
0
0
0
0
1
1
1
1
1
1
1
1
1
1
1
1
1
0.197219
0.469422
1
1
1
1
1
1
1
1
1
1
1
1
1
1
1
1
1
1
1
1
1
1
1
1
0.996935
0.0746752
0.0553041
0.00144997
1.38438e-05
0.000703272
0.0731539
1
1
1
1
1
1
1
1
1
1
1
1
1
1
1
1
1
1
1
1
1
1
1
1
1
0.262029
0.0236939
6.45146e-05
6.85335e-09
1.87552e-08
5.36655e-08
2.44715e-07
1.21663e-06
6.85785e-06
0.000187924
0.00738377
0.0388849
0.163463
0.284681
0.994547
1
1
1
1
1
1
1
1
1
1
1
1
0.337571
0.0398639
0.000238002
7.44319e-07
4.19181e-10
7.19796e-14
1.59462e-16
5.34859e-16
6.93562e-16
3.33128e-16
3.74559e-17
1.43927e-19
2.40448e-22
5.89197e-25
7.8855e-28
4.35017e-31
1.1022e-34
3.34736e-38
1.33458e-41
4.46913e-45
1.25341e-48
3.20327e-52
7.5338e-56
1.66426e-59
3.61728e-63
8.16599e-67
1.89551e-70
4.26646e-74
8.69801e-78
1.56541e-81
2.45817e-85
3.29365e-89
3.62024e-93
3.01456e-97
1.59327e-101
4.26892e-106
5.00742e-118
2.61046e-120
5.8434e-124
1.48476e-127
4.14199e-131
1.17042e-134
3.25801e-138
8.42325e-142
1.93511e-145
4.11417e-149
8.8244e-153
2.10079e-156
6.01227e-160
2.25293e-163
9.95375e-167
4.80393e-172
1.75943e-177
4.88921e-183
1.14693e-188
2.43509e-194
5.38963e-200
1.36505e-205
4.30495e-211
1.63706e-216
7.28321e-222
3.75172e-227
2.06852e-232
7.64276e-238
1.48536e-243
2.26956e-249
6.82427e-269
1.52963e-271
4.89135e-277
1.28402e-282
3.17265e-288
7.60322e-294
1.79821e-299
3.99128e-305
8.01494e-311
1.49012e-316
1.13635e-322
0
0
0
0
0
0
0
0
0
0
0
0
0
0
0
0
0
0
0
0
0
0
0
0
0
0
0
0
0
0
0
0
0
0
0
0
0
0
0
0
0
0
0
0
0
0
0
0
0
0
0
0
0
0
0
0
0
0
0
0
0
0
0
0
0
0
0
0
0
0
0
0
0
0
0
0
0
0
0
0
0
0
0
0
0
0
0
0
0
0
0
0
0
0
0
0
0
0
0
0
0
0
0
0
0
0
0
0
0
0
0
0
0
0
0
0
0
0
0
0
0
0
0
0
0
0
0
0
0
0
0
0
0
0
0
0
0
0
0
0
0
0
0
0
0
0
0
0
0
0
0
0
0
0
0
0
0
0
0
0
0
0
0
0
0
0
0
0
0
0
0
0
0
0
0
0
0
0
0
0
0
0
0
0
0
0
0
0
0
0
0
0
0
0
0
0
0
0
0
1
1
1
1
1
1
1
1
1
1
1
1
1
1
1
1
1
1
1
1
1
1
1
1
1
1
1
1
1
1
1
1
1
1
1
1
1
1
1
1
0.999186
0.436109
0.0126524
0.000152809
0.000695296
0.0705059
1
1
1
1
1
1
1
1
1
1
1
1
1
1
1
1
1
1
1
1
1
1
1
1
1
1
0.139396
0.0076623
4.42069e-06
4.54418e-06
7.76503e-06
3.1345e-05
0.00016781
0.00103771
0.0268863
0.159837
0.296999
0.99715
1
0.999958
1
1
1
1
1
1
1
1
1
1
1
1
1
0.272652
0.0239279
9.32549e-05
1.61963e-07
4.03083e-11
6.74079e-13
9.31707e-13
1.15336e-12
6.48077e-13
1.23721e-13
1.59181e-15
3.43425e-18
6.68013e-21
8.75516e-24
4.94249e-27
1.68002e-30
3.48243e-34
6.6941e-38
1.53069e-41
3.55567e-45
8.05322e-49
1.74887e-52
3.63569e-56
7.33732e-60
1.47599e-63
3.10262e-67
6.85735e-71
1.54709e-74
3.40382e-78
7.0862e-82
1.33777e-85
2.15916e-89
2.6965e-93
2.14134e-97
7.15464e-102
3.40139e-114
1.73751e-116
2.24119e-120
4.42963e-124
1.10513e-127
2.94572e-131
7.82664e-135
2.0913e-138
5.41588e-142
1.34969e-145
3.24105e-149
8.0432e-153
2.09229e-156
6.73835e-160
2.71467e-163
1.38033e-166
4.79847e-172
1.24691e-177
2.68131e-183
5.06261e-189
9.26957e-195
1.8039e-200
4.19056e-206
1.21008e-211
4.27333e-217
1.7764e-222
8.62691e-228
3.43844e-233
8.00574e-239
1.33466e-244
4.90332e-263
9.81853e-266
1.7004e-271
3.21948e-277
6.39472e-283
1.31442e-288
2.75491e-294
5.88471e-300
1.19843e-305
2.22832e-311
3.86215e-317
0
0
0
0
0
0
0
0
0
0
0
0
0
0
0
0
0
0
0
0
0
0
0
0
0
0
0
0
0
0
0
0
0
0
0
0
0
0
0
0
0
0
0
0
0
0
0
0
0
0
0
0
0
0
0
0
0
0
0
0
0
0
0
0
0
0
0
0
0
0
0
0
0
0
0
0
0
0
0
0
0
0
0
0
0
0
0
0
0
0
0
0
0
0
0
0
0
0
0
0
0
0
0
0
0
0
0
0
0
0
0
0
0
0
0
0
0
0
0
0
0
0
0
0
0
0
0
0
0
0
0
0
0
0
0
0
0
0
0
0
0
0
0
0
0
0
0
0
0
0
0
0
0
0
0
0
0
0
0
0
0
0
0
0
0
0
0
0
0
0
0
0
0
0
0
0
0
0
0
0
0
0
0
0
0
0
0
0
0
0
0
0
0
0
0
0
0
0
0
1
1
1
1
1
1
1
1
1
1
1
1
1
1
1
1
1
1
1
1
1
1
1
1
1
1
1
1
1
1
1
1
1
1
1
1
1
1
1
1
1
1
1
0.998764
0.0145445
0.00100253
0.000989847
0.000202918
0.000305213
0.0280938
0.242778
1
1
1
1
1
1
1
1
1
1
1
1
1
1
1
1
1
1
1
1
1
1
1
1
1
0.989333
0.121563
0.0136555
0.00412695
0.000923455
0.000696882
0.000737787
0.00191825
0.00855628
0.0381076
0.273187
0.995125
1
1
1
1
1
1
1
1
1
1
1
1
1
1
1
1
1
1
0.186882
0.013232
3.62075e-05
3.42965e-08
1.42263e-09
9.21794e-10
8.67899e-10
1.01163e-09
1.1387e-09
7.75401e-10
2.79828e-10
9.27383e-12
1.44643e-14
2.4307e-17
3.19914e-20
2.25903e-23
9.57513e-27
2.05294e-30
2.80527e-34
3.75813e-38
6.19889e-42
1.21458e-45
2.47457e-49
5.01873e-53
9.89117e-57
1.91857e-60
3.72678e-64
7.51038e-68
1.59552e-71
3.53696e-75
7.96367e-79
1.77537e-82
3.78329e-86
7.24395e-90
1.0618e-93
7.9465e-98
4.26708e-102
2.65392e-106
3.44507e-110
7.20456e-114
2.35229e-117
7.74798e-121
2.3941e-124
6.56151e-128
1.68236e-131
4.24595e-135
1.07929e-138
2.72473e-142
6.82584e-146
1.70772e-149
4.33125e-153
1.18411e-156
3.836e-160
1.71814e-163
9.16543e-167
2.00219e-172
3.7497e-178
6.27635e-184
9.95407e-190
1.57743e-195
2.78444e-201
5.8811e-207
1.54922e-212
4.80234e-218
1.66331e-223
5.99215e-229
2.08791e-234
5.70361e-240
1.0779e-245
1.68789e-251
2.98856e-257
7.98827e-263
2.85581e-268
1.06232e-273
3.83619e-279
1.29301e-284
4.029e-290
1.15774e-295
2.91886e-301
6.22124e-307
1.16878e-312
1.99786e-318
0
0
0
0
0
0
0
0
0
0
0
0
0
0
0
0
0
0
0
0
0
0
0
0
0
0
0
0
0
0
0
0
0
0
0
0
0
0
0
0
0
0
0
0
0
0
0
0
0
0
0
0
0
0
0
0
0
0
0
0
0
0
0
0
0
0
0
0
0
0
0
0
0
0
0
0
0
0
0
0
0
0
0
0
0
0
0
0
0
0
0
0
0
0
0
0
0
0
0
0
0
0
0
0
0
0
0
0
0
0
0
0
0
0
0
0
0
0
0
0
0
0
0
0
0
0
0
0
0
0
0
0
0
0
0
0
0
0
0
0
0
0
0
0
0
0
0
0
0
0
0
0
0
0
0
0
0
0
0
0
0
0
0
0
0
0
0
0
0
0
0
0
0
0
0
0
0
0
0
0
0
0
0
0
0
0
0
0
0
0
0
0
0
0
0
0
0
0
0
0
0
0
0
0
0
0
0
0
0
0
0
0
1
1
1
1
1
1
1
1
1
1
1
1
1
1
1
1
1
1
1
1
1
1
1
1
1
1
1
1
1
1
1
1
1
1
1
1
1
1
1
1
1
1
1
0.988037
0.0274425
0.0197676
0.0140213
0.00781061
0.00634607
0.0128921
0.0355754
0.138988
0.183726
1
1
1
1
1
1
1
1
1
1
1
1
1
1
1
1
1
1
1
1
1
1
1
1
0.334888
0.103027
0.0586359
0.0410765
0.0362523
0.0342742
0.0420902
0.0824996
0.184473
0.992538
1
1
1
1
1
1
1
1
1
1
1
1
1
1
1
1
1
1
1
0.566505
0.104864
0.00829052
2.97249e-05
9.97421e-07
4.04987e-07
4.54161e-07
5.64236e-07
6.24767e-07
5.05235e-07
2.03605e-07
1.36301e-08
2.44825e-11
4.19684e-14
5.26009e-17
4.39104e-20
2.20028e-23
5.96456e-27
8.49639e-31
7.9435e-35
7.84272e-39
1.01828e-42
1.69302e-46
3.1381e-50
6.07958e-54
1.17348e-57
2.25611e-61
4.34967e-65
8.62192e-69
1.78749e-72
3.87713e-76
8.67342e-80
1.97582e-83
4.45552e-87
9.54111e-91
1.69013e-94
2.32257e-98
3.08201e-102
4.01286e-106
6.69595e-110
1.37208e-113
3.17047e-117
7.36399e-121
1.67257e-124
3.68459e-128
8.17471e-132
1.85257e-135
4.30864e-139
1.01216e-142
2.42314e-146
5.81909e-150
1.45346e-153
3.7829e-157
1.11841e-160
3.88252e-164
9.21971e-168
6.88716e-174
4.3488e-180
2.97291e-186
3.08908e-192
5.5744e-198
1.28528e-203
3.20157e-209
8.14826e-215
2.12383e-220
5.53181e-226
1.4004e-231
3.26032e-237
7.25196e-243
1.5918e-248
3.58986e-254
8.92998e-260
2.76255e-265
9.39079e-271
3.08674e-276
9.89026e-282
3.0243e-287
8.23204e-293
1.92076e-298
3.97765e-304
7.48646e-310
1.31118e-315
2.07508e-321
0
0
0
0
0
0
0
0
0
0
0
0
0
0
0
0
0
0
0
0
0
0
0
0
0
0
0
0
0
0
0
0
0
0
0
0
0
0
0
0
0
0
0
0
0
0
0
0
0
0
0
0
0
0
0
0
0
0
0
0
0
0
0
0
0
0
0
0
0
0
0
0
0
0
0
0
0
0
0
0
0
0
0
0
0
0
0
0
0
0
0
0
0
0
0
0
0
0
0
0
0
0
0
0
0
0
0
0
0
0
0
0
0
0
0
0
0
0
0
0
0
0
0
0
0
0
0
0
0
0
0
0
0
0
0
0
0
0
0
0
0
0
0
0
0
0
0
0
0
0
0
0
0
0
0
0
0
0
0
0
0
0
0
0
0
0
0
0
0
0
0
0
0
0
0
0
0
0
0
0
0
0
0
0
0
0
0
0
0
0
0
0
0
0
0
0
0
0
0
0
0
0
0
0
0
0
0
0
0
0
0
1
1
1
1
1
1
1
1
1
1
1
1
1
1
1
1
1
1
1
1
1
1
1
1
1
1
1
1
1
1
1
1
1
1
1
1
1
1
1
1
1
1
1
0.999933
0.997968
0.998529
0.996252
0.990754
0.987094
0.999024
1
1
1
1
1
1
1
1
1
1
1
1
1
1
1
1
1
1
1
1
1
1
1
1
1
1
1
0.995834
0.984871
0.987939
0.989727
0.990371
0.99065
0.991126
0.997109
0.999551
1
1
1
1
1
1
1
1
1
1
1
1
1
1
1
1
1
1
1
1
1
0.462839
0.119468
0.0167176
0.000347002
0.000136697
0.000147227
0.000167205
0.000170562
0.000138611
6.44227e-05
5.50492e-06
1.75838e-08
3.30162e-11
4.4025e-14
3.90233e-17
2.07002e-20
6.75916e-24
1.17016e-27
1.18314e-31
8.67312e-36
7.09927e-40
7.75263e-44
1.11864e-47
1.89884e-51
3.51984e-55
6.70184e-59
1.28451e-62
2.47453e-66
4.84921e-70
9.79348e-74
2.0585e-77
4.45216e-81
9.84332e-85
2.2109e-88
4.9792e-92
1.04682e-95
2.3159e-99
4.75377e-103
1.04239e-106
2.26705e-110
4.85602e-114
1.03257e-117
2.13026e-121
4.35201e-125
8.8389e-129
1.83332e-132
3.86874e-136
8.39201e-140
1.83782e-143
4.08167e-147
9.18614e-151
2.07386e-154
4.7618e-158
1.09849e-161
2.59443e-165
3.09238e-171
3.74108e-177
4.61795e-183
5.62272e-189
6.84886e-195
8.19269e-201
9.88359e-207
1.19014e-212
1.48306e-218
1.90679e-224
2.62638e-230
3.85926e-236
6.33399e-242
1.16404e-247
2.43319e-253
5.81849e-259
1.68878e-264
5.97648e-270
2.42164e-275
9.12313e-281
2.79221e-286
7.15964e-292
1.60845e-297
3.25158e-303
6.09486e-309
1.07494e-314
1.8068e-320
0
0
0
0
0
0
0
0
0
0
0
0
0
0
0
0
0
0
0
0
0
0
0
0
0
0
0
0
0
0
0
0
0
0
0
0
0
0
0
0
0
0
0
0
0
0
0
0
0
0
0
0
0
0
0
0
0
0
0
0
0
0
0
0
0
0
0
0
0
0
0
0
0
0
0
0
0
0
0
0
0
0
0
0
0
0
0
0
0
0
0
0
0
0
0
0
0
0
0
0
0
0
0
0
0
0
0
0
0
0
0
0
0
0
0
0
0
0
0
0
0
0
0
0
0
0
0
0
0
0
0
0
0
0
0
0
0
0
0
0
0
0
0
0
0
0
0
0
0
0
0
0
0
0
0
0
0
0
0
0
0
0
0
0
0
0
0
0
0
0
0
0
0
0
0
0
0
0
0
0
0
0
0
0
0
0
0
0
0
0
0
0
0
0
0
0
0
0
0
0
0
0
0
0
0
0
0
0
0
0
0
1
1
1
1
1
1
1
1
1
1
1
1
1
1
1
1
1
1
1
1
1
1
1
1
1
1
1
1
1
1
1
1
1
1
1
1
1
1
1
1
1
1
1
1
1
1
1
1
1
1
1
1
1
1
1
1
1
1
1
1
1
1
1
1
1
1
1
1
1
1
1
1
1
1
1
1
1
1
1
1
1
1
1
1
1
1
1
1
1
1
1
1
1
1
1
1
1
1
1
1
1
1
1
1
1
1
1
1
0.995939
0.367311
0.114567
0.0452345
0.043386
0.0391854
0.0316574
0.0253757
0.0112049
0.00161772
9.44484e-06
1.89545e-08
2.27055e-11
1.98819e-14
1.11977e-17
4.07726e-21
8.54633e-25
1.0598e-28
8.29411e-33
5.37996e-37
4.08863e-41
4.18775e-45
5.69193e-49
9.32162e-53
1.68791e-56
3.19248e-60
6.09434e-64
1.17003e-67
2.27005e-71
4.46153e-75
9.03355e-79
1.87627e-82
3.94561e-86
8.53266e-90
1.79646e-93
3.90723e-97
8.18811e-101
1.73517e-104
3.54447e-108
7.22803e-112
1.4321e-115
2.82405e-119
5.48473e-123
1.07113e-126
2.09725e-130
4.20259e-134
8.50041e-138
1.7644e-141
3.66706e-145
7.81907e-149
1.65667e-152
3.59464e-156
7.74736e-160
1.70184e-163
3.32407e-167
3.0103e-173
2.45266e-179
1.80552e-185
1.27105e-191
8.66125e-198
6.15518e-204
4.75636e-210
4.38169e-216
4.81103e-222
6.18486e-228
8.51914e-234
1.23124e-239
1.80867e-245
2.78986e-251
4.58836e-257
8.53854e-263
1.8201e-268
4.28639e-274
9.28465e-280
1.66605e-285
2.57984e-291
3.61861e-297
4.72639e-303
5.93179e-309
7.26366e-315
8.79437e-321
0
0
0
0
0
0
0
0
0
0
0
0
0
0
0
0
0
0
0
0
0
0
0
0
0
0
0
0
0
0
0
0
0
0
0
0
0
0
0
0
0
0
0
0
0
0
0
0
0
0
0
0
0
0
0
0
0
0
0
0
0
0
0
0
0
0
0
0
0
0
0
0
0
0
0
0
0
0
0
0
0
0
0
0
0
0
0
0
0
0
0
0
0
0
0
0
0
0
0
0
0
0
0
0
0
0
0
0
0
0
0
0
0
0
0
0
0
0
0
0
0
0
0
0
0
0
0
0
0
0
0
0
0
0
0
0
0
0
0
0
0
0
0
0
0
0
0
0
0
0
0
0
0
0
0
0
0
0
0
0
0
0
0
0
0
0
0
0
0
0
0
0
0
0
0
0
0
0
0
0
0
0
0
0
0
0
0
0
0
0
0
0
0
0
0
0
0
0
0
0
0
0
0
0
0
0
0
0
0
0
0
1
1
1
1
1
1
1
1
1
1
1
1
1
1
1
1
1
1
1
1
1
1
1
1
1
1
1
1
1
1
1
1
1
1
1
1
1
1
1
1
1
1
1
1
1
1
1
1
1
1
1
1
1
1
1
1
1
1
1
1
1
1
1
1
1
1
1
1
1
1
1
1
1
1
1
1
1
1
1
1
1
1
1
1
1
1
1
1
1
1
1
1
1
1
1
1
1
1
1
1
1
1
1
1
1
1
1
1
1
0.998423
0.995191
0.99694
0.999478
0.662025
0.375428
0.260089
0.16369
0.0517875
0.00543097
8.13053e-06
8.96792e-09
7.36321e-12
4.31677e-15
1.70565e-18
4.09719e-22
6.09088e-26
5.6044e-30
3.70312e-34
2.34684e-38
1.86066e-42
2.00179e-46
2.77888e-50
4.59223e-54
8.27877e-58
1.55541e-61
2.95246e-65
5.617e-69
1.0799e-72
2.0866e-76
4.0769e-80
8.03038e-84
1.62164e-87
3.19269e-91
6.3303e-95
1.26155e-98
2.40075e-102
4.67115e-106
8.7565e-110
1.65941e-113
3.10068e-117
5.86843e-121
1.1039e-124
2.10976e-128
4.03642e-132
7.85443e-136
1.53527e-139
3.02039e-143
6.0281e-147
1.19585e-150
2.41888e-154
4.84622e-158
9.90739e-162
2.00351e-165
2.48939e-171
3.16399e-177
3.91977e-183
4.84843e-189
5.78162e-195
6.86368e-201
7.90303e-207
9.12696e-213
1.03347e-218
1.18603e-224
1.35018e-230
1.58205e-236
1.8989e-242
2.46316e-248
3.51742e-254
5.87315e-260
1.15286e-265
2.43449e-271
4.63424e-277
7.58334e-283
1.08511e-288
1.40799e-294
1.68878e-300
1.93123e-306
2.14271e-312
2.36554e-318
0
0
0
0
0
0
0
0
0
0
0
0
0
0
0
0
0
0
0
0
0
0
0
0
0
0
0
0
0
0
0
0
0
0
0
0
0
0
0
0
0
0
0
0
0
0
0
0
0
0
0
0
0
0
0
0
0
0
0
0
0
0
0
0
0
0
0
0
0
0
0
0
0
0
0
0
0
0
0
0
0
0
0
0
0
0
0
0
0
0
0
0
0
0
0
0
0
0
0
0
0
0
0
0
0
0
0
0
0
0
0
0
0
0
0
0
0
0
0
0
0
0
0
0
0
0
0
0
0
0
0
0
0
0
0
0
0
0
0
0
0
0
0
0
0
0
0
0
0
0
0
0
0
0
0
0
0
0
0
0
0
0
0
0
0
0
0
0
0
0
0
0
0
0
0
0
0
0
0
0
0
0
0
0
0
0
0
0
0
0
0
0
0
0
0
0
0
0
0
0
0
0
0
0
0
0
0
0
0
0
0
1
1
1
1
1
1
1
1
1
1
1
1
1
1
1
1
1
1
1
1
1
1
1
1
1
1
1
1
1
1
1
1
1
1
1
1
1
1
1
1
1
1
1
1
1
1
1
1
1
1
1
1
1
1
1
1
1
1
1
1
1
1
1
1
1
1
1
1
1
1
1
1
1
1
1
1
1
1
1
1
1
1
1
1
1
1
1
1
1
1
1
1
1
1
1
1
1
1
1
1
1
1
1
1
1
1
1
1
1
1
1
1
1
1
1
1
1
0.271455
0.0509918
0.00126276
1.31703e-06
1.38451e-09
8.94005e-13
4.00473e-16
1.071e-19
1.79123e-23
1.8995e-27
1.38064e-31
8.67749e-36
6.1997e-40
5.82902e-44
7.28162e-48
1.11014e-51
1.91236e-55
3.50578e-59
6.59096e-63
1.24735e-66
2.35145e-70
4.4674e-74
8.45824e-78
1.62972e-81
3.1272e-85
5.96558e-89
1.1607e-92
2.22854e-96
4.16167e-100
7.95123e-104
1.47223e-107
2.78061e-111
5.20668e-115
9.75785e-119
1.85056e-122
3.48678e-126
6.68877e-130
1.27443e-133
2.48201e-137
4.77252e-141
9.39715e-145
1.81371e-148
3.57685e-152
6.90107e-156
1.35642e-159
2.61507e-163
4.72775e-167
4.80831e-173
4.33033e-179
3.63531e-185
2.82813e-191
2.15868e-197
1.62981e-203
1.31491e-209
1.17258e-215
1.24438e-221
1.53072e-227
2.15217e-233
3.30113e-239
5.56466e-245
1.04188e-250
2.08619e-256
4.34217e-262
7.87131e-268
1.2574e-273
1.77924e-279
2.39399e-285
3.08009e-291
3.99133e-297
5.16908e-303
6.88715e-309
9.27985e-315
1.24603e-320
0
0
0
0
0
0
0
0
0
0
0
0
0
0
0
0
0
0
0
0
0
0
0
0
0
0
0
0
0
0
0
0
0
0
0
0
0
0
0
0
0
0
0
0
0
0
0
0
0
0
0
0
0
0
0
0
0
0
0
0
0
0
0
0
0
0
0
0
0
0
0
0
0
0
0
0
0
0
0
0
0
0
0
0
0
0
0
0
0
0
0
0
0
0
0
0
0
0
0
0
0
0
0
0
0
0
0
0
0
0
0
0
0
0
0
0
0
0
0
0
0
0
0
0
0
0
0
0
0
0
0
0
0
0
0
0
0
0
0
0
0
0
0
0
0
0
0
0
0
0
0
0
0
0
0
0
0
0
0
0
0
0
0
0
0
0
0
0
0
0
0
0
0
0
0
0
0
0
0
0
0
0
0
0
0
0
0
0
0
0
0
0
0
0
0
0
0
0
0
0
0
0
0
0
0
0
0
0
0
0
1
1
1
1
1
1
1
1
1
1
1
1
1
1
1
1
1
1
1
1
1
1
1
1
1
1
1
1
1
1
1
1
1
1
1
1
1
1
1
1
1
1
1
1
1
1
1
1
1
1
1
1
1
1
1
1
1
1
1
1
1
1
1
1
1
1
1
1
1
1
1
1
1
1
1
1
1
1
1
1
1
1
1
1
1
1
1
1
1
1
1
1
1
1
1
1
1
1
1
1
1
1
1
1
1
1
1
1
1
1
1
1
1
1
1
1
1
0.584747
0.143917
0.0168017
2.62105e-05
2.53682e-08
1.63916e-11
6.51181e-15
1.68533e-18
2.69057e-22
2.78495e-26
1.99397e-30
1.20438e-34
8.07189e-39
7.12686e-43
8.34392e-47
1.20748e-50
1.99781e-54
3.54828e-58
6.49436e-62
1.20953e-65
2.25549e-69
4.18256e-73
7.80039e-77
1.45798e-80
2.70169e-84
5.04407e-88
9.44745e-92
1.74631e-95
3.19882e-99
5.88466e-103
1.05329e-106
1.9178e-110
3.45106e-114
6.25968e-118
1.14076e-121
2.08922e-125
3.88554e-129
7.25124e-133
1.38219e-136
2.6225e-140
5.10724e-144
9.83443e-148
1.94769e-151
3.8139e-155
7.70701e-159
1.55463e-162
3.22983e-166
4.2499e-172
5.45258e-178
6.87296e-184
8.19063e-190
9.52111e-196
1.05903e-201
1.17859e-207
1.3062e-213
1.53585e-219
1.9532e-225
2.88091e-231
4.90758e-237
9.75738e-243
2.00931e-248
3.86878e-254
6.59654e-260
1.02538e-265
1.46016e-271
1.97148e-277
2.55047e-283
3.26028e-289
4.15313e-295
5.38587e-301
7.11062e-307
9.63971e-313
1.33222e-318
0
0
0
0
0
0
0
0
0
0
0
0
0
0
0
0
0
0
0
0
0
0
0
0
0
0
0
0
0
0
0
0
0
0
0
0
0
0
0
0
0
0
0
0
0
0
0
0
0
0
0
0
0
0
0
0
0
0
0
0
0
0
0
0
0
0
0
0
0
0
0
0
0
0
0
0
0
0
0
0
0
0
0
0
0
0
0
0
0
0
0
0
0
0
0
0
0
0
0
0
0
0
0
0
0
0
0
0
0
0
0
0
0
0
0
0
0
0
0
0
0
0
0
0
0
0
0
0
0
0
0
0
0
0
0
0
0
0
0
0
0
0
0
0
0
0
0
0
0
0
0
0
0
0
0
0
0
0
0
0
0
0
0
0
0
0
0
0
0
0
0
0
0
0
0
0
0
0
0
0
0
0
0
0
0
0
0
0
0
0
0
0
0
0
0
0
0
0
0
0
0
0
0
0
0
0
0
0
0
0
1
1
1
1
1
1
1
1
1
1
1
1
1
1
1
1
1
1
1
1
1
1
1
1
1
1
1
1
1
1
1
1
1
1
1
1
1
1
1
1
1
1
1
1
1
1
1
1
1
1
1
1
1
1
1
1
1
1
1
1
1
1
1
1
1
1
1
1
1
1
1
1
1
1
1
1
1
1
1
1
1
1
1
1
1
1
1
1
1
1
1
1
1
1
1
1
1
1
1
1
1
1
1
1
1
1
1
1
1
1
1
1
1
1
1
1
1
1
0.280533
0.0380569
1.79826e-05
5.31364e-09
1.19157e-12
1.97999e-16
2.83992e-20
3.55323e-24
4.42048e-28
5.96842e-32
8.88651e-36
1.39648e-39
2.20914e-43
3.46132e-47
5.40397e-51
8.44768e-55
1.34629e-58
2.17202e-62
3.56298e-66
5.96083e-70
1.018e-73
1.76858e-77
3.17017e-81
5.71459e-85
1.06421e-88
1.95173e-92
3.6845e-96
6.77926e-100
1.26397e-103
2.38769e-107
4.48812e-111
8.72352e-115
1.70371e-118
3.44588e-122
7.05122e-126
1.49303e-129
3.19603e-133
7.07742e-137
1.5772e-140
3.65081e-144
8.50581e-148
2.08024e-151
5.17708e-155
1.37191e-158
3.7536e-162
1.09209e-165
1.71094e-171
2.62674e-177
3.93673e-183
5.47654e-189
7.23392e-195
8.81291e-201
1.02449e-206
1.1132e-212
1.17595e-218
1.19393e-224
1.22236e-230
1.26492e-236
1.3919e-242
1.61925e-248
2.02566e-254
2.62935e-260
3.52253e-266
4.72004e-272
6.344e-278
8.41218e-284
1.11103e-289
1.4498e-295
1.89082e-301
2.45617e-307
3.2155e-313
4.23819e-319
0
0
0
0
0
0
0
0
0
0
0
0
0
0
0
0
0
0
0
0
0
0
0
0
0
0
0
0
0
0
0
0
0
0
0
0
0
0
0
0
0
0
0
0
0
0
0
0
0
0
0
0
0
0
0
0
0
0
0
0
0
0
0
0
0
0
0
0
0
0
0
0
0
0
0
0
0
0
0
0
0
0
0
0
0
0
0
0
0
0
0
0
0
0
0
0
0
0
0
0
0
0
0
0
0
0
0
0
0
0
0
0
0
0
0
0
0
0
0
0
0
0
0
0
0
0
0
0
0
0
0
0
0
0
0
0
0
0
0
0
0
0
0
0
0
0
0
0
0
0
0
0
0
0
0
0
0
0
0
0
0
0
0
0
0
0
0
0
0
0
0
0
0
0
0
0
0
0
0
0
0
0
0
0
0
0
0
0
0
0
0
0
0
0
0
0
0
0
0
0
0
0
0
0
0
0
0
0
0
0
1
1
1
1
1
1
1
1
0.355456
0.0389901
0.000343229
1.01124e-05
3.14322e-07
9.32711e-09
0.000150911
0.00193509
0.0180596
0.0688236
0.162752
0.35775
1
1
1
1
1
1
1
1
1
1
0.302093
0.218953
0.164317
0.0994999
0.0627956
0.0216653
0.00348305
0.000635278
0.000147893
1.93013e-05
1.05512e-06
2.31816e-08
3.30066e-10
3.97304e-12
0.000200179
0.00998113
0.0775101
0.273392
1
1
1
1
1
1
1
1
1
0.43602
0.190632
0.136393
0.10524
0.0854238
0.0740731
0.0584104
0.0359666
0.00789934
0.000844756
0.000230555
2.26743e-05
1.29783e-07
4.42815e-10
1.51653e-12
5.07366e-15
1.70109e-17
4.43264e-17
1.53839e-13
6.77909e-10
2.32716e-06
0.00438465
0.0501737
0.149238
0.2721
0.298955
0.308679
0.224312
0.190195
0.105479
0.0619776
0.0376685
0.0078584
0.0034765
0.000981059
3.9198e-05
1.92742e-06
8.7131e-08
1.46182e-09
1.85883e-11
2.80368e-14
6.25458e-17
9.04018e-20
1.40831e-22
2.26994e-25
3.53885e-28
5.29753e-31
5.50678e-39
4.49482e-38
7.47209e-38
1.93024e-38
2.4285e-40
2.24449e-43
1.5762e-46
2.07656e-49
1.80428e-52
1.20478e-55
1.25424e-58
1.35681e-61
1.6507e-64
6.93047e-68
1.87586e-71
1.6384e-75
1.58222e-79
1.71334e-83
2.08191e-87
2.82448e-91
4.19089e-95
6.59304e-99
1.0902e-102
1.83155e-106
3.09939e-110
5.28784e-114