/*--------------------------------*- C++ -*----------------------------------*\
| =========                 |                                                 |
| \\      /  F ield         | OpenFOAM: The Open Source CFD Toolbox           |
|  \\    /   O peration     | Version:  2.1.1                                 |
|   \\  /    A nd           | Web:      www.OpenFOAM.org                      |
|    \\/     M anipulation  |                                                 |
\*---------------------------------------------------------------------------*/
FoamFile
{
    version     2.0;
    format      ascii;
    class       volScalarField;
    location    "0.002400000";
    object      cSound;
}
// * * * * * * * * * * * * * * * * * * * * * * * * * * * * * * * * * * * * * //

dimensions      [0 1 -1 0 0 0 0];

internalField   nonuniform List<scalar> 
12384
(
1042.53
1042.22
1035.41
1030.29
1033.61
1033.62
1024.01
1001.62
725.832
493.405
465.156
468.174
476.833
481.054
440.206
445.789
463.916
507.673
556.081
675.939
910.993
912.208
912.591
912.588
910.265
905.625
901.129
903.629
910.843
893.621
673.16
619.275
584.861
536.985
497.162
454.455
438.039
436.586
440.545
446.268
452.906
454.972
454.519
454.499
446.401
462.148
546.324
702.51
977.507
975.344
977.611
989.084
993.87
1000.65
1001.65
1020.33
1011.51
1032.98
684.433
618.501
582.474
558.018
541.82
519.145
495.327
454.662
438.171
437.39
442.129
451.066
463.697
472.592
473.894
470.943
496.288
483.174
485.245
491.533
503.577
572.167
676.409
696.998
759.718
781.965
775.648
711.481
643.41
561.901
537.621
502.228
496.673
489.729
483.433
473.995
460.97
458.629
455.034
459.566
465.711
472.936
478.119
480.794
481.527
482.247
425.52
422.86
420.481
416.368
412.73
410.261
409.84
413.58
413.786
417.896
419.743
422.967
425.382
427.899
431.309
434.663
439.023
443.015
447.673
451.389
454.398
455.925
455.263
454.978
454.72
452.838
453.767
453.319
452.909
452.311
419.841
418.908
419.074
419.146
419.572
419.994
420.078
419.957
420.665
419.944
420.105
419.888
419.15
419.143
417.897
417.635
417.361
415.764
415.592
415.339
414.069
414.327
413.114
413.258
412.287
412.56
411.645
411.996
411.44
411.681
406.564
406.459
406.42
406.361
406.322
406.24
406.219
406.096
406.081
405.954
405.949
405.809
405.827
405.658
405.705
405.541
405.592
405.455
405.504
405.383
405.426
405.319
405.362
405.281
405.277
405.279
405.235
405.253
405.224
405.328
405.145
405.053
405.046
405.043
405.04
405.036
405.03
405.027
405.022
405.02
405.014
405.012
405.003
404.999
404.993
404.994
404.996
404.999
405.006
405.007
405.01
405.011
405.014
405.016
405.018
405.021
405.023
405.026
405.031
405.124
405.124
405.031
405.026
405.022
405.021
405.017
405.016
405.013
405.011
405.008
405.006
405.003
404.997
404.992
404.989
404.989
404.992
404.996
405.002
405.005
405.007
405.009
405.013
405.015
405.018
405.021
405.022
405.025
405.03
405.124
405.124
405.032
405.025
405.022
405.02
405.017
405.014
405.012
405.009
405.007
405.005
405.003
404.997
404.993
404.989
404.988
404.991
404.996
405.003
405.006
405.008
405.012
405.015
405.016
405.019
405.022
405.024
405.025
405.031
405.124
405.124
405.031
405.025
405.022
405.021
405.017
405.015
405.012
405.011
405.007
405.006
405.002
404.998
404.992
404.989
404.988
404.991
404.996
405.002
405.005
405.007
405.009
405.013
405.015
405.018
405.021
405.022
405.025
405.03
405.124
405.124
405.03
405.025
405.022
405.022
405.018
405.016
405.013
405.01
405.007
405.005
405.001
404.997
404.991
404.988
404.988
404.992
404.996
405.002
405.006
405.007
405.01
405.012
405.015
405.017
405.02
405.021
405.024
405.029
405.124
405.123
405.029
405.024
405.02
405.02
405.015
405.015
405.011
405.011
405.007
405.006
405.002
404.998
404.992
404.99
404.988
404.992
404.995
405.001
405.003
405.007
405.009
405.013
405.014
405.018
405.02
405.022
405.024
405.03
405.124
1036.47
1006.39
955.254
920.053
909.661
921.616
909.838
898.055
593.948
490.925
460.438
454.546
461.291
473.329
445.942
482.184
629.866
910.013
921.117
918.038
914.59
918.551
917.758
919.235
916.856
912.388
909.278
904.884
899.952
910.924
902.647
901.803
904.551
893.387
885.723
689.794
504.287
449.112
435.777
434.83
441.696
451.277
454.244
455.834
454.816
563.13
963.89
970.659
970.898
975.309
982.394
992.878
1001.16
1005.08
1012.85
1017.12
1029.63
1016.07
1033.61
1025.78
1025.39
1020.4
1025.42
1023.28
1017.68
711.185
534.594
478.382
447.343
437.33
444.07
456.721
468.683
472.642
488.152
482.509
485.476
491.643
565.966
817.483
1062.11
1068.76
1073.63
1078.18
1084.96
1094.22
1093.95
1072.09
1058.23
755.353
665.37
613.427
543.527
516.026
498.56
476.129
454.893
443.242
441.043
445.655
457.412
471.671
480.682
482.161
414.744
406.702
401.44
399.468
399.962
405.637
406.306
418.22
417.47
430.571
430.396
433.512
429.873
424.819
419.478
416.476
415.73
416.757
417.929
420.146
422.416
425.119
429.385
432.615
440.657
445.775
449.355
451.203
451.252
451.691
393.253
391.643
391.923
392.137
392.884
393.406
394.779
396.745
397.326
399.459
400.674
402.288
403.486
404.316
406.038
405.457
407.277
407.064
407.416
408.13
407.865
408.556
408.156
408.719
408.286
408.672
408.186
408.465
408.022
410.049
401.519
400.148
399.957
400.377
400.406
400.769
400.761
400.982
400.995
401.079
401.083
401.094
401.039
400.971
400.906
400.873
400.893
400.946
401.044
401.066
401.125
401.145
401.153
401.194
401.174
401.215
401.19
401.196
401.239
403.658
403.423
400.944
400.823
400.796
400.741
400.716
400.653
400.625
400.567
400.54
400.479
400.448
400.357
400.291
400.227
400.237
400.273
400.367
400.427
400.492
400.52
400.585
400.608
400.671
400.7
400.757
400.784
400.828
400.961
403.358
403.363
400.976
400.832
400.808
400.752
400.729
400.668
400.645
400.585
400.56
400.497
400.46
400.364
400.29
400.225
400.237
400.273
400.364
400.423
400.489
400.518
400.584
400.608
400.672
400.701
400.758
400.786
400.829
400.962
403.357
403.353
400.96
400.824
400.77
400.747
400.688
400.662
400.602
400.581
400.522
400.498
400.437
400.385
400.292
400.252
400.223
400.272
400.346
400.455
400.519
400.561
400.626
400.654
400.714
400.735
400.789
400.802
400.848
400.949
403.438
403.352
400.968
400.824
400.799
400.745
400.722
400.661
400.637
400.578
400.554
400.492
400.458
400.367
400.296
400.228
400.234
400.267
400.358
400.421
400.488
400.518
400.585
400.611
400.675
400.704
400.762
400.789
400.828
400.963
403.358
403.445
400.941
400.818
400.804
400.75
400.726
400.66
400.632
400.567
400.538
400.472
400.439
400.351
400.286
400.23
400.229
400.282
400.352
400.443
400.477
400.542
400.568
400.63
400.655
400.719
400.739
400.794
400.817
400.937
403.443
403.363
400.964
400.814
400.789
400.729
400.708
400.643
400.624
400.564
400.547
400.484
400.457
400.373
400.307
400.235
400.234
400.266
400.354
400.419
400.484
400.514
400.581
400.606
400.671
400.699
400.759
400.788
400.828
400.963
403.361
1008.57
931.606
872.305
845.728
837.701
840.95
824.453
839.465
693.441
624.187
528.684
460.49
444.127
457.055
464.45
625.817
853.889
916.311
917.136
934.143
936.168
943.396
938.095
936.141
934.927
933.141
931.882
927.836
923.773
922.258
914.295
907.696
902.809
884.75
856.188
833.633
821.488
523.511
450.279
433.713
430.7
437.876
451.503
453.125
455.7
575.398
958.173
958.169
953.326
961.391
967.146
982.029
993.423
996.642
1000.09
1008.64
1011.36
1022.34
1012.52
1018.96
1027.28
1035.64
1042.59
1051.36
1059.39
1067.34
1053.94
1032.09
639.151
464.81
435.505
438.974
457.608
474.58
480.768
480.536
487.342
493.71
524.33
713.051
1051.25
1068.58
1067.37
1071.01
1073.4
1077.51
1096.91
1106.63
1089.5
1095.23
1085.34
1072.47
798.686
627.098
554.822
527.335
510.435
478.972
450.475
436.324
437.319
449.018
469.269
481.24
395.977
394.267
396.414
404.659
415.716
427.613
437.786
446.089
450.505
459.279
462.223
471.97
474.738
473.27
460.842
443.007
429.086
419.948
415.372
412.401
410.777
410.288
409.369
409.503
408.662
410.032
414.677
422.065
427.582
431.225
378.605
379.776
380.545
380.808
380.486
380.492
380.188
378.792
379.14
377.672
377.299
377.421
375.997
375.917
375.834
374.585
374.346
374.353
372.521
373.436
371.45
372.409
370.711
371.61
370.204
371.222
370.213
371.167
370.493
369.295
362.903
364.92
364.905
365.19
364.908
365.131
364.905
365.104
364.888
365.067
364.892
365.016
364.934
365.024
364.998
364.982
364.925
364.799
364.694
364.617
364.498
364.509
364.373
364.413
364.301
364.336
364.271
364.288
364.185
361.938
361.782
364.112
364.22
364.272
364.303
364.338
364.375
364.409
364.441
364.475
364.513
364.552
364.623
364.696
364.743
364.744
364.697
364.623
364.551
364.508
364.469
364.43
364.396
364.362
364.323
364.291
364.256
364.223
364.113
361.761
361.762
364.092
364.212
364.253
364.281
364.313
364.346
364.379
364.411
364.448
364.486
364.536
364.609
364.691
364.737
364.739
364.692
364.622
364.551
364.509
364.468
364.43
364.394
364.36
364.321
364.289
364.254
364.222
364.112
361.761
361.76
364.108
364.229
364.272
364.303
364.334
364.369
364.4
364.431
364.463
364.5
364.538
364.603
364.674
364.726
364.741
364.71
364.629
364.538
364.477
364.449
364.399
364.361
364.327
364.295
364.266
364.241
364.205
364.087
361.762
361.762
364.104
364.22
364.26
364.287
364.319
364.352
364.386
364.417
364.453
364.49
364.537
364.605
364.686
364.734
364.742
364.697
364.628
364.553
364.51
364.469
364.429
364.393
364.358
364.318
364.286
364.25
364.221
364.11
361.761
361.763
364.108
364.222
364.246
364.281
364.316
364.356
364.393
364.429
364.468
364.508
364.553
364.618
364.691
364.74
364.739
364.694
364.617
364.55
364.504
364.465
364.427
364.393
364.359
364.321
364.29
364.256
364.221
364.112
361.764
361.762
364.107
364.229
364.27
364.298
364.33
364.361
364.394
364.422
364.456
364.491
364.536
364.596
364.674
364.727
364.744
364.701
364.633
364.558
364.516
364.474
364.433
364.395
364.359
364.32
364.287
364.25
364.222
364.112
361.761
943.29
891.047
867.992
868.535
855.264
831.925
838.497
834.523
861.886
831.442
683.837
549.422
463.267
442.034
517.384
807.444
928.867
928.859
946.564
970.28
973.61
976.328
974.109
981.468
990.188
999.814
1003.26
997.383
985.836
977.698
974.219
980.354
988.565
977.286
952.346
916.383
845.548
772.221
710.591
465.922
427.955
428.387
443.697
456.539
452.77
563.857
961.46
954.119
945.451
938.004
942.473
952.993
963.681
967.754
968.065
975.39
984.581
977.604
978.833
984.73
1000.55
1035.5
1049.9
1060.19
1065.97
1064.69
1053.37
1047.6
1052.03
672.371
464.619
434.013
447.329
473.714
471.511
476.301
485.682
483.881
483.036
490.814
528.03
518.171
530.927
562.067
665.736
1015.24
1067.58
1116.13
1118.53
1106.47
1090.42
1087.95
1083.63
1080.43
824.459
605.5
540.093
527.811
498.179
459.591
439.541
438.234
452.799
473.485
391.874
395.129
408.645
422.787
435.157
437.538
435.221
433.63
432.549
442.628
447.25
464.03
478.07
491.286
497.66
492.183
472.249
451.289
435.831
426.688
421.616
417.627
415.645
413.251
411.157
409.325
407.939
406.982
408.873
409.283
386.225
392.927
395.044
394.452
392.565
390.175
387.345
385.966
383.139
382.562
379.741
379.321
378.072
376.699
376.17
375.608
374.057
374.585
372.346
373.389
371.125
372.13
370.19
371.033
369.453
370.104
368.927
369.378
368.603
368.543
364.866
364.85
364.994
364.643
364.764
364.462
364.537
364.276
364.347
364.104
364.177
363.954
364.028
363.828
363.897
363.726
363.776
363.636
363.666
363.567
363.548
363.532
363.47
363.485
363.424
363.443
363.402
363.409
363.376
362.971
362.839
363.233
363.263
363.26
363.265
363.263
363.265
363.265
363.266
363.267
363.265
363.27
363.269
363.277
363.274
363.278
363.271
363.269
363.261
363.261
363.255
363.256
363.25
363.251
363.245
363.247
363.24
363.24
363.208
362.811
362.81
363.209
363.237
363.244
363.243
363.248
363.246
363.252
363.251
363.255
363.255
363.26
363.262
363.27
363.269
363.272
363.267
363.265
363.258
363.259
363.253
363.254
363.249
363.251
363.244
363.246
363.24
363.239
363.208
362.811
362.811
363.208
363.241
363.24
363.247
363.245
363.251
363.249
363.254
363.253
363.258
363.257
363.264
363.265
363.272
363.27
363.271
363.262
363.26
363.254
363.252
363.253
363.247
363.249
363.243
363.245
363.24
363.24
363.209
362.802
362.811
363.209
363.237
363.244
363.243
363.248
363.247
363.252
363.251
363.256
363.255
363.26
363.262
363.269
363.269
363.273
363.267
363.266
363.258
363.259
363.254
363.254
363.249
363.25
363.244
363.246
363.24
363.239
363.208
362.811
362.801
363.21
363.238
363.243
363.242
363.248
363.247
363.252
363.251
363.257
363.255
363.261
363.262
363.269
363.269
363.269
363.269
363.262
363.261
363.255
363.256
363.251
363.252
363.247
363.248
363.243
363.243
363.237
363.21
362.802
362.81
363.209
363.237
363.244
363.243
363.248
363.247
363.252
363.251
363.256
363.254
363.26
363.26
363.268
363.268
363.272
363.266
363.265
363.258
363.258
363.254
363.255
363.249
363.251
363.245
363.246
363.24
363.24
363.208
362.81
904.975
911.015
954.611
973.465
949.808
937.068
991.196
1008.53
1006.25
968.374
880.458
767.164
565.557
444.701
551.978
890.98
965.973
971.768
1003.98
1022.69
1023.95
1034.88
1052.73
1071.07
1084.01
1087.65
1082.25
1070.75
1060.67
1057.9
1060.98
1067.06
1066.09
1060.68
1040.33
995.903
917.036
827.277
751.671
679.952
433.079
418.014
432.487
450.09
448.099
538.9
970.458
958.596
950.152
939.765
934.771
933.055
936.423
938.257
939.606
944.394
953.725
958.627
960.038
962.373
967.39
991.937
1042.59
1056.53
1061.59
1063.25
1072.39
1074.43
1059.29
1051.91
608.702
446.182
441.852
466.896
459.817
470.737
480.379
479.738
465.424
466.502
459.497
463.982
475.9
482.4
491.985
623.085
1036.41
1126.05
1136.89
1118.34
1097.32
1085.37
1090.91
1091.75
1091.68
1086.59
774.797
571.177
532.749
504.934
462.55
440.751
442.04
460.683
392.286
406.664
423.972
437.868
433.208
427.317
412.05
410.376
409.236
421.546
425.961
446.359
459.458
479.193
496.69
508.227
507.121
489.873
467.527
449.321
437.519
431.602
426.651
423.292
420.233
417.114
413.45
410.147
407.459
406.69
396.97
411.631
418.031
419.416
415.92
409.274
403.749
398.516
395.133
391.499
390.033
386.853
385.697
384.343
382.325
382.38
380.195
380.56
378.452
378.798
377.094
377.221
375.839
375.961
374.866
374.702
374.126
373.683
373.452
373.041
370.295
370.509
370.104
370.201
369.81
369.838
369.517
369.526
369.242
369.271
369.017
369.059
368.833
368.879
368.68
368.73
368.556
368.603
368.456
368.501
368.377
368.416
368.32
368.345
368.275
368.29
368.245
368.251
368.225
368.183
368.045
368.091
368.089
368.086
368.088
368.079
368.083
368.073
368.079
368.069
368.075
368.066
368.075
368.064
368.073
368.062
368.071
368.06
368.068
368.057
368.067
368.056
368.066
368.054
368.065
368.054
368.064
368.054
368.05
368.016
368.015
368.05
368.064
368.052
368.064
368.052
368.064
368.053
368.064
368.053
368.065
368.054
368.066
368.056
368.066
368.057
368.066
368.055
368.064
368.054
368.065
368.054
368.064
368.053
368.065
368.053
368.064
368.054
368.049
368.016
368.012
368.047
368.053
368.063
368.051
368.064
368.052
368.063
368.052
368.064
368.053
368.065
368.055
368.065
368.056
368.066
368.056
368.066
368.058
368.061
368.063
368.054
368.065
368.052
368.064
368.052
368.064
368.051
368.058
368.005
368.016
368.05
368.064
368.052
368.064
368.052
368.064
368.052
368.064
368.053
368.065
368.054
368.066
368.056
368.066
368.056
368.066
368.056
368.065
368.054
368.065
368.054
368.064
368.053
368.064
368.053
368.063
368.055
368.049
368.016
368.006
368.055
368.054
368.053
368.064
368.052
368.064
368.052
368.064
368.053
368.065
368.053
368.066
368.056
368.064
368.064
368.056
368.066
368.054
368.065
368.053
368.064
368.052
368.065
368.053
368.065
368.053
368.057
368.054
368.008
368.015
368.049
368.063
368.051
368.064
368.052
368.064
368.052
368.064
368.052
368.064
368.053
368.065
368.055
368.066
368.056
368.067
368.056
368.065
368.053
368.065
368.053
368.064
368.053
368.065
368.053
368.063
368.055
368.048
368.014
920.494
995.613
1045.6
1059.61
1054.98
1068.26
1085.2
1080.2
1026.92
956.517
911.606
851.889
761.717
470.047
615.518
943.09
1013.3
1037.19
1062.54
1070.3
1078.96
1093.7
1108.39
1120.18
1122.75
1116.81
1106.42
1096.77
1092.12
1091.87
1092.57
1091.04
1084.04
1072.83
1060.33
1041.9
983.087
891.798
799.977
759.746
444.26
426.512
429.334
449.812
445.841
529.845
975.075
972.632
961.203
957.059
945.066
939.105
931.657
927.045
927.475
940.783
961.913
986.881
1004.54
1003.96
990.841
983.954
997.975
1024.93
1030.95
1044.47
1072.37
1083.65
1075.31
1048.91
1024.89
517.455
443.027
463.676
450.332
464.384
478.655
477.391
471.785
457.908
459.889
459.793
471.189
484.17
530.509
762.643
1002.63
1120.4
1157.73
1132.2
1107.06
1106.87
1110.15
1107.02
1104.54
1091.39
1089.67
834.31
597.19
535.593
500.211
457.832
440.805
448.66
401.009
417.89
439.343
437.477
430.275
413.851
407.866
404.621
399.432
416.731
418.199
440.207
453.129
471.141
487.474
504.435
516.029
516.456
502.346
481.01
463.044
449.771
442.282
436.751
432.219
427.506
422.563
416.792
411.813
407.617
409.954
424.092
430.762
437.244
440.615
436.022
425.694
416.728
409.457
405.326
400.49
399.1
394.672
394.476
391.043
390.815
388.421
388.273
385.959
386.366
383.76
384.674
382.099
382.951
380.772
381.352
379.662
379.942
378.78
378.456
377.966
377.575
377.616
376.76
376.777
376.147
376.143
375.664
375.666
375.294
375.305
375.014
375.022
374.798
374.78
374.637
374.584
374.51
374.43
374.409
374.314
374.319
374.232
374.243
374.182
374.171
374.146
374.12
374.097
373.703
373.62
373.97
374
373.982
373.99
373.974
373.98
373.968
373.972
373.964
373.968
373.961
373.965
373.96
373.961
373.958
373.959
373.955
373.956
373.952
373.955
373.951
373.954
373.95
373.954
373.95
373.952
373.947
373.92
373.538
373.537
373.922
373.951
373.948
373.952
373.947
373.951
373.948
373.951
373.948
373.952
373.949
373.953
373.95
373.954
373.95
373.953
373.949
373.952
373.948
373.952
373.948
373.953
373.948
373.953
373.948
373.952
373.946
373.92
373.537
373.534
373.917
373.947
373.952
373.948
373.952
373.947
373.951
373.947
373.951
373.948
373.952
373.949
373.953
373.949
373.953
373.95
373.954
373.951
373.95
373.951
373.948
373.952
373.947
373.951
373.947
373.951
373.946
373.924
373.539
373.536
373.922
373.952
373.948
373.952
373.947
373.951
373.948
373.952
373.948
373.951
373.948
373.953
373.95
373.954
373.95
373.953
373.949
373.952
373.948
373.952
373.948
373.953
373.948
373.952
373.948
373.951
373.947
373.92
373.537
373.54
373.922
373.944
373.947
373.95
373.947
373.952
373.948
373.952
373.948
373.952
373.948
373.953
373.95
373.952
373.952
373.951
373.954
373.949
373.953
373.948
373.952
373.948
373.952
373.948
373.952
373.948
373.945
373.922
373.54
373.535
373.922
373.95
373.948
373.952
373.947
373.952
373.947
373.951
373.947
373.952
373.949
373.954
373.951
373.955
373.951
373.955
373.951
373.954
373.949
373.952
373.949
373.953
373.949
373.953
373.947
373.951
373.946
373.919
373.536
1003.49
1063.44
1087.47
1098.46
1112.28
1127.21
1125.23
1097.95
987.011
880.559
841.29
830.786
792.445
521.194
717.368
992.681
1062.18
1081.49
1093.18
1101.81
1115.61
1130.55
1142.5
1147.42
1144.73
1136.66
1126.27
1118.56
1114.7
1113.19
1111.32
1104.22
1087.37
1064.74
1041.15
1034.54
1021.03
947.049
861.644
801.93
474.499
461.527
429.597
444.838
449.487
535.094
978.613
985.967
987.766
985.21
991.437
980.837
951.687
926.346
929.359
967.611
1029.71
1081.05
1096.65
1098.43
1087.48
1054.45
1015.44
996.643
983.658
991.668
1041.03
1076.28
1084.59
1075.09
1049.62
687.772
463.332
458.369
438.105
459.812
476.809
482.829
479.738
470.782
473.462
488.28
528.67
647.13
708.218
973.398
1007.83
1096.31
1171.46
1157.47
1142.71
1139.77
1138.69
1137.02
1126.41
1110.93
1101.28
1096.84
826.352
597.572
534.478
494.608
455.422
442.281
406.894
432.33
442.229
444.829
427.947
419.705
405.362
406.307
401.065
419.192
419.094
447.682
456.864
475.545
487.931
502.266
515.017
523.548
523.244
512.07
492.818
475.697
462.784
454.49
448.221
442.484
436.13
429.084
420.037
413.771
417.41
417.971
423.749
434.993
449.315
456.161
450.479
438.311
428.089
421.058
416.16
412.37
409.096
406.387
404.089
402.69
400.21
400.137
397.347
397.831
395.151
395.603
393.506
393.437
392.128
391.568
390.611
389.711
388.887
387.713
389.799
389.482
388.348
388.131
387.309
387.209
386.592
386.568
386.071
386.106
385.698
385.763
385.415
385.488
385.187
385.264
385.015
385.084
384.887
384.939
384.787
384.825
384.705
384.724
384.655
384.632
384.617
384.571
384.57
384.651
384.586
384.46
384.437
384.44
384.43
384.423
384.415
384.409
384.406
384.4
384.399
384.394
384.395
384.39
384.391
384.387
384.389
384.384
384.387
384.381
384.387
384.381
384.386
384.38
384.387
384.381
384.385
384.379
384.381
384.496
384.495
384.383
384.384
384.38
384.385
384.378
384.383
384.377
384.383
384.377
384.383
384.378
384.382
384.378
384.382
384.379
384.382
384.378
384.382
384.378
384.383
384.378
384.384
384.379
384.385
384.38
384.384
384.378
384.38
384.496
384.49
384.376
384.38
384.385
384.38
384.384
384.378
384.383
384.378
384.382
384.377
384.382
384.378
384.382
384.378
384.382
384.378
384.383
384.38
384.378
384.381
384.379
384.384
384.378
384.384
384.379
384.384
384.377
384.385
384.502
384.494
384.382
384.384
384.38
384.385
384.378
384.383
384.377
384.383
384.377
384.382
384.378
384.382
384.378
384.382
384.378
384.382
384.378
384.382
384.378
384.384
384.379
384.384
384.379
384.385
384.38
384.382
384.379
384.381
384.496
384.503
384.382
384.376
384.378
384.384
384.379
384.384
384.378
384.384
384.378
384.383
384.377
384.383
384.378
384.38
384.379
384.379
384.382
384.377
384.383
384.377
384.384
384.378
384.384
384.379
384.385
384.38
384.376
384.381
384.503
384.493
384.382
384.384
384.38
384.385
384.378
384.384
384.377
384.384
384.377
384.382
384.376
384.382
384.378
384.382
384.378
384.381
384.377
384.382
384.377
384.382
384.377
384.383
384.378
384.384
384.378
384.381
384.377
384.378
384.491
1069.98
1099.58
1112.59
1123.91
1142.52
1157.16
1150.02
1108.63
946.572
849.295
833.642
841.699
822.77
806.978
830.787
1034.24
1085.63
1096.87
1108.21
1121.15
1135.56
1148.48
1156.22
1159.42
1158.38
1152.28
1144.53
1138.1
1134.81
1133.95
1127.71
1106.45
1076.1
1009.41
970.876
988.137
1003.17
962.408
875.779
815.848
778.351
654.162
441.914
442.346
450.318
541.095
975.987
1008.19
1009.09
1030.45
1040.72
1033.67
976.559
927.144
941.652
1012.38
1092.7
1118.63
1132.34
1139.14
1136.29
1121.03
1092.84
1057.95
1016.63
995.162
998.89
1052.22
1080.99
1087.98
1076.28
1055.2
560.136
463.904
435.72
451.674
475.487
486.347
484.555
485.21
518.362
644.892
735.205
990.165
973.391
974.695
1018.04
1098.16
1177.8
1183.38
1176.97
1177.79
1177.17
1169
1154.41
1137.66
1127.55
1111.18
1105.98
789.874
582.383
532.085
486.267
448.29
424.444
431.507
445.384
439.112
438.27
429.572
417.396
413.712
402.671
428.783
429.891
461.665
470.385
486.367
495.844
506.397
515.451
523.662
529.313
527.857
518.879
503.265
487.746
475.858
467.088
459.77
451.879
442.293
430.033
416.621
404.256
407.463
410.769
429.407
446.775
464.239
467.55
459.182
447.162
439.262
432.31
429.393
423.58
422.458
417.3
417.306
412.927
413.426
409.65
410.272
406.957
407.539
404.611
405.188
402.331
402.918
400.207
400.344
397.766
397.213
403.1
402.167
401.12
399.538
398.979
398.125
397.744
397.202
396.916
396.592
396.316
396.149
395.928
395.806
395.605
395.549
395.368
395.345
395.193
395.186
395.053
395.062
394.942
394.956
394.856
394.867
394.781
394.776
394.709
394.828
394.858
394.665
394.664
394.641
394.647
394.63
394.632
394.62
394.621
394.613
394.615
394.608
394.61
394.605
394.606
394.602
394.602
394.6
394.599
394.598
394.597
394.595
394.597
394.595
394.594
394.589
394.586
394.576
394.576
394.708
394.708
394.578
394.578
394.583
394.589
394.59
394.593
394.591
394.593
394.592
394.594
394.593
394.594
394.593
394.594
394.593
394.594
394.593
394.594
394.593
394.594
394.592
394.594
394.592
394.593
394.587
394.584
394.575
394.576
394.708
394.703
394.572
394.576
394.585
394.588
394.591
394.591
394.593
394.591
394.593
394.592
394.594
394.593
394.593
394.593
394.594
394.593
394.596
394.595
394.593
394.593
394.593
394.595
394.592
394.592
394.587
394.584
394.575
394.577
394.714
394.706
394.577
394.578
394.584
394.589
394.589
394.593
394.591
394.593
394.592
394.594
394.593
394.594
394.593
394.594
394.593
394.594
394.593
394.594
394.593
394.594
394.593
394.595
394.593
394.593
394.587
394.583
394.575
394.576
394.708
394.714
394.576
394.574
394.581
394.588
394.589
394.593
394.592
394.594
394.592
394.594
394.593
394.594
394.593
394.593
394.593
394.593
394.594
394.593
394.594
394.592
394.594
394.592
394.594
394.59
394.59
394.584
394.573
394.575
394.714
394.708
394.577
394.578
394.583
394.589
394.59
394.593
394.592
394.594
394.592
394.593
394.593
394.595
394.594
394.595
394.594
394.594
394.593
394.594
394.593
394.594
394.593
394.594
394.592
394.591
394.585
394.577
394.56
394.537
394.668
1115.93
1130.88
1136.02
1148.03
1170.02
1183.96
1166.77
1107.61
937.605
868.049
893.931
948.568
958.306
943.58
929.631
901.797
936.745
1072.56
1089.31
1096.59
1106.81
1120.87
1134.54
1145.44
1155.73
1163.07
1166.37
1164.33
1158.4
1154.48
1155.19
1152.47
1130.54
1090.02
1007.95
919.353
903.571
934.807
965.153
936.381
875.981
848.018
842.236
835.096
447.854
439.349
438.03
448.958
455.794
499.818
693.095
1030.18
1026.09
1036.99
1051.09
1048.14
989.149
926.812
941.758
1020.31
1087.01
1102.97
1113.23
1121.85
1137.32
1145.91
1141.64
1120.09
1093.19
1061.34
1013.47
1011.36
1061.48
1088.09
1087.93
1068.02
939.158
540.733
455.116
447.405
435.373
449.325
467.526
476.689
484.858
519.329
681.422
948.145
951.306
980.712
975.531
992.561
1036.44
1100.3
1173.42
1194.63
1195.28
1194.57
1193.46
1189.78
1181.85
1172.14
1155.87
1137.97
1115.12
1108.87
727.91
570.446
520.286
462.185
418.531
416.846
421.718
435.927
436.569
444.415
438.004
436.855
434.698
439.029
432.426
454.569
460.021
480.755
490.116
501.371
506.913
514.195
519.765
525.912
530.056
532.93
530.852
523.535
511.805
499.196
488.6
479.942
470.864
460.954
446.484
421.533
399.863
395.058
402.56
406.373
420.801
433.37
452.756
469.131
477.896
474.551
465.435
457.152
450.966
446.67
441.763
439.254
435.036
433.676
430.341
429.552
426.8
426.423
423.812
423.855
421.211
421.528
418.9
419.117
416.366
415.9
412.621
411.027
413.259
416.227
417.579
419.53
416.644
416.492
414.611
414.756
413.501
413.65
412.775
412.863
412.289
412.292
411.917
411.906
411.606
411.625
411.363
411.408
411.183
411.231
411.048
411.078
410.939
410.955
410.841
410.845
410.752
410.738
410.697
411.303
411.909
411.949
411.372
410.729
410.609
410.615
410.582
410.585
410.567
410.564
410.555
410.548
410.544
410.541
410.539
410.535
410.535
410.531
410.532
410.527
410.528
410.523
410.524
410.521
410.522
410.518
410.517
410.511
410.507
410.505
410.56
411.221
411.833
411.833
411.222
410.562
410.508
410.505
410.51
410.512
410.517
410.516
410.518
410.517
410.519
410.519
410.521
410.52
410.521
410.52
410.521
410.52
410.52
410.518
410.519
410.518
410.519
410.516
410.515
410.509
410.506
410.504
410.559
411.221
411.833
411.833
411.217
410.555
410.506
410.507
410.509
410.514
410.515
410.518
410.517
410.518
410.518
410.52
410.52
410.521
410.52
410.522
410.52
410.522
410.521
410.518
410.517
410.519
410.519
410.516
410.514
410.508
410.506
410.505
410.562
411.225
411.833
411.833
411.22
410.561
410.508
410.505
410.51
410.511
410.517
410.516
410.518
410.516
410.519
410.519
410.521
410.52
410.521
410.52
410.521
410.52
410.52
410.518
410.519
410.518
410.52
410.517
410.515
410.509
410.504
410.505
410.559
411.221
411.833
411.833
411.225
410.559
410.503
410.503
410.509
410.512
410.517
410.517
410.518
410.518
410.52
410.519
410.521
410.52
410.519
410.52
410.52
410.521
410.519
410.519
410.517
410.518
410.517
410.517
410.512
410.51
410.506
410.503
410.558
411.225
411.832
411.833
411.221
410.562
410.508
410.504
410.51
410.512
410.518
410.516
410.518
410.516
410.517
410.516
410.518
410.519
410.52
410.52
410.521
410.52
410.52
410.518
410.519
410.516
410.517
410.512
410.512
410.506
410.501
410.502
410.558
411.217
411.794
411.299
1153.31
1157.34
1159.69
1173.19
1193.18
1200.07
1175.1
1113.09
970.927
913.798
950.628
997.144
1004.85
997.419
988.579
1000.61
1050.25
1078.54
1075.51
1072.18
1082.73
1099.53
1115.24
1132.16
1148.37
1164.32
1172.74
1171.84
1168.93
1167.64
1168.82
1156.52
1115.96
1049.07
912.762
860.228
860.784
889.69
911.135
898.166
872.662
862.032
861.188
876.109
472.271
470.666
468.552
465.722
466.425
478.427
512.059
619.416
660.264
1046.43
1051.43
1048.16
979.774
931.589
939.926
977.431
1012.24
1031.02
1046.87
1059.42
1080.01
1106.06
1138.15
1149.75
1139.9
1111.92
1075.86
1016.28
1023.11
1071.63
1090.35
1086.06
1049.88
705.38
536.882
498.568
483.591
481.841
488.463
499.533
527.917
611.627
915.987
1008.61
1026.55
1027.78
1040.43
1061.44
1083.32
1105.37
1156.37
1187.48
1196
1197.34
1195.55
1192.67
1190.96
1189.25
1182.81
1164.4
1138.34
1114.87
955.758
667.899
563.732
509.297
468.118
461.736
454.649
457.327
473.117
470.668
478.038
471.825
472.196
467.671
475.598
484.573
493.151
501.235
513.226
515.48
519.59
521.298
525.642
528.649
532.313
533.957
534.544
532.166
527.038
518.863
509.462
500.045
491.603
481.254
468.705
446.533
427.294
423.885
417.779
425.732
436.598
452.713
465.98
479.466
485.96
486.254
480.469
474.556
468.017
464.698
458.633
457.172
451.263
450.983
446.095
446.312
442.193
442.643
438.934
439.541
436.051
436.689
433.442
433.937
430.817
431.376
427.91
428.019
427.041
430.4
431.156
433.393
430.865
430.853
429.065
429.101
427.903
427.892
427.047
427.083
426.389
426.508
425.909
426.066
425.558
425.721
425.301
425.444
425.105
425.225
424.955
425.053
424.836
424.909
424.736
424.78
424.642
424.684
424.574
424.676
425.237
425.299
424.664
424.601
424.531
424.536
424.505
424.506
424.492
424.493
424.478
424.482
424.47
424.475
424.468
424.47
424.464
424.466
424.462
424.462
424.457
424.456
424.453
424.452
424.45
424.448
424.443
424.438
424.435
424.435
424.445
424.524
425.172
425.171
424.523
424.446
424.436
424.434
424.436
424.44
424.445
424.446
424.448
424.449
424.45
424.451
424.452
424.453
424.453
424.453
424.453
424.452
424.451
424.45
424.449
424.448
424.447
424.445
424.441
424.436
424.434
424.434
424.444
424.523
425.171
425.171
424.522
424.441
424.436
424.435
424.436
424.44
424.445
424.447
424.447
424.448
424.45
424.451
424.452
424.453
424.453
424.453
424.452
424.453
424.453
424.449
424.448
424.449
424.448
424.445