/*--------------------------------*- C++ -*----------------------------------*\
| =========                 |                                                 |
| \\      /  F ield         | OpenFOAM: The Open Source CFD Toolbox           |
|  \\    /   O peration     | Version:  2.1.1                                 |
|   \\  /    A nd           | Web:      www.OpenFOAM.org                      |
|    \\/     M anipulation  |                                                 |
\*---------------------------------------------------------------------------*/
FoamFile
{
    version     2.0;
    format      ascii;
    class       volScalarField;
    location    "0.002400000";
    object      H2O;
}
// * * * * * * * * * * * * * * * * * * * * * * * * * * * * * * * * * * * * * //

dimensions      [0 0 0 0 0 0 0];

internalField   nonuniform List<scalar> 
12384
(
0.221728
0.223188
0.22246
0.218482
0.22008
0.218482
0.214987
0.213577
0.0644791
0.00493487
5.02582e-05
1.44654e-06
5.50332e-08
1.76753e-09
1.39663e-05
0.000208219
0.00311978
0.0124298
0.0232905
0.0566388
0.170961
0.170582
0.170657
0.170472
0.169334
0.167736
0.166854
0.165239
0.164686
0.164348
0.0532648
0.0366125
0.0274519
0.0173281
0.00966733
0.00288051
0.000393485
9.4273e-05
2.45951e-05
2.59239e-06
1.61899e-07
3.57976e-09
4.97111e-11
6.52422e-13
3.83183e-05
0.00220894
0.0182642
0.0628511
0.215032
0.213331
0.216488
0.221294
0.225842
0.22857
0.230276
0.231454
0.231407
0.23262
0.0542425
0.0332823
0.0259693
0.0205008
0.0172749
0.0128824
0.00826
0.00192411
0.000197557
3.7267e-05
3.10739e-06
1.49579e-08
6.02447e-11
2.36977e-13
8.23065e-16
2.79003e-18
1.11899e-17
3.22603e-14
1.39998e-10
5.34132e-07
0.00111027
0.0130784
0.0468431
0.0527628
0.0728523
0.0800985
0.0775559
0.0535554
0.0333112
0.0145637
0.00846077
0.00184298
0.00076421
0.000176297
8.25196e-06
4.11279e-07
1.59157e-08
3.04786e-10
3.84328e-12
8.40466e-15
1.5326e-17
2.47339e-20
4.25907e-23
7.13572e-26
1.12896e-28
1.71126e-31
7.2561e-40
4.15836e-39
8.30692e-39
1.98606e-39
2.03588e-41
3.98573e-44
2.37749e-47
3.14211e-50
2.48165e-53
2.36115e-56
1.13046e-59
2.82467e-62
2.11807e-65
8.78725e-69
2.37646e-72
2.15097e-76
2.17607e-80
2.49072e-84
3.22511e-88
4.62005e-92
7.14525e-96
1.16391e-99
1.9351e-103
3.2817e-107
5.5403e-111
9.30197e-115
1.57616e-118
2.67932e-122
4.58295e-126
7.90143e-130
2.7813e-144
6.51816e-146
3.52306e-149
1.33087e-152
4.2863e-156
1.38969e-159
4.98242e-163
2.01038e-166
4.47729e-172
1.36733e-177
1.25527e-182
2.46774e-187
6.40835e-192
1.21325e-196
1.28468e-201
9.90495e-207
6.91033e-212
4.71281e-217
3.25518e-222
2.20779e-227
1.55309e-232
1.1201e-237
8.93444e-243
5.40389e-248
2.48519e-253
8.89537e-259
2.60813e-264
6.42181e-270
1.53186e-275
4.42191e-281
2.40333e-304
6.2413e-307
5.45638e-312
2.87586e-317
6.91692e-323
0
0
0
0
0
0
0
0
0
0
0
0
0
0
0
0
0
0
0
0
0
0
0
0
0
0
0
0
0
0
0
0
0
0
0
0
0
0
0
0
0
0
0
0
0
0
0
0
0
0
0
0
0
0
0
0
0
0
0
0
0
0
0
0
0
0
0
0
0
0
0
0
0
0
0
0
0
0
0
0
0
0
0
0
0
0
0
0
0
0
0
0
0
0
0
0
0
0
0
0
0
0
0
0
0
0
0
0
0
0
0
0
0
0
0
0
0
0
0
0
0
0
0
0
0
0
0
0
0
0
0
0
0
0
0
0
0
0
0
0
0
0
0
0
0
0
0
0
0
0
0
0
0
0
0
0
0
0
0
0
0
0
0
0
0
0
0
0
0
0
0
0
0
0
0
0
0
0
0
0
0
0
0
0
0
0
0
0
0
0
0
0
0
0
0
0
0
0
0
0
0
0
0
0
0
0.216885
0.198198
0.170775
0.151861
0.147773
0.154292
0.152225
0.162937
0.0282397
0.00703432
0.00148953
3.72456e-05
9.73651e-07
3.85779e-08
0.000380097
0.00652238
0.0413244
0.169781
0.170027
0.167126
0.166915
0.166801
0.166679
0.167866
0.166477
0.164785
0.162987
0.16199
0.160905
0.159313
0.158393
0.157784
0.156935
0.153526
0.153048
0.0633153
0.0127102
0.00299426
0.000584091
5.84354e-05
6.75598e-06
1.68214e-07
2.89808e-09
3.66802e-11
0.00127522
0.0241145
0.210961
0.211982
0.209948
0.210033
0.215256
0.221914
0.227025
0.229076
0.230547
0.232152
0.233472
0.234981
0.238045
0.239995
0.239275
0.239998
0.245031
0.246639
0.2444
0.0672378
0.0158154
0.00582914
0.00107294
6.00638e-06
1.35678e-08
4.52869e-11
1.7983e-13
6.21486e-16
1.93225e-16
6.92731e-13
3.09797e-09
2.27574e-05
0.0102977
0.0975901
0.251747
0.251751
0.251734
0.251709
0.251586
0.251524
0.251547
0.2518
0.251733
0.0646396
0.0335072
0.0206253
0.00444067
0.000258845
1.80858e-05
3.54951e-07
3.79336e-09
5.56267e-12
5.3713e-15
3.38604e-18
3.30428e-21
5.15231e-24
7.9882e-27
1.22874e-29
1.29191e-36
8.95005e-36
2.34041e-35
9.14602e-36
1.81308e-37
4.39418e-40
3.0316e-43
4.62582e-46
3.93276e-49
4.3281e-52
2.06741e-55
4.91583e-58
3.30354e-61
1.09458e-64
2.19445e-68
3.64461e-73
1.74219e-77
1.04194e-81
9.30198e-87
3.49088e-90
2.19879e-93
2.49484e-97
1.87511e-101
1.79252e-105
2.36468e-109
4.40337e-113
7.80109e-117
5.58753e-120
1.09978e-123
1.96228e-127
1.00534e-140
2.26605e-142
1.15633e-145
3.90942e-149
1.04967e-152
2.54798e-156
6.06964e-160
1.67453e-163
4.89879e-167
2.49657e-172
3.50465e-177
8.4765e-182
3.3115e-186
6.61583e-191
6.58034e-196
4.64048e-201
2.80466e-206
1.68926e-211
1.08854e-216
7.22364e-222
5.06626e-227
3.66e-232
2.91506e-237
1.94927e-242
9.81039e-248
3.63055e-253
1.02663e-258
2.24882e-264
4.67324e-270
1.12711e-275
9.32558e-299
2.66526e-301
2.0636e-306
1.03641e-311
4.11211e-317
1.08694e-322
0
0
0
0
0
0
0
0
0
0
0
0
0
0
0
0
0
0
0
0
0
0
0
0
0
0
0
0
0
0
0
0
0
0
0
0
0
0
0
0
0
0
0
0
0
0
0
0
0
0
0
0
0
0
0
0
0
0
0
0
0
0
0
0
0
0
0
0
0
0
0
0
0
0
0
0
0
0
0
0
0
0
0
0
0
0
0
0
0
0
0
0
0
0
0
0
0
0
0
0
0
0
0
0
0
0
0
0
0
0
0
0
0
0
0
0
0
0
0
0
0
0
0
0
0
0
0
0
0
0
0
0
0
0
0
0
0
0
0
0
0
0
0
0
0
0
0
0
0
0
0
0
0
0
0
0
0
0
0
0
0
0
0
0
0
0
0
0
0
0
0
0
0
0
0
0
0
0
0
0
0
0
0
0
0
0
0
0
0
0
0
0
0
0
0
0
0
0
0
0
0
0
0
0
0.198958
0.154259
0.125516
0.11446
0.112127
0.114436
0.111806
0.118064
0.0599108
0.0385523
0.0168324
0.00371319
3.39384e-05
6.26375e-07
0.00385181
0.0409615
0.137638
0.168659
0.167424
0.172459
0.172929
0.17435
0.172748
0.171086
0.1699
0.169048
0.169046
0.16811
0.167498
0.164314
0.159583
0.155204
0.152389
0.145262
0.135928
0.127904
0.124193
0.0183104
0.00387205
0.00147927
0.000188065
5.22845e-06
1.16093e-07
1.72568e-09
0.00194513
0.0276513
0.207924
0.20496
0.200943
0.199871
0.204536
0.211332
0.217718
0.218606
0.220094
0.224726
0.227922
0.228491
0.230106
0.233992
0.241264
0.248009
0.251242
0.251543
0.250913
0.250483
0.251555
0.246841
0.0439861
0.00325157
6.68869e-06
9.5003e-09
3.62258e-11
1.54094e-13
4.04168e-17
2.39686e-13
1.11466e-09
2.67044e-06
0.004916
0.0574579
0.251432
0.25182
0.25186
0.251694
0.251657
0.25185
0.251754
0.251152
0.251259
0.251261
0.251738
0.251539
0.0812328
0.0228588
0.00404472
0.000127253
5.57211e-06
8.48307e-08
1.30423e-10
3.64934e-15
4.04815e-19
4.45489e-22
1.51358e-24
4.82582e-27
2.35643e-33
3.24047e-32
1.92973e-31
1.60645e-31
6.19838e-33
1.18256e-35
7.2447e-39
7.2154e-42
5.64834e-45
4.79701e-48
2.31275e-51
5.86663e-54
5.61528e-57
3.16192e-60
1.16857e-63
2.18242e-67
2.38981e-71
1.22978e-75
7.13853e-81
5.6187e-85
4.46002e-89
2.88615e-93
4.34402e-98
5.02119e-103
3.271e-107
6.55162e-110
8.37493e-114
1.88615e-116
2.29578e-120
2.3807e-124
1.13923e-136
3.1962e-138
1.60702e-141
5.04791e-145
1.19114e-148
2.2719e-152
4.03919e-156
6.7517e-160
1.39954e-163
3.33233e-167
5.94414e-172
2.4841e-176
9.93541e-181
1.65545e-185
1.43664e-190
8.7139e-196
4.18024e-201
1.98433e-206
9.76279e-212
5.62867e-217
3.38714e-222
2.27965e-227
1.60433e-232
1.17759e-237
7.17562e-243
3.33713e-248
1.01661e-253
2.15125e-259
3.93783e-265
7.26768e-271
1.57548e-293
5.05094e-296
3.44808e-301
1.57046e-306
5.70775e-312
1.86255e-317
3.95253e-323
0
0
0
0
0
0
0
0
0
0
0
0
0
0
0
0
0
0
0
0
0
0
0
0
0
0
0
0
0
0
0
0
0
0
0
0
0
0
0
0
0
0
0
0
0
0
0
0
0
0
0
0
0
0
0
0
0
0
0
0
0
0
0
0
0
0
0
0
0
0
0
0
0
0
0
0
0
0
0
0
0
0
0
0
0
0
0
0
0
0
0
0
0
0
0
0
0
0
0
0
0
0
0
0
0
0
0
0
0
0
0
0
0
0
0
0
0
0
0
0
0
0
0
0
0
0
0
0
0
0
0
0
0
0
0
0
0
0
0
0
0
0
0
0
0
0
0
0
0
0
0
0
0
0
0
0
0
0
0
0
0
0
0
0
0
0
0
0
0
0
0
0
0
0
0
0
0
0
0
0
0
0
0
0
0
0
0
0
0
0
0
0
0
0
0
0
0
0
0
0
0
0
0
0.160114
0.132574
0.120976
0.120712
0.116381
0.108391
0.108375
0.109707
0.117023
0.109263
0.0560808
0.0223788
0.00477386
2.75711e-05
0.0149207
0.115378
0.169477
0.168469
0.177319
0.189187
0.189764
0.190607
0.188821
0.192058
0.196036
0.201428
0.204388
0.202941
0.196715
0.191227
0.187242
0.189536
0.193903
0.189841
0.179382
0.163845
0.132629
0.102091
0.0810772
0.00764325
0.00102915
1.13047e-05
1.74308e-07
2.59933e-09
0.00153932
0.0248016
0.207909
0.20159
0.194616
0.188566
0.188296
0.192371
0.196769
0.198069
0.197274
0.201797
0.208313
0.205154
0.204433
0.209451
0.220943
0.244558
0.251409
0.251374
0.250847
0.250897
0.251215
0.251586
0.251673
0.0519093
0.0036994
3.64454e-06
7.94446e-09
3.41377e-11
7.82901e-18
2.50177e-15
1.54229e-11
3.73009e-08
0.000107699
0.00298988
0.00859116
0.00739847
0.00902613
0.015244
0.0437667
0.22118
0.249444
0.250951
0.250415
0.250736
0.251486
0.251699
0.251342
0.250938
0.0909132
0.0166944
0.00113747
3.42071e-05
3.30625e-07
4.39628e-10
1.14287e-14
6.33809e-19
1.06299e-21
3.56008e-24
1.61977e-29
4.1986e-28
3.39618e-27
2.4315e-27
7.69382e-29
8.50848e-32
4.12295e-35
3.87294e-38
2.90621e-41
2.42346e-44
1.12237e-47
2.85475e-50
2.66232e-53
1.44485e-56
5.82872e-60
1.99692e-63
5.76167e-67
1.09924e-70
1.18781e-74
1.02212e-78
8.06736e-83
5.32352e-87
8.84075e-92
8.78713e-97
5.61147e-101
3.51789e-105
1.95746e-109
2.12048e-112
1.15458e-116
4.11569e-121
1.31437e-131
3.63981e-133
1.73955e-136
5.43378e-140
1.22485e-143
2.17767e-147
3.22308e-151
4.80717e-155
6.96862e-159
1.39916e-162
3.12688e-166
3.89401e-170
8.50568e-175
1.13338e-179
8.65679e-185
4.78824e-190
1.9645e-195
7.4521e-201
2.76897e-206
1.22703e-211
6.06195e-217
3.4793e-222
2.12708e-227
1.49242e-232
1.08041e-237
6.98711e-243
2.51931e-248
5.34411e-254
8.62101e-260
1.46044e-265
1.25466e-287
3.71531e-290
2.08986e-295
8.31568e-301
2.85974e-306
8.60065e-312
2.3701e-317
4.44659e-323
0
0
0
0
0
0
0
0
0
0
0
0
0
0
0
0
0
0
0
0
0
0
0
0
0
0
0
0
0
0
0
0
0
0
0
0
0
0
0
0
0
0
0
0
0
0
0
0
0
0
0
0
0
0
0
0
0
0
0
0
0
0
0
0
0
0
0
0
0
0
0
0
0
0
0
0
0
0
0
0
0
0
0
0
0
0
0
0
0
0
0
0
0
0
0
0
0
0
0
0
0
0
0
0
0
0
0
0
0
0
0
0
0
0
0
0
0
0
0
0
0
0
0
0
0
0
0
0
0
0
0
0
0
0
0
0
0
0
0
0
0
0
0
0
0
0
0
0
0
0
0
0
0
0
0
0
0
0
0
0
0
0
0
0
0
0
0
0
0
0
0
0
0
0
0
0
0
0
0
0
0
0
0
0
0
0
0
0
0
0
0
0
0
0
0
0
0
0
0
0
0
0
0.138521
0.13987
0.160098
0.168015
0.155599
0.148685
0.173613
0.179956
0.182834
0.166633
0.130846
0.0913682
0.0266408
0.00181936
0.0221514
0.14966
0.184327
0.18665
0.206187
0.217702
0.218061
0.224211
0.234242
0.242937
0.247264
0.247835
0.247347
0.244346
0.240086
0.237471
0.237838
0.239529
0.239833
0.239023
0.230003
0.205028
0.163876
0.123725
0.0949765
0.0711088
0.00254639
8.41604e-06
1.59773e-07
3.53663e-09
0.000793612
0.0182997
0.207957
0.204806
0.196423
0.188926
0.18407
0.181492
0.18109
0.180615
0.178626
0.1793
0.183709
0.185134
0.186531
0.189218
0.19469
0.21288
0.246576
0.251449
0.251587
0.251349
0.250487
0.249957
0.251273
0.251542
0.0346848
0.00127159
9.33968e-07
3.17327e-09
2.60921e-15
9.01636e-14
5.59583e-13
8.61411e-12
8.43127e-09
5.11199e-07
2.48764e-06
1.17147e-05
4.38708e-05
0.000173313
0.00197943
0.0315597
0.236937
0.249739
0.248958
0.249976
0.251217
0.251399
0.251172
0.250849
0.250601
0.249772
0.0676784
0.00641236
7.44843e-05
4.82046e-07
5.03949e-10
1.04516e-14
1.46674e-18
2.69001e-21
2.2098e-25
5.79716e-24
2.67444e-23
1.14955e-23
4.18828e-25
4.57939e-28
1.81863e-31
1.64385e-34
1.302e-37
1.07761e-40
4.70078e-44
1.34612e-46
1.2343e-49
6.28212e-53
2.31408e-56
7.13469e-60
2.03032e-63
5.57418e-67
1.3388e-70
2.21706e-74
2.50124e-78
2.5147e-82
2.25635e-86
1.81017e-90
1.27961e-94
7.95994e-99
4.04908e-103
1.71847e-107
5.77654e-112
1.40283e-116
6.16092e-127
1.15919e-128
5.11209e-132
1.69766e-135
4.46537e-139
8.96309e-143
1.51129e-146
2.17957e-150
3.24279e-154
5.32885e-158
1.12996e-161
3.07364e-165
8.49781e-169
8.81602e-174
6.29254e-179
3.15363e-184
1.22895e-189
3.85782e-195
1.17053e-200
3.72754e-206
1.44009e-211
6.47826e-217
3.38286e-222
1.9548e-227
1.30381e-232
9.81354e-238
4.71712e-243
1.06838e-248
1.68461e-254
2.62932e-260
1.21187e-281
3.32361e-284
1.65305e-289
6.01144e-295
1.88802e-300
5.4647e-306
1.40239e-311
3.3185e-317
5.43472e-323
0
0
0
0
0
0
0
0
0
0
0
0
0
0
0
0
0
0
0
0
0
0
0
0
0
0
0
0
0
0
0
0
0
0
0
0
0
0
0
0
0
0
0
0
0
0
0
0
0
0
0
0
0
0
0
0
0
0
0
0
0
0
0
0
0
0
0
0
0
0
0
0
0
0
0
0
0
0
0
0
0
0
0
0
0
0
0
0
0
0
0
0
0
0
0
0
0
0
0
0
0
0
0
0
0
0
0
0
0
0
0
0
0
0
0
0
0
0
0
0
0
0
0
0
0
0
0
0
0
0
0
0
0
0
0
0
0
0
0
0
0
0
0
0
0
0
0
0
0
0
0
0
0
0
0
0
0
0
0
0
0
0
0
0
0
0
0
0
0
0
0
0
0
0
0
0
0
0
0
0
0
0
0
0
0
0
0
0
0
0
0
0
0
0
0
0
0
0
0
0
0
0.145098
0.183072
0.208136
0.213003
0.208479
0.21561
0.224759
0.224384
0.197963
0.165473
0.145972
0.122769
0.0907398
0.00730981
0.0372044
0.17304
0.208081
0.222516
0.237678
0.242308
0.246051
0.24868
0.249418
0.249247
0.249132
0.24935
0.249637
0.2495
0.24906
0.248708
0.248349
0.248595
0.247586
0.245934
0.242961
0.231635
0.198542
0.151166
0.112558
0.0970879
0.00351886
0.000297386
2.93085e-06
8.39769e-08
0.000268674
0.0149339
0.212665
0.209476
0.203844
0.197775
0.190796
0.18478
0.179037
0.172913
0.168668
0.170654
0.180223
0.194015
0.204548
0.205547
0.200745
0.200512
0.213621
0.233652
0.239174
0.24728
0.251372
0.249803
0.249915
0.251475
0.247205
0.0140807
0.000294906
3.82278e-07
1.3059e-12
1.44502e-11
8.69439e-11
3.32063e-10
1.0968e-09
2.75886e-09
9.17172e-08
1.66582e-06
3.72446e-05
0.0019166
0.00909287
0.0860205
0.221753
0.249992
0.246829
0.248693
0.25013
0.250236
0.249916
0.249758
0.249224
0.24943
0.248984
0.0890127
0.0110072
8.77948e-05
3.94778e-07
2.21696e-10
2.38354e-15
2.65019e-18
3.12831e-21
3.50633e-20
8.62548e-20
3.34036e-20
1.97218e-21
2.64637e-24
1.46376e-27
2.27844e-30
3.20638e-33
2.1279e-36
4.7701e-40
7.78853e-43
6.30092e-46
2.69947e-49
8.90772e-53
2.51002e-56
6.35143e-60
1.54853e-63
3.8534e-67
9.39208e-71
1.99417e-74
3.24395e-78
4.1527e-82
4.62929e-86
4.41425e-90
3.57545e-94
2.35057e-98
1.16037e-102
4.01192e-107
8.20277e-112
1.21748e-122
1.091e-124
3.47506e-128
1.05342e-131
3.18369e-135
9.05736e-139
2.13533e-142
3.92866e-146
6.24736e-150
1.07623e-153
1.99176e-157
5.03541e-161
1.48872e-164
5.91167e-168
3.76205e-173
1.87594e-178
6.72312e-184
2.00196e-189
4.95909e-195
1.2781e-200
3.48848e-206
1.23035e-211
4.9086e-217
2.41555e-222
1.27165e-227
8.31187e-233
4.26432e-238
1.23094e-243
2.06432e-249
3.14798e-255
1.20615e-275
3.36806e-278
1.29449e-283
3.96179e-289
1.13059e-294
3.00857e-300
7.56019e-306
1.67698e-311
3.4785e-317
4.44659e-323
0
0
0
0
0
0
0
0
0
0
0
0
0
0
0
0
0
0
0
0
0
0
0
0
0
0
0
0
0
0
0
0
0
0
0
0
0
0
0
0
0
0
0
0
0
0
0
0
0
0
0
0
0
0
0
0
0
0
0
0
0
0
0
0
0
0
0
0
0
0
0
0
0
0
0
0
0
0
0
0
0
0
0
0
0
0
0
0
0
0
0
0
0
0
0
0
0
0
0
0
0
0
0
0
0
0
0
0
0
0
0
0
0
0
0
0
0
0
0
0
0
0
0
0
0
0
0
0
0
0
0
0
0
0
0
0
0
0
0
0
0
0
0
0
0
0
0
0
0
0
0
0
0
0
0
0
0
0
0
0
0
0
0
0
0
0
0
0
0
0
0
0
0
0
0
0
0
0
0
0
0
0
0
0
0
0
0
0
0
0
0
0
0
0
0
0
0
0
0
0
0.187076
0.218635
0.227108
0.231911
0.239292
0.245565
0.246772
0.240089
0.181889
0.132729
0.118676
0.114685
0.101202
0.0170439
0.0681416
0.198179
0.236026
0.243853
0.247663
0.248951
0.249316
0.248906
0.248173
0.247665
0.247716
0.248202
0.248827
0.249251
0.249472
0.249477
0.249469
0.249542
0.249587
0.245208
0.231171
0.22755
0.218612
0.178836
0.137868
0.11299
0.0080545
0.00587082
0.000170087
2.44961e-06
0.00013604
0.0152981
0.215915
0.219996
0.216711
0.216366
0.217925
0.210003
0.189539
0.170133
0.164678
0.180337
0.2149
0.2446
0.249768
0.250444
0.250461
0.237286
0.218065
0.21031
0.20506
0.209662
0.242041
0.251209
0.249587
0.249584
0.251412
0.0577031
0.00342574
1.129e-05
7.28371e-10
3.42055e-09
1.30065e-08
6.0757e-08
2.98171e-07
1.60401e-06
4.47091e-05
0.00174151
0.00922808
0.0371279
0.060429
0.206203
0.221675
0.251327
0.244967
0.246006
0.247294
0.247614
0.247517
0.247284
0.247272
0.247819
0.247803
0.247535
0.0832471
0.00980619
5.91436e-05
1.86021e-07
5.87647e-11
6.70597e-15
2.19269e-17
1.21684e-16
1.73079e-16
8.30627e-17
8.70253e-18
2.92797e-20
3.94558e-23
9.27897e-26
1.21898e-28
7.31769e-32
2.10111e-35
8.03451e-39
3.35247e-42
1.11959e-45
3.12633e-49
7.94752e-53
1.85798e-56
4.08578e-60
8.88066e-64
2.01696e-67
4.72416e-71
1.0697e-74
2.17566e-78
3.81841e-82
5.53608e-86
6.64219e-90
6.41674e-94
4.58447e-98
2.00631e-102
4.25479e-107
1.19755e-118
6.19797e-121
1.4309e-124
3.72314e-128
1.03731e-131
2.92497e-135
8.16066e-139
2.11243e-142
4.77919e-146
9.72931e-150
1.97664e-153
4.49525e-157
1.23524e-160
4.48254e-164
1.92392e-167
9.09474e-173
3.25836e-178
8.93809e-184
2.06007e-189
4.33488e-195
9.45502e-201
2.37902e-206
7.40955e-212
2.80139e-217
1.23104e-222
6.30159e-228
3.41634e-233
1.24982e-238
2.37463e-244
3.55966e-250
1.23292e-269
2.74311e-272
8.57695e-278
2.24156e-283
5.45397e-289
1.30557e-294
3.05338e-300
6.78743e-306
1.3509e-311
2.51868e-317
1.97626e-323
0
0
0
0
0
0
0
0
0
0
0
0
0
0
0
0
0
0
0
0
0
0
0
0
0
0
0
0
0
0
0
0
0
0
0
0
0
0
0
0
0
0
0
0
0
0
0
0
0
0
0
0
0
0
0
0
0
0
0
0
0
0
0
0
0
0
0
0
0
0
0
0
0
0
0
0
0
0
0
0
0
0
0
0
0
0
0
0
0
0
0
0
0
0
0
0
0
0
0
0
0
0
0
0
0
0
0
0
0
0
0
0
0
0
0
0
0
0
0
0
0
0
0
0
0
0
0
0
0
0
0
0
0
0
0
0
0
0
0
0
0
0
0
0
0
0
0
0
0
0
0
0
0
0
0
0
0
0
0
0
0
0
0
0
0
0
0
0
0
0
0
0
0
0
0
0
0
0
0
0
0
0
0
0
0
0
0
0
0
0
0
0
0
0
0
0
0
0
0
0.222627
0.232717
0.237327
0.243636
0.248889
0.249371
0.249489
0.248351
0.163536
0.121026
0.116822
0.121741
0.115464
0.109394
0.123006
0.222334
0.244621
0.24762
0.248921
0.249232
0.248858
0.248115
0.247449
0.246992
0.246767
0.246942
0.247447
0.247971
0.248239
0.248299
0.24868
0.249852
0.25047
0.21343
0.190994
0.199324
0.208828
0.186569
0.144093
0.117992
0.100999
0.050959
0.00149358
2.40976e-05
0.000135134
0.0150473
0.217135
0.231116
0.23003
0.240805
0.247109
0.241667
0.203106
0.168082
0.166443
0.204487
0.247865
0.249591
0.248783
0.248135
0.248455
0.249748
0.251366
0.242068
0.218697
0.206397
0.210356
0.246632
0.251017
0.24909
0.249792
0.251609
0.0227339
0.00130437
4.81989e-07
7.72222e-07
1.86067e-06
7.82515e-06
4.19394e-05
0.000259102
0.00662533
0.0390074
0.0690035
0.213586
0.20255
0.202674
0.225479
0.25167
0.244185
0.243391
0.244142
0.244258
0.244085
0.244185
0.244491
0.245169
0.245759
0.246487
0.246205
0.0669321
0.0058816
2.32004e-05
3.8875e-08
4.1347e-12
1.32751e-13
2.04758e-13
2.82726e-13
1.5625e-13
2.90478e-14
3.48495e-16
6.42253e-19
1.17102e-21
1.46682e-24
9.75122e-28
3.92267e-31
8.73747e-35
1.67638e-38
3.81605e-42
8.83058e-46
1.99249e-49
4.30996e-53
8.92305e-57
1.79552e-60
3.61324e-64
7.63328e-68
1.70056e-71
3.864e-75
8.53429e-79
1.77688e-82
3.31455e-86
5.03733e-90
5.44051e-94
3.42626e-98
7.93554e-103
6.50795e-115
3.37645e-117
4.8561e-121
1.104e-124
2.76984e-128
7.33683e-132
1.94643e-135
5.22168e-139
1.35771e-142
3.38563e-146
8.10881e-150
2.00638e-153
5.15165e-157
1.64912e-160
6.50751e-164
3.29651e-167
1.11255e-172
2.90033e-178
6.03792e-184
1.15124e-189
2.03675e-195
4.01517e-201
9.00596e-207
2.63982e-212
8.98148e-218
3.78305e-223
1.76714e-228
7.07779e-234
1.57736e-239
2.61617e-245
1.14444e-263
2.23633e-266
3.8329e-272
7.06757e-278
1.39828e-283
2.83033e-289
5.92352e-295
1.25307e-300
2.55101e-306
4.71358e-312
8.16497e-318
0
0
0
0
0
0
0
0
0
0
0
0
0
0
0
0
0
0
0
0
0
0
0
0
0
0
0
0
0
0
0
0
0
0
0
0
0
0
0
0
0
0
0
0
0
0
0
0
0
0
0
0
0
0
0
0
0
0
0
0
0
0
0
0
0
0
0
0
0
0
0
0
0
0
0
0
0
0
0
0
0
0
0
0
0
0
0
0
0
0
0
0
0
0
0
0
0
0
0
0
0
0
0
0
0
0
0
0
0
0
0
0
0
0
0
0
0
0
0
0
0
0
0
0
0
0
0
0
0
0
0
0
0
0
0
0
0
0
0
0
0
0
0
0
0
0
0
0
0
0
0
0
0
0
0
0
0
0
0
0
0
0
0
0
0
0
0
0
0
0
0
0
0
0
0
0
0
0
0
0
0
0
0
0
0
0
0
0
0
0
0
0
0
0
0
0
0
0
0
0.238447
0.241641
0.244675
0.248517
0.248543
0.24722
0.248282
0.249488
0.159366
0.12906
0.144135
0.174036
0.181326
0.176358
0.171282
0.159921
0.175223
0.243586
0.245493
0.246606
0.248493
0.249308
0.249238
0.248745
0.247917
0.246955
0.246117
0.245865
0.246131
0.246386
0.24628
0.246446
0.24826
0.251221
0.213666
0.164554
0.155983
0.171916
0.187371
0.172545
0.144061
0.130598
0.130916
0.12812
0.0018644
0.000137218
0.000122155
3.27881e-05
6.10002e-05
0.00629557
0.05678
0.246265
0.244668
0.24794
0.250381
0.247899
0.207928
0.164554
0.165641
0.207833
0.248024
0.250705
0.250318
0.249588
0.247999
0.247107
0.247612
0.249695
0.251106
0.242198
0.214643
0.216181
0.249716
0.250253
0.249164
0.251092
0.185274
0.0200918
0.0021702
0.000538872
0.000106416
0.000106116
0.00015331
0.000451046
0.0020031
0.00832867
0.052771
0.195788
0.199607
0.197132
0.196686
0.207334
0.233015
0.251658
0.245007
0.242384
0.24245
0.242541
0.2425
0.242551
0.242763
0.243
0.243315
0.244241
0.245198
0.245197
0.045734
0.00325266
9.03248e-06
6.77873e-09
1.79288e-10
1.0762e-10
1.04853e-10
1.48791e-10
1.90487e-10
1.41993e-10
5.31424e-11
1.81679e-12
2.94738e-15
5.46187e-18
7.67789e-21
5.66197e-24
2.40034e-27
5.12176e-31
6.96431e-35
9.29662e-39
1.52967e-42
2.99106e-46
6.08083e-50
1.23028e-53
2.41875e-57
4.68419e-61
9.10517e-65
1.84213e-68
3.93855e-72
8.78882e-76
1.98878e-79
4.44816e-83
9.48963e-87
1.80699e-90
2.40396e-94
1.27784e-98
5.90385e-103
3.63282e-107
5.49382e-111
1.32525e-114
5.4418e-118
1.93968e-121
5.99192e-125
1.63036e-128
4.16284e-132
1.05229e-135
2.68683e-139
6.80649e-143
1.70874e-146
4.28002e-150
1.08622e-153
2.97068e-157
9.62442e-161
4.31004e-164
2.29854e-167
5.02079e-173
9.39294e-179
1.57199e-184
2.48963e-190
3.9455e-196
6.95536e-202
1.46923e-207
3.86514e-213
1.19821e-218
4.13269e-224
1.4861e-229
5.12785e-235
1.38941e-240
2.67448e-246
4.21405e-252
7.48251e-258
2.00303e-263
7.14606e-269
2.65837e-274
9.5821e-280
3.23077e-285
1.00553e-290
2.89031e-296
7.28132e-302
1.55229e-307
2.91478e-313
4.98315e-319
0
0
0
0
0
0
0
0
0
0
0
0
0
0
0
0
0
0
0
0
0
0
0
0
0
0
0
0
0
0
0
0
0
0
0
0
0
0
0
0
0
0
0
0
0
0
0
0
0
0
0
0
0
0
0
0
0
0
0
0
0
0
0
0
0
0
0
0
0
0
0
0
0
0
0
0
0
0
0
0
0
0
0
0
0
0
0
0
0
0
0
0
0
0
0
0
0
0
0
0
0
0
0
0
0
0
0
0
0
0
0
0
0
0
0
0
0
0
0
0
0
0
0
0
0
0
0
0
0
0
0
0
0
0
0
0
0
0
0
0
0
0
0
0
0
0
0
0
0
0
0
0
0
0
0
0
0
0
0
0
0
0
0
0
0
0
0
0
0
0
0
0
0
0
0
0
0
0
0
0
0
0
0
0
0
0
0
0
0
0
0
0
0
0
0
0
0
0
0
0
0
0
0
0
0
0
0
0
0
0
0
0
0.245033
0.245639
0.247188
0.248021
0.246173
0.244893
0.247185
0.250515
0.176003
0.149171
0.172859
0.201993
0.211403
0.206725
0.204606
0.211273
0.235956
0.242362
0.240153
0.235155
0.239263
0.246215
0.248796
0.249342
0.248614
0.246943
0.245545
0.245016
0.24494
0.244703
0.244497
0.245612
0.249515
0.238728
0.162063
0.137178
0.137491
0.150205
0.160025
0.153603
0.140653
0.136772
0.140441
0.146383
0.00424119
0.00333929
0.00259723
0.0015466
0.00132057
0.00285067
0.00823823
0.0339211
0.0453455
0.249281
0.250121
0.246803
0.200527
0.165484
0.166306
0.186603
0.210327
0.226555
0.237779
0.245237
0.251216
0.250849
0.247789
0.246649
0.247775
0.25014
0.247866
0.215463
0.223182
0.251643
0.249902
0.249899
0.251622
0.0684504
0.0182857
0.00941378
0.00593783
0.00529684
0.00541745
0.00709521
0.013706
0.0310704
0.162816
0.215285
0.223182
0.220903
0.227435
0.243124
0.251521
0.251401
0.247063
0.243472
0.242511
0.242431
0.24249
0.242492
0.242478
0.242575
0.242638
0.242713
0.243537
0.244204
0.138323
0.0256102
0.00203527
7.41751e-06
2.50115e-07
9.97147e-08
1.11308e-07
1.40789e-07
1.5671e-07
1.2668e-07
5.09826e-08
3.41233e-09
6.12442e-12
1.04841e-14
1.31047e-17
1.09003e-20
5.44067e-24
1.46961e-27
2.08794e-31
1.94909e-35
1.92289e-39
2.49506e-43
4.14523e-47
7.67545e-51
1.48506e-54
2.86279e-58
5.50107e-62
1.06144e-65
2.10996e-69
4.39494e-73
9.58434e-77
2.15456e-80
4.92798e-84
1.11524e-87
2.39415e-91
4.17921e-95
5.22183e-99
6.74228e-103
8.85425e-107
1.63508e-110
3.44058e-114
7.93842e-118
1.83317e-121
4.1366e-125
9.07633e-129
2.0134e-132
4.57572e-136
1.06748e-139
2.51453e-143
6.02936e-147
1.45062e-150
3.6263e-154
9.45061e-158
2.79513e-161
9.71293e-165
2.30671e-168
1.72431e-174
1.08881e-180
7.44843e-187
7.73831e-193
1.39721e-198
3.22108e-204
8.02741e-210
2.04274e-215
5.32699e-221
1.38726e-226
3.51392e-232
8.18038e-238
1.81952e-243
3.99134e-249
8.99846e-255
2.23644e-260
6.92338e-266
2.35335e-271
7.73862e-277
2.47943e-282
7.58317e-288
2.06402e-293
4.8166e-299
9.97415e-305
1.87745e-310
3.28807e-316
5.18769e-322
0
0
0
0
0
0
0
0
0
0
0
0
0
0
0
0
0
0
0
0
0
0
0
0
0
0
0
0
0
0
0
0
0
0
0
0
0
0
0
0
0
0
0
0
0
0
0
0
0
0
0
0
0
0
0
0
0
0
0
0
0
0
0
0
0
0
0
0
0
0
0
0
0
0
0
0
0
0
0
0
0
0
0
0
0
0
0
0
0
0
0
0
0
0
0
0
0
0
0
0
0
0
0
0
0
0
0
0
0
0
0
0
0
0
0
0
0
0
0
0
0
0
0
0
0
0
0
0
0
0
0
0
0
0
0
0
0
0
0
0
0
0
0
0
0
0
0
0
0
0
0
0
0
0
0
0
0
0
0
0
0
0
0
0
0
0
0
0
0
0
0
0
0
0
0
0
0
0
0
0
0
0
0
0
0
0
0
0
0
0
0
0
0
0
0
0
0
0
0
0
0
0
0
0
0
0
0
0
0
0
0
0.245825
0.246232
0.246918
0.246249
0.244286
0.243686
0.246265
0.250424
0.218854
0.179326
0.188896
0.210704
0.22415
0.229754
0.232733
0.235252
0.235556
0.227817
0.214538
0.207206
0.210451
0.222322
0.243058
0.249571
0.24859
0.246327
0.244822
0.244248
0.243906
0.243562
0.243773
0.246307
0.250905
0.203657
0.143791
0.129934
0.131948
0.139248
0.142556
0.14112
0.139325
0.139465
0.1397
0.141921
0.1464
0.157166
0.165167
0.167485
0.181287
0.222833
0.24494
0.24881
0.247721
0.247104
0.248246
0.248723
0.231373
0.199182
0.197989
0.219697
0.240748
0.246301
0.242342
0.232802
0.233079
0.244573
0.25129
0.248657
0.246375
0.247275
0.249979
0.246889
0.21654
0.231758
0.251703
0.250581
0.250432
0.250566
0.238195
0.21057
0.202992
0.184963
0.172235
0.17109
0.19279
0.222821
0.235774
0.245379
0.25096
0.251598
0.251777
0.251674
0.251222
0.250781
0.249392
0.247354
0.245856
0.245022
0.244456
0.24382
0.243151
0.242709
0.242577
0.242515
0.242566
0.242745
0.242943
0.112663
0.0290704
0.004094
8.54754e-05
3.37588e-05
3.63573e-05
4.12173e-05
4.18907e-05
3.40134e-05
1.57709e-05
1.34969e-06
4.30681e-09
8.09616e-12
1.07873e-14
9.56825e-18
5.06262e-21
1.65091e-24
2.85543e-28
2.88668e-32
2.11654e-36
1.73287e-40
1.89223e-44
2.72962e-48
4.63137e-52
8.58003e-56
1.633e-59
3.12972e-63
6.03359e-67
1.18453e-70
2.3995e-74
5.06286e-78
1.09911e-81
2.43953e-85
5.49767e-89
1.24328e-92
2.62078e-96
5.8055e-100
1.19136e-103
2.60695e-107
5.65087e-111
1.20529e-114
2.55087e-118
5.2405e-122
1.06734e-125
2.16561e-129
4.49689e-133
9.50793e-137
2.06695e-140
4.53353e-144
1.00843e-147
2.27186e-151
5.13482e-155
1.17973e-158
2.72375e-162
6.43536e-166
7.67553e-172
9.28772e-178
1.14716e-183
1.39694e-189
1.70244e-195
2.03667e-201
2.45825e-207
2.96036e-213
3.69094e-219
4.74548e-225
6.54109e-231
9.61256e-237
1.5769e-242
2.89605e-248
6.04921e-254
1.44574e-259
4.19817e-265
1.48561e-270
6.0221e-276
2.2686e-281
6.94554e-287
1.78084e-292
4.00179e-298
8.08942e-304
1.5166e-309
2.67469e-315
4.496e-321
0
0
0
0
0
0
0
0
0
0
0
0
0
0
0
0
0
0
0
0
0
0
0
0
0
0
0
0
0
0
0
0
0
0
0
0
0
0
0
0
0
0
0
0
0
0
0
0
0
0
0
0
0
0
0
0
0
0
0
0
0
0
0
0
0
0
0
0
0
0
0
0
0
0
0
0
0
0
0
0
0
0
0
0
0
0
0
0
0
0
0
0
0
0
0
0
0
0
0
0
0
0
0
0
0
0
0
0
0
0
0
0
0
0
0
0
0
0
0
0
0
0
0
0
0
0
0
0
0
0
0
0
0
0
0
0
0
0
0
0
0
0
0
0
0
0
0
0
0
0
0
0
0
0
0
0
0
0
0
0
0
0
0
0
0
0
0
0
0
0
0
0
0
0
0
0
0
0
0
0
0
0
0
0
0
0
0
0
0
0
0
0
0
0
0
0
0
0
0
0
0
0
0
0
0
0
0
0
0
0
0
0.244356
0.245024
0.245306
0.244678
0.243502
0.243098
0.244602
0.248362
0.249847
0.224231
0.209328
0.211081
0.215463
0.218926
0.223178
0.222888
0.218584
0.21275
0.210593
0.210225
0.212656
0.225215
0.24619
0.249708
0.247538
0.245283
0.244149
0.243668
0.243326
0.243178
0.243809
0.247264
0.251491
0.19624
0.142054
0.127131
0.127086
0.132091
0.135984
0.138027
0.140295
0.142532
0.145507
0.149241
0.15584
0.163455
0.175527
0.196607
0.228696
0.236081
0.241826
0.247159
0.248155
0.248072
0.249351
0.250497
0.248756
0.246918
0.249288
0.25144
0.251603
0.251447
0.249789
0.246416
0.245683
0.251128
0.250967
0.249055
0.24657
0.245448
0.24718
0.250164
0.247113
0.223047
0.234674
0.251379
0.25118
0.251037
0.251485
0.251458
0.251077
0.249833
0.24897
0.249973
0.251212
0.251408
0.251777
0.251696
0.251208
0.250682
0.250624
0.250929
0.250798
0.250165
0.249394
0.248525
0.247549
0.246552
0.245646
0.244862
0.244215
0.243582
0.243016
0.242707
0.2425
0.242397
0.242276
0.242231
0.240968
0.0889604
0.027852
0.0110044
0.0105648
0.00954483
0.00771758
0.00617837
0.00272858
0.000393663
2.30065e-06
4.61681e-09
5.53246e-12
4.84446e-15
2.7272e-18
9.92596e-22
2.07953e-25
2.57949e-29
2.01897e-33
1.31024e-37
9.95978e-42
1.02016e-45
1.38648e-49
2.27039e-53
4.1106e-57
7.77463e-61
1.48431e-64
2.85091e-68
5.53691e-72
1.08979e-75
2.21165e-79
4.60558e-83
9.70997e-87
2.10525e-90
4.4418e-94
9.67084e-98
2.02677e-101
4.28911e-105
8.74274e-109
1.77771e-112
3.51267e-116
6.91005e-120
1.33978e-123
2.61455e-127
5.12045e-131
1.02701e-134
2.07979e-138
4.32192e-142
8.99267e-146
1.9191e-149
4.07009e-153
8.83601e-157
1.90593e-160
4.18791e-164
8.18569e-168
7.41399e-174
6.04436e-180
4.4496e-186
3.13447e-192
2.13581e-198
1.51882e-204
1.17355e-210
1.08176e-216
1.1876e-222
1.52745e-228
2.10375e-234
3.04025e-240
4.46361e-246
6.88277e-252
1.13134e-257
2.10635e-263
4.48864e-269
1.05761e-274
2.29035e-280
4.11169e-286
6.36568e-292
8.93219e-298
1.16648e-303
1.46441e-309
1.79297e-315
2.16895e-321
0
0
0
0
0
0
0
0
0
0
0
0
0
0
0
0
0
0
0
0
0
0
0
0
0
0
0
0
0
0
0
0
0
0
0
0
0
0
0
0
0
0
0
0
0
0
0
0
0
0
0
0
0
0
0
0
0
0
0
0
0
0
0
0
0
0
0
0
0
0
0
0
0
0
0
0
0
0
0
0
0
0
0
0
0
0
0
0
0
0
0
0
0
0
0
0
0
0
0
0
0
0
0
0
0
0
0
0
0
0
0
0
0
0
0
0
0
0
0
0
0
0
0
0
0
0
0
0
0
0
0
0
0
0
0
0
0
0
0
0
0
0
0
0
0
0
0
0
0
0
0
0
0
0
0
0
0
0
0
0
0
0
0
0
0
0
0
0
0
0
0
0
0
0
0
0
0
0
0
0
0
0
0
0
0
0
0
0
0
0
0
0
0
0
0
0
0
0
0
0
0
0
0
0
0
0
0
0
0
0
0
0.243184
0.243641
0.243917
0.243675
0.243219
0.242993
0.243256
0.245924
0.249466
0.245972
0.22352
0.214966
0.214776
0.217006
0.22282
0.231213
0.236962
0.2402
0.240751
0.240644
0.242534
0.248527
0.24998
0.248153
0.245846
0.244437
0.243818
0.243472
0.243179
0.243095
0.24392
0.247777
0.251702
0.190785
0.141195
0.124574
0.123533
0.127824
0.133392
0.139816
0.146439
0.152385
0.157832
0.164087
0.173168
0.185338
0.201521
0.223529
0.243805
0.241279
0.235042
0.24719
0.249716
0.250569
0.251182
0.251394
0.251531
0.251721
0.251749
0.251702
0.251161
0.247327
0.244678
0.249775
0.251534
0.249656
0.247834
0.24634
0.245046
0.244247
0.244953
0.247411
0.250175
0.250534
0.234086
0.237994
0.24921
0.251674
0.25152
0.251403
0.251402
0.25141
0.251367
0.251199
0.251063
0.250798
0.250655
0.250468
0.25015
0.249684
0.249201
0.249001
0.249128
0.249203
0.248828
0.248031
0.247036
0.24606
0.245214
0.244564
0.244115
0.243787
0.243368
0.242997
0.242769
0.242575
0.242329
0.242225
0.242127
0.241168
0.240281
0.240741
0.241971
0.160124
0.0910023
0.0631944
0.0398259
0.0126098
0.00132223
1.97942e-06
2.183e-09
1.79203e-12
1.05011e-15
4.14882e-19
9.96585e-23
1.4816e-26
1.36337e-30
9.0098e-35
5.71124e-39
4.52879e-43
4.87236e-47
6.7641e-51
1.11789e-54
2.01531e-58
3.78647e-62
7.18773e-66
1.36762e-69
2.63042e-73
5.08472e-77