/*--------------------------------*- C++ -*----------------------------------*\
| =========                 |                                                 |
| \\      /  F ield         | OpenFOAM: The Open Source CFD Toolbox           |
|  \\    /   O peration     | Version:  2.1.1                                 |
|   \\  /    A nd           | Web:      www.OpenFOAM.org                      |
|    \\/     M anipulation  |                                                 |
\*---------------------------------------------------------------------------*/
FoamFile
{
    version     2.0;
    format      ascii;
    class       volScalarField;
    location    "0.002400000";
    object      rhoEu;
}
// * * * * * * * * * * * * * * * * * * * * * * * * * * * * * * * * * * * * * //

dimensions      [1 -1 -2 0 0 0 0];

internalField   nonuniform List<scalar> 
12384
(
59879.8
66239.7
40537.4
-24757.5
-101748
-142163
-161413
-211338
-149856
-28994.7
-17938.8
-18765.8
-9258.26
-2773.96
-66672.7
-46935.1
-53459.2
-96806.4
-125250
-159326
-233637
-238474
-233553
-230806
-226453
-229120
-235275
-239660
-222405
-225450
-150048
-124947
-110312
-90338
-81583.4
-67282
-60163.6
-61509
-64166.4
-67594.5
-70072
-71403.9
-73281.8
-73154.2
-60512.5
-57448.9
-106462
-167573
-238384
-250643
-257799
-257074
-262103
-267140
-263835
-247201
-229901
-240923
-155851
-132020
-125292
-115211
-114815
-103238
-87077.1
-69614.3
-63979.9
-55951.9
-39086
-20573.7
-6491.59
-10961.1
-25679
-36938.7
126475
118303
157519
219586
246975
167099
-36395.9
-106394
-150151
-166602
-174319
-137650
-94997.6
-39537.9
4830.28
48466.7
62102.1
68599
73051.9
47906.1
22751.4
20395.2
7891.8
12127.3
10771.8
7708.57
864.753
-3293.14
-2367.79
1556.82
-100984
-100539
-99247.5
-98131.9
-96832.6
-94966.1
-94341.7
-90449.5
-90880.1
-88061.3
-87449.2
-83966.6
-80175.4
-76035.5
-70323.5
-65635.2
-59337.1
-54352.3
-48594.1
-45083.1
-43553.9
-45934.9
-52783.9
-60485.7
-65301.1
-71476.8
-72568.3
-74412.7
-75562.8
-76716.8
-104981
-104924
-104811
-104775
-104580
-104445
-104449
-104508
-104365
-104508
-104606
-104579
-104890
-104902
-105305
-105421
-105692
-105981
-106258
-106337
-106691
-106715
-107002
-107043
-107248
-107277
-107420
-107435
-107504
-107508
-107576
-107573
-107571
-107569
-107565
-107561
-107558
-107553
-107550
-107545
-107543
-107536
-107539
-107530
-107533
-107524
-107527
-107518
-107520
-107513
-107516
-107508
-107511
-107507
-107505
-107505
-107502
-107505
-107502
-107503
-107489
-107489
-107489
-107490
-107487
-107489
-107489
-107489
-107488
-107488
-107487
-107488
-107488
-107489
-107488
-107489
-107488
-107488
-107486
-107487
-107488
-107487
-107487
-107488
-107488
-107487
-107487
-107487
-107488
-107488
-107487
-107488
-107487
-107487
-107486
-107488
-107488
-107488
-107486
-107487
-107486
-107487
-107488
-107488
-107488
-107488
-107488
-107488
-107487
-107487
-107488
-107487
-107487
-107488
-107488
-107486
-107488
-107487
-107488
-107488
-107487
-107487
-107488
-107488
-107486
-107487
-107488
-107486
-107487
-107488
-107487
-107487
-107488
-107488
-107488
-107488
-107488
-107488
-107487
-107487
-107488
-107488
-107487
-107488
-107488
-107486
-107487
-107488
-107488
-107488
-107488
-107488
-107487
-107488
-107486
-107488
-107488
-107488
-107486
-107487
-107487
-107487
-107488
-107488
-107488
-107488
-107488
-107488
-107486
-107487
-107488
-107487
-107487
-107488
-107488
-107486
-107488
-107487
-107488
-107488
-107489
-107487
-107487
-107489
-107485
-107489
-107488
-107487
-107488
-107487
-107486
-107487
-107487
-107488
-107488
-107487
-107488
-107488
-107486
-107486
-107488
-107487
-107487
-107487
-107488
-107486
-107488
-107488
-107488
-107488
-107488
-107489
-107486
-107488
-107486
-107488
-107487
-107488
-107487
-107487
-107487
-107487
-107488
-107488
-107486
-107487
-107486
-107487
-107488
-107488
-107488
-107488
-107487
-107488
-107487
-107486
-107487
-107488
-107487
-107487
59310.6
54735.1
40989.3
9332.66
-67580.1
-127222
-160791
-230856
-97311.5
-37014
-18365.7
-16390.5
-13009.5
-5720.92
-51259.4
-65109.4
-145551
-219637
-201046
-186813
-197550
-180441
-187559
-193193
-190875
-194319
-192049
-190723
-201667
-186026
-188545
-190166
-188354
-198232
-213699
-175944
-97292.7
-70005.3
-62428
-64248
-70291.9
-68989
-72825.8
-71720.9
-62763.1
-132803
-247131
-244780
-237552
-235812
-246395
-249916
-253832
-253670
-242517
-233643
-221674
-235055
-228018
-235017
-235428
-241175
-243915
-251512
-257306
-191114
-114109
-80934.4
-50496.1
-31810.9
-18569.4
-17484.7
-24844.9
-31119.9
134625
140768
194170
237034
204406
-113999
-236775
-242947
-240257
-246994
-245667
-236052
-239897
-278310
-304148
-157702
-85442.3
-60755.7
19607
42521.5
31047.2
13586.9
8055.06
10601.7
10818.8
9059.21
6798.43
1964.06
921.903
-980.547
-100127
-99844.4
-98761.4
-97476.9
-95637.9
-93399.2
-92124
-88667.1
-91392.9
-84230
-87264.3
-81196.8
-78420.5
-73503.4
-69317.6
-64727.4
-61365.2
-57304.1
-54149.5
-50846.1
-50293.7
-51438.4
-53912.8
-60840.3
-63029.8
-69323.5
-71951.6
-73916.6
-75592.6
-76344.4
-105002
-104798
-104723
-104588
-104405
-104459
-104221
-104147
-104336
-104359
-104509
-104659
-104828
-105110
-105162
-105568
-105673
-105929
-106271
-106328
-106669
-106714
-106988
-107027
-107235
-107268
-107408
-107430
-107507
-107502
-107571
-107575
-107572
-107572
-107563
-107568
-107554
-107560
-107547
-107551
-107541
-107543
-107536
-107534
-107530
-107527
-107523
-107521
-107519
-107516
-107512
-107514
-107506
-107512
-107502
-107510
-107500
-107508
-107501
-107502
-107490
-107490
-107488
-107492
-107487
-107493
-107485
-107493
-107485
-107493
-107485
-107493
-107486
-107492
-107486
-107492
-107486
-107492
-107485
-107491
-107485
-107492
-107484
-107492
-107484
-107491
-107485
-107488
-107488
-107486
-107485
-107489
-107483
-107492
-107484
-107492
-107484
-107492
-107484
-107492
-107485
-107492
-107486
-107491
-107486
-107491
-107485
-107492
-107485
-107492
-107485
-107492
-107484
-107492
-107484
-107491
-107484
-107487
-107488
-107486
-107487
-107487
-107491
-107485
-107492
-107484
-107492
-107485
-107492
-107485
-107492
-107486
-107492
-107485
-107491
-107485
-107491
-107485
-107491
-107486
-107485
-107491
-107485
-107492
-107484
-107492
-107484
-107492
-107485
-107488
-107486
-107489
-107483
-107492
-107484
-107492
-107484
-107492
-107484
-107492
-107485
-107492
-107486
-107491
-107485
-107491
-107486
-107492
-107485
-107491
-107485
-107492
-107484
-107492
-107484
-107491
-107485
-107487
-107488
-107486
-107488
-107487
-107490
-107491
-107485
-107492
-107484
-107492
-107484
-107492
-107484
-107491
-107485
-107491
-107486
-107486
-107491
-107486
-107492
-107485
-107492
-107485
-107492
-107485
-107491
-107484
-107491
-107488
-107488
-107488
-107486
-107489
-107484
-107491
-107484
-107492
-107484
-107492
-107484
-107492
-107484
-107492
-107484
-107492
-107485
-107491
-107485
-107491
-107485
-107491
-107484
-107491
-107484
-107492
-107484
-107492
-107485
-107488
-107487
-107485
47513
41414.1
33802.2
7751.5
-47490.5
-107258
-130540
-162920
-99752.7
-71444.3
-68685.1
-30231.2
-12873.6
-6874.32
-60467.5
-146340
-207346
-200322
-169293
-119803
-117970
-98740.1
-113661
-117061
-119490
-116345
-108695
-103605
-108445
-98929
-103357
-111312
-131221
-146475
-179550
-190792
-199627
-108354
-69845.6
-68353.4
-67284.6
-70939.7
-70845.7
-76163.9
-67816.8
-142341
-247498
-252600
-241606
-232847
-236746
-238111
-236511
-234708
-231352
-230361
-231843
-225076
-234216
-236784
-242097
-246663
-251670
-250573
-240496
-231542
-236178
-249124
-171261
-52785.8
-30641
-24412.7
-21805.6
-19252.8
119188
125534
167854
222515
235382
-26762.8
-247450
-227212
-232143
-249800
-254432
-241678
-202745
-201486
-245460
-235976
-251316
-291890
-184506
-67055.8
7807.84
14562.3
5740.89
9888.76
12639
12228.6
9199.3
6394.12
4627.36
6429.46
-99258.1
-98077
-97503.8
-95066.3
-93409.7
-92547.8
-90068
-88663.3
-88146.2
-83465.7
-88062.2
-78129.2
-77093.4
-71263.1
-66878.9
-63173.9
-59704.1
-58200.5
-56968.5
-57009.4
-56775.7
-55689.5
-56809.9
-57967.3
-63057.7
-67444.3
-71739.8
-73540.6
-75580.3
-76387
-105002
-104772
-104439
-104051
-103859
-103596
-103506
-103867
-103843
-104189
-104462
-104528
-104947
-105135
-105315
-105664
-105889
-106009
-106457
-106422
-106822
-106791
-107092
-107088
-107307
-107308
-107454
-107460
-107537
-107530
-107597
-107593
-107592
-107591
-107587
-107585
-107581
-107576
-107574
-107569
-107569
-107562
-107563
-107553
-107556
-107545
-107550
-107539
-107543
-107534
-107535
-107533
-107530
-107531
-107529
-107527
-107526
-107526
-107525
-107525
-107513
-107512
-107512
-107512
-107512
-107511
-107512
-107510
-107511
-107511
-107512
-107511
-107512
-107509
-107511
-107509
-107511
-107510
-107512
-107510
-107512
-107509
-107511
-107509
-107511
-107509
-107511
-107510
-107511
-107512
-107511
-107509
-107511
-107509
-107511
-107510
-107511
-107509
-107510
-107510
-107511
-107510
-107511
-107510
-107510
-107509
-107510
-107510
-107511
-107510
-107511
-107509
-107511
-107509
-107511
-107509
-107511
-107510
-107511
-107512
-107511
-107510
-107510
-107511
-107509
-107511
-107509
-107511
-107509
-107511
-107510
-107511
-107510
-107511
-107509
-107510
-107510
-107511
-107509
-107510
-107511
-107508
-107511
-107509
-107512
-107509
-107511
-107510
-107511
-107510
-107512
-107509
-107512
-107509
-107511
-107510
-107511
-107509
-107510
-107510
-107511
-107510
-107511
-107509
-107510
-107509
-107510
-107509
-107511
-107510
-107511
-107509
-107511
-107510
-107511
-107509
-107511
-107510
-107511
-107512
-107512
-107512
-107511
-107510
-107511
-107511
-107511
-107509
-107510
-107510
-107511
-107509
-107511
-107510
-107511
-107511
-107510
-107511
-107510
-107511
-107509
-107511
-107510
-107511
-107510
-107511
-107509
-107511
-107511
-107511
-107511
-107510
-107511
-107509
-107511
-107509
-107511
-107509
-107511
-107509
-107510
-107510
-107511
-107509
-107510
-107509
-107510
-107509
-107510
-107509
-107511
-107510
-107510
-107509
-107512
-107509
-107510
-107510
-107510
-107511
39716.6
43050.6
67202
67198.3
18030.3
-38392.4
-14514.3
-29040.7
7890.72
-47555.5
-56566
-70118.6
-29288
-13048.4
-93412
-203598
-180258
-138263
-72924.2
-26480.6
-21140
-6694.56
-18867.3
-20065.8
-16259.9
-7850.75
-2197.18
-6163.36
-6743.83
-1002.44
3831.79
8409.67
2166.55
-29349.7
-78189.5
-135771
-176493
-181755
-196167
-80367
-66814.8
-61686.3
-66000
-65738.2
-64395.5
-135459
-239004
-247701
-242476
-236755
-232473
-229789
-226732
-223162
-218086
-217407
-221037
-222176
-222478
-227052
-233842
-236353
-238914
-236322
-235260
-243964
-256836
-265139
-244963
-165286
-53148.9
-26942.1
-16810.7
-7372.49
102394
90822.6
118047
132527
158040
135175
88047.4
27529.5
13048.9
-18893.8
-121217
-267928
-221645
-166375
-180590
-210585
-232046
-236215
-245928
-270885
-199888
-55701.2
-797.311
3321.64
7790.69
13968.6
16579.2
15675.2
11737.5
8896.15
-96744.9
-96775
-94754.3
-94791.7
-92563.5
-90799.6
-89386.1
-90180.5
-89358.2
-83593.7
-88564.5
-76188.4
-73786.5
-68432.8
-64951.3
-62176.5
-60251.1
-58697.8
-58640.6
-58593.6
-57707.3
-58046.4
-56295.1
-56905.9
-59518.1
-63824
-68544.1
-72891
-73905.9
-75924.1
-105345
-104747
-104098
-103527
-103001
-102685
-102736
-102758
-103221
-103398
-104038
-104271
-104615
-105011
-105235
-105455
-105885
-105906
-106411
-106357
-106791
-106752
-107076
-107063
-107290
-107296
-107444
-107458
-107532
-107535
-107588
-107586
-107588
-107584
-107583
-107582
-107579
-107576
-107572
-107569
-107566
-107561
-107559
-107554
-107552
-107548
-107545
-107542
-107539
-107537
-107532
-107535
-107527
-107533
-107525
-107529
-107523
-107527
-107522
-107524
-107511
-107511
-107509
-107512
-107509
-107512
-107509
-107512
-107508
-107511
-107507
-107511
-107507
-107511
-107507
-107510
-107507
-107510
-107507
-107511
-107507
-107510
-107508
-107511
-107508
-107510
-107507
-107509
-107509
-107509
-107508
-107510
-107506
-107510
-107507
-107511
-107507
-107511
-107506
-107511
-107506
-107511
-107506
-107510
-107507
-107510
-107507
-107510
-107507
-107511
-107506
-107510
-107507
-107511
-107508
-107510
-107507
-107509
-107509
-107509
-107509
-107508
-107510
-107507
-107511
-107508
-107511
-107507
-107511
-107506
-107511
-107507
-107511
-107506
-107509
-107506
-107509
-107508
-107509
-107507
-107507
-107510
-107507
-107511
-107508
-107510
-107506
-107510
-107507
-107509
-107509
-107510
-107506
-107511
-107507
-107511
-107507
-107511
-107506
-107511
-107506
-107511
-107506
-107510
-107506
-107509
-107506
-107509
-107507
-107511
-107506
-107510
-107507
-107511
-107508
-107510
-107508
-107509
-107509
-107509
-107510
-107508
-107509
-107510
-107506
-107512
-107507
-107511
-107507
-107510
-107507
-107511
-107507
-107510
-107507
-107507
-107510
-107507
-107510
-107507
-107510
-107507
-107511
-107507
-107512
-107507
-107510
-107508
-107508
-107510
-107509
-107509
-107507
-107511
-107507
-107511
-107507
-107511
-107507
-107511
-107507
-107511
-107507
-107511
-107507
-107511
-107507
-107511
-107507
-107511
-107506
-107510
-107507
-107511
-107508
-107511
-107506
-107509
-107509
-107510
57558.7
119656
156699
142035
82619.3
44682
53531.3
74949.2
58089.4
35402
-30446.8
-113552
-85654.2
-21436.9
-102688
-176035
-109123
-36624.2
16598.8
33995.2
34402.5
32961.3
28293.8
31408.7
39200.6
45090.7
40678.8
35142.6
34984.9
43353.1
52888.3
59082.2
44754.6
12018.1
-34623.4
-86681
-142989
-182113
-193932
-195941
-69188.2
-64697.5
-67907.1
-69234.6
-59576.1
-115316
-234537
-246873
-242174
-235890
-231694
-229882
-226120
-220110
-202933
-185443
-179179
-168876
-170789
-186477
-205813
-220392
-227511
-227015
-229925
-237326
-242438
-250739
-255428
-253562
-149856
-34324.3
-4781.77
-7292.52
69769.7
63238.5
63203.1
76766.3
61442.3
66797.5
45879.9
20788.1
32969.3
48121.2
31020.9
-113517
-230775
-166014
-162082
-193818
-220780
-231906
-230345
-239001
-252130
-285684
-183534
-25824.4
2714.01
9743.11
21028.1
22182.1
22538.5
18111.9
-96021.7
-94204.7
-95662.5
-92840.9
-94251.3
-91349.6
-91943.4
-89081.4
-91297.9
-77901.8
-81142.4
-66026.7
-65678.2
-61242.2
-60066.2
-59323.9
-58803.7
-58543.7
-58089.4
-58466.4
-59628.8
-58313.1
-58265.3
-57109.5
-57107.2
-59530.9
-64166.7
-69254.3
-73326.4
-74318.2
-105672
-104790
-103672
-102544
-101705
-101368
-101280
-101570
-102024
-102695
-103109
-103811
-104279
-104570
-105152
-105169
-105724
-105742
-106233
-106279
-106646
-106722
-106979
-107049
-107219
-107304
-107389
-107473
-107498
-107542
-107581
-107571
-107582
-107579
-107579
-107576
-107576
-107573
-107570
-107566
-107563
-107560
-107557
-107554
-107549
-107546
-107542
-107540
-107537
-107535
-107530
-107530
-107527
-107527
-107523
-107523
-107522
-107521
-107520
-107520
-107508
-107508
-107508
-107507
-107508
-107507
-107508
-107507
-107508
-107505
-107508
-107506
-107508
-107506
-107508
-107505
-107507
-107505
-107508
-107505
-107507
-107504
-107507
-107505
-107506
-107505
-107506
-107506
-107506
-107506
-107506
-107505
-107506
-107505
-107507
-107505
-107507
-107506
-107506
-107504
-107506
-107505
-107507
-107505
-107507
-107505
-107507
-107504
-107507
-107504
-107506
-107504
-107507
-107505
-107506
-107505
-107506
-107506
-107506
-107506
-107506
-107506
-107505
-107506
-107505
-107507
-107505
-107508
-107504
-107506
-107504
-107507
-107504
-107507
-107505
-107507
-107505
-107507
-107505
-107506
-107507
-107504
-107507
-107505
-107506
-107504
-107506
-107504
-107507
-107505
-107506
-107505
-107506
-107505
-107507
-107505
-107507
-107506
-107507
-107504
-107507
-107505
-107507
-107505
-107507
-107505
-107507
-107504
-107507
-107504
-107507
-107504
-107507
-107505
-107506
-107505
-107506
-107506
-107506
-107506
-107505
-107506
-107505
-107505
-107506
-107505
-107507
-107505
-107506
-107504
-107507
-107505
-107506
-107505
-107506
-107506
-107505
-107506
-107505
-107506
-107504
-107507
-107505
-107507
-107505
-107507
-107505
-107506
-107506
-107505
-107507
-107505
-107507
-107505
-107507
-107504
-107508
-107505
-107508
-107505
-107507
-107505
-107508
-107505
-107507
-107505
-107506
-107504
-107507
-107505
-107506
-107505
-107508
-107506
-107507
-107505
-107507
-107506
-107507
-107507
131894
205945
219887
179884
120930
81328.3
73575.9
63007.4
48047.2
9001.3
-31128.1
-83703.7
-139858
-58718.4
-117069
-130857
-18018.9
41673.4
61400.1
54124
48804.6
51066.1
56212.9
60346.8
58803.9
54861.9
51865.9
49547.3
51583.1
57109.8
61482
54861.4
37827.6
5167.42
-33332.5
-71017.7
-124646
-169409
-192870
-199202
-63418.6
-48464.9
-55092
-54704
-53550.5
-95341.8
-243334
-246699
-244483
-238187
-233407
-230247
-226302
-211335
-169714
-119233
-88444.6
-71356.7
-71580.3
-90712.3
-123708
-164690
-198771
-216138
-223915
-228617
-227275
-232362
-245063
-264708
-263366
-101454
-10864.7
12208.3
50611.8
36590.1
36156.5
28483.4
18805.6
-2580.44
-11371.8
-2083.54
15570.3
29805.5
3045.79
-213534
-253889
-176244
-144750
-182328
-212425
-212485
-212462
-224880
-243368
-268718
-280292
-202392
-45291.5
9526.76
17515.5
29319
30053.8
29749.1
-95233.6
-94669.7
-92499.1
-95714.7
-91781.3
-91930.4
-88852.7
-83449
-84364.6
-64935.9
-61793.7
-46513.6
-50181.5
-49966.2
-52322.9
-54137.9
-55411.6
-56307.3
-56961.4
-57514.1
-56876.3
-58836.5
-58126.4
-57588.2
-56067.6
-56645.6
-59419
-64891
-69996.5
-73065.8
-105149
-104062
-102184
-100756
-100027
-99562.7
-99701.4
-100000
-100739
-101373
-102513
-102859
-103944
-104056
-104842
-104990
-105512
-105638
-106111
-106158
-106605
-106595
-106947
-106958
-107197
-107232
-107381
-107432
-107497
-107521
-107555
-107560
-107559
-107572
-107569
-107574
-107569
-107570
-107564
-107565
-107559
-107558
-107553
-107552
-107545
-107546
-107538
-107540
-107532
-107536
-107525
-107531
-107521
-107526
-107519
-107522
-107518
-107518
-107517
-107517
-107507
-107506
-107506
-107505
-107505
-107505
-107504
-107504
-107504
-107504
-107503
-107504
-107503
-107505
-107504
-107504
-107503
-107504
-107503
-107503
-107502
-107503
-107502
-107504
-107502
-107503
-107503
-107504
-107503
-107503
-107503
-107503
-107502
-107503
-107502
-107503
-107502
-107503
-107503
-107503
-107502
-107503
-107503
-107504
-107503
-107504
-107503
-107504
-107503
-107503
-107502
-107503
-107502
-107504
-107502
-107503
-107503
-107503
-107503
-107503
-107503
-107503
-107504
-107502
-107503
-107502
-107503
-107502
-107503
-107502
-107503
-107502
-107504
-107503
-107504
-107503
-107504
-107503
-107503
-107502
-107502
-107503
-107502
-107503
-107502
-107503
-107502
-107503
-107502
-107504
-107504
-107503
-107502
-107503
-107502
-107503
-107502
-107503
-107502
-107503
-107502
-107503
-107503
-107504
-107503
-107504
-107503
-107504
-107503
-107503
-107502
-107503
-107502
-107504
-107502
-107503
-107503
-107503
-107503
-107503
-107504
-107503
-107503
-107503
-107503
-107503
-107502
-107503
-107502
-107503
-107502
-107504
-107503
-107503
-107503
-107503
-107503
-107502
-107503
-107502
-107503
-107502
-107502
-107503
-107503
-107502
-107503
-107503
-107503
-107504
-107503
-107502
-107502
-107504
-107503
-107503
-107502
-107503
-107503
-107503
-107502
-107504
-107503
-107503
-107503
-107504
-107503
-107503
-107502
-107503
-107502
-107504
-107502
-107504
-107503
-107504
-107502
-107503
-107504
-107504
219720
242210
219033
151498
94300.7
71054.7
56427.5
42591.1
8086.02
-38458.8
-89156.5
-108167
-127398
-80109.1
-127784
-62933.8
47384.3
77426.2
72108.9
65786.8
64213
61006.6
60652.2
57236.8
53546.8
50032.9
47014.4
48251.3
51969.6
56428
58033.3
52498.2
24937.9
-16479.1
-38093.6
-64471.2
-106805
-160860
-190226
-201010
-72726.5
-66795.6
-48018
-48140.9
-40563.8
-89852.7
-248350
-248445
-246606
-241089
-232682
-228710
-221594
-192119
-123587
-51156.4
-6596.23
12240
13857.6
1896.67
-27927.6
-72955
-128084
-170233
-194531
-203499
-213656
-219912
-229833
-248076
-263156
-178902
-34093.6
6900.38
20130.5
25292.1
16152.4
11009.3
-3236.77
-20966.8
-16094.6
2932.13
-22936.1
-89492.1
-146525
-263404
-251735
-196613
-134116
-154866
-175189
-178200
-183156
-193820
-217043
-242549
-268575
-283879
-198155
-37348.1
18203.3
28449.4
38972.3
45351
-94052.1
-92430.4
-93149.6
-89846.6
-88540.5
-86464.2
-81320.5
-68722.8
-59950.9
-37444.8
-29701
-20732.8
-30381.6
-34963.6
-43116.3
-46746.7
-49368.1
-51613.7
-53466
-54242.4
-55888.1
-56195
-56933.4
-56575
-55618.9
-54497.9
-55728.3
-59094.9
-66730.2
-65335.5
-105258
-101143
-98662.5
-97109.9
-96792
-97038.3
-97748.9
-98445.8
-99296.2
-100099
-101234
-102091
-103104
-103721
-104405
-104688
-105318
-105371
-105961
-105978
-106459
-106505
-106826
-106923
-107093
-107215
-107301
-107425
-107445
-107504
-107534
-107513
-107550
-107548
-107562
-107558
-107565
-107558
-107561
-107555
-107558
-107550
-107551
-107544
-107542
-107540
-107534
-107534
-107528
-107528
-107523
-107523
-107519
-107518
-107516
-107513
-107515
-107511
-107512
-107510
-107500
-107501
-107500
-107499
-107500
-107499
-107500
-107498
-107499
-107498
-107498
-107498
-107499
-107498
-107498
-107498
-107498
-107497
-107498
-107497
-107497
-107496
-107498
-107497
-107498
-107497
-107497
-107497
-107497
-107498
-107497
-107497
-107498
-107496
-107498
-107496
-107498
-107497
-107497
-107496
-107497
-107496
-107498
-107497
-107497
-107497
-107498
-107497
-107497
-107496
-107497
-107495
-107498
-107497
-107498
-107497
-107497
-107497
-107497
-107498
-107497
-107497
-107497
-107498
-107496
-107498
-107496
-107498
-107495
-107497
-107496
-107498
-107497
-107498
-107497
-107498
-107497
-107498
-107497
-107497
-107497
-107496
-107498
-107496
-107498
-107496
-107497
-107497
-107498
-107497
-107497
-107497
-107498
-107496
-107498
-107496
-107498
-107496
-107497
-107496
-107497
-107497
-107498
-107497
-107498
-107497
-107498
-107497
-107498
-107496
-107497
-107495
-107498
-107497
-107498
-107497
-107497
-107497
-107497
-107497
-107496
-107497
-107496
-107496
-107497
-107496
-107498
-107496
-107497
-107496
-107497
-107497
-107498
-107497
-107497
-107497
-107497
-107498
-107496
-107498
-107496
-107497
-107496
-107498
-107496
-107498
-107496
-107497
-107497
-107497
-107497
-107497
-107498
-107496
-107498
-107496
-107498
-107496
-107497
-107495
-107498
-107496
-107498
-107496
-107497
-107496
-107497
-107496
-107497
-107496
-107498
-107496
-107498
-107496
-107498
-107497
-107498
-107497
-107497
-107498
251902
244317
175774
104594
65717.7
56240.6
51695.4
17754.1
-20501.5
-60038.4
-93046
-113865
-133740
-153868
-159118
-4911.34
77364.8
76849.1
75294.6
70956.4
65571.6
62562.3
58134.7
54311.1
49217.2
44195.9
43763.8
46608.9
50268
53682.6
51689.5
31481.9
-29434.8
-69643.3
-87908
-97148.1
-123514
-161929
-188384
-194103
-186220
-146296
-39882.4
-40349.5
-32332.3
-74788.9
-243541
-239843
-243877
-236353
-229528
-225825
-217063
-175409
-83815.3
-11472.7
31890.9
49410.4
45301.1
41832.3
35069.7
16333.7
-31315.1
-83905.6
-117502
-138613
-168473
-203106
-218761
-235111
-246613
-240914
-107660
8958.4
2326.53
2742.97
7074.84
2932.34
-16886.1
-22575.3
-40404
-135903
-166348
-254650
-247569
-248459
-243742
-193441
-123531
-122392
-130378
-127929
-133586
-154527
-186230
-217563
-237938
-268219
-282148
-176336
-16506.3
30642
48212.3
77486.6
-93190.5
-85723.8
-84843.5
-74564.7
-67990.6
-54364.6
-36594.9
-21565.2
-6599.36
7016.74
7003.85
4392.77
-9512.22
-20438
-31513
-38735.3
-43362.5
-46180.2
-47991.3
-50647.1
-51749.5
-53428.2
-54149.2
-54692
-54035
-52984.5
-53537.5
-56709
-62464.2
-60753.3
-94844.4
-92235.7
-90093.5
-90633
-92229.1
-93886.4
-95753.2
-97046.4
-98133.7
-98923.7
-100390
-101036
-102518
-102900
-104076
-104227
-105080
-105139
-105796
-105830
-106358
-106377
-106779
-106804
-107091
-107127
-107289
-107381
-107410
-107430
-107343
-107475
-107474
-107537
-107533
-107557
-107548
-107558
-107548
-107555
-107544
-107549
-107542
-107542
-107538
-107536
-107531
-107529
-107524
-107523
-107519
-107518
-107514
-107514
-107511
-107512
-107507
-107508
-107506
-107506
-107496
-107496
-107496
-107495
-107496
-107496
-107494
-107495
-107494
-107494
-107493
-107493
-107494
-107494
-107494
-107494
-107494
-107493
-107493
-107493
-107492
-107494
-107492
-107492
-107492
-107493
-107492
-107492
-107492
-107492
-107492
-107492
-107492
-107492
-107493
-107493
-107491
-107493
-107492
-107492
-107492
-107492
-107493
-107493
-107493
-107494
-107493
-107493
-107492
-107492
-107492
-107493
-107492
-107493
-107492
-107493
-107492
-107492
-107492
-107492
-107492
-107492
-107492
-107492
-107493
-107493
-107492
-107492
-107493
-107492
-107492
-107492
-107493
-107493
-107494
-107493
-107494
-107493
-107492
-107492
-107492
-107493
-107492
-107492
-107492
-107493
-107492
-107492
-107492
-107492
-107492
-107492
-107492
-107492
-107493
-107493
-107491
-107493
-107492
-107492
-107492
-107492
-107493
-107494
-107493
-107494
-107493
-107493
-107492
-107492
-107492
-107493
-107492
-107492
-107492
-107493
-107492
-107492
-107492
-107492
-107492
-107492
-107492
-107492
-107492
-107493
-107492
-107493
-107492
-107493
-107492
-107493
-107493
-107494
-107493
-107494
-107494
-107493
-107493
-107492
-107492
-107492
-107493
-107492
-107493
-107493
-107492
-107492
-107492
-107492
-107492
-107492
-107492
-107492
-107492
-107492
-107492
-107493
-107492
-107492
-107493
-107493
-107492
-107493
-107492
-107493
-107492
-107493
-107492
-107492
-107493
-107493
-107492
-107493
-107492
-107492
-107492
-107492
-107493
-107492
256396
214378
146303
87643.9
60143.1
52106.7
48969.7
2138.8
-24477.3
-46112.2
-65579.2
-80718.4
-104584
-130655
-143431
-129496
-83393.5
38425.4
72323.2
69393.7
67169.2
67403.2
67579.2
63580.2
58988.7
51139.3
44828.7
41965.6
41096.7
42479
47152.5
48968.5
34902
-22901.6
-90906.1
-123824
-136742
-140360
-146238
-167670
-185858
-194629
-212463
-214838
-47236.8
-35708.6
-28406.4
-19067.1
-19748
-44862.6
-157942
-247750
-258510
-249137
-231618
-224612
-212019
-158067
-70486.8
-8146.6
4623.67
3063.5
2346.75
8211.15
20647.5
31235.5
29700.6
13618.9
-20134.3
-56207.6
-98203.3
-157192
-204035
-221653
-230857
-231717
-233711
-95295.9
-38566.7
-20301.2
-17524.8
-1599.16
5189.04
-10692.1
-31371.5
-53907.1
-143748
-239822
-232506
-212215
-214973
-230699
-226208
-189139
-123440
-105785
-101963
-100891
-102675
-108510
-130290
-159333
-202299
-236732
-270900
-274055
-145327
12430.6
45862.9
71992.2
-82.4241
-24681.1
-14234.5
-2968.97
8892.51
25623.5
34927.2
48923.3
52339
64480.8
65233
58282.7
39572.3
24608.1
7365.05
-8516.39
-21457.8
-30263.6
-36486.7
-39045.6
-42173.5
-44362.6
-47371.9
-49453.6
-50907
-51439.9
-51284.3
-51288.5
-50861.3
-51835.5
-53907.9
-39750.3
-53333.6
-70123.2
-75847.4
-73343.1
-77391.2
-82529.1
-87000.8
-91084.7
-93953.3
-95813.2
-97042.8
-98023.4
-99224.6
-100223
-101639
-102361
-103450
-103902
-104655
-104954
-105511
-105699
-106164
-106264
-106641
-106689
-106966
-106983
-107155
-107154
-107103
-106984
-107185
-107201
-107265
-107280
-107472
-107446
-107533
-107511
-107548
-107534
-107550
-107540
-107547
-107537
-107540
-107532
-107531
-107528
-107523
-107522
-107516
-107518
-107511
-107512
-107507
-107507
-107503
-107502
-107499
-107499
-107497
-107496
-107492
-107492
-107490
-107491
-107488
-107490
-107487
-107488
-107487
-107487
-107487
-107487
-107486
-107486
-107486
-107486
-107486
-107486
-107486
-107486
-107486
-107485
-107485
-107485
-107486
-107485
-107485
-107485
-107485
-107484
-107485
-107484
-107483
-107483
-107484
-107485
-107485
-107484
-107485
-107485
-107485
-107485
-107485
-107485
-107485
-107485
-107486
-107485
-107486
-107485
-107486
-107485
-107486
-107485
-107485
-107484
-107485
-107484
-107485
-107485
-107485
-107484
-107485
-107484
-107483
-107483
-107484
-107485
-107484
-107485
-107484
-107485
-107484
-107485
-107484
-107485
-107485
-107486
-107485
-107486
-107485
-107485
-107485
-107485
-107485
-107485
-107485
-107485
-107486
-107485
-107485
-107484
-107484
-107484
-107485
-107484
-107483
-107483
-107484
-107485
-107484
-107484
-107485
-107485
-107485
-107485
-107485
-107485
-107485
-107485
-107486
-107485
-107486
-107485
-107486
-107485
-107486
-107485
-107485
-107484
-107485
-107484
-107485
-107484
-107485
-107484
-107485
-107484
-107483
-107483
-107484
-107485
-107484
-107484
-107484
-107484
-107485
-107484
-107486
-107484
-107485
-107485
-107486
-107485
-107486
-107485
-107485
-107486
-107485
-107486
-107485
-107485
-107484
-107485
-107485
-107485
-107485
-107484
-107485
-107484
-107484
-107484
-107484
-107485
-107484
-107484
-107485
-107484
-107485
-107484
-107486
-107484
-107485
-107485
-107486
-107484
-107485
-107484
-107485
-107485
-107486
-107485
-107485
-107484
-107485
-107485
-107486
-107484
-107485
-107485
-107485
-107484
-107485
-107484
217603
192661
142611
89415.6
56732.6
51072.3
46805.7
2018.37
-12876.6
-20512.4
-32433.1
-38597.6
-53498
-54374.7
-57423.9
-38690.2
6798.53
58349.8
50608.8
53959
56633.1
57055.1
60370.8
62547.7
55088.3
48224.2
42829.3
37904.9
36569.6
35226.9
40690.8
37001.6
9038.27
-80373.9
-134716
-165285
-173217
-171315
-171120
-178571
-187685
-198666
-217721
-235094
-58640.4
-46387.4
-40216.3
-28925.2
-31091.5
-49200.3
-67422.4
-152037
-178421
-249682
-236311
-227126
-213883
-162383
-109155
-89008.3
-103017
-119439
-126800
-111736
-75789.6
-25238
18231.1
37740.4
36709.8
17636
-31467.5
-92209.8
-159932
-203561
-216607
-216731
-230008
-169541
-88161.5
-59952
-41330.9
-40333.4
-38318.6
-57435.7
-95403.7
-101540
-198610
-180426
-176948
-167139
-171086
-187891
-195942
-176719
-135589
-109495
-101659
-99057.1
-99516.6
-99981.9
-95147.7
-98433.7
-127086
-184612
-237720
-269991
-224459
-74830
29672.5
74393.6
76333.4
90124.8
87843.1
88293.3
96295.7
97098.2
117963
116707
123473
107649
97864.6
81419
57505.3
32849.8
16436.2
-1734.02
-13911.4
-23911
-29217.1
-33595.5
-35486.4
-38759.8
-41266.1
-44469.7
-46634.6
-47953.4
-48133.2
-48210.7
-47160.7
-47713.7
-49523.2
-43354
-37183.7
-51755.8
-53155.7
-61112.4
-70099.4
-77884.8
-84301.8
-89130.4
-92588.8
-94589.6
-96074.7
-97016.5
-98444.5
-99294.8
-100990
-101558
-103087
-103369
-104447
-104590
-105364
-105444
-106042
-106084
-106548
-106562
-106906
-106897
-107148
-107067
-107197
-107015
-107240
-107147
-107277
-107326
-107451
-107468
-107518
-107516
-107539
-107529
-107543
-107534
-107538
-107534
-107531
-107530
-107523
-107524
-107518
-107518
-107512
-107513
-107507
-107506
-107501
-107501
-107498
-107497
-107494