/*--------------------------------*- C++ -*----------------------------------*\
| =========                 |                                                 |
| \\      /  F ield         | OpenFOAM: The Open Source CFD Toolbox           |
|  \\    /   O peration     | Version:  2.1.1                                 |
|   \\  /    A nd           | Web:      www.OpenFOAM.org                      |
|    \\/     M anipulation  |                                                 |
\*---------------------------------------------------------------------------*/
FoamFile
{
    version     2.0;
    format      ascii;
    class       volScalarField;
    location    "0.002400000";
    object      Tu;
}
// * * * * * * * * * * * * * * * * * * * * * * * * * * * * * * * * * * * * * //

dimensions      [0 0 0 1 0 0 0];

internalField   nonuniform List<scalar> 
12384
(
583.15
595.874
526.968
350.82
270
270
270
270
270
398.58
406.671
406.874
411.965
415.153
374.823
388.874
382.895
340.353
292.111
270
270
270
270
270
270
270
270
270
270
270
270
282.763
312.539
342.294
359.065
373.48
379.934
379.17
377.3
374.027
372.049
370.791
369.115
369.206
377.975
378
319.673
270
270
270
270
270
270
270
270
270
270
270
270
290.534
299.985
317.311
320.888
335.375
353.29
371.598
376.469
382.907
394.609
405.528
412.985
410.985
403.153
396.409
461.799
457.261
457.526
455.484
448.346
420.15
270
270
270
270
270
289.251
347.047
392.816
418.638
437.073
441.657
443.414
444.523
435.407
426.052
425.189
419.748
421.657
421.042
419.692
416.488
414.659
415.238
417.188
331.202
331.407
332.316
331.994
332.207
331.271
331.991
338.833
340.061
348.195
351.936
358.129
362.783
366.218
369.983
372.156
375.328
377.214
379.761
380.849
381.071
379.394
374.888
371.72
370.781
367.433
368.715
368.034
367.443
366.462
319.641
319.751
319.979
319.769
319.98
319.922
319.033
318.04
318.048
316.744
315.845
315.964
313.815
314.466
311.851
312.041
311.138
309.201
308.39
308.596
306.13
306.981
304.782
305.287
303.601
304.18
302.682
303.296
302.405
302.711
295.074
295.071
294.968
294.973
294.846
294.785
294.719
294.562
294.538
294.353
294.36
294.147
294.192
293.941
294.025
293.78
293.858
293.649
293.713
293.533
293.589
293.435
293.487
293.377
293.357
293.37
293.295
293.329
293.278
293.3
293.031
293.032
293.03
293.03
293.028
293.027
293.022
293.023
293.018
293.021
293.015
293.018
293.011
293.013
293.009
293.01
293.008
293.007
293.008
293.006
293.005
293.005
293.003
293.003
293.002
293.003
293.001
293.002
293.001
293
293
293.001
293
293.002
293.001
293.001
293.001
293.001
293.002
293.002
293.002
293.003
293.001
293.002
293.002
293.002
293.002
293.002
293.003
293.003
293.001
293.002
293.001
293.001
293.001
293.003
293
293.002
293
292.999
293
293.001
293.001
293
293.003
293.001
293.001
293.002
293.002
293.001
293.003
293.003
293.002
293.001
293.002
293.002
293.002
293.001
293.003
293.002
293.002
293.001
293.001
293.001
293.001
293.003
293
293.001
293
293
293
293.001
293
293.001
293.002
293.001
293.001
293.001
293.002
293.003
293.002
293.003
293.002
293.002
293.002
293.002
293.001
293.002
293.003
293.002
293.001
293.002
293.001
293.001
293
293.003
293
293.001
293
293
293
293.001
293.001
293
293.002
293
293.001
293.002
293.001
293.002
293.002
293.003
293.002
293.002
293.001
293.002
293.001
293.001
293.003
293.003
293.001
293.001
293.002
293.001
293.001
293.001
293
293
293
292.999
292.999
292.999
293
293
293.001
293
293
293
293
293.002
293.002
293.002
293.001
293.001
293.003
293.002
293.003
293.002
293.001
293.001
293
293.001
293.001
293
293
293.002
293.001
293
293.001
293
580.354
561.08
516.652
437.199
270
270
270
270
329.208
393.043
406.399
408.002
410.009
413.727
386.436
373.099
270
270
270
270
270
270
270
270
270
270
270
270
270
270
270
270
270
270
270
270
339.788
370.288
377.841
376.72
371.644
372.934
369.513
370.49
375.601
286.807
270
270
270
270
270
270
270
270
270
270
270
270
270
270
270
270
270
270
270
270
321.133
359.623
386.237
398.494
406.164
407.064
403.238
399.442
463.238
457.383
450.879
446.72
433.797
270
270
270
270
270
270
270
270
270
270
270
353.772
378.391
424.594
433.606
429.062
422.12
419.754
420.824
420.871
420
418.956
416.918
416.6
415.864
332.115
331.708
331.762
331.866
331.03
333.265
329.831
340.584
335.538
350.587
350.168
359.52
363.294
367.532
370.08
372.471
373.742
375.468
376.443
377.95
377.645
376.612
375.651
371.007
372.397
368.953
368.892
368.099
367.128
366.607
319.224
319.836
319.763
320.106
320.056
319.262
319.285
319.365
317.457
317.461
315.987
315.653
314.203
313.328
313.134
310.934
310.981
310.191
307.761
308.951
305.941
307.248
304.54
305.726
303.38
304.393
302.598
303.399
302.192
302.807
295.303
295.13
295.228
294.91
295.035
294.73
294.843
294.521
294.639
294.317
294.432
294.116
294.229
293.934
294.013
293.79
293.826
293.665
293.674
293.565
293.539
293.494
293.413
293.444
293.335
293.374
293.308
293.315
293.293
293.295
293.043
293.037
293.04
293.034
293.034
293.03
293.029
293.026
293.023
293.023
293.018
293.02
293.013
293.016
293.011
293.013
293.009
293.011
293.008
293.01
293.006
293.007
293.005
293.006
293.004
293.006
293.003
293.006
293.004
293.005
293.003
293.004
293.003
293.004
293.003
293.004
293.003
293.004
293.003
293.005
293.004
293.005
293.003
293.005
293.003
293.005
293.004
293.005
293.004
293.005
293.004
293.005
293.003
293.005
293.003
293.004
293.003
293.006
293.003
293.004
293.004
293.003
293.004
293.003
293.004
293.003
293.004
293.003
293.005
293.004
293.005
293.003
293.005
293.004
293.006
293.004
293.005
293.004
293.005
293.004
293.004
293.005
293.002
293.004
293.003
293.004
293.002
293.004
293.003
293.006
293.003
293.004
293.003
293.004
293.003
293.004
293.003
293.005
293.003
293.005
293.004
293.005
293.003
293.005
293.004
293.005
293.003
293.005
293.004
293.005
293.003
293.005
293.003
293.004
293.003
293.004
293.003
293.006
293.003
293.004
293.006
293.004
293.001
293.004
293.003
293.005
293.003
293.004
293.003
293.005
293.004
293.005
293.003
293.006
293.004
293.004
293.005
293.003
293.004
293.003
293.004
293.003
293.004
293.002
293.004
293.002
293.004
293.001
293.003
293.005
293.002
293.003
293.001
293.004
293.002
293.004
293.002
293.004
293.003
293.005
293.003
293.004
293.003
293.004
293.003
293.005
293.003
293.005
293.003
293.005
293.003
293.004
293.003
293.004
293.002
293.004
293.002
293.004
293.003
293.003
545.771
515.272
488.346
431.533
322.085
270
270
270
275.75
340.99
363.798
398.975
409.744
413.05
378.685
270
270
270
270
270
270
270
270
270
270
270
270
270
270
270
270
270
270
270
270
270
270
318.334
369.251
372.065
374.055
370.962
371.451
366.37
369.916
270
270
270
270
270
270
270
270
270
270
270
270
270
270
270
270
270
270
270
270
270
270
270
270
383.339
398.846
402.036
403.929
405.281
457.296
450.701
445.133
449.24
436.757
270
270
270
270
270
270
270
270
270
270
270
270
270
270
370.866
418.447
422.333
418.809
420.715
421.655
421.257
419.782
418.586
417.996
419.018
331.189
332.481
331.559
331.914
330.971
329.085
329.018
335.902
333.866
349.876
347.533
360.179
362.925
368.225
370.801
372.276
373.425
373.506
373.841
373.265
373.234
374.155
373.469
373.987
371.76
370.769
368.867
368.507
366.873
366.356
319.171
319.134
319.738
320.44
320.403
320.915
320.495
318.821
319.175
317.047
316.342
316.242
314.056
313.492
313.465
310.897
310.926
310.222
307.909
308.728
306.037
307.037
304.624
305.507
303.414
304.292
302.546
303.322
302.108
302.667
295.126
295.252
295.011
295.167
294.878
294.967
294.687
294.738
294.476
294.504
294.283
294.253
294.114
294.015
293.966
293.809
293.82
293.654
293.67
293.558
293.496
293.513
293.381
293.432
293.316
293.361
293.285
293.309
293.275
293.281
293.028
293.032
293.026
293.029
293.023
293.024
293.019
293.02
293.016
293.014
293.013
293.01
293.01
293.008
293.008
293.005
293.006
293.003
293.003
293.001
293.001
293.001
293
292.999
292.999
292.999
292.998
292.997
292.998
292.997
292.997
292.997
292.997
292.997
292.998
292.997
292.997
292.998
292.999
292.998
292.998
292.998
292.998
292.999
292.998
292.999
292.999
292.998
292.998
292.998
292.998
292.999
292.998
292.997
292.997
292.998
292.997
292.996
292.997
292.996
292.996
292.998
292.997
292.997
292.998
292.997
292.997
292.998
292.999
292.998
292.998
292.998
292.998
292.998
292.998
292.999
292.998
292.998
292.999
292.998
292.998
292.999
292.997
292.997
292.997
292.998
292.997
292.997
292.997
292.996
292.997
292.998
292.997
292.997
292.998
292.997
292.997
292.998
292.999
292.998
292.998
292.998
292.998
292.999
292.999
292.999
292.999
292.999
292.998
292.998
292.998
292.999
292.997
292.997
292.997
292.998
292.997
292.997
292.997
292.996
292.996
292.996
292.997
292.997
292.997
292.997
292.998
292.998
292.999
292.998
292.998
292.998
292.998
292.998
292.998
292.998
292.998
292.998
292.998
292.997
292.998
292.997
292.997
292.997
292.997
292.997
292.998
292.997
292.997
292.996
292.997
292.996
292.997
292.997
292.997
292.997
292.996
292.997
292.997
292.998
292.998
292.997
292.997
292.998
292.998
292.998
292.998
292.998
292.998
292.998
292.997
292.997
292.998
292.998
292.996
292.998
292.998
292.996
292.997
292.995
514.723
513.849
558.725
558.6
453.062
338.884
387.558
354.357
431.532
320.498
338.96
355.566
399.251
409.812
343.898
270
270
270
270
337.686
353.186
395.25
359.779
357.124
368.326
392.544
409.038
397.219
395.531
412.842
426.397
437.694
420.834
334.942
270
270
270
270
270
357.655
373.844
378.744
375.301
375.788
372.294
278.364
270
270
270
270
270
270
270
270
270
270
270
270
270
270
270
270
270
270
270
270
270
270
270
270
383.207
399.839
404.88
409.978
449.159
438.352
435.766
433.605
443.115
417.811
399.9
389.228
389.753
373.794
270.784
270
270
270
270
270
270
270
270
270
270
380.171
415.107
417.64
419.616
421.904
422.779
422.314
420.772
419.77
334.183
332.23
333.842
329.868
329.031
325.892
328.473
330.948
332.094
346.704
345.311
358.031
362.208
366.976
369.71
371.201
371.453
371.405
370.71
370.648
371.424
371.109
373.209
373.71
373.405
372.497
370.862
368.356
367.992
366.05
317.93
318.759
319.477
320.056
321.115
321.345
320.593
320.699
318.761
319.111
316.115
316.138
315.013
312.989
312.902
311.811
310.125
310.549
307.699
308.946
305.894
307.175
304.502
305.621
303.414
304.297
302.616
303.21
302.138
302.503
295.501
295.28
295.445
295.066
295.202
294.859
294.928
294.62
294.683
294.387
294.45
294.167
294.232
293.969
294.033
293.804
293.854
293.667
293.699
293.561
293.524
293.507
293.406
293.43
293.336
293.363
293.298
293.304
293.289
293.278
293.048
293.039
293.044
293.029
293.036
293.024
293.029
293.019
293.024
293.016
293.016
293.015
293.012
293.012
293.01
293.01
293.007
293.008
293.006
293.005
293.004
293.003
293.001
293.001
293
293.001
293
293.001
293
293
292.999
292.999
293
293
293
292.999
292.999
292.999
293.001
293
293.001
293
293.002
293.001
293.001
293.001
293.001
293.001
293.001
293
293.001
293
292.999
292.999
292.999
293
293
293
292.999
292.999
293
292.999
293
292.999
292.999
292.999
292.999
292.999
293
293.001
293
293.001
293
293.002
293.002
293.002
293.002
293
293.001
293.001
293.001
293.001
292.999
292.999
292.999
293
293
293
293
293
292.999
293
293
292.999
292.999
292.999
292.999
292.999
293.001
293
293.001
293
293.002
293.001
293.001
293.001
293.001
293.001
293
293
293.001
293
292.999
292.999
292.999
293
292.999
293
292.999
292.999
293
292.999
292.998
293
293
292.998
292.999
292.999
293
293.001
293
293
293.001
293
293.001
293.001
293
293
293
293
293
293
292.999
292.999
292.998
292.999
292.999
292.998
293
292.998
292.998
293
292.999
292.999
292.999
292.998
292.999
292.999
293
292.999
293
292.999
293
292.999
293
293
293
293
293
292.999
293
293
292.999
292.999
292.999
292.999
293
292.999
292.998
292.998
549.771
691.231
799.237
771.041
619.913
522.609
557.291
605.485
566.596
503.822
344.834
270
334.483
404.655
325.968
270
270
305.465
459.209
515.251
516.023
512.706
498.955
509.032
531.279
548.061
536.393
521.254
520.681
543.709
568.234
584.359
546.183
452.833
306.255
270
270
270
270
270
370.929
376.374
373.874
372.561
375.115
308.564
270
270
270
270
270
270
270
270
270
270
270
270
270
270
270
270
270
270
270
270
270
270
270
270
270
394.469
409.971
409.173
434.73
427.805
421.255
424.755
423.248
428.452
423.099
414.566
420.885
423.039
408.477
293.183
270
270
270
270
270
270
270
270
270
270
270
401.067
416.573
419.768
424.187
424.435
424.742
423.079
334.266
336.122
331.329
332.501
326.122
329.359
323.902
331.838
328.854
345.509
344.835
357.884
359.017
364.884
367.282
369.296
369.983
369.734
369.457
369.045
368.111
370.131
370.391
372.322
373.858
374.074
372.773
370.571
367.887
366.899
316.121
317.17
318.065
319.818
321.389
321.668
322.322
321.274
320.691
318.57
318.694
315.669
315.268
314.353
311.923
312.899
309.854
311.061
307.963
308.949
306.447
306.939
304.949
305.339
303.839
303.742
303.151
302.639
302.604
302.146
295.363
295.646
295.196
295.488
295.05
295.211
294.82
294.922
294.555
294.654
294.312
294.405
294.091
294.181
293.896
293.985
293.727
293.814
293.586
293.673
293.472
293.555
293.392
293.454
293.332
293.376
293.29
293.32
293.272
293.287
293.041
293.05
293.037
293.045
293.033
293.037
293.027
293.028
293.021
293.023
293.016
293.018
293.013
293.011
293.011
293.009
293.009
293.007
293.006
293.005
293.005
293.004
293.003
293.002
293.002
293.001
293.002
293
293
293.001
293.001
292.999
293.001
293
293.001
293
293.001
292.999
293.002
293.001
293.002
293.001
293.001
293.001
293.001
293.001
293.001
293.001
293.001
293.001
293.002
293.001
293
293
293.001
293
293.001
292.999
292.999
293
292.999
293
292.999
293.001
293
293
293
293
293.001
293.002
293.001
293.001
293.001
293.001
293.001
293.002
293.001
293.001
293.001
293.001
293.001
293.001
293.001
293
293.001
293
293.001
293
293
292.999
293.001
292.999
293.001
293
293
293
293
292.999
293.001
293.001
293.001
293.001
293.001
293.001
293.001
293.001
293.001
293.001
293.001
293.001
293.001
293.001
293
293
293.001
292.999
293
292.999
292.999
293
293
293
293.001
293
293.001
293
293
293
293.001
293.001
293.001
293
293.002
293.001
293.001
293.001
293.001
293.002
293.001
293.002
293.001
293.001
292.999
293
292.999
293
292.999
293
292.999
293
292.999
292.999
293
292.999
293
293
293
292.999
292.999
293
293.001
293.001
293
293.001
293.001
293.001
293.001
293.001
293.001
293.001
293.001
293
293
292.999
293
292.999
293
292.999
292.999
292.999
726.633
940.054
1003.63
917.104
756.98
654.963
631.266
600.565
545.024
437.111
339.889
270
270
377.874
285.867
270
351.094
522.382
588.253
572.864
559.385
564.806
576.725
584.352
578.514
567.771
560.685
555.58
562.068
577.051
588.956
573.15
528.364
432.249
305.92
270
270
270
270
270
376.331
388.529
384.216
384.666
379.011
333.953
270
270
270
270
270
270
270
270
270
270
270
270
270
270
270
270
270
270
270
270
270
270
270
270
270
337.997
405.554
417.509
425.544
416.674
414.219
410.656
415.997
411.444
409.164
410.865
413.731
409.327
389.666
270
270
270
270
270
270
270
270
270
270
270
270
270
388.156
418.81
422.034
426.341
426.405
426.32
338.323
335.969
339.151
329.846
332.822
326.799
330.36
333.343
328.509
346.773
345.01
358.237
356.744
362.112
364.51
366.54
368.11
368.806
368.568
367.815
368.696
367.427
369.185
370.565
373.055
374.268
374.294
372.075
369.224
367.064
315.559
316.479
318.135
319.755
320.522
322.46
322.352
322.565
321.231
320.721
317.826
318.439
314.389
315.634
312.293
312.723
310.614
310.639
308.47
309.033
306.292
307.48
304.695
305.759
303.535
304.256
302.655
303.101
302.103
302.293
296.043
295.654
295.996
295.337
295.59
295.061
295.209
294.77
294.871
294.501
294.582
294.265
294.322
294.063
294.063
293.907
293.833
293.773
293.647
293.659
293.502
293.548
293.403
293.454
293.348
293.358
293.31
293.294
293.287
293.267
293.07
293.051
293.06
293.041
293.048
293.034
293.037
293.027
293.028
293.021
293.022
293.016
293.016
293.013
293.009
293.01
293.007
293.007
293.005
293.006
293.004
293.004
293.002
293.002
293.001
293.001
293
293
292.999
293
292.999
292.999
292.999
292.999
293
293
293
293
292.999
293.001
293.001
293.001
293.001
293
293.001
293
293.001
293
293.001
293.001
293.001
293
293
293
293
292.999
292.999
292.999
292.999
292.999
292.999
292.999
292.999
292.999
292.999
293
293
293
293
293.001
293.001
293.001
293
293.001
293
293.001
293
293.001
293
293.001
293.001
293
293
293
293
292.999
292.999
292.999
292.999
292.999
292.998
292.999
293
292.999
293
293
293
293
293
293.001
293.001
293.001
293.001
293
293
293
293.001
293
293.001
293.001
293.001
293
293
292.999
292.999
292.999
292.999
292.999
292.999
292.999
292.999
292.999
292.999
292.999
292.999
293
293
293
293
293.001
293.001
293
293
293
293.001
293.001
293
293.001
293
293
293
292.999
293
292.999
292.999
293
292.999
292.999
292.999
292.999
292.998
293
292.999
292.999
292.999
292.999
293
293
292.999
293
293
293
293
293
293
293
293
293.001
293
293
293
293
293
292.999
292.999
292.999
292.999
292.999
292.998
292.998
972.351
1068
1023.43
857.542
701.725
629.666
586.065
537.093
431.391
324.328
270
270
270
348.466
270
270
535.54
622.485
610.614
595.628
591.225
581.205
576.954
566.41
556.214
547.304
540.452
544.728
556.156
569.817
576.281
564.869
490.802
362.161
294.173
270
270
270
270
270
367.085
372.67
389.239
389.126
386.527
338.054
270
270
270
270
270
270
270
270
270
276.268
395.282
451.233
456.132
420.657
330.288
270
270
270
270
270
270
270
270
270
270
270
391.631
413.51
412.187
413.306
408.017
409.495
408.905
403.75
405.006
407.232
384.912
313.619
270
270
270
270
270
270
270
270
270
270
270
270
270
270
270
392.249
421.005
424.25
427.803
428.646
341.329
344.748
338.896
343.065
335.878
331.972
326.105
329.203
330.724
348.559
339.839
358.874
353.904
361.343
361.701
365.052
366.913
367.684
367.756
368.138
366.992
367.575
367.845
369.273
371.127
373.123
373.446
372.672
369.096
370.604
312.546
315.597
318.235
319.084
321.151
322.189
323.176
322.728
322.525
321.114
319.849
318.013
316.659
314.757
313.658
312.795
310.695
311.353
308.353
309.568
306.502
307.484
305.175
305.283
304.181
303.569
303.198
302.345
302.435
301.776
295.927
296.324
295.536
296.04
295.315
295.614
294.973
295.217
294.639
294.87
294.369
294.573
294.137
294.309
293.922
294.078
293.745
293.881
293.606
293.713
293.493
293.58
293.405
293.46
293.358
293.346
293.329
293.284
293.288
293.261
293.057
293.075
293.049
293.063
293.043
293.048
293.034
293.037
293.026
293.028
293.02
293.02
293.014
293.015
293.011
293.01
293.009
293.007
293.006
293.005
293.005
293.004
293.003
293.001
293.002
293
293.002
293
293
292.999
292.999
292.999
292.999
293
293
292.999
293
292.999
293
293
293.001
293
293.001
293
293.001
293
293.001
293
293.001
293
293.001
293
293
292.999
293
292.999
293
292.999
292.999
292.999
292.999
292.999
292.999
292.999
292.999
292.999
292.999
293
293
293.001
293
293
293
293
293
293
293
293
293
293.001
293.001
293
293
292.999
293
292.999
293
292.999
292.999
292.999
292.999
292.999
292.999
293
292.999
292.999
293
293
293
293
293.001
293
293
293
293
293
293
293
293
293
293.001
293
293
292.999
292.999
292.999
293
292.999
292.999
292.999
292.999
293
293
293
293
292.999
293
293
293
293
293.001
293
293
293
293.001
293
293
293
293
293
293.001
293.001
293
293
292.999
293
293
292.999
292.999
292.999
293
292.999
292.999
293
292.999
293
293
292.999
293.001
293.001
293.001
293
293
293.001
293.001
293.001
293.001
293.001
293.001
293
293
293
293
292.999
292.999
292.998
292.999
292.999
292.999
292.999
1082.94
1081.48
921.281
729.911
612.526
578.36
563.255
462.924
355.067
277.648
270
270
270
270
270
372.063
619.637
617.285
612.572
600.84
587.094
578.035
565.923
554.928
540.946
528.134
527.545
536.193
547.728
558.575
556.133
505.371
318.959
270
270
270
270
270
270
270
270
270
393.905
394.306
389.717
351.988
270
270
270
270
270
270
270
270
270
381.367
508.55
555.468
541.691
530.001
512.212
461.832
318.475
270
270
270
270
270
270
270
270
270
318.02
410.039
407.661
405.072
408.41
409.902
404.188
403.322
388.26
271.479
270
270
270
270
270
270
270
270
270
270
270
270
270
270
270
270
270
270
401.708
423.249
429.014
433.515
344.92
349.445
351.263
349.468
347.61
342.539
341.758
336.327
325.101
352.765
335.509
357.175
352.56
360.285
360.903
363.329
364.8
366.301
367.643
367.085
367.455
366.817
367.319
367.896
369.744
371.612
372.827
372.608
370.593
368.831
315.149
318.538
315.089
320.555
320.187
322.846
323.18
323.616
322.496
322.297
319.727
320.036
315.968
317.111
312.764
314.332
310.381
311.897
308.455
309.639
306.701
307.556
305.078
305.855
303.522
304.476
302.383
303.273
301.654
302.271
297.056
295.628
296.888
295.406
296.159
295.225
295.576
294.932
295.061
294.684
294.619
294.437
294.339
294.202
294.062
294.007
293.848
293.833
293.681
293.687
293.539
293.57
293.429
293.468
293.348
293.388
293.293
293.324
293.259
293.277
293.107
293.056
293.086
293.049
293.061
293.041
293.046
293.033
293.033
293.025
293.025
293.018
293.018
293.013
293.012
293.009
293.008
293.007
293.005
293.006
293.003
293.003
293.001
293.002
293
293
293
293
292.999
292.999
292.998
292.999
292.999
292.999
292.998
292.998
293
292.999
292.999
293
293
293
292.999
293
292.999
292.999
292.999
293
293
293
293
292.999
292.999
292.999
292.999
292.998
292.999
292.999
292.998
292.999
292.999
292.998
292.999
292.999
292.998
292.998
292.999
292.999
292.999
293
293
293
293
292.999
292.999
292.999
292.999
292.999
293
293
293
292.999
292.999
292.999
292.999
292.998
292.999
292.999
292.998
292.999
292.998
292.999
292.999
292.999
292.998
292.998
293
292.999
292.999
293
293
293
292.999
292.999
292.999
292.999
292.999
292.999
293
293
293
292.999
292.999
292.999
292.999
292.998
292.999
292.999
292.998
292.999
292.999
292.999
292.999
292.999
292.999
292.998
292.999
292.999
292.999
292.999
293
293
292.999
292.999
292.999
292.999
292.999
292.999
293
292.999
293
292.999
292.999
292.999
292.998
292.998
292.999
292.999
292.999
292.998
292.999
292.999
292.999
292.999
292.998
292.999
292.999
292.999
292.999
293
292.999
293
292.999
292.999
293
293
293
293
293
293
292.999
292.999
292.999
292.999
292.999
292.999
292.998
292.998
292.998
292.998
1101.91
1011.26
842.002
675.197
586.643
557.058
548.353
413.378
342.578
299.282
270
270
270
270
270
270
270
491.151
604.48
598.754
591.08
592.786
593.164
582.108
568.541
546.111
528.027
520.246
518.688
523.587
536.173
541.978
510.061
337.05
270
270
270
270
270
270
270
270
270
270
389.316
396.408
399.865
403.347
396.52
380.137
270
270
270
270
270
270
270
270
270
391.513
428.546
424.913
422.746
439.231
472.198
499.608
496.205
452.516
348.899
270
270
270
270
270
270
270
270
305.824
380.676
403.468
401.282
408.45
411.685
406.303
397.106
381.22
270
270
270
270
270
270
270
270
270
270
270
270
270
270
270
270
270
270
270
270
278.544
409.189
417.965
409.228
356.966
378.739
391.443
390.654
381.761
383.162
369.121
363.239
354.723
349.216
331.272
348.603
340.167
353.768
353.397
359.415
359.93
362.856
363.531
365.674
366.234
367.292
366.725
366.571
366.418
367.068
368.16
369.193
369.66
369.485
367.166
359.748
322.512
326.784
324.994
321.326
322.69
320.525
322.708
322.683
324.019
323.593
323.444
322.208
321.29
319.761
317.488
316.743
314.087
313.843
311.449
311.362
309.225
309.361
307.056
307.65
305.06
306.059
303.419
304.421
302.165
302.445
301.112
300.534
298.399
299.198
296.729
297.937
296.319
297.065
295.672
296.247
295.213
295.607
294.839
295.074
294.551
294.64
294.279
294.344
294.02
294.114
293.809
293.923
293.649
293.758
293.531
293.607
293.434
293.489
293.351
293.394
293.29
293.312
293.231
293.237
293.161
293.182
293.093
293.131
293.072
293.094
293.053
293.066
293.041
293.044
293.034
293.031
293.025
293.023
293.018
293.015
293.015
293.01
293.011
293.007
293.008
293.005
293.006
293.003
293.003
293.002
293.002
293.001
293.001
293.001
293
293
292.998
292.998
293
292.999
293
293
292.999
292.999
293
292.999
293
293
293.001
293
293
293
293
293
293
293
293
293
293
293
293
292.999
292.999
292.999
292.999
293
292.999
292.999
292.998
292.998
293
292.999
293
292.999
292.999
292.999
292.999
293
293
293
293
293
293
293
293
293
293
293
293
293
293
293
292.999
292.999
293
292.999
293
293
292.999
293
292.998
292.997
293
292.999
293
293
292.999
292.999
292.999
292.999
293
293
293
293
293
293
293
293
293
293
293
293
293
293
293
293
292.999
292.999
293
293
292.999
293
292.998
292.997
293
292.999
293
293
293
292.999
292.999
292.999
293
293
293
293
293
293
293
293
293
293
293
293
292.999
293
292.999
293
292.999
292.999
292.999
293
292.999
293
292.997
292.998
293
292.999
293
292.999
293
293
293
292.999
293
293
293.001
293
293
293.001
293.001
293.001
293.001
293.001
293
293
293.001
293
293
292.999
293
293
293
292.999
292.999
292.999
292.996
292.997
1003.36
949.288
822.582
668.281
567.435
545.699
536.4
411.719
366.98
346.137
300.556
270.597
270
270
270
270
361.644
557.042
543.542
556.188
566.226
568.824
580.881
585.791
562.486
539.425
522.156
508.663
505.854
503.159
516.273
509.493
431.462
270
270
270
270
270
270
270
270
270
270
270
377.965
383.579
384.948
390.764
391.132
383.652
367.31
270
270
270
270
270
270
270
270
270
270
270
270
270
270
340.18
463.211
513.324
511.106
459.009
308.663
270
270
270
270
270
270
270
304.935
352.241
378.448
382.317
385.092
371.51
332.764
305.933
270
270
270
270
270
270
270
270
270
270
270
270
270
270
270
270
270
270
270
270
270
342.318
405.357
407.019
368.311
375.072
364.843
360.823
369.405
358.181
364.239
352.825
349.821
336.752
340.986
343.407
344.524
347.825
357.325
357.079
361.078
361.149
363.499
363.988
365.975
366.172
366.728
366.149
366.002
366.02
366.594
366.944
368.068
366.567
362.089
352.181
335.041
330.38
319.932
321.343
320.799
324.435
323.19
324.597
323.858
324.214
323.152
323.122
320.845
321.101
317.092
318.285
313.482
315.113
310.806
312.41
308.642
310.166
306.685
308.163
304.901
306.254
303.373
304.507
301.781
303.058
300.373
301.624
298.083
299.812
296.847
297.973
296.531
296.983
295.889
296.124
295.424
295.47
294.989
295.056
294.568
294.739
294.234
294.451
293.981
294.193
293.791
293.969
293.639
293.787
293.517
293.642
293.419
293.518
293.342
293.411
293.273
293.335
293.213
293.267
293.147
293.2
293.093
293.132
293.079
293.09
293.062
293.061
293.046
293.048
293.03
293.037
293.022
293.027
293.016
293.018
293.012
293.014
293.007
293.01
293.005
293.006
293.003
293.004
293.002
293.002
293.001
293.001
293
292.999
293
292.999
292.999
292.999
292.999
292.999
292.999
292.999
292.999
292.999
292.999
292.999
293
292.999
292.999
293
293
293
293
293
293
293
292.999
292.999
292.999
292.999
292.999
292.999
292.999
292.999
292.998
292.998
292.998
292.998
292.998
292.998
292.998
292.998
292.999
292.998
292.999
292.999
292.999
292.999
292.999
292.999
292.999
292.999
293
293
293
293
293
292.999
293
292.999
292.999
293
293
292.999
292.999
292.999
292.999
292.998
292.998
292.998
292.998
292.998
292.998
292.999
292.998
292.999
292.999
292.999
292.999
292.999
292.999
292.999
292.999
292.999
293
293
293
293
292.999
293
292.999
292.999
292.999
293
293
292.999
292.998
292.999
292.999
292.999
292.998
292.998
292.998
292.998
292.998
292.999
292.999
293
292.999
292.999
292.999
292.999
293
292.999
292.999
292.999
292.999
293
293
293
293
292.999
292.999
292.999
292.999
292.999
292.999
292.999
292.999
292.999
292.999
292.999
292.999
292.999
292.999
292.998
292.999
292.999
292.999
293
292.999
292.999
292.999
292.999
292.999
293
293
293
292.999
293
292.999
292.999
292.999
292.999
293
293
293
293
292.998
292.998
292.999
292.998
292.999
292.998
292.998
292.998
292.999
292.997
879.122
877.214
771.912
618.056
540.746
537.18
532.838
452.134
384.341
411.104
399.096
405.377
376.288
396.724
399.403
443.107
496.759
511.821
540.571
532.658
557.209
574.545
553.972
546.105
541.23
519.174
494.544
480.112
491.259
509.472
498.907
484.429
349.211
270
270
270
270
270
270
270
270
270
270
270
270
270
270
270
270
270
270
270
270
270
270
270
270
270
270
270
270
270
270
270
270
270
331.602
473.432
524.052
522.015
474.636
304.797
270
270
270
270
270
270
270
270
270
270
270
270
270
270
270
270
270
270
270
270
270
270
270
270
270
270
270
270
270
270
270
270
270
270
270
270
334.767
394.847
396.301
386.086
379.933
370.462
359.141
365.515
353.037
358.541
344.545
352.274
341.723
341.55
353.013
349.605
357.868
357.574
359.718
361.768
362.379
364.207
364.656
366.088
366.028
366.13
365.653
365.163
364.999
365.838
364.028
361.749
360.283
355.993
333.13
343.681
324.292
329.404
325.3
323.557
325.173
324.191
325.151
324.083
324.033
322.548
322.374
320.233
318.471
318.046
314.489
314.931
311.408
312.284
309.044
309.994
307.092
307.886
305.273
306.069
303.484
304.523
301.816
302.936
300.358
301.377
298.659
299.698
297.407
298.059
296.815
297.025
296.108
296.257
295.489
295.695
294.978
295.229
294.575
294.828
294.264
294.491
294.024
294.202
293.842
293.964
293.688
293.777
293.559
293.623
293.45
293.505
293.356
293.416
293.278
293.334
293.218
293.261
293.158
293.2
293.106
293.138
293.085
293.1
293.062
293.077
293.045
293.058
293.036
293.038
293.029
293.026
293.022
293.02
293.015
293.015
293.01
293.011
293.008
293.007
293.006
293.005
293.005
293.002
293.003
293.002
293.001
293
293
292.999
293
293
292.999
293
292.999
293
293
293
293
293.001
293.001
293
293.001
293.001
293.001
293.001
293.001
293.001
293.001
293.001
293.001
293
293.001
293.001
293.001
293
293
293
293
292.998
293
292.998
292.999
292.999
292.998
293
292.999
293
293
293
293
293.001
293.001
293
293.001
293.001
293.001
293.001
293.001
293.001
293.001
293.001
293
293.001
293.001
293.001
293.001
293
293
293
293
292.999
293
292.999
292.999
292.999
292.999
292.999
292.999
293
293
293.001
293
293.001
293.001
293
293.001
293
293.001
293.001
293.001
293.001
293.001
293.001
293.001
293
293.001
293.001
293.001
293
293
293
293
292.999
293
292.999
293
292.999
292.999
293
292.999
293
293
293
292.999
293.001
293.001
293.001
293
293
293.001
293.001
293.001
293.001
293.001
293.001
293
293.001
293.001
293.001
293.001
293.001
293.001
293.001
293.001
293
293
293
293
293
293
293
293
293
293
293
293
293
293.001
293.001
293.001
293.001
293.001
293
293.001
293.001
293.001
293.001
293.001
293.001
293.001
293.001
293.001
293
293.001
293
293
293
292.999
292.999
293
292.999
720.843
761.615
684.407
572.605
525.57
534.916
541.786
525.967
480.072
472.633
467.947
468.628
446.983
460.574
458.088
473.493
492.418
494.425
504.519