/*--------------------------------*- C++ -*----------------------------------*\
| =========                 |                                                 |
| \\      /  F ield         | OpenFOAM: The Open Source CFD Toolbox           |
|  \\    /   O peration     | Version:  2.1.1                                 |
|   \\  /    A nd           | Web:      www.OpenFOAM.org                      |
|    \\/     M anipulation  |                                                 |
\*---------------------------------------------------------------------------*/
FoamFile
{
    version     2.0;
    format      ascii;
    class       volVectorField;
    location    "0.002400000";
    object      U;
}
// * * * * * * * * * * * * * * * * * * * * * * * * * * * * * * * * * * * * * //

dimensions      [0 1 -1 0 0 0 0];

internalField   nonuniform List<vector> 
12384
(
(-4.01627 -4.74125 0)
(3.17284 -0.500663 0)
(8.41963 -9.63333 0)
(11.3263 -2.44889 0)
(5.91875 -14.0726 0)
(-1.26867 -3.22224 0)
(16.7635 -26.8465 0)
(25.2198 4.42033 0)
(61.3871 -4.14896 0)
(56.9307 -4.49072 0)
(38.4384 -2.04098 0)
(20.3203 -0.801811 0)
(5.58445 0.812912 0)
(6.68668 -0.345774 0)
(-1.87475 1.01391 0)
(-34.9211 -1.70154 0)
(-47.3555 6.82228 0)
(-15.4077 12.0667 0)
(16.2149 22.728 0)
(20.1259 6.00232 0)
(-0.451241 -6.93909 0)
(7.74351 -20.0386 0)
(0.768549 5.28127 0)
(-11.7942 5.69102 0)
(-1.18892 20.9944 0)
(3.28861 6.12993 0)
(6.60968 19.572 0)
(-1.71118 -42.0734 0)
(-90.3189 -19.7111 0)
(-28.8055 78.4985 0)
(60.5948 25.4101 0)
(68.6647 11.835 0)
(79.9101 12.2049 0)
(61.3724 -7.55228 0)
(33.745 -1.5896 0)
(26.0464 -3.46085 0)
(20.8561 -0.535134 0)
(14.2714 3.20464 0)
(4.61171 4.89229 0)
(2.86351 5.65273 0)
(1.61253 1.23209 0)
(4.99878 5.1207 0)
(5.65222 0.969019 0)
(-1.91555 4.27918 0)
(-12.9488 3.48069 0)
(-38.1764 0.521098 0)
(-36.5511 10.4648 0)
(-18.5691 10.8024 0)
(-21.1262 6.60805 0)
(-24.2844 12.1448 0)
(-20.9781 -8.7812 0)
(-23.054 12.831 0)
(-13.4017 2.17238 0)
(-7.95635 6.72927 0)
(7.87103 -2.61497 0)
(29.5304 12.0372 0)
(-92.7588 -2.59469 0)
(9.77374 120.334 0)
(82.2233 6.0312 0)
(22.9977 7.86913 0)
(19.9993 -0.573067 0)
(10.8407 -3.48418 0)
(6.59431 0.0212945 0)
(7.43997 -0.67716 0)
(13.2901 5.20648 0)
(14.667 17.1708 0)
(11.8788 18.0688 0)
(15.5884 20.4199 0)
(23.422 11.5958 0)
(24.3667 9.78373 0)
(21.4064 6.68931 0)
(11.1538 7.05047 0)
(2.91053 9.16492 0)
(-3.03994 15.1006 0)
(-18.2215 -3.65312 0)
(-75.7702 10.679 0)
(-189.056 31.9072 0)
(-299.658 35.5541 0)
(-379.632 11.8888 0)
(-420.041 -21.1498 0)
(-467.595 -93.0241 0)
(-346.144 0.674227 0)
(-266.025 14.9238 0)
(-207.143 0.770901 0)
(-144.275 -4.6891 0)
(-84.1889 -33.144 0)
(-40.3711 -26.9379 0)
(-39.4027 -21.9791 0)
(-14.6027 -16.6924 0)
(10.8057 -15.1568 0)
(8.13333 -17.0854 0)
(19.3964 -17.7925 0)
(31.7718 -25.1723 0)
(38.0503 -13.5673 0)
(21.6974 -15.2511 0)
(16.611 -11.1514 0)
(18.8591 -6.21563 0)
(19.7433 -4.86988 0)
(22.6865 -0.513095 0)
(24.9249 -0.815894 0)
(28.1883 3.88041 0)
(23.3892 3.54933 0)
(15.8512 6.43771 0)
(8.28046 5.7009 0)
(-7.24732 9.96579 0)
(-23.6809 10.4947 0)
(-41.6804 11.2497 0)
(-61.7795 9.80049 0)
(-77.6625 12.2874 0)
(-95.0594 4.39234 0)
(-99.2667 11.0297 0)
(-99.6001 -7.03996 0)
(-93.848 2.46327 0)
(-71.4931 -11.0383 0)
(-48.9997 -9.44648 0)
(-21.9541 -11.2992 0)
(6.03932 -11.8823 0)
(30.9197 -10.3791 0)
(54.5802 -9.39011 0)
(74.8447 -7.82279 0)
(92.8373 -6.2917 0)
(108.47 -6.25429 0)
(121.477 -6.84551 0)
(131.886 -7.61319 0)
(137.736 -8.85952 0)
(138.457 -7.56468 0)
(134.918 -7.62799 0)
(115.79 -5.57869 0)
(95.2401 -0.805574 0)
(74.263 0.460194 0)
(48.9506 2.406 0)
(29.7129 3.42692 0)
(13.3949 3.98153 0)
(3.81931 4.2544 0)
(1.18747 -4.07506 0)
(4.84082 -5.3617 0)
(10.5426 -5.89267 0)
(16.2769 -6.29998 0)
(22.4199 -6.38632 0)
(28.7435 -5.78609 0)
(34.7044 -5.54322 0)
(39.583 -5.18202 0)
(42.6744 -4.28502 0)
(46.8176 -3.233 0)
(48.0577 -3.46487 0)
(49.2332 -2.16553 0)
(50.5738 -2.69141 0)
(48.8725 -1.71636 0)
(49.543 -1.75003 0)
(46.9721 -2.26056 0)
(44.0602 -0.537156 0)
(44.0172 -1.76887 0)
(39.5518 -0.669098 0)
(37.1694 -0.884215 0)
(34.528 -0.561133 0)
(31.2541 -0.465889 0)
(28.2005 -0.421226 0)
(24.8521 0.0573029 0)
(21.2997 -0.311328 0)
(17.4191 0.61235 0)
(14.0064 0.0903026 0)
(9.62505 0.632433 0)
(6.10228 0.317803 0)
(1.46949 0.661603 0)
(0.150781 -1.00614 0)
(0.78637 -0.630487 0)
(1.41883 -1.07188 0)
(1.98262 -0.428222 0)
(2.62265 -0.84614 0)
(2.86842 -0.332389 0)
(3.23212 -0.503617 0)
(3.12908 -0.297192 0)
(3.30389 -0.267672 0)
(3.147 -0.261021 0)
(3.17375 -0.133226 0)
(2.94664 -0.210512 0)
(2.82227 -0.0690971 0)
(2.65599 -0.163888 0)
(2.481 -0.0356737 0)
(2.33574 -0.147356 0)
(2.13644 0.0123702 0)
(1.98564 -0.126673 0)
(1.77434 0.0235101 0)
(1.63782 -0.0984717 0)
(1.40266 0.0252612 0)
(1.31703 -0.0761726 0)
(1.04922 0.00756179 0)
(0.999334 -0.0303318 0)
(0.77019 -0.0178298 0)
(0.635196 0.000306886 0)
(0.511808 -0.00710946 0)
(0.347268 0.000976101 0)
(0.220482 0.00588603 0)
(0.0478312 0.00307928 0)
(0.00295526 -0.0250427 0)
(0.016567 -0.0138275 0)
(0.029997 -0.0194014 0)
(0.039529 -0.00955499 0)
(0.0442014 -0.0132864 0)
(0.0471985 -0.0075578 0)
(0.0475088 -0.00763809 0)
(0.0465285 -0.00545393 0)
(0.0460625 -0.00297154 0)
(0.0408943 -0.00589053 0)
(0.0405541 -0.00165288 0)
(0.0331295 -0.00558607 0)
(0.0321372 -0.000216471 0)
(0.0247118 -0.00501426 0)
(0.0229286 0.000512611 0)
(0.0179444 -0.00459753 0)
(0.0147831 0.000757721 0)
(0.0125162 -0.00328753 0)
(0.00856967 0.000771981 0)
(0.00754484 -0.00192173 0)
(0.00420153 0.00101495 0)
(0.00363452 -0.00105367 0)
(0.000572039 0.000582899 0)
(-0.00127904 -0.00124629 0)
(-0.00174968 -6.15332e-05 0)
(-0.00352574 -0.00167867 0)
(-0.00301238 -0.000485416 0)
(-0.0028611 -0.00240051 0)
(-0.000218042 -0.0023851 0)
(0.000199336 -0.000367716 0)
(9.386e-05 -0.000813557 0)
(0.00165215 -0.00203109 0)
(0.00284613 -0.00068319 0)
(0.00396713 -0.00167208 0)
(0.00452143 -0.000494094 0)
(0.00506189 -0.00128416 0)
(0.00498247 -0.000405562 0)
(0.00504904 -0.00114443 0)
(0.00449009 -0.000405783 0)
(0.00414144 -0.00116226 0)
(0.00328737 -0.000490609 0)
(0.00270621 -0.00138042 0)
(0.00178407 -0.000615983 0)
(0.00110285 -0.00169924 0)
(0.000275721 -0.000724156 0)
(-0.000417635 -0.0019492 0)
(-0.00106596 -0.000776431 0)
(-0.0018849 -0.00162566 0)
(-0.00257172 -0.00060279 0)
(-0.00350681 -0.00128699 0)
(-0.00409102 -0.000452561 0)
(-0.00501048 -0.00109151 0)
(-0.00543598 -0.000373799 0)
(-0.00615891 -0.00112536 0)
(-0.00629126 -0.00046335 0)
(-0.00643393 -0.0015754 0)
(-0.0056257 -0.000713012 0)
(-0.00413346 -0.00240447 0)
(-0.000967504 -0.00250324 0)
(0.000137192 -0.000341217 0)
(9.06618e-05 -0.000310486 0)
(0.00131323 -0.00279421 0)
(0.00477326 -0.00287204 0)
(0.00661696 -0.000844584 0)
(0.00750316 -0.00140432 0)
(0.00730452 -0.000247368 0)
(0.0071017 -0.000991448 0)
(0.00628013 -0.00020403 0)
(0.00577024 -0.00104766 0)
(0.00484746 -0.0003845 0)
(0.00418213 -0.00124705 0)
(0.003183 -0.000531087 0)
(0.00233272 -0.00150028 0)
(0.00129387 -0.000600571 0)
(0.000391756 -0.00176339 0)
(-0.00051866 -0.000618325 0)
(-0.00143152 -0.00171016 0)
(-0.00205105 -0.0005952 0)
(-0.00272129 -0.00151154 0)
(-0.00326437 -0.000386202 0)
(-0.0049088 -0.000284336 0)
(-0.00535708 -0.00117351 0)
(-0.00638007 -0.000480024 0)
(-0.00674499 -0.00121855 0)
(-0.00678544 -0.000341416 0)
(-0.00680214 -0.00137165 0)
(-0.00606934 -0.000594428 0)
(-0.00519529 -0.00179211 0)
(-0.0036324 -0.000799696 0)
(-0.00212293 -0.00120046 0)
(0.000160287 -0.000859657 0)
(0.00176773 -0.00199775 0)
(0.0029015 -0.00062479 0)
(0.00394737 -0.00170272 0)
(0.00448219 -0.000486914 0)
(0.00495568 -0.00132953 0)
(0.00489952 -0.000419005 0)
(0.00492696 -0.00121013 0)
(0.00443738 -0.000442692 0)
(0.00407086 -0.00127034 0)
(0.00332871 -0.000551571 0)
(0.00273004 -0.00147974 0)
(0.00193857 -0.000684795 0)
(0.00126448 -0.00175937 0)
(0.000508678 -0.000703719 0)
(-0.000161674 -0.00186001 0)
(-0.00078629 -0.000672832 0)
(-0.00159975 -0.00156744 0)
(-0.00223517 -0.000527894 0)
(-0.00318414 -0.00124764 0)
(-0.0037719 -0.000404592 0)
(-0.0047093 -0.0010784 0)
(-0.00516096 -0.000344369 0)
(-0.00592456 -0.00111241 0)
(-0.00610594 -0.000463435 0)
(-0.00629379 -0.00157865 0)
(-0.00553705 -0.000727061 0)
(-0.00406493 -0.00241867 0)
(-0.000906343 -0.00250164 0)
(0.000261192 -0.000392592 0)
(0.000162645 0.000511004 0)
(0.000803053 -0.000319523 0)
(0.00164001 -0.00155378 0)
(0.00502168 -0.00260541 0)
(0.00750192 -0.000908808 0)
(0.00883138 -0.00107963 0)
(0.00883565 -0.000179952 0)
(0.00862076 -0.000876764 0)
(0.00781669 -0.000262487 0)
(0.00701332 -0.000953632 0)
(0.00595233 -0.000450244 0)
(0.00509103 -0.00131343 0)
(0.00407284 -0.000509723 0)
(0.00294746 -0.00135935 0)
(0.00160933 -0.000347746 0)
(-0.00104475 -0.000298337 0)
(-0.00205271 -0.00166442 0)
(-0.00281851 -0.000446238 0)
(-0.0037566 -0.001322 0)
(-0.00445596 -0.000351636 0)
(-0.00551412 -0.00103659 0)
(-0.00613044 -0.000272757 0)
(-0.00694665 -0.00104176 0)
(-0.00694295 -0.000458683 0)
(-0.00671997 -0.0015113 0)
(-0.00542223 -0.000904507 0)
(-0.00372802 -0.00215816 0)
(-0.00169314 -0.000484445 0)
(-0.00210056 -0.00020316 0)
(-0.00114459 -0.000647892 0)
(0.000535116 -0.000621796 0)
(0.00301835 -0.00203035 0)
(0.00491663 -0.000484816 0)
(0.00627202 -0.00131951 0)
(0.00705191 -0.000527629 0)
(0.00773718 -0.00115535 0)
(0.00793922 -0.000761456 0)
(0.00810323 -0.00108888 0)
(0.00771342 -0.000906426 0)
(0.00728085 -0.000995737 0)
(0.00627214 -0.000871669 0)
(0.0053038 -0.00106583 0)
(0.00385249 -0.000749319 0)
(0.00271053 -0.00148644 0)
(0.00145571 -0.00079953 0)
(0.000554793 -0.00198656 0)
(-0.000332305 -0.000798958 0)
(-0.00122942 -0.0018754 0)
(-0.00206398 -0.000714543 0)
(-0.00323542 -0.00144281 0)
(-0.00413832 -0.000617175 0)
(-0.00534659 -0.00122899 0)
(-0.00604602 -0.000592849 0)
(-0.00697407 -0.00124086 0)
(-0.0072926 -0.000708627 0)
(-0.00761208 -0.00161382 0)
(-0.0070009 -0.00110357 0)
(-0.00531946 -0.00301118 0)
(-0.00153855 -0.00291729 0)
(1.95855e-05 -0.000538382 0)
(6.30403 -5.271 0)
(13.4371 -10.2312 0)
(17.0774 -18.4763 0)
(16.1125 -11.3106 0)
(6.33213 -14.639 0)
(6.42821 -7.56051 0)
(40.6895 -2.42254 0)
(33.7522 -57.6749 0)
(38.1324 13.8806 0)
(50.1697 -8.82197 0)
(30.9058 -7.36568 0)
(16.4824 -7.02042 0)
(3.46441 -0.237163 0)
(3.00593 0.785565 0)
(-12.4552 5.644 0)
(-48.573 -5.05477 0)
(-55.3648 22.8993 0)
(-3.10012 46.4915 0)
(45.3128 33.1763 0)
(47.0977 11.9626 0)
(23.3074 8.47326 0)
(-4.87507 -7.27125 0)
(-23.7889 5.64641 0)
(-25.0681 13.0439 0)
(-12.6202 12.178 0)
(13.0108 9.85061 0)
(34.4412 7.32718 0)
(4.86485 -33.6966 0)
(-22.4042 -27.828 0)
(-23.1672 78.4199 0)
(7.34391 21.4782 0)
(77.1454 31.2383 0)
(132.128 22.4715 0)
(116.826 -8.34205 0)
(77.9992 -0.332894 0)
(56.8992 -0.353428 0)
(33.4645 0.517403 0)
(25.5283 8.70413 0)
(14.6859 12.0199 0)
(8.77304 11.1577 0)
(6.74948 8.36968 0)
(8.43069 10.7649 0)
(9.07223 6.89652 0)
(2.11155 8.5513 0)
(-12.6003 21.3297 0)
(-34.0948 16.4377 0)
(-41.1324 24.032 0)
(-5.46944 20.7078 0)
(10.0137 15.4809 0)
(-2.50479 13.3774 0)
(3.00245 -8.60646 0)
(-4.57702 9.96327 0)
(-10.4611 14.8757 0)
(-14.8798 16.5723 0)
(-14.9462 10.7573 0)
(-19.8828 24.3464 0)
(-9.23921 11.5741 0)
(-14.4067 155.691 0)
(-14.7714 16.3262 0)
(6.45029 6.81821 0)
(-9.5333 -1.71026 0)
(-18.7438 -18.314 0)
(-27.9817 -14.1266 0)
(-32.3817 -11.1294 0)
(-7.28945 12.9596 0)
(20.0435 15.1867 0)
(25.3325 26.4511 0)
(27.8166 43.208 0)
(27.8994 36.5421 0)
(27.335 31.3742 0)
(20.411 29.4721 0)
(17.2711 26.9536 0)
(11.0336 26.3913 0)
(0.510516 34.8263 0)
(-44.3933 16.8266 0)
(-135.569 55.6632 0)
(-265.442 100.848 0)
(-361.022 99.4575 0)
(-427.57 45.8131 0)
(-517.682 -34.6636 0)
(-388.751 -102.342 0)
(-348.021 4.52719 0)
(-356.925 -25.577 0)
(-282.335 -68.7294 0)
(-198.141 -88.7424 0)
(-116.46 -98.8092 0)
(-46.8017 -89.0831 0)
(21.7296 -32.1169 0)
(27.2414 17.4915 0)
(44.1207 11.5154 0)
(65.047 6.10594 0)
(47.1849 14.5517 0)
(49.6768 -17.5561 0)
(50.761 -23.709 0)
(31.7565 -31.9345 0)
(18.8034 -23.1731 0)
(16.7009 -15.5511 0)
(17.5416 -10.7464 0)
(21.7303 -3.76882 0)
(26.5426 1.25612 0)
(30.4861 8.6247 0)
(27.3131 11.3508 0)
(19.2573 17.4302 0)
(7.18833 17.7898 0)
(-8.22124 31.3196 0)
(-25.1571 31.0786 0)
(-44.0641 32.3711 0)
(-62.0403 31.0052 0)
(-82.359 32.0279 0)
(-97.8253 20.2726 0)
(-116.245 27.3739 0)
(-106.997 -4.50882 0)
(-108.704 3.53092 0)
(-85.2169 -29.5469 0)
(-58.0991 -24.3929 0)
(-30.1726 -38.0572 0)
(4.17259 -35.6477 0)
(31.3097 -33.271 0)
(54.4504 -28.6355 0)
(72.847 -23.6916 0)
(86.5717 -19.3033 0)
(97.6742 -16.8112 0)
(106.82 -15.8621 0)
(113.159 -17.2591 0)
(118.238 -19.7433 0)
(119.101 -22.4322 0)
(115.766 -20.6381 0)
(110.521 -20.585 0)
(93.5446 -8.39641 0)
(76.1106 -4.23066 0)
(54.6809 5.5066 0)
(36.6808 9.31678 0)
(20.2448 12.7269 0)
(6.34673 14.8437 0)
(0.0263406 -10.8905 0)
(2.66801 -15.2249 0)
(7.05793 -17.7367 0)
(12.9312 -18.8146 0)
(20.3418 -19.487 0)
(26.5249 -19.0046 0)
(31.8966 -17.6598 0)
(36.5071 -14.7891 0)
(40.9392 -13.9381 0)
(43.3203 -10.7491 0)
(45.6844 -9.91388 0)
(46.256 -7.76596 0)
(47.4351 -7.55742 0)
(46.9445 -5.58409 0)
(45.6084 -5.31812 0)
(46.4374 -5.19422 0)
(42.826 -3.15955 0)
(41.7279 -3.70553 0)
(39.2955 -2.69321 0)
(36.2571 -2.10914 0)
(34.2029 -1.87426 0)
(30.5862 -1.14419 0)
(28.1287 -1.04957 0)
(24.3519 -0.331214 0)
(21.5488 -0.170881 0)
(17.5472 0.482255 0)
(14.2561 0.718388 0)
(9.71276 1.22374 0)
(6.62513 1.27798 0)
(1.7898 1.66811 0)
(0.670823 -2.44514 0)
(1.4538 -2.17181 0)
(2.09045 -2.24453 0)
(2.57362 -1.62667 0)
(2.88093 -1.68433 0)
(3.10499 -1.27857 0)
(3.25332 -1.08897 0)
(3.3234 -1.05113 0)
(3.34461 -0.606261 0)
(3.30899 -0.853793 0)
(3.22114 -0.306299 0)
(3.08806 -0.667674 0)
(2.89733 -0.141388 0)
(2.72121 -0.477483 0)
(2.55403 -0.0342706 0)
(2.3022 -0.343784 0)
(2.1369 0.00374313 0)
(1.94476 -0.266868 0)
(1.73711 0.0404238 0)
(1.61983 -0.212987 0)
(1.36209 0.0515211 0)
(1.26599 -0.126521 0)
(1.07689 -0.00279714 0)
(0.914932 -0.0211733 0)
(0.803788 -0.046312 0)
(0.624075 0.0153119 0)
(0.503533 -0.0260246 0)
(0.350572 0.0217259 0)
(0.213157 -0.00428716 0)
(0.051192 0.0235448 0)
(0.025478 -0.0617644 0)
(0.0420097 -0.054765 0)
(0.0522752 -0.053836 0)
(0.0603396 -0.044283 0)
(0.0648268 -0.0447165 0)
(0.0666602 -0.0368231 0)
(0.0638591 -0.0341609 0)
(0.0653304 -0.0295323 0)
(0.0559942 -0.0260241 0)
(0.0555133 -0.0243968 0)
(0.0475111 -0.0228608 0)
(0.0442265 -0.0232763 0)
(0.0356077 -0.0204596 0)
(0.0309111 -0.0225647 0)
(0.0234717 -0.0183302 0)
(0.0190367 -0.0215069 0)
(0.0118438 -0.0169125 0)
(0.00765439 -0.0195932 0)
(0.00188023 -0.0163218 0)
(-0.00150757 -0.0179582 0)
(-0.00638568 -0.016671 0)
(-0.00858332 -0.0164918 0)
(-0.0124715 -0.0177718 0)
(-0.0138353 -0.0154427 0)
(-0.0162087 -0.0182937 0)
(-0.0170384 -0.0163158 0)
(-0.0189787 -0.0184272 0)
(-0.0215267 -0.0169572 0)
(-0.0246917 -0.0172207 0)
(-0.0273538 -0.0193769 0)
(0.0151015 -0.0195484 0)
(0.0257602 -0.0168376 0)
(0.0243388 -0.0184503 0)
(0.0227099 -0.0161756 0)
(0.0216944 -0.018089 0)
(0.0204772 -0.0156385 0)
(0.0198168 -0.017807 0)
(0.0184935 -0.015324 0)
(0.0175895 -0.017463 0)
(0.0157144 -0.0150844 0)
(0.0140901 -0.0171182 0)
(0.011438 -0.0149365 0)
(0.00890509 -0.0167824 0)
(0.00562676 -0.0148842 0)
(0.00244116 -0.0164839 0)
(-0.00103845 -0.014855 0)
(-0.0044117 -0.016595 0)
(-0.00733887 -0.0149126 0)
(-0.0103444 -0.0168946 0)
(-0.0123824 -0.0149722 0)
(-0.0145915 -0.0172429 0)
(-0.0157899 -0.0149885 0)
(-0.0173689 -0.0174608 0)
(-0.018126 -0.0152064 0)
(-0.0193043 -0.0178166 0)
(-0.0198014 -0.0161261 0)
(-0.0208845 -0.0179538 0)
(-0.0229453 -0.0165394 0)
(-0.0250312 -0.0166433 0)
(-0.0267614 -0.0186583 0)
(0.028022 -0.0184637 0)
(0.0255267 -0.0170878 0)
(0.0223941 -0.0174175 0)
(0.0200718 -0.0183764 0)
(0.0189444 -0.015734 0)
(0.0183768 -0.0175505 0)
(0.0174007 -0.0150499 0)
(0.0170068 -0.0172835 0)
(0.0156224 -0.0149482 0)
(0.014631 -0.0170793 0)
(0.0125491 -0.0148704 0)
(0.0106118 -0.016733 0)
(0.00780368 -0.0146975 0)
(0.00496018 -0.0163086 0)
(0.00164488 -0.0145579 0)
(-0.00180565 -0.0161973 0)
(-0.00514757 -0.0147061 0)
(-0.0086655 -0.0164245 0)
(-0.0116982 -0.0147771 0)
(-0.0143223 -0.0160284 0)
(-0.0172906 -0.0150169 0)
(-0.0183438 -0.0150852 0)
(-0.0204307 -0.0170758 0)
(-0.0213067 -0.0153937 0)
(-0.0225438 -0.0177311 0)
(-0.0227891 -0.0159363 0)
(-0.0230548 -0.0184746 0)
(-0.0221294 -0.0168188 0)
(-0.0187381 -0.0194118 0)
(-0.00980551 -0.0160248 0)
(0.0151621 -0.0196923 0)
(0.0259347 -0.0168642 0)
(0.0245572 -0.0182962 0)
(0.0228643 -0.016151 0)
(0.0217961 -0.017925 0)
(0.0204864 -0.0155628 0)
(0.0197019 -0.0176293 0)
(0.0183285 -0.0152745 0)
(0.0173119 -0.0172965 0)
(0.0154169 -0.015034 0)
(0.0137011 -0.0169568 0)
(0.0110945 -0.0148587 0)
(0.00852761 -0.0166492 0)
(0.00542861 -0.0147746 0)
(0.00221535 -0.0163675 0)
(-0.00106899 -0.0148272 0)
(-0.00443465 -0.0165464 0)
(-0.00730728 -0.0148627 0)
(-0.0102727 -0.0168295 0)
(-0.0123303 -0.0148873 0)
(-0.014548 -0.0171464 0)
(-0.0158134 -0.0149382 0)
(-0.0174416 -0.0173795 0)
(-0.0182642 -0.0151801 0)
(-0.0194554 -0.0177759 0)
(-0.0200078 -0.0161392 0)
(-0.0210901 -0.0179292 0)
(-0.0231397 -0.0165807 0)
(-0.0251339 -0.0166347 0)
(-0.0267758 -0.0187253 0)
(0.0111518 -0.013593 0)
(0.0221012 -0.0184617 0)
(0.0225535 -0.0182688 0)
(0.0202489 -0.0175461 0)
(0.0190505 -0.0186828 0)
(0.0185762 -0.0156079 0)
(0.018695 -0.0171797 0)
(0.0178087 -0.0147808 0)
(0.0171818 -0.0167257 0)
(0.015662 -0.0144147 0)
(0.0141097 -0.0165614 0)
(0.0117333 -0.0144409 0)
(0.00915448 -0.0163325 0)
(0.00642739 -0.0144654 0)
(0.00356659 -0.0151136 0)
(-0.000809826 -0.0150577 0)
(-0.0037631 -0.0147295 0)
(-0.00706684 -0.0164489 0)
(-0.00970499 -0.0147871 0)
(-0.0124535 -0.0168823 0)
(-0.0142215 -0.0148795 0)
(-0.0161819 -0.0172321 0)
(-0.0171569 -0.0153111 0)
(-0.0184201 -0.0179004 0)
(-0.0189503 -0.0162665 0)
(-0.0197651 -0.0189364 0)
(-0.0205134 -0.0170359 0)
(-0.0213252 -0.0181723 0)
(-0.0197516 -0.0180992 0)
(-0.00966544 -0.0154558 0)
(0.0146708 -0.018818 0)
(0.0251762 -0.0164659 0)
(0.0239172 -0.0178268 0)
(0.0228993 -0.0157818 0)
(0.0228272 -0.0178598 0)
(0.0221395 -0.0153889 0)
(0.0219175 -0.0178197 0)
(0.0208988 -0.015116 0)
(0.0200657 -0.0177188 0)
(0.0184682 -0.014831 0)
(0.0169764 -0.0173295 0)
(0.0147027 -0.0145875 0)
(0.0124441 -0.016832 0)
(0.00939027 -0.0146284 0)
(0.00623045 -0.0165703 0)
(0.00246763 -0.0148494 0)
(-0.00151114 -0.0164538 0)
(-0.00536303 -0.015031 0)
(-0.0091327 -0.0168472 0)
(-0.0119258 -0.0151167 0)
(-0.0146377 -0.0173647 0)
(-0.0162384 -0.0153157 0)
(-0.0179742 -0.0178627 0)
(-0.0187846 -0.0156239 0)
(-0.0198051 -0.018388 0)
(-0.0201149 -0.0165532 0)
(-0.0210164 -0.0186913 0)
(-0.0232936 -0.0177309 0)
(-0.025872 -0.0174669 0)
(-0.0278178 -0.0194658 0)
(2.72574 -11.071 0)
(12.2435 -20.2007 0)
(18.0781 -23.6659 0)
(17.6263 -22.4427 0)
(12.1357 -18.7487 0)
(17.4525 -10.6935 0)
(-28.2753 -20.4125 0)
(12.1697 -3.01301 0)
(61.1146 6.03345 0)
(33.189 -16.3122 0)
(30.9008 -11.4949 0)
(25.5846 -17.5447 0)
(14.8007 -8.82719 0)
(7.08099 -1.26933 0)
(-12.1832 23.0256 0)
(-45.3317 17.5181 0)
(-39.5857 66.6938 0)
(-2.58141 69.5754 0)
(8.02357 56.6506 0)
(8.64117 30.0059 0)
(-12.2066 30.349 0)
(-36.1388 3.94409 0)
(-47.7847 15.7926 0)
(-48.4596 13.8668 0)
(-33.5874 15.4252 0)
(-11.6346 16.8813 0)
(6.78044 -0.750123 0)
(-12.753 -22.1514 0)
(-45.0463 2.09161 0)
(-32.3475 29.3129 0)
(19.4181 22.7134 0)
(57.069 25.5211 0)
(79.2693 21.186 0)
(69.324 -5.33149 0)
(50.5653 8.39144 0)
(22.4517 2.01819 0)
(15.4773 8.19838 0)
(18.0706 14.6914 0)
(10.5712 17.3186 0)
(11.136 9.72314 0)
(10.7353 17.2689 0)
(8.70985 11.7352 0)
(8.35515 13.9945 0)
(0.738257 9.12499 0)
(-0.0444121 40.8495 0)
(-17.5068 51.3906 0)
(-32.9172 30.1462 0)
(-14.1713 28.4845 0)
(-0.365919 16.6997 0)
(6.66673 27.1052 0)
(15.0558 5.99308 0)
(21.2794 19.0713 0)
(28.1803 29.5816 0)
(31.0597 28.6758 0)
(29.0548 22.3359 0)
(22.0414 22.2154 0)
(3.30978 32.7403 0)
(2.17771 31.3945 0)
(8.85648 19.6306 0)
(-2.37407 -3.93421 0)
(-12.1867 -8.91065 0)
(-31.1824 -20.8542 0)
(-54.8784 -15.5629 0)
(-86.4358 -10.6086 0)
(-119.558 12.5484 0)
(-115.416 28.4796 0)
(-86.4726 34.3461 0)
(16.4714 72.0148 0)
(57.0101 57.0086 0)
(35.2919 47.1424 0)
(29.7727 39.2715 0)
(23.8073 47.2011 0)
(13.4703 48.5094 0)
(3.3599 53.7634 0)
(-40.3923 63.2378 0)
(-121.792 109.153 0)
(-234.365 157.623 0)
(-326.34 148.276 0)
(-441.769 88.0018 0)
(-527.174 38.0448 0)
(-454.755 8.16333 0)
(-440.87 -7.63147 0)
(-439.971 -54.5963 0)
(-295.455 -120.761 0)
(-150.071 -192.29 0)
(-31.7393 -239.007 0)
(53.6066 -162.249 0)
(97.6782 -50.3725 0)
(104.322 43.4795 0)
(115.586 79.2163 0)
(121.584 58.8059 0)
(86.1407 21.7426 0)
(55.9463 -5.22515 0)
(69.6101 -3.76171 0)
(68.3961 -17.7103 0)
(48.5273 -10.1153 0)
(31.8729 -10.6566 0)
(23.2557 -9.55253 0)
(25.1072 -5.34462 0)
(28.5851 1.99773 0)
(30.7158 11.1978 0)
(28.5451 19.6496 0)
(20.8029 26.2019 0)
(8.17274 29.1817 0)
(-8.52426 48.9154 0)
(-25.0244 51.2343 0)
(-43.326 52.3075 0)
(-68.9201 56.1589 0)
(-95.6007 54.8331 0)
(-116.075 50.0634 0)
(-140.854 29.3517 0)
(-132.934 15.5388 0)
(-145.65 -11.6677 0)
(-96.898 -42.0551 0)
(-70.5668 -45.8822 0)
(-39.6696 -70.4502 0)
(2.93888 -66.2938 0)
(35.5684 -61.9445 0)
(64.6455 -52.5116 0)
(83.785 -42.1999 0)
(96.109 -35.1547 0)
(102.842 -30.1885 0)
(106.427 -28.365 0)
(108.966 -28.5045 0)
(108.876 -30.748 0)
(108.372 -31.6953 0)
(107.144 -30.2809 0)
(99.4812 -26.745 0)
(88.1559 -19.6343 0)
(69.5395 -9.14395 0)
(49.8276 4.03682 0)
(32.0512 13.6327 0)
(18.2647 20.1228 0)
(5.55887 25.057 0)
(-1.64081 -14.3177 0)
(-1.51642 -22.9372 0)
(3.05066 -28.0195 0)
(10.5361 -30.9807 0)
(17.4684 -32.6364 0)
(24.799 -30.6834 0)
(32.6099 -28.8686 0)
(36.1304 -25.4588 0)
(38.5587 -21.6414 0)
(42.3593 -18.7111 0)
(42.453 -15.6587 0)
(42.007 -12.7289 0)
(43.633 -11.6525 0)
(41.6514 -9.67151 0)
(39.7461 -8.52903 0)
(40.3314 -7.35117 0)
(36.895 -6.57035 0)
(35.4024 -4.86029 0)
(33.221 -4.9191 0)
(30.5042 -3.25444 0)
(28.5982 -3.29772 0)
(25.6846 -2.03426 0)
(23.4667 -1.78693 0)
(20.4783 -0.970701 0)
(17.9745 -0.316924 0)
(14.6807 0.0944279 0)
(12.0243 1.0979 0)
(8.26153 1.13741 0)
(5.44588 2.05634 0)
(1.49264 2.07795 0)
(0.0532962 -3.92615 0)
(0.759645 -3.64827 0)
(1.31431 -3.4904 0)
(1.89501 -2.75698 0)
(2.3967 -2.64745 0)
(2.70216 -2.0682 0)
(2.89323 -1.85503 0)
(2.92409 -1.53293 0)
(2.91596 -1.23908 0)
(2.78839 -1.14496 0)
(2.79394 -0.80379 0)
(2.58678 -0.859202 0)
(2.51864 -0.51618 0)
(2.28221 -0.58449 0)
(2.17048 -0.387115 0)
(1.96139 -0.371487 0)
(1.76662 -0.318033 0)
(1.65374 -0.209791 0)
(1.42444 -0.258506 0)
(1.36055 -0.119843 0)
(1.15257 -0.204808 0)
(1.04127 -0.0445208 0)
(0.9153 -0.159474 0)
(0.775265 -0.0113307 0)
(0.673447 -0.0973224 0)
(0.536576 0.00999892 0)
(0.439696 -0.0536247 0)
(0.304486 0.0313794 0)
(0.201607 -0.0218351 0)
(0.0579795 0.0422219 0)
(-0.0128533 -0.0910389 0)
(-0.00126517 -0.0862266 0)
(0.00903625 -0.0809295 0)
(0.0150063 -0.0659985 0)
(0.0235917 -0.0644288 0)
(0.0225756 -0.0504811 0)
(0.0277993 -0.049515 0)
(0.0244188 -0.0388934 0)
(0.0268659 -0.0392239 0)
(0.0235935 -0.0315552 0)
(0.0218807 -0.0307341 0)
(0.0228926 -0.0278094 0)
(0.0196938 -0.0267566 0)
(0.0207486 -0.024213 0)
(0.0172702 -0.0237102 0)
(0.0182228 -0.0207256 0)
(0.0154278 -0.0218079 0)
(0.0161796 -0.0182967 0)
(0.0144669 -0.0211562 0)
(0.0158395 -0.0166168 0)
(0.0149154 -0.0211629 0)
(0.0164802 -0.0151654 0)
(0.016151 -0.0216303 0)
(0.0176819 -0.0140995 0)
(0.01781 -0.0220246 0)
(0.0191295 -0.0140171 0)
(0.0191496 -0.0213713 0)
(0.019654 -0.0130159 0)
(0.0145865 -0.0124372 0)
(0.00683873 -0.0271814 0)
(-0.00597835 -0.0263044 0)
(-0.0148722 -0.013357 0)
(-0.0167172 -0.0215434 0)
(-0.0167858 -0.0123948 0)
(-0.0163344 -0.0215813 0)
(-0.0155429 -0.0125457 0)
(-0.014225 -0.0215145 0)
(-0.0128512 -0.0127141 0)
(-0.0111007 -0.0212248 0)
(-0.00946209 -0.0127072 0)
(-0.00761879 -0.0207791 0)
(-0.00595526 -0.0126593 0)
(-0.00430739 -0.0201992 0)
(-0.0029152 -0.0125771 0)
(-0.00163987 -0.0196868 0)
(-0.00044835 -0.0126257 0)
(0.000830781 -0.0198594 0)
(0.00227446 -0.0125688 0)
(0.00387093 -0.0204022 0)
(0.00568281 -0.0126199 0)
(0.00742065 -0.0209293 0)
(0.00936762 -0.0125742 0)
(0.0110672 -0.0211655 0)
(0.0129276 -0.0125083 0)
(0.0144731 -0.0214354 0)
(0.0161725 -0.0129087 0)
(0.0174664 -0.0208791 0)
(0.018331 -0.0124925 0)
(0.0134923 -0.0120601 0)
(0.00620206 -0.0263662 0)
(-0.00685333 -0.0258559 0)
(-0.0142531 -0.0119951 0)
(-0.0180717 -0.0125608 0)
(-0.0171695 -0.0213894 0)
(-0.0161233 -0.0124389 0)
(-0.0145999 -0.0211367 0)
(-0.0131375 -0.0123374 0)
(-0.0113043 -0.0210187 0)
(-0.00964081 -0.0124313 0)
(-0.00776337 -0.0207913 0)
(-0.00606008 -0.0125807 0)
(-0.0043136 -0.0203169 0)
(-0.00274146 -0.0125609 0)
(-0.00130625 -0.0196372 0)
(-3.42627e-05 -0.0124024 0)
(0.0011162 -0.019311 0)
(0.00226741 -0.0122901 0)
(0.00343559 -0.0194985 0)
(0.00500408 -0.0130685 0)
(0.00635786 -0.0180493 0)
(0.0107732 -0.0189603 0)
(0.012306 -0.0124111 0)
(0.0139414 -0.0208749 0)
(0.0154505 -0.0123452 0)
(0.0166154 -0.0214666 0)
(0.018023 -0.0128603 0)
(0.0192319 -0.0223151 0)
(0.020574 -0.0143416 0)
(0.0213605 -0.0237916 0)
(0.02333 -0.0137682 0)
(-0.00597743 -0.0265033 0)
(-0.0149006 -0.0133112 0)
(-0.0167759 -0.0213731 0)
(-0.0168154 -0.0123236 0)
(-0.0164139 -0.0213981 0)
(-0.0155821 -0.0125107 0)
(-0.0143003 -0.0213203 0)
(-0.0128988 -0.0126846 0)
(-0.0111888 -0.0210488 0)
(-0.00951541 -0.0127032 0)
(-0.00770314 -0.0206197 0)
(-0.0059772 -0.0126505 0)
(-0.00432475 -0.0201057 0)
(-0.0028422 -0.0125835 0)
(-0.00152309 -0.0195812 0)
(-0.000256409 -0.0124211 0)
(0.00101988 -0.0197548 0)
(0.00249092 -0.0124195 0)
(0.00405489 -0.0202842 0)
(0.00586589 -0.0124895 0)
(0.00758046 -0.0207852 0)
(0.00949532 -0.0124741 0)
(0.0111667 -0.021051 0)
(0.0129797 -0.012457 0)
(0.0144968 -0.0213851 0)
(0.0161615 -0.012905 0)
(0.017463 -0.020858 0)
(0.0183404 -0.0126875 0)
(0.0134161 -0.0121344 0)
(0.00614667 -0.0264243 0)
(-0.0198376 -0.0143225 0)
(-0.0182459 -0.0215555 0)
(-0.0163451 -0.0181561 0)
(-0.0179104 -0.013009 0)
(-0.0170375 -0.0220846 0)
(-0.0158145 -0.0126163 0)
(-0.0141299 -0.0210213 0)
(-0.0123769 -0.0122046 0)
(-0.0104811 -0.020626 0)
(-0.00880986 -0.0122175 0)
(-0.00719048 -0.0203019 0)
(-0.00576157 -0.0121931 0)
(-0.00448095 -0.0198482 0)
(-0.00315009 -0.0123297 0)
(-0.00186121 -0.0178093 0)
(0.00214521 -0.0181572 0)
(0.0036276 -0.0125148 0)
(0.00490643 -0.0198375 0)
(0.0062093 -0.0125099 0)
(0.00750608 -0.0204907 0)
(0.00899637 -0.012647 0)
(0.0103186 -0.0210006 0)
(0.0118063 -0.0129133 0)
(0.0129778 -0.0216206 0)
(0.014142 -0.0134897 0)
(0.0148859 -0.022524 0)
(0.0156077 -0.0138158 0)
(0.0155425 -0.0207818 0)
(0.0179277 -0.0221952 0)
(0.0188756 -0.0157324 0)
(-0.00562718 -0.0249395 0)
(-0.0141404 -0.012395 0)
(-0.0156108 -0.020652 0)
(-0.0153232 -0.0116779 0)
(-0.014629 -0.0213368 0)
(-0.0135031 -0.0120273 0)
(-0.0120256 -0.0214884 0)
(-0.0104727 -0.0123 0)
(-0.00873416 -0.0214848 0)
(-0.00708317 -0.0124536 0)
(-0.00537458 -0.0211194 0)
(-0.00381549 -0.0126178 0)
(-0.00234433 -0.0204887 0)
(-0.00110974 -0.0126663 0)
(-9.74601e-05 -0.0198489 0)
(0.000710466 -0.0126072 0)
(0.00149052 -0.0195162 0)
(0.00244302 -0.0127668 0)
(0.00358919 -0.0201957 0)
(0.00503916 -0.0131939 0)
(0.00649539 -0.0210873 0)
(0.00822711 -0.0136286 0)
(0.00979844 -0.0218125 0)
(0.0115865 -0.0139689 0)
(0.0131516 -0.0224266 0)
(0.0148859 -0.0145819 0)
(0.0163911 -0.0219811 0)
(0.0176571 -0.0143715 0)
(0.0133622 -0.0128331 0)
(0.0062756 -0.0276529 0)
(9.57448 -26.4195 0)
(16.8177 -26.748 0)
(21.1974 -30.6454 0)
(18.5921 -33.95 0)
(12.0496 -30.7094 0)
(0.147721 -29.0348 0)
(-1.32135 -29.4574 0)
(2.75589 43.3204 0)
(19.1989 -24.2074 0)
(43.3175 -29.7089 0)
(30.097 -18.2704 0)
(24.511 -13.4113 0)
(21.2361 -14.7526 0)
(8.19418 -2.8179 0)
(-16.1147 28.4092 0)
(-51.2405 62.7638 0)
(-65.2662 92.734 0)
(-44.4031 79.9929 0)
(-22.5826 61.3669 0)
(-22.8297 42.0055 0)
(-38.6145 42.3687 0)
(-54.2699 21.8277 0)
(-62.9361 26.0589 0)
(-60.3298 21.6498 0)
(-54.4045 23.989 0)
(-47.7925 23.1504 0)
(-43.5697 10.8353 0)
(-45.8684 -4.36962 0)
(-47.1672 4.97244 0)
(-31.2384 19.2213 0)
(3.258 27.6449 0)
(37.0499 25.3272 0)
(49.2951 14.233 0)
(44.031 -8.00446 0)
(11.7114 -7.41647 0)
(-4.94524 -10.0323 0)
(-16.4621 10.3471 0)
(-15.8022 26.8157 0)
(4.89174 30.9666 0)
(13.8597 15.1222 0)
(14.3355 24.5891 0)
(13.0391 19.8964 0)
(10.73 18.3664 0)
(-0.368687 19.2914 0)
(-1.21717 51.6871 0)
(-14.4222 68.9319 0)
(-26.8083 26.3306 0)
(-21.7362 14.2664 0)
(7.33559 18.8783 0)
(29.3023 28.8581 0)
(41.0306 19.1358 0)
(64.8418 21.8759 0)
(81.5871 23.6241 0)
(89.7 30.1527 0)
(87.2802 23.5216 0)
(79.5122 21.9273 0)
(64.1851 20.5823 0)
(50.2488 20.5172 0)
(41.5881 -7.28221 0)
(29.4078 -17.2705 0)
(11.8991 -25.0217 0)
(-2.12781 -21.0909 0)
(-27.1218 -20.005 0)
(-63.3133 -1.38949 0)
(-83.1886 11.2044 0)
(-81.3277 38.1807 0)
(-74.9929 31.062 0)
(-71.5538 60.2973 0)
(1.70025 75.2403 0)
(33.899 65.1918 0)
(27.4462 45.0477 0)
(30.598 57.6526 0)
(21.97 69.3411 0)
(10.6354 75.0424 0)
(-31.2545 105.602 0)
(-88.2052 147.782 0)
(-157.596 197.131 0)
(-234.84 196.903 0)
(-287.073 128.423 0)
(-369.307 76.0371 0)
(-365.199 57.6119 0)
(-298.752 -19.2365 0)
(-253.653 -74.4469 0)
(-205.3 -132.615 0)
(-167.389 -197.678 0)
(-26.9206 -252.813 0)
(131.327 -184.513 0)
(120.905 -70.1372 0)
(130.72 95.7819 0)
(151.598 101.214 0)
(130.351 54.9031 0)
(86.0624 32.8134 0)
(67.7464 23.9414 0)
(49.2941 23.8205 0)
(72.9175 15.704 0)
(77.8645 17.9091 0)
(55.9669 4.47328 0)
(39.0999 3.38547 0)
(34.6179 1.9701 0)
(37.1782 5.58291 0)
(36.245 14.6574 0)
(31.1317 25.6187 0)
(21.3981 33.8524 0)
(7.33366 37.96 0)
(-5.12841 63.052 0)
(-22.0993 67.4709 0)
(-44.6765 73.5455 0)
(-66.8367 80.1151 0)
(-93.6544 84.7985 0)
(-123.698 71.9458 0)
(-128.147 49.7292 0)
(-115.33 25.7278 0)
(-114.473 -17.654 0)
(-72.194 -56.4811 0)
(-38.9617 -69.3688 0)
(-10.9907 -105.641 0)
(29.2003 -100.219 0)
(56.7606 -96.77 0)
(80.6229 -81.9738 0)
(100.229 -66.5549 0)
(113.04 -53.117 0)
(119.076 -44.2919 0)
(120.414 -38.7443 0)
(118.621 -36.588 0)
(117.562 -34.2704 0)
(116.394 -34.1617 0)
(112.058 -33.7261 0)
(106.118 -30.5258 0)
(95.5788 -25.1481 0)
(78.8306 -15.0105 0)
(59.7511 -0.525333 0)
(39.8904 14.3792 0)
(23.3412 25.1566 0)