/*--------------------------------*- C++ -*----------------------------------*\
| =========                 |                                                 |
| \\      /  F ield         | OpenFOAM: The Open Source CFD Toolbox           |
|  \\    /   O peration     | Version:  2.1.1                                 |
|   \\  /    A nd           | Web:      www.OpenFOAM.org                      |
|    \\/     M anipulation  |                                                 |
\*---------------------------------------------------------------------------*/
FoamFile
{
    version     2.0;
    format      ascii;
    class       volScalarField;
    location    "0.008000000";
    object      cSound;
}
// * * * * * * * * * * * * * * * * * * * * * * * * * * * * * * * * * * * * * //

dimensions      [0 1 -1 0 0 0 0];

internalField   nonuniform List<scalar> 
12384
(
1136.4
1132.59
1128.12
1123.75
1121.85
1121.27
1122.1
1123.65
1126.57
1129.76
1134.17
1140.07
1145.28
1150.78
1092.39
1100.88
1114.37
1120.45
1121.78
1121.71
1121.98
1121.67
1121.67
1120.15
1119.44
1117.42
1116.18
1113.65
1111.97
1109.47
1107.84
1106.16
1105.3
1104.22
1103.74
1103.19
1103.01
1102.96
1103.09
1103.88
1104.93
1103.35
1089.35
1075.16
1125.54
1125.35
1123.9
1123.75
1123.29
1122.91
1122.64
1122.44
1122.2
1121.78
1121.14
1120.62
1120.19
1119.83
1119.73
1119.75
1119.74
1119.76
1119.94
1119.91
1120.4
1120.57
1121.4
1121.99
1123.2
1123.95
1124.95
1125.46
1124.84
1124.82
1120
1119.36
1119.12
1119.31
1119.62
1119.79
1120.12
1120.52
1120.88
1121.26
1121.7
1122.05
1122.2
1122.1
1121.86
1121.5
1120.99
1120.46
1120.4
1120.09
1119.89
1119.98
1120.01
1119.83
1119.29
1119.15
1118.88
1118.49
1118.16
1117.96
1121.11
1121.44
1122.11
1122.91
1123.26
1123.1
1122.67
1122.46
1121.65
1120.9
1120.06
1119.64
1119.35
1119.17
1119.41
1119.72
1120.67
1121.63
1122.43
1122.21
1121.53
1119.76
1119.01
1118.17
1117.46
1116.37
1116.36
1116.72
1117.22
1117.51
1126.54
1131.08
1131.73
1129.94
1128.82
1127.98
1127.38
1126.92
1126.65
1126.45
1126.41
1126.35
1126.41
1126.38
1126.22
1125.98
1125.95
1125.72
1125.1
1125.19
1125.43
1125.49
1125.74
1126.22
1126.66
1127.39
1127.22
1124.77
1123.91
1124.05
1113.33
1118.49
1118.9
1118.06
1117.2
1115.62
1114.34
1112.69
1111.57
1110.51
1109.95
1109.55
1109.3
1109.09
1108.74
1108.39
1107.93
1107.67
1107.39
1107.42
1107.07
1107.66
1108.26
1109.21
1110.62
1111.97
1104.56
1077.93
1078.13
1079.28
1127.05
1133.39
1134.06
1133.44
1132.73
1132.43
1132.37
1132.35
1132.12
1131.93
1131.5
1131.23
1130.25
1130.58
1130.16
1130.55
1131.23
1131.66
1132.14
1133.17
1133.04
1124.63
1121.24
1122.02
1123.18
1123.79
1124.75
1125.05
1124.95
1124.84
1134.45
1134.69
1135.06
1135.47
1135.55
1135.5
1135.31
1134.92
1134.11
1133.64
1132.54
1132.54
1131.67
1131.77
1131.83
1132.14
1132.41
1132.76
1133.18
1138.13
1140.63
1140.52
1140.33
1140.26
1140.28
1140.68
1141.4
1142.04
1141.96
1142.01
1133.58
1134.74
1135.92
1137.1
1138.2
1138.61
1138.6
1138.22
1137.39
1136.59
1135.69
1134.9
1134.22
1134.36
1133.77
1135.46
1135.52
1137.52
1137.72
1137.98
1140.19
1143.04
1143.72
1144.57
1145.04
1145.91
1146.34
1146.01
1145.51
1145.45
1145.21
1145.64
1145.8
1146.3
1146.75
1146.99
1147.02
1146.84
1146.48
1146.05
1145.92
1145.78
1146.35
1146.83
1147.24
1148.26
1152.35
1152.22
1151.46
1151.01
1150.67
1150.02
1149.95
1149.25
1149.44
1148.75
1149.23
1148.82
1149.21
1149.77
1135.58
1133.96
1134.72
1140.68
1143.39
1143.48
1144.14
1144.63
1144.77
1144.84
1145.03
1144.8
1145.46
1144.96
1146.02
1145.72
1146.65
1146.46
1146.78
1146.94
1146.62
1146.89
1146.74
1146.59
1146.78
1146.82
1147.56
1148.02
1148.1
1147.68
1164.02
1161.42
1158.2
1155.7
1154.63
1153.74
1159.4
1187.5
1200.78
1197.6
1194.11
1190.08
1188.69
1185.55
1185.16
1182.27
1181.74
1179.41
1179.04
1177.6
1178.45
1178.68
1181.62
1183.2
1186.74
1188.47
1191.01
1190.98
1190.88
1184.74
1128.36
1119.15
1111.06
1108.57
1108.81
1110.65
1112.3
1114.19
1116.04
1118.78
1123.85
1131.4
1141.61
1149.81
1093.02
1104.01
1117.74
1124.12
1127.05
1128.39
1129.85
1129.28
1128.3
1125.56
1123.49
1120.72
1117.73
1112.99
1109.48
1106.43
1105.15
1103.51
1103
1101.81
1101.45
1100.93
1100.56
1100.38
1100.69
1101.58
1103.25
1104.29
1100.93
1091.99
1125.64
1125.17
1124.19
1123.52
1123.3
1123.04
1122.8
1122.04
1120.74
1119.32
1118.17
1117.71
1117.91
1118.43
1119.13
1119.58
1119.86
1120.06
1120.11
1120.45
1120.52
1120.7
1121.16
1121.48
1122.31
1123.38
1124.23
1125.18
1125.77
1125.82
1119.96
1119.19
1118.93
1119.04
1119.25
1119.52
1119.83
1120.42
1121.2
1121.89
1122.26
1122.02
1121.34
1120.47
1119.43
1118.37
1117.74
1117.26
1116.93
1117.11
1117.75
1118.38
1119.06
1119.56
1119.63
1119.29
1119.18
1118.89
1118.53
1118.26
1121
1121.07
1121.74
1122.61
1122.48
1120.84
1119.18
1118.08
1116.97
1115.94
1115.18
1114.48
1113.63
1113.8
1114.17
1114.97
1116.18
1117.99
1119.63
1121.19
1121.61
1120.97
1119.6
1117.62
1115.05
1112.81
1112.92
1114.06
1115.96
1116.45
1127.36
1131.52
1131.34
1129.26
1127.93
1126.81
1126.14
1125.58
1125.21
1125.09
1125.11
1125.31
1125.31
1124.99
1124.71
1124.62
1124.45
1124.3
1124.67
1125.11
1125.11
1125.35
1125.63
1125.84
1126.27
1126.84
1127.26
1126.38
1124.87
1124.04
1113.95
1119.26
1119.14
1118.24
1116.2
1113.88
1111.3
1109.08
1107.79
1107.26
1106.97
1107.35
1107.64
1107.65
1107.27
1106.84
1106.72
1106.47
1106.24
1106.11
1106.14
1106.18
1106.65
1107.42
1108.68
1110.77
1109.03
1095.75
1081.25
1079.33
1126.25
1133.12
1133.72
1132.49
1131.92
1132.12
1132.17
1132.12
1132.08
1132.05
1131.85
1131.53
1131.52
1131.31
1131.4
1131.39
1131.52
1131.9
1132.28
1132.73
1133.49
1130.12
1123.39
1120.22
1122.12
1123.54
1125.52
1126.94
1127.3
1126.54
1134.27
1134.39
1135.3
1135.65
1135.49
1135.09
1134.41
1133.37
1132.12
1131.04
1129.83
1128.95
1128.36
1128.23
1128.77
1129.56
1130.65
1131.62
1132.31
1135.2
1138.92
1140.36
1139.15
1138.14
1137.72
1137.95
1138.88
1140.7
1142.23
1142.29
1133.11
1134
1135.5
1138.23
1139.65
1139.47
1138.21
1136.25
1134.31
1132.47
1130.59
1129.28
1128.51
1127.74
1128.47
1129.51
1131.23
1133.49
1135.46
1137.12
1138.6
1140.55
1142.07
1142.68
1143.18
1145.11
1147.39
1148.19
1146.85
1145.67
1145.65
1145.52
1145.9
1147.17
1147.54
1147.52
1146.89
1145.85
1144.72
1143.69
1142.89
1142.81
1143.21
1144.19
1145.18
1146.78
1149.98
1152.47
1151.83
1150.73
1150.07
1149.33
1149.57
1148.9
1149.43
1148.72
1149.1
1148.76
1149.16
1149.84
1140.22
1139.76
1141.45
1143.06
1143.55
1143.87
1144.42
1144.84
1145.22
1145.46
1145.68
1146.1
1146.18
1146.42
1146.45
1146.16
1146.2
1145.57
1145.85
1145.57
1145.63
1145.51
1144.97
1144.52
1144.16
1144.3
1145.25
1146.69
1148.1
1147.76
1173.17
1163.36
1155.26
1151.88
1152.35
1158.12
1181.59
1198.48
1199.16
1194.93
1192.41
1189.75
1189.54
1188.14
1187.7
1185.96
1184.43
1181.41
1178.63
1175.38
1173.43
1172.39
1174.48
1176.92
1180.81
1184.22
1189.28
1190.72
1190.47
1183.79
1114.12
1105.52
1103.72
1106.15
1110.59
1114.43
1117.43
1119.85
1121.82
1121.84
1122.99
1126.14
1136.1
1148.39
1093.32
1105.99
1120.7
1128.19
1131.3
1132.8
1132.58
1129.06
1124.06
1120.48
1119.63
1118.64
1115.09
1109.94
1107.5
1105.39
1105.41
1104.64
1105.24
1104.77
1104.46
1103.41
1102.22
1101.08
1100.26
1100.16
1101.11
1103.12
1103.81
1098.42
1125.41
1125.03
1124.58
1124.77
1125.67
1126.3
1124.82
1121.38
1117.85
1115.2
1115.27
1116.95
1119.27
1120.86
1121.82
1122.18
1122.32
1122.53
1122.58
1122.46
1122.57
1122.17
1122.18
1122
1122.28
1122.72
1123.59
1124.49
1125.51
1126.06
1119.74
1119.02
1118.83
1118.93
1118.99
1119.2
1119.58
1119.92
1120.68
1121.52
1121.54
1120.09
1118.68
1117.32
1116.33
1115.43
1114.39
1113.35
1112.93
1113.01
1113.64
1114.89
1116.45
1117.79
1118.7
1119.21
1119.16
1118.98
1118.81
1118.47
1120.88
1120.69
1121.76
1121.72
1119.38
1117.74
1116.6
1115.64
1114.49
1113.34
1112.35
1111.36
1110.96
1110.33
1110.48
1111.28
1112.76
1114.4
1116.39
1118.28
1120.19
1120.77
1120.39
1118.7
1115.82
1112.65
1112.53
1113.55
1115.62
1116.31
1127.71
1131.92
1131.58
1130.01
1129.44
1128.85
1127.59
1125.76
1124.94
1124.66
1125.09
1125.13
1124.5
1123.64
1123.35
1123.42
1124.16
1124.84
1126.19
1126.55
1126.87
1127.05
1127.12
1126.83
1126.51
1126.51
1126.88
1126.9
1125.82
1124.47
1114.42
1119.56
1119.57
1118.19
1116.51
1114.14
1112.1
1109.71
1108.35
1107.52
1107.14
1106.98
1107.1
1107.28
1107.54
1107.83
1108.04
1108.26
1108.44
1108.59
1107.8
1107.69
1107.29
1107.19
1107.58
1109.05
1110.04
1106.08
1092.07
1081.09
1124.36
1132.57
1133.48
1132.09
1132.72
1132.88
1132.61
1132.45
1132.69
1132.85
1132.98
1133.41
1133.5
1133.24
1133.11
1133.29
1133.2
1132.96
1132.83
1132.83
1133.27
1132.65
1127.47
1120.69
1119.01
1120.59
1124.05
1127.7
1129.02
1128.21
1133.82
1135.01
1135.85
1135.69
1135.32
1134.49
1133.31
1131.76
1129.94
1128.55
1126.16
1125.23
1124.18
1124.44
1125.04
1126.64
1127.99
1129.51
1130.91
1132.56
1136.08
1139.21
1138.98
1137.69
1136.69
1136.36
1136.75
1138.3
1141.93
1142.83
1132.77
1133.08
1135.54
1139.74
1140.37
1139.12
1136.19
1133.35
1130.64
1128.33
1126.56
1124.67
1123.27
1122.8
1122.47
1123.74
1126.59
1128.38
1131.88
1134.27
1136.57
1138.4
1140.18
1141.26
1140.93
1142.56
1146.69
1149.72
1149.25
1146.58
1145.29
1145.07
1146.4
1147.72
1147.97
1147.03
1145.34
1143.25
1141.06
1139.21
1138.22
1138.04
1138.96
1140.3
1142.18
1144
1146.72
1150.38
1151.77
1150.62
1149.49
1148.99
1149.73
1149.84
1150.67
1149.95
1150.15
1149.17
1149.45
1149.96
1142.67
1143.49
1143.82
1143.52
1143.82
1144.47
1145.32
1146.16
1147.3
1148.6
1149.99
1151.36
1152.1
1152.19
1152.06
1151.13
1150.04
1148.32
1147.01
1146.02
1145.97
1145.9
1145.02
1144.04
1143.25
1142.99
1143.26
1145.57
1147.34
1147.94
1174.29
1159.43
1152.11
1152.56
1159.03
1177.09
1196.47
1200.03
1197.57
1195.11
1194.91
1195.51
1196.94
1196.5
1196.58
1195.31
1193.88
1191.09
1188.16
1183.02
1177.8
1172.98
1173.07
1175.52
1178.68
1180.36
1188.02
1189.99
1188.84
1181.58
1101.26
1102.1
1107.27
1114.05
1120.27
1123.36
1124.52
1124.92
1126.27
1128.37
1127.95
1126.89
1132.64
1146.61
1093.18
1106.13
1122.17
1130.59
1133.69
1134.1
1130.17
1121.22
1111.8
1108.04
1111.93
1114.9
1111.5
1107.68
1106.92
1106.26
1107.14
1107.26
1108.27
1108.17
1108.02
1107.26
1105.74
1103.71
1101.67
1100.35
1100.17
1101.54
1103.53
1100.48
1125.3
1125
1125.11
1126.67
1128.07
1127.96
1125.26
1118.69
1113.17
1112.66
1116.23
1120.46
1122.69
1122.93
1122.84
1122.09
1121.45
1121.03
1121.06
1121.41
1121.88
1122.32
1123.07
1122.66
1122.95
1122.78
1123.35
1124.01
1125
1125.96
1119.59
1118.87
1118.93
1119.46
1119.83
1119.61
1119.41
1119.75
1120.23
1120.86
1120.47
1118.29
1117.12
1116.39
1115.44
1113.89
1112.12
1111
1110.31
1110.1
1110.08
1111.15
1113.17
1115.46
1117.3
1118.37
1118.92
1118.97
1118.89
1118.57
1120.78
1120.38
1122.04
1119.17
1117.33
1116.41
1115.58
1114.36
1112.87
1111.29
1109.8
1108.41
1107.27
1107.12
1106.99
1107.72
1109.08
1111.11
1113.15
1115.54
1117.83
1119.91
1120.26
1119.64
1117.62
1114.94
1115.24
1115.56
1117.72
1118.6
1127.75
1132.38
1132.74
1132.49
1133.6
1133.75
1131.05
1127
1124.88
1124.56
1125.1
1124.63
1123.15
1122.02
1122.15
1123.37
1125.23
1127.21
1129.25
1129.86
1130.92
1130.85
1130.09
1129.16
1127.91
1126.98
1126.88
1126.91
1126.27
1124.86
1114.65
1120
1119.71
1118.56
1117.45
1116.12
1114.33
1112.91
1111.24
1109.74
1108.35
1107.42
1107.1
1107.23
1107.77
1108.41
1109.24
1110.05
1110.54
1110.49
1110.59
1109.88
1109.11
1108.1
1107.58
1108.12
1109.53
1108.66
1099.79
1086.46
1121.87
1131.45
1132.91
1133.38
1134.22
1133.3
1132.57
1132.63
1133.21
1133.82
1134.53
1135.04
1134.94
1135.3
1135.56
1135.21
1135.08
1134.57
1134.11
1133.23
1133.41
1133.44
1130.35
1123.33
1118.17
1117.92
1121.6
1126.72
1130.32
1129.74
1134.55
1135.97
1135.98
1135.8
1135.46
1134.28
1132.39
1130.14
1127.47
1124.85
1122.07
1120.93
1120.11
1119.73
1120.51
1121.9
1124.5
1127.4
1129.12
1130.89
1133.54
1137.65
1139.39
1137.93
1136.64
1136.33
1136.73
1137.11
1140.14
1142.46
1132.42
1132.5
1137.9
1141.89
1141.02
1138.03
1134.25
1130.77
1127.83
1125.07
1122.3
1119.7
1117.43
1116.49
1117.39
1118.33
1120.39
1123.65
1128.05
1131.15
1133.93
1136.37
1138.41
1139.87
1140.35
1141.24
1145.74
1150.09
1150.39
1147.09
1145.15
1145.12
1147.4
1148.38
1147.65
1145.76
1143.05
1139.67
1136.6
1133.89
1130.98
1131.17
1132.92
1136.11
1138.3
1140.92
1143.87
1147.47
1150.13
1150.22
1148.6
1148.86
1150.42
1150.96
1151.78
1150.87
1150.58
1149.59
1149.76
1150.18
1144.18
1144.67
1143.95
1143.82
1144.62
1145.64
1147.07
1149.18
1151.64
1154.23
1156.26
1157.73
1158.27
1158.74
1157.79
1156.77
1155.08
1153.02
1149.84
1147.88
1146.48
1146.73
1145.38
1143.85
1142.41
1141.52
1142.26
1144.44
1147.15
1147.59
1173.67
1159.17
1158.89
1162.46
1174.68
1192.6
1201.61
1199.78
1198.45
1197.86
1199.4
1200.23
1200.07
1199.32
1199.12
1197.85
1197.01
1195.91
1193.59
1190.24
1185.18
1177.72
1173.1
1174.28
1179.2
1177.65
1182.35
1186.55
1184.42
1178.98
1101.43
1108.27
1117.29
1125.47
1131.59
1133.75
1132.62
1128.9
1126.68
1128.49
1131.24
1129.9
1132.26
1145.21
1092.77
1104.36
1121.34
1131.45
1134.31
1133.53
1125.48
1111.05
1098.08
1096.56
1107.25
1111.88
1108.93
1107.13
1107.58
1107.46
1108.84
1109.49
1111.09
1111
1111.09
1110.11
1108.93
1106.85
1104.24
1101.6
1100.19
1100.74
1102.76
1101.17
1125.3
1125.19
1125.56
1127.84
1129.76
1129.23
1123.76
1113.35
1110.17
1114.61
1120.85
1123.17
1123.13
1121.8
1120.39
1119.07
1118.24
1117.75
1117.71
1118.27
1119.27
1120.47
1122.11
1122.66
1123.5
1123.31
1123.37
1123.78
1124.61
1125.76
1119.43
1118.86
1119.51
1120.42
1120.61
1120.4
1119.71
1119.34
1119.87
1120.47
1119.29
1117.51
1117.17
1116.42
1114.5
1112.14
1110.13
1107.87
1106.17
1105.36
1105.93
1107.49
1109.93
1112.68
1115.48
1117.36
1118.35
1118.74
1118.8
1118.59
1120.82
1120.39
1120.26
1117.28
1116.74
1116.04
1114.91
1113.39
1111.45
1109.41
1107.46
1105.92
1104.9
1104.25
1104.61
1104.95
1106.1
1107.94
1110.32
1112.89
1115.62
1118.05
1120.01
1119.9
1118.8
1117.4
1117.45
1117.21
1119.46
1120.98
1127.41
1132.87
1134.43
1135.81
1138.98
1140.24
1135.63
1128.57
1124.95
1124.47
1125.09
1123.97
1121.81
1120.99
1122.15
1124.49
1127.2
1130.38
1132.35
1134.38
1135.49
1135.25
1134.21
1132.4
1130.45
1128.09
1127.18
1126.95
1126.42
1124.99
1114.67
1120.31
1120.35
1119.15
1118.57
1117.77
1117.05
1115.77
1114.71
1112.6
1109.79
1107.54
1107.05
1107.11
1107.66
1108.98
1110.43
1111.63
1112.41
1113.26
1113.16
1112.92
1111.46
1109.62
1107.96
1107.7
1108.89
1109.37
1104.35
1089.67
1119.32
1131.21
1132.62
1135.51
1135.14
1133.23
1132.45
1132.84
1133.95
1135.06
1135.92
1136.18
1136.86
1137.13
1136.9
1136.9
1136.44
1136.05
1135.44
1134.01
1133.83
1133.66
1132.04
1126
1119.03
1117.86
1120
1125.28
1131.03
1130.65
1136.1
1135.95
1136.12
1136.2
1135.88
1134.1
1131.44
1128.56
1124.71
1122.01
1119.26
1118.13
1116.68
1116.99
1117.29
1118.57
1120.92
1124.1
1127.68
1129.35
1131.8
1135.89
1138.91
1138.76
1137.57
1136.52
1136.69
1137.3
1139.35
1143
1132.1
1133.64
1141.69
1144.17
1141.42
1136.66
1132.33
1128.77
1125.57
1121.58
1118.2
1115.13
1114.03
1113.27
1112.4
1113.51
1115.56
1118.43
1123.44
1128
1131.58
1134.29
1136.61
1138.6
1139.32
1140.58
1145.35
1151.04
1151.69
1148.46
1145.16
1146.87
1149.35
1148.46
1146.72
1144.16
1140.12
1135.63
1130.9
1126.75
1124.98
1123.6
1124.74
1128.74
1133.92
1137.87
1141.15
1144.82
1147.95
1149.02
1148.05
1148.9
1151.09
1151.73
1152.15
1151.34
1151.07
1150.35
1150.42
1150.62
1144.7
1144.87
1144.15
1144.56
1145.81
1147.58
1150.06
1153.08
1156.34
1159.16
1161.48
1162.66
1162.54
1163.2
1161.5
1160.58
1158.57
1156.22
1153.46
1149.8
1147.35
1147.3
1146.11
1143.56
1142.27
1141.2
1141.82
1144.06
1147.05
1148.37
1173.7
1164.2
1169.76
1175.62
1188.55
1200.2
1202.7
1200.34
1200.33
1200.31
1201.71
1200.49
1198.48
1198.2
1196.87
1196.52
1196.94
1196.25
1194.85
1192.47
1190.05
1184.41
1175.88
1170.52
1178.45
1179.77
1175.68
1178.11
1178.06
1176.88
1110.39
1117.52
1128.7
1137.76
1142.81
1144.17
1142.46
1136.15
1128.63
1127.82
1132.02
1132.44
1132.84
1144.85
1092.33
1101.19
1117.53
1129.58
1133.21
1131.35
1120.07
1101.16
1088.02
1090.85
1106.65
1110.23
1107.99
1107.4
1108.01
1108.2
1110.67
1112.57
1114.87
1115.22
1114.75
1113.2
1111.4
1109.36
1106.61
1103.28
1100.7
1100.37
1102.25
1101.23
1125.16
1125.38
1125.86
1128.72
1130.65
1128.4
1118.42
1107.96
1110.95
1119.64
1123.2
1123.38
1121.34
1119.29
1117.74
1116.85
1116.39
1116.32
1115.98
1116.36
1116.76
1118.24
1120.21
1121.8
1123.08
1123.61
1123.58
1123.74
1124.39
1125.56
1119.39
1119.02
1119.99
1120.89
1121.08
1120.66
1120.1
1119.25
1119.25
1120
1118.86
1117.69
1117.57
1116.18
1113.37
1110.85
1107.24
1104.45
1102.6
1102.47
1103
1104.22
1106.7
1109.94
1113.18
1116.02
1117.7
1118.4
1118.6
1118.51
1120.71
1120.95
1117.78
1116.93
1116.68
1115.82
1114.5
1112.67
1110.25
1107.88
1105.72
1103.96
1103.25
1102.84
1102.27
1103.14
1103.93
1105.48
1107.56
1110.75
1113.62
1116.63
1118.82
1119.64
1119.51
1118.37
1118.89
1118.11
1121.25
1123.64
1126.78
1133.08
1136.17
1138.61
1142.75
1144.93
1139.37
1130
1124.87
1124.41
1125.11
1123.15
1121.09
1120.75
1122.38
1125.69
1129.21
1132.55
1135.49
1138.35
1139.25
1138.96
1137.7
1135.11
1132.9
1130.04
1127.69
1126.96
1126.47
1124.94
1114.3
1120.97
1121.48
1120.81
1119.9
1119.48
1118.76
1118.77
1117.62
1115.36
1111.77
1108.13
1106.83
1106.67
1107.52
1109.37
1111.05
1112.96
1114.78
1115.53
1115.51
1114.52
1113.39
1111.44
1109.13
1107.58
1108.16
1109.03
1105.66
1090.51
1117.67
1132.5
1134.13
1137.22
1135.7
1132.8
1132.45
1133.22
1134.76
1136.17
1136.83
1137.53
1138.67
1138.46
1139.11
1138.72
1138.13
1137.2
1137.07
1134.69
1134.36
1133.91
1133.01
1127.94
1121.42
1118.9
1120.35
1125.13
1131.17
1131.83
1136.36
1136.21
1136.47
1136.86
1136.28
1134.05
1130.7
1126.94
1122.78
1120.34
1117.03
1114.66
1113.03
1112.63
1113.84
1115.74
1118.52
1121.32
1124.98
1128.34
1130.67
1134.28
1138.4
1139.44
1138.05
1136.3
1137.11
1137.97
1138.86
1142
1132.4
1137.54
1145.66
1145.84
1141.33
1135.58
1130.92
1127.28
1123.2
1118.76
1115.42
1112.57
1110.38
1108.61
1108.59
1110.14
1111.84
1114.99
1119.03
1124.52
1129.17
1132.64
1134.86
1137.16
1138.33
1140.07
1145.05
1151.69
1152.25
1148.69
1146.71
1150.56
1150.03
1148.08
1146.14
1142.51
1137.45
1132.04
1126.24
1121.65
1117.94
1116.64
1117.69
1122.58
1128.1
1134.56
1138.63
1142.52
1146.17
1147.74
1147.42
1149.28
1151.28
1151.88
1151.66
1151.22
1150.83
1151.02
1151.47
1151.41
1145.05
1144.93
1144.54
1145.49
1147.27
1149.78
1152.95
1156.72
1160.03
1162.74
1164.28
1165.55
1165.36
1165.64
1163.98
1163.18
1159.7
1158.26
1155.26
1152.43
1148.25
1148.16
1147.06
1144.25
1142.55
1141.77
1142.2
1144.63
1147.77
1147.93
1174.82
1170.22
1180.23
1186.82
1197
1203.19
1202.9
1201.65
1201.89
1201.06
1201.26
1197.9
1195.3
1194.41
1193.02
1194.62
1195.31
1196.5
1195.66
1193.17
1190.21
1188.36
1182.42
1169.17
1170.59
1184.33
1179.23
1175.21
1176.72
1177.95
1115.53
1126.44
1140.34
1147.35
1148.98
1148.74
1147.95
1142.96
1132.15
1127.33
1131.72
1134.12
1134.32
1145.12
1092.09
1097.28
1110.56
1123.09
1127.9
1124.4
1110.87
1091.56
1082.65
1090.43
1108.07
1109.27
1107.55
1107.43
1107.92
1109.36
1113.1
1115.84
1118.36
1118.88
1118.3
1115.82
1113.24
1110.83
1108.2
1104.42
1101.11
1100.25
1102.01
1101.09
1125.32
1125.73
1126.46
1129.36
1131.03
1125.5
1110.26
1105.57
1115.27
1122.92
1123.6
1121.93
1119.52
1117.99
1116.82
1116.17
1115.63
1115.19
1115.26
1115.85
1115.75
1117.24
1118.46
1120.91
1122.41
1123.67
1123.8
1123.8
1124.26
1125.41
1119.45
1119.17
1120.39
1121.62
1121.97
1121.48
1120.61
1119.62
1118.66
1119.47
1118.82
1118.16
1117.66
1115.91
1113
1109.6
1105.76
1102.98
1101.24
1100.84
1100.98
1102.16
1104.78
1107.96
1111.58
1114.63
1116.84
1117.91
1118.42
1118.4
1120.48
1119.79
1117.04
1116.99
1116.4
1115.5
1114.31
1112.19
1109.58
1106.91
1104.57
1102.83
1102.16
1101.45
1101.72
1101.45
1102.53
1104.18
1105.57
1109.43
1112.05
1115.15
1117.97
1119.19
1119.58
1118.99
1119.3
1118.72
1122.37
1124.96
1126.08
1132.25
1137
1140.31
1144.57
1145.19
1140.27
1130.62
1124.84
1124.44
1125.07
1122.77
1120.84
1120.52
1122.68
1126.48
1130.32
1133.93
1138.08
1140.87
1142.63
1142.91
1141.15
1138.11
1134.31
1131.53
1128.49
1127.04
1126.3
1124.87
1114
1121.44
1123.08
1123.25
1122.86
1121.4
1120.96
1120.41
1119.75
1118.17
1113.95
1108.85
1106.63
1106.49
1107.47
1109.33
1111.47
1113.89
1115.09
1115.91
1116.2
1115.64
1113.9
1111.79
1109.37
1107.85
1107.95
1108.87
1105.97
1091
1117.23
1133.98
1136.93
1139.3
1135.79
1132.72
1132.28
1133.89
1135.2
1137.02
1137.47
1138.29
1139.53
1139.4
1139.9
1139.56
1139.18
1138.35
1137.42
1135.36
1135.38
1134.04
1133.45
1129.72
1123.65
1121.28
1122.56
1126.56
1132.09
1132.84
1136.17
1135.92
1136.85
1137.34
1136.8
1134.17
1130.41
1126.01
1121.82
1119.21
1114.54
1112.5
1110.15
1110.15
1110.78
1112.9
1116.88
1119.12
1123.42
1127.76
1129.53
1133.28
1137.84
1139.47
1138.79
1137.07
1137.68
1138.92
1139.21
1142.39
1133.94
1142.48
1148.71
1146.96
1141.29
1134.68
1130.07
1126.49
1121.63
1116.96
1113.42
1109.9
1106.96
1106.07
1105.84
1107.22
1108.41
1113.17
1115.95
1122.03
1127.39
1131.14
1133.74
1135.77
1137.58
1139.65
1146.16
1153.04
1152.95
1149.64
1151.47
1152.73
1149.65
1147.98
1145.75
1140.84
1135.61
1129.03
1122.27
1116.43
1111.29
1109.12
1110.67
1116.84
1124.35
1130.77
1136.6
1140.84
1144.49
1146.84
1146.99
1149.68
1150.74
1150.56
1149.39
1148.77
1148.29
1148.68
1149.04
1150.89
1145.35
1145.14
1145.07
1146.71
1149
1151.92
1155.55
1159.52
1162.66
1164.71
1165.83
1166.74
1166.3
1167.22
1165.33
1164.54
1160.68
1158.37
1155.83
1153.88
1149.71
1148.39
1148.62
1144.85
1143.85
1143.05
1143.68
1146.29
1147.99
1149.01
1176.75
1175.06
1188.02
1194.82
1201.34
1204.32
1203.74
1202.41
1203.07
1200.52
1198.77
1195.17
1191.55
1190.11
1189.53
1191.51
1193.75
1196.02
1196.86
1194.23
1189.83
1187.54
1187.58
1174.72
1161.01
1179.33
1188.73
1182.26
1183.18
1185.96
1119.05
1135.48
1147.89
1149.62
1146.78
1145.91
1146.87
1144.74
1133.97
1127.71
1132.3
1135.68
1135.91
1146.35
1091.94
1094.52
1103.01
1113.05
1117.56
1112.55
1098.73
1084.04
1081.41
1093.78
1109.15
1108.95
1107.51
1106.96
1108.23
1110.41
1114.5
1117.78
1119.91
1120.7
1119.47
1116.82
1113.6
1111.49
1108.62
1104.47
1101.11
1100.55
1102.05
1100.92
1125.12
1125.93
1126.7
1129.64
1130.14
1119.45
1102.5
1107.38
1119.91
1123.55
1123.33
1120.63
1118.95
1117.64
1116.52
1116.01
1115.31
1115.14
1114.65
1115.31
1115.26
1116.74
1117.64
1120.19
1121.98
1123.43
1123.99
1123.94
1124.29
1125.37
1119.54
1119.35
1120.63
1122.17
1122.29
1121.61
1120.56
1119.41
1118.68
1119.58
1118.95
1118.01
1118
1116.37
1112.76
1109.45
1105.64
1102.16
1100.38
1099.76
1099.85
1100.77
1103.38
1106.57
1110.68
1113.65
1116.19
1117.45
1118.1
1118.33
1120.82
1119.04
1117.3
1117.27
1116.68
1115.55
1114.16
1112.11
1109.43
1106.57
1104.08
1102.29
1101.43
1101.21
1101.09
1101.53
1101.56
1103.31
1104.63
1108.29
1111.07
1114.22
1117.24
1119.07
1119.53
1119.48
1119.42
1119.95
1124.07
1126.42
1125.32
1130.38
1136.14
1140.68
1144.23
1144.32
1138.76
1129.68
1124.51
1124.66
1125.38
1122.59
1120.86
1120.68
1122.71
1126.68
1130.66
1134.52
1139.45
1142.4
1144.41
1144.48
1142.51
1140.05
1135.46
1131.97
1129.08
1127.18
1126.02
1124.64
1112.83
1121.79
1124.99
1126.41
1126.61
1125.16
1123.21
1122
1121.07
1119.74
1116.04
1109.37
1106.49
1106.22
1106.98
1108.97
1111.64
1113.29
1114.81
1116.8
1116.98
1116.03
1114.31
1111.9
1109.36
1107.55
1108
1108.5
1105.39
1088.02
1118.03
1133.7
1140.39
1141.16
1136.25
1132.58
1132.5
1133.97
1135.75
1136.62
1138.48
1138.76
1140.44
1140.12
1140.69
1140.49
1139.41
1139.45
1137.5
1136.76
1135.67
1134.12
1134.17
1130.76
1125.76
1124.58
1124.99
1129.85
1133.99
1133.85
1135.99
1135.95
1136.47
1137.59
1137.35
1134.73
1130.53
1125.88
1121.91
1118.4
1113.57
1111.16
1108.59
1108.91
1109.78
1111.6
1114.37
1118.69
1122.72
1126.18
1129.26
1132.75
1136.92
1139.45
1139.27
1137.32
1137.87
1139.82
1140.09
1142.08
1137.95
1147.01
1150.43
1147.37
1141.65
1134.39
1129.76
1125.94
1121.04
1115.98
1112.51
1108.97
1106.21
1105.77
1104.8
1106.58
1106.66
1111.83
1114.37
1120.52
1125.8
1129.98
1132.95
1134.81
1136.88
1139.68
1147
1153.2
1152.7
1149.73
1155.71
1153.65
1150.13
1148.37
1145.46
1139.69
1133.78
1126.85
1119.53
1113.52
1107.24
1105.99
1106.67
1112.79
1120.74
1128.76
1135.35
1139.71
1143.43
1145.88
1146.92
1149.77
1149.95
1149.52
1148.6
1148.33
1147.96
1146.89
1146.64
1147.21
1145.45
1145.68
1145.78
1147.62
1150.42
1153.56
1157.05
1160.76
1163.76
1165.51
1166.28
1166.88
1166.49
1167.71
1165.64
1165.12
1160.68
1158.25
1155.03
1154.49
1150.59
1148.91
1149.83
1146.33
1144.84
1144.88
1145.8
1147.15
1148.72
1148.5
1179.59
1179
1190.39
1199.8
1203.37
1205.3
1204.21
1202.71
1203.17
1200.14
1196.37
1193.6
1188.84
1188.53
1187.38
1189.92
1192.33
1195.46
1197.28
1195.36
1189.58
1185.78
1187.68
1183.64
1159.1
1160.86
1185.51
1188.92
1187.02
1187.17
1123.41
1142.83
1150.52
1145.7
1140.52
1141.25
1144.19
1141.86
1132.5
1128.97
1134.49
1137.33
1139.35
1144.84
1129.91
1107.82
1093.13
1093.04
1096.37
1102.54
1104.53
1099.28
1088.68
1081.18
1082.36
1098.34
1109.83
1108.52
1107.53
1106.76
1108.06
1111.06
1114.21
1117.35
1119.36
1119.43
1118.34
1115.64
1113.39
1110.79
1107.46
1103.4
1100.9
1100.7
1101.8
1100.23
1102.67
1117.04
1125.2
1126.38
1127.68
1130.26
1126.6
1106.39
1098.21
1111.66
1122
1123.54
1122.67
1120.52
1119.06
1117.94
1116.69
1116.28
1115.29
1115.05
1114.5
1115.31
1115.24
1116.78
1117.53
1120.16
1121.84
1123.57
1124.02
1123.96
1124.18
1125.13
1125.02
1122.61
1119.94
1119.36
1120.71
1122.46
1122.78
1122.43
1121.23
1119.8
1118.28
1119.11
1119.17
1118.3
1118.41
1116.64
1113.54
1110.56
1106.1
1102.84
1101.03
1099.96
1100.2
1100.78
1103.25
1106.42
1110.12
1113.34
1115.66
1117.13
1117.89
1118.29
1120.96
1120.08
1119.76
1117.22
1117.4
1117.48
1116.92
1115.84
1114.42
1112.51
1109.9
1106.7
1104.57
1102.3
1101.24
1100.85
1100.8
1101.46
1101.06
1103.15
1104.23
1108.05
1110.58
1113.87
1116.89
1118.95
1119.35
1119.57
1119.49
1121.75
1126.06
1127.45
1127.91
1127.71
1125.2
1128.25
1133.85
1138.68
1141.51
1140.74
1134.99
1127.94
1124.45
1124.83
1125.56
1123.04
1121.06
1120.8
1122.7
1126.32
1130.43
1134.54
1138.93
1142.13
1143.91
1144.58
1142.5
1139.81
1135.75
1131.85
1128.69
1127.02
1125.66
1124.3
1115.13
1109.14
1111.94
1120.87
1126.29
1129.6
1131.44
1129.97
1127.53
1124.91
1122.99
1121.18
1117.85
1111.12
1107.12
1105.98
1106.53
1108.82
1110.72
1112.29
1114.34
1115.37
1115.52
1114.87
1113.33
1110.91
1108.82
1107.51
1107.84
1108.42
1104.86
1088.81
1119.22
1130.11
1121.81
1136.51
1144.66
1143.79
1136.8
1132.85
1132.57
1134.1
1135.87
1136.56
1138.69
1138.88
1141.08
1140.35
1141.07
1140.88
1139.75
1139.88
1138.05
1137.36
1135.35
1134.8
1134.3
1131.43
1128.28
1126.79
1128.35
1134.29
1135.64
1135.21
1135.37
1135.11
1135.37
1135.15
1135.57
1136.77
1137.77
1135.77
1131.24
1126.5
1122.46
1118.85
1113.96
1111.54
1109.06
1108.58
1109.54
1110.89
1114.36
1118.65
1122.08
1126.27
1129.18
1132.42
1136.93
1139.37
1138.77
1136.98
1138.29
1140.45
1140.98
1142.08
1143.69
1144.95
1144.37
1150.81
1150.56
1147.49
1142.28
1134.81
1130.01
1126.28
1121.45
1116.31
1112.84
1109.23
1106.54
1105.55
1105.19
1106.33
1106.94
1111.57
1114.21
1120.1
1125.43
1129.39
1132.42
1134.21
1136.7
1141.06
1150.36
1153.25
1152.38
1153.74
1157.77
1157.64
1156.59
1154.04
1150.68
1148.59
1145.39
1139.41
1133.5
1126.59
1119.13
1112.5
1106.49
1105.1
1106.51
1112.45
1120.07
1128.15
1134.45
1139.25
1142.86
1145.38
1147.55
1149.93
1150.26
1150.13
1149.95
1150.67
1149.55
1147.97
1147.12
1146.33
1145.96
1145.54
1145.83
1146.03
1146.23
1148.33
1151.08
1154.38
1157.64
1160.9
1163.78
1165.49
1166.17
1166.66
1166.5
1167.12
1165.1
1163.93
1159.7
1156.8
1154.08
1153.59
1151.54
1148.66
1151.16
1148.18
1145.8
1146.56
1147.08
1148.4
1149.34
1151.52
1170.77
1181.01
1183.34
1184.46
1193.21
1202.66
1204.6
1205.8
1204.58
1203.45
1203.01
1199.79
1196.1
1193.55
1188.75
1188.61
1187.9
1189.83
1192.69
1196.08
1197.18
1195.32
1189.34
1184.34
1186.01
1187.43
1163.86
1144.52
1165.71
1177.34
1181.89
1200.19
1235.59
1243.06
1126.99
1146.79
1148.96
1140.37
1136.67
1139.03
1141.87
1138.29
1132.49
1133.15
1137.97
1140.29
1142.18
1138.35
1116.7
1099.26
1092.43
1092.54
1093.22
1094.7
1094.16
1089.83
1083.57
1080.89
1086.17
1102.46
1110.03
1108.55
1107.05
1106.69
1107.75
1109.9
1113.12
1114.91
1116.82
1116.54
1115.39
1113.65
1111.27
1108.49
1105.03
1102.23
1100.97
1101.03
1101.18
1103.54
1114.3
1122.39
1125.57
1127.61
1128.81
1129.56
1118.2
1094.22
1097.43
1113.82
1122.26
1123.7
1122.84
1120.92
1119.56
1118.4
1117.66
1116.68
1116.24
1115.82
1115.52
1115.85
1116.1
1117.47
1118.55
1120.83
1122.43
1124.04
1124.16
1124.08
1124.33
1125.16
1125.42
1123.44
1120.27
1119.52
1120.62
1122.47
1123.48
1123.11
1121.78
1120.26
1118.44
1118.46
1119.7
1118.65
1118.59
1117.88
1114.96
1111.61
1108.02
1104.64
1102.52
1101.6
1100.84
1102.04
1104.44
1107.31
1110.36
1113.37
1115.61
1116.85
1117.63
1118.1
1121.2
1120.29
1118.87
1116.81
1117.57
1117.8
1117.62
1116.37
1114.96
1113.24
1110.89
1107.97
1105.43
1103.37
1102.31
1101.37
1101.05
1101.2
1101.7
1103.51
1104.85
1108.35
1110.91
1114.2
1116.88
1118.78
1119.35
1119.86
1119.82
1124.48
1127.12
1127.46
1127.49
1127.15
1125.83
1126.68
1130.29
1133.98
1136.06
1134.56
1129.87
1125.79
1124.56
1125.28
1126.05
1123.66
1121.83
1121.14
1122.45
1125.61
1129.58
1133.58
1137.72
1141.16
1142.55
1142.4
1141.19
1138.72
1134.85
1130.96
1128.29
1126.68
1125.51
1123.23
1111.73
1108.11
1110.93
1119.59
1126.45
1130.66
1133
1132.82
1130.59
1127.24
1124.19
1122.31
1120.02
1113.28
1107.45
1106.08
1106.33
1107.91
1109.54
1110.85
1112.27
1113.65
1114.09
1113.2
1111.64
1109.7
1108.33
1107.5
1108.13
1107.52
1100.85
1092.23
1127.78
1133.1
1127.64
1141.25
1148.88
1147.11
1138.49
1133.4
1132.72
1134.05
1135.81
1136.53
1138.44
1138.56
1140.14
1140.06
1140.38
1140.19
1139.74
1139.84
1137.72
1137.28
1135.64
1135.15
1134.29
1132.65
1130
1128.34
1130.09
1134.91
1136.28
1135.68
1135.03
1134.86
1134.94
1134.41
1134.79
1135.83
1137.69
1136.83
1132.61
1128.18
1123.21
1120.41
1116.05
1112.62
1111.01
1110.47
1110.39
1112.06
1115.86
1119.05
1122.78
1126.69
1129.36
1132.61
1136.79
1139.01
1137.93
1137.35
1139.71
1141.99
1142.14
1141.97
1143.06
1145.21
1148.79
1151.67
1149.64
1147.07
1143.28
1135.89
1130.7
1126.86
1122.44
1117.88
1114.08
1110.82
1108.67
1106.71
1106.05
1107.06
1108.51
1112.07
1115.61
1121.03
1125.91
1129.55
1132.03
1134.07
1137.06
1143.92
1151.49
1152.45
1152.21
1155.73
1160.6
1159.93