/*--------------------------------*- C++ -*----------------------------------*\
| =========                 |                                                 |
| \\      /  F ield         | OpenFOAM: The Open Source CFD Toolbox           |
|  \\    /   O peration     | Version:  2.1.1                                 |
|   \\  /    A nd           | Web:      www.OpenFOAM.org                      |
|    \\/     M anipulation  |                                                 |
\*---------------------------------------------------------------------------*/
FoamFile
{
    version     2.0;
    format      ascii;
    class       volScalarField;
    location    "0.008000000";
    object      omegaC_burn;
}
// * * * * * * * * * * * * * * * * * * * * * * * * * * * * * * * * * * * * * //

dimensions      [1 -3 -1 0 0 0 0];

internalField   nonuniform List<scalar> 
12384
(
157178
184233
198774
211252
223311
233515
241409
245537
246249
243394
236223
222674
197091
157372
240292
268297
289436
303820
317447
327425
337791
347040
357396
357917
355450
352104
357275
371076
404516
435471
468192
492236
511560
517992
516154
509098
499434
486769
470181
447910
418219
375677
297491
219592
332277
364644
383633
395439
404191
414125
425689
428736
421893
414176
411425
420870
446433
485419
528732
568435
599310
619335
626666
634094
640567
639595
635194
620358
597797
562589
515257
445788
347484
304017
375729
447497
509944
549808
577383
600321
620217
620920
604595
580827
555648
533963
529034
544026
577824
618975
654667
673882
670159
661197
665076
674225
680714
679243
666589
641796
599623
535044
444126
394318
415344
459374
479453
477054
486725
545983
636002
728020
811656
879737
930600
956835
961452
932822
913082
899258
886616
864011
830904
779719
711480
605094
446049
342200
328470
327556
329534
326330
321055
314589
309912
355378
401009
444772
480670
508979
532842
548406
548849
538922
529273
527326
540765
581914
633677
687788
739680
782860
807826
811372
787602
767994
754015
738995
715753
679269
623317
536051
414817
354533
320784
395197
456283
498056
525494
543095
558182
570511
588265
616127
656090
715334
777087
842274
906300
962607
1.00506e+06
1.02774e+06
1.02533e+06
998556
962552
937350
906199
863838
795795
677512
490119
345609
333526
356419
290325
344385
405681
465515
533453
611090
692966
772287
848271
917169
970979
1.00713e+06
1.01847e+06
1.00259e+06
964930
934155
906570
867595
817853
737439
610524
435575
344725
333134
331565
330634
325218
315106
309470
312611
410424
502842
570825
648311
727485
806697
884404
955990
1.01513e+06
1.05982e+06
1.07568e+06
1.07266e+06
1.03061e+06
996588
960306
917953
856872
758621
603882
424149
352454
350213
352636
351800
346968
332088
310676
291758
277989
270119
379019
472284
545003
595396
654772
733325
820332
906960
988278
1.05706e+06
1.107e+06
1.13115e+06
1.12593e+06
1.09418e+06
1.04754e+06
1.01832e+06
971108
912091
812803
669698
489281
398619
387194
386618
383377
371657
356646
347226
343374
345327
575444
670930
722661
775215
853421
943602
1.01872e+06
1.08068e+06
1.12224e+06
1.1346e+06
1.10719e+06
1.05193e+06
993861
922048
820888
684348
564268
517676
497881
482907
477686
472799
469587
465285
461459
453130
443879
430114
414113
391860
328633
318346
382136
478081
567820
632326
672116
693987
701842
699471
693672
688745
689702
688776
666937
639328
604162
578194
565157
568594
588577
613823
634950
643915
623295
599226
575368
548874
510750
452063
241717
267994
263029
244246
224667
253388
411958
485262
529595
579953
625894
652850
677071
689734
710949
724552
716864
687342
639817
577251
507541
440359
394313
364420
345108
320249
294016
261252
218492
157423
184245
121820
130737
145187
159872
172423
181971
187441
189308
187668
181883
171450
155918
200384
250253
238808
295819
342749
376389
391891
394247
380451
357847
328254
301307
283012
286568
314083
358390
404873
454878
497277
535221
557832
570164
568395
554689
528988
491800
443508
386959
324656
256827
326251
388842
361647
398161
410553
407474
391392
366028
337767
312551
301701
317499
366237
438380
519610
597386
662064
707287
734007
745974
751956
748841
737373
714673
670011
610074
534673
452753
370850
291975
408628
511376
471472
533395
563845
570415
558943
533903
498646
458265
420815
395750
398679
444161
523252
617417
699353
746434
754317
733080
716986
725983
745185
756038
737361
674165
578428
476680
382062
308903
503144
380690
270807
242370
257602
366527
500413
625001
732684
811689
842007
827784
782437
720069
695892
695437
724721
772268
833773
866237
838183
724479
572797
425814
302156
262680
259889
258493
252035
250997
339245
386523
401598
482975
536106
559739
559491
540184
504536
461671
420786
393243
391756
423837
479290
548146
624919
700096
759526
798345
821421
825463
828339
831335
826783
803815
742265
637136
508448
383456
475626
430663
434687
481776
505446
509516
501415
483889
466514
456630
461899
488461
545250
608954
654585
647285
583037
481261
375769
294410
248739
241537
257666
317176
418902
569021
705849
658564
486035
291684
370269
285916
227503
245027
293709
368093
459277
558771
659055
735628
761128
721550
632686
551431
484593
461808
470534
523054
615094
717662
792375
754107
584461
383985
247813
240320
238444
228757
207041
193446
320746
373657
268019
341476
441409
545328
647648
732370
769184
730767
638637
521393
431974
370402
354772
403165
479867
597631
730970
772308
650524
442297
278812
267992
274160
272308
256597
224994
191469
176041
283652
345660
279099
285575
348110
439573
543850
650734
728118
720650
618687
464802
330707
248156
196640
210031
252396
349406
518771
704476
814068
712973
510452
309723
252400
257056
253013
229378
203018
198920
341582
489807
372997
379169
502364
622639
724923
774397
748289
657030
563610
489716
479067
527438
634443
773442
832720
722491
526956
351369
331057
347567
349349
337258
324483
320247
319578
319445
317323
314530
389854
392615
274251
340151
427050
520933
592904
619491
606003
573860
543273
530563
536845
559342
603287
638431
641627
613443
553127
492560
454742
449220
471755
509495
546803
579221
597045
594745
566304
504215
546171
285524
246832
239200
235128
252501
325257
403081
483336
596057
698016
770690
784154
797888
777486
777622
756658
748705
715477
673205
606518
523219
421909
325213
259450
241833
241444
241086
233656
218321
197037
205796
141120
153111
170221
185764
196902
203935
206078
204267
198699
190514
179964
166716
223866
259033
249504
294472
325751
341198
340014
329947
314527
302596
296989
303180
320290
356396
400291
446660
482811
517267
540926
564461
577509
585352
581961
570582
549805
519663
479042
427340
366297
298426
382152
408959
378023
384882
372583
352953
332679
316517
311541
320700
348198
399568
473926
554540
627360
684700
724827
749683
761922
766529
766278
769279
758125
746490
717467
673567
609028
529840
441913
354518
482431
567520
512807
544569
550259
542471
528234
508548
488085
470416
459892
463350
500696
568492
644545
705697
737436
734940
701754
665103
641666
649052
671298
704574
730354
724300
667675
568907
458372
366354
565491
365334
238023
220428
316011
474995
613028
722413
797952
837703
842575
825604
785455
753385
710651
701631
717372
749161
779571
814737
842172
821619
716520
568533
422645
292266
231355
234298
256873
272245
359630
411563
426773
477648
493365
482730
459206
434818
417190
411019
415355
428914
458320
507316
566714
628607
685031
733422
769093
802200
822702
829932
835455
839381
833268
820226
790209
723542
610856
474576
570936
466118
462288
471511
468233
462574
461062
465793
475571
495198
527723
572996
624915
655014
653296
624659
579940
521658
460290
408163
377193
328371
331876
341639
378367
448907
581737
681670
611307
436292
413130
302709
223920
253999
329325
435738
553014
663433
738623
763183
739801
680084
617287
562119
491598
459030
471540
495532
541856
612488
701118
773016
727677
560717
362359
222477
215675
232952
222973
202061
329549
431133
315282
405008
521722
634925
723457
762101
741002
665779
568703
459865
394078
323773
314825
317429
359572
431414
545005
687563
757321
649971
438068
269845
259942
280660
286173
261259
220840
192634
299733
343323
262172
305119
405605
525359
648004
728123
698537
578398
428315
298606
214621
162936
137977
116961
141672
192909
268517
443893
637695
784938
727028
529682
326799
263321
272704
254002
220660
203860
349566
448493
324354
453698
609842
736355
767521
696260
570873
461048
378026
336865
314335
339734
397480
510947
685584
807496
743900
557560
371092
346936
364338
354026
324149
296234
271077
256791
263049
288084
386385
463822
328354
411991
508694
580385
606304
598078
581429
578142
585445
610633
648236
669889
691773
702349
695031
672574
633130
587632
542342
517462
511370
512928
507715
515029
534332
553277
558209
530294
582649
309104
256378
221248
235040
329211
417967
497478
598861
704400
770761
805718
809650
821190
805798
802214
788627
772079
741325
712829
667042
612410
527206
417950
299328
220583
188528
187994
198326
203413
175061
218365
164985
181608
200649
214772
222223
224886
223971
219508
211718
202507
193188
183823
242903
269136
268256
296226
308213
303799
286762
268034
256728
264181
289219
326450
372621
426559
474860
513574
532070
543781
545671
551777
555134
559893
561267
558059
548318
529418
499892
457589
401647
335697
419488
420919
403554
379592
340182
302731
280289
285563
317618
357644
410466
482629
566010
637930
688017
719029
737632
747755
753321
757736
760159
762205
759381
755768
735267
708393
659564
593010
508073
414691
531249
605757
560431
555824
530133
503045
484959
480468
486282
495407
509402
537869
596242
666567
716988
737373
729934
700605
670920
641675
624329
601786
612077
651597
691433
721490
714488
649678
541798
432940
613467
366337
233332
240824
392568
559619
691506
780206
823450
835944
831541
821158
799441
776135
761002
738103
746073
756375
780145
796266
819187
838220
806893
694042
546498
399295
268791
223139
255586
284204
374050
421729
454167
473681
452309
406663
360630
339587
355340
394389
435150
469033
510674
570279
635894
689806
727014
751845
766916
785613
793573
811285
823502
830689
833941
827754
811026
771693
686388
557135
637821
490693
502539
470445
435701
420547
431505
454943
485869
525849
577727
629326
653448
634564
603117
580827
571169
572396
574850
567563
533767
509493
473432
451239
436235
443567
507321
627491
662454
530329
482940
324476
238848
273467
369919
498559
633518
732017
763014
747744
708054
674760
645399
594739
561917
548847
536080
545627
555240
591961
634948
724412
772639
689196
505487
316210
207113
233521
233900
209467
335507
527081
368039
462015
585818
695838
758437
754103
700339
622914
553615
461144
415187
364194
319337
316638
323763
366862
428564
555535
701435
751009
612958
397960
271782
288007
308046
289121
247023
216800
319331
369382
278315
345123
461896
596972
715726
715145
584461
429439
308323
233196
169929
118313
94401.1
106152
113203
143334
183366
282820
441679
649624
783938
698006
489997
319376
288225
270248
236173
218773
359280
473112
397512
538852
696815
771089
689929
541326
421039
342188
275505
226108
236227
256264
282114
342896
469004
661329
799575
724369
525181
377388
367714
360949
335102
308955
280894
254241
248701
284084
391442
518604
382639
481287
566568
604381
608062
610366
630293
662708
702894
729517
751325
756624
763278
749946
737785
718234
689204
650184
609930
577912
560840
537904
482809
437346
450586
504229
551299
563419
600968
322664
256992
235679
305853
407219
491448
586485
687030
766517
801513
820992
827330
831697
821598
819352
800593
779479
758189
730464
694971
650207
585536
489583
360652
246105
173522
158758
174381
188705
144389
227946
192674
212713
229803
237666
237671
234000
230412
225882
219689
212105
206790
202544
260138
278432
288734
301776
296967
275041
243630
216468
211394
241124
294743
357135
423016
485347
529869
553431
549795
538249
517939
505373
495675
497235
503268
513885
521130
520344
505854
475921
428214
366556
446317
428501
433951
383415
317038
257567
236721
277329
340064
397221
466119
551160
631186
682666
706501
714813
715486
715270
715077
719387
725090
731044
734905
739292
730224
717536
684525
633958
560358
469464
567829
633573
610833
572206
511352
456564
433359
450711
489125
522758
554161
598929
665056
724327
746405
733131
702116
682303
673290
654004
620691
602386
598174
612060
657078
700729
720690
695296
609096
496581
654225
381290
238720
275648
455868
622936
745691
810260
829896
828398
820429
811242
798303
793773
786459
795133
782736
787104
793950
802286
808591
822494
831935
775377
645828
493866
345364
245182
254544
286936
384977
420033
478929
476432
426369
349477
280707
266528
317975
393414
452622
493946
544018
615242
684641
733074
759070
764627
755938
737625
723410
729695
750309
778571
805091
820809
814835
794974
735123
626047
688368
509237
548804
481679
410559
383480
404467
442923
488121
545997
613147
655299
630080
573810
532276
526425
566427
626659
668324
679445
682974
673845
658230
601020
522932
468510
477918
575469
664930
590277
530480
348138
255026
294523
404557
551751
692357
760839
751347
721238
699617
696533
679867
676333
671154
642572
631047
613122
608729
609743
605744
676768
749324
757706
614426
420465
256157
234543
239188
212782
340840
608159
404240
503842
630901
733841
768854
729380
661045
599505
568736
515396
506566
442903
425617
379299
355259
364556
391956
461953
596221
743439
721127
534542
342797
298157
321405
306822
265349
239206
339912
423572
301892
378749
505367
651813
738797
645632
467961
332028
242320
195028
153252
150939
144256
115753
120007
131662
154256
225556
305979
511703
709986
771337
613287
403742
306610
276629
243005
232179
370027
607104
472937
605778
747861
733378
588475
429366
320086
273105
239064
234768
201423
203696
235917
264400
337374
486773
707558
795971
644517
440083
366931
366052
361355
355463
339907
310658
278908
288430
398368
553698
433363
533174
595683
618353
632832
659881
696101
730466
751496
761643
756899
748047
750961
743322
750332
740120
723906
696954
651822
616657
595056
566493
478037
368940
368230
463339
554154
594003
605026
331114
254976
269270
357115
457989
550679
652974
736872
793336
807236
821679
827820
816706
815706
802015
783394
772003
755824
738432
711392
673153
610606
529844
409949
277745
177854
144069
156179
171925
111282
235799
221629
240002
248244
245385
236422
226790
220894
219538
219394
219514
220530
220815
274640
285312
306188
308931
291788
257523
214860
179343
178671
228222
304612
385622
462039
526448
563024
569052
546758
516059
475521
441692
416589
410730
424602
451138
479862
499870
503521
486902
448225
391047
461840
428417
461859
391843
303284
225790
220224
289914
362131
428689
508696
599934
670420
698784
700086
687677
669109
649557
635661
629011
638337
654002
675314
694607
703439
705087
689961
655987
598534
518084
593295
648501
657318
594165
497367
407533
372428
418359
489158
542269
585150
639184
704559
751669
746466
704752
680475
669741
655075
634239
633547
637756
622915
612389
621105
669282
711780
714914
656148
553462
687185
403067
250133
315790
505802
670774
780786
823934
829645
820177
809000
784184
749043
725387
717966
732597
770905
787844
795446
802579
814003
815589
831890
813754
713817
564628
405723
281751
258806
285909
395123
406332
494215
482105
418335
324083
243110
236578
306491
394560
456438
500124
558447
641066
716147
762141
785063
781234
739887
677726
621546
595439
617338
674002
739577
794305
813363
804605
766219
681040
720813
515749
592023
501850
392975
345059
374425
424097
481334
552395
634133
672485
601027
507552
455228
470157
562990
653758
687608
660473
631407
654400
689578
695617
633537
526448
463923
521895
637960
619196
546998
376604
268169
309832
431808
592473
726991
763875
729900
703598
708447
714345
717300
730477
712241
715549
708733
688597
673411
655518
598716
648728
712896
774071
686413
500272
318854
246226
240758
216313
349460
655209
423559
531597
661337
756118
766836
699394
629805
584650
606203
582358
597079
575176
544179
499684
428678
414120
383237
414474
534317
683639
758562
634340
427234
322571
331792
318956
278163
259755
355440
496274
322294
402203
536566
689233
731471
566391
384062
270827
207627
207422
224494
247594
241659
219006
205011
157976
169625
194819
265765
412553
620052
766053
688328
470529
326361
274877
243682
246397
379318
755771
523480
650585
764505
691391
501679
361973
288962
269639
293747
353714
356485
292501
242478
223323
264954
379156
592452
786659
716887
487074
369797
381220
404174
419531
417031
391373
348429
313998
406154
574815
478722
566055
611789
634761
661479
693290
720383
724241
708496
679482
655915
644883
664228
694887
734329
743354
749371
720379
681099
633917
610552
579375
491567
355603
337787
454890
567093
614461
593662
338618
254851
289920
385132
490541
592676
688983
759285
796329
798432
800195
786077
755549
734764
714191
716886
723458
731471
729530
719051
688858
629117
540764
438444
306130
185426
136289
140216
151920
81031.5
240563
245783
256540
254717
242532
224640
207464
198299
201341
213656
225827
233626
237758
284846
289217
317994
315295
291236
250327
201713
161219
161577
223591
313191
404670
486078
548932
577688
571531
536952
492171
432292
376495
330212
316149
342185
392225
444286
484158
502498
495803
461968
406139
462847
421859
484102
400350
296614
218549
237144
305299
374398
446914
535677
631032
688517
699732
686776
654272
607157
554031
507753
482888
495428
532296
583319
626112
660638
679146
682496
665095
625187
559130
604964
642984
693433
619718
494649
368379
314366
386250
483300
547541
595655
658041
727121
755275
725188
682027
656969
657451
636496
573122
542426
589655
636210
648067
629181
655591
694750
715993
684593
600580
707109
424194
268906
371356
549790
704817
800525
826007
821085
815390
798865
754012
672002
587837
534192
559898
639927
725272
779991
795161
825458
813267
825526
825977
753214
610364
444275
304446
260427
282864
403670
397638
498555
483408
421146
331644
259163
253663
313609
389814
444699
487783
556430
652030
733115
780963
806888
799572
733218
632621
520500
442308
467002
563069
667090
755718
808544
812617
785335
720133
729416
500756
624938
526083
385649
305501
337733
400632
467596
547726
640375
693213
597956
460249
405367
438259
546048
660907
667860
537548
434216
488274
601422
677517
662429
553716
475871
494020
617655
629486
530171
409660
282049
321031
451411
618295
746012
752280
720599
690729
717568
729931
711157
671735
608592
605629
665340
704760
707766
674139
619930
654511
675476
769343
728722
551481
363304
263106
240941
222337
373174
674502
430784
548595
679786
769699
759532
673493
602010
577394
629407
618405
611067
572386
594185
588335
535538
469261
404808
433765
491855
622726
762183
694406
493980
358286
342827
325912
290031
283275
368603
560714
334167
417719
556557
710161
710224
512454
329315
237810
202886
244133
301328
382922
436242
411156
352558
236707
232611
190667
261424
352015
553971
737189
720594
504926
333180
271638
252568
269578
397551
814168
547668
678989
766684
661257
455013
309369
294658
289914
404553
503473
513266
444401
355635
237433
239296
322886
517876
751962
751849
512686
392280
415107
455613
485181
495353
483626
454093
406230
447879
582960
515788
584992
624498
652071
679485
699155
697300
664356
606997
541264
496152
501378
560573
633346
707751
744866
755769
734299
693746
637749
602820
575404
501742
390210
373617
475085
576495
617495
581612
348629
252533
294243
393225
506301
613060
704241
759962
783601
775716
748644
704508
637648
583850
569310
607169
655819
694485
713750
714461
698170
647117
546395
439083
327475
199477
136646
132087
137518
65357.7
241864
260587
263973
255668
234980
207492
182692
169628
180658
209705
233904
246977
250606
291869
295081
324193
319097
292715
249806
200485
161233
161476
223061
316054
410459
494463
557849
580092
571271
530836
477530
407179
330752
259743
232435
287104
366452
438834
488141
510122
504103
469229
415018
460325
410252
499130
406020
297628
233020
252998
308687
374914
451046
550798
651956
696574
698946
675972
627857
560167
479859
400970
339678
345991
408247
491648
560559
617012
651772
668712
665425
641502
589397
602246
622449
719092
648964
507257
350330
276973
357382
466505
539948
588840
656606
730088
754355
722220
653277
625682
656361
624843
505578
387809
449751
580522
646503
644128
657663
685925
714718
699711
634857
710203
454234
307479
424462
587400
730541
806885
818662
807274
807565
799752
750110
640152
501443
375976
362768
494231
626143
733599
782855
822854
818220
825031
830196
770401
631730
459144
308953
259785
283313
410026
395418
489521
476924
424253
349977
293886
287881
326334
377639
418419
459926
539021
648609
741656
791464
821283
817704
744631
627900
475089
320330
333377
480846
622810
734025
804613
822402
799261
743762
711569
484442
648424
554828
400028
270772
293485
367049
443900
531123
630487
702489
594516
433442
378682
402125
514216
663042
662484
501294
341302
397362
542967
661064
666273
554636
460136
487356
595354
623227
485232
448032
301286
331982
462058
631319
752183
753213
702552
697681
703490
742192
688958
583177
433446
407063
542980
658953
723837
684178
671876
639080
665770
772570
743674
578842
390595
275729
244384
239632
425863
670137
439635
558453
688279
776694
761825
658913
576824
585917
622005
619326
523223
399257
467392
580514
587553
510368
474320
440360
476534
614618
751227
721283
533200
385037
350700
332181
305681
311389
392046
586664
339283
427247
564845
716576
701475
491291
305014
229731
206873
269694
408484
511955
482921
500035
502374
330373
312147
208069
271484
337189
517865
716290
725952
511280
333257
280165
278116
303277
443562
804172
555011
692248
771548
646644
429210
312188
278940
347927
508267
546808
510102
532955
440224
290230
247810
302265
481924
725829
764214
533794
439693
460621
504496
543902
574569
595049
597844
571260
575685
581202
538620
593649
629358
658213
680024
682502
657912
599923
514881
417235
356084
403547
509452
612240
705608
746611
761567
731876
699820
620416
574350
547411
498546
424568
418726
495593
575579
609018
565728
370691
250924
281442
380223
501373
612285
699109
744329
758133
744341
689568
617625
507221
406849
416431
516334
608854
673245
703802
712112
700426
658991
557852
429671
331183
222954
150473
139359
142833
95857.8
241873
265931
266684
253534
225392
188778
156712
147478
175938
219524
249229
262016
265590
279643
327040
331127
304076
327045
319578
293816
253421
208873
175306
174546
225049
311000
404591
490060
556298
580378
569518
535202
483974
419528
350032
281662
266840
331498
409031
473113
512998
522904
505758
461873
400843
362845
388546
410008
483731
500860
401396
289792
233967
249894
301439
366723
447671
560715
663129
702808
701335
679206
631567
568457
489309
405637
326751
312908
377027
465770
537384
596894
634694
656995
658202
641836
596748
564713
517309
478356
684830
726755
672802
536867
369427
281094
343304
443329
516072
562882
631878
719071
760309
721466
642740
623323
639914
639946
557094
410723
397043
538699
637413
651190
655596
688720
709509
705593
651710
629694
548370
580204
477055
384690
467559
606366
736827
804616
806542
792080
799472
798430
776074
683154
550498
412190
326322
436205
572534
699492
768894
821421
818124
828776
830676
770841
629169
450806
302895
268916
290068
293592
417003
420174
424484
470480
463908
423512
368347
329152
320647
337560
361493
381965
418584
508780
630814
738550
797074
829221
830948
772776
664027
526953
391959
364709
484653
625468
740042
809120
823829
804887
749536
679341
531686
506255
584611
651139
571967
435057
289611
259947
332029
413419
504770
603994
691689
634018
476716
379483
377252
501407
633201
675813
595916
486921
492437
588935
668785
644308
535852
453031
484941
598711
610962
487137
493566
492291
448362
330786
346280
465660
630172
753836
758967
709527
700952
702946
746410
692683
588514
424874
351501
484771
626414
721638
704361
688800
638996
695108
764740
745812
579362
380950
257455
256329
299071
379574
580100
597862
402210
449863
559363
684061
776508
772592
669150
571981
577211
618698
619436
552910
408013
416259
539417
593830
568548
504754
458731
512366
620468
749696
728893
543901
397786
359960
349194
340813
359722
415985
558125
551396
360529
332096
429815
561677
708557
711817
509113
317814
241392
217149
285500
410810
519595
427397
453183
517563
402986
354516
244841
290037
358574
518515
711711
711605
482035
322259
296561
307417
335255
395879
564449
619330
476553
551211
693068
775058
649088
432859
325174
289482
363555
534639
526492
448040
545569
480157
325715
263327
306899
480881
718993
763915
574036
512105
535880
587192
637868
680906
705890
700076
691068
632492
570915
560532
521729
548491
587637
625017
652877
671570
669477
641654
585444
507155
424358
391219
461617
564954
655806
734557
756135
755258
727199
694323
593633
522072
498779
476562
447093
456693
511523
570173
588697
554504
461898
421044
324705
300466
297576
362384
479605
593198
679093
723505
735213
712941
653264
570446
455453
357150
406670
522333
617519
681108
707874
713611
703734
661971
564414
427079
323271
239674
184751
175128
173953
135147
87898.3
49101.2
242025
264275
264993
250802
219704
180514
150007
154904
196489
238882
263654
271537
265897
257503
219568
230695
303961
314594
306962
284923
251465
215874
189818
188362
225997
298507
385391
475243
546693
578121
576442
551288
520095
475070
433965
403857
410535
451654
496089
533199
546513
536535
501937
447995
380950
320682
254816
368961
536222
486923
380470
272896
223312
239432
288003
349952
438239
563473
666126
706277
710565
694251
668075
628532
581028
529073
487689
482315
506587
543936
578848
612318
634323
645699
640631
617504
569850
531164
358327
349031
674187
726360
687934
569390
414050
322044
347219
419518
480025
519446
585015
691504
754937
741584
667747
612049
618456
643801
632199
576141
539870
591029
646205
657307
664565
695940
711408
701568
648255
575152
393701
442049
488084
403523
468071
597328
726525
794989
800384
788761
788198
796694
794492
751239
672724
578760
518087
546221
622735
712480
772683
817227
823691
835307
826441
757364
603709
420138
283542
270282
288176
282693
266455
276534
394032
439502
442425
415143
377748
349598
340291
341042
341687
341652
371143
466760
596093
721647
794156
829070
840444
805742
725240
622569
533470
508343
574563
676173
767400
818450
826075
801914
737586
610125
324436
336261
619450
638978
575010
466825
348231
278475
310762
382297
467768
562522
659833
684142
526542
407558
388392
468858
566523
646457
666431
640933
638940
667775
671119
595261
509472
458196
520981
605219
590068
467691
309922
334781
430790
317938
329722
446994
609345
744535
773266
728570
711070
702823
746040
718019
668519
574651
523526
573377
659814
726023
706209
705054
673263
715381
774616
735870
558824
365495
256096
250804
273531
305618
318270
328402
359998
428720
534567
657394
764707
787149
702543
606365
553334
608465
610593
611339
560840
537555
581372
612302
593706
527213
515151
558337
659282
761527
705624
520611
389342
359651
357174
358214
381125
427955
380148
320250
299702
328105
423474
544845
683348
735691
558407
371002
259004
229417
271803
331528
482049
514914
503118
499181
403632
325438
298568
325016
398334
552815
717642
677404
437342
317291
303345
310871
320874
328377
324746
359072
434440
542664
682884
779320
683996
488399
347845
319709
358626
495172
575403
564593
541884
451358
329380
295559
351658
514164
739552
763456
623807
570302
567046
573594
581657
607854
648148
683293
700644
685886
640566
578922
530401
502582
543790
598248
637725
662348
673060
663407
637236
604208
577068
579257
619574
684631
733571
771573
756023
734021
713332
685238
562638
461439
433026
433012
438008
461730
511926
553496
556735
509477
379234
343400
328375
306014
297428
335762
440043
556814
648091
699873
715643
698245
655918
598336
535852
510995
542713
611340
670795
706973
722729
717127
701355
660095
559737
421825
313626
240047
203727
197941
187498
142483
69491.2
41601.8
243306
256951
260422
248382
222656
193350
176950
190748
225712
256528
272929
273502
259094
237060
194976
209207
277635
286495
282102
267133
244039
220048
202905
201267
225706
281076
357266
451915
534584
575698
588776
581274
569509
553661
538668
534927
545234
563804
581671
586206
576251
546950
501994
443812
378650
318210
300869
411974
538090
455954
346324
246233
205176
225331
270720
327558
420023
552229
659752
707471
718876
717198
709221
699206
682178
667840
656237
651991
649650
652359
653023
651832
644515
629891
603212
562639
507857
469721
348170
376506
649503
721772
696279
596397
458820
369834
366578
405331
441615
466907
516926
632868
732729
761353
711239
636965
603893
619946
636871
645009
649510
649477
654645
660188
686979
703060
705321
691040
630024
533019
403749
449144
490847
392442
436768
553804
683853
774799
803643
787823
787422
797222
796414
782830
762580
730823
701177
702579
720884
761037
792694
820488
828303
835953
813493
728562
567903
384556
276709
276466
292384
291385
274680
271732
351010
391102
399913
385719
363592
347649
341029
334223
320266
304181
322541
416829
543644
683172
776856
822370
847721
833905
783651
720819
669497
653774
683253
742821
798046
828749
824228
792242
712276
558141
325838
341351
575431
597369
555093
485338
405445
339121
329144
370624
434777
511477
596604
682454
606898
481587
407831
435271
517099
592465
630359
644830
646507
643156
604725
539118
492238
497969
552980
594106
567041
420908
277888
297972
390088
282488
297489
406873
561593
711876
776058
756578
726430
709443
726953
739017
735181
708182
690245
697982
717065
736978
718702
725812
702326
750584
787005
705763
528500
355644
264822
251368
258071
267754
266387
280883
328231
397979
489821
603870
725414
793512
750960
653368
575192
575197
599151
596894
598451
608102
622531
614367
582027
561091
573705
626271
717305
766600
650281
468831
365955
350929
353825
359464
381868
420889
361550
296561
282937
324073
409960
513776
636508
743679
633018
452381
307501
247529
244135
247727
306728
362194
398822
412093
337006
308477
333007
376713
445451
606695
733938
624101
398678
312351
301110
301966
302310
301410
306430
338197
415811
520226
645386
768674
737447
565130
406101
336798
314705
352998
429801
494165
461305
392594
323828
332873
414229
583912
767050
756943
648330
600045
569525
526742
479568
456082
483804
542509
590637
605725
579345
528901
459493
427538
475350
557455
618091
655711
683086
700435
705896
708680
717139
730571
748913
774362