/*--------------------------------*- C++ -*----------------------------------*\
| =========                 |                                                 |
| \\      /  F ield         | OpenFOAM: The Open Source CFD Toolbox           |
|  \\    /   O peration     | Version:  2.1.1                                 |
|   \\  /    A nd           | Web:      www.OpenFOAM.org                      |
|    \\/     M anipulation  |                                                 |
\*---------------------------------------------------------------------------*/
FoamFile
{
    version     2.0;
    format      ascii;
    class       volScalarField;
    location    "0.001050000";
    object      fH;
}
// * * * * * * * * * * * * * * * * * * * * * * * * * * * * * * * * * * * * * //

dimensions      [0 0 0 0 0 0 0];

internalField   nonuniform List<scalar> 
12384
(
0.0264765
0.0268916
0.0273494
0.027545
0.0279127
0.0275874
0.0275678
0.0279927
0.0287885
0.028946
0.0290269
0.029139
0.0291492
0.0289802
0.0271616
0.0261771
0.0259802
0.026109
0.0262388
0.0265086
0.0267727
0.027138
0.0275183
0.0279071
0.0283088
0.0286058
0.0288266
0.0290185
0.0290413
0.0290901
0.0290687
0.0290762
0.0290785
0.029071
0.0290819
0.0290774
0.0290769
0.0290891
0.0290756
0.0290876
0.0290804
0.0290899
0.029087
0.0290831
0.0290631
0.0290513
0.0290623
0.0290696
0.0290724
0.029077
0.0290712
0.0290768
0.029073
0.0290712
0.0290754
0.0290687
0.0290754
0.0290688
0.0290736
0.0290692
0.0290717
0.0290707
0.0290708
0.029071
0.0290706
0.0290708
0.0290711
0.0290706
0.029072
0.0290705
0.0290721
0.0290713
0.0290717
0.0290786
0.0290783
0.0290699
0.0290692
0.029069
0.0290688
0.0290684
0.0290679
0.0290672
0.0290668
0.0290658
0.0290656
0.0290643
0.029064
0.0290617
0.0290612
0.0290602
0.0290614
0.0290616
0.0290625
0.0290625
0.0290631
0.0290634
0.029064
0.0290646
0.0290652
0.0290656
0.029066
0.0290664
0.0290671
0.0290785
0.0290785
0.0290674
0.0290666
0.029066
0.0290657
0.0290654
0.0290648
0.0290641
0.0290637
0.029063
0.0290625
0.0290617
0.0290606
0.0290593
0.029059
0.0290588
0.0290596
0.0290608
0.0290618
0.0290625
0.0290629
0.0290636
0.0290641
0.0290648
0.0290653
0.0290658
0.0290659
0.0290666
0.0290673
0.0290785
0.0290785
0.0290673
0.0290666
0.0290661
0.0290657
0.0290652
0.0290647
0.0290641
0.0290635
0.0290629
0.0290624
0.0290618
0.0290607
0.0290596
0.0290588
0.0290589
0.0290598
0.0290609
0.0290618
0.0290623
0.029063
0.0290635
0.029064
0.0290647
0.0290652
0.0290656
0.029066
0.0290664
0.0290671
0.0290785
0.0290785
0.0290673
0.0290665
0.0290658
0.0290658
0.0290654
0.0290649
0.0290642
0.0290636
0.0290629
0.0290625
0.0290618
0.0290609
0.0290599
0.029059
0.0290588
0.0290595
0.0290607
0.0290618
0.0290625
0.0290633
0.0290639
0.0290644
0.0290649
0.0290654
0.0290658
0.0290662
0.0290666
0.0290672
0.0290785
0.0290785
0.0290673
0.0290667
0.0290662
0.0290657
0.0290652
0.0290646
0.029064
0.0290635
0.0290629
0.0290624
0.0290618
0.0290608
0.0290597
0.0290588
0.0290587
0.0290597
0.0290608
0.0290618
0.0290623
0.029063
0.0290634
0.029064
0.0290647
0.0290652
0.0290656
0.029066
0.0290665
0.0290671
0.0290785
0.0290785
0.0290672
0.0290668
0.029066
0.0290657
0.0290651
0.0290647
0.029064
0.0290636
0.029063
0.0290625
0.0290619
0.0290609
0.0290597
0.0290588
0.0290588
0.0290597
0.0290608
0.0290618
0.0290623
0.029063
0.0290635
0.0290641
0.0290647
0.0290652
0.0290656
0.029066
0.0290665
0.0290671
0.0290785
0.0290785
0.0290673
0.0290667
0.0290662
0.0290657
0.0290651
0.0290645
0.029064
0.0290634
0.0290629
0.0290623
0.0290618
0.0290609
0.02906
0.029059
0.0290588
0.0290594
0.0290608
0.029062
0.0290626
0.029063
0.0290636
0.0290641
0.0290647
0.0290652
0.0290658
0.0290662
0.0290668
0.0290675
0.0290785
0.0290785
0.0290673
0.0290666
0.029066
0.0290656
0.029065
0.0290646
0.0290639
0.0290635
0.0290629
0.0290624
0.0290618
0.0290609
0.0290598
0.0290588
0.0290587
0.0290596
0.0290608
0.0290618
0.0290624
0.029063
0.0290635
0.0290641
0.0290647
0.0290653
0.0290657
0.029066
0.0290664
0.0290671
0.0290785
0.0290785
0.0290672
0.0290665
0.0290661
0.0290659
0.0290655
0.0290648
0.0290641
0.0290636
0.0290629
0.0290624
0.0290617
0.0290608
0.0290597
0.0290587
0.0290588
0.0290596
0.0290607
0.0290617
0.0290624
0.0290629
0.0290636
0.0290641
0.0290647
0.0290652
0.0290657
0.029066
0.0290665
0.0290673
0.0290785
0.0290785
0.0290673
0.0290667
0.0290659
0.0290655
0.0290649
0.0290645
0.0290639
0.0290636
0.0290629
0.0290626
0.0290619
0.0290611
0.02906
0.0290589
0.0290587
0.0290596
0.0290608
0.0290618
0.0290623
0.0290629
0.0290635
0.0290642
0.0290647
0.0290654
0.0290657
0.029066
0.0290664
0.029067
0.0290785
0.015774
0.0181353
0.0184031
0.0174948
0.0187138
0.0169523
0.016657
0.0180418
0.0194075
0.0223984
0.0251822
0.0262099
0.0270648
0.0273935
0.0143292
0.0127717
0.0126529
0.012893
0.0129667
0.0132162
0.0135208
0.0140747
0.0147106
0.0156503
0.0165338
0.0178979
0.019086
0.0204572
0.0215948
0.022759
0.0237294
0.0246015
0.0253339
0.026142
0.0265046
0.0271495
0.0275633
0.0278551
0.0282104
0.0283822
0.0285034
0.0285471
0.0285937
0.0287429
0.0220334
0.0218861
0.0222093
0.0225512
0.0230856
0.0235899
0.0242145
0.0247508
0.0252614
0.025745
0.0260705
0.0264637
0.0266481
0.0269819
0.0270147
0.0273554
0.0273095
0.0276207
0.0275828
0.027776
0.0278048
0.0278898
0.0279741
0.0280184
0.028084
0.028154
0.028142
0.0282106
0.028182
0.028693
0.0284161
0.0278954
0.0278959
0.0278948
0.027906
0.0279166
0.0279012
0.0279044
0.0278809
0.0278787
0.027856
0.0278516
0.0278138
0.0277785
0.0277379
0.0277468
0.0277706
0.0278129
0.0278251
0.0278475
0.0278474
0.0278785
0.0278849
0.0279201
0.0279342
0.027965
0.0279809
0.0280003
0.0280319
0.0286814
0.0286916
0.0280266
0.02801
0.0279803
0.0279679
0.0279539
0.0279186
0.0279031
0.0278686
0.0278565
0.027826
0.0278143
0.027764
0.0277195
0.0277003
0.0276915
0.027732
0.0277695
0.0278143
0.0278231
0.0278532
0.0278643
0.0278987
0.027914
0.0279502
0.0279669
0.0279782
0.028008
0.0280261
0.0286914
0.0286909
0.0280295
0.0280112
0.0279804
0.0279714
0.0279388
0.0279262
0.0278917
0.0278812
0.027846
0.0278358
0.0278021
0.0277661
0.0277257
0.0276896
0.0277008
0.0277259
0.0277788
0.0278013
0.0278329
0.0278387
0.0278728
0.0278829
0.0279182
0.0279341
0.0279648
0.0279805
0.0279989
0.0280316
0.028682
0.0286914
0.028026
0.0280072
0.0279773
0.0279661
0.0279481
0.027912
0.027897
0.0278621
0.0278509
0.0278203
0.0278125
0.0277692
0.0277385
0.0276982
0.0276968
0.027711
0.0277675
0.0278016
0.0278394
0.0278558
0.0278928
0.0279031
0.0279357
0.0279482
0.0279794
0.0279875
0.0280137
0.0280325
0.0286899
0.0286913
0.028027
0.0280014
0.0279824
0.0279534
0.0279416
0.0279045
0.0278929
0.0278597
0.0278518
0.0278228
0.027814
0.0277671
0.027732
0.0276902
0.027697
0.0277207
0.0277758
0.0278005
0.0278329
0.0278383
0.0278723
0.0278822
0.0279176
0.027933
0.027964
0.0279793
0.0279983
0.0280314
0.028682
0.0286847
0.0280382
0.0280019
0.0279881
0.027957
0.0279451
0.0279094
0.0278983
0.0278654
0.0278568
0.0278272
0.0278178
0.02777
0.0277318
0.0276901
0.0276978
0.0277211
0.0277746
0.0277997
0.0278324
0.0278381
0.0278722
0.0278824
0.0279181
0.0279337
0.0279643
0.02798
0.0279988
0.0280318
0.0286816
0.0286822
0.0280314
0.0280041
0.0279756
0.0279628
0.0279301
0.0279162
0.0278816
0.0278732
0.0278408
0.0278364
0.0278055
0.0277851
0.0277327
0.0277072
0.0276873
0.0277186
0.0277591
0.0278163
0.0278389
0.0278544
0.0278843
0.0278981
0.0279317
0.0279447
0.0279767
0.0279848
0.0280149
0.0280304
0.0286917
0.0286806
0.0280343
0.0279981
0.0279836
0.0279529
0.0279416
0.0279062
0.027895
0.0278622
0.0278547
0.027826
0.0278178
0.0277724
0.0277359
0.0276922
0.0276959
0.0277175
0.0277718
0.0277989
0.0278322
0.0278388
0.0278734
0.027884
0.0279193
0.0279352
0.0279657
0.0279819
0.0279994
0.0280319
0.028682
0.0286912
0.0280248
0.0280046
0.027985
0.0279604
0.0279463
0.0279093
0.0278952
0.02786
0.0278499
0.0278195
0.0278103
0.0277635
0.0277307
0.02769
0.0276907
0.0277279
0.0277651
0.0278126
0.0278221
0.0278517
0.0278613
0.0278955
0.0279084
0.0279448
0.0279566
0.0279827
0.0280016
0.0280244
0.0286907
0.0286818
0.028033
0.0279956
0.0279814
0.0279474
0.0279372
0.0278999
0.0278907
0.0278566
0.027852
0.0278225
0.027818
0.0277754
0.0277433
0.0276968
0.0276942
0.0277149
0.0277694
0.0277978
0.0278293
0.0278361
0.0278707
0.0278811
0.0279176
0.027933
0.0279641
0.0279824
0.0279994
0.028032
0.0286813
0.00950965
0.0111369
0.0099922
0.00924311
0.00937933
0.00968153
0.00960889
0.00980233
0.00949361
0.0101531
0.010814
0.0127792
0.0148735
0.0163644
0.00857545
0.0097267
0.0102261
0.0102294
0.0100535
0.00957523
0.00918975
0.00883523
0.00863805
0.00843742
0.00835069
0.00813002
0.00815298
0.00796669
0.00808067
0.00791946
0.00805677
0.00797536
0.00810615
0.00815398
0.00830861
0.00855816
0.00885459
0.0093165
0.00985733
0.0106465
0.0114734
0.0120813
0.0126371
0.012911
0.0078641
0.0080299
0.00806695
0.00809711
0.0080856
0.00809504
0.0081089
0.0081433
0.00814334
0.00818113
0.00818401
0.00820463
0.00821368
0.00823447
0.00823984
0.00826614
0.00823763
0.00828201
0.00821749
0.00830466
0.00821632
0.00830662
0.00822882
0.00829382
0.00825375
0.00830721
0.00827869
0.00835145
0.0083161
0.00795157
0.00779353
0.00824212
0.00827642
0.00828703
0.00830564
0.00831879
0.00834458
0.00836162
0.00838658
0.00840474
0.00842321
0.00844137
0.00846995
0.00851091
0.00854056
0.00854435
0.00852131
0.00849777
0.00848149
0.00847592
0.00846926
0.0084573
0.00844576
0.00842984
0.00841341
0.0083985
0.00838556
0.00837205
0.00835089
0.00779859
0.00779856
0.00834914
0.00836918
0.00838551
0.00839688
0.00840508
0.00842611
0.00844191
0.00845911
0.00847331
0.00848695
0.00850164
0.00853362
0.00857339
0.00858316
0.0085906
0.0085643
0.00852852
0.00850133
0.00848851
0.00847552
0.00846172
0.00844489
0.00842913
0.00840835
0.0083959
0.00838765
0.00837067
0.00834986
0.00779857
0.00779827
0.00834497
0.00836897
0.0083856
0.00839605
0.00841146
0.00842612
0.00844301
0.00845656
0.00847404
0.00848645
0.00850344
0.00853651
0.00856698
0.00859109
0.00858837
0.0085623
0.00852781
0.00850332
0.0084883
0.00847836
0.00846188
0.00844874
0.00843135
0.00841455
0.00839897
0.00838632
0.00837288
0.0083508
0.00779858
0.00779855
0.00835011
0.00837118
0.0083889
0.008395
0.00840999
0.00843034
0.00844602
0.00846321
0.0084772
0.00849037
0.00850229
0.00852779
0.00855826
0.00858359
0.00859098
0.00857434
0.00853728
0.00850544
0.00848521
0.00846863
0.00844834
0.00843517
0.00841938
0.00840488
0.00839026
0.00838077
0.00836604
0.00834215
0.00779829
0.00779901
0.00835041
0.00837062
0.00838825
0.00840323
0.00841612
0.0084351
0.00844899
0.00846406
0.00847606
0.00848804
0.00850132
0.00853025
0.0085642
0.00859091
0.00859125
0.00856651
0.00853032
0.00850368
0.00848819
0.00847833
0.00846219
0.00844902
0.00843167
0.00841502
0.00839974
0.00838696
0.00837328
0.00835082
0.00779857
0.00779863
0.00834437
0.00836933
0.0083858
0.00839948
0.00841333
0.00843055
0.00844472
0.00845957
0.00847246
0.008485
0.00849872
0.0085284
0.00856458
0.00859096
0.00859057
0.00856617
0.00853106
0.00850442
0.0084886
0.00847854
0.00846229
0.00844898
0.00843136
0.00841455
0.00839929
0.00838653
0.00837289
0.00835078
0.00779858
0.0077983
0.00834891
0.00837149
0.00838902
0.00840121
0.00841696
0.008433
0.00844914
0.0084616
0.00847615
0.00848562
0.00850006
0.00852292
0.00855682
0.0085831
0.00859317
0.00857533
0.00853867
0.00849949
0.00848023
0.0084702
0.00845347
0.00843938
0.00842253
0.00840776
0.00839251
0.00838238
0.00836624
0.00834411
0.00779835
0.00779873
0.00834892
0.00837237
0.00838877
0.00840203
0.00841554
0.00843252
0.00844705
0.00846164
0.0084737
0.00848556
0.00849842
0.00852621
0.00856117
0.0085892
0.00859212
0.00856904
0.00853337
0.00850514
0.00848886
0.00847825
0.00846149
0.00844811
0.00843056
0.00841378
0.0083981
0.0083851
0.0083724
0.00835048
0.00779856
0.00779865
0.00835187
0.00837184
0.00838321
0.00839829
0.00841222
0.00843204
0.00844747
0.00846433
0.00847769
0.0084905
0.00850401
0.00853222
0.00856433
0.00859228
0.00859162
0.00856632
0.0085314
0.00850223
0.00848855
0.00847618
0.00846313
0.00844693
0.00843214
0.00841325
0.00840057
0.00838675
0.00837335
0.00835164
0.00779873
0.00779885
0.00834932
0.00837355
0.00839048
0.00840534
0.00841893
0.00843607
0.00845032
0.00846485
0.00847597
0.00848735
0.00849869
0.00852293
0.00855569
0.00858517
0.00859394
0.00857137
0.00853482
0.00850557
0.00849114
0.00847985
0.00846375
0.00844992
0.00843185
0.00841527
0.00839872
0.00838482
0.00837251
0.00835126
0.00779859
0.0131633
0.0155974
0.0137015
0.0115457
0.010233
0.0108752
0.0115695
0.011346
0.0106683
0.00960734
0.00904777
0.00834509
0.00919027
0.0103165
0.0121147
0.0170157
0.0193541
0.0208199
0.0203565
0.0188194
0.0164762
0.0145678
0.0131191
0.0121122
0.0112972
0.0107473
0.0101861
0.0099369
0.00951817
0.00945071
0.00912171
0.00911335
0.00887119
0.00884063
0.00871033
0.00865594
0.00859928
0.00858634
0.00852054
0.00854502
0.00849985
0.00854077
0.00852546
0.00844429
0.00956104
0.00964123
0.00953855
0.00940705
0.00930056
0.00919236
0.00908159
0.0089863
0.00889742
0.00884204
0.00877982
0.00874061
0.00871244
0.00867348
0.00866687
0.00863229
0.0086336
0.0086084
0.00860654
0.00859461
0.00858632
0.00858511
0.00856872
0.00857431
0.00855943
0.00855769
0.00855897
0.00854617
0.00855184
0.00846138
0.00850933
0.00858735
0.00858362
0.00858424
0.00857767
0.00857846
0.00857332
0.00857514
0.00857009
0.00857417
0.00856868
0.00857365
0.00856922
0.00857361
0.00857065
0.00857411
0.00857165
0.0085745
0.0085727
0.0085752
0.00857374
0.00857606
0.00857477
0.00857641
0.00857507
0.008576
0.00857515
0.00857437
0.0085702
0.00847269
0.00847205
0.00857037
0.00857574
0.00857464
0.00857586
0.00857608
0.00857497
0.00857667
0.00857516
0.00857696
0.00857546
0.00857725
0.00857585
0.00857763
0.00857717
0.00857651
0.00857769
0.00857575
0.00857721
0.00857539
0.00857692
0.00857512
0.00857663
0.00857492
0.00857616
0.00857556
0.00857471
0.00857574
0.00857033
0.00847205
0.0084722
0.00857065
0.00857565
0.00857453
0.00857619
0.00857479
0.00857642
0.008575
0.00857673
0.00857535
0.00857717
0.00857581
0.008577
0.00857754
0.00857647
0.00857802
0.0085761
0.00857742
0.00857554
0.00857706
0.00857522
0.00857676
0.00857504
0.00857647
0.00857487
0.00857602
0.00857507
0.00857422
0.00857029
0.00847262
0.00847203
0.00857032
0.00857574
0.00857478
0.00857533
0.00857618
0.00857486
0.0085766
0.00857509
0.00857691
0.00857538
0.00857722
0.00857574
0.00857764
0.0085763
0.00857799
0.00857624
0.0085775
0.00857567
0.0085771
0.00857545
0.00857671
0.00857509
0.00857634
0.00857478
0.00857612
0.0085745
0.00857549
0.00857076
0.00847215
0.00847205
0.00857083
0.00857487
0.00857569
0.00857471
0.00857636
0.00857486
0.00857663
0.00857507
0.00857694
0.00857543
0.00857726
0.00857579
0.00857771
0.00857646
0.00857802
0.00857615
0.00857743
0.00857556
0.00857709
0.00857525
0.00857678
0.00857504
0.00857648
0.00857487
0.00857605
0.00857494
0.00857423
0.00857029
0.00847264
0.00847243
0.00857075
0.00857411
0.0085759
0.00857473
0.00857634
0.00857493
0.00857663
0.00857515
0.00857692
0.00857545
0.00857724
0.0085758
0.00857771
0.00857647
0.00857801
0.00857614
0.00857743
0.00857557
0.00857708
0.00857524
0.00857677
0.00857503
0.00857647
0.00857486
0.00857603
0.00857499
0.00857425
0.00857023
0.00847267
0.00847276
0.00857039
0.00857519
0.00857445
0.00857621
0.00857482
0.00857644
0.00857499
0.00857674
0.00857523
0.00857707
0.00857556
0.00857741
0.00857606
0.00857792
0.00857645
0.00857776
0.00857585
0.00857715
0.00857582
0.00857558
0.00857669
0.00857507
0.00857637
0.00857475
0.00857612
0.00857442
0.00857561
0.00857074
0.00847212
0.0084728
0.0085704
0.00857409
0.00857594
0.00857477
0.00857638
0.00857496
0.00857665
0.00857515
0.00857694
0.00857544
0.00857724
0.00857578
0.00857769
0.00857644
0.00857802
0.00857617
0.00857743
0.00857557
0.00857708
0.00857527
0.00857677
0.00857505
0.00857647
0.00857488
0.008576
0.00857513
0.00857423
0.00857032
0.00847261
0.00847207
0.00857038
0.00857571
0.00857535
0.00857476
0.00857633
0.00857486
0.0085766
0.00857508
0.00857691
0.0085754
0.00857719
0.00857576
0.00857764
0.00857658
0.00857665
0.00857763
0.00857578
0.00857718
0.00857542
0.00857692
0.00857512
0.00857663
0.00857491
0.0085764
0.00857479
0.00857566
0.00857559
0.00857053
0.00847215
0.00847273
0.00857059
0.0085741
0.00857593
0.00857464
0.00857637
0.00857485
0.00857665
0.00857503
0.00857696
0.00857531
0.00857726
0.00857569
0.00857769
0.00857637
0.00857803
0.00857628
0.00857753
0.00857572
0.00857728
0.0085755
0.00857706
0.00857527
0.00857677
0.00857509
0.00857621
0.00857536
0.00857441
0.00857024
0.00847267
0.0260047
0.0271218
0.0261387
0.0204957
0.0168767
0.0149348
0.0147122
0.0146463
0.0149471
0.0130289
0.0116339
0.010209
0.00919381
0.00879488
0.0169937
0.025948
0.0295155
0.031981
0.0332608
0.032673
0.0287556
0.0241491
0.0204062
0.0178335
0.0161214
0.0149539
0.0139729
0.0133774
0.0128219
0.0124018
0.0121028
0.01182
0.0115929
0.0114651
0.0112423
0.0110889
0.0109282
0.0106738
0.0105061
0.0101917
0.00996173
0.00975662
0.00951366
0.00939066
0.0128861
0.0132237
0.012893
0.0125847
0.0123014
0.0120709
0.0118545
0.0116927
0.0115464
0.0114424
0.011336
0.0112793
0.0112032
0.0111701
0.0111165
0.0111
0.0110619
0.0110449
0.0110234
0.0110084
0.0109882
0.010987
0.0109541
0.0109685
0.0109266
0.0109382
0.0109057
0.0108988
0.0108791
0.0108716
0.0109699
0.0109647
0.010961
0.0109505
0.0109478
0.010936
0.0109373
0.0109264
0.0109305
0.0109194
0.0109263
0.0109148
0.010923
0.010913
0.0109196
0.0109119
0.010917
0.0109105
0.0109151
0.0109096
0.0109141
0.0109095
0.010914
0.0109102
0.0109142
0.0109112
0.0109131
0.0109137
0.0109108
0.0109064
0.0109033
0.0109118
0.0109099
0.0109132
0.010911
0.0109103
0.0109132
0.0109099
0.0109135
0.0109095
0.0109136
0.0109096
0.0109137
0.0109109
0.0109118
0.0109137
0.0109101
0.0109137
0.0109095
0.0109136
0.0109094
0.0109136
0.0109098
0.0109134
0.0109104
0.0109113
0.0109133
0.0109103
0.0109119
0.0109034
0.0109038
0.0109118
0.0109099
0.0109136
0.0109098
0.0109135
0.0109098
0.0109137
0.0109096
0.0109137
0.0109099
0.0109135
0.0109111
0.0109109
0.0109137
0.0109101
0.0109138
0.0109099
0.0109136
0.0109095
0.0109137
0.0109096
0.0109139
0.0109102
0.0109139
0.0109112
0.0109127
0.0109138
0.0109106
0.0109064
0.0109035
0.0109119
0.0109104
0.0109133
0.0109118
0.0109104
0.0109134
0.0109098
0.0109136
0.0109093
0.0109136
0.0109093
0.0109137
0.0109099
0.0109138
0.0109102
0.0109139
0.0109102
0.0109138
0.0109103
0.0109139
0.0109102
0.0109138
0.01091
0.0109136
0.01091
0.0109135
0.0109103
0.010912
0.0109039
0.0109039
0.0109115
0.0109119
0.0109105
0.0109134
0.0109097
0.0109137
0.0109095
0.0109136
0.0109093
0.0109138
0.0109096
0.0109139
0.0109103
0.010914
0.0109105
0.010914
0.01091
0.0109138
0.0109096
0.0109137
0.0109097
0.010914
0.0109102
0.010914
0.0109111
0.0109132
0.0109139
0.0109108
0.0109065
0.0109061
0.0109104
0.010914
0.0109106
0.0109142
0.0109101
0.0109139
0.0109098
0.0109138
0.0109095
0.0109139
0.0109098
0.010914
0.0109104
0.0109141
0.0109104
0.010914
0.01091
0.0109138
0.0109096
0.0109137
0.0109097
0.0109139
0.0109102
0.010914
0.0109112
0.0109132
0.0109139
0.0109107
0.0109065
0.010906
0.0109113
0.0109121
0.0109137
0.0109103
0.0109139
0.0109098
0.0109139
0.0109095
0.0109137
0.0109095
0.0109138
0.0109099
0.0109139
0.0109103
0.0109139
0.0109105
0.0109139
0.0109109
0.0109129
0.0109131
0.0109104
0.0109138
0.0109099
0.0109135
0.0109099
0.0109135
0.0109097
0.0109119
0.0109037
0.0109065
0.0109104
0.0109143
0.0109106
0.0109142
0.0109101
0.010914
0.0109097
0.0109138
0.0109094
0.0109138
0.0109098
0.010914
0.0109104
0.0109141
0.0109105
0.010914
0.0109101
0.0109138
0.0109097
0.0109138
0.0109098
0.010914
0.0109103
0.010914
0.0109112
0.0109127
0.0109138
0.0109106
0.0109064
0.0109034
0.0109118
0.010911
0.0109121
0.0109128
0.0109101
0.0109137
0.0109098
0.0109137
0.0109094
0.0109138
0.0109097
0.010914
0.0109105
0.0109139
0.0109136
0.0109108
0.0109141
0.0109098
0.0109139
0.0109094
0.0109137
0.0109096
0.0109136
0.0109098
0.0109131
0.0109113
0.0109111
0.0109116
0.0109034
0.0109065
0.0109104
0.0109144
0.0109104
0.0109144
0.0109099
0.0109142
0.0109096
0.010914
0.0109092
0.010914
0.0109094
0.0109143
0.0109102
0.0109143
0.0109108
0.0109144
0.0109106
0.0109142
0.0109098
0.010914
0.0109098
0.0109142
0.0109104
0.0109141
0.0109111
0.0109127
0.0109138
0.0109105
0.0109064
0.0290397
0.0291735
0.0290548
0.0276488
0.025071
0.0226795
0.0210408
0.0195525
0.0171999
0.017254
0.0158715
0.0133927
0.011255
0.00965018
0.0221054
0.0305163
0.0320448
0.0339378
0.0372377
0.0407137
0.0420185
0.0378235
0.0315266
0.026383
0.0229601
0.0209162
0.0193629
0.0182924
0.0173301
0.0166905
0.0160543
0.0156312
0.0151551
0.0148374
0.01443
0.0141893
0.0138287
0.0135304
0.0131823
0.0128019
0.012449
0.0119911
0.0115733
0.0111921
0.017893
0.0187924
0.0181075
0.0172917
0.0166163
0.0160806
0.0156425
0.0152988
0.014987
0.0147895
0.0145555
0.0144525
0.0142554
0.0142263
0.0140578
0.014056
0.0139417
0.013925
0.0138517
0.0138326
0.0137768
0.0137562
0.013716
0.013684
0.0136579
0.0136202
0.0135936
0.0135644
0.0135228
0.01342
0.0136725
0.0137451
0.0137112
0.0136946
0.0136669
0.0136551
0.013637
0.0136293
0.0136184
0.0136144
0.0136058
0.013606
0.013598
0.0136005
0.0135944
0.0135952
0.0135923
0.0135917
0.0135902
0.0135901
0.0135897
0.01359
0.01359
0.0135911
0.013591
0.0135921
0.0135919
0.0135924
0.0135866
0.0134738
0.0134751
0.0135855
0.0135914
0.0135913
0.0135911
0.013591
0.0135909
0.0135911
0.013591
0.0135912
0.0135913
0.0135913
0.0135917
0.0135924
0.0135911
0.0135921
0.0135918
0.0135917
0.0135912
0.0135913
0.0135911
0.0135909
0.0135911
0.013591
0.013591
0.0135909
0.0135915
0.0135915
0.0135857
0.0134751
0.0134744
0.0135854
0.0135911
0.0135914
0.0135912
0.0135908
0.0135909
0.013591
0.013591
0.0135913
0.0135914
0.0135916
0.0135915
0.0135923
0.013592
0.0135918
0.0135919
0.0135916
0.0135912
0.0135911
0.0135911
0.013591
0.013591
0.0135913
0.0135912
0.0135918
0.0135919
0.0135917
0.0135868
0.0134736
0.0134751
0.0135858
0.0135917
0.0135916
0.0135908
0.013591
0.0135909
0.013591
0.0135909
0.013591
0.0135911
0.013591
0.0135915
0.0135916
0.0135917
0.0135918
0.0135918
0.0135917
0.0135916
0.0135917
0.0135919
0.0135913
0.0135912
0.0135911
0.0135909
0.0135913
0.0135913
0.0135911
0.0135857
0.0134741
0.0134751
0.013586
0.0135911
0.0135911
0.013591
0.013591
0.0135909
0.0135908
0.0135909
0.013591
0.0135913
0.0135914
0.0135919
0.0135921
0.0135922
0.0135922
0.0135921
0.0135917
0.0135915
0.0135912
0.0135912
0.013591
0.013591
0.0135913
0.0135912
0.0135918
0.0135919
0.0135918
0.0135869
0.0134737
0.0134743
0.0135865
0.0135915
0.0135919
0.0135915
0.0135912
0.013591
0.0135909
0.013591
0.0135911
0.0135914
0.0135915
0.0135919
0.0135921
0.0135922
0.0135921
0.013592
0.0135917
0.0135915
0.0135912
0.0135912
0.013591
0.013591
0.0135913
0.0135912
0.0135918
0.013592
0.0135918
0.0135868
0.0134736
0.0134739
0.0135867
0.0135919
0.0135915
0.0135915
0.0135912
0.013591
0.013591
0.0135909
0.0135911
0.0135911
0.0135914
0.0135916
0.0135918
0.0135919
0.0135919
0.013592
0.013592
0.0135919
0.0135914
0.0135916
0.0135913
0.0135912
0.013591
0.0135908
0.0135912
0.0135913
0.0135909
0.0135853
0.013475
0.0134736
0.0135868
0.0135918
0.013592
0.0135916
0.0135912
0.0135911
0.0135909
0.013591
0.013591
0.0135914
0.0135915
0.0135919
0.0135921
0.0135922
0.0135921
0.013592
0.0135917
0.0135915
0.0135913
0.0135913
0.0135911
0.0135912
0.0135913
0.0135912
0.0135917
0.013592
0.0135917
0.0135868
0.0134737
0.0134751
0.0135859
0.0135919
0.0135915
0.0135906
0.0135911
0.013591
0.013591
0.013591
0.0135911
0.0135914
0.0135914
0.0135919
0.0135922
0.0135922
0.0135923
0.0135924
0.0135921
0.0135915
0.0135915
0.0135911
0.0135911
0.013591
0.013591
0.0135912
0.013591
0.0135917
0.0135918
0.0135858
0.0134751
0.0134737
0.0135867
0.0135918
0.0135919
0.0135916
0.0135912
0.0135911
0.0135911
0.0135911
0.0135911
0.0135914
0.0135916
0.0135923
0.0135926
0.013593
0.013593
0.013593
0.0135927
0.0135924
0.0135921
0.0135918
0.0135917
0.0135916
0.0135918
0.0135915
0.0135915
0.0135918
0.0135915
0.0135863
0.0134733
0.0290106
0.028887
0.0289577
0.0290472
0.0284835
0.0271447
0.0258171
0.0244293
0.0232812
0.0220589
0.0202531
0.018682
0.014714
0.0114946
0.0264918
0.0265937
0.0257139
0.0270324
0.0314644
0.0383071
0.0458885
0.0484011
0.0441272
0.0372876
0.0318115
0.0284897
0.026401
0.0248708
0.0236122
0.022774
0.0218053
0.0213654
0.0206175
0.0203862
0.0197448
0.0195106
0.0190241
0.0185814
0.0180545
0.0174471
0.0167542
0.015906
0.0149862
0.0139695
0.0251121
0.0266719
0.0258316
0.0243041
0.0229437
0.0220113
0.0212919
0.0208217
0.0204272
0.020129
0.0199177
0.0197097
0.019569
0.0194446
0.0193369
0.0192714
0.0191777
0.0191484
0.0190701
0.0190487
0.0189887
0.0189619
0.0189244
0.0188776
0.0188617
0.0188035
0.0187714
0.0187036
0.0186309
0.0185773
0.0190616
0.0189506
0.0189178
0.0188699
0.0188526
0.0188207
0.018813
0.0187913
0.018789
0.0187723
0.018774
0.0187582
0.0187632
0.0187492
0.0187544
0.0187436
0.0187466
0.0187398
0.018741
0.0187372
0.0187377
0.0187353
0.0187356
0.0187346
0.0187354
0.0187356
0.0187365
0.0187363
0.018737
0.0187775
0.0187781
0.0187358
0.0187353
0.0187359
0.0187352
0.0187347
0.0187347
0.018734
0.0187346
0.0187339
0.0187346
0.0187337
0.0187341
0.0187341
0.0187335
0.018734
0.0187337
0.0187342
0.0187336
0.0187346
0.0187338
0.0187346
0.0187339
0.0187348
0.0187347
0.0187349
0.0187359
0.0187354
0.0187358
0.0187781
0.0187779
0.0187365
0.0187355
0.0187362
0.0187349
0.0187353
0.0187342
0.0187349
0.0187339
0.0187349
0.018734
0.018734
0.018734
0.0187342
0.0187338
0.0187337
0.018734
0.0187336
0.0187343
0.0187337
0.0187347
0.0187338
0.0187348
0.0187344
0.0187353
0.0187354
0.0187361
0.0187361
0.0187367
0.0187774
0.0187781
0.0187359
0.0187356
0.0187359
0.0187349
0.0187347
0.0187348
0.0187339
0.0187345
0.0187337
0.0187345
0.0187334
0.0187341
0.0187336
0.0187339
0.0187339
0.0187341
0.0187338
0.0187344
0.0187342
0.0187351
0.0187342
0.018735
0.0187343
0.0187354
0.0187351
0.0187361
0.0187354
0.0187367
0.0187778
0.0187782
0.0187357
0.0187354
0.0187356
0.0187356
0.0187344
0.018735
0.0187337
0.0187347
0.0187337
0.0187346
0.0187337
0.0187343
0.0187338
0.0187341
0.018734
0.0187341
0.0187337
0.0187343
0.0187338
0.0187348
0.0187338
0.0187348
0.0187343
0.0187353
0.0187355
0.0187362
0.0187361
0.0187368
0.0187774
0.0187778
0.0187367
0.0187365
0.0187359
0.0187359
0.0187346
0.0187351
0.0187339
0.0187347
0.0187338
0.0187346
0.0187337
0.0187343
0.0187338
0.0187341
0.018734
0.0187341
0.0187337
0.0187343
0.0187337
0.0187347
0.0187338
0.0187348
0.0187343
0.0187353
0.0187354
0.0187361
0.0187362
0.0187367
0.0187774
0.0187775
0.018737
0.0187361
0.0187362
0.0187352
0.0187354
0.0187342
0.0187348
0.0187337
0.0187347
0.0187337
0.0187343
0.0187337
0.018734
0.0187339
0.0187341
0.018734
0.0187343
0.0187344
0.0187341
0.0187345
0.0187343
0.018735
0.0187342
0.0187353
0.018735
0.0187362
0.0187353
0.0187361
0.0187781
0.0187773
0.0187365
0.0187366
0.0187358
0.018736
0.0187345
0.0187351
0.0187338
0.0187347
0.0187338
0.0187346
0.0187337
0.0187343
0.0187338
0.0187341
0.018734
0.0187341
0.0187338
0.0187343
0.0187338
0.0187348
0.0187339
0.0187349
0.0187344
0.0187353
0.0187355
0.0187361
0.0187361
0.0187368
0.0187775
0.0187781
0.0187359
0.018736
0.0187353
0.0187352
0.0187346
0.0187351
0.0187339
0.0187347
0.0187339
0.0187347
0.0187336
0.0187345
0.018734
0.0187341
0.0187339
0.018734
0.0187344
0.0187336
0.0187347
0.0187339
0.0187348
0.0187339
0.018735
0.0187346
0.0187354
0.0187358
0.018736
0.0187358
0.0187783
0.0187776
0.0187367
0.0187368
0.0187359
0.0187365
0.0187345
0.0187356
0.0187338
0.0187351
0.0187336
0.0187349
0.0187335
0.0187345
0.0187337
0.0187343
0.0187338
0.0187339
0.0187334
0.0187341
0.0187334
0.0187345
0.0187334
0.0187345
0.0187337
0.0187349
0.0187347
0.0187355
0.0187353
0.018736
0.0187771
0.0288073
0.0289145
0.0298643
0.0309412
0.0316989
0.0305832
0.0289926
0.027939
0.0267849
0.0270137
0.0240149
0.0206026
0.0176626
0.0133515
0.0230932
0.0219797
0.0212439
0.0222712
0.025881
0.0332854
0.0432594
0.0520826
0.0530549
0.047968
0.0416518
0.0371866
0.0345259
0.0325505
0.0310871
0.0297702
0.0286986
0.0277956
0.0269819
0.0262356
0.0255934
0.0249404
0.0243719
0.0237355
0.0230852
0.0223041
0.0213617
0.0201584
0.0184363
0.0167991
0.0309717
0.0339094
0.0344327
0.0326557
0.0304305
0.0288672
0.0278071
0.0270102
0.026442
0.0259583
0.0255971
0.0253039
0.0250195
0.0248752
0.0246212
0.02457
0.0243565
0.024344
0.0241684
0.0241593
0.0240315
0.0239906
0.0239227
0.0238301
0.0238115
0.0236761
0.0236456
0.0235055
0.0234035
0.0232627
0.0242544
0.0241016
0.0239516
0.0238686
0.0238005
0.0237581
0.0237224
0.0237003
0.0236795
0.0236662
0.0236557
0.0236441
0.0236395
0.0236316
0.0236277
0.0236227
0.0236206
0.0236164
0.0236165
0.0236134
0.0236137
0.023612
0.0236129
0.0236121
0.0236127
0.0236123
0.0236105
0.0236069
0.0236038
0.0236388
0.0236396
0.0236027
0.0236064
0.0236098
0.0236124
0.0236132
0.023614
0.0236142
0.0236143
0.0236144
0.0236145
0.0236145
0.0236142
0.0236146
0.0236137
0.0236143
0.0236143
0.0236142
0.0236143
0.0236143
0.0236142
0.023614
0.023614
0.0236139
0.0236131
0.0236117
0.0236101
0.0236065
0.0236028
0.0236395
0.0236389
0.0236027
0.0236066
0.0236099
0.0236121
0.023613
0.023614
0.0236139
0.0236143
0.0236144
0.0236147
0.0236141
0.0236145
0.0236147
0.023614
0.0236142
0.023614
0.0236143
0.0236141
0.0236143
0.023614
0.0236139
0.0236138
0.023614
0.023613
0.0236122
0.0236099
0.0236064
0.0236033
0.0236386
0.0236396
0.0236028
0.0236066
0.0236101
0.0236113
0.0236131
0.0236138
0.0236139
0.0236139
0.023614
0.0236141
0.0236141
0.0236139
0.0236141
0.0236138
0.0236143
0.023614
0.0236144
0.0236145
0.023615
0.0236149
0.0236145
0.0236142
0.023614
0.023613
0.0236122
0.0236097
0.0236062
0.0236027
0.0236386
0.0236396
0.0236029
0.0236058
0.02361
0.0236119
0.0236132
0.0236137
0.0236139
0.0236139
0.0236142
0.0236143
0.0236145
0.0236144
0.0236145
0.0236142
0.0236145
0.0236142
0.0236144
0.0236142
0.0236144
0.0236142
0.0236141
0.0236139
0.0236141
0.0236131
0.0236124
0.0236102
0.0236065
0.0236033
0.0236388
0.0236393
0.0236034
0.0236063
0.0236105
0.0236119
0.0236132
0.0236137
0.0236139
0.0236139
0.0236142
0.0236144
0.0236145
0.0236143
0.0236145
0.0236142
0.0236145
0.0236142
0.0236144
0.0236142
0.0236144
0.0236141
0.023614
0.0236138
0.023614
0.0236131
0.0236123
0.0236101
0.0236064
0.0236032
0.0236387
0.0236383
0.0236037
0.0236064
0.0236098
0.0236122