/*--------------------------------*- C++ -*----------------------------------*\
| =========                 |                                                 |
| \\      /  F ield         | OpenFOAM: The Open Source CFD Toolbox           |
|  \\    /   O peration     | Version:  2.1.1                                 |
|   \\  /    A nd           | Web:      www.OpenFOAM.org                      |
|    \\/     M anipulation  |                                                 |
\*---------------------------------------------------------------------------*/
FoamFile
{
    version     2.0;
    format      ascii;
    class       volScalarField;
    location    "0.001050000";
    object      k;
}
// * * * * * * * * * * * * * * * * * * * * * * * * * * * * * * * * * * * * * //

dimensions      [0 2 -2 0 0 0 0];

internalField   nonuniform List<scalar> 
12384
(
0.10313
0.105117
0.105084
0.106235
0.1052
0.107029
0.106802
0.1066
0.107232
0.104888
0.103995
0.1047
0.102686
0.100346
0.102426
0.104315
0.104673
0.105672
0.106649
0.107508
0.108486
0.109103
0.109449
0.109463
0.109299
0.108742
0.108156
0.107542
0.106928
0.106539
0.106216
0.106013
0.105825
0.105534
0.105579
0.105035
0.104784
0.104271
0.10368
0.103034
0.102393
0.101828
0.101053
0.100733
0.0999071
0.100127
0.100276
0.100419
0.100514
0.100593
0.100586
0.100604
0.100581
0.100505
0.100508
0.100408
0.100406
0.100288
0.100297
0.100144
0.100161
0.0999948
0.100001
0.0998555
0.0998323
0.099714
0.0996699
0.0995667
0.0995117
0.0994129
0.099386
0.099278
0.0992367
0.099169
0.0989005
0.0989147
0.0989132
0.0989197
0.0989156
0.0989188
0.0989143
0.0989132
0.0989101
0.0989058
0.0989029
0.0988985
0.0988953
0.0988908
0.0988879
0.0988832
0.0988803
0.0988763
0.0988741
0.0988718
0.0988695
0.0988686
0.0988666
0.0988662
0.0988642
0.0988635
0.0988629
0.0988616
0.0988604
0.0988567
0.0988527
0.0988619
0.0988645
0.0988641
0.0988639
0.0988647
0.0988649
0.0988665
0.0988655
0.0988672
0.0988662
0.0988679
0.0988672
0.0988675
0.09887
0.0988693
0.098869
0.0988671
0.0988679
0.0988662
0.0988671
0.0988655
0.0988665
0.0988645
0.0988644
0.0988644
0.0988641
0.0988644
0.0988616
0.0988525
0.0988526
0.098862
0.0988647
0.0988636
0.0988656
0.0988646
0.0988658
0.0988651
0.0988665
0.098866
0.0988676
0.0988677
0.0988672
0.0988683
0.0988684
0.0988693
0.0988677
0.0988686
0.0988668
0.0988674
0.0988656
0.0988664
0.0988645
0.0988652
0.0988631
0.098863
0.0988624
0.0988614
0.0988601
0.0988566
0.0988524
0.0988614
0.0988642
0.0988642
0.0988647
0.0988646
0.0988643
0.0988663
0.0988654
0.0988671
0.0988663
0.098868
0.0988672
0.0988689
0.0988678
0.0988694
0.0988675
0.0988685
0.0988665
0.098867
0.0988656
0.098866
0.0988649
0.0988654
0.0988642
0.098865
0.0988635
0.0988649
0.0988622
0.0988527
0.0988528
0.0988621
0.0988634
0.0988641
0.098864
0.0988658
0.0988649
0.0988665
0.0988658
0.0988672
0.0988666
0.098868
0.0988673
0.098869
0.0988678
0.0988695
0.0988676
0.0988685
0.0988667
0.0988673
0.0988656
0.0988663
0.0988645
0.0988652
0.0988631
0.0988629
0.0988624
0.0988615
0.0988599
0.0988563
0.0988567
0.0988604
0.0988607
0.0988628
0.0988626
0.0988645
0.0988643
0.0988656
0.0988653
0.0988667
0.0988661
0.0988677
0.0988671
0.0988689
0.0988678
0.0988694
0.0988676
0.0988685
0.0988667
0.0988673
0.0988655
0.0988664
0.0988645
0.0988652
0.098863
0.098863
0.0988625
0.0988614
0.0988599
0.0988565
0.0988568
0.0988604
0.0988621
0.0988623
0.0988642
0.0988635
0.0988653
0.0988648
0.0988664
0.0988657
0.0988671
0.0988666
0.0988683
0.0988673
0.098869
0.0988675
0.0988687
0.0988665
0.0988672
0.0988663
0.0988656
0.0988661
0.098865
0.0988655
0.0988642
0.0988651
0.0988632
0.0988643
0.0988622
0.0988526
0.0988578
0.0988603
0.0988607
0.0988628
0.0988627
0.0988645
0.0988643
0.0988658
0.0988652
0.0988667
0.0988662
0.0988677
0.0988671
0.0988688
0.0988678
0.0988694
0.0988676
0.0988685
0.0988668
0.0988673
0.0988656
0.0988663
0.0988645
0.0988652
0.0988631
0.098863
0.0988625
0.0988615
0.0988602
0.0988567
0.0988525
0.0988616
0.0988635
0.0988647
0.0988644
0.0988656
0.0988645
0.0988662
0.0988652
0.0988669
0.0988661
0.0988676
0.0988669
0.0988684
0.0988695
0.0988696
0.0988681
0.0988669
0.0988677
0.0988661
0.0988669
0.0988654
0.0988665
0.0988649
0.098866
0.0988647
0.0988645
0.0988635
0.0988622
0.0988529
0.0988576
0.0988604
0.0988614
0.0988632
0.098864
0.0988649
0.0988661
0.0988662
0.0988667
0.098867
0.0988672
0.0988678
0.0988677
0.098869
0.0988683
0.0988693
0.0988676
0.0988687
0.098867
0.0988672
0.0988659
0.0988664
0.0988649
0.0988654
0.0988635
0.0988634
0.0988626
0.0988615
0.0988601
0.0988568
0.099537
0.137516
0.142198
0.147941
0.149568
0.165142
0.1711
0.175448
0.176682
0.169741
0.15556
0.14099
0.128922
0.105562
0.10244
0.118959
0.123635
0.131129
0.140958
0.152427
0.164888
0.177114
0.188939
0.198843
0.20657
0.211434
0.213936
0.21353
0.210612
0.205602
0.198411
0.190487
0.181209
0.172304
0.162604
0.153102
0.144248
0.135491
0.127668
0.120581
0.114285
0.109196
0.105432
0.101157
0.100201
0.102451
0.102533
0.102808
0.103043
0.103323
0.103492
0.103608
0.103612
0.103575
0.103451
0.103312
0.103132
0.10293
0.102749
0.102488
0.10234
0.102074
0.101945
0.1017
0.101576
0.101387
0.101268
0.101146
0.101029
0.100942
0.10087
0.100796
0.100756
0.0991764
0.0988753
0.100337
0.100331
0.100329
0.100325
0.100311
0.100309
0.100288
0.100284
0.100257
0.100251
0.100221
0.100212
0.100178
0.10016
0.10013
0.100125
0.100105
0.100107
0.100092
0.1001
0.100092
0.100102
0.100096
0.100108
0.100098
0.100103
0.100109
0.100096
0.098811
0.0988042
0.100099
0.100099
0.100107
0.100099
0.1001
0.100105
0.100095
0.1001
0.100087
0.100093
0.10008
0.100082
0.10006
0.100063
0.100061
0.100064
0.100084
0.100081
0.100094
0.100087
0.100101
0.100094
0.100106
0.100101
0.100102
0.100106
0.100098
0.100099
0.0988042
0.0988079
0.100097
0.1001
0.100107
0.100099
0.100107
0.100096
0.100102
0.100091
0.100095
0.100082
0.100088
0.100076
0.100066
0.100065
0.100056
0.100074
0.100074
0.10009
0.100083
0.100096
0.100091
0.100103
0.100096
0.100108
0.100098
0.100103
0.100109
0.100096
0.098811
0.0988043
0.1001
0.100098
0.100103
0.100103
0.100101
0.100107
0.100095
0.100101
0.100087
0.100094
0.100081
0.100086
0.100066
0.100066
0.100056
0.100073
0.100076
0.100091
0.100086
0.100097
0.100093
0.100104
0.100098
0.100108
0.100101
0.100107
0.100101
0.100095
0.0988097
0.0988041
0.100098
0.100104
0.100102
0.100108
0.100099
0.100105
0.100093
0.1001
0.100085
0.100093
0.10008
0.100085
0.100065
0.100064
0.100055
0.100074
0.100074
0.10009
0.100083
0.100097
0.10009
0.100102
0.100096
0.100108
0.100098
0.100104
0.10011
0.100096
0.0988109
0.0988109
0.100096
0.100112
0.1001
0.100108
0.100098
0.100104
0.100092
0.1001
0.100086
0.100093
0.100081
0.100085
0.100066
0.100064
0.100055
0.100073
0.100074
0.10009
0.100083
0.100097
0.100091
0.100103
0.100096
0.100108
0.100099
0.100104
0.10011
0.100096
0.0988109
0.0988111
0.100099
0.100109
0.100109
0.100099
0.100107
0.100095
0.100102
0.10009
0.100095
0.100083
0.100089
0.100075
0.100075
0.100057
0.100064
0.100066
0.100086
0.100083
0.100091
0.100094
0.10009
0.100101
0.100095
0.100106
0.1001
0.100109
0.100101
0.100098
0.0988053
0.098811
0.100099
0.100112
0.100099
0.100106
0.100096
0.100104
0.100091
0.100099
0.100084
0.100093
0.10008
0.100085
0.100066
0.100065
0.100055
0.100073
0.100074
0.10009
0.100084
0.100096
0.100091
0.100103
0.100098
0.100108
0.100099
0.100103
0.100109
0.100096
0.098811
0.0988043
0.100099
0.100096
0.100104
0.100108
0.100102
0.100107
0.100095
0.100101
0.100087
0.100094
0.100081
0.100085
0.100065
0.100061
0.100062
0.100065
0.100084
0.10008
0.100093
0.100086
0.100101
0.100094
0.100106
0.1001
0.100106
0.100101
0.100099
0.100099
0.0988044
0.0988113
0.100098
0.100113
0.1001
0.100107
0.100096
0.100105
0.100093
0.100101
0.100087
0.100095
0.100081
0.100086
0.100068
0.100067
0.100055
0.100072
0.100075
0.100089
0.100083
0.100097
0.100091
0.100103
0.100098
0.100109
0.100101
0.100103
0.10011
0.100095
0.0988111
0.112397
0.180195
0.150378
0.142273
0.142248
0.160905
0.163261
0.162058
0.159409
0.157086
0.147053
0.135301
0.128988
0.104375
0.102965
0.136558
0.141312
0.148909
0.156586
0.164518
0.171559
0.177679
0.181714
0.18408
0.184836
0.18415
0.181603
0.178248
0.173703
0.168687
0.162976
0.157137
0.150829
0.145534
0.139532
0.134319
0.129056
0.123743
0.119142
0.114493
0.110827
0.107593
0.105189
0.101335
0.100344
0.103287
0.103204
0.103225
0.103239
0.103234
0.10319
0.103102
0.103005
0.102896
0.102725
0.102595
0.102414
0.102282
0.102108
0.101958
0.101828
0.101657
0.101557
0.101369
0.101289
0.101152
0.101073
0.100983
0.100901
0.100842
0.100777
0.100748
0.100702
0.0992439
0.0990078
0.100335
0.100313
0.100296
0.100278
0.10025
0.100236
0.100204
0.100192
0.10016
0.100152
0.100119
0.100108
0.100069
0.100053
0.100032
0.100044
0.100034
0.100046
0.100028
0.10004
0.100027
0.100042
0.100035
0.100052
0.100052
0.100062
0.100074
0.100077
0.0989251
0.098941
0.100068
0.100059
0.100064
0.100051
0.100046
0.100045
0.100026
0.100033
0.100015
0.100024
0.100006
0.100006
0.0999767
0.0999685
0.0999676
0.0999781
0.100008
0.100006
0.100024
0.100014
0.100032
0.100025
0.100044
0.100044
0.100052
0.100063
0.100058
0.100068
0.0989415
0.0989396
0.100074
0.100059
0.100065
0.100048
0.100053
0.100035
0.10004
0.100023
0.100029
0.100013
0.100016
0.0999948
0.099978
0.0999679
0.0999582
0.0999885
0.0999938
0.100018
0.10001
0.100027
0.100019
0.100036
0.100031
0.100051
0.10005
0.100061
0.100072
0.100077
0.0989256
0.098942
0.100068
0.10006
0.100062
0.100053
0.100041
0.100043
0.100024
0.100031
0.100013
0.100022
0.100005
0.100008
0.0999794
0.0999724
0.0999564
0.0999816
0.09999
0.100015
0.100012
0.100029
0.100027
0.100044
0.100039
0.100056
0.100052
0.100067
0.100064
0.100083
0.0989338
0.0989412
0.100065
0.100063
0.100051
0.100054
0.100036
0.100042
0.100023
0.100032
0.100014
0.100024
0.100005
0.100007
0.0999762
0.0999691
0.0999574
0.0999868
0.099993
0.100018
0.10001
0.100027
0.100019
0.100036
0.100031
0.10005
0.10005
0.100062
0.100072
0.100077
0.0989257
0.0989281
0.100079
0.100073
0.100054
0.100059
0.10004
0.100046
0.100027
0.100034
0.100016
0.100025
0.100007
0.100007
0.0999769
0.0999691
0.0999573
0.0999862
0.0999926
0.100018
0.100009
0.100027
0.100019
0.100036
0.100031
0.10005
0.10005
0.100062
0.100072
0.100077
0.0989253
0.0989251
0.100078
0.100065
0.100061
0.100045
0.100051
0.100031
0.100038
0.100019
0.100029
0.100011
0.10002
0.0999976
0.0999929
0.0999619
0.0999659
0.0999682
0.0999998
0.100006
0.100022
0.100028
0.100028
0.100044
0.100038
0.100056
0.100051
0.100066
0.100059
0.100072
0.0989411
0.0989247
0.100075
0.100072
0.100053
0.100059
0.100039
0.100045
0.100026
0.100035
0.100016
0.100025
0.100007
0.100009
0.0999789
0.0999705
0.0999564
0.0999839
0.0999915
0.100016
0.100009
0.100027
0.100019
0.100036
0.100031
0.100051
0.10005
0.100062
0.100073
0.100077
0.0989257
0.0989416
0.100068
0.100062
0.10006
0.100053
0.100037
0.100042
0.100023
0.100031
0.100013
0.100023
0.100004
0.100007
0.0999767
0.099965
0.0999657
0.099978
0.100007
0.100005
0.100024
0.100014
0.100033
0.100023
0.100043
0.100037
0.100055
0.100057
0.10006
0.100066
0.0989404
0.0989246
0.100076
0.100071
0.100051
0.100058
0.100037
0.100044
0.100023
0.100032
0.100013
0.100024
0.100006
0.100011
0.0999823
0.0999737
0.0999554
0.0999806
0.0999912
0.100016
0.100009
0.100026
0.100017
0.100036
0.10003
0.100049
0.100049
0.100061
0.100074
0.100077
0.0989252
0.165565
0.339346
0.221607
0.180476
0.185157
0.217035
0.200849
0.180942
0.16844
0.159777
0.153887
0.145333
0.13572
0.101696
0.104858
0.171797
0.185899
0.198298
0.20475
0.209592
0.211902
0.213155
0.212488
0.20985
0.206143
0.200978
0.195235
0.188985
0.182177
0.175039
0.168083
0.161
0.154463
0.1481
0.141616
0.135968
0.130184
0.125021
0.120096
0.115433
0.11177
0.108357
0.106199
0.101604
0.100721
0.105132
0.104604
0.104367
0.104192
0.104005
0.103811
0.103652
0.103473
0.103265
0.103052
0.102821
0.102583
0.102396
0.102149
0.102019
0.101786
0.101688
0.101483
0.101387
0.101227
0.101117
0.101004
0.100898
0.100813
0.100738
0.100653
0.100642
0.100558
0.0992276
0.0989562
0.100202
0.100185
0.100169
0.100152
0.10013
0.100115
0.100094
0.100079
0.100059
0.100042
0.100021
0.100004
0.0999849
0.0999678
0.0999488
0.099933
0.0999147
0.0999027
0.0998915
0.0998847
0.0998781
0.0998748
0.0998728
0.0998719
0.0998676
0.0998729
0.0998791
0.0998742
0.0988588
0.0988483
0.0998742
0.099876
0.099875
0.0998696
0.0998639
0.0998712
0.0998684
0.0998681
0.0998669
0.0998668
0.0998654
0.0998653
0.099862
0.0998611
0.0998683
0.099864
0.0998652
0.0998657
0.099867
0.099867
0.0998681
0.0998682
0.0998706
0.0998651
0.0998705
0.0998751
0.0998749
0.0998738
0.0988478
0.0988479
0.0998702
0.0998771
0.0998739
0.0998708
0.0998698
0.0998687
0.0998684
0.0998673
0.0998671
0.0998655
0.0998665
0.0998633
0.0998593
0.0998644
0.099864
0.0998641
0.0998647
0.099866
0.0998665
0.0998676
0.0998669
0.0998679
0.099868
0.0998697
0.0998664
0.0998728
0.0998795
0.0998737
0.0988585
0.0988474
0.0998741
0.0998746
0.0998754
0.0998715
0.0998669
0.0998707
0.0998686
0.0998686
0.0998674
0.0998675
0.099866
0.0998655
0.0998645
0.099864
0.0998642
0.099864
0.0998644
0.0998656
0.0998657
0.0998663
0.0998668
0.0998682
0.0998691
0.0998705
0.0998715
0.0998756
0.0998793
0.0998713
0.0988488
0.0988473
0.0998745
0.0998753
0.0998733
0.099874
0.0998701
0.0998696
0.099868
0.0998682
0.099867
0.0998665
0.099865
0.0998643
0.0998631
0.0998622
0.0998628
0.0998631
0.0998641
0.0998653
0.099866
0.0998672
0.0998665
0.0998675
0.0998673
0.0998689
0.0998662
0.0998733
0.0998796
0.0998736
0.0988584
0.0988577
0.0998682
0.0998766
0.0998713
0.0998694
0.0998678
0.0998678
0.099867
0.0998674
0.0998666
0.0998662
0.0998646
0.0998641
0.099863
0.0998622
0.0998628
0.0998633
0.0998641
0.0998655
0.0998662
0.0998674
0.0998667
0.0998676
0.0998675
0.0998691
0.099866
0.0998729
0.0998793
0.0998739
0.0988585
0.0988589
0.0998716
0.0998749
0.0998763
0.0998698
0.0998696
0.0998682
0.0998683
0.0998673
0.0998677
0.0998665
0.0998658
0.0998645
0.0998639
0.0998634
0.0998631
0.0998637
0.0998646
0.0998631
0.0998698
0.0998706
0.0998666
0.099868
0.0998687
0.0998703
0.0998716
0.0998751
0.0998775
0.0998707
0.0988478
0.0988591
0.0998728
0.0998767
0.0998713
0.0998694
0.0998676
0.0998677
0.0998669
0.0998673
0.0998665
0.0998663
0.0998648
0.0998642
0.0998631
0.0998623
0.0998628
0.0998631
0.099864
0.0998652
0.0998659
0.0998671
0.0998665
0.0998676
0.0998679
0.0998696
0.0998664
0.0998724
0.0998792
0.0998735
0.0988585
0.098847
0.0998741
0.0998724
0.0998727
0.0998751
0.0998696
0.0998696
0.0998677
0.0998679
0.0998668
0.0998665
0.099865
0.0998642
0.0998624
0.0998675
0.0998668
0.0998618
0.0998638
0.0998646
0.099866
0.0998664
0.0998675
0.0998672
0.0998686
0.0998687
0.0998731
0.0998696
0.0998725
0.0998742
0.0988478
0.0988588
0.0998711
0.099876
0.0998709
0.0998694
0.0998677
0.099868
0.0998676
0.0998681
0.0998676
0.0998677
0.0998661
0.0998652
0.0998632
0.099862
0.0998621
0.0998616
0.0998623
0.0998634
0.099865
0.0998666
0.0998664
0.0998676
0.0998677
0.0998702
0.099866
0.0998721
0.0998785
0.0998746
0.0988589
0.175332
0.424039
0.409473
0.325499
0.257741
0.280338
0.24285
0.238709
0.217305
0.189993
0.177613
0.17171
0.161657
0.106956
0.108439
0.238798
0.307255
0.351387
0.349062
0.327474
0.304789
0.286906
0.272299
0.258792
0.245729
0.233254
0.221084
0.20962
0.19905
0.189211
0.179762
0.170767
0.162543
0.154649
0.147654
0.141254
0.134808
0.129248
0.123407
0.11864
0.114375
0.110777
0.108356
0.101806
0.10091
0.108028
0.106945
0.106363
0.105861
0.105439
0.104963
0.104594
0.104212
0.103858
0.10357
0.103214
0.102968
0.102683
0.102402
0.102229
0.101931
0.101856
0.10157
0.101525
0.101297
0.101216
0.10108
0.100949
0.100889
0.100779
0.100724
0.100662
0.100596
0.0991925
0.0990035
0.100254
0.100247
0.100218
0.100203
0.100189
0.100163
0.100152
0.100123
0.100113
0.100083
0.100075
0.100045
0.100036
0.100008
0.1
0.0999722
0.0999668
0.0999376
0.0999379
0.0999141
0.0999198
0.0999008
0.0999096
0.0998947
0.0999056
0.0998995
0.0998933
0.0999002
0.0988611
0.0988748
0.0998899
0.0999066
0.0998936
0.0999023
0.0999044
0.0998928
0.0999042
0.0998923
0.099905
0.0998923
0.0999048
0.0998913
0.0999019
0.0998957
0.0998892
0.0999036
0.0998916
0.0999055
0.0998925
0.0999057
0.0998924
0.0999045
0.0998929
0.0999043
0.0999014
0.0998934
0.0999061
0.09989
0.0988747
0.0988716
0.0998894
0.0999069
0.0998945
0.0999051
0.0998929
0.0999046
0.0998925
0.0999049
0.0998925
0.0999041
0.0998907
0.099901
0.0999023
0.0998899
0.0999027
0.099891
0.0999046
0.0998923
0.099906
0.099893
0.0999054
0.0998924
0.0999043
0.0998923
0.099904
0.0998994
0.0998932
0.0998998
0.098861
0.0988746
0.0998902
0.099906
0.0998936
0.0998987
0.0999045
0.0998928
0.0999048
0.0998926
0.099906
0.0998928
0.0999059
0.099892
0.0999043
0.099891
0.0999031
0.0998913
0.0999033
0.099892
0.0999025
0.0998929
0.0999028
0.0998925
0.0999041
0.0998931
0.099905
0.0998952
0.0999047
0.0998896
0.0988705
0.0988737
0.0998902
0.0999011
0.0999048
0.0998929
0.0999048
0.0998923
0.0999054
0.0998923
0.099906
0.099892
0.0999048
0.099891
0.0999026
0.0998896
0.0999018
0.0998903
0.0999039
0.0998918
0.0999056
0.0998926
0.0999054
0.0998924
0.0999042
0.0998921
0.099904
0.0998979
0.0998928
0.0998996
0.098861
0.0988639
0.0998972
0.099894
0.099905
0.0998926
0.0999049
0.0998924
0.0999053
0.0998924
0.0999058
0.0998921
0.0999044
0.099891
0.0999024
0.0998896
0.0999019
0.0998905
0.0999041
0.0998919
0.0999057
0.0998928
0.0999055
0.0998924
0.0999042
0.0998921
0.099904
0.0998982
0.0998926
0.0999
0.0988609
0.0988626
0.0998965
0.0998996
0.0998945
0.0999049
0.0998924
0.0999054
0.0998926
0.0999063
0.099893
0.099906
0.0998924
0.0999046
0.0998913
0.099903
0.0998905
0.0999026
0.099891
0.099902
0.099894
0.0998938
0.0999029
0.0998923
0.0999042
0.0998933
0.0999051
0.0998951
0.0999073
0.0998886
0.0988735
0.0988608
0.0998992
0.0998931
0.0999046
0.0998924
0.0999049
0.0998921
0.0999055
0.0998924
0.0999061
0.0998921
0.0999046
0.099891
0.0999025
0.0998897
0.0999017
0.0998904
0.0999038
0.0998917
0.0999053
0.0998926
0.099905
0.0998922
0.0999039
0.099892
0.0999037
0.0998993
0.0998931
0.0998995
0.098861
0.0988746
0.0998907
0.0999051
0.0998976
0.0998949
0.0999047
0.0998922
0.0999049
0.0998923
0.0999059
0.0998921
0.0999051
0.0998909
0.0999026
0.0998893
0.099891
0.099902
0.0998906
0.0999044
0.0998917
0.0999055
0.0998919
0.0999048
0.0998918
0.0999046
0.099893
0.0999001
0.0999041
0.0998898
0.0988747
0.0988617
0.0998981
0.0998926
0.0999049
0.0998923
0.099905
0.099892
0.099906
0.0998926
0.0999071
0.0998927
0.099906
0.0998909
0.0999024
0.099889
0.0999003
0.0998889
0.099901
0.0998904
0.0999049
0.0998923
0.0999051
0.0998921
0.0999039
0.0998921
0.0999034
0.0998995
0.0998929
0.0999009
0.0988611
0.182178
0.43922
0.526849
0.563911
0.453551
0.41676
0.349593
0.293371
0.273248
0.260883
0.237911
0.231469
0.219326
0.109981
0.111764
0.373081
0.709077
0.944171
0.90052
0.731255
0.566268
0.458133
0.390818
0.345842
0.311355
0.283698
0.260858
0.241011
0.224317
0.209486
0.196246
0.18455
0.17405
0.164011
0.155369
0.147471
0.14037
0.134187
0.128075
0.123035
0.118286
0.114529
0.11174
0.102486
0.101387
0.112945
0.110609
0.109216
0.108101
0.107254
0.106466
0.105784
0.105218
0.104625
0.104202
0.103711
0.10337
0.102991
0.102689
0.102439
0.102152
0.102002
0.101726
0.101625
0.101401
0.101291
0.101152
0.101009
0.100943
0.100804
0.100765
0.100675
0.100669
0.0992147
0.099056
0.100301
0.100284
0.100256
0.10024
0.100217
0.100196
0.100176
0.100155
0.100137
0.100115
0.100099
0.100076
0.10006
0.100038
0.100025
0.100003
0.0999917
0.0999696
0.0999598
0.0999415
0.099938
0.099925
0.099925
0.0999168
0.0999182
0.0999152
0.0999118
0.0999148
0.098874
0.0988752
0.0999135
0.0999178
0.0999125
0.0999173
0.0999188
0.0999134
0.0999188
0.0999134
0.0999202
0.0999135
0.0999202
0.0999125
0.0999155
0.0999171
0.0999114
0.0999184
0.0999128
0.099921
0.0999138
0.0999209
0.0999138
0.0999193
0.0999132
0.0999183
0.0999186
0.0999122
0.0999172
0.0999131
0.0988749
0.0988763
0.0999132
0.0999197
0.0999123
0.0999184
0.099913
0.0999193
0.0999131
0.09992
0.0999133
0.0999192
0.0999131
0.0999175
0.0999163
0.0999117
0.0999182
0.099912
0.0999196
0.0999137
0.099921
0.0999138
0.0999202
0.099913
0.0999181
0.0999123
0.0999159
0.0999144
0.099912
0.0999141
0.0988741
0.0988748
0.0999131
0.0999168
0.0999119
0.0999177
0.0999186
0.0999133
0.0999196
0.0999141
0.0999214
0.0999143
0.0999216
0.0999134
0.0999194
0.0999127
0.0999187
0.0999122
0.0999188
0.0999128
0.0999177
0.0999114
0.099918
0.0999125
0.0999186
0.0999129
0.099918
0.0999128
0.0999186
0.0999121
0.0988761
0.0988752
0.099913
0.0999164
0.099918
0.0999129
0.0999193
0.0999131
0.0999208
0.0999139
0.0999215
0.0999135
0.09992
0.0999119
0.0999175
0.0999107
0.099917
0.0999112
0.0999189
0.0999131
0.0999206
0.0999136
0.0999202
0.099913
0.099918
0.099912
0.0999156
0.0999129
0.0999117
0.0999139
0.098874
0.0988737
0.099914
0.0999132
0.0999173
0.0999114
0.0999189
0.0999127
0.09992
0.0999135
0.0999207
0.099913
0.0999195
0.0999117
0.0999172
0.0999106
0.0999173
0.0999113
0.099919
0.0999132
0.0999206
0.0999137
0.0999203
0.0999131
0.0999181
0.0999122
0.0999157
0.0999129
0.0999115
0.0999142
0.0988739
0.0988735
0.099914
0.0999161
0.0999126
0.099917
0.0999122
0.0999194
0.0999134
0.0999212
0.099914
0.099921
0.0999135
0.0999195
0.099912
0.0999183
0.0999118
0.0999175
0.0999119
0.0999168
0.0999148
0.0999133
0.099918
0.0999125
0.099919
0.0999132
0.0999185
0.0999126
0.0999201
0.0999131
0.098875
0.0988744
0.0999144
0.0999118
0.0999166
0.0999109
0.0999188
0.0999125
0.0999202
0.0999134
0.099921
0.0999131
0.0999197
0.0999118
0.0999173
0.0999107
0.099917
0.0999112
0.0999187
0.0999129
0.0999202
0.0999132
0.0999196
0.0999125
0.0999175
0.099912
0.0999155
0.0999141
0.0999117
0.0999137
0.0988741
0.0988749
0.0999132
0.0999157
0.0999153
0.0999145
0.0999186
0.0999128
0.09992
0.0999135
0.0999209
0.0999133
0.0999202
0.099912
0.0999168
0.0999116
0.099912
0.099916
0.0999116
0.0999195
0.0999128
0.0999206
0.0999132
0.0999198
0.0999123
0.0999183
0.0999127
0.0999152
0.0999154
0.099913
0.0988748
0.0988748
0.0999135
0.0999112
0.0999166
0.0999106
0.0999188
0.0999122
0.0999204
0.0999137
0.0999219
0.0999141
0.099921
0.0999118
0.0999176
0.0999097
0.0999157
0.0999095
0.0999169
0.0999123
0.09992
0.0999137
0.0999201
0.0999134
0.0999183
0.099913
0.0999175
0.0999154
0.0999126
0.0999164
0.0988742
0.195649
0.488155
0.561216
0.618395
0.563229
0.549789
0.526135
0.422931
0.372794
0.352248
0.40965
0.391427
0.362651
0.122756
0.12348
1.06767
2.50661
3.29043
2.94365
2.08452
1.37456
0.919912
0.665762
0.522417
0.433746
0.372485
0.326926
0.291919
0.264756
0.241835
0.223097
0.20699
0.192978
0.179964
0.169294
0.159189
0.150809
0.143468
0.136709
0.130858
0.12553
0.121191
0.118091
0.103434
0.102489
0.120905
0.117023
0.113886
0.111549
0.109925
0.10861
0.107458
0.106584
0.105791
0.10509
0.104535
0.103968
0.103552
0.103097
0.102789
0.102434
0.102209
0.101944
0.101762
0.101566
0.101393
0.101258
0.101105
0.10101
0.100884
0.100826
0.100723
0.100704
0.0991943
0.0990636
0.100368
0.100343
0.100312
0.10029
0.100263
0.100244
0.100216
0.100197
0.100172
0.100153
0.100133
0.100112
0.100094
0.100074
0.100057
0.100038
0.100022
0.100004
0.0999877
0.099971
0.0999604
0.0999501
0.0999438
0.0999389
0.0999363
0.0999336
0.0999305
0.0999299
0.0988483
0.0988503
0.0999307
0.0999325
0.099932
0.0999344
0.0999363
0.0999348
0.0999357
0.0999358
0.099937
0.0999358
0.0999368
0.099935
0.0999341
0.0999382
0.0999335
0.0999357
0.0999352
0.0999376
0.0999362
0.0999377
0.0999362
0.0999362
0.0999348
0.0999362
0.0999363
0.0999315
0.0999322
0.0999304
0.0988502
0.0988492
0.0999298
0.0999338
0.0999321
0.0999343
0.0999346
0.0999361
0.0999354
0.0999371
0.0999354
0.0999362
0.0999352
0.0999363
0.0999341
0.0999346
0.099936
0.0999352
0.0999365
0.0999364
0.0999377
0.0999364
0.0999374
0.0999354
0.0999353
0.099934
0.0999341
0.0999337
0.0999313
0.09993
0.098848
0.0988502
0.0999304
0.099932
0.0999311
0.0999366
0.099936
0.0999349
0.0999365
0.0999365
0.0999382
0.0999367
0.0999383
0.099936
0.0999365
0.0999356
0.0999359
0.0999348
0.0999358
0.0999352
0.0999352
0.0999337
0.0999359
0.0999346
0.0999359
0.0999347
0.0999342
0.0999323
0.0999331
0.0999287
0.098849
0.0988501
0.0999299
0.0999341
0.0999341
0.0999328
0.0999354
0.0999348
0.0999373
0.0999363
0.0999382
0.0999359
0.0999368
0.0999345
0.0999349
0.099934
0.0999348
0.0999343
0.0999359
0.0999359
0.0999375
0.0999361
0.0999373
0.0999353
0.0999352
0.0999338
0.0999336
0.0999321
0.0999309
0.09993
0.098848
0.0988488
0.0999295
0.0999319
0.0999324
0.0999322
0.0999353
0.0999347
0.0999369
0.0999363
0.0999376
0.0999357
0.0999366
0.0999345
0.0999348
0.099934
0.099935
0.0999345
0.099936
0.099936
0.0999376
0.0999362
0.0999374
0.0999354
0.0999353
0.099934
0.0999338
0.0999322
0.0999307
0.0999302
0.098848
0.098848
0.0999286
0.0999323
0.099932
0.0999335
0.0999342
0.0999364
0.099936
0.0999383
0.0999369
0.0999381
0.0999363
0.0999364
0.0999352
0.0999358
0.0999349
0.099935
0.0999341
0.0999345
0.0999359
0.0999344
0.0999359
0.0999345
0.0999362
0.0999347
0.0999343
0.0999323
0.0999343
0.0999305
0.09885
0.098848
0.0999302
0.0999308
0.0999322
0.0999322
0.0999355
0.0999349
0.0999372
0.0999364
0.099938
0.0999359
0.0999367
0.0999346
0.0999348
0.099934
0.0999347
0.0999343
0.0999358
0.0999358
0.0999371
0.0999358
0.0999367
0.0999349
0.0999348
0.0999337
0.0999338
0.0999333
0.099931
0.0999296
0.098848
0.0988503
0.0999304
0.0999315
0.0999339
0.0999342
0.099935
0.0999344
0.0999366
0.0999359
0.0999375
0.0999359
0.0999373
0.0999348
0.099935
0.0999334
0.0999336
0.0999345
0.0999343
0.0999368
0.0999354
0.0999372
0.0999356
0.0999362
0.099934
0.0999343
0.0999323
0.0999313
0.0999311
0.0999301
0.0988502
0.0988481
0.0999287
0.0999296
0.0999316
0.0999311
0.099935
0.0999338
0.0999368
0.0999354
0.099938
0.0999358
0.0999373
0.0999341
0.0999347
0.0999329
0.099934
0.0999336
0.0999356
0.0999357
0.0999374
0.0999362
0.0999375
0.0999362
0.0999361
0.0999349
0.0999362
0.0999348
0.0999327
0.0999327
0.0988482
0.211899
0.531765
0.584446
0.576393
0.49341
0.45887
0.437136
0.391755
0.417267
0.450032
0.441418
0.399893
0.46875
0.132246
1.15122
5.44488
8.89261
10.2142
8.66309
5.68212
3.35971
1.9632
1.23352
0.864757
0.650412
0.521415
0.434715
0.372452
0.325759
0.289905
0.261003
0.237752
0.217851
0.200963
0.186055
0.173182
0.162494
0.153
0.14487
0.137601
0.131491
0.127629
0.128048
0.105735
0.106727
0.138845
0.130633
0.122324
0.116864
0.113439
0.111024
0.109336
0.107995
0.106968
0.106009
0.105321
0.10458
0.10408
0.103534
0.103162
0.102763
0.10246
0.102181
0.101921
0.101722
0.101515
0.101349
0.10122
0.101068
0.100991
0.100883
0.100851
0.100825
0.0994223
0.0990601
0.100333
0.100314
0.100327
0.100308
0.100295
0.10027
0.100251
0.100228
0.100204
0.100184
0.100163
0.100145
0.100127
0.100107
0.100091
0.100073
0.100058
0.100037
0.100021
0.100002
0.0999892
0.0999774
0.0999704
0.0999643
0.0999607
0.0999569
0.0999546
0.0999527
0.0988448
0.0988442
0.0999543
0.0999548
0.0999551
0.0999565
0.099958
0.0999577
0.0999579
0.0999589
0.0999591
0.0999593
0.0999594
0.0999606
0.099959
0.0999625
0.0999586
0.0999605
0.0999605
0.0999602
0.0999598
0.0999597
0.0999595
0.0999586
0.0999578
0.099958
0.0999582
0.0999547
0.0999547
0.0999543
0.0988442
0.0988446
0.0999535
0.0999558
0.0999544
0.0999563
0.0999573
0.0999579
0.0999582
0.0999591
0.0999586
0.0999589
0.0999594
0.0999607
0.0999588
0.0999597
0.0999598
0.0999609
0.0999606
0.0999602
0.0999599
0.0999595
0.0999596
0.0999586
0.0999575
0.0999571
0.0999564
0.0999558
0.0999549
0.0999529
0.0988446
0.0988441
0.0999542
0.0999545
0.0999546
0.099959
0.099958
0.099958
0.0999588
0.0999598
0.0999602
0.0999602
0.0999607
0.0999613
0.0999611
0.0999607
0.0999597
0.0999606
0.0999601
0.0999589
0.0999578
0.0999567
0.099958
0.0999574
0.0999578
0.0999572
0.0999561
0.0999549
0.0999561
0.0999531
0.0988448
0.0988438
0.0999538
0.0999567
0.0999557
0.0999563
0.0999576
0.0999581
0.0999593
0.0999594
0.09996
0.0999595
0.0999594
0.09996
0.0999598
0.0999593
0.0999589
0.0999602
0.0999602
0.0999597
0.0999597
0.0999593
0.0999595
0.0999586
0.0999576
0.0999569
0.099956
0.0999545
0.0999544
0.0999529
0.0988446
0.0988441
0.0999526
0.0999553
0.0999543
0.0999559
0.0999575
0.0999579
0.099959
0.0999594
0.0999596
0.0999592
0.0999592
0.09996
0.0999597
0.0999593
0.0999591
0.0999604
0.0999602
0.0999598
0.0999598
0.0999594
0.0999596
0.0999586
0.0999576
0.099957
0.0999563
0.0999546
0.0999543
0.099953
0.0988445
0.0988448
0.0999518
0.0999558
0.0999548
0.0999561
0.0999575
0.0999586
0.0999592
0.0999602
0.09996
0.0999602
0.0999599
0.0999605
0.0999609
0.0999596
0.0999597
0.0999598
0.0999597
0.0999576
0.0999594
0.0999577
0.0999581
0.0999577
0.099958
0.0999574
0.0999562
0.0999548
0.0999564
0.0999543
0.0988441
0.0988445
0.0999532
0.099954
0.0999544
0.0999559
0.0999578
0.0999581
0.0999592
0.0999596
0.0999599
0.0999595
0.0999594
0.0999601
0.0999598
0.0999594
0.0999587
0.0999602
0.09996
0.0999595
0.0999594
0.0999588
0.0999589
0.099958
0.099957
0.0999566
0.099956
0.0999553
0.0999544
0.0999525
0.0988446
0.0988441
0.0999541
0.0999541
0.0999563
0.0999574
0.0999574
0.0999577
0.0999589
0.0999592
0.0999595
0.0999594
0.09996
0.0999602
0.0999599
0.0999588
0.0999588
0.0999597
0.0999599
0.0999595
0.0999589
0.0999591
0.0999587
0.0999583
0.0999571
0.0999564
0.0999556
0.0999535
0.0999534
0.0999535
0.0988439
0.0988444
0.0999519
0.0999529
0.0999543
0.0999553
0.0999579
0.0999574
0.0999593
0.0999591
0.0999603
0.0999596
0.0999602
0.0999589
0.0999589
0.0999586
0.0999586
0.0999588
0.0999591
0.0999592
0.0999592
0.099959
0.0999592
0.0999589
0.0999582
0.0999573
0.0999568
0.0999558
0.0999554
0.0999545
0.0988453
0.2333
0.58478
0.618561
0.586237
0.471804
0.422762
0.448951
0.515417
0.584525
0.717997
0.800024
0.736935
2.26775
4.8298
1.4325
1.40307
13.9092
19.4866
21.1536
21.5203
19.0689
11.92
6.50409
3.62012
2.14848
1.42148
1.02844
0.782488
0.62281
0.512509
0.432905
0.373995
0.327468
0.290945
0.261047
0.237307
0.216777
0.200025
0.186262
0.174699
0.166641
0.160985
0.158903
0.163372
0.179861
0.213528
0.116226
0.10727
0.197087
0.202337
0.171892
0.145874
0.130545
0.121844
0.116595
0.113253
0.110826
0.109082
0.107671
0.106615
0.105662
0.104936
0.104256
0.103733
0.10325
0.10285
0.102499
0.102206
0.101929
0.101736
0.101485
0.101383
0.101144
0.101094
0.100896
0.10085
0.100727
0.100815
0.0992831
0.0994168
0.100751
0.100737
0.100607
0.100503
0.100429
0.100376
0.10033
0.100299