/*--------------------------------*- C++ -*----------------------------------*\
| =========                 |                                                 |
| \\      /  F ield         | OpenFOAM: The Open Source CFD Toolbox           |
|  \\    /   O peration     | Version:  2.1.1                                 |
|   \\  /    A nd           | Web:      www.OpenFOAM.org                      |
|    \\/     M anipulation  |                                                 |
\*---------------------------------------------------------------------------*/
FoamFile
{
    version     2.0;
    format      ascii;
    class       volScalarField;
    location    "0.001050000";
    object      O2;
}
// * * * * * * * * * * * * * * * * * * * * * * * * * * * * * * * * * * * * * //

dimensions      [0 0 0 0 0 0 0];

internalField   nonuniform List<scalar> 
12384
(
0.219978
0.223543
0.225946
0.226496
0.226445
0.226523
0.226528
0.226429
0.226244
0.226207
0.226188
0.226162
0.22616
0.226199
0.226623
0.226852
0.226898
0.226868
0.226838
0.226775
0.226713
0.226628
0.22654
0.226449
0.226355
0.226286
0.226235
0.22619
0.226185
0.226173
0.226178
0.226177
0.226176
0.226178
0.226175
0.226176
0.226177
0.226174
0.226177
0.226174
0.226176
0.226174
0.226174
0.226175
0.22618
0.226182
0.22618
0.226178
0.226178
0.226177
0.226178
0.226177
0.226177
0.226178
0.226177
0.226178
0.226177
0.226178
0.226177
0.226178
0.226178
0.226178
0.226178
0.226178
0.226178
0.226178
0.226178
0.226178
0.226178
0.226178
0.226178
0.226178
0.226178
0.226176
0.226176
0.226178
0.226178
0.226178
0.226178
0.226179
0.226179
0.226179
0.226179
0.226179
0.226179
0.226179
0.22618
0.22618
0.22618
0.22618
0.22618
0.22618
0.22618
0.22618
0.22618
0.22618
0.22618
0.226179
0.226179
0.226179
0.226179
0.226179
0.226179
0.226176
0.226176
0.226179
0.226179
0.226179
0.226179
0.226179
0.226179
0.22618
0.22618
0.22618
0.22618
0.22618
0.22618
0.226181
0.226181
0.226181
0.226181
0.22618
0.22618
0.22618
0.22618
0.22618
0.22618
0.226179
0.226179
0.226179
0.226179
0.226179
0.226179
0.226176
0.226176
0.226179
0.226179
0.226179
0.226179
0.226179
0.226179
0.22618
0.22618
0.22618
0.22618
0.22618
0.22618
0.226181
0.226181
0.226181
0.226181
0.22618
0.22618
0.22618
0.22618
0.22618
0.22618
0.226179
0.226179
0.226179
0.226179
0.226179
0.226179
0.226176
0.226176
0.226179
0.226179
0.226179
0.226179
0.226179
0.226179
0.22618
0.22618
0.22618
0.22618
0.22618
0.22618
0.22618
0.226181
0.226181
0.226181
0.22618
0.22618
0.22618
0.22618
0.22618
0.226179
0.226179
0.226179
0.226179
0.226179
0.226179
0.226179
0.226176
0.226176
0.226179
0.226179
0.226179
0.226179
0.226179
0.226179
0.22618
0.22618
0.22618
0.22618
0.22618
0.22618
0.226181
0.226181
0.226181
0.226181
0.22618
0.22618
0.22618
0.22618
0.22618
0.22618
0.226179
0.226179
0.226179
0.226179
0.226179
0.226179
0.226176
0.226176
0.226179
0.226179
0.226179
0.226179
0.226179
0.226179
0.22618
0.22618
0.22618
0.22618
0.22618
0.22618
0.226181
0.226181
0.226181
0.226181
0.22618
0.22618
0.22618
0.22618
0.22618
0.22618
0.226179
0.226179
0.226179
0.226179
0.226179
0.226179
0.226176
0.226176
0.226179
0.226179
0.226179
0.226179
0.226179
0.226179
0.22618
0.22618
0.22618
0.22618
0.22618
0.22618
0.22618
0.226181
0.226181
0.226181
0.22618
0.22618
0.22618
0.22618
0.22618
0.22618
0.226179
0.226179
0.226179
0.226179
0.226179
0.226179
0.226176
0.226176
0.226179
0.226179
0.226179
0.226179
0.226179
0.226179
0.22618
0.22618
0.22618
0.22618
0.22618
0.22618
0.226181
0.226181
0.226181
0.226181
0.22618
0.22618
0.22618
0.22618
0.22618
0.22618
0.226179
0.226179
0.226179
0.226179
0.226179
0.226179
0.226176
0.226176
0.226179
0.226179
0.226179
0.226179
0.226179
0.226179
0.22618
0.22618
0.22618
0.22618
0.22618
0.22618
0.226181
0.226181
0.226181
0.226181
0.22618
0.22618
0.22618
0.22618
0.22618
0.22618
0.226179
0.226179
0.226179
0.226179
0.226179
0.226179
0.226176
0.226176
0.226179
0.226179
0.226179
0.226179
0.226179
0.226179
0.22618
0.22618
0.22618
0.22618
0.22618
0.22618
0.22618
0.226181
0.226181
0.226181
0.22618
0.22618
0.22618
0.22618
0.22618
0.22618
0.226179
0.226179
0.226179
0.226179
0.226179
0.226179
0.226176
0.20412
0.211812
0.223383
0.228187
0.228533
0.228993
0.229069
0.228747
0.228429
0.227732
0.227084
0.226844
0.226645
0.226569
0.229612
0.229975
0.230003
0.229947
0.229929
0.229871
0.2298
0.229671
0.229523
0.229304
0.229098
0.228781
0.228504
0.228184
0.227919
0.227648
0.227422
0.227219
0.227048
0.22686
0.226776
0.226626
0.226529
0.226461
0.226378
0.226338
0.22631
0.2263
0.226289
0.226254
0.227817
0.227852
0.227776
0.227697
0.227572
0.227455
0.227309
0.227184
0.227065
0.226953
0.226877
0.226785
0.226742
0.226665
0.226657
0.226578
0.226588
0.226516
0.226525
0.22648
0.226473
0.226453
0.226433
0.226423
0.226408
0.226392
0.226394
0.226378
0.226385
0.226266
0.22633
0.226452
0.226452
0.226452
0.226449
0.226447
0.22645
0.22645
0.226455
0.226456
0.226461
0.226462
0.226471
0.226479
0.226488
0.226486
0.226481
0.226471
0.226468
0.226463
0.226463
0.226456
0.226454
0.226446
0.226443
0.226436
0.226432
0.226427
0.22642
0.226269
0.226266
0.226421
0.226425
0.226432
0.226435
0.226438
0.226446
0.22645
0.226458
0.226461
0.226468
0.226471
0.226482
0.226493
0.226497
0.226499
0.22649
0.226481
0.226471
0.226469
0.226462
0.226459
0.226451
0.226447
0.226439
0.226435
0.226432
0.226426
0.226421
0.226266
0.226266
0.226421
0.226425
0.226432
0.226434
0.226442
0.226445
0.226453
0.226455
0.226463
0.226466
0.226474
0.226482
0.226491
0.2265
0.226497
0.226491
0.226479
0.226474
0.226466
0.226465
0.226457
0.226455
0.226446
0.226443
0.226436
0.226432
0.226428
0.22642
0.226269
0.226266
0.226421
0.226426
0.226433
0.226435
0.226439
0.226448
0.226451
0.22646
0.226462
0.226469
0.226471
0.226481
0.226488
0.226498
0.226498
0.226495
0.226482
0.226474
0.226465
0.226461
0.226452
0.22645
0.226442
0.226439
0.226432
0.22643
0.226424
0.22642
0.226267
0.226266
0.226421
0.226427
0.226432
0.226438
0.226441
0.22645
0.226452
0.22646
0.226462
0.226469
0.226471
0.226482
0.22649
0.2265
0.226498
0.226492
0.22648
0.226474
0.226466
0.226465
0.226457
0.226455
0.226447
0.226443
0.226436
0.226432
0.226428
0.22642
0.226269
0.226268
0.226419
0.226427
0.22643
0.226437
0.22644
0.226448
0.226451
0.226459
0.226461
0.226468
0.22647
0.226481
0.22649
0.2265
0.226498
0.226492
0.22648
0.226474
0.226466
0.226465
0.226457
0.226455
0.226446
0.226443
0.226436
0.226432
0.226428
0.22642
0.226269
0.226268
0.22642
0.226426
0.226433
0.226436
0.226444
0.226447
0.226455
0.226457
0.226464
0.226466
0.226473
0.226477
0.22649
0.226496
0.2265
0.226493
0.226484
0.22647
0.226465
0.226461
0.226454
0.226451
0.226443
0.22644
0.226433
0.226431
0.226424
0.22642
0.226266
0.226269
0.226419
0.226428
0.226431
0.226438
0.226441
0.226449
0.226452
0.22646
0.226461
0.226468
0.22647
0.22648
0.226489
0.226499
0.226498
0.226493
0.226481
0.226474
0.226466
0.226465
0.226457
0.226454
0.226446
0.226443
0.226435
0.226432
0.226428
0.22642
0.226269
0.226266
0.226422
0.226426
0.226431
0.226437
0.22644
0.226449
0.226452
0.22646
0.226462
0.226469
0.226472
0.226482
0.22649
0.2265
0.226499
0.226491
0.226482
0.226471
0.226469
0.226462
0.22646
0.226452
0.226449
0.22644
0.226438
0.226431
0.226427
0.226422
0.226267
0.226269
0.22642
0.226428
0.226432
0.22644
0.226442
0.226451
0.226453
0.226461
0.226462
0.226469
0.22647
0.22648
0.226487
0.226498
0.226499
0.226494
0.226481
0.226474
0.226467
0.226466
0.226458
0.226455
0.226447
0.226443
0.226436
0.226431
0.226428
0.22642
0.226269
0.201611
0.202248
0.216712
0.22434
0.229047
0.230188
0.230683
0.230665
0.230738
0.230585
0.230431
0.229973
0.229485
0.229138
0.230952
0.230684
0.230568
0.230567
0.230608
0.230719
0.230809
0.230892
0.230938
0.230985
0.231005
0.231056
0.231051
0.231094
0.231068
0.231105
0.231073
0.231092
0.231062
0.231051
0.231015
0.230956
0.230887
0.23078
0.230654
0.23047
0.230277
0.230136
0.230006
0.229942
0.231118
0.231079
0.231071
0.231064
0.231066
0.231064
0.231061
0.231053
0.231053
0.231044
0.231044
0.231039
0.231037
0.231032
0.231031
0.231024
0.231031
0.231021
0.231036
0.231015
0.231036
0.231015
0.231033
0.231018
0.231027
0.231015
0.231021
0.231005
0.231013
0.231098
0.231134
0.23103
0.231022
0.23102
0.231015
0.231012
0.231006
0.231002
0.230996
0.230992
0.230988
0.230984
0.230977
0.230967
0.23096
0.23096
0.230965
0.23097
0.230974
0.230976
0.230977
0.23098
0.230983
0.230986
0.23099
0.230994
0.230997
0.231
0.231005
0.231133
0.231133
0.231005
0.231
0.230997
0.230994
0.230992
0.230987
0.230983
0.230979
0.230976
0.230973
0.23097
0.230962
0.230953
0.230951
0.230949
0.230955
0.230963
0.23097
0.230973
0.230976
0.230979
0.230983
0.230986
0.230991
0.230994
0.230996
0.231
0.231005
0.231133
0.231133
0.231006
0.231
0.230997
0.230994
0.230991
0.230987
0.230983
0.23098
0.230976
0.230973
0.230969
0.230961
0.230954
0.230949
0.230949
0.230955
0.230963
0.230969
0.230973
0.230975
0.230979
0.230982
0.230986
0.23099
0.230993
0.230996
0.231
0.231005
0.231133
0.231133
0.231005
0.231
0.230996
0.230994
0.230991
0.230986
0.230983
0.230978
0.230975
0.230972
0.230969
0.230963
0.230956
0.23095
0.230949
0.230953
0.230961
0.230969
0.230973
0.230977
0.230982
0.230985
0.230989
0.230992
0.230995
0.230998
0.231001
0.231007
0.231133
0.231133
0.231005
0.231
0.230996
0.230992
0.230989
0.230985
0.230982
0.230978
0.230976
0.230973
0.23097
0.230963
0.230955
0.230949
0.230949
0.230954
0.230963
0.230969
0.230973
0.230975
0.230979
0.230982
0.230986
0.23099
0.230993
0.230996
0.230999
0.231005
0.231133
0.231133
0.231006
0.231
0.230997
0.230993
0.23099
0.230986
0.230983
0.230979
0.230976
0.230973
0.23097
0.230963
0.230955
0.230949
0.230949
0.230955
0.230963
0.230969
0.230973
0.230975
0.230979
0.230982
0.230986
0.23099
0.230993
0.230996
0.231
0.231005
0.231133
0.231133
0.231005
0.231
0.230996
0.230993
0.230989
0.230986
0.230982
0.230979
0.230975
0.230973
0.23097
0.230965
0.230957
0.230951
0.230948
0.230952
0.230961
0.23097
0.230975
0.230977
0.230981
0.230984
0.230988
0.230991
0.230995
0.230997
0.231001
0.231006
0.231133
0.231133
0.231005
0.231
0.230996
0.230993
0.23099
0.230986
0.230982
0.230979
0.230976
0.230973
0.23097
0.230964
0.230956
0.230949
0.230948
0.230954
0.230962
0.230969
0.230973
0.230975
0.230979
0.230982
0.230986
0.23099
0.230994
0.230997
0.231
0.231005
0.231133
0.231133
0.231004
0.231
0.230997
0.230994
0.23099
0.230986
0.230982
0.230978
0.230975
0.230972
0.230969
0.230962
0.230955
0.230948
0.230949
0.230954
0.230963
0.230969
0.230973
0.230975
0.230979
0.230982
0.230986
0.23099
0.230993
0.230996
0.230999
0.231004
0.231133
0.231133
0.231005
0.230999
0.230995
0.230992
0.230989
0.230985
0.230981
0.230978
0.230976
0.230973
0.23097
0.230965
0.230957
0.23095
0.230948
0.230953
0.230962
0.230969
0.230972
0.230975
0.230978
0.230982
0.230986
0.23099
0.230994
0.230997
0.231
0.231005
0.231133
0.125274
0.105355
0.120921
0.138601
0.204362
0.216451
0.22336
0.229329
0.23044
0.230712
0.230842
0.231006
0.230809
0.230547
0.230128
0.228986
0.228441
0.2281
0.228208
0.228566
0.229112
0.229556
0.229894
0.230128
0.230318
0.230446
0.230577
0.230635
0.230733
0.230748
0.230825
0.230827
0.230883
0.230891
0.230921
0.230934
0.230947
0.23095
0.230965
0.230959
0.23097
0.23096
0.230964
0.230983
0.230723
0.230704
0.230728
0.230759
0.230783
0.230809
0.230834
0.230857
0.230877
0.23089
0.230905
0.230914
0.23092
0.23093
0.230931
0.230939
0.230939
0.230945
0.230945
0.230948
0.23095
0.23095
0.230954
0.230953
0.230956
0.230956
0.230956
0.230959
0.230958
0.230979
0.230968
0.23095
0.23095
0.23095
0.230952
0.230952
0.230953
0.230952
0.230954
0.230953
0.230954
0.230953
0.230954
0.230953
0.230953
0.230953
0.230953
0.230953
0.230953
0.230952
0.230953
0.230952
0.230953
0.230952
0.230952
0.230952
0.230952
0.230953
0.230954
0.230976
0.230976
0.230954
0.230952
0.230953
0.230952
0.230952
0.230952
0.230952
0.230952
0.230952
0.230952
0.230952
0.230952
0.230952
0.230952
0.230952
0.230952
0.230952
0.230952
0.230952
0.230952
0.230952
0.230952
0.230952
0.230952
0.230952
0.230953
0.230952
0.230954
0.230976
0.230976
0.230953
0.230952
0.230953
0.230952
0.230953
0.230952
0.230952
0.230952
0.230952
0.230952
0.230952
0.230952
0.230952
0.230952
0.230952
0.230952
0.230952
0.230952
0.230952
0.230952
0.230952
0.230952
0.230952
0.230952
0.230952
0.230952
0.230953
0.230954
0.230976
0.230976
0.230954
0.230952
0.230953
0.230952
0.230952
0.230952
0.230952
0.230952
0.230952
0.230952
0.230952
0.230952
0.230952
0.230952
0.230952
0.230952
0.230952
0.230952
0.230952
0.230952
0.230952
0.230952
0.230952
0.230953
0.230952
0.230953
0.230952
0.230953
0.230976
0.230976
0.230953
0.230952
0.230952
0.230953
0.230952
0.230952
0.230952
0.230952
0.230952
0.230952
0.230952
0.230952
0.230952
0.230952
0.230952
0.230952
0.230952
0.230952
0.230952
0.230952
0.230952
0.230952
0.230952
0.230952
0.230952
0.230952
0.230953
0.230954
0.230976
0.230976
0.230953
0.230953
0.230952
0.230953
0.230952
0.230952
0.230952
0.230952
0.230952
0.230952
0.230952
0.230952
0.230952
0.230952
0.230952
0.230952
0.230952
0.230952
0.230952
0.230952
0.230952
0.230952
0.230952
0.230952
0.230952
0.230952
0.230953
0.230954
0.230976
0.230976
0.230954
0.230952
0.230953
0.230952
0.230952
0.230952
0.230952
0.230952
0.230952
0.230952
0.230952
0.230952
0.230952
0.230952
0.230952
0.230952
0.230952
0.230952
0.230952
0.230952
0.230952
0.230952
0.230952
0.230953
0.230952
0.230953
0.230952
0.230953
0.230976
0.230976
0.230954
0.230953
0.230952
0.230953
0.230952
0.230952
0.230952
0.230952
0.230952
0.230952
0.230952
0.230952
0.230952
0.230952
0.230952
0.230952
0.230952
0.230952
0.230952
0.230952
0.230952
0.230952
0.230952
0.230952
0.230952
0.230952
0.230953
0.230954
0.230976
0.230976
0.230954
0.230952
0.230952
0.230953
0.230952
0.230952
0.230952
0.230952
0.230952
0.230952
0.230952
0.230952
0.230952
0.230952
0.230952
0.230952
0.230952
0.230952
0.230952
0.230952
0.230952
0.230952
0.230952
0.230952
0.230953
0.230952
0.230952
0.230953
0.230976
0.230976
0.230953
0.230953
0.230952
0.230953
0.230952
0.230952
0.230952
0.230952
0.230952
0.230952
0.230952
0.230952
0.230952
0.230952
0.230952
0.230952
0.230952
0.230952
0.230952
0.230952
0.230952
0.230952
0.230952
0.230952
0.230952
0.230952
0.230953
0.230954
0.230976
0.0231634
0.0168004
0.0218088
0.0647092
0.0948382
0.110835
0.112658
0.198021
0.221209
0.229582
0.230238
0.230572
0.230808
0.230901
0.228991
0.226905
0.226074
0.2255
0.225202
0.225339
0.226251
0.227324
0.228196
0.228796
0.229195
0.229466
0.229695
0.229834
0.229963
0.230061
0.230131
0.230197
0.230249
0.230279
0.230331
0.230367
0.230404
0.230464
0.230503
0.230576
0.230629
0.230677
0.230734
0.230762
0.229948
0.22987
0.229947
0.230018
0.230084
0.230138
0.230188
0.230226
0.23026
0.230284
0.230309
0.230322
0.23034
0.230348
0.23036
0.230364
0.230373
0.230377
0.230382
0.230386
0.23039
0.230391
0.230398
0.230395
0.230405
0.230402
0.23041
0.230411
0.230416
0.230417
0.230395
0.230396
0.230397
0.230399
0.2304
0.230402
0.230402
0.230405
0.230404
0.230406
0.230405
0.230407
0.230405
0.230408
0.230406
0.230408
0.230407
0.230408
0.230407
0.230409
0.230408
0.230409
0.230408
0.230408
0.230408
0.230408
0.230408
0.230408
0.230408
0.230409
0.23041
0.230408
0.230409
0.230408
0.230408
0.230408
0.230408
0.230409
0.230408
0.230409
0.230408
0.230409
0.230408
0.230408
0.230408
0.230408
0.230408
0.230408
0.230409
0.230408
0.230409
0.230408
0.230409
0.230408
0.230408
0.230408
0.230408
0.230408
0.230408
0.23041
0.23041
0.230408
0.230409
0.230408
0.230409
0.230408
0.230409
0.230408
0.230409
0.230408
0.230409
0.230408
0.230408
0.230408
0.230408
0.230408
0.230408
0.230409
0.230408
0.230409
0.230408
0.230409
0.230408
0.230408
0.230408
0.230408
0.230408
0.230408
0.230408
0.230409
0.23041
0.230408
0.230408
0.230408
0.230408
0.230408
0.230408
0.230409
0.230408
0.230409
0.230408
0.230409
0.230408
0.230409
0.230408
0.230408
0.230408
0.230408
0.230408
0.230408
0.230408
0.230408
0.230408
0.230409
0.230408
0.230409
0.230408
0.230408
0.230408
0.23041
0.23041
0.230408
0.230408
0.230408
0.230408
0.230409
0.230408
0.230409
0.230408
0.230409
0.230408
0.230409
0.230408
0.230408
0.230408
0.230408
0.230408
0.230409
0.230408
0.230409
0.230408
0.230409
0.230408
0.230408
0.230408
0.230408
0.230408
0.230408
0.230408
0.230409
0.230409
0.230408
0.230408
0.230408
0.230408
0.230408
0.230408
0.230409
0.230408
0.230409
0.230408
0.230409
0.230408
0.230408
0.230408
0.230408
0.230408
0.230409
0.230408
0.230409
0.230408
0.230409
0.230408
0.230408
0.230408
0.230408
0.230408
0.230408
0.230408
0.230409
0.230409
0.230408
0.230408
0.230408
0.230408
0.230408
0.230409
0.230408
0.230409
0.230408
0.230409
0.230408
0.230409
0.230408
0.230408
0.230408
0.230408
0.230408
0.230408
0.230408
0.230408
0.230408
0.230408
0.230409
0.230408
0.230409
0.230408
0.230409
0.230408
0.23041
0.230409
0.230408
0.230408
0.230408
0.230408
0.230409
0.230408
0.230409
0.230408
0.230409
0.230408
0.230409
0.230408
0.230408
0.230408
0.230408
0.230408
0.230408
0.230408
0.230409
0.230408
0.230409
0.230408
0.230408
0.230408
0.230408
0.230408
0.230408
0.230408
0.230409
0.23041
0.230408
0.230408
0.230408
0.230408
0.230408
0.230408
0.230409
0.230408
0.230409
0.230408
0.230409
0.230408
0.230408
0.230408
0.230408
0.230408
0.230408
0.230409
0.230408
0.230409
0.230408
0.230409
0.230408
0.230409
0.230408
0.230408
0.230408
0.230408
0.23041
0.230409
0.230408
0.230407
0.230408
0.230408
0.230409
0.230408
0.230409
0.230408
0.230409
0.230408
0.230409
0.230408
0.230408
0.230408
0.230408
0.230407
0.230408
0.230408
0.230409
0.230408
0.230409
0.230408
0.230408
0.230408
0.230408
0.230408
0.230408
0.230408
0.230409
0.0085983
0.00817624
0.00847794
0.0137258
0.028376
0.0468218
0.0602933
0.0726625
0.092162
0.207353
0.227176
0.229815
0.230328
0.230702
0.2278
0.22584
0.225482
0.225042
0.224275
0.223466
0.223162
0.224139
0.225606
0.226804
0.227601
0.228078
0.228439
0.228689
0.228913
0.229062
0.22921
0.229309
0.22942
0.229494
0.229589
0.229645
0.229729
0.229798
0.229879
0.229968
0.23005
0.230157
0.230254
0.230343
0.228782
0.228572
0.228732
0.228922
0.229079
0.229204
0.229306
0.229386
0.229459
0.229505
0.229559
0.229583
0.229629
0.229636
0.229675
0.229676
0.229702
0.229706
0.229723
0.229728
0.229741
0.229745
0.229755
0.229762
0.229768
0.229777
0.229783
0.22979
0.2298
0.229824
0.229765
0.229748
0.229756
0.22976
0.229766
0.229769
0.229773
0.229775
0.229778
0.229779
0.229781
0.22978
0.229782
0.229782
0.229783
0.229783
0.229784
0.229784
0.229784
0.229784
0.229784
0.229784
0.229784
0.229784
0.229784
0.229784
0.229784
0.229784
0.229785
0.229811
0.229811
0.229785
0.229784
0.229784
0.229784
0.229784
0.229784
0.229784
0.229784
0.229784
0.229784
0.229784
0.229784
0.229784
0.229784
0.229784
0.229784
0.229784
0.229784
0.229784
0.229784
0.229784
0.229784
0.229784
0.229784
0.229784
0.229784
0.229784
0.229785
0.229811
0.229811
0.229785
0.229784
0.229784
0.229784
0.229784
0.229784
0.229784
0.229784
0.229784
0.229784
0.229784
0.229784
0.229784
0.229784
0.229784
0.229784
0.229784
0.229784
0.229784
0.229784
0.229784
0.229784
0.229784
0.229784
0.229784
0.229784
0.229784
0.229785
0.229811
0.229811
0.229785
0.229784
0.229784
0.229784
0.229784
0.229784
0.229784
0.229784
0.229784
0.229784
0.229784
0.229784
0.229784
0.229784
0.229784
0.229784
0.229784
0.229784
0.229784
0.229784
0.229784
0.229784
0.229784
0.229784
0.229784
0.229784
0.229784
0.229785
0.229811
0.229811
0.229785
0.229784
0.229784
0.229784
0.229784
0.229784
0.229784
0.229784
0.229784
0.229784
0.229784
0.229784
0.229784
0.229784
0.229784
0.229784
0.229784
0.229784
0.229784
0.229784
0.229784
0.229784
0.229784
0.229784
0.229784
0.229784
0.229784
0.229785
0.229811
0.229811
0.229785
0.229784
0.229784
0.229784
0.229784
0.229784
0.229784
0.229784
0.229784
0.229784
0.229784
0.229784
0.229784
0.229784
0.229784
0.229784
0.229784
0.229784
0.229784
0.229784
0.229784
0.229784
0.229784
0.229784
0.229784
0.229784
0.229784
0.229785
0.229811
0.229811
0.229785
0.229784
0.229784
0.229784
0.229784
0.229784
0.229784
0.229784
0.229784
0.229784
0.229784
0.229784
0.229784
0.229784
0.229784
0.229784
0.229784
0.229784
0.229784
0.229784
0.229784
0.229784
0.229784
0.229784
0.229784
0.229784
0.229784
0.229785
0.229811
0.229811
0.229785
0.229784
0.229784
0.229784
0.229784
0.229784
0.229784
0.229784
0.229784
0.229784
0.229784
0.229784
0.229784
0.229784
0.229784
0.229784
0.229784
0.229784
0.229784
0.229784
0.229784
0.229784
0.229784
0.229784
0.229784
0.229784
0.229784
0.229785
0.229811
0.229811
0.229785
0.229784
0.229784
0.229784
0.229784
0.229784
0.229784
0.229784
0.229784
0.229784
0.229784
0.229784
0.229784
0.229784
0.229784
0.229784
0.229784
0.229784
0.229784
0.229784
0.229784
0.229784
0.229784
0.229784
0.229784
0.229784
0.229784
0.229785
0.229811
0.229811
0.229785
0.229784
0.229784
0.229784
0.229784
0.229784
0.229784
0.229784
0.229784
0.229784
0.229784
0.229784
0.229784
0.229784
0.229784
0.229784
0.229784
0.229784
0.229784
0.229784
0.229784
0.229784
0.229784
0.229784
0.229784
0.229784
0.229784
0.229785
0.229811
0.00860763
0.00907795
0.00874699
0.00806004
0.00938227
0.0148878
0.0225289
0.0328728
0.0419548
0.0519124
0.161132
0.222733
0.229512
0.230272
0.226753
0.226512
0.225828
0.225535
0.225478
0.224024
0.22226
0.221675
0.222671
0.224264
0.22554
0.226313
0.2268
0.227156
0.22745
0.227645
0.22787
0.227973
0.228147
0.228201
0.22835
0.228405
0.228518
0.228621
0.228744
0.228886
0.229047
0.229245
0.229459
0.229696
0.2271
0.226737
0.226933
0.227288
0.227605
0.227822
0.22799
0.2281
0.228191
0.228261
0.22831
0.228359
0.228391
0.22842
0.228445
0.228461
0.228483
0.228489
0.228508
0.228513
0.228527
0.228533
0.228542
0.228552
0.228556
0.22857
0.228577
0.228593
0.22861
0.228622
0.22851
0.228535
0.228543
0.228554
0.228558
0.228566
0.228568
0.228573
0.228573
0.228577
0.228577
0.22858
0.228579
0.228582
0.228581
0.228584
0.228583
0.228585
0.228584
0.228585
0.228585
0.228586
0.228586
0.228586
0.228586
0.228586
0.228585
0.228585
0.228585
0.228576
0.228576
0.228585
0.228586
0.228585
0.228586
0.228586
0.228586
0.228586
0.228586
0.228586
0.228586
0.228586
0.228586
0.228586
0.228586
0.228586
0.228586
0.228586
0.228586
0.228586
0.228586
0.228586
0.228586
0.228586
0.228586
0.228586
0.228585
0.228586
0.228585
0.228576
0.228576
0.228585
0.228586
0.228585
0.228586
0.228586
0.228586
0.228586
0.228586
0.228586
0.228586
0.228586
0.228586
0.228586
0.228586
0.228586
0.228586
0.228586
0.228586
0.228586
0.228586
0.228586
0.228586
0.228586
0.228586
0.228586
0.228585
0.228585
0.228585
0.228576
0.228576
0.228585
0.228586
0.228585
0.228586
0.228586
0.228586
0.228586
0.228586
0.228586
0.228586
0.228586
0.228586
0.228586
0.228586
0.228586
0.228586
0.228586
0.228586
0.228586
0.228586
0.228586
0.228586
0.228586
0.228586
0.228586
0.228585
0.228586
0.228585
0.228576
0.228576
0.228586
0.228586
0.228586
0.228586
0.228586
0.228586
0.228586
0.228586
0.228586
0.228586
0.228586
0.228586
0.228586
0.228586
0.228586
0.228586
0.228586
0.228586
0.228586
0.228586
0.228586
0.228586
0.228586
0.228586
0.228586
0.228585
0.228585
0.228585
0.228576
0.228576
0.228585
0.228585
0.228585
0.228585
0.228586
0.228586
0.228586
0.228586
0.228586
0.228586
0.228586
0.228586
0.228586
0.228586
0.228586
0.228586
0.228586
0.228586
0.228586
0.228586
0.228586
0.228586
0.228586
0.228586
0.228586
0.228585
0.228585
0.228585
0.228576
0.228576
0.228585
0.228585
0.228585
0.228586
0.228586
0.228586
0.228586
0.228586
0.228586
0.228586
0.228586
0.228586
0.228586
0.228586
0.228586
0.228586
0.228586
0.228586
0.228586
0.228586
0.228586
0.228586
0.228586
0.228586
0.228586
0.228585
0.228586
0.228585
0.228576
0.228576
0.228585
0.228585
0.228585
0.228585
0.228586
0.228586
0.228586
0.228586
0.228586
0.228586
0.228586
0.228586
0.228586
0.228586
0.228586
0.228586
0.228586
0.228586
0.228586
0.228586
0.228586
0.228586
0.228586
0.228586
0.228586
0.228585
0.228585
0.228585
0.228576
0.228576
0.228585
0.228585
0.228586
0.228586
0.228586
0.228586
0.228586
0.228586
0.228586
0.228586
0.228586
0.228586
0.228586
0.228586
0.228586
0.228586
0.228586
0.228586
0.228586
0.228586
0.228586
0.228586
0.228586
0.228586
0.228586
0.228585
0.228585
0.228585
0.228576
0.228576
0.228585
0.228585
0.228585
0.228585
0.228586
0.228586
0.228586
0.228586
0.228586
0.228586
0.228586
0.228586
0.228586
0.228586
0.228586
0.228586
0.228586
0.228586
0.228586
0.228586
0.228586
0.228586
0.228586
0.228586
0.228586
0.228586
0.228586
0.228585
0.228576
0.00940957
0.00891358
0.00639078
0.00360883
0.00146724
0.00336473
0.00600821
0.00944641
0.0160312
0.0146306
0.0360758
0.206759
0.226522
0.22982
0.224415
0.217649
0.204377
0.204006
0.21707
0.224048
0.222871
0.220817
0.220591
0.221776
0.223247
0.224287
0.224907
0.225367
0.225708
0.226015
0.226265
0.226475
0.226665
0.226838
0.226988
0.22714
0.227273
0.227421
0.227572
0.227754
0.227974
0.228254
0.228655
0.229037
0.225735
0.225051
0.224929
0.225343
0.225861
0.226225
0.226472
0.226658
0.22679
0.226903
0.226987
0.227055
0.227122
0.227155
0.227214
0.227226
0.227276
0.227279
0.22732
0.227322
0.227352
0.227361
0.227377
0.227399
0.227403
0.227435
0.227442
0.227474
0.227498
0.227531
0.2273
0.227336
0.22737
0.22739
0.227406
0.227416
0.227424
0.227429
0.227434
0.227437
0.227439
0.227442
0.227443
0.227445
0.227446
0.227447
0.227448
0.227449
0.227449
0.227449
0.227449
0.22745
0.227449
0.22745
0.227449
0.22745
0.22745
0.227451
0.227451
0.227443
0.227443
0.227452
0.227451
0.22745
0.227449
0.227449
0.227449
0.227449
0.227449
0.227449
0.227449
0.227449
0.227449
0.227449
0.227449
0.227449
0.227449
0.227449
0.227449
0.227449
0.227449
0.227449
0.227449
0.227449
0.227449
0.22745
0.22745
0.227451
0.227452
0.227443
0.227443
0.227452
0.227451
0.22745
0.22745
0.227449
0.227449
0.227449
0.227449
0.227449
0.227449
0.227449
0.227449
0.227449
0.227449
0.227449
0.227449
0.227449
0.227449
0.227449
0.227449
0.227449
0.227449
0.227449
0.227449
0.22745
0.22745
0.227451
0.227452
0.227443
0.227443
0.227452
0.227451
0.22745
0.22745
0.227449
0.227449
0.227449
0.227449
0.227449
0.227449
0.227449
0.227449
0.227449
0.227449
0.227449
0.227449
0.227449
0.227449
0.227449
0.227449
0.227449
0.227449
0.227449
0.227449
0.22745
0.22745
0.227451
0.227452
0.227443
0.227443
0.227452
0.227451
0.22745
0.22745
0.227449
0.227449
0.227449
0.227449
0.227449
0.227449
0.227449
0.227449
0.227449
0.227449
0.227449
0.227449
0.227449
0.227449
0.227449
0.227449
0.227449
0.227449
0.227449
0.227449
0.227449
0.22745
0.227451
0.227452
0.227443
0.227443
0.227452
0.227451
0.22745
0.22745
0.227449
0.227449
0.227449
0.227449
0.227449
0.227449
0.227449
0.227449
0.227449
0.227449
0.227449
0.227449
0.227449
0.227449
0.227449
0.227449
0.227449
0.227449
0.227449
0.227449
0.22745
0.22745
0.227451
0.227452
0.227443
0.227443
0.227452
0.227451
0.22745
0.22745
0.227449
0.227449
0.227449
0.227449
0.227449
0.227449
0.227449
0.227449
0.227449
0.227449
0.227449
0.227449
0.227449
0.227449
0.227449
0.227449
0.227449
0.227449
0.227449
0.227449
0.22745
0.22745
0.227451
0.227452
0.227443
0.227443
0.227452
0.227451
0.22745
0.22745
0.227449
0.227449
0.227449
0.227449
0.227449
0.227449
0.227449
0.227449
0.227449
0.227449
0.227449
0.227449
0.227449
0.227449
0.227449
0.227449
0.227449
0.227449
0.227449
0.227449
0.227449
0.22745
0.227451
0.227452
0.227443
0.227443
0.227452
0.227451
0.22745
0.22745
0.227449
0.227449
0.227449
0.227449
0.227449
0.227449
0.227449
0.227449
0.227449
0.227449
0.227449
0.227449
0.227449
0.227449
0.227449
0.227449
0.227449
0.227449
0.227449
0.227449
0.22745
0.22745
0.227451
0.227452
0.227443
0.227443
0.227452
0.227451
0.22745
0.22745
0.227449
0.227449
0.227449
0.227449
0.227449
0.227449
0.227449
0.227449
0.227449
0.227449
0.227449
0.227449
0.227449
0.227449
0.227449
0.227449
0.227449
0.227449
0.227449
0.227449
0.22745
0.227451
0.227452
0.227454
0.227446
0.00634876
0.00218644
0.000405974
8.98594e-05
7.79643e-05
0.000271208
0.00117403
0.00203004
0.00269878
0.00306825
0.00513843
0.0254402
0.0562451
0.213966
0.223899
0.220594
0.205273
0.163236
0.0453311
0.0228299
0.136083
0.211593
0.222708
0.220661
0.219416
0.219826
0.221036
0.222097
0.22279
0.223267
0.223646
0.223963
0.22424
0.224464
0.224683
0.224837
0.225008
0.225154
0.225323
0.225504
0.225696
0.22596
0.226251
0.226653
0.227153
0.22785
0.227412
0.226616
0.225366
0.223961
0.223198
0.223362
0.223893
0.224294
0.224547
0.224715
0.224851
0.224951
0.225043
0.225104
0.225168
0.225206
0.225253
0.225278
0.225311
0.225329
0.225354
0.225369
0.225387
0.225403
0.225416
0.225434
0.225445
0.225467
0.225486
0.225522
0.225563
0.225595
0.225433
0.225418
0.225321
0.225386
0.225416
0.22544
0.225452
0.225463
0.225469
0.225477
0.225479
0.225485
0.225486
0.22549
0.225491
0.225494
0.225494
0.225496
0.225497
0.225499
0.2255
0.2255
0.225502
0.225502
0.225503
0.225503
0.225503
0.225504
0.225504
0.225504
0.225502
0.225455
0.225415
0.225415
0.225455
0.225502
0.225504
0.225504
0.225504
0.225504
0.225503
0.225503
0.225503
0.225503
0.225503
0.225503
0.225503
0.225503
0.225503
0.225503
0.225503
0.225503
0.225503
0.225503
0.225503
0.225503
0.225503
0.225503
0.225504
0.225504
0.225504
0.225504
0.225502
0.225455
0.225415
0.225415
0.225455
0.225502
0.225504
0.225504
0.225504
0.225504
0.225503
0.225503
0.225503
0.225503
0.225503
0.225503
0.225503
0.225503
0.225503
0.225503
0.225503
0.225503
0.225503
0.225503
0.225503
0.225503
0.225503
0.225503
0.225504
0.225504
0.225504
0.225504
0.225502
0.225455
0.225415
0.225415
0.225455
0.225502
0.225504
0.225504
0.225504
0.225504
0.225503
0.225503
0.225503
0.225503
0.225503
0.225503
0.225503
0.225503
0.225503
0.225503
0.225503
0.225503
0.225503
0.225503
0.225503
0.225503
0.225503
0.225503
0.225504
0.225504
0.225504
0.225504
0.225502
0.225455
0.225415
0.225415
0.225455
0.225502
0.225504
0.225504
0.225504
0.225504
0.225504
0.225503
0.225503
0.225503
0.225503
0.225503
0.225503
0.225503
0.225503
0.225503
0.225503
0.225503
0.225503
0.225503
0.225503
0.225503
0.225503
0.225503
0.225504
0.225504
0.225504
0.225504
0.225502
0.225455
0.225415
0.225415
0.225455
0.225502
0.225504
0.225504
0.225504
0.225504
0.225503
0.225503
0.225503
0.225503
0.225503
0.225503
0.225503
0.225503
0.225503
0.225503
0.225503
0.225503
0.225503
0.225503
0.225503
0.225503
0.225503
0.225503
0.225504
0.225504
0.225504
0.225504
0.225502
0.225455
0.225415
0.225415
0.225455
0.225502
0.225504
0.225504
0.225504
0.225504