/*--------------------------------*- C++ -*----------------------------------*\
| =========                 |                                                 |
| \\      /  F ield         | OpenFOAM: The Open Source CFD Toolbox           |
|  \\    /   O peration     | Version:  2.1.1                                 |
|   \\  /    A nd           | Web:      www.OpenFOAM.org                      |
|    \\/     M anipulation  |                                                 |
\*---------------------------------------------------------------------------*/
FoamFile
{
    version     2.0;
    format      ascii;
    class       volScalarField;
    location    "0.001050000";
    object      omega;
}
// * * * * * * * * * * * * * * * * * * * * * * * * * * * * * * * * * * * * * //

dimensions      [0 0 -1 0 0 0 0];

internalField   nonuniform List<scalar> 
12384
(
669.024
642.663
626.165
625.585
623.364
628.116
627.008
626.489
628.846
622.736
620.633
623.067
617.906
612.088
613.846
617.689
618.263
620.799
623.148
625.512
628.156
630.15
631.306
631.86
632.427
631.602
630.892
631.169
629.616
629.51
628.395
628.113
627.543
626.696
626.767
625.292
624.796
623.771
622.694
622.394
620.788
619.767
618.333
617.239
618.631
619.177
619.603
620.019
620.368
620.601
620.726
621.066
620.916
621.258
621.189
621.227
621.424
621.067
621.402
620.927
621.177
620.915
620.894
620.83
620.685
620.709
620.511
620.516
620.451
620.17
620.315
619.949
619.962
619.783
620.533
620.586
620.572
620.594
620.612
620.615
620.62
620.638
620.625
620.648
620.64
620.642
620.667
620.64
620.68
620.651
620.692
620.665
620.699
620.678
620.698
620.689
620.694
620.699
620.691
620.696
620.692
620.692
620.689
620.693
620.683
620.695
620.7
620.698
620.698
620.699
620.699
620.702
620.701
620.703
620.702
620.704
620.701
620.7
620.706
620.704
620.704
620.701
620.704
620.702
620.703
620.7
620.702
620.698
620.698
620.699
620.698
620.7
620.694
620.682
620.683
620.695
620.7
620.698
620.702
620.699
620.701
620.7
620.702
620.701
620.704
620.704
620.701
620.702
620.703
620.704
620.702
620.704
620.702
620.704
620.7
620.702
620.698
620.699
620.696
620.696
620.694
620.693
620.689
620.693
620.682
620.694
620.699
620.699
620.701
620.699
620.698
620.702
620.7
620.703
620.702
620.705
620.701
620.704
620.701
620.704
620.701
620.704
620.701
620.703
620.7
620.701
620.7
620.7
620.699
620.701
620.698
620.701
620.695
620.683
620.683
620.695
620.698
620.698
620.699
620.702
620.699
620.702
620.701
620.703
620.703
620.705
620.702
620.704
620.701
620.704
620.701
620.704
620.702
620.703
620.7
620.701
620.698
620.699
620.695
620.695
620.695
620.693
620.689
620.692
620.694
620.69
620.691
620.695
620.696
620.698
620.698
620.7
620.7
620.702
620.702
620.704
620.701
620.704
620.701
620.704
620.701
620.704
620.702
620.703
620.699
620.701
620.698
620.699
620.695
620.696
620.694
620.693
620.689
620.693
620.694
620.691
620.694
620.694
620.699
620.697
620.7
620.699
620.701
620.7
620.703
620.702
620.704
620.701
620.704
620.701
620.703
620.699
620.703
620.701
620.699
620.701
620.7
620.7
620.698
620.702
620.697
620.699
620.696
620.683
620.696
620.69
620.691
620.695
620.696
620.698
620.697
620.7
620.7
620.702
620.702
620.704
620.701
620.704
620.701
620.704
620.701
620.704
620.703
620.703
620.699
620.701
620.698
620.699
620.695
620.696
620.695
620.693
620.689
620.693
620.682
620.694
620.698
620.7
620.7
620.701
620.698
620.702
620.699
620.702
620.701
620.704
620.701
620.703
620.705
620.705
620.702
620.7
620.703
620.701
620.702
620.699
620.702
620.699
620.702
620.701
620.699
620.697
620.695
620.683
620.695
620.689
620.692
620.695
620.698
620.699
620.702
620.701
620.703
620.702
620.704
620.704
620.703
620.704
620.703
620.705
620.702
620.705
620.702
620.702
620.7
620.702
620.7
620.7
620.697
620.697
620.695
620.693
620.69
620.694
884.1
5796.48
5598.7
5476.3
5892.23
7340.89
8687.48
9546.52
9881.26
9226.17
7445.82
5649.51
4139.22
624.39
603.878
3657.9
5023.78
7095.07
9829.27
13006.8
16321.5
19536.5
22433.4
24810.6
26539.3
27715.4
28388.4
28603
28394.4
27797.9
26828
25527.4
23904.1
21994.5
19762.5
17262.3
14566.1
11828
9200.03
6784.39
4616.59
2791.74
1420.84
618.087
612.497
613.776
755.37
963.34
1192.76
1408.17
1581.02
1698.67
1759.44
1775.7
1760.08
1713.51
1640.44
1545.41
1432.08
1307.82
1176.7
1042.55
908.594
780.27
661.694
554.883
459.481
374.558
299.965
236.41
182.981
141.081
112.8
619.399
619.757
95.038
92.5807
92.7482
92.9014
92.9816
92.9943
92.9381
92.8248
92.6575
92.4597
92.254
92.0895
91.9849
91.8879
91.7796
91.6577
91.5676
91.5026
91.4755
91.4485
91.4167
91.3872
91.356
91.3283
91.32
91.308
91.2965
94.044
620.139
620.126
93.9576
91.278
91.3041
91.3174
91.3205
91.3476
91.3764
91.4084
91.4472
91.4794
91.525
91.5923
91.672
91.6839
91.697
91.6479
91.5792
91.5193
91.4775
91.4468
91.4085
91.3773
91.3471
91.3205
91.3115
91.3117
91.2846
93.9633
620.126
620.135
93.941
91.2736
91.3006
91.317
91.3325
91.3538
91.382
91.4155
91.4539
91.4899
91.52
91.5857
91.6466
91.6964
91.6921
91.6348
91.576
91.5156
91.4827
91.4482
91.4137
91.3805
91.3522
91.3245
91.3175
91.305
91.2931
94.039
620.14
620.126
93.9664
91.2909
91.3201
91.3086
91.3145
91.3407
91.3731
91.4072
91.447
91.4777
91.5163
91.5703
91.6307
91.6786
91.6934
91.656
91.5885
91.5139
91.4733
91.4318
91.3929
91.3655
91.3392
91.3177
91.3049
91.2927
91.2765
93.9548
620.139
620.126
93.9617
91.2693
91.2894
91.3132
91.3302
91.3585
91.3889
91.4199
91.4552
91.4823
91.5204
91.5767
91.6441
91.6976
91.6985
91.6435
91.5791
91.5147
91.4818
91.448
91.4146
91.3807
91.3535
91.327
91.3197
91.305
91.2906
94.0366
620.14
620.143
93.9933
91.2691
91.2991
91.318
91.3378
91.3579
91.3869
91.4138
91.4492
91.4757
91.5143
91.574
91.645
91.698
91.6969
91.6435
91.5807
91.5164
91.4821
91.4475
91.4134
91.3785
91.35
91.3233
91.3172
91.3044
91.2919
94.0395
620.14
620.139
93.9934
91.2686
91.293
91.3162
91.3331
91.3621
91.3886
91.4218
91.4524
91.485
91.5149
91.5728
91.6274
91.6831
91.6949
91.655
91.5721
91.5057
91.4713
91.4499
91.4178
91.3877
91.3571
91.3319
91.3129
91.2931
91.2617
93.9388
620.129
620.138
93.9994
91.2726
91.3049
91.3231
91.3431
91.3628
91.3937
91.4213
91.4561
91.4814
91.518
91.5723
91.6394
91.6949
91.6983
91.647
91.5816
91.5149
91.4805
91.4456
91.4106
91.3769
91.348
91.3204
91.3135
91.3026
91.2938
94.0385
620.14
620.126
93.9793
91.2932
91.2942
91.3023
91.3112
91.34
91.3744
91.4105
91.4499
91.4807
91.5218
91.5804
91.6459
91.6978
91.6987
91.6508
91.5826
91.521
91.4796
91.4498
91.4123
91.3792
91.3491
91.3243
91.3164
91.3015
91.2876
93.9741
620.125
620.14
93.9962
91.2711
91.3032
91.3254
91.3454
91.361
91.3882
91.4107
91.4424
91.4666
91.5087
91.5628
91.6351
91.6869
91.6974
91.6486
91.5838
91.5202
91.4888
91.4497
91.4142
91.3757
91.3441
91.3166
91.3089
91.3015
91.2997
94.0522
620.14
942.036
8789.35
6303.22
5182.01
4873.83
6711.09
7217.25
7494.15
7730.97
7272.35
6169.5
4988
4466.79
611.976
601.702
7376.04
9459.72
11826.9
14379.1
17053.1
19485.2
21547.7
23008.9
23932.7
24274.8
24141.4
23533.3
22714.1
21715.3
20636.1
19398.8
18018.7
16548.9
15067
13500.2
11806.9
10010.5
8192.55
6479.28
4932.71
3592.01
2473.34
1633.32
604.552
600.095
1197.77
1205.47
1276.54
1360.91
1424.74
1457.06
1456.74
1430.05
1384.67
1321.06
1255.68
1184.12
1106.32
1020.71
928.509
832.717
735.518
641.934
555.356
477.069
405.413
339.725
281.469
231.018
187.909
151.911
123.372
104.837
599.208
599.342
94.0071
91.7855
91.4198
91.0966
90.8203
90.5752
90.3284
90.0909
89.8664
89.6796
89.5108
89.3695
89.2419
89.1455
89.0722
89.0315
89.001
88.9873
88.9719
88.9686
88.964
88.9692
88.9702
88.9801
88.986
88.9947
89.0096
90.9424
599.345
599.388
90.9442
89.0047
88.995
88.9865
88.9812
88.9731
88.9625
88.9598
88.9512
88.9511
88.9424
88.9356
88.9194
88.9142
88.9126
88.9211
88.9373
88.9422
88.9501
88.9497
88.9582
88.9606
88.9711
88.9784
88.9863
88.9941
89.0047
90.9452
599.389
599.384
90.9259
89.004
88.9949
88.9857
88.9813
88.9705
88.9672
88.9583
88.9559
88.9482
88.9447
88.9309
88.9201
88.9124
88.9099
88.924
88.9328
88.9451
88.9459
88.9528
88.9543
88.9631
88.9663
88.9778
88.9847
88.9933
89.0082
90.9424
599.347
599.39
90.9444
89.0055
88.9941
88.9868
88.9759
88.9695
88.9593
88.957
88.9485
88.9488
88.9411
88.9369
88.9223
88.9151
88.9086
88.9196
88.9291
88.9433
88.9472
88.9566
88.9613
88.9707
88.974
88.9844
88.9891
88.998
89.0076
90.9091
599.368
599.388
90.9488
89.0041
88.9872
88.9834
88.9728
88.9688
88.9592
88.9582
88.9502
88.9506
88.942
88.9361
88.9201
88.9129
88.9092
88.9227
88.9317
88.9448
88.9458
88.9527
88.9542
88.963
88.9663
88.9777
88.9844
88.9929
89.0074
90.9439
599.347
599.353
90.9265
89.0078
88.9909
88.9878
88.9765
88.9722
88.9622
88.9605
88.952
88.9518
88.9431
88.9366
88.9203
88.9129
88.9092
88.9226
88.9316
88.9445
88.9455
88.9525
88.954
88.9627
88.966
88.9775
88.9843
88.9932
89.0081
90.9438
599.346
599.346
90.9491
89.003
88.9907
88.9817
88.9773
88.9664
88.964
88.9554
88.9547
88.9478
88.9471
88.9352
88.927
88.9121
88.9111
88.9147
88.9313
88.9422
88.9524
88.9565
88.9617
88.971
88.9743
88.9846
88.9884
88.9965
89.0044
90.9296
599.388
599.344
90.9504
89.0058
88.989
88.9864
88.9754
88.9714
88.9614
88.9601
88.9519
88.9522
88.9437
88.9377
88.9217
88.9137
88.9086
88.9213
88.9304
88.9438
88.9453
88.9525
88.9541
88.963
88.9664
88.9777
88.9849
88.994
89.0088
90.9408
599.347
599.389
90.9465
89.0062
88.9934
88.9845
88.9731
88.9685
88.9586
88.957
88.9487
88.9492
88.9408
88.9357
88.9203
88.9112
88.9117
88.9206
88.9362
88.9417
88.9502
88.9496
88.9579
88.9594
88.9694
88.9738
88.9851
88.9909
89.0039
90.9475
599.386
599.344
90.9499
89.0049
88.9878
88.9851
88.9739
88.97
88.9593
88.958
88.9497
88.9506
88.9431
88.9393
88.9242
88.9155
88.9077
88.9196
88.9302
88.9439
88.9448
88.9519
88.9531
88.9618
88.965
88.9762
88.9837
88.9939
89.0099
90.941
599.346
2817.61
19675.4
13444.5
10178.4
10171.7
12041.1
11705.8
10745.7
10186.4
9023.79
7694.43
6723.98
6162.64
600.403
609.91
12554.5
17041
20933.9
24100.2
26708.9
28563.7
29857.1
30445.4
30367.4
29731.5
28649.2
27244.7
25656.1
23938.1
22252.6
20613.1
18988.4
17380.4
15745.7
14050.9
12302
10535.8
8760.6
7014.41
5451.04
4141.76
3099.5
2376
601.617
602.549
2196.05
2064.75
2017.91
2008.21
1970.65
1914.35
1843.83
1753.66
1644.66
1520.86
1402.98
1289.95
1179.89
1072.03
967.664
865.797
765.586
669.592
579.067
494.844
418.621
350.904
291.469
239.4
194.672
157.409
127.27
107.939
599.613
599.891
98.0916
94.355
93.4811
92.74
92.1145
91.5846
91.0963
90.6604
90.2923
89.9896
89.7317
89.5133
89.3299
89.1824
89.0669
88.983
88.924
88.8871
88.8644
88.8526
88.8459
88.8432
88.8421
88.8416
88.8402
88.8425
88.8602
91.8118
599.787
599.758
91.8211
88.8591
88.8432
88.841
88.8387
88.8412
88.84
88.8399
88.8394
88.8393
88.8387
88.8386
88.8376
88.837
88.8398
88.8381
88.8387
88.8388
88.8394
88.8394
88.8399
88.84
88.841
88.8391
88.8412
88.8431
88.8586
91.8248
599.757
599.757
91.8263
88.8598
88.8429
88.8413
88.8408
88.8403
88.8401
88.8397
88.8394
88.8388
88.8391
88.838
88.8365
88.8384
88.8382
88.8382
88.8384
88.839
88.8393
88.8398
88.8395
88.8399
88.8401
88.8407
88.8399
88.8425
88.8603
91.8132
599.787
599.756
91.8275
88.8586
88.8433
88.8414
88.8398
88.8411
88.8402
88.8401
88.8396
88.8397
88.839
88.8388
88.8383
88.8383
88.8383
88.8382
88.8383
88.8388
88.8389
88.8392
88.8395
88.8401
88.8406
88.8412
88.8417
88.8436
88.8608
91.8305
599.76
599.756
91.8325
88.859
88.8428
88.8423
88.8408
88.8406
88.8399
88.84
88.8395
88.8392
88.8386
88.8382
88.8377
88.8375
88.8376
88.8378
88.8382
88.8387
88.839
88.8396
88.8394
88.8398
88.8398
88.8404
88.8397
88.8426
88.8603
91.813
599.787
599.785
91.8157
88.8593
88.8419
88.8408
88.84
88.84
88.8396
88.8397
88.8393
88.8391
88.8384
88.8382
88.8377
88.8375
88.8376
88.8379
88.8382
88.8388
88.8391
88.8396
88.8394
88.8398
88.8399
88.8404
88.8396
88.8426
88.8602
91.8121
599.787
599.788
91.8159
88.8586
88.8437
88.841
88.8407
88.8402
88.8401
88.8397
88.8398
88.8393
88.839
88.8384
88.8381
88.838
88.8379
88.838
88.8385
88.8379
88.8401
88.8407
88.8394
88.8401
88.8404
88.8411
88.8417
88.8434
88.86
91.8297
599.757
599.789
91.8127
88.8593
88.8418
88.8407
88.8398
88.8399
88.8396
88.8397
88.8393
88.8392
88.8385
88.8382
88.8377
88.8375
88.8376
88.8378
88.8382
88.8387
88.8389
88.8395
88.8393
88.8398
88.84
88.8407
88.8398
88.8424
88.8602
91.8135
599.787
599.755
91.8307
88.8578
88.8422
88.8425
88.8407
88.8407
88.8399
88.8399
88.8394
88.8392
88.8386
88.8383
88.8375
88.8393
88.839
88.8374
88.8381
88.8384
88.839
88.8393
88.8397
88.8396
88.8402
88.8402
88.8418
88.8411
88.8579
91.8259
599.757
599.788
91.8158
88.859
88.8417
88.8407
88.84
88.8401
88.8399
88.8401
88.8398
88.8398
88.8391
88.8386
88.8378
88.8374
88.8373
88.8371
88.8372
88.8377
88.8385
88.8391
88.8391
88.8396
88.8396
88.8406
88.8393
88.842
88.8597
91.8126
599.788
5390.53
25660.2
26183.1
22083.2
17810.2
19436.5
18727.5
18279.3
16861.2
14139.1
11867.4
10437.8
9716.79
612.694
623.109
19171
28832.8
36759
41437.2
43447.4
43587.9
42933.5
41811.4
40174.8
38114.5
35750.7
33196.2
30662.8
28174.2
25844.9
23654.4
21580.4
19575.8
17689.6
15895.8
14115
12297.1
10444.6
8615.08
6924.53
5481.61
4362.75
3643.97
602.667
605.947
3776.18
3418.48
3168.37
3011.97
2835.55
2651.68
2463.08
2271.39
2077.18
1887.48
1707.39
1535.9
1371.97
1220.84
1086.08
964.076
851.049
744.358
644.277
551.267
466.146
389.769
322.823
264.537
213.918
170.458
135.955
113.13
601.723
602.177
104.081
98.8967
97.0358
95.4885
94.202
93.1292
92.2339
91.5124
90.9441
90.4794
90.1063
89.7961
89.5495
89.3448
89.19
89.0676
88.9873
88.9277
88.8976
88.8736
88.867
88.8574
88.8587
88.8538
88.8574
88.8551
88.8685
91.858
602.057
602.093
91.8611
88.8728
88.8534
88.8559
88.8568
88.853
88.8566
88.8528
88.8569
88.8529
88.8569
88.8525
88.8554
88.8536
88.8516
88.8562
88.8527
88.8571
88.853
88.8572
88.8529
88.8567
88.853
88.8566
88.8556
88.8533
88.8727
91.8609
602.092
602.084
91.8662
88.8732
88.8538
88.857
88.8531
88.8567
88.8529
88.8568
88.853
88.8564
88.8521
88.8557
88.8557
88.8518
88.8559
88.8523
88.8567
88.8531
88.8572
88.8533
88.857
88.853
88.8565
88.8528
88.8566
88.855
88.8686
91.8596
602.057
602.092
91.8616
88.8726
88.8534
88.8547
88.8567
88.853
88.8568
88.8531
88.8573
88.8532
88.8573
88.8528
88.8565
88.8523
88.856
88.8523
88.8562
88.8527
88.8559
88.8527
88.856
88.8529
88.8566
88.8532
88.857
88.8541
88.8727
91.87
602.081
602.09
91.8639
88.8709
88.8574
88.8531
88.8568
88.8529
88.8571
88.853
88.8573
88.8528
88.8568
88.8523
88.8557
88.8516
88.8554
88.8519
88.8564
88.8528
88.857
88.8532
88.8569
88.853
88.8565
88.8528
88.8565
88.8545
88.8684
91.859
602.057
602.065
91.8598
88.869
88.8571
88.8531
88.8568
88.8529
88.857
88.853
88.8572
88.8528
88.8566
88.8523
88.8557
88.8516
88.8555
88.852
88.8565
88.8529
88.857
88.8532
88.8569
88.853
88.8565
88.8528
88.8567
88.8546
88.8683
91.858
602.057
602.062
91.8594
88.8708
88.8539
88.8568
88.853
88.857
88.8531
88.8573
88.8534
88.8572
88.8531
88.8567
88.8524
88.856
88.8521
88.8558
88.8522
88.8557
88.8533
88.8532
88.856
88.8529
88.8566
88.8533
88.857
88.8541
88.8734
91.865
602.089
602.057
91.8602
88.8685
88.8569
88.8529
88.8568
88.8529
88.857
88.853
88.8573
88.8528
88.8568
88.8523
88.8558
88.8516
88.8554
88.852
88.8563
88.8528
88.857
88.8531
88.8567
88.8529
88.8564
88.8527
88.8566
88.855
88.8685
91.8601
602.057
602.092
91.8623
88.8723
88.8546
88.8539
88.8567
88.8528
88.8568
88.8529
88.8572
88.8529
88.857
88.8524
88.8558
88.8516
88.8521
88.8555
88.8522
88.8567
88.8527
88.857
88.8528
88.8568
88.8526
88.8567
88.8531
88.8555
88.8719
91.8619
602.092
602.059
91.8609
88.8684
88.8571
88.853
88.8569
88.8528
88.8573
88.8531
88.8577
88.8532
88.8573
88.8525
88.8558
88.8513
88.8548
88.8511
88.8551
88.852
88.8565
88.8527
88.8566
88.8525
88.856
88.8524
88.8563
88.8549
88.8683
91.8573
602.058
5795.25
27848.5
32619.6
35489.1
33983.7
35244
31084
26054.9
24740.7
23844.4
19848.1
16984.3
15600.1
621.391
636.199
27640.4
47566.1
63967.1
71281
72006.4
68391.5
63231.2
58358
53922
49564.9
45345.7
41329
37385.4
33790.3
30565.7
27711.8
25105.8
22671
20361.4
18164.9
16167.8
14312.4
12496.2
10728.7
9047.6
7549.83
6384.75
5737.77
605.376
611.646
6246.13
5539.29
4893.6
4424.66
4010.09
3622.32
3264.41
2923.8
2605.1
2316.62
2050.03
1813.69
1603.6
1420.49
1257.07
1107.15
969.178
841.422
724.078
616.786
519.859
433.114
356.851
291.295
236.037
189.244
150.476
122.92
604.224
604.943
114.302
106.118
102.275
99.2861
96.8938
95.0193
93.5839
92.513
91.6852
91.0345
90.5209
90.1125
89.7889
89.527
89.3236
89.1666
89.0561
88.9774
88.9296
88.898
88.8828
88.8721
88.8693
88.8657
88.8659
88.8644
88.8778
91.8047
604.542
604.547
91.8032
88.8799
88.8635
88.8652
88.8661
88.8641
88.8658
88.8642
88.8665
88.8642
88.8664
88.8636
88.8642
88.8655
88.863
88.8654
88.8638
88.8668
88.8644
88.8667
88.8643
88.8661
88.8642
88.8659
88.8658
88.8633
88.8796
91.8035
604.546
604.549
91.7963
88.8808
88.8635
88.8657
88.8642
88.8663
88.8642
88.8664
88.8642
88.8659
88.8639
88.8654
88.8646
88.8632
88.8654
88.8634
88.8661
88.8645
88.8667
88.8646
88.8665
88.8642
88.8658
88.8638
88.8649
88.8642
88.8779
91.8039
604.543
604.546
91.8039
88.8794
88.8632
88.8656
88.866
88.8642
88.8662
88.8645
88.867
88.8647
88.867
88.8642
88.8659
88.8637
88.8657
88.8634
88.8659
88.8639
88.8653
88.8631
88.8656
88.8639
88.866
88.8642
88.8657
88.8638
88.8804
91.7966
604.549
604.547
91.8053
88.8794
88.8657
88.8638
88.8662
88.8642
88.8667
88.8645
88.867
88.8643
88.8663
88.8634
88.865
88.8628
88.8649
88.8629
88.8658
88.8641
88.8665
88.8644
88.8665
88.8642
88.8657
88.8638
88.8648
88.8636
88.8778
91.8042
604.543
604.543
91.7989
88.8786
88.8651
88.8634
88.8661
88.8641
88.8665
88.8644
88.8667
88.864
88.8661
88.8633
88.8649
88.8628
88.865
88.863
88.8658
88.8642
88.8666
88.8645
88.8665
88.8642
88.8658
88.8638
88.8648
88.8635
88.8777
91.8044
604.543
604.542
91.8062
88.8795
88.8637
88.8652
88.8639
88.8664
88.8645
88.8669
88.8647
88.8667
88.8644
88.866
88.8634
88.8656
88.8633
88.8651
88.8633
88.865
88.8644
88.8639
88.8656
88.8638
88.8662
88.8642
88.8658
88.8637
88.881
91.7987
604.546
604.544
91.8045
88.878
88.8649
88.8632
88.8661
88.8641
88.8666
88.8644
88.8668
88.8641
88.8662
88.8634
88.8649
88.8628
88.8648
88.8629
88.8657
88.8641
88.8664
88.8643
88.8662
88.8639
88.8655
88.8637
88.8647
88.8641
88.8778
91.8035
604.543
604.546
91.804
88.879
88.8643
88.8646
88.8659
88.864
88.8664
88.8644
88.8667
88.8642
88.8664
88.8635
88.8648
88.863
88.8632
88.8644
88.8633
88.8661
88.864
88.8666
88.8642
88.8663
88.8637
88.8657
88.8637
88.8643
88.8789
91.8048
604.546
604.545
91.8026
88.8778
88.865
88.8632
88.8661
88.864
88.8667
88.8645
88.8671
88.8647
88.8665
88.8633
88.8649
88.8622
88.8641
88.8619
88.8645
88.8633
88.866
88.864
88.8659
88.8638
88.8654
88.8637
88.8655
88.8644
88.8781
91.8044
604.544
5815.91
30282.7
34207.6
37439
40997.1
45104.1
46684.1
46961.7
43891.7
36424.6
35828.6
30655.7
26988.9
653.541
668.081
48729.2
88149.8
113696
121380
116414
105542
92488.8
81258.8
72328.9
64751.4
57969.2
51887.3
46489.1
41713
37344.1
33617.2
30340.6
27369.9
24583.8
22090.3
19838.7
17855.5
16004.2
14260.8
12606.3
11073.9
9803.97
9309.13
610.052
621.416
10073.7
9128.2
7696.99
6534.92
5660.6
4946.08
4351.53
3839.02
3375.04
2953.94
2578.08
2246.04
1957.14
1708.01
1491.43
1302.03
1133.43
981.798
844.019
718.696
606.613
507.702
421.784
347.694
283.381
226.623
177.902
140.883
609.189
610.104
132.531
118.001
110.53
105.117
101.025
97.9418
95.6715
94.0205
92.7901
91.8661
91.1592
90.6044
90.1599
89.8038
89.5262
89.3132
89.1583
89.0487
88.9766
88.9299
88.9032
88.8877
88.8801
88.8766
88.8751
88.8736
88.8875
91.8881
609.73
609.739
91.8692
88.8882
88.873
88.874
88.8753
88.8745
88.8749
88.875
88.8756
88.8751
88.8755
88.8745
88.8738
88.876
88.8738
88.8747
88.8746
88.8758
88.8753
88.8759
88.8753
88.8752
88.8745
88.8752
88.8749
88.8728
88.8881
91.8695
609.739
609.736
91.8694
88.8888
88.873
88.8741
88.8746
88.8752
88.875
88.8757
88.8749
88.8752
88.8747
88.8751
88.874
88.8742
88.8748
88.8745
88.8752
88.8754
88.8759
88.8754
88.8758
88.875
88.8748
88.8743
88.8741
88.8737
88.8879
91.8886
609.732
609.739
91.8696
88.8879
88.8727
88.875
88.8752
88.8746
88.8754
88.8754
88.8761
88.8755
88.8761
88.875
88.8751
88.8747
88.8749
88.8744
88.8749
88.8748
88.8746
88.8741
88.8751
88.8745
88.8751
88.8746
88.8742
88.8733
88.8886
91.8733
609.735
609.739
91.8678
88.8888
88.8742
88.8735
88.8748
88.8746
88.8757
88.8754
88.8761
88.8751
88.8754
88.8743
88.8743
88.8739
88.8742
88.874
88.8749
88.8751
88.8757
88.8753
88.8757
88.8749
88.8747
88.8742
88.8738
88.873
88.8878
91.889
609.732
609.734
91.8749
88.8881
88.8731
88.8733
88.8749
88.8746
88.8756
88.8754
88.8759
88.875
88.8753
88.8743
88.8742
88.8739
88.8744
88.8742
88.8749
88.8752
88.8757
88.8754
88.8758
88.875
88.8747
88.8742
88.874
88.8731
88.8876
91.8888
609.732
609.732
91.8855
88.8883
88.8731
88.8738
88.8744
88.8753
88.8753
88.8762
88.8758
88.8761
88.8753
88.8752
88.8745
88.8748
88.8743
88.8744
88.8741
88.8745
88.875
88.8745
88.8751
88.8745
88.8752
88.8746
88.8741
88.8732
88.889
91.8642
609.738
609.731
91.886
88.8876
88.873
88.8733
88.8749
88.8747
88.8757
88.8754
88.876
88.8751
88.8754
88.8743
88.8742
88.8739
88.8743
88.8741
88.8748
88.8751
88.8756
88.8751
88.8755
88.8747
88.8745
88.8741
88.874
88.8735
88.8877
91.8879
609.732
609.74
91.8698
88.8877
88.8737
88.8744
88.8746
88.8744
88.8754
88.8752
88.8758
88.8751
88.8756
88.8744
88.8744
88.8737
88.8737
88.8741
88.8742
88.8754
88.8749
88.8756
88.8751
88.8752
88.8742
88.8743
88.8733
88.8726
88.8876
91.871
609.739
609.732
91.8805
88.8872
88.8728
88.8729
88.8748
88.8742
88.8755
88.875
88.8759
88.875
88.8754
88.8739
88.874
88.8732
88.8735
88.8734
88.8744
88.8746
88.8751
88.8749
88.8754
88.875
88.8748
88.8743
88.8751
88.8741
88.8885
91.8851
609.731
5818.01
31710.3
35271.4
37716
40425.2
43601.6
47436.3
55551.2
52442.4
45393.6
38384
33435.3
34841.7
676.188
1930.15
110683
165920
192247
191733
171884
148267
125645
106708
92619.4
81740.4
72764.4
64873.3
57812.4
51482.1
45861.4
40987.3
36778
33086.1
29737.1
26614.6
23808.4
21354.5
19168.8
17111
15107.7
13243.3
12158.8
13463.5
618.057
639.791
18373.8
16479.7
12853.9
10004.8
8003.34
6614.91
5615.78
4839.31
4203.37
3651.73
3160.83
2730.1
2359.4
2040.25
1767.51
1530.81
1322.98
1138.21
973.847
828.394
700.028
587.432
488.574
401.496
324.783
258.049
200.872
165.284
614.509
615.475
163.112
134.844
120.733
111.643
105.324
100.974
97.8593
95.6027
93.967
92.7565
91.8322
91.1091
90.5425
90.1011
89.7575
89.4897
89.2884
89.1396
89.037
88.9704
88.932
88.9096
88.8977
88.8914
88.8885
88.8864
88.8997
91.8004
614.767
614.768
91.7963
88.8999
88.8858
88.8864
88.8874
88.8873
88.8876
88.888
88.888
88.8881
88.8883
88.8886
88.8879
88.8898
88.8878
88.8887
88.8885
88.8887
88.8884
88.8883
88.8883
88.8879
88.8873
88.8875
88.8871
88.8855
88.8998
91.7964
614.768
614.768
91.7935
88.9003
88.8854
88.8864
88.8872
88.8875
88.8878
88.8882
88.8878
88.8879
88.8882
88.8887
88.8878
88.8884
88.8885
88.8888
88.8887
88.8887
88.8885
88.8883
88.8884
88.8879
88.8874
88.8871
88.8866
88.886
88.8999
91.7991
614.768
614.767
91.7967
88.8997
88.8855
88.8875
88.8875
88.8875
88.888
88.8885
88.8886
88.8885
88.8889
88.889
88.889
88.8888
88.8885
88.8886
88.8885
88.8881
88.8874
88.8869
88.8877
88.8874
88.8875
88.8871
88.8864
88.8857
88.9003
91.7938
614.768
614.766
91.7966
88.9006
88.8861
88.8864
88.8873
88.8875
88.8883
88.8883
88.8884
88.8882
88.8883
88.8883
88.8882
88.8882
88.888
88.8884
88.8884
88.8885
88.8883
88.8881
88.8884
88.8879
88.8873
88.8869
88.8863
88.8854
88.8997
91.8001
614.768
614.767
91.7953
88.9
88.8853
88.8862
88.8873
88.8875
88.8882
88.8883
88.8883
88.8881
88.8882
88.8883
88.8882
88.8881
88.8881
88.8885
88.8885
88.8885
88.8884
88.8882
88.8884
88.888
88.8873
88.887
88.8865
88.8855
88.8996
91.8006
614.768
614.768
91.8
88.9003
88.8856
88.8863
88.8872
88.8879
88.8883
88.8887
88.8886
88.8886
88.8886
88.8887
88.8887
88.8884
88.8883
88.8883
88.8882
88.8876
88.8881
88.8874
88.8877
88.8876
88.8875
88.8872
88.8863
88.8856
88.9006
91.7929
614.766
614.767
91.7987
88.8995
88.8854
88.8862
88.8875
88.8876
88.8883
88.8884
88.8885
88.8882
88.8883
88.8883
88.8882
88.8882
88.888
88.8884
88.8883
88.8884
88.8882
88.8879
88.8881
88.8876
88.8871
88.8868
88.8863
88.8858
88.8997
91.7988
614.768
614.767
91.7972
88.8995
88.8861
88.887
88.8871
88.8873
88.8881
88.8882
88.8883
88.8882
88.8886
88.8884
88.8884
88.8879
88.8879
88.8882
88.8883
88.8883
88.8879
88.888
88.8879
88.8879
88.887
88.8867
88.886
88.8849
88.8992
91.7967
614.767
614.767
91.7976
88.899
88.8854
88.886
88.8875
88.8873
88.8882
88.8881
88.8884
88.8882
88.8883
88.8878
88.8878
88.8876
88.8877
88.8877
88.8878
88.8878
88.8876
88.8876
88.8876
88.8877
88.8874
88.8869
88.887
88.8863
88.9005
91.7884
614.756
5990.29
33391.5
37100.3
40831.3
44205.3
46836.4
50964
60185.4
68680
69904.1
73718.5
62098.2
100516
122759
2149.26
2136.18
153636
223985
252530
267796
266271
226505
184554
153220
129273
111789
98866.2
88514.6
79616.1
71532.4
64045.9
57291.6
51227.3
45920.1
41305.7
37319.4
33770
30646.6
28050.1
25984.5
24623.3
24031.4
24681.1
27744.7
35360.1
48281.6
654.34
634.193
39308.7
41049.4
32717.1
23188.2
16550.5
12326.9
9670.76
7874.42
6569.73
5569.65
4755.45
4072.27
3490.01
2994.99
2571.47
2209.87
1899.55
1632.13
1399.46
1195.34
1015.99
858.759
722.087
605.154
508.859
433.372
379.619
357.969
378.109
462.687
624.352
624.56
423.603
280.634
199.129
154.566
130.296
116.237
107.675
102.159
98.4905
95.9596
94.1579
92.8382
91.8566
91.1091
90.5352
90.0876
89.7317
89.4591
89.2604
89.1214
89.0292
88.9712
88.9355
88.9161
88.9077
88.9066
88.91
88.9172
88.9683
94.9656
624.226
624.229
94.9581
88.9699
88.9185
88.9111
88.9054
88.9025
88.9001
88.8992
88.8987
88.8983
88.8981
88.8979
88.8979
88.8975
88.8988
88.8975
88.8979
88.8979
88.8982
88.8983
88.8986
88.899
88.8994
88.9003
88.9027
88.906
88.9107
88.9184
88.9696
94.9577
624.228
624.229
94.9584
88.9699
88.9187
88.9109
88.9056
88.9025
88.9003
88.8994
88.8986
88.8982
88.8978
88.8979
88.8978
88.8973
88.8978
88.8978
88.898
88.8979
88.8983
88.8982
88.8987
88.899
88.8996
88.9003
88.9026
88.9057
88.9111
88.9184
88.9694
94.9707
624.228
624.229
94.9566
88.9696
88.9184
88.9105
88.9064
88.9027
88.9004
88.8995
88.8991
88.8988
88.8985
88.8984
88.8982
88.8981
88.8982
88.8979
88.898
88.8978
88.8978
88.8973
88.8976
88.8984
88.899
88.9003
88.9025
88.9056
88.9112
88.9188
88.9699
94.9573
624.229
624.228
94.9603
88.9696
88.919
88.9113
88.9058
88.9025
88.9005
88.8996
88.899
88.8987
88.8982
88.8979
88.8978
88.8977
88.8977
88.8975
88.8978
88.8978
88.8981
88.8982
88.8986
88.8989
88.8996
88.9001
88.9024
88.9055
88.9108
88.9184
88.9695
94.9725
624.228
624.228
94.9703
88.9695
88.9186
88.9105
88.9056
88.9024
88.9004
88.8995
88.899
88.8985
88.8981
88.8979
88.8978
88.8976
88.8977
88.8977
88.8979
88.8978
88.8982
88.8982
88.8986
88.8991
88.8996
88.9002
88.9025
88.9057
88.9109
88.9186
88.9698
94.9748
624.228
624.228
94.9689
88.9692
88.9187
88.9111
88.9056
88.9028
88.9006
88.8998
88.8992
88.899
88.8984
88.8983
88.8979
88.8981
88.8978
88.8978
88.8977
88.8976
88.8974
88.8979
88.8978
88.8984
88.899
88.9003
88.9024
88.9055
88.9112
88.9191
88.9701
94.9565
624.23
624.227
94.9707
88.9696
88.9185
88.9106
88.9056
88.9025
88.9004
88.8995
88.8991
88.8987
88.8982
88.898
88.8978
88.8977
88.8978
88.8975
88.8977
88.8977
88.8981
88.8981
88.8984
88.8987
88.8993
88.9
88.9025
88.9056
88.911
88.9185
88.9695
94.9731
624.228
624.23
94.9566
88.9695
88.918
88.911
88.9061
88.9023
88.9002
88.8994
88.899
88.8985
88.8982
88.8981
88.8978
88.8978
88.8974
88.8974
88.8977
88.8977
88.8979
88.898
88.8983
88.8988
88.8993
88.9001
88.9022
88.9056
88.9105
88.9183
88.9699
94.9578
624.23
624.228
94.986
88.9693
88.9181
88.9108
88.9056
88.9024
88.9001
88.8993
88.8987
88.8985
88.8984
88.898
88.8979
88.8976
88.8971
88.8968
88.8971
88.8975
88.8978
88.8978
88.898
88.8986
88.8997
88.9016
88.9046
88.9096
88.9163
88.928
88.9813
94.7965
624.224
624.069
6487.18
34817.4
38709.1
41779.1
42860.8
44434.5
46970.5
50575.3
62525.2
74355.8
83767.8
88105.4
105402
158112
265999
321613
330267
305886
278523
261119
256503
243058
203099
171109
147421
129376
115754
104630
94872.6
85830.8
77202.9
69185.9
61829.4
55502.9
50140.8
45464.3
41358.8
37705.4
34550.3
32048.3
30422.7
29822
30622.9
33826.5
40930
55625.9
57993.8
56484.5
53962.1
44256.4
32397.9
22814.7
16775.8
13125.9
10741.8
9012.69
7655.68
6545.39
5610.42
4817.77
4135.65
3546.51
3041.36
2608.45
2234.31
1912.76
1635.58
1396.71
1190.03
1011.1
856.619
723.589
611.091
519.004
448.903
404.459
394.424
434.992
423.618
393.647
362.405
254.373
191.064
155.22
133.574
119.916
110.865
104.709
100.437
97.4431
95.3052
93.7358
92.5476
91.6359
90.9225
90.3685
89.9468
89.6324
89.3934
89.2188
89.0975
89.0161
88.9653
88.9356
88.9213
88.9156
88.9134
88.9138
88.915
88.9672
92.077
92.0766
88.9668
88.9152
88.9133
88.9117
88.9095
88.9072
88.9055
88.9052
88.9049
88.9046
88.904
88.9034
88.9034
88.9031
88.9038
88.9029
88.9032
88.9034
88.9035
88.9041
88.9048
88.9051
88.9055
88.9056
88.9075
88.91
88.9116
88.9134
88.9151
88.9671
92.0766
92.076
88.9671
88.9155
88.9132
88.9114
88.9097
88.9074
88.9057
88.9055
88.9048
88.9045
88.9035
88.9031
88.9034
88.9028
88.9031
88.903
88.9033
88.9033
88.9037
88.904
88.905
88.9052
88.9057
88.9057
88.9075
88.9098
88.9115
88.9133
88.9151
88.9675
92.0767
92.0765
88.9671
88.9151
88.9133
88.9114
88.9102
88.9075
88.9057
88.9056
88.9053
88.9049
88.9043
88.9038
88.9037
88.9034
88.9034
88.9032
88.9033
88.9034
88.9033
88.9033
88.904
88.9044
88.905
88.9056
88.9074
88.9096
88.9116
88.9134
88.9153
88.9672
92.0761
92.0771
88.9671
88.9151
88.9136
88.9118
88.9099
88.9074
88.9058
88.9056
88.9051
88.9047
88.904
88.9033
88.9034
88.903
88.903
88.9029
88.9031
88.9033
88.9036
88.9039
88.9048
88.905
88.9056
88.9057
88.9074
88.9096
88.9114
88.9132
88.9149
88.9673
92.0763
92.077
88.967
88.9151
88.9134
88.9113
88.9099
88.9074
88.9058
88.9056
88.9051
88.9047
88.9039
88.9033
88.9034
88.903
88.903
88.903
88.9032
88.9033
88.9036
88.904
88.9048
88.9051
88.9057
88.9057
88.9075
88.9097
88.9114
88.9132
88.915
88.9671
92.077
92.0764
88.9674
88.9147
88.9133
88.9116
88.9098
88.9078
88.906
88.9057
88.9053
88.9051
88.9041
88.9037
88.9034
88.9033
88.9031
88.9031
88.9032
88.9033
88.903
88.9036
88.9041
88.9044
88.9051
88.9056
88.9075
88.9098
88.9116
88.9135
88.9155
88.9672
92.076
92.0769
88.9675
88.9151
88.9134
88.9114
88.91
88.9076
88.9058
88.9056