/*--------------------------------*- C++ -*----------------------------------*\
| =========                 |                                                 |
| \\      /  F ield         | OpenFOAM: The Open Source CFD Toolbox           |
|  \\    /   O peration     | Version:  2.1.1                                 |
|   \\  /    A nd           | Web:      www.OpenFOAM.org                      |
|    \\/     M anipulation  |                                                 |
\*---------------------------------------------------------------------------*/
FoamFile
{
    version     2.0;
    format      ascii;
    class       volScalarField;
    location    "0.001050000";
    object      sL;
}
// * * * * * * * * * * * * * * * * * * * * * * * * * * * * * * * * * * * * * //

dimensions      [0 1 -1 0 0 0 0];

internalField   nonuniform List<scalar> 
12384
(
1.69375
1.88538
2.03633
2.08298
2.11914
2.08085
2.08731
2.13575
2.21591
2.23527
2.24045
2.24265
2.24595
2.22789
2.06711
1.96283
1.94324
1.95896
1.9763
2.00633
2.03601
2.07361
2.11463
2.15197
2.18305
2.20652
2.21943
2.21235
2.21401
2.207
2.2091
2.20674
2.20837
2.20917
2.211
2.212
2.20971
2.20657
2.19918
2.18055
2.17862
2.17488
2.16638
2.16961
2.1206
2.11955
2.12012
2.12025
2.11916
2.11921
2.11688
2.11357
2.11439
2.10741
2.10867
2.10458
2.10258
2.10267
2.09929
2.09975
2.09768
2.0954
2.09594
2.09217
2.0932
2.0892
2.09029
2.08705
2.08614
2.08644
2.08399
2.08498
2.08363
2.08433
2.0674
2.06636
2.06639
2.06632
2.06599
2.06597
2.06575
2.06542
2.06547
2.06495
2.06495
2.06467
2.06424
2.06417
2.06358
2.06366
2.06325
2.06344
2.06311
2.06327
2.06302
2.06314
2.0631
2.06306
2.06316
2.06315
2.06319
2.06321
2.06326
2.06427
2.06426
2.06328
2.06321
2.06316
2.06314
2.0631
2.06305
2.06299
2.06295
2.06289
2.06286
2.06278
2.06267
2.06255
2.06253
2.0625
2.06258
2.06268
2.06279
2.06286
2.06289
2.06295
2.06299
2.06304
2.06309
2.06315
2.06315
2.06321
2.06328
2.06426
2.06426
2.06328
2.06321
2.06317
2.06315
2.06308
2.06304
2.06299
2.06294
2.06287
2.06284
2.06278
2.06268
2.06259
2.06251
2.06251
2.06259
2.06269
2.06279
2.06284
2.06288
2.06294
2.06299
2.06304
2.06309
2.06314
2.06316
2.0632
2.06325
2.06426
2.06426
2.06328
2.0632
2.06314
2.06315
2.0631
2.06306
2.06299
2.06295
2.06289
2.06286
2.06279
2.06269
2.06261
2.06252
2.06251
2.06256
2.06267
2.0628
2.06286
2.06291
2.06297
2.06302
2.06306
2.06311
2.06315
2.06318
2.06321
2.06326
2.06426
2.06426
2.06328
2.06323
2.06317
2.06315
2.06308
2.06303
2.06298
2.06294
2.06289
2.06285
2.06279
2.06268
2.06259
2.0625
2.0625
2.06258
2.06269
2.06279
2.06284
2.06288
2.06294
2.06299
2.06304
2.06308
2.06313
2.06316
2.06321
2.06325
2.06426
2.06428
2.06327
2.06323
2.06317
2.06314
2.06308
2.06303
2.06298
2.06294
2.0629
2.06286
2.0628
2.06269
2.06259
2.0625
2.06251
2.06258
2.06269
2.06279
2.06284
2.06288
2.06294
2.06299
2.06304
2.06308
2.06315
2.06316
2.0632
2.06325
2.06426
2.06427
2.06328
2.06322
2.06317
2.06315
2.06308
2.06302
2.06298
2.06293
2.06288
2.06284
2.0628
2.0627
2.06261
2.06252
2.06251
2.06257
2.06268
2.0628
2.06286
2.06288
2.06294
2.06299
2.06304
2.06308
2.06316
2.06318
2.06323
2.06329
2.06426
2.06427
2.06327
2.06322
2.06315
2.06314
2.06307
2.06302
2.06297
2.06294
2.06289
2.06285
2.06279
2.06269
2.0626
2.06251
2.0625
2.06257
2.06269
2.06279
2.06284
2.06288
2.06294
2.06299
2.06304
2.06309
2.06315
2.06316
2.0632
2.06325
2.06426
2.06426
2.06327
2.06321
2.06317
2.06316
2.06311
2.06305
2.063
2.06294
2.06289
2.06284
2.06279
2.06269
2.06259
2.0625
2.06251
2.06258
2.06268
2.06279
2.06285
2.06289
2.06294
2.063
2.06305
2.06309
2.06315
2.06316
2.06321
2.06328
2.06427
2.06427
2.06327
2.06323
2.06316
2.06313
2.06306
2.06303
2.06298
2.06294
2.06289
2.06286
2.0628
2.06271
2.06262
2.06254
2.06251
2.0626
2.0627
2.06277
2.06282
2.06287
2.06294
2.063
2.06304
2.0631
2.06315
2.06316
2.0632
2.06325
2.06427
0.563322
0.760144
0.93054
0.917952
1.06983
0.870799
0.839178
0.993769
1.15757
1.50849
1.83323
1.94178
2.03454
2.06153
0.603751
0.458089
0.448031
0.469836
0.47688
0.500365
0.528491
0.581494
0.642925
0.738814
0.833097
0.981133
1.11294
1.27394
1.3956
1.53378
1.63806
1.73996
1.81834
1.90696
1.94677
2.01506
2.05755
2.08418
2.1125
2.12197
2.12156
2.12275
2.12231
2.13597
1.38513
1.36861
1.40505
1.44221
1.50202
1.5562
1.62481
1.68024
1.73395
1.78362
1.81291
1.85511
1.86838
1.90375
1.90335
1.93662
1.93163
1.95924
1.9562
1.9716
1.97402
1.98086
1.98618
1.99147
1.99405
2.00219
1.99848
2.00488
2.00245
2.04924
2.0071
1.95885
1.95846
1.95845
1.95933
1.96012
1.95854
1.95871
1.95616
1.95612
1.95336
1.9533
1.94901
1.94602
1.94147
1.94263
1.94426
1.94856
1.94923
1.95147
1.95128
1.95415
1.95474
1.95802
1.95934
1.96222
1.96371
1.9655
1.96849
2.02852
2.02949
1.96798
1.96645
1.96362
1.96247
1.96116
1.95779
1.95636
1.95307
1.95196
1.94902
1.94795
1.94315
1.93893
1.9371
1.93623
1.94012
1.94366
1.94795
1.94875
1.95164
1.95265
1.95594
1.95735
1.96081
1.96237
1.96342
1.96625
1.96793
2.02946
2.02942
1.96825
1.96656
1.96362
1.96282
1.9597
1.95854
1.95525
1.95429
1.95092
1.95
1.94675
1.94336
1.93952
1.93605
1.93715
1.93951
1.94457
1.94669
1.94972
1.95023
1.9535
1.95442
1.95779
1.95925
1.96218
1.96364
1.96535
1.96845
2.02857
2.02946
1.96793
1.96618
1.96333
1.96227
1.96062
1.95716
1.95578
1.95244
1.95142
1.94849
1.94777
1.94363
1.94075
1.93688
1.93677
1.9381
1.9435
1.94671
1.95033
1.95185
1.95539
1.95632
1.95944
1.96059
1.96356
1.96429
1.96678
1.96853
2.02933
2.02944
1.96802
1.9656
1.96384
1.96106
1.96
1.95646
1.9554
1.95221
1.95151
1.94872
1.94792
1.94343
1.94013
1.9361
1.93679
1.93901
1.94428
1.94661
1.94971
1.95019
1.95345
1.95435
1.95773
1.95915
1.9621
1.96352
1.9653
1.96843
2.02856
2.02882
1.96908
1.96564
1.96438
1.96141
1.96033
1.95692
1.95591
1.95276
1.95198
1.94914
1.94828
1.94371
1.94011
1.9361
1.93687
1.93905
1.94418
1.94653
1.94966
1.95017
1.95344
1.95437
1.95778
1.95921
1.96214
1.96359
1.96535
1.96848
2.02853
2.02858
1.96843
1.96588
1.96316
1.962
1.95887
1.9576
1.95429
1.95353
1.95043
1.95004
1.94708
1.94517
1.94016
1.93776
1.93583
1.93885
1.94268
1.94813
1.95026
1.95172
1.95458
1.95584
1.95906
1.96026
1.96331
1.96403
1.9669
1.96834
2.0295
2.02844
1.96871
1.96528
1.96396
1.96103
1.96
1.95662
1.95559
1.95245
1.95178
1.94903
1.94828
1.94393
1.9405
1.93631
1.93668
1.93872
1.94391
1.94646
1.94965
1.95024
1.95355
1.95451
1.95789
1.95936
1.96227
1.96377
1.9654
1.96849
2.02856
2.02945
1.96781
1.96593
1.96407
1.96173
1.96044
1.95691
1.95561
1.95225
1.95133
1.94841
1.94757
1.94309
1.94001
1.9361
1.93616
1.93974
1.94324
1.94779
1.94866
1.9515
1.95237
1.95565
1.95682
1.96031
1.96138
1.96387
1.96565
1.96779
2.0294
2.02855
1.96861
1.96505
1.96376
1.96051
1.95959
1.95603
1.95519
1.95193
1.95153
1.9487
1.94829
1.94422
1.9412
1.93676
1.93652
1.93847
1.94368
1.94636
1.94937
1.94998
1.9533
1.95424
1.95774
1.95915
1.96212
1.96382
1.9654
1.9685
2.0285
0.273787
0.303349
0.217645
0.182467
0.200183
0.221709
0.218618
0.231316
0.212009
0.254006
0.298173
0.454711
0.651335
0.805038
0.160321
0.226464
0.258854
0.259412
0.248014
0.21771
0.195016
0.175056
0.164136
0.153782
0.148998
0.138016
0.138738
0.129469
0.134708
0.126384
0.132768
0.128336
0.134337
0.13653
0.143685
0.156202
0.171744
0.197093
0.2294
0.279797
0.339001
0.383647
0.429624
0.451099
0.118394
0.125682
0.127281
0.128603
0.128052
0.12837
0.129003
0.130442
0.130261
0.132067
0.131791
0.13279
0.132926
0.133823
0.133977
0.135011
0.133738
0.135584
0.132571
0.136518
0.132254
0.136461
0.132618
0.135706
0.133603
0.136162
0.134654
0.138065
0.136361
0.120097
0.112506
0.131913
0.133488
0.133933
0.13478
0.135377
0.136536
0.137316
0.138458
0.139291
0.140128
0.140983
0.142293
0.144235
0.145611
0.1458
0.144672
0.143565
0.142771
0.142513
0.142185
0.141625
0.141076
0.140334
0.139563
0.138871
0.13827
0.137644
0.136667
0.112509
0.112507
0.136586
0.13751
0.138266
0.138794
0.139174
0.140154
0.140892
0.141698
0.142365
0.143007
0.143701
0.145217
0.147115
0.147584
0.14794
0.146681
0.144975
0.143686
0.14308
0.142469
0.141821
0.141031
0.140294
0.139326
0.138748
0.138364
0.137579
0.136619
0.112508
0.112496
0.136395
0.137501
0.13827
0.138755
0.13947
0.140154
0.140943
0.141578
0.142399
0.142984
0.143786
0.145355
0.146809
0.147964
0.147834
0.146585
0.144942
0.14378
0.143071
0.142602
0.141828
0.141211
0.140398
0.139614
0.13889
0.138303
0.137681
0.136663
0.112508
0.112507
0.136631
0.137603
0.138423
0.138706
0.139402
0.140351
0.141084
0.141891
0.142548
0.143168
0.143732
0.14494
0.146392
0.147604
0.147959
0.14716
0.145392
0.143881
0.142926
0.142145
0.141193
0.140576
0.139839
0.139164
0.138487
0.138046
0.137366
0.136266
0.112497
0.112526
0.136645
0.137577
0.138392
0.139088
0.139688
0.140573
0.141223
0.14193
0.142494
0.143058
0.143686
0.145057
0.146676
0.147955
0.147971
0.146786
0.145061
0.143797
0.143065
0.142601
0.141843
0.141225
0.140413
0.139636
0.138926
0.138333
0.1377
0.136664
0.112508
0.11251
0.136367
0.137517
0.138279
0.138914
0.139557
0.140361
0.141023
0.141719
0.142325
0.142915
0.143563
0.144969
0.146694
0.147957
0.147939
0.146769
0.145096
0.143832
0.143085
0.142611
0.141848
0.141223
0.140398
0.139614
0.138905
0.138313
0.137681
0.136662
0.112508
0.112497
0.136576
0.137617
0.138429
0.138994
0.139726
0.140475
0.14123
0.141815
0.142498
0.142945
0.143626
0.144709
0.146323
0.147581
0.148064
0.147209
0.145458
0.1436
0.142691
0.142218
0.141434
0.140773
0.139986
0.139298
0.138591
0.138121
0.137375
0.136356
0.112499
0.112515
0.136577
0.137657
0.138417
0.139032
0.139661
0.140452
0.141132
0.141817
0.142383
0.142941
0.143549
0.144865
0.146531
0.147873
0.148013
0.146907
0.145206
0.143866
0.143097
0.142597
0.14181
0.141182
0.140361
0.139578
0.13885
0.138247
0.137659
0.136648
0.112507
0.112511
0.136712
0.137633
0.138159
0.138859
0.139506
0.14043
0.141152
0.141943
0.142571
0.143174
0.143813
0.14515
0.146681
0.148021
0.147989
0.146777
0.145111
0.143729
0.143082
0.1425
0.141887
0.141127
0.140435
0.139554
0.138965
0.138324
0.137703
0.136702
0.112514
0.11252
0.136595
0.137712
0.138497
0.139186
0.139819
0.140619
0.141286
0.141968
0.14249
0.143027
0.143562
0.14471
0.146269
0.14768
0.148102
0.147018
0.145275
0.143887
0.143205
0.142672
0.141915
0.141267
0.140421
0.139647
0.138879
0.138235
0.137664
0.136685
0.112509
0.680959
0.732795
0.405591
0.266292
0.194513
0.241355
0.310521
0.333393
0.290591
0.219118
0.186372
0.147635
0.19333
0.263809
0.397445
0.875789
1.1445
1.31733
1.2647
1.08738
0.823447
0.624635
0.488477
0.400429
0.33564
0.294842
0.256107
0.239439
0.21228
0.208061
0.187541
0.187255
0.172466
0.171327
0.163414
0.160831
0.157642
0.157312
0.153708
0.154673
0.152424
0.153345
0.152798
0.148032
0.20385
0.208566
0.202545
0.194923
0.188948
0.18292
0.176828
0.171763
0.166937
0.164091
0.160621
0.158513
0.156957
0.154685
0.154475
0.152396
0.152568
0.151104
0.150889
0.150344
0.149655
0.149698
0.148587
0.148979
0.147967
0.147981
0.147846
0.14728
0.147441
0.143183
0.144292
0.148047
0.147834
0.147901
0.147533
0.147558
0.147311
0.14736
0.147118
0.147302
0.147006
0.147253
0.147014
0.147215
0.147069
0.147211
0.147097
0.147207
0.147127
0.147221
0.147158
0.147252
0.147193
0.147264
0.147201
0.147243
0.147203
0.147165
0.146964
0.142336
0.142307
0.146972
0.147229
0.147176
0.147235
0.147244
0.147192
0.147272
0.147201
0.147287
0.147216
0.147301
0.147234
0.147319
0.147297
0.147266
0.147322
0.147229
0.147299
0.147212
0.147285
0.147199
0.147271
0.147189
0.147248
0.14722
0.14718
0.147229
0.14697
0.142307
0.142314
0.146985
0.147225
0.147171
0.14725
0.147183
0.14726
0.147193
0.147276
0.14721
0.147297
0.147232
0.147289
0.147314
0.147264
0.147338
0.147246
0.147309
0.147219
0.147292
0.147204
0.147277
0.147194
0.147263
0.147186
0.147242
0.147196
0.147157
0.146968
0.142332
0.142306
0.146969
0.147229
0.147183
0.147209
0.147249
0.147186
0.147269
0.147198
0.147285
0.147211
0.147299
0.147229
0.147319
0.147256
0.147336
0.147252
0.147312
0.147225
0.147293
0.147215
0.147275
0.147197
0.147257
0.147183
0.147247
0.147169
0.147217
0.146991
0.142311
0.142306
0.146994
0.147187
0.147226
0.147179
0.147258
0.147186
0.14727
0.147197
0.147286
0.147214
0.147301
0.147231
0.147323
0.147263
0.147338
0.147248
0.147309
0.14722
0.147293
0.147205
0.147278
0.147195
0.147263
0.147186
0.147243
0.14719
0.147157
0.146968
0.142333
0.142324
0.14699
0.147151
0.147236
0.147181
0.147256
0.147189
0.14727
0.147201
0.147285
0.147215
0.1473
0.147232
0.147323
0.147263
0.147337
0.147248
0.147309
0.14722
0.147293
0.147205
0.147278
0.147194
0.147263
0.147186
0.147243
0.147193
0.147158
0.146965
0.142335
0.142339
0.146973
0.147203
0.147167
0.147251
0.147184
0.147261
0.147192
0.147276
0.147205
0.147292
0.14722
0.147308
0.147244
0.147333
0.147263
0.147325
0.147234
0.147297
0.147233
0.147221
0.147274
0.147196
0.147258
0.147181
0.147247
0.147166
0.147223
0.14699
0.14231
0.142341
0.146973
0.14715
0.147238
0.147182
0.147259
0.147191
0.147271
0.147201
0.147286
0.147215
0.1473
0.147231
0.147321
0.147262
0.147338
0.147249
0.14731
0.14722
0.147292
0.147206
0.147278
0.147195
0.147263
0.147187
0.147241
0.147199
0.147157
0.146969
0.142332
0.142307
0.146972
0.147227
0.14721
0.147182
0.147256
0.147186
0.147269
0.147197
0.147284
0.147212
0.147298
0.14723
0.147319
0.147269
0.147273
0.147319
0.147231
0.147298
0.147214
0.147285
0.147199
0.147271
0.147189
0.14726
0.147184
0.147225
0.147222
0.14698
0.142311
0.142338
0.146983
0.147151
0.147238
0.147176
0.147258
0.147186
0.147271
0.147195
0.147287
0.147208
0.147301
0.147226
0.147322
0.147258
0.147338
0.147254
0.147314
0.147227
0.147301
0.147217
0.147291
0.147206
0.147277
0.147197
0.147251
0.14721
0.147165
0.146965
0.142335
5.32065
5.39274
4.35795
1.20097
0.650551
0.495987
0.47946
0.476068
0.539237
0.476611
0.362692
0.257897
0.192999
0.171741
0.871619
1.90391
2.26821
2.48618
2.58261
2.54023
2.20265
1.71036
1.27273
0.975834
0.78651
0.664536
0.566886
0.510704
0.45984
0.420385
0.396413
0.370148
0.351289
0.341746
0.322864
0.311949
0.300206
0.281899
0.270637
0.250073
0.23494
0.221953
0.206519
0.198873
0.439333
0.467954
0.439964
0.414449
0.391477
0.373568
0.356514
0.344408
0.333391
0.325399
0.317843
0.312924
0.307798
0.304525
0.300823
0.299383
0.296257
0.295218
0.29319
0.292302
0.29044
0.290379
0.287719
0.288744
0.285447
0.286396
0.283777
0.283475
0.281857
0.281478
0.286121
0.285671
0.285431
0.284579
0.284442
0.283532
0.283601
0.282857
0.283054
0.282322
0.282733
0.28192
0.282484
0.281753
0.2822
0.281657
0.28196
0.281536
0.281793
0.281434
0.281703
0.281402
0.281673
0.281429
0.281678
0.281479
0.281607
0.281646
0.28145
0.281158
0.280946
0.281514
0.281389
0.28161
0.281459
0.281415
0.281606
0.281383
0.281629
0.281359
0.281635
0.281368
0.281639
0.281455
0.281511
0.281643
0.281401
0.281643
0.281358
0.281636
0.281355
0.281633
0.281381
0.281618
0.281417
0.281478
0.281614
0.281411
0.281521
0.280953
0.280982
0.281517
0.281389
0.281633
0.281383
0.281631
0.281377
0.281641
0.281368
0.281638
0.281385
0.281627
0.281463
0.281454
0.28164
0.281398
0.281646
0.281383
0.281633
0.281358
0.28164
0.281368
0.281655
0.281408
0.281658
0.281473
0.281577
0.281646
0.281436
0.281157
0.280959
0.281524
0.281421
0.281615
0.281516
0.28142
0.281622
0.281378
0.281632
0.281348
0.281635
0.281347
0.28164
0.281389
0.281644
0.281409
0.281651
0.281405
0.281647
0.28141
0.281657
0.281407
0.281646
0.281394
0.281636
0.281396
0.281627
0.281416
0.281528
0.280984
0.280985
0.281491
0.281518
0.281429
0.281623
0.281376
0.281638
0.281359
0.281636
0.281346
0.281645
0.281366
0.281655
0.281414
0.281661
0.281423
0.281661
0.281392
0.281646
0.281365
0.281644
0.281372
0.281659
0.281409
0.281665
0.281467
0.281612
0.281651
0.281444
0.281163
0.281137
0.281421
0.281665
0.281433
0.281674
0.281399
0.281653
0.281377
0.281646
0.281359
0.281652
0.281381
0.28166
0.281418
0.281663
0.281422
0.281659
0.281392
0.281646
0.281364
0.281643
0.281372
0.281656
0.281407
0.281664
0.281472
0.281606
0.281657
0.281439
0.281163
0.281125
0.281478
0.281532
0.281642
0.281415
0.281654
0.281383
0.281654
0.281361
0.281642
0.281363
0.281645
0.281387
0.281652
0.28141
0.281652
0.281425
0.281653
0.281451
0.281584
0.281602
0.281422
0.281647
0.281386
0.28163
0.281384
0.281631
0.281373
0.281523
0.280971
0.281164
0.281422
0.281681
0.281432
0.281675
0.281398
0.281659
0.281374
0.281648
0.281356
0.281651
0.281377
0.281659
0.281418
0.281664
0.281424
0.281662
0.281399
0.281647
0.28137
0.281646
0.281379
0.281657
0.281411
0.28166
0.281475
0.281575
0.281647
0.281437
0.281157
0.280954
0.281511
0.281459
0.281531
0.281578
0.281399
0.281643
0.281377
0.281642
0.281356
0.281651
0.281373
0.281662
0.281428
0.281652
0.281633
0.281448
0.281669
0.281381
0.281653
0.281356
0.281639
0.281366
0.281636
0.28138
0.281602
0.281478
0.281464
0.2815
0.280954
0.28116
0.281421
0.281686
0.281422
0.281686
0.281388
0.281677
0.281366
0.281661
0.281339
0.281662
0.281353
0.281679
0.281409
0.281682
0.281442
0.281689
0.281431
0.281676
0.28138
0.281662
0.281383
0.281671
0.281418
0.281666
0.281469
0.281574
0.281644
0.281424
0.281152
6.04008
5.99163
5.94595
5.05777
3.02208
1.16187
1.01713
0.886671
0.685927
0.68767
0.728226
0.515835
0.332917
0.220577
1.45511
2.36268
2.49324
2.62671
2.79371
2.90514
2.94197
2.82667
2.46265
1.96966
1.5829
1.33989
1.15561
1.02833
0.918206
0.840131
0.771832
0.722807
0.671253
0.638799
0.596
0.572674
0.536632
0.509889
0.479355
0.446403
0.416809
0.379538
0.345498
0.317684
0.925752
1.02435
0.949103
0.862091
0.790608
0.734974
0.691284
0.65665
0.62668
0.607189
0.584915
0.575021
0.555537
0.553239
0.536221
0.536601
0.525107
0.523723
0.516492
0.5148
0.509151
0.5074
0.503287
0.500205
0.497677
0.494097
0.491641
0.488795
0.485271
0.476207
0.494542
0.501007
0.49787
0.496549
0.4939
0.492942
0.491157
0.490454
0.48949
0.489018
0.488291
0.488228
0.487467
0.487708
0.487088
0.487155
0.486879
0.486768
0.486644
0.486567
0.48654
0.486508
0.486521
0.48657
0.486574
0.486651
0.486636
0.48667
0.486178
0.476572
0.476673
0.486077
0.486583
0.486574
0.486556
0.486542
0.486532
0.486555
0.486543
0.486561
0.486567
0.486569
0.486608
0.486661
0.486553
0.486635
0.486614
0.486607
0.48656
0.486567
0.486548
0.486538
0.486549
0.486541
0.486547
0.486534
0.486586
0.486587
0.486092
0.476678
0.476614
0.486063
0.486553
0.486578
0.486561
0.486526
0.486537
0.486542
0.486546
0.486569
0.486578
0.486594
0.486591
0.486653
0.486626
0.486614
0.486617
0.486593
0.486566
0.486552
0.486556
0.486542
0.486547
0.486568
0.486559
0.486609
0.486621
0.486604
0.486187
0.476552
0.47668
0.486097
0.486601
0.486597
0.486525
0.486547
0.486537
0.486546
0.486536
0.486541
0.486556
0.486543
0.486589
0.486593
0.486602
0.486608
0.486615
0.486603
0.486592
0.486607
0.48662
0.486571
0.486559
0.486553
0.486537
0.486566
0.486569
0.486556
0.486088
0.476589
0.476672
0.48612
0.486554
0.486553
0.486544
0.486542
0.486535
0.48653
0.486535
0.48654
0.486571
0.486578
0.486622
0.486638
0.486644
0.486646
0.486638
0.486606
0.486584
0.486564
0.486566
0.486543
0.486548
0.486568
0.486565
0.48661
0.486625
0.486616
0.486192
0.476554
0.476614
0.48616
0.486588
0.486621
0.486586
0.486557
0.486543
0.486539
0.486542
0.486551
0.486582
0.486583
0.486625
0.48664
0.486645
0.486639
0.486632
0.486604
0.486583
0.486558
0.486565
0.486543
0.486547
0.486567
0.486564
0.48661
0.486633
0.486617
0.486189
0.476552
0.476578
0.486179
0.48662
0.486592
0.486589
0.486559
0.486546
0.486542
0.486532
0.486554
0.486557
0.486577
0.486597
0.486613
0.486618
0.486624
0.48663
0.486633
0.486625
0.486584
0.486594
0.48657
0.486564
0.486545
0.486526
0.486558
0.486572
0.486539
0.486058
0.476671
0.476546
0.486185
0.486618
0.486628
0.486594
0.486559
0.48655
0.486539
0.486545
0.486547
0.486575
0.486583
0.486625
0.48664
0.486643
0.486641
0.486633
0.486607
0.486585
0.486566
0.486568
0.486555
0.486559
0.486573
0.486561
0.486608
0.486626
0.486605
0.48619
0.476554
0.476676
0.486105
0.486621
0.486587
0.486509
0.486552
0.486542
0.486543
0.486544
0.486554
0.486582
0.486577
0.486624
0.486643
0.486649
0.486656
0.48666
0.486634
0.486585
0.486588
0.486552
0.486549
0.486543
0.486544
0.486559
0.486541
0.486608
0.48661
0.486104
0.476674
0.476555
0.486181
0.486619
0.486626
0.486597
0.486562
0.486556
0.48655
0.486551
0.486556
0.486583
0.486595
0.486654
0.486677
0.486713
0.486709
0.486712
0.486686
0.48666
0.486634
0.486615
0.486603
0.486592
0.486609
0.486585
0.486586
0.486615
0.486591
0.486138
0.476523
5.88133
5.82758
5.78201
5.35175
4.09774
2.84504
1.43574
1.31959
1.22341
1.11082
0.946425
0.949338
0.651349
0.352726
1.96069
1.97451
1.89302
2.03589
2.48697
2.8396
2.9773
2.98224
2.97349
2.8133
2.49408
2.19749
1.97686
1.80421
1.65332
1.55036
1.426
1.37626
1.27595
1.25275
1.16778
1.14318
1.07917
1.03136
0.96963
0.904396
0.829981
0.740364
0.646612
0.549395
1.72536
1.89043
1.80378
1.63744
1.4875
1.38192
1.2998
1.24727
1.20096
1.16807
1.14273
1.11993
1.10187
1.08754
1.07408
1.06615
1.05379
1.05144
1.04015
1.03908
1.02993
1.02788
1.02228
1.01634
1.01483
1.00695
1.00401
0.995277
0.988011
0.981366
1.02809
1.0156
1.01227
1.00652
1.00467
1.00074
0.999965
0.997209
0.996853
0.99499
0.994907
0.993249
0.993593
0.992054
0.992539
0.991312
0.991532
0.990814
0.99078
0.990416
0.990315
0.990098
0.990012
0.989923
0.989929
0.989977
0.990048
0.990023
0.990084
0.994411
0.994454
0.989949
0.989899
0.989962
0.989887
0.989821
0.989821
0.989754
0.989818
0.989744
0.98981
0.989718
0.989756
0.989756
0.989699
0.989752
0.989721
0.989773
0.989705
0.989808
0.989726
0.989817
0.989739
0.989834
0.989821
0.989854
0.989966
0.98991
0.989952
0.994454
0.994442
0.990019
0.989919
0.989992
0.989851
0.989886
0.989775
0.989841
0.989742
0.989841
0.989753
0.989753
0.989748
0.989774
0.989727
0.989715
0.989747
0.989712
0.989778
0.989722
0.989828
0.989735
0.989837
0.989789
0.989888
0.989903
0.98998
0.989975
0.990047
0.994388
0.994458
0.989954
0.989923
0.989964
0.989848
0.989823
0.989843
0.989738
0.989813
0.98972
0.989803
0.98969
0.989762
0.989708
0.989735
0.989734
0.989756
0.989733
0.989793
0.98977
0.989863
0.989772
0.989852
0.989786
0.989901
0.989876
0.989981
0.989907
0.990046
0.994423
0.994462
0.989941
0.989907
0.989926
0.98992
0.989796
0.989852
0.989723
0.989832
0.989719
0.989811
0.989717
0.989784
0.989729
0.989758
0.989748
0.989764
0.98972
0.989784
0.989724
0.98983
0.989733
0.989837
0.989785
0.989892
0.989913
0.989992
0.989983
0.990049
0.994391
0.994425
0.990043
0.990017
0.989955
0.989961
0.989811
0.989867
0.989737
0.989828
0.989731
0.989816
0.989722
0.989783
0.989732
0.989762
0.989745
0.989754
0.989719
0.989783
0.98972
0.989828
0.989732
0.989835
0.989784
0.98989
0.989903
0.989985
0.989985
0.990047
0.994388
0.994395
0.990078
0.989976
0.98999
0.989882
0.989901
0.989769
0.989838
0.989725
0.989821
0.989713
0.989782
0.989717
0.989753
0.989737
0.989755
0.989746
0.989776
0.989791
0.98976
0.989801
0.989789
0.989855
0.989778
0.98989
0.989863
0.989988
0.989886
0.989972
0.994456
0.994381
0.990017
0.990027
0.989952
0.989967
0.989804
0.989865
0.989726
0.989829
0.989726
0.989816
0.989721
0.989785
0.989732
0.989761
0.98975
0.989756
0.989727
0.989785
0.989728
0.989837
0.98975
0.989843
0.989795
0.989892
0.989908
0.989987
0.989979
0.990053
0.994392
0.994461
0.989955
0.989963
0.989902
0.989877
0.989819
0.989865
0.989742
0.989833
0.989739
0.989824
0.98971
0.989799
0.989744
0.989761
0.989739
0.989751
0.989788
0.989713
0.989825
0.989738
0.98984
0.989742
0.989859
0.989817
0.989902
0.989953
0.989969
0.989946
0.994474
0.994406
0.990039
0.990056
0.989954
0.990014
0.98981
0.989921
0.98973
0.989877
0.98971
0.989849
0.989701
0.989802
0.989719
0.989781
0.989731
0.989743
0.989683
0.989758
0.98969
0.989803
0.989689
0.9898
0.98972
0.989844
0.989818
0.989907
0.989885
0.989962
0.994353
5.83991
5.76711
5.6149
4.85718
3.5613
3.23563
2.65713
1.60981
1.52318
1.52882
1.28529
0.969562
0.914597
0.517713
1.50935
1.18972
1.02685
1.11845
1.60428
2.57621
2.96164
2.9521
2.94318
2.98583
2.94548
2.81494
2.68965
2.55363
2.42801
2.31173
2.19188
2.10283
1.99897
1.92402
1.84212
1.7678
1.69594
1.61994
1.54603
1.45472
1.34792
1.21086
1.01467
0.834281
2.26903
2.49906
2.53085
2.42026
2.24272
2.10381
1.99984
1.91863
1.86048
1.8071
1.76942
1.73657
1.70332
1.68829
1.65605
1.65209
1.62391
1.62426
1.60118
1.60135
1.58418
1.58079
1.57074
1.56057
1.55747
1.54146
1.53806
1.52149
1.51043
1.49426
1.5927
1.57696
1.5593
1.55118
1.54284
1.5383
1.53345
1.53139
1.52818
1.52699
1.52542
1.52392
1.52346
1.52236
1.52179
1.5213
1.52084
1.52035
1.52025
1.51982
1.51976
1.51948
1.51953
1.51935
1.51938
1.5193
1.51909
1.51869
1.51836
1.5221
1.52217
1.51821
1.51861
1.51897
1.51924
1.51933
1.51942
1.51943
1.51944
1.51946
1.51947
1.51947
1.51943
1.51947
1.51937
1.51944
1.51944
1.51943
1.51945
1.51945
1.51944
1.51941
1.51941
1.51941
1.51931
1.51917
1.519
1.51862
1.51822
1.52217
1.52209
1.5182
1.51863
1.51899
1.51921
1.5193
1.51942
1.5194
1.51944
1.51946
1.51949
1.51943
1.51947
1.51948
1.51941
1.51943
1.51941
1.51944
1.51942
1.51945
1.51942
1.51941
1.51939
1.51942
1.5193
1.51921
1.51898
1.5186
1.51827
1.52206
1.52217
1.51821
1.51862
1.51901
1.51912
1.51931
1.5194
1.5194
1.5194
1.51942
1.51943
1.51943
1.5194
1.51942
1.51938
1.51944
1.51941
1.51945
1.51947
1.51953
1.51951
1.51946
1.51944
1.51942
1.5193
1.51922
1.51895
1.51859
1.51821
1.52206
1.52217
1.51823
1.51854
1.519
1.51918
1.51933
1.51939
1.5194
1.5194
1.51944
1.51945
1.51948
1.51945
1.51946
1.51943
1.51947
1.51943
1.51946
1.51944
1.51946
1.51943
1.51942
1.51939
1.51943
1.51932
1.51924
1.51902
1.51862
1.51827
1.52208
1.52214
1.51828
1.51859
1.51904
1.51919
1.51933
1.51938
1.5194
1.5194
1.51944
1.51946
1.51948
1.51944
1.51946
1.51943
1.51946
1.51943
1.51945
1.51944
1.51946
1.51943
1.51942
1.51939
1.51942
1.51931
1.51923
1.519
1.51861
1.51827
1.52208
1.52204
1.51832
1.5186
1.51897
1.51922
1.51927
1.51939
1.51936
1.5194
1.51939
1.51944
1.51942
1.51943
1.5194
1.51944
1.51942
1.51945
1.51946
1.51951
1.51948
1.51947
1.51948
1.51942
1.51943
1.51931
1.51922
1.51897
1.51858
1.51818
1.52214
1.52205
1.51827
1.51861
1.51904
1.51918
1.51932
1.51938
1.5194
1.51939
1.51944
1.51945
1.51947
1.51945
1.51946
1.51943
1.51947
1.51943
1.51946
1.51944
1.51947
1.51945
1.51943
1.51941
1.51944
1.51932
1.51924
1.51899
1.51862
1.51829
1.52208
1.52217
1.51822
1.51866
1.51896
1.51915
1.51933
1.51941
1.51941
1.51942
1.51945
1.51945
1.51946
1.51945
1.51946
1.51944
1.51944
1.51946
1.51946
1.51947
1.51947
1.51947
1.51943
1.51944
1.51943
1.51936
1.51921
1.51906
1.51866
1.5182
1.52217
1.52216
1.51829
1.51863
1.51904
1.5192
1.51936
1.51941
1.51945
1.51943
1.51948
1.51945
1.51951
1.51948
1.51951
1.51949
1.51951
1.51946
1.51947
1.51947
1.5195
1.51948
1.51947
1.51944
1.51939
1.51927
1.51907
1.51872
1.51801
1.51711
1.52068
5.73447
5.51293
4.93724
3.96545
3.39896
3.29313
3.29985
1.82468
1.78109
1.77065
1.66777
1.39694
1.07608
0.565716
0.762817
0.777168
0.820532
1.00469
1.19659
1.49044
1.65966
2.14912
2.99902
2.94638
2.85565
2.89334
2.96575
2.99239
2.97806
2.94842
2.90755
2.86514
2.80847
2.74959
2.70067
2.66545
2.59914
2.5667
2.49393
2.4313
2.36697
2.26141
2.14865
1.97517
1.74224
1.40211
1.59054
1.96195
2.42483
2.7239
2.80111
2.78239
2.72424
2.6565
2.61607
2.57657
2.5415
2.51669
2.48735
2.47239
2.44798
2.43933
2.41861
2.41098
2.39845
2.38839
2.3814
2.37351
2.36589
2.36099
2.3535
2.34863
2.34149
2.33508
2.32561
2.31468
2.29782
2.28803
2.33379
2.34078
2.36449
2.3448
2.33571
2.3255
2.32215
2.317
2.315
2.31131
2.31073
2.30777
2.30753
2.3056
2.30533
2.30417
2.30356
2.30307
2.30235
2.30212
2.30127
2.30125
2.30046
2.30046
2.29996
2.29983
2.2996
2.29931
2.29926
2.29915
2.29995
2.31445
2.32684
2.32681
2.31452
2.29982
2.29915
2.29907
2.2992
2.29931
2.29935
2.29939
2.29937
2.29938
2.29937
2.29941
2.29937
2.2994
2.29936
2.29936
2.29939
2.29937
2.2994
2.29936
2.29937
2.29936
2.29938
2.29934
2.2993
2.29918
2.29906
2.29914
2.2998
2.31448
2.3268
2.3268
2.31446
2.29982
2.29912
2.29908
2.29919
2.29927
2.29936
2.29936
2.29939
2.29936
2.2994
2.29938
2.2994
2.29942
2.29935
2.29939
2.29937
2.2994
2.29936
2.29938
2.29934
2.29937
2.29935
2.29937
2.29926
2.2992
2.29907
2.29908
2.29985
2.31442
2.3268
2.3268
2.31448
2.29981
2.29913
2.29907
2.29915
2.2993
2.29934
2.29937
2.29935
2.29936
2.29935
2.29939
2.29937
2.29939
2.29935
2.29938
2.29937
2.2994
2.29938
2.2994
2.29938
2.29941
2.29938
2.29937
2.29926
2.2992
2.29908
2.29911
2.29982
2.31446
2.3268
2.3268
2.31446
2.29981
2.29908
2.29909
2.29915
2.29928
2.29933
2.29938
2.29935
2.29936
2.29935
2.29939
2.29937
2.29939
2.29935
2.29938
2.29937
2.29939
2.29937
2.29938
2.29934
2.29937
2.29935
2.29936
2.29926
2.2992
2.29908
2.29909
2.29985
2.31444
2.32681
2.3268
2.31445
2.29986
2.29909
2.29911
2.29914
2.29929
2.29933
2.29937
2.29935
2.29937
2.29935
2.29939
2.29936
2.29939
2.29935
2.29938
2.29937
2.29939
2.29937
2.29938
2.29934
2.29937
2.29935
2.29936
2.29925
2.2992
2.29908
2.29909
2.29985
2.31444
2.3268
2.3268
2.31442
2.29986
2.29911
2.29907
2.29918
2.29923
2.29935
2.29934
2.29937
2.29932
2.29937
2.29936
2.29939
2.29937
2.29938
2.29935
2.2994
2.29937
2.29944
2.29936
2.29938
2.2994
2.2994
2.29937
2.29929
2.29919
2.29908
2.29912
2.29981
2.31447
2.3268
2.3268
2.31442
2.29985
2.29908
2.2991
2.29913
2.29927
2.29933
2.29937
2.29935
2.29936
2.29935
2.29939
2.29937
2.29939
2.29935
2.29939
2.29937
2.29939
2.29937
2.29938
2.29935
2.29938
2.29936
2.29937
2.29927
2.29922
2.29909
2.29909
2.29987
2.31443
2.3268
2.3268
2.31448
2.29979
2.29914
2.29907
2.29916
2.29929
2.29934
2.29937
2.29935
2.29936
2.29935
2.29939
2.29936
2.29939
2.29936
2.29936
2.29939
2.29937
2.2994
2.29936
2.29937
2.29936
2.29938
2.29934
2.2993
2.29917
2.29912
2.29916
2.29984
2.31452
2.3268
2.3268
2.31446
2.2999
2.29912
2.29911
2.29915
2.29929
2.29936
2.29938
2.29933
2.29934
2.29931
2.29934
2.29932
2.29935
2.29932
2.29936
2.29936
2.2994
2.29938
2.29939
2.29936
2.29937
2.29935
2.29932
2.29924
2.29922
2.29912
2.29913
2.29982
2.3143
2.32617
2.31515
5.03985
4.72875
3.89306
3.43965
3.2765
3.43704
3.5304
3.41878
1.97513
1.92195
1.84979
1.88299
1.95919
1.1881
1.10343
1.16882
1.37541
1.60667
1.77768
1.97806
2.17312
2.20198
2.93977
2.92548
2.78659
2.763
2.83443
2.90599
2.95364
2.98
2.99404
2.99338
2.99049
2.95717
2.95288
2.92335
2.89734
2.88694
2.84779
2.8245
2.79666
2.74976
2.71214
2.64856
2.57425
2.34472
2.36322
2.53953
2.75832
2.84381
2.84556
2.83915
2.83603
2.83161
2.81682
2.81062
2.79693
2.78658
2.77664
2.76561
2.75839
2.75005
2.73679
2.73678
2.72226
2.72005
2.71371
2.70643
2.70452
2.69815
2.69518