/*--------------------------------*- C++ -*----------------------------------*\
| =========                 |                                                 |
| \\      /  F ield         | OpenFOAM: The Open Source CFD Toolbox           |
|  \\    /   O peration     | Version:  2.1.1                                 |
|   \\  /    A nd           | Web:      www.OpenFOAM.org                      |
|    \\/     M anipulation  |                                                 |
\*---------------------------------------------------------------------------*/
FoamFile
{
    version     2.0;
    format      ascii;
    class       volScalarField;
    location    "0.006400000";
    object      G;
}
// * * * * * * * * * * * * * * * * * * * * * * * * * * * * * * * * * * * * * //

dimensions      [0 0 0 0 0 0 0];

internalField   nonuniform List<scalar> 
12384
(
1
1
1
1
1
1
1
1
1
1
1
1
1
1
1
1
1
1
1
1
1
1
1
1
1
1
1
1
1
0.999999
0.999998
0.999994
0.999989
0.999985
0.99999
0.999995
0.999998
0.999999
1
1
1
1
1
1
1
1
1
1
1
1
1
1
1
1
1
0.999999
0.999996
0.999978
0.999931
0.999766
0.999623
0.999186
0.999199
0.999148
0.99937
0.99948
0.999659
0.999795
0.999916
0.999977
0.999999
1
1
1
1
1
1
1
1
1
1
1
0.999999
0.999997
0.999985
0.999937
0.999753
0.99915
0.997392
0.994753
0.987899
0.987693
0.981795
0.988715
0.989475
0.994136
0.996811
0.998842
0.999835
0.999996
1
1
1
1
1
0.999999
0.999931
0.999338
0.997486
0.993378
0.98625
0.976754
0.966938
0.960915
0.965826
0.96408
0.986482
0.989554
0.997467
0.998044
0.999524
0.99983
0.999968
0.999994
0.999998
1
1
1
1
1
1
1
1
1
1
1
1
1
1
1
1
1
1
1
0.999999
0.999981
0.999944
0.999516
0.999413
0.997699
0.998573
0.998016
0.998971
0.999075
0.999412
0.999429
0.999698
0.999825
0.999942
0.999988
0.999999
1
1
1
1
1
1
1
1
0.999993
0.99989
0.999138
0.996419
0.986529
0.976448
0.945861
0.93993
0.916049
0.930137
0.92758
0.938186
0.947373
0.960103
0.970826
0.982256
0.991622
0.997615
0.999582
0.999775
0.999959
0.999981
0.999991
0.999996
0.999991
1
1
1
1
0.999985
0.999765
0.998849
0.994289
0.989928
0.973464
0.972409
0.959671
0.967169
0.977918
0.978892
0.988589
0.993508
0.996228
0.998348
0.99942
0.999868
0.99998
0.999999
1
1
1
1
1
1
1
1
1
0.999999
0.999954
0.999532
0.99785
0.993696
0.981132
0.977769
0.969661
0.969019
0.973531
0.980762
0.986616
0.991735
0.995303
0.997723
0.99921
0.999877
0.999982
0.999999
1
1
1
1
1
1
1
1
1
1
1
1
0.999998
0.999965
0.999473
0.996322
0.985429
0.961557
0.928233
0.885807
0.854075
0.867311
0.868066
0.922862
0.938803
0.966269
0.980711
0.991908
0.996875
0.999036
0.999865
0.999999
1
1
1
1
1
1
1
1
1
1
0.999999
0.999965
0.999558
0.996874
0.987029
0.977465
0.948394
0.922224
0.937206
0.93695
0.946435
0.96207
0.974531
0.983168
0.989586
0.99422
0.997292
0.999402
0.999978
0.999999
1
1
1
1
1
0.999999
1
1
1
1
0.999996
0.999997
0.999974
0.999916
0.999897
0.999895
0.99985
0.999831
0.999357
0.998954
0.998757
0.999114
0.999542
0.999814
0.999905
0.999924
0.999872
0.99972
0.999317
0.99858
0.998042
0.99743
0.998184
0.998736
0.999404
0.999916
1
1
1
1
1
1
0.999989
0.998493
0.999999
0.999996
0.99997
0.999911
0.999755
0.999646
0.999249
0.998845
0.998139
0.998516
0.999088
0.999642
0.999916
0.999991
1
1
1
1
1
1
1
1
1
1
1
1
1
1
1
1
1
1
1
1
1
1
1
1
1
1
1
1
1
1
1
1
1
1
1
1
0.999997
0.999963
0.999648
0.997951
0.992171
0.980284
0.96388
0.94549
0.939703
0.944744
0.959257
0.977195
0.990782
0.998217
0.999909
0.999999
1
1
1
1
1
0.999999
0.999999
0.999999
0.999999
0.999999
0.999996
0.999964
0.999713
0.998064
0.990513
0.966711
0.91396
0.841672
0.741845
0.68803
0.610957
0.590924
0.598277
0.629619
0.69591
0.784568
0.879446
0.964775
0.998092
0.999995
1
1
1
0.999998
0.999993
0.999986
0.999976
0.99997
0.99996
0.999929
0.999803
0.998992
0.994345
0.973219
0.908157
0.768107
0.585854
0.403773
0.277984
0.184765
0.15616
0.161509
0.187469
0.264257
0.395155
0.610801
0.863845
0.984605
0.999966
1
1
1
0.999912
0.9945
0.946219
0.816134
0.633664
0.450279
0.302945
0.204593
0.142849
0.105825
0.098222
0.0839554
0.10692
0.123256
0.182418
0.281855
0.415479
0.608521
0.830996
0.968614
0.99888
0.999995
1
1
1
1
1
1
1
1
1
1
1
1
1
1
0.999999
0.99998
0.999484
0.996551
0.979983
0.943038
0.853301
0.757438
0.625773
0.547992
0.458812
0.426986
0.437648
0.474779
0.531483
0.624068
0.747605
0.882764
0.971508
0.998296
0.99999
1
1
1
1
1
1
0.999569
0.983422
0.905438
0.756499
0.560147
0.35012
0.210208
0.107533
0.069866
0.0404024
0.0307483
0.0272626
0.0304399
0.0306871
0.0490305
0.0766506
0.15043
0.310371
0.618617
0.899469
0.978989
0.997805
0.99996
0.999989
0.999946
0.999885
1
1
0.999998
0.998908
0.976577
0.883173
0.719174
0.483658
0.340871
0.200673
0.138034
0.0992481
0.0863078
0.0907745
0.112228
0.164587
0.233055
0.356271
0.53913
0.765566
0.933017
0.993228
0.999824
0.999997
0.999999
0.999999
1
1
1
1
1
0.999982
0.99581
0.945289
0.798552
0.581281
0.36724
0.220888
0.159842
0.0836368
0.074051
0.0789966
0.0969382
0.13288
0.201611
0.31902
0.501672
0.737151
0.934129
0.994145
0.999802
0.999996
0.999998
0.999994
0.999996
0.999999
1
1
1
1
1
1
1
0.999982
0.992946
0.885713
0.600722
0.316622
0.142171
0.0551462
0.0200714
0.0106536
0.0057711
0.00602098
0.00602864
0.0123267
0.0344832
0.0814679
0.20105
0.434385
0.742742
0.93902
0.996257
0.999987
1
1
1
1
1
1
1
1
1
0.999842
0.983333
0.857451
0.614122
0.370276
0.204715
0.0847166
0.0651171
0.0351906
0.0352857
0.0531181
0.0900018
0.165718
0.306733
0.534373
0.779268
0.919913
0.975418
0.993259
0.997712
0.998591
0.999045
0.999579
0.999854
0.999959
0.999991
0.999999
1
1
0.999999
0.999657
0.978279
0.817248
0.643763
0.578826
0.552332
0.561491
0.57656
0.619442
0.691001
0.766552
0.879001
0.937877
0.976262
0.992644
0.997641
0.998292
0.99597
0.98608
0.959188
0.92812
0.896605
0.895632
0.915902
0.945073
0.984252
0.999908
1
1
1
1
0.999971
0.984711
0.996681
0.992429
0.938958
0.810173
0.708196
0.617277
0.587032
0.568397
0.591725
0.648065
0.723982
0.815524
0.897292
0.955783
0.987338
0.998603
0.999989
1
1
1
1
1
1
1
1
1
1
1
1
1
1
1
1
1
1
1
1
1
1
1
1
1
1
1
1
1
1
1
1
0.999999
0.999997
0.999977
0.999858
0.99934
0.997566
0.993778
0.986207
0.978435
0.966235
0.959785
0.957046
0.964215
0.974681
0.985774
0.99459
0.999015
0.999965
1
1
1
1
1
1
1
1
0.999999
0.999991
0.999879
0.9993
0.997433
0.993133
0.983673
0.967244
0.933037
0.887235
0.832924
0.789193
0.729073
0.718185
0.709528
0.709486
0.740791
0.780709
0.825251
0.902705
0.979507
0.999441
1
1
0.999998
0.999997
0.999994
0.999981
0.999949
0.999867
0.999624
0.9989
0.996855
0.9905
0.972954
0.934267
0.859156
0.738528
0.596985
0.446622
0.328086
0.228654
0.200189
0.163375
0.190632
0.234847
0.311121
0.444809
0.664005
0.894589
0.993416
0.999998
1
1
0.997989
0.953689
0.806952
0.625559
0.473919
0.367852
0.295585
0.239693
0.197433
0.180699
0.162672
0.182961
0.169172
0.192089
0.219543
0.277987
0.353375
0.465239
0.634626
0.844241
0.97473
0.999218
0.999995
1
1
1
1
1
1
1
1
1
1
1
1
1
0.999987
0.999842
0.998587
0.994981
0.979762
0.960363
0.903208
0.857458
0.770031
0.708279
0.636548
0.622885
0.593266
0.597757
0.615706
0.64758
0.692221
0.78041
0.898304
0.979077
0.99923
0.999998
1
1
1
1
0.999877
0.994656
0.975133
0.918446
0.786733
0.606048
0.39955
0.265674
0.157791
0.114933
0.0745383
0.0671373
0.058933
0.0639995
0.063083
0.0753564
0.083739
0.111229
0.179815
0.358329
0.666209
0.903456
0.969247
0.998384
0.999995
0.999985
0.999868
1
1
0.999691
0.982756
0.907434
0.75294
0.617036
0.410305
0.342727
0.19312
0.173154
0.118286
0.105689
0.111503
0.11706
0.156639
0.193938
0.279707
0.38147
0.542359
0.757493
0.935561
0.993345
0.999771
0.999999
1
1
1
1
1
1
0.995687
0.925866
0.756775
0.586948
0.404442
0.258707
0.192369
0.119113
0.0827503
0.0778281
0.0699209
0.0813069
0.104949
0.147332
0.21168
0.315983
0.483857
0.72872
0.934196
0.992277
0.999837
0.999998
1
1
1
1
1
1
1
1
1
1
0.997941
0.897614
0.579106
0.288799
0.134191
0.0559586
0.0216601
0.0113743
0.00509243
0.00284767
0.00251304
0.00385565
0.0051416
0.00945044
0.0226289
0.0621873
0.166368
0.382517
0.696443
0.926917
0.995937
0.999996
1
1
1
1
1
1
1
0.999989
0.989394
0.852204
0.576862
0.340451
0.178953
0.0876445
0.0503592
0.0266355
0.0182294
0.0182484
0.0216266
0.0378924
0.0712365
0.132372
0.253825
0.468685
0.713205
0.8826
0.97357
0.99616
0.999529
0.999829
0.99982
0.99951
0.999296
0.999813
0.999999
0.999999
1
0.999844
0.983352
0.832308
0.655967
0.608164
0.612073
0.625547
0.612259
0.619899
0.661888
0.726238
0.749747
0.814782
0.872829
0.919558
0.955719
0.978026
0.983587
0.97841
0.965499
0.953465
0.947676
0.942991
0.946884
0.946797
0.945933
0.964632
0.999577
1
1
1
1
0.990417
0.977085
0.983941
0.922637
0.801397
0.699149
0.64561
0.608968
0.595802
0.589787
0.616437
0.652654
0.713996
0.782453
0.857453
0.9221
0.968356
0.991089
0.999176
1
1
1
1
1
1
1
1
1
1
1
1
1
1
1
1
1
1
1
1
1
1
1
1
1
1
1
1
1
1
0.999999
0.999997
0.999988
0.999941
0.999713
0.999007
0.997926
0.996895
0.996774
0.996058
0.995066
0.99367
0.990842
0.98858
0.98604
0.985538
0.987769
0.992361
0.997167
0.999722
1
1
1
1
1
1
1
1
0.999998
0.999923
0.999054
0.995917
0.990049
0.982092
0.97472
0.96317
0.945395
0.919202
0.901396
0.857424
0.835147
0.825971
0.818323
0.812508
0.824554
0.833697
0.831531
0.864854
0.939766
0.993976
0.999999
1
0.999982
0.999994
0.999993
0.999982
0.999935
0.999707
0.998569
0.994601
0.984811
0.96393
0.9245
0.863624
0.783541
0.702111
0.618996
0.527389
0.444174
0.389572
0.3158
0.302116
0.286575
0.290506
0.315167
0.385931
0.533757
0.768499
0.960326
0.999726
1
0.999993
0.985924
0.872051
0.663491
0.503774
0.416885
0.381703
0.356169
0.343101
0.341215
0.342828
0.374397
0.362907
0.39921
0.389071
0.387904
0.398412
0.41157
0.449806
0.539115
0.713683
0.902423
0.986459
0.999538
0.999998
1
1
0.999999
0.999999
1
1
1
1
1
1
1
0.999996
0.99989
0.999153
0.995055
0.989326
0.969923
0.961045
0.927959
0.918195
0.876291
0.8362
0.818949
0.774796
0.774604
0.759501
0.755857
0.748966
0.740043
0.763099
0.838958
0.937424
0.992478
0.999914
1
1
1
0.999994
0.999119
0.995817
0.970392
0.867246
0.678279
0.496691
0.340185
0.283069
0.21145
0.179042
0.158795
0.135498
0.13237
0.130116
0.135434
0.151648
0.140994
0.144563
0.169486
0.242946
0.476073
0.768689
0.928898
0.985453
0.999884
0.999993
0.999901
1
0.999994
0.995088
0.941816
0.820978
0.703479
0.585057
0.467804
0.41568
0.298443
0.272769
0.213606
0.191119
0.173924
0.196494
0.205009
0.238828
0.294243
0.340947
0.430463
0.601031
0.815774
0.951866
0.995007
0.999895
1
1
1
0.999999
1
0.999996
0.944894
0.765652
0.596793
0.473297
0.325601
0.269004
0.222189
0.130941
0.133014
0.0974636
0.0898825
0.0980431
0.120369
0.153145
0.193405
0.251971
0.346377
0.517986
0.773236
0.947131
0.994096
0.999924
1
1
1
1
1
1
1
1
1
0.99998
0.9735
0.702039
0.345848
0.15116
0.0704032
0.0323205
0.0190085
0.0123985
0.00635161
0.00424229
0.0029082
0.00311202
0.00524152
0.00809374
0.0117112
0.0295205
0.0696102
0.180291
0.42797
0.732174
0.948137
0.998607
1
1
1
1
1
1
1
0.999069
0.91929
0.628855
0.339794
0.197986
0.0914411
0.0624896
0.0325795
0.0176687
0.0184742
0.0180375
0.0214809
0.0235162
0.0392714
0.0693734
0.125684
0.24457
0.448794
0.689011
0.890238
0.981807
0.9988
0.999889
0.99981
0.998101
0.994101
0.99843
0.999998
0.999997
0.999983
0.994638
0.890281
0.68279
0.622729
0.648784
0.684319
0.693252
0.720773
0.734623
0.755843
0.789957
0.792184
0.772988
0.776585
0.817935
0.866579
0.906205
0.918045
0.910207
0.917948
0.9366
0.963475
0.976935
0.979935
0.971842
0.950413
0.934884
0.999115
1
1
1
0.997372
0.940728
0.979133
0.932222
0.822597
0.732981
0.68345
0.682141
0.662534
0.678128
0.684511
0.700194
0.723384
0.746538
0.777309
0.817283
0.876534
0.940651
0.982988
0.997437
0.99995
1
1
1
1
1
1
1
1
1
1
1
1
1
1
1
1
1
1
1
1
1
1
1
1
1
1
1
1
0.999998
0.999993
0.999969
0.999864
0.999407
0.997998
0.995943
0.996075
0.997806
0.99921
0.999569
0.999772
0.999747
0.99966
0.999234
0.998216
0.995845
0.992903
0.992074
0.994835
0.99886
1
1
1
1
1
1
1
1
0.999993
0.999696
0.996566
0.988564
0.976288
0.96862
0.96212
0.960933
0.953267
0.956204
0.943628
0.924511
0.917666
0.907552
0.901679
0.89557
0.893473
0.883629
0.859399
0.847057
0.892654
0.974096
0.999997
1
0.999833
0.999979
0.999991
0.999986
0.999937
0.999532
0.996808
0.985907
0.961639
0.92158
0.856181
0.770167
0.69205
0.637234
0.624003
0.623829
0.670446
0.660069
0.583203
0.490553
0.42795
0.393299
0.367079
0.373352
0.468521
0.667995
0.91052
0.997178
1
0.999827
0.956649
0.785521
0.571802
0.444937
0.40742
0.429772
0.474438
0.559156
0.62873
0.668943
0.673091
0.710035
0.691874
0.686138
0.630401
0.603613
0.537803
0.509481
0.512332
0.624398
0.810977
0.946763
0.993181
0.999851
1
1
0.999999
0.999998
1
1
1
1
1
1
1
0.999969
0.99933
0.996678
0.983691
0.975522
0.947132
0.960982
0.942699
0.964054
0.962171
0.957034
0.951093
0.935587
0.910945
0.896834
0.872146
0.857614
0.82499
0.789445
0.815821
0.897527
0.97578
0.999081
0.999999
1
1
0.999874
0.999572
0.991998
0.92279
0.710849
0.493743
0.382437
0.354124
0.400951
0.392639
0.449354
0.428308
0.419632
0.373181
0.322138
0.317498
0.290845
0.255454
0.236404
0.199503
0.226542
0.364306
0.63655
0.878701
0.973087
0.999261
0.999988
0.999963
1
0.999864
0.983097
0.885118
0.780748
0.666316
0.628129
0.547211
0.548793
0.469963
0.456166
0.394016
0.374199
0.346661
0.326237
0.3295
0.337395
0.346207
0.350221
0.406806
0.51677
0.673988
0.876751
0.976589
0.99881
0.999993
1
0.999999
1
1
0.999951
0.832289
0.631283
0.508693
0.409321
0.319071
0.332627
0.256983
0.217007
0.19877
0.18071
0.182544
0.17165
0.169735
0.189032
0.214367
0.24082
0.284123
0.382038
0.590934
0.844114
0.96787
0.998166
0.999988
1
1
0.999999
1
1
1
0.999999
1
0.999392
0.912236
0.532313
0.211652
0.0892245
0.0466718
0.0292867
0.0290965
0.0220693
0.0212885
0.0232231
0.0162685
0.00996548
0.00970468
0.010437
0.0141015
0.0211434
0.0381617
0.107748
0.243058
0.533776
0.828586
0.984653
0.999907
1
1
1
1
1
0.999997
0.98909
0.780266
0.422417
0.207815
0.12201
0.0682308
0.0565888
0.0298637
0.0388189
0.0229777
0.0185538
0.0225626
0.0301202
0.0320705
0.043796
0.0722155
0.129845
0.263079
0.480019
0.740821
0.933306
0.994169
0.999653
0.99942
0.991014
0.974021
0.993813
0.999997
0.999991
0.999443
0.958823
0.75488
0.636098
0.65269
0.703967
0.741636
0.784841
0.819498
0.873334
0.89055
0.888505
0.866491
0.791952
0.712454
0.692561
0.750214
0.798373
0.78546
0.810285
0.862757
0.928112
0.978826
0.996224
0.995975
0.983379
0.948631
0.906056
0.998692
1
1
0.999593
0.964103
0.972743
0.949232
0.863002
0.765565
0.730538
0.727565
0.746166
0.784159
0.803312
0.825511
0.838751
0.836608
0.826743
0.811157
0.805429
0.829933
0.894373
0.967514
0.996412
0.999878
1
1
1
1
1
1
1
1
1
1
1
1
1
1
1
1
1
1
1
1
1
1
1
1
1
1
1
0.999999
0.999997
0.999987
0.999931
0.999616
0.997937
0.993755
0.990947
0.995572
0.99889
0.999822
0.999975
0.999997
0.999999
0.999999
0.999994
0.999931
0.999374
0.996783
0.992824
0.992307
0.996911
1
1
0.999998
1
1
1
1
1
0.999987
0.99933
0.993232
0.977804
0.962836
0.949998
0.953762
0.955271
0.965094
0.973341
0.971053
0.972292
0.971504
0.96418
0.96114
0.948298
0.940225
0.919899
0.887132
0.834839
0.846052
0.934826
0.999992
1
0.99901
0.999929
0.99999
0.999992
0.99996
0.999552
0.995361
0.976623
0.933824
0.867813
0.783942
0.688096
0.593553
0.556736
0.599786
0.704852
0.876598
0.914551
0.898297
0.83515
0.691702
0.545589
0.436868
0.390454
0.425352
0.605434
0.854118
0.992204
1
0.998802
0.926585
0.72536
0.519602
0.431007
0.41211
0.515104
0.622641
0.758698
0.837667
0.898566
0.927867
0.936408
0.929205
0.907585
0.856036
0.788066
0.679108
0.602689
0.524989
0.581565
0.73448
0.892637
0.972958
0.997841
0.999993
1
0.999998
0.999998
1
1
1
1
1
1
0.999998
0.999869
0.997777
0.990092
0.962015
0.945467
0.916089
0.940061
0.960591
0.979909
0.994638
0.996976
0.997946
0.995473
0.988967
0.972074
0.955747
0.924461
0.896677
0.835166
0.820173
0.866268
0.953123
0.995866
0.999999
1
0.999999
0.999948
0.999227
0.977229
0.823098
0.543028
0.359866
0.331857
0.418982
0.546795
0.669893
0.787404
0.813733
0.826947
0.780396
0.719672
0.640184
0.507683
0.448534
0.358591
0.273261
0.24691
0.327491
0.561624
0.831258
0.970921
0.999084
0.999983
0.999989
1
0.999318
0.96065
0.856581
0.724058
0.672408
0.615524
0.667873
0.649591
0.697796
0.698147
0.734571
0.705786
0.640953
0.595751
0.534012
0.462877
0.436466
0.414017
0.429024
0.455112
0.593201
0.80162
0.951358
0.996419
0.999955
0.999998
0.999999
1
1
0.999703
0.729014
0.548242
0.439028
0.370239
0.340472
0.393291
0.337416
0.426397
0.412112
0.433832
0.393347
0.371106
0.332108
0.278812
0.263372
0.265672
0.265345
0.310305
0.45987
0.719733
0.922648
0.990666
0.999836
0.999999
0.999999
0.999999
1
1
1
0.999999
1
0.996632
0.849369
0.40362
0.138288
0.0600766
0.0400869
0.0361469
0.0478165
0.0602695
0.0866116
0.0979895
0.107574
0.0826614
0.0480567
0.0276659
0.0275954
0.0156171
0.0425149
0.06229
0.172879
0.382632
0.727887
0.944586
0.999031
0.999998
0.999999
1
1
1
0.999963
0.958221
0.614553
0.284587
0.13898
0.0942529
0.0571757
0.0662587
0.069484
0.0865331
0.0770249
0.0661811
0.0424467
0.0361661
0.0373379
0.0374979
0.0480883
0.0766511
0.157562
0.331084
0.588127
0.867235
0.983379
0.998716
0.997915
0.971085
0.921443
0.977364
0.99999
0.999966
0.994111
0.885116
0.66466
0.615117
0.677682
0.742363
0.810804
0.884481
0.945946
0.968051
0.977155
0.962262
0.923485
0.833893
0.684385
0.607026
0.641132
0.687675
0.672621
0.723117
0.823341
0.913452
0.990269
0.999742
0.99899
0.980364
0.925043
0.879938
0.998792
1
0.999999
0.992443
0.973938
0.96647
0.91226
0.812766
0.756393
0.775705
0.791443
0.858032
0.905854
0.932504
0.951838
0.956082
0.94364
0.913169
0.871984
0.833217
0.815671
0.853923
0.937039
0.993195
0.999895
1
1
1
1
1
1
1
1
1
1
1
1
1
1
1
1
1
1
1
1
1
1
1
1
1
1
1
1
0.999999
0.999996
0.999978
0.999733
0.996676
0.988827
0.987754
0.996182
0.999299
0.999947
0.999998
1
1
1
1
0.999998
0.999899
0.99849
0.993524
0.989816
0.994073
1
1
0.99999
1
1
1
1
1
0.999979
0.998961
0.98972
0.97059
0.947567
0.938937
0.942937
0.953241
0.970148
0.981959
0.987506
0.994095
0.995643
0.994472
0.992047
0.980851
0.968844
0.944401
0.900807
0.824027
0.801728
0.885962
0.99999
1
0.99573
0.999641
0.99998
0.999996
0.999989
0.999763
0.995675
0.972753
0.920874
0.839013
0.736281
0.625263
0.520387
0.488103
0.550231
0.725535
0.949969
0.994909
0.997334
0.971135
0.848205
0.673111
0.482027
0.40511
0.412711
0.555565
0.822726
0.986529
1
0.997513
0.906653
0.702254
0.498429
0.417299
0.436312
0.55459
0.700002
0.86479
0.957652
0.99366
0.997983
0.998298
0.994526
0.987339
0.956797
0.910198
0.787698
0.686828
0.559655
0.581396
0.69124
0.849909
0.950072
0.991925
0.999827
0.999998
0.999996
0.999998
1
1
1
1
1
1
0.999993
0.999659
0.995569
0.975877
0.934483
0.884319
0.880027
0.888428
0.957876
0.983418
0.998923
0.999916
0.999996
0.999982
0.999641
0.99662
0.986305
0.965305
0.932903
0.879417
0.838037
0.847888
0.927572
0.98896
0.999999
1
0.999992
0.999954
0.997884
0.954846
0.734649
0.41704
0.277959
0.296296
0.428782
0.627718
0.82686
0.938851
0.979445
0.99298
0.990098
0.965872
0.885794
0.77338
0.640012
0.491723
0.354329
0.288878
0.335036
0.542537
0.824153
0.973391
0.999387
0.999993
0.999999
1
0.997292
0.943546
0.799746
0.686181
0.622522
0.611292
0.672946
0.727623
0.815609
0.904365
0.954731
0.971018
0.953477
0.881137
0.764117
0.627259
0.562456
0.498727
0.427931
0.447769
0.559001
0.749414
0.933856
0.995681
0.999936
0.999998
0.999999
1
1
0.998788
0.664414
0.493762
0.386596
0.348084
0.347981
0.429396
0.473256
0.672149
0.760579
0.847677
0.808012
0.687321
0.560857
0.422351
0.347194
0.314887
0.272313
0.275617
0.388943
0.622017
0.878425
0.981442
0.99946
0.999995
0.999999
1
1
1
1
0.999997
0.999988
0.989721
0.77956
0.319048
0.103031
0.0485669
0.0370172
0.0422054
0.0714407
0.133031
0.247386
0.404015
0.476466
0.352342
0.219716
0.0802254
0.0548372
0.024708
0.040673
0.0557351
0.133064
0.335962
0.627808
0.918577
0.997794
0.999993
0.999999
1
1
1
0.999699
0.905879
0.481901
0.202636
0.102969
0.0793187
0.0638781
0.115949
0.141016
0.246037
0.345411
0.342867
0.210197
0.0897048
0.0572924
0.0387672
0.0393762
0.057386
0.109583
0.230068
0.458344
0.787645
0.971908
0.997214
0.993562
0.934791
0.852395
0.934247
0.999875
0.999907
0.966872
0.770672
0.592955
0.61572
0.707545
0.791389
0.870323
0.943988
0.982732
0.996773
0.997898
0.995067
0.959304
0.868298
0.673419
0.554238
0.577534
0.621363
0.614019
0.700681
0.798727
0.916766
0.989831
0.999368
0.993731
0.954396
0.89604
0.879919
0.9991
1
0.999992
0.989451
0.978346
0.955532
0.881817
0.802285
0.775668
0.827292
0.880398
0.935669
0.976187
0.992641
0.997382
0.996467
0.987875
0.961142
0.905482
0.852734
0.810609
0.823922
0.911141
0.987263
0.999889
1
1
1
1
1
1
1
1
1
1
1
1
1
1
1
1
1
1
1
1
1
0.999998
1
1
1
1
1
1
1
1
0.999999
0.999932
0.997035
0.985702
0.988787
0.996403
0.999477
0.999967
1
1
1
1
1
1
0.999963
0.998857
0.993458
0.987266
0.990552
1
1
0.999957
0.999999
1
1
1
1
0.999986
0.999001
0.989013
0.966032
0.941557
0.930121
0.93507
0.949864
0.97129
0.984134
0.994478
0.999166
0.999858
0.999917
0.999521
0.995167
0.984216
0.956429
0.901898
0.81303
0.764419
0.841551
0.999992
1
0.99236
0.99874
0.999963
0.999998
0.999997
0.999863
0.996035
0.969821
0.91371
0.842401
0.733864
0.606738
0.497791
0.450772
0.491421
0.678376
0.918082
0.994207
0.999393
0.987663
0.897312
0.695394
0.492944
0.391987
0.403386
0.54082
0.806259
0.984852
1
0.996765
0.908907
0.698609
0.491949
0.403315
0.428799
0.553622
0.69796
0.889944
0.974313
0.998989
0.999969
0.999978
0.999779
0.998082
0.98506
0.952325
0.847925
0.744798
0.597167
0.616168
0.692593
0.838653
0.942129
0.987745
0.999329
0.999973
0.999987
0.999998
1
1
1
1
1
1
0.99999
0.999427
0.994085
0.957825
0.906525
0.814394
0.830349
0.81889
0.928237
0.971401
0.998248
0.999952
1
1
0.999995
0.999474
0.99584
0.979976
0.955933
0.893849
0.8506
0.838927
0.906302
0.981542
0.999999
0.999997
0.999977
0.99989
0.995728
0.938528
0.683765
0.346033
0.223032
0.236329
0.374852
0.625927
0.842336
0.964058
0.996803
0.999946
0.999992
0.999028
0.977767
0.903777
0.747525
0.570007
0.409583
0.320943
0.35336
0.553506
0.838498
0.983473
0.999704
1
1
0.999994
0.99173
0.904284
0.748809
0.586266
0.582421
0.526112
0.639249
0.666345
0.841912
0.915398
0.993094
0.999816
0.999908
0.988932
0.903978
0.757703
0.653825
0.525185
0.449617
0.464606
0.543574
0.731142
0.934952
0.996884
0.999976
0.999999
0.999996
0.999994
1
0.995912
0.640127
0.456266
0.349087
0.317872
0.320252
0.429763
0.533891
0.757867
0.90933
0.993991
0.998472
0.963371
0.793846
0.556745
0.41952
0.368463
0.283508
0.269895
0.355463
0.574686
0.847879
0.978034
0.999359
0.999993
1
1
1
1
1
0.999991
0.99971
0.979467
0.724596
0.277746
0.0904336
0.0438596
0.0320574
0.0403149
0.0881148
0.161177
0.37443
0.734282
0.964635
0.830742
0.578548
0.152619
0.126235
0.0328863
0.0552975
0.0497723
0.143304
0.284533
0.614492
0.915698
0.997782
0.999996
1
0.999999
1
0.999998
0.997765
0.842843
0.392589
0.159434
0.0801634
0.0729825
0.0695926
0.136437
0.194839
0.484636
0.699698
0.769032
0.528348
0.191082
0.0995163
0.0443081
0.0371985
0.0519249
0.0818661
0.190411
0.41161
0.714374
0.952014
0.995585
0.988953
0.895329
0.765947
0.857248
0.997924
0.999806
0.928967
0.692501
0.547357
0.617618
0.728757
0.814451
0.910508
0.975671
0.997749
0.99994
0.999982
0.999524
0.980362
0.8835
0.682908
0.528171
0.572267
0.621748
0.62074
0.717873
0.818653
0.908111
0.973071
0.978463
0.947302
0.905771
0.885175
0.917279
0.999631
1
0.999994
0.99401
0.980739
0.94496
0.866567
0.824348
0.818037
0.865822
0.945604
0.98139
0.996997
0.999924
0.999998
0.999952
0.997436
0.978357
0.919508
0.852129
0.804075
0.805797
0.893384
0.982248
0.999828
1
1
1
1
1
1
1
1
1
1
1
1
1
1
1
1
1
1
1
1
1
1
0.999952
0.999997
1
1
1
1
1
1
1
1
1
0.999992
0.99806
0.987266
0.98981
0.997012
0.999421
0.999965
0.999999
1
1
1
1
1
0.999949
0.998648
0.992817
0.985627
0.989652
0.999416
0.999999
0.999998
0.999797
0.999842
0.999997
1
1
1
1
0.999991
0.999349
0.991597
0.969427
0.943589
0.930844
0.929265
0.946425
0.96355
0.982089
0.995327
0.999699
0.999995
0.999999
0.99997
0.998225
0.989174
0.956521
0.901567
0.795747
0.751845
0.820367
0.989036
0.999999
0.999996
0.99772
0.984239
0.994698
0.999716
0.999994
0.999998
0.999957
0.997781
0.973529
0.912657
0.84677
0.763103
0.649723
0.527189
0.450372
0.454696
0.608209
0.810674
0.924435
0.975606
0.956206
0.842652
0.662527
0.457904
0.39564
0.406144
0.557444
0.801474
0.981005
0.999459
0.999971
0.999596
0.975099
0.867819
0.689595
0.475321
0.405177
0.397571
0.508547
0.656015
0.819415
0.939763
0.990413
0.998819
0.99967
0.999316
0.997622
0.983205
0.955511
0.85434
0.773473
0.639768
0.669472
0.74285
0.865592
0.952563
0.988989
0.998929
0.999794
0.999801
0.999844
0.999963
1
1
0.999996
1
1
1
1
0.999993
0.999606
0.994651
0.956543
0.885232
0.77119
0.770829
0.743747
0.862979
0.923203
0.988411
0.998453
0.999968
0.999997
0.999975
0.999436
0.996491
0.982364
0.958362
0.899612
0.851438
0.83842
0.9049
0.978252
0.999648
0.999997
0.999632
0.993021
0.999566
0.99955
0.994276
0.939065
0.695537
0.334689
0.187936
0.183914
0.297333
0.523657
0.758589
0.917721
0.98469
0.99905
0.999853
0.998303
0.98064
0.904274
0.748718
0.570844
0.417735
0.332331
0.38689
0.605943
0.886084
0.995435
0.999998
0.999952
0.999416
0.999968
0.999815
0.966527
0.936418
0.810983
0.652719
0.515876
0.482776
0.457105
0.528961
0.561492
0.702033
0.801913
0.94535
0.991284
0.99808
0.981919
0.920203
0.770054
0.64254
0.539782
0.470028
0.463931
0.549131
0.748636
0.946458
0.998068
0.999945
0.999327
0.989925
0.979082
0.982305
0.999724
0.99906
0.863791
0.620572
0.435568
0.309759
0.291325
0.275126
0.364854
0.434758
0.648498
0.806584
0.966394
0.994139
0.968337
0.830437
0.60739
0.454257
0.382522
0.300003
0.275136
0.356342
0.572299
0.852099
0.983145
0.999714
1
1
0.999999
0.999955
0.998811
0.995906
0.999694
0.999066
0.950514
0.975921
0.923772
0.646638
0.253043
0.0818669
0.0411721
0.0322476
0.0361437
0.069685
0.120652
0.219963
0.538484
0.818404
0.841885
0.557981
0.231585
0.134849
0.0483677
0.0632241
0.0846461
0.145334
0.329638
0.650605
0.927773
0.999296
1
0.999999
0.999814
0.999011
0.999984
0.999974
0.996667
0.972126
0.723482
0.312828
0.130063
0.0712008
0.0643853
0.0592928
0.118969
0.166867
0.397113
0.652932
0.827917
0.647929
0.227654
0.124901
0.0464016
0.0398429
0.0473734
0.0839936
0.16454
0.366263
0.679908
0.928949
0.992205
0.990398
0.919059
0.77297
0.795033
0.93709
0.999841
0.999826
0.958692
0.837777
0.612682
0.534951
0.63203
0.736336
0.838498
0.925202
0.980737
0.998747
0.999994
0.999999
0.999746
0.984044
0.887659
0.697005
0.535783
0.607343
0.669809
0.678487
0.781104
0.840248
0.891002
0.90668
0.881061
0.833681
0.818839
0.857717
0.934504
0.993666
1
1
0.999994
0.999913
0.995494
0.982138
0.944056
0.874561
0.849984
0.860364
0.90401
0.970213
0.994996
0.99971
1
1
0.999987
0.997375
0.974664
0.908094
0.836598
0.78335
0.797008
0.889027
0.981048
0.999762
1
1
1
1
1
1
1
1
1
1
1
1
1
1
1
1
1
1
1
1
1
1
1
1
0.999947
0.999998
1
1
1
1
1
1
1
1
1
0.999999
0.999289
0.990771
0.992265
0.996905
0.999285
0.999916
0.999997
1
1
1
1
0.999997
0.999826
0.997854
0.991506
0.986501
0.992217
0.999
0.999989
0.999994
0.999626
0.999816
0.999993
1
1
1
1
0.999998
0.999711
0.995445
0.97916
0.955924
0.936817
0.930223
0.939955
0.951926
0.970651
0.988667
0.998356
0.999895
0.999968
0.999704
0.996609
0.984794
0.946952
0.892002
0.801204
0.765523
0.838784
0.956516
0.999928
0.999982
0.998305
0.986311
0.986782
0.998017
0.999957
0.999998
0.999989
0.99927
0.987014
0.941679
0.881493
0.822827
0.734483
0.603987
0.493399
0.467738
0.525363
0.668166
0.780267
0.797696
0.795874
0.687105
0.534067
0.440022
0.38781
0.433224
0.577397
0.828919
0.986578
0.999657
0.999848
0.998367
0.974564
0.886346
0.705744
0.525358
0.391504
0.396523
0.441249
0.586747
0.693784
0.812275
0.908342
0.958513
0.978531
0.978334
0.978034
0.949086
0.924139
0.839578
0.769954
0.709726
0.739537
0.818911
0.917629
0.973735
0.99568
0.999599
0.999921
0.999931
0.999966
0.999982
0.99998
0.999984
0.999985
0.999998
1
1
1
0.999998
0.999885
0.997304
0.973038
0.889288
0.767372
0.728829
0.685397
0.770859
0.833698
0.93658
0.973425
0.993993
0.997519
0.997847
0.995031
0.989719
0.969329
0.945976
0.886274
0.86037
0.856474
0.925921
0.985605
0.998951
0.999771
0.986892
0.979875
0.999272
0.99952
0.996232
0.960241
0.777478
0.392221
0.180219
0.149932
0.212182
0.369004
0.562495
0.759795
0.867673
0.931667
0.953064
0.944916
0.893527
0.778
0.640326
0.467798
0.368731
0.32377
0.423216
0.652646
0.905294
0.998561
0.999948
0.999133
0.993112
0.983775
0.981289
0.974502
0.934707
0.784278
0.619235
0.4484
0.417945
0.353082
0.410837
0.402057
0.505488
0.53142
0.689185
0.759728
0.833879
0.81693
0.778536
0.644165
0.581023
0.522794
0.463518
0.467158
0.57606
0.769742
0.943776
0.996806
0.999856
0.999617
0.997156
0.992758
0.992745
0.993265
0.984035
0.849686
0.631199
0.42108
0.291669
0.261864
0.228299
0.267846
0.289376
0.404235
0.480366
0.641372
0.703319
0.721313
0.631256
0.50164
0.407663
0.375002
0.298161
0.292676
0.390699
0.613661
0.876024
0.98818
0.9999
1
1
0.999979
0.999328
0.993882
0.977202
0.956372
0.944389
0.967589
0.989811
0.949365
0.707348
0.310515
0.106373
0.0483912
0.0335167
0.031219
0.0458278
0.0571941
0.107549
0.147503
0.299663
0.279473
0.275186
0.132673
0.102356
0.0630384
0.0779647
0.108616
0.197652
0.393781
0.691709
0.953759
0.999786
1
0.999991
0.999835
0.999439
0.999408
0.999459
0.999188
0.973464
0.708813
0.302574
0.130674
0.0686344
0.0569815
0.0448839
0.0738834
0.094654
0.158258
0.270891
0.349982
0.28475
0.16137
0.0996838
0.0479213
0.045422
0.0612176
0.0845227
0.164392
0.361382
0.670253
0.92414
0.991947
0.995847
0.96616
0.869134
0.858568
0.942357
0.987134
0.987265
0.931482
0.834816
0.638482
0.540158
0.624023
0.76287
0.84822
0.92177
0.977933
0.996704
0.999792
0.999753
0.997626
0.972381
0.879867
0.700061
0.576493
0.68569
0.754058
0.778691
0.855944
0.862755
0.843876
0.786757
0.711388
0.682945
0.754252
0.892809
0.975481
0.997163
0.999597
0.999871
0.999925
0.999779
0.997454
0.986598
0.955787
0.899555
0.877272
0.902843
0.935686
0.976325
0.997229
0.999718
0.999985
0.999979
0.999298
0.989656
0.948922
0.878619
0.811774
0.773114
0.798602
0.903952
0.98512
0.999815
1
1
1
0.999999
1
1
1
1
1
1
1
1
1
1
1
1
1
1
1
1
1
1
1
1
0.99999
0.999999
1
1
1
1
1
1
1
1
1
1
0.999845
0.994949
0.994608
0.996736
0.998851
0.999669
0.999945
0.999995
0.999999
0.999999
0.999993
0.999928
0.999199
0.995692
0.988737
0.98584
0.993443
0.99941
0.999999
0.999999
0.999912
0.999915
0.999992
1
1
1
1
0.999999
0.999923
0.998511
0.98994
0.972686
0.950269
0.936278
0.932334