/*--------------------------------*- C++ -*----------------------------------*\
| =========                 |                                                 |
| \\      /  F ield         | OpenFOAM: The Open Source CFD Toolbox           |
|  \\    /   O peration     | Version:  2.1.1                                 |
|   \\  /    A nd           | Web:      www.OpenFOAM.org                      |
|    \\/     M anipulation  |                                                 |
\*---------------------------------------------------------------------------*/
FoamFile
{
    version     2.0;
    format      ascii;
    class       volScalarField;
    location    "0.006400000";
    object      omega;
}
// * * * * * * * * * * * * * * * * * * * * * * * * * * * * * * * * * * * * * //

dimensions      [0 0 -1 0 0 0 0];

internalField   nonuniform List<scalar> 
12384
(
13243.3
20456.1
24026.1
26947.5
29648.1
31759.4
33030.7
33038.3
32068.3
30363.5
27676.9
23717
17828
10556.5
24596
31374
35317.1
37470.6
38545.3
39003.5
39406.2
40219.1
41996.5
44919.8
48763.8
53255.2
58510.5
64166.1
70238.9
76489.4
82432.1
87439.2
90976.9
92237.6
89439.5
85119.4
80678.9
76430.7
71764
65573.4
56200.8
41110.7
22053.3
15991
36001.8
41789.3
46468.6
49283.4
51055
51763.5
52100.4
52543.9
53734
56700.3
62057.9
69295.5
76746.5
84631.9
92065.7
98843.5
103933
107547
107990
106346
103892
102119
99713.3
96474.9
91542.2
84087
72535.5
53678.8
30279.8
26176.2
40721.1
47855.1
51507.8
53374.4
55446.5
58889.7
64036.4
69945.1
76793.8
84452.7
95046
106154
118279
130868
142911
153550
161207
164326
160915
152845
145412
138223
130155
119403
103017
78108.5
50651.9
38482.8
37355.3
42124.5
44015.8
66826.9
94016.5
116761
135661
152551
167256
179469
188205
193060
191530
186373
170910
157511
146850
138642
130583
121680
110472
96750.3
80871.5
65934.4
54124.6
45685.1
40057
38569.6
40695.9
42035.3
40532.8
35717.8
27481
34665.6
39768.4
42684.8
44085.2
44422.6
45065.7
47487.5
52782.6
61135.1
70657.7
81746.2
91566.5
101851
107780
113286
111522
108462
103144
100376
98854.1
97673.1
95805.6
92621.7
87140.7
79140.4
68357.6
54943.3
42474.6
39588.7
22563.1
25623.8
28594
31335.4
36878.9
45761.3
56775.1
68658.3
80907.2
92193
102330
109699
114480
115833
113528
111691
110207
108326
106000
102884
98502.9
92098.6
82564.5
67712.2
49650.8
42424.5
39823.6
36725.9
35125.6
36600.7
25298.1
25565.9
35373.8
52119.7
70351.5
87747.9
103904
118223
129946
138798
144057
144841
142419
139081
136273
132623
127930
121743
113455
103165
90778.3
74366.6
57739.8
45675.2
40271.7
38514.9
38103.1
38245
38463.7
37795.9
33373.2
47652.7
66739.2
85343.3
102638
117936
130932
141356
147749
151188
148552
145506
141494
137145
132104
126028
118216
107741
94092.1
75518.5
58841.5
46689
40075.4
37155.2
35986.2
35655.4
34363.6
32057.2
29362.2
27509.9
33432.9
40659.3
47846
55833.1
70519.3
88360.1
107153
125166
141681
155616
165356
171502
170826
164425
158675
153441
148405
142243
134257
123053
107405
83465.3
57392.1
45679.4
43648.5
43073.1
42842
42638.1
42473.3
43099.6
34967.9
44542.6
53223
64214.5
81424.2
101377
121142
138803
152968
163151
167887
167263
165798
162709
158307
153000
146428
137466
124748
106971
86224.5
63871
50688.5
47371.3
47786
48793.3
49230.1
48946.9
48119.2
45780
25100.7
26647.7
33501.7
39454
44289.6
48287.9
51888.8
55100.7
57791.6
60677.6
65304.6
73914.2
82844
85854.3
83951.1
78774.8
72172.7
66252.1
62807.8
63196.9
65869.5
69933.1
73698.3
76285.8
76555.5
74897.3
71622.4
66428.3
57007.4
38909.9
10476.8
13890
12736.9
11213.7
11362.3
19729.5
41233.8
63091.3
76522.9
85309.4
91551.4
96117.4
99470.1
103146
108038
111374
107550
100097
89082.2
76180.6
62477.3
49253.8
38952.4
33050.2
28157.7
22414.8
16002.9
9879.47
5038.56
2240.23
19999
68607
86460.2
104527
123266
140373
155043
164823
167095
160916
146591
125981
99033.5
22595.1
25701.3
101491
120021
131226
135891
136270
137204
141430
148498
157417
168093
182394
203956
234683
274209
321227
372779
424888
473324
514161
545107
560736
554838
532225
493492
437845
362869
267050
161302
31208.8
39797.9
144472
173711
195128
208733
211165
204405
198222
201617
218812
251489
294903
346812
406739
472607
540565
605963
663991
710743
743332
754501
746001
717155
672628
611278
534427
441153
333794
218832
45412.6
44236
170547
203581
230546
251605
265240
272745
280502
293548
316634
362036
424257
503428
597645
702824
812978
919253
1.01183e+06
1.08253e+06
1.11903e+06
1.10729e+06
1.05631e+06
974476
865258
728624
562033
372704
187830
109946
49512
41699.7
241941
369386
494464
616878
739773
865162
991783
1.11461e+06
1.22755e+06
1.32473e+06
1.39822e+06
1.44406e+06
1.45166e+06
1.41162e+06
1.34045e+06
1.23358e+06
1.09926e+06
937256
740805
516898
314087
196857
170841
180765
188578
184117
176351
153891
43193.4
33480.6
99938.7
113877
120947
124207
131332
153417
192421
244739
306906
375935
453626
535665
620871
702397
775993
834962
873702
884120
866631
825161
766097
690539
604275
507143
403665
301856
213792
146260
48959.5
25539.7
65725.8
81292.8
116116
173507
243977
326212
418432
517838
619939
720070
811395
888160
944636
976339
975511
947821
897272
828947
745199
649837
544772
433104
322865
223587
145572
106515
100590
102387
43032.3
33294.3
93574.1
173247
274385
380952
488137
595882
702047
804337
897145
976916
1.0373e+06
1.07206e+06
1.07132e+06
1.04503e+06
990264
913361
817305
704852
579517
447034
322445
218770
158708
149661
155142
151233
145578
134235
41958.8
44009.9
199351
320155
438007
555264
670624
781653
884020
972381
1.04053e+06
1.08301e+06
1.08836e+06
1.06059e+06
1.00577e+06
926330
827492
713072
586052
454166
330845
220823
170171
166795
178529
177977
165335
147840
125990
100291
34132.7
34926.9
91681.6
112782
183463
284480
399880
521137
645627
771191
893555
1.00674e+06
1.1042e+06
1.17872e+06
1.22007e+06
1.21771e+06
1.17744e+06
1.10639e+06
1.00727e+06
886785
741853
580959
421089
278834
176745
140524
147194
146323
140426
125355
45461
35616.7
99526.8
143196
241381
373553
514099
653526
786775
910415
1.01864e+06
1.10352e+06
1.15624e+06
1.15984e+06
1.1203e+06
1.04547e+06
942370
816954
677298
539288
418770
324002
272295
248955
244756
238891
224027
204970
184931
155704
48861
33404.8
75520.1
100562
148157
223866
318254
415404
505126
579460
633886
662787
659788
626387
573412
508012
437407
368013
305605
256319
235858
242808
266786
295776
322867
340245
338088
317961
282780
232840
59328.3
18689
76096.5
78824
78435.1
91989.3
138009
234821
363763
495296
613717
707129
776049
815681
829804
806329
756028
685430
600831
508371
413129
318950
229724
153373
103107
84215.8
78833.3
68694.5
56733.5
43786.5
2772.53
25003.7
85692.6
107817
126764
142614
154526
163646
169615
172747
171362
163800
149574
128236
28231.4
27724.1
121238
128727
131755
135470
142564
153881
166235
176607
184942
193792
206788
228151
260297
297674
336490
374294
411099
445657
476127
501238
518101
524572
521603
509629
484947
437757
357332
244774
44937.9
42489.9
170924
185755
192066
192500
190713
193128
208210
237613
279539
325737
368921
408773
447799
489041
533311
579041
622584
660472
689452
706584
709318
698893
677393
645731
600732
534741
440987
320295
62982.8
46983.8
204539
221526
240352
261384
282782
305965
334065
366879
404281
452958
509881
572064
637823
706287
777395
849082
915816
973489
1.0127e+06
1.0233e+06
1.00903e+06
975880
924450
845125
720692
545049
334792
164214
51835.6
54579.3
322119
479180
614899
726773
819863
903128
983727
1.06371e+06
1.14091e+06
1.21097e+06
1.26916e+06
1.31276e+06
1.33462e+06
1.33047e+06
1.30016e+06
1.24881e+06
1.17747e+06
1.07992e+06
936678
736148
504801
310847
210367
178078
168643
175492
192689
183336
47188.4
37890.9
111692
117560
120482
128686
152015
194253
246673
302181
361296
421620
486023
551504
618299
684239
745483
799115
838582
860246
859127
837671
799283
746761
682603
605205
512705
407648
299654
204508
57981.1
28656.8
75273.5
100544
154630
223400
300500
385222
472209
558528
642006
721469
795115
859331
909935
942686
951691
936778
902347
851972
790481
720348
639813
545198
438473
328227
227138
146402
104511
110495
45707
38682.1
138896
251350
367581
473876
568382
654985
735697
812656
883821
947270
999052
1.03484e+06
1.04878e+06
1.04106e+06
1.01302e+06
968178
906782
827391
726521
602512
466071
336246
229190
161535
131310
127453
145474
154261
43997.1
56151.4
304899
451730
570837
672617
761469
841510
914481
978861
1.0307e+06
1.0668e+06
1.079e+06
1.06777e+06
1.03531e+06
984953
918916
837273
735964
613694
478909
346245
231875
175013
153741
149253
152549
156503
144307
116779
36894
38233.9
101501
147379
253721
383844
515604
636184
743503
839760
927472
1.00785e+06
1.07854e+06
1.13615e+06
1.17553e+06
1.18965e+06
1.17869e+06
1.14627e+06
1.09532e+06
1.02418e+06
921870
783499
616375
445220
292753
179584
129247
131591
148037
145050
47062.8
39636.5
120501
206584
356184
523608
675733
804203
910676
1.00169e+06
1.07781e+06
1.13908e+06
1.17942e+06
1.19065e+06
1.17388e+06
1.13291e+06
1.06892e+06
980858
866143
729738
587747
452345
343533
275420
231797
211164
209723
219271
223040
196297
51474.5
38044.6
100982
149725
229267
329225
434570
531254
610428
667417
701614
713566
704276
675298
633087
584072
529537
470309
407830
348520
310790
301938
306437
311485
315188
320866
324297
322308
309893
280198
67962.6
24562.7
90144.7
78415.1
100728
160770
263015
405414
548736
673903
770431
835025
872853
888799
884729
858218
812399
752567
682231
603309
515787
419730
317226
215566
128640
73606
55263
53788.9
54108.7
50281.1
2224.59
28161.9
102795
127826
145109
155490
160212
162094
163717
165959
168404
168958
164710
152985
32523.1
30628.2
141000
136750
132899
137622
150883
167849
182882
194411
204778
218065
238509
269079
309316
346340
372874
389561
402582
415634
430016
445225
458704
468657
476547
483395
485139
467687
412061
309328
54325.3
45181.4
193277
190423
180819
171692
171233
186470
222160
273007
331959
387060
430141
459982
480334
498186
518280
542546
569655
596387
619001
634539
640559
639447
632775
623053
606676
573041
507208
400651
75138.3
50489.7
237677
233779
241185
260191
288250
326582
375729
429462
483271
539781
599377
651443
691553
718985
738521
758394
784524
817843
852423
874739
886162
889832
886033
861720
789601
648680
444785
238621
54523.6
77358.1
397228
565014
695745
786492
843355
880269
910906
944135
983014
1.02561e+06
1.06773e+06
1.10682e+06
1.13656e+06
1.15041e+06
1.15001e+06
1.1401e+06
1.12063e+06
1.08359e+06
1.00577e+06
861765
655218
442045
290708
203222
150094
158167
200519
204215
49380.2
41799.2
122069
120777
122586
139286
179249
235761
295505
354098
413380
468669
518753
563066
602800
642820
681872
722357
758038
783359
793073
786624
765627
733556
691610
637723
566603
475002
367351
258976
65199.3
31536.5
86599
124999
193614
272660
360603
448100
524662
589170
643513
692174
739157
783199
821979
852303
866412
862436
842553
809269
767820
720935
667476
599865
512338
408550
299923
201721
132907
119250
46580.3
42176.9
189442
322266
442360
539946
614711
673786
722750
767469
810901
852435
890955
922865
942833
949674
944167
928646
901071
859203
795567
701468
579356
444454
317969
215307
146568
126497
152036
167078
44925.7
68275.9
414385
564922
666041
737269
788421
829113
865227
899701
931570
959046
974993
977327
966467
944410
912821
870239
809012
719337
599373
461717
327719
222479
161629
132030
142482
165432
159467
128578
38327
41244.5
113702
188494
319571
469268
609528
720501
801417
858174
900737
938448
974774
1.0108e+06
1.04349e+06
1.06651e+06
1.07626e+06
1.07512e+06
1.06336e+06
1.03886e+06
988741
896550
756376
587288
416831
268835
160641
123438
152962
159908
47825
44773.4
150179
284496
474005
659311
803543
902795
966219
1.00981e+06
1.04377e+06
1.07361e+06
1.10014e+06
1.11537e+06
1.11661e+06
1.10552e+06
1.08126e+06
1.03955e+06
971642
868612
734938
586955
441808
329863
251645
206175
204912
235383
258943
230602
53273
42779.2
133687
205395
303181
409845
511288
595912
656762
693505
709904
710245
696355
675423
654164
631522
601259
557426
498466
433155
385183
364186
349540
327137
299356
283346
286078
302658
317543
313434
73314.1
28548.6
99069.7
97857.6
159424
258456
397246
547533
676514
774353
836936
869026
880850
878387
863525
835207
799386
758926
712280
655689
584884
496321
389825
272647
163766
86551.4
55563.4
50708.6
53420.9
51701.1
2054.5
30009.3
118053
143389
157548
162095
159207
152567
148040
149220
157241
168656
177548
177630
36153.4
33918.5
163409
147125
135187
139178
155505
174316
189730
202645
217765
240066
272414
315581
365129
400925
412591
404938
390216
376785
369620
371655
382438
399003
420651
446727
472848
482535
451341
363188
60424.4
47913.5
216896
197121
171980
154491
156843
184741
237290
303573
373359
434470
478037
500378
505993
504504
503574
507124
516076
529587
545240
559640
569770
576620
581730
588859
595883
591778
556681
473081
83814
54495.1
275105
249056
240958
253358
284649
335803
403488
475920
545416
612454
679817
730310
753565
745707
711852
667701
634676
631231
656817
695164
737683
780235
820040
842553
816271
709379
518921
299343
57490.2
100986
459344
622825
740295
807261
830483
825906
810301
797029
793705
804721
828340
860716
897212
931603
964210
993176
1.01891e+06
1.03245e+06
1.01139e+06
925529
761265
558502
386650
263466
166851
149126
203038
215968
51193.8
45446.3
133724
125790
127802
153772
206653
272330
338547
403765
466826
521439
558222
579757
585085
587055
590505
604899
629093
658055
682138
696988
699215
689961
670138
638815
590086
516724
418425
307368
70046.6
34280.8
99873.9
151602
231398
323539
423110
510586
572725
611239
631851
643181
653848
667647
687022
710482
730809
742539
743560
733924
716096
692819
663946
621794
555584
463465
354864
246270
162863
128817
46747.9
45042.9
237391
380783
500380
587009
640705
670520
684572
691054
698534
709974
729238
754411
780253
805286
826009
842326
849749
845266
819658
760148
661543
533205
396484
274437
187393
154662
168172
170804
45836.6
80788.3
512711
650180
724949
761119
771427
769305
764144
763518
770823
786653
806522
825451
840959
852272
858163
856092
836959
785703
691115
560193
418241
290234
197393
145907
149297
177297
170401
135652
39383.9
44170.6
129717
227379
376785
541238
683957
778854
828540
841264
834013
822867
818782
827871
850077
881361
914821
947046
975975
995043
993355
948615
846200
695800
522120
357589
220257
144149
160617
167462
48255.8
51589.3
187877
365767
583567
770964
891628
948241
959929
948811
934505
928917
937620
957199
982951
1.00893e+06
1.02924e+06
1.03813e+06
1.02229e+06
964196
855622
708171
548274
400261
291586
227481
222279
262226
295430
258237
55485.8
47519.3
171125
259038
364524
469492
561223
628853
666812
678285
671139
655373
638468
632589
641570
653543
652287
626350
572454
502521
448363
417001
382465
330997
269242
227151
236150
282218
326037
341418
76119.7
31279.4
108539
139838
231671
358917
509911
649491
754110
818715
845782
845340
828883
805307
777077
749263
730593
717913
702466
674515
625577
550035
446612
321387
194918
100992
59706.7
51383.9
52742
50491.5
2003.3
31022.6
130133
154090
164789
163945
153962
138989
126983
126980
142336
166645
189730
201541
39112.6
37128.2
187270
159473
137601
138348
154742
173236
188692
203654
224748
257053
301475
356213
413610
446965
443709
413723
374499
335413
302876
285273
291540
319289
360536
409894
460596
493756
482748
407746
63131.8
50376.4
240192
206401
166817
141202
146129
184304
249079
325659
402234
467956
513177
531145
526663
511211
492774
475970
463850
459205
463720
475587
491985
510696
530886
555138
582884
604484
598320
539957
89418.7
57764.5
314356
267810
240353
241336
271660
331688
414190
502212
585422
663835
739997
795832
812696
782663
707451
602683
496533
438668
450000
510997
590833
674267
754266
815383
824448
743231
564054
339463
58503.2
120312
501896
654922
759723
808029
805708
769308
715382
658494
609062
580367
580089
606987
653777
710377
774289
839742
905740
960596
985424
948265
825997
644919
470634
332282
214446
167562
205287
216638
52999.1
49184.5
146839
132558
134724
168460
229600
300813
374343
449232
519823
576687
604696
607437
580349
540246
496770
466544
463868
493340
536497
579841
611609
629331
632494
622911
594857
540725
456737
350465
72653.5
37163.9
116942
177651
266661
372580
482453
568662
617383
633752
624630
600086
571154
544505
529904
533403
555919
586376
614745
635815
647013
649231
643034
622507
574874
494462
388507
274477
183067
137083
46554.1
49334.7
279896
428677
548676
627030
663316
667370
649091
616824
583132
554044
541519
550356
580902
626634
678177
729987
774288
806133
815728
788469
713721
595143
452384
316632
220896
182900
183160
170197
47029.8
93635.4
588534
708376
760133
766741
740968
699471
653406
612053
585638
580858
600548
637612
683153
731170
776650
814405
834469
819975
752935
634569
489968
351094
237890
170823
167710
189057
176069
138535
40630.2
47930.3
151564
260606
424416
599558
741161
818560
839264
811921
758231
697572
647060
620472
626844
665090
724659
792183
862048
921694
962110
959683
894896
768401
600176
425091
269963
173778
171478
170576
49435.2
58904.1
229766
441867
677387
855518
944982
955367
916129
851615
789657
743752
728689
749500
799726
867338
937549
997530
1.03204e+06
1.0205e+06
944013
807683
639997
469719
333367
252511
247752
298919
335803
285363
59859.2
51966.5
210228
305768
411551
510100
588981
636920
648468
629261
591767
554505
535290
552312
601365
653965
682438
673247
623753
549359
491184
452492
400764
324756
235323
168512
203132
284796
342798
356723
76188
33470
124226
187263
301699
443894
592306
713064
789122
819486
810082
774917
726098
675868
634617
615670
624331
649362
671448
674097
646958
584904
487251
359825
221673
112250
61826.5
51151.9
51423.7
48288.7
2063.82
31349
137829
159960
167740
162877
147676
126642
108171
107175
130039
166798
202437
222648
41100.4
40196.3
210699
173435
139449
133411
147553
165044
180944
198985
226354
267476
321723
385188
447748
478273
462926
416912
360771
302611
246161
202209
199249
243728
310466
384897
457227
506813
507892
440656
61927.7
52242.3
260646
218665
166026
131601
137000
181851
254514
337415
417966
487606
535737
552471
542920
519019
487087
450792
414102
383549
367408
372608
400007
439447
482443
526994
574031
616925
634952
598919
91192.9
61089.7
349424
290840
241996
226868
251201
314865
407160
506924
600658
688351
772739
837049
857124
820268
725474
585405
419699
294812
281712
370286
483993
600829
711144
798131
828352
761539
585740
357135
57385.6
131327
524212
668285
767146
805688
788587
732611
653986
563729
469781
393176
362205
384414
444241
522973
613764
707283
803717
888991
945867
941983
853501
695449
528315
387714
266413
205148
215686
214252
53861.7
53108
161325
140877
141486
179215
244348
319342
399676
484650
565421
627490
653889
647527
600774
528532
439599
352784
299490
318622
386838
463023
525270
567887
591803
600786
590754
554103
484946
385802
72222.6
40542.8
137073
203521
299547
414758
532919
619459
660270
663087
633655
582476
519741
450180
388565
350399
361988
414100
477971
535581
577080
603453
615986
612051
579155
506959
401095
282499
188536
140582
46728.5
58831.8
321464
472288
594884
670525
696695
682831
641183
578563
507020
432430
371556
340344
368125
440016
529246
618502
698241
761470
799637
797589
741527
629793
481011
334529
233710
191390
184094
165450
50426.5
108026
640196
747020
785730
773653
722211
650937
570714
488835
418484
375547
385057
442665
524354
610088
691805
763581
815854
831349
787878
682535
538220
390862
267236
191114
181479
192868
174265
138124
43641.5
52459.7
181405
296780
461555
643879
784460
848848
849653
794039
706644
604654
505248
427226
400140
444989
536985
643678
751954
846600
919197
948974
913797
809364
648605
466665
297886
192470
178067
171150
53266
65130.9
276113
509337
753202
916969
976918
947618
867155
761520
657645
566436
513276
524118
598414
712180
833142
940350
1.01868e+06
1.04759e+06
1.00232e+06
881657
711581
526520
369676
274042
272065
338992
380242
319891
69427
56094.6
249210
344080
444357
533655
599109
628221
614484
563946
492254
426848
403228
449826
546956
639604
693028
695895
648676
568954
507976
464859
403805
318058
227517
184486
240639
318131
359825
349839
74156.9
35198.6
142903
230990
359773
506040
643529
742617
790531
789460
746935
677237
593422
512613
456111
456625
510018
581062
640138
669136
658658
606201
513314
386471
242979
121285
63074.9
50527
50205.7
46564.2
2810.28
31203.4
141216
161718
167465
160039
142935
120799
101252
99334
125626
171016
215161
237365
43057.8
43035.4
230818
189854
141950
124122
134299
151194
168516
189987
222753
270401
331346
400241
465449
493137
471624
418153
354824
287911
218843
156498
141263
201870
290336
383587
468681
523035
525345
456483
58861.9
54514.1
273838
233204
171117
125416
127576
175333
251413
337505
419965
492481
545039
564646
555644
529390
489278
437074
376301
315937
269463
258768
300599
371305
442923
508374
571581
629963
664790
645318
88740.8
64760.6
369696
321159
252063
214137
226069
287719
384251
491107
591144
683859
773474
846551
877365
847316
756832
618675
450647
302572
252344
331621
451621
581655
704588
800064
831662
764009
583000
356474
59676.9
136204
533700
672555
771240
808165
787445
725204
640374
540357
427170
316862
252356
263316
322922
410181
511916
618613
729248
829691
902426
912744
844732
706068
551940
417179
302359
241474
235583
219707
55642.3
57455.3
175450
148224
145942
185037
249476
325298
410249
503423
595087
665909
698264
692703
642497
562160
455754
336217
228110
201844
287328
386374
466529
523213
559731
580343
582288
559476
502674
410093
69146
46166.7
163866
230824
328419
448667
568808
657245
698354
697850
660350
598053
519512
425205
328015
238534
208366
277534
379000
466406
529400
571848
596315
600874
575129
504339
395164
274203
183534
145237
50869.8
79630.3
380751
526439
648186
722105
744515
724381
672515
596699
506121
402937
299964
205539
192041
298833
425118
542876
646845
730739
786192
798109
751715
640225
483896
329336
220979
180028
194711
190583
63320.7
126844
668117
772113
810416
792451
730007
644805
547686
441540
334329
237189
199387
287219
407803
523507
630091
723121
795478
829510
801382
705333
561475
407870
276999
196290
178739
186242
172003
150428
53318.6
60713.7
226436
334956
497625
675408
813765
875211
869208
802934
702585
580378
449071
319655
226095
270127
400811
539904
675317
792062
884317
931169
913635
824489
668212
479307
299838
189356
175532
176589
62367.2
75984.4
339160
569573
812416
962729
1.00206e+06
947763
845707
719992
590660
460526
352870
325617
419117
584738
750846
893527
1.00186e+06
1.05852e+06
1.03851e+06
932343
762322
571443
401844
294512
292605
367074
414125
360476
84767
59485.9
281734
370248
462407
541858
594199
610717
580658
507440
407810
310576
275938
357370
499363
619414
686936
695386
645876
559838
497217
455225
398617
328402
274089
271551
317039
358676
365104
323872
69327.7
37315.1
155365
260583
398340
542131
665867
743645
768730
744102
675903
577971
461463
344790
271779
319500
431424
542913
627513
671012
667464
617189
525538
400214
256502
128425
65442.1
51875.9
51964.2
48438.1
6808.21
30598.8
139689
159800
164658
156825
140761
121969
107387
108054
133783
180468
226560
247854
180547
59026.9
58371.3
181787
242258
204683
149745
118069
121368
136408
154281
177823
213540
264397
328489
399865
466010
493295
470786
420209
361148
298515
233756
179261
168827
225203
313988
407312
487574
533078
527475
454896
240009
62279
64563.3
217950
286496
248798
183064
127477
120824
165222
239857
325515
408087
482204
539691
566535
564570
542336
502285
444149
369876
289201
218432
194884
246749
339033
427970
505420
577198
642864
684653
671546
402311
78195.2
80396.1
276395
389988
349153
272630
214307
206551
257599
350538
457820
558181
650100
740110
821276
867988
855442
787311
676684
544977
427455
369697
404391
498300
615192
729327
812102
829172
748493
565920
361781
223887
91957.7
108966
433699
554253
678630
773646
812893
797465
742702
668140
581754
486542
392455
321418
303691
333883
398492
484530
582157
687466
785092
855641
865734
804183
679433
540530
416894
319444
278073
280719
283007
269349
64701.6
70420.7
212731
215114
173996
156780
185748
243036
316131
401791
499631
600878
683614
728941
733356
694284
624869
532097
427384
328766
278564
314641
385688
453571
506335
543323
566650
573304
556432
503879
415240
243620
65230.3
71375.2
220135
228398
267236
347554
463439
584137
677274
725354
730236
697667
641028
567775
479031
385039
295530
251528
293130
377685
459088
521511
565140
590840
595014
566684
491109
376928
256012
197472
241598
257638
91515
106242
452436
503581
601741
708257
780079
804555
786904
738317
667455
581656
482353
382176
290666
256146
318085
423344
535081
638826
724979
782222
794956
748910
634203
473593
319766
239044
275926
347886
371256
313824
97102.2
111996
518382
677566
788243
835602
823152
766054
686035
593525
491935
386758
285108
227676
283285
390496
502752
610399
706570
783048
820949
798063
705313
560886
403433
266282
177358
162120
189786
216612
248341
236668
84600.9
88063
354608
342047
396632
530071
695405
831807
898324
896732
837788
746528
633799
509402
382200
280992
284925
391600
522463
654494
773164
865434
914623
901146
817279
661790
467386
278717
171758
197708
245177
245736
84158.5
87630.2
342572
435935
635900
859625
996321
1.02869e+06
968882
868067
748034
620608
486348
362277
302607
373790
549687
726267
879072
996463
1.06228e+06
1.05625e+06
960187
795420
606085
430450
314215
300243
365520
418132
392294
288619
59661.6
57704.9
224770
310574
385193
464734
533894
578229
590133
556145
477340
370886
263611
229769
331695
481717
600917
666619
672921
617281
525920
462917
428519
391911
357389
347332
366595
391776
396744
370812
314734
204234
45138.6
46258.3
174543
205923
291019
419613
553065
662244
723437
734510
697699
617053
507394
378989
249266
181500
291548
430824
551608
638848
681300
672959
617209
523479
400985
262003
132865
68527.9
60062.9
63448.7
62077.8
45250.9
7771.95
3049.82
29686
134129
154538
160549
154418
141303
126057
114641
116734
141469
186268
230197
250560
219511
149521
150035
215587
241242
212035
158751
116588
109331
120609
138655
163518
199731
249746
312596
383180
449999
481547
465774
426275
381196
334350
288636
255372
255081
297250
367901
444601
506896
534210
512388
429363
282740
189582
188706
261094
286285
253499
193050
134746
117745
153081
221030
301186
381491
455830
518867
556882
567874
555847
525843
476043
409288
334597
271663
252030
290612
365928
446000
518305
585419
644597
680373
664848
525628
265844
246510
345973
409423
390349
316346
238518
204517
234735
315151
415291
508986
592127
675176
761106
826562
842386
808886
738214
650237
569907
525130
533987
594260
681515
768471
825087
818152
722700
546913
375215
284536
253824
310001
419944
542774
665278
761679
811266
810529
773334
718715
656618
592090
530885
480163
450589
448978
476354
528062
596868
676447
752586
803144
802266
738180
622011
495948
382443
297173
263956
266459
264181
265507
265739
263249
277063
246033
196247
167914
181464
227502
293044
373840
470237
576508
671446
735035
756859
739860
693394
629581
557933
491302
445698
434958
456932
489916
520565
544187
558443
559079
537080
480321
392944
296906
227407
250497
275622
251909
271199
339530
450028
570997
672014
734391
753822
735657
696710
644161
582161
518485
462081
428447
433296
468807
514477
554822
584234
599527
593920
556140
476775
368812
276269
271936
348754
416469
443842
454255
457499
518189
627437
741120
824675
862531
859535
826296
774788
709494
635650
563024
500484
466970
479729
530386
602917
679309
746106
788402
790154
736980
622344
471813
335062
260720
271589
320858
351708
353391
348873
381655
530354
674607
796121
859880
864146
824918
763612
692596
615231
539896
472631
430950
436948
486599
559320
641370
719721
781874
808298
778875
685175
542190
385532
247700
164198
176022
226815
278190
326473
363697
377442
376030
372752
319624
384693
519922
683932
827790
912511
930536
894379
827557
742981
651909
563089
495992
476631
520717
603183
700845
795318
867903
903292
881350
793913
637687
443725
264021
191558
229451
280314
313862
320502
318969
328220
442849
654087
876753
1.01924e+06
1.06014e+06
1.01713e+06
936232
839966
739900
639495
551970
507920
537928
644526
777107
904279
1.00601e+06
1.06407e+06
1.05734e+06
967032
810081
625115
447639
319511
278922
324252
380212
371458
305572
237024
219029
269197
313196
378443
448605
510903
552242
564021
536484
473367
391606
321282
316942
393231
500848
589056
635585
631077
568414
473497
411880
389499
382176
388685
414396
444473
458920
447495
411079
360576
309488
278174
256433
236612
242285
305671
417762
538371
635903
688151
693674
655967
579818
482078
380589
306293
312146
393855
499919
597170
666459
693635
670541
603664
505090
385676
255374
134508
69773.5
61722.3
65525.7
64239.5
53451.7
29592
2467.15
28504.9
124686
146890
156320
154154
144749
132590
123114
124692
145638
184390
223128
241570
218534
144289
143354
207975
230615
212433
167769
122920
104765
109004
125277
149728
183094
227232
283676
351016
418867
459133
457977
437045
412570
388527
366771
352912
357073
384172
430307
481009
518227
523152
482922
389851
265475
168345
169776
245297
268839
248680
201167
147574
122927
145105
199591
267573
340067
413686
482381
534085
563485
570605
560493
533041
490536
441418
400116
382791
398543
439959
492132
543648
591156
628566
642417
606714
508837
281926
254277
360176
424548
425118
363178
279435
224134
230986
292052
375481
453408
519080
586632
671621
753758
802614
809462
782135
737415
692883
665596
664172
695154
746908
796789
818579
783498
675632
511615
365785
285348
246595
280101
376836
499531
620327
722989
790199
813693
802521
773507
738689
703163
669274
638416
613887
598588
597997
614322
645346
686807
726655
745802
724783
653631
542635
425631
319593
246865
227984
236144
238039
243414
255657
267564
286566
257624
209400
175027
173103
204605
258897
329773
418067
522041
625056
706501
751882
762583
744365
711421
670166
627933
591318
564558
553682
552958
555510
556508
551987
535826
500061
437151
359554
310141
266486
284798
288592
245654
251521
308035
407921
525433
634604
715572
758350
764188
749551
723975
693350
660686
629973
605771
592784
593959
603311
613646
619468
614836
591492
540877
460910
369505
307443
313782
359395
391272
393928
388605
409542
491633
608621
734573
839341
902265
924338
916184
892628
857467
815699
769867
727320