/*--------------------------------*- C++ -*----------------------------------*\
| =========                 |                                                 |
| \\      /  F ield         | OpenFOAM: The Open Source CFD Toolbox           |
|  \\    /   O peration     | Version:  2.1.1                                 |
|   \\  /    A nd           | Web:      www.OpenFOAM.org                      |
|    \\/     M anipulation  |                                                 |
\*---------------------------------------------------------------------------*/
FoamFile
{
    version     2.0;
    format      ascii;
    class       volScalarField;
    location    "0.006400000";
    object      p;
}
// * * * * * * * * * * * * * * * * * * * * * * * * * * * * * * * * * * * * * //

dimensions      [1 -1 -2 0 0 0 0];

internalField   nonuniform List<scalar> 
12384
(
864195
862694
864558
863286
864409
864495
864018
864247
864797
864001
864723
863947
863410
864650
872747
872729
873359
872438
874915
873653
877670
876332
880322
879593
882045
882183
882751
882211
882052
878731
876984
872063
870141
864312
863473
862245
859580
861700
862403
864113
864716
865189
865490
865655
888210
887282
886269
884732
883018
880801
879970
877757
878031
874904
874766
868270
867140
857462
855064
843391
845282
832881
835551
830082
833071
833955
840736
843835
851267
854937
857712
858933
859901
860338
915040
913744
912849
911298
909927
909975
910482
910944
911885
912562
911930
909896
905335
898529
886451
882796
860712
865456
842242
849357
836627
846711
851725
858122
862684
864622
865188
865062
865368
866190
805727
803075
809425
811300
814642
816186
816018
814235
811512
810148
810528
806106
820061
809806
841394
832532
860297
866630
877347
881386
883195
883345
882629
881791
880800
881084
881026
882057
882016
881968
937308
933655
928665
921087
913444
902848
901062
883813
889005
869218
875601
853451
860199
833260
842425
816212
826192
809141
816020
812039
823748
820303
833463
831998
838410
839175
839897
839881
842048
841286
846693
847390
847386
847824
848427
848865
848915
846721
846644
837468
840262
826697
832279
823199
827817
824463
830037
833659
840443
843541
847519
850763
851684
853506
855268
855859
856611
856123
857950
858091
812957
814006
814713
813118
811129
805013
805759
790665
794727
776729
783268
769905
772750
782933
777010
793651
798815
803951
808362
812114
815730
816296
816953
821360
819696
824171
825749
827687
828669
829405
837930
838540
839099
836603
833658
830504
824958
808749
815902
807774
804893
806848
812156
817329
824536
829963
833590
835409
835687
834929
833715
831980
830249
827145
827561
823737
824922
820543
821942
819392
803210
802800
805757
805546
808574
810257
812377
812353
811092
809763
804100
800534
805282
797505
813733
815363
828998
835524
844616
847771
850537
852615
853447
852312
853542
852424
855335
855744
856894
857177
899709
898652
897801
897127
896767
895726
888224
877395
883060
861979
854985
863268
861786
864200
869553
873971
876025
875190
872533
869032
863927
860755
858204
856617
852349
854186
848897
850612
844835
845097
879997
879357
879462
878858
878935
878603
878612
877627
877409
873541
881007
876234
886675
890644
896070
899958
904017
904460
903243
900070
897673
893917
889896
889414
882955
885923
884354
884585
883748
884198
884911
885316
883922
883779
882062
879899
877675
876455
874289
868417
868948
855989
859726
846354
850362
844795
846840
846141
846123
844856
842882
840244
837094
835547
832086
832862
828557
830347
827317
828646
864313
863421
864364
863643
865172
863870
864600
864698
865907
865706
865305
866998
867652
865589
871281
870804
871178
872452
874118
873546
876141
877144
879699
880473
881539
882249
882244
881793
880268
878094
874839
871163
867741
865324
861002
861057
859596
859334
861729
862736
864792
865849
866395
866932
887190
886275
884764
883115
881562
878394
877897
877411
875437
875269
871530
869160
863873
858174
851943
844134
840415
831422
835390
828388
830769
833355
836800
842790
849999
854142
857501
860229
861281
862083
913322
911937
910240
908531
907585
906970
907251
908241
908742
909100
908849
906565
902369
896462
884562
876772
860696
855382
840588
838620
839640
838662
844993
851976
858371
863211
865212
865675
866588
865759
804806
803198
807747
809818
811640
811759
810680
808481
806568
804144
801143
807598
804867
816612
820670
832625
850139
859849
872738
879065
883062
883875
883582
882688
881086
881026
880918
882146
882087
881607
936467
932687
928052
920313
912625
903527
897956
885551
886797
871154
873022
854015
854484
834552
833682
818757
818903
810304
808876
812600
817154
820798
827138
831100
837424
838361
840281
840961
841799
842412
846759
847216
847624
848083
848596
848701
848227
846088
844581
837385
837092
826825
829541
822797
823887
824797
831316
828915
837970
840553
846820
849724
853089
855743
856187
857184
858511
857317
857912
856630
818752
815992
814093
813564
809632
805869
803574
789423
790805
777712
775976
773246
772613
775670
778176
790335
792954
801869
806972
814597
815942
817279
818769
821561
820748
823611
825543
828237
828264
828935
837032
838383
837134
835340
833244
826295
817877
810974
812644
797607
801104
804095
808424
813352
820007
826168
831598
835356
836631
835752
834047
831868
829784
826734
827181
823423
824077
820489
821567
819267
804834
803846
805580
805798
808700
810792
811120
810983
809990
805236
799427
800886
796765
803619
801843
807793
823436
829453
841521
845922
851414
852467
853100
853261
852140
852801
853900
855561
856003
856886
899303
899253
897632
896976
896390
891024
886177
878698
872693
853952
861307
848288
848941
857278
864047
870325
874700
876438
874463
870898
865455
860365
857131
856885
852736
852189
849898
849485
844403
846049
878595
878996
878166
878251
877995
877737
876292
875421
873354
874421
873378
877630
883092
883479
896593
898990
901046
902897
901690
899970
896194
893559
887770
887302
883435
882747
883606
884048
884813
885050
884143
884064
883364
882450
882584
879689
879739
875867
876630
866778
867791
854246
854143
846973
845667
845436
843838
844606
844430
843765
841888
839973
836723
835433
831926
831771
829227
828975
827972
828066
863184
863930
864918
865263
864907
865554
866288
865932
864774
865250
867510
865447
865094
868754
877178
876690
877207
876574
876493
878018
878345
879417
879702
880462
881205
881422
881464
880723
879230
877212
872228
871000
863993
864969
858871
859324
856477
857966
859341
861010
863830
864996
866293
867155
885356
883698
882689
880361
878449
877597
876366
873863
874898
872400
871472
867120
863031
856069
851726
841621
836790
832228
832297
826026
831177
833719
834277
840935
849118
852383
856131
859867
861757
863551
909210
907702
906364
905606
903965
903427
903539
904409
905444
905602
904788
902832
899515
891963
880670
872391
856066
848482
833217
837546
826603
833305
837936
844317
852356
858384
862315
864720
865432
866200
804860
804672
806542
808178
808673
807408
805702
804160
801156
797106
798760
793769
805901
800852
816519
820441
840105
849762
863512
872068
877370
880844
882296
882766
881854
881405
881136
882376
882820
882862
935071
931756
927309
919086
912578
903635
895306
887794
885160
870099
871513
849078
854048
828532
832912
814744
813324
804731
808465
805473
811066
815554
824586
827421
833060
836569
839474
840065
841858
842033
846543
847123
847828
848494
848789
848527
847723
844302
844609
835161
836496
824346
828214
819036
822836
820853
827662
827507
836021
838717
844225
848727
853094
854308
857606
856858
857382
858410
857952
859488
816337
817970
818388
812140
812894
802161
804114
784712
792174
769792
778434
767877
767824
776120
773493
785970
787398
799639
804811
810376
813242
817292
820749
820331
822946
823156
826379
827503
828948
828755
837461
837915
836519
832641
832718
820892
811971
811994
800690
796222
799982
797796
802101
807780
814377
820635
826529
830944
833541
834171
833230
831303
829527
826376
825955
823641
824039
820307
821830
819311
804222
804295
806542
807485
809470
810994
810897
810450
806324
799811
799556
792104
789014
790217
801415
804170
811151
820688
832203
840694
845299
850032
852706
852653
854650
854588
858183
857659
858706
856616
900535
898944
899201
896449
895223
887873
883508
871399
862084
855455
845531
842199
845224
845192
853723
862980
868686
871369
871678
869020
865094
861134
857024
856972
852091
852677
849878
850123
845102
846116
878408
877341
877083
876518
876118
875093
873598
870833
869704
865075
866318
872144
883549
881585
889693
897121
900269
900224
900412
898268
896168
891090
887266
885212
881554
882291
882183
882706
883743
884539
883135
883154
882852
882206
881753
879316
878741
874761
873179
865383
861422
852188
849137
843889
843677
840516
842193
841851
842530
842333
841594
839469
836955
835509
832057
832181
828556
829516
827217
827854
865648
865375
865645
864784
866114
865419
865911
865520
867887
869317
867625
870252
870245
866744
874733
874666
874752
875674
876414
875641
876793
878426
880445
880395
880904
881067
880700
879699
877424
875438
869728
869144
862303
859884
859047
855269
856604
855581
857308
858764
862469
863830
865649
866939
880867
880507
878943
877716
876721
874712
873543
874430
871743
871557
868417
865536
859952
855923
848187
840034
833840
835279
825510
826781
830232
832530
833088
839051
847675
850770
854987
859440
861878
864062
904102
902957
902149
900127
898844
898816
898689
898734
899776
900752
900077
898063
893300
885556
876898
865844
848386
838258
833349
822886
827508
827739
831827
837172
845294
852377
857746
861748
865017
865500
803347
805324
806588
806089
805845
804249
801188
794382
788292
785037
781214
789366
784043
798976
803906
810666
826892
837681
852447
863345
871307
876537
879693
881200
881684
880698
882033
883044
882579
882194
933148
930416
925383
918098
912060
902128
895634
886326
883549
868135
870267
846192
849286
826134
827924
810645
802755
806287
797626
804932
804598
810951
817803
823376
829115
834338
837377
839119
841046
841890
847350
847199
848008
848677
848903
848358
847260
844121
843452
833156
834052
823115
821370
819741
816723
820313
822355
824922
834419
834953
842244
849101
851131
856447
858422
859453
858659
861458
861382
858541
823859
822342
817631
817036
810652
806130
797938
785569
786345
769255
773245
765508
767087
765642
773304
778199
783849
795955
800810
805892
813011
818806
818497
821669
822411
825664
825296
828347
829177
830303
837644
837965
834471
831622
828163
811745
811738
806633
788750
796094
787519
788312
792040
798638
806498
813707
820443
826139
830009
831887
831816
830431
828797
825961
825978
822746
823702
820423
821503
819357
805757
806593
808002
809393
810281
811228
810149
807737
800049
796765
792680
784973
781600
779086
782762
794340
806794
808126
825708
831358
840466
848277
850333
853817
853389
856133
854345
856508
856296
857539
901108
899880
898755
897201
893088
882823
880508
858399
858743
840800
830673
837040
838325
843886
843108
849952
859360
865116
867181
866625
864808
861580
856623
857317
853612
851439
851249
850527
845938
846535
874819
875081
874306
873191
870886
869349
867833
867022
863447
865896
863651
863966
872234
881070
884478
890172
897514
899098
897395
897379
892975
889980
885030
882282
880532
880499
881457
881622
881749
883972
882225
882447
881765
881390
881120
879046
877110
873173
870259
859380
858451
845778
846136
840842
837817
839005
838965
841210
841383
841367
840227
839176
837151
834854
832756
832250
828523
829371
827383
827010
864491
864839
864774
866783
866069
867458
866640
869217
868950
867542
868994
869020
870140
873803
882255
881959
880705
879449
879753
881414
880750
881000
879879
881036
880499
880524
879194
878042
874994
873145
866522
866260
857596
859418
852688
854346
851386
853870
855454
856684
860160
862419
864339
865783
880290
877502
876049
873780
871685
869807
869881
868382
869589
867430
866181
862136
859802
851815
847692
835464
839173
829233
823044
826590
827649
831639
832973
838211
844630
850424
853777
858541
861423
863925
897308
896323
894052
892615
891990
890096
889926
891310
891710
892998
894198
891918
886270
880723
870309
858296
838660
836872
825284
816788
810713
813568
823091
830775
838290
847479
853328
859594
860547
863036
807827
806292
806113
805482
802773
798043
792946
785771
786836
786038
784947
776319
785679
780061
796638
795859
818473
823703
843135
851821
864306
871490
876238
879715
880957
880485
882606
882654
884831
884371
931230
928319
923321
917592
910184
902294
895906
882514
885354
864793
868965
841728
850416
819130
824109
808405
796046
797819
797200
793280
800930
802624
813492
820595
823829
830433
835960
837772
839289
841028
846691
847132
847994
848684
848899
848247
847069
843819
840133
832210
833150
816702
822607
812847
816824
815887
816157
825045
830085
832767
843506
846558
853007
857065
859596
862135
861891
860566
861942
863156
824723
822138
824659
815300
815715
800476
801975
780447
784385
763829
767550
758080
759967
765094
763792
774365
779916
789584
793886
804286
814166
814833
819840
821473
824802
824154
827460
827964
829970
830788
838928
836655
833341
830445
821270
806369
811694
792060
787335
782177
782607
786808
788696
789472
796354
804911
813769
820609
826147
829384
830416
829894
828344
825669
825720
822892
823263
820193
821805
818905
808264
807554
809793
810873
811800
811238
809598
803809
795806
793968
783242
780765
783003
778653
775507
780772
792561
803232
816549
822760
840661
842235
851214
852141
859653
858291
863244
861589
862768
860253
903295
901691
898792
897111
890386
878327
871905
850814
847956
823230
833768
816892
815322
825675
838857
842312
848809
858194
862704
864694
863968
862664
857132
856215
857192
853593
850107
851489
848807
847883
873695
871900
870616
869588
869942
867556
864332
859836
856715
850262
855194
856033
861122
874672
881682
886124
890141
895427
896469
893325
892098
887133
883989
879404
880531
879203
879402
881734
882524
882025
881879
881450
881324
880924
880481
877336
875614
870134
866033
855732
848726
845236
835419
832470
831330
830139
832901
834855
837413
839128
839611
839040
836459
835526
832568
832313
828631
829603
827108
827856
866521
866437
867346
866306
867420
866916
869654
868741
869391
871961
873667
874256
872950
873248
880735
880413
883305
882140
880636
879749
881963
880622
881978
880901
881063
879789
879035
876460
873592
870683
864710
861607
856914
852989
853520
850185
852113
850969
853441
854597
857567
860414
862578
863931
871691
871883
871264
871923
871140
870635
868853
869293
867190
866920
862341
862392
854924
853380
840735
839195
838002
824596
824889
825553
823954
832261
831405
838548
841439
850935
852152
857660
860671
863468
892218
891405
890848
887956
883806
882612
883654
884897
885222
884358
883396
883005
881444
873456
863926
851068
832181
836182
813732
809274
816211
814831
818510
824654
834191
840845
850969
854506
859853
861153
806707
808647
806874
804276
802185
791423
792238
783296
780569
770360
766996
768260
770097
775701
786845
789261
807963
811114
836615
840497
857829
865486
872907
876558
878552
880513
881573
884046
885400
886022
928721
925166
922085
914757
909958
901833
895011
884280
884835
866099
864589
844244
839170
826887
804510
811693
789498
795711
788575
794745
790024
805237
802632
819260
818182
828030
831423
836829
837531
838739
845729
846364
847842
848650
848814
848355
847371
842316
839080
832631
828113
815705
819661
808874
810273
809855
816104
824948
823145
834368
841824
847257
854017
858740
862162
863523
866098
865451
863058
862066
830201
829199
823299
824013
811692
807242
791947
788682
773346
766233
758260
760523
756854
756221
761434
770354
771739
783406
791457
805329
808211
814787
820504
823447
824256
827481
827951
830406
830811
832201
839270
836395
833194
826481
816216
804340
806542
779886
787179
773887
776181
774469
782380
788393
791634
796814
807957
815419
822158
827201
829046
829120
828578
826156
825059
824101
822850
819711
821784
819144
808401
809858
812440
813751
813231
811489
807278
802091
793717
788226
778834
775257
770386
774096
779010
777397
784237
800020
799580
825992
831239
844328
848283
858962
857242
861316
859956
861943
859987
863508
903878
903560
901288
895334
887894
872996
867471
837238
837528
817496
813608
805851
804921
803928
814328
832034
840452
849155
856704
862556
864962
864761
863669
857617
856399
857805
852956
849366
848186
849737
868059
869418
869046
867373
862802
859360
855168
851277
849489
852772
848741
853989
854044
862513
878001
882228
888168
891236
893035
892520
889095
886300
880184
881475
876694
878105
878125
879499
881903
883087
881438
881136
880475
880051
878391
877163
872142
866232
864186
847077
847696
838606
830008
828270
829199
831350
831540
834153
837280
838572
839339
838125
837347
835366
833057
832070
829557
828730
827538
827329
865182
866603
866181
868307
867514
870465
869344
871105
872173
873567
873925
874716
876884
877322
888005
886065
884048
885876
884869
883959
882674
883689
881346
882156
880201
880487
876974
876819
869782
870525
860032
862043
851653
854136
847124
847865
845116
846500
848421
853812
855247
858380
860557
862258
873485
871188
870128
865474
864937
863185
863646
862715
863236
862618
862973
857706
856339
848494
841093
839688
834609
822760
827653
824467
821759
832922
829205
838836
841493
849419
851656
856957
860487
863007
884472
880919
877517
875420
878655
882568
882818
881650
882403
882763
879542
877010
873727
867698
859778
845557
829669
833861
808456
810005
807754
806325
817657
818425
832462
838578
846470
852462
852802
851458
811679
810008
808751
804407
799906
792081
787845
778426
775765
769152
772284
765610
772820
764364
787334
777096
808340
799955
831633
831344
854847
860121
869593
875662
877306
879762
881719
884681
886886
889430
924743
923846
918695
914581
908396
901183
893361
887917
877467
871856
853426
852745
824756
832506
797667
811002
783004
793975
781086
785660
789494
798101
801545
812436
817618
826030
828738
833336
835366
837614
845580
845635
846646
848039
848541
848518
846226
842448
840607
830471
827012
815970
817457
806454
809944
812012
815970
816461
825270
834727
841362
848004
855567
861099
865580
867469
866577
867406
865329
866356
834390
831913
832446
821228
818424
803788
794720
782922
775042
761246
761812
753499
749349
755455
755757
766290
765762
781867
793822
797927
806618
816181
821107
823764
826806
828536
830082
830104
831202
832838
839973
836070
833275
823120
815499
801458
799932
776983
785425
769131
770886
765614
769309
778106
784358
791901
805145
812179
817852
826304
828403
830023
829763
828922
826743
823847
824619
819773
820687
818937
811378
811138
813486
814608
815316
811953
806814
800729
792000
785362
777574
770647
768491
766051
768613
777991
778260
796042
798279
822076
830253
840955
855732
857195
863725
869473
870542
870206
870564
865988
905622
905352
902922
896217
884885
868733
860853
830695
834903
803336
806276
802831
808740
810582
807561
824789
832845
844072
854030
863218
863771
862801
865702
865228
858352
856924
857011
855027
850768
849730
864808
862012
862800
862294
860898
857560
852628
846996
839987
834237
841041
839209
859519
852776
873313
876760
885676
887602
888951
889994
888754
883761
883091
877840
878987
878831
878033
880166
882094
882514
880353
880340
880128
878708
878067
875513
870500
861259
859705
847409
835920
831318
825183
824678
822887
823278
828852
829018
835359
837312
837988
838358
837372
835679
832967
832659
829597
829152
827394
828002
868181
867871
868974
867963
870260
869233
871485
872875
875264
875626
877122
879529
880140
881637
887067
887968
887208
885677
886772
885130
884576
883486
884037
881688
881673
879103
878812
873542
871883
866097
860518
857484
852495
848851
847606
844788
847246
846946
846441
851734
854294
857892
859234
860692
862933
863145
862169
866115
865062
865397
863770
864605
862561
861176
859894
857070
855286
846812
842604
840802
830646
824075
828040
822474
824443
831930
828589
839596
842076
846295
852137
855598
860382
861772
883309
881013
879753
879839
875535
869231
865682
866651
869781
874094
878226
874149
868811
865731
857765
842822
831902
830775
814222
812865
805302
808056
813196
818854
828474
837950
843826
848637
851140
853217
818502
817142
811107
805555
800041
791311
787455
775038
778217
766474
768757
763769
767235
765516
783610
774752
806267
795491
831348
826163
853346
857280
867326
874404
878033
881355
884684
888625
892966
896853
919969
918225
915782
911010
904625
900320
889014
890218
870735
875585
848561
857262
821246
833772
796952
810554
782640
792828
781525
789609
783859
800909
795433
814155
811198
824812
826136
830519
834185
834048
843420
844911
846085
846820
848262
847398
846171
843944
839676
829448
830630
815688
818052
808279
809768
812524
810404
815042
829020
833431
840050
848680
855962
862510
866719
868047
868782
864702
865065
863257
847195
845483
833763
829959
810793
813391
785635
790328
765048
771094
750641
758708
746110
752811
752512
762946
764136
783812
788044
795339
808938
816190
820577
825327
828141
830549
830658
832493
829998
832871
845252
837754
832886
822553
815367
797925
799897
776600
782071
763874
771873
767235
772699
775923
779267
786760
805438
808362
816680
824742
828984
830379
830421
829580
828003
825064
823970
819677
818831
816316
818539
819216
820203
819391
816990
814007
808114
799165
791440
789587
776730
772057
769068
771599
761845
784139
772941
803570
794489
826949
823787
850135
851626
863778
871921
871613
872830
870573
867729
863794
918211
914271
907313
897702
884167
864407
858820
825044
829596
796282
807396
789375
789381
800563
801132
824930
829807
840759
856276
861471
868944
870116
866231
866956
865411
858320
855026
854123
855734
851955
863577
864283
860920
857488
855426
852434
846877
843971
840083
839874
842603
833222
854611
852119
867522
874744
882777
887163
890057
890281
887437
886636
881715
881520
879757
879122
881091
882653
883079
884493
880229
879826
878964
878712
875680
873261
872813
859559
850692
851974
833897
822803
827902
820723
821306
820600
829522
829562
833504
837466
838195
838765
837373
836185
833258
832961
829917
829143
828751
827841
867056
868316
868100
870747
869957
873003
872955
875960
876070
878089
880138
881905
884482
886440
890567
889291
890079
890221
890061
888794
887113
888073
885964
885191
883685
883835
881049
881220
877291
876380
868589
869287
857702
860017
848521
851150
843250
845819
842541
846051
846455
849213
852664
855036
857050
858855
858096
857663
865808
863640
865060
860588
859850
859105
859780
859318
861331
860796
859108
856168
855901
846713
846027
837885
833389
826375
827050
821337
826284
831588
829519
842540
839990
849015
850719
858482
859944
865114
859589
862793
866320
866384
864400
861487
858426
858622
860772
860992
860967
862689
867341
869404
866809
865565
857485
844749
838543
833490
813846
819280
818345
815197
822081
819315
833310
835743
844688
843842
841091
837523
834124
822018
822066
810949
811878
802539
803275
791138
788106
780148
775034
771925
770841
764054
767639
765141
786292
772570
807152
793513
832426
825820
852827
859109
867995
874281
876996
880927
881896
885027
888998
893621
895148
908931
917536
917635
916588
911727
906640
900601
889716
888990
871899
873789
851980
857665
824515
834011
799711
811694
784859
793228
782126
787823
785572
800267
795752
811856
811227
821691
823751
830083
831513
834937
831095
832152
840300
839868
843012
844683
845626
846409
846885
844581
840267
833574
831545
820811
817968
810481
813171
810385
809225
820477
827317
832281
839596
849796
856468
864378
868930
872935
872611
871695
864221
866388
849124
853042
839701
841483
831019
827885
815150
810679
790811
789360
767589
768333
752638
756213
747994
755148
749902
766584
763986
778815
787529
798016
807393
816254
822870
828165
832580
833645
835042
833727
837093
833985
843607
848823
839445
836261
833292
821256
818315
798148
800966
775095
783167
763589
770199
764257
771060
774109
779221
785670
803352
808841
815672
824845
829527
832313
833354
832693
831284
828683
825788
821521
818814
814368
810078
793124
808689
812006
814972
816082
815385
813022
810273
803762
794305
793333
782387
770417
775017
764528
774928
778885
784950
801847
801198
825974
838956
848662
861278
872801
875653
881051
880087
882461
884414
886068
893205
894998
899863
903212
901145
894185
881622
864306
857193
822980
830877
795959
806810
786895
789458
799631
797498
827099
828103
843327
852844
867599
869843
871830
870655
866655
866070
864834
861222
856233
855363
857857
856186
852238
853826
853777
854003
856590
854546
848298
846712
842393
833162
831385
840578
833865
852801
852707
864854
875386
881021
886408
888653
889717
888717
886701
884665
882720
882374
881401
881912
882943
883538
885514
881581
881636
879913
880230
879839
878669
874891
872364
870455
859590
846098
849376
837206
822333
822231
821085
820948
820521
829402
829408
834531
836075
839021
838672
838154
836003
834546
832837
830365
830066
829088
829264
827512
827787
870081
869738
871047
870316
873206
872695
876786
876164
878950
880645
882942
884967
886862
888491
890098
890320
891741
890629
890478
890503
889555
887464
888518
886259
885858
884684
883981
880814
879882
876333
871238
866360
861912
856669
849667
848655
844591
843938
842644
845810
845317
849607
852075
855788
856630
859472
856131
860188
859204
860130
859356
861532
860765
861041
860079
860956
859813
860443
859691
857211
855719
849794
847546
839037
835270
828636
830163
830720
832201
829127
832603
842813
840763
850092
853108
856619
860187
860886
856536
862020
874136
870585
867752
865350
865680
865719
863131
863188
863975
863130
862577
865635
866678
865368
859480
852742
841903
841467
831984
815969
820855
818064
821006
829447
833372
840485
843505
845255
841967
841959
825246
825282
816452
817589
808487
808921
800070
798310
787671
788390
777057
770489
770994
772316
775103
768526
785890
776271
805230
800328
828558
833007
853241
862886
872002
874252
880694
882088
886815
889372
894087
899675
901530
907756
913462
915964
913103
910523
904631
899257
890376
885999
875923
867496
857046
855651
831445
833341
809270
811153
789961
794772
788698
790950
788072
801770
795802
814057
809809
823302
822178
829023
830863
832203
831458
834736
837477
839027
841203
843067
844538
846734
846837
845240
843006
838159
834357
824340
823976
813525
810986
809703
815071
822062
822955
834123
838436
850842
855939
864813
869504
872377
872188
868289
864286
860604
849719
851547
841389
843567
830648
833451
813848
817517
788953
794190
767918
772884
751468
759333
748472
753835
754498
768059
762987
779100
791941
800377
807474
818181
824820
827764
830879
832639
832372
834453
834242
836381
839200
842501
838427
837627
831504
823928
820380
801644
802402
778853
783118
765729
772267
764373
773109
774037
781116
785806
806236
808834
817249
825913
831307
833172
833906
833736
831995
829670
829061
823866
822725
817558
814288
805983
813761
811588
816238
817703
819344
819095
816649
810116
800299
798648
786442
787914
772585
785386
772849
792438
786188
807855
812980
833032
843527
858855
869756
876776
882245
884395
887119
887649
888937
888804
895717
898185
906436
904560
903310
896442
887356
869668
859553
830446
833388
809048
808067
806536
805762
808867
813048
832883
833536
847947
862856
868866
872731
876728
875907
871080
865697
863760
862984
863237
858576
857168
858574
853438
857468
856533
856605
851869
848570
850032
844703
838768
836801
831258
840685
835970
853493
852171
867598
874270
880828
886433
889409
890701
890376
889434
887946
886270
884875
884843
884683
884960
885842
886486
881950
881758
879068
878298
877489
875874
875522
871152
867298
865189
848885
841738
845458
825007
823857
825432
825641
827192
828909
832803
838045
840162
839572
839522
837729
836899
834430
833020
831494
830730
829061
828800
828480
829224
869311
870726
869993
873361
873045
876580
876323
879208
881226
883260
884904
886735
888274
889947
891137
891726
893535
892994
891562
890932
890601
889781
887930
888853
886856
885600
885276
883623
879810
877550
874346
865301
865334
856618
849823
851983
843187
846378
843968
846506
846205
850752
853612
855706
857594
859468
857007
857369
860447
859332
858798
856974
857670
856659
857656
859187
860333
860473
859743
858604
856620
852340
849159
844192
840882
833206
828220
826958
828300
836197
837289
844994
843897
852327
854761
858739
860681
860865
853953
862400
865634
864296
862050
859163
856254
853301
853026
853004
856749
863553
866054
866287
868550
868213
863944
860189
852824
843037
841437
838029
827842
834656
829819
835791
843166
840030
845158
842255
837604
831937
827410
820657
819253
816729
809691
810683
803400
800581
792698
791514
785200
784699
778187
772687
777246
776895
786728
785890
800645
813571
832258
836412
859630
864840
874993
876901
882311
884198
888909
891102
894920
901294
900225
909792
909897
910748
911740
908193
904065
897022
891627
884447
877575
866259
862835
849584
835458
837764
811728
818521
794577
801268
788635
796061
790723
802130
799830
813797
810901
823024
823448
828317
830264
833080
832261
833634
837428
837403
839284
841731
842689
845668
846654
847577
846222
842470
838258
830053
827487
821890
819263
817693
814348
824905
821756
834346
838576
850238
856687
864439
869063
870657
869123
867333
861578
859648
847532
850973
840439
842196
831045
833147
816247
817602
793900
796801
769073
777468
756917
757031
754971
760071
754304
768509
770403
780765
797622
799678
812589
819143
825708
827367
830482
830654
833263
832679
836144
834452
840194
839732
839046
835665
833837
826073
822617
804305
804058
783768
786920
768955
773898
772251
774811
775547
782773
791669
808704
810036
819951
828510
832292
834181
834592
833918
832686
829690
829273
823651
823964
817336
816734
811477
816316
813069
817018
819908
821371
820045
819386
815012
813104
801069
798208
783541
793336
779627
796438
793680
803709
820316
823324
850739
854328
868596
877338
884495
888129
890639
890339
890833
890011
892486
897281
903218
905351
905320
904702
898643
891007
874108
865368
839333
837898
812696
817337
798282
801939
805432
817531
833126
843806
857933
868192
876234
879183
878291
877314
874606
869949
865901
863977
863080
864438
859358
857267
856915
855814
854719
851341
852494
850331
848147
843324
842485
836642
836962
844810
839008
856627
854564
868015
876618
882264
886366
890249
891471
891817
891649
890414
889408
888043
886610
886638
886498
885103
885389
881413
881101
878356
877718