/*--------------------------------*- C++ -*----------------------------------*\
| =========                 |                                                 |
| \\      /  F ield         | OpenFOAM: The Open Source CFD Toolbox           |
|  \\    /   O peration     | Version:  2.1.1                                 |
|   \\  /    A nd           | Web:      www.OpenFOAM.org                      |
|    \\/     M anipulation  |                                                 |
\*---------------------------------------------------------------------------*/
FoamFile
{
    version     2.0;
    format      ascii;
    class       volScalarField;
    location    "0.001700000";
    object      H2O2;
}
// * * * * * * * * * * * * * * * * * * * * * * * * * * * * * * * * * * * * * //

dimensions      [0 0 0 0 0 0 0];

internalField   nonuniform List<scalar> 
12384
(
3.40695e-07
3.44226e-07
3.27497e-07
8.56198e-08
9.50458e-09
3.21221e-10
5.69245e-11
3.07913e-11
5.60892e-12
5.48873e-13
1.04578e-14
2.66189e-16
3.31307e-18
7.55219e-20
1.01234e-16
1.41393e-14
5.07745e-13
9.81839e-12
6.33278e-11
2.74701e-10
1.00434e-09
1.28018e-09
1.11966e-09
9.35305e-10
4.58204e-10
3.53675e-10
2.07404e-10
2.80068e-11
5.22445e-12
5.81479e-13
4.45445e-14
2.4651e-15
3.23908e-17
2.26043e-19
4.13097e-22
8.94417e-25
1.60744e-27
3.04841e-30
5.68936e-33
9.56736e-35
2.997e-37
2.14069e-39
1.25704e-40
4.99603e-39
9.12435e-46
5.2244e-45
8.87656e-45
1.05272e-45
5.44872e-48
6.1859e-51
5.51637e-54
4.47053e-57
3.37607e-60
2.31459e-62
6.33772e-65
6.09236e-68
3.46027e-71
1.16707e-74
4.12538e-78
1.58165e-81
6.2653e-85
2.48752e-88
9.53863e-92
3.85918e-95
1.50903e-98
6.26617e-102
2.54871e-105
9.11226e-109
3.8589e-112
1.29732e-115
4.70564e-119
1.70153e-122
6.44036e-126
2.74504e-129
2.70835e-139
3.69899e-140
1.32621e-142
4.03474e-145
9.1518e-148
1.54637e-150
2.03521e-153
2.53444e-156
3.08311e-159
2.92955e-162
3.93563e-165
3.80366e-168
4.81924e-171
1.64471e-174
6.22948e-180
1.02051e-184
7.72372e-189
5.51109e-193
3.69744e-197
2.48748e-201
8.1869e-206
1.58945e-210
2.60545e-215
3.8949e-220
6.93314e-225
9.21447e-230
8.09225e-235
4.44533e-240
1.97708e-245
9.00574e-251
1.52645e-273
1.13219e-275
2.28428e-280
3.55336e-285
4.85666e-290
2.0251e-294
3.76936e-297
8.52309e-300
1.87552e-302
3.84577e-305
7.92661e-308
1.55249e-310
3.02289e-313
5.48627e-316
9.66116e-319
1.62054e-321
4.94066e-324
0
0
0
0
0
0
0
0
0
0
0
0
0
0
0
0
0
0
0
0
0
0
0
0
0
0
0
0
0
0
0
0
0
0
0
0
0
0
0
0
0
0
0
0
0
0
0
0
0
0
0
0
0
0
0
0
0
0
0
0
0
0
0
0
0
0
0
0
0
0
0
0
0
0
0
0
0
0
0
0
0
0
0
0
0
0
0
0
0
0
0
0
0
0
0
0
0
0
0
0
0
0
0
0
0
0
0
0
0
0
0
0
0
0
0
0
0
0
0
0
0
0
0
0
0
0
0
0
0
0
0
0
0
0
0
0
0
0
0
0
0
0
0
0
0
0
0
0
0
0
0
0
0
0
0
0
0
0
0
0
0
0
0
0
0
0
0
0
0
0
0
0
0
0
0
0
0
0
0
0
0
0
0
0
0
0
0
0
0
0
0
0
0
0
0
0
0
0
0
0
0
0
0
0
0
0
0
0
0
0
0
0
0
0
0
0
0
0
0
0
0
0
0
0
0
0
0
0
0
0
0
0
0
0
0
0
0
0
0
0
0
0
0
0
0
0
0
0
0
0
0
0
0
3.35265e-07
3.04327e-07
3.37144e-07
2.88403e-07
2.36516e-08
3.42527e-09
7.44156e-10
3.1853e-10
6.76294e-11
8.85977e-12
4.0755e-13
1.92832e-14
4.18927e-16
4.76872e-18
4.99482e-15
2.98805e-13
2.3341e-11
4.61478e-10
3.21333e-09
1.19982e-08
1.98072e-08
2.4783e-08
2.41933e-08
2.45434e-08
1.79212e-08
1.64389e-08
1.18235e-08
4.84531e-09
5.89067e-10
6.81759e-11
2.97348e-12
2.37606e-13
2.02102e-15
9.45206e-18
1.84276e-21
1.68708e-23
3.73016e-26
1.66726e-28
1.33205e-30
6.06347e-32
1.61328e-34
1.17078e-36
4.2523e-38
3.34225e-36
9.958e-43
2.083e-42
1.84889e-42
1.85554e-43
1.17187e-45
1.84958e-48
2.49602e-51
2.97754e-54
1.6511e-57
1.2197e-59
1.9928e-62
1.49808e-65
5.47665e-69
6.25722e-73
3.31412e-77
2.12424e-80
1.3504e-83
6.74189e-87
1.49963e-90
5.03757e-94
1.43556e-97
6.30037e-101
2.47694e-104
9.53096e-108
1.62975e-110
7.20089e-114
2.22927e-116
1.00779e-119
3.9066e-123
1.50921e-126
5.28077e-137
4.91784e-138
1.62661e-140
5.69578e-143
1.4091e-145
2.62684e-148
4.19224e-151
6.71126e-154
1.16702e-156
7.24731e-160
2.80255e-162
1.72399e-165
4.97962e-168
4.39377e-171
4.20057e-174
4.84656e-179
3.26392e-183
2.26926e-187
2.38146e-191
1.69769e-195
5.11492e-200
9.21021e-205
1.33051e-209
1.72905e-214
2.56362e-219
3.28441e-224
2.94511e-229
1.44128e-234
5.16746e-240
1.61138e-245
7.00671e-268
5.78535e-270
1.1755e-274
1.95885e-279
2.74566e-284
3.1452e-289
7.91033e-294
1.19655e-296
2.64247e-299
5.56066e-302
1.13038e-304
2.23739e-307
4.26149e-310
7.7366e-313
1.32273e-315
2.17771e-318
3.42882e-321
4.94066e-324
0
0
0
0
0
0
0
0
0
0
0
0
0
0
0
0
0
0
0
0
0
0
0
0
0
0
0
0
0
0
0
0
0
0
0
0
0
0
0
0
0
0
0
0
0
0
0
0
0
0
0
0
0
0
0
0
0
0
0
0
0
0
0
0
0
0
0
0
0
0
0
0
0
0
0
0
0
0
0
0
0
0
0
0
0
0
0
0
0
0
0
0
0
0
0
0
0
0
0
0
0
0
0
0
0
0
0
0
0
0
0
0
0
0
0
0
0
0
0
0
0
0
0
0
0
0
0
0
0
0
0
0
0
0
0
0
0
0
0
0
0
0
0
0
0
0
0
0
0
0
0
0
0
0
0
0
0
0
0
0
0
0
0
0
0
0
0
0
0
0
0
0
0
0
0
0
0
0
0
0
0
0
0
0
0
0
0
0
0
0
0
0
0
0
0
0
0
0
0
0
0
0
0
0
0
0
0
0
0
0
0
0
0
0
0
0
0
0
0
0
0
0
0
0
0
0
0
0
0
0
0
0
0
0
0
0
0
0
0
0
0
0
0
0
0
0
0
0
0
0
0
0
1.82688e-07
1.40289e-07
1.18943e-07
2.41359e-08
1.72317e-09
1.01958e-09
8.14651e-10
5.9159e-10
3.10975e-10
7.78083e-11
1.52684e-12
1.12426e-13
7.60067e-15
1.68006e-16
3.4746e-14
4.98249e-11
4.61953e-09
2.5999e-08
7.47036e-08
2.44259e-07
3.37368e-07
3.21169e-07
3.39533e-07
3.61814e-07
3.43753e-07
3.51476e-07
3.81917e-07
3.23616e-07
7.81031e-08
2.74885e-08
1.3297e-08
5.58966e-09
3.20577e-10
9.65055e-13
6.21344e-17
2.49884e-20
5.81272e-24
5.3451e-27
1.61271e-29
1.75763e-30
1.48001e-32
7.61307e-34
2.58141e-35
2.68442e-33
1.49098e-40
4.61523e-40
1.8694e-39
1.67488e-39
9.00086e-41
3.24222e-43
3.05817e-46
1.63111e-49
1.44249e-52
2.30912e-54
8.5506e-57
3.01169e-60
4.27207e-64
3.65596e-68
3.23568e-73
5.43155e-77
9.66127e-81
2.06357e-84
3.78699e-89
4.93124e-93
1.18495e-96
4.32425e-100
1.14269e-103
5.48508e-107
9.67219e-109
1.36453e-111
1.69762e-113
1.16855e-116
4.18827e-120
1.24751e-123
3.47025e-135
8.49424e-136
3.49826e-138
1.04064e-140
2.2567e-143
3.12019e-146
3.38271e-149
3.16018e-152
4.13111e-155
3.34208e-159
4.47604e-161
3.29868e-165
4.71158e-167
2.94924e-170
5.13314e-173
3.74751e-176
3.41519e-180
1.51318e-184
4.37285e-188
1.83636e-192
7.11088e-197
8.91577e-202
1.80125e-206
1.72178e-211
3.14296e-216
3.73917e-221
5.97295e-226
2.97725e-231
1.19133e-236
2.38915e-242
5.31135e-265
6.97905e-267
1.52635e-271
2.55144e-276
3.76804e-281
4.24148e-286
4.36877e-291
5.76343e-296
6.29881e-299
1.30039e-301
2.8067e-304
5.51236e-307
1.10504e-309
2.04186e-312
3.55124e-315
5.78032e-318
8.75484e-321
1.4822e-323
0
0
0
0
0
0
0
0
0
0
0
0
0
0
0
0
0
0
0
0
0
0
0
0
0
0
0
0
0
0
0
0
0
0
0
0
0
0
0
0
0
0
0
0
0
0
0
0
0
0
0
0
0
0
0
0
0
0
0
0
0
0
0
0
0
0
0
0
0
0
0
0
0
0
0
0
0
0
0
0
0
0
0
0
0
0
0
0
0
0
0
0
0
0
0
0
0
0
0
0
0
0
0
0
0
0
0
0
0
0
0
0
0
0
0
0
0
0
0
0
0
0
0
0
0
0
0
0
0
0
0
0
0
0
0
0
0
0
0
0
0
0
0
0
0
0
0
0
0
0
0
0
0
0
0
0
0
0
0
0
0
0
0
0
0
0
0
0
0
0
0
0
0
0
0
0
0
0
0
0
0
0
0
0
0
0
0
0
0
0
0
0
0
0
0
0
0
0
0
0
0
0
0
0
0
0
0
0
0
0
0
0
0
0
0
0
0
0
0
0
0
0
0
0
0
0
0
0
0
0
0
0
0
0
0
0
0
0
0
0
0
0
0
0
0
0
0
0
0
0
0
0
3.66565e-08
3.01205e-08
1.43826e-08
3.16291e-09
2.70574e-09
2.25004e-09
2.41584e-09
5.45966e-09
2.00876e-09
1.11585e-09
1.54418e-10
4.75501e-12
1.38847e-13
1.61037e-15
2.02565e-12
2.30854e-09
7.04762e-08
1.73179e-07
6.24226e-08
4.24396e-08
4.46272e-08
3.95877e-08
3.82955e-08
4.43675e-08
2.77703e-08
1.87555e-08
1.10382e-08
1.7256e-08
2.571e-08
4.7096e-08
1.11141e-07
2.42832e-07
5.20961e-08
8.17363e-09
2.88194e-11
3.05239e-14
3.1812e-18
9.47415e-22
1.42444e-24
7.44444e-28
5.91134e-31
7.95471e-32
1.26943e-32
2.80346e-30
4.45259e-37
8.45268e-36
1.90327e-34
8.01659e-35
1.09902e-37
7.19398e-41
3.75681e-44
2.40575e-47
1.03138e-50
1.53934e-52
6.36436e-55
1.65722e-57
9.96204e-60
2.12682e-62
3.9176e-66
5.11244e-70
6.67053e-74
9.52823e-78
1.51479e-82
1.19923e-86
2.59187e-90
5.36141e-94
1.09253e-97
2.28463e-101
4.72297e-105
8.89642e-109
3.38453e-111
1.43972e-114
4.62114e-118
8.99628e-122
6.45974e-130
2.67065e-130
1.08138e-132
3.38508e-135
5.86414e-138
6.65043e-141
5.22053e-144
4.59108e-147
3.78518e-150
3.5518e-153
2.65024e-156
2.4457e-159
1.83478e-162
1.63281e-165
1.34845e-168
1.28208e-171
1.02767e-174
6.05207e-179
2.25166e-182
1.02835e-186
2.23904e-191
3.54575e-196
3.79172e-201
3.7645e-206
3.42172e-211
3.45791e-216
3.70795e-221
1.97185e-226
5.33623e-232
1.09679e-237
7.36663e-259
6.31668e-261
1.11917e-265
1.77249e-270
2.47262e-275
2.73043e-280
2.36923e-285
1.69635e-290
1.23259e-295
5.01383e-299
9.08801e-302
1.73036e-304
2.97625e-307
5.34677e-310
8.84179e-313
1.50475e-315
2.39762e-318
3.83395e-321
4.94066e-324
0
0
0
0
0
0
0
0
0
0
0
0
0
0
0
0
0
0
0
0
0
0
0
0
0
0
0
0
0
0
0
0
0
0
0
0
0
0
0
0
0
0
0
0
0
0
0
0
0
0
0
0
0
0
0
0
0
0
0
0
0
0
0
0
0
0
0
0
0
0
0
0
0
0
0
0
0
0
0
0
0
0
0
0
0
0
0
0
0
0
0
0
0
0
0
0
0
0
0
0
0
0
0
0
0
0
0
0
0
0
0
0
0
0
0
0
0
0
0
0
0
0
0
0
0
0
0
0
0
0
0
0
0
0
0
0
0
0
0
0
0
0
0
0
0
0
0
0
0
0
0
0
0
0
0
0
0
0
0
0
0
0
0
0
0
0
0
0
0
0
0
0
0
0
0
0
0
0
0
0
0
0
0
0
0
0
0
0
0
0
0
0
0
0
0
0
0
0
0
0
0
0
0
0
0
0
0
0
0
0
0
0
0
0
0
0
0
0
0
0
0
0
0
0
0
0
0
0
0
0
0
0
0
0
0
0
0
0
0
0
0
0
0
0
0
0
0
0
0
0
0
2.99555e-08
3.06988e-08
2.67697e-08
9.03393e-08
2.85481e-07
1.74351e-07
1.35433e-07
8.41083e-08
7.45092e-08
2.53465e-08
4.07066e-09
1.11949e-09
4.58962e-11
3.42243e-14
2.44228e-10
2.38703e-08
1.01852e-08
2.46894e-08
2.73843e-08
4.14554e-08
4.0389e-08
2.38619e-08
1.72769e-08
1.12583e-08
5.86232e-09
4.23444e-09
2.56684e-09
2.22071e-09
3.89355e-09
5.06473e-09
5.18821e-09
5.41571e-09
9.32841e-09
1.26262e-08
6.7652e-09
1.14661e-10
3.23676e-13
5.05548e-16
4.31886e-19
1.74902e-22
2.71694e-26
1.63437e-29
2.12395e-30
1.84372e-27
1.03641e-32
4.26604e-31
6.8691e-31
1.86058e-32
2.82373e-34
8.04279e-37
7.58751e-40
4.91605e-43
1.20154e-46
6.24629e-49
1.02309e-51
5.73393e-55
4.84809e-58
1.3744e-60
8.46958e-63
1.85281e-65
4.60709e-69
8.88128e-73
1.80808e-76
3.9951e-80
8.3517e-84
1.85039e-87
3.45332e-91
6.71328e-95
1.03563e-98
1.29476e-102
7.36084e-107
1.62486e-110
1.55655e-114
8.16212e-119
4.28435e-125
6.76335e-126
1.70523e-128
5.23733e-131
1.67252e-133
2.92923e-136
2.91239e-139
2.67149e-142
2.57732e-145
2.42032e-148
2.18627e-151
1.93878e-154
1.78339e-157
1.44528e-160
1.42057e-163
1.10448e-166
1.09975e-169
8.48379e-173
6.14291e-176
1.85984e-180
3.92298e-185
4.93369e-190
5.14738e-195
4.22831e-200
3.16715e-205
2.29726e-210
1.85309e-215
9.87456e-221
2.60059e-226
5.05381e-232
2.62329e-252
2.20249e-254
3.39479e-259
4.45565e-264
5.58596e-269
6.24249e-274
5.4998e-279
3.75271e-284
2.22509e-289
1.17801e-294
1.6052e-298
2.69157e-301
4.74139e-304
7.85393e-307
1.32254e-309
2.14288e-312
3.42291e-315
5.39998e-318
8.17185e-321
1.4822e-323
0
0
0
0
0
0
0
0
0
0
0
0
0
0
0
0
0
0
0
0
0
0
0
0
0
0
0
0
0
0
0
0
0
0
0
0
0
0
0
0
0
0
0
0
0
0
0
0
0
0
0
0
0
0
0
0
0
0
0
0
0
0
0
0
0
0
0
0
0
0
0
0
0
0
0
0
0
0
0
0
0
0
0
0
0
0
0
0
0
0
0
0
0
0
0
0
0
0
0
0
0
0
0
0
0
0
0
0
0
0
0
0
0
0
0
0
0
0
0
0
0
0
0
0
0
0
0
0
0
0
0
0
0
0
0
0
0
0
0
0
0
0
0
0
0
0
0
0
0
0
0
0
0
0
0
0
0
0
0
0
0
0
0
0
0
0
0
0
0
0
0
0
0
0
0
0
0
0
0
0
0
0
0
0
0
0
0
0
0
0
0
0
0
0
0
0
0
0
0
0
0
0
0
0
0
0
0
0
0
0
0
0
0
0
0
0
0
0
0
0
0
0
0
0
0
0
0
0
0
0
0
0
0
0
0
0
0
0
0
0
0
0
0
0
0
0
0
0
0
0
2.02045e-07
2.49893e-07
3.30735e-07
6.34965e-07
5.81753e-07
5.25177e-07
3.50831e-07
2.75835e-07
2.2196e-07
1.44597e-07
8.95437e-08
3.92871e-08
1.47906e-09
1.07527e-11
1.04754e-09
4.01199e-08
2.58806e-08
2.21874e-08
4.37917e-08
1.08853e-07
1.2541e-07
6.52967e-08
2.89449e-08
1.26679e-08
5.78897e-09
2.67844e-09
1.37058e-09
7.06265e-10
6.16024e-10
9.42556e-10
1.22678e-09
2.0922e-09
2.19134e-09
2.90875e-09
4.00659e-09
2.09309e-09
3.49237e-10
2.97448e-12
1.48046e-14
4.90601e-17
6.22489e-21
8.00796e-25
4.80901e-28
7.11481e-25
4.38991e-28
2.80502e-27
2.468e-28
3.98709e-29
2.78653e-30
2.91645e-33
1.10262e-36
1.76891e-39
1.5486e-42
1.49174e-44
1.05186e-47
2.10635e-51
4.6901e-55
2.19664e-58
3.88833e-61
1.5168e-63
6.38583e-66
1.0347e-68
3.84659e-72
1.16413e-75
3.42133e-79
9.28154e-83
2.42659e-86
4.80591e-90
9.27202e-94
1.34539e-97
1.4684e-101
9.6062e-106
5.98258e-110
2.16616e-114
8.34361e-121
7.8802e-123
4.26147e-126
5.01632e-129
1.20447e-131
5.83646e-134
5.47584e-136
2.00955e-138
3.22954e-141
4.21224e-144
4.51623e-147
5.00274e-150
4.79691e-153
4.63913e-156
4.4758e-159
4.027e-162
3.71211e-165
3.37497e-168
2.78885e-171
2.4264e-174
4.22375e-179
5.46665e-184
4.57488e-189
3.53507e-194
2.10147e-199
1.3001e-204
7.44872e-210
3.96529e-215
1.16861e-220
2.16149e-226
7.67279e-246
5.78794e-248
6.44557e-253
6.22857e-258
6.32636e-263
6.45294e-268
6.05579e-273
4.554e-278
2.77059e-283
1.36783e-288
6.01338e-294
3.39945e-298
5.05591e-301
8.4333e-304
1.29691e-306
2.09609e-309
3.13324e-312
4.84513e-315
7.01976e-318
1.04149e-320
1.4822e-323
0
0
0
0
0
0
0
0
0
0
0
0
0
0
0
0
0
0
0
0
0
0
0
0
0
0
0
0
0
0
0
0
0
0
0
0
0
0
0
0
0
0
0
0
0
0
0
0
0
0
0
0
0
0
0
0
0
0
0
0
0
0
0
0
0
0
0
0
0
0
0
0
0
0
0
0
0
0
0
0
0
0
0
0
0
0
0
0
0
0
0
0
0
0
0
0
0
0
0
0
0
0
0
0
0
0
0
0
0
0
0
0
0
0
0
0
0
0
0
0
0
0
0
0
0
0
0
0
0
0
0
0
0
0
0
0
0
0
0
0
0
0
0
0
0
0
0
0
0
0
0
0
0
0
0
0
0
0
0
0
0
0
0
0
0
0
0
0
0
0
0
0
0
0
0
0
0
0
0
0
0
0
0
0
0
0
0
0
0
0
0
0
0
0
0
0
0
0
0
0
0
0
0
0
0
0
0
0
0
0
0
0
0
0
0
0
0
0
0
0
0
0
0
0
0
0
0
0
0
0
0
0
0
0
0
0
0
0
0
0
0
0
0
0
0
0
0
0
0
6.96505e-07
6.96957e-07
6.77402e-07
5.001e-07
4.50623e-07
4.34836e-07
3.62718e-07
3.39446e-07
3.35201e-07
3.00164e-07
2.23289e-07
1.46301e-07
7.65416e-09
8.60453e-11
2.87521e-09
8.11476e-08
4.48281e-08
5.29548e-08
1.80739e-07
3.21055e-07
3.33931e-07
3.19917e-07
1.85546e-07
5.30338e-08
1.29512e-08
4.6082e-09
1.4527e-09
6.45088e-10
3.29899e-10
3.00134e-10
4.42928e-10
5.48655e-10
8.53133e-10
1.10447e-09
1.38817e-09
4.6978e-09
1.05988e-09
3.28501e-10
1.90068e-11
3.2919e-13
1.57603e-15
2.0435e-19
1.55776e-23
3.63791e-22
7.88286e-24
6.61757e-24
2.84786e-25
1.26079e-25
3.92486e-27
4.79426e-30
5.33624e-33
3.52119e-36
3.09253e-39
7.75408e-41
6.10967e-44
9.01271e-48
1.34476e-51
2.7123e-55
1.08576e-58
1.42349e-61
3.999e-64
1.10869e-66
2.59484e-69
3.72687e-72
2.44881e-75
1.14801e-78
4.31235e-82
1.44283e-85
3.71532e-89
7.58939e-93
1.1818e-96
1.10078e-100
5.01118e-105
8.92167e-110
3.18266e-117
2.7287e-119
1.24343e-122
4.2644e-126
2.71299e-129
3.87585e-132
1.649e-134
1.59367e-136
1.67605e-138
7.99901e-141
1.77467e-143
2.73153e-146
3.62121e-149
4.23712e-152
4.89212e-155
4.93498e-158
5.42643e-161
5.03446e-164
5.08887e-167
4.5452e-170
4.16772e-173
4.72565e-178
4.16165e-183
2.78451e-188
1.54014e-193
7.69985e-199
3.57546e-204
1.75892e-209
5.74533e-215
1.03118e-220
1.72913e-239
8.86282e-242
6.4041e-247
4.72065e-252
3.68201e-257
3.22752e-262
3.01808e-267
2.64098e-272
1.84948e-277
1.02677e-282
4.82442e-288
1.93137e-293
5.91164e-298
8.11375e-301
1.23583e-303
1.86975e-306
2.77242e-309
4.09083e-312
5.85694e-315
8.39651e-318
1.16599e-320
1.4822e-323
0
0
0
0
0
0
0
0
0
0
0
0
0
0
0
0
0
0
0
0
0
0
0
0
0
0
0
0
0
0
0
0
0
0
0
0
0
0
0
0
0
0
0
0
0
0
0
0
0
0
0
0
0
0
0
0
0
0
0
0
0
0
0
0
0
0
0
0
0
0
0
0
0
0
0
0
0
0
0
0
0
0
0
0
0
0
0
0
0
0
0
0
0
0
0
0
0
0
0
0
0
0
0
0
0
0
0
0
0
0
0
0
0
0
0
0
0
0
0
0
0
0
0
0
0
0
0
0
0
0
0
0
0
0
0
0
0
0
0
0
0
0
0
0
0
0
0
0
0
0
0
0
0
0
0
0
0
0
0
0
0
0
0
0
0
0
0
0
0
0
0
0
0
0
0
0
0
0
0
0
0
0
0
0
0
0
0
0
0
0
0
0
0
0
0
0
0
0
0
0
0
0
0
0
0
0
0
0
0
0
0
0
0
0
0
0
0
0
0
0
0
0
0
0
0
0
0
0
0
0
0
0
0
0
0
0
0
0
0
0
0
0
0
0
0
0
0
0
6.0549e-07
5.32e-07
4.45356e-07
2.87132e-07
3.17736e-07
2.84535e-07
2.80049e-07
3.08086e-07
3.2097e-07
3.44391e-07
2.74949e-07
1.37588e-07
7.47218e-09
2.03167e-10
1.43872e-08
1.93689e-07
1.25672e-07
1.61796e-07
3.2982e-07
2.68028e-07
2.65643e-07
2.96974e-07
3.35923e-07
2.69862e-07
6.42162e-08
1.28214e-08
2.99775e-09
1.05859e-09
3.28585e-10
2.1828e-10
1.91069e-10
2.04459e-10
2.57986e-10
4.2022e-10
4.77163e-10
4.25572e-10
1.39568e-09
6.08642e-10
2.91907e-10
3.99901e-11
5.78511e-12
4.24456e-14
1.91324e-18
3.4334e-19
1.09439e-19
1.49848e-20
5.68695e-22
1.41244e-22
1.49494e-23
1.40825e-25
1.9874e-28
1.00268e-31
4.32685e-35
2.2975e-37
2.13926e-40
1.69725e-44
2.4775e-48
4.82511e-52
1.19496e-55
5.25971e-59
5.47335e-62
1.0513e-64
2.18636e-67
3.43827e-70
4.36194e-73
5.49271e-76
6.65286e-79
5.43999e-82
2.84813e-85
1.04317e-88
2.51218e-92
3.82089e-96
2.08792e-100
2.11313e-105
9.93889e-114
9.15147e-116
3.99212e-119
2.18602e-122
3.06068e-126
1.01858e-129
1.54338e-132
8.52708e-135
7.76027e-137
5.8536e-139
2.62334e-141
7.59726e-144
2.04224e-146
3.87177e-149
6.545e-152
9.31723e-155
1.19903e-157
1.41033e-160
1.55377e-163
1.59827e-166
1.6085e-169
1.47899e-172
1.25355e-177
7.41319e-183
3.67314e-188
1.60608e-193
6.65597e-199
2.65898e-204
8.55417e-210
1.7142e-215
7.95776e-234
2.11614e-236
1.02737e-241
5.67287e-247
3.54161e-252
2.53668e-257
2.1748e-262
2.03828e-267
1.75906e-272
1.1788e-277
6.38894e-283
2.81774e-288
1.06774e-293
3.32818e-298
4.28152e-301
6.10448e-304
8.56222e-307
1.20185e-309
1.65375e-312
2.26866e-315
3.04897e-318
4.11063e-321
4.94066e-324
0
0
0
0
0
0
0
0
0
0
0
0
0
0
0
0
0
0
0
0
0
0
0
0
0
0
0
0
0
0
0
0
0
0
0
0
0
0
0
0
0
0
0
0
0
0
0
0
0
0
0
0
0
0
0
0
0
0
0
0
0
0
0
0
0
0
0
0
0
0
0
0
0
0
0
0
0
0
0
0
0
0
0
0
0
0
0
0
0
0
0
0
0
0
0
0
0
0
0
0
0
0
0
0
0
0
0
0
0
0
0
0
0
0
0
0
0
0
0
0
0
0
0
0
0
0
0
0
0
0
0
0
0
0
0
0
0
0
0
0
0
0
0
0
0
0
0
0
0
0
0
0
0
0
0
0
0
0
0
0
0
0
0
0
0
0
0
0
0
0
0
0
0
0
0
0
0
0
0
0
0
0
0
0
0
0
0
0
0
0
0
0
0
0
0
0
0
0
0
0
0
0
0
0
0
0
0
0
0
0
0
0
0
0
0
0
0
0
0
0
0
0
0
0
0
0
0
0
0
0
0
0
0
0
0
0
0
0
0
0
0
0
0
0
0
0
0
3.09053e-07
2.52393e-07
1.32689e-07
1.12982e-07
1.52438e-07
1.5003e-07
1.50395e-07
1.32607e-07
1.3115e-07
2.62096e-07
3.1414e-07
1.09073e-07
1.00072e-08
2.65034e-09
2.62251e-08
5.3188e-08
6.79861e-08
3.31815e-07
2.57701e-07
3.3585e-07
2.22135e-07
1.89269e-07
2.24088e-07
2.68061e-07
3.09092e-07
3.41803e-07
2.58181e-07
4.61113e-08
6.04307e-09
1.27308e-09
4.28274e-10
2.02808e-10
1.26352e-10
1.08373e-10
9.88352e-11
1.14175e-10
1.45417e-10
1.98565e-10
2.00229e-10
4.76417e-10
6.89296e-10
3.33195e-10
1.35874e-10
5.25308e-11
7.39261e-13
1.57673e-15
4.39247e-17
6.47894e-18
6.7997e-18
1.27024e-17
1.30514e-18
2.6814e-19
2.63164e-20
1.14896e-21
3.07326e-24
1.56329e-27
1.1745e-30
1.67866e-33
3.18624e-37
2.27105e-41
2.60996e-45
5.39104e-49
1.30141e-52
4.44681e-56
2.00612e-59
1.71076e-62
2.08229e-65
3.29452e-68
4.09396e-71
4.68171e-74
5.27892e-77
6.1333e-80
7.53819e-83
1.00328e-85
8.89697e-89
3.85834e-92
5.81858e-96
6.84771e-102
8.84683e-105
4.18856e-108
8.91864e-111
2.58261e-113
7.60356e-116
3.47653e-119
3.03921e-123
4.9492e-127
2.64326e-130
7.15032e-133
4.74573e-135
3.3024e-137
1.58047e-139
4.96491e-142
1.32223e-144
2.58564e-147
4.91695e-150
8.1059e-153
1.19194e-155
1.58416e-158
2.19382e-161
2.7178e-164
3.11836e-167
3.40456e-170
3.41606e-173
1.58816e-178
6.95347e-184
3.10007e-189
1.34438e-194
5.31353e-200
1.85451e-205
5.82486e-211
7.59392e-217
7.26766e-223
5.84821e-229
1.12094e-234
4.10962e-240
1.97003e-245
1.24823e-250
8.44919e-256
6.51213e-261
5.93982e-266
6.25902e-271
8.61086e-276
9.6863e-281
7.15759e-286
4.04749e-291
5.67302e-296
4.9825e-299
5.58892e-302
7.03751e-305
7.88903e-308
1.00486e-310
1.12224e-313
1.43e-316
1.60823e-319
2.02567e-322
0
0
0
0
0
0
0
0
0
0
0
0
0
0
0
0
0
0
0
0
0
0
0
0
0
0
0
0
0
0
0
0
0
0
0
0
0
0
0
0
0
0
0
0
0
0
0
0
0
0
0
0
0
0
0
0
0
0
0
0
0
0
0
0
0
0
0
0
0
0
0
0
0
0
0
0
0
0
0
0
0
0
0
0
0
0
0
0
0
0
0
0
0
0
0
0
0
0
0
0
0
0
0
0
0
0
0
0
0
0
0
0
0
0
0
0
0
0
0
0
0
0
0
0
0
0
0
0
0
0
0
0
0
0
0
0
0
0
0
0
0
0
0
0
0
0
0
0
0
0
0
0
0
0
0
0
0
0
0
0
0
0
0
0
0
0
0
0
0
0
0
0
0
0
0
0
0
0
0
0
0
0
0
0
0
0
0
0
0
0
0
0
0
0
0
0
0
0
0
0
0
0
0
0
0
0
0
0
0
0
0
0
0
0
0
0
0
0
0
0
0
0
0
0
0
0
0
0
0
0
0
0
0
0
0
0
0
0
0
0
0
0
0
0
0
0
0
0
0
0
0
0
0
0
0
0
0
0
0
0
0
0
0
0
0
4.53747e-08
3.77689e-08
2.1291e-08
2.34407e-08
4.5433e-08
5.12676e-08
3.30096e-08
1.51865e-08
1.06279e-08
1.17949e-08
4.74323e-08
3.05667e-07
4.32642e-08
9.69885e-09
2.64431e-08
6.4057e-08
1.07445e-07
3.08888e-07
3.27866e-07
2.39062e-07
1.85707e-07
2.29419e-07
3.26951e-07
3.3545e-07
3.38641e-07
3.29784e-07
2.45188e-07
4.56614e-08
5.3099e-09
1.05181e-09
3.04179e-10
1.45907e-10
1.07058e-10
6.6134e-11
5.75194e-11
5.26749e-11
5.68768e-11
6.37744e-11
1.09098e-10
1.08009e-10
1.11242e-10
3.97945e-10
5.87117e-10
3.15766e-10
3.51648e-10
7.06487e-11
8.3688e-12
6.02912e-13
2.04843e-13
2.26105e-14
2.34727e-16
4.06963e-17
6.75441e-18
7.21688e-19
1.31741e-20
2.88572e-23
2.94186e-26
3.99193e-30
2.14234e-34
1.68792e-38
2.36034e-42
4.99939e-46
1.34713e-49
4.35719e-53
1.52037e-56
6.81872e-60
4.00977e-63
3.74815e-66
3.77991e-69
4.01289e-72
4.19287e-75
4.50562e-78
5.01252e-81
5.83129e-84
7.34696e-87
1.07668e-89
1.48023e-92
6.9422e-96
6.67319e-100
2.43846e-103
2.10613e-106
2.23204e-109
8.24975e-113
1.0526e-116
1.51231e-120
2.34588e-124
6.45016e-128
5.86249e-131
1.55944e-133
4.72164e-136
1.20163e-138
2.84951e-141
5.5082e-144
1.04826e-146
1.83617e-149
2.84918e-152
4.44134e-155
6.6516e-158
9.68123e-161
1.25641e-163
1.62538e-166
1.96313e-169
2.77387e-172
1.53737e-175
2.72005e-181
3.84282e-187
6.40008e-193
1.77578e-198
8.54274e-204
4.67022e-209
1.24745e-214
2.77124e-220
5.12497e-226
1.24117e-231
5.12509e-237
2.46446e-242
1.30111e-247
7.29336e-253
4.74601e-258
3.86087e-263
3.62868e-268
3.7756e-273
3.6552e-278
2.79487e-283
1.72334e-288
8.95308e-294
1.4694e-298
1.43444e-301
1.85541e-304
2.41515e-307
3.07722e-310
3.93451e-313
4.91768e-316
6.16964e-319
7.60861e-322
0
0
0
0
0
0
0
0
0
0
0
0
0
0
0
0
0
0
0
0
0
0
0
0
0
0
0
0
0
0
0
0
0
0
0
0
0
0
0
0
0
0
0
0
0
0
0
0
0
0
0
0
0
0
0
0
0
0
0
0
0
0
0
0
0
0
0
0
0
0
0
0
0
0
0
0
0
0
0
0
0
0
0
0
0
0
0
0
0
0
0
0
0
0
0
0
0
0
0
0
0
0
0
0
0
0
0
0
0
0
0
0
0
0
0
0
0
0
0
0
0
0
0
0
0
0
0
0
0
0
0
0
0
0
0
0
0
0
0
0
0
0
0
0
0
0
0
0
0
0
0
0
0
0
0
0
0
0
0
0
0
0
0
0
0
0
0
0
0
0
0
0
0
0
0
0
0
0
0
0
0
0
0
0
0
0
0
0
0
0
0
0
0
0
0
0
0
0
0
0
0
0
0
0
0
0
0
0
0
0
0
0
0
0
0
0
0
0
0
0
0
0
0
0
0
0
0
0
0
0
0
0
0
0
0
0
0
0
0
0
0
0
0
0
0
0
0
0
0
0
0
0
0
0
0
0
0
0
0
0
0
0
0
0
0
2.55061e-09
2.9679e-09
2.7369e-09
2.34633e-09
5.25263e-09
6.28532e-09
5.35225e-09
2.49654e-09
1.23152e-09
1.14399e-09
1.37024e-09
8.83915e-09
1.45601e-07
3.04423e-07
3.41948e-07
2.7552e-07
2.96818e-07
2.53159e-07
2.22408e-07
1.88546e-07
2.67089e-07
1.91088e-07
2.75507e-08
2.7634e-08
6.19856e-08
7.07701e-08
4.03629e-08
7.69261e-09
1.30897e-09
3.2402e-10
1.40167e-10
9.87567e-11
6.40298e-11
5.41292e-11
4.63931e-11
3.93493e-11
2.88561e-11
2.87258e-11
3.88906e-11
4.35374e-11
6.01659e-11
5.95753e-11
5.64359e-11
2.01963e-10
1.11109e-09
1.35455e-09
4.93067e-10
2.62991e-10
2.3857e-10
6.49695e-11
1.67879e-12
5.96711e-13
1.3807e-13
1.23766e-14
3.04555e-16
1.59173e-19
1.60108e-23
1.2077e-27
9.20248e-32
9.39529e-36
1.45525e-39
3.21654e-43
9.76835e-47
3.10546e-50
9.97469e-54
3.69886e-57
1.67525e-60
8.77315e-64
5.00844e-67
4.21797e-70
3.3798e-73
2.70348e-76
2.61078e-79
2.61513e-82
2.69395e-85
3.03162e-88
3.3486e-91
5.40178e-94
5.68745e-97
3.36115e-100
9.60631e-104
2.26589e-107
6.38156e-111
2.03707e-114
5.2775e-118
1.12755e-121
3.17e-125
9.89398e-129
4.82985e-132
2.85961e-135
1.93439e-138
2.11082e-141
2.86683e-144
4.23292e-147
6.84646e-150
1.04316e-152
1.55641e-155
2.11166e-158
2.92986e-161
3.73949e-164
4.89363e-167
6.69806e-170
8.87247e-173
8.4899e-176
2.93341e-181
7.90471e-187
1.85572e-192
3.92143e-198
8.40016e-204
2.6883e-209
6.18436e-215
1.84085e-220
4.99265e-226
1.5313e-231
6.35744e-237
2.84526e-242
1.3946e-247
7.69397e-253
4.60059e-258
3.0099e-263
2.31631e-268
2.06137e-273
1.90737e-278
1.49156e-283
9.49148e-289
5.01485e-294
2.35616e-299
1.3378e-303
1.65118e-306
2.16659e-309
2.81206e-312
3.62436e-315
4.59576e-318
5.75586e-321
4.94066e-324
0
0
0
0
0
0
0
0
0
0
0
0
0
0
0
0
0
0
0
0
0
0
0
0
0
0
0
0
0
0
0
0
0
0
0
0
0
0
0
0
0
0
0
0
0
0
0
0
0
0
0
0
0
0
0
0
0
0
0
0
0
0
0
0
0
0
0
0
0
0
0
0
0
0
0
0
0
0
0
0
0
0
0
0
0
0
0
0
0
0
0
0
0
0
0
0
0
0
0
0
0
0
0
0
0
0
0
0
0
0
0
0
0
0
0
0
0
0
0
0
0
0
0
0
0
0
0
0
0
0
0
0
0
0
0
0
0
0
0
0
0
0
0
0
0
0
0
0
0
0
0
0
0
0
0
0
0
0
0
0
0
0
0
0
0
0
0
0
0
0
0
0
0
0
0
0
0
0
0
0
0
0
0
0
0
0
0
0
0
0
0
0
0
0
0
0
0
0
0
0
0
0
0
0
0
0
0
0
0
0
0
0
0
0
0
0
0
0
0
0
0
0
0
0
0
0
0
0
0
0
0
0
0
0
0
0
0
0
0
0
0
0
0
0
0
0
0
0
0
0
0
0
0
0
0
0
0
0
0
0
0
0
0
0
0
1.23305e-10
2.37582e-10
2.97104e-10
2.47746e-10
2.75233e-10
1.76966e-10
1.54188e-10
1.46491e-10
1.42758e-10
1.41446e-10
1.38718e-10
2.87839e-10
8.85627e-10
1.30506e-09
1.87217e-09
4.012e-09
1.53289e-07
2.74257e-07
2.32163e-07
3.2836e-07
2.8541e-08
3.86781e-09
2.48753e-09
4.13725e-09
5.94569e-09
5.47421e-09
2.53841e-09
8.6605e-10
2.7589e-10
1.22042e-10
6.57578e-11
5.42625e-11
4.71006e-11
4.21864e-11
3.80407e-11
2.83872e-11
2.66935e-11
2.49521e-11
2.38169e-11
2.36004e-11
2.32103e-11
2.37785e-11
4.12999e-11
5.2657e-11
4.16113e-11
4.11239e-11
1.31115e-10
2.53867e-10
1.2935e-10
2.27145e-11
1.14018e-11
5.08521e-12
1.32113e-12
8.75239e-14
5.18244e-15
4.36663e-18
1.36416e-21
2.11994e-25
2.44021e-29
2.95675e-33
5.82852e-37
1.40238e-40
3.79629e-44
1.36043e-47
4.99327e-51
1.85641e-54
7.07237e-58
2.71917e-61
1.37268e-64
7.08482e-68
3.85143e-71
2.48191e-74
1.66513e-77
1.15187e-80
9.1325e-84
7.07747e-87
6.10775e-90
4.43065e-93
3.47183e-96
2.07051e-99
8.49113e-103
2.89765e-106
8.20547e-110
2.32504e-113
5.95692e-117
1.42006e-120
4.06086e-124
1.24554e-127
4.36484e-131
1.7401e-134
6.94933e-138
2.80391e-141
1.38994e-144
9.89594e-148
1.04423e-150
1.27647e-153
1.69866e-156
2.11466e-159
2.75279e-162
3.76889e-165
4.88317e-168
5.65939e-171
6.98717e-174
2.49072e-177
2.79653e-183
3.43174e-189
8.76961e-195
3.6016e-200
1.65854e-205
7.50781e-211
2.856e-216
1.00724e-221
3.1594e-227
9.91786e-233
3.6698e-238
1.44234e-243
6.30797e-249
2.86038e-254
1.54358e-259
9.08627e-265
6.60509e-270
5.44015e-275
4.73638e-280
3.38273e-285
2.00584e-290
9.72429e-296
4.16668e-301
7.74299e-306
8.40131e-309
1.1191e-311
1.48945e-314
1.95056e-317
2.5311e-320
3.45846e-323
0
0
0
0
0
0
0
0
0
0
0
0
0
0
0
0
0
0
0
0
0
0
0
0
0
0
0
0
0
0
0
0
0
0
0
0
0
0
0
0
0
0
0
0
0
0
0
0
0
0
0
0
0
0
0
0
0
0
0
0
0
0
0
0
0
0
0
0
0
0
0
0
0
0
0
0
0
0
0
0
0
0
0
0
0
0
0
0
0
0
0
0
0
0
0
0
0
0
0
0
0
0
0
0
0
0
0
0
0
0
0
0
0
0
0
0
0
0
0
0
0
0
0
0
0
0
0
0
0
0
0
0
0
0
0
0
0
0
0
0
0
0
0
0
0
0
0
0
0
0
0
0
0
0
0
0
0
0
0
0
0
0
0
0
0
0
0
0
0
0
0
0
0
0
0
0
0
0
0
0
0
0
0
0
0
0
0
0
0
0
0
0
0
0
0
0
0
0
0
0
0
0
0
0
0
0
0
0
0
0
0
0
0
0
0
0
0
0
0
0
0
0
0
0
0
0
0
0
0
0
0
0
0
0
0
0
0
0
0
0
0
0
0
0
0
0
0
0
0
0
0
0
0
0
0
0
0
0
0
0
0
0
0
0
0
0
1.90556e-11
2.09064e-11
2.34969e-11
2.58065e-11
2.76409e-11
2.87992e-11
3.86069e-11
2.87694e-11
2.90255e-11
3.71067e-11
3.75278e-11
5.22516e-11
8.36107e-11
1.26234e-10
1.45529e-10
4.78446e-10
8.32599e-09
2.67623e-07
1.83711e-07
7.84771e-09
7.08535e-10
4.691e-10
5.13424e-10
6.47529e-10
8.73031e-10
6.17794e-10
4.00266e-10
2.10624e-10
1.11603e-10
6.31954e-11
5.00835e-11
4.15019e-11
3.67482e-11
2.82843e-11
2.75065e-11
2.68834e-11
2.61188e-11
2.51751e-11
2.39794e-11
2.25128e-11
2.12509e-11
2.06321e-11
1.98872e-11
1.69862e-11
1.64559e-11
1.93685e-11
1.65089e-11
1.12511e-11
9.37258e-12
9.77433e-12
3.83027e-12
3.01426e-12
3.30685e-12
3.7562e-12
8.33553e-13
8.26709e-16
2.84791e-19
7.06556e-23
1.20144e-26
1.85882e-30
3.08721e-34
7.4728e-38
2.18084e-41
7.24819e-45
2.59353e-48
9.44887e-52
3.43812e-55
1.23324e-58
4.55702e-62
1.5647e-65
5.95428e-69
2.36006e-72
9.79128e-76
4.20756e-79
1.7687e-82
7.65565e-86
3.91028e-89
1.61527e-92
6.5434e-96
2.54748e-99
8.06186e-103
2.55448e-106
7.13597e-110
2.12184e-113
6.28807e-117
1.76051e-120
5.18673e-124
1.66531e-127
5.55755e-131
1.82575e-134
6.1388e-138
2.02248e-141
7.0831e-145
2.47836e-148
9.62176e-152
4.73375e-155
3.65337e-158
3.43024e-161
3.86563e-164
4.42546e-167
4.98771e-170
5.12476e-173
5.46906e-176
2.72584e-181
1.29748e-186
5.34157e-192
2.05105e-197
6.91261e-203
2.17464e-208
6.28638e-214
1.6826e-219
4.44215e-225
1.20865e-230
3.81108e-236
1.37418e-241
5.80327e-247
2.66402e-252
1.33421e-257
7.34207e-263
4.35552e-268
2.90636e-273
2.10218e-278
1.47062e-283
8.4432e-289
4.10976e-294
1.76094e-299
7.77736e-305
1.50536e-308
1.9994e-311
2.72563e-314
3.63121e-317
4.83641e-320
6.42285e-323
0
0
0
0
0
0
0
0
0
0
0
0
0
0
0
0
0
0
0
0
0
0
0
0
0
0
0
0
0
0
0
0
0
0
0
0
0
0
0
0
0
0
0
0
0
0
0
0
0
0
0
0
0
0
0
0
0
0
0
0
0
0
0
0
0
0
0
0
0
0
0
0
0
0
0
0
0
0
0
0
0
0
0
0
0
0
0
0
0
0
0
0
0
0
0
0
0
0
0
0
0
0
0
0
0
0
0
0
0
0
0
0
0
0
0
0
0
0
0
0
0
0
0
0
0
0
0
0
0
0
0
0
0
0
0
0
0
0
0
0
0
0
0
0
0
0
0
0
0
0
0
0
0
0
0
0
0
0
0
0
0
0
0
0
0
0
0
0
0
0
0
0
0
0
0
0
0
0
0
0
0
0
0
0
0
0
0
0
0
0
0
0
0
0
0
0
0
0
0
0
0
0
0
0
0
0
0
0
0
0
0
0
0
0
0
0
0
0
0
0
0
0
0
0
0
0
0
0
0
0
0
0
0
0
0
0
0
0
0
0
0
0
0
0
0
0
0
0
0
0
0
0
0
0
0
0
0
0
0
0
0
0
0
0
0
0
0
2.11236e-11
2.18482e-11
2.29841e-11
2.35489e-11
2.36464e-11
2.34531e-11
2.33888e-11
2.32152e-11
2.29858e-11
2.32587e-11
2.39088e-11
2.52454e-11
2.7798e-11
4.22665e-11
4.85823e-11
5.71078e-11
2.39492e-10
1.74722e-09
1.22736e-09
2.78102e-10
1.20653e-10
9.86493e-11
9.52183e-11
1.01545e-10
1.15139e-10
1.10733e-10
9.57906e-11
6.50121e-11
5.52489e-11
4.52041e-11
3.80086e-11
2.81183e-11
2.70443e-11
2.65854e-11
2.60727e-11
2.55322e-11
2.52672e-11
2.51124e-11
2.48261e-11
2.44002e-11
2.36774e-11
2.2693e-11
2.19985e-11
2.08776e-11
1.98886e-11
1.87453e-11
1.71107e-11
1.16477e-11
1.07516e-11
8.92681e-12
8.75e-12
9.08445e-12
9.45753e-12
3.73037e-12
1.25757e-12
1.30669e-14
2.84059e-18
4.85208e-22
8.20344e-26
1.23906e-29
2.09425e-33
4.45995e-37
1.14518e-40
3.49478e-44
1.12447e-47
3.85461e-51
1.36333e-54
4.83344e-58
1.71322e-61
5.69888e-65
2.05262e-68
7.01798e-72
2.46645e-75
8.70799e-79
3.05049e-82
1.1094e-85
3.98879e-89
1.35743e-92
4.93845e-96
1.65562e-99
5.36254e-103
1.8692e-106
5.82648e-110
1.96025e-113
6.20279e-117
2.00649e-120
6.4878e-124
2.02707e-127
6.61039e-131
2.07086e-134
6.6167e-138
2.07901e-141
6.6716e-145
2.10443e-148
6.96582e-152
2.40486e-155
1.02124e-158
6.32211e-162
5.29365e-165
5.21581e-168
5.49898e-171
5.47929e-174
5.0372e-177
2.02073e-182
6.95565e-188
1.98264e-193
5.14554e-199
1.20653e-204
2.9184e-210
7.71032e-216
2.49987e-221
9.31574e-227
3.79766e-232
1.58329e-237
6.67398e-243
2.90882e-248
1.27345e-253
5.95865e-259
2.9106e-264
1.57264e-269
9.31925e-275
5.39233e-280
2.68792e-285
1.1675e-290
4.58141e-296
1.64603e-301
5.9307e-307
6.10648e-311
7.92004e-314
1.10977e-316
1.47577e-319
2.02567e-322
0
0
0
0
0
0
0
0
0
0
0
0
0
0
0
0
0
0
0
0
0
0
0
0
0
0
0
0
0
0
0
0
0
0
0
0
0
0
0
0
0
0
0
0
0
0
0
0
0
0
0
0
0
0
0
0
0
0
0
0
0
0
0
0
0
0
0
0
0
0
0
0
0
0
0
0
0
0
0
0
0
0
0
0
0
0
0
0
0
0
0
0
0
0
0
0
0
0
0
0
0
0
0
0
0
0
0
0
0
0
0
0
0
0
0
0
0
0
0
0
0
0
0
0
0
0
0
0
0
0
0
0
0
0
0
0
0
0
0
0
0
0
0
0
0
0
0
0
0
0
0
0
0
0
0
0
0
0
0
0
0
0
0
0
0
0
0
0
0
0
0
0
0
0
0
0
0
0
0
0
0
0
0
0
0
0
0
0
0
0
0