/*--------------------------------*- C++ -*----------------------------------*\
| =========                 |                                                 |
| \\      /  F ield         | OpenFOAM: The Open Source CFD Toolbox           |
|  \\    /   O peration     | Version:  2.1.1                                 |
|   \\  /    A nd           | Web:      www.OpenFOAM.org                      |
|    \\/     M anipulation  |                                                 |
\*---------------------------------------------------------------------------*/
FoamFile
{
    version     2.0;
    format      ascii;
    class       volScalarField;
    location    "0.001700000";
    object      HO2;
}
// * * * * * * * * * * * * * * * * * * * * * * * * * * * * * * * * * * * * * //

dimensions      [0 0 0 0 0 0 0];

internalField   nonuniform List<scalar> 
12384
(
4.05473e-06
3.81768e-06
3.47608e-06
9.33261e-07
1.08107e-07
3.7111e-09
6.68323e-10
3.80607e-10
6.55891e-11
5.76868e-12
9.50874e-14
2.21665e-15
2.62983e-17
6.34146e-19
1.3527e-15
1.99489e-13
7.52434e-12
1.4853e-10
9.31043e-10
4.02369e-09
1.46482e-08
1.86465e-08
1.63171e-08
1.36574e-08
6.86322e-09
5.29907e-09
3.13056e-09
4.25689e-10
8.02944e-11
8.97382e-12
6.9116e-13
3.76955e-14
4.85752e-16
3.27075e-18
5.68124e-21
1.09082e-23
1.73792e-26
2.8405e-29
4.68708e-32
7.13367e-34
2.239e-36
1.61561e-38
9.65906e-40
3.84576e-38
9.99835e-45
6.30719e-44
1.15518e-43
1.46091e-44
7.93584e-47
9.29531e-50
8.43114e-53
6.98044e-56
5.24949e-59
3.55303e-61
9.61022e-64
9.17435e-67
5.02775e-70
1.61936e-73
5.3889e-77
1.92801e-80
7.15955e-84
2.62343e-87
9.26483e-91
3.52213e-94
1.31123e-97
5.19306e-101
2.12117e-104
7.33917e-108
3.16209e-111
1.05017e-114
3.81425e-118
1.38542e-121
5.25292e-125
2.25097e-128
2.83322e-138
4.10007e-139
1.4704e-141
4.43042e-144
9.86352e-147
1.63819e-149
2.07931e-152
2.51961e-155
2.94954e-158
2.73445e-161
3.55212e-164
3.38766e-167
4.24427e-170
1.43941e-173
5.47567e-179
8.91485e-184
6.87951e-188
4.82622e-192
3.3025e-196
2.18239e-200
7.32384e-205
1.39949e-209
2.32943e-214
3.44032e-219
6.19498e-224
8.15166e-229
7.22839e-234
3.96114e-239
1.76585e-244
8.01807e-250
1.39238e-272
1.03459e-274
2.08959e-279
3.24587e-284
4.44651e-289
1.85132e-293
3.45421e-296
7.79938e-299
1.72012e-301
3.52369e-304
7.27606e-307
1.42457e-309
2.77808e-312
5.0431e-315
8.88924e-318
1.4901e-320
2.47033e-323
0
0
0
0
0
0
0
0
0
0
0
0
0
0
0
0
0
0
0
0
0
0
0
0
0
0
0
0
0
0
0
0
0
0
0
0
0
0
0
0
0
0
0
0
0
0
0
0
0
0
0
0
0
0
0
0
0
0
0
0
0
0
0
0
0
0
0
0
0
0
0
0
0
0
0
0
0
0
0
0
0
0
0
0
0
0
0
0
0
0
0
0
0
0
0
0
0
0
0
0
0
0
0
0
0
0
0
0
0
0
0
0
0
0
0
0
0
0
0
0
0
0
0
0
0
0
0
0
0
0
0
0
0
0
0
0
0
0
0
0
0
0
0
0
0
0
0
0
0
0
0
0
0
0
0
0
0
0
0
0
0
0
0
0
0
0
0
0
0
0
0
0
0
0
0
0
0
0
0
0
0
0
0
0
0
0
0
0
0
0
0
0
0
0
0
0
0
0
0
0
0
0
0
0
0
0
0
0
0
0
0
0
0
0
0
0
0
0
0
0
0
0
0
0
0
0
0
0
0
0
0
0
0
0
0
0
0
0
0
0
0
0
0
0
0
0
0
0
0
0
0
0
0
4.16077e-06
3.96424e-06
3.86276e-06
3.84779e-06
3.38938e-07
5.12871e-08
1.10363e-08
4.66133e-09
1.00854e-09
1.35139e-10
6.03066e-12
2.68695e-13
4.97335e-15
4.96116e-17
7.63857e-14
4.57426e-12
3.61646e-10
7.17273e-09
4.91697e-08
1.7647e-07
2.8894e-07
3.49619e-07
3.42207e-07
3.44098e-07
2.55489e-07
2.35575e-07
1.71401e-07
7.12297e-08
9.17147e-09
1.0623e-09
4.58063e-11
3.56201e-12
2.92017e-14
1.36417e-16
2.53935e-20
2.40035e-22
5.42026e-25
2.47143e-27
1.8952e-29
7.65577e-31
1.59536e-33
9.50797e-36
3.21762e-37
2.55382e-35
1.52702e-41
3.37272e-41
2.93852e-41
2.85501e-42
1.78539e-44
2.82632e-47
3.85346e-50
4.69876e-53
2.54588e-56
1.87084e-58
2.96246e-61
2.19223e-64
7.93765e-68
9.04261e-72
4.89717e-76
3.16712e-79
2.06393e-82
1.05223e-85
2.3761e-89
7.90496e-93
2.23709e-96
9.3051e-100
3.40428e-103
1.16532e-106
1.74523e-109
6.87337e-113
1.9943e-115
8.71282e-119
3.32565e-122
1.26676e-125
8.52131e-136
7.8308e-137
2.60874e-139
9.09607e-142
2.26166e-144
4.25684e-147
6.80592e-150
1.09071e-152
1.89662e-155
1.17184e-158
4.4904e-161
2.73089e-164
7.70401e-167
6.6129e-170
6.1262e-173
6.91531e-178
4.47933e-182
3.05207e-186
3.04866e-190
2.11696e-194
6.07478e-199
1.05256e-203
1.49066e-208
1.84741e-213
2.75171e-218
3.41443e-223
3.07176e-228
1.48503e-233
5.33196e-239
1.55784e-244
9.42547e-267
7.9925e-269
1.61834e-273
2.65009e-278
3.63741e-283
4.09678e-288
1.01127e-292
1.50781e-295
3.25845e-298
6.78971e-301
1.35883e-303
2.67816e-306
5.05358e-309
9.19817e-312
1.55853e-314
2.56827e-317
3.99106e-320
5.92879e-323
0
0
0
0
0
0
0
0
0
0
0
0
0
0
0
0
0
0
0
0
0
0
0
0
0
0
0
0
0
0
0
0
0
0
0
0
0
0
0
0
0
0
0
0
0
0
0
0
0
0
0
0
0
0
0
0
0
0
0
0
0
0
0
0
0
0
0
0
0
0
0
0
0
0
0
0
0
0
0
0
0
0
0
0
0
0
0
0
0
0
0
0
0
0
0
0
0
0
0
0
0
0
0
0
0
0
0
0
0
0
0
0
0
0
0
0
0
0
0
0
0
0
0
0
0
0
0
0
0
0
0
0
0
0
0
0
0
0
0
0
0
0
0
0
0
0
0
0
0
0
0
0
0
0
0
0
0
0
0
0
0
0
0
0
0
0
0
0
0
0
0
0
0
0
0
0
0
0
0
0
0
0
0
0
0
0
0
0
0
0
0
0
0
0
0
0
0
0
0
0
0
0
0
0
0
0
0
0
0
0
0
0
0
0
0
0
0
0
0
0
0
0
0
0
0
0
0
0
0
0
0
0
0
0
0
0
0
0
0
0
0
0
0
0
0
0
0
0
0
0
0
0
2.61645e-06
2.03362e-06
1.75427e-06
3.5393e-07
2.23613e-08
1.29649e-08
1.0449e-08
7.2485e-09
4.05136e-09
1.03879e-09
2.16001e-11
1.64974e-12
1.18641e-13
2.55182e-15
5.1294e-13
7.73177e-10
6.85245e-08
3.55888e-07
1.01495e-06
3.40273e-06
3.51631e-06
3.13292e-06
3.51489e-06
4.12555e-06
4.15672e-06
4.22092e-06
4.29309e-06
4.09258e-06
9.66519e-07
3.63809e-07
1.89666e-07
8.24527e-08
4.99918e-09
1.44741e-11
8.83535e-16
3.03012e-19
6.88875e-23
6.31174e-26
1.94941e-28
2.4237e-29
2.1826e-31
9.95192e-33
2.52718e-34
2.18782e-32
2.22593e-39
6.5736e-39
2.71872e-38
2.64733e-38
1.44839e-39
4.55869e-42
3.32981e-45
1.34876e-48
1.26676e-51
2.44388e-53
1.18122e-55
4.79142e-59
6.59122e-63
5.40048e-67
4.40036e-72
7.07393e-76
1.22116e-79
2.5255e-83
4.58161e-88
5.9565e-92
1.39105e-95
5.22501e-99
1.38076e-102
7.07773e-106
1.32553e-107
2.04496e-110
2.68512e-112
1.80866e-115
6.21818e-119
1.77968e-122
4.1641e-134
1.07224e-134
4.48543e-137
1.32553e-139
2.84895e-142
3.86834e-145
4.14692e-148
3.81044e-151
4.92321e-154
3.9853e-158
5.38315e-160
3.92447e-164
5.68217e-166
3.51906e-169
6.17577e-172
4.48849e-175
4.17977e-179
1.77337e-183
5.32848e-187
2.15126e-191
8.66651e-196
1.04747e-200
2.23403e-205
2.08538e-210
3.99848e-215
4.74516e-220
7.93868e-225
3.97446e-230
1.62964e-235
3.17391e-241
6.06813e-264
8.45153e-266
1.8675e-270
3.11888e-275
4.61991e-280
5.19538e-285
5.34246e-290
7.02335e-295
7.77288e-298
1.60107e-300
3.48573e-303
6.85515e-306
1.38745e-308
2.57947e-311
4.50231e-314
7.34292e-317
1.10938e-319
1.58101e-322
0
0
0
0
0
0
0
0
0
0
0
0
0
0
0
0
0
0
0
0
0
0
0
0
0
0
0
0
0
0
0
0
0
0
0
0
0
0
0
0
0
0
0
0
0
0
0
0
0
0
0
0
0
0
0
0
0
0
0
0
0
0
0
0
0
0
0
0
0
0
0
0
0
0
0
0
0
0
0
0
0
0
0
0
0
0
0
0
0
0
0
0
0
0
0
0
0
0
0
0
0
0
0
0
0
0
0
0
0
0
0
0
0
0
0
0
0
0
0
0
0
0
0
0
0
0
0
0
0
0
0
0
0
0
0
0
0
0
0
0
0
0
0
0
0
0
0
0
0
0
0
0
0
0
0
0
0
0
0
0
0
0
0
0
0
0
0
0
0
0
0
0
0
0
0
0
0
0
0
0
0
0
0
0
0
0
0
0
0
0
0
0
0
0
0
0
0
0
0
0
0
0
0
0
0
0
0
0
0
0
0
0
0
0
0
0
0
0
0
0
0
0
0
0
0
0
0
0
0
0
0
0
0
0
0
0
0
0
0
0
0
0
0
0
0
0
0
0
0
0
0
0
5.18236e-07
4.31478e-07
1.92293e-07
3.77296e-08
3.13855e-08
2.49201e-08
2.73102e-08
6.83989e-08
2.52843e-08
1.46382e-08
2.09621e-09
6.24355e-11
1.87301e-12
2.38042e-14
3.06636e-11
3.53086e-08
8.75421e-07
1.19393e-06
2.61692e-07
1.28975e-07
1.41849e-07
1.07101e-07
9.46554e-08
1.32338e-07
7.73118e-08
3.99374e-08
2.14249e-08
3.87161e-08
7.0353e-08
1.57239e-07
5.22015e-07
2.11218e-06
4.72293e-07
9.25853e-08
4.15142e-10
4.55698e-13
4.49958e-17
1.24403e-20
1.75821e-23
8.79552e-27
7.41931e-30
1.16428e-30
1.73715e-31
3.03983e-29
6.11104e-36
1.27184e-34
3.02555e-33
8.22077e-34
4.05105e-37
1.96978e-40
9.72862e-44
5.83767e-47
2.02357e-50
2.59084e-52
8.80848e-55
2.9813e-57
5.01052e-59
2.75338e-61
6.12099e-65
8.13163e-69
1.03868e-72
1.42492e-76
2.18095e-81
1.66862e-85
3.54257e-89
6.82384e-93
1.39004e-96
2.80425e-100
5.67111e-104
1.05843e-107
4.23641e-110
1.94092e-113
6.50106e-117
1.35261e-120
9.75857e-129
4.34565e-129
1.76077e-131
5.49658e-134
9.39296e-137
1.04286e-139
7.95008e-143
6.84475e-146
5.47569e-149
4.9962e-152
3.6348e-155
3.29933e-158
2.37748e-161
2.13014e-164
1.73112e-167
1.64683e-170
1.29687e-173
7.5757e-178
2.7824e-181
1.27467e-185
2.74204e-190
4.35008e-195
4.60886e-200
4.56754e-205
4.14139e-210
4.17453e-215
4.48325e-220
2.37696e-225
6.42377e-231
1.29482e-236
9.47685e-258
8.12989e-260
1.43138e-264
2.2614e-269
3.13587e-274
3.45093e-279
2.97648e-284
2.1277e-289
1.53709e-294
6.25592e-298
1.12753e-300
2.1517e-303
3.68233e-306
6.63231e-309
1.09265e-311
1.86259e-314
2.96061e-317
4.7376e-320
7.41098e-323
0
0
0
0
0
0
0
0
0
0
0
0
0
0
0
0
0
0
0
0
0
0
0
0
0
0
0
0
0
0
0
0
0
0
0
0
0
0
0
0
0
0
0
0
0
0
0
0
0
0
0
0
0
0
0
0
0
0
0
0
0
0
0
0
0
0
0
0
0
0
0
0
0
0
0
0
0
0
0
0
0
0
0
0
0
0
0
0
0
0
0
0
0
0
0
0
0
0
0
0
0
0
0
0
0
0
0
0
0
0
0
0
0
0
0
0
0
0
0
0
0
0
0
0
0
0
0
0
0
0
0
0
0
0
0
0
0
0
0
0
0
0
0
0
0
0
0
0
0
0
0
0
0
0
0
0
0
0
0
0
0
0
0
0
0
0
0
0
0
0
0
0
0
0
0
0
0
0
0
0
0
0
0
0
0
0
0
0
0
0
0
0
0
0
0
0
0
0
0
0
0
0
0
0
0
0
0
0
0
0
0
0
0
0
0
0
0
0
0
0
0
0
0
0
0
0
0
0
0
0
0
0
0
0
0
0
0
0
0
0
0
0
0
0
0
0
0
0
0
0
0
4.25578e-07
4.41923e-07
3.76679e-07
1.41329e-06
4.41845e-06
2.60792e-06
1.96687e-06
1.24199e-06
1.08984e-06
3.59667e-07
5.52677e-08
1.5955e-08
6.28744e-10
4.23993e-13
3.8649e-09
3.21534e-07
1.96054e-08
6.99446e-08
8.1192e-08
1.24944e-07
1.18066e-07
6.43924e-08
3.4752e-08
2.18779e-08
8.85743e-09
5.01252e-09
2.75232e-09
2.18407e-09
4.23531e-09
7.14174e-09
7.45098e-09
8.18379e-09
1.64065e-08
4.47129e-08
4.11198e-08
1.41073e-09
4.68116e-12
7.52166e-15
6.29803e-18
2.30567e-21
3.28812e-25
2.08559e-28
3.13796e-29
2.51848e-26
1.4986e-31
6.78333e-30
6.08314e-30
7.02252e-32
1.24074e-33
5.743e-36
6.34778e-39
3.89228e-42
5.25273e-46
1.49865e-48
1.35468e-51
5.28567e-55
4.44316e-58
2.17327e-60
3.81856e-62
2.24298e-64
6.89319e-68
1.41092e-71
2.85211e-75
6.34397e-79
1.30007e-82
2.82069e-86
5.11585e-90
9.37972e-94
1.41225e-97
1.71617e-101
9.52381e-106
2.06015e-109
1.97018e-113
1.02226e-117
7.04165e-124
9.64722e-125
2.10191e-127
6.08819e-130
2.22603e-132
4.40819e-135
4.6593e-138
4.34911e-141
4.21222e-144
3.9124e-147
3.49717e-150
3.03465e-153
2.78059e-156
2.2129e-159
2.15276e-162
1.67232e-165
1.65852e-168
1.26094e-171
9.10652e-175
2.73037e-179
5.75209e-184
7.16401e-189
7.47701e-194
6.10594e-199
4.56658e-204
3.2868e-209
2.63583e-214
1.39173e-219
3.63004e-225
6.96992e-231
4.03801e-251
3.38639e-253
5.19448e-258
6.76826e-263
8.42992e-268
9.35498e-273
8.19919e-278
5.637e-283
3.33888e-288
1.76317e-293
2.40221e-297
4.0196e-300
7.08169e-303
1.1715e-305
1.97229e-308
3.19469e-311
5.09907e-314
8.04604e-317
1.21678e-319
1.82804e-322
0
0
0
0
0
0
0
0
0
0
0
0
0
0
0
0
0
0
0
0
0
0
0
0
0
0
0
0
0
0
0
0
0
0
0
0
0
0
0
0
0
0
0
0
0
0
0
0
0
0
0
0
0
0
0
0
0
0
0
0
0
0
0
0
0
0
0
0
0
0
0
0
0
0
0
0
0
0
0
0
0
0
0
0
0
0
0
0
0
0
0
0
0
0
0
0
0
0
0
0
0
0
0
0
0
0
0
0
0
0
0
0
0
0
0
0
0
0
0
0
0
0
0
0
0
0
0
0
0
0
0
0
0
0
0
0
0
0
0
0
0
0
0
0
0
0
0
0
0
0
0
0
0
0
0
0
0
0
0
0
0
0
0
0
0
0
0
0
0
0
0
0
0
0
0
0
0
0
0
0
0
0
0
0
0
0
0
0
0
0
0
0
0
0
0
0
0
0
0
0
0
0
0
0
0
0
0
0
0
0
0
0
0
0
0
0
0
0
0
0
0
0
0
0
0
0
0
0
0
0
0
0
0
0
0
0
0
0
0
0
0
0
0
0
0
0
0
0
0
0
3.423e-06
4.16293e-06
5.45797e-06
8.82178e-06
6.84904e-06
6.38131e-06
4.55626e-06
3.7377e-06
3.13019e-06
2.12171e-06
1.33968e-06
5.70329e-07
2.09355e-08
1.35642e-10
1.64632e-08
5.24434e-07
7.58295e-08
5.9102e-08
1.42414e-07
5.12487e-07
6.79127e-07
2.81197e-07
8.69772e-08
2.66477e-08
8.79044e-09
2.98818e-09
1.16649e-09
4.71193e-10
3.76676e-10
6.08281e-10
9.71733e-10
1.9182e-09
2.24326e-09
3.33838e-09
7.52524e-09
6.26817e-09
2.89716e-09
3.82686e-11
2.1842e-13
7.41029e-16
8.46994e-20
9.91799e-24
6.36439e-27
1.06118e-23
6.92447e-27
3.7513e-26
1.23855e-27
2.17115e-28
3.41158e-29
4.50912e-32
1.80059e-35
2.74132e-38
2.15202e-41
1.08083e-43
2.59934e-47
2.14466e-51
3.09584e-55
1.40574e-58
3.49887e-61
2.68069e-63
3.36328e-65
1.18115e-67
5.33674e-71
1.74163e-74
5.32696e-78
1.45616e-81
3.7892e-85
7.57009e-89
1.43264e-92
2.00653e-96
2.08088e-100
1.31608e-104
7.59787e-109
2.73877e-113
1.22842e-119
5.89865e-122
2.09712e-125
1.7799e-128
3.53918e-131
2.24408e-133
4.40628e-135
2.52286e-137
4.78772e-140
6.56824e-143
7.28443e-146
8.09808e-149
7.81548e-152
7.61363e-155
7.29729e-158
6.62306e-161
6.0572e-164
5.51345e-167
4.54262e-170
3.95202e-173
6.84085e-178
8.84826e-183
7.36853e-188
5.68707e-193
3.36375e-198
2.07574e-203
1.18133e-208
6.24996e-214
1.83109e-219
3.35928e-225
1.29422e-244
9.77507e-247
1.08109e-251
1.05001e-256
1.061e-261
1.07764e-266
1.00652e-271
7.54674e-277
4.57033e-282
2.27613e-287
9.97852e-293
5.64214e-297
8.37045e-300
1.39698e-302
2.14394e-305
3.46736e-308
5.17514e-311
8.00676e-314
1.15875e-316
1.72039e-319
2.42092e-322
0
0
0
0
0
0
0
0
0
0
0
0
0
0
0
0
0
0
0
0
0
0
0
0
0
0
0
0
0
0
0
0
0
0
0
0
0
0
0
0
0
0
0
0
0
0
0
0
0
0
0
0
0
0
0
0
0
0
0
0
0
0
0
0
0
0
0
0
0
0
0
0
0
0
0
0
0
0
0
0
0
0
0
0
0
0
0
0
0
0
0
0
0
0
0
0
0
0
0
0
0
0
0
0
0
0
0
0
0
0
0
0
0
0
0
0
0
0
0
0
0
0
0
0
0
0
0
0
0
0
0
0
0
0
0
0
0
0
0
0
0
0
0
0
0
0
0
0
0
0
0
0
0
0
0
0
0
0
0
0
0
0
0
0
0
0
0
0
0
0
0
0
0
0
0
0
0
0
0
0
0
0
0
0
0
0
0
0
0
0
0
0
0
0
0
0
0
0
0
0
0
0
0
0
0
0
0
0
0
0
0
0
0
0
0
0
0
0
0
0
0
0
0
0
0
0
0
0
0
0
0
0
0
0
0
0
0
0
0
0
0
0
0
0
0
0
0
0
0
9.68906e-06
9.44398e-06
8.65241e-06
5.11161e-06
4.35819e-06
4.33181e-06
3.78696e-06
3.8761e-06
4.05249e-06
3.93299e-06
3.14708e-06
2.14984e-06
1.08731e-07
1.13965e-09
4.34304e-08
1.07439e-06
1.53845e-07
2.07045e-07
1.28908e-06
3.31671e-06
3.69107e-06
3.26638e-06
1.32792e-06
1.99319e-07
2.75379e-08
6.06041e-09
1.28778e-09
4.10634e-10
1.64966e-10
1.4133e-10
2.12784e-10
3.21926e-10
5.04975e-10
8.35868e-10
1.12879e-09
6.17698e-09
1.87942e-09
1.45133e-09
1.79674e-10
4.51393e-12
2.35248e-14
2.85794e-18
2.05319e-22
5.32506e-21
1.27073e-22
7.34908e-23
1.46987e-24
1.13934e-24
6.09764e-26
7.89124e-29
8.75899e-32
5.77292e-35
4.94341e-38
9.431e-40
2.22272e-43
1.15329e-47
1.10415e-51
1.33147e-55
5.29264e-59
8.36316e-62
5.07513e-64
2.88717e-66
1.32619e-68
3.2146e-71
2.81815e-74
1.50177e-77
6.17099e-81
2.1502e-84
5.77039e-88
1.20794e-91
1.84664e-95
1.67913e-99
7.24154e-104
1.19186e-108
3.39134e-116
2.40481e-118
9.51233e-122
1.57794e-125
5.40763e-129
5.87396e-132
3.15672e-134
5.30377e-136
1.0428e-137
7.8727e-140
2.14072e-142
3.66103e-145
5.13093e-148
6.28376e-151
7.37291e-154
7.65875e-157
8.45747e-160
7.98884e-163
8.12739e-166
7.31752e-169
6.7208e-172
7.67081e-177
6.79653e-182
4.56216e-187
2.529e-192
1.26889e-197
5.92479e-203
2.92087e-208
9.56486e-214
1.71484e-219
2.71836e-238
1.39982e-240
1.03212e-245
7.67851e-251
6.07594e-256
5.34021e-261
5.01065e-266
4.39352e-271
3.08388e-276
1.72781e-281
8.12231e-287
3.25378e-292
9.96445e-297
1.3685e-299
2.08481e-302
3.15713e-305
4.6807e-308
6.91306e-311
9.89608e-314
1.41983e-316
1.97201e-319
2.76677e-322
0
0
0
0
0
0
0
0
0
0
0
0
0
0
0
0
0
0
0
0
0
0
0
0
0
0
0
0
0
0
0
0
0
0
0
0
0
0
0
0
0
0
0
0
0
0
0
0
0
0
0
0
0
0
0
0
0
0
0
0
0
0
0
0
0
0
0
0
0
0
0
0
0
0
0
0
0
0
0
0
0
0
0
0
0
0
0
0
0
0
0
0
0
0
0
0
0
0
0
0
0
0
0
0
0
0
0
0
0
0
0
0
0
0
0
0
0
0
0
0
0
0
0
0
0
0
0
0
0
0
0
0
0
0
0
0
0
0
0
0
0
0
0
0
0
0
0
0
0
0
0
0
0
0
0
0
0
0
0
0
0
0
0
0
0
0
0
0
0
0
0
0
0
0
0
0
0
0
0
0
0
0
0
0
0
0
0
0
0
0
0
0
0
0
0
0
0
0
0
0
0
0
0
0
0
0
0
0
0
0
0
0
0
0
0
0
0
0
0
0
0
0
0
0
0
0
0
0
0
0
0
0
0
0
0
0
0
0
0
0
0
0
0
0
0
0
0
0
6.5712e-06
5.48171e-06
3.98218e-06
2.16931e-06
2.52725e-06
2.32546e-06
2.53354e-06
2.97506e-06
3.25309e-06
4.02284e-06
3.72427e-06
2.00138e-06
1.08386e-07
2.96347e-09
2.02212e-07
2.81612e-06
7.1509e-07
1.09179e-06
4.01739e-06
3.65338e-06
3.62402e-06
3.90937e-06
4.02809e-06
2.36474e-06
2.71325e-07
2.70391e-08
3.5265e-09
7.84984e-10
1.63273e-10
8.67917e-11
6.51809e-11
8.5161e-11
1.12866e-10
2.30745e-10
2.66523e-10
2.05986e-10
1.19817e-09
7.57302e-10
6.46667e-10
1.93659e-10
6.60152e-11
6.30896e-13
2.61738e-17
4.75112e-18
1.61477e-18
1.49403e-19
3.6878e-21
1.2003e-21
2.02234e-22
2.23127e-24
3.26354e-27
1.63231e-30
7.02455e-34
3.14041e-36
7.88541e-40
2.47113e-44
1.96845e-48
2.34234e-52
4.64448e-56
1.95163e-59
2.77587e-62
8.64964e-65
3.1197e-67
8.58889e-70
1.56209e-72
2.84283e-75
5.09723e-78
5.61274e-81
3.51581e-84
1.44874e-87
3.82637e-91
6.00748e-95
3.21103e-99
2.9756e-104
1.43047e-112
1.38782e-114
5.52456e-118
1.65253e-121
7.36747e-126
1.18355e-129
1.51944e-132
1.11636e-134
1.58832e-136
1.84912e-138
1.12173e-140
4.11312e-143
1.4545e-145
3.1745e-148
6.05782e-151
9.36505e-154
1.32852e-156
1.63216e-159
1.90383e-162
2.01405e-165
2.09361e-168
1.97722e-171
1.71469e-176
1.03378e-181
5.26157e-187
2.33888e-192
9.92223e-198
4.06386e-203
1.34601e-208
2.75408e-214
7.39223e-233
1.94376e-235
1.07568e-240
6.69441e-246
4.45972e-251
3.33544e-256
2.93001e-261
2.81544e-266
2.45513e-271
1.66453e-276
9.07884e-282
4.03892e-287
1.53618e-292
4.82096e-297
6.2158e-300
8.90644e-303
1.25828e-305
1.77016e-308
2.43931e-311
3.35029e-314
4.51042e-317
6.08096e-320
7.90505e-323
0
0
0
0
0
0
0
0
0
0
0
0
0
0
0
0
0
0
0
0
0
0
0
0
0
0
0
0
0
0
0
0
0
0
0
0
0
0
0
0
0
0
0
0
0
0
0
0
0
0
0
0
0
0
0
0
0
0
0
0
0
0
0
0
0
0
0
0
0
0
0
0
0
0
0
0
0
0
0
0
0
0
0
0
0
0
0
0
0
0
0
0
0
0
0
0
0
0
0
0
0
0
0
0
0
0
0
0
0
0
0
0
0
0
0
0
0
0
0
0
0
0
0
0
0
0
0
0
0
0
0
0
0
0
0
0
0
0
0
0
0
0
0
0
0
0
0
0
0
0
0
0
0
0
0
0
0
0
0
0
0
0
0
0
0
0
0
0
0
0
0
0
0
0
0
0
0
0
0
0
0
0
0
0
0
0
0
0
0
0
0
0
0
0
0
0
0
0
0
0
0
0
0
0
0
0
0
0
0
0
0
0
0
0
0
0
0
0
0
0
0
0
0
0
0
0
0
0
0
0
0
0
0
0
0
0
0
0
0
0
0
0
0
0
0
0
0
2.25591e-06
1.55538e-06
6.37307e-07
5.16813e-07
8.79038e-07
9.12921e-07
9.405e-07
7.508e-07
7.29438e-07
2.22821e-06
4.03796e-06
1.60658e-06
1.33092e-07
3.72599e-08
3.73936e-07
7.753e-07
9.28329e-07
3.99054e-06
2.23254e-06
3.87824e-06
3.14071e-06
2.73996e-06
3.15929e-06
3.65556e-06
4.00069e-06
3.96477e-06
2.14115e-06
1.49323e-07
9.3487e-09
1.05772e-09
2.09877e-10
7.48514e-11
4.29771e-11
3.27398e-11
3.10519e-11
3.67414e-11
4.88965e-11
8.01239e-11
7.13968e-11
2.67863e-10
5.50838e-10
4.31172e-10
3.48536e-10
3.96114e-10
1.1134e-11
2.3549e-14
5.83823e-16
8.42961e-17
9.6583e-17
2.04597e-16
1.93315e-17
3.58167e-18
3.76868e-19
1.84169e-20
5.04519e-23
2.5313e-26
1.87802e-29
2.09321e-32
9.94001e-37
2.45352e-41
1.70105e-45
2.50759e-49
4.7931e-53
1.4834e-56
6.91091e-60
7.49551e-63
1.35788e-65
3.24513e-68
5.80593e-71
8.73512e-74
1.26999e-76
1.8955e-79
3.19798e-82
6.76259e-85
8.76201e-88
5.13546e-91
9.01325e-95
1.08577e-100
1.43473e-103
6.77873e-107
1.47331e-109
4.15981e-112
1.04599e-114
2.17279e-118
6.31749e-123
5.19815e-127
1.78515e-130
5.40132e-133
4.93796e-135
4.72444e-137
2.83896e-139
1.01764e-141
3.21836e-144
6.9739e-147
1.44641e-149
2.73552e-152
4.33256e-155
5.97562e-158
9.54429e-161
1.27449e-163
1.55923e-166
1.76608e-169
1.83178e-172
8.74432e-178
3.93163e-183
1.99106e-188
1.01374e-193
4.4743e-199
1.76485e-204
6.87457e-210
6.67657e-216
4.87718e-222
2.31351e-228
3.68758e-234
1.46014e-239
7.65114e-245
5.36371e-250
4.0388e-255
3.30575e-260
3.12236e-265
3.37059e-270
4.72481e-275
5.37465e-280
4.02687e-285
2.28639e-290
3.23894e-295
2.8498e-298
3.22235e-301
4.05907e-304
4.57863e-307
5.83356e-310
6.54399e-313
8.34277e-316
9.41146e-319
1.1907e-321
0
0
0
0
0
0
0
0
0
0
0
0
0
0
0
0
0
0
0
0
0
0
0
0
0
0
0
0
0
0
0
0
0
0
0
0
0
0
0
0
0
0
0
0
0
0
0
0
0
0
0
0
0
0
0
0
0
0
0
0
0
0
0
0
0
0
0
0
0
0
0
0
0
0
0
0
0
0
0
0
0
0
0
0
0
0
0
0
0
0
0
0
0
0
0
0
0
0
0
0
0
0
0
0
0
0
0
0
0
0
0
0
0
0
0
0
0
0
0
0
0
0
0
0
0
0
0
0
0
0
0
0
0
0
0
0
0
0
0
0
0
0
0
0
0
0
0
0
0
0
0
0
0
0
0
0
0
0
0
0
0
0
0
0
0
0
0
0
0
0
0
0
0
0
0
0
0
0
0
0
0
0
0
0
0
0
0
0
0
0
0
0
0
0
0
0
0
0
0
0
0
0
0
0
0
0
0
0
0
0
0
0
0
0
0
0
0
0
0
0
0
0
0
0
0
0
0
0
0
0
0
0
0
0
0
0
0
0
0
0
0
0
0
0
0
0
0
0
0
0
0
0
0
0
0
0
0
0
0
0
0
0
0
0
0
1.36054e-07
9.95454e-08
4.91932e-08
5.27707e-08
1.49761e-07
1.77083e-07
9.2714e-08
3.39659e-08
2.04539e-08
2.4041e-08
1.61715e-07
3.97407e-06
6.32779e-07
1.28134e-07
3.75997e-07
9.53469e-07
1.58312e-06
4e-06
4.04847e-06
3.366e-06
2.68669e-06
3.23283e-06
4.06613e-06
3.67648e-06
3.66816e-06
3.41584e-06
1.94413e-06
1.45648e-07
7.63306e-09
7.67455e-10
1.4619e-10
5.31498e-11
3.25287e-11
1.76473e-11
1.38835e-11
1.25435e-11
1.36493e-11
1.55776e-11
3.48374e-11
3.40714e-11
3.53276e-11
2.14175e-10
5.51797e-10
3.81306e-10
1.12004e-09
7.77541e-10
1.2367e-10
9.55409e-12
3.22346e-12
3.5604e-13
3.60232e-15
6.30414e-16
1.05257e-16
1.12668e-17
2.08849e-19
4.60319e-22
4.1459e-25
2.12772e-29
3.86439e-34
1.43208e-38
1.08692e-42
1.75593e-46
4.51244e-50
1.27711e-53
4.04814e-57
2.0166e-60
1.45053e-63
1.81545e-66
2.48285e-69
3.46352e-72
4.59801e-75
6.12058e-78
8.27466e-81
1.20165e-83
2.09278e-86
5.03281e-89
1.2385e-91
9.80948e-95
1.06043e-98
3.82245e-102
3.1749e-105
2.81394e-108
5.10263e-112
2.73257e-116
1.98836e-120
1.77658e-124
3.34196e-128
2.92915e-131
9.55758e-134
3.54983e-136
1.0672e-138
2.99531e-141
6.38084e-144
1.3476e-146
2.64246e-149
4.34154e-152
7.01028e-155
1.16036e-157
1.89394e-160
2.5186e-163
3.33536e-166
4.08991e-169
6.5844e-172
3.80343e-175
7.04217e-181
1.02149e-186
1.75897e-192
4.97903e-198
2.83775e-203
1.76337e-208
4.24431e-214
7.53263e-220
1.0469e-225
2.06935e-231
9.05358e-237
4.74385e-242
2.65453e-247
1.51736e-252
1.01262e-257
8.1142e-263
8.16638e-268
8.75615e-273
8.76013e-278
6.82266e-283
4.28367e-288
2.25275e-293
3.73488e-298
3.68292e-301
4.78606e-304
6.28488e-307
8.02498e-310
1.03328e-312
1.29298e-315
1.63144e-318
2.01085e-321
4.94066e-324
0
0
0
0
0
0
0
0
0
0
0
0
0
0
0
0
0
0
0
0
0
0
0
0
0
0
0
0
0
0
0
0
0
0
0
0
0
0
0
0
0
0
0
0
0
0
0
0
0
0
0
0
0
0
0
0
0
0
0
0
0
0
0
0
0
0
0
0
0
0
0
0
0
0
0
0
0
0
0
0
0
0
0
0
0
0
0
0
0
0
0
0
0
0
0
0
0
0
0
0
0
0
0
0
0
0
0
0
0
0
0
0
0
0
0
0
0
0
0
0
0
0
0
0
0
0
0
0
0
0
0
0
0
0
0
0
0
0
0
0
0
0
0
0
0
0
0
0
0
0
0
0
0
0
0
0
0
0
0
0
0
0
0
0
0
0
0
0
0
0
0
0
0
0
0
0
0
0
0
0
0
0
0
0
0
0
0
0
0
0
0
0
0
0
0
0
0
0
0
0
0
0
0
0
0
0
0
0
0
0
0
0
0
0
0
0
0
0
0
0
0
0
0
0
0
0
0
0
0
0
0
0
0
0
0
0
0
0
0
0
0
0
0
0
0
0
0
0
0
0
0
0
0
0
0
0
0
0
0
0
0
0
0
0
2.50009e-09
3.10037e-09
2.89193e-09
2.465e-09
6.62978e-09
6.83393e-09
6.69868e-09
2.71713e-09
1.0048e-09
8.91863e-10
1.18315e-09
1.47935e-08
8.87179e-07
2.89393e-06
4.00033e-06
2.48712e-06
3.90797e-06
3.47903e-06
3.13198e-06
2.72168e-06
3.63987e-06
1.39705e-06
8.20644e-08
8.14983e-08
2.58319e-07
3.12196e-07
1.12776e-07
1.09471e-08
1.0941e-09
1.59105e-10
4.98175e-11
2.85749e-11
1.69449e-11
1.30948e-11
1.0267e-11
8.85083e-12
5.0913e-12
5.06114e-12
8.61625e-12
9.94871e-12
1.45178e-11
1.43638e-11
1.34477e-11
8.30568e-11
8.70826e-10
1.91519e-09
7.08123e-10
7.51231e-10
7.46023e-10
2.97134e-10
1.01281e-11
4.67304e-12
1.27598e-12
1.27674e-13
2.87516e-15
1.04048e-18
5.0805e-23
1.93811e-27
7.60276e-32
5.18024e-36
5.49945e-40
1.06011e-43
2.72861e-47
7.27069e-51
2.66247e-54
9.83834e-58
3.96823e-61
2.71057e-64
1.839e-67
1.94236e-70
1.80368e-73
1.77471e-76
2.06036e-79
2.35478e-82
2.63389e-85
4.54089e-88
6.63346e-91
1.56959e-93
2.35262e-96
1.54354e-99
3.42556e-103
5.55446e-107
9.89155e-111
2.23743e-114
3.84962e-118
5.70284e-122
1.30547e-125
3.6455e-129
1.84729e-132
1.30825e-135
9.65888e-139
1.19927e-141
1.79673e-144
2.79977e-147
4.71167e-150
7.91458e-153
1.25655e-155
1.76512e-158
2.52748e-161
3.34042e-164
4.42343e-167
6.80173e-170
9.35681e-173
9.11563e-176
3.24217e-181
8.88784e-187
2.13756e-192
4.58173e-198
9.9825e-204
3.73633e-209
7.36263e-215
2.08601e-220
5.03914e-226
1.35408e-231
5.64364e-237
2.57022e-242
1.27909e-247
6.9244e-253
4.37189e-258
2.92632e-263
2.33331e-268
2.10182e-273
1.98971e-278
1.5665e-283
1.01168e-288
5.36913e-294
2.54711e-299
1.45119e-303
1.80288e-306
2.37204e-309
3.09292e-312
3.99529e-315
5.08254e-318
6.37839e-321
9.88131e-324
0
0
0
0
0
0
0
0
0
0
0
0
0
0
0
0
0
0
0
0
0
0
0
0
0
0
0
0
0
0
0
0
0
0
0
0
0
0
0
0
0
0
0
0
0
0
0
0
0
0
0
0
0
0
0
0
0
0
0
0
0
0
0
0
0
0
0
0
0
0
0
0
0
0
0
0
0
0
0
0
0
0
0
0
0
0
0
0
0
0
0
0
0
0
0
0
0
0
0
0
0
0
0
0
0
0
0
0
0
0
0
0
0
0
0
0
0
0
0
0
0
0
0
0
0
0
0
0
0
0
0
0
0
0
0
0
0
0
0
0
0
0
0
0
0
0
0
0
0
0
0
0
0
0
0
0
0
0
0
0
0
0
0
0
0
0
0
0
0
0
0
0
0
0
0
0
0
0
0
0
0
0
0
0
0
0
0
0
0
0
0
0
0
0
0
0
0
0
0
0
0
0
0
0
0
0
0
0
0
0
0
0
0
0
0
0
0
0
0
0
0
0
0
0
0
0
0
0
0
0
0
0
0
0
0
0
0
0
0
0
0
0
0
0
0
0
0
0
0
0
0
0
0
0
0
0
0
0
0
0
0
0
0
0
0
4.11815e-11
8.47918e-11
1.16787e-10
1.00046e-10
1.14634e-10
6.68301e-11
5.75994e-11
5.35501e-11
5.1538e-11
5.07617e-11
4.93202e-11
1.34551e-10
5.646e-10
1.10733e-09
1.6577e-09
4.86863e-09
9.77203e-07
3.71285e-06
3.25727e-06
4.09794e-06
8.66168e-08
4.61279e-09
2.71562e-09
5.12381e-09
9.22056e-09
8.06834e-09
2.74256e-09
5.37968e-10
1.26172e-10
4.05543e-11
1.74991e-11
1.32606e-11
1.06313e-11
8.74476e-12
7.10019e-12
5.0108e-12
4.66627e-12
4.31274e-12
4.09364e-12
4.05753e-12
3.97341e-12
4.10703e-12
9.286e-12
1.24327e-11
9.44806e-12
9.27986e-12
4.27362e-11
1.10917e-10
6.24676e-11
7.23688e-12
7.73369e-12
4.27838e-12
1.25443e-12
8.71448e-14
5.12183e-15
3.80401e-18
1.07355e-21
1.30293e-25
1.15033e-29
1.08899e-33
1.84389e-37
3.59111e-41
1.01092e-44
3.5575e-48
1.29296e-51
4.77706e-55
1.83068e-58
7.14226e-62
3.32667e-65
2.14098e-68
1.33305e-71
8.54268e-75
7.31824e-78
4.50062e-81
5.13928e-84
3.68232e-87
5.01008e-90
3.95116e-93
3.66144e-96
2.22154e-99
8.11601e-103
2.41823e-106
5.44755e-110
1.24808e-113
2.69889e-117
5.19659e-121
1.34836e-124
3.81253e-128
1.33865e-131
5.72235e-135
2.42635e-138
1.02091e-141
5.11937e-145
4.09434e-148
4.64879e-151
5.93152e-154
8.15308e-157
1.03595e-159
1.37415e-162
2.18191e-165
2.91481e-168
3.43493e-171
4.33263e-174
1.5636e-177
1.78424e-183
2.21143e-189
5.71955e-195
2.36349e-200
1.09528e-205
5.00619e-211
1.87909e-216
6.46682e-222
1.83087e-227
5.74576e-233
1.92524e-238
7.66496e-244
3.46412e-249
1.58897e-254
8.85855e-260
5.27573e-265
3.93826e-270
3.25941e-275
2.89573e-280
2.0696e-285
1.24571e-290
6.03532e-296
2.61415e-301
4.8545e-306
5.30893e-309
7.06801e-312
9.46095e-315
1.23866e-317
1.61362e-320
1.97626e-323
0
0
0
0
0
0
0
0
0
0
0
0
0
0
0
0
0
0
0
0
0
0
0
0
0
0
0
0
0
0
0
0
0
0
0
0
0
0
0
0
0
0
0
0
0
0
0
0
0
0
0
0
0
0
0
0
0
0
0
0
0
0
0
0
0
0
0
0
0
0
0
0
0
0
0
0
0
0
0
0
0
0
0
0
0
0
0
0
0
0
0
0
0
0
0
0
0
0
0
0
0
0
0
0
0
0
0
0
0
0
0
0
0
0
0
0
0
0
0
0
0
0
0
0
0
0
0
0
0
0
0
0
0
0
0
0
0
0
0
0
0
0
0
0
0
0
0
0
0
0
0
0
0
0
0
0
0
0
0
0
0
0
0
0
0
0
0
0
0
0
0
0
0
0
0
0
0
0
0
0
0
0
0
0
0
0
0
0
0
0
0
0
0
0
0
0
0
0
0
0
0
0
0
0
0
0
0
0
0
0
0
0
0
0
0
0
0
0
0
0
0
0
0
0
0
0
0
0
0
0
0
0
0
0
0
0
0
0
0
0
0
0
0
0
0
0
0
0
0
0
0
0
0
0
0
0
0
0
0
0
0
0
0
0
0
0
2.99946e-12
3.50308e-12
4.20104e-12
4.83767e-12
5.32393e-12
5.67393e-12
7.64814e-12
5.64577e-12
5.70313e-12
7.00489e-12
7.09276e-12
1.25542e-11
2.09136e-11
4.32044e-11
5.3279e-11
2.61087e-10
1.33176e-08
2.32789e-06
1.29136e-06
1.18794e-08
4.82209e-10
2.54485e-10
2.94491e-10
4.2264e-10
5.49276e-10
3.89268e-10
1.82627e-10
8.09933e-11
3.55216e-11
1.66307e-11
1.17141e-11
8.52672e-12
6.83247e-12
5.41354e-12
5.21521e-12
4.71031e-12
4.55042e-12
4.36648e-12
4.11519e-12
3.85424e-12
3.61656e-12
3.45665e-12
3.31847e-12
2.74538e-12
2.62996e-12
3.1729e-12
2.65632e-12
1.39655e-12
1.20574e-12
1.15702e-12
5.21149e-13
4.90955e-13
6.89949e-13
1.19695e-12
2.76104e-13
3.24778e-16
1.04766e-19
2.37258e-23
3.53515e-27
4.67236e-31
8.24203e-35
1.94804e-38
5.59984e-42
1.84592e-45
6.57372e-49
2.38657e-52
8.68739e-56
3.12206e-59
1.1664e-62
4.02173e-66
1.56824e-69
5.06845e-73
2.51951e-76
1.24582e-79
5.75407e-83
2.82765e-86
1.60362e-89
7.06531e-93
2.96666e-96
1.15828e-99
3.46606e-103
9.78595e-107
2.57593e-110
7.18258e-114
1.95394e-117
4.81813e-121
1.39569e-124
4.4359e-128
1.479e-131
4.87087e-135
1.64991e-138
5.47114e-142
1.8731e-145
6.85443e-149
2.77776e-152
1.39243e-155
1.11191e-158
1.04893e-161
1.21566e-164
1.54552e-167
1.75738e-170
1.80717e-173
1.94342e-176
9.70028e-182
4.64911e-187
1.91924e-192
7.41149e-198
2.50363e-203
7.89192e-209
2.28605e-214
6.07247e-220
1.589e-225
4.14335e-231
1.33136e-236
4.61377e-242
1.95172e-247
8.98934e-253
4.51567e-258
2.50185e-263
1.4914e-268
1.00111e-273
7.27257e-279
5.10725e-284
2.94373e-289
1.43597e-294
6.17217e-300
2.73002e-305
5.29683e-309
7.04229e-312
9.61807e-315
1.28227e-317
1.71046e-320
2.47033e-323
0
0
0
0
0
0
0
0
0
0
0
0
0
0
0
0
0
0
0
0
0
0
0
0
0
0
0
0
0
0
0
0
0
0
0
0
0
0
0
0
0
0
0
0
0
0
0
0
0
0
0
0
0
0
0
0
0
0
0
0
0
0
0
0
0
0
0
0
0
0
0
0
0
0
0
0
0
0
0
0
0
0
0
0
0
0
0
0
0
0
0
0
0
0
0
0
0
0
0
0
0
0
0
0
0
0
0
0
0
0
0
0
0
0
0
0
0
0
0
0
0
0
0
0
0
0
0
0
0
0
0
0
0
0
0
0
0
0
0
0
0
0
0
0
0
0
0
0
0
0
0
0
0
0
0
0
0
0
0
0
0
0
0
0
0
0
0
0
0
0
0
0
0
0
0
0
0
0
0
0
0
0
0
0
0
0
0
0
0
0
0
0
0
0
0
0
0
0
0
0
0
0
0
0
0
0
0
0
0
0
0
0
0
0
0
0
0
0
0
0
0
0
0
0
0
0
0
0
0
0
0
0
0
0
0
0
0
0
0
0
0
0
0
0
0
0
0
0
0
0
0
0
0
0
0
0
0
0
0
0
0
0
0
0
0
0
0
3.54685e-12
3.74899e-12
4.06647e-12
4.25227e-12
4.26684e-12
4.25964e-12
4.25796e-12
4.18206e-12
4.12993e-12
4.15927e-12
4.32334e-12
4.66508e-12
5.34704e-12
8.91493e-12
1.13762e-11
1.46009e-11
1.02061e-10
1.40501e-09
1.00772e-09
1.29201e-10
4.06245e-11
2.95963e-11
2.78437e-11
3.08501e-11
3.79448e-11
3.54781e-11
2.77729e-11
1.75005e-11
1.38944e-11
9.97783e-12
7.28539e-12
5.42965e-12
5.11637e-12
4.96908e-12
4.56077e-12
4.44282e-12
4.39225e-12
4.34475e-12
4.31383e-12
4.21306e-12
4.04114e-12
3.9668e-12
3.68132e-12
3.40601e-12
3.24836e-12
3.06905e-12
2.7499e-12
1.42057e-12
1.31597e-12
1.11892e-12
1.07044e-12
1.22656e-12
1.22429e-12
5.25041e-13
2.45072e-13
3.66895e-15
8.03845e-19
1.31114e-22
2.12566e-26
3.16014e-30
5.30624e-34
1.12682e-37
2.89466e-41
8.79288e-45
2.82205e-48
9.65649e-52
3.41188e-55
1.21106e-58
4.30016e-62
1.41705e-65
5.1477e-69
1.76251e-72
6.22664e-76
2.2168e-79
7.80458e-83
2.87095e-86
1.08827e-89
3.70575e-93
1.35163e-96
4.52132e-100
1.44853e-103
5.04759e-107
1.5527e-110
5.20593e-114
1.63525e-117
5.2641e-121
1.70072e-124
5.28593e-128
1.72815e-131
5.4025e-135
1.72803e-138
5.42328e-142
1.74429e-145
5.4976e-149
1.82515e-152
6.29225e-156
2.67032e-159
1.6557e-162
1.38443e-165
1.40226e-168
1.47997e-171
1.47275e-174
1.35554e-177
5.43025e-183
1.87147e-188
5.3274e-194
1.38406e-199
3.2409e-205
7.84326e-211
2.06943e-216
6.70695e-222
2.49458e-227
1.0156e-232
4.2449e-238
1.78669e-243
7.79536e-249
3.41016e-254
1.59746e-259
7.80196e-265
4.22047e-270
2.50093e-275
1.44868e-280
7.21942e-286
3.13949e-291
1.23122e-296
4.42969e-302
1.59446e-307
1.6442e-311
2.13015e-314
2.98906e-317
3.97081e-320
5.43472e-323
0
0
0
0
0
0
0
0
0
0
0
0
0
0
0
0
0
0
0
0
0
0
0
0
0
0
0
0
0
0
0
0
0
0
0
0
0
0
0
0
0
0
0
0
0
0
0
0
0
0
0
0
0
0
0
0
0
0
0
0
0
0
0
0
0
0
0
0
0
0
0
0
0
0
0
0
0
0
0
0
0
0
0
0
0
0
0
0
0
0
0
0
0
0
0
0
0
0
0
0
0
0
0
0
0
0
0
0
0
0
0
0
0
0
0
0
0
0
0
0
0
0
0
0
0
0
0
0
0
0
0
0
0
0
0
0
0
0
0
0
0
0
0
0
0
0
0
0
0
0
0
0
0
0
0
0
0
0
0
0
0
0
0
0
0
0
0
0
0
0
0
0
0
0
0
0