/*--------------------------------*- C++ -*----------------------------------*\
| =========                 |                                                 |
| \\      /  F ield         | OpenFOAM: The Open Source CFD Toolbox           |
|  \\    /   O peration     | Version:  2.1.1                                 |
|   \\  /    A nd           | Web:      www.OpenFOAM.org                      |
|    \\/     M anipulation  |                                                 |
\*---------------------------------------------------------------------------*/
FoamFile
{
    version     2.0;
    format      ascii;
    class       volScalarField;
    location    "0.001700000";
    object      mut;
}
// * * * * * * * * * * * * * * * * * * * * * * * * * * * * * * * * * * * * * //

dimensions      [1 -1 -1 0 0 0 0];

internalField   nonuniform List<scalar> 
12384
(
3.75826e-07
2.88145e-07
1.68648e-07
1.08191e-06
8.7385e-06
1.07136e-05
9.03156e-06
5.95846e-06
2.91154e-06
1.70028e-06
1.23954e-06
1.1404e-06
1.29154e-06
3.07381e-06
4.65566e-05
1.74901e-05
9.24065e-06
7.49967e-06
7.75655e-06
6.54425e-06
5.2907e-06
4.32111e-06
3.94577e-06
3.90911e-06
4.11212e-06
4.5046e-06
4.51092e-06
4.66056e-06
5.81947e-06
7.66086e-06
9.584e-06
1.18725e-05
1.0718e-05
8.19799e-06
4.95181e-06
3.10255e-06
2.10269e-06
1.48196e-06
1.22899e-06
1.60695e-06
2.81232e-06
8.01005e-06
6.82536e-06
5.15941e-06
5.00067e-06
2.22473e-06
1.42966e-06
1.1016e-06
9.71118e-07
9.4125e-07
1.05573e-06
1.27881e-06
1.75183e-06
2.81839e-06
6.00596e-06
5.32486e-06
2.99499e-06
2.02815e-06
1.51999e-06
1.21384e-06
1.00754e-06
8.76728e-07
7.93651e-07
7.37415e-07
7.53024e-07
8.49524e-07
1.03266e-06
1.19188e-06
1.22027e-06
1.2101e-06
1.17849e-06
1.29622e-06
1.75133e-06
4.23826e-06
1.6641e-05
6.75637e-06
3.73355e-06
2.38917e-06
1.70761e-06
1.3332e-06
1.09525e-06
9.47347e-07
8.51432e-07
8.01592e-07
7.57704e-07
7.55231e-07
7.38606e-07
7.45328e-07
7.38508e-07
7.5473e-07
7.61943e-07
7.90972e-07
8.124e-07
8.59514e-07
9.0242e-07
9.76924e-07
1.07355e-06
1.18402e-06
1.36187e-06
1.60525e-06
2.01386e-06
2.73315e-06
4.38051e-06
1.01886e-05
1.80365e-05
1.16558e-05
8.23101e-06
6.31326e-06
5.3386e-06
4.76227e-06
4.41083e-06
4.20799e-06
4.12464e-06
4.0999e-06
4.15955e-06
4.25796e-06
4.42829e-06
4.62881e-06
4.91094e-06
5.21087e-06
5.60914e-06
6.06874e-06
6.63053e-06
7.20245e-06
7.93704e-06
8.77283e-06
9.81754e-06
1.12501e-05
1.31307e-05
1.57975e-05
1.99211e-05
2.75256e-05
4.49966e-05
0.000114952
0.000137321
0.000137372
0.000137375
0.000137361
0.000137367
0.000137353
0.000137355
0.00013735
0.000137339
0.000137344
0.00013733
0.000137337
0.000137324
0.000137332
0.000137324
0.00013732
0.000137317
0.000137305
0.000137302
0.000137292
0.000137292
0.000137285
0.000137279
0.00013728
0.000137271
0.000137272
0.000137267
0.000137265
0.00013726
0.000137213
0.000137204
0.000137261
0.000137267
0.000137269
0.000137269
0.000137271
0.000137273
0.000137278
0.000137278
0.000137283
0.000137283
0.000137288
0.00013729
0.000137295
0.000137295
0.000137298
0.000137294
0.000137292
0.000137285
0.000137284
0.00013728
0.000137279
0.000137275
0.000137275
0.000137271
0.000137271
0.000137267
0.000137268
0.000137263
0.000137204
0.000137204
0.000137262
0.000137265
0.000137269
0.000137268
0.000137274
0.000137275
0.000137279
0.000137279
0.000137283
0.000137283
0.000137288
0.00013729
0.000137295
0.000137295
0.000137298
0.000137293
0.000137292
0.000137286
0.000137284
0.000137281
0.00013728
0.000137276
0.000137275
0.000137271
0.000137269
0.000137266
0.000137264
0.000137259
0.000137212
0.000137213
0.00013726
0.000137261
0.000137267
0.000137267
0.000137272
0.000137273
0.000137277
0.000137278
0.000137282
0.000137282
0.000137287
0.00013729
0.000137295
0.000137295
0.000137297
0.000137293
0.000137292
0.000137286
0.000137284
0.000137281
0.00013728
0.000137276
0.000137275
0.00013727
0.000137269
0.000137266
0.000137264
0.000137259
0.000137213
0.000137214
0.000137258
0.000137263
0.000137266
0.000137271
0.000137272
0.000137277
0.000137277
0.000137281
0.000137282
0.000137285
0.000137286
0.000137291
0.000137292
0.000137297
0.000137295
0.000137295
0.00013729
0.000137286
0.000137283
0.000137281
0.000137279
0.000137276
0.000137275
0.000137272
0.00013727
0.000137266
0.000137267
0.000137261
0.000137204
0.000137214
0.000137261
0.000137262
0.000137267
0.000137267
0.000137273
0.000137274
0.000137278
0.000137278
0.000137282
0.000137282
0.000137287
0.00013729
0.000137295
0.000137295
0.000137298
0.000137293
0.000137292
0.000137285
0.000137284
0.000137281
0.00013728
0.000137275
0.000137275
0.00013727
0.000137268
0.000137265
0.000137264
0.00013726
0.000137212
0.000137204
0.000137262
0.000137264
0.000137269
0.000137269
0.000137274
0.000137274
0.000137278
0.000137279
0.000137283
0.000137283
0.000137288
0.00013729
0.000137295
0.000137298
0.000137298
0.000137295
0.000137291
0.000137288
0.000137283
0.000137284
0.00013728
0.00013728
0.000137276
0.000137275
0.00013727
0.000137269
0.000137265
0.000137262
0.000137205
0.000137211
0.000137259
0.000137261
0.000137267
0.000137268
0.000137273
0.000137275
0.000137278
0.00013728
0.000137282
0.000137284
0.000137287
0.000137291
0.000137295
0.000137295
0.000137298
0.000137293
0.000137293
0.000137288
0.000137286
0.000137283
0.000137281
0.000137277
0.000137276
0.000137271
0.000137269
0.000137266
0.000137265
0.00013726
0.000137213
2.57024e-07
1.61792e-06
1.8563e-06
2.61461e-06
1.27469e-05
2.67067e-05
3.47913e-05
3.85011e-05
3.77407e-05
3.36911e-05
2.70248e-05
2.38235e-05
2.49499e-05
2.69104e-06
1.16745e-05
2.64021e-05
2.68957e-05
2.56081e-05
2.40524e-05
2.08021e-05
1.92856e-05
2.05282e-05
2.27445e-05
2.51949e-05
3.10753e-05
3.31872e-05
3.92948e-05
5.32033e-05
6.02432e-05
6.47077e-05
6.96611e-05
7.30981e-05
7.81118e-05
8.13606e-05
8.23498e-05
7.79522e-05
7.33093e-05
6.6331e-05
5.90775e-05
4.66024e-05
3.46285e-05
2.60881e-05
2.29897e-05
3.3088e-06
3.49458e-06
1.90134e-05
1.51262e-05
1.34132e-05
1.3441e-05
1.51912e-05
1.64899e-05
1.79429e-05
1.69043e-05
1.62394e-05
1.65979e-05
1.7957e-05
1.91149e-05
2.03076e-05
2.12018e-05
2.16545e-05
2.16681e-05
2.13417e-05
2.04295e-05
1.95639e-05
1.78688e-05
1.657e-05
1.47436e-05
1.30177e-05
1.11166e-05
9.92895e-06
9.61331e-06
1.07958e-05
1.60364e-05
3.04955e-06
1.13691e-05
4.214e-05
3.24783e-05
2.44819e-05
1.88254e-05
1.51778e-05
1.27944e-05
1.12545e-05
1.02136e-05
9.52624e-06
8.95807e-06
8.66924e-06
8.3664e-06
8.33674e-06
8.25229e-06
8.46045e-06
8.64203e-06
9.102e-06
9.63361e-06
1.04666e-05
1.15815e-05
1.30352e-05
1.53167e-05
1.8263e-05
2.32638e-05
2.06566e-05
1.1395e-05
5.51323e-06
4.13773e-06
7.18958e-06
7.61976e-06
7.03629e-06
6.30349e-06
5.4935e-06
4.95716e-06
4.60365e-06
4.38801e-06
4.23513e-06
4.18524e-06
4.20232e-06
4.29834e-06
4.43941e-06
4.65595e-06
4.89345e-06
5.20213e-06
5.53724e-06
5.93585e-06
6.37335e-06
6.92338e-06
7.55216e-06
8.36837e-06
9.3547e-06
1.05327e-05
1.20105e-05
1.39742e-05
1.68282e-05
2.1439e-05
2.96843e-05
4.82624e-05
0.000119125
0.000138336
0.000201045
0.000188402
0.000181132
0.000177091
0.000176852
0.00018013
0.000186482
0.000197047
0.000211986
0.000232135
0.000257162
0.000287953
0.00034102
0.000406106
0.000492357
0.000613631
0.000766246
0.000766683
0.000766745
0.000767052
0.000767002
0.000767266
0.000767131
0.000767331
0.000767085
0.000767207
0.00076723
0.00073904
0.000138167
0.000138127
0.00074035
0.000767014
0.000767142
0.000767326
0.000767342
0.000767471
0.000767201
0.000767245
0.000766888
0.000766919
0.000766486
0.000766328
0.000765987
0.000765917
0.000765749
0.000766085
0.000766187
0.000766733
0.000766762
0.000767055
0.000767021
0.00076726
0.000767135
0.000767304
0.000767106
0.000767279
0.000767093
0.000740376
0.000138133
0.000138125
0.00074064
0.000767431
0.000767299
0.000767365
0.000767175
0.000767291
0.000767035
0.000767111
0.000766781
0.000766847
0.000766438
0.000766303
0.000765945
0.000765849
0.000765719
0.000766098
0.000766157
0.000766663
0.00076671
0.000767043
0.000766974
0.000767262
0.00076711
0.000767315
0.000767067
0.000767219
0.000767261
0.000739085
0.000138167
0.000138163
0.000739364
0.000767386
0.000767169
0.000767282
0.000767086
0.000767272
0.000767019
0.000767137
0.000766795
0.000766875
0.000766499
0.000766321
0.000765952
0.000765849
0.000765716
0.000766083
0.000766145
0.000766639
0.000766706
0.000767051
0.00076699
0.000767285
0.000767142
0.000767348
0.000767091
0.00076722
0.000767242
0.000739056
0.000138167
0.000138172
0.00073941
0.000767402
0.0007674
0.000767132
0.000767289
0.000767051
0.00076718
0.000766877
0.000766946
0.00076663
0.000766602
0.000766118
0.000766125
0.000765756
0.000765877
0.000765962
0.000766405
0.000766551
0.00076676
0.00076688
0.000766908
0.000767162
0.000767044
0.000767244
0.000767094
0.000767356
0.000767253
0.000740583
0.000138127
0.000138172
0.000739283
0.000767371
0.000767159
0.000767269
0.000767064
0.000767246
0.000766977
0.000767079
0.000766738
0.000766828
0.000766453
0.000766303
0.00076596
0.000765862
0.000765718
0.000766083
0.000766163
0.000766656
0.000766717
0.000767056
0.000767006
0.000767296
0.000767163
0.00076737
0.000767112
0.000767226
0.000767222
0.000739028
0.000138166
0.000138125
0.000740142
0.000767048
0.000767259
0.000767407
0.000767322
0.000767443
0.000767173
0.000767226
0.000766865
0.000766899
0.000766447
0.000766302
0.00076594
0.000765799
0.000765799
0.000765927
0.000766279
0.000766443
0.000766872
0.000766827
0.000767155
0.000767079
0.000767317
0.000767171
0.000767272
0.000767171
0.000767203
0.000740259
0.000138125
0.000138165
0.000739252
0.000767342
0.000767129
0.000767246
0.000767067
0.000767321
0.000767108
0.000767286
0.000766969
0.000767051
0.000766624
0.000766441
0.000765978
0.000765912
0.000765735
0.000766077
0.000766172
0.000766601
0.000766679
0.000767078
0.000767041
0.000767369
0.000767248
0.000767454
0.000767187
0.000767251
0.000767181
0.000738917
0.000138168
2.70551e-07
2.23152e-06
2.78612e-06
5.87512e-06
1.55964e-05
2.3577e-05
2.69827e-05
2.46596e-05
3.11762e-05
3.42538e-05
3.1038e-05
2.79337e-05
2.85022e-05
2.45985e-06
8.0396e-06
2.78463e-05
2.20787e-05
1.60369e-05
1.05493e-05
5.93013e-06
6.52073e-06
7.10478e-06
7.77589e-06
8.17266e-06
9.1134e-06
1.04209e-05
1.38222e-05
1.47399e-05
3.66956e-05
4.72984e-05
5.01731e-05
5.44749e-05
6.15995e-05
6.2617e-05
6.19085e-05
6.07802e-05
5.77127e-05
5.55008e-05
5.01424e-05
4.2986e-05
3.46546e-05
2.85795e-05
2.26938e-05
2.21625e-06
2.57328e-06
1.60334e-05
1.46648e-05
1.41562e-05
1.47687e-05
1.6497e-05
1.87697e-05
2.01488e-05
1.92709e-05
1.76505e-05
1.74111e-05
1.80522e-05
1.91117e-05
1.98464e-05
2.02244e-05
2.02776e-05
2.00611e-05
1.96165e-05
1.86384e-05
1.79646e-05
1.67303e-05
1.58146e-05
1.43578e-05
1.30996e-05
1.2232e-05
1.19444e-05
1.16994e-05
1.24676e-05
1.5658e-05
2.29105e-06
7.97128e-06
2.31525e-05
1.99704e-05
1.73039e-05
1.50927e-05
1.34634e-05
1.2348e-05
1.16532e-05
1.12224e-05
1.11032e-05
1.10428e-05
1.12526e-05
1.12787e-05
1.16925e-05
1.1887e-05
1.25237e-05
1.31735e-05
1.41332e-05
1.54248e-05
1.70649e-05
1.93174e-05
2.22186e-05
2.61491e-05
3.16344e-05
3.98001e-05
4.17797e-05
2.38531e-05
1.19198e-05
5.04032e-06
6.67612e-06
5.73371e-06
5.73159e-06
5.88539e-06
5.68464e-06
5.57544e-06
5.52859e-06
5.53045e-06
5.58559e-06
5.70046e-06
5.81804e-06
6.02925e-06
6.27409e-06
6.61335e-06
6.97724e-06
7.44791e-06
7.94493e-06
8.52522e-06
9.17944e-06
1.00373e-05
1.10569e-05
1.22471e-05
1.3704e-05
1.53764e-05
1.74651e-05
2.03418e-05
2.44842e-05
3.10397e-05
4.27163e-05
6.89918e-05
0.000176733
0.000158461
0.000171171
0.000189137
0.000210283
0.000235282
0.000266324
0.000299872
0.000340129
0.000389134
0.000439922
0.000489734
0.00054712
0.000612174
0.000684417
0.000726893
0.000754446
0.000778133
0.000792944
0.000801373
0.000812352
0.00082404
0.000845737
0.000858683
0.000876148
0.000900968
0.000917667
0.000940469
0.000940896
0.000940791
0.000178515
0.000178544
0.000940771
0.000966457
0.000966487
0.00096644
0.000966174
0.000966061
0.000965678
0.000965605
0.000965194
0.000965082
0.000964625
0.000964328
0.000963682
0.000963467
0.00096323
0.000963665
0.000964095
0.000964826
0.000965073
0.000965546
0.000965688
0.000966026
0.000966058
0.00096637
0.000966364
0.000966629
0.00096241
0.0009414
0.000178537
0.00017854
0.000940344
0.000966505
0.000966346
0.000966302
0.00096598
0.000965935
0.000965584
0.000965556
0.000965176
0.000965091
0.000964621
0.000964303
0.000963623
0.000963396
0.000963239
0.000963754
0.00096413
0.000964782
0.000964935
0.000965358
0.000965435
0.000965803
0.000965844
0.000966214
0.000966252
0.000966539
0.000966588
0.00094071
0.000178514
0.000178513
0.000941157
0.000966696
0.000966436
0.000966438
0.000966108
0.000966086
0.000965734
0.000965705
0.000965312
0.000965225
0.000964729
0.000964359
0.000963639
0.000963397
0.000963239
0.000963741
0.000964105
0.000964756
0.000964908
0.000965345
0.00096543
0.000965802
0.000965849
0.000966223
0.000966262
0.000966543
0.000966588
0.000940722
0.000178514
0.000178511
0.000940553
0.000966483
0.000966457
0.000966147
0.000966137
0.00096578
0.000965762
0.000965405
0.000965372
0.000964965
0.000964837
0.000964236
0.000963872
0.000963332
0.000963357
0.000963492
0.000964231
0.000964744
0.000965206
0.000965422
0.000965628
0.000965993
0.000966025
0.000966352
0.000966351
0.000966627
0.000966522
0.00094104
0.000178543
0.00017851
0.000940835
0.000966661
0.000966404
0.000966414
0.000966076
0.000966054
0.000965697
0.000965675
0.000965284
0.000965202
0.00096472
0.000964385
0.000963679
0.000963419
0.000963222
0.000963702
0.000964074
0.000964734
0.000964898
0.00096534
0.000965432
0.00096581
0.000965861
0.000966242
0.000966287
0.000966567
0.000966601
0.000940807
0.000178514
0.000178539
0.000940661
0.000966448
0.000966506
0.000966377
0.00096607
0.000966006
0.00096564
0.000965585
0.000965184
0.000965084
0.000964601
0.000964298
0.000963634
0.000963321
0.000963326
0.000963627
0.000964312
0.00096463
0.000965113
0.000965207
0.000965601
0.00096564
0.000965992
0.000966042
0.000966349
0.000966443
0.000966484
0.000940473
0.00017854
0.000178506
0.000940774
0.000966583
0.000966315
0.000966315
0.000965981
0.000965971
0.00096562
0.000965624
0.000965253
0.000965191
0.000964723
0.000964447
0.000963753
0.000963475
0.000963202
0.000963656
0.000964033
0.0009647
0.000964866
0.000965309
0.00096541
0.000965803
0.00096586
0.000966232
0.000966285
0.00096656
0.000966601
0.000940812
0.000178513
6.21003e-07
4.80172e-06
5.28508e-06
8.12646e-06
9.06514e-06
1.1594e-05
1.11966e-05
9.28954e-06
1.56509e-05
2.06481e-05
2.9836e-05
3.01597e-05
3.223e-05
2.7094e-06
3.78087e-06
3.69428e-05
1.6885e-05
5.52081e-06
7.87606e-06
1.00993e-05
1.00051e-05
9.7559e-06
9.0986e-06
8.29732e-06
9.23577e-06
1.20323e-05
1.33426e-05
1.47005e-05
1.24983e-05
1.28944e-05
1.40214e-05
1.35842e-05
4.07254e-05
6.76486e-05
7.06207e-05
6.61191e-05
6.11865e-05
5.60948e-05
5.04306e-05
4.2964e-05
3.89143e-05
3.24811e-05
2.47019e-05
1.8271e-06
2.02327e-06
1.68862e-05
1.86616e-05
2.17464e-05
2.65272e-05
3.23122e-05
3.16604e-05
3.12733e-05
2.76145e-05
2.4537e-05
2.12424e-05
2.01995e-05
2.05867e-05
2.12718e-05
2.16475e-05
2.15146e-05
2.08652e-05
2.0095e-05
1.91447e-05
1.80897e-05
1.70206e-05
1.58943e-05
1.46233e-05
1.33533e-05
1.25718e-05
1.24744e-05
1.22435e-05
1.26939e-05
1.40293e-05
1.83978e-06
6.46653e-06
1.40981e-05
1.19566e-05
1.06797e-05
9.98219e-06
9.48449e-06
9.21598e-06
9.03579e-06
9.07436e-06
9.18921e-06
9.4588e-06
9.78904e-06
1.02228e-05
1.06657e-05
1.1226e-05
1.18367e-05
1.26732e-05
1.36215e-05
1.49508e-05
1.65009e-05
1.85563e-05
2.13364e-05
2.49771e-05
3.03433e-05
3.79428e-05
5.03222e-05
5.1821e-05
1.3845e-05
4.63608e-06
5.2646e-06
4.06487e-06
4.14801e-06
5.65466e-06
8.54563e-06
7.9513e-06
7.3334e-06
6.87329e-06
6.49357e-06
6.25279e-06
6.10423e-06
6.09299e-06
6.20037e-06
6.40054e-06
6.75046e-06
7.19653e-06
7.76452e-06
8.39525e-06
9.10167e-06
9.92649e-06
1.0931e-05
1.20023e-05
1.33146e-05
1.48785e-05
1.70197e-05
1.9961e-05
2.37421e-05
2.98223e-05
4.06826e-05
6.54683e-05
0.000166922
0.000113532
0.000121905
0.00013164
0.000148077
0.000165018
0.000184821
0.000208759
0.00023664
0.00026888
0.000310664
0.000357855
0.000409133
0.000476601
0.000557065
0.000662775
0.000781303
0.000893653
0.000967645
0.000967629
0.000967627
0.000967611
0.000967601
0.000967594
0.0009676
0.000967606
0.000967596
0.000967656
0.000967429
0.000932183
0.000177004
0.000176991
0.000932009
0.000967344
0.000967653
0.000967629
0.000967577
0.000967594
0.000967577
0.00096757
0.000967557
0.000967551
0.000967536
0.00096752
0.000967498
0.000967482
0.00096748
0.000967488
0.000967507
0.000967528
0.000967538
0.000967547
0.00096756
0.000967569
0.000967581
0.000967595
0.000967605
0.000967628
0.000967371
0.000931998
0.000176993
0.00017699
0.000932031
0.0009674
0.000967623
0.00096762
0.000967591
0.000967578
0.000967564
0.000967559
0.000967548
0.000967539
0.000967525
0.000967505
0.000967485
0.000967466
0.000967469
0.000967481
0.000967502
0.000967522
0.000967535
0.000967544
0.000967547
0.000967554
0.000967565
0.000967581
0.000967577
0.000967654
0.000967413
0.00093218
0.000177002
0.000177005
0.000932108
0.00096737
0.000967597
0.000967582
0.000967574
0.000967561
0.000967556
0.000967552
0.000967547
0.000967537
0.000967525
0.000967504
0.000967484
0.000967467
0.000967472
0.000967483
0.000967504
0.000967524
0.000967537
0.000967546
0.000967549
0.000967555
0.000967565
0.000967583
0.000967577
0.00096765
0.000967414
0.000932191
0.000177002
0.000177005
0.000932117
0.000967345
0.000967642
0.000967598
0.000967591
0.000967576
0.000967566
0.000967558
0.000967552
0.000967543
0.000967531
0.000967511
0.000967493
0.000967476
0.00096747
0.000967482
0.000967504
0.000967507
0.000967593
0.000967606
0.000967553
0.000967564
0.000967574
0.00096759
0.0009676
0.00096762
0.000967361
0.00093199
0.000176991
0.000177005
0.000932165
0.000967371
0.000967597
0.000967582
0.000967573
0.00096756
0.000967557
0.000967551
0.000967546
0.000967537
0.000967526
0.000967505
0.000967487
0.000967466
0.000967469
0.000967479
0.0009675
0.00096752
0.000967534
0.000967542
0.000967547
0.000967554
0.000967566
0.000967584
0.000967577
0.000967643
0.000967417
0.000932176
0.000177002
0.000176991
0.000932052
0.000967309
0.000967585
0.000967642
0.000967598
0.000967585
0.000967567
0.000967561
0.000967549
0.000967541
0.000967527
0.000967508
0.000967481
0.000967529
0.000967526
0.000967474
0.000967506
0.000967525
0.000967538
0.000967546
0.000967556
0.00096756
0.000967577
0.000967588
0.000967624
0.000967583
0.000967331
0.000932025
0.000176991
0.000177003
0.00093211
0.000967355
0.000967583
0.00096757
0.000967565
0.000967554
0.000967554
0.00096755
0.00096755
0.000967544
0.000967533
0.000967518
0.000967496
0.000967477
0.000967475
0.000967481
0.000967502
0.00096752
0.000967535
0.000967544
0.000967551
0.000967558
0.000967569
0.000967591
0.00096758
0.000967641
0.000967418
0.000932191
0.000177003
1.0886e-06
6.32717e-06
7.10227e-06
7.93973e-06
7.0823e-06
8.37148e-06
7.65526e-06
7.31384e-06
7.26023e-06
7.20397e-06
1.56578e-05
2.56637e-05
3.63739e-05
4.69136e-06
3.32809e-06
2.92876e-05
8.57425e-06
1.48644e-05
1.6278e-05
1.66848e-05
1.52987e-05
1.37677e-05
1.27469e-05
1.18475e-05
1.26472e-05
1.47427e-05
1.39102e-05
1.31962e-05
1.49691e-05
1.5773e-05
1.60133e-05
1.61408e-05
1.51976e-05
3.29373e-05
6.65147e-05
7.67774e-05
6.96339e-05
6.42047e-05
5.6457e-05
5.06735e-05
4.49271e-05
3.92937e-05
3.08314e-05
1.83177e-06
1.97133e-06
2.23442e-05
3.11321e-05
3.73496e-05
3.70939e-05
4.18531e-05
5.08984e-05
5.72383e-05
5.4402e-05
4.49341e-05
3.56398e-05
2.89553e-05
2.52062e-05
2.43023e-05
2.42832e-05
2.39308e-05
2.30593e-05
2.18759e-05
2.05332e-05
1.94617e-05
1.7871e-05
1.66642e-05
1.51034e-05
1.36986e-05
1.26914e-05
1.22773e-05
1.14933e-05
1.12255e-05
1.13186e-05
1.35647e-06
4.34321e-06
1.01674e-05
8.11615e-06
7.12101e-06
6.80646e-06
6.78283e-06
6.8593e-06
6.98478e-06
7.15563e-06
7.38374e-06
7.69739e-06
8.05901e-06
8.56905e-06
9.01232e-06
9.66323e-06
1.01993e-05
1.10949e-05
1.18599e-05
1.31165e-05
1.44439e-05
1.61997e-05
1.86354e-05
2.1586e-05
2.59695e-05
3.17502e-05
4.09912e-05
5.52845e-05
2.00572e-05
4.66715e-06
3.86212e-06
2.99539e-06
4.29969e-06
8.44996e-06
1.37396e-05
1.93389e-05
1.64707e-05
1.40421e-05
1.21236e-05
1.05173e-05
9.27046e-06
8.28796e-06
7.62861e-06
7.20031e-06
6.95576e-06
6.9612e-06
7.14886e-06
7.63931e-06
8.38048e-06
9.12621e-06
1.00161e-05
1.1057e-05
1.23469e-05
1.39454e-05
1.58875e-05
1.82795e-05
2.20466e-05
2.75576e-05
3.73874e-05
5.87307e-05
0.000136711
7.68252e-05
8.45658e-05
9.21086e-05
0.000104186
0.000119551
0.000135431
0.000154494
0.000177535
0.000205091
0.000237451
0.000277376
0.000327595
0.000383598
0.000449801
0.000527739
0.000629191
0.000772618
0.000942311
0.000942145
0.000942274
0.000942099
0.000942239
0.000942059
0.000942214
0.000942025
0.000942183
0.000942055
0.000941769
0.00090721
0.000171373
0.000171404
0.000906824
0.000941912
0.000942015
0.000942087
0.000942184
0.00094202
0.000942197
0.000942023
0.000942207
0.000942027
0.000942207
0.000942023
0.000942192
0.000942018
0.000942182
0.000942018
0.000942184
0.000942022
0.000942181
0.000942023
0.000942185
0.000942019
0.00094219
0.000942019
0.00094219
0.000942026
0.000941909
0.000906797
0.000171401
0.000171398
0.000906948
0.00094181
0.000942173
0.00094201
0.000942188
0.000942015
0.000942197
0.000942019
0.000942204
0.000942021
0.000942196
0.000942014
0.000942179
0.000942008
0.000942172
0.000942011
0.000942185
0.000942021
0.000942198
0.000942022
0.000942195
0.000942016
0.000942181
0.000942003
0.000942164
0.000942033
0.000941767
0.00090721
0.000171372
0.000171376
0.000907171
0.000941736
0.000942172
0.000942005
0.000942185
0.000942016
0.000942197
0.000942021
0.000942201
0.00094202
0.000942191
0.000942014
0.000942176
0.000942009
0.000942173
0.000942013
0.000942186
0.000942022
0.0009422
0.000942023
0.000942197
0.000942017
0.000942181
0.000942005
0.000942162
0.000942035
0.000941762
0.00090722
0.000171372
0.000171378
0.000907186
0.000941868
0.000942014
0.000942184
0.000942014
0.000942196
0.000942022
0.000942206
0.000942025
0.000942205
0.000942023
0.00094219
0.000942016
0.000942178
0.000942012
0.000942175
0.000942012
0.000942163
0.000942065
0.000942037
0.000942183
0.000942014
0.000942187
0.000942018
0.000942188
0.000942021
0.000941929
0.000906829
0.000171403
0.000171373
0.000907196
0.000941732
0.000942171
0.000942006
0.000942187
0.000942015
0.000942199
0.00094202
0.000942203
0.000942021
0.000942193
0.000942014
0.000942176
0.000942008
0.00094217
0.00094201
0.000942182
0.00094202
0.000942195
0.00094202
0.000942192
0.000942014
0.000942177
0.000942001
0.000942158
0.000942043
0.000941753
0.000907201
0.000171372
0.000171406
0.000906896
0.000941904
0.000942135
0.000942029
0.000942195
0.000942018
0.000942196
0.000942019
0.000942204
0.000942019
0.000942197
0.00094201
0.000942175
0.00094201
0.000942023
0.00094217
0.000942008
0.000942194
0.000942018
0.000942203
0.000942019
0.000942197
0.000942016
0.000942189
0.000942016
0.000942149
0.00094188
0.000906908
0.000171404
0.000171372
0.000907172
0.00094172
0.000942169
0.000941996
0.000942183
0.00094201
0.000942203
0.000942023
0.000942214
0.000942028
0.000942208
0.000942018
0.000942183
0.000942008
0.000942169
0.000942008
0.000942173
0.000942016
0.000942202
0.000942026
0.000942198
0.00094202
0.000942185
0.000942009
0.000942163
0.000942051
0.000941754
0.000907231
0.000171373
2.22033e-06
6.4293e-06
7.60861e-06
8.18122e-06
7.40774e-06
7.28352e-06
6.77692e-06
6.37765e-06
6.1346e-06
6.29798e-06
6.3731e-06
7.53359e-06
2.88221e-05
1.07184e-05
2.95381e-06
2.89025e-05
1.46053e-05
2.47939e-05
2.56794e-05
2.50073e-05
2.20687e-05
1.90412e-05
1.7284e-05
1.57804e-05
1.50358e-05
1.49209e-05
1.39317e-05
1.40465e-05
1.50193e-05
1.65053e-05
1.75962e-05
1.7543e-05
1.86363e-05
1.74801e-05
3.43517e-05
6.7082e-05
8.51536e-05
7.65541e-05
6.8415e-05
6.1331e-05
5.62545e-05
5.09494e-05
4.15396e-05
2.63651e-06
1.85932e-06
3.0206e-05
4.18938e-05
3.81367e-05
4.3892e-05
6.95841e-05
0.000106131
0.000128608
0.000120865
9.53965e-05
6.92861e-05
4.91115e-05
3.72487e-05
3.09953e-05
2.85818e-05
2.77079e-05
2.67073e-05
2.51972e-05
2.33164e-05
2.14838e-05
1.97294e-05
1.77694e-05
1.60657e-05
1.43334e-05
1.31157e-05
1.22876e-05
1.12687e-05
1.01967e-05
9.52069e-06
9.47312e-07
2.33175e-06
8.94939e-06
7.7446e-06
6.44447e-06
5.54479e-06
5.23634e-06
5.34501e-06
5.54175e-06
5.78402e-06
6.01866e-06
6.31898e-06
6.66665e-06
7.11982e-06
7.56456e-06
8.19942e-06
8.6688e-06
9.47566e-06
1.01697e-05
1.11904e-05
1.23218e-05
1.37658e-05
1.56531e-05
1.80361e-05
2.13931e-05
2.58146e-05
3.2513e-05
4.22938e-05
2.97688e-05
6.56142e-06
2.74304e-06
2.2879e-06
7.21968e-06
1.49212e-05
2.31259e-05
3.107e-05
3.71941e-05
3.00563e-05
2.43095e-05
1.99558e-05
1.64447e-05
1.3793e-05
1.16788e-05
1.01727e-05
9.08759e-06
8.33828e-06
7.95444e-06
7.87864e-06
8.07715e-06
8.53647e-06
9.2434e-06
1.01226e-05
1.11886e-05
1.24888e-05
1.42203e-05
1.63876e-05
1.93127e-05
2.37405e-05
3.1499e-05
4.85786e-05
9.7287e-05
5.26363e-05
5.9912e-05
6.75459e-05
7.76498e-05
8.96941e-05
0.000105582
0.000122541
0.000142525
0.00016658
0.000194987
0.000228202
0.000271314
0.000322723
0.000374904
0.000438703
0.000524839
0.000639693
0.00078493
0.00091327
0.000913363
0.000913221
0.000913318
0.000913184
0.00091328
0.000913161
0.000913242
0.000913178
0.000912928
0.000879872
0.000165721
0.00016572
0.000879825
0.000912978
0.000913158
0.000913221
0.000913246
0.000913164
0.000913255
0.00091317
0.000913269
0.000913175
0.000913273
0.000913169
0.000913259
0.000913166
0.000913252
0.000913162
0.000913252
0.000913164
0.000913246
0.000913154
0.00091325
0.000913159
0.000913253
0.000913159
0.000913247
0.000913159
0.000912998
0.000879872
0.000165724
0.000165719
0.000879841
0.00091295
0.000913234
0.00091315
0.000913246
0.000913157
0.000913259
0.000913167
0.000913269
0.000913167
0.000913259
0.000913156
0.000913241
0.000913148
0.000913237
0.000913152
0.000913248
0.000913163
0.000913261
0.000913163
0.000913254
0.000913151
0.000913236
0.00091314
0.000913215
0.000913153
0.000912928
0.000879856
0.00016572
0.00016572
0.000879897
0.000912901
0.000913231
0.000913141
0.000913245
0.000913155
0.000913255
0.000913165
0.000913263
0.000913164
0.000913254
0.000913155
0.000913238
0.000913148
0.000913238
0.000913154
0.000913249
0.000913164
0.000913262
0.000913163
0.000913256
0.000913153
0.000913237
0.000913142
0.000913215
0.000913154
0.000912924
0.000879857
0.000165719
0.000165722
0.000879867
0.000912973
0.00091315
0.000913236
0.00091315
0.000913255
0.000913163
0.000913269
0.00091317
0.000913269
0.000913168
0.000913255
0.00091316
0.000913245
0.000913156
0.000913241
0.000913155
0.000913223
0.000913198
0.000913179
0.000913244
0.000913156
0.000913251
0.00091316
0.000913246
0.000913154
0.000913008
0.000879867
0.000165721
0.000165722
0.000879861
0.000912893
0.000913227
0.000913137
0.000913245
0.000913153
0.000913256
0.000913164
0.000913265
0.000913165
0.000913255
0.000913155
0.000913239
0.000913149
0.000913236
0.000913152
0.000913246
0.000913161
0.000913257
0.00091316
0.000913248
0.000913147
0.000913232
0.000913142
0.000913213
0.000913165
0.000912914
0.00087986
0.00016572
0.000165722
0.000879842
0.000912974
0.000913232
0.000913177
0.000913251
0.000913162
0.000913258
0.000913165
0.000913265
0.000913163
0.000913262
0.000913156
0.000913234
0.000913171
0.000913173
0.000913226
0.00091315
0.000913256
0.000913162
0.000913265
0.000913164
0.000913255
0.000913157
0.000913244
0.000913157
0.000913219
0.000912985
0.000879841
0.000165721
0.000165721
0.000879862
0.000912885
0.000913223
0.00091313
0.000913241
0.000913148
0.000913257
0.000913164
0.000913272
0.00091317
0.000913266
0.000913155
0.00091324
0.00091314
0.000913231
0.000913144
0.000913234
0.000913155
0.000913257
0.000913166
0.000913258
0.000913157
0.000913239
0.000913148
0.000913225
0.000913172
0.000912917
0.000879878
0.00016572
2.99662e-06
6.51278e-06
7.72276e-06
8.27287e-06
7.33638e-06
6.20937e-06
5.33412e-06
4.70171e-06
4.87083e-06
5.53937e-06
6.29285e-06
5.97896e-06
1.79365e-05
3.61347e-05
4.09538e-06
3.58197e-05
3.04153e-05
3.94592e-05
3.58832e-05
3.40626e-05
3.00799e-05
2.58969e-05
2.19125e-05
1.90782e-05
1.71824e-05
1.62533e-05
1.50955e-05
1.58068e-05
1.63045e-05
1.80467e-05
1.91951e-05
2.02951e-05
2.09759e-05
2.44986e-05
2.2404e-05
2.38663e-05
6.88653e-05
0.00010032
9.27142e-05
8.38349e-05
8.02594e-05
7.93444e-05
7.31543e-05
5.83507e-06
1.50553e-06
3.81576e-05
4.81495e-05
5.29021e-05
8.43501e-05
0.00016318
0.00025936
0.000301788
0.000275435
0.000206123
0.000137546
8.91004e-05
6.01746e-05
4.45531e-05
3.65969e-05
3.28458e-05
3.1079e-05
2.96362e-05
2.77175e-05
2.53849e-05
2.28906e-05
2.06094e-05
1.82318e-05
1.6443e-05
1.48087e-05
1.35605e-05
1.22482e-05
1.06785e-05
9.25772e-06
6.90132e-07
1.79449e-06
1.02214e-05
1.11481e-05
9.53307e-06
7.03927e-06
5.37212e-06
4.78127e-06
4.76462e-06
4.89274e-06
5.07058e-06
5.28244e-06
5.53679e-06
5.86032e-06
6.2625e-06
6.72513e-06
7.18596e-06
7.8098e-06
8.35435e-06
9.21184e-06
1.00249e-05
1.12307e-05
1.25128e-05
1.43572e-05
1.65111e-05
1.95373e-05
2.33764e-05
2.91956e-05
3.75729e-05
1.18692e-05
1.8569e-06
1.77222e-06
1.33956e-05
2.68382e-05
3.88815e-05
4.89838e-05
5.65459e-05
6.08198e-05
4.73574e-05
3.7401e-05
2.98235e-05
2.4032e-05
1.95434e-05
1.60889e-05
1.34643e-05
1.15663e-05
1.01852e-05
9.31533e-06
8.7886e-06
8.66719e-06
8.8035e-06
9.28086e-06
1.00862e-05
1.10324e-05
1.23506e-05
1.39996e-05
1.63963e-05
1.97093e-05
2.52934e-05
3.64822e-05
5.81691e-05
3.54428e-05
4.20377e-05
4.8845e-05
5.71093e-05
6.66692e-05
7.85589e-05
9.34083e-05
0.000109757
0.000128785
0.000151624
0.000178891
0.000210676
0.000248157
0.000294524
0.000346625
0.000411118
0.000503212
0.000632897
0.00079528
0.000864076
0.00086402
0.00086403
0.000863977
0.000863992
0.000863945
0.00086396
0.000863946
0.00086368
0.000831561
0.000155011
0.00015501
0.00083162
0.00086369
0.00086391
0.000863976
0.000863965
0.000863937
0.000863977
0.000863949
0.000863992
0.000863958
0.000863996
0.00086396
0.000863989
0.000863962
0.000863983
0.000863956
0.000863981
0.000863949
0.000863972
0.000863934
0.000863972
0.000863937
0.00086397
0.000863931
0.000863954
0.000863919
0.000863703
0.000831596
0.000155011
0.000155009
0.000831663
0.000863705
0.000863942
0.000863913
0.000863961
0.000863934
0.00086398
0.000863946
0.00086399
0.000863951
0.000863984
0.000863949