/*--------------------------------*- C++ -*----------------------------------*\
| =========                 |                                                 |
| \\      /  F ield         | OpenFOAM: The Open Source CFD Toolbox           |
|  \\    /   O peration     | Version:  2.1.1                                 |
|   \\  /    A nd           | Web:      www.OpenFOAM.org                      |
|    \\/     M anipulation  |                                                 |
\*---------------------------------------------------------------------------*/
FoamFile
{
    version     2.0;
    format      ascii;
    class       volScalarField;
    location    "0.001700000";
    object      OH;
}
// * * * * * * * * * * * * * * * * * * * * * * * * * * * * * * * * * * * * * //

dimensions      [0 0 0 0 0 0 0];

internalField   nonuniform List<scalar> 
12384
(
0.00391816
0.00420426
0.00444124
0.00109009
0.000118572
3.7481e-06
6.4174e-07
3.12991e-07
6.27315e-08
7.22746e-09
1.68257e-10
4.70386e-12
7.06305e-14
1.51256e-15
1.10476e-12
1.27499e-10
3.78525e-09
7.25913e-08
4.2914e-07
1.82614e-06
6.48973e-06
8.22298e-06
7.20419e-06
5.98141e-06
3.12579e-06
2.376e-06
1.39186e-06
1.93516e-07
3.77376e-08
4.31802e-09
3.42629e-10
1.77157e-11
2.52534e-13
1.79357e-15
3.90332e-18
9.37668e-21
2.02047e-23
4.36301e-26
9.21614e-29
1.69083e-30
5.32103e-33
3.86212e-35
2.34274e-36
9.33736e-35
1.63938e-41
8.3312e-41
1.28115e-40
1.35698e-41
6.39736e-44
6.48239e-47
5.40037e-50
4.24826e-53
3.15273e-56
2.14011e-58
6.05958e-61
6.29026e-64
3.80681e-67
1.38633e-70
5.31896e-74
2.22386e-77
9.68886e-81
4.1481e-84
1.77615e-87
7.43148e-91
3.06058e-94
1.25912e-97
5.0832e-101
1.9627e-104
7.61803e-108
2.79409e-111
1.02053e-114
3.72434e-118
1.41392e-121
6.10211e-125
5.46498e-135
6.97035e-136
2.49752e-138
7.65357e-141
1.77146e-143
3.04554e-146
4.22258e-149
5.42754e-152
6.92635e-155
6.73756e-158
9.54268e-161
9.29214e-164
1.21469e-166
4.1406e-170
1.58838e-175
2.6019e-180
1.98429e-184
1.45583e-188
9.56255e-193
6.60872e-197
2.13296e-201
4.26048e-206
6.80583e-211
1.051e-215
1.82482e-220
2.49228e-225
2.14329e-230
1.18611e-235
5.25535e-241
2.40304e-246
4.24658e-269
3.14113e-271
6.33018e-276
9.87253e-281
1.34902e-285
5.63879e-290
1.04888e-292
2.38186e-295
5.22998e-298
1.07847e-300
2.21656e-303
4.36677e-306
8.4778e-309
1.5467e-311
2.71779e-314
4.57588e-317
7.56069e-320
0
0
0
0
0
0
0
0
0
0
0
0
0
0
0
0
0
0
0
0
0
0
0
0
0
0
0
0
0
0
0
0
0
0
0
0
0
0
0
0
0
0
0
0
0
0
0
0
0
0
0
0
0
0
0
0
0
0
0
0
0
0
0
0
0
0
0
0
0
0
0
0
0
0
0
0
0
0
0
0
0
0
0
0
0
0
0
0
0
0
0
0
0
0
0
0
0
0
0
0
0
0
0
0
0
0
0
0
0
0
0
0
0
0
0
0
0
0
0
0
0
0
0
0
0
0
0
0
0
0
0
0
0
0
0
0
0
0
0
0
0
0
0
0
0
0
0
0
0
0
0
0
0
0
0
0
0
0
0
0
0
0
0
0
0
0
0
0
0
0
0
0
0
0
0
0
0
0
0
0
0
0
0
0
0
0
0
0
0
0
0
0
0
0
0
0
0
0
0
0
0
0
0
0
0
0
0
0
0
0
0
0
0
0
0
0
0
0
0
0
0
0
0
0
0
0
0
0
0
0
0
0
0
0
0
0
0
0
0
0
0
0
0
0
0
0
0
0
0
0
0
0
0
0.00326185
0.00292696
0.00411159
0.00295965
0.000155291
1.86585e-05
4.05847e-06
1.09856e-06
2.98472e-07
4.71887e-08
2.86755e-09
1.90788e-10
5.45519e-12
7.85038e-14
3.67355e-11
1.37234e-09
1.19045e-07
2.7688e-06
2.11998e-05
7.56017e-05
0.000133499
0.000158644
0.000158903
0.000149607
0.000104969
9.10376e-05
6.2293e-05
2.35014e-05
3.12315e-06
3.23073e-07
1.23114e-08
8.4926e-10
5.79788e-12
2.63584e-14
4.23245e-18
4.72888e-20
1.24865e-22
7.47727e-25
8.79578e-27
5.55964e-28
2.09024e-30
1.96634e-32
7.95552e-34
6.3807e-32
9.48658e-39
1.39779e-38
8.99541e-39
7.08165e-40
4.12904e-42
6.64216e-45
9.74667e-48
1.32222e-50
6.46931e-54
4.49838e-56
6.12883e-59
4.32563e-62
1.51485e-65
1.70948e-69
9.98001e-74
6.91133e-77
5.18808e-80
3.08705e-83
8.16052e-87
3.32446e-90
1.0891e-93
5.88156e-97
2.67532e-100
1.23192e-103
2.51755e-106
1.28436e-109
4.21947e-112
1.96821e-115
7.75561e-119
3.05181e-122
2.83935e-133
2.29843e-134
7.64538e-137
2.73109e-139
7.02065e-142
1.39751e-144
2.41488e-147
4.1909e-150
8.08624e-153
5.6857e-156
2.471e-158
1.72356e-161
5.53664e-164
5.23063e-167
5.4696e-170
6.63696e-175
4.85616e-179
3.50457e-183
3.99318e-187
2.96904e-191
9.57493e-196
1.83099e-200
2.70433e-205
3.75081e-210
5.52193e-215
7.41795e-220
6.61592e-225
3.29878e-230
1.18095e-235
3.96783e-241
1.23135e-263
9.86678e-266
2.02136e-270
3.42336e-275
4.97185e-280
5.86587e-285
1.51677e-289
2.35212e-292
5.32361e-295
1.1402e-297
2.36461e-300
4.72785e-303
9.10323e-306
1.65558e-308
2.85854e-311
4.72384e-314
7.53616e-317
1.16516e-319
0
0
0
0
0
0
0
0
0
0
0
0
0
0
0
0
0
0
0
0
0
0
0
0
0
0
0
0
0
0
0
0
0
0
0
0
0
0
0
0
0
0
0
0
0
0
0
0
0
0
0
0
0
0
0
0
0
0
0
0
0
0
0
0
0
0
0
0
0
0
0
0
0
0
0
0
0
0
0
0
0
0
0
0
0
0
0
0
0
0
0
0
0
0
0
0
0
0
0
0
0
0
0
0
0
0
0
0
0
0
0
0
0
0
0
0
0
0
0
0
0
0
0
0
0
0
0
0
0
0
0
0
0
0
0
0
0
0
0
0
0
0
0
0
0
0
0
0
0
0
0
0
0
0
0
0
0
0
0
0
0
0
0
0
0
0
0
0
0
0
0
0
0
0
0
0
0
0
0
0
0
0
0
0
0
0
0
0
0
0
0
0
0
0
0
0
0
0
0
0
0
0
0
0
0
0
0
0
0
0
0
0
0
0
0
0
0
0
0
0
0
0
0
0
0
0
0
0
0
0
0
0
0
0
0
0
0
0
0
0
0
0
0
0
0
0
0
0
0
0
0
0
0.00125848
0.000841925
0.000702982
9.8863e-05
3.40663e-06
1.78955e-06
1.45187e-06
8.99056e-07
5.59047e-07
1.51791e-07
3.75256e-09
3.48632e-10
3.93404e-11
1.40449e-12
1.04908e-10
2.48638e-07
3.3007e-05
0.000229373
0.000633192
0.00202788
0.00438923
0.00446337
0.00437746
0.00385875
0.00352437
0.00339158
0.00370148
0.00262271
0.000624931
0.000226876
0.000111308
3.85083e-05
1.9426e-06
3.76211e-09
1.63128e-13
3.21131e-17
6.86055e-21
6.2266e-24
2.05117e-26
4.15002e-27
7.06203e-29
6.60418e-30
3.62314e-31
4.7259e-29
4.64371e-37
1.14649e-36
5.17828e-36
7.46513e-36
6.85451e-37
3.99677e-39
5.38376e-42
3.93282e-45
3.07852e-48
3.99094e-50
9.93384e-53
2.23512e-56
1.80509e-60
1.0999e-64
6.68193e-70
9.36237e-74
1.47055e-77
2.79949e-81
4.81836e-86
6.24113e-90
1.3725e-93
5.47582e-97
1.44694e-100
8.94786e-104
2.08311e-105
4.81195e-108
9.43496e-110
8.85179e-113
3.73156e-116
1.27628e-119
4.31609e-132
1.28378e-132
5.57799e-135
1.62275e-137
3.41245e-140
4.42293e-143
4.59918e-146
3.98796e-149
5.02651e-152
4.07719e-156
5.60494e-158
3.99605e-162
5.95098e-164
3.60605e-167
6.47894e-170
4.63683e-173
4.60693e-177
1.75479e-181
5.79984e-185
2.1265e-189
9.4313e-194
1.04191e-198
2.55381e-203
2.22439e-208
4.88646e-213
5.76074e-218
1.09408e-222
5.54959e-228
2.44591e-233
4.36436e-239
5.69888e-262
9.07578e-264
2.04837e-268
3.4148e-273
5.08912e-278
5.71215e-283
5.84634e-288
7.60402e-293
8.73999e-296
1.78831e-298
3.99279e-301
7.88261e-304
1.63872e-306
3.09793e-309
5.45908e-312
8.95017e-315
1.3435e-317
1.90462e-320
2.47033e-323
0
0
0
0
0
0
0
0
0
0
0
0
0
0
0
0
0
0
0
0
0
0
0
0
0
0
0
0
0
0
0
0
0
0
0
0
0
0
0
0
0
0
0
0
0
0
0
0
0
0
0
0
0
0
0
0
0
0
0
0
0
0
0
0
0
0
0
0
0
0
0
0
0
0
0
0
0
0
0
0
0
0
0
0
0
0
0
0
0
0
0
0
0
0
0
0
0
0
0
0
0
0
0
0
0
0
0
0
0
0
0
0
0
0
0
0
0
0
0
0
0
0
0
0
0
0
0
0
0
0
0
0
0
0
0
0
0
0
0
0
0
0
0
0
0
0
0
0
0
0
0
0
0
0
0
0
0
0
0
0
0
0
0
0
0
0
0
0
0
0
0
0
0
0
0
0
0
0
0
0
0
0
0
0
0
0
0
0
0
0
0
0
0
0
0
0
0
0
0
0
0
0
0
0
0
0
0
0
0
0
0
0
0
0
0
0
0
0
0
0
0
0
0
0
0
0
0
0
0
0
0
0
0
0
0
0
0
0
0
0
0
0
0
0
0
0
0
0
0
0
0
0.000125465
0.000104656
3.46679e-05
4.63719e-06
3.5864e-06
2.49041e-06
2.90263e-06
9.72761e-06
3.62604e-06
2.27571e-06
3.15665e-07
8.5037e-09
2.79244e-10
5.13413e-12
7.1617e-09
1.68112e-05
0.000753811
0.00362938
0.00215392
0.00151882
0.00157457
0.00140376
0.00133053
0.0015015
0.00130871
0.000921126
0.000734928
0.000889809
0.00124061
0.00164465
0.00252504
0.00444533
0.000822895
0.00010235
2.18827e-07
1.40165e-10
8.55229e-15
1.71763e-18
1.97322e-21
8.67673e-25
8.82777e-28
2.87392e-28
1.01764e-28
3.47588e-26
9.31742e-34
2.81057e-32
1.53013e-30
1.53948e-30
6.11841e-33
4.59173e-36
2.82953e-39
1.81544e-42
9.62302e-46
1.43177e-47
6.1696e-50
1.23858e-52
3.57949e-55
2.71582e-58
3.11498e-62
2.85874e-66
2.82015e-70
3.1463e-74
4.08048e-79
2.73511e-83
5.35734e-87
8.42597e-91
1.70088e-94
3.13437e-98
5.95987e-102
1.08219e-105
4.98138e-108
2.83639e-111
1.12723e-114
3.08695e-118
2.08363e-126
1.44004e-126
6.2638e-129
1.91292e-131
2.8484e-134
2.73893e-137
1.79737e-140
1.40081e-143
9.90967e-147
8.29454e-150
5.50494e-153
4.77823e-156
3.04861e-159
2.75564e-162
2.15812e-165
2.05544e-168
1.55043e-171
8.89008e-176
3.15227e-179
1.45592e-183
3.02536e-188
4.8246e-193
4.97063e-198
4.90022e-203
4.4063e-208
4.40782e-213
4.75291e-218
2.49703e-223
6.71717e-229
1.30142e-234
1.1933e-255
1.02486e-257
1.77581e-262
2.78773e-267
3.80571e-272
4.14977e-277
3.52143e-282
2.50604e-287
1.7814e-292
7.2614e-296
1.28783e-298
2.47361e-301
4.17214e-304
7.57067e-307
1.23375e-309
2.11313e-312
3.33526e-315
5.3451e-318
8.15702e-321
1.4822e-323
0
0
0
0
0
0
0
0
0
0
0
0
0
0
0
0
0
0
0
0
0
0
0
0
0
0
0
0
0
0
0
0
0
0
0
0
0
0
0
0
0
0
0
0
0
0
0
0
0
0
0
0
0
0
0
0
0
0
0
0
0
0
0
0
0
0
0
0
0
0
0
0
0
0
0
0
0
0
0
0
0
0
0
0
0
0
0
0
0
0
0
0
0
0
0
0
0
0
0
0
0
0
0
0
0
0
0
0
0
0
0
0
0
0
0
0
0
0
0
0
0
0
0
0
0
0
0
0
0
0
0
0
0
0
0
0
0
0
0
0
0
0
0
0
0
0
0
0
0
0
0
0
0
0
0
0
0
0
0
0
0
0
0
0
0
0
0
0
0
0
0
0
0
0
0
0
0
0
0
0
0
0
0
0
0
0
0
0
0
0
0
0
0
0
0
0
0
0
0
0
0
0
0
0
0
0
0
0
0
0
0
0
0
0
0
0
0
0
0
0
0
0
0
0
0
0
0
0
0
0
0
0
0
0
0
0
0
0
0
0
0
0
0
0
0
0
0
0
0
0
9.17792e-05
0.00010305
8.26267e-05
0.000450143
0.00230072
0.00120397
0.000798804
0.000430057
0.000348724
8.23625e-05
1.03407e-05
3.11182e-06
9.59311e-08
4.85164e-11
1.3374e-06
0.000228167
0.00070977
0.00126683
0.00138091
0.0015084
0.0014762
0.00119396
0.0008763
0.000740855
0.00049978
0.000356464
0.000279265
0.000243996
0.00032815
0.000436059
0.000451716
0.000483621
0.000637534
0.000507067
0.000136186
1.21484e-06
2.23781e-09
2.20646e-12
1.32584e-15
3.24354e-19
3.46788e-23
2.60914e-26
8.36794e-27
1.5484e-23
2.73033e-29
3.35789e-27
1.53553e-26
8.82228e-28
1.26707e-29
2.35206e-32
1.89648e-35
1.28089e-38
5.06918e-42
4.65874e-44
1.17656e-46
8.23979e-50
6.91635e-53
1.24446e-55
3.15383e-58
2.6023e-61
4.30383e-65
6.57528e-69
1.04016e-72
2.0326e-76
3.54918e-80
6.74606e-84
1.05816e-87
1.58485e-91
2.18033e-95
2.39635e-99
1.21123e-103
2.49993e-107
2.38101e-111
1.20389e-115
2.95195e-121
9.05679e-122
2.87453e-124
9.51631e-127
2.50523e-129
3.3633e-132
2.56087e-135
1.87781e-138
1.55795e-141
1.25934e-144
1.01182e-147
7.89386e-151
6.90489e-154
5.08034e-157
4.71937e-160
3.5787e-163
3.50486e-166
2.5222e-169
1.80584e-172
5.18781e-177
1.08411e-181
1.30705e-186
1.36337e-191
1.09359e-196
8.12356e-202
5.70322e-207
4.47646e-212
2.28899e-217
5.75785e-223
1.06965e-228
8.87088e-249
7.41387e-251
1.11749e-255
1.41867e-260
1.72296e-265
1.86133e-270
1.59638e-275
1.11652e-280
6.59196e-286
3.45599e-291
4.7051e-295
7.82529e-298
1.379e-300
2.27198e-303
3.82254e-306
6.18456e-309
9.84839e-312
1.55494e-314
2.34576e-317
3.56073e-320
4.94066e-323
0
0
0
0
0
0
0
0
0
0
0
0
0
0
0
0
0
0
0
0
0
0
0
0
0
0
0
0
0
0
0
0
0
0
0
0
0
0
0
0
0
0
0
0
0
0
0
0
0
0
0
0
0
0
0
0
0
0
0
0
0
0
0
0
0
0
0
0
0
0
0
0
0
0
0
0
0
0
0
0
0
0
0
0
0
0
0
0
0
0
0
0
0
0
0
0
0
0
0
0
0
0
0
0
0
0
0
0
0
0
0
0
0
0
0
0
0
0
0
0
0
0
0
0
0
0
0
0
0
0
0
0
0
0
0
0
0
0
0
0
0
0
0
0
0
0
0
0
0
0
0
0
0
0
0
0
0
0
0
0
0
0
0
0
0
0
0
0
0
0
0
0
0
0
0
0
0
0
0
0
0
0
0
0
0
0
0
0
0
0
0
0
0
0
0
0
0
0
0
0
0
0
0
0
0
0
0
0
0
0
0
0
0
0
0
0
0
0
0
0
0
0
0
0
0
0
0
0
0
0
0
0
0
0
0
0
0
0
0
0
0
0
0
0
0
0
0
0
0
0.00141483
0.00188296
0.00302876
0.00872866
0.00990367
0.00776022
0.00378088
0.00253509
0.00174277
0.000936513
0.000491201
0.000151071
4.09399e-06
1.63094e-08
7.36092e-06
0.000410819
0.00133372
0.00115369
0.00159891
0.00253489
0.00278756
0.00224873
0.00143386
0.000842808
0.000499778
0.000296114
0.000187986
0.000122961
0.000104379
0.000126238
0.000165974
0.00022519
0.000246526
0.000316678
0.000263185
9.55221e-05
6.00086e-06
2.85333e-08
9.03239e-11
2.03517e-13
1.33913e-17
1.12343e-21
9.03172e-25
3.53756e-21
1.9378e-24
3.76299e-23
1.00834e-23
1.55783e-24
4.55249e-26
2.96239e-29
8.62518e-33
1.70806e-35
1.99906e-38
3.93044e-40
7.42655e-43
2.54197e-46
8.32316e-50
4.61574e-53
5.47607e-56
1.11018e-58
2.24171e-61
1.58393e-64
4.32878e-68
1.06821e-71
2.72291e-75
6.14795e-79
1.34651e-82
2.35526e-86
3.82477e-90
4.4344e-94
3.70296e-98
2.0029e-102
9.32022e-107
3.30136e-111
1.02771e-116
2.38393e-118
1.91423e-121
3.06873e-124
8.18305e-127
3.33077e-129
1.50261e-131
3.25515e-134
3.90616e-137
4.25346e-140
3.98474e-143
3.92521e-146
3.41506e-149
3.16138e-152
2.77022e-155
2.4737e-158
2.12218e-161
1.88556e-164
1.48138e-167
1.28097e-170
2.11243e-175
2.71826e-180
2.14568e-185
1.64736e-190
9.41778e-196
5.73993e-201
3.11703e-206
1.59194e-211
4.53424e-217
8.01726e-223
4.95963e-242
3.76995e-244
3.94964e-249
3.75363e-254
3.68719e-259
3.64294e-264
3.30757e-269
2.42583e-274
1.42742e-279
7.19085e-285
3.11478e-290
1.75967e-294
2.58078e-297
4.31554e-300
6.55344e-303
1.0631e-305
1.57346e-308
2.44071e-311
3.50891e-314
5.22326e-317
7.30624e-320
1.03754e-322
0
0
0
0
0
0
0
0
0
0
0
0
0
0
0
0
0
0
0
0
0
0
0
0
0
0
0
0
0
0
0
0
0
0
0
0
0
0
0
0
0
0
0
0
0
0
0
0
0
0
0
0
0
0
0
0
0
0
0
0
0
0
0
0
0
0
0
0
0
0
0
0
0
0
0
0
0
0
0
0
0
0
0
0
0
0
0
0
0
0
0
0
0
0
0
0
0
0
0
0
0
0
0
0
0
0
0
0
0
0
0
0
0
0
0
0
0
0
0
0
0
0
0
0
0
0
0
0
0
0
0
0
0
0
0
0
0
0
0
0
0
0
0
0
0
0
0
0
0
0
0
0
0
0
0
0
0
0
0
0
0
0
0
0
0
0
0
0
0
0
0
0
0
0
0
0
0
0
0
0
0
0
0
0
0
0
0
0
0
0
0
0
0
0
0
0
0
0
0
0
0
0
0
0
0
0
0
0
0
0
0
0
0
0
0
0
0
0
0
0
0
0
0
0
0
0
0
0
0
0
0
0
0
0
0
0
0
0
0
0
0
0
0
0
0
0
0
0
0.00998074
0.0102928
0.0108271
0.0104062
0.00938786
0.0080813
0.00525899
0.00410316
0.00377118
0.00283941
0.00176208
0.00096082
2.62943e-05
1.61543e-07
2.21211e-05
0.000748783
0.0016697
0.00192155
0.00380796
0.00447048
0.00433416
0.00447486
0.00384967
0.00185538
0.000860954
0.0003994
0.000202323
0.000111401
7.25309e-05
6.44724e-05
7.38693e-05
9.47444e-05
0.000115674
0.00015046
0.000183466
0.000393765
7.38356e-05
1.0846e-05
2.83742e-07
2.7565e-09
7.67035e-12
5.0971e-16
2.83327e-20
1.17455e-18
5.02872e-20
1.15931e-19
1.14985e-20
2.87936e-21
3.889e-23
3.36876e-26
3.26533e-29
2.16777e-32
2.61156e-35
1.17723e-36
3.16964e-39
8.7387e-43
2.30497e-46
5.89147e-50
2.81028e-53
2.51386e-56
4.46683e-59
7.41363e-62
9.24154e-65
7.54796e-68
3.69054e-71
1.39873e-74
4.51403e-78
1.25962e-81
2.8298e-85
4.92607e-89
5.92391e-93
4.23478e-97
1.3793e-101
1.69718e-106
6.61764e-113
6.9363e-115
3.68565e-118
2.52974e-121
2.74172e-124
4.89165e-127
1.70046e-129
1.001e-131
5.57615e-134
1.75534e-136
3.04259e-139
4.01123e-142
4.83999e-145
5.17529e-148
5.69557e-151
5.43173e-154
5.82215e-157
5.14914e-160
5.12466e-163
4.463e-166
4.00412e-169
4.44054e-174
3.81608e-179
2.52219e-184
1.35313e-189
6.60702e-195
2.92061e-200
1.38243e-205
4.18246e-211
7.03911e-217
2.19942e-235
1.09774e-237
7.61404e-243
5.26433e-248
4.02298e-253
3.41363e-258
3.11318e-263
2.65962e-268
1.83437e-273
1.03066e-278
4.81289e-284
1.91328e-289
5.83026e-294
7.97159e-297
1.20846e-299
1.82808e-302
2.69576e-305
3.98614e-308
5.67381e-311
8.16184e-314
1.12773e-316
1.59316e-319
1.82804e-322
0
0
0
0
0
0
0
0
0
0
0
0
0
0
0
0
0
0
0
0
0
0
0
0
0
0
0
0
0
0
0
0
0
0
0
0
0
0
0
0
0
0
0
0
0
0
0
0
0
0
0
0
0
0
0
0
0
0
0
0
0
0
0
0
0
0
0
0
0
0
0
0
0
0
0
0
0
0
0
0
0
0
0
0
0
0
0
0
0
0
0
0
0
0
0
0
0
0
0
0
0
0
0
0
0
0
0
0
0
0
0
0
0
0
0
0
0
0
0
0
0
0
0
0
0
0
0
0
0
0
0
0
0
0
0
0
0
0
0
0
0
0
0
0
0
0
0
0
0
0
0
0
0
0
0
0
0
0
0
0
0
0
0
0
0
0
0
0
0
0
0
0
0
0
0
0
0
0
0
0
0
0
0
0
0
0
0
0
0
0
0
0
0
0
0
0
0
0
0
0
0
0
0
0
0
0
0
0
0
0
0
0
0
0
0
0
0
0
0
0
0
0
0
0
0
0
0
0
0
0
0
0
0
0
0
0
0
0
0
0
0
0
0
0
0
0
0
0.0114233
0.0108399
0.00956745
0.0076142
0.0069281
0.00519883
0.00451397
0.0045286
0.00446869
0.00392243
0.00249548
0.000827482
2.89223e-05
5.94778e-07
0.000126764
0.00151297
0.00290209
0.00349687
0.00378261
0.00240141
0.00233783
0.00281181
0.0039071
0.00442944
0.00219194
0.000849529
0.000330117
0.00014743
7.18516e-05
4.7525e-05
4.01565e-05
4.67832e-05
5.55359e-05
7.79016e-05
8.40192e-05
7.36527e-05
0.000191421
5.86749e-05
1.73457e-05
1.20686e-06
6.9e-08
2.38042e-10
4.19147e-15
7.78915e-16
1.16745e-15
3.01991e-16
1.64624e-17
3.46535e-18
2.09985e-19
1.32323e-21
1.21103e-24
5.43808e-28
2.84205e-31
2.89487e-33
8.83844e-36
1.87083e-39
4.25202e-43
1.04743e-46
3.16257e-50
1.39021e-53
1.16681e-56
1.49385e-59
2.01245e-62
2.33825e-65
2.20236e-68
1.95133e-71
1.53956e-74
9.24028e-78
3.80199e-81
1.12687e-84
2.2464e-88
2.59183e-92
8.81649e-97
5.07631e-102
1.37076e-109
1.13168e-111
5.78777e-115
6.47559e-118
2.57026e-121
1.59935e-124
2.64713e-127
1.17091e-129
7.64951e-132
3.79947e-134
1.26617e-136
3.12219e-139
6.22996e-142
1.0501e-144
1.55071e-147
2.03511e-150
2.37583e-153
2.66096e-156
2.76396e-159
2.75607e-162
2.6342e-165
2.36724e-168
1.91559e-173
1.10914e-178
5.22326e-184
2.22974e-189
8.68751e-195
3.30713e-200
9.68746e-206
1.79559e-211
2.13696e-229
5.77969e-232
2.46756e-237
1.19032e-242
6.83503e-248
4.62215e-253
3.80445e-258
3.48755e-263
2.9501e-268
1.94324e-273
1.03949e-278
4.53177e-284
1.70115e-289
5.2652e-294
6.72343e-297
9.55321e-300
1.34558e-302
1.88797e-305
2.5863e-308
3.55075e-311
4.75377e-314
6.41275e-317
8.45445e-320
3.45846e-323
0
0
0
0
0
0
0
0
0
0
0
0
0
0
0
0
0
0
0
0
0
0
0
0
0
0
0
0
0
0
0
0
0
0
0
0
0
0
0
0
0
0
0
0
0
0
0
0
0
0
0
0
0
0
0
0
0
0
0
0
0
0
0
0
0
0
0
0
0
0
0
0
0
0
0
0
0
0
0
0
0
0
0
0
0
0
0
0
0
0
0
0
0
0
0
0
0
0
0
0
0
0
0
0
0
0
0
0
0
0
0
0
0
0
0
0
0
0
0
0
0
0
0
0
0
0
0
0
0
0
0
0
0
0
0
0
0
0
0
0
0
0
0
0
0
0
0
0
0
0
0
0
0
0
0
0
0
0
0
0
0
0
0
0
0
0
0
0
0
0
0
0
0
0
0
0
0
0
0
0
0
0
0
0
0
0
0
0
0
0
0
0
0
0
0
0
0
0
0
0
0
0
0
0
0
0
0
0
0
0
0
0
0
0
0
0
0
0
0
0
0
0
0
0
0
0
0
0
0
0
0
0
0
0
0
0
0
0
0
0
0
0
0
0
0
0
0.00799384
0.00681799
0.00462329
0.00403188
0.00443442
0.00319365
0.00320169
0.00289485
0.00285041
0.00435536
0.00313807
0.000615041
2.29613e-05
7.70721e-06
8.7274e-05
0.000222438
0.00060969
0.00396657
0.00441377
0.00408468
0.00177476
0.00142098
0.00178096
0.00241351
0.00310741
0.00399122
0.0042956
0.0016019
0.000519603
0.000177145
7.4522e-05
4.35085e-05
3.44301e-05
2.84304e-05
2.78603e-05
3.09604e-05
3.77536e-05
4.48411e-05
4.21093e-05
8.44643e-05
8.9816e-05
3.10467e-05
7.43868e-06
1.02783e-06
5.22502e-09
4.98289e-12
7.73099e-14
1.06106e-14
1.61975e-14
8.15988e-14
1.46603e-14
3.77392e-15
3.3404e-16
1.05347e-17
1.86654e-20
8.19061e-24
8.27283e-27
2.31808e-29
1.6813e-32
2.6263e-36
5.4197e-40
1.40218e-43
4.17668e-47
1.43553e-50
6.44898e-54
4.44934e-57
4.34178e-60
4.58485e-63
4.53289e-66
4.11478e-69
3.67179e-72
3.25754e-75
2.91458e-78
2.5364e-81
1.64019e-84
4.70019e-88
4.93476e-92
3.01374e-98
3.96047e-101
1.95113e-104
5.80679e-107
2.3197e-109
1.0799e-111
1.16017e-114
2.70684e-118
8.17629e-122
5.83394e-125
1.51139e-127
7.9436e-130
4.31929e-132
1.69447e-134
4.90572e-137
1.09975e-139
2.02297e-142
3.35427e-145
5.15579e-148
7.29056e-151
9.37311e-154
1.16125e-156
1.35025e-159
1.49487e-162
1.57747e-165
1.53591e-168
6.98735e-174
2.96755e-179
1.17885e-184
4.45596e-190
1.56438e-195
4.76119e-201
1.16428e-206
2.16662e-212
2.83542e-218
3.67808e-224
7.77874e-230
2.7729e-235
1.25472e-240
6.69408e-246
4.271e-251
3.21084e-256
2.85479e-261
2.98783e-266
4.04309e-271
4.54289e-276
3.32503e-281
1.87834e-286
2.61718e-291
2.29942e-294
2.57011e-297
3.2338e-300
3.62156e-303
4.6073e-306
5.14625e-309
6.54812e-312
7.37013e-315
9.28525e-318
1.06817e-320
0
0
0
0
0
0
0
0
0
0
0
0
0
0
0
0
0
0
0
0
0
0
0
0
0
0
0
0
0
0
0
0
0
0
0
0
0
0
0
0
0
0
0
0
0
0
0
0
0
0
0
0
0
0
0
0
0
0
0
0
0
0
0
0
0
0
0
0
0
0
0
0
0
0
0
0
0
0
0
0
0
0
0
0
0
0
0
0
0
0
0
0
0
0
0
0
0
0
0
0
0
0
0
0
0
0
0
0
0
0
0
0
0
0
0
0
0
0
0
0
0
0
0
0
0
0
0
0
0
0
0
0
0
0
0
0
0
0
0
0
0
0
0
0
0
0
0
0
0
0
0
0
0
0
0
0
0
0
0
0
0
0
0
0
0
0
0
0
0
0
0
0
0
0
0
0
0
0
0
0
0
0
0
0
0
0
0
0
0
0
0
0
0
0
0
0
0
0
0
0
0
0
0
0
0
0
0
0
0
0
0
0
0
0
0
0
0
0
0
0
0
0
0
0
0
0
0
0
0
0
0
0
0
0
0
0
0
0
0
0
0
0
0
0
0
0
0
0
0
0
0
0
0
0
0
0
0
0
0
0
0
0
0
0
0.00238688
0.00205119
0.00145733
0.00143996
0.00224147
0.00218016
0.00151581
0.000967924
0.000719542
0.000791561
0.00167401
0.00292796
0.000174837
2.16902e-05
8.73567e-05
0.000306454
0.000601975
0.00320217
0.00357984
0.00205639
0.00136723
0.00187884
0.00347026
0.00436082
0.00438606
0.00442673
0.00421027
0.00158188
0.00045603
0.000144927
6.6389e-05
4.01356e-05
2.845e-05
2.27507e-05
1.91741e-05
1.78551e-05
1.89159e-05
2.0824e-05
2.99167e-05
2.93908e-05
3.00924e-05
7.47609e-05
7.05219e-05
2.53525e-05
1.5645e-05
9.46429e-07
6.91579e-08
3.77291e-09
1.07315e-09
1.00166e-10
9.09079e-13
1.55752e-13
2.64485e-14
2.99285e-15
6.25161e-17
1.95576e-19
3.35358e-22
1.40503e-25
1.87773e-29
2.81595e-33
5.08508e-37
1.32341e-40
4.35609e-44
1.41967e-47
4.98086e-51
2.22224e-54
1.29331e-57
9.72459e-61
8.00595e-64
6.82453e-67
5.82686e-70
5.11296e-73
4.58897e-76
4.24234e-79
4.0653e-82
4.07702e-85
3.50916e-88
8.1757e-92
6.34575e-96
2.43588e-99
2.47631e-102
3.64768e-105
2.72936e-108
8.26862e-112
2.04792e-115
4.90173e-119
1.75336e-122
1.76469e-125
3.95614e-128
1.00727e-130
2.34112e-133
4.76031e-136
8.69747e-139
1.46698e-141
2.41632e-144
3.64009e-147
5.24458e-150
7.46087e-153
1.04198e-155
1.33229e-158
1.68973e-161
2.03081e-164
2.57166e-167
1.39684e-170
2.3779e-176
3.2879e-182
5.33782e-188
1.44785e-193
6.18159e-199
2.98399e-204
8.95606e-210
2.41258e-215
5.65314e-221
1.50805e-226
6.06962e-232
2.82142e-237
1.45398e-242
8.05431e-248
5.20518e-253
3.84267e-258
3.54311e-263
3.63702e-268
3.48429e-273
2.63886e-278
1.62368e-283
8.35282e-289
1.3735e-293
1.33108e-296
1.72456e-299
2.23426e-302
2.85217e-305
3.63135e-308
4.55018e-311
5.68853e-314
7.01458e-317
8.61552e-320
7.90505e-323
0
0
0
0
0
0
0
0
0
0
0
0
0
0
0
0
0
0
0
0
0
0
0
0
0
0
0
0
0
0
0
0
0
0
0
0
0
0
0
0
0
0
0
0
0
0
0
0
0
0
0
0
0
0
0
0
0
0
0
0
0
0
0
0
0
0
0
0
0
0
0
0
0
0
0
0
0
0
0
0
0
0
0
0
0
0
0
0
0
0
0
0
0
0
0
0
0
0
0
0
0
0
0
0
0
0
0
0
0
0
0
0
0
0
0
0
0
0
0
0
0
0
0
0
0
0
0
0
0
0
0
0
0
0
0
0
0
0
0
0
0
0
0
0
0
0
0
0
0
0
0
0
0
0
0
0
0
0
0
0
0
0
0
0
0
0
0
0
0
0
0
0
0
0
0
0
0
0
0
0
0
0
0
0
0
0
0
0
0
0
0
0
0
0
0
0
0
0
0
0
0
0
0
0
0
0
0
0
0
0
0
0
0
0
0
0
0
0
0
0
0
0
0
0
0
0
0
0
0
0
0
0
0
0
0
0
0
0
0
0
0
0
0
0
0
0
0
0
0
0
0
0
0
0
0
0
0
0
0
0
0
0
0
0.000329644
0.000375513
0.000357408
0.000329453
0.000512135
0.000535332
0.000483942
0.000309372
0.000171375
0.000158962
0.000190939
0.000603602
0.00311171
0.00454557
0.00394287
0.00451159
0.00278212
0.00205975
0.00173546
0.00139124
0.00236404
0.00397852
0.00139117
0.00137822
0.00213611
0.00237812
0.00143278
0.000521811
0.000180494
7.03452e-05
3.81657e-05
2.63387e-05
2.2096e-05
1.8207e-05
1.54361e-05
1.42167e-05
1.18102e-05
1.17524e-05
1.39331e-05
1.52678e-05
1.97506e-05
1.96036e-05
1.86785e-05
4.5975e-05
0.000158053
0.000114833
3.01264e-05
1.23503e-05
8.76324e-06
2.2608e-06
4.28349e-08
1.38394e-08
2.72959e-09
2.21406e-10
5.9931e-12
4.18258e-15
8.52573e-19
1.09996e-22
1.29942e-26
1.96917e-30
3.79491e-34
1.0374e-37
3.18854e-41
1.03012e-44
4.0169e-48
1.49164e-51
5.57237e-55
2.90367e-58
1.65002e-61
1.11911e-64
7.54971e-68
5.76183e-71
4.62183e-74
3.85533e-77
3.3324e-80
3.40906e-83
3.09833e-86
3.20478e-89
2.68875e-92
1.50979e-95
5.65998e-99
1.83028e-102
7.22218e-106
3.26047e-109
1.11429e-112
3.35701e-116
1.03906e-119
3.73685e-123
1.64419e-126
9.06348e-130
5.86665e-133
5.58489e-136
7.24357e-139
1.04085e-141
1.53254e-144
2.2579e-147
3.26084e-150
4.39712e-153
5.96819e-156
7.64666e-159
9.86093e-162
1.25639e-164
1.60674e-167
1.53717e-170
5.18987e-176
1.3807e-181
3.1974e-187
6.6533e-193
1.41511e-198
4.04261e-204
1.05215e-209
3.29041e-215
9.97638e-221
3.33117e-226
1.3753e-231
6.1735e-237
2.99445e-242
1.5161e-247
8.93043e-253
5.79831e-258
4.43664e-263
3.91752e-268
3.62469e-273
2.81428e-278
1.79521e-283
9.43619e-289
4.44273e-294
2.51404e-298
3.11113e-301
4.06706e-304
5.29824e-307
6.80494e-310
8.6559e-313
1.08147e-315
1.3404e-318
1.63536e-321
0
0
0
0
0
0
0
0
0
0
0
0
0
0
0
0
0
0
0
0
0
0
0
0
0
0
0
0
0
0
0
0
0
0
0
0
0
0
0
0
0
0
0
0
0
0
0
0
0
0
0
0
0
0
0
0
0
0
0
0
0
0
0
0
0
0
0
0
0
0
0
0
0
0
0
0
0
0
0
0
0
0
0
0
0
0
0
0
0
0
0
0
0
0
0
0
0
0
0
0
0
0
0
0
0
0
0
0
0
0
0
0
0
0
0
0
0
0
0
0
0
0
0
0
0
0
0
0
0
0
0
0
0
0
0
0
0
0
0
0
0
0
0
0
0
0
0
0
0
0
0
0
0
0
0
0
0
0
0
0
0
0
0
0
0
0
0
0
0
0
0
0
0
0
0
0
0
0
0
0
0
0
0
0
0
0
0
0
0
0
0
0
0
0
0
0
0
0
0
0
0
0
0
0
0
0
0
0
0
0
0
0
0
0
0
0
0
0
0
0
0
0
0
0
0
0
0
0
0
0
0
0
0
0
0
0
0
0
0
0
0
0
0
0
0
0
0
0
0
0
0
0
0
0
0
0
0
0
0
0
0
0
0
0
3.83579e-05
5.44687e-05
6.64551e-05
6.0447e-05
6.00055e-05
4.5259e-05
4.26726e-05
4.03883e-05
3.92393e-05
3.87765e-05
3.79616e-05
6.26312e-05
0.000123388
0.000183147
0.000213251
0.000360058
0.00327098
0.00245865
0.00188168
0.00336052
0.00144065
0.000352511
0.000280913
0.000368614
0.000517218
0.000473363
0.000280209
0.00012037
5.99492e-05
3.30185e-05
2.26001e-05
1.84284e-05
1.58463e-05
1.39523e-05
1.22757e-05
1.1676e-05
1.10497e-05
1.04077e-05
1.00191e-05
9.95986e-06
9.80308e-06
1.00606e-05
1.4594e-05
1.76942e-05
1.47907e-05
1.46088e-05
3.41405e-05
5.50995e-05
2.83394e-05
4.44475e-06
1.79676e-06
6.83586e-07
1.82739e-07
1.21888e-08
7.38665e-10
6.34281e-13
2.36235e-16
4.47583e-20
6.30054e-24
9.40137e-28
1.86744e-31
4.56686e-35
1.52965e-38
5.49268e-42
2.02228e-45
7.51254e-49
2.87074e-52
1.11888e-55
4.68744e-59
2.40941e-62
1.29553e-65
7.02128e-69
4.56176e-72
2.71296e-75
2.04777e-78
1.38496e-81
1.13257e-84
7.98818e-88
5.51378e-91
3.1986e-94
1.4297e-97
5.74123e-101
1.96058e-104
6.12798e-108
1.865e-111
5.32899e-115
1.60619e-118
5.09895e-122
1.80179e-125
6.96823e-129
2.71258e-132
1.07383e-135
4.85439e-139
3.32064e-142
3.38406e-145
4.09347e-148
5.33125e-151
6.66582e-154
8.51761e-157
1.08255e-159
1.35681e-162
1.58962e-165
1.91504e-168
6.85556e-172
7.56561e-178
9.3033e-184
2.34634e-189
9.65844e-195
4.4347e-200
1.99291e-205
7.76526e-211
2.79463e-216
8.97352e-222
3.04853e-227
1.08348e-232
4.2786e-238
1.84739e-243
8.45461e-249
4.4849e-254
2.66122e-259
1.91371e-264
1.57838e-269
1.37057e-274
9.76887e-280
5.79817e-285
2.80415e-290
1.20367e-295
2.23228e-300
2.42844e-303
3.22826e-306
4.3076e-309
5.63376e-312
7.325e-315
9.35902e-318
1.18576e-320
1.4822e-323
0
0
0
0
0
0
0
0
0
0
0
0
0
0
0
0
0
0
0
0
0
0
0
0
0
0
0
0
0
0
0
0
0
0
0
0
0
0
0
0
0
0
0
0
0
0
0
0
0
0
0
0
0
0
0
0
0
0
0
0
0
0
0
0
0
0
0
0
0
0
0
0
0
0
0
0
0
0
0
0
0
0
0
0
0
0
0
0
0
0
0
0
0
0
0
0
0
0
0
0
0
0
0
0
0
0
0
0
0
0
0
0
0
0
0
0
0
0
0
0
0
0
0
0
0
0
0
0
0
0
0
0
0
0
0
0
0
0
0
0
0
0
0
0
0
0
0
0
0
0
0
0
0
0
0
0
0
0
0
0
0
0
0
0
0
0
0
0
0
0
0
0
0
0
0
0
0
0
0
0
0
0
0
0
0
0
0
0
0
0
0
0
0
0
0
0
0
0
0
0
0
0
0
0
0
0
0
0
0
0
0
0
0
0
0
0
0
0
0
0
0
0
0
0
0
0
0
0
0
0
0
0
0
0
0
0
0
0
0
0
0
0
0
0
0
0
0
0
0
0
0
0
0
0
0
0
0
0
0
0
0
0
0
0
7.94623e-06
8.86193e-06
1.01252e-05
1.12896e-05
1.21631e-05
1.28282e-05
1.29844e-05
1.27604e-05
1.28546e-05
1.23063e-05
1.23591e-05
1.77508e-05
2.21052e-05
3.46416e-05
4.0303e-05
8.44584e-05
0.000575409
0.00441118
0.00376167
0.000546988
0.000125977
8.34741e-05
9.0708e-05
0.000114691
0.000121764
0.000107911
6.937e-05
4.55924e-05
3.03117e-05
2.17835e-05
1.69035e-05
1.37548e-05
1.21165e-05
1.22555e-05
1.19058e-05
1.11342e-05
1.084e-05
1.05122e-05
1.00489e-05
9.60494e-06
9.18838e-06
8.87005e-06
8.62973e-06
7.60189e-06
7.38595e-06
8.33257e-06
7.44654e-06
5.93407e-06
5.25057e-06
5.07759e-06
2.18276e-06
1.33735e-06
1.43968e-06
1.22654e-06
2.2026e-07
2.2207e-10
9.23997e-14
2.30418e-17
3.91246e-21
6.03028e-25
1.23087e-28
2.99252e-32
8.79843e-36
2.94457e-39
1.05461e-42
3.84773e-46
1.40819e-49
5.10062e-53
1.8738e-56
6.58925e-60
2.4871e-63
8.48744e-67
3.47174e-70
1.46003e-73
6.09991e-77
2.6677e-80
1.14959e-83
4.79829e-87
1.95407e-90
7.56807e-94
2.55132e-97
8.28817e-101
2.67182e-104
8.24797e-108
2.52259e-111
7.46965e-115
2.4427e-118
7.94234e-122
2.6473e-125
8.75149e-129
2.92569e-132
9.63734e-136
3.12609e-139
1.07796e-142
4.13568e-146
2.03996e-149
1.55009e-152
1.47761e-155
1.6359e-158
1.85397e-161
2.06254e-164
2.15323e-167
2.26751e-170
1.14541e-175
5.38871e-181
2.23947e-186
8.52489e-192
2.89536e-197
9.06979e-203
2.63865e-208
7.12667e-214
1.90594e-219
5.20205e-225
1.6822e-230
6.02152e-236
2.53173e-241
1.17183e-246
5.88543e-252
3.23584e-257
1.9315e-262
1.28203e-267
9.34358e-273
6.51363e-278
3.7515e-283
1.82978e-288
7.82897e-294
3.47422e-299
6.70305e-303
8.9512e-306
1.2173e-308
1.62811e-311
2.16563e-314
2.82714e-317
3.68128e-320
4.44659e-323
0
0
0
0
0
0
0
0
0
0
0
0
0
0
0
0
0
0
0
0
0
0
0
0
0
0
0
0
0
0
0
0
0
0
0
0
0
0
0
0
0
0
0
0
0
0
0
0
0
0
0
0
0
0
0
0
0
0
0
0
0
0
0
0
0
0
0
0
0
0
0
0
0
0
0
0
0
0
0
0
0
0
0
0
0
0
0
0
0
0
0
0
0
0
0
0
0
0
0
0
0
0
0
0
0
0
0
0
0
0
0
0
0
0
0
0
0
0
0
0
0
0
0
0
0
0
0
0
0
0
0
0
0
0
0
0
0
0
0
0
0
0
0
0
0
0
0
0
0
0
0
0
0
0
0
0
0
0
0
0
0
0
0
0
0
0
0
0
0
0
0
0
0
0
0
0
0
0
0
0
0
0
0
0
0
0
0
0
0
0
0
0
0
0
0
0
0
0
0
0
0
0
0
0
0
0
0
0
0
0
0
0
0
0
0
0
0
0
0
0
0
0
0
0
0
0
0
0
0
0
0
0
0
0
0
0
0
0
0
0
0
0
0
0
0
0
0
0
0
0
0
0
0
0
0
0
0
0
0
0
0
0
0
0
0
8.92885e-06
9.30052e-06
9.88469e-06
1.0249e-05
1.02656e-05
1.029e-05
1.03e-05
1.01383e-05
1.0052e-05
1.00683e-05
1.03561e-05
1.09593e-05
1.21889e-05
1.419e-05
1.66787e-05
1.98931e-05
5.24832e-05
0.000195571
0.00017224
6.11819e-05
3.3289e-05
2.72256e-05
2.62521e-05
2.78552e-05
3.1841e-05
3.04066e-05
2.61049e-05
2.27396e-05
1.91871e-05
1.5226e-05
1.25564e-05
1.23353e-05
1.17484e-05
1.1462e-05
1.08748e-05
1.0654e-05
1.05647e-05
1.04654e-05
1.04314e-05
1.02367e-05
9.904e-06
9.68659e-06
9.23511e-06
8.69624e-06
8.44508e-06
8.16244e-06
7.59318e-06
5.96955e-06
5.64649e-06
4.95457e-06
4.76364e-06
5.43251e-06
5.31899e-06
2.18879e-06
5.42812e-07
4.21386e-09
9.27114e-13
1.95297e-16
3.29014e-20
4.95341e-24
8.35498e-28
1.78824e-31
4.65852e-35
1.4148e-38
4.60164e-42
1.58179e-45
5.60335e-49
1.99821e-52
7.09183e-56
2.41605e-59
8.63253e-63
2.97912e-66
1.04487e-69
3.6949e-73
1.30443e-76
4.74327e-80
1.74719e-83
6.0806e-87
2.19884e-90
7.52296e-94
2.48061e-97
8.57976e-101
2.74524e-104
9.17492e-108
2.94719e-111
9.55014e-115
3.09238e-118
9.77493e-122
3.17519e-125
1.00316e-128
3.20207e-132
1.01073e-135
3.23744e-139
1.02718e-142
3.39006e-146
1.17938e-149
5.04441e-153
3.12083e-156
2.63412e-159
2.62237e-162
2.74917e-165
2.78028e-168
2.53978e-171
1.03233e-176
3.53371e-182
1.01894e-187
2.63205e-193
6.24115e-199
1.50369e-204
4.01488e-210
1.29912e-215
4.89078e-221
1.9956e-226
8.36847e-232
3.55273e-237
1.54471e-242
6.83595e-248
3.18544e-253
1.57017e-258
8.48232e-264
5.04197e-269
2.92907e-274
1.45865e-279
6.37184e-285
2.49606e-290
9.00771e-296
3.2502e-301
3.34801e-305
4.35972e-308
6.09701e-311
8.14699e-314
1.11824e-316
1.46812e-319
1.97626e-322
0
0
0
0
0
0
0
0
0
0
0
0
0
0
0
0
0
0
0
0
0
0
0
0
0
0
0
0
0
0
0
0
0
0
0
0
0
0
0
0
0
0
0
0
0
0
0
0
0
0
0
0
0
0
0
0
0
0
0
0
0
0
0
0
0
0
0
0
0
0
0
0
0
0
0
0
0
0
0
0
0
0
0
0
0
0
0
0
0
0
0
0
0
0
0
0
0
0
0
0
0
0
0
0
0
0
0
0
0
0
0
0
0
0
0
0
0
0
0
0
0
0
0
0
0
0
0
0
0
0
0
0
0
0
0
0
0
0
0
0
0
0
0
0
0
0
0
0
0
0
0
0
0
0
0
0
0
0
0
0
0
0
0
0
0
0
0
0
0
0
0
0
0
0
0
0
0
0
0
0
0
0
0
0
0
0
0
0
0
0
0
0
0