/*--------------------------------*- C++ -*----------------------------------*\
| =========                 |                                                 |
| \\      /  F ield         | OpenFOAM: The Open Source CFD Toolbox           |
|  \\    /   O peration     | Version:  2.1.1                                 |
|   \\  /    A nd           | Web:      www.OpenFOAM.org                      |
|    \\/     M anipulation  |                                                 |
\*---------------------------------------------------------------------------*/
FoamFile
{
    version     2.0;
    format      ascii;
    class       volScalarField;
    location    "0.001700000";
    object      omega;
}
// * * * * * * * * * * * * * * * * * * * * * * * * * * * * * * * * * * * * * //

dimensions      [0 0 -1 0 0 0 0];

internalField   nonuniform List<scalar> 
12384
(
4064.95
4154.89
4354.03
1157.77
663.431
654.751
649.412
672.167
651.572
649.312
641.085
636.6
626.016
604.197
600.477
622.661
646.724
661.781
692.282
732.691
797.015
850.781
912.627
984.553
1032.43
1103.74
1144.91
1142.29
1179.58
1226.45
1261.99
1278.73
1187.27
1148.94
1065.83
974.863
913.502
797.027
703.901
687.529
645.343
628.131
620.688
610.833
611.539
616.811
621.39
624.107
632.583
643.363
661.149
681.661
694.208
710.006
725.204
737.092
741.702
743.652
737.628
725.734
713.432
694.815
680.024
654.069
650.682
634.498
630.499
628.11
627.167
625.365
622.859
619.396
615.496
610.518
612.214
615.434
616.376
618.147
619.557
621.569
622.083
623.07
623.428
623.403
623.864
623.594
623.593
623.371
623.04
622.943
622.388
622.37
621.802
621.691
621.18
621.143
620.106
620.324
618.96
618.9
617.537
617.142
615.828
615.542
617.818
618.079
618.153
618.387
618.384
618.57
618.542
618.787
618.609
618.913
618.647
618.961
618.683
618.966
618.725
618.953
618.753
618.929
618.746
618.908
618.743
618.865
618.757
618.775
618.791
618.707
618.753
618.675
618.686
618.618
618.854
618.878
618.881
618.887
618.888
618.893
618.893
618.894
618.898
618.894
618.9
618.896
618.892
618.891
618.896
618.899
618.895
618.902
618.9
618.904
618.901
618.903
618.903
618.901
618.901
618.898
618.899
618.898
618.891
618.909
618.882
618.902
618.906
618.906
618.908
618.904
618.905
618.907
618.907
618.906
618.907
618.906
618.902
618.903
618.897
618.902
618.899
618.904
618.904
618.906
618.907
618.906
618.909
618.908
618.909
618.91
618.908
618.911
618.905
618.883
618.882
618.904
618.905
618.903
618.905
618.907
618.907
618.907
618.908
618.906
618.908
618.906
618.902
618.903
618.897
618.902
618.899
618.903
618.904
618.904
618.904
618.904
618.904
618.903
618.901
618.9
618.899
618.899
618.891
618.909
618.912
618.895
618.896
618.899
618.902
618.902
618.904
618.904
618.906
618.904
618.906
618.904
618.901
618.902
618.897
618.901
618.899
618.903
618.903
618.904
618.904
618.904
618.904
618.903
618.901
618.9
618.899
618.898
618.891
618.909
618.916
618.892
618.897
618.9
618.907
618.906
618.906
618.907
618.906
618.906
618.906
618.905
618.904
618.899
618.901
618.897
618.901
618.9
618.903
618.906
618.904
618.905
618.908
618.907
618.907
618.91
618.906
618.908
618.905
618.884
618.914
618.894
618.896
618.899
618.901
618.902
618.904
618.904
618.905
618.904
618.906
618.905
618.901
618.902
618.897
618.901
618.899
618.903
618.904
618.904
618.904
618.903
618.904
618.902
618.901
618.899
618.9
618.898
618.892
618.909
618.885
618.903
618.904
618.908
618.912
618.911
618.91
618.909
618.908
618.906
618.907
618.906
618.904
618.902
618.905
618.905
618.902
618.902
618.906
618.907
618.906
618.908
618.909
618.91
618.911
618.909
618.904
618.903
618.902
618.886
618.914
618.895
618.899
618.901
618.908
618.904
618.913
618.906
618.913
618.906
618.912
618.906
618.906
618.903
618.901
618.901
618.899
618.903
618.903
618.903
618.905
618.904
618.906
618.903
618.903
618.899
618.9
618.898
618.892
618.91
3885.4
55664.8
50426.5
31887.4
27267.5
22998.1
19643.6
17770.6
16863.5
18421.4
19723.8
18432
12913.7
640.132
634.6
16379.8
21789.8
26522.7
30501.6
35977.7
42060.5
48404.2
56331.2
64493.5
72219.8
79587.1
85908.9
92054.4
96642.9
102247
107507
113979
118635
122778
124042
122773
119571
113924
105211
92103
74270.7
53009.1
30113.8
680.101
615.733
10046.6
15324.1
21068.2
26270.2
30042.7
32929.6
35697.1
38836.5
43876.5
50473.6
58352.6
66556.5
74382
81254.2
86906.7
91201.1
94139.7
95479.4
95230.9
93041.8
88467.1
81602.4
71866.8
60394.5
47488.5
34372.9
21768.7
10773.9
618.821
603.773
3245.12
4313.93
5899.84
7960.52
10232.9
12503.5
14531
16190.6
17409.8
18211
18592
18639.9
18380.2
17862.7
17068.4
16051.2
14819
13458.7
11984.2
10473.3
8944.62
7442.62
6005.66
4632.96
3377.77
2249.85
1308.35
619.784
615.273
614.003
237.038
258.83
291.14
324.294
352.127
370.252
378.314
377.179
368.119
352.914
333.141
310.997
288.382
266.458
245.901
226.982
209.491
193.391
178.841
166.024
154.897
145.426
137.433
130.776
125.349
121.082
117.896
119.611
617.808
617.948
118.685
114.699
114.731
114.76
114.782
114.803
114.832
114.863
114.906
114.948
114.999
115.09
115.147
115.195
115.19
115.147
115.096
115.029
114.979
114.942
114.902
114.867
114.835
114.807
114.793
114.773
114.759
119.05
617.997
618.012
118.849
114.755
114.782
114.766
114.776
114.81
114.847
114.892
114.936
114.975
115.023
115.095
115.138
115.181
115.193
115.169
115.108
115.016
114.962
114.918
114.87
114.841
114.811
114.79
114.773
114.755
114.738
118.83
618.022
618.013
118.811
114.727
114.753
114.789
114.81
114.844
114.875
114.914
114.948
114.983
115.029
115.101
115.151
115.2
115.197
115.155
115.099
115.026
114.977
114.942
114.902
114.867
114.837
114.81
114.795
114.773
114.755
119.045
617.996
618.002
118.984
114.732
114.759
114.788
114.811
114.835
114.864
114.898
114.938
114.972
115.018
115.1
115.154
115.201
115.195
115.154
115.099
115.029
114.978
114.941
114.901
114.864
114.832
114.805
114.792
114.772
114.757
119.048
617.996
617.983
119.002
114.726
114.762
114.794
114.819
114.849
114.88
114.914
114.948
114.981
115.025
115.093
115.139
115.182
115.197
115.163
115.097
115.011
114.97
114.943
114.894
114.86
114.826
114.802
114.777
114.748
114.716
118.805
618.011
617.996
119.004
114.74
114.765
114.794
114.817
114.842
114.874
114.909
114.947
114.98
115.024
115.098
115.148
115.198
115.196
115.157
115.1
115.028
114.977
114.94
114.898
114.862
114.83
114.802
114.788
114.769
114.759
119.05
617.997
618.005
118.883
114.757
114.75
114.769
114.781
114.816
114.852
114.897
114.94
114.982
115.034
115.105
115.153
115.196
115.198
115.158
115.107
115.031
114.98
114.941
114.904
114.864
114.834
114.803
114.79
114.762
114.744
118.869
618.005
617.999
119.011
114.748
114.772
114.801
114.82
114.837
114.861
114.887
114.921
114.958
115.006
115.083
115.148
115.193
115.195
115.157
115.101
115.038
114.987
114.943
114.898
114.857
114.821
114.793
114.78
114.766
114.767
119.068
617.996
3328.87
64495.8
53323.4
34060.3
20768.2
18588.2
18396.8
18556.8
16585.1
15631.7
15186.5
15358.3
12415.7
626.702
667.07
24951.6
35769.8
45483
58252.1
71719.8
79380.4
79986.5
88643.5
98040
104074
114125
119021
121498
123922
120882
118785
118323
118204
117723
115887
111972
106282
99013.9
90345.3
79912.5
67678
53294.4
36895.3
698.799
624.994
19064.4
26109.4
34713.7
43366
50526.4
55222
57439.7
57755.8
59186.4
61883
66139.8
70746.7
75018.9
78530
80914.6
82012
81927.7
80505.7
77766.2
73653.5
68049.3
60913.4
52707.3
43856.5
35031.1
26537.5
18806
11842.6
613.401
600.054
6839.05
8018.6
9471.43
11114.3
12748
14133.2
15172.9
15771.4
15968.7
15781.4
15378.8
14820.2
14179.7
13432.2
12591.4
11628.1
10589.5
9491.03
8363.4
7234.39
6144.28
5110.33
4136.62
3229.02
2387.74
1641.96
1014.88
556.318
598.619
598.05
372.404
365.019
362.266
360.113
357.16
350.27
339.591
325.718
308.836
290.45
271.723
253.743
236.416
219.952
204.711
190.839
178.2
166.724
156.527
147.611
139.95
133.4
127.854
123.187
119.329
116.228
113.87
115.07
597.668
597.761
114.325
111.357
111.317
111.283
111.264
111.236
111.223
111.2
111.19
111.167
111.152
111.118
111.093
111.077
111.07
111.096
111.115
111.144
111.153
111.171
111.175
111.191
111.194
111.212
111.219
111.234
111.258
114.345
597.697
597.779
114.34
111.254
111.232
111.224
111.207
111.199
111.181
111.178
111.16
111.155
111.133
111.118
111.086
111.072
111.062
111.087
111.109
111.143
111.156
111.179
111.186
111.204
111.206
111.222
111.225
111.239
111.256
114.296
597.756
597.774
114.371
111.249
111.217
111.215
111.199
111.196
111.18
111.178
111.161
111.157
111.134
111.118
111.084
111.07
111.063
111.09
111.11
111.14
111.149
111.168
111.173
111.189
111.193
111.211
111.217
111.232
111.256
114.352
597.697
597.695
114.317
111.259
111.227
111.226
111.209
111.206
111.189
111.187
111.169
111.164
111.14
111.121
111.086
111.071
111.062
111.088
111.108
111.138
111.148
111.167
111.172
111.189
111.192
111.21
111.217
111.233
111.257
114.35
597.696
597.688
114.371
111.245
111.224
111.21
111.207
111.19
111.189
111.173
111.171
111.153
111.144
111.115
111.096
111.067
111.067
111.076
111.114
111.141
111.163
111.174
111.186
111.204
111.207
111.223
111.225
111.237
111.251
114.323
597.775
597.687
114.343
111.257
111.224
111.224
111.207
111.204
111.188
111.186
111.169
111.164
111.14
111.123
111.088
111.072
111.062
111.086
111.106
111.137
111.147
111.167
111.172
111.189
111.192
111.211
111.218
111.234
111.259
114.343
597.697
597.771
114.344
111.254
111.23
111.219
111.2
111.196
111.18
111.178
111.16
111.156
111.133
111.118
111.085
111.065
111.066
111.086
111.119
111.134
111.158
111.162
111.18
111.182
111.198
111.202
111.22
111.227
111.252
114.359
597.77
597.686
114.345
111.254
111.22
111.22
111.202
111.199
111.182
111.18
111.164
111.161
111.139
111.125
111.092
111.075
111.06
111.082
111.103
111.135
111.145
111.165
111.169
111.187
111.19
111.209
111.216
111.233
111.26
114.342
597.696
2471.22
66516.2
60775.6
42731.8
33525
31953.2
32124.4
32256
27727.2
22408.8
17916.5
17045.9
13639.8
622.279
722.001
32928.8
52234.4
87112.2
113226
129005
125226
118227
121150
126761
133957
137777
132765
126469
125345
131443
144718
151048
155451
143094
132121
123072
113730
103177
91713.2
79620.5
67677.5
56638
46002.8
726.993
664.557
36468.9
50326.6
66901.9
81916
91701.5
96886.6
99557.7
98875.7
96808.1
94499.8
93569.8
93836.3
94600.8
95111.8
94843.5
93616.4
91520.8
88363.8
83996.8
78394.7
71514
63496.6
54679.7
45598.5
36708.9
28440.8
21371.8
15785.9
609.836
604.718
12202.9
14659
16669.7
18154
19375.1
20155.5
20529.8
20418.2
19928.8
19112.8
18074.4
16891.4
15695.2
14505.7
13330.8
12156.3
10978.6
9809.26
8653.56
7521.99
6421.68
5355.75
4343.36
3396.23
2531.7
1767.71
1132.71
672.534
597.67
599.104
621.678
578.479
539.095
507.223
474.177
442.252
411.055
380.683
351.171
323.099
296.512
271.697
249.124
228.989
211.217
195.401
181.401
169.08
158.434
149.207
141.252
134.386
128.54
123.617
119.557
116.295
113.811
116.038
597.823
597.915
115.345
111.186
111.113
111.075
111.047
111.022
111.004
110.987
110.975
110.964
110.957
110.948
110.941
110.941
110.938
110.938
110.937
110.938
110.938
110.939
110.938
110.939
110.94
110.942
110.942
110.947
110.981
115.168
597.961
597.907
115.187
110.976
110.947
110.943
110.941
110.942
110.94
110.94
110.938
110.938
110.936
110.936
110.934
110.934
110.934
110.934
110.934
110.936
110.936
110.937
110.937
110.939
110.94
110.941
110.942
110.946
110.979
115.184
597.911
597.909
115.191
110.981
110.947
110.944
110.941
110.941
110.938
110.939
110.937
110.937
110.935
110.935
110.933
110.933
110.932
110.934
110.934
110.936
110.936
110.938
110.937
110.939
110.939
110.941
110.941
110.947
110.981
115.167
597.961
597.965
115.167
110.978
110.943
110.941
110.939
110.939
110.938
110.938
110.937
110.937
110.935
110.935
110.933
110.933
110.932
110.934
110.934
110.936
110.936
110.938
110.937
110.939
110.939
110.941
110.941
110.947
110.981
115.167
597.962
597.967
115.17
110.977
110.947
110.942
110.942
110.94
110.939
110.938
110.938
110.937
110.936
110.935
110.934
110.933
110.934
110.933
110.935
110.934
110.939
110.941
110.937
110.939
110.939
110.941
110.942
110.946
110.978
115.185
597.909
597.971
115.165
110.978
110.943
110.941
110.939
110.939
110.938
110.938
110.937
110.937
110.935
110.935
110.933
110.933
110.932
110.933
110.934
110.936
110.936
110.938
110.937
110.939
110.939
110.941
110.941
110.947
110.981
115.168
597.961
597.907
115.183
110.975
110.941
110.945
110.941
110.941
110.939
110.939
110.937
110.937
110.935
110.935
110.933
110.936
110.936
110.933
110.934
110.935
110.936
110.937
110.938
110.938
110.94
110.94
110.943
110.942
110.977
115.188
597.907
597.968
115.168
110.978
110.942
110.941
110.939
110.939
110.938
110.939
110.938
110.938
110.936
110.935
110.933
110.933
110.932
110.932
110.932
110.934
110.935
110.937
110.937
110.939
110.939
110.941
110.941
110.946
110.98
115.167
597.963
2334.88
64757.7
65625
54594.4
46299.5
46270.6
47516.7
48584.9
40964.8
31842.9
24581.9
21643.6
16956.8
671.645
826.011
36838.6
77825.2
107115
117018
128704
123655
119599
122044
124718
129294
134938
128274
125898
133821
144010
157207
162069
157213
164782
152234
139680
129107
118119
105871
92744.3
79928.4
69817.1
61890.9
806.347
754.472
61418.8
78528.7
93831.1
105360
116657
129403
143707
151287
150987
144722
136310
128866
123640
119368
115422
111405
107069
102307
96628.9
89969.5
82363.4
73770.8
64391.7
54832.1
45326.9
36491.6
29031.7
23576.9
613.135
613.245
19687.5
25925.1
29622.2
30488
30395
29718.4
28863.9
27633.8
26197.9
24518.7
22683.1
20783.3
18909.5
17134.8
15486.4
13943.6
12485.1
11094
9759.65
8472.69
7245.64
6075.04
4987.71
3975.08
3049.9
2219.31
1507.79
959.619
599.392
602.119
1036.12
914.401
817.578
739.959
663.609
595.325
534.424
479.78
431.006
387.278
348.364
313.863
282.922
255.037
230.763
209.883
192.249
177.264
164.505
153.652
144.522
136.874
130.477
125.141
120.708
117.127
114.339
116.316
600.179
600.299
115.679
111.407
111.284
111.22
111.159
111.119
111.077
111.055
111.027
111.015
110.995
110.992
110.984
110.973
110.977
110.969
110.974
110.967
110.973
110.967
110.973
110.966
110.972
110.965
110.972
110.967
110.998
115.236
600.223
600.279
115.26
111.004
110.966
110.968
110.972
110.965
110.972
110.966
110.973
110.966
110.973
110.965
110.971
110.964
110.97
110.964
110.971
110.964
110.971
110.964
110.971
110.965
110.972
110.966
110.973
110.967
111.005
115.261
600.27
600.272
115.249
110.999
110.973
110.965
110.972
110.965
110.972
110.966
110.973
110.965
110.972
110.964
110.97
110.963
110.969
110.963
110.971
110.965
110.972
110.966
110.972
110.965
110.972
110.965
110.972
110.966
110.998
115.236
600.223
600.231
115.237
110.997
110.973
110.965
110.972
110.965
110.973
110.966
110.973
110.965
110.971
110.964
110.97
110.963
110.969
110.963
110.971
110.965
110.972
110.966
110.972
110.965
110.972
110.965
110.972
110.966
110.998
115.235
600.223
600.231
115.234
111.003
110.966
110.972
110.965
110.973
110.966
110.973
110.966
110.973
110.965
110.971
110.964
110.97
110.963
110.97
110.963
110.97
110.967
110.966
110.971
110.965
110.972
110.966
110.973
110.967
111.006
115.257
600.277
600.222
115.237
110.997
110.972
110.965
110.972
110.965
110.973
110.966
110.973
110.965
110.971
110.964
110.97
110.963
110.969
110.963
110.971
110.965
110.972
110.965
110.972
110.965
110.971
110.965
110.972
110.967
110.998
115.237
600.223
600.282
115.252
111.004
110.971
110.966
110.972
110.965
110.972
110.965
110.973
110.965
110.972
110.964
110.97
110.963
110.963
110.969
110.963
110.971
110.965
110.972
110.965
110.972
110.965
110.972
110.965
110.971
111.002
115.251
600.279
600.225
115.237
110.996
110.972
110.965
110.972
110.966
110.973
110.966
110.974
110.966
110.972
110.964
110.97
110.962
110.968
110.962
110.969
110.963
110.971
110.965
110.972
110.965
110.971
110.965
110.972
110.967
110.997
115.235
600.224
2889.36
60641.6
64331.9
58136.1
53371.3
53225.8
52639.5
54851.5
52845.2
50191.2
43403.4
30214
22918.2
734.025
800.294
39838.9
103535
117282
121101
128891
126083
124673
125801
124787
125278
127266
120925
121996
127850
138232
148288
152340
162935
164960
171290
161266
149021
137661
125901
113227
100961
91951.4
86684.2
1043.87
796.491
83533.1
91506.7
95357.5
103418
127207
163488
196497
215680
217789
208474
192181
176061
162603
152207
143543
135764
128370
121143
113699
105595
96982.2
87699.8
77828.9
67948.5
58398.8
49640.5
42428.9
37275.6
623.853
630.525
29880.7
44892
53069.8
52867.1
49181.7
44814.3
41061.2
37634.2
34485.9
31453.8
28479.4
25630.9
22926.6
20480.5
18277.6
16307.4
14503.9
12843.6
11295.4
9836.35
8461.45
7149.62
5928.91
4793.08
3762.46
2834.37
2040.64
1447.33
601.914
606.197
1714.94
1433.32
1230.32
1066.94
921.312
796.591
690.514
601.407
525.733
461.219
406.222
359.195
318.445
283.246
253.175
227.8
206.5
188.548
173.519
160.99
150.52
141.713
134.279
128.078
122.927
118.684
115.304
116.7
602.632
602.791
116.051
111.719
111.511
111.383
111.276
111.203
111.141
111.102
111.067
111.046
111.024
111.015
111.004
110.995
110.994
110.987
110.99
110.985
110.989
110.984
110.988
110.983
110.986
110.982
110.985
110.984
111.013
115.193
602.743
602.749
115.191
111.015
110.981
110.987
110.987
110.983
110.987
110.984
110.988
110.984
110.988
110.983
110.986
110.982
110.986
110.982
110.986
110.982
110.986
110.981
110.986
110.983
110.987
110.983
110.987
110.983
111.017
115.184
602.752
602.748
115.195
111.015
110.986
110.982
110.987
110.983
110.988
110.984
110.988
110.983
110.987
110.981
110.985
110.98
110.984
110.981
110.986
110.983
110.987
110.984
110.987
110.983
110.986
110.982
110.985
110.982
111.014
115.193
602.743
602.744
115.188
111.013
110.986
110.982
110.987
110.983
110.988
110.984
110.988
110.983
110.986
110.981
110.984
110.98
110.985
110.981
110.986
110.983
110.987
110.984
110.987
110.983
110.986
110.982
110.985
110.982
111.014
115.194
602.743
602.742
115.197
111.017
110.983
110.986
110.983
110.988
110.984
110.989
110.984
110.988
110.983
110.986
110.981
110.985
110.981
110.985
110.981
110.984
110.985
110.983
110.986
110.982
110.987
110.983
110.986
110.983
111.018
115.186
602.749
602.745
115.194
111.013
110.986
110.982
110.987
110.983
110.988
110.984
110.988
110.983
110.987
110.982
110.985
110.98
110.984
110.981
110.986
110.983
110.987
110.983
110.987
110.982
110.986
110.982
110.985
110.983
111.013
115.192
602.743
602.751
115.193
111.015
110.986
110.984
110.987
110.983
110.988
110.984
110.988
110.983
110.987
110.982
110.984
110.981
110.982
110.984
110.981
110.987
110.983
110.988
110.983
110.987
110.982
110.986
110.982
110.985
111.016
115.193
602.75
602.746
115.191
111.012
110.986
110.982
110.987
110.983
110.988
110.984
110.989
110.984
110.988
110.982
110.984
110.979
110.983
110.979
110.984
110.982
110.987
110.983
110.987
110.983
110.986
110.982
110.986
110.984
111.013
115.194
602.744
3998.92
56232.7
59969.4
56423.5
54882.9
57204.5
58188.8
60394.7
58199.7
55394.2
52438.2
43784.2
28955.6
770.034
883.996
50504.4
131484
129524
122024
125351
125366
126073
126639
125004
123318
122925
118729
121776
127058
135569
142904
149744
161635
176176
175094
184567
179710
166972
155345
145495
137338
131107
128545
1773.37
705.403
93787
100461
105951
126666
170213
225046
269846
294168
295015
279644
254719
229276
207794
191080
177737
166313
156047
146540
137254
127897
118226
108241
98407.1
89157.1
80692.6
73088.7
66556
62290
661.754
638.675
48505.3
79412.9
93454.9
91096.4
80141
68292.4
58945.2
51796.9
45971.7
40945.7
36489.1
32439.3
28695.6
25270.1
22324.3
19741.6
17465
15399.3
13519.9
11791.2
10203.1
8720.55
7357.72
6120.36
5002.82
3958.95
3027.11
2345.85
606.449
613.188
2764.24
2248.88
1835.11
1525.6
1280.3
1080.59
914.452
778.174
665.763
573.06
495.243
429.551
373.925
327.339
288.35
255.824
228.662
206.154
187.497
172.082
159.264
148.577
139.621
132.202
126.117
121.123
117.025
117.74
607.748
607.993
116.992
112.249
111.885
111.647
111.469
111.341
111.246
111.179
111.128
111.092
111.064
111.046
111.031
111.02
111.015
111.008
111.007
111.005
111.005
111.003
111.004
111.002
111.002
111
111.001
111
111.03
115.31
607.893
607.906
115.298
111.03
110.998
111.004
111.003
111.001
111.003
111.002
111.005
111.003
111.004
111.002
111.003
111.001
111.002
111.001
111.002
111.001
111.002
111
111.003
111.001
111.003
111.001
111.001
110.999
111.032
115.298
607.902
607.904
115.295
111.032
111.001
110.999
111.002
111.001
111.004
111.002
111.004
111.002
111.003
111
111.001
111
111.001
111
111.002
111.002
111.004
111.002
111.004
111.001
111.002
111
111
110.999
111.031
115.311
607.893
607.897
115.302
111.03
111
110.999
111.002
111.001
111.004
111.002
111.004
111.002
111.003
111
111.001
111
111.001
111
111.002
111.002
111.004
111.002
111.004
111.001
111.002
111
111.001
110.999
111.03
115.311
607.893
607.896
115.31
111.031
110.999
111.001
111.001
111.003
111.002
111.005
111.003
111.004
111.002
111.003
111.001
111.002
111
111.001
111
111.001
111.003
111.001
111.003
111.001
111.003
111.001
111.001
110.999
111.032
115.291
607.906
607.895
115.31
111.029
111
110.999
111.002
111.001
111.004
111.003
111.004
111.002
111.003
111
111.001
111
111.001
111
111.002
111.002
111.003
111.002
111.003
111.001
111.001
111
111.001
111
111.03
115.31
607.893
607.908
115.297
111.03
111.002
111.001
111.002
111.001
111.003
111.002
111.004
111.002
111.003
111.001
111.001
110.999
111
111.001
111
111.003
111.001
111.003
111.002
111.003
111
111.001
110.999
110.999
111.031
115.295
607.907
607.896
115.305
111.029
110.999
110.998
111.002
111.001
111.004
111.002
111.004
111.002
111.003
111
111.001
110.998
111
110.999
111.001
111.001
111.003
111.002
111.004
111.002
111.003
111
111.003
111.001
111.031
115.307
607.893
4368.97
54866
58661
58035.6
60417.6
66081.3
70446.4
75038.9
75584.8
72750.2
67732.5
48094.5
31695
744.296
2048.36
82457.2
137220
129748
122089
124528
126929
129354
131079
129710
126730
124444
121551
124106
128427
134525
141033
148389
158108
169281
181113
190632
201625
207426
192821
180712
172412
165446
169309
2626.74
1081.77
101215
137795
171894
216563
272294
330667
373038
389697
379704
354094
318444
283364
254827
233174
216092
201645
188628
176614
165257
154117
143168
132132
121270
110707
100555
91065.9
83820.8
86970
703.643
1081.42
100682
146250
156404
144594
121233
98207
81070.5
68944.2
59772.9
52385
46093.8
40503.8
35580.8
31213.3
27366.7
23997.9
21087.4
18517.5
16230.6
14150.6
12255.8
10505.8
8890.94
7381.96
5967.42
4666.76
3664.89
3351.33
613.263
619.785
4870.38
3668.84
2738.02
2113.8
1683.41
1370.22
1137.45
956.951
812.279
693.489
592.252
506.983
435.652
376.588
327.395
286.601
252.841
225.176
202.515
183.965
168.696
156.122
145.674
136.958
129.716
123.632
118.577
118.669
612.891
613.132
118.194
112.947
112.321
111.937
111.669
111.484
111.351
111.258
111.188
111.14
111.104
111.081
111.062
111.049
111.041
111.035
111.031
111.028
111.027
111.025
111.025
111.023
111.023
111.022
111.022
111.022
111.051
115.224
613.043
613.045
115.221
111.05
111.02
111.026
111.024
111.023
111.024
111.024
111.025
111.024
111.025
111.025
111.025
111.024
111.024
111.024
111.024
111.023
111.023
111.022
111.023
111.022
111.024
111.022
111.022
111.021
111.052
115.218
613.045
613.043
115.221
111.053
111.022
111.021
111.023
111.023
111.025
111.024
111.025
111.024
111.024
111.023
111.024
111.023
111.023
111.023
111.024
111.024
111.024
111.024
111.025
111.023
111.023
111.021
111.022
111.02
111.051
115.226
613.044
613.044
115.222
111.051
111.021
111.021
111.023
111.023
111.025
111.024
111.025
111.023
111.024
111.023
111.024
111.023
111.023
111.024
111.024
111.024
111.025
111.024
111.025
111.023
111.023
111.022
111.022
111.021
111.051
115.227
613.043
613.045
115.231
111.052
111.02
111.022
111.023
111.024
111.024
111.026
111.025
111.025
111.024
111.025
111.024
111.024
111.023
111.024
111.023
111.022
111.024
111.023
111.024
111.023
111.023
111.022
111.022
111.02
111.052
115.218
613.044
613.044
115.225
111.05
111.021
111.021
111.024
111.023
111.025
111.024
111.025
111.024
111.024
111.023
111.024
111.023
111.023
111.023
111.024
111.023
111.024
111.023
111.024
111.023
111.022
111.021
111.022
111.022
111.05
115.224
613.044
613.045
115.222
111.05
111.023
111.023
111.023
111.022
111.024
111.024
111.025
111.024
111.025
111.023
111.024
111.023
111.023
111.023
111.023
111.024
111.023
111.024
111.023
111.024
111.022
111.022
111.02
111.02
111.051
115.221
613.044
613.045
115.225
111.049
111.021
111.021
111.024
111.023
111.025
111.024
111.025
111.024
111.025
111.023
111.023
111.022
111.022
111.022
111.023
111.022
111.023
111.023
111.024
111.023
111.024
111.022
111.023
111.022
111.051
115.215
613.026
4691.1
56971.4
62217.8
65364.7
71100.6
79075.2
86237.9
93309.3
97849.9
99182.7
96692.6
84655.8
59171.4
49718.1
3603.86
3736.35
58783.4
124034
145711
133443
124421
125502
128404
131728
135164
134945
132077
129506
127806
127938
131280
134748
139887
147437
155433
165439
175379
190084
206158
220266
238700
233264
224643
227546
255223
291893
28295.9
15058.2
95339.7
160970
221441
288401
363153
429345
478672
501239
495917
468138
426770
379108
335728
301921
276810
257429
240956
226145
212245
199600
187690
176414
165531
155269
145686
137553
133154
138439
165303
214687
2516.17
1226.07
154216
222503
242468
229382
197912
158859
125523
102055
86220.7
74749.8
65590.9
57879.4
51047.4
44919.9
39357.3
34456.1
30158.8
26432.6
23162.3
20321.4
17801.3
15609.8
13666.1
11989.3
10571.8
9557
9066.31
9476.22
11578.1
15528.7
625.023
627.305
14014.7
11773.1
8083.21
5310.3
3635.81
2645.09
2030.37
1616.26
1313.14
1080.01
895.293
746.911
627.295
530.377
451.494
387.188
334.368
291.002
255.619
226.77
203.214
183.956
168.239
155.491
145.281
137.252
131.224
127.337
126.232
136.506
622.431
622.58
136.81
119.988
115.955
113.919
112.832
112.205
111.821
111.574
111.408
111.294
111.216
111.162
111.126
111.098
111.079
111.066
111.057
111.051
111.048
111.046
111.045
111.046
111.047
111.05
111.056
111.064
111.077
111.09
111.2
119.937
622.519
622.522
119.904
111.2
111.09
111.075
111.068
111.058
111.051
111.049
111.046
111.045
111.044
111.043
111.042
111.042
111.042
111.042
111.041
111.042
111.041
111.042
111.043
111.045
111.047
111.052
111.057
111.065
111.076
111.091
111.2
119.909
622.522
622.522
119.914
111.202
111.093
111.077
111.064
111.057
111.051
111.049
111.046
111.045
111.043
111.042
111.041
111.041
111.041
111.041
111.041
111.042
111.042
111.043
111.044
111.046
111.048
111.051
111.056
111.065
111.076
111.091
111.201
119.941
622.519
622.52
119.94
111.2
111.091
111.076
111.064
111.057
111.051
111.049
111.046
111.045
111.043
111.042
111.041
111.041
111.041
111.041
111.041
111.042
111.042
111.044
111.044
111.047
111.048
111.051
111.057
111.065
111.077
111.092
111.202
119.947
622.519
622.519
119.948
111.202
111.092
111.077
111.065
111.057
111.052
111.049
111.047
111.045
111.044
111.043
111.042
111.041
111.041
111.041
111.041
111.041
111.041
111.043
111.043
111.045
111.047
111.051
111.056
111.065
111.076
111.092
111.201
119.904
622.522
622.518
119.946
111.201
111.09
111.076
111.064
111.057
111.051
111.049
111.046
111.045
111.043
111.042
111.041
111.041
111.041
111.041
111.041
111.042
111.042
111.043
111.044
111.046
111.047
111.051
111.056
111.065
111.077
111.091
111.201
119.943
622.519
622.523
119.909
111.201
111.09
111.078
111.066
111.057
111.051
111.048
111.046
111.045
111.043
111.043
111.041
111.041
111.04
111.04
111.041
111.041
111.042
111.043
111.044
111.045
111.048
111.051
111.057
111.064
111.076
111.092
111.201
119.914
622.523
622.518
119.959
111.2
111.09
111.077
111.065
111.058
111.051
111.049
111.046
111.045
111.044
111.043
111.042
111.041
111.04
111.04
111.04
111.041
111.042
111.044
111.046
111.049
111.053
111.061
111.07
111.087
111.109
111.138
111.26
119.912
622.512
622.281
4970.71
58587.1
63623.1
65553.7
67727.1
71448.6
75207.4
81254
88457.8
94950.6
99836.6
98550
91486.3
75798.4
77085.4
85759
106046
148116
147465
132933
123382
123780
126818
130613
134612
135646
134565
132946
132089
131278
133501
135367
139633
145861
153678
163980
175935
188632
204285
224795
242782
263526
292726
304139
332031
412444
491907
536045
554172
552109
558896
582360
614328
639172
645353
630153
596013
546990
490247
434005
385997
349330
321866
300519
282382
266138
250669
236350
223179
211007
199956
190270
182497
177531
177476
187865
217174
288820
332471
357836
360581
345541
315050
271403
222776
177902
142820
118261
101272
88761.3
78584.2
69655.1
61539.4
54196
47576.4
41685.3
36442.5
31902.7
27938.2
24573.8
21611.1
19023.5
16710.7
14723.2
13026.9
11737.7
10985.7
11043.6
12313.7
15886.1
16219.1
15650.2
14950.2
11076.6
7426.71
5069.65
3722.83
2885.48
2303.64
1870.14
1530.81
1263.08
1047.57
874.06
733.132
618.358
523.65
445.658
381.411
328.773
285.838
250.863
222.411
199.291
180.552
165.456
153.344
143.744
136.36
131.12
128.241
128.418
131.706
129.944
124.137
118.482
115.569
113.977
113.009
112.382
111.965
111.683
111.49
111.358
111.266
111.201
111.157
111.123
111.101
111.084
111.073
111.066
111.061
111.059
111.058
111.058
111.058
111.059
111.061
111.066
111.069
111.07
111.074
111.176
115.494
115.494
111.174
111.074
111.07
111.068
111.068
111.062
111.058
111.058
111.056
111.056
111.054
111.053
111.052
111.051
111.051
111.051
111.051
111.052
111.052
111.052
111.053
111.055
111.056
111.058
111.061
111.065
111.069
111.071
111.073
111.174
115.493
115.494
111.175
111.074
111.072
111.069
111.065
111.061
111.058
111.058
111.056
111.055
111.053
111.052
111.051
111.051
111.05
111.05
111.051
111.051
111.052
111.053
111.055
111.056
111.057
111.058
111.061
111.066
111.068
111.071
111.074
111.175
115.493
115.494
111.175
111.073
111.071
111.069
111.066
111.062
111.058
111.058
111.056
111.055
111.053
111.052
111.051
111.051
111.05
111.05
111.051
111.052
111.052
111.053
111.055
111.056
111.057
111.059
111.061
111.066
111.069
111.071
111.074
111.175
115.494
115.493
111.176
111.074
111.071
111.069
111.066
111.062
111.059
111.058
111.057
111.056
111.054
111.052
111.052
111.051
111.05
111.05
111.051
111.051
111.051
111.053
111.054
111.055
111.056
111.058
111.061
111.066
111.069
111.071
111.074
111.174
115.493
115.494
111.176
111.074
111.071
111.068
111.066
111.062
111.058
111.058
111.056
111.055
111.053
111.052
111.051
111.051
111.05
111.05
111.05
111.051
111.052
111.053
111.055
111.056
111.057
111.058
111.061
111.066
111.069
111.07
111.074
111.175
115.494
115.493
111.175
111.075
111.07
111.07
111.066
111.062
111.058
111.058
111.056
111.055
111.053
111.052
111.051