/*--------------------------------*- C++ -*----------------------------------*\
| =========                 |                                                 |
| \\      /  F ield         | OpenFOAM: The Open Source CFD Toolbox           |
|  \\    /   O peration     | Version:  2.1.1                                 |
|   \\  /    A nd           | Web:      www.OpenFOAM.org                      |
|    \\/     M anipulation  |                                                 |
\*---------------------------------------------------------------------------*/
FoamFile
{
    version     2.0;
    format      ascii;
    class       volScalarField;
    location    "0.001700000";
    object      rhoEu;
}
// * * * * * * * * * * * * * * * * * * * * * * * * * * * * * * * * * * * * * //

dimensions      [1 -1 -2 0 0 0 0];

internalField   nonuniform List<scalar> 
12384
(
-168146
-167783
-169504
-140704
-95015.6
-84278.9
-83962.8
-82045.1
-82028.3
-83392.2
-85828.5
-88366.7
-94571.9
-97207.6
-92820.5
-90994.9
-89519.7
-87929.7
-86157.2
-84936.1
-83286.6
-83919.8
-82742.5
-82372
-83423.7
-84741.4
-87269.7
-89580.4
-94016.2
-95566.8
-97255
-92752.6
-92719
-89273.3
-86724.4
-81339.5
-80525
-72512.3
-70391.3
-66999.2
-68924.7
-73284.7
-81911.8
-82310.6
-104067
-103981
-103846
-103402
-103017
-103277
-102614
-103226
-102832
-103198
-102392
-102727
-101997
-101073
-100240
-99176.3
-98610.5
-97797.6
-97928
-97213
-97870.2
-96619.2
-96391.8
-95874.1
-95767.1
-96055.9
-96550.3
-97494.6
-98008.3
-99145.4
-105862
-105753
-105724
-105564
-105441
-105242
-105131
-105005
-105079
-104996
-105390
-105320
-105681
-105611
-105851
-105831
-106058
-106073
-106293
-106334
-106544
-106657
-106761
-106934
-106991
-107125
-107174
-107248
-107282
-107304
-107611
-107610
-107608
-107604
-107596
-107595
-107587
-107584
-107580
-107574
-107573
-107565
-107569
-107559
-107562
-107553
-107555
-107546
-107549
-107537
-107543
-107532
-107537
-107532
-107528
-107529
-107524
-107527
-107522
-107525
-107492
-107492
-107492
-107491
-107490
-107491
-107491
-107490
-107490
-107490
-107489
-107489
-107489
-107489
-107488
-107489
-107489
-107489
-107487
-107487
-107488
-107488
-107487
-107488
-107487
-107487
-107488
-107487
-107488
-107488
-107488
-107487
-107488
-107488
-107487
-107488
-107487
-107488
-107487
-107487
-107486
-107487
-107488
-107488
-107488
-107488
-107488
-107488
-107486
-107487
-107488
-107487
-107487
-107488
-107487
-107487
-107487
-107488
-107488
-107488
-107488
-107487
-107487
-107488
-107486
-107488
-107488
-107488
-107487
-107488
-107486
-107487
-107488
-107488
-107488
-107488
-107488
-107488
-107486
-107487
-107488
-107487
-107487
-107488
-107488
-107487
-107487
-107487
-107488
-107488
-107487
-107488
-107487
-107488
-107486
-107488
-107488
-107488
-107487
-107488
-107486
-107487
-107488
-107488
-107488
-107488
-107488
-107488
-107486
-107487
-107488
-107487
-107487
-107488
-107488
-107486
-107488
-107487
-107488
-107488
-107487
-107487
-107488
-107488
-107486
-107487
-107488
-107487
-107487
-107488
-107487
-107486
-107488
-107488
-107488
-107487
-107488
-107488
-107487
-107487
-107488
-107488
-107487
-107488
-107488
-107486
-107487
-107488
-107487
-107488
-107488
-107488
-107487
-107488
-107486
-107488
-107488
-107488
-107487
-107488
-107486
-107487
-107488
-107488
-107488
-107488
-107488
-107488
-107486
-107487
-107488
-107487
-107487
-107488
-107488
-107486
-107487
-107487
-107488
-107488
-107488
-107487
-107487
-107488
-107486
-107488
-107488
-107487
-107488
-107488
-107487
-107487
-107487
-107488
-107488
-107488
-107488
-107488
-107487
-107486
-107488
-107488
-107487
-107487
-107488
-107486
-107488
-107487
-107487
-107488
-107488
-107488
-107487
-107487
-107486
-107488
-107487
-107488
-107488
-107488
-107487
-107487
-107488
-107488
-107486
-107487
-107486
-107487
-107488
-107488
-107488
-107488
-107487
-107488
-107487
-107486
-107487
-107487
-107487
-107487
-157625
-159538
-166361
-179271
-119309
-87475.9
-85678.3
-85260.1
-85341.9
-86713.4
-89179.5
-90557.1
-93406.2
-98164.4
-92366.1
-92445.2
-92279.8
-91015.5
-93972.5
-109815
-119195
-121673
-120347
-118121
-109941
-109959
-104492
-87407.4
-88897.5
-92214.1
-92512.5
-93909.2
-92630.2
-89905
-85048
-82172.5
-77640.1
-77681.8
-73738.8
-71452.8
-71427.4
-75919.7
-79091.9
-83642.6
-103772
-103612
-103340
-103199
-102981
-102328
-102190
-101816
-101995
-101621
-101906
-101070
-101153
-100729
-100171
-99557.5
-98984.5
-98289.4
-98416
-97166.4
-97761.8
-96523.4
-96385.6
-96055.4
-95875.2
-96132.8
-96621.7
-97142.1
-97753.4
-98556.2
-105956
-105932
-105807
-105736
-105508
-105387
-105190
-105072
-104965
-104974
-105145
-105276
-105577
-105620
-105859
-105847
-106056
-106104
-106292
-106364
-106532
-106655
-106765
-106894
-107000
-107091
-107180
-107230
-107294
-107304
-107617
-107610
-107611
-107600
-107600
-107592
-107589
-107583
-107579
-107576
-107572
-107569
-107566
-107560
-107563
-107551
-107559
-107542
-107554
-107536
-107544
-107534
-107536
-107532
-107529
-107530
-107523
-107527
-107523
-107523
-107492
-107490
-107495
-107489
-107494
-107488
-107494
-107488
-107493
-107487
-107493
-107488
-107491
-107490
-107487
-107492
-107486
-107492
-107486
-107491
-107485
-107491
-107484
-107491
-107484
-107490
-107486
-107485
-107488
-107486
-107488
-107486
-107491
-107485
-107487
-107490
-107485
-107491
-107485
-107491
-107485
-107491
-107485
-107491
-107486
-107491
-107486
-107491
-107485
-107491
-107485
-107491
-107485
-107491
-107484
-107490
-107485
-107491
-107486
-107487
-107488
-107487
-107487
-107490
-107485
-107491
-107484
-107490
-107484
-107491
-107485
-107491
-107485
-107491
-107486
-107491
-107485
-107491
-107485
-107491
-107485
-107491
-107484
-107491
-107484
-107490
-107485
-107486
-107488
-107486
-107486
-107488
-107484
-107491
-107484
-107491
-107484
-107491
-107484
-107491
-107485
-107491
-107485
-107491
-107486
-107491
-107485
-107491
-107485
-107491
-107485
-107491
-107484
-107491
-107484
-107490
-107485
-107485
-107487
-107486
-107487
-107487
-107489
-107485
-107490
-107485
-107491
-107485
-107491
-107484
-107491
-107485
-107491
-107485
-107490
-107485
-107490
-107485
-107490
-107487
-107486
-107490
-107485
-107491
-107485
-107490
-107485
-107491
-107486
-107487
-107486
-107488
-107484
-107490
-107484
-107490
-107484
-107491
-107484
-107491
-107485
-107491
-107485
-107491
-107486
-107491
-107485
-107491
-107485
-107491
-107484
-107491
-107484
-107491
-107484
-107490
-107486
-107485
-107487
-107486
-107488
-107486
-107490
-107489
-107485
-107490
-107485
-107491
-107485
-107491
-107485
-107491
-107485
-107490
-107486
-107486
-107490
-107485
-107491
-107485
-107491
-107485
-107491
-107485
-107490
-107485
-107489
-107489
-107487
-107488
-107486
-107488
-107483
-107490
-107484
-107491
-107484
-107491
-107484
-107492
-107484
-107492
-107485
-107491
-107484
-107490
-107485
-107490
-107484
-107491
-107484
-107491
-107484
-107490
-107484
-107490
-107486
-107486
-107487
-107486
-142198
-140317
-152594
-132940
-95999.5
-98329.9
-99057.9
-105228
-94077.2
-90837.6
-91597
-92454.2
-94116.7
-97334.9
-96131.9
-94233.1
-99997.3
-113786
-142406
-170090
-168995
-172374
-172151
-170068
-167382
-167618
-162515
-180431
-122803
-106571
-101650
-96724.4
-88888.8
-89051
-86718.9
-81546
-80213.8
-78405.3
-78612.5
-75648.2
-76120.7
-76628.3
-80246
-82207.1
-103400
-103192
-103051
-102494
-101735
-101343
-100423
-100300
-100003
-99744.8
-99488.6
-99732.5
-99629.4
-99703.7
-99747.5
-99627.3
-99390.7
-98733.4
-98791.3
-97573
-97992.8
-96864.2
-96497.3
-96136.4
-96091.1
-96429
-96938.1
-97324.5
-97852.3
-98027.2
-106208
-106033
-105973
-105759
-105617
-105399
-105206
-104981
-104913
-104805
-104977
-105048
-105519
-105578
-105935
-105991
-106131
-106311
-106350
-106547
-106596
-106778
-106849
-106995
-107048
-107158
-107205
-107280
-107308
-107338
-107622
-107622
-107621
-107617
-107612
-107613
-107608
-107604
-107604
-107596
-107601
-107590
-107596
-107583
-107589
-107575
-107582
-107569
-107574
-107566
-107562
-107562
-107554
-107558
-107551
-107550
-107551
-107546
-107549
-107547
-107515
-107517
-107515
-107515
-107514
-107515
-107513
-107514
-107511
-107514
-107512
-107513
-107512
-107512
-107511
-107510
-107512
-107511
-107512
-107510
-107512
-107509
-107511
-107510
-107512
-107510
-107511
-107512
-107511
-107512
-107511
-107512
-107510
-107512
-107510
-107511
-107511
-107510
-107510
-107510
-107512
-107510
-107511
-107510
-107511
-107510
-107511
-107510
-107511
-107509
-107511
-107509
-107511
-107510
-107512
-107509
-107511
-107510
-107511
-107511
-107512
-107511
-107511
-107510
-107511
-107511
-107511
-107510
-107511
-107510
-107512
-107510
-107511
-107510
-107511
-107510
-107511
-107510
-107512
-107510
-107512
-107509
-107511
-107510
-107512
-107510
-107511
-107511
-107511
-107512
-107512
-107510
-107511
-107510
-107511
-107511
-107511
-107510
-107511
-107510
-107512
-107510
-107511
-107510
-107511
-107510
-107511
-107510
-107512
-107510
-107512
-107509
-107511
-107510
-107512
-107510
-107511
-107511
-107511
-107512
-107511
-107511
-107510
-107511
-107510
-107512
-107510
-107511
-107509
-107512
-107510
-107512
-107510
-107511
-107510
-107511
-107510
-107511
-107510
-107511
-107512
-107509
-107511
-107510
-107512
-107510
-107511
-107510
-107511
-107511
-107512
-107510
-107512
-107510
-107511
-107510
-107511
-107510
-107511
-107510
-107512
-107510
-107511
-107510
-107511
-107510
-107511
-107510
-107512
-107510
-107512
-107509
-107511
-107510
-107512
-107510
-107511
-107512
-107511
-107512
-107511
-107512
-107511
-107510
-107511
-107511
-107511
-107510
-107511
-107510
-107512
-107510
-107512
-107510
-107511
-107511
-107510
-107512
-107510
-107512
-107510
-107511
-107510
-107511
-107511
-107511
-107510
-107511
-107512
-107512
-107511
-107510
-107512
-107510
-107511
-107510
-107511
-107510
-107511
-107510
-107511
-107510
-107511
-107510
-107511
-107509
-107511
-107509
-107511
-107510
-107512
-107510
-107511
-107510
-107512
-107509
-107510
-107511
-107510
-107511
-102057
-101432
-112789
-101692
-78257.8
-95956
-120792
-130641
-118062
-109737
-95718.5
-94603.5
-95078.6
-94611.2
-96142
-98944.2
-140877
-164131
-166966
-164187
-166901
-169357
-171200
-170996
-167391
-162809
-161669
-151974
-164854
-167139
-170955
-177545
-132350
-84040.5
-84336.6
-84549.2
-82132.6
-82822.8
-81030.4
-82484.5
-79017
-79797.5
-80014.9
-81118.5
-102887
-102661
-102329
-101819
-101423
-100783
-100401
-99151.7
-99368.5
-98153.1
-97741.5
-97351.5
-97064.1
-97618.2
-98191.8
-98438
-98735.2
-98754.8
-98313.5
-97890.3
-97230
-96771.9
-96321.7
-96134
-96345.6
-96625
-96900.2
-97181.3
-97386.7
-97563.4
-106225
-106146
-105840
-105615
-105453
-105250
-105017
-104876
-104671
-104613
-104606
-104755
-105012
-105366
-105672
-105899
-106084
-106237
-106358
-106481
-106639
-106702
-106868
-106926
-107072
-107119
-107226
-107255
-107317
-107323
-107604
-107593
-107601
-107597
-107603
-107597
-107602
-107593
-107600
-107591
-107593
-107592
-107585
-107587
-107579
-107580
-107573
-107573
-107566
-107568
-107558
-107562
-107555
-107553
-107555
-107547
-107548
-107546
-107545
-107545
-107516
-107512
-107515
-107512
-107515
-107512
-107514
-107511
-107513
-107509
-107513
-107508
-107512
-107511
-107508
-107511
-107507
-107511
-107507
-107511
-107507
-107511
-107507
-107511
-107508
-107510
-107507
-107507
-107509
-107509
-107509
-107508
-107511
-107507
-107508
-107511
-107507
-107511
-107507
-107510
-107507
-107511
-107507
-107510
-107507
-107510
-107507
-107511
-107507
-107511
-107507
-107511
-107507
-107511
-107508
-107511
-107507
-107511
-107508
-107510
-107509
-107509
-107507
-107511
-107507
-107511
-107507
-107511
-107507
-107511
-107507
-107511
-107507
-107510
-107506
-107510
-107507
-107510
-107507
-107511
-107507
-107510
-107507
-107511
-107508
-107510
-107507
-107507
-107509
-107509
-107509
-107509
-107506
-107510
-107507
-107511
-107507
-107511
-107506
-107511
-107507
-107511
-107506
-107510
-107507
-107510
-107507
-107510
-107507
-107511
-107507
-107510
-107507
-107511
-107508
-107510
-107507
-107507
-107509
-107509
-107509
-107509
-107510
-107507
-107511
-107508
-107512
-107507
-107511
-107507
-107511
-107507
-107510
-107507
-107510
-107506
-107510
-107507
-107510
-107507
-107507
-107510
-107507
-107511
-107508
-107511
-107507
-107511
-107508
-107509
-107509
-107509
-107506
-107511
-107507
-107511
-107507
-107511
-107506
-107511
-107507
-107511
-107506
-107510
-107506
-107510
-107507
-107510
-107507
-107511
-107506
-107510
-107507
-107511
-107508
-107510
-107508
-107507
-107509
-107509
-107510
-107508
-107510
-107510
-107507
-107512
-107507
-107511
-107507
-107511
-107507
-107511
-107507
-107510
-107507
-107507
-107510
-107507
-107511
-107507
-107511
-107507
-107511
-107508
-107512
-107507
-107510
-107509
-107508
-107510
-107509
-107509
-107506
-107511
-107507
-107512
-107507
-107511
-107507
-107511
-107506
-107511
-107507
-107511
-107507
-107511
-107507
-107511
-107507
-107511
-107506
-107510
-107507
-107511
-107507
-107510
-107507
-107508
-107509
-107509
-32292.1
-35835.2
-40293.4
-5706.46
10435.3
-23799.4
-63921.6
-104747
-124604
-141433
-122007
-104841
-94830.7
-95293.7
-97517.4
-110794
-159456
-169737
-161910
-157437
-159310
-159055
-159937
-159184
-154851
-150526
-151507
-155982
-162132
-166697
-168999
-170554
-171705
-145844
-93651.5
-82211.6
-85720.4
-83544.5
-85224.5
-81647.8
-81751.8
-80809.8
-80680
-83459
-102541
-102306
-102061
-101583
-101367
-101299
-99698.6
-99002.6
-97669.6
-96708.9
-95796.1
-95086.4
-95100.1
-94847.4
-95518.4
-96725
-97706.6
-98062.1
-98231.6
-97134
-97184
-96212.4
-96221.1
-96115.8
-96294.2
-96630.5
-97163.3
-97064.4
-97158.3
-96888.8
-106344
-106121
-105613
-105159
-104972
-104777
-104724
-104561
-104496
-104347
-104339
-104440
-104553
-105069
-105251
-105798
-105852
-106192
-106253
-106427
-106610
-106635
-106840
-106864
-107048
-107074
-107202
-107247
-107296
-107327
-107573
-107566
-107567
-107576
-107578
-107584
-107583
-107589
-107583
-107591
-107582
-107585
-107584
-107578
-107581
-107572
-107572
-107572
-107560
-107568
-107553
-107558
-107552
-107548
-107549
-107544
-107544
-107542
-107540
-107541
-107511
-107513
-107510
-107512
-107509
-107510
-107509
-107510
-107508
-107509
-107507
-107509
-107507
-107507
-107507
-107506
-107507
-107506
-107508
-107505
-107507
-107505
-107508
-107505
-107507
-107505
-107506
-107506
-107506
-107506
-107505
-107506
-107505
-107506
-107505
-107505
-107507
-107505
-107506
-107504
-107506
-107505
-107507
-107505
-107507
-107505
-107507
-107505
-107507
-107505
-107506
-107504
-107507
-107505
-107506
-107505
-107507
-107505
-107506
-107505
-107505
-107506
-107506
-107505
-107506
-107505
-107507
-107505
-107507
-107504
-107506
-107505
-107507
-107505
-107507
-107505
-107507
-107505
-107507
-107504
-107506
-107504
-107507
-107505
-107506
-107505
-107506
-107506
-107506
-107506
-107506
-107505
-107506
-107504
-107506
-107504
-107507
-107505
-107506
-107504
-107506
-107505
-107507
-107505
-107507
-107505
-107507
-107505
-107507
-107504
-107506
-107504
-107507
-107505
-107506
-107505
-107506
-107506
-107506
-107506
-107506
-107506
-107505
-107506
-107504
-107507
-107505
-107508
-107504
-107506
-107504
-107507
-107505
-107507
-107505
-107507
-107505
-107507
-107505
-107506
-107506
-107505
-107507
-107505
-107506
-107504
-107506
-107504
-107506
-107505
-107506
-107505
-107507
-107505
-107507
-107504
-107507
-107505
-107507
-107504
-107506
-107505
-107507
-107505
-107507
-107505
-107507
-107505
-107507
-107504
-107506
-107505
-107507
-107505
-107506
-107505
-107506
-107506
-107506
-107506
-107505
-107506
-107505
-107505
-107506
-107504
-107507
-107505
-107506
-107504
-107506
-107505
-107506
-107505
-107507
-107506
-107505
-107506
-107505
-107506
-107504
-107506
-107505
-107507
-107504
-107506
-107505
-107505
-107506
-107505
-107506
-107505
-107507
-107505
-107506
-107504
-107507
-107506
-107508
-107505
-107507
-107505
-107507
-107505
-107507
-107505
-107507
-107505
-107507
-107505
-107506
-107504
-107508
-107506
-107507
-107505
-107506
-107506
-107506
-107507
39564.3
37732.8
38550.7
67574.8
66149.6
33441.3
-21005.9
-74772.6
-112820
-133776
-145036
-154969
-110923
-93860.1
-95763.8
-127696
-165731
-160992
-148322
-146145
-147049
-148310
-149322
-147405
-143104
-141824
-142075
-143854
-149969
-156490
-165091
-170958
-173006
-173094
-151124
-99520.6
-79236
-83966.8
-85190.8
-84796.4
-82765.2
-81468
-82914.7
-82707.8
-102367
-101964
-102127
-101502
-100932
-99521.9
-98507.2
-95607.8
-94155
-93177.8
-92552
-92639.5
-92392.4
-92848.8
-93117.6
-93905.9
-95097.4
-96245.6
-96902.5
-97000.2
-96269.3
-96309
-95850.1
-96286.3
-96477.1
-96650.5
-96664.6
-96794.2
-96490.2
-95985.9
-106081
-105926
-104932
-104317
-103908
-103973
-103985
-104067
-104056
-104078
-104057
-104149
-104260
-104691
-104895
-105525
-105653
-106033
-106166
-106348
-106510
-106595
-106770
-106828
-106994
-107042
-107167
-107214
-107280
-107283
-107539
-107506
-107531
-107544
-107555
-107561
-107571
-107571
-107580
-107573
-107585
-107573
-107580
-107575
-107573
-107573
-107567
-107568
-107559
-107562
-107553
-107555
-107548
-107549
-107542
-107546
-107537
-107542
-107536
-107538
-107512
-107509
-107511
-107508
-107509
-107508
-107508
-107506
-107507
-107505
-107506
-107504
-107505
-107504
-107504
-107504
-107504
-107504
-107503
-107504
-107503
-107504
-107502
-107504
-107503
-107504
-107503
-107503
-107503
-107503
-107504
-107503
-107503
-107503
-107503
-107503
-107503
-107503
-107502
-107503
-107502
-107503
-107503
-107503
-107503
-107503
-107503
-107503
-107503
-107503
-107502
-107504
-107502
-107504
-107502
-107504
-107503
-107503
-107503
-107503
-107503
-107503
-107503
-107503
-107503
-107503
-107503
-107503
-107502
-107503
-107502
-107503
-107503
-107503
-107503
-107503
-107503
-107503
-107503
-107503
-107502
-107503
-107502
-107504
-107503
-107504
-107503
-107503
-107503
-107503
-107503
-107503
-107502
-107504
-107503
-107504
-107502
-107503
-107503
-107503
-107502
-107503
-107503
-107503
-107503
-107503
-107503
-107503
-107503
-107503
-107502
-107504
-107502
-107504
-107503
-107504
-107503
-107503
-107503
-107503
-107503
-107503
-107503
-107502
-107504
-107502
-107504
-107502
-107504
-107502
-107503
-107502
-107503
-107503
-107503
-107503
-107503
-107503
-107503
-107503
-107503
-107504
-107502
-107504
-107503
-107503
-107503
-107503
-107503
-107504
-107503
-107503
-107502
-107504
-107502
-107504
-107502
-107503
-107502
-107503
-107502
-107503
-107503
-107503
-107503
-107503
-107503
-107503
-107503
-107503
-107502
-107503
-107502
-107504
-107503
-107504
-107503
-107503
-107503
-107503
-107504
-107503
-107503
-107503
-107503
-107504
-107503
-107503
-107502
-107503
-107502
-107503
-107503
-107503
-107503
-107503
-107503
-107502
-107503
-107502
-107503
-107502
-107503
-107503
-107503
-107503
-107503
-107503
-107503
-107504
-107503
-107503
-107502
-107503
-107502
-107503
-107502
-107504
-107503
-107503
-107502
-107504
-107503
-107503
-107503
-107504
-107503
-107503
-107502
-107504
-107502
-107503
-107503
-107504
-107503
-107503
-107502
-107503
-107504
-107503
88212.3
88241.9
87181.3
82398.2
68149.5
36941
-14818.7
-69828.5
-104453
-121624
-134899
-145211
-118617
-92147.3
-98606.5
-144667
-162410
-154949
-143846
-136448
-137446
-140756
-143431
-141110
-137267
-135838
-136362
-137271
-142227
-148700
-157701
-164093
-169991
-169294
-164637
-182993
-110951
-80224.6
-83367.3
-84411.6
-82678.3
-81338.3
-82775
-83387.7
-102527
-101819
-101780
-100870
-98626
-96998.2
-93105.9
-88833.4
-86297.5
-85940.4
-87213.3
-88352
-89612.8
-90193.7
-90937.6
-91570.9
-92696
-93917.5
-95107.1
-95613.6
-95844.3
-95487.4
-95917.9
-95604.4
-95910.6
-96292.3
-96480.9
-95976.5
-95743.4
-92773.7
-106120
-104538
-103154
-102351
-102323
-102496
-103009
-103287
-103518
-103615
-103712
-103811
-103989
-104222
-104653
-105157
-105413
-105887
-105957
-106288
-106338
-106566
-106629
-106805
-106876
-107013
-107075
-107193
-107208
-107232
-107470
-107425
-107454
-107498
-107513
-107538
-107540
-107558
-107557
-107566
-107566
-107571
-107567
-107569
-107568
-107561
-107568
-107554
-107563
-107548
-107553
-107547
-107541
-107544
-107535
-107538
-107530
-107534
-107529
-107532
-107505
-107507
-107503
-107505
-107502
-107503
-107502
-107502
-107500
-107501
-107500
-107500
-107499
-107499
-107499
-107498
-107499
-107498
-107498
-107497
-107498
-107496
-107498
-107497
-107498
-107496
-107496
-107497
-107497
-107497
-107497
-107497
-107496
-107496
-107497
-107497
-107497
-107497
-107497
-107497
-107498
-107497
-107498
-107497
-107498
-107497
-107498
-107497
-107498
-107497
-107498
-107496
-107498
-107497
-107498
-107496
-107497
-107496
-107497
-107497
-107497
-107497
-107497
-107496
-107497
-107497
-107498
-107496
-107497
-107496
-107498
-107497
-107498
-107497
-107498
-107497
-107498
-107497
-107498
-107497
-107498
-107496
-107498
-107497
-107498
-107496
-107496
-107497
-107496
-107497
-107497
-107497
-107497
-107496
-107497
-107497
-107498
-107497
-107497
-107497
-107498
-107497
-107498
-107497
-107497
-107497
-107498
-107497
-107498
-107497
-107498
-107496
-107498
-107497
-107498
-107496
-107496
-107497
-107496
-107497
-107497
-107497
-107496
-107497
-107496
-107498
-107497
-107498
-107496
-107498
-107497
-107498
-107497
-107498
-107497
-107498
-107497
-107498
-107497
-107497
-107497
-107496
-107498
-107497
-107498
-107497
-107497
-107497
-107497
-107497
-107497
-107497
-107497
-107496
-107498
-107496
-107498
-107497
-107497
-107497
-107498
-107497
-107498
-107497
-107498
-107497
-107498
-107497
-107498
-107497
-107498
-107496
-107498
-107497
-107498
-107496
-107496
-107497
-107496
-107497
-107497
-107497
-107496
-107496
-107497
-107497
-107498
-107497
-107497
-107496
-107498
-107497
-107498
-107497
-107497
-107497
-107496
-107498
-107496
-107498
-107496
-107497
-107497
-107498
-107497
-107497
-107496
-107497
-107496
-107497
-107497
-107497
-107497
-107496
-107498
-107496
-107497
-107496
-107497
-107496
-107497
-107496
-107497
-107496
-107497
-107496
-107497
-107497
-107497
-107496
-107498
-107496
-107498
-107497
-107498
-107497
-107498
-107497
-107498
-107497
99056.9
92653.6
85051.4
65563.5
38766.5
-9952.59
-64755.3
-95030.7
-110037
-121051
-132621
-143029
-117320
-93544.7
-107620
-162144
-160023
-148881
-135587
-130601
-130036
-132745
-135934
-136585
-134937
-133012
-133247
-134221
-136863
-142181
-148788
-155231
-162351
-166188
-165210
-166536
-179820
-132264
-83002.6
-82923.7
-84139.4
-81793
-80091.8
-78898.7
-102547
-102597
-100370
-97815.1
-95326.6
-89775.4
-82175.8
-76697.3
-73960.8
-75489.9
-79039.2
-82820.9
-85718.4
-87548.5
-88576.3
-89284.8
-90066.8
-91460.5
-92828.4
-94146.3
-94780.8
-95179.9
-95008.7
-95628.9
-95613.8
-95588.2
-95553.6
-95455.3
-93733.8
-89701.1
-101290
-100193
-98879.3
-98482.6
-99237.4
-100638
-101804
-102567
-102922
-103182
-103356
-103496
-103680
-103922
-104342
-104625
-105202
-105534
-105849
-106130
-106234
-106481
-106522
-106752
-106797
-106980
-107031
-107146
-107105
-107131
-107181
-107185
-107333
-107412
-107473
-107499
-107525
-107534
-107549
-107551
-107559
-107556
-107565
-107557
-107567
-107554
-107562
-107550
-107555
-107544
-107546
-107542
-107539
-107537
-107532
-107534
-107527
-107528
-107524
-107526
-107502
-107501
-107502
-107499
-107501
-107498
-107498
-107498
-107497
-107496
-107495
-107495
-107495
-107495
-107495
-107494
-107494
-107494
-107493
-107493
-107493
-107493
-107493
-107493
-107493
-107493
-107492
-107492
-107492
-107492
-107492
-107492
-107492
-107492
-107493
-107493
-107492
-107493
-107493
-107492
-107492
-107492
-107493
-107493
-107493
-107493
-107493
-107493
-107492
-107492
-107492
-107493
-107493
-107492
-107492
-107493
-107492
-107492
-107492
-107492
-107492
-107492
-107492
-107492
-107492
-107493
-107492
-107493
-107493
-107492
-107492
-107492
-107493
-107493
-107493
-107493
-107493
-107493
-107492
-107492
-107492
-107493
-107493
-107492
-107493
-107493
-107492
-107492
-107492
-107492
-107492
-107492
-107492
-107492
-107492
-107493
-107492
-107493
-107493
-107492
-107492
-107492
-107493
-107493
-107493
-107493
-107493
-107493
-107492
-107492
-107492
-107493
-107493
-107492
-107493
-107493
-107492
-107492
-107492
-107492
-107492
-107492
-107492
-107492
-107493
-107493
-107492
-107493
-107493
-107492
-107492
-107492
-107493
-107493
-107493
-107493
-107493
-107493
-107492
-107492
-107492
-107493
-107493
-107492
-107492
-107493
-107492
-107492
-107492
-107492
-107492
-107492
-107492
-107492
-107493
-107493
-107492
-107493
-107493
-107492
-107492
-107492
-107493
-107493
-107493
-107493
-107493
-107493
-107492
-107492
-107492
-107493
-107493
-107492
-107493
-107493
-107492
-107492
-107492
-107492
-107492
-107492
-107492
-107492
-107492
-107493
-107492
-107493
-107493
-107492
-107492
-107492
-107493
-107493
-107493
-107493
-107493
-107493
-107492
-107492
-107492
-107493
-107493
-107492
-107493
-107493
-107492
-107492
-107492
-107492
-107492
-107492
-107492
-107492
-107492
-107492
-107492
-107493
-107492
-107493
-107493
-107493
-107493
-107493
-107493
-107493
-107493
-107493
-107492
-107492
-107493
-107493
-107492
-107492
-107492
-107492
-107492
-107493
-107493
-107492
87290
79829.3
64763.4
48836.9
18377.8
-28519.1
-61851.5
-72881.2
-83295.5
-102096
-121873
-142503
-154358
-113668
-161730
-153415
-142117
-164200
-154580
-143560
-133705
-126891
-123057
-123980
-126152
-128311
-129383
-130374
-131473
-132728
-134175
-136343
-141339
-146193
-152825
-159057
-163334
-162257
-169924
-169172
-158410
-109619
-83900.1
-83611.8
-77610.1
-60453.8
-68990
-73336.2
-79668.4
-86538.5
-88990.6
-88201.6
-82151.9
-73196.6
-64847.9
-59460.7
-58959.5
-63717.5
-70034.4
-76112
-80977
-84341.5
-86028.2
-86961.6
-87874.6
-88892.5
-90767.5
-92007.6
-93539.6
-93983
-94716
-94607.5
-94986
-95318.6
-95189.2
-94136.9
-90974.2
-75567.5
-81521.9
-89748.9
-92939.5
-92515.6
-92466.9
-93711.4
-95845
-98410.7
-100479
-101790
-102502
-102778
-103027
-103192
-103379
-103658
-103942
-104395
-104950
-105171
-105677
-105830
-106139
-106296
-106435
-106598
-106672
-106790
-106824
-106795
-106635
-106157
-106544
-106799
-106651
-106865
-107124
-107254
-107388
-107429
-107484
-107505
-107517
-107538
-107536
-107547
-107548
-107551
-107549
-107549
-107551
-107543
-107548
-107537
-107542
-107530
-107536
-107524
-107528
-107520
-107521
-107514
-107516
-107508
-107510
-107500
-107500
-107497
-107494
-107495
-107491
-107492
-107491
-107490
-107490
-107489
-107488
-107488
-107487
-107487
-107487
-107487
-107486
-107486
-107486
-107486
-107486
-107485
-107485
-107485
-107485
-107484
-107484
-107484
-107485
-107484
-107484
-107484
-107484
-107484
-107484
-107484
-107484
-107484
-107484
-107485
-107485
-107485
-107485
-107485
-107485
-107485
-107485
-107485
-107485
-107485
-107485
-107485
-107485
-107485
-107485
-107485
-107485
-107484
-107484
-107484
-107485
-107484
-107484
-107484
-107484
-107484
-107484
-107484
-107484
-107484
-107485
-107485
-107485
-107485
-107485
-107485
-107485
-107485
-107485
-107485
-107485
-107485
-107485
-107485
-107485
-107485
-107485
-107484
-107485
-107484
-107485
-107484
-107485
-107484
-107484
-107484
-107484
-107484
-107484
-107484
-107484
-107484
-107485
-107485
-107485
-107485
-107485
-107485
-107485
-107485
-107485
-107485
-107485
-107485
-107485
-107485
-107485
-107485
-107485
-107484
-107485
-107484
-107485
-107484
-107485
-107484
-107484
-107484
-107484
-107485
-107484
-107484
-107484
-107485
-107484
-107485
-107485
-107485
-107485
-107485
-107485
-107485
-107485
-107485
-107485
-107485
-107485
-107485
-107485
-107485
-107485
-107485
-107484
-107484
-107484
-107484
-107484
-107484
-107484
-107484
-107484
-107485
-107484
-107484
-107484
-107484
-107485
-107485
-107485
-107485
-107485
-107485
-107485
-107485
-107485
-107485
-107485
-107485
-107485
-107485
-107485
-107485
-107485
-107484
-107485
-107484
-107484
-107484
-107485
-107484
-107484
-107484
-107484
-107484
-107484
-107484
-107484
-107484
-107485
-107485
-107485
-107485
-107485
-107485
-107485
-107485
-107485
-107485
-107485
-107485
-107485
-107485
-107485
-107485
-107485
-107485
-107484
-107485
-107484
-107484
-107484
-107484
-107484
-107484
-107484
-107485
-107484
-107485
-107485
-107484
-107485
-107484
-107485
-107485
-107485
-107485
-107485
-107485
-107485
-107485
-107485
-107485
-107485
-107485
-107485
-107485
-107485
-107485
-107485
-107484
-107485
-107484
-107484
-107484
-107484
-107484
67543.2
62722.2
51395.2
39565.4
28836.6
4630.3
-11884.1
-24211.4
-41391.1
-65739.2
-88377.9
-122284
-142819
-149339
-146113
-144598
-159847
-160740
-152826
-143529
-133413
-123787
-119078
-118604
-118527
-120928
-124365
-128218
-131039
-132268
-132897
-134068
-135942
-140135
-144015
-149660
-155470
-159844
-162822
-165304
-164521
-173798
-152096
-104824
-78905.4
-57804.2
-50565.5
-49306.9
-50379
-50457.2
-50211.3
-46541.8
-42118.3
-38494.4
-37805.3
-40906.2
-47144.3
-55111.9
-63046.7
-70450.5
-76527.1
-80561.2
-83146.7
-84498.3
-85580
-86682.9
-88481.9
-90071
-92259.5
-92841.5
-93438.6
-93853
-93695.1
-93426.3
-93176.2
-92398.2
-90258.6
-79050.4
-76953.3
-78071.4
-79141.7
-82721.3
-87009.4
-90876.2
-94521.3
-97581.9
-99728.4
-101089
-101877
-102393
-102601
-102881
-103049
-103385
-103626
-104113
-104532
-104937
-105359
-105719
-105923
-106193
-106295
-106485
-106590
-106680
-106765
-106758
-106691
-106393
-106443
-106617
-106653
-106898
-107157
-107304
-107389
-107429
-107467
-107488
-107507
-107517
-107531
-107536
-107535
-107547
-107537
-107546
-107538
-107542
-107534
-107539
-107528
-107531
-107523
-107522
-107521
-107515
-107515
-107510
-107511
-107504
-107504
-107496
-107498
-107491
-107493
-107489
-107487
-107488
-107485
-107486
-107484
-107484
-107484
-107483
-107483
-107482
-107482
-107481
-107481
-107481
-107481
-107481
-107481
-107480
-107479
-107479
-107480
-107479
-107479
-107480
-107480
-107479
-107480
-107480
-107479
-107480
-107480
-107479
-107479
-107480
-107479
-107479
-107479
-107480
-107480
-107480
-107480
-107480
-107480
-107480
-107480
-107480
-107480
-107480
-107480
-107479
-107479
-107479
-107480
-107479
-107479
-107480
-107480
-107479