/*--------------------------------*- C++ -*----------------------------------*\
| =========                 |                                                 |
| \\      /  F ield         | OpenFOAM: The Open Source CFD Toolbox           |
|  \\    /   O peration     | Version:  2.1.1                                 |
|   \\  /    A nd           | Web:      www.OpenFOAM.org                      |
|    \\/     M anipulation  |                                                 |
\*---------------------------------------------------------------------------*/
FoamFile
{
    version     2.0;
    format      ascii;
    class       volVectorField;
    location    "0.001700000";
    object      U;
}
// * * * * * * * * * * * * * * * * * * * * * * * * * * * * * * * * * * * * * //

dimensions      [0 1 -1 0 0 0 0];

internalField   nonuniform List<vector> 
12384
(
(-11.0176 10.3005 0)
(-23.1113 -12.8784 0)
(-34.4332 34.0432 0)
(-13.6407 -10.533 0)
(-2.91073 4.42357 0)
(-1.91103 5.02477 0)
(2.22201 4.64083 0)
(9.72339 1.24435 0)
(19.6113 0.656495 0)
(31.6354 2.2927 0)
(37.6593 -3.24253 0)
(41.5703 -2.02827 0)
(24.9737 -5.85979 0)
(-8.02845 -4.53642 0)
(-3.49595 -1.87387 0)
(0.610725 1.95208 0)
(7.67083 -2.78377 0)
(6.35868 3.26474 0)
(9.40474 2.02117 0)
(12.0505 -0.664397 0)
(16.2401 -7.51468 0)
(21.983 -6.95619 0)
(27.8429 -12.2508 0)
(34.0771 -12.1778 0)
(31.7154 -14.5676 0)
(35.4038 -12.1865 0)
(38.5877 -18.6659 0)
(34.332 -12.7099 0)
(30.5549 -5.50817 0)
(24.8207 -3.86872 0)
(21.3704 0.949398 0)
(16.4075 -6.95276 0)
(17.2722 2.02265 0)
(23.452 -3.11719 0)
(29.4223 0.192386 0)
(42.9262 3.37541 0)
(53.7391 2.94523 0)
(60.3645 4.17825 0)
(56.6475 0.591008 0)
(40.5003 0.795721 0)
(19.2144 -0.517162 0)
(2.72678 3.25545 0)
(-6.46601 3.74608 0)
(-6.6129 6.20574 0)
(-6.54523 1.95526 0)
(-16.5428 3.61469 0)
(-25.0346 2.20641 0)
(-34.2755 1.27291 0)
(-39.5438 -1.02515 0)
(-44.833 -2.63821 0)
(-43.3469 -3.79783 0)
(-36.6964 -7.23657 0)
(-28.4745 -6.44392 0)
(-16.406 -7.91721 0)
(-4.47184 -6.39267 0)
(8.80028 -6.79228 0)
(18.5902 -4.52532 0)
(29.1992 -3.45763 0)
(38.381 -2.92315 0)
(46.9394 -2.4547 0)
(53.7766 -2.76679 0)
(59.079 -2.52577 0)
(59.6964 -2.61463 0)
(61.363 -0.64685 0)
(57.7607 -1.8854 0)
(47.5674 2.23515 0)
(43.2566 0.785641 0)
(34.9542 3.12379 0)
(34.0824 3.02701 0)
(33.9652 3.9396 0)
(34.1148 3.99388 0)
(29.5975 4.1992 0)
(20.6044 2.80236 0)
(6.378 3.08658 0)
(0.539963 -1.6857 0)
(3.7052 -2.93312 0)
(8.19757 -3.3682 0)
(13.4608 -3.94391 0)
(19.2419 -4.32854 0)
(25.0354 -4.76422 0)
(30.3395 -5.28776 0)
(35.6748 -4.35078 0)
(38.6705 -5.06957 0)
(41.5423 -3.3619 0)
(42.8186 -3.33855 0)
(43.0629 -1.93496 0)
(43.3805 -1.87325 0)
(42.7444 -0.981593 0)
(42.9359 -1.38683 0)
(41.6894 -0.571007 0)
(41.1643 -1.04631 0)
(39.2017 -0.396861 0)
(38.3716 -0.73901 0)
(35.318 -0.279761 0)
(34.4035 -0.368587 0)
(30.7095 -0.236893 0)
(28.1548 0.331494 0)
(25.3656 0.00850751 0)
(21.742 0.810977 0)
(18.531 0.304605 0)
(14.5276 1.05599 0)
(10.9231 0.509205 0)
(6.79292 1.10887 0)
(2.87465 0.752173 0)
(0.657423 -1.18721 0)
(1.80031 -1.16432 0)
(3.13834 -0.810534 0)
(4.25127 -1.14816 0)
(4.98162 -0.744741 0)
(5.41008 -0.957637 0)
(6.09361 -0.546385 0)
(6.2132 -0.760654 0)
(6.48378 -0.338735 0)
(6.44784 -0.588253 0)
(6.38242 -0.202403 0)
(6.20808 -0.425825 0)
(5.98271 -0.138204 0)
(5.68039 -0.319775 0)
(5.39259 -0.0813806 0)
(5.0256 -0.227324 0)
(4.70625 -0.035352 0)
(4.31984 -0.199158 0)
(3.92478 0.0194569 0)
(3.68661 -0.177183 0)
(3.21342 0.0149018 0)
(3.07551 -0.0995973 0)
(2.56588 -0.0383009 0)
(2.35942 0.0140333 0)
(1.98442 -0.0707767 0)
(1.61938 0.05444 0)
(1.33286 -0.0499806 0)
(0.899015 0.0314077 0)
(0.60065 0.000977279 0)
(0.212702 0.000143201 0)
(0.0234405 -0.0236903 0)
(0.0427541 -0.0381004 0)
(0.0617312 -0.0248272 0)
(0.0853492 -0.0319903 0)
(0.0923078 -0.0215628 0)
(0.109137 -0.0195592 0)
(0.102076 -0.0180095 0)
(0.105432 -0.0080757 0)
(0.0997991 -0.0138402 0)
(0.092117 -0.0050406 0)
(0.0882424 -0.00908193 0)
(0.0759942 -0.0063542 0)
(0.0752294 -0.00297183 0)
(0.0592715 -0.00879641 0)
(0.0572842 0.00203348 0)
(0.0472175 -0.00892799 0)
(0.0402605 0.00321253 0)
(0.0353864 -0.00503837 0)
(0.026988 0.00189943 0)
(0.0247293 -0.00171587 0)
(0.0162842 0.00103934 0)
(0.0153313 0.000994892 0)
(0.0112796 0.000654813 0)
(0.00710029 0.00115935 0)
(0.00715401 0.00127107 0)
(0.0030581 0.000545809 0)
(0.00300285 0.00208404 0)
(0.000344117 0.000211991 0)
(0.00229152 0.000675642 0)
(0.00217414 0.00329851 0)
(0.00306692 0.000769505 0)
(0.00336146 0.00157329 0)
(0.00437355 0.000813171 0)
(0.00556523 0.00388186 0)
(0.0022511 0.00391241 0)
(0.00197848 0.00203663 0)
(0.000948164 0.00262758 0)
(0.000986117 0.001478 0)
(0.000277521 0.0021694 0)
(0.000482985 0.00111721 0)
(-0.000124761 0.00208837 0)
(4.64241e-05 0.000841529 0)
(-0.000302395 0.00183752 0)
(-5.23216e-05 8.84898e-05 0)
(0.000127043 0.00161222 0)
(0.000370189 -0.000188955 0)
(0.000608267 0.00168854 0)
(0.000543661 0.000482878 0)
(0.000661415 0.00193923 0)
(-7.94937e-06 0.0010437 0)
(-0.000112004 0.00210541 0)
(-0.00112607 0.00133454 0)
(-0.00151764 0.00246068 0)
(-0.00289841 0.00134657 0)
(-0.00333727 0.00245513 0)
(-0.00457134 0.00100758 0)
(-0.00472908 0.00225753 0)
(-0.00507099 -4.76822e-05 0)
(-0.00374461 0.000597314 0)
(-0.00301848 0.000624077 0)
(0.0024854 0.00168999 0)
(0.00382965 0.00284814 0)
(0.00106467 0.003064 0)
(0.00180968 0.000556584 0)
(0.00196481 0.00235329 0)
(0.00229906 0.00123742 0)
(0.0014866 0.00248097 0)
(0.00150021 0.00139066 0)
(0.000571436 0.00236085 0)
(0.000563081 0.00130392 0)
(-0.000169165 0.00227614 0)
(-5.45047e-06 0.000990587 0)
(-0.000281044 0.0020504 0)
(4.71597e-05 0.000248746 0)
(0.000286907 0.00181065 0)
(0.000576459 -9.8443e-05 0)
(0.000929862 0.00188624 0)
(0.00109203 0.00059028 0)
(0.00150725 0.00216837 0)
(0.00113748 0.00115452 0)
(0.00142594 0.00226984 0)
(0.000746773 0.00133424 0)
(0.000904781 0.00229629 0)
(0.000128396 0.00141216 0)
(0.000178699 0.00241546 0)
(-0.000414405 0.000816568 0)
(-0.000301643 0.00246477 0)
(-0.000703505 0.000288314 0)
(0.00141894 0.000228763 0)
(0.00170397 0.00293439 0)
(-0.00337054 0.00246542 0)
(-0.00164687 0.000385519 0)
(-0.00103369 0.00183642 0)
(0.000110958 0.000489623 0)
(6.131e-05 0.00227826 0)
(0.000531787 0.000997781 0)
(-6.67598e-05 0.00221525 0)
(0.000151264 0.00115408 0)
(-0.000534119 0.00214624 0)
(-0.000343426 0.00112585 0)
(-0.000899044 0.00209503 0)
(-0.000610542 0.000916811 0)
(-0.000838275 0.00197957 0)
(-0.000432131 0.000234409 0)
(-0.000108523 0.0017854 0)
(0.000269283 -9.86361e-05 0)
(0.000707059 0.00186752 0)
(0.000928102 0.000592338 0)
(0.001393 0.00213678 0)
(0.00106016 0.00114296 0)
(0.00139557 0.00223717 0)
(0.000751642 0.00133551 0)
(0.000953562 0.00225592 0)
(0.00018571 0.00143012 0)
(0.000278854 0.00235399 0)
(-0.000307717 0.000819299 0)
(-0.000199524 0.00253372 0)
(-0.00072328 0.000455529 0)
(0.00137493 0.000257523 0)
(0.00161645 0.00299686 0)
(-0.00396949 0.00365622 0)
(-0.00234845 -0.00127846 0)
(0.00228971 -0.000294499 0)
(0.00346515 0.00194447 0)
(0.00376994 0.00106764 0)
(0.00261844 0.00259444 0)
(0.00223669 0.00140361 0)
(0.00102619 0.00233954 0)
(0.00092253 0.00118709 0)
(0.000186843 0.00205815 0)
(0.000316526 0.000946343 0)
(-0.000182539 0.00190684 0)
(2.88488e-05 0.000430137 0)
(-7.80891e-06 0.00167912 0)
(0.0002292 -4.85049e-05 0)
(0.00048043 0.00178836 0)
(0.000666866 0.00047439 0)
(0.000776053 0.00249092 0)
(0.000305321 0.00161059 0)
(0.000414378 0.00358742 0)
(-0.00151857 0.0039227 0)
(-0.000623147 0.00108376 0)
(-0.00147531 0.0032318 0)
(-0.00295971 0.00158532 0)
(-0.0033097 0.00249508 0)
(-0.00436846 0.00095367 0)
(-0.00427255 0.00227277 0)
(-0.00458677 9.43564e-05 0)
(-0.00340528 0.00089832 0)
(-0.00290235 0.000544918 0)
(-0.00297794 0.00227823 0)
(-0.00134396 0.000420243 0)
(-0.000912219 0.00204063 0)
(0.000141202 0.000565051 0)
(0.000104086 0.00238405 0)
(0.000594244 0.000999173 0)
(4.61266e-05 0.00228566 0)
(0.000272224 0.00114781 0)
(-0.000373552 0.00220723 0)
(-0.000192416 0.00112596 0)
(-0.000719887 0.00209066 0)
(-0.000442103 0.000848265 0)
(-0.000611702 0.00193595 0)
(-0.000241917 0.000186589 0)
(3.59856e-05 0.00180122 0)
(0.000384769 -5.15689e-05 0)
(0.000814657 0.00191992 0)
(0.000987376 0.000639133 0)
(0.00144243 0.00215725 0)
(0.00108438 0.00116382 0)
(0.00141309 0.00223749 0)
(0.000797317 0.00132161 0)
(0.00103138 0.00224491 0)
(0.000363712 0.0013914 0)
(0.00051945 0.00231956 0)
(5.33681e-06 0.000759888 0)
(0.000192328 0.00253275 0)
(-0.000708753 0.000942355 0)
(0.000960367 0.000129338 0)
(0.00108411 0.00261788 0)
(-0.000277674 0.00210953 0)
(0.00103011 -5.30649e-05 0)
(0.00298748 -0.00134979 0)
(0.00668525 0.000166692 0)
(0.00702838 0.00205001 0)
(0.00706944 0.00127702 0)
(0.00550624 0.00253235 0)
(0.0049282 0.00142389 0)
(0.0034776 0.00203289 0)
(0.00331566 0.0011211 0)
(0.00249056 0.00175274 0)
(0.00265393 0.000779351 0)
(0.00211017 0.00177788 0)
(0.00196429 0.000493662 0)
(0.00149379 0.0023835 0)
(-0.00104879 0.00217243 0)
(-0.00147546 0.000220037 0)
(-0.00166628 0.00164457 0)
(-0.00198525 0.000574847 0)
(-0.00191009 0.00194355 0)
(-0.00268283 0.00113037 0)
(-0.00289896 0.00228459 0)
(-0.00417189 0.00139494 0)
(-0.00451074 0.00252592 0)
(-0.00561565 0.00114635 0)
(-0.0055236 0.00251854 0)
(-0.00544645 0.000139778 0)
(-0.00227036 -0.00079412 0)
(-0.000660584 0.00113809 0)
(0.000100082 0.00228189 0)
(-0.00288185 0.00205821 0)
(-0.000755064 0.000156932 0)
(-2.0464e-05 0.00137093 0)
(0.00154269 0.000383905 0)
(0.00124452 0.00135241 0)
(0.00210246 0.000833637 0)
(0.00118054 0.00113546 0)
(0.00174822 0.000975295 0)
(0.000664178 0.00122143 0)
(0.000986948 0.00104863 0)
(-3.91825e-05 0.00156242 0)
(0.000119889 0.000834588 0)
(-0.000483215 0.00167817 0)
(-0.000125411 0.000186778 0)
(-2.68743e-05 0.00113835 0)
(0.000301886 -0.000744297 0)
(0.000538821 0.00110234 0)
(0.000731221 -0.000203319 0)
(0.0010459 0.00155171 0)
(0.000651605 0.000707359 0)
(0.00086832 0.00187551 0)
(9.5698e-05 0.00100896 0)
(0.000273693 0.00175868 0)
(-0.00053205 0.000924751 0)
(-0.000245621 0.00162137 0)
(-0.000701053 0.000243807 0)
(-0.000336378 0.00188709 0)
(-0.0012654 0.000451769 0)
(0.000582574 -0.000494974 0)
(0.00103267 0.00188428 0)
(-27.6211 31.9344 0)
(-52.5448 10.5818 0)
(-35.1548 14.6377 0)
(-19.8443 27.2566 0)
(-2.59662 7.49936 0)
(5.40649 14.1836 0)
(5.37514 16.9589 0)
(8.01111 13.7642 0)
(14.1116 9.99031 0)
(23.691 6.81421 0)
(29.5719 -3.77084 0)
(33.8009 -3.14408 0)
(17.6843 -16.3328 0)
(-6.92237 -6.97449 0)
(3.41569 2.05375 0)
(5.06643 5.92857 0)
(7.94336 1.30535 0)
(11.7596 6.5704 0)
(11.9009 8.73791 0)
(14.2071 4.89981 0)
(16.8366 -0.124547 0)
(22.6924 -4.63132 0)
(31.2092 -11.3258 0)
(34.7924 -19.7666 0)
(38.0626 -27.4078 0)
(42.6936 -34.3707 0)
(41.1477 -50.0629 0)
(41.0844 -57.7482 0)
(38.1148 -34.2558 0)
(29.8151 -22.8798 0)
(23.1209 -11.0346 0)
(20.3216 -21.6542 0)
(18.5157 -0.080091 0)
(22.11 0.16204 0)
(31.3098 2.88626 0)
(40.2875 8.84089 0)
(48.4989 10.6914 0)
(48.4411 9.91587 0)
(46.8103 7.01497 0)
(39.0101 2.05237 0)
(24.2157 3.97766 0)
(13.0378 9.44987 0)
(3.27427 12.5892 0)
(-2.27657 18.6091 0)
(-5.10509 8.53852 0)
(-16.2768 8.37325 0)
(-26.6829 5.88168 0)
(-34.8021 2.79908 0)
(-42.85 -3.14941 0)
(-44.8215 -6.74365 0)
(-45.1353 -14.6904 0)
(-39.7375 -20.9751 0)
(-29.091 -24.1232 0)
(-16.1057 -25.485 0)
(-2.47959 -23.6372 0)
(9.23133 -19.5354 0)
(21.4275 -15.6001 0)
(29.5732 -11.7417 0)
(37.0802 -9.13486 0)
(43.2481 -7.61376 0)
(48.1642 -6.6295 0)
(53.2283 -6.80371 0)
(54.6334 -6.75495 0)
(57.2318 -3.05484 0)
(53.8684 -5.64378 0)
(46.3738 2.30704 0)
(42.7891 1.86463 0)
(36.4002 7.76685 0)
(36.3627 9.26568 0)
(37.2978 11.7566 0)
(37.0342 11.9372 0)
(32.9068 12.1828 0)
(22.6702 9.40984 0)
(7.45297 8.78627 0)
(0.0134006 -3.05455 0)
(1.56037 -7.11641 0)
(5.14318 -8.97939 0)
(10.0743 -11.0933 0)
(15.777 -12.1381 0)
(21.4583 -13.4988 0)
(26.9523 -14.2325 0)
(32.4632 -13.2179 0)
(35.7757 -14.3237 0)
(39.0813 -10.9325 0)
(40.8507 -11.1736 0)
(41.3634 -7.28829 0)
(41.4258 -6.28249 0)
(40.9863 -3.89635 0)
(41.2387 -4.10713 0)
(40.3732 -2.05467 0)
(39.9959 -3.02335 0)
(38.2136 -1.40182 0)
(37.3816 -1.6698 0)
(35.1377 -1.26943 0)
(33.2386 -0.232173 0)
(30.9727 -1.10876 0)
(28.1514 1.01308 0)
(25.6204 -0.00461125 0)
(22.1972 1.99608 0)
(19.0696 1.13708 0)
(15.1137 2.69621 0)
(11.531 2.09337 0)
(6.91216 3.29141 0)
(2.53683 2.76685 0)
(0.6153 -3.32771 0)
(2.06172 -3.46013 0)
(3.15354 -3.13505 0)
(4.07526 -3.2178 0)
(5.21314 -2.49201 0)
(5.78692 -2.58044 0)
(6.28596 -1.79895 0)
(6.51251 -1.96917 0)
(6.68579 -1.26646 0)
(6.64805 -1.52613 0)
(6.52762 -0.823131 0)
(6.30518 -1.12872 0)
(6.02107 -0.54529 0)
(5.72219 -0.816081 0)
(5.36746 -0.34572 0)
(5.07985 -0.569626 0)
(4.63733 -0.170997 0)
(4.45423 -0.414999 0)
(3.91258 -0.070668 0)
(3.77207 -0.317718 0)
(3.24427 -0.0487814 0)
(2.97553 -0.118797 0)
(2.64281 -0.156443 0)
(2.25621 0.052806 0)
(2.02992 -0.143197 0)
(1.57781 0.112762 0)
(1.30928 -0.0672693 0)
(0.919815 0.0706285 0)
(0.523779 0.0425727 0)
(0.199586 0.0163999 0)
(0.0121437 -0.112818 0)
(0.0552714 -0.127492 0)
(0.0902932 -0.103069 0)
(0.113512 -0.0897517 0)
(0.133989 -0.0806206 0)
(0.134168 -0.0625758 0)
(0.145407 -0.0597963 0)
(0.13645 -0.0432116 0)
(0.136049 -0.0389491 0)
(0.125899 -0.0336762 0)
(0.115402 -0.0262159 0)
(0.107873 -0.0283884 0)
(0.08994 -0.0222121 0)
(0.0797963 -0.0239697 0)
(0.0621615 -0.0214477 0)
(0.0499477 -0.0258541 0)
(0.0368847 -0.0204688 0)
(0.0276169 -0.0236191 0)
(0.0149666 -0.0208957 0)
(0.0102717 -0.0194663 0)
(-0.000205026 -0.0208313 0)
(-0.00321697 -0.0158254 0)
(-0.0102058 -0.0216635 0)
(-0.0126845 -0.0156305 0)
(-0.0173873 -0.021012 0)
(-0.0198341 -0.0170793 0)
(-0.022975 -0.0202591 0)
(-0.0263567 -0.0210007 0)
(-0.0286136 -0.0184093 0)
(-0.0305975 -0.0198546 0)
(0.0141055 -0.0178312 0)
(0.0250711 -0.0210992 0)
(0.0279199 -0.0188065 0)
(0.0293199 -0.0167546 0)
(0.0255249 -0.0184503 0)
(0.0239532 -0.0167301 0)
(0.0231852 -0.0197839 0)
(0.0209826 -0.015777 0)
(0.0198685 -0.019185 0)
(0.0169529 -0.015168 0)
(0.0150517 -0.0182912 0)
(0.0115125 -0.0150671 0)
(0.00872744 -0.0173348 0)
(0.00444582 -0.0154098 0)
(0.000720269 -0.0164154 0)
(-0.00343331 -0.0154574 0)
(-0.00771115 -0.0167966 0)
(-0.010881 -0.0152658 0)
(-0.0146846 -0.0178429 0)
(-0.016954 -0.0151876 0)
(-0.0200129 -0.0188086 0)
(-0.0213409 -0.0155109 0)
(-0.0236234 -0.0194795 0)
(-0.0242256 -0.0160251 0)
(-0.0259712 -0.0198619 0)
(-0.0266631 -0.0168503 0)
(-0.0280445 -0.0202957 0)
(-0.028372 -0.0187133 0)
(-0.025546 -0.0218864 0)
(-0.0146382 -0.0179656 0)
(0.0123298 -0.0159136 0)
(0.0258036 -0.0194554 0)
(0.0272162 -0.0197981 0)
(0.0255563 -0.0180677 0)
(0.0240238 -0.0201544 0)
(0.0222072 -0.0165854 0)
(0.0214501 -0.0197343 0)
(0.0194825 -0.0158687 0)
(0.0185641 -0.0192494 0)
(0.0160645 -0.0153767 0)
(0.0144929 -0.0184974 0)
(0.0113604 -0.015355 0)
(0.00902908 -0.0175762 0)
(0.00530761 -0.0156929 0)
(0.00218419 -0.0167373 0)
(-0.00132376 -0.0157127 0)
(-0.00504758 -0.0170543 0)
(-0.00771741 -0.0155857 0)
(-0.0111583 -0.0181413 0)
(-0.0130273 -0.0153997 0)
(-0.0157614 -0.0190254 0)
(-0.0170232 -0.0156581 0)
(-0.0193013 -0.0196797 0)
(-0.0202605 -0.0162898 0)
(-0.0222829 -0.0199642 0)
(-0.0235886 -0.0173087 0)
(-0.0253495 -0.0199851 0)
(-0.0278725 -0.0204698 0)
(-0.0295354 -0.0183141 0)
(-0.0308514 -0.0191491 0)
(0.0225532 -0.019443 0)
(0.0314067 -0.0183026 0)
(0.0287205 -0.0205966 0)
(0.0260924 -0.0176986 0)
(0.0246457 -0.0204056 0)
(0.0229249 -0.0168398 0)
(0.0223294 -0.0201275 0)
(0.0204728 -0.0161244 0)
(0.0196824 -0.0195254 0)
(0.0172003 -0.015541 0)
(0.0156895 -0.0186595 0)
(0.0125958 -0.0153772 0)
(0.0102512 -0.0176005 0)
(0.00645508 -0.0156346 0)
(0.00323176 -0.0167314 0)
(-0.000421137 -0.015657 0)
(-0.00430516 -0.0170104 0)
(-0.00709582 -0.0154991 0)
(-0.0106422 -0.0180989 0)
(-0.0125945 -0.0153115 0)
(-0.0154375 -0.0190126 0)
(-0.0167675 -0.0155586 0)
(-0.0191447 -0.0197024 0)
(-0.0201196 -0.0162163 0)
(-0.0222002 -0.0200231 0)
(-0.0235303 -0.0172703 0)
(-0.0253383 -0.0199558 0)
(-0.027808 -0.0203468 0)
(-0.0294539 -0.0182888 0)
(-0.0308028 -0.0191044 0)
(0.0359437 -0.0189062 0)
(0.0318906 -0.0203168 0)
(0.0277927 -0.0189071 0)
(0.0248343 -0.0199162 0)
(0.0229857 -0.0167443 0)
(0.0223442 -0.019652 0)
(0.0208422 -0.0159158 0)
(0.0202682 -0.0194772 0)
(0.0180558 -0.0155582 0)
(0.0167298 -0.0189318 0)
(0.0137548 -0.0153526 0)
(0.0115931 -0.0180468 0)
(0.00784538 -0.0155237 0)
(0.00481499 -0.0170161 0)
(0.000858817 -0.0155808 0)
(-0.0028951 -0.016525 0)
(-0.00613507 -0.0155834 0)
(-0.00987093 -0.0172987 0)
(-0.0122962 -0.015703 0)
(-0.0150093 -0.0172059 0)
(-0.0200435 -0.0144804 0)
(-0.021036 -0.0171092 0)
(-0.0243119 -0.0189468 0)
(-0.0248205 -0.0164799 0)
(-0.0265245 -0.0200823 0)
(-0.0271742 -0.0171041 0)
(-0.0284631 -0.0204575 0)
(-0.0285935 -0.0186171 0)
(-0.025644 -0.0217091 0)
(-0.0146324 -0.0178743 0)
(0.0227124 -0.0197043 0)
(0.0316024 -0.0180943 0)
(0.0289719 -0.0203877 0)
(0.0263242 -0.0175937 0)
(0.0248515 -0.0202744 0)
(0.0230736 -0.0168378 0)
(0.0223916 -0.0200136 0)
(0.0204747 -0.0161549 0)
(0.0196113 -0.0194108 0)
(0.0171149 -0.0155815 0)
(0.0155491 -0.0185615 0)
(0.0124182 -0.0154356 0)
(0.0100335 -0.0175291 0)
(0.00627618 -0.0156765 0)
(0.00301871 -0.0167335 0)
(-0.000562121 -0.0156704 0)
(-0.00443889 -0.0170434 0)
(-0.00721928 -0.0154697 0)
(-0.0107419 -0.018099 0)
(-0.0127269 -0.0153162 0)
(-0.0155764 -0.0189869 0)
(-0.0169385 -0.0156226 0)
(-0.0193593 -0.0197233 0)
(-0.0203932 -0.0163523 0)
(-0.0225973 -0.0201135 0)
(-0.0241559 -0.0174095 0)
(-0.0261602 -0.0200071 0)
(-0.0284632 -0.0202236 0)
(-0.0293371 -0.0181832 0)
(-0.0303091 -0.019171 0)
(0.0165819 -0.0154705 0)
(0.0290474 -0.0210167 0)
(0.0279758 -0.0205866 0)
(0.0266478 -0.0186129 0)
(0.0257957 -0.0201214 0)
(0.0248018 -0.0162166 0)
(0.0249036 -0.0195998 0)
(0.0233315 -0.0155409 0)
(0.0225563 -0.0192968 0)
(0.0196802 -0.015298 0)
(0.0176272 -0.0188476 0)
(0.0138164 -0.0154189 0)
(0.0109484 -0.01787 0)
(0.0063781 -0.0156265 0)
(0.00330509 -0.0149728 0)
(-0.0020527 -0.0152199 0)
(-0.0050524 -0.0158624 0)
(-0.00951263 -0.0176149 0)
(-0.0124375 -0.0156609 0)
(-0.0161604 -0.0185951 0)
(-0.0181265 -0.0154819 0)
(-0.0209144 -0.0191316 0)
(-0.0218925 -0.0157987 0)
(-0.0238148 -0.0194696 0)
(-0.0244262 -0.0167358 0)
(-0.0259487 -0.0200617 0)
(-0.0267069 -0.0186356 0)
(-0.0283993 -0.0204453 0)
(-0.0288131 -0.020752 0)
(-0.0153602 -0.0153189 0)
(0.024285 -0.0199379 0)
(0.0307022 -0.018512 0)
(0.0276491 -0.0211687 0)
(0.0249966 -0.0173084 0)
(0.0238697 -0.0213689 0)
(0.0220754 -0.01657 0)
(0.0220488 -0.0214732 0)
(0.0203471 -0.0159567 0)
(0.0204069 -0.0209878 0)
(0.0181334 -0.0154254 0)
(0.017571 -0.0199805 0)
(0.0145707 -0.0153653 0)
(0.0127999 -0.0188461 0)
(0.00886678 -0.015858 0)
(0.00583475 -0.0176344 0)
(0.00137452 -0.0162052 0)
(-0.0028676 -0.0174096 0)
(-0.00644242 -0.0163402 0)
(-0.010747 -0.018541 0)
(-0.0130891 -0.0159458 0)
(-0.0163232 -0.0195627 0)
(-0.0176489 -0.0161154 0)
(-0.0200919 -0.0204865 0)
(-0.0209313 -0.0168345 0)
(-0.0231527 -0.0210227 0)
(-0.0246356 -0.017945 0)
(-0.0267615 -0.0206547 0)
(-0.0289033 -0.0208701 0)
(-0.0293508 -0.0189176 0)
(-0.0302065 -0.0193842 0)
(-2.21373 45.6651 0)
(-16.4288 20.039 0)
(-19.997 18.4001 0)
(-21.2433 37.0134 0)
(-13.8215 9.67094 0)
(-4.77242 14.477 0)
(-2.49217 18.152 0)
(1.15701 17.7899 0)
(7.09249 13.4709 0)
(14.3544 7.42741 0)
(21.4835 -3.27239 0)
(26.8709 -4.55307 0)
(15.6392 -19.4575 0)
(-7.01679 -9.37204 0)
(4.05348 6.63118 0)
(3.34748 10.0712 0)
(9.16381 3.80729 0)
(16.2175 5.84971 0)
(22.0078 11.9527 0)
(33.5828 10.869 0)
(51.8059 -1.07268 0)
(56.7327 -7.93742 0)
(56.9735 -18.9685 0)
(62.1136 -33.6656 0)
(54.7203 -46.5714 0)
(10.603 -42.7045 0)
(-38.9108 -55.071 0)
(44.0948 -31.1671 0)
(105.616 -37.5306 0)
(64.9904 -30.3034 0)
(36.1068 -20.4969 0)
(34.8338 -10.9511 0)
(36.3367 -1.60889 0)
(27.0467 9.02969 0)
(31.3316 12.7311 0)
(40.0314 13.3229 0)
(43.0777 14.6672 0)
(43.5366 11.5554 0)
(37.3237 6.98332 0)
(31.1582 4.26534 0)
(27.0196 8.17007 0)
(16.4834 14.2126 0)
(9.50648 23.5825 0)
(1.6132 27.553 0)
(-6.23598 16.8956 0)
(-17.3407 16.1682 0)
(-28.096 12.8628 0)
(-41.155 9.34135 0)
(-52.3052 1.4164 0)
(-61.5103 -7.62346 0)
(-62.1833 -22.6471 0)
(-54.5996 -34.3504 0)
(-39.1654 -41.3443 0)
(-22.0078 -46.1844 0)
(-2.52422 -44.7431 0)
(14.242 -38.8408 0)
(24.5064 -32.1361 0)
(33.1003 -24.1732 0)
(38.5482 -18.1718 0)
(43.3115 -14.901 0)
(46.0947 -11.149 0)
(49.8404 -9.71925 0)
(52.0112 -9.96383 0)
(52.6287 -4.93616 0)
(50.5004 -7.87629 0)
(43.5218 2.77091 0)
(39.8101 2.05265 0)
(32.9615 10.7031 0)
(30.8144 13.5932 0)
(30.4096 17.6931 0)
(29.8725 18.1634 0)
(27.2744 19.5561 0)
(19.0163 16.6019 0)
(6.21555 18.011 0)
(-1.67676 -4.58696 0)
(-1.68966 -11.8021 0)
(1.09189 -15.3741 0)
(6.11479 -19.1865 0)
(12.5437 -20.3321 0)
(19.2059 -21.4345 0)
(25.167 -21.2562 0)
(30.1312 -20.9505 0)
(34.0846 -19.996 0)
(36.9245 -17.653 0)
(38.657 -16.4234 0)
(38.4174 -12.6519 0)
(38.568 -10.6182 0)
(36.1412 -7.83971 0)
(36.4429 -5.63325 0)
(34.6154 -5.63837 0)
(33.9848 -2.95254 0)
(32.6562 -4.59663 0)
(31.1825 -1.01907 0)
(29.6252 -3.71403 0)
(27.8298 0.583973 0)
(25.5109 -2.32121 0)
(23.4229 1.59266 0)
(20.9093 -0.432858 0)
(18.372 2.53402 0)
(15.8498 1.45032 0)
(12.7725 3.74437 0)
(9.76517 3.20857 0)
(6.02192 4.9209 0)
(2.31616 4.57633 0)
(0.747437 -5.77427 0)
(1.83457 -5.80422 0)
(3.06019 -5.15278 0)
(4.13264 -4.76005 0)
(4.72066 -4.29166 0)
(5.00322 -3.83323 0)
(5.57603 -3.07892 0)
(5.56045 -2.91065 0)
(5.69445 -2.02016 0)
(5.6252 -2.2419 0)
(5.48672 -1.29465 0)
(5.30976 -1.74182 0)
(5.0279 -0.857346 0)
(4.82779 -1.30218 0)
(4.45627 -0.55867 0)
(4.30975 -0.939649 0)
(3.84854 -0.37366 0)
(3.7773 -0.600816 0)
(3.25836 -0.323622 0)
(3.12164 -0.27717 0)
(2.72969 -0.359485 0)
(2.44775 -0.0459145 0)
(2.23308 -0.313105 0)
(1.88204 0.0431837 0)
(1.71105 -0.193726 0)
(1.33853 0.00168471 0)
(1.0894 -0.0255458 0)
(0.810781 -0.00517037 0)
(0.444899 0.0575818 0)
(0.149328 0.0375612 0)
(0.0141645 -0.212474 0)
(0.028903 -0.185367 0)
(0.0542952 -0.16742 0)
(0.060281 -0.151504 0)
(0.0631056 -0.119209 0)
(0.0715372 -0.109737 0)
(0.0637138 -0.0810304 0)
(0.0691608 -0.0776979 0)
(0.0602479 -0.0561765 0)
(0.0548475 -0.0536664 0)
(0.0564239 -0.0407725 0)
(0.044807 -0.0405253 0)
(0.04524 -0.0292751 0)
(0.03891 -0.0267862 0)
(0.0354817 -0.0293775 0)
(0.0369777 -0.0224837 0)
(0.0324394 -0.0276749 0)
(0.035779 -0.0196877 0)
(0.0327107 -0.0266436 0)
(0.0354488 -0.017626 0)
(0.0324064 -0.0254609 0)
(0.0340122 -0.0162655 0)
(0.0313042 -0.0237014 0)
(0.0320747 -0.0142498 0)
(0.0294916 -0.0231125 0)
(0.0294435 -0.0129725 0)
(0.0276635 -0.0229789 0)
(0.0298709 -0.0201135 0)
(0.0238682 -0.0116197 0)
(0.0109646 -0.025059 0)
(-0.0352408 -0.0121089 0)
(-0.0322553 -0.0250958 0)
(-0.0314631 -0.0134206 0)
(-0.0318497 -0.0204716 0)
(-0.0269864 -0.0211334 0)
(-0.0263827 -0.0114076 0)
(-0.0253968 -0.0229393 0)
(-0.0246737 -0.0101339 0)
(-0.022674 -0.0220788 0)
(-0.0204135 -0.00961102 0)
(-0.0170611 -0.0212254 0)
(-0.0136087 -0.00953554 0)
(-0.00952222 -0.020272 0)
(-0.00542931 -0.00948841 0)
(-0.00121432 -0.0193633 0)
(0.00302793 -0.00947102 0)
(0.00721825 -0.0197445 0)
(0.0113487 -0.00961437 0)
(0.0152021 -0.0208532 0)
(0.0189966 -0.00978207 0)
(0.0219711 -0.0218428 0)
(0.0248021 -0.00998872 0)
(0.0265392 -0.0225694 0)
(0.0282014 -0.0102654 0)
(0.0288416 -0.0227724 0)
(0.0297319 -0.0106685 0)
(0.029954 -0.0232812 0)
(0.0313042 -0.0123761 0)
(0.032254 -0.025554 0)
(0.0354055 -0.0121911 0)
(-0.0288539 -0.0124696 0)
(-0.0282008 -0.0233878 0)
(-0.0247132 -0.0231076 0)
(-0.0252673 -0.0113113 0)
(-0.0253606 -0.0230212 0)
(-0.0256288 -0.0105686 0)
(-0.0247803 -0.0227746 0)
(-0.0238649 -0.0103155 0)
(-0.0218087 -0.0223741 0)
(-0.0197016 -0.0100158 0)
(-0.0166085 -0.0216635 0)
(-0.0134324 -0.0100054 0)
(-0.00964629 -0.0207464 0)
(-0.00585034 -0.00996682 0)
(-0.00195009 -0.0199211 0)
(0.0020027 -0.0100445 0)
(0.00596222 -0.0202585 0)
(0.00989558 -0.0101005 0)
(0.0135031 -0.0213385 0)
(0.0170523 -0.0101587 0)
(0.0197179 -0.02219 0)
(0.0223111 -0.0103364 0)
(0.0237927 -0.022817 0)
(0.0251859 -0.0106394 0)
(0.0254478 -0.0229417 0)
(0.0259777 -0.0110844 0)
(0.0260711 -0.0231161 0)
(0.028606 -0.0194717 0)
(0.0232216 -0.0114977 0)
(0.0103827 -0.0242675 0)
(-0.00920895 -0.0261398 0)
(-0.022946 -0.0121677 0)
(-0.0264089 -0.0232823 0)
(-0.0277681 -0.0109436 0)
(-0.0279226 -0.0233609 0)
(-0.0280646 -0.0108618 0)
(-0.027175 -0.0232207 0)
(-0.0263074 -0.010583 0)
(-0.0242906 -0.0226723 0)
(-0.0221079 -0.010251 0)
(-0.0188724 -0.0218786 0)
(-0.0154836 -0.010149 0)
(-0.0114754 -0.0208094 0)
(-0.0074686 -0.00997754 0)
(-0.00336455 -0.0199324 0)
(0.000790082 -0.00998463 0)
(0.00494552 -0.0202136 0)
(0.00905332 -0.0100318 0)
(0.0128203 -0.0212977 0)
(0.0165118 -0.0100794 0)
(0.0193051 -0.0221829 0)
(0.022011 -0.0102695 0)
(0.023571 -0.0228518 0)
(0.0250354 -0.0106208 0)
(0.0253291 -0.0230056 0)
(0.0258902 -0.0111021 0)
(0.0259847 -0.0230752 0)
(0.0285614 -0.0195637 0)
(0.0232532 -0.0114703 0)
(0.0103954 -0.0242947 0)
(-0.0115783 -0.0262428 0)
(-0.0229831 -0.0123844 0)
(-0.0285921 -0.0109014 0)
(-0.0280554 -0.0222829 0)
(-0.0279213 -0.0103378 0)
(-0.0269287 -0.0225994 0)
(-0.0260779 -0.0101763 0)
(-0.0242112 -0.0225326 0)
(-0.0224495 -0.00995431 0)
(-0.019672 -0.0219321 0)
(-0.0168649 -0.00986032 0)
(-0.0132628 -0.0210956 0)
(-0.00958711 -0.00986152 0)
(-0.00560362 -0.0200888 0)
(-0.00154596 -0.00989214 0)
(0.0024824 -0.0195824 0)
(0.00632855 -0.00992428 0)
(0.00991146 -0.0206046 0)
(0.0139681 -0.0112462 0)
(0.0180421 -0.0193575 0)
(0.0251651 -0.0184847 0)
(0.0261763 -0.0107142 0)
(0.0273888 -0.0225045 0)
(0.0285855 -0.010846 0)
(0.0288496 -0.0231789 0)
(0.0295412 -0.0110465 0)
(0.0296654 -0.0235837 0)
(0.0309921 -0.0124772 0)
(0.0319139 -0.0254773 0)
(0.0350193 -0.0124919 0)
(-0.00917576 -0.0264282 0)
(-0.0228839 -0.0118546 0)
(-0.0263106 -0.0230642 0)
(-0.027611 -0.0108233 0)
(-0.0277187 -0.0232253 0)
(-0.0278288 -0.0107848 0)
(-0.0269399 -0.0230887 0)
(-0.0260658 -0.0105325 0)
(-0.0240834 -0.0225506 0)
(-0.021917 -0.0102271 0)
(-0.0187359 -0.021789 0)
(-0.0153571 -0.0101369 0)
(-0.0113916 -0.0207843 0)
(-0.00737169 -0.00999266 0)
(-0.00329525 -0.0199507 0)
(0.000830234 -0.0100067 0)
(0.00495053 -0.020252 0)
(0.009059 -0.0100557 0)
(0.0128295 -0.0213144 0)
(0.0165511 -0.0101163 0)
(0.0193882 -0.022182 0)
(0.0221167 -0.0103448 0)
(0.0236993 -0.0228892 0)
(0.0251197 -0.010752 0)
(0.0253399 -0.0231277 0)
(0.0257807 -0.0112283 0)
(0.0257401 -0.0231351 0)
(0.0283714 -0.0201923 0)
(0.0232521 -0.0118591 0)
(0.0103438 -0.0242847 0)
(-0.033595 -0.0127047 0)
(-0.0306557 -0.0216544 0)
(-0.027758 -0.0154081 0)
(-0.0313153 -0.0120359 0)
(-0.0298543 -0.0229032 0)
(-0.0288367 -0.0105561 0)
(-0.0269128 -0.0226713 0)
(-0.0253342 -0.0101959 0)
(-0.0227439 -0.0222227 0)
(-0.0205818 -0.00989906 0)
(-0.0175299 -0.0217351 0)
(-0.0147564 -0.010076 0)
(-0.0113998 -0.0209778 0)
(-0.00787326 -0.010145 0)
(-0.00370307 -0.018093 0)
(0.00421608 -0.0177554 0)
(0.00828887 -0.0103664 0)
(0.0118725 -0.0208786 0)
(0.0151595 -0.0102881 0)
(0.0179509 -0.0216829 0)
(0.0208485 -0.0101882 0)
(0.022918 -0.0221925 0)
(0.0252355 -0.0104793 0)
(0.0265054 -0.0224249 0)
(0.0276625 -0.0107828 0)
(0.0277318 -0.023021 0)
(0.0282674 -0.0124217 0)
(0.026882 -0.0184511 0)
(0.0305437 -0.0221283 0)
(0.0325334 -0.0126747 0)
(-0.0089206 -0.0263263 0)
(-0.0224211 -0.0124027 0)
(-0.0253901 -0.0235997 0)
(-0.0265632 -0.0112555 0)
(-0.0261527 -0.0241458 0)
(-0.0263802 -0.0114066 0)
(-0.0251774 -0.02445 0)
(-0.0246474 -0.0113415 0)
(-0.0225406 -0.024185 0)
(-0.0208525 -0.0110754 0)
(-0.0176502 -0.0233734 0)
(-0.0147563 -0.010906 0)
(-0.0108479 -0.0221243 0)
(-0.00729478 -0.0107933 0)
(-0.00339607 -0.0209 0)
(0.000513006 -0.0108089 0)
(0.00443795 -0.0207398 0)
(0.00834663 -0.0110378 0)
(0.0120445 -0.0219369 0)
(0.0156665 -0.0112398 0)
(0.0183862 -0.0230311 0)
(0.0211167 -0.0115829 0)
(0.0226159 -0.0239935 0)
(0.0241589 -0.0120301 0)
(0.0244025 -0.0243129 0)
(0.0251105 -0.012462 0)
(0.0252101 -0.0238394 0)
(0.0279274 -0.0209133 0)
(0.0228688 -0.013115 0)
(0.0102799 -0.0253183 0)
(-10.5236 36.6378 0)
(-21.1344 16.4138 0)
(-37.9167 22.026 0)
(-27.4571 51.2779 0)
(-10.0192 12.7813 0)
(-14.4224 14.4075 0)
(-7.33026 23.4914 0)
(3.7796 22.1345 0)
(7.11727 15.7636 0)
(9.60619 8.58884 0)
(12.7694 -0.958467 0)
(19.7915 -4.37026 0)
(13.9382 -17.1575 0)
(0.769011 -8.75838 0)
(9.36548 14.4465 0)
(12.9554 16.625 0)
(17.4661 2.49609 0)
(42.7858 19.9492 0)
(56.3676 10.513 0)
(63.7439 8.08276 0)
(69.3984 1.03604 0)
(64.5873 -8.65144 0)
(54.1401 -13.3308 0)
(45.4581 -23.7265 0)
(40.9303 -42.588 0)
(29.5342 -33.7122 0)
(-12.2436 -16.6241 0)
(-3.32781 64.6612 0)
(14.5698 5.7918 0)
(-26.2695 -32.4715 0)
(-0.958507 -9.11069 0)
(41.5006 5.7017 0)
(68.9185 19.065 0)
(66.8738 13.2464 0)
(48.5217 19.8635 0)
(44.3334 18.9009 0)
(45.1902 15.7094 0)
(35.5357 11.8431 0)
(31.5792 9.30237 0)
(30.9912 7.06741 0)
(25.0966 11.856 0)
(23.6029 21.4578 0)
(15.4805 30.9124 0)
(4.48174 38.4447 0)
(-6.44843 25.2546 0)
(-19.6211 26.3889 0)
(-34.9145 25.4339 0)
(-51.4034 23.4845 0)
(-68.8154 13.0053 0)
(-73.8594 -2.57443 0)
(-78.8401 -25.6968 0)
(-64.4392 -47.7123 0)
(-44.5123 -62.7537 0)
(-22.809 -70.0638 0)
(-1.26224 -71.5633 0)
(18.5076 -64.7839 0)
(35.4348 -54.4564 0)
(44.7843 -42.4678 0)
(49.0436 -31.2703 0)
(52.4437 -21.5529 0)
(54.2921 -16.4629 0)
(54.1988 -12.0329 0)
(55.778 -9.94645 0)
(54.8909 -6.65034 0)
(53.7065 -6.32166 0)
(49.2421 1.01619 0)
(43.1424 4.92616 0)
(37.3086 11.9008 0)
(31.8978 17.3624 0)
(29.5775 22.2921 0)
(27.4557 24.1336 0)
(23.1438 25.6155 0)
(15.9923 24.6027 0)
(6.15435 25.5895 0)
(-3.70155 -2.58675 0)
(-6.85572 -14.9028 0)
(-5.25113 -22.1665 0)
(1.32209 -28.4952 0)
(10.155 -29.8401 0)
(18.6037 -30.6447 0)
(25.8257 -28.7609 0)
(31.9436 -27.1688 0)
(36.3619 -24.7252 0)
(39.6255 -22.9333 0)
(41.4896 -20.0675 0)
(42.264 -17.584 0)
(41.5223 -14.9922 0)
(39.8039 -11.6889 0)
(37.7618 -8.72677 0)
(36.238 -7.98288 0)
(34.4978 -4.72599 0)
(33.4191 -6.06342 0)
(31.3212 -2.0769 0)
(30.0612 -4.65994 0)
(28.1296 -0.438776 0)
(26.1313 -2.79392 0)
(24.0168 0.852006 0)
(21.5041 -0.560201 0)
(19.1927 2.54758 0)