/*--------------------------------*- C++ -*----------------------------------*\
| =========                 |                                                 |
| \\      /  F ield         | OpenFOAM: The Open Source CFD Toolbox           |
|  \\    /   O peration     | Version:  2.1.1                                 |
|   \\  /    A nd           | Web:      www.OpenFOAM.org                      |
|    \\/     M anipulation  |                                                 |
\*---------------------------------------------------------------------------*/
FoamFile
{
    version     2.0;
    format      ascii;
    class       volScalarField;
    location    "0.006750000";
    object      G;
}
// * * * * * * * * * * * * * * * * * * * * * * * * * * * * * * * * * * * * * //

dimensions      [0 0 0 0 0 0 0];

internalField   nonuniform List<scalar> 
12384
(
1
1
1
1
1
1
1
1
1
1
1
1
1
1
1
1
1
1
1
1
1
1
1
1
1
1
1
1
1
1
0.999999
0.999998
0.999996
0.999994
0.999995
0.999997
0.999998
0.999999
1
1
1
1
1
1
1
1
1
1
1
1
1
1
1
1
1
1
0.999999
0.999996
0.999985
0.999933
0.999875
0.999714
0.999718
0.999761
0.999827
0.999909
0.999925
0.999962
0.999976
0.999991
0.999998
1
1
1
1
1
1
1
1
1
0.999999
0.999998
0.999996
0.999993
0.999988
0.99998
0.999958
0.999887
0.99966
0.999023
0.997405
0.993856
0.98872
0.981955
0.981137
0.984631
0.989719
0.993522
0.996888
0.999108
0.999942
1
1
1
1
1
1
0.999997
0.999978
0.999899
0.999651
0.998978
0.997734
0.995629
0.991624
0.988519
0.988
0.986921
0.990624
0.994129
0.996275
0.998149
0.999285
0.99983
0.999989
1
1
1
1
1
1
1
1
1
1
1
1
1
1
1
1
1
1
1
0.999999
0.999994
0.999972
0.999902
0.999727
0.999401
0.998921
0.998635
0.998645
0.999399
0.999632
0.99991
0.999948
0.999987
0.999996
0.999999
1
1
1
1
1
1
1
1
1
0.999997
0.999958
0.999599
0.997821
0.992597
0.981983
0.965432
0.945972
0.929412
0.924272
0.936687
0.959301
0.973806
0.980357
0.989205
0.992687
0.997013
0.998575
0.999678
0.999919
0.999988
0.999995
0.999999
0.999999
0.999997
1
1
1
1
0.999999
0.99999
0.999935
0.999743
0.999301
0.998833
0.998185
0.998137
0.998546
0.999139
0.999433
0.999652
0.999812
0.999915
0.999973
0.999995
0.999999
1
1
1
1
1
1
1
1
1
1
1
0.999993
0.999852
0.999076
0.997171
0.993794
0.987524
0.988995
0.988283
0.993907
0.993263
0.997917
0.998476
0.999529
0.999827
0.99996
0.999993
0.999999
1
1
1
1
1
1
1
1
1
1
1
1
1
1
1
1
0.99999
0.999878
0.998809
0.996854
0.990598
0.988598
0.983329
0.985249
0.986119
0.989067
0.991945
0.994812
0.997368
0.999122
0.999779
0.999976
1
1
1
1
1
1
1
1
1
1
1
0.999997
0.999864
0.998339
0.991901
0.981025
0.967729
0.963996
0.957617
0.964187
0.966346
0.974039
0.982463
0.984675
0.992089
0.99451
0.997521
0.999219
0.999926
0.999993
1
1
1
1
1
1
1
1
1
1
1
1
0.999999
0.999994
0.999989
0.99993
0.999776
0.998801
0.99709
0.990408
0.987114
0.98725
0.991376
0.995344
0.997753
0.999145
0.999622
0.999743
0.999728
0.999635
0.999488
0.999284
0.999091
0.998814
0.998729
0.998887
0.999333
0.999829
0.999997
1
1
1
1
1
1
0.999993
0.999792
0.999992
0.999971
0.999933
0.999873
0.999808
0.999675
0.999583
0.999541
0.9998
0.99991
0.999981
0.999997
1
1
1
1
1
1
1
1
1
1
1
1
1
1
1
1
1
1
1
1
1
1
1
1
1
1
1
1
1
1
1
1
1
1
1
1
1
1
0.999992
0.999847
0.998683
0.994175
0.984544
0.971464
0.960939
0.956368
0.960401
0.971564
0.984003
0.993851
0.998761
0.999953
1
1
1
1
1
0.999998
0.999994
0.999994
0.999998
0.999999
1
1
0.999999
0.999985
0.999844
0.998385
0.99191
0.966393
0.924602
0.849214
0.793463
0.740439
0.718182
0.755347
0.778183
0.846728
0.902736
0.95423
0.986048
0.998682
0.999994
1
1
0.999994
0.999848
0.998894
0.996454
0.993442
0.991604
0.99217
0.995212
0.997522
0.99875
0.999309
0.999236
0.997651
0.989059
0.955377
0.865359
0.708564
0.525324
0.347739
0.270367
0.206212
0.199877
0.239866
0.32418
0.47821
0.702837
0.927548
0.998372
1
1
1
1
0.99997
0.999218
0.993415
0.970913
0.917001
0.819559
0.689918
0.56047
0.457355
0.342025
0.311845
0.289419
0.302534
0.348914
0.420263
0.533216
0.679687
0.854614
0.968718
0.997933
0.999999
1
1
1
1
1
1
1
1
1
1
1
1
1
0.999999
0.999997
0.99997
0.999763
0.998162
0.990265
0.965112
0.909642
0.821138
0.722357
0.628551
0.551201
0.508109
0.501774
0.557445
0.62982
0.750788
0.854728
0.950393
0.993883
0.999959
1
1
1
1
1
1
0.999994
0.999617
0.990979
0.934567
0.792981
0.583989
0.380223
0.233251
0.138605
0.0841597
0.058949
0.0419251
0.0395364
0.03869
0.0539293
0.0743357
0.124569
0.227685
0.374611
0.648171
0.882613
0.992482
0.999984
1
0.999999
0.99999
1
1
1
0.999885
0.997555
0.983619
0.938584
0.854824
0.744562
0.607348
0.500056
0.435074
0.409918
0.396607
0.446094
0.531045
0.644139
0.779494
0.906705
0.981551
0.998888
0.999986
1
1
1
1
1
1
1
1
1
0.999619
0.979699
0.884195
0.714932
0.495863
0.325512
0.22761
0.15522
0.123302
0.144368
0.164431
0.266091
0.387006
0.612438
0.825006
0.967257
0.99826
0.999953
0.999997
0.999999
0.999999
0.999999
1
1
1
1
1
1
1
1
1
1
0.999997
0.997751
0.959972
0.81801
0.60343
0.387246
0.283125
0.167372
0.149421
0.145452
0.1808
0.246803
0.363209
0.532875
0.741092
0.909171
0.984821
0.998197
0.999724
0.999856
0.999893
0.999961
0.999994
1
1
1
1
1
0.999774
0.95732
0.73295
0.432252
0.21697
0.113305
0.063135
0.0502247
0.054991
0.0754561
0.119261
0.217606
0.369811
0.604504
0.829387
0.942481
0.978747
0.989713
0.993407
0.992417
0.993021
0.993735
0.997098
0.998871
0.999717
0.999974
0.999999
1
1
1
1
0.999705
0.946977
0.820182
0.67658
0.504835
0.420718
0.329655
0.308642
0.317882
0.370287
0.463762
0.57848
0.725234
0.85276
0.928628
0.960168
0.958837
0.932201
0.872698
0.78783
0.706515
0.669313
0.671702
0.720242
0.80708
0.905062
0.97803
0.999853
1
1
1
1
1
0.999984
0.978733
0.985257
0.970698
0.910224
0.854196
0.82257
0.803356
0.823352
0.85434
0.905535
0.949587
0.980628
0.994699
0.999101
0.99993
0.999998
1
1
1
1
1
1
1
1
1
1
1
1
1
1
1
1
1
1
1
1
1
1
1
1
1
1
1
1
1
1
1
1
1
1
1
0.999997
0.999928
0.999377
0.997607
0.994178
0.989545
0.984348
0.979675
0.977358
0.977242
0.979311
0.983916
0.990242
0.996268
0.999448
0.999983
1
1
1
1
1
1
1
1
1
0.999999
0.99999
0.999934
0.999497
0.997664
0.990546
0.976169
0.945279
0.911032
0.847973
0.808399
0.764193
0.744177
0.765869
0.787862
0.841165
0.882676
0.929103
0.96422
0.990786
0.99955
1
1
0.999936
0.999582
0.99854
0.996938
0.995457
0.994437
0.994374
0.995011
0.995928
0.995895
0.994721
0.991851
0.979727
0.941955
0.863951
0.752192
0.61131
0.478963
0.348045
0.290212
0.214594
0.207516
0.215726
0.275233
0.349226
0.507786
0.73908
0.961321
0.999994
1
1
0.999994
0.999438
0.993607
0.972741
0.931463
0.867816
0.788996
0.708166
0.620822
0.525033
0.460198
0.408529
0.375195
0.374827
0.389826
0.429752
0.473915
0.544324
0.668666
0.839125
0.961555
0.998235
0.999999
1
1
1
1
1
1
1
1
1
1
1
0.999999
0.999991
0.999932
0.999447
0.996804
0.987948
0.967424
0.936006
0.892833
0.846573
0.794855
0.741447
0.698623
0.682821
0.650427
0.684878
0.712043
0.766742
0.82965
0.899439
0.966275
0.997375
0.999996
1
1
1
1
0.999999
0.999913
0.993778
0.934966
0.771929
0.581107
0.422896
0.299573
0.2116
0.156006
0.122925
0.0972825
0.0881138
0.0718434
0.0732834
0.0700206
0.0803655
0.10389
0.148384
0.231359
0.392643
0.645487
0.895457
0.992956
0.999997
1
0.999994
1
1
0.999944
0.997903
0.985345
0.950112
0.892835
0.825625
0.722244
0.646437
0.558717
0.505378
0.44044
0.458664
0.476052
0.513523
0.582033
0.66715
0.780875
0.904349
0.980381
0.998669
0.999983
1
1
1
1
1
1
1
1
0.980589
0.864837
0.692124
0.531378
0.376984
0.28204
0.187554
0.143455
0.11789
0.135144
0.13514
0.223333
0.277115
0.457296
0.623874
0.85671
0.976053
0.99865
0.999958
0.999999
1
1
1
1
1
1
1
1
1
1
1
1
0.997655
0.938111
0.755836
0.524015
0.35274
0.246745
0.129809
0.105168
0.088795
0.0900184
0.0991992
0.133106
0.191325
0.295554
0.463961
0.693512
0.89672
0.982445
0.998081
0.999822
0.999976
0.999995
0.999997
0.999998
1
1
1
1
0.935344
0.591107
0.292439
0.13709
0.0575556
0.0281912
0.016989
0.0118448
0.0129717
0.0214356
0.0374693
0.0691301
0.147483
0.292293
0.520353
0.780846
0.916624
0.977205
0.9934
0.995543
0.997175
0.995462
0.994611
0.993494
0.995439
0.999152
0.999979
1
1
1
0.999943
0.962811
0.803177
0.678817
0.579877
0.498046
0.47573
0.41929
0.43223
0.420073
0.428963
0.446479
0.468739
0.49231
0.559303
0.69559
0.810934
0.867789
0.876117
0.8591
0.821984
0.774403
0.735969
0.724734
0.737411
0.782747
0.859071
0.939642
0.999472
1
0.999999
1
1
0.999987
0.978649
0.919259
0.945427
0.891309
0.836307
0.821466
0.817782
0.830819
0.842472
0.877975
0.909889
0.933611
0.957846
0.977197
0.99095
0.998137
0.999896
0.999999
1
1
1
1
1
1
1
1
1
1
1
1
1
1
1
1
1
1
1
1
1
1
1
1
1
1
1
1
1
1
1
1
1
1
0.999974
0.999485
0.997883
0.996248
0.995603
0.995367
0.995284
0.99485
0.993791
0.993409
0.992745
0.992066
0.99186
0.993968
0.997909
0.999803
1
1
1
1
1
1
1
1
1
0.999996
0.999917
0.999308
0.996357
0.988321
0.972164
0.952676
0.924987
0.898783
0.872839
0.83765
0.820123
0.811236
0.815189
0.832821
0.869318
0.887995
0.924548
0.94969
0.977001
0.996183
0.999999
1
0.999583
0.999238
0.998783
0.998422
0.998064
0.997718
0.997041
0.995714
0.992904
0.988456
0.979126
0.96205
0.927292
0.851405
0.735315
0.626077
0.532901
0.483099
0.421045
0.374873
0.322531
0.299481
0.287747
0.284523
0.331477
0.405208
0.589296
0.857535
0.999943
1
1
0.999926
0.997272
0.981105
0.941895
0.887996
0.834605
0.794869
0.752863
0.708283
0.657763
0.628377
0.574986
0.551284
0.521161
0.521997
0.526432
0.535073
0.53634
0.576345
0.697836
0.870272
0.978789
0.999655
1
1
1
1
1
1
1
1
1
1
1
0.999997
0.999958
0.999622
0.997398
0.987747
0.963094
0.928411
0.897025
0.880635
0.874143
0.872648
0.873922
0.876998
0.865042
0.868969
0.862355
0.845564
0.856766
0.854398
0.887058
0.93513
0.985249
0.999736
1
1
1
1
0.999997
0.999067
0.971869
0.85249
0.630844
0.435711
0.32635
0.267991
0.245884
0.245007
0.247489
0.252523
0.241634
0.249048
0.204228
0.190916
0.162708
0.14956
0.152694
0.190753
0.295137
0.477909
0.738105
0.926011
0.998936
0.999999
0.999997
1
0.999997
0.999364
0.990643
0.957533
0.906669
0.856725
0.79896
0.761783
0.732144
0.680002
0.623267
0.610901
0.571525
0.562409
0.581965
0.610284
0.650615
0.710291
0.808851
0.923336
0.986972
0.999146
0.999992
1
1
1
1
1
1
0.999993
0.900276
0.702394
0.534558
0.429765
0.337753
0.297108
0.22686
0.209193
0.183104
0.167826
0.188796
0.233848
0.287899
0.389465
0.520197
0.716755
0.906149
0.987226
0.999282
0.999982
1
1
1
1
1
1
1
1
1
1
1
0.999688
0.950508
0.732579
0.524479
0.338201
0.274435
0.153807
0.138304
0.116218
0.0831876
0.0695104
0.085043
0.108443
0.144146
0.186171
0.278113
0.449844
0.703616
0.910295
0.986353
0.999144
0.999964
0.999992
0.999986
0.999984
0.999996
1
1
1
0.532079
0.20835
0.0912131
0.0465593
0.0206015
0.0107997
0.00647455
0.00567164
0.0065721
0.00878761
0.0151196
0.0290183
0.0575819
0.132699
0.268187
0.514256
0.745849
0.907647
0.981612
0.994406
0.997558
0.996518
0.988788
0.974828
0.974576
0.993472
0.999834
1
1
0.999997
0.993805
0.855692
0.704596
0.628583
0.592466
0.594073
0.629633
0.640321
0.650449
0.651401
0.604728
0.529474
0.461604
0.397943
0.363044
0.474736
0.617671
0.7265
0.800318
0.848167
0.872398
0.874233
0.857429
0.836044
0.817501
0.810684
0.828503
0.877067
0.998872
1
0.999996
1
0.999979
0.990946
0.862378
0.907198
0.882822
0.826816
0.821289
0.836601
0.86693
0.886527
0.912048
0.92033
0.933115
0.934085
0.942154
0.94743
0.969077
0.988249
0.99871
0.999984
1
1
1
1
1
1
1
1
1
1
1
1
1
1
1
1
1
1
1
1
1
1
1
1
1
1
1
1
1
1
1
1
1
0.999998
0.999723
0.997541
0.995539
0.996517
0.998076
0.99905
0.999431
0.999525
0.99945
0.999159
0.998594
0.997424
0.995233
0.992737
0.995068
0.998779
1
1
1
1
1
1
1
1
1
0.999987
0.999628
0.996992
0.988601
0.968362
0.949533
0.91962
0.911225
0.904226
0.909614
0.904727
0.899967
0.893868
0.894343
0.889628
0.904936
0.911191
0.92771
0.939905
0.960303
0.985242
0.999994
1
0.998103
0.998617
0.99903
0.999378
0.99948
0.999433
0.999088
0.997747
0.991969
0.974879
0.947055
0.908156
0.847957
0.74108
0.608516
0.513723
0.48514
0.515468
0.544302
0.563925
0.545629
0.490862
0.407371
0.365741
0.332644
0.369678
0.462157
0.728837
0.999816
0.999999
0.999998
0.999665
0.993182
0.964154
0.905743
0.848341
0.812369
0.797559
0.804231
0.798513
0.812916
0.785441
0.779706
0.753347
0.740975
0.706535
0.672787
0.626089
0.585347
0.554184
0.608315
0.763798
0.93034
0.994107
0.999994
1
1
1
1
1
1
1
1
1
1
0.999994
0.999918
0.999331
0.995353
0.977807
0.930924
0.88238
0.853716
0.859886
0.89229
0.932213
0.958474
0.972981
0.976973
0.972377
0.964852
0.953084
0.927915
0.906745
0.889665
0.914583
0.963041
0.997202
1
1
1
1
0.999978
0.997137
0.959102
0.796571
0.513861
0.33381
0.254721
0.239039
0.270845
0.343595
0.444702
0.530178
0.568366
0.530519
0.512894
0.427169
0.324032
0.281531
0.196733
0.216031
0.24882
0.390369
0.603677
0.828282
0.983819
0.999976
0.999998
1
0.999973
0.997742
0.97608
0.918594
0.854283
0.803842
0.803121
0.823145
0.825904
0.814185
0.810917
0.770063
0.745687
0.728026
0.695323
0.679626
0.672995
0.692019
0.748458
0.856774
0.954734
0.994457
0.999783
1
1
1
1
1
1
0.999916
0.783562
0.574702
0.433325
0.400813
0.360358
0.365357
0.352865
0.347006
0.312191
0.319295
0.27981
0.335802
0.323695
0.414534
0.460544
0.610444
0.806101
0.954779
0.995111
0.999807
0.999998
1
1
1
1
1
1
1
1
1
0.999999
0.98723
0.79614
0.544294
0.360468
0.286925
0.207017
0.173605
0.187771
0.126789
0.106636
0.122082
0.093419
0.0976952
0.116728
0.15064
0.195343
0.293202
0.492186
0.76674
0.939201
0.994372
0.999783
0.999927
0.99989
0.999926
0.999989
1
1
0.999883
0.198041
0.0746678
0.0410607
0.0243793
0.0146663
0.0102578
0.00708967
0.00603673
0.0055554
0.00588184
0.00691394
0.012355
0.031108
0.0559575
0.137552
0.273366
0.526165
0.751345
0.934528
0.986596
0.996516
0.99585
0.982997
0.941484
0.925082
0.973469
0.999056
0.999998
1
0.999979
0.951396
0.761575
0.653397
0.624681
0.657642
0.729134
0.811293
0.841514
0.869101
0.842638
0.791232
0.67337
0.514657
0.377629
0.290847
0.339269
0.470751
0.600247
0.721285
0.836251
0.919151
0.961028
0.968475
0.950815
0.905741
0.844129
0.797655
0.794899
0.998289
1
0.999989
0.999989
0.99794
0.940615
0.883453
0.873421
0.822763
0.803552
0.842395
0.894608
0.930419
0.957164
0.967878
0.971438
0.962703
0.944986
0.931583
0.91834
0.934881
0.968431
0.994284
0.999882
1
1
1
1
1
1
1
1
1
1
1
1
1
1
1
1
1
1
1
1
1
1
1
1
1
1
1
1
1
1
1
1
1
0.999973
0.998491
0.994186
0.995039
0.998014
0.999554
0.999924
0.999985
0.999994
0.999991
0.99997
0.999858
0.99936
0.99743
0.992204
0.990352
0.995311
1
1
0.999999
1
1
1
1
1
1
0.999971
0.999114
0.992644
0.97735
0.947255
0.9209
0.891271
0.908315
0.922239
0.957157
0.966326
0.974327
0.967567
0.962514
0.949036
0.942248
0.934484
0.934
0.933047
0.940482
0.963708
0.999985
1
0.99449
0.997527
0.99914
0.999777
0.999921
0.999942
0.999871
0.999236
0.994334
0.968342
0.905967
0.845165
0.78344
0.651897
0.512677
0.438844
0.461961
0.563995
0.714594
0.808173
0.846205
0.760381
0.617944
0.459396
0.37385
0.323791
0.393729
0.60393
0.999775
0.999997
0.999991
0.999156
0.987876
0.945642
0.870815
0.810606
0.782648
0.800992
0.84088
0.880883
0.915524
0.935444
0.936817
0.930697
0.905946
0.880151
0.82505
0.753057
0.658768
0.575812
0.561109
0.677851
0.866074
0.977948
0.999718
1
1
0.999999
1
1
1
1
1
1
1
0.999995
0.999935
0.999403
0.995538
0.975721
0.914637
0.835826
0.807667
0.838692
0.904701
0.963056
0.989898
0.997764
0.99894
0.998631
0.996705
0.99012
0.974587
0.939918
0.910276
0.89726
0.943239
0.990159
1
1
0.999996
0.999999
0.999938
0.996591
0.958775
0.773928
0.436192
0.251291
0.198297
0.206002
0.285534
0.473403
0.696727
0.827436
0.886451
0.897364
0.835949
0.751055
0.589087
0.452021
0.296374
0.258313
0.245497
0.356105
0.505659
0.748789
0.942942
0.999723
0.999999
1
0.999909
0.995526
0.960048
0.872795
0.786542
0.771134
0.813569
0.857985
0.903437
0.94321
0.952616
0.94634
0.926589
0.885465
0.843978
0.794061
0.740778
0.7136
0.725905
0.800233
0.916772
0.985172
0.999227
0.999996
1
1
1
1
1
0.999547
0.678936
0.497919
0.399125
0.395316
0.40421
0.504485
0.542943
0.60983
0.639602
0.583798
0.525379
0.479369
0.434649
0.440014
0.459402
0.540414
0.732938
0.905899
0.986518
0.999169
0.999983
0.999999
1
0.999997
0.999995
0.999999
1
1
1
1
0.999817
0.924574
0.661356
0.397183
0.280061
0.225378
0.21369
0.268258
0.260935
0.29375
0.368131
0.292758
0.2636
0.180793
0.129786
0.11026
0.129295
0.190758
0.341561
0.626699
0.889623
0.987746
0.999217
0.999683
0.999489
0.999652
0.999967
1
1
0.994703
0.0813861
0.0356473
0.0250845
0.0180727
0.0184635
0.020889
0.0211318
0.0198232
0.0162176
0.0105295
0.00919133
0.00960461
0.0172276
0.0322402
0.0670212
0.150575
0.317889
0.584539
0.824122
0.965652
0.993399
0.995484
0.978746
0.916969
0.864619
0.924212
0.994112
0.999979
1
0.999916
0.866929
0.692526
0.632417
0.642486
0.739907
0.842892
0.923934
0.961604
0.973219
0.966403
0.921601
0.801045
0.620718
0.413142
0.281306
0.276965
0.397818
0.52816
0.666803
0.813802
0.936572
0.990856
0.998876
0.995579
0.958953
0.861252
0.763001
0.720504
0.998174
1
0.999969
0.999812
0.991914
0.947197
0.885951
0.832917
0.793937
0.81073
0.877594
0.934496
0.975815
0.990899
0.995741
0.993412
0.986672
0.957463
0.926069
0.890285
0.902462
0.9371
0.98651
0.999515
1
1
1
1
1
1
1
1
1
1
1
1
1
1
1
1
1
1
1
1
1
1
1
1
1
1
1
1
1
1
1
1
0.999999
0.999855
0.996194
0.992183
0.99598
0.999119
0.999918
0.999997
1
1
1
1
0.999992
0.999841
0.99845
0.991419
0.983325
0.988104
0.999999
1
0.999999
1
1
1
1
1
1
0.99996
0.998522
0.988275
0.96957
0.931534
0.900776
0.875604
0.910838
0.949892
0.98644
0.996329
0.998628
0.997701
0.993428
0.984131
0.970889
0.954604
0.94066
0.926422
0.918456
0.931944
0.999977
1
0.989039
0.995784
0.999003
0.999895
0.999992
0.999998
0.999993
0.999828
0.996405
0.970469
0.889954
0.79077
0.73965
0.620103
0.462316
0.396424
0.462801
0.609287
0.852121
0.974286
0.992121
0.949128
0.792752
0.564297
0.379781
0.311841
0.338161
0.519299
0.999891
0.999991
0.999979
0.998403
0.982523
0.929169
0.841588
0.770818
0.758413
0.78816
0.863899
0.923798
0.976882
0.993198
0.998049
0.997307
0.991595
0.968997
0.925467
0.839033
0.720086
0.601847
0.54355
0.621331
0.811242
0.953921
0.997993
0.999999
1
0.999998
1
1
1
1
1
1
1
0.999997
0.999963
0.999656
0.997786
0.983058
0.917673
0.831549
0.794802
0.823896
0.906148
0.976475
0.997459
0.999929
0.999997
0.999994
0.999875
0.998646
0.990345
0.964015
0.915222
0.897411
0.913962
0.973985
0.999999
1
0.999979
0.999998
0.999926
0.997507
0.964679
0.790845
0.43002
0.217327
0.160416
0.16706
0.268038
0.515127
0.815496
0.962332
0.994686
0.994188
0.980062
0.932004
0.78858
0.63979
0.400268
0.33128
0.269879
0.331751
0.469641
0.672035
0.912044
0.998439
0.999999
1
0.999852
0.993368
0.943599
0.823465
0.740027
0.745698
0.796537
0.879675
0.954036
0.988811
0.99668
0.998611
0.994405
0.976315
0.93063
0.880176
0.79682
0.74929
0.723515
0.782629
0.890078
0.977552
0.9988
0.999995
1
1
1
1
1
0.998242
0.621775
0.449178
0.381052
0.40786
0.454253
0.619566
0.741162
0.892115
0.938588
0.916314
0.82415
0.712701
0.552165
0.484136
0.463665
0.53283
0.672154
0.863932
0.976002
0.998367
0.999969
0.999999
0.999999
0.999987
0.999969
0.999998
1
1
1
1
0.995249
0.829759
0.508651
0.312145
0.198865
0.186171
0.210407
0.285356
0.468131
0.676404
0.758557
0.693192
0.455229
0.290563
0.205386
0.132265
0.107842
0.139771
0.247158
0.523272
0.840606
0.98109
0.998983
0.999577
0.998221
0.998161
0.999782
0.999998
1
0.939333
0.04198
0.0190236
0.016787
0.017637
0.0269297
0.0568843
0.0750919
0.0912737
0.0657177
0.0361944
0.021245
0.0127206
0.0158481
0.0182831
0.0421727
0.0837884
0.187449
0.421091
0.697714
0.919698
0.987347
0.995532
0.982301
0.911643
0.826268
0.855011
0.968909
0.999434
0.999995
0.999802
0.781286
0.64924
0.622927
0.668543
0.806914
0.90472
0.978368
0.995984
0.999201
0.998002
0.979802
0.900232
0.706554
0.497616
0.307009
0.264743
0.386588
0.517279
0.650978
0.790737
0.918708
0.986538
0.998907
0.996641
0.959741
0.851981
0.736089
0.682358
0.998477
1
0.999993
0.999475
0.99471
0.960328
0.881069
0.815154
0.781903
0.829366
0.907371
0.972848
0.996063
0.999717
0.99993
0.999577
0.995175
0.97034
0.926355
0.866068
0.872766
0.910986
0.976594
0.998919
0.999999
1
1
1
1
1
1
1
1
1
1
1
1
1
1
1
1
1
1
1
1
1
1
1
1
1
1
1
1
1
1
1
0.999995
0.999689
0.994187
0.992422
0.997033
0.999564
0.999979
1
1
1
1
1
1
0.999942
0.998735
0.989486
0.97463
0.978365
1
1
0.999998
0.999999
1
1
1
1
1
0.999974
0.998485
0.987465
0.968076
0.92814
0.887629
0.869844
0.916963
0.966562
0.99649
0.999881
0.999998
0.99999
0.999558
0.99638
0.984884
0.968548
0.943754
0.921262
0.894416
0.897458
0.99998
1
0.985026
0.992948
0.998434
0.999855
0.999996
1
0.999999
0.999949
0.997722
0.973342
0.897771
0.798212
0.735451
0.630619
0.458168
0.398555
0.466652
0.632474
0.890174
0.995904
0.999749
0.987451
0.875265
0.590044
0.399798
0.291321
0.31437
0.479319
0.999986
0.999987
0.999951
0.997598
0.977589
0.919633
0.822179
0.744364
0.728023
0.766689
0.860691
0.940039
0.991094
0.999543
0.999995
0.999999
0.999852
0.996443
0.967596
0.89738
0.760441
0.615271
0.538619
0.589168
0.772019
0.934515
0.994601
0.999989
1
0.999997
1
1
0.999999
0.999999
1
1
1
0.999998
0.99998
0.999854
0.998752
0.989799
0.941115
0.823869
0.777048
0.82221
0.904453
0.976602
0.998532
0.999987
1
1
0.999995
0.999672
0.99529
0.970928
0.925513
0.885117
0.90749
0.960312
0.999999
0.999999
0.999863
0.999996
0.999962
0.99863
0.97751
0.839878
0.478512
0.218121
0.145416
0.140216
0.230235
0.477845
0.818247
0.981207
0.9998
0.999943
0.998838
0.981108
0.900903
0.734012
0.497703
0.388081
0.302395
0.354839
0.434442
0.654305
0.891257
0.996314
0.999998
1
0.999841
0.993649
0.935544
0.801227
0.711382
0.704631
0.78232
0.880194
0.966734
0.994976
0.999933
1
0.999978
0.997396
0.974288
0.923217
0.83948
0.769541
0.734845
0.768154
0.879602
0.975667
0.999103
0.999999
1
1
0.999997
0.999997
1
0.994794
0.608174
0.434376
0.366086
0.393432
0.472662
0.656114
0.832023
0.96818
0.998176
0.999223
0.977077
0.858078
0.662265
0.526564
0.504838
0.511229
0.647691
0.841633
0.966871
0.997923
0.99997
1
0.999996
0.999851
0.999428
0.999696
0.999978
1
1
0.999998
0.959227
0.693482
0.382203
0.232674
0.131103
0.150695
0.16459
0.283134
0.403087
0.729764
0.913381
0.936901
0.723111
0.344697
0.188355
0.103825
0.089741
0.112217
0.198929
0.461808
0.812394
0.979554
0.998709
0.995729
0.964164
0.936058
0.963816
0.99369
0.999989
0.730822
0.0277666
0.0138696
0.0139642
0.0187543
0.0439538
0.0951522
0.191466
0.347786
0.381627
0.167899
0.0768472
0.0211988
0.0171402
0.0149895
0.0277664
0.0543336
0.127194
0.298215
0.589071
0.853467
0.977263
0.995276
0.989056
0.928373
0.82675
0.799637
0.913297
0.992253
0.999859
0.999691
0.708135
0.617102
0.625918
0.684466
0.846008
0.934363
0.992138
0.999728
0.999998
0.999984
0.996598
0.94173
0.791645
0.5741
0.388532
0.305239
0.432191
0.565618
0.6743
0.769459
0.860266
0.928958
0.960958
0.957719
0.913208
0.826229
0.730107
0.691493
0.998854
1
0.999999
0.999752
0.997074
0.970312
0.884942
0.805807
0.788392
0.841892
0.930016
0.986692
0.999405
0.999998
1
0.999966
0.997778
0.97118
0.920264
0.850223
0.84824
0.892857
0.968506
0.998383
0.999998
1
1
1
1
1
1
1
1
1
1
1
1
1
1
1
1
1
1
1
1
1
1
0.999998
0.999998
1
1
1
1
1
1
1
1
1
0.999989
0.999685
0.99414
0.993663
0.997731
0.999669
0.999986
1
1
1
1
1
1
0.999948
0.998436
0.985785
0.96722
0.972415
0.998619
1
1
0.999999
0.999997
0.999999
1
1
1
1
1
0.99999
0.999015
0.990213
0.974926
0.936366
0.89642
0.868775
0.923061
0.96968
0.997407
0.99997
1
1
0.999948
0.998659
0.990502
0.973615
0.946548
0.913374
0.876391
0.871172
0.982473
0.999999
0.999999
0.998312
0.984015
0.99042
0.997029
0.999466
0.999957
0.999997
0.999996
0.999911
0.997883
0.977775
0.914401
0.8311
0.784388
0.695471
0.503546
0.441807
0.477285
0.638453
0.845456
0.983306
0.997335
0.979995
0.847657
0.587809
0.389748
0.298076
0.321932
0.497898
0.985682
0.999999
0.999996
0.999911
0.99978
0.996126
0.973875
0.916471
0.823197
0.733709
0.710911
0.740456
0.83976
0.921747
0.986706
0.999015
0.999992
1
0.999977
0.998455
0.97607
0.910576
0.76328
0.610723
0.53107
0.587334
0.761987
0.924049
0.991937
0.999952
0.999999
0.999991
0.999978
1
1
0.999993
0.999991
0.999993
0.999998
0.999999
0.999999
0.999999
0.999992
0.999933
0.999449
0.995516
0.96858
0.873616
0.81094
0.839863
0.913063
0.973269
0.997145
0.999932
0.999999
1
0.999994
0.999742
0.99503
0.974439
0.923561
0.89159
0.886596
0.939395
0.998127
0.999999
0.999984
0.996543
0.999668
0.999994
0.999979
0.999402
0.987188
0.900267
0.596902
0.2713
0.153447
0.134985
0.178046
0.382015
0.681756
0.926295
0.993438
0.998978
0.997463
0.983004
0.911047
0.764863
0.54807
0.421911
0.37142
0.352356
0.466309
0.650613
0.900792
0.983939
0.995567
0.999993
0.999998
0.999998
0.999847
0.994099
0.941458
0.806672
0.697223
0.694169
0.756908
0.867244
0.944701
0.989129
0.999436
0.999997
0.999985
0.998518
0.980649
0.934339
0.84675
0.778587
0.739413
0.776649
0.883323
0.978407
0.999392
0.999996
0.999956
0.998036
0.988794
0.979928
0.987264
0.999892
0.999429
0.852278
0.596226
0.428259
0.34641
0.375216
0.439618
0.601723
0.769863
0.925767
0.99162
0.998812
0.979394
0.882952
0.676267
0.573352
0.499201
0.513171
0.650602
0.833136
0.961541
0.997652
0.999975
0.999999
0.999982
0.998624
0.987242
0.967968
0.954053
0.953229
0.978337
0.999706
0.99828
0.906287
0.791979
0.525636
0.275309
0.159147
0.0896023
0.0990261
0.0851437
0.187162
0.197881
0.491825
0.637268
0.720385
0.529966
0.269355
0.144691
0.0772726
0.0697127
0.0907211
0.1798
0.442085
0.792071
0.970493
0.992973
0.961043
0.79895
0.634385
0.568012
0.594212
0.760222
0.993824
0.985533
0.112885
0.0353673
0.0148913
0.0100499
0.0180821
0.0302436
0.0828173
0.189416
0.46709
0.649857
0.425453
0.164858
0.0340298
0.0179904
0.0130653
0.024524
0.0397356
0.0932908
0.236343
0.482536
0.793343
0.962663
0.995559
0.994002
0.961274
0.862749
0.786669
0.851965
0.971562
0.998422
0.999974
0.999912
0.922513
0.6641
0.6128
0.628523
0.706816
0.85
0.944638
0.992548
0.999808
0.999997
0.999987
0.997176
0.960349
0.826968
0.657356
0.461598
0.416808
0.531448
0.669523
0.744341
0.77734
0.792912
0.816922
0.841775
0.858724
0.846487
0.813403
0.773075
0.763402
0.939841
0.999972
0.999999
0.999992
0.999999
0.999962
0.997387
0.976995
0.896108
0.808263
0.793716
0.85143
0.935774
0.989565
0.999691
1
1
0.999919
0.996447
0.964746
0.911394
0.834658
0.841175
0.886291
0.967054
0.998429
0.999998
1
1
1
1
1
1
1
1
1
1
1
1
1
1
1
1
1
1
1
1
1
1
1
1
1
0.999994
0.999999
1
1
1
1
1
1
1
1
0.99999
0.999841
0.995947
0.995375
0.99804
0.999632
0.999972
0.999999
1
1
1
1
0.999999
0.999871
0.997412
0.98229
0.967366
0.976193
0.995267
1
1
0.999999
0.999997
0.999998
1
1
1
1
1
0.999997
0.999623
0.995011
0.985032
0.955826
0.912491
0.881917
0.914791
0.960993
0.992653
0.999448
0.999981
0.99999
0.999836
0.998386
0.991225
0.974594
0.948383
0.910661
0.867193
0.868073
0.968523
1
1
0.997835
0.989891
0.990728
0.994877
0.997803
0.999108
0.999674
0.999749
0.999244
0.995599
0.98018
0.939036
0.887093
0.859145
0.787518
0.619097
0.509528
0.524936
0.607016
0.750457
0.888871
0.935676
0.902423
0.771896
0.568812
0.405925
0.330592
0.362604
0.545191
0.941358
0.999999
0.999998
0.999985
0.99989
0.997319
0.978476
0.932862
0.849941
0.754549
0.705841
0.720195
0.791809
0.869594
0.954156
0.987186
0.998225
0.999439
0.998841
0.992387
0.955675
0.882778
0.726417
0.597965
0.542152
0.6146
0.782323
0.930312
0.992958
0.999924
0.999996
0.99999
0.999982
0.999998
0.999998
0.999993
0.999976
0.99996
0.999974
0.999991
0.999997
0.999998
0.999994
0.99996
0.999766
0.998173
0.986798
0.916347
0.847266
0.848315
0.909436
0.966409
0.992062
0.999121
0.99992
0.999961
0.999889
0.998971
0.993132
0.970766
0.93175
0.898186
0.903245
0.950464
0.995147
0.999978
0.999846
0.994735
0.999879
0.999998
0.999996
0.999833
0.994906
0.953013
0.762658
0.38983
0.200305
0.142833
0.153291
0.253932
0.469792
0.723736
0.875564
0.946373
0.952968
0.929141
0.830008
0.710424
0.563445
0.457629
0.3897
0.414628
0.488514
0.724118
0.906075
0.974054
0.983975
0.999936
0.999999
1
0.999952
0.99744
0.965955
0.845164
0.718032
0.695746
0.745326
0.820272
0.896435
0.953163
0.984021
0.993247
0.993962
0.985355
0.952527
0.901038
0.820429
0.769026
0.740443
0.786332
0.891099
0.977753
0.998823
0.999953
0.999899
0.999196
0.997636
0.995886
0.995901
0.995805
0.984372
0.834488
0.595014
0.418131
0.331538
0.336388
0.379602
0.488518
0.58653
0.752168
0.864805
0.899981
0.841086
0.77799
0.609611
0.56205
0.499483
0.534343
0.668795
0.835644
0.960317
0.997433
0.999972
0.999999
0.999993
0.999191
0.986104
0.944144
0.892377
0.853308
0.840226
0.849473
0.884816
0.897271
0.758022
0.473999
0.233805
0.127743
0.0590604
0.0641753
0.0390412
0.0827754
0.0617316
0.158562
0.157196
0.192109
0.144403
0.112277
0.0689028
0.0514564
0.0578379
0.0821699
0.185733
0.434733
0.780884
0.968499
0.996395
0.996233
0.975684
0.894915
0.806339
0.772475
0.757127
0.714362
0.568341
0.0978058
0.0326903
0.0123975
0.00746501
0.011446
0.0169343
0.0375094
0.0650712
0.153159
0.264934
0.193242
0.125939
0.034629
0.0163913
0.0176367
0.0210312
0.0427196
0.0781963
0.206426
0.442966
0.7283
0.947833
0.995924
0.997969
0.984065
0.926729
0.838047
0.837577
0.947629
0.996082
0.999776
0.998772
0.864349
0.677232
0.634947
0.658226
0.713973
0.849523
0.938242
0.982821
0.998187
0.99953
0.998732
0.990173
0.945247
0.846986
0.68808
0.546566
0.557201
0.67345
0.806068
0.840691
0.83468
0.797218
0.751681
0.754135
0.784315
0.820874
0.850663
0.872141
0.894204
0.950178
0.998804
0.999926
0.999987
0.999997
0.999965
0.996235
0.972967
0.906744
0.820906
0.800267
0.857564
0.926927
0.981143
0.998301
0.999886
0.999879
0.99806
0.987272
0.94407
0.890454
0.823156
0.843976
0.895377
0.973841
0.999006
0.999999
1
1
1
1
1
1
1
1
1
1
1
1
1
1
1
1
1
1
1
1
1
1
1
1
1
0.999994
0.999997
1
1
1
1
1
1
1
1
0.999996
0.999961
0.998225
0.996997
0.99817
0.999387
0.999875
0.999984
0.999999
1
1
0.999999
0.999974
0.999503
0.995359
0.983399
0.975698
0.98487
0.997394
1
1
1
0.999998
0.999997
0.999999
1
1
1
1
0.999999
0.99991
0.99846
0.994054
0.976505
0.937893
0.896019
0.903498
0.937099
0.973869
0.990929
0.99739
0.99847
0.997763
0.995045
0.986858
0.974141
0.947213
0.908622
0.874379
0.887782
0.979276
1
1
0.999628
0.997276
0.995069
0.993837
0.993269
0.993061
0.992643
0.993505
0.991862
0.988294
0.978062
0.96048
0.943168
0.933527
0.895697
0.736895
0.597716
0.557611
0.599662
0.699791
0.76961
0.821415
0.787827
0.675088
0.531481
0.425243
0.390436
0.445464
0.640584
0.949277
1
1
0.999999
0.999981
0.999096
0.989853
0.959824
0.900043
0.803171
0.725008
0.704124
0.733262
0.782262
0.857477
0.910997
0.950015
0.970504
0.966196
0.944492
0.8797
0.800977