/*--------------------------------*- C++ -*----------------------------------*\
| =========                 |                                                 |
| \\      /  F ield         | OpenFOAM: The Open Source CFD Toolbox           |
|  \\    /   O peration     | Version:  2.1.1                                 |
|   \\  /    A nd           | Web:      www.OpenFOAM.org                      |
|    \\/     M anipulation  |                                                 |
\*---------------------------------------------------------------------------*/
FoamFile
{
    version     2.0;
    format      ascii;
    class       volScalarField;
    location    "0.006750000";
    object      H;
}
// * * * * * * * * * * * * * * * * * * * * * * * * * * * * * * * * * * * * * //

dimensions      [0 0 0 0 0 0 0];

internalField   nonuniform List<scalar> 
12384
(
0.000140761
0.00013056
0.000126074
0.000125691
0.000126514
0.000129067
0.00012927
0.000138117
0.000148509
0.00015777
0.000165819
0.000169858
0.000174635
0.000219939
1.63937e-05
2.40188e-05
2.55458e-05
2.501e-05
2.34261e-05
2.26144e-05
2.2501e-05
2.32176e-05
2.42017e-05
2.56207e-05
2.43807e-05
2.63447e-05
2.79357e-05
2.98839e-05
3.20074e-05
3.39627e-05
3.32109e-05
3.55714e-05
3.75136e-05
3.92817e-05
4.06545e-05
4.14904e-05
4.14419e-05
4.12469e-05
3.95076e-05
3.54903e-05
3.39986e-05
2.77733e-05
1.75399e-05
9.05076e-06
4.89629e-05
6.60715e-05
6.7387e-05
6.77475e-05
6.81527e-05
6.9732e-05
7.24095e-05
7.50397e-05
7.86061e-05
8.1098e-05
8.40403e-05
8.42955e-05
8.58986e-05
8.46872e-05
8.51557e-05
8.32931e-05
8.3067e-05
8.14333e-05
8.16115e-05
8.17185e-05
8.13745e-05
8.36846e-05
8.32612e-05
8.51323e-05
8.50806e-05
8.46579e-05
8.15083e-05
7.23369e-05
6.14887e-05
6.04107e-05
6.90706e-05
7.22055e-05
7.389e-05
7.50112e-05
7.63936e-05
7.8108e-05
8.03065e-05
8.24909e-05
8.43507e-05
8.60275e-05
8.76774e-05
8.86602e-05
8.91493e-05
8.9229e-05
8.86477e-05
8.72137e-05
8.51462e-05
8.2474e-05
7.94511e-05
7.67254e-05
7.51527e-05
7.34213e-05
7.27698e-05
7.32415e-05
7.42817e-05
7.4692e-05
7.35275e-05
7.03152e-05
6.81649e-05
6.85777e-05
0.000105377
0.000106477
0.000105276
0.000103859
0.000102351
0.000102091
0.000100831
9.92144e-05
9.83347e-05
9.70129e-05
0.000100148
9.85567e-05
9.84276e-05
9.62606e-05
9.61321e-05
9.66817e-05
9.65058e-05
9.725e-05
9.8661e-05
9.9332e-05
0.000102307
9.60886e-05
7.69642e-05
7.7964e-05
7.92032e-05
8.14107e-05
8.22149e-05
8.34157e-05
8.06597e-05
7.63535e-05
8.40407e-05
8.49075e-05
8.63644e-05
8.58941e-05
8.51109e-05
8.42021e-05
8.67001e-05
8.67408e-05
8.97984e-05
9.09857e-05
9.18408e-05
9.35325e-05
9.50037e-05
9.62006e-05
9.7135e-05
9.76787e-05
9.77498e-05
9.72145e-05
9.7891e-05
9.90285e-05
9.76181e-05
0.000101809
0.000100724
0.000103366
0.00010511
0.00010542
0.00010394
0.000108089
0.000113597
0.000111439
5.24732e-05
4.95816e-05
5.53087e-05
5.84857e-05
6.26301e-05
6.67072e-05
6.87815e-05
6.92535e-05
6.90391e-05
6.86128e-05
6.81202e-05
6.74156e-05
6.66734e-05
6.64565e-05
6.57873e-05
6.58643e-05
6.54093e-05
6.58294e-05
6.57082e-05
6.70397e-05
6.69671e-05
6.83246e-05
6.6138e-05
6.32823e-05
3.41855e-05
1.39678e-05
1.27023e-05
1.3742e-05
1.45082e-05
1.44226e-05
7.95648e-05
9.56216e-05
9.95575e-05
0.000103227
0.000105652
0.000106743
0.000106991
0.000106227
0.00010462
0.000104697
0.000101626
0.00010111
9.88033e-05
9.98785e-05
0.000100796
0.000101088
0.000102995
0.00010447
0.000105438
0.000105785
0.000101558
9.72037e-05
9.61968e-05
9.68366e-05
9.79369e-05
9.59845e-05
9.63317e-05
9.67798e-05
9.57088e-05
9.90856e-05
8.39479e-05
8.7786e-05
8.84022e-05
8.77659e-05
8.66164e-05
8.5847e-05
8.45121e-05
8.17667e-05
8.29641e-05
8.09383e-05
8.42016e-05
8.23357e-05
8.89046e-05
8.89427e-05
9.36492e-05
9.56134e-05
9.83859e-05
9.53141e-05
8.58433e-05
8.51208e-05
8.84172e-05
8.99026e-05
9.23504e-05
9.22672e-05
9.35384e-05
9.37924e-05
9.24057e-05
8.92352e-05
8.40672e-05
7.997e-05
9.35423e-05
9.83403e-05
9.97474e-05
9.97041e-05
0.000100162
9.88681e-05
9.64421e-05
8.97606e-05
8.82002e-05
8.33832e-05
8.28863e-05
7.98026e-05
7.98285e-05
7.94991e-05
8.00869e-05
8.05902e-05
8.11273e-05
8.21286e-05
8.45693e-05
8.14419e-05
7.85151e-05
7.90963e-05
7.92555e-05
8.01638e-05
8.05774e-05
8.15459e-05
8.19797e-05
8.20987e-05
8.16328e-05
8.07895e-05
6.45015e-05
6.61257e-05
6.73718e-05
6.76827e-05
6.69776e-05
6.54667e-05
6.43675e-05
6.40729e-05
6.44394e-05
6.45863e-05
6.61001e-05
6.69978e-05
6.82471e-05
6.93688e-05
6.93314e-05
7.02958e-05
6.75228e-05
6.34917e-05
6.16815e-05
6.31844e-05
6.30612e-05
6.58241e-05
6.58585e-05
6.70026e-05
6.67493e-05
6.70789e-05
6.73712e-05
6.7031e-05
6.60018e-05
6.45657e-05
5.59564e-05
5.67774e-05
5.71599e-05
5.64446e-05
5.75545e-05
6.12145e-05
6.04922e-05
6.11725e-05
5.91376e-05
5.99737e-05
5.91966e-05
5.93013e-05
5.86961e-05
5.86318e-05
5.85207e-05
5.80866e-05
5.77561e-05
5.73786e-05
5.69383e-05
5.63761e-05
5.59641e-05
5.57193e-05
5.55676e-05
5.49662e-05
5.58769e-05
5.62478e-05
5.66134e-05
5.69129e-05
5.6917e-05
5.63962e-05
5.11872e-05
5.0942e-05
5.0642e-05
5.04766e-05
5.18687e-05
5.74223e-05
2.57911e-05
5.72181e-05
5.17074e-05
5.28065e-05
5.33639e-05
5.32389e-05
5.36301e-05
5.24563e-05
5.34769e-05
5.34255e-05
5.5235e-05
5.50924e-05
5.64709e-05
5.67491e-05
5.75299e-05
5.55347e-05
5.88766e-05
6.17171e-05
6.23939e-05
6.1877e-05
6.06334e-05
5.41312e-05
4.37531e-05
4.78125e-05
9.14513e-05
9.13338e-05
8.647e-05
7.92698e-05
7.61788e-05
7.7832e-05
8.005e-05
8.97539e-05
0.000105763
0.000125643
0.000154786
0.000175929
0.000180124
0.000215026
1.67285e-05
2.55824e-05
2.58334e-05
2.31273e-05
2.14546e-05
2.19246e-05
2.37111e-05
2.52673e-05
2.33673e-05
2.24517e-05
2.22386e-05
2.46146e-05
2.8658e-05
3.32676e-05
3.68686e-05
3.65503e-05
3.88831e-05
3.99764e-05
4.12518e-05
4.29821e-05
4.56162e-05
4.89315e-05
5.15775e-05
5.07039e-05
4.94316e-05
4.94344e-05
4.08862e-05
3.47668e-05
2.41241e-05
1.3557e-05
5.05923e-05
6.64863e-05
6.50161e-05
6.41118e-05
6.49031e-05
6.93118e-05
7.63295e-05
8.14862e-05
8.52758e-05
8.76121e-05
8.98858e-05
8.90782e-05
8.73452e-05
8.26583e-05
7.86051e-05
7.30307e-05
7.05177e-05
6.70962e-05
6.71179e-05
6.72446e-05
6.8861e-05
7.35876e-05
7.62734e-05
8.18146e-05
8.51231e-05
8.61681e-05
8.41122e-05
7.87543e-05
6.68603e-05
6.02539e-05
6.96456e-05
7.32466e-05
7.52189e-05
7.79425e-05
8.14689e-05
8.52758e-05
8.81755e-05
8.97821e-05
9.0867e-05
9.159e-05
9.22999e-05
9.35559e-05
9.40705e-05
9.31321e-05
9.01622e-05
8.54947e-05
7.97704e-05
7.37207e-05
6.89665e-05
6.43589e-05
6.27181e-05
6.117e-05
6.13781e-05
6.33474e-05
6.6458e-05
7.03064e-05
7.16706e-05
7.09585e-05
6.97574e-05
6.94497e-05
0.000103422
0.000106129
0.000104901
0.000101177
9.87024e-05
9.72783e-05
9.63778e-05
9.67578e-05
9.55199e-05
9.4119e-05
9.31962e-05
9.2589e-05
9.49223e-05
9.47048e-05
9.36712e-05
9.31289e-05
9.42123e-05
9.37897e-05
9.39665e-05
9.46193e-05
9.77686e-05
9.85137e-05
8.82574e-05
7.93011e-05
8.38816e-05
8.44732e-05
8.49469e-05
8.72055e-05
8.74358e-05
8.5997e-05
8.42527e-05
8.47575e-05
8.56754e-05
8.38261e-05
8.35719e-05
8.47637e-05
8.79819e-05
8.91301e-05
9.13883e-05
9.07817e-05
9.19291e-05
9.19119e-05
9.35074e-05
9.52826e-05
9.69139e-05
9.81505e-05
9.85681e-05
9.97716e-05
0.000100352
0.000101311
0.00010223
0.00010355
0.000105005
0.000107932
0.00010779
0.000107323
0.000105288
0.000106338
0.000109059
0.000111487
5.33105e-05
5.59635e-05
6.12534e-05
6.7679e-05
7.35931e-05
7.51908e-05
7.16911e-05
6.8172e-05
6.55703e-05
6.43442e-05
6.53267e-05
6.39115e-05
6.33105e-05
6.33039e-05
6.41099e-05
6.45846e-05
6.57843e-05
6.2671e-05
6.40933e-05
6.48272e-05
6.62271e-05
6.74289e-05
6.67764e-05
6.55278e-05
5.75029e-05
3.04948e-05
1.41155e-05
1.64965e-05
2.23319e-05
2.12849e-05
9.62269e-05
0.000102944
0.000106586
0.000106681
0.000106971
0.0001071
0.000107147
0.000106371
0.000105502
0.000102622
0.000101787
0.000100861
0.000100537
9.86155e-05
9.92367e-05
0.000100267
0.000101185
0.000101333
0.000102838
0.000104722
0.000104392
0.000102025
9.59064e-05
9.65119e-05
9.46867e-05
9.49972e-05
9.62776e-05
9.68008e-05
9.63044e-05
9.80497e-05
8.6865e-05
8.70476e-05
8.61145e-05
8.4697e-05
8.33557e-05
8.1021e-05
7.91782e-05
7.85643e-05
7.68714e-05
7.60755e-05
7.81839e-05
7.87667e-05
8.22003e-05
8.48847e-05
8.94613e-05
9.23892e-05
9.6366e-05
0.000102397
9.24841e-05
8.73149e-05
9.16199e-05
9.36548e-05
9.33101e-05
9.59463e-05
9.94345e-05
0.000102797
0.000105695
0.000103704
9.53302e-05
8.85539e-05
9.02579e-05
9.57823e-05
9.98792e-05
9.93912e-05
9.57808e-05
9.01802e-05
8.44757e-05
7.96323e-05
7.56569e-05
7.42791e-05
7.07245e-05
7.06635e-05
7.02641e-05
7.14187e-05
7.29091e-05
7.48941e-05
7.65282e-05
7.91039e-05
8.19304e-05
8.36477e-05
7.9194e-05
7.88748e-05
7.94949e-05
7.93158e-05
7.95123e-05
7.99881e-05
8.12036e-05
8.29094e-05
8.41132e-05
8.33225e-05
6.44835e-05
6.81763e-05
6.97789e-05
6.90295e-05
6.81829e-05
6.59404e-05
6.51846e-05
6.35436e-05
6.31831e-05
6.36292e-05
6.46547e-05
6.53597e-05
6.72461e-05
6.85398e-05
6.91768e-05
7.06387e-05
6.94379e-05
6.44156e-05
6.24236e-05
6.31023e-05
6.38084e-05
6.50492e-05
6.50706e-05
6.55028e-05
6.47756e-05
6.45934e-05
6.56725e-05
6.61351e-05
6.71115e-05
6.48371e-05
5.48262e-05
5.60738e-05
5.65005e-05
5.55345e-05
6.06262e-05
6.37659e-05
6.40918e-05
6.5133e-05
6.4402e-05
6.37838e-05
6.24431e-05
6.11423e-05
5.9708e-05
5.86344e-05
5.74805e-05
5.66157e-05
5.5672e-05
5.50222e-05
5.56307e-05
5.5767e-05
5.5861e-05
5.58174e-05
5.56693e-05
5.49993e-05
5.5642e-05
5.57571e-05
5.6138e-05
5.66219e-05
5.68608e-05
5.64315e-05
5.29894e-05
5.28757e-05
5.16988e-05
4.93687e-05
5.21287e-05
5.57369e-05
4.96983e-05
5.41002e-05
5.26369e-05
5.34322e-05
5.29952e-05
5.42463e-05
5.275e-05
5.41369e-05
5.40032e-05
5.45172e-05
5.43715e-05
5.45854e-05
5.43669e-05
5.40271e-05
5.39856e-05
5.40041e-05
5.62671e-05
6.00786e-05
6.36272e-05
6.31712e-05
5.85491e-05
4.91457e-05
4.43483e-05
4.86882e-05
8.21651e-05
7.31294e-05
5.31615e-05
4.91963e-05
5.41802e-05
6.50576e-05
7.36617e-05
7.31145e-05
7.59539e-05
8.82611e-05
0.00011392
0.000159378
0.00017766
0.000213553
1.69038e-05
2.65252e-05
2.5146e-05
2.14191e-05
2.039e-05
2.18664e-05
2.20283e-05
2.0619e-05
1.80814e-05
1.84536e-05
2.45561e-05
3.2604e-05
4.15601e-05
4.4746e-05
4.14942e-05
3.82643e-05
3.85408e-05
3.61724e-05
3.50535e-05
3.51108e-05
3.63183e-05
3.88366e-05
4.02799e-05
4.73793e-05
5.29965e-05
5.22788e-05
5.13356e-05
4.03665e-05
2.74544e-05
1.55757e-05
5.12509e-05
6.58769e-05
6.57623e-05
6.26611e-05
6.65822e-05
7.41035e-05
8.57296e-05
9.04347e-05
9.11805e-05
8.95464e-05
8.95603e-05
8.58463e-05
7.99533e-05
7.09289e-05
6.41814e-05
5.96655e-05
5.61402e-05
5.2462e-05
5.2074e-05
5.15284e-05
5.26698e-05
5.75876e-05
6.34807e-05
6.89864e-05
7.68117e-05
8.39737e-05
8.6022e-05
8.26214e-05
7.40916e-05
6.36948e-05
6.99798e-05
7.39219e-05
7.73284e-05
8.14977e-05
8.52166e-05
8.73355e-05
8.68302e-05
8.48065e-05
8.32043e-05
8.35751e-05
8.50199e-05
8.73513e-05
9.05883e-05
9.21299e-05
8.79251e-05
8.02417e-05
7.20045e-05
6.422e-05
5.87239e-05
5.43561e-05
5.28016e-05
5.04586e-05
5.10393e-05
5.27233e-05
5.76269e-05
6.28704e-05
6.81741e-05
6.96472e-05
7.01943e-05
6.9953e-05
0.000102016
0.000104727
0.000101341
9.78583e-05
9.67961e-05
9.73737e-05
9.71786e-05
9.65779e-05
9.6177e-05
9.60901e-05
9.5667e-05
9.83875e-05
9.71213e-05
9.55758e-05
9.44294e-05
9.40993e-05
9.3627e-05
9.34775e-05
9.26405e-05
9.20944e-05
9.31191e-05
9.6271e-05
9.43643e-05
8.51964e-05
8.22601e-05
8.65128e-05
8.37809e-05
8.75161e-05
9.01642e-05
9.18165e-05
8.52226e-05
8.55625e-05
8.52119e-05
8.3152e-05
8.41412e-05
8.61524e-05
8.89618e-05
8.77089e-05
8.77159e-05
8.76994e-05
8.85297e-05
9.05179e-05
9.14652e-05
9.43219e-05
9.70393e-05
9.92099e-05
0.000102057
0.000104327
0.000105403
0.000108455
0.000107898
0.000110821
0.000109714
0.000110776
0.000110622
0.000108629
0.000106809
0.000104725
0.000107322
0.000110286
5.48292e-05
5.94964e-05
6.6931e-05
7.37474e-05
7.52423e-05
7.21644e-05
6.69066e-05
6.35563e-05
6.26513e-05
6.02735e-05
5.97537e-05
6.04665e-05
6.2205e-05
6.44324e-05
6.64922e-05
6.45965e-05
6.51577e-05
6.51507e-05
6.5165e-05
6.5154e-05
6.49899e-05
6.60151e-05
6.67636e-05
6.65346e-05
6.44486e-05
5.153e-05
2.18226e-05
1.66254e-05
2.64995e-05
2.87572e-05
0.000103639
0.000106645
0.000107463
0.000107314
0.000106488
0.000106816
0.00010635
0.000106466
0.000103479
0.000103455
0.000101453
0.000101935
9.90754e-05
0.000100548
0.000100117
9.9778e-05
0.000100247
0.000100412
0.000101138
0.000101736
0.000103333
0.00010149
9.8465e-05
9.41072e-05
9.41064e-05
9.49328e-05
9.6084e-05
9.64323e-05
9.70764e-05
9.80732e-05
8.6664e-05
8.63353e-05
8.48771e-05
8.26153e-05
8.03745e-05
7.79724e-05
7.94451e-05
7.53172e-05
7.30023e-05
7.13065e-05
7.32658e-05
7.35076e-05
8.04534e-05
7.98408e-05
8.53268e-05
8.82178e-05
9.35111e-05
9.88878e-05
9.73197e-05
8.98414e-05
9.24275e-05
9.20863e-05
9.22726e-05
9.43793e-05
9.9722e-05
0.000104542
0.000108649
0.000112331
0.000107419
9.47279e-05
8.69827e-05
9.91486e-05
0.000100075
9.32213e-05
8.63161e-05
8.0315e-05
7.52301e-05
7.14649e-05
7.248e-05
6.63502e-05
6.53335e-05
6.47507e-05
6.57628e-05
6.73735e-05
7.04046e-05
6.82547e-05
7.09945e-05
7.41336e-05
7.73289e-05
8.22446e-05
8.00528e-05
7.86159e-05
7.83108e-05
7.85325e-05
7.92207e-05
7.96308e-05
7.91914e-05
8.07754e-05
8.35249e-05
8.37323e-05
7.06414e-05
7.19661e-05
7.02849e-05
6.86542e-05
6.54307e-05
6.22415e-05
6.06745e-05
5.99209e-05
5.95965e-05
6.07137e-05
6.33327e-05
6.41557e-05
6.54751e-05
6.67569e-05
6.8607e-05
6.91333e-05
7.06023e-05
6.71961e-05
6.27857e-05
6.26931e-05
6.31867e-05
6.45526e-05
6.3907e-05
6.36654e-05
6.20495e-05
6.24389e-05
6.28467e-05
6.46341e-05
6.72018e-05
6.51596e-05
5.46245e-05
5.58169e-05
5.60168e-05
5.90487e-05
6.4129e-05
6.77298e-05
6.84263e-05
7.01782e-05
6.89782e-05
6.92144e-05
6.78353e-05
6.53558e-05
6.32315e-05
6.00725e-05
5.74421e-05
5.51352e-05
5.59702e-05
5.64965e-05
5.6933e-05
5.71555e-05
5.73491e-05
5.75216e-05
5.73784e-05
5.69388e-05
5.65131e-05
5.60497e-05
5.60609e-05
5.6399e-05
5.67422e-05
5.64695e-05
5.4877e-05
5.48388e-05
5.45992e-05
5.02692e-05
5.508e-05
5.44897e-05
5.52288e-05
5.20271e-05
5.19285e-05
5.37561e-05
5.47383e-05
5.64048e-05
5.8342e-05
5.68114e-05
5.79351e-05
5.75525e-05
5.54173e-05
5.38256e-05
5.44043e-05
5.30268e-05
5.24739e-05
5.2661e-05
5.34177e-05
5.6829e-05
6.2496e-05
6.22445e-05
5.61248e-05
4.44601e-05
4.33931e-05
4.95839e-05
6.57059e-05
4.52613e-05
4.05816e-05
4.98477e-05
7.46505e-05
0.000105485
0.000117458
0.000120435
0.000102614
8.76986e-05
9.52597e-05
0.000131523
0.000170599
0.000213109
1.72039e-05
2.72954e-05
2.44533e-05
1.99565e-05
1.89187e-05
1.87611e-05
1.67505e-05
1.53356e-05
1.62839e-05
2.5432e-05
4.50225e-05
6.15091e-05
6.61057e-05
5.56018e-05
4.35127e-05
3.80307e-05
3.28562e-05
3.06792e-05
3.31248e-05
3.43979e-05
3.53707e-05
3.57706e-05
3.56408e-05
4.0161e-05
4.50696e-05
5.33311e-05
5.17688e-05
4.79572e-05
3.40837e-05
1.87996e-05
5.09433e-05
6.47953e-05
6.32336e-05
5.95198e-05
6.71147e-05
8.07037e-05
9.5402e-05
9.38323e-05
9.7138e-05
9.17155e-05
8.8381e-05
8.27221e-05
7.30148e-05
6.54903e-05
5.72747e-05
5.19875e-05
4.90582e-05
4.80435e-05
4.69446e-05
4.72321e-05
4.76705e-05
4.7909e-05
5.14502e-05
5.9231e-05
6.55338e-05
7.70911e-05
8.42678e-05
8.48002e-05
7.80881e-05
6.37263e-05
7.00583e-05
7.45228e-05
7.92966e-05
8.37177e-05
8.62205e-05
8.49587e-05
8.08466e-05
7.64255e-05
7.40776e-05
7.36154e-05
7.54631e-05
7.86041e-05
8.36069e-05
8.99695e-05
8.66104e-05
7.65581e-05
6.61291e-05
5.79515e-05
5.29924e-05
5.08341e-05
4.81518e-05
4.66702e-05
4.67112e-05
4.83937e-05
5.20009e-05
5.64819e-05
6.28992e-05
6.78799e-05
6.94955e-05
7.06847e-05
0.000102345
0.00010364
9.8137e-05
9.69135e-05
9.7887e-05
9.76581e-05
9.73402e-05
9.71045e-05
9.74735e-05
9.9211e-05
9.51563e-05
9.12712e-05
8.99699e-05
8.79172e-05
8.81881e-05
8.79348e-05
8.96068e-05
9.11543e-05
9.20043e-05
9.11523e-05
9.07911e-05
9.24265e-05
9.43901e-05
8.98346e-05
8.37872e-05
8.20723e-05
7.91056e-05
8.58683e-05
8.74933e-05
9.22083e-05
8.46136e-05
8.47766e-05
8.4169e-05
8.23235e-05
8.47163e-05
8.65861e-05
8.76194e-05
8.6559e-05
8.59781e-05
8.74946e-05
8.88895e-05
9.03283e-05
9.13961e-05
9.44141e-05
9.73448e-05
0.000101782
0.000105313
0.000110405
0.000114679
0.000117071
0.000120071
0.000120213
0.000118264
0.000117008
0.000114263
0.000111983
0.000108533
0.000104416
0.000105068
0.000107882
5.73636e-05
6.22884e-05
7.12412e-05
7.69454e-05
7.64114e-05
7.12744e-05
6.73109e-05
6.33703e-05
6.12007e-05
5.95893e-05
6.01723e-05
6.2752e-05
6.79392e-05
6.67805e-05
6.98797e-05
7.17346e-05
7.3711e-05
7.21736e-05
7.12018e-05
6.91917e-05
6.71893e-05
6.61226e-05
6.63196e-05
6.71717e-05
6.60911e-05
6.48409e-05
3.74321e-05
2.03937e-05
2.63145e-05
3.60085e-05
0.000106934
0.00010759
0.0001074
0.000106498
0.000106791
0.000106536
0.000106441
0.000104317
0.000104122
0.000104316
0.000102538
0.000101246
0.000102257
9.99342e-05
9.91438e-05
9.95486e-05
9.9748e-05
9.98681e-05
9.96657e-05
0.000100205
0.000101912
0.00010186
9.98592e-05
9.49928e-05
9.24485e-05
9.42016e-05
9.59893e-05
9.75506e-05
9.83641e-05
9.84662e-05
8.69072e-05
8.61517e-05
8.35076e-05
8.00522e-05
8.19852e-05
7.38362e-05
6.90388e-05
6.408e-05
6.18537e-05
6.08425e-05
6.05171e-05
6.3545e-05
6.84298e-05
7.41526e-05
8.29105e-05
8.51013e-05
8.99637e-05
9.60355e-05
0.000100642
9.42165e-05
9.15288e-05
9.21898e-05
9.32554e-05
9.58458e-05
0.000101252
0.000105171
0.000107917
0.00011189
0.000112938
9.92596e-05
8.63971e-05
9.8419e-05
9.24488e-05
8.4659e-05
7.75477e-05
7.37853e-05
6.86771e-05
6.34895e-05
5.57965e-05
5.3533e-05
5.19522e-05
5.07858e-05
5.12367e-05
5.49749e-05
5.93066e-05
6.43025e-05
6.92622e-05
6.9294e-05
7.25611e-05
7.72178e-05
8.1307e-05
7.91723e-05
7.85217e-05
7.81299e-05
7.86866e-05
7.92396e-05
7.88032e-05
7.92019e-05
8.098e-05
8.4255e-05
7.34101e-05
7.13715e-05
6.64046e-05
6.23421e-05
5.91838e-05
5.63919e-05
5.59122e-05
5.47738e-05
5.64744e-05
5.53027e-05
5.71169e-05
5.98469e-05
6.29041e-05
6.53408e-05
6.6798e-05
6.8323e-05
6.98811e-05
6.91433e-05
6.44517e-05
6.21715e-05
6.27189e-05
6.46236e-05
6.48597e-05
6.23927e-05
6.17382e-05
6.12431e-05
6.16831e-05
6.39555e-05
6.63531e-05
6.55017e-05
5.45909e-05
5.57072e-05
5.71256e-05
6.30212e-05
6.82639e-05
7.16829e-05
7.40804e-05
7.72271e-05
7.79754e-05
7.7854e-05
7.62536e-05
7.28526e-05
6.83398e-05
6.41359e-05
5.98162e-05
5.54195e-05
5.63861e-05
5.70494e-05
5.7521e-05
5.77688e-05
5.85309e-05
5.76432e-05
5.72372e-05
5.7615e-05
5.77939e-05
5.69239e-05
5.63106e-05
5.63335e-05
5.66274e-05
5.64465e-05
5.41624e-05
5.53207e-05
5.7422e-05
5.731e-05
5.73341e-05
5.56567e-05
5.21089e-05
5.07606e-05
5.36019e-05
5.55952e-05
5.8949e-05
6.19725e-05
6.50399e-05
6.79737e-05
6.67979e-05
6.56372e-05
6.17295e-05
5.84027e-05
5.59241e-05
5.53193e-05
5.12311e-05
5.09138e-05
5.24196e-05
5.26355e-05
6.17674e-05
6.27058e-05
5.3904e-05
4.4803e-05
4.42351e-05
5.46918e-05
4.34318e-05
3.30824e-05
4.65082e-05
8.32757e-05
0.00013186
0.000156813
0.000165378
0.000162114
0.000142645
0.000109898
9.20814e-05
0.000111959
0.000165176
0.000212443
1.68587e-05
2.6383e-05
2.41954e-05
1.82086e-05
1.63695e-05
1.45475e-05
1.43949e-05
1.41227e-05
1.99731e-05
4.73086e-05
7.97558e-05
9.03484e-05
7.67112e-05
5.35913e-05
3.91936e-05
3.0476e-05
3.12577e-05
3.33885e-05
3.73233e-05
4.07242e-05
4.21135e-05
4.17207e-05
3.98075e-05
3.72392e-05
4.17539e-05
4.79655e-05
5.11473e-05
5.17197e-05
3.837e-05
2.07785e-05
4.94694e-05
6.36118e-05
6.17745e-05
5.66026e-05
6.51393e-05
8.2724e-05
9.93857e-05
9.56371e-05
9.3823e-05
9.22206e-05
8.6709e-05
8.02442e-05
6.69628e-05
5.93534e-05
5.22769e-05
5.00539e-05
4.87108e-05
4.83136e-05
4.75835e-05
4.76344e-05
4.76871e-05
4.73774e-05
4.74575e-05
5.12425e-05
5.95289e-05
6.94721e-05
8.0316e-05
8.52117e-05
8.004e-05
6.58616e-05
6.99609e-05
7.48862e-05
8.05349e-05
8.48636e-05
8.589e-05
8.18683e-05
7.63622e-05
7.29283e-05
7.16636e-05
7.02894e-05
6.98189e-05
7.19073e-05
7.70621e-05
8.66326e-05
8.4681e-05
7.27041e-05
6.14671e-05
5.39476e-05
5.14637e-05
4.66108e-05
4.36095e-05
4.24971e-05
4.24703e-05
4.30969e-05
4.70121e-05
5.11093e-05
5.88296e-05
6.46213e-05
6.87487e-05
7.06196e-05
0.000103879
0.000100432
9.6143e-05
9.77939e-05
9.83045e-05
9.7733e-05
9.77255e-05
9.75357e-05
9.7293e-05
9.15304e-05
8.57085e-05
8.36482e-05
8.01787e-05
8.01889e-05
7.96244e-05
8.18619e-05
8.36458e-05
8.65296e-05
8.85976e-05
8.97935e-05
8.90747e-05
8.99116e-05
9.19631e-05
9.12447e-05
8.53358e-05
8.02291e-05
7.31135e-05
7.57997e-05
8.4117e-05
8.83448e-05
8.61309e-05
8.63095e-05
8.49214e-05
8.35913e-05
8.58092e-05
8.73111e-05
8.58913e-05
8.59816e-05
8.77008e-05
9.05436e-05
9.13163e-05
9.08748e-05
9.16111e-05
9.4498e-05
9.76414e-05
0.000103419
0.000109852
0.000116332
0.000122894
0.000127737
0.000129254
0.000130041
0.000128715
0.000123594
0.000119208
0.000114184
0.000109064
0.000103925
0.000102363
0.00010707
5.97278e-05
6.63381e-05
7.44054e-05
7.8516e-05
7.64503e-05
7.63584e-05
7.04802e-05
6.36383e-05
6.08019e-05
5.93865e-05
6.04145e-05
6.42173e-05
6.57193e-05
7.09595e-05
7.5757e-05
7.94479e-05
8.02559e-05
8.14679e-05
7.8784e-05
7.4334e-05
7.17502e-05
6.7577e-05
6.75108e-05
6.69289e-05
6.71424e-05
6.43597e-05
4.97872e-05
2.67464e-05
2.78505e-05
3.86485e-05
0.000107105
0.000107153
0.000107278
0.000107417
0.000106505
0.000105676
0.000103906
0.000104398
0.000105244
0.000102957
0.000101376
0.00010082
9.77687e-05
9.77872e-05
9.86755e-05
9.82107e-05
9.87902e-05
9.86055e-05
9.86677e-05
9.8817e-05
0.000100266
0.000101547
0.000101212
9.86283e-05
9.45024e-05
9.5946e-05
9.64125e-05
9.67471e-05
9.90373e-05
9.9168e-05
8.75946e-05
8.56795e-05
8.18998e-05
8.21523e-05
7.40406e-05
6.50825e-05
5.90753e-05
5.41579e-05
5.10737e-05
4.92135e-05
5.13136e-05
5.24775e-05
5.91893e-05
6.41483e-05
7.45355e-05
8.32893e-05
8.68e-05
9.31986e-05
0.000100885
9.82739e-05
9.34446e-05
9.30178e-05
9.38889e-05
9.95071e-05
0.00010259
0.000103481
0.000104152
0.000108036
0.00011386
0.000104102
8.74281e-05
9.16783e-05
8.42441e-05
7.76832e-05
7.71343e-05
6.59621e-05
5.76403e-05
4.94619e-05
4.4169e-05
4.201e-05
3.91782e-05
3.8467e-05
4.11169e-05
4.29754e-05
4.7655e-05
5.3688e-05
6.11126e-05
6.81375e-05
6.91828e-05
7.31855e-05
7.97603e-05
7.84921e-05
7.72378e-05
7.82431e-05
7.88175e-05
7.92719e-05
7.97314e-05
7.94754e-05
8.00146e-05
8.28327e-05
7.07201e-05
6.66735e-05
6.24588e-05
5.85303e-05
5.22095e-05
4.47429e-05
3.9831e-05
3.76757e-05
3.8515e-05
4.17965e-05
4.75902e-05
5.51373e-05
5.67701e-05
6.15411e-05
6.5145e-05
6.71924e-05
6.85521e-05
6.99823e-05
6.7164e-05
6.2177e-05
6.2647e-05
6.44498e-05
6.49558e-05
6.28654e-05
6.11319e-05
6.00292e-05
6.14706e-05
6.34411e-05
6.56489e-05
6.56838e-05
5.46071e-05
5.56204e-05
5.88772e-05
6.54846e-05
7.12049e-05
7.6107e-05
8.04565e-05
8.53525e-05
8.60004e-05
8.61691e-05
8.3342e-05
8.02666e-05
7.46616e-05
6.80392e-05
6.19825e-05
5.69501e-05
5.64546e-05
5.72361e-05
5.75488e-05
5.7708e-05
5.83561e-05
5.67588e-05
5.5361e-05
5.53349e-05
5.66105e-05
5.78417e-05
5.67697e-05
5.63603e-05
5.65415e-05
5.64085e-05
5.27444e-05
5.47722e-05
5.71094e-05
5.71833e-05
5.54713e-05
5.37272e-05
5.04462e-05
5.2331e-05
5.4568e-05
6.02869e-05
6.60304e-05
7.23514e-05
7.63944e-05
7.73434e-05
7.71947e-05
7.28149e-05
7.00119e-05
6.24112e-05
5.8775e-05
5.46989e-05
5.12256e-05
4.97259e-05
5.11243e-05
5.10456e-05
5.88178e-05
6.45907e-05
5.48446e-05
4.68791e-05
4.82596e-05
6.45703e-05
3.22632e-05
3.36731e-05
7.19738e-05
0.000127523
0.000157211
0.000156221
0.000157818
0.000163622
0.000154636
0.000129331
9.77494e-05
0.000103961
0.000158002
0.000211477
1.65411e-05
2.67135e-05
2.49167e-05
1.72069e-05
1.58579e-05
1.41918e-05
1.31152e-05
1.56709e-05
3.4577e-05
7.75265e-05
9.69733e-05
9.24873e-05
7.24816e-05
4.45035e-05
3.13792e-05
2.99423e-05
3.29816e-05
4.02898e-05
4.56296e-05
5.23622e-05
5.43296e-05
5.15858e-05
4.51983e-05
3.99359e-05
3.98815e-05
4.26021e-05
5.20968e-05
5.25119e-05
3.7758e-05
2.18481e-05
4.69495e-05
6.18464e-05
6.1948e-05
5.49272e-05
5.92678e-05
7.66963e-05
9.69581e-05
9.63428e-05
9.33312e-05
9.04935e-05
8.39849e-05
7.78737e-05
6.50152e-05
5.55968e-05
5.11719e-05
5.07282e-05
4.8456e-05
4.87614e-05
4.75482e-05
4.85152e-05
4.80476e-05
4.88244e-05
4.77877e-05
4.87878e-05
5.4156e-05
6.63762e-05
7.61965e-05
8.4107e-05
8.07736e-05
6.67748e-05
6.96887e-05
7.48817e-05
8.10774e-05
8.555e-05
8.60247e-05
8.13568e-05
7.58429e-05
7.38135e-05
7.35411e-05
7.25748e-05
6.99696e-05
6.86454e-05
7.22875e-05
8.35089e-05
8.31553e-05
6.97156e-05
5.838e-05
5.16747e-05
4.85773e-05
4.34624e-05
4.00028e-05
3.93801e-05
3.9283e-05
4.06994e-05
4.35916e-05
4.99452e-05
5.49968e-05
6.28058e-05
6.79113e-05
7.11488e-05
0.000103746
0.000103179
0.000100032
9.7667e-05
9.85384e-05
9.80225e-05
9.78199e-05
9.99112e-05
9.15116e-05
8.53846e-05
8.0571e-05
7.88712e-05
7.80648e-05
7.7447e-05
7.78464e-05
7.76045e-05
7.98875e-05
8.23464e-05
8.59358e-05
8.80718e-05
8.78256e-05
8.78347e-05
9.01053e-05
9.10451e-05
8.69389e-05
7.97055e-05
7.20438e-05
7.18744e-05
7.68754e-05
8.80467e-05
8.60083e-05
8.59886e-05
8.454e-05
8.27583e-05
8.57742e-05
8.61581e-05
8.59405e-05
8.72119e-05
9.1541e-05
9.44418e-05
9.48868e-05
9.20605e-05
9.10033e-05
9.36633e-05
9.75811e-05
0.00010487
0.000112027
0.000120383
0.000129338
0.000134399
0.000137102
0.000138384
0.000135382
0.000130975
0.000122822
0.000116707
0.000109299
0.000104876
0.000101527
0.000105175
6.25887e-05
7.01974e-05
7.69394e-05
7.99185e-05
7.91975e-05
7.85479e-05
7.44571e-05
6.43665e-05
6.08136e-05
5.94238e-05
6.05122e-05
6.53488e-05
6.85762e-05
7.5555e-05
8.0878e-05
8.54289e-05
8.92596e-05
8.77028e-05
8.61251e-05
8.06575e-05
7.61238e-05
7.05564e-05
6.87491e-05
6.70844e-05
6.78966e-05
6.51166e-05
5.75732e-05
3.67726e-05
3.26555e-05
4.25851e-05
0.000106951
0.000108057
0.000108932
0.000107492
0.000105947
0.000103375
0.000103723
0.000104956
0.000103128
0.000101858
0.000101564
9.84657e-05
9.63984e-05
9.64055e-05
9.62459e-05
9.80459e-05
9.92226e-05
9.89968e-05
9.86409e-05
9.81232e-05
9.82167e-05
0.000100142
0.000101005
9.87387e-05
9.80208e-05
9.63666e-05
9.61072e-05
9.89298e-05
0.000100762
9.86312e-05
8.82891e-05
8.44974e-05
8.04592e-05
7.64592e-05
6.73656e-05
5.73436e-05
5.09213e-05
4.64466e-05
4.26245e-05
4.20739e-05
4.24065e-05
4.67791e-05
5.02258e-05
5.68561e-05
6.60717e-05
7.66128e-05
8.90021e-05
9.18262e-05
9.76027e-05
0.000100984
9.63294e-05
9.28841e-05
9.57294e-05
0.000102133
0.000101104
9.97589e-05
9.86937e-05
0.000101371
0.000110871
0.000106243
9.00608e-05
8.5639e-05
7.92693e-05
7.50731e-05
6.85276e-05
5.72046e-05
4.74898e-05
4.11777e-05
3.9717e-05
3.57246e-05
3.47202e-05
3.58521e-05
3.61181e-05
3.94795e-05
4.11232e-05
4.60426e-05
5.23812e-05
6.02368e-05
6.54708e-05
6.98172e-05
7.68116e-05
8.00743e-05
7.86982e-05
7.89532e-05
7.84304e-05
7.78316e-05
7.70816e-05
7.78228e-05
7.81576e-05
8.08252e-05
6.9448e-05
6.45512e-05
5.98289e-05
5.32944e-05
4.05449e-05
3.31499e-05
2.57549e-05
2.29414e-05
2.38338e-05
2.84084e-05
3.34404e-05
4.05708e-05
4.99523e-05
5.67526e-05
6.12002e-05
6.60226e-05
6.73546e-05
6.9192e-05
6.84839e-05
6.39293e-05
6.29017e-05
6.42988e-05
6.56519e-05
6.32237e-05
6.16244e-05
5.94777e-05
5.97442e-05
6.1456e-05
6.49851e-05
6.6222e-05
5.46173e-05
5.49148e-05
6.0802e-05
6.81315e-05
7.34483e-05
8.04669e-05
8.57428e-05
9.07508e-05
9.21545e-05
9.12936e-05
8.95095e-05
8.58227e-05
7.95401e-05
7.25648e-05
6.44378e-05
5.87537e-05
5.63946e-05
5.71331e-05
5.74323e-05
5.73195e-05
5.79029e-05
5.69605e-05
5.48209e-05
5.42099e-05
5.53855e-05
5.76189e-05
5.71005e-05
5.64224e-05
5.63551e-05
5.63465e-05
5.28416e-05
5.06254e-05
5.56231e-05
5.46069e-05
5.46062e-05
5.04092e-05
5.04875e-05
5.43991e-05
5.80077e-05
6.42784e-05
7.08288e-05
8.14678e-05
8.54923e-05
9.06428e-05
8.7932e-05
8.63989e-05
7.4979e-05
6.88969e-05
6.01958e-05
5.64634e-05
5.26373e-05
4.8987e-05
4.92464e-05
5.28924e-05
5.64273e-05
6.43846e-05
6.12071e-05
5.30607e-05
5.97503e-05
6.01268e-05
3.0385e-05
4.59913e-05
0.000108749
0.000143609
0.000122483
0.000106838
0.000118754
0.000142269
0.0001467
0.000130051
9.92031e-05
0.000103078
0.000151535
0.0002128
1.55366e-05
2.73712e-05
2.66671e-05
1.68682e-05
1.47878e-05
1.32305e-05
1.33132e-05
1.94208e-05
5.28225e-05
9.7914e-05
9.95568e-05
8.63134e-05
6.54177e-05
4.00497e-05
2.91499e-05
3.0316e-05
3.79535e-05
4.70772e-05
6.02559e-05
6.96443e-05
7.21704e-05
6.67315e-05
5.59717e-05
4.57518e-05
4.04837e-05
4.39435e-05
5.0142e-05
5.19188e-05
3.84459e-05
2.22469e-05
4.44832e-05
5.75041e-05
6.27192e-05
5.67494e-05
5.47431e-05
6.76565e-05
8.7502e-05
9.99002e-05
9.69723e-05
8.60067e-05
8.06047e-05
7.60826e-05
6.13086e-05
5.46887e-05
5.268e-05
5.11281e-05
4.8328e-05
4.85788e-05
4.83369e-05
4.91658e-05
4.8921e-05
4.90021e-05
4.89835e-05
4.86748e-05
5.20174e-05
6.23909e-05
7.29969e-05
8.26124e-05
8.05286e-05
6.70352e-05
6.93385e-05
7.41138e-05
8.07631e-05
8.60899e-05
8.78893e-05
8.49883e-05
8.0578e-05
8.01413e-05
8.05452e-05
7.80642e-05
7.30895e-05
6.85256e-05
6.91027e-05
8.02916e-05
8.3282e-05
6.76926e-05
5.6533e-05
5.34463e-05
4.67146e-05
4.16635e-05
3.85178e-05
3.8502e-05
3.86689e-05
3.97922e-05
4.21603e-05
4.70448e-05
5.30112e-05
6.11955e-05
6.74079e-05
7.10721e-05
0.000101277
9.7959e-05
9.77122e-05
9.71198e-05
9.8629e-05
9.84049e-05
9.73709e-05
9.68865e-05
8.75264e-05
8.27879e-05
7.87022e-05
8.14783e-05
8.18824e-05
8.39492e-05
8.18595e-05
8.07885e-05
7.87662e-05
8.00152e-05
8.26356e-05
8.54154e-05
8.6387e-05
8.64267e-05
8.87398e-05
9.07045e-05
8.8189e-05
7.98695e-05
7.28337e-05
7.17434e-05
7.55292e-05
8.73656e-05
8.83441e-05
8.69902e-05
8.57652e-05
8.43963e-05
8.60214e-05
8.64536e-05
8.74094e-05
8.9648e-05
9.4777e-05
0.000101538
0.000100527
9.52282e-05
9.28349e-05
9.45848e-05
9.74294e-05
0.000104906
0.000114397
0.000124072
0.000132336
0.00013747
0.000142353
0.000141824
0.000140904
0.000134379
0.000125209
0.000117569
0.000110892
0.000102811
0.000100167
0.00010237
6.02535e-05
7.25883e-05
7.9421e-05
8.09179e-05
8.19119e-05
8.06223e-05
7.72178e-05
6.6231e-05
6.19466e-05
5.93218e-05
5.99061e-05
6.53513e-05
6.89875e-05
7.68491e-05
8.27082e-05
8.87005e-05
8.99127e-05
9.0903e-05
8.96923e-05
8.37627e-05
7.96655e-05
7.21386e-05
7.0085e-05
6.78488e-05
6.75819e-05
6.59622e-05
6.12778e-05
4.22604e-05
3.90928e-05
4.71692e-05
0.00010752
0.000107833
0.000107683
0.000107769
0.000104473
0.000102996
0.000103953
0.000103217
0.000101692
0.000100314
9.9637e-05
9.36064e-05
9.40163e-05