/*--------------------------------*- C++ -*----------------------------------*\
| =========                 |                                                 |
| \\      /  F ield         | OpenFOAM: The Open Source CFD Toolbox           |
|  \\    /   O peration     | Version:  2.1.1                                 |
|   \\  /    A nd           | Web:      www.OpenFOAM.org                      |
|    \\/     M anipulation  |                                                 |
\*---------------------------------------------------------------------------*/
FoamFile
{
    version     2.0;
    format      ascii;
    class       volScalarField;
    location    "0.006750000";
    object      O2;
}
// * * * * * * * * * * * * * * * * * * * * * * * * * * * * * * * * * * * * * //

dimensions      [0 0 0 0 0 0 0];

internalField   nonuniform List<scalar> 
12384
(
0.0133429
0.0149193
0.0152704
0.0150714
0.0146434
0.0140215
0.0130623
0.0122743
0.0114635
0.0108025
0.0103882
0.0102374
0.0100617
0.00788827
0.0307612
0.0273132
0.0283142
0.0298815
0.0312763
0.0318747
0.0317884
0.0310204
0.0295895
0.0279148
0.0262803
0.0250933
0.023951
0.0226384
0.021158
0.019585
0.0179592
0.0169282
0.0160514
0.0153267
0.0147609
0.0145111
0.0145659
0.015012
0.01594
0.0176938
0.0215464
0.0267105
0.0346662
0.0425986
0.0119308
0.00627333
0.00393389
0.00360302
0.00338689
0.00318975
0.00286725
0.00245632
0.00211808
0.00170743
0.0014547
0.00133642
0.00116275
0.00119323
0.00125415
0.00121057
0.00135532
0.00127933
0.00134662
0.00127017
0.00121672
0.00113445
0.0010798
0.00104904
0.00100551
0.00109141
0.00140716
0.00254852
0.00583941
0.00663552
0.00220142
0.0021943
0.00221417
0.0020514
0.00181605
0.00154941
0.00130678
0.00108808
0.000897308
0.000761702
0.00069205
0.000644693
0.000623543
0.000643711
0.000702871
0.000791366
0.000888812
0.000975349
0.00118943
0.00121796
0.00127209
0.00135231
0.00146288
0.00141315
0.00145265
0.00158494
0.00190896
0.00217843
0.00168231
0.00146715
0.000410876
0.000503957
0.000511275
0.000553447
0.000585072
0.000627678
0.000629985
0.000618148
0.000619856
0.000604056
0.000237088
0.000265414
0.000340885
0.000292421
0.000347199
0.000402112
0.000491635
0.000607275
0.000655653
0.000814206
0.0008186
0.00108822
0.00147317
0.00116456
0.000892776
0.000717446
0.0005087
0.000454553
0.00064759
0.00109135
3.32844e-05
4.5065e-05
6.49733e-05
6.71105e-05
6.29375e-05
5.75658e-05
6.10587e-05
5.53025e-05
6.44414e-05
6.88738e-05
6.72094e-05
7.28912e-05
7.77809e-05
8.17072e-05
8.46862e-05
8.65036e-05
8.67617e-05
8.01505e-05
8.76396e-05
8.5204e-05
8.73401e-05
9.22197e-05
9.02395e-05
8.92e-05
9.18265e-05
9.18847e-05
9.59692e-05
0.000125586
-2.14683e-05
0.000127602
0.000715598
0.000845805
0.000284562
0.000202796
0.000139934
0.000100577
0.000105406
8.49047e-05
0.000106568
0.000127474
0.000144898
0.000157073
0.000163495
0.000188755
0.000183767
0.000187019
0.000173812
0.000177653
0.00016638
0.000150364
0.000146915
0.000156539
0.000159722
0.00023498
0.00389114
0.0158457
0.016759
0.0160671
0.0153479
0.0153331
0.000361364
-1.42477e-05
7.39405e-05
6.55113e-05
6.46556e-05
6.47167e-05
6.3398e-05
6.0219e-05
5.44238e-05
5.47777e-05
4.42795e-05
5.38247e-05
4.70576e-05
4.98864e-05
5.32202e-05
4.19537e-05
4.84388e-05
5.50783e-05
6.0169e-05
6.55041e-05
9.90239e-05
9.78032e-05
5.90779e-05
5.14572e-05
1.04942e-05
9.74477e-05
9.51857e-05
9.51756e-05
9.12845e-05
-5.17795e-05
0.000186014
0.000163193
0.000175906
0.000178394
0.000177956
0.000180717
0.000176822
0.000187292
0.000207913
0.000191155
0.000184991
0.000212965
0.000196613
0.000208446
0.000207266
0.000217873
0.000178101
4.35862e-05
1.26041e-05
1.1663e-05
1.75741e-05
1.96518e-05
2.2492e-05
2.16712e-05
2.32951e-05
2.36272e-05
2.14776e-05
1.78918e-05
8.56985e-06
7.10521e-08
7.71352e-05
8.86561e-05
7.61156e-05
8.18017e-05
0.000100467
-5.09684e-05
-7.35029e-06
9.20798e-05
0.000117579
0.000127508
0.000151385
0.000119775
0.000142197
0.000147774
0.000159862
0.000173751
0.000178482
0.000172566
8.87578e-05
4.17289e-05
1.64211e-05
1.67471e-05
1.99489e-05
2.319e-05
2.47838e-05
2.64894e-05
2.64652e-05
2.43837e-05
2.09052e-05
1.74685e-05
1.41535e-05
1.52118e-05
1.62199e-05
1.62323e-05
1.47423e-05
1.17688e-05
9.40226e-06
1.41177e-05
1.42671e-05
1.43038e-05
1.11948e-05
1.33443e-05
1.61762e-05
1.37608e-05
2.29904e-05
1.89384e-05
6.93326e-06
8.07055e-06
5.58702e-06
4.6004e-06
4.93792e-06
7.27032e-06
8.1834e-06
9.54827e-06
9.88817e-06
1.0122e-05
9.9228e-06
8.86073e-06
7.43755e-06
6.58728e-06
2.28138e-05
2.99482e-05
3.28798e-05
2.56981e-05
1.66768e-05
9.45576e-06
5.31053e-06
5.81648e-06
1.75679e-06
2.97386e-06
7.67473e-06
7.69299e-06
6.57886e-06
6.3603e-06
6.16373e-06
5.60196e-06
5.27721e-06
5.02224e-06
4.77843e-06
4.53722e-06
4.7429e-06
5.46718e-06
1.13099e-05
7.80367e-06
1.56963e-05
1.95094e-05
2.38938e-05
2.73084e-05
2.75823e-05
2.31823e-05
3.87212e-06
3.29041e-06
2.55889e-06
4.11586e-06
5.5392e-06
3.20139e-05
0.00518844
3.13151e-05
6.75748e-07
6.99447e-07
7.10286e-07
6.9109e-07
6.95733e-07
5.76555e-07
6.06726e-07
6.07723e-07
6.84761e-07
6.88224e-07
7.64312e-07
7.98978e-07
8.67917e-07
3.32897e-07
1.31801e-06
2.06894e-06
2.46589e-06
2.11873e-06
1.62429e-06
6.45543e-07
9.39635e-08
2.9348e-07
0.0204839
0.0204127
0.0207953
0.0213884
0.0210348
0.0199079
0.018359
0.0165959
0.0141777
0.0116471
0.00974988
0.00899629
0.00944377
0.00800497
0.0305629
0.0272104
0.0294928
0.0319413
0.0328004
0.0318439
0.0295555
0.0274921
0.0262149
0.0262974
0.0263177
0.0254612
0.023698
0.0212085
0.0188973
0.0170682
0.0160606
0.0154454
0.0148936
0.0141933
0.0131902
0.0118058
0.0104891
0.00980168
0.00998768
0.011901
0.015693
0.0220615
0.0305977
0.0386645
0.0113862
0.00598629
0.00418299
0.00410725
0.003923
0.00332806
0.00253065
0.00191977
0.00149423
0.00114353
0.000934277
0.000922808
0.00124004
0.00170501
0.0023216
0.0028264
0.00323298
0.00344703
0.00352418
0.00341159
0.00314889
0.00276331
0.00228732
0.00175645
0.0012971
0.00116338
0.00124205
0.00186424
0.0035231
0.00642991
0.00215474
0.00219535
0.00206237
0.00169797
0.00126251
0.000850544
0.000549073
0.00040388
0.000387926
0.000351217
0.000283391
0.000250666
0.00023281
0.000297946
0.000544404
0.000907799
0.00131929
0.00179837
0.00208055
0.00230035
0.00246137
0.00243256
0.00236658
0.0022317
0.00201868
0.00174029
0.00181979
0.00211097
0.0019782
0.00171701
0.000331173
0.000410636
0.000510416
0.00058096
0.000593822
0.000579654
0.000556741
0.000566362
0.000548607
0.000534927
0.000530952
0.000543281
0.000178857
0.000300524
0.000368168
0.000469342
0.0004348
0.000585631
0.000748629
0.000885969
0.000898832
0.00101573
0.00129963
0.00123738
0.000436638
0.000446858
0.000388303
0.000353095
0.000317542
0.000344688
3.40767e-05
4.81486e-05
6.54736e-05
6.00881e-05
5.14006e-05
5.04286e-05
5.48371e-05
6.24771e-05
7.23595e-05
7.32703e-05
7.74158e-05
7.4006e-05
7.91489e-05
8.46461e-05
8.98161e-05
9.37309e-05
9.07815e-05
9.42134e-05
9.52206e-05
9.78403e-05
9.98439e-05
9.75007e-05
0.000100462
0.000107714
0.000104239
9.92664e-05
9.50048e-05
0.000110306
0.000127154
0.000121751
0.000683246
0.000299408
0.000184568
7.30895e-05
5.26464e-05
1.05865e-05
8.48908e-05
0.000152164
0.000210296
0.00026068
8.18609e-05
0.000194556
0.000216155
0.000178354
0.000114103
1.67261e-05
-4.36016e-05
0.000251186
0.000244659
0.000224327
0.000209688
0.000173913
0.000161758
0.000190042
0.000639444
0.00536172
0.0157175
0.0140506
0.0098403
0.0103344
5.83115e-06
4.91267e-05
5.05709e-05
3.56247e-05
3.7069e-05
3.76443e-05
5.20166e-05
4.79289e-05
4.38534e-05
3.30057e-05
4.29324e-05
3.94593e-05
3.88226e-05
3.39029e-05
3.74156e-05
4.31575e-05
4.90651e-05
4.15467e-05
5.03034e-05
5.8634e-05
7.62873e-05
2.53176e-05
5.41551e-05
8.96505e-06
9.65799e-05
9.51875e-05
9.08512e-05
8.21904e-05
6.62127e-05
6.9913e-05
0.000169159
0.000181142
0.000197009
0.000218079
0.000244471
0.000282026
0.000290129
0.000306843
0.000306764
0.000304924
0.00032415
0.000320749
0.00031915
0.000309502
0.000293117
0.000240601
0.000242798
7.72761e-06
2.39877e-05
1.55508e-05
2.32912e-05
2.5463e-05
2.42075e-05
2.79181e-05
1.32482e-05
1.90353e-05
3.38336e-05
2.71566e-05
5.9188e-06
1.97501e-05
0.000198325
9.35073e-05
9.64691e-05
0.000108569
3.75909e-05
0.000144055
0.000206786
0.000207068
0.000232654
0.00024472
0.000240556
0.000244362
0.000235537
0.000233317
0.000225451
0.000223381
0.000191924
0.000188916
0.000158168
6.7287e-05
2.22504e-05
1.88071e-05
2.45557e-05
2.60039e-05
2.84898e-05
3.23174e-05
3.30097e-05
2.95193e-05
2.5889e-05
2.4227e-05
1.43197e-05
1.41775e-05
2.25286e-05
2.6912e-05
3.36746e-05
3.18566e-05
3.39961e-05
3.08097e-05
2.83866e-05
2.63218e-05
2.53495e-05
1.93656e-05
2.04267e-05
2.12263e-05
1.76554e-05
2.16057e-05
1.19529e-05
9.07325e-06
5.58874e-06
4.1605e-06
5.89239e-06
8.38207e-06
1.09187e-05
1.21181e-05
1.20757e-05
1.19718e-05
1.22261e-05
1.09173e-05
9.15133e-06
6.58469e-06
1.274e-05
2.37295e-05
2.71055e-05
1.72999e-05
1.16774e-05
4.27313e-06
2.95261e-06
4.94135e-06
1.10144e-05
1.06188e-05
8.80857e-06
6.73585e-06
4.18997e-06
8.10639e-06
6.06977e-06
4.88637e-06
4.20045e-06
4.6174e-06
1.17893e-05
1.30181e-05
1.35819e-05
1.34288e-05
1.25003e-05
6.67513e-06
1.28339e-05
1.50714e-05
1.94166e-05
2.45547e-05
2.71062e-05
2.36664e-05
5.4645e-06
4.89623e-06
1.8198e-06
1.73978e-06
2.60086e-06
8.12464e-05
0.000471498
1.30161e-06
6.63542e-07
6.78296e-07
5.47911e-07
5.64042e-07
3.40781e-07
3.89896e-07
3.73498e-07
3.94085e-07
3.88967e-07
4.07538e-07
4.09495e-07
4.09636e-07
4.21931e-07
4.37513e-07
7.2465e-07
1.53906e-06
3.26814e-06
2.83501e-06
1.00543e-06
1.20826e-07
1.66486e-07
3.222e-07
0.0221311
0.0235816
0.0268324
0.0270017
0.025018
0.0220839
0.0198819
0.0186851
0.0178191
0.0155364
0.0116247
0.00887405
0.00870243
0.00802978
0.0304874
0.0272558
0.0305234
0.0330368
0.0326915
0.030655
0.0294271
0.0300831
0.0321058
0.0328512
0.0300367
0.0255813
0.0218541
0.0189145
0.017679
0.0180116
0.0196452
0.0212615
0.0223464
0.0226436
0.0220382
0.0203449
0.0173633
0.0140553
0.0110445
0.00960907
0.0113617
0.016527
0.0260447
0.0356548
0.0110792
0.00609232
0.00506696
0.00555672
0.00438025
0.00298076
0.00169308
0.00100463
0.000925667
0.000949049
0.000995169
0.00135869
0.00222397
0.00321661
0.00417562
0.00596159
0.00705058
0.00769184
0.00791434
0.00788341
0.00749553
0.00633707
0.00465253
0.00345869
0.00251634
0.00163538
0.00117329
0.00148145
0.00253785
0.00518758
0.00216849
0.0021416
0.00182321
0.00131044
0.00088601
0.000675575
0.000720561
0.000929546
0.00109724
0.00114372
0.00103213
0.000809837
0.000569967
0.000411514
0.000712535
0.00131557
0.00197707
0.00260778
0.0029896
0.00325937
0.00342971
0.00341532
0.00338376
0.00319396
0.00286639
0.00238781
0.00199773
0.00204258
0.00215936
0.00183057
0.000299175
0.000383263
0.000551158
0.000578304
0.000543869
0.000528734
0.000506532
0.000499939
0.000512479
0.000549088
0.000578998
0.000294174
0.000426852
0.000518898
0.000557628
0.000594235
0.00063322
0.000711359
0.000788422
0.000891773
0.000988288
0.000947079
0.00109902
0.00128772
0.000710867
0.000260396
0.000451569
0.000377604
0.000263947
0.000218106
3.70652e-05
5.24642e-05
6.49429e-05
5.30672e-05
4.64212e-05
4.68082e-05
6.12866e-05
6.34186e-05
6.4829e-05
6.42205e-05
6.62077e-05
7.21732e-05
7.16122e-05
8.09025e-05
8.91651e-05
9.08493e-05
9.71792e-05
0.000100639
9.42687e-05
0.000101175
9.84086e-05
0.000108604
0.000101158
0.000107156
0.000107005
9.76691e-05
9.78023e-05
9.77645e-05
0.000117294
0.000119286
0.000554662
0.000215198
8.09079e-05
4.61738e-05
4.75745e-05
8.66459e-05
0.000175314
0.000250853
0.00025047
0.000481012
0.000523887
0.000455144
0.000326074
0.000187479
2.75445e-05
0.000259395
0.000264399
0.000255408
0.000264496
0.000262557
0.000234995
0.000210046
0.000183119
0.000178693
0.000231836
0.00126511
0.00816531
0.0139479
0.00710536
0.00620413
3.25834e-05
4.59491e-05
5.20525e-05
5.26157e-05
3.58902e-05
5.13239e-05
4.77317e-05
4.3487e-05
2.86763e-05
2.34936e-05
1.41047e-05
2.9403e-05
1.97048e-05
2.44427e-05
2.52892e-05
2.88067e-05
3.60511e-05
4.33654e-05
5.18785e-05
4.60923e-05
5.75353e-05
8.32841e-05
3.4711e-05
7.43963e-05
7.97657e-05
7.65083e-05
9.7665e-05
8.32984e-05
7.31737e-05
6.05074e-05
0.000176678
0.000195484
0.00022504
0.000265276
0.00031277
0.00036487
0.000170702
0.000395796
0.000595992
0.000746112
0.000753669
0.000682096
0.000394122
0.000415661
0.000390943
0.00033152
0.000288243
0.00018859
4.38746e-05
1.94882e-05
2.39297e-05
2.25215e-05
2.25249e-05
2.64136e-05
2.49916e-05
4.26281e-05
4.64038e-05
5.57698e-05
5.32056e-05
1.40919e-05
0.000260758
1.29242e-05
2.04485e-05
8.26074e-05
0.000191668
0.000263708
0.000304357
0.000320841
0.000184284
0.000398013
0.000482045
0.000479414
0.000365456
0.000190562
-2.11593e-05
0.000265529
0.000247844
0.000231927
0.000186147
8.77742e-05
3.85134e-05
2.69426e-05
2.70463e-05
3.004e-05
3.76712e-05
4.33447e-05
3.0703e-05
2.47504e-05
2.06008e-05
9.70938e-06
1.90521e-05
3.62961e-05
4.59466e-05
2.3039e-05
7.69035e-05
7.88662e-05
0.000100731
9.34459e-05
7.48395e-05
5.64579e-05
-4.57252e-07
3.84474e-05
3.52127e-05
2.83478e-05
2.72224e-05
2.13048e-05
2.16222e-05
1.22467e-05
5.90711e-06
3.2863e-06
6.3881e-06
8.31386e-06
1.08829e-05
1.17213e-05
-2.83438e-06
4.93462e-06
1.10483e-05
1.14604e-05
1.05334e-05
6.78202e-06
1.10008e-05
2.14305e-05
2.26111e-05
1.31064e-05
6.93733e-06
9.92183e-06
3.40205e-06
8.05672e-06
6.41896e-06
7.38147e-06
1.27093e-05
8.80636e-06
1.19883e-05
6.91242e-06
8.69545e-06
6.48817e-06
1.48965e-05
1.94116e-05
2.32639e-05
2.53485e-05
2.71282e-05
2.836e-05
2.74867e-05
2.42946e-05
2.03117e-05
1.76022e-05
1.83988e-05
2.2058e-05
2.57683e-05
2.37049e-05
8.52472e-06
7.63787e-06
5.74515e-06
2.32558e-06
3.80955e-07
0.00012391
4.90803e-06
6.91715e-07
5.15196e-07
5.62599e-07
4.54171e-07
5.11554e-07
6.02792e-07
3.70261e-07
4.2261e-07
3.79577e-07
2.40484e-07
1.42681e-07
3.67108e-07
3.21705e-07
3.22558e-07
3.36478e-07
3.73353e-07
8.24759e-07
2.43511e-06
2.14643e-06
7.73714e-07
1.15783e-07
1.51481e-07
3.65258e-07
0.0252907
0.0309807
0.0314304
0.0263583
0.0194211
0.0152579
0.0131229
0.0135871
0.0151026
0.0159646
0.0143168
0.0100913
0.00840211
0.00794594
0.0303924
0.0272005
0.031203
0.0335861
0.0332019
0.0325837
0.0339605
0.0366079
0.0369538
0.0316278
0.023573
0.0178389
0.0155673
0.0153878
0.0172011
0.0209813
0.024448
0.0266335
0.0279621
0.0282564
0.0279762
0.0273169
0.0253285
0.0217397
0.0161708
0.0113439
0.00975957
0.0130037
0.0222416
0.0335866
0.0111474
0.00651375
0.00613352
0.00694752
0.00478619
0.00241295
0.000697512
0.000564577
0.000311812
0.000745386
0.00109426
0.00180371
0.00307416
0.00463364
0.00702411
0.00818993
0.00883255
0.00897121
0.00914825
0.00913036
0.00905989
0.00889454
0.00814628
0.00627836
0.00388773
0.00257994
0.00159091
0.00129674
0.00202794
0.00416008
0.00217235
0.00207149
0.00161188
0.00107467
0.000797693
0.000906519
0.00132015
0.00170395
0.00186946
0.00190125
0.00184891
0.0016078
0.00114699
0.000558512
0.000796049
0.0015836
0.00250847
0.00311211
0.0035291
0.00435914
0.00498372
0.00522981
0.00524296
0.00475546
0.00369267
0.00304603
0.00239962
0.00215582
0.00222678
0.00202197
0.000302528
0.000482181
0.000587589
0.000548747
0.000506605
0.000463396
0.000464086
0.000508849
0.000602737
0.000612839
0.00113942
0.00157563
0.00182131
0.00190852
0.00183498
0.00172722
0.00147584
0.00122903
0.00107461
0.00102184
0.00103953
0.00108153
0.00106966
0.00125104
0.000832062
0.0006737
0.00100859
0.000442939
0.000379236
0.000250182
3.66014e-05
5.2057e-05
6.16544e-05
4.62922e-05
4.52319e-05
4.9386e-05
5.90647e-05
6.28928e-05
5.45731e-05
5.51677e-05
5.95403e-05
6.67022e-05
6.84283e-05
7.99752e-05
8.44903e-05
9.51542e-05
9.36675e-05
0.000100449
9.66475e-05
9.74539e-05
9.25734e-05
9.76322e-05
0.000109054
0.000107528
0.000113158
0.000107822
0.000102363
9.39228e-05
0.000105341
0.000110301
0.000378105
0.000158548
5.0327e-05
3.39023e-05
6.15443e-05
9.88957e-05
0.000165166
0.000254089
0.000337697
0.000480175
0.000453242
0.000301036
-0.000103663
0.000254445
0.000238177
0.000224279
0.000208151
0.000195168
0.000212192
0.000243181
0.000247011
0.000236044
0.000209618
0.000190085
0.000190322
8.62155e-05
0.00249308
0.0111148
0.00718611
0.00397181
3.28053e-05
4.94924e-05
4.6065e-05
2.95809e-05
4.86661e-05
4.82175e-05
4.36056e-05
2.87051e-05
1.8388e-05
1.04248e-05
-1.45792e-06
3.31261e-05
3.37244e-05
3.2046e-05
6.28676e-06
1.2705e-05
2.17488e-05
3.17419e-05
4.08154e-05
4.94468e-05
5.85272e-05
6.14854e-05
0.000101778
9.52866e-05
0.000124884
0.000114682
9.58812e-05
8.87301e-05
8.67131e-05
6.57645e-05
0.000190845
0.000212122
0.000258999
0.000323728
-1.57108e-06
0.000720199
0.00123084
0.00155906
0.00188823
0.00196798
0.00200903
0.00186025
0.00153675
0.00112841
0.000471593
0.000430266
0.000341462
0.000283532
0.000104379
2.73029e-05
2.25786e-05
2.42819e-05
2.52243e-05
2.88115e-05
4.38416e-05
6.36195e-05
7.60013e-05
7.10812e-05
6.75387e-05
4.10403e-05
0.000303016
8.99997e-05
0.000150536
0.000205853
0.000282518
0.000358732
0.000589666
0.00108923
0.00142942
0.00170271
0.00179936
0.00167624
0.00156729
0.00122159
0.000891615
0.000501959
5.04814e-05
0.000272115
0.000228151
0.000156253
6.4612e-05
3.13231e-05
2.66238e-05
2.94044e-05
4.19981e-05
3.8961e-05
1.98299e-05
1.36123e-05
1.1916e-05
1.67443e-05
4.76463e-05
-7.74894e-06
7.77137e-05
0.000141451
0.000175001
0.000201187
9.44475e-05
0.000106999
-5.692e-05
0.000170913
0.000143636
0.000111323
4.24336e-05
4.29665e-05
3.493e-05
3.11895e-05
2.55571e-05
1.01235e-05
8.32511e-06
2.90768e-06
5.47286e-06
9.15626e-06
1.15929e-05
-2.61068e-06
4.83686e-06
2.75357e-06
1.02152e-05
1.07464e-05
1.02642e-05
6.85567e-06
1.07483e-05
2.04001e-05
1.80806e-05
1.54079e-05
1.18929e-05
9.28459e-06
5.5649e-06
1.17012e-05
1.1969e-05
1.10532e-05
8.36769e-06
1.19355e-05
1.27427e-05
1.33327e-05
1.3035e-05
8.56758e-06
1.80767e-05
2.43541e-05
2.8429e-05
3.03789e-05
8.81433e-06
3.74565e-05
5.23121e-05
3.57612e-05
3.19901e-05
2.47217e-05
2.04603e-05
2.11234e-05
2.42672e-05
2.32049e-05
7.80488e-06
1.21225e-05
3.0884e-05
3.04468e-05
3.06069e-05
1.20724e-05
1.11387e-06
4.50524e-07
5.51217e-07
5.01886e-07
6.59515e-07
7.32097e-07
9.49779e-07
1.13658e-06
1.05596e-06
9.37941e-07
6.46908e-07
3.91387e-07
4.66555e-07
4.7678e-07
2.39149e-07
2.55649e-07
3.05129e-07
3.69711e-07
2.00097e-06
2.53326e-06
5.96385e-07
1.7379e-07
1.65768e-07
9.53578e-07
0.0326615
0.0347356
0.0290384
0.0186059
0.0123418
0.0104667
0.0100352
0.0104064
0.0119375
0.0144545
0.0149845
0.0113425
0.00838558
0.00774831
0.0304495
0.0266062
0.0313305
0.0343919
0.0349459
0.0359792
0.0384024
0.0394951
0.0347059
0.0233115
0.0152815
0.0126733
0.01282
0.0151325
0.0203914
0.0257321
0.0288386
0.0296557
0.0290499
0.0282477
0.0278484
0.0279076
0.0278547
0.0262302
0.0217073
0.0149298
0.0101556
0.0112894
0.0192608
0.0320951
0.0116531
0.00704956
0.00698418
0.00828355
0.00592527
0.00239789
0.000276859
0.000503535
0.000535838
0.000652594
0.00122532
0.00219448
0.00384684
0.00672483
0.0081852
0.00869376
0.00881938
0.00888961
0.00886921
0.00886413
0.00892707
0.00908788
0.00905291
0.00839463
0.00616091
0.00360255
0.00220094
0.00138374
0.00179936
0.00381993
0.00217189
0.00201866
0.0014735
0.000943928
0.00083557
0.00117953
0.00166856
0.00194847
0.00204808
0.00217928
0.00221131
0.00208313
0.00169946
0.000787176
0.000871303
0.00192092
0.00283381
0.00344346
0.00445886
0.00561259
0.00636829
0.00667652
0.00666254
0.00631031
0.0053013
0.00355257
0.00285823
0.00236042
0.00231648
0.00210267
0.000351291
0.000564287
0.000597452
0.000539524
0.000459409
0.000430392
0.000473446
0.000592038
0.000917902
0.00182289
0.00249563
0.00299384
0.00320997
0.00328669
0.00325346
0.00300774
0.00265874
0.00211184
0.00165832
0.00132794
0.00119079
0.0011687
0.00121347
0.00127776
0.000993603
0.000898376
0.00160376
0.00150097
0.000668525
0.000406126
3.218e-05
5.58932e-05
6.30244e-05
4.55714e-05
4.56872e-05
5.05222e-05
5.22757e-05
5.68563e-05
4.92141e-05
5.01206e-05
5.4639e-05
6.17801e-05
6.61683e-05
7.93177e-05
8.48038e-05
9.67508e-05
9.92661e-05
9.68691e-05
9.33509e-05
8.50675e-05
8.5464e-05
8.85192e-05
9.80004e-05
0.000109426
0.000110515
0.000110744
9.58375e-05
8.92635e-05
9.32309e-05
0.000112565
0.000147412
0.000112142
4.18909e-05
3.54872e-05
5.44842e-05
3.80365e-05
0.000121988
0.000248747
0.000372551
0.000464221
0.000407478
0.000171042
0.000248362
0.000227832
0.000182073
0.000130747
0.000145633
0.000122592
0.000167031
0.000179758
0.000219857
0.00023213
0.000237357
0.000200639
0.000193859
0.000227017
0.00142232
0.00668657
0.00658627
0.00271113
5.43783e-05
1.66202e-05
1.51629e-05
4.06902e-05
4.61946e-05
4.45634e-05
3.15982e-05
2.10683e-05
1.01481e-05
3.30675e-05
3.11446e-05
2.96263e-05
2.65955e-05
2.66442e-05
2.80943e-05
2.90707e-05
5.36119e-06
1.73196e-05
2.97843e-05
4.04832e-05
5.09816e-05
6.1114e-05
8.4708e-05
-1.7989e-05
0.000117782
7.717e-05
9.26675e-05
9.12182e-05
9.70978e-05
7.61474e-05
0.000190157
0.000233881
0.000312056
-2.94478e-05
0.000817857
0.00163602
0.0022452
0.00270307
0.00303534
0.00316807
0.00312516
0.00295483
0.00260662
0.00208879
0.00142427
0.000554713
0.000405945
0.000331101
7.33455e-05
5.06553e-05
2.47213e-05
2.29855e-05
2.41795e-05
2.02116e-05
5.51442e-05
7.50604e-05
7.82859e-05
8.2314e-05
8.08027e-05
5.00809e-05
0.000289556
0.000168238
0.00019592
0.00028273
4.5594e-05
0.000900086
0.00162835
0.00214178
0.00248303
0.00273475
0.00269489
0.00266479
0.00255956
0.00219839
0.00178099
0.00131399
0.000687747
0.000109228
0.000266035
0.000214665
9.17873e-05
4.01765e-05
2.69511e-05
3.7108e-05
4.57545e-05
1.93421e-05
7.23208e-06
2.41659e-06
3.37615e-06
9.42019e-06
4.30485e-05
6.98497e-05
0.000147561
0.000209024
0.000722117
0.00132238
0.00173508
0.00194817
0.0018772
0.00154042
0.000920357
5.74465e-05
0.00015491
8.90648e-05
1.93132e-05
3.83337e-05
3.29905e-05
2.18297e-05
1.21394e-05
3.66376e-06
5.28372e-06
8.80863e-06
1.16292e-05
-1.50722e-06
4.33881e-06
9.6349e-07
1.04923e-05
1.0048e-05
9.22226e-06
6.98298e-06
1.08083e-05
1.94366e-05
1.36655e-05
1.05597e-05
8.32177e-06
9.11671e-06
7.7883e-06
1.694e-05
1.69206e-05
4.92861e-06
1.02992e-05
1.41396e-05
1.36042e-05
1.2049e-05
1.10272e-05
1.12479e-05
1.8566e-05
2.56206e-05
2.8706e-05
2.98737e-05
1.55287e-05
6.97506e-05
0.00011507
0.000115159
6.75549e-05
3.25352e-05
2.41156e-05
2.1228e-05
2.30312e-05
2.23809e-05
4.83146e-06
6.968e-06
3.9977e-05
2.89767e-05
6.99248e-06
2.24491e-06
5.78343e-07
4.86363e-07
4.60862e-07
7.45627e-07
1.02144e-06
1.49085e-06
1.94074e-06
1.85429e-06
1.69647e-06
7.0032e-07
1.26082e-06
5.20664e-07
5.35417e-07
4.31275e-07
1.98973e-07
1.81469e-07
2.43504e-07
1.99177e-07
1.43718e-06
4.08374e-06
2.20417e-07
2.44696e-07
3.13931e-07
7.11927e-06
0.037385
0.0342418
0.0217535
0.0124686
0.0100858
0.00985002
0.00986917
0.010133
0.0113691
0.0136197
0.0151116
0.0120607
0.00857023
0.00770091
0.0307016
0.0263204
0.0307862
0.035094
0.0370467
0.0389734
0.0404257
0.0387957
0.0280899
0.0160992
0.0113513
0.0108209
0.0122445
0.0167657
0.0244754
0.0291639
0.0300267
0.0284904
0.0263861
0.0250982
0.0247196
0.0252508
0.0263937
0.0269255
0.0247559
0.0180683
0.0117678
0.0108529
0.0174956
0.0311432
0.0124281
0.00769773
0.0073941
0.00926306
0.00813483
0.00332147
0.000625211
0.000497759
0.000526444
0.000839125
0.001456
0.00251569
0.00488724
0.00770999
0.00829289
0.00840624
0.00856917
0.00873788
0.00864433
0.00860081
0.00856845
0.00875332
0.00896945
0.00898648
0.00763032
0.00445765
0.00272508
0.00159715
0.00175107
0.00365112
0.00216994
0.00201021
0.00141351
0.000851866
0.000787136
0.00116967
0.00168233
0.00182564
0.00185893
0.00198056
0.00215438
0.00223311
0.0020213
0.00107771
0.000913245
0.00210782
0.00303837
0.00363576
0.00517666
0.00660273
0.0073039
0.00770066
0.00768611
0.0072888
0.00635124
0.00474054
0.00324292
0.00259951
0.00238108
0.00207066
0.000484409
0.000154747
0.000324728
0.000518837
0.000430679
0.000415146
0.000507763
0.000501372
0.00177742
0.00270779
0.00347497
0.00380321
0.00388878
0.00392334
0.00385583
0.0037562
0.00352109
0.00296214
0.00232634
0.0016891
0.00144092
0.00130335
0.00127551
0.00130195
0.00108399
0.000969927
0.00168154
0.0018952
0.00140605
0.000322379
4.14878e-05
5.47717e-05
6.05967e-05
4.22119e-05
4.40928e-05
4.44324e-05
4.80484e-05
4.77027e-05
4.68466e-05
3.39451e-05
3.9427e-05
4.78077e-05
6.04872e-05
7.64622e-05
8.44061e-05
9.83422e-05
9.05579e-05
8.73212e-05
8.74616e-05
9.50201e-05
7.94586e-05
8.54106e-05
8.36541e-05
0.000104321
0.000111441
0.000106604
9.51583e-05
9.21118e-05
8.95133e-05
0.000105025
-5.40803e-05
5.73954e-05
2.62871e-05
3.36456e-05
4.08153e-05
4.82036e-05
7.16049e-05
0.000233273
0.000308359
0.000420189
0.000366863
8.28786e-05
0.000240183
0.000190604
0.000116848
9.3863e-05
4.39583e-05
8.36513e-05
0.000103553
0.000114341
0.000194468
0.000226166
0.000240719
0.000211617
0.000204327
0.000213992
0.00078291
0.0032736
0.00499641
0.0023806
4.20995e-05
-5.9567e-06
-3.00721e-06
1.18273e-05
4.29288e-05
3.68531e-05
2.73511e-05
1.60355e-05
3.35304e-05
3.11839e-05
2.90457e-05
2.52603e-05
2.28542e-05
2.30015e-05
2.34183e-05
2.65335e-05
2.97529e-05
8.09681e-06
2.16038e-05
3.31458e-05
4.2586e-05
5.37311e-05
7.12565e-05
9.64135e-05
-5.21835e-06
9.65028e-05
9.01772e-05
-3.23436e-05
-1.86703e-05
8.16534e-05
0.000196315
0.000268344
0.000372853
0.000608244
0.00148877
0.0024483
0.00316923
0.00442167
0.00563751
0.00594384
0.00581817
0.00471901
0.00350276
0.00294415
0.00221832
0.00128288
0.000164947
0.000380206
0.000199379
9.70612e-05
1.08554e-05
2.35614e-05
2.75927e-05
4.29896e-05
7.33802e-05
8.88173e-05
8.46542e-05
7.36807e-05
7.75015e-05
6.07599e-05
0.000250651
0.000185462
0.000260041
0.000341521
0.000677514
0.00162737
0.00237007
0.00282307
0.0038178
0.00436972
0.00450096
0.004459
0.00409435
0.00326528
0.00251671
0.00194002
0.00129558
0.000657025
0.000278501
0.000227529
0.000147743
5.57038e-05
3.88716e-05
4.92561e-05
3.36402e-05
1.3444e-05
8.83959e-06
7.02469e-06
1.77713e-05
1.98143e-05
3.23781e-05
0.000105104
0.000183516
0.00066873
0.00186695
0.00343342
0.00620021
0.0071517
0.00674865
0.00493447
0.00238825
0.00162358
0.00062196
0.000181739
9.22616e-05
2.12716e-05
3.70627e-05
3.18008e-05
5.19519e-06
7.84094e-06
5.55208e-06
8.57087e-06
1.1877e-05
-1.21748e-06
5.45506e-06
9.70826e-07
9.88292e-06
9.11977e-06
8.64485e-06
7.91069e-06
1.06915e-05
1.43065e-05
1.46611e-05
1.33904e-05
2.93531e-06
8.15994e-06
8.36528e-06
2.19093e-05
2.81289e-05
2.76471e-05
1.91702e-05
1.6209e-05
1.08356e-05
9.90262e-06
7.59205e-06
1.35004e-05
1.78792e-05
2.50938e-05
2.7352e-05
2.68095e-05
3.19785e-05
5.99111e-05
0.000130705
0.000151837
0.000111032
3.07413e-05
2.66129e-05
2.1266e-05
2.16068e-05
2.14315e-05
2.80788e-06
3.88161e-06
1.46082e-05
7.29309e-06
3.07375e-06
8.38585e-07
4.99827e-07
5.64481e-07
6.37197e-07
9.21447e-07
1.04183e-06
3.11418e-06
1.51267e-06
4.28508e-06
2.72656e-06
3.6796e-06
1.28268e-06
1.07606e-06
5.10724e-07
4.68621e-07
4.10512e-07
1.13055e-07
1.37631e-07
4.19537e-07
8.39239e-07
3.64259e-06
2.07251e-06
6.52619e-07
1.84179e-06
0.000169892
0.0383871
0.0297853
0.0153797
0.0107
0.0107989
0.0112115
0.010897
0.0107178
0.0118746
0.0140431
0.0154311
0.0127117
0.00853848
0.00740617
0.0310382
0.0254856
0.0295947
0.0353404
0.0384307
0.0402137
0.0404857
0.0348479
0.021759
0.0125408
0.0100791
0.0102007
0.0125435
0.0191999
0.0275082
0.0303345
0.0288876
0.0258944
0.0235676
0.0221282
0.0217632
0.0226354
0.0244441
0.0260498
0.0257103
0.0203612
0.0130123
0.0109693
0.0170037
0.030692
0.0131525
0.00879277
0.00763376
0.00928405
0.0100173
0.00591818
0.00201338
0.000291717
0.000308172
0.0012639
0.0017484
0.00273761
0.00604047
0.00793424
0.00785119
0.00812046
0.00858753
0.00877668
0.00852782
0.00834419
0.00829162
0.00842827
0.00877815
0.00901954
0.00826676
0.00561496
0.00316357
0.00181617
0.00178255
0.00361223
0.00225046
0.00206014
0.00146834
0.000777157
0.000545718
0.000801167
0.00118903
0.00116823
0.00108223
0.00135502
0.00187912
0.00222422
0.00215879
0.00128337
0.000892219
0.00222391
0.00313326
0.00398469
0.00564385
0.0071799
0.00782797
0.00820764
0.00810421
0.0077851
0.00699682
0.00549863
0.00345782
0.00278192
0.00245868
0.00213514
0.000567473
0.000517608
0.000463669
0.000519914
0.000417959
0.00040705
0.000536281
0.000958163
0.00224776
0.00323356
0.00380605
0.00396469
0.00397986
0.00399336
0.00391681
0.00387131
0.00382718
0.00350587
0.00287408
0.00211412
0.00169655
0.00146529
0.00135694
0.00133855
0.000979905
0.000979364
0.00158719
0.00185324
0.00152419
0.000380575
3.9048e-05
5.00393e-05
6.35866e-05
4.6256e-05
4.21551e-05
4.06252e-05
4.65672e-05
4.71178e-05
3.43274e-05
2.27624e-05
2.38797e-05
4.40764e-05
6.05502e-05
7.79246e-05
8.46085e-05
9.71373e-05
9.33219e-05
9.36201e-05
9.29583e-05
8.10716e-05
9.59821e-05
9.13485e-05
9.36659e-05
0.000104539
9.80573e-05
0.000113682
9.94114e-05
8.31122e-05
8.9872e-05
9.62428e-05
0.000211039
5.30669e-05
7.97307e-06
1.35716e-05
1.37929e-05
2.16103e-05
5.73832e-05
0.000186542
0.000204455
0.000383811
0.000343338
4.22544e-05
0.000224059
0.000168128
9.2062e-05
2.92367e-05
-3.29361e-06
4.63527e-07
2.2078e-05
8.22885e-05
0.000146734
0.000185159
0.000216943
0.000214329
0.00020379
0.000218851
0.000407334
0.0021409
0.0028034
0.00197254
-2.7811e-06
2.99968e-05
2.99597e-05
-6.03435e-06
3.77444e-05
3.58907e-05
2.58262e-05
6.67802e-06
3.10936e-05
2.67025e-05
2.55909e-05
1.88504e-05
1.83425e-05
2.08161e-05
1.94456e-05
2.18141e-05
2.76138e-05
3.00733e-05
1.64728e-05
2.68737e-05
4.00582e-05
4.92976e-05
6.46161e-05
8.53123e-05
9.84312e-05
8.43984e-05
4.9502e-05
0.000112249
3.81393e-05
9.11739e-05
0.000164586
0.000316977
3.52435e-05
0.00104047
0.00202261
0.00315105
0.00486122
0.00703896
0.00804918
0.00835589
0.00799811
0.00701639
0.00561285
0.00356674
0.00279745
0.00180044
0.00046284
0.000401991
0.000309512
1.95331e-05
5.13442e-05
2.92165e-05
1.95736e-05
8.32369e-05
9.60441e-05
9.535e-05
9.63383e-05
8.54423e-05
7.95201e-05
6.49947e-05
0.000199025
0.000238307
0.000284729
0.000118945
0.00117679
0.00205705
0.00286381
0.00391519
0.00484274
0.00504168
0.00510603
0.00502689
0.00483964
0.00438588
0.0032718
0.00244454
0.0017486
0.000982992
0.000132438
0.000253108
0.000168643
6.36817e-05
5.26009e-05
4.78253e-05
1.43008e-05
1.27016e-05
1.66619e-05
1.22709e-05
1.92923e-05
1.93539e-05
3.14978e-05
0.00011844
-9.94565e-05
0.00159276
0.00367533
0.00813864
0.0121527
0.0137555
0.0141559
0.0124937
0.0081216
0.00427658
0.00185287
0.000657185
0.000170192
7.55551e-05