/*--------------------------------*- C++ -*----------------------------------*\
| =========                 |                                                 |
| \\      /  F ield         | OpenFOAM: The Open Source CFD Toolbox           |
|  \\    /   O peration     | Version:  2.1.1                                 |
|   \\  /    A nd           | Web:      www.OpenFOAM.org                      |
|    \\/     M anipulation  |                                                 |
\*---------------------------------------------------------------------------*/
FoamFile
{
    version     2.0;
    format      ascii;
    class       volScalarField;
    location    "0.006750000";
    object      omega;
}
// * * * * * * * * * * * * * * * * * * * * * * * * * * * * * * * * * * * * * //

dimensions      [0 0 -1 0 0 0 0];

internalField   nonuniform List<scalar> 
12384
(
13173.4
19199
22344.1
24963.3
27414.7
29379.8
30665.2
30944.2
30266.6
28997.6
26847.9
23532.8
18300
11380.6
23800.9
29442.9
32592.7
34191.5
34957.1
35402.7
35917.7
36895.2
38455.8
40517.6
42723.6
45258.1
48733.7
53418.8
59094.1
65403.4
71739.3
77407.4
81602.9
83713.3
83169.6
80160.2
77567.1
74517.7
70732
65645.5
58212.9
46138.9
27644.8
16442.1
33836.8
39143
43081.8
45187
46348.3
46878
47500.8
48240
49361.7
51351.3
54916.8
60915.8
67982.5
75982.6
84268.9
92327.3
98704.3
103144
104090
101677
97729
94483.4
91864.4
88954.7
85203.1
79683.5
70845
56064.3
33991.5
25477.7
37910.2
43765.6
47533.9
50874.6
54769.4
59083.8
63423
67829
72351.2
76451.6
80252.9
84363.3
89858.2
98206.1
108599
119770
131327
142135
150748
155350
153623
145251
137793
130404
121443
107943
85333.3
54266.3
35979.4
37793.4
45943.8
63074.8
76240.2
89023.6
101825
114601
127230
139737
151524
161633
170430
174849
177254
173388
166074
157926
150089
141082
130118
115424
94863.3
68674.4
47123.9
38952.8
35650.9
35569
37117.1
37766.6
36451.2
32807.9
26537.4
32545.5
36444.5
38405.5
39253.9
39875.4
41458.7
45190.7
50743.7
58315.7
67339.9
77746.1
88491.8
99434.1
110181
119644
127162
131223
130240
122690
113409
105997
99845.2
93606
86388.1
76805
64187
49285.9
38027.2
36817.8
21465
24247.9
26821.5
30139.1
36894.9
47014.4
59697.6
73672.4
87896.6
101758
114796
126080
134735
139788
139423
134888
122555
115058
109280
104489
98862.6
91384.3
81127.1
66725.6
47433.7
37512.8
34794.9
32633.6
32039.9
33957.1
24084.7
26424.7
41492.4
60973.1
79700.3
97389.3
113509
127664
138739
146672
149310
147153
139426
133397
128758
124293
119276
112432
102940
90367.9
74013.6
57750.2
45637.9
38656.6
36234.6
35950.4
36052.1
35640.2
34965
34241.5
31339.5
51189
74178.8
93725.3
110092
123398
133340
139183
140018
136317
132711
129807
126218
121795
115677
107457
97034.8
84035.3
69884.9
56060.4
45370.9
38954.5
36864
37346.2
37073.5
35318
32715.3
29713.5
27163.6
25788.7
31550.8
37078.6
41886.7
50103.3
66972.5
85883.8
103581
118548
130732
138820
142803
142461
141055
139225
136204
131983
125701
117186
105544
91604.5
74251.9
56904
44672.1
40885.1
41026.5
41192.4
40161.3
38719.7
37816.8
37998.8
31648.3
39322.5
52676.7
70633.4
88404.4
103297
113618
120570
123866
127583
130190
130714
128639
125042
120025
113409
104471
95108.6
83897.4
71067.8
58485.4
49984.6
48625
49377.6
48889.7
47303.2
45285.2
43351.6
42030.3
40395.7
24012.3
24513.7
30187.6
36552
43871.1
51240.5
58384.7
65458.6
73245.9
82287.8
91887.2
96116.4
94713.2
89924.5
83149.6
75716.1
67940.1
62265.7
59461.6
58871.2
59746.6
61119.1
61439.4
62849.5
64099.8
64391.5
63019.3
59506.4
52591.9
39617.4
12426.7
15525.5
14260.4
12152.9
11434.4
16648.4
32584.3
52956.2
69771.7
79292.6
86119.9
91554.4
96309.7
101562
106614
107201
102162
94456.2
84278.4
73229.2
60968.4
49914.9
40544.4
34209.8
29744.3
25432.8
20256.1
14343.6
8446.51
3699.78
18998.1
60366.8
76283.2
92135
107954
122523
134939
143664
146435
142021
130323
112700
89715
21561
24770.9
91250.8
105143
114182
120393
125516
130372
134556
136333
135711
134912
140522
160523
196272
243019
296427
353137
409609
461692
504733
534293
545879
536036
508476
466447
411273
345174
268825
181358
35668.6
37205.9
141558
175178
199928
215195
218927
211783
200469
193807
194919
208447
237024
281342
337999
403902
475346
546991
613332
667767
704244
715804
701073
667602
616668
552181
476797
391826
299786
205240
46848.8
44018.9
185155
238125
285606
324816
353567
369431
371695
358045
337902
318966
308043
313060
346445
405562
481451
569415
664851
761576
850450
921811
965832
962371
919604
845788
742923
608487
441360
250471
49031.8
39282.7
150068
206700
278897
351989
429999
514506
605604
701393
799030
894245
980903
1.05182e+06
1.10152e+06
1.12308e+06
1.1075e+06
1.06459e+06
994549
903270
792068
657802
497858
316599
165362
135002
140084
139697
134986
120148
38523.4
29552.6
92900.9
107280
118306
128575
141757
158912
179086
200409
229393
270177
325831
394842
475773
566480
662203
757145
843895
915034
964318
979203
952565
895207
807039
694507
556705
403455
255180
142691
43174.5
22979.6
64516.7
81340.7
112386
155953
208689
271248
341124
416611
499081
587525
678865
768804
852243
923243
976034
1.00573e+06
1.00247e+06
967142
908230
826060
722866
598673
451944
297328
167778
97366.2
84380.2
88879.2
38692.1
30571.5
118637
214936
314665
416638
522713
633373
745904
855509
955794
1.03839e+06
1.09547e+06
1.11981e+06
1.10291e+06
1.05203e+06
973414
872200
753432
620934
480617
344687
226500
157703
146811
154993
151587
142134
131743
114783
37396
41706.4
244425
385059
510150
629709
745432
854961
951439
1.02743e+06
1.07388e+06
1.07578e+06
1.04249e+06
973598
878677
757963
617521
469082
339645
248997
203809
191935
199271
202628
193298
176539
156331
133365
108619
85570.3
30669.4
31315.8
80641.4
115278
214673
340994
465020
580420
685632
778934
855859
911566
941655
934376
899100
839012
759984
665467
560255
453591
349327
268631
228149
219187
215354
202888
183444
162290
140432
115503
39713.1
32584.8
162973
313241
463068
598990
718278
817346
891564
930629
933758
902670
844768
759726
657851
543529
437967
353534
296659
274172
270568
275875
275501
261875
241024
217789
194569
169228
142190
116897
41616.2
29984.5
72609.4
128191
231004
349071
457557
545752
610011
648944
658113
632243
582987
519347
451039
384631
325668
278193
249590
247761
265492
295181
328782
358223
371359
365049
342990
306934
259637
203913
52285.9
20224.7
83050.9
88941.1
89637.3
89566.9
109887
183160
288917
395306
491288
568132
623912
655868
661726
633814
585246
523616
456185
388203
323010
262232
208234
161954
124892
105988
97612.7
86159.1
70082.7
52411.7
4382.85
23440.7
75818.4
95728.1
112086
125521
136033
144138
149550
152440
151690
145661
133508
115090
26482.6
26216
106208
112870
119071
126606
134784
141865
146267
147413
148929
155536
175425
212805
260168
309833
356675
399845
439548
475392
505581
527274
537889
535171
520365
494142
457084
407360
341378
255075
48904.6
39267
166434
183329
189433
187992
184312
183646
192491
210127
234584
267318
308784
358591
412901
468122
522469
574394
622137
662658
691777
705101
700395
680255
646674
602242
547167
477786
391336
289385
62124.1
47770.6
232036
273451
307743
333692
350916
359378
360069
356168
353976
357845
370490
395883
445020
508976
576092
639807
700050
758658
814848
864861
903331
919335
912060
884828
833822
745369
604017
406672
68401.6
45371.4
178514
254229
342014
427634
508971
585601
658855
729959
800145
868278
932012
986089
1.02767e+06
1.05151e+06
1.05519e+06
1.03917e+06
1.00786e+06
963465
904012
816364
686243
510011
310277
167357
132176
136703
146115
140865
41974.8
32575.8
108073
113955
120295
132668
153128
178087
204796
235788
277311
329129
389761
454403
520574
587894
655723
723221
787834
844787
889255
913778
912909
888159
844198
777357
678779
542938
382836
230975
52616.2
25331.5
78382.8
99357.4
140410
196399
263707
336334
407886
476298
543311
609600
675552
740907
803448
860002
905544
938874
952936
945603
919642
877962
817854
731027
608413
455837
296958
168211
97473.1
92438.5
40393.5
35735.4
183467
298622
408900
514213
611632
701467
784150
860962
931233
992131
1.03997e+06
1.06942e+06
1.07193e+06
1.04979e+06
1.00708e+06
946260
867557
766633
641055
498167
355464
235201
160957
129281
123125
134921
142454
131117
39055.7
57014.1
371373
529387
643529
734039
811008
881649
946166
1.00142e+06
1.04096e+06
1.0566e+06
1.04651e+06
1.01253e+06
956759
876507
767233
629353
481568
352446
260072
208366
183416
174405
172606
172955
169432
154979
128770
99882.5
33020.4
33686.9
97689
184807
335384
481688
601400
695986
772836
836502
888860
927472
949671
951296
934274
900524
850693
783659
697147
592967
479079
364700
280070
227749
197235
178189
173941
172241
161870
136981
41162.8
38602.4
329209
525234
664473
771934
860761
935625
994164
1.03105e+06
1.0415e+06
1.026e+06
987145
925061
837515
726284
603112
486007
391435
321743
285167
264696
253362
247546
246180
244888
234978
207420
167369
133319
43962.9
33947.1
121653
224459
354195
473327
563437
622471
656267
670679
666574
644271
609060
566386
520141
470603
418633
366851
322797
298666
293496
299365
312787
330317
345425
351177
345865
327807
295864
250976
58586.5
25153.1
98005.5
83662.2
87162.6
124608
201749
313248
432045
534182
609310
656094
679396
685239
675319
649729
613936
572261
525360
472067
410764
342373
269031
200751
136847
87005.8
64571.6
59799.9
59164.7
57132.2
3153.68
26192.1
91040.9
113185
128352
138083
143465
146122
147838
149755
151367
151436
147712
137657
30377.3
28582.5
121662
119802
121558
128484
136736
142994
146189
149073
158024
178752
217981
269742
323972
371011
406474
431908
450794
466096
479429
491166
498933
499291
493385
481394
462773
434020
387360
313959
58158.2
41265.1
185803
183997
171825
158157
153466
163858
191565
229054
272325
319910
373553
429794
482299
524992
557253
582532
604687
625944
644786
655583
655666
644971
625403
599031
565076
518148
450082
357409
72787.2
51503.2
271818
291694
305952
315823
322232
326555
331465
341149
360438
389760
426792
471558
534318
604053
664649
704080
724619
735388
747012
765455
791202
814424
831051
841104
837469
801229
703692
527265
83650.2
60538.2
208547
293418
391730
485478
569212
638788
693911
737940
775773
811902
847399
880662
909768
930575
940895
940726
934974
926481
912169
876224
792981
646499
447029
254015
142558
128067
149349
156324
44195
35646.5
123035
120774
123302
137841
162893
191515
223075
265105
321565
386961
454866
517091
569390
611400
645393
676403
708245
741703
774439
801308
813667
813543
802741
776895
722366
621350
474568
311100
62003.9
27708.8
95078.6
119623
167272
234508
314045
394906
469382
533093
584994
626355
660549
692587
725758
760196
793985
825764
846740
855331
853469
842603
819792
773530
689127
561783
406558
254442
142807
101243
40442.1
39997.7
240967
366935
487031
596521
684653
749944
795434
829767
860571
891419
921430
946624
958317
957838
945545
921197
884040
825335
734849
610966
467881
330577
219251
146238
121428
142756
154770
140293
39878
73287.6
489348
643292
731118
782282
813678
838998
865836
895017
923684
944746
952766
948772
931243
896090
833354
732358
598247
456111
334615
249223
194193
167341
169113
182367
189835
177452
146767
111077
34295.2
36120.8
133126
276566
454351
594938
690240
749309
786649
811224
832018
850966
867997
876538
875610
866137
847649
816785
765757
687302
583204
466246
350482
263243
205849
184887
190758
193969
182324
152597
42245
49712.2
529590
712919
806762
864394
908076
949210
988168
1.02043e+06
1.03754e+06
1.03893e+06
1.02314e+06
988215
932002
848440
739887
618311
502674
399898
322870
275375
248736
245652
261686
280253
280119
247704
191611
143421
45747.1
39487.3
181264
307991
441843
545959
609155
638719
647896
646449
637238
621432
605909
590774
571072
541094
498150
444114
390071
349971
322484
301620
287951
284794
292915
304436
315229
319537
311582
288043
63142
28264.1
109090
88768.3
121765
194792
301482
425384
539059
618584
661361
674609
670712
659226
643203
625002
610720
598066
579662
546081
490741
414653
324261
237411
156528
89990.5
56743.1
50817
55760.8
59863.7
2431.17
27854.9
105206
127772
140887
146658
146173
142073
138548
138966
144223
152626
160014
160720
33666.4
31110.7
139310
128456
123451
127184
133477
138027
140935
148041
167552
204848
259428
319302
374895
415403
437716
444745
441683
434413
428577
428189
432793
439138
445937
451408
453569
447890
423901
368570
64762.8
42902.9
204953
188522
160017
134594
128704
149200
192629
246151
304437
364261
428163
490705
540107
567716
574129
567680
558655
555659
561678
571702
580340
584820
583197
576225
563600
540305
495061
419915
80826.1
54770.8
311792
308633
300314
291379
284940
284058
293349
317702
358972
412956
472331
533541
605905
680782
736907
755345
738087
697187
654209
631499
641331
674842
720821
770864
813608
827134
774860
627562
93266.5
76271.2
232330
324465
430420
530937
618106
682808
721839
738988
741764
739822
739717
746507
760154
778515
796833
814077
832868
855364
878318
886380
849196
739487
556290
349000
186900
125238
147726
166442
46014.8
38607.9
139199
130405
128739
143261
168773
198129
234063
287045
357313
435208
510484
572150
614399
634571
635398
625121
614130
612951
627435
654962
684914
712920
735448
747363
732253
666379
541026
380843
69548
30076.9
115186
140477
192329
267521
356155
445113
523641
586214
626146
644309
644809
637384
631325
634177
649629
676207
707131
734686
758010
775796
784374
772668
724424
627191
488578
332177
195874
119612
40166.4
45364.7
287019
421121
552149
667156
746715
787271
792454
777964
760014
751126
755351
773110
795697
818643
837980
850798
853087
835042
782542
685910
554293
411629
283513
186662
147872
163227
165660
142918
40768.8
89274.9
588043
722644
778943
789669
775122
753945
739353
737587
751235
776287
805602
834151
856870
867489
852781
794570
686157
545813
409768
302721
226802
187670
190712
207385
214029
195670
158642
119148
35340.6
38708.5
184648
370364
552884
671709
732793
750946
744345
726926
711263
704872
712571
729432
751110
774087
793846
804194
793992
749407
664874
550911
424293
309331
234758
214817
226106
222145
198712
162429
43372.7
68277.4
706616
844495
879344
880259
872929
872105
883240
907629
935920
959757
976217
979043
962823
919072
843287
736833
616016
493716
383624
305812
259296
251355
277754
312433
321466
286768
218745
152173
47475.8
45347.8
238778
374478
502791
587495
623262
623051
605208
582838
565448
558761
568953
586878
596970
588010
555812
501999
441847
392651
350943
306114
263118
230822
223474
240030
271785
304094
323715
322639
66028
30318.5
119611
115626
170882
264507
386813
514367
613192
665057
673913
653500
621321
590641
569340
563829
578405
601921
617994
608677
562372
479802
373452
269437
175170
98389.2
57894.4
50612.9
56600.4
61053.5
2198.87
28674.4
116720
139035
149999
151310
144518
133209
123272
122014
132813
152227
172422
184210
36380.2
33600.9
157928
139019
125229
123767
127279
130236
133857
146639
177662
229021
292502
356001
409947
443156
453390
444095
420412
389931
361961
346015
347498
363331
387726
414526
439465
457193
456073
419876
68757.7
44135.5
220618
198169
157368
120045
110807
137977
192480
257968
326902
396628
468630
536478
582239
594408
574701
534394
490017
457994
448422
459490
482038
507487
528912
544669
554093
554137
532565
478350
86482.8
56411.7
348527
326599
296638
267457
245730
237784
250276
288084
349066
424465
502332
576437
652870
732040
786226
789539
742420
654126
550874
475657
467011
519526
603789
698012
786253
843875
831400
711327
96098.5
87442
248578
347295
459337
566188
658407
721106
747889
741819
711039
668404
624423
594317
585447
599771
629982
669655
716961
771678
828170
873370
875464
800102
637177
428969
244025
140865
144974
172698
47942.4
41535.1
153995
142250
136149
148023
170984
199243
238696
299573
380261
467921
549605
612349
649283
654603
629924
582384
523468
474109
460333
487596
540002
601505
659843
706847
726259
690870
587463
438143
74091
32624.1
138257
159875
212168
291724
387288
483599
566804
630493
664102
665279
637350
591248
539591
497323
483368
502705
544812
596493
648708
695788
732992
749967
731404
661862
542933
391552
243177
142963
40217.9
54359.1
321112
462563
605155
726550
799670
818886
787465
725874
655898
597484
565874
569664
602526
652531
706919
758037
797894
816451
797514
727588
610714
468135
327937
218055
172096
176882
169419
140189
41779.5
105258
660905
771426
801154
777860
724167
660081
602413
562731
554297
580767
631238
695590
759812
814868
844184
825541
744533
612553
468226
345911
256635
212199
215229
230361
231574
204239
161157
121949
36387.3
41995.8
244089
453697
629066
723245
752810
734357
688041
630255
574980
535431
522703
543962
591566
652900
715664
768909
799123
788384
724555
614551
477300
344316
259963
241668
250572
238881
205869
164908
44875.5
97570.4
842287
924423
904160
852894
797159
751875
726884
730624
761681
810495
864547
910862
941530
944778
910023
830854
717187
584629
453414
346877
277910
257790
287437
334289
354088
322978
249788
168252
50260.2
50585.1
289813
424567
542697
607900
617717
587430
537253
485998
454141
458189
500784
557084
597970
609135
587825
535349
471173
418105
370690
315872
253716
193237
157149
176367
235173
295563
336719
350466
66598.2
32187.4
130872
144862
212954
319556
452155
577062
658408
683075
659504
605521
541875
487621
460200
474567
526219
590399
641829
657374
621562
534097
414467
295969
190908
106791
60706.9
52217.8
57958.1
60744.2
2236.4
28916.3
125722
147281
155651
152434
140033
122358
105995
103139
121382
153219
185820
206623
38161.3
35840.5
174184
151981
127908
118718
118638
120501
125954
145121
185895
246209
313459
377737
429081
456708
458250
436548
395632
342761
289857
253017
250375
281858
329820
380521
427894
466585
485271
465276
69311.2
45539.8
225598
210204
165495
117961
100848
129488
189794
262443
337927
413548
491585
563820
606780
607072
565634
495231
415843
350041
320551
334890
376970
427726
474188
513042
543756
564925
564816
530355
89111
55440.5
377002
346148
300125
252142
213836
196895
210512
258538
334178
424812
515000
594588
671077
753184
808997
805845
741316
620422
464946
331638
303263
385447
510573
645170
770918
862095
877505
774823
90610.6
92992.4
259296
363389
478669
591483
689870
754045
774204
752145
695215
616106
525426
445748
399716
406460
456822
528440
608294
694019
779803
854700
887168
838992
693027
487223
293948
168517
147714
177508
51106.2
44565.9
165931
155326
146004
153596
171896
197132
237053
301849
388775
482873
569351
634270
670083
667782
628558
556936
458591
356361
304883
331642
409578
503005
592984
668344
713599
701374
618907
485678
76457.5
35326.7
161904
175308
223640
304477
404931
507245
594884
661065
693653
687363
643019
569064
476256
380173
320801
330962
390473
467810
546738
618916
678734
717640
720791
673716
573662
430997
279619
167573
41029.5
68079.7
344157
491980
644107
771286
841354
846902
789620
693264
579505
468885
386039
359936
406312
489789
580880
667915
739627
787334
794068
745905
641300
497998
347590
228543
176496
174487
165675
137261
45853.8
122560
708938
799733
814000
767477
685361
588438
492282
409880
364223
383513
457930
560183
664889
758055
823205
835584
776355
653259
506401
375165
275240
224494
226986
245773
246463
212939
162821
122761
39333.9
48481.4
316961
532499
696657
772331
779863
736164
661115
570938
478435
397364
346840
359011
431663
537181
644596
737144
800565
816356
767367
655550
506785
360696
270550
253621
266790
260177
223842
170601
48712.8
138585
932444
966044
907127
817411
722564
634817
567140
536604
557554
623476
714296
809471
889115
938780
946026
897357
798184
663503
519059
391298
299116
261893
288922
344875
376192
353976
282724
193988
57001.4
54384.3
331582
459345
565704
614636
603715
547133
465145
379495
322930
335954
416474
512068
579827
607126
594792
543304
475569
422026
377522
326661
266596
203762
158074
173650
236066
300952
347510
363066
65439.1
34555.9
139856
166511
240909
356276
494805
615270
681153
683795
633128
548342
450415
365458
329504
377606
474311
576406
656964
692292
664892
573607
444996
314806
202221
114378
64808.1
54864.1
59584.9
60207.6
2780.6
28698
131335
151914
157465
150499
133812
112419
92966.5
89887
115387
158380
200265
225213
39218.1
38090.4
184912
166723
134185
113994
109235
110417
118577
143131
190189
253688
321328
384568
433871
458553
455583
427607
375966
306550
230899
168324
158454
212858
286836
358963
424253
478726
511208
501151
65400.7
47118.8
222879
220732
180958
129581
102897
124789
183306
257632
335455
413459
495335
572175
616048
610833
556113
466469
361287
262471
203596
222185
289295
364413
431906
488876
536841
575211
592617
572741
87952.9
55980.3
385148
364138
314307
256543
204797
177440
188893
240729
320681
414947
507656
586624
660438
743527
803971
803660
736976
608130
435582
271950
223778
321444
468917
627473
775174
884447
911419
810321
77312.3
94114.5
271398
375087
490395
604757
707730
776772
797996
770380
701393
602203
481099
358092
263454
248500
319994
421528
530811
642006
749492
843950
894218
861535
725003
520095
328510
195378
157889
186329
56673.2
47725
173371
167490
156403
159125
171651
192359
229952
294727
383387
480020
568937
636310
674213
670992
628880
551480
442346
315153
230840
245689
333606
443207
550309
641948
701066
702865
635988
517739
73736.3
39179.3
186031
186632
225159
303546
406184
512052
603438
673688
710558
705430
658353
576920
468663
340632
233294
225785
291444
382812
475823
561482
633940
685252
699651
666535
580905
447762
300152
190677
44413.5
81993.4
357972
507998
664422
795636
867327
869699
802541
692185
557472
414077
280218
189898
247144
371042
494028
607144
699286
764609
785949
750161
651086
503201
343249
214695
161092
182291
198433
182075
63166.3
143843
735395
818243
829072
771569
676781
564221
447102
332592
237705
220661
318577
461693
598578
717026
804273
834418
789384
673247
526051
388196
278763
226169
237162
276594
297544
279899
232387
172839
50092.9
74296.7
427959
623752
768723
833142
831082
776292
688018
583521
470791
360116
267794
246101
329016
476247
616805
733790
813708
840484
795814
680368
522365
369094
282822
287096
338008
366840
343946
266177
68073.4
188515
973910
981249
907330
799641
683564
565059
457503
379603
369116
439396
561510
703559
826287
916338
958281
937757
855578
724559
573697
433084
321362
265211
283305
344788
387474
378695
314845
223750
65129.8
56667.6
362007
478559
573932
612190
590554
519309
417662
306464
221515
237253
349191
470216
552626
588686
580484
528166
456466
404070
369466
336163
299312
262406
237946
239111
271170
314335
349200
354429
63639.8
39215.5
144964
176266
255041
374981
516219
633421
688723
678102
610706
504250
376797
254415
207655
312040
448933
574631
670392
715527
690868
598180
462143
323732
207256
119926
69989.4
59258.7
63058.9
62658.9
6061.65
28141.7
133377
152991
156578
147316
128566
106729
89590.9
90671.1
120642
168238
212899
235949
169456
50427.1
49547.2
148718
198169
184717
149567
117818
104512
103563
113141
140493
188572
250728
315076
375741
423946
450071
448466
421231
368790
296093
213203
139468
126047
191994
276483
357443
430875
491985
528414
517418
291051
55821.1
53394.2
155664
223503
228590
199013
151111
116752
126385
176353
245762
320200
396143
479942
561074
610196
607182
551787
460515
351354
240478
154982
165820
248123
334351
410755
476951
535298
584825
612203
597499
370199
70797.7
66722.7
244395
383258
373001
333067
282514
232588
200864
204144
247085
317056
400985
484893
555227
621404
703582
771386
782547
728745
618201
472471
337389
284915
353203
487955
645021
793536
901417
923207
814616
358944
74233.2
80151
248553
293278
383092
491666
602666
707339
783155
812357
791607
728512
633486
514499
388269
278889
237337
291964
393118
509754
630404
746384
845588
896405
865934
730889
530950
346342
218212
180014
202962
213895
58239.2
57554.6
167227
200411
194008
179027
172461
175999
189750
221312
280521
365373
460108
548084
616911
658888
661972
626703
559128
466511
360523
278675
267644
332531
430713
535572
627110
686976
692269
636600
532391
299047
60874.8
58787.2
192812
213475
200322
223451
292631
392021
497039
589366
663775
710016
714782
676038
606043
511873
403602
306722
269434
299148
370271
452883
533157
603147
653958
670684
643427
565715
441522
307970
231177
200989
74814.2
83542.5
257490
362118
505585
660215
792992
871831
881565
821784
720045
594280
458279
326220
229651
249741
358194
478835
593653
688635
756026
779055
745018
645425
493907
331194
222949
246281
329694
391072
409044
346225
100467
122596
582549
747426
834032
849120
794630
705155
597611
485667
373261
275841
239032
311683
448488
585326
706002
795972
828495
788152
676353
532212
393882
283926
233875
259527
337334
412063
457200
471027
444306
346212
99768.6
120957
502654
581999
724083
848555
908434
906236
853861
770232
671877
564561
459745
372622
342222
398998
522612
654583
767105
841703
864008
815820
696115
537399
394821
333096
371619
463754
539488
566178
534420
416683
109708
134544
844866
970621
984980
921608
818788
703727
578221
456234
347820
296850
342043
468975
638124
784825
896464
957080
956163
889383
764989
613948
467861
342145
267066
269718
331020
385884
393174
342611
258118
180125
51159.2
53496.5
232570
378380
481501
567943
602021
580308
509847
409848
303095
225025
239982
339615
449083
525838
560723
551040
495799
418956
367470
346323
336942
329517
319675
309125
301744
306499
320711
334230
330070
211988
47907.4
43912.2
156481
163399
179109
257307
379308
520112
634849
685831
671870
601313
490587
357378
228983
207395
328285
466426
590257
683814
728319
700578
603468
462158
319889
204029
121521
74779.7
67260.1
72044
71860.7
49301.9
8349.33
3373.82
27373.3
130794
150321
153899
144477
126032
105997
92492.8
97844.9
129083
174454
215008
234543
208349
135109
130041
176207
205803
200134
169182
131624
108138
101933
110988
137995
182786
238279
295653
352795
401251
431234
436310
417916
376946
317959
251780
198689
188614
231896
300294
373222
442209
499184
529494
509681
358058
144212
129640
172878
215186
228892
213196
175768
139944
136074
171458
229058
293823
363092
446816
532161
590561
598959
556946
481849
392306
303696
237243
227667
276506
344234
411992
475823
535807
588216
616980
600289
451001
183026
167718
286925
360357
364434
346094
318584
288185
264806
261007
284779
331219
391171
453909
506457
559090
638319
714943
745553
719208
644140
541743
448525
408005
446564
549572
682886
812113
901845
909123
791786
468056
189578
199881
239822
276407
369725
472228
576772
682019
768222
814090
812532
770749
699706
607644
509470
422467
376574
392744
460696
556153
663489
768216
853810
890138
848386
709904
516327
342443
226003
190323
203461
217549
196524
194900
210589
227089
226852
212943
198169
190486
193726
214874
263328
338467
425952
509087
577096
624874
639451
618564
570967
506508
435603
377766
356877
388641
457141
539791
616165
665609
669012
618579
521290
365888
183790
179226
237440
216758
193609
205579
267057
360711
461265
551736
629275
686527
708567
689770
642448
577798
506152
440419
399320
394919
426014
477684
534982
587535
625221
633736
604321
529019
412719
305323
260786
257448
219841
218626
249980
341116
477580
626662
759595
850313
878376
842429
767857
673474
572970
481001
418777
410660
462512
544634
633718
710669
763739
776304
735126
633777
487910
340963
253808
261334
308266
347477
365885
368253
370870
428593
603403
750958
847792
874021
835856
764964
678596
590930
506796
442031
415070
446728
529009
629077
725684
797309
818391
774637
667692
531431
397834
289573
234871
253570
334908
427816
501475
550405
574284
577996
565096
536127
525154
616218
770471
904375
977934
990063
954686
891404
815429
731530
654374
591907
566303
591596
662665
751805
832749
882981
885777
824685
700452
545497
406280
323221
308930
355641
422314
467313
482042
479512
488708
574882
846516
967829
1.00569e+06
962510
878501
780665
673580
569600
475479
422338
435337
516871
648678
778423
884722
947397
954876
898515
781795
636843
491718
358851
266831
247326
299271
365370
390318
355878
278475
203568
156923
164904
285444
373117
463634
543783
578522
565038
510917
434146
358105
312271
325134
385033
455748
508729
530486
513123
452978
370570
318461
310003
322910
339555
348013
345169
333410
319425
306837
295613
280909
236340
188102
187503
190899
179548
194694
267331
382596
515310
624831
676725
668999
610100
516904
412271
334090
343024
425403
529913
628517
702987
732588
693257
587118
442409
301226
191498
118999
77214.2
70997
75171.8
73396.9
59974.1
28431.5
2622.76
26434.3
123290
144399
150567
143247
127878
111426
102057
109345
137567
176032
207887
219485
198233
128512
122712
169188
200966
203661
180693
146344
118864
108233
115487
139564
176430
220012
265254
316689
366528
403396
421165
419532
399265
364455
324109
291735
281953
302482
345588
398836
452391
495437
512344
479714
345102
133337
120864
159236
198912
221523
219854
196161
166139
153910
172345
212184
260788
317776
398213
487715
559153
588282
571076
522655
461546
402440
357226
337329
350323
385945
432265
483451
536252
583582
608021
584334
449375
179901
161461
257859
311927
333838
343554
346845
344879
340187
337888
343463
361215
389403
421624
447757
480385
554318
640512
694987
704125
672191
615787
561235
534789
553868
622458
719536
816019
876445
862482
736430
474128
191252
178907
203966
250203
339195
430767
525446
629620
728500
798039
826668
818986
784696
732516
672278
615277
576740
570329
600333
657830
731547
805509
860377
868764
805168
659559
473440
314794
216659
191443
201589
210685
197877
198276
217958
241071
251870
245521
230230
215893
208942
216874
249469
308529
382187
455117
519362
573408
603507
603868
581182
545787
505799
471287
453520
462285
498886
551017
602333
634173
631157
585736
499074
373168
198046
181585
229204
205420
182556
188966
237438
317229
408770
493571
571788
639039
681308
689376
670875
638019
599112
560882
530201
513454
514318
531744
557307
581978
596788
588833
550707
474967
373139
297390
274150
275984
237167
214964
226149
304345
425767
563510
695299
800244
856249
856796
821207
768577
711318
659766
622594
608767
624588
663059
712220
756041
781422
772674
717806
614100
478470
349576
268104
246133
252829
262681
268456
278522
312491
406300
570673
725435
842039
892664
883538
841606
785834
729876
678298
637439
616020
623040
658779
711640
767762
806119
804685
750443
646693
519250
393003
288561
226202
219949
268555
337707
398180
440928
462917
464557
449727
433399
460779
587862
761448
919250