/*--------------------------------*- C++ -*----------------------------------*\
| =========                 |                                                 |
| \\      /  F ield         | OpenFOAM: The Open Source CFD Toolbox           |
|  \\    /   O peration     | Version:  2.1.1                                 |
|   \\  /    A nd           | Web:      www.OpenFOAM.org                      |
|    \\/     M anipulation  |                                                 |
\*---------------------------------------------------------------------------*/
FoamFile
{
    version     2.0;
    format      ascii;
    class       volScalarField;
    location    "0.003550000";
    object      HO2;
}
// * * * * * * * * * * * * * * * * * * * * * * * * * * * * * * * * * * * * * //

dimensions      [0 0 0 0 0 0 0];

internalField   nonuniform List<scalar> 
12384
(
3.21545e-05
3.08279e-05
2.91427e-05
2.71928e-05
2.87719e-05
2.7942e-05
2.61077e-05
2.23596e-05
1.53743e-05
1.00457e-05
4.83489e-06
5.76009e-06
4.21229e-06
4.16859e-06
3.45253e-06
3.596e-06
4.16848e-06
4.61732e-06
5.30343e-06
5.6692e-06
5.62955e-06
5.91384e-06
5.68067e-06
5.90544e-06
5.82681e-06
6.15785e-06
5.99673e-06
6.75717e-06
6.60786e-06
7.60391e-06
7.29842e-06
8.4247e-06
8.14269e-06
9.72776e-06
1.07586e-05
1.27242e-05
1.18263e-05
9.31009e-06
6.67285e-06
4.78574e-06
4.20869e-06
5.81357e-06
4.97558e-06
2.53238e-06
5.1461e-06
5.23447e-06
5.43934e-06
5.48448e-06
5.53492e-06
5.56375e-06
5.70698e-06
5.71101e-06
5.72683e-06
6.38199e-06
6.56745e-06
7.45051e-06
7.87233e-06
8.19565e-06
8.31289e-06
7.20226e-06
5.22013e-06
4.21736e-06
4.10077e-06
3.46092e-06
3.74638e-06
3.59334e-06
3.54958e-06
3.52159e-06
3.0119e-06
3.35148e-06
4.31472e-06
5.79481e-06
4.94685e-06
5.25135e-06
1.46949e-06
1.3711e-06
1.2661e-06
1.2374e-06
1.28104e-06
1.41078e-06
1.8876e-06
2.568e-06
2.99982e-06
3.47001e-06
3.63873e-06
3.84394e-06
4.0434e-06
4.29365e-06
4.59075e-06
4.77663e-06
4.83508e-06
4.92545e-06
4.93794e-06
5.03719e-06
5.06843e-06
5.32844e-06
5.43655e-06
5.65076e-06
4.82514e-06
1.29447e-06
7.48171e-07
1.0991e-06
5.00474e-06
5.97097e-06
2.32708e-06
1.29049e-06
8.71145e-07
5.74915e-07
5.60959e-07
6.55305e-07
9.23516e-07
1.02798e-06
1.30934e-06
1.2625e-06
1.32843e-06
1.06594e-06
1.0527e-06
7.85888e-07
7.50259e-07
6.23573e-07
5.70793e-07
5.85272e-07
6.76408e-07
7.62224e-07
8.99254e-07
1.13452e-06
1.50446e-06
2.9686e-06
4.09381e-06
4.22687e-06
4.70473e-06
5.74139e-06
5.44746e-06
5.5406e-06
5.33605e-06
5.51972e-06
5.6456e-06
4.98967e-06
3.80954e-06
3.66108e-06
3.24165e-06
2.14545e-06
1.0725e-06
4.47122e-07
1.83225e-07
1.41978e-07
1.09587e-07
6.90641e-08
5.52813e-08
4.45454e-08
4.95237e-08
4.12164e-08
5.18956e-08
4.42795e-08
4.56907e-08
8.81373e-08
4.80881e-08
5.02549e-07
2.30248e-07
1.30325e-06
4.20715e-06
5.71371e-06
4.23862e-06
5.38585e-06
6.77285e-06
6.72918e-06
6.0931e-06
1.14136e-06
1.30424e-08
1.86721e-09
1.50195e-09
1.07469e-08
4.67259e-06
5.14165e-06
3.61833e-06
3.4508e-06
3.5681e-06
3.98947e-06
4.33556e-06
4.67339e-06
5.04381e-06
5.21503e-06
5.51711e-06
5.50131e-06
5.17851e-06
4.63022e-06
3.88176e-06
3.43571e-06
2.3664e-06
2.27255e-06
1.97771e-06
2.30551e-06
2.96474e-06
3.30932e-06
4.27615e-06
4.3639e-06
4.83178e-06
5.14808e-06
5.7698e-06
5.9127e-06
6.10182e-06
6.07304e-06
5.74462e-06
5.8456e-06
6.10316e-06
5.3095e-06
3.04195e-06
2.16911e-06
2.48221e-06
3.32572e-06
4.7001e-06
5.43195e-06
7.94548e-06
6.01678e-06
5.40702e-06
5.23659e-06
5.59316e-06
5.4793e-06
4.3528e-06
3.09448e-06
2.47637e-06
3.00068e-06
2.9198e-06
3.42431e-06
2.91378e-06
2.51696e-06
2.37812e-06
3.97945e-06
5.40278e-06
6.76612e-06
6.02596e-06
7.04685e-06
7.24888e-06
6.05978e-06
6.00191e-06
3.1317e-06
3.98239e-06
3.51252e-06
3.53277e-06
3.57377e-06
3.57599e-06
3.63045e-06
3.68288e-06
3.75138e-06
3.83567e-06
3.94223e-06
4.05764e-06
4.29369e-06
4.53758e-06
4.95356e-06
5.36197e-06
5.74156e-06
5.7667e-06
5.63478e-06
4.61532e-06
3.86755e-06
3.54905e-06
3.49068e-06
3.92145e-06
4.73728e-06
5.27372e-06
5.51369e-06
5.99153e-06
6.07497e-06
6.02614e-06
5.55682e-06
4.9949e-06
3.76082e-06
3.12488e-06
3.22758e-06
3.04511e-06
2.67622e-06
2.57373e-06
2.37075e-06
2.38347e-06
3.18206e-06
4.34806e-06
4.92858e-06
6.07342e-06
6.93639e-06
7.20699e-06
6.58814e-06
5.56867e-06
5.14949e-06
1.94277e-06
1.92396e-06
2.04151e-06
2.18872e-06
2.40965e-06
2.60361e-06
3.04471e-06
3.28643e-06
4.11074e-06
4.64921e-06
7.35437e-06
7.26197e-06
6.54359e-06
4.31106e-06
4.27839e-06
4.03192e-06
3.94355e-06
3.96904e-06
3.89348e-06
4.10977e-06
4.56386e-06
4.73001e-06
5.15613e-06
5.08611e-06
5.8837e-06
5.91598e-06
6.5092e-06
6.52008e-06
6.72946e-06
6.60885e-06
1.95247e-06
1.89387e-06
1.82527e-06
2.03297e-06
2.16536e-06
2.30768e-06
2.43599e-06
2.61302e-06
2.89972e-06
2.83404e-06
3.31085e-06
3.29065e-06
3.72139e-06
3.66225e-06
4.08151e-06
4.38891e-06
4.44451e-06
4.58114e-06
4.5009e-06
4.61185e-06
4.488e-06
4.52657e-06
4.28806e-06
4.4322e-06
4.48195e-06
4.60489e-06
4.83622e-06
5.4274e-06
5.61254e-06
5.73155e-06
1.23158e-05
5.90546e-06
3.60521e-06
1.85144e-06
2.40324e-06
1.82541e-06
1.98171e-06
1.9499e-06
2.12607e-06
2.28983e-06
2.51101e-06
2.85255e-06
3.30838e-06
3.76243e-06
4.12884e-06
4.67443e-06
4.70179e-06
4.64601e-06
4.69148e-06
4.39555e-06
7.02554e-06
1.69116e-05
2.22283e-05
2.48514e-05
2.39487e-05
2.31836e-05
2.28287e-05
2.47521e-05
2.87965e-05
3.20102e-05
1.46592e-05
3.48226e-06
1.88698e-06
1.58396e-06
1.68691e-06
2.57386e-06
6.5043e-06
1.33082e-05
2.27946e-05
1.78115e-05
9.30831e-06
4.84813e-06
5.74477e-06
4.64737e-06
3.26823e-06
5.55026e-06
7.53244e-06
7.39446e-06
6.49078e-06
5.91415e-06
5.41653e-06
5.51465e-06
5.71898e-06
6.37678e-06
6.58269e-06
6.77988e-06
6.78044e-06
7.10568e-06
7.17098e-06
7.90116e-06
7.83105e-06
8.81523e-06
8.72898e-06
1.03001e-05
1.15609e-05
1.41005e-05
1.41679e-05
1.13775e-05
7.32293e-06
4.92916e-06
4.24857e-06
5.90442e-06
4.73754e-06
2.49458e-06
5.19689e-06
5.33493e-06
5.51717e-06
5.3821e-06
5.459e-06
5.49994e-06
5.54307e-06
5.60585e-06
5.66957e-06
5.73147e-06
5.75209e-06
5.71402e-06
6.0195e-06
6.83037e-06
7.906e-06
8.31469e-06
7.56343e-06
6.49116e-06
4.60781e-06
3.97073e-06
2.91244e-06
2.64381e-06
2.36139e-06
2.35166e-06
3.25042e-06
3.74943e-06
4.7763e-06
5.83423e-06
4.98075e-06
5.29155e-06
1.44891e-06
1.26014e-06
1.283e-06
2.42941e-06
3.64453e-06
4.06445e-06
4.12295e-06
3.59703e-06
3.24627e-06
2.48877e-06
2.71393e-06
2.61407e-06
3.08044e-06
3.52473e-06
3.70386e-06
3.90066e-06
4.07308e-06
4.49515e-06
4.76022e-06
4.871e-06
5.02269e-06
5.28368e-06
5.54062e-06
5.84128e-06
5.6034e-06
3.98603e-06
1.5394e-06
1.01181e-06
2.07166e-06
5.97401e-06
2.46638e-06
1.10513e-06
7.7068e-07
1.30478e-06
4.16973e-06
5.88694e-06
6.26223e-06
5.9165e-06
5.85261e-06
5.56819e-06
5.72711e-06
5.83084e-06
5.95958e-06
5.71844e-06
4.77284e-06
3.47778e-06
2.4111e-06
1.53172e-06
1.4206e-06
1.38676e-06
1.40835e-06
1.54619e-06
2.63953e-06
4.04813e-06
4.91493e-06
4.93089e-06
4.78123e-06
5.74219e-06
5.41899e-06
5.56929e-06
5.42872e-06
5.67634e-06
5.159e-06
4.07171e-06
2.70318e-06
1.05677e-06
1.53547e-07
4.43466e-08
2.61151e-08
2.00277e-08
2.18656e-08
2.05441e-08
1.43571e-08
1.28485e-08
8.95784e-09
9.38609e-09
9.50142e-09
1.01501e-08
9.01061e-09
9.0727e-09
8.75057e-09
9.97047e-09
1.3122e-08
8.35662e-08
1.55182e-07
3.41545e-07
1.57706e-06
6.13714e-06
4.71653e-06
5.22334e-06
1.04179e-07
1.44711e-07
1.73681e-07
2.07849e-08
2.19703e-09
9.19347e-10
3.67741e-09
1.65186e-07
5.98194e-06
5.23512e-06
5.24504e-06
5.88889e-06
4.53598e-06
1.4136e-06
3.73427e-07
1.17436e-07
4.94156e-08
3.94271e-08
3.30223e-08
3.29261e-08
4.2711e-08
9.55491e-08
8.64004e-07
4.7283e-06
5.2306e-06
3.63896e-06
2.33033e-06
2.32598e-06
2.93919e-06
3.40246e-06
4.34376e-06
5.20622e-06
5.8943e-06
5.94228e-06
5.2818e-06
4.89529e-06
3.11841e-06
3.27023e-06
2.68377e-06
4.6906e-06
6.10314e-06
3.8099e-06
2.35377e-06
2.02458e-06
2.94193e-06
3.85957e-06
7.04445e-06
4.02249e-08
9.15519e-10
4.57535e-10
2.54347e-10
2.36613e-10
3.44447e-10
5.00519e-10
1.8303e-09
3.47121e-08
5.81981e-06
2.79704e-06
2.4829e-06
3.98613e-06
3.72731e-06
4.1897e-06
4.82216e-06
4.96854e-06
5.16726e-06
6.62004e-06
7.59763e-06
7.67489e-06
6.86188e-06
5.40623e-06
3.54444e-06
2.24182e-06
2.08176e-06
1.77047e-06
1.75261e-06
1.96825e-06
2.29686e-06
2.50117e-06
2.54585e-06
2.48174e-06
2.28176e-06
2.00898e-06
1.70309e-06
1.47506e-06
1.34011e-06
1.25247e-06
1.20243e-06
1.54579e-06
2.34025e-06
3.67889e-06
4.35764e-06
3.72058e-06
3.06605e-06
2.77978e-06
3.19192e-06
4.09547e-06
4.4674e-06
4.66642e-06
4.87764e-06
5.3403e-06
5.19434e-06
4.86012e-06
4.17069e-06
3.87587e-06
3.74251e-06
3.30065e-06
3.1919e-06
2.80291e-06
2.21646e-06
1.63029e-06
1.4336e-06
1.30687e-06
1.05967e-06
1.20617e-06
1.5169e-06
1.77325e-06
2.11626e-06
2.9704e-06
4.26383e-06
5.52866e-06
1.91832e-06
1.86532e-06
1.92063e-06
2.00065e-06
2.19712e-06
2.33258e-06
2.46857e-06
2.732e-06
3.44107e-06
4.16952e-06
4.94319e-06
6.41704e-06
5.51451e-06
3.31157e-06
3.09333e-06
2.87698e-06
2.50322e-06
2.44419e-06
2.33952e-06
2.16228e-06
1.901e-06
1.63262e-06
1.56962e-06
1.32672e-06
1.44074e-06
1.54655e-06
1.94134e-06
2.88543e-06
4.75438e-06
6.4082e-06
1.87195e-06
1.74762e-06
1.74627e-06
1.85481e-06
1.95485e-06
1.98862e-06
2.18131e-06
2.67796e-06
3.17395e-06
3.71821e-06
2.77345e-06
2.30883e-06
2.11934e-06
2.08953e-06
1.86612e-06
1.85483e-06
1.79362e-06
1.8434e-06
1.93718e-06
2.18389e-06
2.25316e-06
2.19925e-06
1.86066e-06
1.828e-06
1.51117e-06
1.39191e-06
1.79337e-06
2.50626e-06
3.28974e-06
4.31899e-06
9.72581e-06
5.39335e-06
4.20869e-06
3.48893e-06
2.9281e-06
2.50377e-06
2.69051e-06
2.33355e-06
2.45834e-06
2.37019e-06
2.30873e-06
2.2843e-06
2.3161e-06
2.20199e-06
2.4048e-06
2.61793e-06
2.61801e-06
2.82639e-06
2.53278e-06
4.76254e-06
5.83819e-06
6.75833e-06
1.11846e-05
1.015e-05
1.23396e-05
1.17442e-05
1.21424e-05
1.08389e-05
1.1714e-05
1.47774e-05
4.59382e-07
2.6409e-07
2.24929e-07
2.21563e-07
2.09912e-07
2.41381e-07
3.37376e-07
7.06975e-07
2.4599e-06
1.03013e-05
1.6568e-05
8.09359e-06
5.2832e-06
5.72298e-06
3.67396e-06
7.60676e-06
6.29128e-06
4.49398e-06
3.20931e-06
1.9985e-06
1.72174e-06
1.6632e-06
1.59266e-06
2.45529e-06
3.75507e-06
5.67255e-06
6.8485e-06
7.20505e-06
7.2659e-06
7.96596e-06
8.01509e-06
9.08197e-06
9.15098e-06
1.10107e-05
1.23594e-05
1.53503e-05
1.59148e-05
1.24499e-05
7.50073e-06
4.53288e-06
4.19373e-06
6.00061e-06
4.64296e-06
2.78368e-06
5.20429e-06
5.41928e-06
5.49318e-06
5.45198e-06
5.53813e-06
5.52505e-06
5.49318e-06
5.51359e-06
5.62892e-06
5.69781e-06
5.56507e-06
5.29564e-06
5.17541e-06
5.63381e-06
6.74529e-06
7.87454e-06
8.4809e-06
9.41638e-06
7.01345e-06
5.92492e-06
3.33927e-06
2.36794e-06
1.58113e-06
1.4738e-06
2.17696e-06
3.62748e-06
5.6641e-06
5.74253e-06
4.99926e-06
5.61987e-06
1.38574e-06
1.42541e-06
3.86491e-06
4.5673e-06
2.94111e-06
7.43348e-07
1.62911e-07
5.42638e-08
4.3491e-08
4.05678e-08
3.89624e-08
4.39836e-08
5.02485e-08
7.87918e-08
1.45897e-07
2.11013e-07
7.70641e-07
1.07679e-06
1.49322e-06
2.63379e-06
3.8468e-06
4.7333e-06
5.39854e-06
5.85991e-06
5.9043e-06
5.28097e-06
3.31351e-06
1.55591e-06
1.54011e-06
5.49362e-06
2.26228e-06
1.12398e-06
3.18953e-06
6.31153e-06
6.07344e-06
5.49831e-06
4.9417e-06
4.49085e-06
4.37592e-06
4.03925e-06
4.07116e-06
4.25157e-06
4.52454e-06
4.97033e-06
5.60861e-06
5.83739e-06
5.67302e-06
5.21797e-06
4.61703e-06
4.17051e-06
3.90568e-06
3.99922e-06
4.62406e-06
5.44573e-06
5.7544e-06
5.5776e-06
5.24285e-06
5.75435e-06
5.35812e-06
5.72789e-06
5.52186e-06
5.24572e-06
3.83386e-06
1.35848e-06
1.67412e-07
3.19803e-08
1.52059e-08
1.51813e-08
1.48265e-08
1.27915e-08
9.09765e-09
9.31639e-09
1.07881e-08
1.27397e-08
1.4623e-08
1.61395e-08
2.20639e-08
2.35114e-08
1.7622e-08
1.64242e-08
1.38736e-08
9.23661e-09
8.17228e-09
2.16719e-08
8.1452e-08
1.71329e-07
7.6807e-07
4.73258e-06
5.37138e-06
5.14714e-06
1.3534e-09
2.92176e-09
3.88668e-09
1.22999e-09
4.81041e-10
1.5212e-09
1.18389e-07
4.42785e-06
5.93841e-06
5.28598e-06
1.00233e-06
8.88844e-08
2.05958e-08
1.00606e-08
5.60337e-09
4.66431e-09
4.18428e-09
3.71562e-09
3.70482e-09
3.52532e-09
3.7317e-09
3.9841e-09
7.12721e-09
2.85263e-08
2.15025e-06
5.81192e-06
2.93069e-06
2.48682e-06
2.94714e-06
3.20133e-06
5.2463e-06
5.83157e-06
5.6593e-06
5.4391e-06
4.99754e-06
3.46534e-06
1.35023e-06
6.77665e-07
8.07216e-07
2.63097e-06
5.8732e-06
2.86117e-06
2.16176e-06
2.38774e-06
3.60983e-06
6.31841e-06
3.96032e-09
5.44899e-10
1.58844e-10
1.10836e-10
9.00203e-11
7.61035e-11
6.20328e-11
4.81687e-11
3.85282e-11
8.28108e-11
1.05653e-09
9.4588e-08
4.94887e-06
2.40623e-06
6.97386e-06
5.39205e-06
4.90961e-06
5.62872e-06
6.92283e-06
7.45215e-06
7.35398e-06
7.552e-06
6.70983e-06
6.38513e-06
5.46432e-06
5.00206e-06
5.21491e-06
1.903e-06
1.59841e-07
3.99912e-08
1.69922e-08
1.43539e-08
1.41523e-08
1.57874e-08
3.00483e-08
5.36492e-08
2.18826e-07
2.81499e-06
5.7759e-06
3.76128e-06
1.6255e-06
8.01361e-07
7.81688e-07
1.177e-06
3.86435e-06
3.44263e-06
2.55647e-06
2.14145e-06
2.27768e-06
2.96852e-06
3.34807e-06
3.2622e-06
3.80076e-06
4.23024e-06
4.40139e-06
3.9774e-06
4.27045e-06
4.40861e-06
4.71439e-06
5.26979e-06
5.40572e-06
5.77767e-06
6.04626e-06
5.80284e-06
5.63183e-06
5.95284e-06
5.82403e-06
4.98e-06
4.58628e-06
3.26113e-06
2.19247e-06
1.73251e-06
1.57086e-06
1.99549e-06
1.80916e-06
1.79026e-06
1.78217e-06
1.87442e-06
1.86344e-06
2.09463e-06
2.39176e-06
3.28517e-06
5.08512e-06
5.32778e-06
9.48282e-06
8.14326e-06
2.39549e-06
6.78698e-07
1.85658e-07
1.62535e-07
1.48667e-07
1.8504e-07
6.26115e-07
3.66329e-06
7.00449e-06
5.65294e-06
2.55951e-06
1.53398e-06
1.05434e-06
9.36303e-07
9.39313e-07
1.13355e-06
1.57098e-06
2.51936e-06
1.72437e-06
1.6455e-06
1.70309e-06
1.74267e-06
1.8945e-06
2.83105e-06
4.16408e-06
6.45632e-06
9.01577e-06
6.40236e-06
3.69461e-06
1.52061e-06
3.15925e-06
4.7676e-06
6.05075e-06
4.68069e-06
3.3894e-06
2.1856e-06
1.73241e-06
1.50208e-06
1.44829e-06
1.31966e-06
1.25604e-06
1.249e-06
1.22236e-06
9.87079e-07
9.27692e-07
9.87382e-07
1.40597e-06
2.20853e-06
6.9716e-06
6.83596e-06
7.89134e-06
7.35685e-06
7.60664e-06
7.78144e-06
7.83787e-06
7.51203e-06
7.60658e-06
7.76066e-06
7.22285e-06
6.5533e-06
5.07223e-06
4.22275e-06
3.72212e-06
2.94313e-06
3.25273e-06
2.90631e-06
4.37146e-06
6.62112e-06
7.80623e-06
8.40041e-06
7.0762e-06
1.20453e-05
1.52441e-05
1.86425e-05
1.97335e-05
1.81042e-05
1.37145e-05
1.01727e-05
1.20266e-07
2.82366e-07
5.91681e-07
5.00101e-07
3.21454e-07
1.58915e-07
1.35232e-07
1.59272e-07
3.37894e-07
1.02342e-06
5.83231e-06
1.39863e-05
6.38137e-06
5.58445e-06
5.98421e-06
7.4622e-06
5.3775e-06
3.78239e-06
2.17684e-06
1.37189e-06
1.24792e-06
1.15181e-06
1.14709e-06
1.22399e-06
1.79186e-06
3.65106e-06
6.82802e-06
7.18155e-06
7.69748e-06
7.57731e-06
8.45665e-06
8.79907e-06
9.86345e-06
1.1413e-05
1.27808e-05
1.4969e-05
1.6715e-05
1.21188e-05
5.96185e-06
3.39996e-06
3.7035e-06
5.60166e-06
5.44799e-06
3.42675e-06
5.34632e-06
5.46738e-06
5.56754e-06
5.61914e-06
5.571e-06
5.41662e-06
5.32493e-06
5.493e-06
5.70373e-06
5.38684e-06
4.18092e-06
3.18614e-06
3.10048e-06
4.12252e-06
5.4625e-06
6.69606e-06
8.16755e-06
8.92932e-06
9.13619e-06
8.38521e-06
5.22866e-06
2.54042e-06
1.28689e-06
1.02378e-06
1.3533e-06
3.41973e-06
6.62501e-06
5.63392e-06
5.16122e-06
5.81972e-06
1.44772e-06
3.83294e-06
4.72864e-06
4.84673e-07
3.4319e-08
1.37179e-08
1.32325e-08
1.60072e-08
1.74223e-08
2.90756e-08
3.02332e-08
3.03976e-08
3.11185e-08
3.48226e-08
4.12837e-08
5.40506e-08
1.42211e-07
2.15868e-07
9.08006e-07
1.51249e-06
3.02672e-06
4.34815e-06
5.31541e-06
5.80429e-06
5.91832e-06
5.53032e-06
4.30607e-06
2.64782e-06
1.52537e-06
5.44579e-06
1.78028e-06
2.61473e-06
6.14983e-06
6.37382e-06
6.25047e-06
5.65155e-06
5.22863e-06
4.58467e-06
4.32578e-06
4.0245e-06
3.84447e-06
3.85223e-06
3.9633e-06
4.37595e-06
4.67066e-06
5.16875e-06
5.62559e-06
5.79745e-06
5.76998e-06
5.47946e-06
5.31793e-06
5.5192e-06
5.83658e-06
5.87875e-06
5.78883e-06
5.81635e-06
5.72332e-06
5.77857e-06
5.2829e-06
5.70097e-06
5.78075e-06
4.22491e-06
1.14848e-06
8.80668e-08
1.60588e-08
1.39619e-08
1.46194e-08
1.35026e-08
1.11062e-08
9.72092e-09
1.13698e-08
1.36582e-08
1.57781e-08
2.08722e-08
2.66355e-08
3.28236e-08
3.8632e-08
4.20518e-08
4.27607e-08
4.34429e-08
3.80167e-08
1.66839e-08
1.15823e-08
7.66923e-09
4.15897e-08
1.01509e-07
3.25252e-07
3.01248e-06
5.62576e-06
5.09739e-06
4.27708e-10
4.30954e-10
4.1865e-10
1.86509e-10
8.30096e-10
1.72009e-08
3.42613e-06
5.02625e-06
1.47399e-06
1.0333e-07
1.58458e-08
8.79604e-09
5.24574e-09
4.71574e-09
4.48961e-09
4.19407e-09
3.9231e-09
3.84386e-09
4.09414e-09
4.55711e-09
5.14386e-09
5.33509e-09
4.84377e-09
7.3789e-09
9.36894e-08
5.45143e-06
3.73832e-06
2.63004e-06
2.92773e-06
2.99697e-06
5.79054e-06
5.48754e-06
5.8376e-06
5.83798e-06
5.77557e-06
5.94924e-06
3.97236e-06
7.36296e-07
2.10599e-07
3.04601e-06
5.35496e-06
2.62477e-06
2.11525e-06
2.58134e-06
5.5649e-06
1.34141e-08
3.05938e-10
2.51739e-10
2.09122e-10
1.90639e-10
1.66028e-10
1.4275e-10
1.08794e-10
8.71642e-11
1.18548e-10
7.62021e-11
8.51641e-11
3.50112e-10
1.20016e-07
4.36114e-06
9.5818e-06
8.34161e-06
6.96931e-06
6.22866e-06
6.73323e-06
7.3558e-06
7.36776e-06
7.72574e-06
7.93252e-06
1.37815e-06
1.75941e-08
1.83755e-09
6.1618e-10
3.80201e-10
2.61856e-10
2.5077e-10
2.42435e-10
2.3143e-10
2.24028e-10
2.19041e-10
2.17088e-10
2.29103e-10
2.66922e-10
5.39541e-10
1.6983e-09
1.46789e-08
1.54054e-06
3.6527e-06
7.64083e-07
5.98836e-07
3.24779e-06
2.85458e-06
2.36769e-06
2.00163e-06
1.86945e-06
2.1488e-06
2.4163e-06
2.72761e-06
2.81028e-06
3.43638e-06
3.58435e-06
4.16167e-06
4.99361e-06
5.89431e-06
6.54035e-06
5.19788e-06
8.80566e-07
4.62109e-08
1.33289e-08
7.12539e-09
4.61526e-09
3.98565e-09
3.80957e-09
5.22129e-09
1.23902e-08
7.83497e-08
4.43127e-06
5.60972e-06
2.12631e-06
1.27659e-06
1.66652e-06
1.7171e-06
1.72204e-06
1.81092e-06
1.91382e-06
2.73951e-06
3.14436e-06
5.27413e-06
7.79892e-06
5.64306e-06
7.0197e-08
4.76045e-08
7.50501e-09
6.62391e-09
4.02444e-09
3.00833e-09
1.93306e-09
1.99782e-09
2.17004e-09
2.96915e-09
3.99978e-09
8.58068e-09
2.24316e-07
7.40335e-06
3.65624e-06
1.3814e-06
8.79399e-07
8.28395e-07
9.62124e-07
1.37478e-06
1.60711e-06
1.60234e-06
1.80657e-06
1.92e-06
2.72189e-06
4.73975e-06
7.12986e-06
2.78205e-07
2.91373e-08
2.19097e-08
6.66256e-09
4.13242e-09
2.38796e-09
1.91886e-09
1.87821e-09
3.99311e-09
1.35533e-08
2.08856e-07
6.19283e-06
4.68266e-06
2.89778e-06
2.18036e-06
1.47517e-06
1.39185e-06
1.21986e-06
1.05987e-06
9.63263e-07
7.91863e-07
8.03104e-07
1.17568e-06
6.47418e-06
1.18462e-05
1.12804e-05
6.94234e-06
6.16185e-07
1.65302e-07
7.11446e-08
4.33797e-08
2.52011e-08
2.35735e-08
4.96281e-08
1.28971e-07
1.69029e-06
1.07627e-05
1.04552e-05
9.39843e-06
7.37762e-06
9.12638e-06
1.18055e-05
1.39487e-05
1.5366e-05
1.42486e-05
1.54289e-05
1.5837e-05
2.25968e-05
2.5088e-05
2.63834e-05
2.93679e-05
2.38538e-05
1.13305e-05
5.50315e-07
5.32467e-06
1.47911e-05
1.16355e-05
4.17306e-06
8.92678e-07
3.01098e-07
2.03946e-07
2.27306e-07
4.38122e-07
1.30949e-06
5.98271e-06
1.12521e-05
5.1391e-06
8.05582e-06
6.93523e-06
5.45991e-06
3.468e-06
2.09001e-06
1.46297e-06
1.28292e-06
1.2864e-06
1.6358e-06
1.96898e-06
3.22195e-06
5.35212e-06
7.70934e-06
7.68108e-06
7.53305e-06
7.85612e-06
8.22973e-06
9.23324e-06
1.04094e-05
1.16632e-05
1.20157e-05
1.47821e-05
1.60865e-05
8.989e-06
3.45245e-06
1.65789e-06
2.13246e-06
3.75591e-06
5.91063e-06
4.71234e-06
5.37686e-06
5.5201e-06
5.57677e-06
5.58026e-06
5.29003e-06
5.23513e-06
5.32954e-06
5.61824e-06
5.56501e-06
3.40686e-06
1.86421e-06
1.40302e-06
1.52327e-06
2.07233e-06
3.62795e-06
5.5478e-06
7.05318e-06
7.37273e-06
8.35434e-06
7.51948e-06
4.79049e-06
2.10143e-06
9.32644e-07
7.69367e-07
1.13326e-06
3.1997e-06
7.19551e-06
5.38792e-06
5.41253e-06
5.91231e-06
2.5827e-06
4.53612e-06
1.29436e-07
9.07455e-09
7.82491e-09
1.69301e-08
1.08516e-07
3.90291e-07
1.04391e-06
1.2199e-06
1.07885e-06
7.26922e-07
2.21517e-07
1.75055e-07
1.53975e-07
1.7529e-07
2.22578e-07
9.04943e-07
1.52241e-06
3.20202e-06
4.33346e-06
4.93427e-06
5.47015e-06
5.87234e-06
5.89856e-06
5.56234e-06
4.4604e-06
3.04652e-06
2.23135e-06
5.51992e-06
2.13874e-06
4.51026e-06
3.6736e-06
3.14089e-06
5.32817e-06
6.25123e-06
5.79911e-06
5.19487e-06
4.55309e-06
4.33839e-06
4.03751e-06
4.12332e-06
4.10312e-06
4.32107e-06
4.65651e-06
5.03772e-06
5.40977e-06
5.67716e-06
5.74361e-06
5.77071e-06
5.80951e-06
5.59617e-06
5.30872e-06
5.18432e-06
5.35134e-06
5.68916e-06
5.84045e-06
5.5764e-06
5.28302e-06
5.81717e-06
5.74733e-06
1.52749e-06
1.17373e-07
1.67945e-08
1.3965e-08
1.52278e-08
1.32433e-08
1.05378e-08
9.78472e-09
1.1251e-08
1.36399e-08
1.38593e-08
1.23891e-08
1.2858e-08
1.58494e-08
2.84556e-08
3.63055e-08
3.79438e-08
4.32325e-08
3.95348e-08
3.88605e-08
2.27194e-08
1.39984e-08
5.5011e-09
3.02281e-08
7.01297e-08
2.09349e-07
2.82307e-06
5.57951e-06
5.17941e-06
2.03793e-10
1.41055e-10
1.11989e-10
2.31522e-10
6.61745e-09
8.8886e-07
4.09334e-06
1.30675e-06
5.02391e-08
1.36018e-08
8.83126e-09
5.67033e-09
5.33306e-09
5.10835e-09
4.75036e-09
4.40181e-09
3.93399e-09
3.81835e-09
4.81603e-09
1.06892e-08
2.54693e-08
4.139e-08
2.44435e-08
1.92758e-08
6.84789e-08
4.43574e-06
4.69872e-06
3.04037e-06
2.88716e-06
2.43906e-06
4.33098e-06
5.63004e-06
5.4666e-06
4.77754e-06
4.86244e-06
5.28742e-06
5.6288e-06
1.14612e-06
2.11649e-07
2.81589e-06
4.79612e-06
2.59517e-06
2.09948e-06
2.69631e-06
5.61697e-06
1.41259e-09
2.01622e-10
2.53603e-10
2.8014e-10
2.34255e-10
2.3233e-10
2.15975e-10
2.03172e-10
1.75748e-10
9.94763e-11
1.66172e-10
1.59654e-10
1.10579e-10
3.71993e-09
4.64673e-06
1.17088e-05
8.76852e-06
7.37658e-06
6.43957e-06
6.67469e-06
6.86117e-06
7.02413e-06
7.69044e-06
1.85349e-07
2.39298e-09
2.99758e-10
1.35448e-10
1.37472e-10
2.13721e-10
1.90654e-10
2.46546e-10
2.16824e-10
2.19419e-10
2.0212e-10
1.82463e-10
1.53873e-10
1.23738e-10
8.83248e-11
8.56081e-11
9.36952e-11
2.04137e-10
1.48187e-09
1.629e-07
3.25511e-06
5.1177e-07
2.48429e-06
2.33152e-06
2.30893e-06
2.34871e-06
2.15643e-06
1.90223e-06
2.05449e-06
2.03347e-06
2.53983e-06
3.14704e-06
3.95422e-06
4.86704e-06
6.03293e-06
4.84777e-06
1.22806e-06
1.25555e-07
1.85645e-08
6.32412e-09
3.233e-09
3.41251e-09
1.91254e-09
2.51889e-09
1.93513e-09
1.77789e-09
1.69366e-09
1.1042e-09
3.72961e-09
3.43573e-08
7.02582e-06
2.27511e-06
1.45513e-06
1.60749e-06
1.72438e-06
2.03391e-06
2.46652e-06
3.53125e-06
4.97364e-06
7.77668e-06
1.64182e-06
5.87821e-08
1.66299e-08
3.23515e-08
5.98503e-08
4.42347e-08
3.68412e-08
2.02936e-08
1.61672e-08
1.01196e-08
4.0695e-09
2.80887e-09
1.19099e-09
7.49367e-10
8.38321e-10
2.13888e-09
7.46974e-08
6.57138e-06
2.35375e-06
1.21906e-06
8.46174e-07
9.10952e-07
1.46979e-06
1.71207e-06
2.38498e-06
2.68734e-06
4.61029e-06
6.85881e-06
6.66106e-08
1.10477e-08
2.24442e-08
3.0094e-08
8.86759e-08
4.8157e-08
1.41488e-08
9.08323e-09
1.92299e-09
6.64934e-10
5.20937e-10
4.40685e-10
1.38375e-09
1.65356e-08
2.63045e-06
6.06576e-06
2.99045e-06
2.25112e-06
1.73678e-06
1.45567e-06
1.20604e-06
9.50441e-07
7.34988e-07
8.05867e-07
9.35415e-06
1.00788e-05
7.19649e-07
4.28561e-08
1.61072e-08
3.58793e-09
2.7588e-09
1.29205e-09
1.62553e-09
1.30884e-09
1.81451e-09
2.71675e-09
4.48743e-09
1.15139e-08
9.52876e-08
1.39213e-06
1.38818e-05
2.30316e-05
2.68568e-05
2.70375e-05
2.61427e-05
2.17354e-05
1.49248e-05
5.83526e-06
9.29945e-07
5.74833e-07
6.20364e-07
8.66283e-07
7.1245e-06
2.21058e-05
2.06132e-06
1.91788e-05
1.96224e-05
1.86308e-05
1.58572e-05
6.25191e-06
1.69927e-06
8.41781e-07
7.60902e-07
8.09133e-07
1.3242e-06
3.04866e-06
1.01635e-05
5.28393e-06
8.57239e-06
6.83022e-06
5.91159e-06
3.5323e-06
2.19273e-06
2.46302e-06
4.35167e-06
6.28777e-06
7.55005e-06
7.72662e-06
8.11987e-06
8.41169e-06
8.04651e-06
7.70343e-06
7.66151e-06
7.79198e-06
8.65038e-06
9.82413e-06
1.12294e-05
1.03621e-05
1.1126e-05
1.5008e-05
1.19838e-05
4.07546e-06
1.61067e-06
8.87114e-07
1.29715e-06
2.49996e-06
4.75161e-06
5.703e-06
5.53776e-06
5.62255e-06
5.61062e-06
5.20047e-06
5.23446e-06
5.34478e-06
5.48496e-06
5.71805e-06
5.1013e-06
1.94816e-06
1.09529e-06
8.76821e-07
1.02077e-06
1.53807e-06
2.25919e-06
3.13831e-06
4.47115e-06
4.46668e-06
4.28109e-06
3.32282e-06
1.99498e-06
1.06711e-06
7.14851e-07
7.07145e-07
1.12082e-06
4.0351e-06
6.81727e-06
5.27733e-06
5.70216e-06
5.84153e-06
3.34087e-06
2.00125e-07
5.41082e-09
5.47001e-09
4.54887e-08
8.97865e-07
4.14767e-06
5.27255e-06
5.35921e-06
5.38829e-06
5.17103e-06
4.79406e-06
3.85905e-06
2.6518e-06
2.08572e-06
2.05874e-06
2.99151e-06
3.96964e-06
4.86133e-06
5.31774e-06
5.5153e-06
5.6565e-06
5.80193e-06
5.85118e-06
5.84767e-06
5.38558e-06
4.53632e-06
3.21687e-06
3.0234e-06
5.72576e-06
2.5441e-06
1.0534e-06
9.59281e-08
1.48462e-07
1.13377e-06
4.17198e-06
5.83255e-06
5.95833e-06
5.70121e-06
5.42008e-06
5.12924e-06
4.99282e-06
4.8942e-06
4.92514e-06
5.06136e-06
5.27342e-06
5.41384e-06
5.43171e-06
5.34647e-06
5.05115e-06
4.70737e-06
4.46789e-06
4.31148e-06
4.34759e-06
4.63525e-06
5.1362e-06
5.35685e-06
5.13511e-06
5.27238e-06
5.83649e-06
5.53095e-06
4.62856e-07
2.99799e-08
1.43064e-08
1.45322e-08
1.27169e-08
9.53137e-09
8.03969e-09
8.37028e-09
9.21641e-09
7.76504e-09
5.17996e-09
5.18381e-09
9.04336e-09
1.50232e-08
2.85224e-08
3.22621e-08
2.97145e-08
3.1391e-08
2.88381e-08
1.65064e-08
1.52414e-08
1.23365e-08
5.86634e-09
2.91987e-08
6.59307e-08
2.23335e-07
4.02473e-06
5.25539e-06
5.21392e-06
1.60574e-10
5.82816e-11
1.12207e-10
1.33841e-09
1.29946e-07
3.25604e-06
1.44636e-06
1.07335e-07
1.78052e-08
1.00462e-08
7.98078e-09
5.53637e-09
5.20481e-09
4.8297e-09
4.39834e-09
3.86823e-09
3.2764e-09
3.50058e-09
5.31397e-09
3.06304e-08
2.15542e-07
1.40059e-06
1.12389e-06
4.89702e-07
9.90688e-07
5.66763e-06
4.97556e-06
3.21326e-06
2.56181e-06
2.26705e-06
4.18584e-06
5.7675e-06
4.84907e-06
4.5394e-06
4.36031e-06
5.07993e-06
5.81431e-06
1.19208e-06
2.14535e-07
4.90187e-06
4.5072e-06
2.91938e-06
2.23924e-06
2.90827e-06
6.85526e-07
6.29897e-10
2.32076e-10
3.20864e-10
3.08602e-10
2.83799e-10
2.58271e-10
3.19098e-10
3.23804e-10
3.47654e-10
3.19353e-10
2.13911e-10
1.75561e-10
1.8733e-10
3.24718e-09
5.52993e-06
1.12301e-05
8.67493e-06
6.8164e-06
5.99345e-06
5.87798e-06
6.9353e-06
7.01292e-06
5.07695e-07
4.04283e-09
3.75497e-10
2.12331e-10
2.03962e-10
3.82113e-10
5.61309e-10
5.27116e-10
5.35582e-10
5.44986e-10
5.04697e-10
4.88952e-10
4.25731e-10
2.66472e-10
2.18806e-10
1.59681e-10
8.86482e-11
7.35139e-11
7.06856e-11
9.56832e-11
7.82542e-10
4.05073e-07
1.45165e-06
1.86265e-06
2.12749e-06
2.70004e-06
3.25268e-06
3.45982e-06
2.64983e-06
1.95522e-06
1.83477e-06
2.11539e-06
2.91518e-06
4.49552e-06
5.95423e-06
4.32718e-06
3.82444e-07
4.71785e-08
1.43195e-08
6.46651e-09
4.61403e-09
5.11725e-09
9.47527e-09
1.08655e-08
1.33108e-08
1.5067e-08
1.04878e-08
3.54589e-09
3.84162e-09
2.45307e-09
3.18719e-09
8.38723e-09
3.47071e-06
1.43286e-06
1.95192e-06
2.33164e-06
3.09601e-06
3.66407e-06
5.1305e-06
7.38074e-06
5.50201e-06
6.19224e-08
2.62984e-08
2.38223e-08
3.05373e-07
2.87613e-07
3.28603e-07
1.16299e-07
1.24175e-07
5.95778e-08
5.05581e-08
2.80032e-08
1.21193e-08
3.93442e-09
1.17063e-09
4.60023e-10
1.61473e-10
3.47107e-10
5.01446e-09
5.12339e-06
3.06171e-06
1.21684e-06
8.69011e-07
1.50825e-06
2.18807e-06
3.76641e-06
4.64353e-06
6.14394e-06
1.85754e-07
8.00454e-09
7.84534e-09
4.12425e-08
8.33244e-07
4.01141e-06
3.39365e-06
5.11601e-06
1.37972e-06
4.38453e-07
3.26166e-08
2.76548e-09
4.68857e-10
1.4998e-10
2.19979e-10
7.18069e-10
1.47607e-08
6.37283e-06
5.22379e-06
3.59733e-06
2.46068e-06
1.81785e-06
1.29018e-06
8.40918e-07
7.30302e-07
9.67553e-06
1.42685e-06
3.32356e-08
2.18455e-08
5.12871e-09
7.76253e-09
6.89057e-09
2.01911e-08
6.5206e-08
6.52147e-08
2.53797e-08
1.77948e-08
3.66914e-09
2.82873e-09
1.73282e-09
1.23247e-08
1.75398e-07
1.2365e-06
3.79492e-06
7.45878e-06
5.22691e-06
2.4831e-06
6.46261e-07
1.77908e-07
8.52239e-08
3.23113e-08
6.85776e-08
9.11661e-07
9.26055e-06
2.40164e-05
3.52802e-06
1.90449e-05
1.74138e-05
1.80872e-05
1.74038e-05
1.60734e-05
1.10204e-05
7.74416e-06
6.31742e-06
4.5004e-06
3.88332e-06
4.77515e-06
9.06061e-06
6.98107e-06
7.93605e-06
6.74827e-06
6.15998e-06
3.38288e-06
3.11478e-06
6.89113e-06
1.00011e-05
9.61938e-06
8.99969e-06
8.7576e-06
8.47557e-06
7.90119e-06
7.7617e-06
7.56396e-06
7.72006e-06
8.1243e-06
9.59396e-06
1.09823e-05
8.99542e-06
9.7497e-06
1.36141e-05
1.15439e-05
3.93133e-06
1.69549e-06
9.77039e-07
1.1964e-06
2.59095e-06
4.04723e-06
5.06359e-06
5.90517e-06
5.6347e-06
5.64644e-06
5.14853e-06
5.33914e-06
5.50463e-06
5.50125e-06
5.49292e-06
5.67235e-06
5.42888e-06
3.26098e-06
1.69267e-06
1.1602e-06
1.12792e-06
1.04482e-06
1.26978e-06
1.43712e-06
1.59448e-06
1.99608e-06
1.73402e-06
1.30131e-06
1.01431e-06
7.41046e-07
5.51891e-07
7.53452e-07
1.77162e-06
6.73214e-06
6.17571e-06
4.88618e-06
5.69139e-06
5.68132e-06
1.45579e-06
1.40699e-08
4.54929e-09
3.21391e-08
1.01866e-06
4.65772e-06
5.71177e-06
5.71737e-06
5.63747e-06
5.64388e-06
5.54197e-06
5.4836e-06
5.34543e-06
5.23538e-06
5.20466e-06
5.44488e-06
5.67506e-06
5.78646e-06
5.7752e-06
5.78595e-06
5.78958e-06
5.76556e-06
5.82605e-06
5.82675e-06
5.76674e-06
5.15492e-06
4.39389e-06
2.99869e-06
4.74833e-06
5.82638e-06
1.67039e-06
5.59706e-08
1.21221e-08
2.34555e-08
8.62926e-08
3.20321e-07
1.27827e-06
2.82369e-06
4.2191e-06
4.88021e-06
5.28567e-06
5.5277e-06
5.69945e-06
5.68379e-06
5.70446e-06
5.53011e-06
5.54689e-06
5.45274e-06
5.45393e-06
5.38232e-06
5.2748e-06
5.11158e-06
4.98151e-06
4.83984e-06
4.66922e-06
4.79136e-06
4.836e-06
4.84516e-06
5.31599e-06
5.92217e-06
4.51453e-06
8.69869e-08
1.82491e-08
1.33718e-08
1.30451e-08
9.22875e-09
5.67105e-09
5.13951e-09
4.77285e-09
4.19821e-09
3.38601e-09
3.09785e-09
4.17348e-09
8.66261e-09
1.61447e-08
2.87776e-08
2.45663e-08
1.68826e-08
1.60914e-08
1.55179e-08
1.50419e-08
1.28944e-08
1.16929e-08
1.16353e-08
4.09575e-08
8.61661e-08
5.38381e-07
5.6921e-06
5.10899e-06
5.27413e-06
1.40534e-10
5.54222e-11
3.14393e-10
1.28741e-08
1.35647e-06
2.50989e-06
2.03061e-07
3.3034e-08
1.33937e-08
8.56697e-09
5.5102e-09
4.77617e-09
4.12223e-09
3.90984e-09
3.57225e-09
3.24744e-09
2.75494e-09
2.9976e-09
5.44543e-09
7.37059e-08
3.41558e-06
5.91723e-06
5.7469e-06
5.89839e-06
5.97426e-06
5.24105e-06
3.974e-06
2.91576e-06
2.4368e-06
2.25019e-06
5.62955e-06
5.14064e-06
4.5801e-06
4.67398e-06
4.86361e-06
5.28526e-06
5.24419e-06
6.06716e-07
8.95427e-07
5.88153e-06
4.31848e-06
3.30913e-06
2.55957e-06
3.73471e-06