/*--------------------------------*- C++ -*----------------------------------*\
| =========                 |                                                 |
| \\      /  F ield         | OpenFOAM: The Open Source CFD Toolbox           |
|  \\    /   O peration     | Version:  2.1.1                                 |
|   \\  /    A nd           | Web:      www.OpenFOAM.org                      |
|    \\/     M anipulation  |                                                 |
\*---------------------------------------------------------------------------*/
FoamFile
{
    version     2.0;
    format      ascii;
    class       volScalarField;
    location    "0.003550000";
    object      N2;
}
// * * * * * * * * * * * * * * * * * * * * * * * * * * * * * * * * * * * * * //

dimensions      [0 0 0 0 0 0 0];

internalField   nonuniform List<scalar> 
12384
(
0.749324
0.748652
0.748265
0.748062
0.749141
0.74999
0.751375
0.752241
0.752883
0.752598
0.750706
0.747783
0.746259
0.746207
0.752129
0.751947
0.751313
0.750714
0.750218
0.749904
0.749756
0.749594
0.749632
0.749495
0.749467
0.74939
0.749415
0.749354
0.749384
0.749511
0.749484
0.749549
0.749616
0.749882
0.750212
0.751065
0.751926
0.752647
0.753039
0.752911
0.751727
0.749609
0.74654
0.745127
0.747419
0.747634
0.748108
0.748431
0.748578
0.748608
0.748641
0.748539
0.748462
0.748319
0.748158
0.748013
0.747774
0.747441
0.74702
0.746034
0.745239
0.744299
0.74384
0.743557
0.743357
0.743407
0.743699
0.744068
0.744415
0.745091
0.746244
0.748942
0.750484
0.749999
0.744632
0.744462
0.744281
0.74423
0.744304
0.744524
0.744869
0.745289
0.745559
0.745808
0.745925
0.746081
0.746274
0.746447
0.746678
0.746808
0.746903
0.746995
0.747024
0.747147
0.747276
0.747446
0.747578
0.747654
0.746605
0.744332
0.743399
0.744
0.74666
0.748147
0.745109
0.744347
0.743626
0.743119
0.743089
0.743253
0.743707
0.743886
0.744368
0.744286
0.744399
0.743946
0.743924
0.74346
0.743401
0.74318
0.743091
0.743114
0.743271
0.743418
0.743653
0.744056
0.744688
0.745489
0.746125
0.746242
0.746611
0.748492
0.749505
0.747609
0.749614
0.749135
0.748066
0.746834
0.745979
0.745876
0.745689
0.745018
0.743945
0.742875
0.742079
0.741497
0.741043
0.740464
0.740419
0.739707
0.739944
0.739423
0.740019
0.739585
0.739643
0.740737
0.739771
0.74274
0.741698
0.744358
0.745965
0.749662
0.751422
0.750153
0.748565
0.748471
0.747154
0.744089
0.738072
0.732954
0.731887
0.736864
0.746449
0.750382
0.751968
0.752218
0.751986
0.751497
0.75109
0.750672
0.750219
0.74992
0.749512
0.749611
0.750023
0.750832
0.751667
0.752259
0.753475
0.753612
0.753917
0.753608
0.752857
0.75244
0.751292
0.751148
0.750628
0.750254
0.749429
0.74907
0.748351
0.747945
0.747297
0.747459
0.747931
0.750254
0.75275
0.753789
0.753936
0.754062
0.753554
0.752984
0.749354
0.74834
0.747377
0.747238
0.748067
0.749311
0.750987
0.752429
0.753157
0.752987
0.752634
0.752093
0.75268
0.753121
0.753704
0.753743
0.75319
0.751916
0.751375
0.751154
0.751583
0.751953
0.751502
0.752456
0.752006
0.752051
0.75207
0.752017
0.752014
0.75194
0.751872
0.751785
0.751684
0.751562
0.75143
0.751234
0.750915
0.750444
0.749759
0.748844
0.748174
0.747666
0.751009
0.751811
0.75218
0.752247
0.75172
0.750803
0.750274
0.749895
0.749279
0.748782
0.74885
0.749801
0.751233
0.752369
0.75323
0.753611
0.753855
0.754101
0.754065
0.75391
0.753528
0.753053
0.752293
0.751294
0.750462
0.74957
0.748673
0.747586
0.746753
0.746453
0.754046
0.754069
0.753911
0.753848
0.753576
0.753295
0.752919
0.752571
0.752108
0.751569
0.75131
0.751371
0.751201
0.751313
0.751371
0.751497
0.751645
0.751683
0.751845
0.752018
0.752047
0.751925
0.751551
0.75143
0.750457
0.750143
0.749116
0.748552
0.74793
0.747774
0.754005
0.754203
0.7543
0.754153
0.753963
0.753846
0.753699
0.753491
0.753176
0.753219
0.752745
0.752328
0.752088
0.751949
0.751531
0.751237
0.75123
0.751039
0.751206
0.751087
0.751292
0.751258
0.751412
0.751391
0.751321
0.751144
0.750838
0.75015
0.7499
0.749768
0.754256
0.754279
0.7544
0.754397
0.754372
0.754282
0.754229
0.754099
0.754008
0.753841
0.753581
0.753191
0.752738
0.752261
0.75176
0.751383
0.751249
0.751312
0.751112
0.751349
0.751122
0.752268
0.752928
0.753267
0.753461
0.753429
0.753091
0.752623
0.751737
0.751374
0.742553
0.735579
0.732345
0.732283
0.732733
0.735588
0.740063
0.744009
0.748622
0.750828
0.751847
0.750511
0.747999
0.74657
0.752268
0.75047
0.748584
0.747251
0.746475
0.746055
0.745848
0.745948
0.74633
0.746873
0.74747
0.747928
0.748298
0.748503
0.748709
0.748936
0.749148
0.749325
0.749392
0.749474
0.749577
0.75003
0.750951
0.75214
0.752897
0.752874
0.751632
0.749297
0.746386
0.745111
0.74747
0.747841
0.74861
0.748993
0.749083
0.74907
0.749112
0.749011
0.74889
0.748581
0.748247
0.747994
0.747859
0.74775
0.747582
0.746998
0.746262
0.74503
0.743989
0.743024
0.742249
0.741899
0.741986
0.742613
0.743628
0.744855
0.746294
0.748823
0.750454
0.749924
0.744596
0.744272
0.74431
0.745163
0.7458
0.746117
0.746207
0.745838
0.745715
0.745256
0.745418
0.745353
0.745644
0.745902
0.746017
0.746155
0.746284
0.746619
0.746798
0.746956
0.747112
0.74737
0.747598
0.747817
0.747402
0.745962
0.744753
0.743851
0.744903
0.747932
0.745175
0.744029
0.743455
0.744366
0.745854
0.747343
0.748448
0.749249
0.749549
0.749806
0.749619
0.749219
0.748682
0.747522
0.746603
0.745792
0.745154
0.744734
0.744544
0.744487
0.744524
0.74476
0.745283
0.746071
0.746717
0.746747
0.746661
0.748196
0.749566
0.74767
0.749486
0.748177
0.74705
0.746177
0.745366
0.743916
0.741622
0.739697
0.738473
0.73773
0.7372
0.736738
0.736351
0.736186
0.736086
0.736173
0.736118
0.736225
0.735909
0.735925
0.735801
0.73627
0.736525
0.738116
0.739389
0.742221
0.744743
0.747856
0.750951
0.750405
0.741254
0.74197
0.742468
0.738708
0.733309
0.730773
0.734176
0.742047
0.748516
0.750206
0.749977
0.748466
0.746473
0.744529
0.742748
0.741124
0.740037
0.73937
0.738951
0.738932
0.739639
0.740888
0.743591
0.746483
0.750209
0.752097
0.753568
0.753577
0.752914
0.75231
0.751183
0.750074
0.748759
0.748172
0.7468
0.746572
0.745514
0.745599
0.745241
0.746369
0.748742
0.751938
0.753537
0.753996
0.754277
0.753517
0.748763
0.739438
0.729276
0.728432
0.726814
0.726404
0.727251
0.72828
0.732342
0.739041
0.748195
0.752817
0.753486
0.752575
0.752688
0.753395
0.753743
0.753554
0.752634
0.751622
0.751463
0.751789
0.752494
0.753315
0.754112
0.754485
0.754668
0.754589
0.754511
0.753935
0.753465
0.753176
0.753108
0.753197
0.753475
0.753854
0.754252
0.754628
0.754867
0.755073
0.755057
0.754503
0.753377
0.751805
0.751291
0.751934
0.752633
0.752987
0.752484
0.751514
0.751187
0.751032
0.75077
0.750246
0.750571
0.751474
0.752429
0.753179
0.753562
0.753756
0.753809
0.754006
0.754481
0.755064
0.755756
0.756241
0.756654
0.756657
0.756493
0.756247
0.75557
0.754563
0.752873
0.751252
0.754096
0.754178
0.754114
0.753975
0.753869
0.75368
0.753505
0.753358
0.753451
0.753266
0.753346
0.75283
0.752554
0.75239
0.752575
0.752846
0.753252
0.753709
0.754216
0.754759
0.755434
0.75601
0.756134
0.756354
0.756236
0.755927
0.755094
0.753847
0.751693
0.74993
0.754166
0.754365
0.754413
0.754383
0.754258
0.754201
0.754079
0.753988
0.753897
0.753676
0.753703
0.753567
0.753836
0.753834
0.754065
0.754096
0.754209
0.754133
0.753996
0.753778
0.753697
0.753787
0.754222
0.75441
0.754815
0.754993
0.754254
0.753342
0.752457
0.751529
0.754552
0.754237
0.754208
0.754248
0.754299
0.754266
0.754276
0.754178
0.754265
0.754433
0.754558
0.75457
0.754533
0.75435
0.75403
0.75366
0.753303
0.753113
0.753584
0.753777
0.754682
0.75511
0.755743
0.756569
0.756503
0.75674
0.756626
0.756675
0.756431
0.756042
0.724374
0.72333
0.723438
0.723485
0.72313
0.723767
0.725495
0.729912
0.736483
0.743798
0.749128
0.751142
0.749842
0.748096
0.751883
0.748276
0.746199
0.744972
0.743744
0.742625
0.741859
0.741737
0.742287
0.743412
0.744859
0.746177
0.747255
0.747898
0.748259
0.748543
0.748838
0.749086
0.749163
0.748963
0.748691
0.748844
0.749963
0.751653
0.752795
0.752884
0.751438
0.748966
0.746331
0.745295
0.747555
0.747961
0.748705
0.74896
0.748968
0.749143
0.74934
0.74926
0.748951
0.748351
0.747682
0.747225
0.747053
0.74723
0.747416
0.747439
0.747104
0.746412
0.745367
0.743996
0.742274
0.741015
0.74011
0.740414
0.742032
0.744397
0.746559
0.749144
0.750421
0.749472
0.744487
0.744554
0.745921
0.746449
0.745481
0.743382
0.741742
0.740349
0.739552
0.739361
0.739193
0.739555
0.739976
0.740487
0.741393
0.742313
0.743417
0.743944
0.744657
0.745351
0.74606
0.746646
0.747238
0.747785
0.747767
0.746835
0.745671
0.744779
0.744751
0.747274
0.745084
0.744062
0.745454
0.747707
0.749192
0.750135
0.750684
0.7512
0.75136
0.751556
0.751514
0.751323
0.750951
0.750323
0.749353
0.748515
0.747655
0.746959
0.74649
0.74617
0.745958
0.746024
0.746481
0.747242
0.747743
0.747516
0.74707
0.748281
0.749658
0.747876
0.749116
0.747233
0.746029
0.744431
0.741796
0.73883
0.737595
0.737249
0.737
0.736601
0.736167
0.736236
0.736599
0.737055
0.737485
0.737861
0.738081
0.738151
0.738052
0.737732
0.737004
0.736099
0.735687
0.735256
0.736569
0.739588
0.743088
0.74638
0.750155
0.7505
0.732163
0.733885
0.734881
0.731709
0.728906
0.732188
0.74133
0.746158
0.748082
0.746831
0.743827
0.740786
0.738085
0.736381
0.735356
0.734635
0.734266
0.733877
0.733913
0.733755
0.733936
0.734247
0.735685
0.738834
0.744954
0.749493
0.752886
0.753376
0.752901
0.752609
0.75002
0.748062
0.747453
0.747149
0.746674
0.745748
0.744431
0.74328
0.743504
0.745205
0.749398
0.752991
0.753813
0.754295
0.753473
0.747789
0.73443
0.726419
0.724266
0.723956
0.723777
0.722931
0.72191
0.72151
0.721121
0.723428
0.730524
0.740851
0.750483
0.753598
0.752667
0.75351
0.753745
0.753437
0.752428
0.751748
0.751838
0.752081
0.752474
0.751589
0.75087
0.750279
0.746791
0.744884
0.741752
0.739409
0.738051
0.737386
0.737331
0.737724
0.738698
0.740297
0.742531
0.745425
0.748531
0.751726
0.754355
0.755852
0.755896
0.755074
0.751731
0.752249
0.753147
0.753741
0.753547
0.752763
0.752304
0.75253
0.752347
0.751871
0.751877
0.752276
0.752373
0.752316
0.752122
0.751688
0.750808
0.749527
0.748368
0.747775
0.74744
0.748137
0.749209
0.750621
0.752204
0.753974
0.755545
0.756373
0.756522
0.75574
0.754277
0.754311
0.754348
0.754194
0.754231
0.753954
0.753941
0.753634
0.753052
0.752482
0.749836
0.747127
0.74453
0.743283
0.742274
0.741889
0.741704
0.742308
0.743197
0.745783
0.748985
0.751792
0.754921
0.756303
0.75713
0.757384
0.757261
0.756736
0.755604
0.754337
0.754327
0.754482
0.754472
0.754454
0.75432
0.753895
0.752839
0.751126
0.748869
0.746538
0.745445
0.744721
0.745514
0.746535
0.748539
0.75087
0.752536
0.754083
0.754882
0.755334
0.755472
0.755589
0.755706
0.755948
0.755955
0.756331
0.756483
0.756024
0.755169
0.754083
0.754459
0.753718
0.753042
0.751964
0.751168
0.750409
0.750186
0.749982
0.750514
0.750885
0.751694
0.752673
0.753742
0.754502
0.754921
0.755178
0.755219
0.755306
0.755452
0.755608
0.755929
0.755939
0.755964
0.755693
0.755128
0.75479
0.754445
0.754863
0.755958
0.757115
0.722655
0.728646
0.733187
0.732414
0.729581
0.725352
0.723144
0.723444
0.726856
0.733406
0.741834
0.74821
0.750559
0.749224
0.750787
0.747095
0.745583
0.744046
0.74198
0.740232
0.739451
0.739354
0.739748
0.740693
0.742469
0.744708
0.746616
0.747677
0.748216
0.748473
0.748767
0.748994
0.748948
0.74836
0.747619
0.747737
0.749365
0.751634
0.753175
0.753362
0.752018
0.749691
0.746939
0.745704
0.747634
0.748044
0.74846
0.748622
0.749047
0.749526
0.749674
0.749325
0.748632
0.747418
0.74622
0.745625
0.745449
0.745987
0.7466
0.74714
0.747363
0.747252
0.746588
0.745679
0.743477
0.741265
0.739126
0.738573
0.740279
0.743814
0.746962
0.749465
0.750197
0.748929
0.744592
0.745902
0.746562
0.742942
0.739049
0.737277
0.737099
0.737782
0.738044
0.738581
0.73862
0.738622
0.738665
0.738911
0.739356
0.740202
0.741379
0.742398
0.743657
0.744692
0.745565
0.746299
0.746999
0.747666
0.747887
0.747246
0.746201
0.745269
0.744726
0.747153
0.744858
0.74524
0.747337
0.748266
0.748885
0.749785
0.750486
0.75104
0.751341
0.751553
0.75168
0.751669
0.751484
0.751071
0.750605
0.749939
0.749201
0.748515
0.747855
0.747338
0.747117
0.74735
0.748018
0.748689
0.74887
0.748316
0.747752
0.748727
0.749808
0.747958
0.748514
0.746257
0.744074
0.740707
0.737818
0.737304
0.737469
0.737205
0.736634
0.736313
0.736737
0.737315
0.737836
0.73817
0.738527
0.738915
0.739217
0.73944
0.739434
0.73943
0.739061
0.737837
0.73657
0.735074
0.735081
0.737749
0.741711
0.74544
0.749684
0.750515
0.728723
0.728728
0.728544
0.72653
0.730574
0.73826
0.745698
0.746622
0.744639
0.741061
0.737833
0.736096
0.735117
0.734657
0.734498
0.734235
0.734027
0.733976
0.734186
0.734548
0.735076
0.735218
0.734899
0.735878
0.740989
0.746947
0.752055
0.753175
0.752957
0.752857
0.748164
0.747288
0.748129
0.74894
0.749059
0.747933
0.745942
0.743381
0.742629
0.745459
0.750149
0.753162
0.753874
0.75417
0.750623
0.737653
0.726566
0.725836
0.726617
0.726064
0.725162
0.724596
0.723995
0.722578
0.721962
0.721061
0.722432
0.727598
0.7413
0.752978
0.752515
0.753317
0.753759
0.753315
0.752512
0.751948
0.7519
0.751409
0.749222
0.744488
0.738279
0.732389
0.729347
0.727404
0.726969
0.72671
0.726517
0.726296
0.726125
0.726002
0.725969
0.726229
0.727033
0.728541
0.731912
0.737393
0.744741
0.751785
0.755933
0.756426
0.752343
0.752834
0.753405
0.753882
0.75402
0.753729
0.75349
0.753385
0.753333
0.752671
0.75237
0.752071
0.751248
0.750058
0.748756
0.746677
0.743635
0.740082
0.737453
0.735614
0.734707
0.734393
0.734148
0.735489
0.737372
0.740923
0.746014
0.75153
0.755812
0.757259
0.754529
0.754445
0.754447
0.75432
0.75427
0.753838
0.753638
0.75237
0.750057
0.7461
0.738321
0.736778
0.733993
0.734209
0.734239
0.733548
0.732852
0.732165
0.73198
0.732111
0.733341
0.735815
0.74263
0.748566
0.753723
0.756528
0.757551
0.757632
0.757163
0.756283
0.754529
0.754527
0.754243
0.754117
0.753754
0.751801
0.747306
0.741612
0.736608
0.734653
0.734582
0.73257
0.733061
0.73283
0.732725
0.734407
0.737488
0.742629
0.748349
0.752084
0.754088
0.755037
0.755835
0.756125
0.756302
0.756629
0.756862
0.75699
0.756655
0.755967
0.753918
0.751679
0.748188
0.745969
0.742655
0.740445
0.738865
0.737637
0.736497
0.736257
0.737569
0.739947
0.743522
0.747751
0.750959
0.752786
0.754082
0.75467
0.754782
0.754942
0.75445
0.754005
0.753145
0.751353
0.749872
0.748146
0.747759
0.74979
0.752859
0.756774
0.732718
0.742091
0.746139
0.744975
0.74127
0.735143
0.729445
0.72595
0.725925
0.728746
0.734667
0.742668
0.748979
0.750068
0.749339
0.746617
0.74546
0.743398
0.741017
0.739708
0.739747
0.740388
0.741115
0.742035
0.743535
0.745415
0.74712
0.748031
0.748386
0.74861
0.748901
0.749033
0.748568
0.74741
0.746493
0.747135
0.74955
0.752504
0.754258
0.754724
0.753803
0.751921
0.74898
0.746447
0.747723
0.748088
0.748287
0.749026
0.749732
0.749849
0.749668
0.748969
0.7477
0.745642
0.744104
0.743608
0.743866
0.744598
0.745552
0.746408
0.74696
0.747092
0.746673
0.745747
0.743845
0.741034
0.738405
0.737689
0.739439
0.743495
0.747612
0.74986
0.749811
0.748101
0.745254
0.746424
0.741358
0.736168
0.735856
0.738062
0.740992
0.742775
0.743891
0.744193
0.74395
0.743348
0.742515
0.741877
0.741568
0.741905
0.742547
0.743655
0.744712
0.745661
0.746292
0.746713
0.747228
0.74783
0.748031
0.747323
0.746339
0.745532
0.745047
0.747427
0.745017
0.745875
0.745727
0.745428
0.746702
0.748267
0.749502
0.750354
0.750982
0.751173
0.75146
0.751354
0.751398
0.751048
0.750655
0.75012
0.749537
0.748935
0.748496
0.74835
0.748654
0.749262
0.74987
0.750082
0.749807
0.749114
0.748644
0.749376
0.749875
0.748061
0.747986
0.744724
0.741129
0.738006
0.7373
0.737619
0.737147
0.736495
0.736325
0.736698
0.737304
0.737364
0.737007
0.737115
0.737799
0.738592
0.739093
0.739177
0.739403
0.739191
0.739078
0.738111
0.737184
0.735428
0.73474
0.73694
0.741122
0.745342
0.74973
0.750391
0.727146
0.725266
0.724391
0.727329
0.735994
0.743648
0.745933
0.744355
0.740267
0.737324
0.736136
0.735433
0.7352
0.734946
0.734693
0.734389
0.734038
0.733945
0.73475
0.736488
0.738465
0.739514
0.73851
0.738117
0.740622
0.746193
0.750962
0.752814
0.753006
0.753487
0.746293
0.747599
0.749635
0.750577
0.750532
0.749937
0.747377
0.744079
0.742628
0.745332
0.7508
0.753191
0.753893
0.753671
0.746962
0.731844
0.726362
0.727252
0.727488
0.726932
0.726605
0.726275
0.725976
0.725432
0.724474
0.722797
0.722056
0.724125
0.734204
0.75135
0.75222
0.753109
0.753721
0.75345
0.752593
0.751924
0.751341
0.748561
0.742443
0.733383
0.727494
0.724399
0.724618
0.725794
0.725494
0.726528
0.725928
0.725939
0.725598
0.725204
0.724603
0.72399
0.723499
0.72334
0.723849
0.725631
0.731348
0.741676
0.752253
0.756602
0.753223
0.753439
0.753444
0.753405
0.753688
0.753952
0.754163
0.754253
0.753882
0.752867
0.751876
0.750809
0.748912
0.746454
0.744228
0.741526
0.738285
0.735729
0.733809
0.733657
0.732532
0.733094
0.732788
0.732591
0.732461
0.733015
0.734336
0.739563
0.748509
0.755899
0.754728
0.754637
0.75446
0.754182
0.754072
0.753412
0.752439
0.74972
0.744073
0.73854
0.735788
0.736902
0.738456
0.739394
0.739191
0.738548
0.738036
0.736182
0.73383
0.731624
0.72857
0.727369
0.728213
0.731926
0.740812
0.750013
0.755079
0.756931
0.757495
0.757322
0.754694
0.75429
0.753504
0.753102
0.751851
0.747501
0.740039
0.735738
0.735004
0.737272
0.739052
0.740512
0.737062
0.736289
0.732736
0.729723
0.728111
0.727862
0.73145
0.738093
0.745202
0.75043
0.753983
0.754898
0.755631
0.756158
0.756589
0.756936
0.757099
0.756979
0.753251
0.746905
0.741244
0.736113
0.733023
0.730237
0.728969
0.727849
0.727491
0.727286
0.726618
0.726734
0.727312
0.730836
0.736416
0.742487
0.746736
0.749306
0.750469
0.750337
0.750103
0.748611
0.746642
0.744273
0.7413
0.738827
0.737479
0.737525
0.743143
0.753468
0.738388
0.748554
0.750225
0.749417
0.746912
0.742833
0.737788
0.734171
0.733204
0.733172
0.734954
0.739336
0.74609
0.749849
0.748103
0.746536
0.745363
0.742816
0.741081
0.741809
0.743702
0.745293
0.74601
0.746256
0.746676
0.747385
0.748078
0.748419
0.748587
0.748902
0.749168
0.748853
0.747598
0.745914
0.745729
0.747571
0.751342
0.754165
0.755487
0.755768
0.754926
0.753241
0.750711
0.747442
0.747854
0.748127
0.749062
0.7499
0.749877
0.74967
0.749395
0.748625
0.747003
0.744607
0.743073
0.742756
0.74309
0.7438
0.744527
0.745169
0.745516
0.745432
0.744842
0.743728
0.742025
0.739822
0.737827
0.737653
0.739955
0.744575
0.748564
0.750064
0.749389
0.747732
0.745716
0.742352
0.735317
0.735356
0.739829
0.743647
0.746219
0.747171
0.74741
0.747439
0.747162
0.746751
0.746062
0.745358
0.744992
0.744984
0.745526
0.746072
0.746701
0.747132
0.74744
0.747587
0.747875
0.748236
0.748107
0.74714
0.746423
0.745637
0.745521
0.747668
0.745054
0.743562
0.740977
0.741991
0.744071
0.745936
0.747446
0.748558
0.749293
0.749717
0.750063
0.750263
0.750358
0.750278
0.75005
0.749749
0.74955
0.749506
0.749687
0.750116
0.750613
0.750936
0.751142
0.751133
0.750776
0.750157
0.749814
0.750183
0.749965
0.748037
0.747347
0.742905
0.738788
0.737241
0.737491
0.73703
0.736257
0.735901
0.735993
0.73621
0.735859
0.735139
0.735142
0.736155
0.737614
0.738578
0.738827
0.738597
0.73859
0.738469
0.73824
0.737486
0.736767
0.73537
0.73503
0.737459
0.741549
0.745972
0.750104
0.750178
0.725864
0.722796
0.724383
0.731898
0.741633
0.745562
0.744598
0.741088
0.738077
0.736403
0.735924
0.735322
0.735076
0.734736
0.7344
0.733988
0.733512
0.733715
0.735131
0.738755
0.742564
0.744508
0.74404
0.742954
0.743814
0.747186
0.750609
0.752567
0.753306
0.753729
0.746241
0.748762
0.750494
0.75089
0.751075
0.750279
0.748083
0.744156
0.742623
0.746575
0.751138
0.752875
0.753679
0.752923
0.743298
0.729701
0.72685
0.727608
0.727556
0.727234
0.727138
0.727287
0.727367
0.727608
0.727426
0.726276
0.724883
0.725732
0.733792
0.747153
0.751816
0.752963
0.753754
0.753544
0.752609
0.751275
0.74879
0.742997
0.73466
0.728083
0.72645
0.725977
0.727655
0.728614
0.728424
0.728454
0.728508
0.728252
0.728109
0.727677
0.726965
0.725972
0.724754
0.723512
0.722526
0.722316
0.723903
0.730124
0.742795
0.754592
0.753995
0.753691
0.753015
0.752293
0.752154
0.753094
0.754106
0.754679
0.754521
0.753193
0.751138
0.749011
0.746108
0.742779
0.740214
0.73775
0.735828
0.734909
0.735232
0.73616
0.736565
0.737244
0.737632
0.736737
0.735613
0.734452
0.733679
0.734049
0.738252
0.745573
0.754784
0.754089
0.7537
0.753377
0.753387
0.752527
0.750597
0.746112
0.739076
0.736301
0.736659
0.740958
0.741784
0.742075
0.741283
0.741351
0.740397
0.740284
0.738461
0.736371
0.73263
0.728641
0.725408
0.724051
0.726049
0.734584
0.746537
0.754255
0.756954
0.757575
0.754667
0.753707
0.751925
0.751081
0.748771
0.742394
0.735228
0.735602
0.739143
0.742703
0.74574
0.745254
0.746688
0.744479
0.742868
0.739115
0.73345
0.727659
0.724395
0.724664
0.729273
0.737796
0.747806
0.751498
0.753472
0.75474
0.75568
0.756422
0.757047
0.757291
0.751159
0.742724
0.735627
0.733236
0.731042
0.731357
0.733125
0.73531
0.737874
0.737659
0.734859
0.731643
0.727282
0.723507
0.722562
0.727087
0.733118
0.73906
0.74166
0.743205
0.742661
0.741372
0.738825
0.735889
0.733423
0.73145
0.732462
0.738276
0.74364
0.75179
0.740797
0.750207
0.751011
0.749881
0.748899
0.747486
0.745233
0.743672
0.743072
0.741889
0.740939
0.74165
0.745819
0.749214
0.7473
0.746378
0.745062
0.742596
0.742626
0.745408
0.748103
0.749257
0.749295
0.748879
0.748526
0.748478
0.748547
0.748711
0.749113
0.749373
0.74903
0.747678
0.745488
0.745189
0.746931
0.751055
0.753933
0.755135
0.755686
0.755133
0.753126
0.751521
0.750395
0.748092
0.747969
0.748919
0.749998
0.74975
0.74942
0.749419
0.749349
0.748842
0.747483
0.745508
0.743887
0.743166
0.743022
0.743013
0.743192
0.743256
0.743422
0.743405
0.743059
0.742168
0.740814
0.739171
0.738107
0.738644
0.741794
0.746082
0.749477
0.750568
0.749413
0.747453
0.744604
0.737408
0.734668
0.738945
0.743855
0.746547
0.747897
0.748058
0.747954
0.747776
0.747675
0.747573
0.747341
0.747136
0.747107
0.747344
0.747699
0.748016
0.748299
0.748447
0.748445
0.748396
0.748485
0.748377
0.747753
0.746838
0.74633
0.745521
0.746601
0.748189
0.744188
0.738932
0.737036
0.738868
0.74101
0.742673
0.744308
0.745367
0.746192
0.74666
0.747164
0.747579
0.748005
0.748533
0.748715
0.74914
0.749101
0.749341
0.74934
0.749569
0.749669
0.74998
0.750218
0.750505
0.750691
0.750572
0.750542
0.750555
0.749951
0.748055
0.746384
0.74077
0.737649
0.737236
0.737147
0.736212
0.735496
0.735085
0.734799
0.734351
0.733717
0.733488
0.734319
0.736068
0.737874
0.7386
0.738309
0.737879
0.737569
0.737464
0.73726
0.736919
0.7366
0.736271
0.736741
0.73926
0.743037
0.74742
0.750389
0.750151
0.725274
0.722526
0.727917
0.737632
0.744451
0.745123
0.742512
0.739069
0.73735
0.736028
0.73541
0.734707
0.734244
0.734007
0.733769
0.733493
0.733135
0.733311
0.735277
0.740528
0.745769
0.748562
0.749149
0.748848
0.748836
0.750212
0.751749
0.752939
0.753467
0.753743
0.747676
0.749961
0.750765
0.75059
0.750504
0.749762
0.746964
0.74315
0.743648
0.747804
0.751324
0.752359
0.753207
0.751967
0.741865
0.729272
0.727134
0.72742
0.727406
0.727368
0.727306
0.727375
0.727681
0.72869
0.729736
0.72975
0.729214
0.730322
0.735202
0.742357
0.751288
0.75252
0.753723
0.753508
0.752159
0.74933
0.74459
0.737086
0.730319
0.72707
0.727261
0.727549
0.728806
0.729584
0.729576
0.730031
0.729761
0.729678
0.729462
0.729242
0.728827
0.728009
0.72674
0.725188
0.723526
0.722142
0.721763
0.723484
0.730576
0.743984
0.7543
0.753275
0.75119
0.748483
0.748395
0.750233
0.752512
0.754139
0.754709
0.753909
0.751114
0.747351
0.743515
0.739988
0.737691
0.736362
0.735539
0.735684
0.736666
0.737584
0.738217
0.738348
0.738209
0.737951
0.737007
0.735895
0.734665
0.733478
0.733008
0.733368
0.753526
0.752518
0.751275
0.750898
0.75159
0.75106
0.74857
0.743162
0.737247
0.736073
0.740218
0.743386
0.742352
0.741859
0.740993
0.740338
0.739976
0.739438
0.739392
0.73743
0.735781
0.731182
0.72771
0.724235
0.722065
0.722122
0.731626
0.745922
0.754788
0.757453
0.754378
0.752177
0.749202
0.747855
0.7449
0.738848
0.735609
0.736622
0.74096
0.745178
0.743712
0.74294
0.744264
0.744727
0.74499
0.743826
0.740649
0.735396
0.728912
0.723989
0.721421
0.722826
0.731658
0.741461
0.747999
0.751504
0.753673
0.755093
0.756319
0.75723
0.749497
0.738315
0.735126
0.732584
0.732658
0.73654
0.740639
0.744936
0.746129
0.745644
0.746223
0.744272
0.740313
0.730636
0.723725
0.720372
0.720879
0.726784
0.73184
0.734317
0.735648
0.734151
0.731629
0.729094
0.727041
0.726366
0.729218
0.736317
0.742353
0.748514
0.741492
0.75017
0.749653
0.747446
0.748382
0.749226
0.748942
0.748196
0.747287
0.746109
0.745628
0.746764
0.747953
0.748422
0.74717
0.745923
0.744518
0.743164
0.745094
0.748291
0.750248
0.750726
0.750317
0.749591
0.749134
0.749023
0.749206
0.749526
0.749578
0.749004
0.747346
0.745404
0.745365
0.747669
0.751379
0.753245
0.753662
0.754238
0.754123
0.751809
0.74961
0.74941
0.749655
0.748424
0.74857
0.7496
0.749578
0.749124
0.749301
0.749583
0.749605
0.7493
0.748517
0.747529
0.746805
0.746479
0.74648
0.746486
0.746388
0.746184
0.745836
0.745301
0.74475
0.743877
0.742494
0.74079
0.74017
0.7416
0.74488
0.748209
0.750407
0.750772
0.749386
0.747673
0.743564
0.735834
0.73625
0.741279
0.744727
0.747067
0.748231
0.748366
0.748119
0.74798
0.747995
0.748018
0.748124
0.748205
0.748348
0.74853
0.748646
0.748758
0.748796
0.748834
0.748774
0.748711
0.748445
0.747927
0.747173
0.746556
0.74607
0.746229
0.747814
0.747875
0.742094
0.734955
0.734997
0.73698
0.738708
0.740038
0.741396
0.742137
0.742955
0.743092
0.743508
0.7435
0.743664
0.743592
0.743484
0.743308
0.743087
0.742594
0.742044
0.741799
0.741484
0.742748
0.743788
0.745581
0.747428
0.748905
0.749832
0.750189
0.749686
0.748534
0.745475
0.739273
0.737128
0.737327
0.736822
0.735976
0.735237
0.734533
0.733821
0.733192
0.732764
0.732953
0.734143
0.736107
0.737802
0.738526
0.73783
0.737211
0.737541
0.73764
0.738182
0.73878
0.739108
0.739033
0.739795
0.741956
0.745105
0.748747
0.750664
0.750195
0.725508
0.72382
0.732281
0.742269
0.745289
0.744072
0.741089
0.738346
0.73676
0.735462
0.734372
0.73361
0.733301
0.733335
0.733344
0.733049
0.732508
0.732985
0.735661
0.741213
0.74653
0.749437
0.750448
0.750935
0.751545
0.752295
0.752797
0.752467
0.751529
0.751824
0.749363
0.750585
0.750436
0.749651
0.748968
0.747849
0.745154
0.743215
0.744609
0.749074
0.751202
0.751676
0.752343
0.75086
0.742456
0.730811
0.727125
0.726966
0.727194
0.727301
0.727339
0.727292
0.727561
0.728672
0.730946
0.732961
0.733888
0.735825
0.739255
0.741748
0.750919
0.752314
0.753587
0.753192
0.750972
0.746718
0.740284
0.732858
0.728523
0.72678
0.727734
0.728853
0.729838
0.730612
0.730918
0.730959
0.73087
0.730308
0.729907
0.729766
0.729625
0.729058
0.727797
0.726239
0.724528
0.722371
0.720954
0.721089
0.722843
0.730014
0.754413
0.752869
0.748497
0.743031
0.741261
0.743437
0.74792
0.751961
0.754176
0.754262
0.752075
0.747129
0.741906
0.738296
0.736684
0.736026
0.735917
0.736542
0.737642
0.738596
0.739359
0.739421
0.739273
0.738662
0.737739
0.73615
0.734279
0.732353
0.731769
0.730389
0.752711
0.752447
0.750449
0.747427
0.747628
0.748373
0.746767
0.741613
0.737236
0.737802
0.741792
0.743347
0.742927
0.743284
0.742961
0.742209
0.740619
0.739762
0.739233
0.738529
0.737738
0.732793
0.728644
0.72481
0.722199
0.72015
0.720626
0.731948
0.749961
0.75716
0.753649
0.750233
0.745092
0.744055
0.741453
0.737585
0.736414
0.739516
0.744761
0.744167
0.742221
0.741395
0.7419
0.742313
0.743061
0.74381
0.74083
0.737626
0.733286
0.728735
0.72328
0.720279
0.720574
0.725695
0.734389
0.743197
0.749067
0.752665
0.755211
0.756996
0.749
0.73864
0.732972
0.732503
0.733177
0.73678
0.742818
0.74497
0.74561
0.744334
0.745427
0.7485
0.746377
0.742121
0.731243
0.722067
0.718006
0.71907
0.722691
0.726349
0.728438
0.728392
0.726024
0.724734
0.722698
0.722759
0.727616
0.735594
0.741356
0.745862
0.740703
0.748528
0.745633
0.742995
0.746243
0.749193
0.749402
0.748368
0.747464
0.747102
0.747669
0.748163
0.747883
0.747285
0.747072
0.746763
0.74613
0.745373
0.744479
0.744529
0.74666
0.749242
0.750882
0.751276
0.750929
0.750332
0.750022
0.749934
0.749832
0.749475
0.748469
0.746915
0.745957
0.746478
0.748893
0.751276
0.751773
0.75154
0.752488
0.7529
0.751131
0.749511
0.749416
0.749718
0.749676
0.749362
0.749828
0.749574
0.749175
0.748854
0.74877
0.749316
0.749749
0.749883
0.749799
0.74961
0.749275
0.748824
0.748337
0.747873
0.747531
0.747262
0.747039
0.746893
0.746765
0.746643
0.746456
0.746147
0.745423
0.743893
0.743639
0.745104
0.747637
0.750041
0.750884
0.749811
0.747966
0.746989
0.745697
0.743098
0.739332
0.734929
0.737861
0.740941
0.743936
0.746724
0.748199
0.748589
0.748571
0.748462
0.748494
0.74855
0.748586
0.748589
0.748551
0.748528
0.748508
0.748526
0.748531
0.748482
0.748381
0.748164
0.747791
0.747226
0.746756
0.746574
0.746846
0.747797
0.747894
0.745892
0.742571
0.737853
0.736047
0.732994
0.734851
0.736873
0.738534
0.73977
0.740715
0.741422
0.741858
0.742128
0.742147
0.742147
0.741806
0.741389
0.740947
0.740631
0.740188
0.740134
0.740099
0.739941
0.739534
0.738982
0.73914
0.740029
0.741798
0.744393
0.74686
0.748625
0.749024
0.748589
0.747869
0.746263
0.743627
0.738092
0.737208
0.737559
0.737413
0.737133
0.736632
0.735768
0.73478
0.73377
0.733198
0.733403
0.73454
0.73613
0.737557
0.738521
0.737879
0.737219
0.738548
0.740134
0.74125
0.741801
0.742123
0.742056
0.742735
0.744589
0.747251
0.749859
0.750938
0.750407
0.746075
0.732414
0.725269
0.727114
0.737414
0.744332
0.745192
0.743
0.740167
0.737659
0.736058
0.734286
0.733188
0.732799
0.732917
0.733384
0.7334
0.732941
0.732312
0.732409
0.73472
0.739856
0.744557
0.747047
0.748271
0.749041
0.75034
0.751101
0.750792
0.749857
0.74932
0.749532
0.749869
0.750309
0.750673
0.750344
0.749161
0.74784
0.746933
0.745576
0.743958
0.743252
0.746291
0.749612
0.750739
0.750788
0.750985
0.749611
0.743696
0.73357
0.727855
0.726451
0.726771
0.727152
0.72731
0.727149
0.72727
0.728261
0.731492
0.735621
0.73798
0.740044
0.743766
0.746425
0.747852
0.749754
0.750798
0.752339
0.753431
0.752625
0.749197
0.742957
0.736236
0.730315
0.728134
0.726711
0.727969
0.72989
0.730279
0.731766
0.73171
0.731952
0.731419
0.730551
0.72971
0.729361
0.729454
0.729175
0.727694
0.7257
0.724366
0.722858
0.720578
0.719381
0.720369
0.725252
0.739079
0.748826
0.752899
0.753703
0.750543
0.74401
0.738189
0.736772
0.740126
0.746057
0.75167
0.753661
0.752898
0.7488
0.742013
0.737606
0.736327
0.736333