/*--------------------------------*- C++ -*----------------------------------*\
| =========                 |                                                 |
| \\      /  F ield         | OpenFOAM: The Open Source CFD Toolbox           |
|  \\    /   O peration     | Version:  2.1.1                                 |
|   \\  /    A nd           | Web:      www.OpenFOAM.org                      |
|    \\/     M anipulation  |                                                 |
\*---------------------------------------------------------------------------*/
FoamFile
{
    version     2.0;
    format      ascii;
    class       volScalarField;
    location    "0.003550000";
    object      O;
}
// * * * * * * * * * * * * * * * * * * * * * * * * * * * * * * * * * * * * * //

dimensions      [0 0 0 0 0 0 0];

internalField   nonuniform List<scalar> 
12384
(
0.00287924
0.00302348
0.00294325
0.00272635
0.00259673
0.00219366
0.00163191
0.00110189
0.0005278
0.000235441
7.16045e-05
0.000173257
0.00019213
0.000190012
3.18914e-05
3.56468e-05
4.96079e-05
6.63165e-05
9.28223e-05
0.000111495
0.000114718
0.000126145
0.000119896
0.000130347
0.000128837
0.000143697
0.000137229
0.000167965
0.000162593
0.000194488
0.000184723
0.000223531
0.000207066
0.000273758
0.00031507
0.000376282
0.000297054
0.000177801
8.57998e-05
4.65563e-05
4.15997e-05
9.32888e-05
0.000174436
0.000124102
0.000196783
0.000200695
0.000172733
0.000159574
0.00015257
0.000150506
0.000144351
0.000147838
0.000150074
0.000185771
0.000206875
0.000270804
0.000320266
0.000385165
0.000458887
0.000510663
0.00043758
0.000425776
0.000426951
0.000362169
0.000378985
0.000356365
0.000343315
0.000325541
0.000261844
0.000219904
0.000185148
0.000126981
7.10521e-05
8.79172e-05
0.000108798
0.000102601
9.627e-05
9.54509e-05
0.000100092
0.000111523
0.000129394
0.000156598
0.00017445
0.000193748
0.000194668
0.000197004
0.000202849
0.000204249
0.00020804
0.000209764
0.000207702
0.000204259
0.000203858
0.000200179
0.000199442
0.000189089
0.000185071
0.00017624
0.000188531
9.62189e-05
5.3371e-05
7.9666e-05
0.000183407
0.000152881
0.000108083
7.47501e-05
4.69888e-05
2.52961e-05
2.97696e-05
3.47022e-05
5.90843e-05
6.6295e-05
8.71823e-05
8.54127e-05
8.96681e-05
7.43452e-05
7.27267e-05
5.97694e-05
5.55907e-05
4.98591e-05
4.51773e-05
4.72483e-05
5.31846e-05
5.95662e-05
6.94213e-05
8.65719e-05
0.000114407
0.000162029
0.000186981
0.000189886
0.000195766
0.000148477
0.00010876
0.000180752
0.000106513
0.000125153
0.000167086
0.000200752
0.000189886
0.000189115
0.000179832
0.000137513
8.66692e-05
3.9816e-05
2.64887e-05
2.09275e-05
1.65225e-05
1.11402e-05
1.10927e-05
9.01085e-06
1.0257e-05
8.55643e-06
1.09655e-05
9.27435e-06
9.7609e-06
1.36621e-05
1.02165e-05
3.00427e-05
2.95255e-05
8.60318e-05
0.000166529
9.39505e-05
4.32549e-05
7.73294e-05
0.000109739
0.000113245
0.000147351
6.837e-05
1.53233e-06
4.11603e-07
4.73024e-07
2.39504e-06
0.000183282
7.16188e-05
3.46651e-05
2.91213e-05
3.47977e-05
4.43626e-05
5.58171e-05
6.70508e-05
8.18323e-05
9.25952e-05
0.000106466
0.000101998
8.83946e-05
6.11896e-05
4.04839e-05
2.8027e-05
1.28208e-05
1.15306e-05
8.83903e-06
1.13352e-05
1.89282e-05
2.45458e-05
4.85433e-05
5.29136e-05
6.60347e-05
7.77518e-05
0.000103458
0.00011728
0.00014103
0.000156594
0.000170546
0.000166972
0.000156037
7.40979e-05
2.04892e-05
9.74805e-06
1.35321e-05
2.31665e-05
4.27537e-05
5.27321e-05
0.00017334
0.000144368
0.000185397
0.000192052
0.000168861
0.000117548
5.97558e-05
2.70358e-05
1.66143e-05
2.34432e-05
2.4326e-05
3.38994e-05
2.33727e-05
1.68246e-05
1.44814e-05
3.29625e-05
5.94257e-05
9.43787e-05
7.9766e-05
0.000110836
0.000112266
7.92522e-05
8.3955e-05
2.60443e-05
3.94076e-05
3.35256e-05
3.26423e-05
3.37369e-05
3.38107e-05
3.53859e-05
3.68009e-05
3.85744e-05
4.05923e-05
4.29482e-05
4.55223e-05
5.06039e-05
5.94436e-05
7.2854e-05
9.71581e-05
0.000133348
0.000158993
0.000176983
5.41552e-05
3.61509e-05
2.89557e-05
2.76372e-05
3.827e-05
6.0492e-05
7.39324e-05
8.70546e-05
0.000108025
0.000127039
0.000125002
9.0662e-05
5.71548e-05
3.25335e-05
2.14755e-05
2.07515e-05
1.75246e-05
1.52963e-05
1.43675e-05
1.29307e-05
1.33356e-05
2.1275e-05
4.1283e-05
5.33502e-05
8.11422e-05
0.000116185
0.000144245
0.000165815
0.000169234
0.00016422
7.89725e-06
7.79569e-06
8.53174e-06
8.72833e-06
1.10009e-05
1.36044e-05
1.672e-05
2.18746e-05
2.6691e-05
3.54596e-05
8.27408e-05
8.05461e-05
7.0794e-05
4.70571e-05
4.52274e-05
4.37682e-05
4.03348e-05
3.87713e-05
3.47378e-05
3.45589e-05
4.07231e-05
4.48227e-05
5.60101e-05
5.65152e-05
7.67444e-05
8.32129e-05
0.000117952
0.000130384
0.000163743
0.000167123
8.20044e-06
6.79102e-06
6.3178e-06
5.87414e-06
6.61922e-06
7.61365e-06
8.5601e-06
9.91277e-06
1.1872e-05
1.17305e-05
1.66843e-05
2.72162e-05
2.94588e-05
3.46484e-05
4.20168e-05
4.87897e-05
4.80821e-05
5.35411e-05
4.80907e-05
5.10104e-05
4.4768e-05
4.54652e-05
4.29078e-05
4.16507e-05
4.36833e-05
4.87957e-05
5.72702e-05
7.65101e-05
8.45708e-05
9.0018e-05
8.38408e-05
3.31575e-05
1.4989e-05
4.95064e-06
7.57517e-06
6.47018e-06
5.56905e-06
7.38755e-06
6.47051e-06
7.75039e-06
9.44422e-06
1.19437e-05
1.68204e-05
2.15383e-05
3.41479e-05
3.68512e-05
4.26883e-05
4.10931e-05
4.85388e-05
4.40694e-05
7.78887e-05
0.000260751
0.00032561
0.000364624
0.00033331
0.000318732
0.000315723
0.00038857
0.000569152
0.000718885
0.0025588
0.000939131
0.000587353
0.000496941
0.000531589
0.000653866
0.00136617
0.00190941
0.00193345
0.000860823
0.000220346
7.19489e-05
0.000166043
0.000195356
2.87776e-05
9.39638e-05
0.000240699
0.000346738
0.000373499
0.00038069
0.000365915
0.000358787
0.000328862
0.000313672
0.000269304
0.000245517
0.000219823
0.00022383
0.000215523
0.000239652
0.000226025
0.000259219
0.000251655
0.00031835
0.00039047
0.000527326
0.000467605
0.000262842
0.000107382
5.02699e-05
4.31274e-05
0.00010626
0.000174139
0.000124323
0.000194843
0.000203893
0.000152035
0.000136073
0.000129449
0.000128898
0.000125598
0.000128883
0.000133086
0.000145624
0.000156897
0.000167265
0.000190519
0.000249596
0.000349851
0.000465825
0.000525098
0.000594802
0.000500577
0.000459444
0.000425148
0.000378322
0.000337647
0.000334924
0.000319383
0.000284478
0.000212676
0.000131774
7.17761e-05
9.06776e-05
0.000107959
9.48551e-05
9.75672e-05
0.000142024
0.000183316
0.000187907
0.000192576
0.000189297
0.000185087
0.000156919
0.000170867
0.000166289
0.000185453
0.000198949
0.000199151
0.000200304
0.000202082
0.000208164
0.000210421
0.000206409
0.000200635
0.000190651
0.000180702
0.000169211
0.000177093
0.000178602
0.000112413
7.26965e-05
0.000119179
0.00016048
0.000112072
6.17128e-05
3.88805e-05
8.11049e-05
0.000158847
0.000164654
0.000132002
0.000108278
9.5168e-05
9.01813e-05
9.52283e-05
0.00011219
0.000134117
0.000172721
0.000191303
0.000179669
0.000141831
0.000116928
0.000109055
0.000105609
0.00010711
0.000117373
0.000148218
0.000184685
0.000193395
0.000195155
0.000195927
0.000159082
0.000106578
0.00017981
0.000110271
0.000162019
0.000194502
0.000192758
0.000160559
8.74505e-05
2.29499e-05
8.96407e-06
5.47513e-06
4.93184e-06
5.41286e-06
5.0796e-06
3.54718e-06
3.24764e-06
2.30186e-06
2.42228e-06
2.53139e-06
2.73762e-06
2.50164e-06
2.51573e-06
2.4825e-06
2.60732e-06
3.50118e-06
1.56028e-05
2.70268e-05
4.20272e-05
0.000105076
0.000157549
5.47538e-05
6.8657e-05
1.17816e-05
1.57439e-05
1.86594e-05
2.66268e-06
4.72314e-07
2.43287e-07
1.00003e-06
2.13303e-05
0.000139258
7.81451e-05
8.91279e-05
0.000144286
0.000193037
0.000111135
3.48016e-05
1.79374e-05
9.93318e-06
8.0128e-06
6.75239e-06
6.77275e-06
8.49451e-06
1.40999e-05
6.82651e-05
0.00018318
7.81159e-05
3.03101e-05
1.17297e-05
1.164e-05
1.79259e-05
2.64379e-05
5.18483e-05
8.52559e-05
0.000133271
0.000152981
0.000188065
0.000181726
0.000153001
0.000157029
0.00013476
0.000175226
0.00012823
3.29606e-05
1.20016e-05
9.03695e-06
1.76624e-05
3.01495e-05
0.000157369
6.3349e-06
2.79169e-07
1.6076e-07
1.11578e-07
1.04555e-07
1.36031e-07
1.99257e-07
6.25038e-07
7.14674e-06
0.00015641
2.15767e-05
1.63449e-05
4.15072e-05
3.31899e-05
3.70485e-05
4.4148e-05
4.97507e-05
5.79263e-05
9.73672e-05
0.000123145
0.000116958
9.24458e-05
5.78678e-05
2.68738e-05
1.17453e-05
9.71349e-06
7.67523e-06
7.59901e-06
9.87077e-06
1.34925e-05
1.61398e-05
1.67895e-05
1.5997e-05
1.34751e-05
1.00418e-05
7.42044e-06
5.38401e-06
4.64386e-06
4.04483e-06
3.73257e-06
6.08804e-06
1.44484e-05
3.8949e-05
4.71342e-05
3.4332e-05
2.28315e-05
1.79797e-05
2.48003e-05
4.23387e-05
4.94748e-05
5.39035e-05
6.27266e-05
7.63919e-05
7.19206e-05
5.65822e-05
3.91055e-05
3.17262e-05
2.72975e-05
2.08796e-05
1.92249e-05
1.69431e-05
1.06009e-05
6.16447e-06
4.66399e-06
3.35423e-06
2.51395e-06
3.08785e-06
4.64033e-06
5.15021e-06
8.66564e-06
1.45645e-05
3.27828e-05
6.03017e-05
7.59647e-06
7.16767e-06
7.42073e-06
8.20038e-06
8.35826e-06
1.00742e-05
1.15805e-05
1.45086e-05
2.09272e-05
2.5045e-05
3.41761e-05
5.67433e-05
4.64518e-05
2.56176e-05
2.3811e-05
2.00995e-05
1.5013e-05
1.25308e-05
1.15537e-05
9.61404e-06
6.24432e-06
4.96144e-06
4.40022e-06
3.65161e-06
3.48886e-06
4.65135e-06
7.42973e-06
1.46713e-05
4.72963e-05
9.91118e-05
7.23767e-06
6.1774e-06
5.76643e-06
5.02503e-06
5.47822e-06
5.72262e-06
6.87981e-06
9.9948e-06
1.39814e-05
1.95562e-05
1.2988e-05
1.19084e-05
9.44241e-06
9.70926e-06
8.15954e-06
7.94887e-06
7.2964e-06
7.68568e-06
8.36673e-06
9.78694e-06
1.04433e-05
9.54493e-06
7.27333e-06
6.7895e-06
4.9156e-06
4.16873e-06
6.89488e-06
1.36795e-05
2.43689e-05
4.32072e-05
5.68086e-05
2.99275e-05
2.15182e-05
1.58702e-05
1.18938e-05
9.13488e-06
1.04088e-05
1.00493e-05
8.71125e-06
8.22937e-06
7.67862e-06
7.49771e-06
7.6424e-06
7.01089e-06
8.27175e-06
1.00407e-05
1.33895e-05
1.55368e-05
1.17485e-05
2.87986e-05
3.58225e-05
4.7743e-05
9.6402e-05
6.59604e-05
9.13952e-05
8.16151e-05
8.66415e-05
7.05688e-05
8.18236e-05
0.000128475
0.000172328
0.000111014
9.59522e-05
9.55515e-05
9.09611e-05
0.000106507
0.000136415
0.000253403
0.000623683
0.00143016
0.00096826
0.000183285
9.48723e-05
0.000163307
3.74319e-05
0.000267748
0.000389032
0.000388236
0.000348558
0.000304333
0.000274864
0.000267117
0.000246683
0.000276256
0.000329798
0.000344328
0.000305032
0.000269341
0.000246238
0.000260649
0.000251681
0.000288157
0.000290693
0.000409421
0.000529356
0.000754552
0.000667264
0.000342081
0.00011492
4.29487e-05
4.33909e-05
0.00011996
0.000174532
0.000136997
0.000202642
0.000178695
0.000147239
0.000135742
0.000132899
0.000124609
0.000115703
0.000119087
0.000131213
0.000155049
0.000180044
0.000189461
0.000193811
0.000211347
0.000274426
0.000366336
0.000471262
0.000669548
0.000625143
0.000645905
0.000491067
0.000360707
0.000297052
0.000278791
0.000317885
0.000330499
0.00025131
0.000118429
7.29572e-05
0.000105575
0.00010404
0.000107557
0.000181714
0.000189117
0.00016284
6.20283e-05
2.43611e-05
1.09028e-05
9.06446e-06
8.49044e-06
8.36396e-06
9.24995e-06
1.04472e-05
1.38572e-05
2.34029e-05
3.21766e-05
7.43896e-05
9.44849e-05
0.000124972
0.000163889
0.000194921
0.000197268
0.000185111
0.000169707
0.000168832
0.000188265
0.000168768
0.00011613
0.000115354
0.000181198
0.000107381
6.29645e-05
0.000132723
0.000148151
0.000106691
7.56847e-05
6.17507e-05
4.84984e-05
4.39403e-05
4.18143e-05
4.27022e-05
4.76865e-05
5.81872e-05
7.84231e-05
0.000111818
0.000144317
0.000175293
0.000191545
0.000190032
0.00018662
0.000182692
0.00018333
0.000188822
0.000183103
0.000172211
0.000178732
0.000190998
0.000155606
0.000102171
0.000171019
0.000125998
0.000191639
0.000192927
0.000110624
2.50912e-05
6.70875e-06
3.81682e-06
3.79053e-06
3.71722e-06
3.20758e-06
2.28941e-06
2.32686e-06
2.67547e-06
3.16397e-06
3.64468e-06
4.00266e-06
5.06445e-06
5.4227e-06
4.52672e-06
4.26626e-06
3.75795e-06
2.42308e-06
2.31796e-06
5.94191e-06
1.8102e-05
2.95949e-05
4.86716e-05
0.00017387
7.75726e-05
6.57474e-05
3.4404e-07
6.62695e-07
8.65134e-07
3.21295e-07
1.5484e-07
4.46224e-07
1.57094e-05
0.000171218
0.000156335
0.000188031
7.88041e-05
1.33001e-05
4.47299e-06
2.54134e-06
1.66847e-06
1.39373e-06
1.25349e-06
1.12631e-06
1.1076e-06
1.06245e-06
1.11488e-06
1.14741e-06
1.81742e-06
5.33512e-06
0.00012284
9.91094e-05
1.86517e-05
1.33308e-05
1.81351e-05
2.19381e-05
8.69952e-05
0.000160757
0.000174933
0.000182954
0.000185048
0.000171159
9.67456e-05
4.65528e-05
5.44543e-05
0.000131873
0.000102082
1.70541e-05
9.45456e-06
1.18754e-05
2.66872e-05
0.000160962
9.51448e-07
1.96215e-07
2.81906e-08
4.78422e-08
4.35471e-08
3.64782e-08
3.03824e-08
2.21068e-08
1.77586e-08
3.93158e-08
3.6393e-07
1.42517e-05
7.10333e-05
1.54196e-05
8.781e-05
5.61233e-05
4.49546e-05
6.13482e-05
9.54e-05
0.000114344
0.000109162
0.000106621
8.71622e-05
8.81159e-05
7.21568e-05
7.9833e-05
0.000190892
0.000131293
2.32964e-05
8.11769e-06
4.22524e-06
3.61288e-06
3.5701e-06
3.96886e-06
6.34748e-06
1.08164e-05
3.19111e-05
0.000162574
0.000145869
4.02892e-05
6.94572e-06
1.74424e-06
1.68098e-06
3.7469e-06
3.87149e-05
2.82491e-05
1.61434e-05
1.06595e-05
1.24461e-05
2.09693e-05
2.71424e-05
2.53232e-05
3.38509e-05
4.21665e-05
4.45681e-05
3.70936e-05
4.0582e-05
4.2826e-05
4.55503e-05
6.00991e-05
7.1311e-05
9.83967e-05
0.000142364
0.000172049
0.000176049
0.000153863
0.000112864
6.36762e-05
3.99859e-05
2.09214e-05
9.28785e-06
5.82121e-06
4.74258e-06
7.4729e-06
6.60637e-06
6.41821e-06
6.13641e-06
6.97687e-06
6.71113e-06
8.77042e-06
1.10975e-05
1.90651e-05
3.79204e-05
5.24405e-05
0.0001745
0.000266249
0.000152345
4.58342e-05
2.48519e-05
2.24558e-05
2.04441e-05
2.42431e-05
3.8319e-05
0.000159668
0.00014538
6.54778e-05
1.28761e-05
4.81776e-06
2.39367e-06
1.84957e-06
1.89269e-06
2.53917e-06
5.07341e-06
1.19707e-05
6.64403e-06
5.72026e-06
5.48825e-06
5.42134e-06
5.2853e-06
1.14611e-05
2.63204e-05
7.11753e-05
0.000186807
0.000225607
0.00016956
0.000111015
0.00014907
0.000185549
0.000136062
5.87434e-05
2.65988e-05
1.07169e-05
6.55434e-06
4.54256e-06
3.9235e-06
3.80552e-06
3.40096e-06
3.23751e-06
3.09634e-06
2.19326e-06
1.92472e-06
2.04194e-06
4.14343e-06
1.05389e-05
3.91204e-05
4.91826e-05
7.106e-05
7.90771e-05
9.33537e-05
0.000110097
0.000116135
0.000125722
0.00010824
0.000105239
8.29894e-05
6.29036e-05
3.59642e-05
2.42425e-05
1.84831e-05
1.19918e-05
1.39899e-05
1.13197e-05
2.15667e-05
4.5206e-05
5.69167e-05
6.45059e-05
5.00817e-05
0.00011923
0.000173102
0.000217308
0.000246964
0.000204079
0.000116013
6.54678e-05
5.10071e-05
9.67126e-05
0.000160875
0.000155394
0.000114491
6.45178e-05
5.96699e-05
7.09717e-05
0.000136246
0.000303837
0.000994868
0.000852485
0.000124418
0.000118911
0.000107278
0.000366157
0.000405765
0.00039957
0.00034385
0.00027991
0.000262721
0.00024505
0.000239179
0.000220512
0.000275227
0.000355003
0.000383251
0.000285538
0.000270956
0.000246103
0.000275068
0.000282705
0.000345696
0.000500054
0.000740267
0.000940613
0.000800949
0.000325152
7.56776e-05
2.53458e-05
3.19113e-05
9.5072e-05
0.000181586
0.000165056
0.000189205
0.000174055
0.00015565
0.000148072
0.000128076
0.000108592
0.000102151
0.000116455
0.000144763
0.000186455
0.000201411
0.000186114
0.000191541
0.000217904
0.000262178
0.000303305
0.000394748
0.000482532
0.000612081
0.000712096
0.000576767
0.000381138
0.000245094
0.000200582
0.000253609
0.000333695
0.00027692
0.000105499
8.02747e-05
0.000126892
0.000109805
0.000181794
0.000190154
4.00008e-05
6.96849e-06
3.4146e-06
3.35724e-06
4.01692e-06
4.43833e-06
6.31785e-06
6.65494e-06
6.71314e-06
6.86753e-06
7.58473e-06
8.78748e-06
1.12634e-05
2.24388e-05
3.26211e-05
8.04753e-05
0.000124112
0.000173078
0.00018815
0.000187552
0.000169713
0.000164036
0.000179495
0.000181832
0.000144247
0.000114183
0.000182684
9.44037e-05
0.000116677
0.000152991
0.000134652
0.000116952
8.93355e-05
6.4583e-05
5.34248e-05
4.56258e-05
4.20922e-05
4.06109e-05
4.08485e-05
4.51386e-05
5.5878e-05
6.98686e-05
9.2684e-05
0.00011888
0.000145727
0.000170306
0.000182107
0.000187999
0.000180461
0.000162172
0.000136657
0.000130715
0.000152172
0.000173588
0.000138123
9.6554e-05
0.000169017
0.000146323
0.000191312
9.24745e-05
1.40155e-05
4.00647e-06
3.50539e-06
3.65921e-06
3.38252e-06
2.79428e-06
2.44459e-06
2.81912e-06
3.34921e-06
3.85398e-06
4.32407e-06
5.51893e-06
6.78544e-06
8.16092e-06
8.83504e-06
9.13502e-06
9.41361e-06
8.39018e-06
4.28728e-06
3.08541e-06
2.1558e-06
1.12971e-05
2.25316e-05
4.25745e-05
0.000146918
9.4865e-05
6.61136e-05
1.24766e-07
1.26291e-07
1.24512e-07
6.13897e-08
2.11849e-07
2.60389e-06
0.000163986
0.000178825
0.000109757
1.43694e-05
3.8896e-06
2.21478e-06
1.55127e-06
1.41479e-06
1.3435e-06
1.2699e-06
1.19049e-06
1.16389e-06
1.23078e-06
1.36382e-06
1.50824e-06
1.56599e-06
1.40192e-06
1.74875e-06
1.22926e-05
0.000181478
3.02753e-05
1.51564e-05
1.71024e-05
1.85899e-05
0.000158547
0.000181525
0.000158171
0.000125839
0.000121714
0.000161304
0.000177588
5.10645e-05
2.81804e-05
0.000147763
7.82142e-05
1.54002e-05
8.91617e-06
1.38272e-05
7.70857e-05
2.89975e-06
1.07704e-07
8.83862e-08
7.85346e-08
7.34612e-08
6.96608e-08
6.09386e-08
4.42048e-08
4.0677e-08
5.42236e-08
3.439e-08
3.83584e-08
1.23336e-07
1.65871e-05
4.01933e-05
0.000128031
9.62529e-05
7.64059e-05
7.30385e-05
9.03077e-05
0.000107336
0.000106968
0.000126406
0.000167875
9.01115e-05
2.70236e-06
6.23506e-07
2.31422e-07
1.54515e-07
1.14888e-07
1.10554e-07
1.07244e-07
1.02298e-07
9.93752e-08
9.75294e-08
9.6538e-08
1.01613e-07
1.17845e-07
2.14891e-07
5.96008e-07
3.76257e-06
0.000125426
3.99578e-05
1.6291e-06
1.02054e-06
2.73359e-05
2.05877e-05
1.38308e-05
9.67842e-06
8.52979e-06
1.07858e-05
1.36338e-05
1.71446e-05
1.83023e-05
2.7377e-05
3.08671e-05
3.87729e-05
5.7476e-05
9.18276e-05
0.000138947
0.000174147
5.49595e-05
8.53401e-06
3.05557e-06
1.88638e-06
1.34076e-06
1.09707e-06
1.08423e-06
1.40687e-06
2.68474e-06
8.37692e-06
0.000158414
6.43576e-05
8.19283e-06
3.18162e-06
5.18961e-06
5.6478e-06
5.602e-06
6.22541e-06
6.93814e-06
1.23228e-05
1.75694e-05
5.28688e-05
0.000133757
0.000227485
1.18784e-05
9.1226e-06
1.51031e-06
1.54226e-06
1.17283e-06
8.44572e-07
6.24739e-07
6.034e-07
6.57956e-07
8.57608e-07
9.12008e-07
1.49988e-06
2.77944e-05
0.000165861
2.49679e-05
3.99535e-06
1.59944e-06
1.36462e-06
1.99659e-06
3.94626e-06
5.52138e-06
5.5625e-06
6.91821e-06
7.40176e-06
1.23141e-05
4.40416e-05
0.000203422
3.20817e-05
4.61053e-06
4.91724e-06
1.71509e-06
1.22697e-06
6.66606e-07
6.18483e-07
6.06038e-07
1.09642e-06
3.12874e-06
2.76465e-05
0.000142258
4.72919e-05
1.78857e-05
9.88394e-06
4.65189e-06
3.83859e-06
3.29615e-06
2.44345e-06
1.92533e-06
1.21849e-06
1.44909e-06
2.96684e-06
4.45307e-05
0.000166194
0.00032158
0.00031575
6.65601e-05
2.36892e-05
1.00752e-05
8.35198e-06
4.13523e-06
3.69832e-06
9.28087e-06
1.95487e-05
0.000123141
0.000344838
0.00017759
0.00011672
6.84205e-05
8.56759e-05
0.000133012
0.000166646
0.000195962
0.000196608
0.000246148
0.000313687
0.000640542
0.000930725
0.00103882
0.000828137
0.000395234
8.22815e-05
0.000167921
0.000822701
0.00142316
0.00130384
0.000693593
0.000248008
0.000109183
8.32082e-05
9.24885e-05
0.000160748
0.000378961
0.000878341
0.000478974
8.70535e-05
0.000235314
0.000390184
0.000429317
0.000409276
0.000360733
0.000304176
0.000267175
0.000262188
0.000280992
0.000313102
0.000369099
0.000434368
0.000390966
0.000289566
0.000248914
0.000248899
0.00025599
0.000302512
0.00041184
0.00067176
0.000920899
0.00106744
0.000729905
0.000173111
2.53198e-05
6.2354e-06
9.82396e-06
3.42447e-05
0.000121837
0.000180867
0.00018831
0.000170655
0.000161556
0.000128865
0.000100098
9.56339e-05
0.000102333
0.000130588
0.000180132
0.000204841
0.000171386
0.000134552
0.000140647
0.00017914
0.000232527
0.000292601
0.000344839
0.000366115
0.000503335
0.000594061
0.000504973
0.000320011
0.000179572
0.000176341
0.000213695
0.000321218
0.000254897
9.16078e-05
9.34771e-05
0.000156575
0.000147429
0.000188685
1.87727e-05
2.27724e-06
1.98452e-06
4.18463e-06
1.68117e-05
3.78608e-05
8.86055e-05
0.000100775
9.23994e-05
6.57275e-05
3.29275e-05
2.64498e-05
2.37513e-05
2.61833e-05
3.28602e-05
7.72384e-05
0.000122554
0.00017748
0.00018835
0.00019202
0.000181991
0.000167682
0.000159547
0.000178484
0.000185376
0.00016399
0.000135635
0.000180789
0.000102317
0.000175478
0.000141704
0.000131797
0.000169102
0.00013884
9.90169e-05
7.1813e-05
5.63896e-05
5.23591e-05
4.48474e-05
4.87275e-05
4.72335e-05
5.77989e-05
6.80579e-05
8.68079e-05
0.000108236
0.000130617
0.000148275
0.000152539
0.000140299
0.000116666
9.28959e-05
8.5364e-05
9.50543e-05
0.000121389
0.000139586
0.000111544
9.32594e-05
0.000161289
0.00016643
0.000119984
1.78617e-05
4.17477e-06
3.51053e-06
3.80313e-06
3.31566e-06
2.65809e-06
2.4642e-06
2.8003e-06
3.35109e-06
3.39728e-06
3.04331e-06
3.16159e-06
3.92424e-06
6.03812e-06
7.61877e-06
8.01026e-06
9.41486e-06
8.59709e-06
8.67205e-06
5.23093e-06
3.64112e-06
1.58554e-06
8.21226e-06
1.59605e-05
2.77373e-05
0.00014354
9.36252e-05
7.03293e-05
6.56983e-08
4.68863e-08
3.82082e-08
5.04375e-08
1.26919e-06
5.61629e-05
0.00017
9.51512e-05
9.56158e-06
3.31316e-06
2.19218e-06
1.67881e-06
1.57132e-06
1.53401e-06
1.42173e-06
1.33256e-06
1.19255e-06
1.16023e-06
1.43853e-06
2.73802e-06
5.24526e-06
8.35203e-06
4.70477e-06
3.85641e-06
9.02498e-06
0.000173948
5.46176e-05
1.90975e-05
1.64397e-05
1.20777e-05
0.000188531
0.000176872
0.000100833
6.91068e-05
6.94454e-05
9.0123e-05
0.000175887
8.45163e-05
2.85109e-05
0.000141976
5.95704e-05
1.51946e-05
8.76706e-06
1.45888e-05
0.000174449
4.21211e-07
7.70246e-08
7.01648e-08
7.79295e-08
9.32363e-08
9.75128e-08
9.018e-08
8.51556e-08
7.27061e-08
3.71069e-08
7.49093e-08
6.94526e-08
4.33311e-08
1.01412e-06
5.01192e-05
0.000179389
0.00010425
8.26718e-05
7.41817e-05
8.67061e-05
9.63569e-05
0.000101446
0.000180238
2.26843e-05
5.56379e-07
9.1897e-08
5.85499e-08
5.62804e-08
9.69448e-08
8.36481e-08
1.10379e-07
9.70544e-08
9.89562e-08
9.10583e-08
8.21906e-08
6.98125e-08
5.63817e-08
4.38026e-08
4.23814e-08
4.63784e-08
9.21016e-08
5.30232e-07
2.51747e-05
3.0711e-05
7.68733e-07
1.55845e-05
1.36057e-05
1.37183e-05
1.39744e-05
1.13187e-05
8.94335e-06
9.84998e-06
9.57249e-06
1.34764e-05
2.23883e-05
3.7517e-05
6.14109e-05
0.000121756
0.000174014
8.20142e-05
1.55171e-05
3.06721e-06
1.38924e-06
8.79139e-07
1.03341e-06
6.53215e-07
7.28631e-07
6.34351e-07
5.58878e-07
5.21677e-07
1.21422e-07
8.49458e-07
5.42898e-06
0.000140484
9.08643e-06
4.36326e-06
4.56399e-06
5.46987e-06
7.92658e-06
1.1469e-05
2.25052e-05
4.64578e-05
0.000145593
9.62038e-05
8.02941e-06
1.27879e-06
6.16945e-06
7.45107e-06
8.04051e-06
6.86386e-06
3.62022e-06
3.84432e-06
2.06974e-06
9.96386e-07
8.2937e-07
3.84849e-07
1.90541e-07
2.41815e-07
6.0327e-07
8.61906e-06
0.000109754
1.10171e-05
2.72006e-06
1.50876e-06
1.76087e-06
4.83533e-06
7.03492e-06
1.22421e-05
1.57823e-05
4.17602e-05
0.000181201
1.06744e-05
1.33097e-06
5.18454e-06
6.39189e-06
1.401e-05
6.43853e-06
3.14654e-06
2.16265e-06
6.04693e-07
2.37744e-07
1.74969e-07
1.42777e-07
3.94373e-07
2.84562e-06
0.000131153
9.25965e-05
1.93299e-05
1.09575e-05
6.51386e-06
4.12446e-06
3.15374e-06
1.84909e-06
1.25572e-06
1.30901e-06
8.97901e-05
0.000380511
8.19421e-05
8.63922e-06
3.8755e-06
7.75455e-07
7.94268e-07
3.12806e-07
4.47316e-07
1.91995e-07
6.2654e-07
8.74927e-07
1.35618e-06
3.02537e-06
1.78198e-05
0.000147503
0.000643724
0.000753082
0.000754386
0.000777954
0.000787582
0.000766919
0.00069942
0.00039426
0.000101093
7.68676e-05
9.37497e-05
0.000123091
0.000480051
0.000376771
0.000409394
0.00128861
0.00102757
0.00109869
0.00136975
0.0008765
0.000410955
0.00024331
0.000224233
0.000239932
0.000380355
0.000642907
0.000872133
9.45214e-05
0.00034506
0.000388407
0.000493452
0.000469151
0.000376408
0.000399084
0.000509395
0.000566517
0.000575151
0.000550287
0.000512152
0.000422025
0.000313773
0.000258154
0.000238529
0.000232084
0.00026006
0.000352954
0.0006048
0.000856179
0.00104362
0.00100841
0.000323353
3.56157e-05
5.32236e-06
1.90484e-06
4.00398e-06
1.51988e-05
6.40358e-05
0.000173007
0.000178408
0.000165693
0.000126174
9.38953e-05
9.4262e-05
0.000101899
0.000113213
0.000144531
0.000196753
0.000167648
0.000118227
0.000104261
0.000109023
0.000144053
0.000199591
0.000225539
0.000310671
0.00032311
0.000363652
0.000338552
0.000293963
0.000202554
0.000163593
0.000163292
0.000210703
0.000367696
0.000176485
8.41323e-05
0.000107391
0.000168424
0.000176066
2.83476e-05
1.57377e-06
1.59328e-06
9.01592e-06
7.27313e-05
0.000192275
0.0001902
0.000187601
0.000186491
0.000194509
0.000203136
0.000194501
0.000163736
0.000137469
0.000138236
0.000168029
0.000189198
0.000195035
0.000188075
0.000181048
0.00017568
0.000168493
0.000153866
0.000158588
0.000185207
0.000188584
0.000170666
0.000163737
0.000173089
0.000121515
6.87861e-05
1.16004e-05
1.68733e-05
7.08482e-05
0.000165956
0.000167471
0.00013859
0.000112168
9.78917e-05
8.75469e-05
8.08364e-05
7.84259e-05
8.16276e-05
8.9716e-05
9.96476e-05
0.000107507
0.000109176
0.00010104
8.67097e-05
6.88647e-05
5.97951e-05
5.41145e-05
5.38371e-05
6.34273e-05
8.27689e-05
9.45576e-05
8.15511e-05
8.90693e-05
0.000161473
0.000179941
3.83609e-05
6.04763e-06
3.51134e-06
3.59561e-06
3.17717e-06
2.40873e-06
2.04296e-06
2.11131e-06
2.3045e-06
1.95332e-06
1.5064e-06
1.50777e-06
2.27512e-06
3.70963e-06
6.10797e-06
6.82938e-06
6.52071e-06
7.20255e-06
6.56148e-06
1.0513e-06
3.94089e-06
3.25377e-06
1.69126e-06
8.13248e-06
1.54129e-05
3.03036e-05
0.000177343
8.26775e-05
7.997e-05
5.2624e-08
2.13045e-08
3.84008e-08
3.66476e-07
1.55608e-05
0.000150276
0.00010161
1.52761e-05
3.39693e-06
2.51226e-06
1.99272e-06
1.64271e-06
1.54256e-06
1.451e-06
1.32652e-06
1.17312e-06
1.0078e-06
1.06251e-06
1.5846e-06
6.40482e-06
3.04922e-05
0.000109545
8.38469e-05
3.6984e-05
7.19257e-05
0.000173324
6.42672e-05
2.27344e-05
1.3781e-05
9.86249e-06
0.000192045
0.000136669
7.27904e-05
6.04502e-05
5.59982e-05
7.81005e-05
0.000160626
8.90732e-05
2.94591e-05
0.000181616
5.07632e-05
1.89966e-05
1.08084e-05
1.80677e-05
4.31926e-05
2.24198e-07
9.29409e-08
1.01642e-07
9.52813e-08
9.29029e-08
1.08969e-07
1.15936e-07
1.15467e-07
1.21074e-07
1.0939e-07
8.84912e-08
7.00065e-08
7.67135e-08
8.92942e-07
0.000179075
0.000179007
0.0001047
7.12947e-05
6.50669e-05
7.06069e-05
0.000101002
0.000157323
2.66411e-05
1.03563e-06
1.1821e-07
8.41153e-08
8.57861e-08
1.43756e-07
2.27153e-07
2.11596e-07
2.16235e-07
2.20434e-07
2.03671e-07
1.99163e-07
1.74279e-07
1.18684e-07
9.78721e-08
7.17991e-08
4.40101e-08
3.6738e-08
3.55431e-08
4.7814e-08
3.1431e-07
4.36659e-05
5.82643e-06
8.78909e-06
1.15026e-05
1.82008e-05
2.83958e-05
3.10027e-05
1.69825e-05
9.12031e-06
7.23008e-06
9.62885e-06
1.99096e-05
5.09708e-05
0.00011905
0.000172458
2.13614e-05
8.51647e-06
3.23811e-06
1.36041e-06
1.26938e-06
1.43884e-06
2.47752e-06
2.74685e-06
3.25233e-06
3.71347e-06
2.39638e-06
5.37696e-07
9.95447e-07
4.26849e-07
6.77545e-07
1.00068e-08
0.000134723
4.17817e-06
7.468e-06
9.79058e-06
1.76814e-05
1.9934e-05
3.96731e-05
9.70856e-05
0.000217546
8.94891e-06
4.65995e-06
4.57511e-06
3.28325e-05
3.67059e-05
4.44197e-05
1.6548e-05
1.74168e-05
1.12378e-05
9.63583e-06
4.94633e-06
2.58617e-06
1.16809e-06
3.82537e-07
1.69578e-07
3.89878e-08
1.31699e-07
1.24852e-06
0.000174401
1.86445e-05
2.69857e-06
1.50813e-06
4.85764e-06
1.08019e-05
3.39812e-05
5.06773e-05
0.000125635
2.34078e-05
2.11229e-06
1.46353e-06
7.31409e-06
5.20123e-05
0.000218374
0.000192721
0.000200648
0.000101232
3.20367e-05
6.0989e-06
7.42192e-07
1.54774e-07
4.98682e-08
8.06768e-08
2.48268e-07
3.40538e-06
0.000177431
6.58359e-05
2.73402e-05
1.2931e-05
7.02776e-06
3.65068e-06
1.61786e-06
1.24193e-06
0.000132575
0.000119887
7.14115e-06
5.16031e-06
1.17647e-06
1.94903e-06
1.49132e-06
5.12989e-06
1.37782e-05
1.37206e-05
5.64571e-06
4.56774e-06
1.1276e-06
9.71858e-07
6.11843e-07
3.68716e-06
3.11344e-05
0.000156976
0.000355226
0.000527459
0.000381313
0.000245755
8.60843e-05
3.08691e-05
1.7178e-05
7.63501e-06
1.53975e-05
0.000104108
0.000629958
0.000528
0.000565767
0.000962062
0.000762617
0.000961883
0.00108584
0.00127119
0.00122042
0.00100032
0.000853628
0.000738852
0.000680903
0.000812171
0.000789934
0.000182341
0.000377531
0.000401372
0.000573655
0.000529058
0.00048437
0.000622443
0.000487821
0.000348384
0.000306703
0.000316209
0.000313316
0.000273744
0.0002518
0.000230523
0.000217173
0.000224257
0.000325623
0.000566341
0.000813179
0.000963847
0.001011
0.000327932
3.46105e-05
6.54352e-06
2.29834e-06
3.37985e-06
1.61781e-05
4.28131e-05
7.27474e-05
0.000157135
0.000170914
0.000132311
9.02641e-05
9.80853e-05
0.000111384
0.00011155
0.000115278
0.000135372
0.000184953
0.000200872
0.000157806
0.000122209
0.000123648
0.000114864
0.000133155
0.000149676
0.000162167
0.000201764
0.000187761
0.000191961
0.000158799
0.000144478
0.000111937
0.000145558
0.000256472
0.000397522
0.0001195
6.75487e-05
0.000106495
0.000173989
0.000111679
3.45483e-06
1.31727e-06
6.42243e-06
8.01351e-05
0.000192806
0.000170835
0.000164866
0.000171375
0.000177527
0.000181005
0.000183028
0.000187871
0.000191628
0.00019281
0.00018362
0.000175409
0.000163981
0.000154222
0.00014855
0.000148499
0.000151082
0.000145811
0.000149625
0.00017173
0.000193682
0.000188297
0.00016604
0.000192447
0.000156406
0.000101535
8.74478e-06
2.3134e-06
3.22973e-06
9.76221e-06
1.64599e-05
9.08438e-05
0.000149106
0.000185888
0.000190305
0.000189603
0.000181169
0.000167394
0.000149008
0.00014081
0.00012457
0.000126036
0.000116785
0.000116804
0.000107423
0.000103515
9.19847e-05
8.32796e-05
7.24396e-05
6.6316e-05
6.90531e-05
6.95133e-05
6.88075e-05
8.87724e-05
0.000157884
0.000186361
1.29087e-05
4.39541e-06
3.2888e-06
3.21978e-06
2.30815e-06
1.65732e-06
1.50275e-06
1.39697e-06
1.23124e-06
9.97371e-07
9.15864e-07
1.22881e-06
2.17769e-06
3.99228e-06
6.14114e-06
5.36036e-06
4.3414e-06
4.26729e-06
4.09514e-06
4.22846e-06
3.37244e-06
3.10874e-06
2.92773e-06
9.97877e-06
1.66017e-05
4.11725e-05
0.000173371
7.20601e-05
7.99729e-05
4.65208e-08
2.03632e-08
8.20078e-08
2.66035e-06
8.79658e-05
0.000125481
2.72911e-05
6.40109e-06
3.18761e-06
2.17145e-06
1.5972e-06
1.43136e-06
1.2261e-06
1.19008e-06
1.08376e-06
9.98244e-07
8.46796e-07
9.21628e-07
1.60741e-06
1.17911e-05
0.00018064
0.000139858
0.000118028
0.000128724
0.000127172
7.7699e-05
3.66191e-05
1.76181e-05
1.2381e-05
9.78899e-06
0.000177252
9.22714e-05
6.48836e-05
7.04355e-05
7.19798e-05
9.87569e-05
0.000190446
4.9884e-05
6.75261e-05
0.000168287
4.64757e-05
2.6334e-05
1.52434e-05
3.30849e-05
2.08943e-05