/*--------------------------------*- C++ -*----------------------------------*\
| =========                 |                                                 |
| \\      /  F ield         | OpenFOAM: The Open Source CFD Toolbox           |
|  \\    /   O peration     | Version:  2.1.1                                 |
|   \\  /    A nd           | Web:      www.OpenFOAM.org                      |
|    \\/     M anipulation  |                                                 |
\*---------------------------------------------------------------------------*/
FoamFile
{
    version     2.0;
    format      ascii;
    class       volScalarField;
    location    "0.003550000";
    object      omega;
}
// * * * * * * * * * * * * * * * * * * * * * * * * * * * * * * * * * * * * * //

dimensions      [0 0 -1 0 0 0 0];

internalField   nonuniform List<scalar> 
12384
(
2377.64
5722.29
8752.87
10412.4
11922.5
12233.4
11895.4
11463
9306.66
8160.87
5954.3
4547.27
3107.79
2138.59
6533.17
22445.2
40431.9
56822.7
70273.2
79586.7
87310.4
91254.6
92104.9
94467.9
95373.9
95306.9
92737.5
89538.4
84938.8
78911.9
72622.5
64678
57338.3
50752.4
45155.4
42025.9
39116.2
36656.9
32275.6
27229.8
20727.9
14500.3
8938.23
3805.55
25394.4
41695.9
53859.5
65675.7
76921.2
84002.4
90612.7
92925.1
94226.8
89225.6
83784
76642.7
72140.9
69069.7
67275.7
64107.5
63095.4
59943.3
59439.9
54874.7
52238
46037.5
42395.6
35631
33568.9
27160.4
24337.4
17930.7
12610.5
6445.52
33015.7
48214.5
58105
65974.4
72482
80816.9
90626.7
102251
114697
126334
137749
147500
157929
167407
176008
182381
186244
186644
183311
173588
158241
137034
113744
89297.8
67767.7
50378.1
39414.6
27729.5
16741.4
6555.8
41227.4
61049.6
72938.4
82526.8
91774
102972
115816
129672
140167
152068
151845
156315
149474
144737
138109
130977
123814
117498
112334
107320
100983
93478.4
84338.6
73994.9
61738.1
48755.3
36244.3
25610.9
18659.1
8811.43
12036
26295.4
38239.5
47047.4
57713.1
70874.4
106077
133345
151670
159057
164165
167906
172739
178992
187873
195614
202799
198923
191912
164079
158631
141968
134532
116102
93203.9
64921.9
38205
20686.8
11303.5
5003.82
18565.4
34582.7
48563.8
60774
70254.4
77484.6
80660.5
82310.3
82164.8
81695.8
80213.6
79037.6
78133.9
79452.5
83867
92611.2
100619
107272
112471
114768
112819
106085
93658.8
77471
61719
45889.2
31087.9
19133.1
11980.9
4586.14
4339.93
13784.1
21124.5
20843.1
24201.1
18560.1
15764.4
11122.8
9084.1
5412.02
4239.36
2627.51
2350.25
2782.84
2637.06
3539.81
5037.26
6780.44
14168.4
13615.9
17749.7
17440.5
16645.7
14063.2
9685.12
6771.42
4286.13
3284.79
2524.85
1718.3
1397.25
1528.58
1611.83
1686.63
1813.86
2305.51
2366.42
2715.09
3011.78
3351.48
3354.7
4989.54
3459.28
5730.18
6140.07
6421.08
7366.99
7178.91
6852.35
6290.61
5564.93
4791.79
3999.74
3273.15
2704.33
2248.47
1923.49
1758.94
1654.54
1550.55
1182.36
1260.02
1318.05
1374.83
1390.47
1500.18
1611.48
1858.23
2231.33
2869.79
3262.58
3225.02
3364.24
3166.89
3019.78
2772.46
2408.43
2059.74
1793.78
1650.76
1612.66
1519.4
1461.48
1462.3
1426.6
1400.13
1348.66
1341.5
1322.53
1268.31
894.998
935.103
931.534
1029.89
964.404
995.132
1004.4
1133.51
1444.31
1586.63
2230.14
2394.8
2778.74
2816.81
2863.57
2466.41
2408.94
2067.91
1768.82
1589.35
1430.28
1393.97
1347.78
1337.85
1339.58
1313.27
1296.21
1283.04
1253.4
1224.84
910.476
943.093
948.885
949.978
944.364
966.008
1023.61
1080.01
1207.84
1298.58
1238.58
1418.28
1295.89
1412.6
1322.34
1329.39
1269.37
1248.8
1206.3
1211.09
1227.47
1240.49
1268.86
1280.41
1272.25
1271.58
1277.22
1249.18
1222.54
1170.83
755.678
933.87
946.73
998.623
951.463
1018.71
970.999
1025.57
1003.73
1047.44
1058.29
1101.99
1116.21
1129.74
1153.96
1134.37
1102.48
1072.38
1127.39
1236.49
1177.13
1122.29
1160.75
1123.32
1082.8
1029.05
979.193
957.087
876.623
772.722
4889.81
111412
146707
171530
194559
207662
215200
210729
198278
176970
153082
127544
97134.4
5589.01
17245.2
183327
287029
384247
480906
579274
674715
758791
826174
870157
888504
891943
874657
846537
804550
752233
696749
637041
583504
534754
493378
452934
415067
376376
335590
290000
236362
181263
127376
9635.45
43786.8
212246
242633
281218
350629
423769
495066
559969
617508
660337
682271
677389
655524
617337
577607
536067
508551
478813
462193
442631
429865
419221
401659
380344
350119
312709
272866
218892
158731
16471.3
50788.3
193595
232934
279253
346652
440602
557483
694275
846205
1.00455e+06
1.15482e+06
1.28814e+06
1.3945e+06
1.47464e+06
1.52867e+06
1.56281e+06
1.57909e+06
1.5776e+06
1.56343e+06
1.52729e+06
1.47251e+06
1.37262e+06
1.2267e+06
999174
727482
493049
363713
280606
199636
22473.2
61140.5
293746
341862
396673
467826
552574
639263
720974
797472
863054
916592
948110
962629
951439
920034
874010
818515
759024
703732
656434
620537
592173
562801
526415
477989
413751
340176
268483
211584
23148.3
29718.7
242980
357933
464897
537560
596709
654494
704819
762037
827912
905605
999329
1.11247e+06
1.25284e+06
1.4217e+06
1.61339e+06
1.81891e+06
2.02538e+06
2.20863e+06
2.34639e+06
2.41329e+06
2.36793e+06
2.27866e+06
2.01094e+06
1.68607e+06
1.28952e+06
866107
500305
270737
19429.7
42364.4
268156
342486
412154
483161
548476
622918
693094
753680
793829
819482
827692
820231
796882
760369
716623
666162
622676
587052
571113
560584
560947
557635
541257
488652
432191
355262
299008
247899
14223.9
11039.8
303271
378115
428762
471649
488230
475156
439413
396031
352376
327834
318425
342688
405374
497497
588552
714147
814707
911464
911746
848486
726232
594453
474596
373127
302291
256832
224133
177400
2059.63
1746.47
208041
260850
316431
361689
427402
508993
605482
707735
818791
895227
964189
992942
1.00855e+06
1.02002e+06
1.01868e+06
1.00363e+06
969560
919883
859401
791053
718050
641928
565185
488480
413878
342050
273158
196965
1407.73
1382.81
190591
225407
245397
255765
270305
293494
322506
363787
407535
453626
508318
561498
621746
693831
771415
851025
927861
983001
985283
923957
828306
726624
629889
538269
454121
371846
292324
204839
1093.02
1181.88
238213
304426
350270
385049
420820
456259
515654
586247
634987
721364
773971
816398
824106
773404
694489
612403
536213
469700
410659
365178
330856
307340
288893
276741
262268
247041
226018
186303
1167.31
1010.69
255742
310747
380720
448623
509739
575840
642051
748305
867837
949731
999771
932826
850008
743238
636764
545444
473384
419975
388187
373929
364196
354978
352369
341794
333749
316077
280145
218170
1128.33
1045.34
510127
623268
690359
742743
786088
813307
833870
810935
786145
732443
679916
622351
574818
526400
479829
424015
366865
334709
366797
413297
464184
500154
524228
528411
516140
490789
440488
360220
772.641
7993.85
152606
196846
227636
254803
274186
285826
283096
267903
238918
206250
175370
142064
11856.3
31086
289795
413477
505075
580590
651192
719098
782221
835105
869562
885941
884994
868874
840232
802446
758648
709902
659027
608718
560801
515654
471928
429926
388119
345402
298639
248262
198241
150169
12984.4
50340.8
252379
265478
355040
465343
552847
612545
651788
678223
696931
706910
703322
686475
658110
627062
596153
570494
547249
524375
503614
479700
457833
433337
406323
375346
339375
297464
245208
192453
19681.7
57921
223502
262667
313425
384862
486337
611130
751617
896609
1.03754e+06
1.17056e+06
1.28699e+06
1.37602e+06
1.43439e+06
1.47208e+06
1.48954e+06
1.49256e+06
1.48557e+06
1.46977e+06
1.44837e+06
1.41563e+06
1.37065e+06
1.29192e+06
1.15122e+06
925913
661847
464596
356000
272499
31712.4
68906.6
358349
406806
463888
533168
602634
659790
701595
730386
749709
771356
790488
811690
822007
814975
791191
753867
708396
664069
626159
595018
570898
548493
524189
494144
455285
410249
361614
317173
37571.2
49833
359581
499786
588817
630348
655948
684731
714571
740561
767148
802379
854124
930670
1.03845e+06
1.17783e+06
1.3439e+06
1.52531e+06
1.71492e+06
1.88847e+06
2.03443e+06
2.13265e+06
2.16009e+06
2.11728e+06
1.96443e+06
1.74288e+06
1.44323e+06
1.06322e+06
661114
373677
27433.8
65998.5
355780
415481
488445
570858
661547
758714
840772
910944
967959
1.01334e+06
1.033e+06
1.02538e+06
997612
953708
901804
845235
792864
747582
716778
688146
661625
639252
620087
581784
526137
456971
400143
345795
29196.3
24777.4
426974
510534
547924
561136
554341
524662
480228
429351
390130
370440
379024
423339
505019
600251
702911
820319
940089
1.03813e+06
1.08723e+06
1.05986e+06
968191
847169
699808
532069
382443
296944
259390
216432
2960.61
2290.65
289853
345100
401274
458291
523340
597301
682252
766016
852924
937825
1.01436e+06
1.06457e+06
1.10073e+06
1.12462e+06
1.12545e+06
1.10648e+06
1.06558e+06
1.00512e+06
928137
839837
746809
654096
569837
494763
427508
362811
297496
224492
1376.47
1457.38
218418
252316
269337
284617
303935
328677
358202
396423
439000
483678
530453
576422
634230
716128
833953
985830
1.14636e+06
1.27467e+06
1.32487e+06
1.28144e+06
1.17226e+06
1.02298e+06
861059
692756
543092
426511
340486
256809
972.384
1287.29
261111
325749
373835
415098
461557
502961
556286
619800
691424
772462
848608
913769
928850
868494
774165
667628
569563
483666
411951
360997
326015
301913
287250
278532
269968
261233
246213
220774
1018.62
1190.97
313130
360487
416674
485329
564421
653259
756981
919792
1.11068e+06
1.26942e+06
1.29017e+06
1.1826e+06
1.03321e+06
853526
679815
546116
451808
390499
351335
332988
331592
328275
329960
332063
328681
318784
298846
259217
1085.7
1242.44
580319
700096
804304
891806
975071
1.04216e+06
1.07716e+06
1.05922e+06
1.00136e+06
907983
803489
701074
613694
541981
487529
440928
405835
377039
392400
449247
489226
511946
525325
534939
538311
532379
520220
486723
843.004
12287.8
200752
244153
272260
294736
312611
326984
333576
329888
310102
278040
239168
199042
23617.8
48738.6
393508
528561
602509
647200
679300
707678
738361
768559
790159
799972
795137
782584
760522
735060
704559
670354
632514
592374
551808
511089
469214
426881
383806
340736
295632
251419
212329
174492
16670.4
56470.3
268631
315187
444575
556246
623834
651406
655373
650901
651002
653908
656610
653645
643544
629788
616460
604256
593542
577836
557387
526443
491757
456656
422130
387705
351969
311501
268026
227702
24921
64940.8
252232
292656
355481
450756
569822
696009
820269
936845
1.04622e+06
1.14412e+06
1.22678e+06
1.28374e+06
1.3123e+06
1.32292e+06
1.31576e+06
1.30184e+06
1.28682e+06
1.27079e+06
1.25649e+06
1.24537e+06
1.23424e+06
1.20557e+06
1.13032e+06
966078
728069
522414
409989
333883
44048.2
78493.7
415229
473596
540715
614469
677970
720089
735215
719416
679824
637855
613117
614074
625305
627161
621473
606538
583488
557168
533479
513821
498114
486376
475844
467337
459601
451638
435111
413737
54398.4
76234.7
504193
629802
682697
691213
696640
711617
723619
727506
734907
755318
795283
867784
969706
1.08736e+06
1.20686e+06
1.31992e+06
1.43611e+06
1.54844e+06
1.65535e+06
1.73802e+06
1.78374e+06
1.77884e+06
1.69779e+06
1.57606e+06
1.39372e+06
1.11118e+06
755800
467138
34439.7
90231
439971
488615
575800
685333
799982
902486
985833
1.05937e+06
1.12369e+06
1.16873e+06
1.18013e+06
1.15665e+06
1.1114e+06
1.05542e+06
996878
941512
895888
858381
824034
786778
732525
679230
640915
610416
570853
520047
471388
414894
42726.2
43450
571094
633779
628143
594132
562618
524263
486912
451621
424848
410705
424086
478679
564228
656703
775625
907761
1.03389e+06
1.15376e+06
1.28345e+06
1.34624e+06
1.33315e+06
1.25456e+06
1.10048e+06
855435
577270
385219
316046
264347
5172.93
3136.11
362588
415016
460807
510025
570218
629398
703439
785307
879873
997332
1.10214e+06
1.17411e+06
1.21404e+06
1.2356e+06
1.23204e+06
1.20284e+06
1.15325e+06
1.08747e+06
1.0083e+06
919757
827149
733332
641117
549654
458155
376482
316128
243105
1485.86
1628.18
233713
267237
283840
302799
327382
356333
387351
419430
454209
490542
529424
580288
655751
773585
941092
1.14299e+06
1.35123e+06
1.53401e+06
1.60979e+06
1.57824e+06
1.47994e+06
1.32014e+06
1.14662e+06
962108
781112
593194
434140
314090
1072.89
1577.54
270715
335478
388755
440492
499906
556250
621271
691436
771567
862588
944360
1.01096e+06
1.03848e+06
987617
892281
787109
685956
585576
499694
425693
373053
337669
323926
312149
298495
289696
274593
261182
1045.83
1369.75
345612
394606
452279
544780
661597
816423
1.0008e+06
1.2243e+06
1.44567e+06
1.57127e+06
1.54303e+06
1.43189e+06
1.26096e+06
1.07365e+06
880188
705063
544627
431634
370555
343937
337772
338022
342273
345826
346503
335377
321306
301065
1097.79
1631.99
619145
798762
974089
1.14918e+06
1.31453e+06
1.44307e+06
1.49823e+06
1.48413e+06
1.39179e+06
1.25152e+06
1.0769e+06
891903
728022
608003
526122
473082
442664
427309
432613
468636
507863
541372
563026
572377
572333
575665
594062
581111
869.155
18782.3
250181
280869
299341
313745
328784
344196
358180
366243
366103
352546
322211
279126
42819.2
68934.6
485996
617044
666426
679591
672356
656551
645031
644114
651640
657861
661551
661103
656217
647706
633909
615364
590109
560267
527749
493705
456708
415275
370843
326596
285179
252150
231590
208244
24766.6
61212
284066
379597
500566
579636
609609
602975
575258
546349
531692
534953
551142
565749
577778
584534
591696
595661
596807
589301
570805
541128
502447
463769
427500
394140
362055
325064
291835
266301
33000.8
72236.6
278125
333170
424654
549901
672501
773491
845895
902532
949859
998600
1.04058e+06
1.07147e+06
1.07681e+06
1.065e+06
1.03698e+06
1.00911e+06
985044
977744
987498
1.01381e+06
1.04417e+06
1.06345e+06
1.04127e+06
923898
717916
531213
436310
377273
53788.3
88742.1
472203
553886
644442
731955
804852
853325
869903
842191
778962
684915
601065
542448
517840
502256
493038
481076
464273
448231
435997
428923
425618
425470
430488
443205
463148
486516
497308
496359
69901
111056
666107
756485
762130
744760
744375
756154
763755
766202
774303
797494
848912
942067
1.05453e+06
1.15349e+06
1.21052e+06
1.22356e+06
1.22774e+06
1.2431e+06
1.2749e+06
1.31526e+06
1.37064e+06
1.4062e+06
1.40678e+06
1.37492e+06
1.29842e+06
1.11206e+06
829343
571159
43251
116467
525622
582332
690378
818468
936898
1.0346e+06
1.11478e+06
1.18676e+06
1.2409e+06
1.25574e+06
1.2367e+06
1.19044e+06
1.13419e+06
1.07669e+06
1.02654e+06
989348
963926
943106
915506
876231
803501
717989
642994
605079
580625
549151
510545
465600
60152.5
75435.5
680769
702535
648920
570529
510953
481003
477597
477552
469874
459046
473329
530750
609687
715662
846205
956457
1.08188e+06
1.23469e+06
1.42304e+06
1.57084e+06
1.65656e+06
1.65543e+06
1.53071e+06
1.26282e+06
888686
547218
400512
332057
9901.75
4660.92
425196
472080
513221
552537
598998
648307
723206
817531
929193
1.0649e+06
1.17633e+06
1.2339e+06
1.2608e+06
1.26021e+06
1.23679e+06
1.19511e+06
1.14377e+06
1.07889e+06
1.00302e+06
920002
834051
748334
664364
583496
502219
421099
339818
259472
1697.33
1849.3
236013
276580
300493
325371
356869
390481
424824
454085
479521
505215
538922
592432
687663
832041
1.0141e+06
1.21999e+06
1.42914e+06
1.60763e+06
1.67632e+06
1.62849e+06
1.50875e+06
1.35136e+06
1.18772e+06
1.02994e+06
879276
728496
569740
388923
1492.75
1859.25
275091
346949
412228
483310
558981
632163
708893
787731
862047
924362
984310
1.02171e+06
1.01357e+06
962237
894652
826195
760763
682718
610741
525512
457072
398975
369257
349050
336909
323623
307212
293878
1166.85
1661.03
378962
435606
515984
645578
811898
1.01874e+06
1.20593e+06
1.35099e+06
1.45329e+06
1.50256e+06
1.4541e+06
1.33943e+06
1.19977e+06
1.05133e+06
896919
747865
607023
496162
416441
367592
350259
351309
358542
368475
373706
369172
360520
346328
1243.76
1908.91
666663
877882
1.11706e+06
1.34189e+06
1.53582e+06
1.65585e+06
1.69374e+06
1.6423e+06
1.52516e+06
1.36466e+06
1.1898e+06
1.01291e+06
844735
703557
597730
531877
504181
497234
499335
523682
567350
598823
607734
599061
597757
627968
675510
661120
1159.29
26667
291290
306155
313599
317871
326130
341648
362557
382788
399272
407571
401827
369739
65958.6
91455.4
558466
669828
694045
683696
646710
592963
539789
508223
503140
514020
533290
551225
565467
573928
574598
567902
552057
529447
502402
470111
432270
387768
341181
300843
271748
261306
266555
259909
36451.3
66473.1
315111
419767
504286
544716
543775
514807
471158
432259
414469
420338
440331
457457
475252
490086
507355
523947
536737
539556
528665
507792
477984
447457
420460
395811
370722
340441
318034
306237
45229.3
82476.4
319984
404085
531595
678320
789051
851502
862799
842066
812362
788059
779782
773834
758092
731531
690305
648522
630474
652761
706525
782165
861592
925633
934633
839740
663617
520936
453142
411794
65384.4
106173
538769
658657
777846
882270
969523
1.02866e+06
1.05732e+06
1.04751e+06
1.0017e+06
912726
806156
693228
608808
545975
500910
462821
429340
405355
390845
385883
387575
394186
408817
435836
475203
520172
553206
575168
88239.8
150216
836545
874322
834402
802552
804861
816047
820634
821298
830121
861341
934109
1.05369e+06
1.18196e+06
1.2667e+06
1.25745e+06
1.16271e+06
1.04681e+06
969237
934620
948312
1.01213e+06
1.09095e+06
1.16982e+06
1.22379e+06
1.22682e+06
1.11416e+06
895097
683865
54951.2
145889
618956
696231
820221
948938
1.058e+06
1.14017e+06
1.21387e+06
1.26449e+06
1.2833e+06
1.26364e+06
1.21909e+06
1.16173e+06
1.1036e+06
1.05621e+06
1.0231e+06
1.00767e+06
1.00231e+06
1.00168e+06
987637
952147
876677
773800
674090
608133
576689
552817
522043
490643
71129.8
123227
729209
713908
626339
521341
454411
454854
497080
530341
533395
518196
532430
583694
659106
786376
911348
974483
1.05042e+06
1.19221e+06
1.40719e+06
1.63212e+06
1.81311e+06
1.90135e+06
1.84699e+06
1.61074e+06
1.21716e+06
778540
517893
403815
17903.7
6972.54
479937
517999
554990
586932
628456
679573
758882
855611
965859
1.08263e+06
1.17748e+06
1.21352e+06
1.21559e+06
1.19361e+06
1.16132e+06
1.1236e+06
1.07874e+06
1.02336e+06
958500
886360
808288
727988
649843
577366
509310
444069
371525
281993
2184.26
2266.72
238281
280788
313769
347569
386665
426775
465856
497471
517240
533113
559191
611615
713820
864727
1.04197e+06
1.22355e+06
1.39712e+06
1.53897e+06
1.59768e+06
1.53594e+06
1.39864e+06
1.23891e+06
1.09029e+06
972979
868371
766791
650482
477109
2824.95
2429.32
282455
362505
443196
534133
628542
719296
801337
869105
908983
919120
911280
877919
855659
836779
824988
810100
800368
761911
713809
635852
560390
486132
432956
391678
371290
355573
343558
327912
1430.98
1959.9
426654
495631
600616
760907
957482
1.14118e+06
1.25347e+06
1.25854e+06
1.22266e+06
1.1937e+06
1.13198e+06
1.06044e+06
988617
905233
810502
707832
597717
501861
432709
386189
364653
364694
374283
387875
400619
407661
409572
406932
1541
2285.78
671177
895364
1.10122e+06
1.30285e+06
1.4586e+06
1.54764e+06
1.54214e+06
1.48769e+06
1.38579e+06
1.26423e+06
1.14559e+06
1.01304e+06
873385
753695
662311
607980
578257
579147
581901
597736
621467
639342
638534
632392
651869
718095
759202
717752
1203.96
35539.3
319156
323756
324887
319749
319892
331769
354729
383126
412951
441103
463429
453845
92153.2
116997
607273
688233
692786
671379
620546
546254
472114
425423
415449
433293
464783
496920
522379
538765
545388
541676
528550
508792
481030
443525
398823
352083
311034
282350
273338
291469
320518
318858
52292.6
78932.2
359209
430978
482736
500460
490875
464132
427023
393098
373762
371681
374091
369149
365287
362422
371027
387911
409953
430393
440401
442505
435790
423412
412206
399449
381984
358664
348034
349302
61757.2
98863
399623
514839
681334
840505
936161
971078
939666
867980
782661
714861
664520
624167
585527
544399
501741
469255
467800
505221
572656
663663
768569
845477
846401
753114
608466
507886
460924
432004
76053.4
128344
618844
781655
931092
1.05211e+06
1.14315e+06
1.20469e+06
1.2347e+06
1.23933e+06
1.21215e+06
1.14784e+06
1.04698e+06
926077
806532
699071
610008
535907
478456
435641
405939
391582
388063
396854
416413
452224
504291
562813
612916
656805
108484
194365
1.01366e+06
986706
906239
863622
862962
868539
865503
860306
868790
910156
1.00366e+06
1.14751e+06
1.29459e+06
1.37372e+06
1.32116e+06
1.14365e+06
925794
777587
707952
716781
796894
913523
1.05093e+06
1.15696e+06
1.19739e+06
1.1165e+06
940587
777974
70127.2
175585
700396
798636
928422
1.04799e+06
1.14042e+06
1.20928e+06
1.26366e+06
1.28177e+06
1.26631e+06
1.22215e+06
1.16542e+06
1.10748e+06
1.05905e+06
1.0269e+06
1.00914e+06
1.00872e+06
1.01824e+06
1.03247e+06
1.03404e+06
1.0058e+06
939069
840591
734098
644637
586586
550542
524655
513122
90086.1
174324
734307
684731
582173
484360
445883
493954
572811
622093
623995
607349
618921
662050
734289
872163
985864
988928
961861
1.03046e+06
1.22291e+06
1.49951e+06
1.7813e+06
1.97946e+06
2.01353e+06
1.84503e+06
1.48039e+06
1.02001e+06
675470
502181
33991.3
10771.3
523042
559568
592249
621258
660026
711888
791176
888693
983893
1.0603e+06
1.11759e+06
1.12938e+06
1.11477e+06
1.08407e+06
1.05407e+06
1.02389e+06
992676
957712
914408
861768
795979
716294
632355
556516
492982
439498
386384
302776
3820.21
3432.03
241459
281162
319005
363141
410126
457715
504561
543526
566951
577874
595604
643674
740303
876527
1.02639e+06
1.1756e+06
1.31034e+06
1.4095e+06
1.43802e+06
1.37766e+06
1.24388e+06
1.10395e+06
986571
911399
837550
763431
675836
545330
5827.04
3418.25
306017
391911
486055
592564
702204
804853
888920
938620
926731
851865
746126
661305
649933
703256
777283
818047
854582
855684
830298
770952
692023
599564
522411
460352
423423
394988
380221
363396
1839.35
2362.77
483175
566123
695143
865492
1.05393e+06
1.16433e+06
1.17848e+06
1.06728e+06
909873
782856
742898
760130
788688
788715
750915
690052
606387
522403
458559
414805
392775
391442
400182
417304
437556
457029
475151
491282
1961.06
2562.22
662389
820724
957707
1.07909e+06
1.1661e+06
1.17617e+06
1.1294e+06
1.07281e+06
1.04855e+06
1.05201e+06
1.03802e+06
977408
882223
780190
701605
659582
634452
627888
619491
624343
637858
645058
643251
657946
719212
798345
850841
764345
1725.99
43675.2
333231
337733
337805
328306
319565
326789
352915
391159
433198
481221
537116
540774
129827
155531
641397
682514
679538
661755
617565
550379
483024
439308
430834
449311
480719
511307
533769
545964
547185
538467
521750
497113
462902
420665
376708
336848
307933
299336
318096
371703
420718
413321
81648.2
104952
402873
441349
481068
504359
510191
500833
477250
451098
429154
413658
392580
362867
329774
304684
297543
310946
335719
364591
387876
406851
420075
423529
420557
412855
396679
380376
378656
388373
84018
117914
506443
651960
862014
1.03145e+06
1.11994e+06
1.13759e+06
1.09231e+06
1.01135e+06
926363
852297
786624
730950
683550
643581
615544
601174
603589
623085
664054
724355
790321
823164
789064
692031
579749
508692
472346
442130
94884.4
158291
734229
935126
1.11003e+06
1.23804e+06
1.32686e+06
1.38757e+06
1.4171e+06
1.42296e+06
1.3926e+06
1.32607e+06
1.22464e+06
1.10789e+06
983591
863331
755749
662252
585035
521625
471992
437937
419536
425774
449657
492516
553589
621345
688371
757701
131377
243775
1.19914e+06
1.09651e+06
978078
918798
906251
899948
888692
877774
884783
931163
1.03566e+06
1.19769e+06
1.36669e+06
1.45179e+06
1.39698e+06
1.18864e+06
925290
741004
661876
677652
761183
891514
1.03439e+06
1.14536e+06
1.17909e+06
1.09885e+06
957861
842448
92214.1
204312
762742
878354
1.00608e+06
1.11252e+06
1.18788e+06
1.24104e+06
1.26393e+06
1.25124e+06
1.20993e+06
1.15313e+06
1.09541e+06
1.04674e+06
1.01403e+06
996604
992262
1.00028e+06
1.01836e+06
1.03994e+06
1.04925e+06
1.02846e+06
976687
898236
807403
715802
642567
593858
573768
558177
135672
220873
710293
641504
562043
508255
517559
593735
677708
720959
714372
699439
712117
759568
840244
977313
1.07761e+06
1.03717e+06
897829
828038
938679
1.23468e+06
1.60542e+06
1.91231e+06
2.04423e+06
1.95693e+06
1.6439e+06
1.20653e+06
845854
630272
67984.2
20217.3
565771
594419
620931
647022
689422
748814
827465
909685
977534
1.01554e+06
1.03279e+06
1.01383e+06
986753
948798
923129
909245
899983
892323
885218
869186
828795
751284
648808
551956
477752
422623
380745
320344
7297.41
7444.79
238208
278527
316427
364924
417538
474822
534117
585025
621042
640341
659529
700089
783926
902103
1.03808e+06
1.17134e+06
1.27794e+06
1.3353e+06
1.33878e+06
1.27156e+06
1.14564e+06
1.02863e+06
946596
917025
864939
796970
705699
598385
11957.6
10156.1
340353
440786
532428
647570
770808
886187
976028
1.0156e+06
962799
805952
599118
485786
567273
725999
869407
945031
998269
1.01449e+06
990660
939292
850457
742512
640337
557904
498165
451332
418995
399876
2568.02
2544.38
542264
628081
755557
912406
1.05128e+06
1.11375e+06
1.05459e+06
848326
636149
532339
574169
678340
772430
811912
789385
741425
666698
589199
526686
484673
462426
457734
462749
474895
496498
526171
557018
599684
2330.8
2759.05
602040
722786
811156
873597
893494
850164
750242
674705
740322
902159
1.00655e+06
998362
917883
822125
748028
694842
666164
637005
613490
603817
615657
622753
638994
687219
766989
847328
901393
770849
3481.92
50663
338633
349312
353350
344408
336284
348685
385010
436101
499469
599364
738986
828193
724328
177717
188869
692928
688984
687978
684833
679089
656350
616918
575396
545418
535838
544170
560742
575875
583833
581888
571629
553967
530378
500156
464868
427125
397446
381064
380988
400989
450501
531003
607642
624507
496561
125378
136744
547301
535569
553859
590623
622419
636875
634956
619664
600623
579722
558861
531558
495800
455578
420327
391581
383455
388195
402020
420947
444273
467008
473242
463717
447696
428837
417789
425918
446135
401442
166655
197515
783911
806649
905029
1.07338e+06
1.2305e+06
1.31065e+06
1.31408e+06
1.26234e+06
1.18867e+06
1.11743e+06
1.05263e+06
997206
949273
910775
882083
864510
857438
853062
856859
860164
865645
863926
832608
759002
662598
575979
519263
486945
475463
434542
197379
238402
941677
1.01979e+06
1.16765e+06
1.31901e+06
1.43536e+06
1.51814e+06
1.57716e+06
1.61336e+06
1.62426e+06
1.59279e+06
1.51952e+06
1.42145e+06
1.30754e+06
1.18981e+06
1.0749e+06
970472
878984
802348
734268
674718
618718
562314
534406
528572
556509
618467
695910
788990
887873
735799
216717
336967
1.28474e+06
1.37988e+06
1.19697e+06
1.03378e+06
943831
912012
898024
883191
872677
878890
923255
1.0262e+06
1.19349e+06
1.38018e+06
1.48741e+06
1.46119e+06
1.27524e+06
1.04124e+06
859925
775546
779877
846037
950323
1.05862e+06
1.13546e+06
1.13652e+06
1.04967e+06
937944
864112
610840
219450
248157
743811
831565
943398
1.05594e+06
1.14066e+06
1.19798e+06
1.22337e+06
1.21788e+06
1.18479e+06
1.13227e+06
1.07289e+06
1.01921e+06
983138
966955
962308
967574
976170
992187
1.01675e+06
1.03987e+06
1.03624e+06
1.00021e+06
946452
876234
797907
728418
694598
717244
767087
678236
190106
207905
753044
700120
650879
619924
612343
639944
706373
765330
789059
773765
761530
781772
840636
932173
1.06609e+06
1.15798e+06
1.10512e+06
910723
704926
695162
951871
1.35733e+06
1.74591e+06
1.96201e+06
1.95306e+06
1.70297e+06
1.31333e+06
982531
812353
632388
55003.8
77286.4
559099
631070
635969
651101
677446
718871
782680
862990
927121
965160
966431
943248
893517
845880
806471
790677
795782
813656
843140
882710
918606
917684
849172
719058
586001
486163
417965
372789
337841
286342
10958.9
10553.3
198331
261419
284142
313719
359830
414062
473880
543805
615296
674846
718764
764134
822448
913254
1.02997e+06
1.18311e+06
1.33474e+06
1.43448e+06
1.46764e+06
1.44598e+06
1.37364e+06
1.24741e+06
1.11875e+06
1.03613e+06
1.03245e+06
987850
908583
800013
684540
543956
16976.3
13346.3
455879
580907
614978
651728
733414
848488
971920
1.07421e+06
1.11785e+06
1.06567e+06
926108
757887
706083
843700
1.03454e+06
1.17218e+06
1.24589e+06
1.27256e+06
1.26325e+06
1.21913e+06
1.14714e+06
1.03696e+06
909953
785889
684891
603324
536980
490223
469759
413231
11526.7
8861.14
393388
598084
670671
771333
889826
976918
998928
907523
745040
671234
741336
867020
961591
1.00835e+06
1.00865e+06
950668
881270
792246
706743
639298
594761
570773
559692
560147
571596
592305
624995
684701
788015
782472
11234.5
6073.81
416543
633003
733548
799936
848418
867754
860140
843675
831566
917136
1.03364e+06
1.10858e+06
1.09205e+06
998734
893870
804813
729844
682411
636415
591951
561739
571167
593004
641033
705668
769097
834114
890039
886238
660732
2152.61
1598.84
55071.9
338133
358541
368513
363592
360638
379762
420025
466401
518082
605585
755800
907233
965432
901462
813798
732079
697113
697129
700852
710913
715470
708984
695825
681110
671482
668183
665824
661259
651655
635229
612187
584594
555239
523705
496563
477709
469790
472069
483416
506298
551167
627111
720892
796080
809951
817962
793645
748624
726301
753400
794516
830199
851406
860907
860279
853125
842883
828902
805796
773366
734206
688500
638159
595726
567664
552715
550630
558967
570928
567337
548008
527297
515304
525015
569643
650690
754800
882965
1.03278e+06
1.09187e+06
1.00796e+06
1.06911e+06
1.21701e+06
1.37482e+06
1.46134e+06
1.46441e+06
1.41155e+06
1.33878e+06
1.26751e+06
1.2089e+06
1.15989e+06
1.12031e+06
1.09165e+06
1.07127e+06
1.05755e+06
1.05356e+06
1.04409e+06
1.02902e+06
1.00372e+06
963533
908557
835146
747772
665969
604883
571890
583542
667634
840803
1.0354e+06
1.16798e+06
1.21158e+06
1.23953e+06
1.36555e+06
1.49752e+06
1.60615e+06
1.69124e+06
1.75686e+06
1.80559e+06
1.8219e+06
1.7957e+06
1.7326e+06
1.64677e+06
1.54954e+06
1.45192e+06
1.36338e+06
1.28398e+06
1.21831e+06
1.16554e+06
1.11302e+06
1.05229e+06
984998
904736
818206
757097
736103
761531
811807
897546
988313
985312
916713
1.27658e+06
1.65061e+06
1.5023e+06
1.26526e+06
1.05328e+06
918124
860113
844148
839510
838853
847640
885798
976478
1.13623e+06
1.32987e+06
1.47174e+06
1.49398e+06
1.36914e+06
1.19008e+06
1.02608e+06
936430
915412
950354
1.01558e+06
1.07344e+06
1.10107e+06
1.06667e+06
980293
888035
820977
731190
580593
647519
803715
905063
1.01916e+06
1.0931e+06
1.14207e+06
1.16686e+06
1.1644e+06
1.136e+06
1.08762e+06
1.0276e+06
971533
931289
915360
916007
924203
933789
937073
945868
967563
996941
1.01234e+06
1.00627e+06
977747
928753
868204
794773
741295
740084
797543
847376
822291
798640
791711
763501
759438
750842
746883
759647
790662
815353
816260
798632
791496
820092
887825
984252
1.10934e+06
1.20099e+06
1.16524e+06
976683
732365
611159
772877
1.13288e+06
1.53847e+06
1.80365e+06
1.84943e+06
1.66465e+06
1.33656e+06
1.02115e+06
851631
764820
630600
642242
739359
684609
672423
681299
706086
752291
824747
896584
944154
961855
936398
885642
817712
757402
719982
713966
736803
779415
838455
918259
1.00146e+06
1.04193e+06
989335
838268
655393
518665
434638
382834
349079