/*--------------------------------*- C++ -*----------------------------------*\
| =========                 |                                                 |
| \\      /  F ield         | OpenFOAM: The Open Source CFD Toolbox           |
|  \\    /   O peration     | Version:  2.1.1                                 |
|   \\  /    A nd           | Web:      www.OpenFOAM.org                      |
|    \\/     M anipulation  |                                                 |
\*---------------------------------------------------------------------------*/
FoamFile
{
    version     2.0;
    format      ascii;
    class       volScalarField;
    location    "0.003550000";
    object      p;
}
// * * * * * * * * * * * * * * * * * * * * * * * * * * * * * * * * * * * * * //

dimensions      [1 -1 -2 0 0 0 0];

internalField   nonuniform List<scalar> 
12384
(
816367
803270
783485
763669
752476
738735
728660
726657
692094
703197
658347
670288
640774
655042
654695
651466
647437
641383
632891
632934
616346
622124
606782
612775
604877
618810
607087
643498
631766
682060
666195
722181
706674
763808
755537
799477
804454
815616
821245
822476
825788
832872
842044
845524
503519
497015
509124
521063
541082
550096
615720
625344
631178
657498
652452
661836
660567
660156
651730
660076
638993
677267
720951
714883
773545
775429
767710
754012
725214
725583
704266
706104
697938
699759
736861
723989
707195
691784
673616
651711
637020
622915
606954
573822
580332
572878
538893
547185
535008
522388
520134
533251
530933
537735
511789
579656
591418
665981
717960
735740
769090
762668
771344
757128
1.01859e+06
992807
957251
953081
888042
911771
855299
864705
859412
841276
847192
800378
806951
723826
742950
696467
707570
693723
702870
703103
705057
706937
699495
688096
672987
658486
643970
635249
630074
625445
594581
602570
607206
612118
630012
626657
633892
646554
650920
660117
666087
665621
668388
661559
634219
644071
586604
611164
536856
585166
499545
667429
544726
818949
818275
864297
851345
844801
837970
830546
1.13591e+06
1.11021e+06
1.06826e+06
1.00399e+06
939746
872506
794511
821439
746552
774743
685766
715765
654589
677240
645511
658772
659575
651614
665729
678012
667335
712624
705926
729186
780133
790116
801935
833370
829656
849005
711320
696619
744180
732636
777626
786922
805286
806188
814238
810848
820324
823627
821203
821533
814459
831444
871903
898184
883617
777265
640506
600190
582382
613678
602837
601028
600347
632614
585696
586720
620713
627381
638859
769172
863549
872463
825240
850102
887860
836757
832868
667178
727473
651825
683704
681763
681441
676851
674489
673077
675107
681994
689269
692974
693098
688981
678912
662844
659965
651624
795530
791874
774175
771848
780374
775765
814066
817536
826034
819726
808869
809058
839267
823948
832070
861665
852654
832031
818837
774242
745052
790140
866148
849247
894915
929547
943991
940842
942511
947848
895850
886560
930642
918048
954802
943715
972036
938294
1.02625e+06
1.01292e+06
1.13561e+06
1.12386e+06
1.06201e+06
756877
758153
713037
740111
787971
835840
876481
919601
930253
935978
926941
911757
914807
920054
915862
936725
924662
868531
998521
980584
1.06492e+06
1.045e+06
1.06118e+06
1.06556e+06
1.06023e+06
1.10309e+06
1.03442e+06
1.03147e+06
733096
859008
708628
779992
758597
793862
787444
819671
834260
856880
865573
874764
870560
867963
859761
859481
856509
874485
869263
2.62911e+06
1.74047e+06
1.38472e+06
1.04656e+06
1.21331e+06
949506
1.07926e+06
979387
1.0214e+06
1.00757e+06
1.0031e+06
1.01793e+06
1.01181e+06
1.02551e+06
981758
999571
989607
973009
908061
827871
1.17143e+06
1.92665e+06
2.18993e+06
2.42039e+06
2.4198e+06
2.37225e+06
2.30818e+06
2.3184e+06
2.29181e+06
2.30488e+06
811423
794453
779347
758916
747142
735565
724230
718603
701414
692980
677329
652422
655893
644834
653824
650367
645077
642959
634279
631898
619496
622069
609254
612362
610877
613819
620012
637867
639410
676609
671382
717562
710869
759779
757155
798794
802711
819126
817191
820164
821234
823546
827719
834297
511222
498271
529227
510005
562620
583618
611848
623338
636275
628669
649732
641708
648458
646066
650089
648587
636947
693977
686578
736193
761423
775262
765615
755562
735034
727286
715452
704264
706750
696581
728853
719105
706550
689543
673466
663811
628397
621466
598985
598227
559457
567598
551928
535416
547355
550212
548014
527391
518034
518154
540104
584295
631204
709189
723434
738478
757693
769078
760815
764607
1.00737e+06
987075
963199
930950
915019
870713
878354
823182
842906
818004
791879
777782
731814
737247
688399
701395
685934
694991
690783
701522
703708
701316
700016
688948
678282
664256
647921
645586
626279
619053
619262
618178
623892
625467
630580
628142
637350
645203
654133
660007
669479
674704
671830
669181
652040
643218
600016
576710
559661
556927
533954
622174
575369
776754
817969
850129
854915
838632
833412
827395
1.11404e+06
1.09286e+06
1.05888e+06
999670
923748
902462
785806
832608
745442
765737
689363
705171
655005
660189
655414
646053
643568
649539
660021
653029
674418
702317
688827
750536
765542
793192
827167
829483
849824
840180
701547
702041
724116
739174
757035
773972
793026
803702
808104
812847
823516
829033
827796
835680
840979
851976
882941
912765
903561
806685
652371
635670
651425
625697
661408
642922
685918
614612
627448
668845
732414
820424
838915
839048
817570
849092
896554
908919
908793
865982
803520
699418
696964
659182
661584
668232
666305
661599
655194
653904
653499
652334
654559
656346
659004
656842
649502
646181
635759
624654
766210
749533
746887
739569
758769
784677
789982
804616
793813
798760
809858
829798
827436
857398
875613
854752
847251
822378
779112
745007
777837
808649
804446
847170
904580
929208
941083
950503
952144
949669
908075
901549
937121
927781
952011
951247
967049
958845
994145
1.03118e+06
1.07618e+06
1.13258e+06
1.01091e+06
820976
729282
721768
744755
804939
835498
880973
894480
920845
923264
913863
912702
910454
904358
915572
927849
945210
904401
900625
958181
1.02777e+06
1.05636e+06
1.02852e+06
1.03355e+06
1.06589e+06
1.06596e+06
1.06028e+06
981149
795185
800734
749571
757075
772170
789900
796226
819578
834095
850062
866032
865890
869650
861433
855740
848441
849434
844306
865978
2.35651e+06
1.59468e+06
1.31491e+06
1.18865e+06
1.09227e+06
1.03024e+06
1.04258e+06
990558
1.01149e+06
1.00965e+06
1.0208e+06
1.02437e+06
1.04638e+06
1.0256e+06
1.03794e+06
1.04413e+06
970326
998827
971805
1.21454e+06
1.42768e+06
1.47481e+06
1.98991e+06
2.06327e+06
2.21455e+06
2.24192e+06
2.26662e+06
2.21156e+06
2.20858e+06
2.21275e+06
802538
788642
775776
754021
747235
726502
720357
718486
700255
694517
677950
657152
663343
641894
652638
647330
647030
644130
632927
634075
620120
622648
610952
612615
616424
614439
629166
639888
645838
678287
673377
719393
710711
760874
755741
797188
802091
810234
816813
809911
812461
813833
817803
819667
498850
506963
514961
538546
583675
608222
625006
621142
623716
622867
614637
632011
630598
636654
644370
645190
638879
698993
672154
738654
762170
765411
766261
755218
746599
729096
722511
714251
705904
710502
720012
712991
701880
690941
676003
655865
630231
633419
596284
601566
567110
579323
576937
577890
549482
554564
532169
561590
561858
589588
596100
638642
679236
717668
736312
746696
734034
726709
722442
708822
1.00251e+06
987135
961034
951703
890883
893565
848623
813268
815868
763801
760769
711675
706068
656431
686253
678702
675108
677920
686941
682917
695560
698387
696158
694748
681714
670564
654169
648587
640196
650524
600717
607271
607306
616673
621834
630128
639424
651188
655825
665982
674777
682463
683840
672792
658822
658802
585536
577252
572855
559630
508186
626025
551939
755069
797763
835076
829907
827808
823279
816651
1.09873e+06
1.07914e+06
1.04638e+06
989894
924158
898732
789826
830855
740376
749892
684439
693107
647143
664186
636665
643609
646631
637403
656351
651391
654854
711285
677153
767298
754994
810645
816286
853674
847501
875058
706114
693523
729252
721745
754142
756371
777405
785161
804502
814589
824565
829706
837184
841804
851436
880298
899124
926837
927204
840438
680907
691280
646034
686138
671486
716005
671271
681141
704913
620112
965571
881836
849346
867413
900431
894816
897007
912737
916858
886698
847347
661469
730855
626358
669228
650709
649742
641476
638833
633936
630393
628354
628950
644598
650360
641439
624251
610716
598934
597865
731645
730347
714481
730604
727148
752887
777715
776178
798049
795358
807532
803607
840451
857549
863931
883063
857494
802372
781976
687341
717396
746433
763722
838384
889010
913148
939246
954264
957636
958172
910897
913638
945875
941468
966190
956205
976962
954753
1.00732e+06
996565
1.05336e+06
1.0286e+06
1.04015e+06
802909
788789
739632
749039
817699
837781
891767
898210
914302
901883
909108
899366
893837
901489
911833
909897
921074
797998
831077
937416
1.00289e+06
1.00544e+06
1.02997e+06
1.00159e+06
1.00539e+06
1.05896e+06
1.00567e+06
1.00276e+06
758656
833510
733536
776411
766829
799456
792913
822126
825130
844508
851634
862574
855713
853216
846255
849748
847166
850681
836662
1.95976e+06
1.50549e+06
1.35728e+06
1.11334e+06
1.08496e+06
1.02717e+06
1.01774e+06
980553
988274
998146
1.01116e+06
1.04205e+06
1.03484e+06
1.05422e+06
1.07986e+06
1.03102e+06
1.11571e+06
1.10182e+06
1.32782e+06
1.53482e+06
1.61372e+06
1.6424e+06
1.48217e+06
1.83131e+06
1.96377e+06
2.07481e+06
2.06726e+06
2.09858e+06
2.1037e+06
2.07206e+06
793542
781146
766644
746889
737486
716230
720326
705037
707446
686132
688765
667883
660526
650475
655789
653477
646291
645084
638283
628410
628831
619845
619989
610776
625474
618431
643318
634964
669104
661956
697792
703555
722725
750711
764799
782137
802153
805786
804529
805603
794391
791696
790351
789252
529362
525714
559752
577650
614452
619939
627170
621502
613308
613387
610902
603406
619357
624516
633359
632912
657043
659856
687382
721597
759578
765316
764385
757303
755929
733716
732885
716831
718189
714886
706009
699202
694105
691796
665353
666239
634776
636126
593826
602368
578821
573609
571081
567754
571170
556313
575593
564678
585320
595905
628181
684888
712637
729839
738921
733494
734354
733740
723468
724360
1.02377e+06
1.00098e+06
971051
939327
923612
854604
862250
791684
773508
746347
681081
679157
645703
666007
622229
631294
665530
662939
670644
682999
675880
694985
696826
691808
689262
675477
665910
659211
648741
635105
655603
649619
649540
643919
648026
647810
648698
654136
662038
671612
681261
689807
690578
685191
665159
647112
594117
591889
554137
528571
527978
581603
575152
728676
778904
809537
813961
807125
801443
795080
1.08719e+06
1.06591e+06
1.01894e+06
1.00496e+06
907451
883607
798279
806555
730637
748556
679524
678051
655246
635362
643581
628772
630403
636839
642091
641749
672923
671629
700152
739560
797312
789598
847539
853123
873686
863417
671361
701707
693937
727439
717001
750282
744637
783076
787785
812243
813264
830458
834331
853459
863155
889690
897851
932724
923027
868420
721509
692390
729012
732337
744161
714104
735233
770978
754155
780784
1.11491e+06
1.05716e+06
966828
902023
888251
896506
907432
911492
919081
885028
878550
673613
727092
609142
644435
633797
627359
629681
624125
617955
620218
623485
628284
618289
610663
603864
598487
588017
584479
587460
695687
686656
706234
672282
708921
729915
756159
773461
767428
777018
777116
807554
828175
844633
865572
860972
866090
795930
801426
639690
690943
774564
725217
828330
871862
904512
934404
960513
973027
973185
933498
932595
943784
969580
964693
974616
967080
980851
970974
1.00892e+06
999665
1.03954e+06
922908
878619
692093
742013
767623
817285
838413
882089
890728
896567
897971
909816
884007
873483
875177
877559
904931
904219
809324
798334
867757
940730
977185
960089
984108
998606
979935
1.01523e+06
853683
869144
739033
775690
771553
778162
789440
806136
811836
826264
825599
834366
832669
838868
837226
841531
839140
841020
830941
830195
1.60316e+06
1.52359e+06
1.16054e+06
1.14129e+06
1.04799e+06
1.02084e+06
972197
980724
968698
981666
1.02509e+06
1.01295e+06
1.06123e+06
1.10755e+06
1.08424e+06
1.16492e+06
1.18663e+06
1.41926e+06
1.62605e+06
1.769e+06
1.74548e+06
1.59697e+06
1.54764e+06
1.39318e+06
1.69885e+06
1.92603e+06
2.05852e+06
2.04673e+06
2.02198e+06
2.02282e+06
783557
772108
751970
746133
715014
718889
702748
707830
695979
697157
684718
672941
665227
661286
650229
653320
647954
638378
641949
635559
620405
617625
615096
618501
623980
625374
645415
651445
663026
681684
692931
717183
724458
749994
761053
777259
784775
796827
792052
786079
783640
771615
771284
772248
518372
550014
569330
615439
628117
637517
626755
622192
608717
605443
604384
603713
600047
616884
618433
632224
658106
640178
690964
719045
735388
760594
761722
760532
753955
740812
740427
728923
725210
728317
692096
692709
693966
679661
677862
662960
641981
634983
602857
612655
587489
596475
589468
601907
591466
621333
604879
618278
618945
640620
680207
693244
710547
719618
724180
724793
713339
695285
683463
672600
1.03828e+06
1.0387e+06
1.00493e+06
953089
914656
876535
806764
798083
735809
693016
692833
638644
647883
613329
638666
623957
617838
645579
638186
653171
663891
663375
687187
692085
689014
682833
675851
672324
673976
685424
657584
654693
651457
651468
645692
650772
656682
662228
669692
676470
686618
690019
691957
688151
663202
633697
616620
595290
519591
545086
504024
581365
585764
708130
760469
771035
775757
781567
791405
797121
1.08148e+06
1.0417e+06
1.02314e+06
986733
892551
864788
814169
756774
745850
701308
691590
648782
661695
627144
638866
625239
632098
630936
642064
639146
676955
654941
740286
718081
783024
809871
827885
874581
871399
899950
679618
671663
695620
680893
715112
699521
737609
743932
776540
793194
810958
818393
829898
844942
861531
860458
881585
896599
922351
846817
739879
743584
734596
741635
738956
764322
775402
761871
782555
783619
1.20968e+06
1.08737e+06
992452
924649
893451
874020
880491
898929
913764
883839
866013
673721
736435
581090
648434
598941
606846
590937
597899
604683
603378
609148
611001
616432
614164
595430
589031
579934
570292
550781
686617
689714
660561
680037
697547
691896
751580
751125
771710
764149
781081
802115
820123
836464
847406
861317
841892
798270
777558
645285
657901
702196
739344
814134
843721
888002
936398
958308
978678
982050
931986
946475
966837
974182
988050
989736
992887
972851
979027
957086
980183
920001
933421
781224
765148
761943
742883
815482
815736
852653
879712
901153
888019
875725
864857
877779
866495
887691
886536
907061
728921
723312
844306
867731
945308
960083
909495
914864
972976
862244
898170
751329
795595
738166
773622
769173
794950
799527
814411
810819
819923
814154
815472
808606
822092
827241
836989
833583
829279
823821
1.63408e+06
1.21604e+06
1.22883e+06
1.02919e+06
1.04349e+06
946811
940247
891863
908044
950945
966097
1.03211e+06
1.09489e+06
1.0903e+06
1.17897e+06
1.23619e+06
1.4319e+06
1.64236e+06
1.80123e+06
1.81158e+06
1.73342e+06
1.62491e+06
1.52944e+06
1.47493e+06
1.3401e+06
1.5109e+06
1.71948e+06
1.82038e+06
1.82748e+06
1.91653e+06
775348
757699
753486
717409
722207
696136
704234
694285
699012
692173
681112
681760
662120
666540
664607
660185
660480
652998
640635
638423
642636
629850
633906
631967
637118
644146
648615
664390
677244
685957
710521
716929
739229
742006
759378
763825
774376
776483
780388
763094
743456
730863
735059
753750
567015
599127
638135
637371
647980
636470
630076
620275
610809
604919
602165
603142
600396
600590
622833
610199
651769
645121
681468
695941
730475
738142
759305
755006
751241
749527
745559
737771
737831
726560
688408
693011
688446
686243
678561
664315
635502
639225
604131
609399
594387
590147
595060
594357
634197
621773
655581
648638
661942
671966
666584
684802
685489
694655
698075
699154
693361
695154
692143
694141
1.08421e+06
1.05258e+06
1.03365e+06
964972
901097
859377
807390
734296
723676
696041
652289
648457
622402
614570
608656
623713
624946
622740
644223
628700
649484
658525
656417
676574
687681
691342
695125
699354
701702
696122
703365
693137
685354
676227
670944
663372
668087
672290
677188
682217
684409
689404
688505
676699
672685
621321
623981
581519
516980
546341
497586
583785
583103
685296
729662
748222
760451
749858
739074
742115
1.06291e+06
1.04232e+06
1.00987e+06
959009
895694
853179
800399
726082
752094
675934
692098
644568
651767
630456
631532
632689
626723
639125
638769
637473
687858
667189
730487
736443
755663
813039
836321
852297
889816
904196
640702
661621
646729
681178
655292
702010
684224
729462
743325
775846
789778
795619
809633
822267
831557
822021
825372
853260
865569
811728
739422
735823
750121
780085
786770
758234
762792
761084
761896
759309
1.16086e+06
1.05808e+06
972777
907051
859077
869268
868559
873970
874358
887099
834322
729821
703515
587025
606026
596049
590800
600533
588905
592107
606496
607995
614414
608207
601720
592303
588227
570489
576278
561029
661088
654320
672868
657712
678666
686620
733543
742307
768820
764423
780626
798149
811829
827016
833409
827193
829920
784491
754323
625352
657686
699145
673664
782253
841504
850559
926883
953867
980405
993449
945122
970328
973109
990385
1.00504e+06
1.01697e+06
1.00282e+06
1.00037e+06
946627
947791
884764
915788
803684
768673
703830
716803
753404
741968
797860
812843
850493
856244
865623
859872
857563
868289
873498
871777
885794
896919
777085
766106
787539
859253
852459
871146
841391
823693
780648
870982
739367
788850
717951
749675
747372
769648
780409
803670
803112
810241
799457
796125
807513
809972
822579
822256
834530
832173
828609
823779
1.29124e+06
1.27311e+06
1.01462e+06
1.07259e+06
945272
955889
848343
855643
882006
905496
934798
1.07167e+06
1.02283e+06
1.18706e+06
1.14939e+06
1.30635e+06
1.6588e+06
1.65901e+06
1.75123e+06
1.74452e+06
1.68352e+06
1.60191e+06
1.52294e+06
1.43258e+06
1.45001e+06
1.38519e+06
1.49611e+06
1.76489e+06
1.85696e+06
1.83074e+06
763637
759970
733775
724065
699577
696901
685832
695405
692372
690911
682110
678700
659616
655996
667666
662192
655953
655030
644622
637018
626631
630048
619436
621206
633868
642950
667705
672823
690985
698999
717782
730161
737486
749004
746532
759192
752247
753389
745058
746518
743739
744123
733945
724044
607220
629408
643718
663347
644453
643011
625840
626866
613613
615288
607320
603028
604990
600218
610777
621725
617101
659504
660792
680252
707491
726021
727857
743050
747147
751479
752181
749619
736871
738654
689343
687175
700889
691375
683721
666854
643638
640423
607028
616327
605801
610554
618817
633562
627411
663585
661426
673985
658117
656845
660321
649689
673914
679429
686036
687104
684945
668305
674661
690670
1.10325e+06
1.08204e+06
1.04107e+06
987885
887785
835772
786135
740556
694068
703044
644210
632995
632855
608574
620571
608506
610157
605449
604036
611306
597091
613478
627224
646054
666979
687591
702605
716804
721336
735240
709832
702487
693009
686296
681608
681315
676204
679484
679625
680548
681717
679385
675027
680232
664186
625205
625879
573734
520239
536766
485321
586165
579554
658291
699186
723523
724399
752421
757531
770659
1.05938e+06
1.0297e+06
989796
947101
893115
828258
779606
729009
738514
671004
694280
636199
658768
626208
638644
628287
641201
634300
656046
661558
673392
713362
719956
738126
779814
770458
839890
848423
878730
896997
647685
625290
643476
615493
658284
635374
688824
681944
725966
725893
757273
779121
782502
784586
785651
797331
781656
806670
817135
787609
748311
741888
772577
773352
767375
783212
745794
737399
725907
710708
1.02846e+06
993380
944126
879554
830414
813930
826842
848869
866422
836317
844891
712197
720354
564710
622281
562571
581357
569177
585242
589559
593637
605217
606382
608657
601666
596459
587079
580400
574997
566219
664321
662403
658839
646701
675968
664110
717952
734248
760320
764472
780481
789453
807221
811661
818003
819634
796490
772545
722968
662938
632856
652403
690609
694362
813897
851356
885498
933618
972899
983786
971604
975274
989881
1.00842e+06
1.01501e+06
1.02176e+06
1.02247e+06
993974
985618
919089
901208
770940
771479
678746
709523
707279
677538
734995
722690
770403
783886
825053
855254
856514
865140
863728
875645
884825
882501
881573
719457
727292
761026
800577
880053
855844
865858
823195
819743
687845
764040
690255
735249
730968
730751
763676
788684
788755
807268
809250
816185
799768
788297
803557
801883
839069
826259
840191
822041
825846
1.34501e+06
1.05906e+06
1.08347e+06
932633
957282
832487
851660
848694
830623
898789
867970
1.01991e+06
1.0205e+06
1.22826e+06
1.07957e+06
1.45971e+06
1.56121e+06
1.70295e+06
1.64662e+06
1.6553e+06
1.62812e+06
1.57361e+06
1.49607e+06
1.40122e+06
1.26034e+06
1.27986e+06
1.25363e+06
1.15067e+06
1.37313e+06
1.42791e+06
767624
746006
747835
707008
703345
681265
686276
688157
689210
689993
681525
669749
642868
608207
684010
680780
668986
661506
669656
659330
661756
656714
668051
667412
663406
675413
673240
691850
699446
722552
723739
743378
740432
747106
751042
747033
753981
747592
733629
714935
700150
677995
671302
674643
677316
685718
681160
661699
656471
634815
631412
624190
620080
617651
614676
609075
606089
605766
601890
618613
623158
625622
669860
662670
686821
708673
724770
737861
747622
750581
751604
749131
747137
745234
717122
721860
712974
709051
684697
673881
641666
642942
607097
608218
600062
604326
619427
639049
684544
685752
691990
664799
665595
635290
641945
647276
636817
652824
655324
655861
655451
673595
702044
667302
1.12517e+06
1.10216e+06
1.05674e+06
974367
875207
817247
762005
755640
681192
708189
628863
650649
616558
629893
620317
632055
622486
617745
605831
609889
613892
602636
623588
621287
646320
680455
694651
714034
728521
735854
715523
709319
702417
694078
690175
687605
687231
679808
677961
674137
670731
667660
675836
673396
662915
648098
618768
589236
537852
523329
486268
581891
544340
661483
668515
710519
713707
731234
752870
769901
1.03927e+06
1.0108e+06
987974
917350
898388
776907
803103
718883
715525
691864
673925
651208
652540
644835
638562
646192
640645
658418
658404
676433
707506
708029
742374
738379
770665
781219
788878
839626
833836
879392
615784
626473
597122
623793
598987
642721
630812
680288
682118
727594
729581
736285
762116
766018
768934
749804
765179
772697
782864
784077
763613
758306
754356
793565
829315
779243
772524
706861
700708
591796
974283
933709
902805
828783
828886
815197
809252
803285
800269
835553
784957
751445
672178
597902
592252
567046
560184
570920
565986
574840
592545
597154
607748
607009
604779
598337
592896
587353
579084
580407
638916
644593
649104
648847
665773
663233
699753
719495
748541
756854
774010
787380
793653
800587
790084
775451
764178
742376
702232
668313
621416
638417
691757
666016
760206
830858
863227
918444
958899
1.00354e+06
933777
961439
998199
1.01681e+06
1.02917e+06
1.02916e+06
1.02173e+06
1.00901e+06
979211
917584
829512
760180
691921
664678
617415
616880
686105
660425
710830
729897
731159
824015
832420
864525
863065
858025
879112
900912
893998
921703
889735
882332
887797
870373
851060
811382
749402
732976
662099
725858
649586
706681
711095
724845
750947
772750
773675
821082
826532
810570
785687
807550
837911
844741
862369
843406
860252
842705
845358
804135
1.11892e+06
1.1142e+06
928937
967169
852643
868567
770023
786649
781398
780894
926106
903068
1.04804e+06
1.08131e+06
1.06342e+06
1.47217e+06
1.49907e+06
1.59816e+06
1.6501e+06
1.57005e+06
1.56255e+06
1.53802e+06
1.47876e+06
1.36338e+06
1.32006e+06
1.22877e+06
1.23836e+06
1.38532e+06
1.30319e+06
1.54351e+06
764525
750036
750856
710151
696613
683345
680837
683679
687790
690288
685920
676155
663068
644396
654506
663320
675183
668720
666103
673924
660653
673843
666678
658976
651193
662338
667760
673188
697173
706342
716827
729783
737568
743657
752357
745623
741604
739409
724895
730330
719988
713850
690200
691463
673432
703051
682123
705712
706736
712672
691470
663777
640220
640480
624191
628739
624859
621718
619315
619045
607900
607623
605299
601799
623433
626390
635791
672380
665602
687919
701418
710326
721627
742796
741801
746943
741746
740889
698364
686062
718334
727515
724992
706230
691642
668082
643827
641565
627730
631065
631786
646397
655872
685474
688874
708751
693646
679335
646315
643193
626868
637527
649455
645840
657123
647155
670480
687933
727224
820262
895271
845406
1.00836e+06
1.04743e+06
1.01525e+06
943060
863642
828282
771032
754775
701876
703395
639773
637648
638939
625682
635424
624106
630609
615938
611989
586304
574129
558806
557150
601300
614201
648612
672796
694784
705286
718243
683233
661679
694055
694936
692669
690477
688202
685592
681811
680010
671495
667175
660578
666851
667841
675155
678363
662108
637843
615195
580884
559318
526988
572648
540710
649032
677754
684494
733967
757802
798892
895897
946365
944718
974103
986635
955190
925753
847176
798914
777733
707798
730615
675237
692811
650607
664983
648872
652281
645905
658896
653893
684218
690419
711849
731475
726431
747721
738168
771108
788805
780675
788237
744829
699158
607362
595540
582546
600903
575135
607601
592952
637890
624687
662634
655530
691472
720613
707036
729203
729260
727481
725857
752518
779062
784510
754544
753835
781829
809827
805374
814453
777481
766158
725652
663270
721694
769307
853268
887504
844916
840805
792043
779681
787465
805641
812669
768784
783617
712798
689623
607090
590920
560339
567747
564332
572301
572683
583019
595209
602006
606741
604998
602260
597782
591099
585746
576360
600732
563375
631118
619639
638024
645738
658945
656131
689541
704237
729893
748774
763659
777233
788367
789587
789863
769509
741750
722489
678222
662182
614601
622387
650218
696798
702108
813644
848310
893640
946917
988346
1.03858e+06
1.00872e+06
972602
1.0223e+06
1.00696e+06
1.02452e+06
1.04046e+06
1.03586e+06
1.02354e+06
1.00579e+06
992053
917682
810595
779541
676015
617994
612310
639398
611663
663942
642492
710257
717494
793698
840423
865408
877811
891274
907496
881430
893727
887751
901027
907725
882163
877769
880044
877137
877677
862694
821942
740327
732154
677787
689969
680918
723714
723013
780234
790080
835117
814580
806206
836570
891454
863011
859664
843860
840801
874229
872184
875845
813581
761179
728506
697701
1.03052e+06
904480
975407
883842
898470
825991
785476
834431
750887
810650
849205
897744
899320
1.0478e+06
1.03083e+06
1.37392e+06
1.50228e+06
1.55577e+06
1.54541e+06
1.57746e+06
1.52577e+06
1.49942e+06
1.4563e+06
1.37219e+06
1.37646e+06
1.17193e+06
1.22016e+06
1.13178e+06
1.18119e+06
1.02085e+06
1.14662e+06
913114
780047
758604
743697
725756
687344
678208
676507
675884
680963
683205
680829
668772
657585
649685
657666
663335
675909
672637
679306
676284
688264
681990
697314
716706
704294
703512
709072
704745
703588
728299
730757
738340
755416
749526
751048
755636
742747
737964
729645
715516
698930
698021
681172
661432
664473
696546
696401
726282
727518
716621
692291
656572
633563
626815
628013
626417
627446
627982
625976
620541
619931
607112
606483
600860
603808
626433
634721
643481
675585
668274
695782
708894
724123
715779
731053
733195
741052
753402
742758
741637
748445
732358
726963
712382
684525
671593
647702
640713
621120
628416
640384
646296
675304
695407
726794
716194
708835
669268
669387
620683
637545
621501
626388
630885
629824
626407
674085
674702
725828
867789
888034
935884
1.01117e+06
1.00837e+06
975302
917125
871370
837760
782479
791547
702794
713166
637999
659804
633233
647027
641909
651841
643600
645654
605461
603630
563477
572748
564831
548406
583123
605929
635911
658394
670823
682238
678104
662179
675557
675860
677173
675923
676377
675138
674045
663993
659188
652719
657382
664046
671220
681186
685793
681685
646050
642520
609157
613369
594990
592994
555026
651468
639512
702154
753457
776591
844587
901179
934996
969996
986513
972601
953049
883389
843244
775833
733359
736197
694108
701139
676328
662082
670544
661862
655164
658028
653661
670938
665840
699375
695813
717457
730807
709696
725971
692922
710097
687093
677689
694406
609598
593883
597050
580119
566750
586903
573270
605833
594004
635475
624099
666340
654737
661696
710506
700124
708785
706987
720302
740139
783782
787855
806369
759782
780102
837365
870133
853065
812213
769874
742620
744449
779106
785409
867577
840408
847804
782739
780294
773299
776144
763679
748082
775515
722303
718106
664774
624063
583779
590505
546529
560369
552591
565723
574801
588657
598852
602721
602997
599959
593798
590005
591420
581388
582055
596032
604874
625261
623866
634362
651468
660767
662950
697622
714335
733442
753389
767698
776095
776398
763587
754974
729106
704199
673646
657107
665855
666058
683247
694044
720153
819342
833934
886056
935546
979144
1.00957e+06
1.00762e+06
991490
978124
995059
1.00647e+06
1.02797e+06
1.02411e+06
1.02106e+06
1.00037e+06
983303
950677
787151
835454
678885
612170
653629
611620
595594
661254
613903
720862
668454
802848
808059
871296
897274
919639
901394
959641
972793
980060
999953
989537
989353
964463
972702
962509
926193
897351
859212
796940
733648
720918
687156
716535
735823
785955
779337
821357
806432
852930
892019
901902
855997
895366
873955
910521
915147
902002
913031
887937
873092
790368
743836
816945
942133
993881
958748
949359
862400
822739
890290
817005
876406
866264
738571
806339
938938
947557
1.07934e+06
1.39527e+06
1.43527e+06
1.58077e+06
1.56487e+06
1.55904e+06
1.49843e+06
1.50096e+06
1.455e+06
1.40857e+06
1.3834e+06
1.23824e+06
1.26986e+06
1.23873e+06
1.15241e+06
1.17016e+06
959857
1.01381e+06
788380
777574
744278
722961
694565
672875
665414
668767
672117
674348
670963
670774
649678
654393
658648
666377
671239
678468
675745
689294
688915
705838
712466
719272
739051
734015
736102
739670
734118
728386
760425
748155
757653
767398
756599
753890
753580
729568
724171
719980
698526
695534
659765
672429
659602
697910
705753
731184
732990
721801
671652
656550
614284
626287
620225
622265
626544
628865
627005
627069
618076
622495
610369
613861
606149
613010
634741
643183
652689
678898
672612
697531
700298
722827
727202
725168
734553
747674
746490
751910
754727
749204
729345
709371
688480
672634
656184
647820
664878
664848
672517
695773
713809
726132
728588
735707
708549
678592
662401
623494
629326
625867
621470
624539
637240
636372
632607
716060
728890
847302
903464
924095
983110
967527
938110
915338
879778
851103
832018
783020
730659
690367
672082
641310
651817
644806