/*--------------------------------*- C++ -*----------------------------------*\
| =========                 |                                                 |
| \\      /  F ield         | OpenFOAM: The Open Source CFD Toolbox           |
|  \\    /   O peration     | Version:  2.1.1                                 |
|   \\  /    A nd           | Web:      www.OpenFOAM.org                      |
|    \\/     M anipulation  |                                                 |
\*---------------------------------------------------------------------------*/
FoamFile
{
    version     2.0;
    format      ascii;
    class       volVectorField;
    location    "0.003550000";
    object      U;
}
// * * * * * * * * * * * * * * * * * * * * * * * * * * * * * * * * * * * * * //

dimensions      [0 1 -1 0 0 0 0];

internalField   nonuniform List<vector> 
12384
(
(-10.4037 -8.53191 0)
(-6.1726 -9.23846 0)
(-3.74926 -9.13379 0)
(-1.1978 -5.55848 0)
(5.50925 -6.1971 0)
(16.1845 -7.30259 0)
(9.49348 -4.52617 0)
(11.9304 -7.23111 0)
(6.38288 -2.85499 0)
(-2.12587 0.178961 0)
(-15.6123 -2.75319 0)
(-21.632 -0.915245 0)
(-17.5079 -3.09588 0)
(-17.5398 -8.80379 0)
(-3.11618 8.60551 0)
(6.69937 2.49723 0)
(26.9021 -10.4528 0)
(63.7328 -9.87629 0)
(100.094 -17.8145 0)
(141.508 -10.7223 0)
(179.685 -11.5328 0)
(208.39 -4.78996 0)
(236.667 -2.44106 0)
(248.008 3.51951 0)
(262.641 5.18875 0)
(269.111 9.69118 0)
(262.599 5.44321 0)
(261.093 16.5778 0)
(246.783 6.36863 0)
(228.996 18.3302 0)
(222.425 8.47418 0)
(200.632 19.4324 0)
(195.519 11.5361 0)
(176.556 15.6527 0)
(161.19 7.82233 0)
(131.049 10.0856 0)
(108.64 1.14637 0)
(77.5113 3.10413 0)
(66.0956 2.12468 0)
(51.4831 2.0414 0)
(41.8882 5.6733 0)
(31.9608 7.30313 0)
(20.2218 10.6485 0)
(8.37432 9.37513 0)
(-14.1079 11.5519 0)
(-47.668 12.6149 0)
(-66.5206 10.8869 0)
(-79.5365 7.33072 0)
(-89.1765 -11.4353 0)
(-96.4096 -23.8618 0)
(-70.4161 -27.8417 0)
(-43.8793 -48.723 0)
(-21.2934 -30.5047 0)
(24.7942 -35.1431 0)
(42.5258 -14.5145 0)
(55.5846 -14.0596 0)
(57.4412 8.97978 0)
(52.5938 11.12 0)
(43.0854 19.6884 0)
(35.11 22.1612 0)
(10.5132 11.4924 0)
(-10.2973 21.7981 0)
(-39.0443 8.84588 0)
(-106.339 15.2742 0)
(-110.676 7.66661 0)
(-118.165 11.8871 0)
(-105.385 13.3726 0)
(-73.0739 15.348 0)
(-52.2847 14.1295 0)
(-28.9694 19.1108 0)
(-6.68693 8.1973 0)
(-4.59713 16.9645 0)
(-2.67504 12.0216 0)
(0.0550166 22.0814 0)
(14.4071 -1.10819 0)
(54.4615 -1.56892 0)
(93.8817 -1.3998 0)
(135.782 -5.67862 0)
(185.502 -4.90328 0)
(237.816 -13.5434 0)
(294.093 -8.95764 0)
(345.811 -17.7718 0)
(396.93 -4.58872 0)
(461.914 -17.9451 0)
(491.728 -11.996 0)
(512.557 -5.91489 0)
(536.285 -3.78274 0)
(532.782 -1.40799 0)
(530.028 -2.71411 0)
(518.484 -6.37309 0)
(499.619 -8.18622 0)
(482.825 8.65181 0)
(479.721 8.43245 0)
(471.889 19.4616 0)
(456.608 8.13038 0)
(383.701 35.2985 0)
(320.586 25.4703 0)
(130.491 42.6473 0)
(17.4537 11.8916 0)
(-54.1958 2.9618 0)
(-57.9999 -32.2351 0)
(-43.787 -30.6873 0)
(-12.806 -32.1368 0)
(0.919302 -34.7015 0)
(8.73553 -26.9731 0)
(49.653 -24.2831 0)
(71.0314 -43.2409 0)
(110.574 -29.6773 0)
(163.63 -49.3349 0)
(200.686 -40.7828 0)
(266.488 -50.1605 0)
(311.266 -50.2378 0)
(350.207 -41.7919 0)
(389.387 -45.7592 0)
(372.662 -25.4345 0)
(362.519 -34.0767 0)
(282.432 -2.47783 0)
(236.123 -9.47709 0)
(176.785 15.9937 0)
(155.48 9.38131 0)
(125.145 12.0798 0)
(112.682 15.8419 0)
(102.982 16.6178 0)
(90.2288 18.1457 0)
(77.7867 21.9112 0)
(71.3555 22.5747 0)
(70.7142 24.5788 0)
(75.8306 26.3381 0)
(78.4105 27.7967 0)
(74.3213 30.7921 0)
(56.6796 29.8859 0)
(34.9727 31.2801 0)
(14.3987 30.1325 0)
(1.13319 33.8115 0)
(8.86408 -15.2872 0)
(-0.369612 -9.57883 0)
(-2.92877 -2.00697 0)
(-9.72223 -3.65315 0)
(-8.1139 3.68383 0)
(4.46106 0.971334 0)
(21.2635 -3.62315 0)
(60.1291 -6.43383 0)
(105.687 -13.4977 0)
(159.558 -15.584 0)
(222.687 -20.0311 0)
(287.577 -20.5884 0)
(347.898 -25.0588 0)
(414.461 -19.6962 0)
(484.553 -28.2329 0)
(539.508 -18.6373 0)
(619.845 -29.0298 0)
(638.459 -11.6667 0)
(709.252 -15.7729 0)
(687.535 10.7023 0)
(745.032 -22.9335 0)
(590.834 28.6617 0)
(650.61 2.88793 0)
(313.962 51.1559 0)
(221.683 60.5077 0)
(78.8346 63.9612 0)
(3.42164 49.2391 0)
(-36.4098 32.3825 0)
(-37.9035 25.4608 0)
(-17.0069 20.3065 0)
(22.9933 -1.39494 0)
(73.4012 0.378479 0)
(76.7034 6.94681 0)
(57.9035 11.0095 0)
(-26.2059 10.0782 0)
(-57.8786 15.1396 0)
(-109.822 16.883 0)
(-127.876 19.4825 0)
(-157.198 18.5166 0)
(-181.715 17.0416 0)
(-213.318 4.04279 0)
(-217.076 9.69818 0)
(-214.343 -3.77442 0)
(-210.985 4.25217 0)
(-187.882 -9.39236 0)
(-170.17 -7.33335 0)
(-137.335 -8.2404 0)
(-107.092 -16.5677 0)
(-65.9886 -13.6837 0)
(-24.8161 -10.7409 0)
(1.6217 -20.6658 0)
(35.8339 2.03455 0)
(41.7672 -10.2829 0)
(33.2274 9.70353 0)
(33.4234 12.4919 0)
(12.9155 13.4795 0)
(-0.0261464 16.3511 0)
(-7.79903 24.2303 0)
(-22.7033 10.2756 0)
(-21.1743 22.2814 0)
(9.49671 23.711 0)
(-13.3909 -9.43606 0)
(-9.97419 13.4112 0)
(1.41435 -15.6483 0)
(7.49149 24.2866 0)
(24.4002 0.886583 0)
(29.6297 32.8903 0)
(33.9526 18.4641 0)
(43.6174 24.0454 0)
(52.1423 23.2526 0)
(60.2916 19.8835 0)
(73.9611 22.0612 0)
(72.0527 27.3051 0)
(51.5536 26.3541 0)
(16.885 33.6566 0)
(-29.0211 35.9893 0)
(-72.8691 15.1713 0)
(-83.5886 8.49163 0)
(-90.033 -39.0814 0)
(-140.604 -20.0381 0)
(-271.355 -40.0444 0)
(-246.127 -20.82 0)
(-166.312 -39.7731 0)
(-97.5725 -17.2221 0)
(-36.4302 -31.9081 0)
(-11.5986 -31.1087 0)
(4.57161 -20.5915 0)
(24.0058 -1.62914 0)
(14.8563 -9.28442 0)
(0.482291 12.6237 0)
(-4.05591 -11.5191 0)
(-54.1103 -60.8033 0)
(-126.85 -5.14605 0)
(-122.775 7.23427 0)
(-86.6874 -10.4757 0)
(-117.162 -60.8747 0)
(-160.312 -16.4659 0)
(-183.247 7.4092 0)
(-187.199 28.9171 0)
(-260.333 -5.85158 0)
(-308.199 28.6606 0)
(-440.331 -15.8445 0)
(-440.708 9.72579 0)
(-456.604 -14.7821 0)
(-453.511 -1.86454 0)
(-438.892 -9.87674 0)
(-424.627 -11.8853 0)
(-407.473 -12.833 0)
(-385.077 -12.8736 0)
(-353.498 -12.6184 0)
(-315.586 -13.1475 0)
(-270.059 -15.9058 0)
(-220.906 -20.6886 0)
(-173.903 -22.9946 0)
(-130.201 -22.9522 0)
(-93.4447 -22.3854 0)
(-62.3598 -22.3235 0)
(-39.3326 -17.5284 0)
(-20.2981 -15.0573 0)
(-5.01111 -7.32718 0)
(8.73377 -3.73888 0)
(30.0696 -8.07568 0)
(18.2599 -5.18667 0)
(-4.61542 2.01455 0)
(-30.8653 -6.8053 0)
(-92.5396 -16.9742 0)
(-131.014 -11.8052 0)
(-166.11 -20.2353 0)
(-190.485 -19.8246 0)
(-204.414 -11.1092 0)
(-224.587 -6.35489 0)
(-251.687 -3.98566 0)
(-287.874 -6.25689 0)
(-347.359 -14.37 0)
(-403.345 -7.50096 0)
(-434.311 2.73793 0)
(-484.089 4.5176 0)
(-553.719 -2.36936 0)
(-611.86 5.08723 0)
(-660.165 2.76138 0)
(-682.777 8.44568 0)
(-627.276 20.8429 0)
(-552.703 11.1961 0)
(-497.748 2.18336 0)
(-415.986 -0.218664 0)
(-326.487 -4.45032 0)
(-243.101 -10.0515 0)
(-163.533 -13.9254 0)
(-91.7342 -11.5407 0)
(-29.636 -6.40279 0)
(5.51098 12.6882 0)
(-8.67895 5.48264 0)
(-13.3076 11.713 0)
(-24.1219 7.26209 0)
(-37.8345 22.8845 0)
(-53.7886 16.7901 0)
(-64.3363 42.0652 0)
(-87.039 16.3578 0)
(-76.3149 39.4136 0)
(-63.3306 19.9917 0)
(-63.8147 19.1175 0)
(-54.7496 -19.7636 0)
(-93.2865 18.0593 0)
(-390.929 -27.3411 0)
(-443.888 6.48604 0)
(-393.125 -6.26679 0)
(-353.792 -5.99745 0)
(-282.62 -5.40241 0)
(-206.336 -5.76111 0)
(-134.749 -12.0602 0)
(-65.0201 -17.7434 0)
(-16.2163 -21.1295 0)
(16.9905 -28.4665 0)
(45.8687 -27.343 0)
(63.2279 -36.817 0)
(67.0623 -36.0096 0)
(73.8463 -38.1765 0)
(63.0323 -34.9156 0)
(42.6482 -37.3852 0)
(16.5269 -27.5904 0)
(-45.3785 -0.87568 0)
(-116.122 11.9186 0)
(-243.933 14.8499 0)
(-344.315 30.8024 0)
(-384.472 33.9028 0)
(-384.207 35.672 0)
(-350.582 36.1393 0)
(-319.179 31.9261 0)
(-299.657 31.1358 0)
(-345.865 4.38237 0)
(-322.258 39.2403 0)
(-507.063 -7.20267 0)
(-468.907 35.3349 0)
(-475.603 -14.4548 0)
(-440.922 9.48833 0)
(-397.242 -3.39893 0)
(-343.396 5.56284 0)
(-306.293 -3.30292 0)
(-270.341 5.40634 0)
(-240.172 -2.12301 0)
(-217.345 2.86349 0)
(-188.454 -3.43733 0)
(-156.924 -5.71265 0)
(-125.605 -4.31962 0)
(-89.8808 -5.95577 0)
(-56.2884 -12.5027 0)
(-34.4072 -9.39311 0)
(-17.501 -9.34353 0)
(-3.5412 -14.4549 0)
(-3.07397 -11.9087 0)
(-315.328 2.7629 0)
(-465.737 -13.5181 0)
(-462.178 30.0236 0)
(-473.866 1.78455 0)
(-403.609 33.266 0)
(-449.452 11.319 0)
(-408.93 26.4083 0)
(-454.132 2.15283 0)
(-452.068 15.0567 0)
(-416.11 4.85095 0)
(-392.304 2.52592 0)
(-357.6 -7.07043 0)
(-313.914 -6.69248 0)
(-265.02 -8.68535 0)
(-228.628 -15.7275 0)
(-187.219 -7.54316 0)
(-171.363 -8.74383 0)
(-123.713 22.6557 0)
(-70.2224 -13.5758 0)
(-54.7459 7.2796 0)
(-224.71 -74.2006 0)
(-435.031 -82.4463 0)
(-544.746 -101.093 0)
(-491.175 -19.8979 0)
(-420.745 -14.96 0)
(-323.968 0.405462 0)
(-240.286 11.2779 0)
(-166.756 18.9584 0)
(-98.3474 30.3918 0)
(-33.8128 25.5279 0)
(-4.29464 -17.201 0)
(-4.11919 -20.5276 0)
(-5.23941 -17.3943 0)
(-3.46611 -14.1522 0)
(-1.36334 -9.51978 0)
(3.95894 -16.3067 0)
(8.19223 -9.56028 0)
(10.3895 -14.4955 0)
(13.8274 -11.8292 0)
(2.11885 -7.06659 0)
(-0.940382 -11.2158 0)
(-0.576247 -1.47171 0)
(-5.70365 -13.7839 0)
(-8.12463 -16.644 0)
(-1.41512 25.5535 0)
(9.10968 -1.77779 0)
(36.2461 -30.1374 0)
(79.5998 -39.4281 0)
(123.541 -46.9236 0)
(169.027 -36.9953 0)
(206.801 -32.0585 0)
(235.7 -16.6598 0)
(265.207 -6.71064 0)
(274.439 7.16311 0)
(285.287 14.0696 0)
(288.941 23.8825 0)
(278.954 20.2334 0)
(280.279 34.9615 0)
(254.843 24.0705 0)
(245.732 41.605 0)
(233.838 29.0226 0)
(222.232 46.9363 0)
(215.948 36.6815 0)
(200.046 42.5511 0)
(185.67 27.5167 0)
(151.227 25.8788 0)
(119.19 9.5762 0)
(88.7241 10.9704 0)
(69.685 7.62842 0)
(57.0865 9.49118 0)
(48.8109 17.7407 0)
(39.7296 25.5686 0)
(26.4854 32.9892 0)
(9.60949 34.5592 0)
(-11.9201 46.4333 0)
(-33.5396 38.6095 0)
(-38.7226 27.2727 0)
(-54.8435 -5.39493 0)
(-52.4685 -34.5977 0)
(-40.6123 -86.1273 0)
(-36.7578 -93.9951 0)
(1.48868 -117.515 0)
(34.2957 -84.914 0)
(55.8801 -68.7026 0)
(73.3959 -36.1717 0)
(79.6894 -8.46668 0)
(78.1153 27.7481 0)
(78.1542 39.6123 0)
(73.9244 51.7029 0)
(66.0629 61.9838 0)
(41.9956 37.1075 0)
(36.551 59.1338 0)
(-10.7099 28.3856 0)
(-77.8174 40.3153 0)
(-92.3836 33.9236 0)
(-101.505 37.5669 0)
(-90.9994 43.0483 0)
(-67.4953 44.6936 0)
(-44.6496 41.4139 0)
(-30.688 49.1352 0)
(-10.1687 32.8631 0)
(-3.88898 38.6436 0)
(4.13173 41.5464 0)
(11.3945 48.5997 0)
(14.677 4.94099 0)
(50.3357 -0.805277 0)
(89.8826 -7.49828 0)
(135.892 -17.9575 0)
(180.922 -23.6843 0)
(231.779 -38.6235 0)
(286.817 -28.155 0)
(344.533 -49.7299 0)
(398.819 -29.2369 0)
(443.519 -41.224 0)
(499.547 -31.0539 0)
(520.631 -28.5562 0)
(537.746 -25.6564 0)
(534.646 -24.3268 0)
(522.917 -13.0265 0)
(512.366 -2.70344 0)
(507.065 1.32336 0)
(503.299 5.25299 0)
(478.074 10.5134 0)
(470.648 21.5439 0)
(450.133 12.991 0)
(401.154 45.0501 0)
(330.687 23.7786 0)
(244.467 42.6543 0)
(165.275 23.4558 0)
(86.0446 1.89393 0)
(38.5309 -52.9868 0)
(15.843 -72.0017 0)
(4.95582 -68.5453 0)
(3.9976 -60.5968 0)
(18.3014 -64.5639 0)
(44.1956 -86.997 0)
(73.9861 -94.2533 0)
(102.678 -104.846 0)
(143.972 -113.163 0)
(185.243 -123.105 0)
(220.261 -123.727 0)
(272.173 -121.984 0)
(295.968 -105.058 0)
(322.937 -102.11 0)
(309.67 -62.2631 0)
(307.137 -62.8949 0)
(259.179 -7.95132 0)
(214.047 -2.41386 0)
(185.508 16.2502 0)
(145.684 25.8542 0)
(135.354 41.0214 0)
(126.017 42.8537 0)
(113.579 50.6302 0)
(106.191 52.8842 0)
(95.3546 60.9893 0)
(88.3968 68.8387 0)
(89.5183 73.051 0)
(94.6224 75.794 0)
(95.5129 80.6151 0)
(94.854 88.7182 0)
(77.0979 89.4686 0)
(53.9717 96.7508 0)
(40.1244 88.0254 0)
(11.1783 84.9689 0)
(1.03391 -5.72151 0)
(-11.7545 -1.58796 0)
(-18.9357 13.6912 0)
(-25.3433 -1.00759 0)
(-23.4648 8.49942 0)
(-7.47985 -8.40005 0)
(20.8139 -15.2912 0)
(61.2659 -24.6091 0)
(105.007 -34.8801 0)
(151.933 -42.72 0)
(201.504 -49.491 0)
(255.588 -57.0975 0)
(312.275 -68.4162 0)
(376.33 -68.3685 0)
(439.048 -82.1471 0)
(503.919 -69.3905 0)
(569.973 -81.5723 0)
(621.714 -32.7462 0)
(669.092 -52.8308 0)
(679.038 -5.20041 0)
(674.697 -7.95644 0)
(641.532 58.6702 0)
(575.371 40.9113 0)
(346.473 134.235 0)
(273.116 158.256 0)
(160.689 185.075 0)
(84.7402 160.644 0)
(25.2222 115.962 0)
(-2.72738 88.2226 0)
(-2.83784 71.9092 0)
(27.4176 9.64175 0)
(72.8194 15.0793 0)
(73.6122 26.7076 0)
(53.7931 41.0352 0)
(-45.4335 31.9486 0)
(-89.1228 53.3076 0)
(-138.209 51.7521 0)
(-169.457 60.8489 0)
(-197.309 52.4038 0)
(-211.258 49.5067 0)
(-238.144 23.1633 0)
(-257.727 26.707 0)
(-253.804 5.95199 0)
(-259.744 4.84321 0)
(-235.346 -11.1586 0)
(-208.196 -23.1902 0)
(-184.936 -29.0266 0)
(-148.61 -34.4 0)
(-93.424 -38.564 0)
(-61.2874 -32.0861 0)
(-15.8641 -42.6069 0)
(25.9751 -5.9583 0)
(22.3355 -4.0159 0)
(32.1693 18.0403 0)
(22.3415 39.5671 0)
(-7.22515 31.3681 0)
(-9.84521 54.259 0)
(-22.0235 49.3928 0)
(-16.8144 44.9426 0)
(-3.97933 36.0089 0)
(-10.5569 30.8506 0)
(-23.0827 -2.23933 0)
(-16.8012 5.34548 0)
(5.90879 -0.710228 0)
(24.6916 22.3452 0)
(46.4564 31.037 0)
(52.8408 59.6872 0)
(46.4809 69.9003 0)
(43.0878 74.3404 0)
(35.6354 76.2585 0)
(32.4376 62.8275 0)
(30.8037 67.7822 0)
(23.1051 73.5403 0)
(-1.2059 82.9932 0)
(-39.6152 86.4134 0)
(-79.6811 70.8994 0)
(-94.9079 29.1086 0)
(-82.4394 2.47505 0)
(-95.0502 -105.702 0)
(-148.947 -93.2313 0)
(-287.091 -135.09 0)
(-304.461 -126.129 0)
(-199.661 -115.184 0)
(-117.997 -105.509 0)
(-56.7725 -85.3352 0)
(3.9165 -70.6311 0)
(40.1475 -47.9825 0)
(30.226 -45.8694 0)
(18.6693 -38.0337 0)
(22.2901 -1.47977 0)
(-39.481 -31.061 0)
(-66.7261 -30.3972 0)
(-97.7621 -62.9337 0)
(-188.139 -74.0139 0)
(-230.673 -69.5085 0)
(-216.987 -64.8239 0)
(-198.761 -24.7051 0)
(-209.654 -8.67439 0)
(-231.818 2.17117 0)
(-251.957 -15.6333 0)
(-283.067 2.80218 0)
(-397.837 -6.13686 0)
(-433.686 -4.36969 0)
(-421.564 -10.6604 0)
(-423.482 -12.5806 0)
(-414.747 -17.7702 0)
(-402.608 -26.0925 0)
(-385.39 -29.5866 0)
(-362.513 -34.0108 0)
(-333.652 -36.4245 0)
(-297.498 -38.5852 0)
(-258.141 -41.6518 0)
(-217.369 -51.6256 0)
(-178.489 -66.4939 0)
(-141.88 -70.9256 0)
(-105.665 -66.4147 0)
(-76.1306 -63.5706 0)
(-51.4308 -50.36 0)
(-25.8328 -37.7763 0)
(-7.11569 -6.36885 0)
(12.9357 11.5716 0)
(27.4134 0.0788441 0)
(35.2602 9.71853 0)
(10.5393 -7.46042 0)
(-41.2938 -3.54413 0)
(-81.4461 -14.9802 0)
(-140.986 -12.6596 0)
(-184.279 -29.0885 0)
(-207.421 -34.8605 0)
(-227.775 -30.9483 0)
(-247.85 -29.6846 0)
(-266.63 -29.1525 0)
(-304.088 -41.2993 0)
(-345.131 -45.9656 0)
(-394.137 -32.3378 0)
(-449.742 -20.4707 0)
(-499.032 0.157407 0)
(-538.02 13.313 0)
(-581.558 23.1311 0)
(-617.805 45.6973 0)
(-591.213 42.9088 0)
(-560.9 61.0091 0)
(-515.453 34.6417 0)
(-440.326 19.6821 0)
(-361.356 13.5038 0)
(-288.743 -3.69121 0)
(-219.53 -20.7531 0)
(-152.815 -30.3728 0)
(-86.6737 -29.861 0)
(-27.5985 -19.2183 0)
(6.41981 27.7374 0)
(-2.06015 11.9141 0)
(-10.7784 20.7927 0)
(-22.5113 30.154 0)
(-41.0929 43.5532 0)
(-50.0838 61.0577 0)
(-61.2232 87.4594 0)
(-72.5024 69.516 0)
(-83.0912 88.4998 0)
(-66.7431 76.2726 0)
(-48.4877 50.1647 0)
(-53.7171 4.99672 0)
(-89.7665 -17.7879 0)
(-303.146 -57.7726 0)
(-399.765 -23.4925 0)
(-354.477 -25.9116 0)
(-299.657 -16.7366 0)
(-232.139 -21.3715 0)
(-165.173 -20.6957 0)
(-103.698 -38.0835 0)
(-51.0498 -50.7764 0)
(-11.3396 -63.3367 0)
(21.9136 -76.9226 0)
(46.6627 -81.5964 0)
(58.322 -110.94 0)
(72.2466 -98.7118 0)
(76.7781 -112.647 0)
(66.5517 -107.55 0)
(49.1743 -114.659 0)
(17.0358 -113.426 0)
(-15.7283 22.4326 0)
(-103.739 44.2878 0)
(-229.671 55.6101 0)
(-317.45 89.6146 0)
(-358.312 92.4751 0)
(-360.572 97.1784 0)
(-334.219 110.106 0)
(-287.806 98.8539 0)
(-273.271 87.7431 0)
(-282.347 49.7368 0)
(-305.433 79.7723 0)
(-440.389 -3.76748 0)
(-469.325 34.8447 0)
(-411.085 -13.9283 0)
(-364.522 0.391762 0)
(-310.508 -8.86143 0)
(-260.092 -4.46676 0)
(-215.786 -8.4502 0)
(-178.626 0.147763 0)
(-151.825 2.89984 0)
(-133.195 5.41053 0)
(-112.426 3.83524 0)
(-95.4007 2.67053 0)
(-77.8654 -0.547812 0)
(-60.8295 -9.8818 0)
(-45.9262 -15.6274 0)
(-31.4081 -20.0718 0)
(-19.3511 -24.0941 0)
(-14.2589 -34.3238 0)
(-7.8892 -34.0221 0)
(-340.035 3.16962 0)
(-437.828 37.836 0)
(-472.555 60.9448 0)
(-448.943 41.7247 0)
(-419.943 93.6332 0)
(-451.807 43.5151 0)
(-446.472 73.1604 0)
(-467.325 18.6414 0)
(-445.303 39.5486 0)
(-411.772 6.99175 0)
(-377.053 -8.41108 0)
(-327.685 -20.5207 0)
(-272.033 -20.9207 0)
(-224.785 -29.751 0)
(-173.428 -34.669 0)
(-123.906 -25.901 0)
(-77.8366 -39.0921 0)
(-63.4788 1.28702 0)
(-71.1967 -61.5092 0)
(-93.0615 -119.075 0)
(-154.491 -256.876 0)
(-248.256 -257.472 0)
(-256.766 -170.253 0)
(-278.483 -67.4885 0)
(-278.834 26.623 0)
(-228.143 52.4297 0)
(-183.831 69.7657 0)
(-135.994 89.5415 0)
(-89.267 109.911 0)
(-31.1448 97.6759 0)
(-2.49894 -33.5676 0)
(3.04035 -34.2581 0)
(2.59453 -35.9441 0)
(0.535491 -22.2115 0)
(-6.27629 -27.1266 0)
(-1.28012 -20.2146 0)
(-0.0372141 -22.7742 0)
(1.25988 -25.8607 0)
(11.4911 -20.7188 0)
(2.58876 -29.3504 0)
(4.88617 -8.95491 0)
(3.52722 -20.6983 0)
(-0.0873803 -12.7235 0)
(0.484038 -25.6206 0)
(-4.84789 32.4925 0)
(9.8805 -18.8317 0)
(44.1193 -61.542 0)
(89.4714 -77.8772 0)
(130.845 -82.5584 0)
(172.573 -67.0782 0)
(210.362 -56.5081 0)
(238.835 -30.3052 0)
(268.433 -13.0358 0)
(274.17 7.34669 0)
(282.09 27.3749 0)
(285.844 32.9353 0)
(274.297 46.6052 0)
(273.025 44.4484 0)
(248.047 45.685 0)
(242.319 58.3108 0)
(228.943 51.5069 0)
(220.671 69.6401 0)
(213.683 59.7879 0)
(202.916 63.5093 0)
(186.603 45.1585 0)
(152.376 38.8926 0)
(121.869 20.8296 0)
(86.7783 20.618 0)
(70.7955 15.4097 0)
(58.8924 20.4672 0)
(51.9695 31.6539 0)
(44.9626 43.285 0)
(31.8955 55.1512 0)
(13.6787 59.9752 0)
(-10.0413 61.1 0)
(-19.0103 47.0706 0)
(-22.1084 9.20371 0)
(-34.7857 -44.096 0)
(-30.7511 -83.4612 0)
(-24.6548 -138.709 0)
(1.26289 -144.601 0)
(26.5697 -143.575 0)
(50.9928 -118.558 0)
(72.8265 -95.6775 0)
(81.6157 -41.4393 0)
(90.0086 -11.0732 0)
(88.3298 31.7102 0)
(81.551 57.9861 0)
(83.838 71.7088 0)
(77.3951 81.4992 0)
(57.9636 65.3228 0)
(51.1142 84.3675 0)
(4.19441 46.6018 0)
(-46.6121 76.0323 0)
(-67.0271 59.9466 0)
(-86.0055 68.197 0)
(-78.3657 75.7563 0)
(-60.8263 75.0521 0)
(-39.579 74.2642 0)
(-27.8796 77.5678 0)
(-14.1728 67.2434 0)
(0.570128 63.9635 0)
(0.816257 70.2027 0)
(1.71785 74.612 0)
(16.5201 2.5019 0)
(49.6083 -8.31813 0)
(82.512 -19.683 0)
(120.82 -42.1837 0)
(165.029 -52.5144 0)
(230.769 -71.4474 0)
(283.854 -71.6419 0)
(348.916 -87.9599 0)
(415.332 -76.0122 0)
(452.438 -69.6254 0)
(506.272 -65.1 0)
(513.128 -53.0848 0)
(536.102 -42.2606 0)
(535.759 -32.2793 0)
(554.34 -24.201 0)
(529.829 -14.7528 0)
(490.966 -7.05819 0)
(463.557 5.01559 0)
(466.003 9.27887 0)
(457.316 18.4398 0)
(420.565 0.752206 0)
(350.39 0.955959 0)
(295.018 7.63305 0)
(235.287 44.758 0)
(186.569 56.8672 0)
(127.048 28.8179 0)
(74.0059 -44.273 0)
(35.9902 -85.1033 0)
(19.9772 -98.0159 0)
(3.55817 -81.8871 0)
(5.51716 -117.187 0)
(38.7373 -138.909 0)
(57.7393 -140.649 0)
(70.9477 -156.462 0)
(90.5348 -163.22 0)
(96.4327 -166.573 0)
(128.069 -164.641 0)
(149.465 -159.698 0)
(169.382 -138.994 0)
(185.31 -142.973 0)
(180.239 -96.5259 0)
(181.669 -74.3168 0)
(167.05 -51.4247 0)
(132.33 -4.7294 0)
(117.836 7.82717 0)
(122.909 26.832 0)
(108.524 44.2428 0)
(103.091 60.536 0)
(106.673 68.379 0)
(100.302 84.0909 0)
(98.2968 90.5758 0)
(94.2306 102.924 0)
(88.2383 115.176 0)
(90.1676 122.119 0)
(92.7694 131.967 0)
(89.2992 144.534 0)
(76.481 153.747 0)
(58.3468 161.031 0)
(27.3739 146.251 0)
(4.8201 148.375 0)
(-11.4977 -10.537 0)
(-39.2264 -8.20788 0)
(-58.9115 8.44551 0)
(-70.5825 -10.6276 0)
(-61.8173 -8.03577 0)
(-39.7348 -24.3848 0)
(-8.7039 -32.0237 0)
(23.6588 -39.5391 0)
(54.6524 -47.6503 0)
(87.3259 -55.6416 0)
(125.458 -65.5448 0)
(167.611 -82.1359 0)
(218.333 -102.006 0)
(283.731 -118.76 0)
(350.95 -135.138 0)
(410.515 -129.428 0)
(499.111 -119.885 0)
(538.539 -89.0002 0)
(568.288 -82.4438 0)
(613.081 -26.2109 0)
(614.002 -0.037641 0)
(555.348 51.1493 0)
(552.759 73.428 0)
(283.667 169.365 0)
(238.633 226.424 0)
(165.933 285.056 0)
(113.656 283.21 0)
(56.383 223.121 0)
(18.1059 170.956 0)
(2.51004 146.832 0)
(31.0806 9.40623 0)
(70.511 28.1215 0)
(65.5704 58.8493 0)
(35.8502 75.1514 0)
(-67.715 67.0951 0)
(-114.79 99.934 0)
(-168.448 91.0585 0)
(-206.996 101.972 0)
(-238.141 75.5105 0)
(-247.688 77.8953 0)
(-291.618 44.752 0)
(-293.737 44.985 0)
(-297.701 14.3252 0)
(-295.862 1.81403 0)
(-274.668 -17.1702 0)
(-246.458 -39.994 0)
(-206.2 -53.3696 0)
(-174.895 -60.0464 0)
(-123.925 -69.6637 0)
(-83.7093 -68.8768 0)
(-51.1258 -56.3487 0)
(-4.60003 -34.0115 0)
(-7.12659 -3.79649 0)
(9.47781 28.49 0)
(-6.83216 55.3539 0)
(-27.2807 65.8612 0)
(-32.3377 81.3382 0)
(-27.9853 83.5084 0)
(-23.207 79.2243 0)
(-14.6396 60.5777 0)
(-8.69534 37.9115 0)
(-23.7957 -6.80074 0)
(-6.0374 -26.8585 0)
(20.4691 -13.32 0)
(42.5018 2.77652 0)
(60.4363 43.3485 0)
(56.8816 85.1062 0)
(57.0428 112.234 0)
(38.029 122.805 0)
(22.8232 131.138 0)
(5.74041 112.18 0)
(-3.88819 110.987 0)
(-14.5517 122.783 0)
(-41.0178 134.286 0)
(-82.6854 127.425 0)
(-111.459 101.38 0)
(-125.972 47.0149 0)
(-125.302 -17.1604 0)
(-153.696 -140.782 0)
(-214.707 -184.997 0)
(-380.391 -255.845 0)
(-353.691 -269.942 0)
(-264.438 -280.031 0)
(-175.713 -252.372 0)
(-83.8251 -217.001 0)
(-31.5852 -157.394 0)
(-13.5806 -143.276 0)
(11.2097 -140.678 0)
(43.7463 -107.157 0)
(11.3645 -85.5842 0)
(-56.8063 -111.109 0)
(-176.151 -95.7089 0)
(-220.354 -99.5994 0)
(-187.481 -120.136 0)
(-194.307 -85.5325 0)
(-220.938 -59.7762 0)
(-226.104 -31.5638 0)
(-203.686 -22.2467 0)
(-191.825 -21.4298 0)
(-236.309 -24.4321 0)
(-259.589 -33.1411 0)
(-435.49 1.71886 0)
(-440.639 -10.3306 0)
(-458.823 6.43545 0)
(-466.891 -19.1441 0)
(-448.198 -26.578 0)
(-433.952 -45.8843 0)
(-417.376 -64.1618 0)
(-393.193 -72.5561 0)
(-359.351 -83.0125 0)
(-320.863 -93.7504 0)
(-278.193 -99.9643 0)
(-229.085 -101.302 0)
(-166.409 -97.8403 0)
(-106.561 -101.929 0)
(-69.2971 -99.9048 0)
(-57.5294 -105.481 0)
(-50.4992 -92.6981 0)
(-30.4263 -77.9731 0)
(-10.2032 -50.2674 0)
(9.92317 19.4557 0)
(33.3242 9.78637 0)
(27.0297 6.65857 0)
(9.57233 -14.1871 0)
(-16.3768 -4.46022 0)
(-72.2616 6.48125 0)
(-130.044 -15.9645 0)
(-170.29 -11.4226 0)
(-192.293 -25.2253 0)
(-216.292 -30.118 0)
(-241.281 -33.5776 0)
(-277.428 -44.3729 0)
(-305.564 -47.8319 0)
(-332.252 -45.5838 0)
(-374.087 -31.5416 0)
(-433.386 -13.2695 0)
(-519.994 8.99624 0)
(-627.367 44.5726 0)
(-660.87 54.8019 0)
(-736.855 119.346 0)
(-742.651 82.2052 0)
(-697.145 61.1429 0)
(-620.282 56.7888 0)
(-510.754 29.5413 0)
(-408.244 15.4816 0)
(-316.141 -6.84609 0)
(-231.728 -26.7562 0)
(-158.649 -40.0693 0)
(-92.7515 -41.6749 0)
(-30.5885 -31.8759 0)
(3.47824 26.2688 0)
(5.26342 24.8753 0)
(11.0068 20.4441 0)
(2.32972 56.1527 0)
(-1.67182 62.5289 0)
(-18.9479 105.247 0)
(-25.9782 117.727 0)
(-36.5373 128.789 0)
(-46.297 121.107 0)
(-48.2265 127.437 0)
(-46.0703 81.3773 0)
(-41.871 44.0758 0)
(-95.1053 -9.6846 0)
(-347.95 -66.888 0)
(-427.068 -21.5502 0)
(-375.776 -37.1562 0)
(-339.283 -47.9585 0)
(-260.138 -43.3049 0)
(-178.153 -62.737 0)
(-97.9008 -70.7585 0)
(-30.2204 -84.4578 0)
(21.1421 -104.829 0)
(45.1773 -124.843 0)
(44.2277 -148.23 0)
(54.7322 -158.254 0)
(64.5755 -145.409 0)
(65.738 -163.869 0)
(60.37 -159.019 0)
(34.4639 -176.069 0)
(6.58657 -179.732 0)
(-20.5658 51.8845 0)
(-113.557 38.6128 0)
(-177.734 110.304 0)
(-267.643 111.518 0)
(-336.979 152.895 0)
(-340.945 147.152 0)
(-338.359 172.245 0)
(-329.106 165.671 0)
(-299.782 138.402 0)
(-335.113 109.273 0)
(-367.215 104.206 0)
(-556.208 -22.8473 0)
(-475.883 24.2004 0)
(-448.734 -27.1372 0)
(-380.431 -25.9187 0)
(-308.121 -26.1371 0)
(-236.166 -27.1151 0)
(-180.891 -23.2438 0)
(-132.304 -15.9015 0)
(-92.789 -8.99364 0)
(-68.8953 0.00273504 0)
(-46.2 7.78545 0)
(-31.3428 9.9859 0)
(-16.8139 6.06709 0)
(-5.43547 -1.15758 0)
(-2.57147 -8.13331 0)
(-5.59951 -15.4997 0)
(-8.47482 -26.9839 0)
(-12.4899 -32.2649 0)
(-6.44982 -36.6084 0)
(-166.165 -12.0654 0)
(-403.3 38.2991 0)
(-480.769 87.0096 0)
(-474.854 119.836 0)
(-489.052 130.516 0)
(-518.448 115.645 0)
(-516.891 117.773 0)
(-537.154 59.1764 0)
(-509.713 58.1344 0)
(-467.561 6.65896 0)
(-407.21 -7.48175 0)
(-332.587 -24.9113 0)
(-265.28 -35.3211 0)
(-194.75 -41.0904 0)
(-124.314 -33.6659 0)
(-73.6858 -41.981 0)
(-26.788 -33.0533 0)
(-7.24377 -65.8172 0)
(-46.5685 -115.233 0)
(-132.449 -230.53 0)
(-178.606 -280.647 0)
(-150.979 -255.49 0)
(-145.058 -194.119 0)
(-162.189 -102.413 0)
(-188.876 -3.2854 0)
(-193.337 69.681 0)
(-136.443 100.871 0)
(-92.0909 117.853 0)
(-64.4538 147.374 0)
(-27.9149 164.398 0)
(4.77625 -52.5899 0)
(7.11005 -54.7931 0)
(4.07416 -46.4716 0)
(-7.06276 -40.5737 0)
(-9.86302 -34.0616 0)
(-11.3428 -31.6799 0)
(-11.8143 -33.5427 0)
(-7.86525 -33.4509 0)
(-6.97563 -40.324 0)
(2.52852 -44.9186 0)
(-1.77369 -30.5806 0)
(7.0715 -39.3431 0)
(4.98319 -25.8738 0)
(-3.94407 -33.5178 0)
(1.30288 36.4144 0)
(21.449 -38.7598 0)
(58.6264 -99.8635 0)
(92.8284 -117.786 0)
(131.447 -117.745 0)
(166.943 -99.4235 0)
(196.443 -77.7266 0)
(225.112 -43.8632 0)
(240.062 -17.5868 0)
(253.182 6.69461 0)
(259.872 38.6614 0)
(255.927 40.1718 0)
(249.432 61.8593 0)
(240.698 59.7998 0)
(228.263 69.713 0)
(220.072 73.3176 0)
(208.868 79.1218 0)
(207.264 85.5728 0)
(194.062 80.7095 0)
(192.127 76.6939 0)
(174.897 59.4154 0)
(148.794 49.7214 0)
(118.826 33.2486 0)
(86.2674 26.9482 0)
(63.9925 27.9276 0)
(57.5641 29.0706 0)
(56.4526 42.5886 0)
(57.0125 54.47 0)
(45.4483 73.3917 0)
(17.7456 91.5143 0)
(7.86607 69.1495 0)
(6.72297 40.7496 0)
(-3.62489 -21.4648 0)
(-20.0056 -84.6618 0)
(-21.6989 -140.9 0)
(-15.4224 -165.218 0)
(-6.99414 -163.731 0)
(12.4226 -148.323 0)
(28.5851 -122.796 0)
(46.0223 -96.5664 0)
(58.6231 -56.4802 0)
(62.7829 -4.97762 0)
(70.9915 25.0596 0)
(70.0364 64.0651 0)
(71.9276 83.631 0)
(66.5204 88.8705 0)
(71.4048 89.8597 0)
(57.4909 96.4044 0)
(19.994 73.0791 0)
(-12.0982 93.4172 0)
(-43.4672 95.5775 0)
(-59.6308 90.5822 0)
(-61.6052 109.996 0)
(-55.3344 106.676 0)
(-43.5615 109.823 0)
(-32.2089 106.839 0)
(-20.0823 102.058 0)
(-7.67265 93.0169 0)
(-0.155715 97.5443 0)
(8.57521 108.469 0)
(6.61587 -0.46707 0)
(30.432 -19.8506 0)
(55.9168 -44.835 0)
(96.9772 -75.0387 0)
(152.328 -97.1785 0)
(210.759 -125.315 0)
(265.579 -138.291 0)
(321.68 -140.421 0)
(389.659 -134.008 0)
(425.631 -124.836 0)
(475.573 -113.784 0)
(495.752 -98.1312 0)
(516.56 -77.7586 0)
(509.404 -60.0719 0)
(485.062 -50.9502 0)
(471.725 -46.276 0)
(469.139 -26.1717 0)
(468.258 -7.43852 0)
(420.774 -16.1289 0)
(385.151 -31.6745 0)
(337.314 -53.1945 0)
(291.203 -30.8152 0)
(244.774 0.0912293 0)
(210.092 62.7108 0)
(179.208 95.5984 0)
(141.015 69.255 0)
(102.265 -16.4363 0)
(62.247 -76.5833 0)
(29.7522 -93.0448 0)
(7.47273 -82.9414 0)
(14.3814 -149.829 0)
(27.9278 -167.747 0)
(32.3382 -179.485 0)
(13.9577 -176.737 0)
(11.4476 -180.264 0)
(7.08573 -181.735 0)
(7.54812 -178.713 0)
(32.2033 -170.306 0)
(5.13449 -174.518 0)
(22.1452 -132.651 0)
(14.4788 -156.627 0)
(21.9697 -63.6893 0)
(27.6252 -91.4932 0)
(29.5051 -32.5267 0)
(31.2283 -8.4003 0)
(32.1894 19.5536 0)
(57.6215 34.0864 0)
(63.8061 61.7424 0)
(71.8997 79.6054 0)
(83.3945 94.0902 0)
(80.2521 117.574 0)
(84.7768 126.641 0)
(84.5015 145.251 0)
(81.9796 161.014 0)
(80.8437 177.823 0)
(79.6158 195.35 0)
(68.585 211.018 0)
(49.9955 213.508 0)
(41.9102 203.426 0)
(18.2594 208.839 0)
(-14.7849 -2.17514 0)
(-46.9572 4.90693 0)
(-68.4617 18.7743 0)
(-76.9369 -6.08819 0)
(-72.6671 -11.3698 0)
(-61.1317 -31.1421 0)
(-46.0259 -38.6989 0)
(-28.5718 -43.1863 0)
(-10.3038 -47.1215 0)
(13.6992 -54.4841 0)
(44.6244 -73.7789 0)
(88.8985 -102.51 0)
(143.524 -139.691 0)
(216.655 -175.851 0)
(293.681 -207.256 0)
(372.038 -195.345 0)
(438.717 -171.498 0)
(474.162 -152.391 0)
(505.683 -87.331 0)
(532.25 -40.5976 0)
(500.125 -1.34808 0)
(500.235 83.1636 0)
(425.969 80.523 0)
(212.705 203.345 0)
(168.423 278.502 0)
(120.041 366.303 0)
(94.5176 380.61 0)
(61.2762 325.87 0)
(34.2841 256.062 0)
(14.2191 227.454 0)
(12.938 13.6415 0)
(44.164 48.294 0)
(33.0574 93.6849 0)
(-10.2959 116.183 0)
(-99.0122 112.846 0)
(-154.204 156.28 0)
(-227.279 123.086 0)
(-242.837 145.378 0)
(-274.301 95.7087 0)
(-292.444 115.85 0)
(-312.764 55.6858 0)
(-333.501 73.3643 0)
(-314.34 12.8736 0)
(-308.313 6.98243 0)
(-285.849 -30.802 0)
(-249.016 -49.1846 0)
(-219.083 -66.5688 0)
(-184.723 -83.429 0)
(-140.708 -83.7913 0)
(-108.766 -92.9108 0)
(-69.9175 -63.1351 0)
(-40.8329 -51.6696 0)
(-37.444 -17.6333 0)
(-24.6283 43.641 0)
(-32.6852 66.2463 0)
(-53.9361 99.3072 0)
(-52.3225 106.767 0)
(-49.5482 111.502 0)
(-33.2509 114.44 0)
(-8.51836 97.4123 0)
(-18.0508 43.6829 0)
(-7.02066 -23.0996 0)
(7.11487 -55.2126 0)
(30.3905 -36.1476 0)
(46.0628 -8.44318 0)
(57.1392 52.0083 0)
(59.3657 93.5107 0)
(40.9219 146.06 0)
(24.2858 168.132 0)
(1.86918 182.493 0)
(-12.7895 158.802 0)
(-22.1752 154.003 0)
(-37.0295 166.555 0)
(-64.9864 172.933 0)
(-94.2154 170.292 0)
(-130.68 159.832 0)
(-167.419 82.3296 0)
(-180.693 -19.5196 0)
(-202.402 -160.764 0)
(-295.622 -271.788 0)
(-444.684 -406.407 0)
(-476.214 -431.234 0)
(-373.27 -437.902 0)
(-291.687 -414.807 0)
(-200.801 -364.93 0)
(-112.278 -311.989 0)
(-47.9877 -252.242 0)
(-1.7981 -208.787 0)
(3.04885 -219.596 0)
(19.5706 -136.338 0)
(-38.372 -254.878 0)
(-100.258 -219.596 0)
(-177.701 -132.599 0)
(-219.526 -96.9546 0)
(-210.088 -71.503 0)
(-201.486 -47.873 0)
(-199.796 -28.3314 0)
(-188.531 -19.5753 0)
(-175.216 -21.1701 0)
(-191.483 -23.2723 0)
(-225.124 -24.9589 0)
(-397.736 17.6637 0)
(-463.243 -5.44758 0)
(-480.009 23.7401 0)
(-500.771 -26.6409 0)
(-479.248 -34.6347 0)
(-470.012 -70.3233 0)
(-437.67 -92.3158 0)
(-405.392 -116.632 0)
(-373.089 -130.004 0)
(-327.791 -139.484 0)
(-278.74 -144.986 0)
(-219.329 -136.524 0)
(-163.768 -127.148 0)
(-128.256 -127.504 0)
(-106.296 -134.274 0)
(-67.8719 -126.136 0)
(-32.0515 -121.101 0)
(-24.8898 -110.439 0)
(-13.0161 -74.3561 0)
(9.14586 26.4937 0)
(15.1154 14.9413 0)
(18.4659 10.7298 0)
(8.72387 1.28774 0)
(-8.03513 -8.37947 0)
(-47.5441 21.4939 0)
(-110.072 -5.19887 0)
(-143.165 21.7 0)
(-174.703 1.98586 0)
(-197.599 1.58975 0)
(-220.63 -12.1747 0)
(-244.687 -18.827 0)
(-277.474 -18.1362 0)
(-329.417 -13.9518 0)
(-388.846 11.8445 0)
(-471.122 41.5119 0)
(-559.615 66.7739 0)
(-697.845 89.6354 0)