/*--------------------------------*- C++ -*----------------------------------*\
| =========                 |                                                 |
| \\      /  F ield         | OpenFOAM: The Open Source CFD Toolbox           |
|  \\    /   O peration     | Version:  2.1.1                                 |
|   \\  /    A nd           | Web:      www.OpenFOAM.org                      |
|    \\/     M anipulation  |                                                 |
\*---------------------------------------------------------------------------*/
FoamFile
{
    version     2.0;
    format      ascii;
    class       volScalarField;
    location    "0.003550000";
    object      Xi;
}
// * * * * * * * * * * * * * * * * * * * * * * * * * * * * * * * * * * * * * //

dimensions      [0 0 0 0 0 0 0];

internalField   nonuniform List<scalar> 
12384
(
2.13033
3.38146
4.29575
4.85084
5.5321
6.0564
6.65059
7.31711
7.73307
9.11415
15.7512
11.7218
8.008
5.65856
19.5117
47.6151
70.372
86.9442
90.4253
92.996
100.837
99.5908
104.002
101.746
103.948
97.1529
97.9297
83.4268
81.6445
67.4642
65.8005
53.3971
50.4338
39.0917
32.3625
27.1451
26.8949
29.6195
33.5957
38.9035
44.1777
32.1931
19.6943
9.99085
37.6233
54.4959
67.8591
80.2667
91.8331
98.8458
108.254
110.042
111.281
90.4776
80.7588
62.3225
53.8487
45.7603
39.936
33.7989
32.8357
27.6999
25.5614
24.7374
22.4981
21.2394
21.6408
20.9005
23.9803
26.785
38.3803
34.5923
28.999
17.2611
45.9499
60.0997
68.1107
74.2112
79.155
85.5422
93.5412
103.117
112.667
120.042
128.879
136.089
141.634
149.458
155.707
159.635
162.57
164.672
162.392
157.419
145.655
136.741
120.299
104.484
83.1885
62.0532
50.9979
40.0022
30.4553
16.2672
60.4378
78.1998
86.2806
93.1562
98.5731
108.739
117.992
129.288
138.98
146.237
146.992
145.496
141.032
131.575
127.814
119.92
115.189
110.292
107.567
104.381
100.572
96.2145
90.6855
84.2001
74.9084
62.7844
50.8505
42.637
35.5081
18.6847
25.4832
44.1863
55.3497
61.2579
69.4547
80.3947
108.125
125.867
134.052
135.268
136.015
136.397
138.043
139.73
142.854
145.977
146.432
144.81
137.103
124.181
115.734
118.442
105.114
88.2163
72.1816
78.6836
55.9636
42.0902
29.9694
15.2705
40.0833
62.5953
74.8887
77.5285
74.3491
74.4702
74.0595
79.2165
96.6207
118
124.357
126.759
120.449
119.165
119.107
125.626
130.144
133.657
136.294
139.701
140.57
143.748
137.759
126.072
119.21
97.0385
75.0467
51.6275
34.4381
16.675
14.0535
32.2245
43.518
41.9565
45.5356
36.8954
31.8217
24.2217
20.376
14.0338
11.9926
9.39959
10.1946
12.5963
9.89166
9.913
11.0051
13.4162
21.3746
28.1941
31.0006
29.9005
29.7072
28.3237
23.5873
19.893
14.8782
10.7946
9.01613
5.36617
4.44279
5.56654
5.85363
4.89654
4.78765
5.62007
6.45949
6.46325
6.7252
7.93479
8.32905
16.3983
11.1572
17.5659
18.772
19.3293
21.382
20.83
20.0139
18.6674
16.9438
15.0732
13.0636
11.0302
9.20508
7.49739
5.96739
4.80641
4.01297
3.08154
3.89515
4.64896
5.06291
5.39189
5.23344
5.29507
5.73608
6.53385
7.44491
9.10659
10.0927
10.5387
10.6161
10.8762
10.633
9.34055
8.40944
7.61441
6.90762
6.80248
7.06975
5.93362
5.10085
5.15303
4.61185
4.21457
3.84215
3.67436
3.49041
3.09297
4.76409
4.90744
4.95864
5.50605
5.05894
4.99248
4.91298
5.31516
6.64039
6.90837
6.39729
6.7464
8.12873
10.1662
10.3745
9.04004
9.08169
8.17201
7.3383
6.36535
5.30572
5.08682
4.73165
4.72918
4.45922
4.408
3.94893
3.7441
3.27205
3.00084
4.78402
5.54097
5.54436
5.74298
5.52668
5.64746
5.92349
6.10098
6.73272
7.01215
6.44387
5.87831
5.726
5.46409
5.13602
4.86628
4.69297
4.39768
4.38149
4.3924
4.69515
4.78725
5.06721
5.09897
4.98919
4.84758
4.73073
4.17373
3.88603
3.35273
2.91626
3.77892
4.36962
6.08776
5.25265
5.80109
5.89909
5.84818
5.79271
5.92288
5.80935
5.88823
5.70266
5.56048
5.27391
5.00658
4.64556
4.39011
4.27359
4.6688
3.94228
2.89655
2.82483
2.77234
2.76083
2.6925
2.60361
2.48173
2.18464
1.93207
2.54202
3.10715
4.04722
4.9192
5.7026
6.51487
7.2912
8.50995
10.2667
12.5956
16.4777
26.855
15.2446
12.9067
40.1484
51.291
49.978
51.5088
56.0517
61.381
69.3927
77.4729
91.4554
103.49
117.487
124.222
128.49
121.445
118.042
102.352
97.7155
82.4065
77.3932
62.6159
52.0952
41.7373
39.3864
42.6413
51.0629
61.7126
73.1486
50.6848
28.7449
19.6969
56.5808
56.6558
62.1831
68.216
83.7006
97.8925
112.208
123.398
132.89
137.282
139.956
137.778
122.931
94.1498
70.1363
54.6773
46.2078
35.7409
32.4839
28.2046
26.1349
25.5454
26.1492
27.4346
30.8024
38.5213
58.2896
61.4392
48.5494
34.1262
62.8389
50.0448
54.771
63.9335
76.9597
94.1686
111.939
130.21
149.179
166.87
181.936
196.76
208.541
216.296
223.762
228.224
230.129
230.131
229.081
228.152
228.397
228.475
222.492
205.181
161.801
112.168
82.7002
66.2241
51.1913
39.7841
80.8174
73.4185
77.7837
87.901
104.379
124.151
146.384
163.581
180.497
191.824
196.741
195.921
190.156
179.268
165.388
155.749
145.217
136.723
128.772
122.898
118.031
114.946
113.121
111.152
106.996
96.8183
82.5657
71.1648
57.839
37.8263
49.6398
60.6284
80.2211
94.3457
101.24
102.456
102.505
104.551
109.938
103.682
100.891
103.97
117.364
138.819
176.797
194.189
208.186
222.678
233.92
245.317
247.099
257.81
230.889
138.286
127.477
153.567
176.951
126.866
71.9525
41.6843
56.9315
65.706
78.0662
82.8326
86.9296
95.3149
103.838
129.038
167.338
190.89
186.226
173.862
153.782
139.496
126.576
114.912
105.206
98.1511
93.0295
90.7493
91.2184
94.9218
101.81
113.401
125.914
126.734
114.071
82.854
51.7778
37.6557
27.509
45.7561
55.4033
59.4702
58.5184
53.147
44.6092
36.0879
27.3161
20.9409
17.6118
18.8834
22.7586
27.9866
24.72
28.8371
34.0676
32.8655
30.3485
37.8652
37.7294
37.8857
36.8782
32.0124
22.9256
13.8672
8.62069
7.4761
5.54288
6.06614
5.84837
3.29284
3.83429
4.83629
6.46931
8.14943
10.426
13.7269
17.7627
22.8743
29.6924
39.0412
39.4937
43.0414
42.2467
41.0241
36.6837
31.8086
27.4381
23.5021
20.0122
16.8912
13.9648
11.3543
8.87226
6.79232
5.33087
4.04652
3.21667
4.17576
5.09828
3.26205
3.95655
4.52567
4.9298
5.34365
6.13634
7.19784
8.35717
9.62838
10.7996
11.3046
11.9107
11.629
11.5984
12.0959
11.9146
11.6847
11.9472
11.727
9.76244
8.12608
7.15717
5.7773
4.60747
3.82175
3.15831
2.64708
2.40474
3.48921
6.66046
3.65014
4.37615
5.06262
5.81416
6.77071
7.87266
8.90718
8.71098
9.05333
8.94342
8.49953
9.58537
13.1063
11.4123
9.64177
8.22329
6.49411
5.01792
4.05383
3.63294
3.36092
3.18532
3.07972
2.89989
2.732
2.59068
2.43965
2.25068
3.46831
5.70743
3.30134
3.75077
4.38612
4.98637
5.60051
6.02686
5.89571
6.07661
6.31675
8.17268
8.90831
8.4367
7.38007
6.52122
5.61069
4.85708
4.20191
3.7143
3.4509
3.43946
3.51826
3.59862
3.47258
3.447
3.40239
3.24069
2.94278
2.61053
3.92752
3.73026
2.57243
2.86754
3.1269
3.45997
3.84976
3.86585
4.33783
4.43661
4.5108
4.49003
4.32149
4.10448
4.05579
3.83712
3.58051
3.28825
2.88258
2.67059
2.14086
2.13518
2.12327
2.03682
2.12334
2.04912
2.01678
1.95304
1.95265
1.80841
2.58697
3.00977
4.83383
6.39516
7.43664
8.42553
8.95062
9.35592
9.45199
9.68638
11.1812
14.8748
22.2619
29.3908
23.8762
60.2777
49.0276
47.4334
45.4949
42.6375
40.5468
41.2757
43.861
50.6773
60.2881
75.1144
91.3348
104.064
109.142
108.643
97.0591
92.4079
78.1821
72.4921
57.2344
46.9397
37.041
35.6374
40.4652
51.0056
66.6751
78.2358
52.6201
33.4492
24.4914
62.5065
60.7264
63.816
82.2859
103.848
120.848
133.258
139.168
141.499
140.109
136.859
134.786
131.509
115.107
87.363
67.7276
55.3217
41.8498
37.9259
30.4793
26.5884
24.5378
23.1467
23.1561
25.2843
33.4175
52.7973
66.3145
55.4709
38.1694
68.7575
54.1158
62.022
72.5302
82.0254
91.7681
103.871
118.674
131.539
146.783
157.637
170.645
179.812
186.417
189.921
194.926
198.25
203.092
205.659
210.669
212.97
218.239
219.722
212.594
184.245
138.131
98.7025
76.9763
60.9185
48.6977
87.877
82.9352
93.3656
112.739
132.405
152.841
166.423
177.216
184.554
186.339
189.681
186.432
185.112
175.988
168.018
157.472
145.799
135.777
127.561
120.586
116
113.033
111.886
112.054
109.508
101.611
90.9446
85.4489
80.2721
55.2923
70.6679
80.8323
96.5829
102.081
98.9832
96.0382
97.8007
95.804
96.7297
99.6177
111.548
118.039
127.535
139.679
154.724
173.124
185.381
201.401
215.945
225.241
224.166
238.084
225.583
136.406
102.669
111.228
144.261
142.011
90.8034
53.8419
70.4317
73.2764
78.9178
85.8663
94.2839
107.351
128.938
163.748
182.534
181.137
163.8
154.365
143.294
137.939
129.616
123.019
116.157
109.027
104.441
100.199
97.7074
97.1422
94.899
100.695
110.434
126.427
136.73
118.539
85.6034
66.1637
46.4881
81.4734
91.889
93.2115
88.7893
76.2869
60.0954
43.6496
30.6296
22.1712
20.6237
24.7613
29.1888
28.1393
29.7477
38.7297
35.7026
32.5026
42.4115
62.3509
77.4893
85.6704
85.2293
77.2082
58.4428
35.0628
14.5124
9.1914
8.27533
10.5127
5.43371
3.87056
4.98779
5.96522
7.16193
9.21025
11.9409
14.822
18.951
24.8134
35.365
40.2435
36.2478
32.8423
30.6101
28.0275
25.8941
23.2783
20.4642
17.4817
14.5192
11.8786
9.60798
8.02249
6.83691
6.06921
5.54721
4.9687
4.32706
6.08578
5.52981
3.44434
3.97753
4.5099
4.94409
5.46096
6.38281
7.69697
8.399
10.1946
11.5268
12.8564
12.8259
12.8479
13.0866
12.7755
14.1543
15.1847
14.3074
12.8532
11.5968
10.3763
9.2137
8.30106
5.99019
4.61399
3.69709
3.16102
2.91119
4.00325
7.36383
3.70642
4.33233
4.98589
5.87755
6.91199
7.45033
7.79829
7.84471
9.48103
8.72278
9.21015
9.50307
12.6242
10.9347
8.74326
6.85695
5.37067
4.22644
3.61729
2.93775
2.63699
2.71227
2.76284
2.82826
2.76055
2.65892
2.55135
2.50739
4.18267
6.45975
3.55632
3.9309
4.45637
5.07148
4.84439
5.04413
5.19369
5.24789
6.26096
7.43961
8.69803
8.38309
7.24686
6.42068
5.5203
4.56061
3.86458
3.38981
3.12703
2.97721
3.0339
3.07787
3.00012
3.02877
3.00479
2.8969
2.90447
2.69232
4.58896
4.47105
2.7171
2.81892
3.14113
3.37776
3.61326
3.80486
4.07754
4.06728
3.88621
3.73033
3.44187
3.25939
3.02469
2.80513
2.75109
2.4825
2.38005
2.02207
1.8709
1.9535
2.00817
2.08948
1.94269
1.86263
1.78349
1.72715
1.74404
1.8531
2.9899
4.39098
8.01695
9.97441
11.0164
11.4222
11.6354
11.6018
11.5315
11.2404
11.3383
12.7769
19.0436
36.0958
41.95
55.6543
50.5584
50.7244
42.8442
35.2464
31.9633
31.569
33.1247
35.6278
40.6203
48.4947
64.5422
80.0753
97.3291
94.9413
95.5204
83.7256
76.6885
65.0218
51.2291
39.2798
32.6949
32.9718
40.8967
56.957
78.0441
82.2777
58.7579
40.9309
29.4813
69.4936
65.1504
73.9507
98.1466
120.516
135.235
141.633
139.834
133.872
126.529
115.679
112.662
102.432
103.397
91.0501
79.8773
64.7357
56.001
46.3705
38.5847
30.7254
26.1478
23.178
21.9996
22.6661
30.7601
51.9504
73.9173
66.8703
44.2149
74.6349
60.4649
68.7119
71.2242
78.5285
92.0365
105.532
120.828
131.491
144.923
153.447
161.358
166.608
169.457
171.489
171.856
175.879
176.625
182.046
186.645
193.656
202.381
207.093
205.853
187.369
148.308
110.169
87.6131
72.2757
62.117
96.6683
94.5204
113.088
129.741
146.884
161.826
176.491
180.776
179.529
172.157
160.356
154.836
150.652
150.147
143.287
137.877
132.32
124.146
117
111.336
107.053
106.702
108.151
109.939
109.751
105.09
100.644
101.961
103.047
72.4515
96.3343
102.105
108.891
104.076
99.3658
98.6765
100.547
101.688
101.934
102.845
106.424
112.263
121.892
133.917
146.928
159.766
168.794
180.863
188.81
195.549
201.26
207.316
202.799
171.593
95.5955
93.7502
120.327
148.326
106.935
63.2175
87.1294
83.1112
85.6533
96.4064
109.142
130.684
166.813
185.745
176.656
168.828
160.07
157.267
151.376
144.27
138.322
130.464
124.06
119.181
115.6
112.083
110.073
104.009
99.0544
97.5953
103.626
118.63
148.309
144.914
120.227
89.0257
62.9224
115.788
124.376
127.952
117.581
99.9395
75.0913
52.6109
36.6105
29.1529
29.9665
35.113
39.7604
36.3645
41.2365
42.5142
45.5307
60.4586
91.294
116.554
132.468
142.871
146.336
125.347
88.8761
60.0165
31.8111
19.1383
12.3368
12.2353
6.0934
4.80719
6.18725
8.01616
9.78031
12.151
15.2138
18.9444
25.7994
36.1073
36.6791
35.765
38.2298
37.0264
37.6142
36.1955
33.6961
30.5549
26.7826
22.7641
18.7891
15.0544
11.586
8.72187
6.47333
4.88147
4.11182
4.25038
4.86118
7.85876
6.46502
3.92453
4.49083
5.05183
5.92531
7.14411
8.85074
10.4449
12.9725
15.3373
18.1265
18.5347
18.9365
18.9237
18.7844
19.401
18.3486
17.4194
17.6436
16.0974
14.9664
13.2429
10.7389
8.99565
7.76319
6.40168
5.38309
3.88369
3.40578
4.77361
9.06808
4.26695
4.94902
6.00059
7.31499
8.22462
10.0785
10.8526
12.4989
13.3325
11.6695
11.3613
13.393
14.0861
15.2865
12.6225
9.89051
6.87825
4.89963
3.46483
2.82912
2.47318
2.56382
2.50017
2.61096
2.75312
2.79427
2.7003
2.64835
4.66101
7.58688
4.03467
4.4319
5.17767
5.57435
6.24004
6.19583
6.17344
6.35664
6.82141
10.2364
8.86267
10.3352
8.78328
7.09758
5.57949
4.45547
3.65811
3.37908
2.85588
2.73084
2.74062
2.90898
2.92217
2.9591
2.97932
2.85165
2.89355
2.90887
5.32222
5.20912
2.52995
2.7396
3.01857
3.35833
3.68961
4.09472
4.13232
4.18783
4.06357
3.78768
3.60426
3.18324
2.75189
2.55229
2.30373
2.20851
2.00519
1.84675
1.78208
1.79471
1.85464
1.86163
1.84974
1.67949
1.55151
1.50526
1.59111
1.76533
2.91563
6.23646
12.9971
16.0451
16.262
15.1271
13.6793
13.1294
12.8142
12.6763
12.4967
12.8168
16.1792
29.7546
68.4539
55.1874
55.2337
53.0163
40.4689
31.9292
29.4743
30.1058
31.7127
33.9555
37.3475
43.8938
56.1352
70.3508
84.1692
89.5486
86.147
80.4109
69.3201
57.054
41.9715
32.3362
29.3428
33.4258
47.638
71.6531
101.427
95.7499
75.138
56.8279
40.2159
73.5124
70.3263
85.3016
111.024
129.306
136.062
133.477
124.294
111.895
87.7918
63.4797
63.5712
69.9399
74.7248
81.8704
77.4071
70.6816
67.8577
53.5715
43.8978
35.0657
27.4717
23.3993
21.6493
22.16
30.1493
56.0638
82.4166
77.3625
52.4686
82.098
65.5948
64.7191
72.1482
87.9278
104.458
120.43
133.675
142.712
150.946
154.141
157.398
157.323
156.852
154.331
155.146
153.571
156.364
160.045
166.996
175.898
182.368
189.831
193.25
180.371
145.499
110.092
90.6811
79.218
71.3215
106.98
90.2839
121.348
132.653
151.431
172.217
186.94
198.642
197.596
185.642
171.503
149.706
138.257
127.907
122.714
116.215
110.11
105.164
99.792
97.8026
98.4915
101.254
106.03
108.881
109.984
109.932
111.772
118.138
121.51
89.6422
124.389
118.656
115.403
108.308
104.164
104.34
105.196
105.359
105.792
107.621
111.676
117.785
128.26
140.622
151.369
157.07
159.066
159.406
155.644
161.104
161.396
171.66
172.863
179.472
90.7501
90.2508
120.089
156.926
133.28
74.3341
104.737
92.8408
97.444
110.934
129.351
163.492
187.439
183.671
172.459
167.499
165.602
158.92
154.405
145.464
139.6
132.694
128.564
125.453
124.586
123.684
124.668
117.335
109.817
99.3071
101.467
116.59
143.105
154.826
142.58
122.242
87.6212
136.379
151.124
147.433
131.497
108.647
81.8142
59.7602
47.6479
43.3087
48.8988
53.7813
58.9213
56.0847
57.7292
58.9121
75.6573
97.9152
125.804
154.636
173.745
188.93
191.355
182.429
156.289
90.6324
49.8359
37.0238
22.705
24.4292
7.4043
6.82039
8.6432
11.1529
13.6736
17.228
21.9383
28.9649
38.8826
40.6948
46.2429
47.2589
50.521
47.1151
47.113
43.4699
40.3136
36.7222
33.2193
29.2242
24.6214
19.9075
14.8726
10.9658
7.95543
5.77885
4.32209
3.58107
4.1833
9.22197
7.90191
4.72862
5.26679
6.21829
7.93006
10.8749
14.09
18.7911
22.1347
26.5845
28.523
28.7658
27.1684
25.1787
24.288
23.7519
23.9952
25.5339
27.8733
27.4135
25.17
21.4897
17.5081
13.56
11.8803
8.99422
6.47554
5.10328
4.33287
5.60093
10.5159
5.15366
6.13557
7.48108
9.01077
11.3144
13.8017
16.0035
17.4404
15.7175
15.2425
16.9673
16.3195
21.8778
20.5577
18.4874
15.2456
10.5876
7.62691
5.25577
3.64747
2.85987
2.46516
2.40844
2.63923
2.67761
2.78612
2.89545
3.05605
5.6662
8.74464
4.60784
5.19108
6.35018
7.11387
7.72564
7.9682
7.9632
7.83097
10.2817
9.9372
14.2066
11.2631
10.4151
8.42816
6.57751
4.78529
3.7185
3.09621
2.8847
2.85631
2.72423
2.83362
2.95144
3.04867
3.09726
3.04697
3.1378
3.28878
6.37086
5.01854
2.52134
2.51613
3.0575
3.41981
4.1309
4.41889
4.80463
4.68656
4.36167
4.01024
3.41932
2.90343
2.55622
2.22525
2.05298
1.86886
1.76124
1.7096
1.66825
1.66892
1.71515
1.73393
1.7254
1.70309
1.54564
1.49223
1.50422
1.60652
2.68317
8.50181
19.7625
22.2703
22.1604
19.3949
16.8184
14.6388
14.1784
14.171
14.3299
14.3824
16.0972
25.992
93.32
59.4854
60.6333
50.748
36.037
31.508
32.39
35.5235
39.454
41.0514
42.9455
47.4165
56.3076
69.1865
78.3609
82.0141
81.2107
72.3718
60.792
44.5926
32.4738
27.6046
29.2834
41.2272
65.902
93.4159
124.426
109.611
95.4705
79.1019
55.3338
80.7449
78.6044
98.374
117.406
124.992
123.224
116.585
104.582
90.5165
60.902
47.0326
47.2766
51.4833
58.9075
60.0263
67.3376
59.7801
58.3247
48.686
40.377
32.3942
26.95
23.042
21.7894
23.5207
35.2139
70.6989
89.8183
86.1415
65.0472
91.9397
63.9425
68.671
85.1133
108.089
130.959
148.607
155.355
151.215
147.674
141.576
138.368
135.064
130.267
128.811
123.942
123.833
123.978
130.597
139.696
150.605
163.063
173.928
179.942
166.571
133.958
107.332
93.3603
86.6949
84.0372
105.928
90.5416
115.953
138.735
157.964
178.184
195.113
204.246
210.509
207.677
194.614
179.168
157.803
140.239
125.942
115.868
107.142
100.508
97.7622
96.4723
99.4723
102.298
105.363
109.917
114.237
118.883
126.196
136.029
139.287
106.895
154.39
134.765
124.952
111.414
111.992
110.903
111.038
111.285
111.716
113.262
116.343
123.758
136.85
150.799
162.422
160.004
151.391
137.279
125.101
124.053
122.839
134.933
141.483
149.258
85.7747
93.4396
134.11
168.3
161.481
85.7915
122.859
103.484
111.245
127.543
157.883
189.77
190.934
176.515
174.568
167.391
165.156
156.093
149.963
141.762
136.333
132.359
129.661
129.709
130.773
135.086
144.91
142.804
131.264
114.367
109.128
120.778
140.416
153.852
156.548
141.502
123.694
152.518
158.706
148.454
126.425
105.338
85.9228
72.7984
67.6002
71.9614
82.1788
87.1193
92.4296
93.7919
74.0581
79.0037
93.0649
111.935
136.726
165.525
188.79
207.73
217.451
215.601
195.722
156.42
97.5863
60.3892
38.2392
32.5424
9.96901
9.77446
12.5823
15.8504
19.9814
24.3884
34.118
41.8028
44.3709
50.5177
55.92
57.2298
57.1189
52.4558
50.4506
48.1161
47.0602
46.7515
44.9021
41.5884
36.7513
30.288
21.8952
15.1076
10.0979
7.0579
5.1757
3.90709
3.52844
9.46577
10.0059
5.46344
6.05475
7.30263
9.86749
15.0218
22.2875
27.9891
32.5245
36.4125
38.3296
34.6151
30.8444
28.9025
29.0683
30.754
35.2489
42.1111
49.4508
51.2178
48.8758
40.0749
33.142
24.7337
22.2894
15.8041
10.2098
6.81203
5.30529
8.30632
13.0183
6.10352
7.28656
8.41298
10.7956
13.7875
16.9113
18.6088
17.8375
16.8615
18.4959
16.4773
19.6148
19.993
26.6132
27.0074
23.2126
21.9708
14.1846
10.2029
6.12545
4.43238
3.26158
2.78673
2.54562
2.54232
2.99063
3.02544
3.38946
6.70479
10.2169
5.45416
5.79103
7.28333
8.87834
9.70051
8.99525
9.94037
11.563
9.36168
12.3933
11.3227
14.0054
13.2205
11.1852
8.40945
6.31676
4.2836
3.29188
2.73085
2.5706
2.64791
2.89762
2.91796
3.0276
3.15645
3.26819
3.4522
3.78639
7.59296
5.58659
2.40395
2.77919
2.97318
3.73421
3.98709
4.80265
4.85477
4.81695
4.65739
4.19542
3.46431
3.24316
2.56032
2.33427
1.96481
1.70996
1.67114
1.64625
1.63417
1.63715
1.64201
1.66101
1.65421
1.61037
1.65302
1.65385
1.64409
1.70053
2.55992
11.2442
24.1088
25.9835
24.312
22.8515
20.6892
18.8504
18.6091
19.6481
19.5416
19.0243
20.029
31.8035
82.4532
68.6874
61.6173
45.1564
33.5606
33.9165
41.7765
50.2682
51.5208
51.0447
51.4741
55.0665
64.0475
71.1203
77.4995
78.486
74.9106
61.6671
45.9847
32.1053
27.5116
29.0257
42.5881
69.8599
96.7301
117.834
117.025
104.149
101.044
96.2469
73.6076
94.1375
89.5541
104.753
113.403
114.024
112.823
107.356
98.4529
86.1794
65.0202
47.2861
43.8819
41.8514
42.4514
41.1042
41.1676
43.0863
39.6264
39.106
34.5352
29.8462
26.1236
23.8893
23.2518
27.4077
43.4553
84.4679
99.209
95.0374
81.3054
101.304
69.4607
82.8857
107.557
139.28
163.524
175.52
170.95
157.178
144.103
133.082
125.939
119.555
114.066
108.222
105.239
102.033
104.284
111.333
122.668
136.882
152.13
167.115
167.921
150.331
122.374
103.724
92.7054
93.5402
96.0141
104.703
80.8852
118.675
150.549
166.048
180.32
193.231
201.034
204.28
206.212
197.962
186.969
174.028
158.299
143.208
130.272
116.882
107.481
99.4047
95.0709
92.3397
94.2399
98.3144
105.447
115.818
127.512
140.46
151.727
155.875
126.768
180.219
147.845
122
124.3
118.842
117.246
116.33
115.555
114.667
115.21
119.026
128.704
144.144
161.757
172.484
165.82
147.681
121.749
102.619
96.3909
95.1718
110.252
121.835
120.973
93.8288
115.336
179.118
185.183
186.547
103.639
140.678
112.3
123.055
146.414
182.998
195.494
185.496
175.072
173.371
164.064
159.929
148.891
143.683
136.152
133.142
130.031
130.074
130.531
135.315
145.858
166.669
181.865
172.709
154.641
141.272
140.606
151.007
158.705
167.885
168.367
170.761
160.401
155.869
133.796
116.649
101.246
95.4596
90.8236
97.1272
110.404
128.79
135.548
143.609
135.911
100.918
101.589
106.01
112.042
126.978
153.099
182.238
208.325
227.266
230.464
217.043
186.241
136.083
87.8836
59.2833
43.6107
15.8011
14.9885
18.3106
22.5865
29.0784
42.0865
45.0957
47.4789
54.0007
59.8879
64.712
63.1168
62.2988
55.8041
56.3758
56.5788
60.7295
63.4619
64.4814
62.0917
57.118
49.6268
36.5322
24.2752
14.5971
9.19678
6.35486
4.72065
3.79129
8.26703
14.3592
6.27729
6.33618
7.21991
10.3125
16.3315
27.2642
36.5784
42.2581
46.1021
47.5269
39.1459
34.9426
34.4731
37.3172
44.4337
57.5269
73.6791
85.9282
88.8327
84.3231
67.9673
60.9435
45.5981
37.1928
27.3305
18.6772
10.5333
6.70099
10.9955
15.1621
6.75037
6.85942
8.15037
11.3597
15.2415
17.9378
18.8622
16.6624
17.0401
15.6821
17.1849
14.9158
24.0411
28.1301
36.8183
40.8835
38.3651
29.4072
22.2564
13.5187
7.97744
4.89916
3.75154
3.0043
2.68965
2.6448
3.34018
3.58825
8.02622
11.2015
6.01453
6.11742
7.49618
9.1529
9.00671
8.26974
8.99412
8.29719
9.36871
7.22263
9.86493
12.8448
16.0265
15.4252
11.8447
8.65522
6.067
4.15228
3.27359
2.70128
2.52753
2.57873
2.95065
3.37684
3.19382
3.45938
3.74578
4.34244
8.85571
5.10951
2.46975
2.57994
3.10099
3.20929
3.96785
3.86013
3.87802
4.04478
4.02628
4.64049
3.99622
3.61961
2.71794
2.61262
2.02216
1.82669
1.70348
1.66412
1.62766
1.60878
1.62002
1.62819
1.63841
1.71058
1.76036
1.88061
2.02287
1.88834
2.85479
13.364
25.4894
24.6978
22.6565
22.9902
24.0765
25.3905
28.7991
31.4538
29.3481
30.075
41.1055
60.9764
90.1391
86.7082
50.5193
37.894
33.9998
40.1336
52.9314
61.2345
62.1668
58.2458
58.774
65.9327
71.2331
78.3947
78.7281
74.7396
60.1033
44.4473
31.8529
29.0146
32.8788
50.7508
81.1755
95.8324
112.015
113.886
99.7702
99.5008
108.207
114.25
101.792
123.604
101.643
105.962
109.967
115.66
118.102
116.905
110.865
102.155
93.8247
88.4663
83.5649
78.2963
72.4656
67.5816
66.3272
62.7354
58.258
46.1623
42.3921
34.9688
29.8669
27.5539
29.1606
38.9832
64.3541
104.749
106.497
103.388
103.425
112.951
83.1805
101.507
134.543
166.197
190.907
199.832
194.227
177.531
164.682
154.348
145.861
139.976
135.427
133.51
130.832
130.107
129.956
133.38
138.384
148.164
158.616
161.73
154.633
135.362
114.533
101.189
97.2611
102.953
110.591
101.338
81.3873
138.599
166.899
179.613
189.114
196.958
203.524
202.364
202.532
191.137
181.629
166.517
152.527
136.582
123.069
109.585
97.6407
87.2751
80.2589
75.2018
74.5547
78.876
87.6867
103.593
124.765
145.207
162.574
172.381
149.675
206.678
163.353
132.137
132.694
125.08
122.17
120.175
117.74
115.591
115.598
120.009
130.83
148.835
168.426
179.23
174.481
150.155
120.534
98.7163
89.9693
91.2364
107.607
120.798
133.842
132.57
177.474
186.156
196.691
202.714
127.483
156.769
118.421
134.149
167.084
196.707
190.353
183.65
172.219
166.515
158.443
149.828
141.53
136.277
132.227
129.829
129.408
129.253
132.349
137.192
151.055
177.032
195.637
197.747
188.06
180.515
174.537
170.671
166.876
164.518
195.993
218.213
162.005
141.84
123.402
108.302
105.774
104.988
111.043
120.061
144.754
159.642
165.138
179.832
172.531
134.126
124.243
120.418
110.281
107.627
125.888
160.451
195.134
220.674
235.647
233.532
204.855
162.936
116.58
89.6851
67.7757
27.546
23.8395
26.1788
33.5351
42.2779
54.1957
53.1213
58.0256
65.1905
71.4761
72.6807
71.6491
67.0604
63.4163
65.0942
69.5568
76.1846
81.0696
82.7376
83.1138
81.459
75.4593
60.148
40.8363
23.6169
13.4299
8.40862
5.94895
4.71353
11.6054
25.5384
8.31664
6.74676
7.2621
10.0764
15.2608
25.3378
42.0859
53.5474
57.9265
58.8339
48.3586
43.2681
46.2153
55.5098
74.5181
99.1662
114.531
133.226
133.007
124.581
106.116
88.98
77.4184
60.2407
44.6577
32.4777
18.4845
10.6367
16.528
23.0741
9.17703
7.74241
8.43577
11.1605
15.4733
19.168
18.4673
17.3218
16.8403
16.4807
13.2253
17.2198
30.5641
57.8062
76.3233
64.353
66.5986
54.665
41.2654
28.1669
14.5216
8.24091
5.25326
3.98643
3.39424
2.90014
2.89246
3.88174
9.55257
11.9272
7.31538
6.69512
7.9793
9.46354
9.9362
11.0462
10.4323
10.8566
6.35907
7.69533
11.465
16.2458
20.2305
22.5427
17.699
12.4145
7.9228
5.53186
4.36206
3.71124
3.05588
2.7078
2.60516
2.75161
3.41695
3.64851
4.00466
4.74848
10.0651
6.21952
2.64256
2.73958
2.80692
3.38017
3.36777
3.79882
3.23704
3.17762
3.95625
4.45001
5.56199
4.35181
3.53204
2.87866
2.14465
1.97516
1.81048
1.69357
1.6355
1.59862
1.59947
1.5941
1.63951
1.6978
1.86944
1.94007
1.97076
2.13971
3.69924
14.5568
23.1223
20.3027
18.7049
21.716
27.5035
34.9211
44.6425
44.8022
40.3536
49.9884
76.5168
93.8173
92.1889
85.7288
80.2364
55.8789
40.8624
37.3375
37.8034
47.6883
59.7831
72.6275
78.9233
81.6525
81.2717
83.6676
86.3399
80.6816
71.1297
55.7921
41.7657
34.6438
34.158
42.9825
68.7885
96.7151
107.695
118.62
122.998
113.464
113.255
127.52
143.96
147.773
139.17
151.156
160.639
133.034
122.388
123.77
132.725
140.398
144.414
142.785
139.422
134.09
127.632
121.393
114.277
106.154
98.0681
90.8366
84.7339
83.6615
84.0872
86.1342
76.6006
59.7025
45.5858
41.7235
45.8696
61.7012
96.8259
114.228
109.331
106.784
118.457
155.636
161.554
135.642
118.864
132.563
156.755
185.113
211.005
222.167
218.512
206.726
196.399
188.422
182.779
177.781
175.04
171.283
170.545
168.965
168.207
167.092
167.461
166.639
166.066
159.811
145.021
128.333
113.259
106.771
106.638
111.621
123.876
172.51
178.544
117.816
120.964
171.763
188.146
199.511
209.468
214.928
220.618
219.467
218.12
205.024
194.395
181.146
165.822
152.548
139.283
128.284
118.713
110.574
101.942
94.1535
85.4984
83.1846
85.7158
93.6841
111.847
135.872
164.458
185.947
186.587
206.165
264.974
225.492
176.967
155.649
139.16
129.037
124.768
121.988
118.87
115.942
115.367
119.127
130.457
148.693
169.949
183.069
181.956
159.757
133.818
115.007
108.148
110.02
122.618
134.054
155.053
169.847
182.486
194.824
204.386
210.168
171.133
212.246
180.478
133.821
126.007
146.674
183.92
195.578
186.255
176.314
164.312
159.355
147.81
141.615
133.029
130.156
127.841
127.398
126.989
127.785
129.023
135.476
147.369
166.982
179.802
182.198
180.607
180.188
178.456
169.805
167.124
177.92
183.537
207.705
219.924
171.452
150.664
133.78
118.696
114.773
112.038
117.263
121.005
138.681
158.086
168.814
174.235
184.555
184.763
158.632
142.225
132.609
115.102
95.4531
95.2965
130.799
171.788
208.693
229.515
231.905
217.821
182.444
145.964
123.676
96.6447
75.6255
109.221
100.183
42.7675
40.6638
45.465
68.619
62.6878
65.509
74.0983
81.9903
85.015
86.4639
82.5908
77.9964
74.019
75.1713
79.7591
86.3093
90.832
95.059
99.1383
102.742
101.717
88.1524
64.4267
39.2247
21.7483
12.4016
7.98701
6.11515
8.2969
17.027
21.8229
23.9794
16.4017
10.8526
9.59848
12.2341
17.3416
25.185
38.7552
64.1808
80.9241
88.0191
84.2754
78.366
86.7861
103.343
129.425
148.825
151.13
161.596
160.785
165.334
143.026
106.637
87.0614
86.3173
65.1661
52.2698
33.8028
20.1693
14.5645
21.3225
20.8826
28.501
20.8812
14.9795
13.496
14.9365
18.6382
22.7915
22.4802
20.3524
19.6968
21.689
21.6989
37.2374
72.9573
97.1755
117.926
123.12
111.337
91.2901
71.6964
50.4269
29.2773
14.1703
8.03002
5.3598
4.26474
3.63385
3.39108
4.38612
15.03
24.0463
21.6715
21.0049
9.60409
8.00976
8.34212
9.43665
10.6293
11.7247
12.9234
11.0394
12.5313
18.7966
27.2484
30.8098
35.19
32.1624
26.5197
16.9282
12.2024
8.3144
5.61663
4.1274
3.74301
3.35757
3.16321
3.02052
3.02852
3.46182
4.56884
6.17064
18.5716
25.718
17.2026
8.05904
5.5032
3.95642
4.22561
4.28995
4.94465
4.94254
4.56038
5.20877
5.86669
7.553
8.00428
7.2675
4.53505
3.38108
2.34869
2.05899
1.88307
1.74332
1.61959
1.55225
1.54765
1.55538
1.61213
1.68314
1.90714
1.97529
2.17476
2.42062
2.84926
2.76535
2.15612
14.5487
19.4994
17.076
16.7466
21.1209
32.0919
46.1944
57.3075
53.0354
44.707
48.3685
68.1897
89.238
93.0011
79.8641
66.141
53.5347
46.7263
41.84
41.6854
47.1393
57.2827
68.8011
77.3251
84.3809
85.5942
82.0416
75.0079
64.8033
51.8829
44.5457
42.5418
47.7773
69.0036
108.514
127.598
122.297
126.556
134.312
130.834
123.314
128.16
143.068
158.875
171.774
176.848
171.222
168.884
154.75
151.444
161.704
170.838
177.44
180.167
180.864
176.426
168.501
159.772
153.415
148.539
143.71
136.534
128.321
118.812
112.13
109.734
108.862
111.555
104.486
80.4429
70.9211
85.264
125.971
126.413
119.654
117.362
128.86
147.366
156.9
165.142
155.382
139.786
148.568
167.134
188.826
212.283
230.163
236.253
228.725
220.254
214.08
208.869
205.705
203.435
202.625
198.857
197.071
192.004
189.276
181.803
176.587
166.215
154.553
140.47
128.268
120.98
121.641
124.813
132.844
148.281
163.335
140.916
124.5
153.466
192.419
207.29
220.605
233.289
240.928
252.359
247.11
247.687
234.112
226.182
211.482
200.687
189.678
182.127
175.361
171.684
165.22
157.941
150.618
137.248
125.232
112.918
110.99
117.116
130.632
154.836
182.922
192.992
175.643
211.395
221.099
182.985
161.568
141.211
127.368
121.229
119.251
117.556
115.768
114.309
117.418
127.175
145.022
166.548
182.013
186.225
170.567
151.029
134.186
131.574
133.826
141.32
148.545
165.344
171.184
185.116
195.091
204.034
206.062
198.294
121.496
109.157
123.56
135.699
166.071
191.943
192.455
178.122
164.087
156.292
145.015
137.221
129.311
124.239
123.847
124.262
124.544
120.183
123.684
125.275
128.448
137.792
146.547
153.247
154.164
154.979
161.454
159.067
157.276
156.252
171.257
186.195
180.385
173.561
168.77
152.189
139.639
131.292
124.238
123.948
124.343
133.42
147.848
164.138
164.448
164.859
177.103
177.704
167.982
153.708
143.304
124.828
96.3062
75.4153
111.889
148.75
189.184
218.16
227.009
219.785
196.549
161.824
135.269
119.993
106.617
125.73
118.004
65.8031
57.313
71.736
80.2167
75.6365
81.1867
89.7001
95.7615
100.682
97.6428
95.0538
88.7295
85.1437
83.9198
87.5549
90.3112
96.0186
101.376
109.71
118.364
122.259
113.506
90.2673
59.7732
34.5735
19.3482
11.6964
8.22234
8.24085
10.4481
11.9837
14.4507
20.9824
20.6498
19.442
20.4463
24.4074
32.4278
44.4595
67.1047
110.904
156.423
168.915
152.922
151.517
163.205
182.406
201.191
191.316
181.67
173.378
146.954
136.594
110.503
100.262
98.0866
85.8075
78.41
57.0604
38.0322