/*--------------------------------*- C++ -*----------------------------------*\
| =========                 |                                                 |
| \\      /  F ield         | OpenFOAM: The Open Source CFD Toolbox           |
|  \\    /   O peration     | Version:  2.1.1                                 |
|   \\  /    A nd           | Web:      www.OpenFOAM.org                      |
|    \\/     M anipulation  |                                                 |
\*---------------------------------------------------------------------------*/
FoamFile
{
    version     2.0;
    format      ascii;
    class       volScalarField;
    location    "0.004200000";
    object      G;
}
// * * * * * * * * * * * * * * * * * * * * * * * * * * * * * * * * * * * * * //

dimensions      [0 0 0 0 0 0 0];

internalField   nonuniform List<scalar> 
12384
(
1
1
1
1
1
1
1
1
1
1
1
1
1
1
1
1
0.999999
0.999982
0.999816
0.998766
0.997015
0.989871
0.991782
0.988087
0.99082
0.993148
0.995518
0.997295
0.998587
0.999438
0.999748
0.999929
0.999983
0.999998
1
1
1
1
1
1
1
1
1
1
1
0.99999
0.99988
0.999548
0.999101
0.998659
0.998155
0.997697
0.997445
0.996958
0.997626
0.997381
0.998848
0.99914
0.999637
0.999633
0.999886
0.99988
0.999975
0.999991
0.999997
0.999995
1
1
1
1
1
1
1
1
1
0.999103
0.994929
0.991394
0.984478
0.975066
0.949067
0.905288
0.890121
0.756823
0.706187
0.686188
0.602259
0.614765
0.568673
0.507263
0.453613
0.409629
0.419835
0.452301
0.48728
0.580357
0.751136
0.949282
0.998225
0.999968
0.999999
0.999999
1
1
0.999914
0.966043
0.848284
0.704718
0.576116
0.458708
0.370994
0.306392
0.275724
0.267835
0.276605
0.29235
0.385542
0.525977
0.664479
0.839694
0.879105
0.956177
0.958494
0.976909
0.97959
0.987178
0.995298
0.995241
0.999109
0.999938
0.999995
1
1
1
1
1
1
1
0.999997
0.999926
0.99951
0.997849
0.993155
0.986778
0.989372
0.974071
0.975369
0.941494
0.882238
0.867086
0.672899
0.600252
0.519891
0.358826
0.372482
0.310691
0.351399
0.364131
0.439276
0.489838
0.682808
0.809703
0.983243
0.999991
0.999999
0.999922
0.998834
0.992861
0.991029
0.995252
0.996057
0.995147
0.993731
0.991476
0.988678
0.985295
0.981194
0.973889
0.962208
0.945178
0.921839
0.891709
0.861753
0.831147
0.815586
0.805492
0.820419
0.831832
0.87107
0.91759
0.970065
0.996479
0.999933
0.999982
1
0.999981
0.998069
0.999585
0.999999
1
0.999992
0.999665
0.998505
0.990061
0.961134
0.717123
0.827445
0.702907
0.835039
0.896348
0.950261
0.976018
0.986646
0.991267
0.993188
0.994269
0.993695
0.992866
0.996211
0.9981
0.999664
0.999954
0.999999
1
1
1
1
1
1
0.999797
0.994934
0.868998
0.821214
0.599259
0.574827
0.669496
0.584453
0.669022
0.820834
0.825202
0.910919
0.954452
0.982402
0.994218
0.998771
0.999836
0.999994
1
1
1
1
1
1
1
1
1
1
1
0.999966
0.999266
0.989691
0.978984
0.972161
0.97553
0.980411
0.984907
0.988925
0.991694
0.993808
0.994939
0.995465
0.995495
0.995339
0.993061
0.99088
0.992601
0.9903
0.993867
0.997146
0.998662
0.999724
0.999914
0.999987
1
1
1
1
0.999993
0.999596
0.996511
0.969868
0.958005
0.893522
0.909375
0.896681
0.916816
0.941268
0.954879
0.97102
0.973634
0.980477
0.977313
0.958306
0.95138
0.849208
0.847082
0.623982
0.660981
0.553858
0.646563
0.76719
0.865624
0.935751
0.976702
1
1
1
0.999999
0.999931
0.99967
0.998515
0.996356
0.995603
0.995888
0.997028
0.998026
0.998823
0.999279
0.999551
0.999699
0.999784
0.999877
0.999952
0.999991
1
1
1
1
1
1
1
1
1
1
1
1
1
1
1
1
1
1
1
1
1
1
1
1
1
1
1
1
1
1
1
1
1
1
1
1
1
1
1
1
1
1
1
1
1
1
1
1
1
1
1
1
1
1
1
0.999992
0.99879
0.942712
0.580794
0.198251
0.0961592
0.0404238
0.0448344
0.0396575
0.0804547
0.109926
0.168517
0.206418
0.225957
0.252304
0.249616
0.317092
0.373508
0.516111
0.682345
0.880145
0.976547
0.989161
0.99011
0.993685
0.9964
0.994195
0.99817
1
1
0.998677
0.872299
0.688876
0.658404
0.668015
0.658336
0.626378
0.562059
0.493485
0.417649
0.342608
0.259466
0.208764
0.176961
0.137317
0.145141
0.121633
0.147233
0.164497
0.325157
0.417118
0.744818
0.912883
0.999466
1
1
1
1
1
0.999993
0.982121
0.976635
0.952648
0.891811
0.771788
0.608079
0.42099
0.214111
0.154343
0.0882948
0.0403822
0.0368005
0.0253515
0.019211
0.0147298
0.0108068
0.00896421
0.00750405
0.00679002
0.00639295
0.00837131
0.0351767
0.157148
0.638236
0.926685
0.984994
0.990512
0.992593
0.999999
0.974857
0.0560478
0.007894
0.00165018
0.000392557
0.000115946
3.99325e-05
1.66414e-05
7.7325e-06
4.33533e-06
2.885e-06
2.22606e-06
5.10063e-06
8.52304e-06
6.35043e-05
0.000206095
0.00141234
0.00702783
0.0314175
0.127913
0.246307
0.53547
0.689399
0.831013
0.881875
0.960391
0.988495
0.99914
0.999962
0.999999
0.999787
0.999171
0.999581
0.997615
0.982416
0.946633
0.90214
0.855848
0.920191
0.87673
0.886535
0.900329
0.830393
0.74495
0.664758
0.406662
0.336382
0.152916
0.0785745
0.0593049
0.0286892
0.03181
0.0225534
0.0312605
0.0277863
0.0447422
0.0441343
0.0841946
0.129262
0.82357
0.99983
0.958512
0.823957
0.709693
0.787645
0.811058
0.778121
0.726683
0.668445
0.597715
0.480565
0.336513
0.199462
0.128958
0.0826661
0.0524753
0.033509
0.0183237
0.00920436
0.00457215
0.00206261
0.00128665
0.000781776
0.000924373
0.00216478
0.00940318
0.0542378
0.2626
0.64499
0.976712
0.999939
0.761849
0.535038
0.587383
0.613922
0.519388
0.31139
0.162475
0.0892317
0.0229847
0.00277028
0.00171454
0.00256066
0.00458835
0.00967405
0.0220005
0.0694924
0.249659
0.507481
0.710423
0.788786
0.774985
0.656132
0.56201
0.464472
0.54638
0.678163
0.876641
0.963322
0.999782
1
0.999999
0.998916
0.861463
0.378638
0.0445075
0.00623557
0.000586048
0.0001495
0.000138898
0.000171636
0.000652652
0.000670097
0.00374546
0.0313342
0.0613519
0.155149
0.314133
0.507449
0.703154
0.852058
0.95549
0.990685
0.999049
0.999987
1
1
1
1
1
1
0.999322
0.977638
0.799403
0.377218
0.233196
0.156279
0.158954
0.229561
0.352426
0.514219
0.690938
0.834661
0.911579
0.93289
0.920116
0.847536
0.666692
0.366483
0.118438
0.0291797
0.0109829
0.00189284
0.0143633
0.071686
0.306438
0.70192
0.935085
0.994877
0.999995
0.98615
0.915006
0.822058
0.638259
0.495881
0.376774
0.320916
0.301525
0.326795
0.400571
0.467681
0.576705
0.648957
0.709249
0.711416
0.659217
0.527433
0.314644
0.125973
0.0360188
0.00547048
0.00148232
0.000979237
0.000927081
0.00114425
0.00224932
0.0122691
0.0655558
0.204174
0.652514
0.843985
0.89841
0.912395
0.82392
0.776988
0.766136
0.770226
0.809588
0.853072
0.902841
0.943069
0.97005
0.985252
0.992409
0.994296
0.993752
0.991633
0.986682
0.979243
0.973322
0.986428
0.994257
0.999457
0.999992
1
1
1
1
1
1
1
0.99977
0.948238
0.707128
0.662586
0.67345
0.661671
0.744403
0.927563
0.969906
0.978147
0.982015
0.986458
0.986874
0.989116
0.994098
0.999191
0.99999
1
1
1
1
1
1
1
1
1
1
1
1
1
1
1
1
1
1
1
1
1
1
1
1
1
1
1
0.999642
0.944645
0.389276
0.0974135
0.0530351
0.0655292
0.0861888
0.180337
0.241678
0.376612
0.473073
0.542437
0.604804
0.604455
0.571091
0.506898
0.464245
0.402457
0.462084
0.533512
0.706877
0.893625
0.975069
0.986653
0.989373
0.994389
0.993831
0.986589
1
0.999984
0.909127
0.324174
0.2032
0.380583
0.645146
0.74266
0.708788
0.638566
0.523377
0.43452
0.32596
0.247278
0.186391
0.145231
0.118447
0.124149
0.0889457
0.115711
0.0905948
0.179991
0.220535
0.473268
0.627452
0.911256
0.999331
1
1
1
1
0.999956
0.99332
0.980579
0.943158
0.84957
0.728047
0.568172
0.471027
0.271011
0.17064
0.110836
0.10051
0.0638284
0.0517559
0.0431142
0.0359742
0.0350891
0.0319428
0.0294337
0.0197337
0.00947448
0.00357343
0.0087405
0.034811
0.15884
0.690286
0.970366
0.990067
0.98082
0.999967
0.711185
0.00438719
0.001654
0.000923621
0.000526772
0.000283997
0.000155212
7.58561e-05
4.54753e-05
5.16287e-05
0.000130864
0.00044638
0.000579532
0.00230217
0.0024363
0.00401542
0.00413102
0.0144902
0.0228552
0.114541
0.218449
0.477652
0.661338
0.778921
0.833632
0.869231
0.946554
0.991695
0.999619
0.999979
0.997339
0.99703
0.996621
0.975631
0.935003
0.909063
0.896597
0.877154
0.854511
0.770135
0.795303
0.703578
0.69346
0.64889
0.475081
0.427696
0.279512
0.141679
0.123412
0.054799
0.0584513
0.0341777
0.0510835
0.0406214
0.0650744
0.0640565
0.0737957
0.0717777
0.0710772
0.627397
0.998821
0.884113
0.733113
0.751985
0.808821
0.788104
0.737757
0.65279
0.494499
0.282932
0.136446
0.0894662
0.0834119
0.0977412
0.114655
0.11346
0.0956755
0.0687651
0.0465843
0.0289882
0.0172422
0.00898627
0.0040957
0.00258057
0.00201298
0.00371751
0.0186874
0.131957
0.401437
0.957606
0.995588
0.455079
0.452382
0.322065
0.358182
0.14942
0.0667792
0.0332845
0.0255681
0.00660682
0.00159595
0.00165527
0.00243184
0.00407861
0.00747041
0.0146604
0.0303296
0.0637406
0.123919
0.291169
0.436044
0.361295
0.217138
0.143206
0.176088
0.20313
0.436741
0.705155
0.883237
0.998891
1
0.99988
0.957033
0.580038
0.142335
0.00817039
0.0028047
0.000106967
0.000137149
8.37632e-05
9.62389e-05
0.000556654
0.00128424
0.00311066
0.0276893
0.0843841
0.173436
0.311747
0.478468
0.563977
0.693289
0.826446
0.92872
0.975673
0.997673
0.999987
1
1
1
1
0.999995
0.988155
0.893666
0.572026
0.247553
0.207577
0.138237
0.135085
0.161987
0.21419
0.313706
0.504059
0.695483
0.759281
0.668754
0.429543
0.133397
0.0202196
0.0059625
0.00107334
0.000188563
5.72148e-05
2.87432e-05
5.33611e-05
0.000284694
0.00380164
0.230614
0.783657
0.97517
0.999982
0.973494
0.783739
0.657083
0.514902
0.364647
0.214344
0.149325
0.145874
0.191279
0.358365
0.455622
0.535314
0.529049
0.487193
0.427282
0.277561
0.119982
0.0203413
0.0041398
0.00114747
0.000287022
0.000103743
5.21699e-05
8.79653e-05
0.000188438
0.000504663
0.00124709
0.00837998
0.0651195
0.539814
0.758634
0.830453
0.774015
0.720393
0.719912
0.74237
0.740899
0.770139
0.80384
0.839196
0.871481
0.896704
0.912082
0.917213
0.917389
0.923534
0.931409
0.929653
0.944314
0.954551
0.969644
0.983448
0.995904
0.999572
0.999992
1
1
1
1
1
1
0.970011
0.736884
0.621313
0.710205
0.81643
0.924407
0.923282
0.905374
0.880905
0.858159
0.847968
0.835874
0.820283
0.828758
0.874435
0.934393
0.986806
0.999581
1
1
1
1
1
1
1
1
1
1
1
1
1
1
1
1
1
1
1
1
1
1
1
1
1
1
0.990546
0.559639
0.0925796
0.0674638
0.165952
0.427866
0.695838
0.862053
0.921457
0.947664
0.971193
0.981414
0.986334
0.988684
0.983752
0.962195
0.903858
0.756547
0.63194
0.575146
0.672471
0.870218
0.967737
0.986351
0.979871
0.985518
0.985885
0.950152
1
0.999751
0.645275
0.0832969
0.0757952
0.335406
0.683048
0.760959
0.679499
0.536834
0.437147
0.319166
0.248329
0.17965
0.132473
0.10214
0.0889052
0.0924391
0.0876464
0.107153
0.0944244
0.153344
0.192611
0.325657
0.458869
0.681956
0.957036
0.999981
1
1
1
0.999963
0.994338
0.96541
0.875794
0.754981
0.595571
0.474965
0.37123
0.274626
0.197926
0.17632
0.0959014
0.0834821
0.077672
0.0747703
0.0756939
0.0716613
0.0781192
0.0755222
0.0563513
0.0247708
0.00568815
0.00426973
0.0137469
0.0561555
0.269826
0.819003
0.964611
0.968314
0.999822
0.462065
0.00238422
0.00232762
0.00243872
0.00214503
0.00148414
0.000932221
0.000551589
0.000395147
0.000827266
0.00528969
0.0173498
0.0389507
0.0442018
0.0678701
0.043871
0.0497097
0.0479477
0.0643889
0.126038
0.303559
0.47595
0.683135
0.787933
0.796637
0.80464
0.851545
0.959165
0.996748
0.999885
0.994586
0.988443
0.964149
0.916313
0.904572
0.894729
0.85596
0.723573
0.560051
0.561234
0.441297
0.49327
0.477512
0.413291
0.458713
0.411056
0.318556
0.328966
0.19501
0.210157
0.11322
0.147936
0.0797993
0.0961484
0.0833469
0.116079
0.12501
0.0813295
0.0541367
0.568459
0.996379
0.788881
0.684301
0.766827
0.771715
0.734743
0.648483
0.439406
0.203007
0.106539
0.090625
0.12069
0.176347
0.205495
0.196129
0.159323
0.117919
0.0834933
0.0643654
0.0543307
0.0474187
0.0383745
0.0277626
0.0162025
0.00855109
0.00677181
0.0127427
0.0785982
0.262786
0.933797
0.968389
0.393697
0.30545
0.242401
0.151598
0.0368143
0.015353
0.0244658
0.0360272
0.0248179
0.00739536
0.00174641
0.00276937
0.00458531
0.007808
0.0125964
0.0211289
0.0376056
0.0723696
0.120843
0.175331
0.133195
0.0397688
0.0419822
0.0369105
0.124676
0.28555
0.554167
0.746675
0.997301
1
0.997444
0.846089
0.436176
0.0984801
0.0060219
0.00175712
0.000162323
0.00012255
0.000131415
0.00015645
0.000321999
0.00173344
0.00254382
0.013194
0.0737424
0.155026
0.315765
0.418786
0.509245
0.587155
0.704829
0.841931
0.922655
0.973273
0.998917
0.999993
1
1
1
0.999815
0.947063
0.811109
0.524104
0.393932
0.429947
0.385398
0.310511
0.216539
0.172927
0.188508
0.331087
0.506082
0.454739
0.180166
0.0232355
0.0069329
0.000574448
4.33836e-05
3.63851e-05
9.23343e-06
5.74761e-06
2.58706e-07
2.36955e-07
1.89272e-06
0.000169435
0.00525051
0.42257
0.885627
0.999938
0.974372
0.62932
0.531393
0.437529
0.336697
0.260379
0.170775
0.094664
0.10382
0.262699
0.433482
0.466336
0.379021
0.297745
0.188441
0.0799301
0.0157513
0.0038505
0.00137122
0.000308779
4.95173e-05
8.47217e-06
2.87923e-06
1.21367e-06
3.59711e-06
2.5314e-05
0.000166611
0.000819849
0.0125344
0.458526
0.855681
0.705076
0.636829
0.672102
0.706239
0.713139
0.72471
0.721578
0.738861
0.75098
0.755848
0.742287
0.693478
0.638215
0.631652
0.65989
0.662457
0.687292
0.803475
0.895246
0.946958
0.975964
0.993142
0.998764
0.99993
1
1
1
1
1
0.999987
0.73736
0.5227
0.657398
0.810575
0.91909
0.882515
0.821417
0.761492
0.70558
0.667464
0.639012
0.605679
0.605076
0.629363
0.681726
0.790623
0.890724
0.976726
0.999513
1
1
1
1
1
1
1
1
1
1
1
1
0.999998
0.999997
1
1
1
1
1
1
1
1
1
1
0.999999
0.752853
0.128637
0.0684525
0.155261
0.439855
0.78921
0.941973
0.979529
0.991985
0.997062
0.999037
0.999858
0.999967
0.999968
0.999935
0.999625
0.995998
0.967711
0.847399
0.686001
0.686386
0.826007
0.952837
0.982512
0.977475
0.971663
0.975091
0.891607
0.99999
0.998923
0.542813
0.0233276
0.0138287
0.259102
0.656819
0.59366
0.479902
0.423871
0.355297
0.355423
0.366033
0.351556
0.33721
0.306911
0.265971
0.221714
0.179056
0.173639
0.140697
0.182012
0.179497
0.283797
0.337284
0.511631
0.813457
0.997613
1
1
1
0.99993
0.991581
0.934564
0.798916
0.568472
0.390875
0.275456
0.184219
0.177622
0.127193
0.146415
0.178543
0.227131
0.218256
0.186486
0.164909
0.16481
0.141631
0.129684
0.0985772
0.0518997
0.0120764
0.00351204
0.00824455
0.0331356
0.12541
0.515717
0.808874
0.923853
0.999363
0.353412
0.00457824
0.00716675
0.00908934
0.00840971
0.00604203
0.0039545
0.00290498
0.00284108
0.00451454
0.0548558
0.16956
0.277675
0.29423
0.249538
0.274368
0.183425
0.210251
0.158035
0.26892
0.383383
0.603194
0.720142
0.811482
0.816539
0.746174
0.804486
0.903097
0.985779
0.999465
0.982152
0.929056
0.8853
0.84521
0.871574
0.85358
0.670187
0.438675
0.388104
0.244342
0.262456
0.217118
0.21605
0.310265
0.339641
0.345751
0.454738
0.320498
0.3869
0.252643
0.315493
0.153371
0.208861
0.176214
0.190637
0.187642
0.146323
0.0997801
0.0424895
0.551006
0.990922
0.668393
0.659569
0.720199
0.698921
0.646549
0.482044
0.234776
0.134245
0.119012
0.165507
0.215175
0.239144
0.225649
0.191195
0.144409
0.0951313
0.0618668
0.0529666
0.0587908
0.0693575
0.0753131
0.076877
0.0653581
0.0408679
0.0196597
0.0176012
0.0612023
0.188161
0.911184
0.868589
0.318549
0.169129
0.143283
0.045758
0.0143481
0.0150228
0.0329784
0.0883393
0.109039
0.0339326
0.0134857
0.00606208
0.00569208
0.0088859
0.0133722
0.0172598
0.0239972
0.042238
0.0783473
0.110387
0.0756606
0.0103693
0.00503863
0.0220649
0.0874584
0.343768
0.488993
0.54965
0.994168
0.999999
0.980092
0.726854
0.345377
0.121048
0.00975915
0.00280441
0.00032162
0.000344688
0.000471018
0.000425994
0.00243379
0.00340156
0.00631948
0.0201481
0.0432857
0.16931
0.274368
0.389569
0.454722
0.502498
0.632144
0.733071
0.753835
0.839135
0.970039
0.99957
0.999968
0.999999
1
0.998507
0.85446
0.734946
0.613926
0.652285
0.758779
0.768035
0.657795
0.409625
0.184805
0.132008
0.201074
0.321896
0.197993
0.0274257
0.0081812
0.000468355
8.31056e-05
0.000220042
0.000226514
0.000286214
7.06527e-05
2.78223e-05
2.43556e-06
2.19534e-07
7.20578e-06
0.00203575
0.0987508
0.61853
0.999769
0.964416
0.419038
0.411609
0.457861
0.590234
0.570664
0.317325
0.138002
0.0820853
0.245799
0.426818
0.394399
0.270646
0.174814
0.0881751
0.0319274
0.00486065
0.00282977
0.00154829
0.000556204
0.000112507
1.48472e-05
2.13559e-06
6.82401e-07
2.96034e-07
6.14631e-07
6.73973e-06
9.55827e-05
0.00178418
0.34686
0.889636
0.537446
0.513561
0.609034
0.702304
0.730895
0.716567
0.706269
0.671266
0.654853
0.61409
0.525562
0.418945
0.369909
0.367277
0.341456
0.340332
0.476331
0.671721
0.762899
0.902246
0.968146
0.988426
0.996513
0.999535
0.999981
1
1
1
1
0.998799
0.363042
0.425884
0.582203
0.893704
0.861052
0.79052
0.694635
0.62642
0.584947
0.540006
0.512725
0.538782
0.56225
0.566452
0.571314
0.585261
0.693677
0.852727
0.979791
0.999985
1
1
1
1
1
1
1
1
1
1
0.999989
0.999989
0.999997
1
1
1
1
1
1
1
1
1
1
0.999394
0.15061
0.0353537
0.0780537
0.259989
0.5938
0.843094
0.944411
0.975354
0.988141
0.996924
0.999754
0.999993
1
1
0.999999
0.999984
0.99939
0.989058
0.920743
0.781808
0.772584
0.870843
0.958433
0.980436
0.960264
0.939862
0.932338
0.728834
0.999408
0.998057
0.612289
0.0324987
0.0135664
0.216241
0.621464
0.466056
0.358207
0.415639
0.566402
0.680772
0.745458
0.782146
0.793222
0.770239
0.691285
0.560981
0.406968
0.283118
0.218467
0.16022
0.173879
0.17832
0.261238
0.359521
0.653792
0.972765
1
1
1
0.999791
0.985557
0.893092
0.634314
0.35506
0.180703
0.10665
0.0463843
0.0507229
0.0630153
0.153935
0.296402
0.376066
0.403456
0.359132
0.341149
0.276871
0.247949
0.16827
0.13532
0.0751497
0.0185773
0.00511815
0.00710839
0.0288592
0.121598
0.320259
0.572718
0.821533
0.99896
0.35452
0.0143123
0.0220591
0.0257881
0.0223128
0.0151985
0.00829383
0.00558836
0.00746141
0.0254382
0.338271
0.756305
0.789699
0.767833
0.695029
0.530253
0.557141
0.340546
0.461148
0.429992
0.61146
0.71063
0.834582
0.837572
0.819723
0.716975
0.684705
0.805475
0.959075
0.998913
0.930651
0.830014
0.751162
0.797282
0.85934
0.700451
0.439633
0.31955
0.147772
0.12355
0.0665
0.092607
0.0989284
0.138101
0.172383
0.304229
0.234404
0.321709
0.246681
0.36259
0.233867
0.485731
0.433863
0.397838
0.339654
0.222715
0.172589
0.092854
0.0310892
0.574319
0.979904
0.557229
0.614132
0.635173
0.606323
0.517045
0.332234
0.195722
0.168007
0.19858
0.236131
0.251386
0.25094
0.233077
0.197748
0.150721
0.0907662
0.0467328
0.0379804
0.0577343
0.0951288
0.140311
0.190014
0.206026
0.141607
0.0531151
0.0300301
0.069402
0.162078
0.888587
0.826503
0.218864
0.0849831
0.0573094
0.0240099
0.00630502
0.0198821
0.0897667
0.189847
0.165861
0.157069
0.0400705
0.034473
0.0248149
0.0136131
0.0143366
0.0176263
0.0186824
0.0253744
0.0545745
0.083106
0.0541715
0.00432927
0.00342655
0.00939624
0.0951366
0.407226
0.534194
0.499554
0.995082
0.999978
0.921651
0.604209
0.282907
0.125222
0.0345418
0.0104962
0.00286844
0.00582293
0.00533225
0.00759277
0.0352384
0.017421
0.0390261
0.0349534
0.0649015
0.14643
0.284081
0.383834
0.422186
0.46329
0.489073
0.305121
0.258147
0.307684
0.545989
0.905162
0.997572
0.996444
1
0.991453
0.694677
0.650101
0.654937
0.797893
0.867301
0.888974
0.879221
0.670099
0.233298
0.089668
0.139856
0.23061
0.113011
0.0119268
0.0042755
0.000251543
0.000397781
0.000951721
0.00231023
0.00677735
0.0023646
0.000493081
2.02447e-05
1.32695e-06
3.87324e-06
0.000733376
0.0252526
0.309392
0.999112
0.938813
0.218838
0.308724
0.54368
0.829488
0.889463
0.642007
0.183738
0.0926732
0.2795
0.417156
0.313409
0.193459
0.119763
0.0444884
0.0118612
0.00193092
0.00171864
0.0013001
0.000738874
0.00026928
7.07503e-05
1.33907e-05
2.19167e-06
5.50032e-07
2.54733e-07
3.60685e-07
6.5572e-06
0.000264004
0.32977
0.861119
0.337909
0.46245
0.611266
0.699323
0.725351
0.741598
0.711933
0.63861
0.542597
0.466005
0.384328
0.278676
0.207565
0.2066
0.161289
0.120801
0.213746
0.493811
0.766383
0.864324
0.957893
0.987691
0.996333
0.999225
0.999936
1
1
1
1
0.984351
0.153811
0.431414
0.793644
0.856985
0.791078
0.687044
0.609792
0.54538
0.50351
0.52721
0.614689
0.63927
0.656856
0.63167
0.582792
0.571245
0.598331
0.695144
0.869714
0.997092
1
1
1
1
1
1
1
1
1
1
0.999966
0.999992
1
1
1
1
1
1
1
1
1
1
1
0.988789
0.0901789
0.0210655
0.0719394
0.313411
0.630406
0.79633
0.880588
0.925399
0.949542
0.975779
0.997607
0.99998
1
1
1
0.99999
0.999511
0.98815
0.936261
0.853238
0.833553
0.904912
0.968606
0.980759
0.958962
0.91823
0.902979
0.661277
0.996239
0.993708
0.436497
0.0121438
0.0113206
0.192365
0.586275
0.390522
0.355671
0.506591
0.703355
0.775708
0.827288
0.845749
0.881482
0.905613
0.899352
0.814402
0.59188
0.370858
0.198933
0.151826
0.113459
0.122417
0.170542
0.285498
0.51642
0.922979
0.999995
1
1
0.99978
0.984553
0.827226
0.46253
0.19715
0.088431
0.035803
0.0169534
0.0069575
0.00919759
0.0538831
0.15821
0.423867
0.578965
0.629714
0.462887
0.352537
0.273273
0.184044
0.124752
0.0501877
0.0170317
0.00493448
0.00851407
0.0408951
0.183932
0.391899
0.508727
0.751587
0.997907
0.380565
0.0258183
0.033671
0.0351826
0.0322454
0.0214469
0.0098882
0.00453291
0.00540314
0.0222485
0.494671
0.904189
0.965143
0.953878
0.91962
0.763912
0.780011
0.604571
0.643823
0.74853
0.778754
0.870636
0.884708
0.888802
0.827388
0.742164
0.722334
0.78702
0.927142
0.996557
0.836671
0.479635
0.517299
0.812306
0.76159
0.54943
0.378482
0.165805
0.0975043
0.0333502
0.0321023
0.0181075
0.0441233
0.0539944
0.136116
0.0987606
0.13669
0.113673
0.256221
0.224055
0.572781
0.600454
0.72143
0.614453
0.342075
0.248108
0.164394
0.0829487
0.0193113
0.664128
0.961057
0.442051
0.52176
0.527475
0.501745
0.40934
0.293469
0.239261
0.250102
0.268631
0.281924
0.282551
0.27008
0.243474
0.199486
0.15151
0.0999946
0.0403646
0.0233526
0.0480436
0.126867
0.249181
0.374735
0.392843
0.279858
0.115924
0.0638936
0.101026
0.156049
0.806429
0.786277
0.141466
0.0478424
0.0300677
0.0121454
0.00843632
0.0280155
0.124949
0.238436
0.392059
0.315984
0.122574
0.0821552
0.0555585
0.0404373
0.0157667
0.0186678
0.0174043
0.0165613
0.0417751
0.0718912
0.0490203
0.00288075
0.00111328
0.0273104
0.40374
0.712679
0.636833
0.480133
0.996185
0.999672
0.789549
0.473109
0.228325
0.118002
0.0727335
0.0403578
0.0198978
0.0653324
0.0518376
0.0868483
0.200018
0.115127
0.156974
0.0651828
0.100355
0.144343
0.312542
0.408136
0.440792
0.440796
0.187261
0.0755776
0.0434861
0.0441209
0.0822405
0.296937
0.871414
0.89526
1
0.966512
0.469716
0.514943
0.628161
0.840334
0.949421
0.981377
0.952767
0.828853
0.301417
0.0686778
0.088685
0.212953
0.0931236
0.0109142
0.00451647
0.00034924
0.00119192
0.00349898
0.0237234
0.0964866
0.0506853
0.00180917
3.47989e-05
4.85349e-06
1.37995e-05
0.0015809
0.0176644
0.183512
0.999702
0.859845
0.093392
0.210872
0.605869
0.933552
0.979297
0.847407
0.251914
0.102285
0.363106
0.407406
0.272047
0.173962
0.0760026
0.02309
0.00190864
0.00061829
0.00051505
0.000395335
0.000322973
0.000193723
0.000120248
5.30866e-05
1.86645e-05
4.22606e-06
5.22576e-07
1.1127e-06
4.29731e-06
0.000140241
0.215729
0.776997
0.247407
0.360002
0.527933
0.641203
0.762579
0.775246
0.694931
0.556111
0.448926
0.357143
0.266302
0.121071
0.0700007
0.111833
0.1329
0.0526236
0.069156
0.300366
0.714023
0.851094
0.943854
0.985255
0.995704
0.99865
0.999727
0.999993
1
1
1
0.892629
0.0988677
0.393364
0.851816
0.80022
0.718307
0.621682
0.530037
0.504006
0.558213
0.697766
0.764968
0.821605
0.809204
0.782914
0.739516
0.643594
0.540522
0.54432
0.739278
0.954488
1
1
1
1
1
1
1
1
1
1
0.999977
0.999997
1
1
1
1
1
1
1
1
1
1
1
0.991534
0.0860775
0.00979091
0.062411
0.339255
0.631608
0.77994
0.861096
0.872549
0.887377
0.899332
0.962467
0.999121
0.999999
1
1
0.999997
0.999721
0.993198
0.960869
0.917581
0.919528
0.960201
0.984948
0.986086
0.954504
0.901145
0.860103
0.524616
0.961988
0.979676
0.318369
0.0266574
0.0139563
0.170848
0.67046
0.472202
0.436667
0.539985
0.629842
0.675288
0.743616
0.840516
0.916842
0.964316
0.982358
0.987208
0.97521
0.884839
0.611498
0.305282
0.206274
0.135908
0.165915
0.248258
0.458684
0.869689
0.999991
1
1
0.999235
0.963176
0.732627
0.304288
0.109182
0.0488925
0.0243513
0.00551359
0.00098221
0.00188487
0.00392221
0.0336545
0.0955859
0.255462
0.380916
0.344012
0.223719
0.142575
0.0740244
0.0350454
0.0143615
0.00505722
0.00424266
0.0145534
0.078334
0.314694
0.533946
0.350594
0.468676
0.986708
0.342315
0.0278864
0.0330125
0.0335254
0.0309866
0.0216684
0.00789685
0.00275269
0.00234031
0.0156217
0.361679
0.809969
0.896868
0.92537
0.889872
0.812358
0.835546
0.744737
0.856772
0.825845
0.921208
0.905648
0.918504
0.856201
0.792404
0.665378
0.629679
0.711509
0.888348
0.991619
0.705388
0.311212
0.58857
0.757078
0.687556
0.56612
0.27262
0.173284
0.057464
0.0280443
0.00801846
0.0125403
0.0170739
0.0338129
0.0475141
0.0416394
0.0710741
0.0997179
0.118791
0.380533
0.379171
0.642456
0.746623
0.471271
0.275357
0.211515
0.131919
0.0626559
0.0123182
0.77895
0.928824
0.328525
0.420376
0.432274
0.417603
0.36337
0.320504
0.312053
0.316334
0.317903
0.320446
0.316577
0.297103
0.253256
0.200018
0.174568
0.107593
0.0447695
0.0136617
0.0312506
0.132068
0.321132
0.449804
0.452094
0.352926
0.202911
0.133985
0.156807
0.140639
0.547409
0.708152
0.0772683
0.0313942
0.0191397
0.00847769
0.00791632
0.0411508
0.146493
0.420362
0.533518
0.641123
0.444557
0.24189
0.0857354
0.0574208
0.036246
0.0201284
0.0184268
0.0121166
0.034324
0.0761802
0.052021
0.0028906
0.00260604
0.121582
0.671884
0.875088
0.719263
0.407778
0.999397
0.994965
0.616403
0.366665
0.174323
0.111497
0.0921695
0.0939356
0.106151
0.180045
0.278954
0.400058
0.574669
0.371494
0.283337
0.168593
0.117253
0.192088
0.388053
0.459489
0.455816
0.364299
0.0662248
0.0188125
0.00906571
0.00881785
0.0151031
0.0476617
0.276628
0.509015
0.999814
0.878048
0.237566
0.376961
0.560612
0.832335
0.944682
0.989841
0.985025
0.903475
0.423156
0.0714575
0.0927921
0.251028
0.0899758
0.011325
0.00592548
0.000890879
0.00315525
0.0101057
0.146529
0.46513
0.303268
0.0201533
0.000388469
0.000131181
0.000758837
0.0106572
0.0168707
0.0626701
0.9993
0.870929
0.0371155
0.192474
0.633466
0.953176
0.994641
0.938431
0.277358
0.151072
0.474579
0.44277
0.277168
0.170238
0.0456831
0.00839891
0.000203388
7.14354e-05
4.51324e-05
6.18793e-05
6.29148e-05
9.14678e-05
0.00012143
0.000133251
0.00010506
3.24056e-05
1.39157e-05
7.81995e-06
2.34476e-05
0.000146231
0.463225
0.779488
0.129616
0.245715
0.460862
0.720209
0.839871
0.849024
0.759749
0.628143
0.465438
0.355802
0.245912
0.115186
0.0574124
0.116976
0.137484
0.0461887
0.0382438
0.126045
0.414097
0.70152
0.900257
0.975509
0.993236
0.997579
0.999225
0.999954
1
1
1
0.753707
0.0884778
0.597762
0.832186
0.777389
0.670754
0.572488
0.536193
0.591472
0.7189
0.79271
0.848348
0.875959
0.891662
0.847225
0.79095
0.70304
0.572944
0.531572
0.59749
0.878203
0.999819
1
1
1
1
1
1
1
1
1
0.999985
0.999999
1
1
1
1
1
1
1
1
1
1
0.999997
1
1
0.992249
0.213323
0.0104614
0.0774169
0.359104
0.633131
0.807523
0.857853
0.8723
0.840549
0.823322
0.839589
0.971816
0.999873
1
1
0.999999
0.999945
0.998776
0.991453
0.981991
0.983524
0.992328
0.994652
0.990263
0.959791
0.903694
0.821644
0.333066
0.123875
0.726796
0.856002
0.533592
0.0626533
0.0271581
0.0363789
0.135146
0.735207
0.648866
0.567551
0.593108
0.618872
0.643119
0.663394
0.69938
0.762811
0.846383
0.924008
0.967821
0.984061
0.985586
0.968204
0.858653
0.538245
0.343574
0.262688
0.282483
0.440325
0.873323
0.999994
0.999982
0.98906
0.997019
0.982825
0.812284
0.801005
0.512525
0.185414
0.0596685
0.0382825
0.0219202
0.00373606
0.000666393
0.000112492
0.000246855
0.000936219
0.00618205
0.01257
0.0265629
0.0173558
0.0186531
0.0119549
0.00502921
0.00201866
0.00128166
0.00177432
0.00450953
0.01637
0.0572454
0.0702083
0.0240067
0.00939875
0.0469491
0.239395
0.172597
0.134118
0.0260061
0.0316716
0.0315573
0.0284441
0.0238514
0.0144924
0.00435239
0.00119679
0.000963338
0.00709854
0.156818
0.416952
0.608458
0.602592
0.606662
0.648264
0.694853
0.699079
0.817369
0.850956
0.856739
0.895683
0.83482
0.824583
0.727032
0.705303
0.681739
0.748186
0.86317
0.912379
0.868414
0.458783
0.0540089
0.0875992
0.426717
0.668181
0.671455
0.450321
0.321037
0.149847
0.0858254
0.0202069
0.0096588
0.00725825
0.0113449
0.0228436
0.0206851
0.0296327
0.0232952
0.0622162
0.0877944
0.237997
0.250887
0.292475
0.263519
0.256992
0.153505
0.150884
0.0825387
0.0273678
0.00968886
0.214343
0.933518
0.858671
0.254627
0.243189
0.325396
0.356161
0.365678
0.35722
0.357146
0.364417
0.364717
0.367431
0.361977
0.352199
0.322011
0.343117
0.360342
0.329965
0.156448
0.0674005
0.0103864
0.0152753
0.0841741
0.263714
0.378345
0.390429
0.348399
0.272361
0.21209
0.155126
0.0372385
0.00772627
0.344331
0.420206
0.0404799
0.0469404
0.0416986
0.0412514
0.0236451
0.0203525
0.055409
0.170454
0.458138
0.634342
0.833758
0.655567
0.33897
0.0973551
0.0703049
0.0466396
0.0229201
0.0204251
0.0112997
0.035978
0.0950509
0.0662476
0.00395713
0.0078854
0.252288
0.714436
0.901285
0.764028
0.521339
0.696142
0.947054
0.444907
0.155873
0.296833
0.265054
0.160423
0.105413
0.0803631
0.15293
0.176592
0.354272
0.412627
0.669437
0.7185
0.440535
0.340234
0.222596
0.172807
0.258991
0.48536
0.578208
0.515527
0.309001
0.0370383
0.00856816
0.00386648
0.00432438
0.0073454
0.0110552
0.027104
0.0512804
0.122519
0.7688
0.613533
0.00841248
0.0838927
0.238147
0.483187
0.786932
0.975378
0.996456
0.989746
0.92578
0.473604
0.101976
0.105565
0.363581
0.137649
0.0229353
0.00755467
0.00255171
0.00604301
0.0209947
0.254064
0.678065
0.665188
0.220274
0.00764711
0.0048374
0.0101699
0.0178665
0.0502289
0.209758
0.805246
0.99384
0.827657
5.54165e-05
0.002668
0.127393
0.623228
0.960959
0.997039
0.943942
0.281669
0.315374
0.625609
0.49151
0.347156
0.192919
0.0276406
0.00149942
2.17307e-05
2.37923e-06
1.99162e-06
3.96255e-06
8.77083e-06
2.40012e-05
7.56258e-05
0.000212893
0.000200462
5.92193e-05
7.2335e-05
4.96531e-05
5.31911e-05
0.00063253
0.0360666
0.914141
0.802719
0.020292
0.0751469
0.229538
0.496685
0.651686
0.842436
0.956016
0.944075
0.708964
0.417584
0.270957
0.195199
0.0939233
0.0181337
0.0379459
0.155607
0.186275
0.0701233
0.0898417
0.214014
0.502829
0.846713
0.958429
0.985394
0.994175
0.998488
0.999884
0.999998
0.999999
0.981613
0.95491
0.302017
0.00301106
0.1416
0.769984
0.829095
0.753069
0.675638
0.603889
0.586447
0.665323
0.782126
0.89253
0.963444
0.995479
0.993326
0.962626
0.860841
0.767022
0.636347
0.503089
0.585266
0.794126
0.996283
1
1
1
1
1
1
1
1
1
1
1
0.999996
0.999999
1
1
1
1
1
1
0.999995
0.999507
0.9998
0.999998
0.999958
0.999943
0.999929
0.991178
0.223554
0.0352008
0.13591
0.358578
0.618759
0.76766
0.847667
0.865731
0.812777
0.737077
0.697991
0.785828
0.976503
0.999932