/*--------------------------------*- C++ -*----------------------------------*\
| =========                 |                                                 |
| \\      /  F ield         | OpenFOAM: The Open Source CFD Toolbox           |
|  \\    /   O peration     | Version:  2.1.1                                 |
|   \\  /    A nd           | Web:      www.OpenFOAM.org                      |
|    \\/     M anipulation  |                                                 |
\*---------------------------------------------------------------------------*/
FoamFile
{
    version     2.0;
    format      ascii;
    class       volScalarField;
    location    "0.004200000";
    object      rhoEu;
}
// * * * * * * * * * * * * * * * * * * * * * * * * * * * * * * * * * * * * * //

dimensions      [1 -1 -2 0 0 0 0];

internalField   nonuniform List<scalar> 
12384
(
662341
632911
634292
615103
627415
639860
687513
704574
754483
840455
920351
913889
600909
90876.8
11634.9
148302
174701
160952
136607
109862
107795
86568.1
112280
109335
128340
143912
157162
166835
168348
170601
163953
168546
164873
161063
155030
154697
105721
41653.6
60041.2
112927
107498
43288
-24098.8
-18259.4
95422.1
102028
95940.3
86837.1
90921
103548
119206
134843
148448
153844
162759
155170
165985
153248
161485
137551
138505
101959
97514.3
72726.5
76694.4
45854.3
109646
201835
342154
372307
372281
309594
212293
125563
-72155.3
-70318.4
-60349.3
-45508.4
-32929.6
-17035.7
-10763.5
-2518.2
12703.9
-1338.86
-17.6522
246.542
-14977.9
-17199.1
-31918.8
-46825
-62951.3
-78657.3
-90862.5
-98826.4
-108791
-127558
-128400
-85637.6
-66356.9
-69214.9
-62732.9
-69763.7
-67530.2
-72465.9
-102019
-101015
-101490
-98741.1
-88491.9
-76566.7
-63753.8
-48597.9
-32005.6
-23781.6
-3258.28
-232.608
2721.24
19292.3
9991.95
18960.5
4965.32
9579.25
-12149.8
-14721.8
-22550
-23726.8
-9350.85
-29098
-18254.6
-99.9836
-13097.9
-18022.6
-21712.8
-27593.4
-94634.4
-80563.4
-13755.4
22976
40399.5
18855.9
7549.98
-16969.1
-40814
-52362.3
-48155.3
-65865.7
-58573.2
-72823.7
-77458.4
-69305.9
-87280.8
-79605.9
-80844.3
-84839.3
-77868.5
-80175.7
-76646.1
-78285.5
-79081.1
-85369.5
-82705.1
-96229.6
-108958
-97726.7
-188702
-194505
-215821
-226386
-221845
-189236
-177321
-171865
-173341
-175766
-174121
-179612
-181143
-183382
-188190
-186552
-183775
-175623
-167875
-158165
-146040
-137336
-133132
-134779
-140802
-148335
-156856
-161835
-234621
-393736
-58350.8
-84376.1
-123678
-158306
-128354
-27397
-2118.41
-577.138
17747.3
11043.5
-10901.6
-50875.6
-30256.2
-60864.8
-49660.3
-50754
-46637.9
-44191.9
-44331.3
-45016.7
-46099.1
-44452.6
-45162.4
-41589.6
-27664.7
-18762.1
-6256.64
-6589.38
-7238.28
-22182.7
169075
177719
89127.2
-52142.2
-10619.6
-7439.8
25080.6
1063.14
37964.5
24892.3
37035
39094.8
25125.8
15400.7
26548.6
312.848
506.024
-6609.56
-7096.27
-9907.16
-10033.8
-13807
-19354.3
-35172
-50898.2
-98489.1
-125956
-157594
-66230.1
-58483.3
274967
223498
298526
291868
264595
284258
239318
251886
244712
239019
228318
218240
208184
198167
189793
180171
173993
167452
164579
155691
153399
175164
165657
174211
195767
189292
208324
210122
226060
264402
-27718.9
36798.1
166295
155425
149958
143060
98665.2
96878.3
43137.6
40013.6
14600.7
7773.12
8418.44
4729.61
14420.3
13141
27794.4
28093.3
22963
34835.7
4187.43
16725.7
-17341.1
-14342.7
-34128.1
-48768.5
-55123.5
-64002.5
-75031
-95325
-234856
-135331
89517.4
123020
125074
164055
174005
188886
197834
202267
202144
198747
192931
184332
174396
160839
142382
128555
111523
93152.5
78451.1
53254.7
49665.6
902.27
-84027.3
-111278
-44022.8
-50132.6
-74949.8
-90119.1
-240503
-112191
43932.1
64933.6
61743.9
23388.1
-3255.55
-26441.8
-33418.5
-32942
-36534.4
-39773.7
-19621.1
4188.42
4504.07
11120.7
-16580.7
-17735.1
-34757.4
-46599.6
-48258.4
-42506.9
-31241.5
-46373.1
34122.2
60101.3
116960
160383
147069
152278
535682
513071
540690
508553
550606
563640
585418
615153
643513
704380
812456
904215
715487
186310
14113.8
184667
145207
63982.5
-4515.96
-41726.1
-42817.4
-45026.5
-23965.2
-9570.77
27300
51796
82190.3
101371
113738
126469
125774
140201
141553
152509
156363
160276
150775
105239
78146.1
88320
109165
74484.3
-12063.1
-51321.4
87853.8
86838.3
-2538.75
-16764.6
5099.6
42922.8
82931.1
118566
142966
161298
172359
178447
174237
172289
171180
154363
149735
126485
117880
93293.8
104149
76360.8
103108
101352
194674
309198
422454
414948
301827
139261
-52320.9
-36611.1
-2228.52
20417
35682.8
44522.9
50530.5
52398.9
41585.4
52030
42581.5
27666.8
28704.7
14823.7
2387.05
-11170.7
-26990
-41927.9
-57467.1
-73335.9
-89931.2
-112314
-126887
-106935
-78472.2
-69852
-64835.8
-68300.7
-68968
-71666.8
-149222
-153566
-150929
-140689
-125802
-108256
-87563
-67860
-48384
-33109.7
-14485.8
-7222.71
9795.53
9139.43
16155.4
12477.5
14642.3
13214.6
7199.68
11667.2
-2987.62
9181.54
1001.05
-1581.33
-19563.2
-11343.2
-3797.85
-2958.42
-18831.3
-32924.2
-111135
-58091.7
12453.7
37243.6
43661.2
33636.6
8881.39
-14873.5
-9044.86
-44015.8
-47675.4
-48950.7
-64934
-68607.6
-68036.4
-82085.6
-72589.2
-83889
-82361.5
-75519.2
-76457.2
-66798.8
-66161.3
-58919.8
-61558.9
-58702.6
-70043.8
-77480.3
-98852.8
-103691
-187579
-198570
-219789
-225890
-208407
-175195
-182437
-182027
-201928
-206397
-217164
-221449
-216544
-204807
-196045
-187425
-178330
-170026
-159592
-153604
-144793
-143749
-143301
-150206
-150838
-157678
-166366
-168172
-205806
-368187
-63128.8
-106484
-156066
-148175
-70646.8
-28324.6
-19486.1
-26063.3
-27747.1
-44118.8
-76089.4
-106415
-99317.3
-119038
-114342
-108423
-96754.4
-84717.6
-74963.7
-69325.8
-71655.4
-73293
-75768.8
-64086.1
-49958.6
-26895.8
-22697
-14149.4
-9063.9
-24403.5
187346
69660.2
-3380.52
18581.8
45997.4
33531.9
44739.9
24906.1
31930.2
37950.6
38518.5
46375.7
26070.4
22727.5
40177
24116.5
20572.7
16302.4
11363.6
6709.55
-1286.86
-1943.66
-7220.15
-17025.4
-25672.3
-57705.5
-91006.3
-146780
-117418
-54234.3
284485
257198
321207
304786
246842
253290
236405
224468
225053
218053
204070
182910
166600
150938
128206
102621
68227.2
35813.1
6039.78
-10123.3
-13596.2
50.7673
8882.34
49145.4
92911
133831
179565
205478
231101
266107
5056.6
105024
190691
183196
166608
141282
114888
79385.2
56034.2
40779.7
25027.5
20018.7
9908.7
4658.21
265.44
-3273.02
-6333.4
-16114.2
-25786.9
-35157.4
-47617.4
-51417.7
-56620.5
-55774.5
-53231.6
-51589.7
-54046.5
-53618.2
-61822.6
-80240.3
-180987
-17883
106788
138476
168908
199539
214581
227798
226402
223240
212985
199225
184795
171106
149582
132926
121402
112562
101711
85831.8
91310
77201.8
76140.9
56353.4
-15348.2
-116155
-109033
-57897.1
-34929
-67384.9
-213011
-48228.4
58260.4
49700.8
12116
-34800.9
-62923
-59952.8
-919.589
68420.5
138617
187740
213063
217625
210719
199376
193672
172554
164885
154030
153593
145638
149509
145939
140007
94699
50444.2
109086
157080
165669
499192
457989
451204
423715
470343
500213
550156
593962
613845
637345
711506
850610
775074
288223
100127
178269
81353.9
-29568.3
-72299.6
-75501.5
-56983.9
-35215
5307.18
31100.2
69657.2
95604.3
117443
137510
141492
141574
135655
134427
124739
136511
137806
145711
145382
135664
101634
88778.8
111135
112467
40323.5
-28704.7
69128
-3562.91
-60184
-57718.9
-13738.9
52516.7
103989
126525
138166
135046
136320
127656
122833
116601
112978
105002
110680
95673.4
106800
89161.3
107896
87764.8
109394
93899.4
125465
206596
355715
449328
378950
162389
-22256.5
15593.1
42554.9
58199
58068.6
60504
54557.3
62096.8
41820.6
37143.5
29434.1
32374.1
16307.6
9101.07
-1013.72
-12910.5
-22179.2
-32540.5
-42263
-56415.3
-73523.8
-96092.8
-119233
-123893
-105825
-80129.8
-66355.4
-67670.1
-64690.6
-69101.1
-196497
-187424
-174286
-158577
-136582
-116073
-89614.3
-71745.7
-45233.1
-26497.7
-6163.61
14519.3
18606.8
41798.1
36637.8
37609.1
24839.9
31168.6
13728.6
27486.8
16634.1
24867.8
22651.9
14114.1
-1348.96
-17353.5
-10270.9
2551.48
-2709.89
-31559.4
-121025
-35527.2
17587.6
33385.6
34433.2
16634.7
3970.86
-4741.86
-22575.7
-47797.4
-50369.3
-72660.7
-73974.4
-80035.5
-93379.5
-86749.2
-93990.9
-97993.1
-87912
-90688.3
-78398.7
-77929.8
-65517.5
-65135
-53640.7
-53171.2
-50776.2
-61285.8
-84343.9
-101752
-186486
-206185
-224488
-214221
-193712
-177877
-201331
-211567
-233704
-225331
-215513
-198109
-187374
-183323
-180073
-177108
-173121
-166021
-158014
-150758
-143267
-142808
-143017
-150907
-157548
-167740
-172430
-174703
-198446
-345552
-81513
-135652
-171406
-100763
-46067.3
-46043.1
-48596
-57068.3
-54395.7
-66433.1
-91226.1
-119888
-122596
-141911
-149190
-153009
-147973
-132277
-114209
-100237
-91717.9
-92941.3
-90280.3
-74238.5
-49377.1
-40072.4
-27829
-30598.5
-17879.5
-30297.1
163384
10413.3
46343.1
74296.2
65560
42737.6
54122.8
11208.4
26809.9
14415.8
12283.8
26010.1
22323.1
9938.27
25238.1
33476.4
31960
31884.6
35602
19067.5
10521.7
3759.7
-908.827
-13753.6
-26323
-38122
-61376.7
-102601
-162435
-60898.4
284690
305001
338448
297886
236189
238185
200294
202192
207601
201844
181847
146482
114551
81112.8
29390.3
-31676.3
-88934.1
-122487
-138605
-132157
-116347
-103051
-95495
-92810.9
-69952.7
-2609.49
82257.2
157888
210438
254764
12252
163292
208839
189576
165553
126085
86206.9
53984.5
24636.4
22725.2
16474.5
18646.1
6994.42
-6825.55
-13400.5
-33790.9
-48903.8
-79481
-104003
-119852
-130633
-126524
-135409
-127371
-119561
-101673
-80651.7
-64037.4
-54848.1
-68913.2
-137036
63209.4
137109
170814
198611
228319
233953
240606
235974
222469
202244
179612
157324
133663
112190
97928.4
80534.6
61729.9
62418.2
59833.5
69751.8
72257.9
79022.3
75335.7
44497.6
-26551
-99938.6
-112473
-15027.8
-25446.1
-163298
3493.95
56626.4
5075.76
-55775.1
-69860.7
-8086.05
59784.3
135481
192531
221238
236091
240350
233387
223277
212070
196796
197203
185659
187780
172060
184196
157505
167231
153410
181361
137613
49623.5
128400
186432
439059
355233
332108
285394
340371
337221
448052
509240
578996
604222
652555
789655
791687
355903
212169
141657
12848.9
-63034.9
-64945.4
-30210.4
22748.2
73223.8
119752
147409
165784
193565
207352
217229
228449
221473
199824
177101
144686
134191
133017
143142
164018
160759
128911
88836.7
101830
113053
40714.5
-38253.5
58847.2
-35598.3
-81534
-64535.9
6161.52
81652.5
115552
108678
85415.1
72495.5
54554.3
47288
39877.5
36673.3
35683.3
38694.1
49675.9
54917.9
75173.7
74750.8
97212
93286.5
102937
96824.4
103297
145617
268510
425146
410315
179247
9650.86
54268.3
71524.9
69047.8
70763.4
59446.2
52348.6
43675.3
31095.3
20746
18994.2
-4896.66
-7790.42
-14356.6
-18849.8
-24565.7
-33290.2
-37003.7
-41294
-48538.2
-61024.8
-81077.2
-104629
-123540
-123386
-100872
-77521.9
-70607.6
-62815.2
-61163.8
-203156
-190542
-181735
-171479
-155425
-136750
-115877
-96505.2
-65416
-42639
-11663.1
13201
37587.4
39503.8
55559.5
40619.2
41468.5
33708.3
26280.2
24887.1
34205.3
29870.1
32738
29015.8
6964.65
-13410.3
-22548.4
-7526.9
-1069.66
-26820.9
-105081
-22069
2036.46
13817.4
7869.8
8269.98
7499.73
-21458.5
-41533.2
-45539
-67700.4
-65781.2
-75331.1
-86121.3
-78225
-83727.4
-84679.7
-74265.1
-78918.1
-64875.7
-69879.1
-56449.9
-64281
-56722.8
-56373.1
-43611.2
-37331.8
-47106.1
-71305.6
-95678.7
-187615
-210225
-222589
-201603
-183809
-193361
-220122
-230000
-230570
-206621
-194577
-185877
-182453
-184577
-182972
-182223
-179201
-174351
-167539
-162599
-156044
-155514
-163791
-171935
-184721
-180757
-179682
-176483
-195219
-343567
-96842.6
-162475
-144335
-69614.6
-46186.8
-60342.3
-66712.2
-54630
-39745
-35257.7
-55608
-84301.1
-84669.4
-121172
-141615
-160579
-170442
-167650
-147353
-121318
-106632
-103112
-96924.3
-69702.1
-62011
-49487.1
-48235.2
-45223.9
-25466.4
-35893.8
128592
23316.8
78848
105387
73990.4
35772.7
42492.8
8980.81
-1044.82
1957.31
-6789.6
-4893.35
1550.98
-11781.5
-8524.98
18795.9
26786.5
45264.7
43568.5
37721.2
25537.7
15654.6
12092.4
4575.62
-15509.5
-31131
-39711.3
-65159.9
-126674
-71471.7
282535
334215
355496
297555
244812
241707
216539
197392
185808
184512
164274
115841
70333.2
20883.6
-60675.2
-130528
-159793
-140268
-103345
-67236.8
-51531.7
-40079.9
-46334.2
-47035.7
-79319
-90314.9
-35031.8
74931.1
167100
237885
45431.9
207350
223667
194697
148764
111032
81858.8
44872.2
10642.5
2197.39
13246.6
17085.4
1769.57
-9797.59
-22448.8
-44370.7
-70566.9
-104772
-135789
-150388
-151873
-151376
-141184
-138637
-130646
-120669
-112916
-80403.6
-56798
-54231.7
-74322.2
115857
161008
198259
221650
228840
240932
239861
240702
228910
203671
169566
133716
110928
98489.1
84245.2
59353.3
40194.6
39982.6
30492.6
36542
56288.1
87347.9
103798
106086
74893.5
7394.21
-88593.4
-66715.9
-10997.7
-126276
34899.6
38167.6
-42782.1
-70699
7133.59
83388.7
149305
192613
211822
219300
220268
213603
210800
204842
197564
199955
186226
184574
175992
185334
168138
174737
132296
119397
137575
149933
123647
60809.1
190845
378765
276216
253979
225403
260880
264535
331161
407557
507064
574546
615690
737738
784525
401222
199711
50075.3
-38809.7
-51139.5
-24573.5
26476.9
85968.8
132966
161033
181847
199168
214812
252952
279143
284534
287997
258992
215765
180454
145546
129496
135017
148012
158091
142277
105317
97706
123739
76300.8
-17301.5
51127.5
-26648.1
-86773.5
-85074.2
8608.36
92505.2
79735.7
48077.8
25259.7
75.8787
-5982.33
-4369.58
-1759.93
3357.18
9405.91
15667
23477
31415.4
54712.7
59246.7
86179.5
80480.8
96734.7
84286
91491.2
114518
203738
373620
408532
188476
43833.6
79350.5
80428.5
80907.6
69477.7
61487.2
46780.7
25871.1
15154.4
-7545.69
-14108.8
-12816
-11973.1
-17979.4
-28972.9
-36684.4
-40181.8
-46115.2
-49222.1
-51810.7
-56381.3
-71133.5
-91936
-118902
-131072
-117409
-94963.6
-85398.9
-67203.3
-56195.3
-206093
-202310
-200494
-194752
-181645
-172625
-150873
-129707
-98645.7
-66660.4
-28631.2
3655.25
29501.1
40664.2
34326.4
47443.1
31946.3
39114.5
23294.1
31892.5
29463.4
39095.8
33421.4
31567.4
17310.4
-15180
-21053.7
-17276.1
-6010.56
-33498.9
-108589
-35814.9
-10078.4
-12799.3
-2258.08
12789.5
-13358.2
-30033.3
-31326.5
-53890
-53778.9
-69656.4
-77020.4
-67223.4
-72678.1
-70720.5
-57629.3
-68561.3
-55792.1
-64663.2
-52746.4
-67127.3
-54875.7
-54904.8
-45332.8
-36810.6
-31011.1
-32604
-59062.6
-89921.7
-190422
-214735
-215674
-190597
-189286
-214000
-231982
-228902
-215174
-198646
-186979
-183734
-181873
-186074
-183675
-181268
-178876
-179019
-179474
-180982
-182685
-190538
-200930
-218756
-216791
-198875
-182699
-181023
-190696
-341134
-113453
-164241
-119175
-53553.1
-51824.8
-64037.9
-57620.9
-40380.5
-10993.8
550.828
-30247.6
-39851.8
-61373.6
-80234.5
-108546
-140427
-171104
-185911
-175645
-144204
-116281
-113753
-97610
-83253.7
-66663.3
-70918.5
-66513.3
-58421.7
-35047.7
-43163.6
89709.4
34229.3
90370.8
103784
86964.8
30530.8
21313.2
1471.32
-6152.81
-7293.56
-8962.37
-7049.89
-15726.5
-22527.3
-17898.6
-11166.5
27815.3
43546.4
53404.4
49378.1
34632.8
28367.4
25735.1
14340.5
-3127.49
-23543.9
-28156.8
-46858.6
-87008.3
-105583
267871
339226
359577
311627
269210
276358
255315
224300
185446
165807
157617
104671
39191.6
-21589.5
-107629
-153070
-141346
-87776.2
-39764.8
-25499
-12591.6
-33728.5
-30301.6
-52356.9
-67550.1
-92640.8
-100422
-1184.92
115525
211920
77407.7
230151
234047
197639
160158
115666
70474.4
39078.8
8150.22
-1162.1
16714.8
17902.1
3300.93
-4047.16
-12953.1
-34924.7
-65475.8
-99028.4
-140942
-164211
-172693
-165056
-161158
-140518
-125052
-112068
-95278.9
-89190.3
-52056.4
-43836.1
-11126.1
154615
183803
209670
228639
233296
230938
242984
240586
235328
204051
153973
117189
105688
92391.2
72793.4
69246.3
63293.1
42399.3
13729.7
14311.2
33550.1
65431.1
95282.7
118611
112382
80329.5
18976.9
-69091.2
53834.5
-90117.3
48255
2669.51
-89234.2
-9220.13
75320.5
146813
183439
200948
204321
198220
193185
201705
203267
194820
181945
163494
162855
164021
172380
164802
178055
156231
147647
73717.2
93237.3
136264
121268
36154.3
170519
341306
238608
231064
222738
257999
252493
301598
342324
452288
533605
590492
697118
768258
414727
91560.1
-32824.3
-57293.6
-37414
-453.538
44927.9
82737.4
112395
129215
140428
161067
193911
232958
300532
301639
278321
260730
212297
174781
143432
126929
137720
155478
162119
142298
95010.6
86544.1
106485
61918.1
-40022.6
57725
2151.66
-73503.8
-77071.6
4786.09
85647.6
49935.3
6324.16
-19704.8
-25068.6
-21375.1
-13829.6
-2686.11
4604.49
10605.8
14230.5
18349.6
23872.6
33401.2
49495.4
54646.5
66628.1
65073.7
72570.3
70561.7
95568.9
158251
330388
402861
195691
55008.9
79747.3
83380.4
81412.7
74812.8
57671.6
40401.6
8497.18
-1730.12
-19702.6
-17708.8
-23646.5
-34159.5
-41709.5
-47683.5
-47884.8
-54210.8
-50817.9
-59011.6
-55864.4
-55420.8
-67486.4
-84080.1
-112143
-131307
-126022
-113541
-98674.2
-72714.7
-44504.6
-222163
-208885
-202291
-197438
-194920
-189070
-173791
-149303
-116494
-76397.6
-35327.1
6946.43
18014.1
26909.5
30560.9
15465.3
37032
9864.53
31514
19490.9
33542.9
30291.2
39876.6
26634.3
12477.7
-18262.4
-36639.5
-32158.4
-15987.6
-35706.9
-114472
-35165.8
-30464.1
-23116.4
9446.39
-7229.25
-20690.7
-21222.4
-43066.3
-46265.7
-65535.8
-64136.5
-68592.2
-69459.8
-66227
-53271.8
-65220.1
-58374.9
-70582
-62561.4
-79262.7
-58982.5
-63614.6
-54384.4
-43158.1
-34736
-21731
-23679.2
-49718
-87162.7
-193557
-213704
-203950
-185792
-197351
-225893
-228778
-227307
-206710
-197999
-182890
-185793
-183566
-178784
-167700
-162593
-169386
-180932
-192427
-211296
-225345
-239609
-259358
-257238
-239703
-207824
-186222
-172735
-200228
-347687
-120161
-164073
-95424.2
-49370
-47670.8
-62659.4
-45842.9
-11523.9
5500.09
-8509.2
-15417
-52941
-54972
-65303.2
-81040.5
-111908
-153922
-188814
-194739
-165552
-126341
-117416
-99110.1
-82743.6
-92386.8
-95485.9
-93467.2
-65731.5
-29561.3
-41432.8
64021.7
33007.4
85405.9
91271.6
77528.3
40011.6
10522.6
2271
2168.68
-11460.4
-10360.1
3334.78
-24546.1
-17692.5
-28657.7
-12771.3
15592.8
48916.1
62443.5
58087.9
43449.3
29156.8
22000.6
64531.8
66337.3
35145.1
-31662.5
-42936.3
-65571.1
-136115
239520
325828
353461
304682
279501
253921
239952
244504
203533
150851
139105
106309
26206.4
-35997.9
-121477
-153561
-113770
-50943.6
-15174.1
-4476.68
-2685.4
-43194.8
-62322.6
-89574.5
-96778.2
-109232
-139451
-46036.9
70079.9
160102
112399
251282
250459
214870
178516
137999
76871.6
26866.9
6442.41
1076.18
20877.1
14735.9
7782.5
15947.6
4128.97
-19768.3
-55680.7
-98740.9
-141737
-177256
-180278
-183780
-164332
-144295
-137627
-93168.9
-70713.6
-61749.6
-43890
-16555.4
33772.6
180563
226969
238611
223209
208721
219352
229016
233197
223519
203450
166661
127691
100601
85777.8
72071.3
90592.4
81646.4
46055.7
26129
4790.56
14834.1
50509
96726.6
137347
155930
140058
80760.8
-39209.2
65368.1
-61322.8
49162
-34481.6
-43060.9
47619.9
128680
172349
193677
188607
177146
178098
191915
181936
175842
165163
158205
166524
168005
159995
150630
166416
160376
161167
125769
61650.7
32798.8
86371.8
89177.3
5967.4
160986
319171
227415
234574
248622
287342
289722
306210
359691
428354
523793
580646
685472
771400
475094
32646.5
-29918.6
-60467
-41482.6
-4155.73
27125.8
43651.2
58517.1
73572.9
84111.1
100414
140949
197184
258675
300203
263787
210905
189463
146812
131351
127798
134584
151040
161736
142031
101562
86460.6
111944
88723.6
-9317.33
50117.8
-11339.7
-91378.6
-87680.3
-5622.66
66736.9
16253
-16433.7
-33687.4
-32089.2
-28622.5
-19984.4
-18355.4
-13872.8
-14178.1
-14849.4
-13840.8
-10816.9
886.558
7337.58
25904.3
31570
37484
45758.8
58738.9
75620.7
135022
297988
365505
164306
80010.4
91883.2
84129.6
81757.9
72665.6
57635
34847.6
15734.2
-18071.9
-30201.3
-26850.2
-39474.8
-41233
-49697.8
-52225.6
-60153.4
-62266.4
-57637
-59820.7
-55662.5
-60533.9
-66586.9
-85708.2
-114232
-134855
-132805
-121511
-99184
-66688.8
-32843.2
-226101
-187292
-183831
-190112
-187271
-189723
-179519
-160754
-122891
-85134.1
-36253.6
-1053.91
11568.9
9957.08
11343.5
-5667.85
15272.4
1831.21
9136.14
25489.5
22042.4
32779
26620.2
24206.7
3748.53
-18386.3
-29343
-29292.7
-18155.7
-51597.9
-115036
-67415.3
-55576.2
-6477.29
-4840.03
-13825.4
-15996.5
-34203.3
-37321.2
-58326.5
-60850.6
-75845.1
-62722.8
-65253.9
-47781.1
-64228.2
-60610.2
-73520.5
-62167.2
-79098.9
-62839.7
-80514.8
-74537.2
-59914
-49947
-27784.5
-13224
-14598.8
-46530.5
-87085.2
-192699
-211567
-196690
-186464
-208106
-225619
-220601
-216529
-195247
-193434
-182346
-181136
-171567
-156357
-141570
-139798
-150526
-181584
-205488
-242879
-274510
-293548
-294693
-279000
-244711
-213103
-183101
-174865
-215346
-368796
-135451
-139095
-75166
-43352.3
-42866.2
-50545.2
-32080
-9453.7
-6368.75
-7614.5
-42782.6
-76158.9
-74963.2
-73857.8
-73315
-92760.1
-134561
-184494
-207227
-187403
-133133
-114689
-105299
-101415
-111373
-112283
-95676.5
-61392.6
-23100.4
-47283.7
40669.8
20585.1
71532.6
74949.4
57381.8
37774.1
7817.35
-14989.3
12369.4
-25010.6
-22641.1
-9522.48
-31481
-12048.5
-35253.1
-15535.6
7409.33
52470.3
70653.2
69201.9
50335.3
23319.6
100811
135272
122926
96596
54900.9
-52382.5
-59386.2
-120906
203350
301691
324987
283255
261001
251864
257542
227065
215443
138974
124919
102635
21130.2
-39772.1
-113148
-133636
-90923.3
-24573.6
12855.9
24605.3
18340
-36872.6
-106187
-153667
-144563
-145781
-171034
-100512
43745.5
170313
131386
264021
253076
225347
194848
144967
77094.7
25345.2
27.9099
7894.58
21145.4
14973.9
27723.9
35226.8
29086.8
-17722.5
-75710.8
-122649
-168396
-188232
-202127
-186764
-178476
-165443
-128293
-88048.9
-43070.9
-29037.7
-22993.2
-15008
72900.1
228145
240257
224370
195731
199958
192507
183411
188993
210260
207908
166437
97371.4
69864.3
80299.6
78022.8
79176.6
75490
65970.9
37629.1
5398.99
2851.62
37208.1
88338.3
128134
154537
162171
131535
14760
91559.2
-33794.8
45844.6
-67925.3
14258.1
94486.3
157921
183627
178115
171051
172899
186448
176870
183337
170629
164623
165725
153303
139969
137104
148591
140074
156983
153957
123069
26151.6
11331.7
26950.8
11868.4
28509.9
116078
319409
235411
247436
283432
346202
358565
402157
436459
513905
553945
607034
674821
748826
485333
61946.7
-21234.3
-75987.5
-56319
-20083.2
2235.52
15573.7
33299.5
39904.8
51478.5
56889.2
82022
144546
222605
262803
267134
204869
176607
144776
131185
131883
146242
163240
164311
140129
95423.5
84738.4
105592
89536.5
-13504.5
48115.5
-15095.2
-82630.3
-92549.1
-27114.5
61507.5
3366.15
-29154.3
-39816.6
-39562.1
-37661.9
-31984.4
-18303.6
-1296.98
16540.1
30308.2
35494
28377.7
8678.43
343.966
-2052.15
12884.7
15128
29399.9
44086.8
66671
115649
299290
356011
152348
69084.2
75960.2
73546.2
62298.1
61181.7
57905.9
48350.7
12642.2
-16476.4
-20898.7
-36951
-31798.5
-46609.3
-50299
-55558.1
-55917.4
-58831.2
-56626.7
-58043.5
-58956.6
-63073.6
-76108.6
-100686
-124911
-133047
-120583
-97760.1
-92769.2
-57212.7
-12624.2
-214948
-168612
-166712
-174714
-179725
-182231
-180836
-160536
-123702
-86333.4
-42906
-8208.32
-3619.72
513.721
-8328.64
-15239.4
-3031.9
-12540
10806.6
931.451
22617
12481.3
15715.4
-3001.87
-15807.9
-36103.8
-42847.2
-33780.8
-22486.9
-64779.9
-116068
-69600.3
-34766.8
-12805.3
-7938.26
-5335.52
-28644.7
-26751.2
-45914.4
-52249.2
-73623.9
-65081.5
-65457.6
-52562.3
-53761.3
-56225.5
-55698.8
-56129.5
-64604.4
-45567.5
-69173.4
-64398.6
-58559.7
-54040
-39113.4
-13882.9
-3626.18
-11692.7
-48705.9
-91513
-197475
-207985
-188285
-191408
-210308
-219817
-204967
-200125
-179143
-182419
-166214
-166815
-144021
-131097
-116528
-110417
-124329
-171742
-206512
-267988
-314263
-327568
-316771
-282454
-239755
-203449
-189304
-188271
-264424
-389880
-121041
-124910
-66090.1
-41780.3
-44302.8
-45535.6
-26302.4
-9301.46
990.152
-29890.8
-58101.9
-90526.1
-90285.7
-88517.1
-79102.2
-82987.8
-122056
-178081
-214586
-205306
-134969
-120575
-112465
-102143
-128921
-107553
-77510.2
-45531.5
-29742.1
-31450.7
53386.6
12483.7
54473.6
54034.9
40181.8
18966.2
5125.91
-16219.5
-15988
-31150
-44607.4
-35012.2
-42829.7
-26797.9
-25677
-26590.8
10681
63251.3
77039.7
71860.8
47709.6
70122.9
145878
144654
125168
98844.1
79467.3
14517
-64838.4
-110534
186949
279439
306870
259887
228681
183399
197097
223565
221266
145099
120874
113668
21341.2
-43460.3
-107688
-112182
-70484.6
7354.34
40611.5
67313
75598.1
7760.35
-91503.3
-189012
-186001
-204419
-195835
-114385
-3038.5
107881
181068
281939
286095
240963
190302
148285
85059.5
17672.4
-6498.15
14306.5
21886.3
20640.6
49561
55994.2
45487.1
-23985.4
-96197.9
-125287
-159642
-183093
-187547
-194146
-182673
-146731
-129343
-67748.9
-21533.7
8227.58
-3842.88
26005.2
136472
238936
238485
227589
226981
195916
165024
165195
194314
212836
220907
181119
110239
75912.6
84485.5
62615.6
30473.8
61744.2
63679
27233.1
-6420.39
-4393.67
32031.8
83335.9
128935
158972
173112
138475
4136.41
63351.3
-12109.7
41633.4
-37299.2
59227
136395
169891
178146
175350
179685
179408
157565
145964
134694
130483
129924
138375
139095
136686
140937
127525
139107
136808
148722
126811
19406.5
-34820.2
-29468.6
-28883.5
12444.7
5977.6
314858
231551
254979
316147
396884
474634
514116
523974
481083
464539
477653
594388
717284
564198
316990
319107
222709
18090.7
-83964.2
-68863.8
-33340.7
-12041.4
11043.3
22484.9
34568.4
38272.8
41437.1
42684.1
83523.6
165544
230797
243560
234581
190839
171301
155954
158134
168253
177505
165235
136492
99214.3
94053
118180
80228.6
4549.59
8527.97
1614.41
3840.27
-59072.8
-86799.8
-85389.7
-53273.7
44157.9
1468.06
-35723.4
-45388.3
-43399.9
-34892.7
-24660
-11245.3
8021.1
33067.9
63195.9
83695.5
80215.7
56469
30718.5
15082.2
-2015.42
8676.19
22859.3
36692.8
57964.7
112197
286128
195181
13564.5
16263.5
6057.51
59421.7
56132
46453.3
44097
51476.2
66824.1
54791.4
23552
-315.8
-28788.1
-32617.4
-35312.7
-31960
-41389.9
-43043.1
-54817
-53413.6
-53131.9
-56972
-64944
-75315.7
-94255.3
-112404
-119821
-121279
-124649
-120861
-112809
-69537.9
-23579.3
-125275
-173680
-173333
-148240
-160203
-165974
-175568
-181822
-171939
-151924
-112965
-85048.7
-50607.1
-29937.8
-14130.9
-18401.4
-20153.1
-18746.2
-15882.2
-19750.4
-8800.02
-5390.07
-11279
-2197.67
-17642.2
-16724.5
-31580.7
-31702.3
-32415.3
-21743
-24673.2
-38428.4
-78757.9
-120692
-154178
-88578.1
-50484.3
-18933.2
-10074.4
-30453.6
-30099.6
-42460.5
-41056.6
-61111.3
-64790.6
-69840.9
-59717.8
-49682.4
-49024.1
-45297.6
-51593.2
-40527.7
-40283
-26436
-37991.2
-42592.9
-44614.6
-23970.7
-17580.1
4012.1
-1521.04
-26484.3
-61634.8
-94616.6
-141323
-163003
-185877
-196888
-177745
-185196
-200014
-197985
-184724
-173197
-163316
-151291
-146636
-132723
-117915
-107302
-95186.1
-84157
-101806
-150502
-201360
-273275
-348165
-364651
-337308
-293660
-248687
-226135
-201241
-232937
-321190
-279247
-109422
-122563
-117526
-106171
-45598.5
-22026.7
-27101
-31629.2
-22930.5
-15232.8
-5525.45
-35832.3
-54469.7
-93159.9
-96321.1
-96262.1
-82215.4
-82688.3
-117423
-175089
-218400
-214080
-143454
-124257
-107098
-114879
-127277
-95796.2
-59786.2
-28329.5
-2824.9
-13856.2
-26001.1
-42709.2
-17375.3
-13316.5
34550.1
42541.5
23099.6
-5506.94
491.669
-33108.4
-31430.7
-66015.3
-60964.9
-57257.1
-60752.6
-39647.3
-35052
-27268
15731.1
72791.4
94893.9
77285.6
53146.3
113617
163194
150971
121346
96457.3
72435.5
45444.5
-79537.2
-97874.3
-158077
-899.003
151547
250123
269720
235197
188771
192630
199274
212486
215972
131301
129483
112514
25381.9
-37926.5
-94701.8
-95084.1
-52636.4
34249.9
70736.3
101004
140617
109129
-2443.96
-109226
-162981
-171890
-149865
-76590.3
205.244
70411.9
14288.8
3662.73
183059
292341
280572
233559
183241
145906
77906.4
8881.91
-6317.44
19850.9
13635.9
32383.7
71358
74039.1
51869.2
-15047.1
-85084.4
-111599
-150242
-157805
-192120
-181880
-159374
-147209
-110633
-54717.5
8219.55
28028
20371
26956.3
64747.7
50121.9
161477
265685
267884
250308
185661
145880
152514
182514
169570
175873
183545
163939
93910
28216.8
31745.3
72648
57559.8
7327.26
15150.2
1126.15
-11836.8
12361.9
51567.1
99342.2
140386
159480
157282
126495
64170.1
20422.2
23180.5
19737.1
23603.7
15236.3
19222.7
102530
152249
182517
181360
172828
171112
158918
152659
149930
152330
138167
144344
136696
144008
139700
126299
132967
121838
137644
133747
131887
39483.1
-43279.4
-50193.6
-52122.9
-24077.6
122508
219705
205136
324053
240748
255143
324067
433301
522051
594032
540840
406546
261649
212724
277727
496440
547853
497737
451404
264943
-3543.78
-91081.5
-76145.7
-47285.7
-19538.5
2612.78
21426.8
36230.2
35599.8
33510.7
29028.2
34986.3
83797.7
180612
210583
236424
221303
207232
199797
194932
193572
180620
162353
127948
107329
103602
122390
112746
36212.7
22891.2
-518.529
-7390.28
-34924.4
-59855.6
-66501.4
-62864.3
9355.24
13362.9
-28154.3
-40002
-42408.3
-38621.9
-35322.1
-32599
-19668.9
5021.53
48947.2
95188.8
105038
68296.3
17327.2
3844.86
6434.18
-1346.78
17755.4
32047.6
54045.2
179005
257392
44211.1
18402.7
24848.7
18765.5
37282.4
18935.2
30058.2
32196.7
47327.4
55011.1
63978.4
55580.6
7550.62
-19506.5
-36173.9
-34731.5
-36788.4
-35683.1
-39049.3
-50588.3
-48199.7
-56467.4
-65257.5
-76260.4
-84066.7
-93112.7
-101254
-116034
-139552
-161894
-162217
-139484
-99382.4
-69698
-178318
-171101
-146581
-153085
-162046
-166450
-172501
-170241
-156704
-125690
-101859
-75396.7
-58766.4
-44552.6
-39161
-32409.3
-40526
-38904
-31890
-38834.3
-33761.6
-31099.4
-26760.7
-31393.1
-22905.7
-30697.6
-27711.6
-34731.1
-26018.9
-20128
-26427.1
-64071.9
-119804
-142637
-133711
-84827
-44737.7
-16799.5
-31558.5
-34851.4
-44867.4
-47239.3
-62296.3
-60668.3
-71562.7
-69054.9
-59737.8
-46755
-36650.2
-44059.1
-35483.7
-40117.4
-16722.6
-14895
-7304.3
-12961.1
-2206.76
-2953.18
6268
3129.83
-11971
-38715.7
-71731.7
-101181
-155124
-174175
-183296
-186538
-179172
-187466
-189957
-181117
-158186
-150188
-133304
-126071
-123671
-102313
-106335
-91925.6
-82159.1
-73550.7
-71900.5
-125908
-191786
-252825
-346517
-374634
-364714
-341681
-305958
-269453
-257285
-307432
-308983
-152127
-83940.5
-112644
-117530
-94563.7
-45622.5
-27832.7
-35496
-40188.9
-27482.4
-20099.9
-23888
-32990.8
-61436.3
-94517.7
-102423
-90742.1
-80139.9
-89318.8
-130932
-191660
-225800
-232310
-155958
-120379
-116354
-121661
-126050
-90716
-49138.2
-20268.7
4361.56
-1595.56
-7519.73
25418.2
6241.46
-40853.3
-897.934
15880.9
12830.5
-11447.7
-20726.3
-47830.7
-34612.6
-65972.9
-78395
-54701.8
-52830.4
-41498.5
-46769.5
-24378.2
26950.9
85513.2
104190
79386.6
53530.7
135559
166299
162561
128734
98247.5
76869.4
68289.5
11707.8
-77942.5