/*--------------------------------*- C++ -*----------------------------------*\
| =========                 |                                                 |
| \\      /  F ield         | OpenFOAM: The Open Source CFD Toolbox           |
|  \\    /   O peration     | Version:  2.1.1                                 |
|   \\  /    A nd           | Web:      www.OpenFOAM.org                      |
|    \\/     M anipulation  |                                                 |
\*---------------------------------------------------------------------------*/
FoamFile
{
    version     2.0;
    format      ascii;
    class       volScalarField;
    location    "0.001650000";
    object      O;
}
// * * * * * * * * * * * * * * * * * * * * * * * * * * * * * * * * * * * * * //

dimensions      [0 0 0 0 0 0 0];

internalField   nonuniform List<scalar> 
12384
(
0.000271185
0.000349477
0.00029272
3.21474e-05
3.36198e-06
1.74282e-07
3.6151e-08
1.10045e-08
2.77957e-09
2.89982e-10
6.19965e-12
1.3796e-13
2.4864e-15
3.92985e-17
1.10273e-14
1.4045e-12
1.3776e-10
2.97385e-09
1.83645e-08
5.81751e-08
1.16799e-07
1.64764e-07
1.19925e-07
9.15204e-08
4.98127e-08
2.31475e-08
1.03244e-08
3.3086e-09
7.65223e-10
4.14049e-11
1.1441e-12
1.34089e-14
4.89639e-17
7.27141e-20
1.19631e-22
1.98535e-25
3.50104e-28
1.10219e-30
2.26077e-33
8.66346e-35
1.932e-37
6.64456e-40
4.21806e-42
4.90896e-41
2.11487e-50
2.51681e-50
5.10029e-51
1.12965e-53
4.10468e-57
9.96148e-61
1.95365e-64
3.80402e-68
4.79319e-70
8.55154e-72
2.02951e-74
2.98343e-77
2.68161e-80
2.3296e-83
1.95515e-86
1.63214e-89
1.34104e-92
1.11704e-95
9.35702e-99
8.15715e-102
7.41368e-105
7.03385e-108
6.83638e-111
6.72932e-114
6.50561e-117
6.29311e-120
8.52895e-123
1.235e-125
1.56342e-128
1.84e-131
9.22358e-141
8.74909e-142
2.45731e-144
4.82801e-147
7.15955e-150
8.50606e-153
8.8993e-156
8.44653e-159
7.95951e-162
7.34946e-165
7.12627e-168
1.33751e-171
3.85185e-177
1.08604e-181
1.08314e-185
8.18852e-190
5.41496e-194
3.6743e-198
1.26499e-202
2.57377e-207
4.47028e-212
7.07003e-217
1.23094e-221
1.71505e-226
1.72466e-231
1.28047e-236
7.18382e-242
3.18542e-247
1.32588e-252
6.24497e-258
1.78402e-280
6.56343e-282
2.56632e-283
3.04016e-286
9.20624e-289
2.62266e-291
6.51654e-294
1.49401e-296
3.22879e-299
6.72837e-302
1.36809e-304
2.72218e-307
5.25406e-310
9.65523e-313
1.69068e-315
2.86451e-318
4.72821e-321
0
0
0
0
0
0
0
0
0
0
0
0
0
0
0
0
0
0
0
0
0
0
0
0
0
0
0
0
0
0
0
0
0
0
0
0
0
0
0
0
0
0
0
0
0
0
0
0
0
0
0
0
0
0
0
0
0
0
0
0
0
0
0
0
0
0
0
0
0
0
0
0
0
0
0
0
0
0
0
0
0
0
0
0
0
0
0
0
0
0
0
0
0
0
0
0
0
0
0
0
0
0
0
0
0
0
0
0
0
0
0
0
0
0
0
0
0
0
0
0
0
0
0
0
0
0
0
0
0
0
0
0
0
0
0
0
0
0
0
0
0
0
0
0
0
0
0
0
0
0
0
0
0
0
0
0
0
0
0
0
0
0
0
0
0
0
0
0
0
0
0
0
0
0
0
0
0
0
0
0
0
0
0
0
0
0
0
0
0
0
0
0
0
0
0
0
0
0
0
0
0
0
0
0
0
0
0
0
0
0
0
0
0
0
0
0
0
0
0
0
0
0
0
0
0
0
0
0
0
0
0
0
0
0
0
0
0
0
0
0
0
0
0
0
0
0
0
0
0
0
0
0
0
0.000224899
0.000188126
0.000303279
5.5161e-05
4.16561e-06
5.85903e-07
1.01362e-07
6.31757e-09
6.04784e-09
1.42375e-09
1.39293e-10
7.14187e-12
2.28317e-13
2.43846e-15
2.41379e-13
1.32962e-11
1.68138e-09
1.35273e-07
9.06751e-07
2.41362e-06
3.74687e-06
3.9553e-06
3.85449e-06
3.3832e-06
2.36144e-06
1.65603e-06
9.96679e-07
1.3536e-07
2.22988e-08
1.39129e-09
2.97037e-11
2.47237e-13
2.41233e-16
2.36566e-20
5.43423e-23
9.52904e-25
2.64504e-27
8.72385e-29
4.99356e-31
6.96291e-32
1.30412e-34
5.38297e-37
3.98696e-39
6.63184e-38
1.12826e-47
3.58831e-48
2.85102e-49
3.73226e-52
1.27904e-55
4.25474e-59
1.08032e-62
3.20107e-66
1.99571e-69
2.88023e-71
4.79388e-74
5.27806e-77
1.21688e-80
3.28244e-84
3.58721e-87
6.79648e-90
1.28048e-92
9.97393e-96
9.45377e-99
1.0984e-101
1.54262e-104
2.42429e-107
3.86418e-110
5.17041e-113
5.61027e-115
7.75619e-118
4.99118e-120
8.43362e-123
9.37227e-126
9.36873e-129
3.72077e-139
2.37788e-140
6.40038e-143
1.82503e-145
2.87857e-148
5.22171e-151
6.93414e-154
9.58562e-157
1.30999e-159
1.88767e-162
2.75698e-165
3.48256e-168
2.0413e-171
3.37714e-176
3.15428e-180
2.44603e-184
2.44662e-188
1.98702e-192
6.69762e-197
1.33713e-201
2.06181e-206
2.87669e-211
4.28429e-216
5.89546e-221
6.27679e-226
4.70869e-231
2.51972e-236
9.53955e-242
3.27319e-247
1.08676e-252
5.99896e-275
2.23699e-277
2.19377e-280
3.05205e-283
1.00393e-285
3.05077e-288
7.95931e-291
1.8855e-293
4.21395e-296
8.95983e-299
1.84702e-301
3.69008e-304
7.06119e-307
1.28779e-309
2.20514e-312
3.64888e-315
5.77681e-318
8.908e-321
0
0
0
0
0
0
0
0
0
0
0
0
0
0
0
0
0
0
0
0
0
0
0
0
0
0
0
0
0
0
0
0
0
0
0
0
0
0
0
0
0
0
0
0
0
0
0
0
0
0
0
0
0
0
0
0
0
0
0
0
0
0
0
0
0
0
0
0
0
0
0
0
0
0
0
0
0
0
0
0
0
0
0
0
0
0
0
0
0
0
0
0
0
0
0
0
0
0
0
0
0
0
0
0
0
0
0
0
0
0
0
0
0
0
0
0
0
0
0
0
0
0
0
0
0
0
0
0
0
0
0
0
0
0
0
0
0
0
0
0
0
0
0
0
0
0
0
0
0
0
0
0
0
0
0
0
0
0
0
0
0
0
0
0
0
0
0
0
0
0
0
0
0
0
0
0
0
0
0
0
0
0
0
0
0
0
0
0
0
0
0
0
0
0
0
0
0
0
0
0
0
0
0
0
0
0
0
0
0
0
0
0
0
0
0
0
0
0
0
0
0
0
0
0
0
0
0
0
0
0
0
0
0
0
0
0
0
0
0
0
0
0
0
0
0
0
0
0
0
0
0
0
3.34294e-05
2.98e-05
1.68948e-05
3.04499e-07
2.2944e-08
1.3101e-08
1.01989e-08
4.73398e-09
3.00826e-09
6.35713e-10
3.2721e-11
2.47652e-12
1.14734e-12
3.06772e-14
5.09845e-13
1.31718e-08
3.15605e-06
1.70383e-05
3.79135e-05
0.000199116
0.000267001
0.000301589
0.000265508
0.000187618
0.000166085
0.000157362
0.000209911
6.04565e-05
2.7041e-05
1.38295e-05
4.54211e-06
1.69055e-07
3.27869e-10
9.75949e-15
1.85479e-19
1.50315e-23
6.10465e-27
3.17573e-29
1.4527e-31
2.49298e-31
4.63844e-33
3.20878e-34
5.08255e-36
9.65906e-35
6.87059e-47
2.00814e-46
2.60695e-46
1.86166e-47
8.48214e-50
3.13366e-52
1.29682e-55
3.94674e-59
7.78614e-63
2.4372e-65
8.71323e-69
1.19171e-72
4.30704e-77
1.11808e-81
2.61869e-85
1.04809e-88
3.75235e-92
1.32164e-96
4.50721e-100
3.65536e-103
3.33711e-106
3.33512e-109
3.61027e-112
9.76399e-115
1.0357e-115
9.64344e-118
4.22971e-119
3.88138e-121
5.51152e-124
4.6203e-127
2.12083e-139
2.94169e-140
1.36909e-142
1.77245e-145
2.99661e-148
1.99144e-151
1.90091e-154
1.19059e-157
1.23214e-160
6.9678e-164
8.4784e-167
6.44732e-170
7.96123e-173
5.64914e-176
7.8733e-180
3.15862e-184
1.01698e-187
3.74414e-192
1.79608e-196
1.90435e-201
4.25054e-206
3.20836e-211
7.55231e-216
7.35559e-221
1.64478e-225
1.5168e-230
1.24161e-235
4.75849e-241
2.06415e-246
3.01896e-252
4.56266e-275
4.09418e-277
5.11669e-282
1.05745e-285
3.50314e-288
1.08568e-290
3.02481e-293
8.45412e-296
1.91031e-298
4.62468e-301
9.57267e-304
2.10426e-306
4.35683e-309
8.93349e-312
1.52755e-314
2.61742e-317
3.7381e-320
5.43472e-323
0
0
0
0
0
0
0
0
0
0
0
0
0
0
0
0
0
0
0
0
0
0
0
0
0
0
0
0
0
0
0
0
0
0
0
0
0
0
0
0
0
0
0
0
0
0
0
0
0
0
0
0
0
0
0
0
0
0
0
0
0
0
0
0
0
0
0
0
0
0
0
0
0
0
0
0
0
0
0
0
0
0
0
0
0
0
0
0
0
0
0
0
0
0
0
0
0
0
0
0
0
0
0
0
0
0
0
0
0
0
0
0
0
0
0
0
0
0
0
0
0
0
0
0
0
0
0
0
0
0
0
0
0
0
0
0
0
0
0
0
0
0
0
0
0
0
0
0
0
0
0
0
0
0
0
0
0
0
0
0
0
0
0
0
0
0
0
0
0
0
0
0
0
0
0
0
0
0
0
0
0
0
0
0
0
0
0
0
0
0
0
0
0
0
0
0
0
0
0
0
0
0
0
0
0
0
0
0
0
0
0
0
0
0
0
0
0
0
0
0
0
0
0
0
0
0
0
0
0
0
0
0
0
0
0
0
0
0
0
0
0
0
0
0
0
0
0
0
0
0
0
0
1.31228e-06
1.71226e-06
2.94519e-07
1.21247e-08
6.10418e-09
3.95124e-09
4.48012e-09
2.22083e-08
1.5351e-08
1.58364e-08
1.87306e-09
4.8298e-11
1.34677e-12
2.77018e-14
9.92869e-11
3.82516e-06
8.34966e-05
0.00020926
2.06017e-05
6.34432e-05
5.16877e-05
3.77325e-05
6.25827e-05
7.46328e-05
5.49601e-05
2.8503e-05
7.50223e-06
5.80251e-06
1.26048e-05
2.99598e-05
2.4742e-05
7.94131e-06
7.63152e-06
7.1854e-08
1.3692e-11
7.00972e-16
1.07499e-20
1.22171e-23
4.92219e-27
7.5518e-30
9.50404e-33
7.64633e-33
1.96578e-33
1.35519e-31
4.19779e-43
4.65109e-41
2.72235e-39
9.61679e-41
6.51003e-45
9.20214e-49
1.13611e-52
1.74216e-56
3.43436e-60
8.05478e-63
7.32211e-65
1.26727e-66
1.04703e-69
1.83604e-73
2.42259e-77
4.55983e-81
9.57935e-85
2.91348e-89
3.48936e-93
1.50407e-96
8.0687e-100
3.61554e-103
2.16344e-106
1.30377e-109
6.46219e-113
4.52775e-116
7.67776e-119
6.33596e-121
5.42619e-124
2.36939e-127
3.2579e-133
2.1295e-133
5.12157e-136
7.32507e-139
4.54116e-142
3.12234e-145
1.25769e-148
7.47889e-152
3.2148e-155
2.53548e-158
1.16915e-161
7.72013e-165
5.64306e-168
4.9706e-171
3.74053e-174
2.22668e-178
7.19235e-182
3.25911e-186
8.19732e-191
1.09339e-195
1.4511e-200
1.1496e-205
1.26792e-210
9.7538e-216
1.34555e-220
1.19981e-225
8.8009e-231
2.74286e-236
6.76489e-242
1.18888e-247
1.41368e-268
4.48307e-271
3.91357e-276
2.95468e-281
3.41701e-285
8.26637e-288
1.98038e-290
4.11361e-293
8.54341e-296
1.62004e-298
3.09022e-301
5.59783e-304
9.95035e-307
1.74566e-309
2.91896e-312
4.91795e-315
7.90741e-318
1.24406e-320
1.97626e-323
0
0
0
0
0
0
0
0
0
0
0
0
0
0
0
0
0
0
0
0
0
0
0
0
0
0
0
0
0
0
0
0
0
0
0
0
0
0
0
0
0
0
0
0
0
0
0
0
0
0
0
0
0
0
0
0
0
0
0
0
0
0
0
0
0
0
0
0
0
0
0
0
0
0
0
0
0
0
0
0
0
0
0
0
0
0
0
0
0
0
0
0
0
0
0
0
0
0
0
0
0
0
0
0
0
0
0
0
0
0
0
0
0
0
0
0
0
0
0
0
0
0
0
0
0
0
0
0
0
0
0
0
0
0
0
0
0
0
0
0
0
0
0
0
0
0
0
0
0
0
0
0
0
0
0
0
0
0
0
0
0
0
0
0
0
0
0
0
0
0
0
0
0
0
0
0
0
0
0
0
0
0
0
0
0
0
0
0
0
0
0
0
0
0
0
0
0
0
0
0
0
0
0
0
0
0
0
0
0
0
0
0
0
0
0
0
0
0
0
0
0
0
0
0
0
0
0
0
0
0
0
0
0
0
0
0
0
0
0
0
0
0
0
0
0
0
0
0
0
0
0
2.5754e-06
2.91135e-06
3.16092e-06
5.51235e-05
0.000160093
5.31237e-05
2.17413e-05
1.0783e-05
8.88678e-06
1.3948e-06
1.1432e-07
4.3074e-08
6.64237e-10
1.584e-13
1.06018e-07
3.53503e-05
9.96938e-06
1.51537e-05
3.68616e-05
3.09627e-05
2.65558e-05
1.38003e-05
1.27613e-05
9.3402e-06
4.74364e-06
2.93332e-06
1.87875e-06
1.01866e-06
1.19166e-06
2.42198e-06
1.26798e-06
3.03981e-06
4.0165e-06
2.35564e-06
2.28924e-07
2.67594e-10
1.10585e-13
5.75447e-17
1.40122e-20
4.37995e-24
3.95946e-28
2.21671e-31
8.23258e-32
5.97203e-29
3.82757e-38
7.02252e-35
1.0509e-34
7.22459e-38
2.11471e-41
7.99945e-45
1.29118e-48
1.09293e-52
1.38029e-56
5.20248e-60
2.23022e-63
5.8132e-66
9.18422e-68
1.80952e-69
2.99509e-72
9.73705e-76
2.8699e-79
1.00531e-82
4.15704e-86
1.86826e-89
8.27809e-93
4.11339e-96
1.97595e-99
8.02597e-103
3.45811e-106
1.03927e-109
2.86884e-113
6.48271e-117
1.56358e-120
2.11802e-124
1.28861e-127
7.92793e-128
3.10077e-130
5.28217e-133
4.92627e-136
2.32761e-139
1.10438e-142
4.48535e-146
2.63478e-149
1.5074e-152
1.15809e-155
7.0772e-159
5.64772e-162
3.55694e-165
3.13852e-168
2.22607e-171
1.43274e-174
4.05774e-179
9.20027e-184
9.69726e-189
1.08919e-193
8.8108e-199
7.22078e-204
5.30606e-209
4.50108e-214
4.20261e-219
2.84413e-224
9.55634e-230
1.97724e-235
3.85725e-241
3.2921e-261
8.86827e-264
5.95828e-269
3.76455e-274
2.33661e-279
1.30064e-283
2.48442e-286
5.08895e-289
9.66058e-292
1.83683e-294
3.27819e-297
5.89426e-300
1.00416e-302
1.72688e-305
2.8325e-308
4.70893e-311
7.43022e-314
1.18119e-316
1.78476e-319
2.71736e-322
0
0
0
0
0
0
0
0
0
0
0
0
0
0
0
0
0
0
0
0
0
0
0
0
0
0
0
0
0
0
0
0
0
0
0
0
0
0
0
0
0
0
0
0
0
0
0
0
0
0
0
0
0
0
0
0
0
0
0
0
0
0
0
0
0
0
0
0
0
0
0
0
0
0
0
0
0
0
0
0
0
0
0
0
0
0
0
0
0
0
0
0
0
0
0
0
0
0
0
0
0
0
0
0
0
0
0
0
0
0
0
0
0
0
0
0
0
0
0
0
0
0
0
0
0
0
0
0
0
0
0
0
0
0
0
0
0
0
0
0
0
0
0
0
0
0
0
0
0
0
0
0
0
0
0
0
0
0
0
0
0
0
0
0
0
0
0
0
0
0
0
0
0
0
0
0
0
0
0
0
0
0
0
0
0
0
0
0
0
0
0
0
0
0
0
0
0
0
0
0
0
0
0
0
0
0
0
0
0
0
0
0
0
0
0
0
0
0
0
0
0
0
0
0
0
0
0
0
0
0
0
0
0
0
0
0
0
0
0
0
0
0
0
0
0
0
0
0
0
0
0.000196737
0.000236924
0.000478862
0.00124339
0.00121257
0.000889639
0.000391257
0.000174427
0.000119223
5.04806e-05
2.00134e-05
4.83173e-06
7.94522e-08
1.00629e-10
3.71685e-07
5.7385e-05
2.19566e-05
1.63456e-05
0.000117648
9.737e-05
8.15795e-05
4.37336e-05
2.13739e-05
8.12139e-06
3.73546e-06
1.64019e-06
7.78708e-07
3.88685e-07
3.33142e-07
3.90292e-07
5.05005e-07
9.43186e-07
1.01511e-06
1.59637e-06
8.29315e-07
2.05161e-07
2.41818e-09
7.34978e-12
1.94505e-14
1.58619e-17
4.59855e-22
1.40687e-26
4.56162e-30
7.01687e-27
1.05214e-32
1.47077e-30
1.15936e-31
8.52782e-34
4.34799e-37
2.66643e-41
3.3198e-45
1.01973e-48
9.49097e-52
1.22165e-55
7.23364e-60
9.57503e-64
1.12318e-66
8.41255e-69
1.19713e-70
2.25253e-72
4.71707e-75
3.43375e-78
2.33605e-81
1.44253e-84
8.98494e-88
5.05847e-91
2.75609e-94
1.37151e-97
5.68342e-101
1.96775e-104
4.46817e-108
6.82869e-112
6.24396e-116
3.6386e-120
4.76835e-123
2.54235e-124
2.9567e-127
6.10943e-130
2.74466e-132
8.49613e-135
7.4203e-138
4.95396e-141
3.02557e-144
2.51331e-147
1.67717e-150
1.50993e-153
9.77355e-157
8.24965e-160
6.08762e-163
4.96911e-166
3.57572e-169
2.69608e-172
5.00299e-177
5.82955e-182
5.657e-187
3.44582e-192
2.40097e-197
1.3612e-202
9.17365e-208
5.88803e-213
4.11697e-218
1.45025e-223
2.92382e-229
5.00984e-235
4.78609e-254
1.03007e-256
5.87267e-262
3.08338e-267
1.63528e-272
8.7108e-278
2.29387e-282
3.31261e-285
6.02429e-288
1.02412e-290
1.77576e-293
2.91342e-296
4.82378e-299
7.7664e-302
1.23466e-304
1.95093e-307
2.96876e-310
4.54839e-313
6.63009e-316
9.81224e-319
1.38338e-321
0
0
0
0
0
0
0
0
0
0
0
0
0
0
0
0
0
0
0
0
0
0
0
0
0
0
0
0
0
0
0
0
0
0
0
0
0
0
0
0
0
0
0
0
0
0
0
0
0
0
0
0
0
0
0
0
0
0
0
0
0
0
0
0
0
0
0
0
0
0
0
0
0
0
0
0
0
0
0
0
0
0
0
0
0
0
0
0
0
0
0
0
0
0
0
0
0
0
0
0
0
0
0
0
0
0
0
0
0
0
0
0
0
0
0
0
0
0
0
0
0
0
0
0
0
0
0
0
0
0
0
0
0
0
0
0
0
0
0
0
0
0
0
0
0
0
0
0
0
0
0
0
0
0
0
0
0
0
0
0
0
0
0
0
0
0
0
0
0
0
0
0
0
0
0
0
0
0
0
0
0
0
0
0
0
0
0
0
0
0
0
0
0
0
0
0
0
0
0
0
0
0
0
0
0
0
0
0
0
0
0
0
0
0
0
0
0
0
0
0
0
0
0
0
0
0
0
0
0
0
0
0
0
0
0
0
0
0
0
0
0
0
0
0
0
0
0
0
0
0.00136868
0.00139334
0.00138233
0.00112097
0.000942752
0.000834874
0.000502318
0.000315722
0.000298591
0.00021945
0.000128688
5.48295e-05
8.74098e-07
1.67743e-09
1.60971e-06
7.65386e-05
4.63216e-05
0.000137327
0.0003047
0.000313354
0.000319889
0.00032095
0.000110263
2.99326e-05
8.35088e-06
2.36865e-06
7.69273e-07
2.9625e-07
1.52372e-07
1.34415e-07
1.4535e-07
1.70523e-07
3.84242e-07
4.49261e-07
6.36482e-07
2.34335e-07
9.54773e-08
5.68394e-09
2.72786e-10
1.24419e-12
1.83812e-15
2.43023e-20
4.27872e-25
1.56033e-24
3.25316e-28
3.11613e-27
3.67184e-28
7.08995e-30
1.20952e-34
2.03731e-39
6.57417e-44
2.10647e-46
1.53478e-47
2.21551e-51
9.16689e-56
4.05303e-60
3.38361e-64
2.30197e-67
1.33048e-69
1.73506e-71
2.31495e-73
1.604e-75
6.73509e-78
1.17274e-80
1.30495e-83
1.18134e-86
9.43907e-90
6.91317e-93
4.36164e-96
2.08509e-99
7.13097e-103
1.22713e-106
9.70454e-111
1.97546e-115
1.18632e-119
1.80452e-121
1.11158e-124
7.65909e-128
9.45376e-131
3.94623e-133
2.75373e-135
1.71934e-137
3.73405e-140
4.81919e-143
5.42873e-146
5.1597e-149
5.04981e-152
4.39868e-155
4.13562e-158
3.48096e-161
3.09063e-164
2.5612e-167
2.20558e-170
2.46546e-175
2.30005e-180
1.44917e-185
8.67519e-191
4.4458e-196
2.36855e-201
1.23686e-206
7.2849e-212
3.03925e-217
6.83565e-223
1.02129e-228
6.06956e-247
9.43705e-250
3.67288e-255
1.54618e-260
7.08676e-266
3.45198e-271
1.78708e-276
3.24057e-281
3.86119e-284
6.42253e-287
1.01003e-289
1.63517e-292
2.50666e-295
3.95767e-298
5.96229e-301
9.17645e-304
1.35329e-306
2.01352e-309
2.88e-312
4.14246e-315
5.75392e-318
8.10268e-321
9.88131e-324
0
0
0
0
0
0
0
0
0
0
0
0
0
0
0
0
0
0
0
0
0
0
0
0
0
0
0
0
0
0
0
0
0
0
0
0
0
0
0
0
0
0
0
0
0
0
0
0
0
0
0
0
0
0
0
0
0
0
0
0
0
0
0
0
0
0
0
0
0
0
0
0
0
0
0
0
0
0
0
0
0
0
0
0
0
0
0
0
0
0
0
0
0
0
0
0
0
0
0
0
0
0
0
0
0
0
0
0
0
0
0
0
0
0
0
0
0
0
0
0
0
0
0
0
0
0
0
0
0
0
0
0
0
0
0
0
0
0
0
0
0
0
0
0
0
0
0
0
0
0
0
0
0
0
0
0
0
0
0
0
0
0
0
0
0
0
0
0
0
0
0
0
0
0
0
0
0
0
0
0
0
0
0
0
0
0
0
0
0
0
0
0
0
0
0
0
0
0
0
0
0
0
0
0
0
0
0
0
0
0
0
0
0
0
0
0
0
0
0
0
0
0
0
0
0
0
0
0
0
0
0
0
0
0
0
0
0
0
0
0
0
0
0
0
0
0
0
0.00121561
0.00111685
0.000790854
0.000514199
0.000503687
0.000403164
0.000295646
0.000320974
0.000323591
0.000314649
0.000202397
5.58256e-05
1.10951e-06
8.23778e-09
1.21388e-05
0.000206989
0.000193749
0.000290228
0.00014151
0.000125022
0.000162313
0.000227422
0.000325732
0.000212392
2.79421e-05
7.1398e-06
1.4175e-06
3.88095e-07
1.35263e-07
7.40419e-08
6.08133e-08
5.81346e-08
7.51258e-08
1.06103e-07
1.22427e-07
3.82611e-07
1.14578e-07
7.8096e-08
8.48978e-09
1.40601e-09
5.9747e-11
6.71848e-14
2.36297e-19
9.85939e-22
7.62698e-24
5.95317e-24
1.36187e-24
2.77911e-26
7.16337e-31
8.31308e-36
1.26583e-39
9.72328e-43
8.98314e-44
1.00072e-47
3.65179e-52
1.91663e-56
1.07712e-60
1.02861e-64
4.50263e-68
2.13664e-70
3.0469e-72
3.44244e-74
2.32157e-76
1.00767e-78
3.44171e-81
9.35366e-84
1.98359e-86
3.03044e-89
3.41203e-92
2.74235e-95
1.49424e-98
4.4974e-102
2.95349e-106
3.89588e-111
1.12533e-116
2.88591e-118
2.99523e-121
5.86688e-125
2.05805e-128
2.22378e-131
1.02148e-133
9.29059e-136
5.54349e-138
2.04263e-140
5.3524e-143
1.0006e-145
1.55905e-148
2.0261e-151
2.2838e-154
2.48002e-157
2.41231e-160
2.37982e-163
2.11474e-166
1.92903e-169
1.61415e-174
9.932e-180
4.8906e-185
2.20303e-190
9.81744e-196
4.3078e-201
2.09326e-206
8.35249e-212
2.18056e-217
3.60117e-223
9.77999e-241
8.04686e-244
2.40653e-249
8.44303e-255
3.35869e-260
1.51111e-265
7.31511e-271
3.85515e-276
7.44194e-281
7.84365e-284
1.12678e-286
1.60633e-289
2.34673e-292
3.40465e-295
4.96229e-298
7.12304e-301
1.01833e-303
1.43611e-306
1.99003e-309
2.73684e-312
3.69671e-315
4.97966e-318
6.61554e-321
4.94066e-324
0
0
0
0
0
0
0
0
0
0
0
0
0
0
0
0
0
0
0
0
0
0
0
0
0
0
0
0
0
0
0
0
0
0
0
0
0
0
0
0
0
0
0
0
0
0
0
0
0
0
0
0
0
0
0
0
0
0
0
0
0
0
0
0
0
0
0
0
0
0
0
0
0
0
0
0
0
0
0
0
0
0
0
0
0
0
0
0
0
0
0
0
0
0
0
0
0
0
0
0
0
0
0
0
0
0
0
0
0
0
0
0
0
0
0
0
0
0
0
0
0
0
0
0
0
0
0
0
0
0
0
0
0
0
0
0
0
0
0
0
0
0
0
0
0
0
0
0
0
0
0
0
0
0
0
0
0
0
0
0
0
0
0
0
0
0
0
0
0
0
0
0
0
0
0
0
0
0
0
0
0
0
0
0
0
0
0
0
0
0
0
0
0
0
0
0
0
0
0
0
0
0
0
0
0
0
0
0
0
0
0
0
0
0
0
0
0
0
0
0
0
0
0
0
0
0
0
0
0
0
0
0
0
0
0
0
0
0
0
0
0
0
0
0
0
0
0.000432793
0.000356951
0.000158677
0.000122891
0.000162547
0.00014996
0.00015131
0.000127894
0.00011856
0.000209071
0.000309043
7.17529e-05
1.7926e-06
1.089e-07
5.32796e-07
1.72209e-06
2.70737e-05
0.000238165
0.000287713
0.000150338
5.98804e-05
8.45817e-05
0.000141163
0.000198827
0.000261304
0.000332168
0.000162904
1.67067e-05
2.36612e-06
3.26606e-07
1.37116e-07
6.12863e-08
4.25851e-08
3.25824e-08
2.32761e-08
2.72288e-08
4.26743e-08
4.95437e-08
7.25845e-08
1.03463e-07
4.21258e-08
2.52293e-08
3.5813e-09
6.78144e-10
1.92306e-12
3.97141e-17
3.36884e-20
7.15712e-23
9.69766e-23
6.19751e-21
3.95001e-21
4.94652e-23
3.40628e-27
1.32691e-31
3.27036e-35
5.52414e-38
4.1817e-40
1.44496e-44
5.98253e-49
3.39799e-53
2.7499e-57
2.42569e-61
3.1035e-65
1.36892e-68
4.27059e-71
5.90387e-73
5.07296e-75
2.65679e-77
9.32219e-80
2.46942e-82
5.06733e-85
1.79465e-87
4.70563e-90
1.32658e-92
3.5377e-95
3.94382e-98
1.2516e-101
3.31137e-106
1.42969e-109
2.9568e-112
2.07988e-114
3.00134e-116
1.7064e-118
3.32487e-122
6.77706e-126
3.92412e-129
7.88317e-132
6.72366e-134
4.16122e-136
1.45125e-138
3.70288e-141
7.09919e-144
1.17888e-146
2.09674e-149
2.72551e-152
3.44521e-155
4.07875e-158
5.06925e-161
5.37757e-164
5.90519e-167
5.50793e-170
4.24046e-175
1.27386e-180
4.95345e-186
1.98096e-191
8.38476e-197
3.85335e-202
1.76014e-207
7.63351e-213
2.95502e-218
4.22102e-224
5.03104e-230
5.06814e-236
1.60748e-241
7.92105e-247
5.75244e-252
5.22059e-257
5.02178e-262
4.54016e-267
3.62054e-272
2.63524e-277
2.77958e-281
3.30256e-284
3.97412e-287
4.59765e-290
5.56524e-293
6.63124e-296
8.06378e-299
9.91882e-302
1.19382e-304
1.50264e-307
1.77787e-310
2.25303e-313
2.66648e-316
3.35851e-319
4.05134e-322
0
0
0
0
0
0
0
0
0
0
0
0
0
0
0
0
0
0
0
0
0
0
0
0
0
0
0
0
0
0
0
0
0
0
0
0
0
0
0
0
0
0
0
0
0
0
0
0
0
0
0
0
0
0
0
0
0
0
0
0
0
0
0
0
0
0
0
0
0
0
0
0
0
0
0
0
0
0
0
0
0
0
0
0
0
0
0
0
0
0
0
0
0
0
0
0
0
0
0
0
0
0
0
0
0
0
0
0
0
0
0
0
0
0
0
0
0
0
0
0
0
0
0
0
0
0
0
0
0
0
0
0
0
0
0
0
0
0
0
0
0
0
0
0
0
0
0
0
0
0
0
0
0
0
0
0
0
0
0
0
0
0
0
0
0
0
0
0
0
0
0
0
0
0
0
0
0
0
0
0
0
0
0
0
0
0
0
0
0
0
0
0
0
0
0
0
0
0
0
0
0
0
0
0
0
0
0
0
0
0
0
0
0
0
0
0
0
0
0
0
0
0
0
0
0
0
0
0
0
0
0
0
0
0
0
0
0
0
0
0
0
0
0
0
0
0
0
0
0
0
0
0
0
0
0
0
0
0
0
0
0
0
0
0
3.584e-05
3.11663e-05
1.19919e-05
1.07585e-05
3.43388e-05
5.44169e-05
3.16337e-05
1.30583e-05
1.0086e-05
1.30124e-05
2.37105e-05
0.000257387
4.48339e-05
5.67838e-07
1.43099e-06
8.84669e-06
1.37093e-05
9.86566e-05
0.000145246
6.51181e-05
6.85414e-05
0.000208813
0.000322849
0.000322942
0.000328149
0.000322495
9.981e-05
1.00406e-05
1.55231e-06
3.02841e-07
9.6906e-08
4.90602e-08
2.99674e-08
1.96663e-08
1.57118e-08
1.26056e-08
1.37749e-08
1.54203e-08
1.97935e-08
1.50899e-08
4.07564e-08
4.46548e-08
2.10529e-08
8.18486e-09
2.68146e-09
8.06097e-11
3.614e-13
1.02874e-16
3.64047e-19
2.88886e-20
8.33625e-21
3.48821e-22
4.45733e-25
5.3842e-28
1.97446e-30
3.46976e-33
3.28865e-37
1.06503e-41
5.10958e-46
2.64065e-50
3.27485e-54
5.24199e-58
6.53805e-62
9.71665e-66
3.28615e-69
6.19828e-72
3.36189e-74
1.71003e-76
5.68222e-79
2.82637e-81
8.01619e-84
2.57634e-86
7.5701e-89
2.05196e-91
5.79018e-94
2.13591e-96
1.01133e-98
2.04544e-101
9.4728e-105
8.77915e-108
2.53736e-110
4.89718e-113
1.63673e-116
3.85021e-120
1.23616e-123
6.69762e-127
9.22474e-130
2.07351e-132
6.23099e-135
1.42813e-137
2.68474e-140
4.52302e-143
7.96124e-146
1.16592e-148
1.88401e-151
2.46769e-154
3.27112e-157
3.85492e-160
4.66817e-163
5.20542e-166
6.63048e-169
5.33999e-172
1.70583e-177
4.14138e-183
9.34385e-189
2.05015e-194
5.54222e-200
2.06522e-205
9.52428e-211
6.20209e-216
1.52028e-221
4.57025e-227
9.67908e-233
3.30413e-238
1.75755e-243
1.16455e-248
8.88792e-254
7.90212e-259
7.83539e-264
6.43074e-269
4.15666e-274
2.18237e-279
5.8839e-284
6.62707e-287
8.92622e-290
1.18458e-292
1.57749e-295
2.07582e-298
2.72715e-301
3.54738e-304
4.56607e-307
5.83336e-310
7.33835e-313
9.20398e-316
1.13579e-318
1.39821e-321
0
0
0
0
0
0
0
0
0
0
0
0
0
0
0
0
0
0
0
0
0
0
0
0
0
0
0
0
0
0
0
0
0
0
0
0
0
0
0
0
0
0
0
0
0
0
0
0
0
0
0
0
0
0
0
0
0
0
0
0
0
0
0
0
0
0
0
0
0
0
0
0
0
0
0
0
0
0
0
0
0
0
0
0
0
0
0
0
0
0
0
0
0
0
0
0
0
0
0
0
0
0
0
0
0
0
0
0
0
0
0
0
0
0
0
0
0
0
0
0
0
0
0
0
0
0
0
0
0
0
0
0
0
0
0
0
0
0
0
0
0
0
0
0
0
0
0
0
0
0
0
0
0
0
0
0
0
0
0
0
0
0
0
0
0
0
0
0
0
0
0
0
0
0
0
0
0
0
0
0
0
0
0
0
0
0
0
0
0
0
0
0
0
0
0
0
0
0
0
0
0
0
0
0
0
0
0
0
0
0
0
0
0
0
0
0
0
0
0
0
0
0
0
0
0
0
0
0
0
0
0
0
0
0
0
0
0
0
0
0
0
0
0
0
0
0
0
0
0
0
0
0
0
0
0
0
0
0
0
0
0
0
0
0
7.10392e-07
9.12295e-07
8.15361e-07
5.68842e-07
1.17302e-06
2.9651e-06
2.4095e-06
2.05154e-06
1.00043e-06
8.15325e-07
8.13843e-07
1.3252e-06
1.1395e-05
7.42296e-05
0.000105476
3.17088e-05
0.000148942
0.000155153
7.2232e-05
7.81945e-05
0.000293012
1.62669e-05
1.51028e-05
2.26531e-05
6.89541e-05
3.84898e-05
1.12512e-05
1.78211e-06
3.643e-07
9.25335e-08
4.32691e-08
2.33034e-08
1.82649e-08
1.38532e-08
1.07071e-08
6.7456e-09
6.7436e-09
6.67752e-09
6.58008e-09
7.30095e-09
5.56931e-09
6.04288e-09
1.90049e-08
2.07123e-08
1.19786e-08
2.56031e-09
7.01214e-10
1.06345e-11
6.81483e-13
6.43486e-14
5.51369e-15
1.07247e-16
1.83961e-19
1.97894e-22
6.93158e-26
2.19623e-30
7.59971e-35
3.92987e-39
3.19519e-43
2.47935e-47
4.65932e-51
5.52555e-55
1.04588e-58
1.31726e-62
1.98181e-66
2.99565e-70
1.33589e-73
1.20851e-76
3.71717e-79
1.01425e-81
3.21349e-84
7.80185e-87
2.49245e-89
6.24464e-92
2.16061e-94
7.55507e-97
2.21993e-99
8.56687e-102
2.36582e-104
4.1334e-107
4.30096e-110
2.68723e-113
1.18753e-116
5.08169e-120
2.13749e-123
1.25094e-126
1.20367e-129
1.96976e-132
3.50238e-135
6.4772e-138
1.09988e-140
1.62827e-143
2.32248e-146
4.03264e-149
5.46544e-152
6.68407e-155
8.25045e-158
9.66229e-161
1.13963e-163
1.29348e-166
1.79318e-169
1.8531e-172
8.28857e-178
3.0784e-183
1.03089e-188
3.04111e-194
8.53878e-200
2.30988e-205
6.6475e-211
2.30273e-216
6.95978e-222
2.31158e-227
6.75909e-233
2.81467e-238
1.35255e-243
8.80493e-249
6.28027e-254
5.16524e-259
4.70527e-264
3.97396e-269
2.64081e-274
1.44868e-279
6.9711e-285
3.87687e-289
4.79344e-292
6.48756e-295
8.66392e-298
1.17017e-300
1.5449e-303
2.05238e-306
2.66466e-309
3.45918e-312
4.38486e-315
5.51758e-318
6.80822e-321
9.88131e-324
0
0
0
0
0
0
0
0
0
0
0
0
0
0
0
0
0
0
0
0
0
0
0
0
0
0
0
0
0
0
0
0
0
0
0
0
0
0
0
0
0
0
0
0
0
0
0
0
0
0
0
0
0
0
0
0
0
0
0
0
0
0
0
0
0
0
0
0
0
0
0
0
0
0
0
0
0
0
0
0
0
0
0
0
0
0
0
0
0
0
0
0
0
0
0
0
0
0
0
0
0
0
0
0
0
0
0
0
0
0
0
0
0
0
0
0
0
0
0
0
0
0
0
0
0
0
0
0
0
0
0
0
0
0
0
0
0
0
0
0
0
0
0
0
0
0
0
0
0
0
0
0
0
0
0
0
0
0
0
0
0
0
0
0
0
0
0
0
0
0
0
0
0
0
0
0
0
0
0
0
0
0
0
0
0
0
0
0
0
0
0
0
0
0
0
0
0
0
0
0
0
0
0
0
0
0
0
0
0
0
0
0
0
0
0
0
0
0
0
0
0
0
0
0
0
0
0
0
0
0
0
0
0
0
0
0
0
0
0
0
0
0
0
0
0
0
0
0
0
0
0
0
0
0
0
0
0
0
0
0
0
0
0
0
1.45141e-08
3.19637e-08
2.21777e-08
3.56121e-08
3.67268e-08
3.46975e-08
4.68284e-08
5.72189e-08
4.75302e-08
5.1097e-08
4.69738e-08
5.5244e-08
1.36203e-07
3.71119e-07
3.9351e-07
3.94468e-07
5.41635e-06
0.000303173
0.000181813
0.00025931
4.37484e-06
1.2731e-06
1.38741e-06
2.91797e-06
3.79076e-06
1.93763e-06
7.69191e-07
1.84717e-07
5.27144e-08
2.82567e-08
1.80141e-08
1.33314e-08
1.05593e-08
8.43967e-09
6.46688e-09
6.87915e-09
6.12791e-09
5.30636e-09
4.77481e-09
4.35243e-09
3.93288e-09
3.94261e-09
2.27728e-09
2.08003e-09
4.18573e-09
3.12417e-09
2.60517e-09
7.5509e-11
7.64857e-12
1.78237e-12
4.87664e-13
1.12441e-14
1.73629e-17
7.263e-21
1.126e-24
9.52544e-29
7.27706e-33
7.04411e-37
9.42749e-41
1.43974e-44
1.94427e-48
5.09044e-52
8.9725e-56
1.59342e-59
2.39771e-63
3.18993e-67
5.47203e-71
1.09299e-74
4.79788e-78
2.51252e-81
1.29361e-84
2.07999e-87
4.20427e-90
1.07979e-92
2.73617e-95
6.71443e-98
1.63102e-100
4.05498e-103
7.85045e-106
1.39091e-108
1.73916e-111
1.56964e-114
1.23186e-117
7.8457e-121
4.70758e-124
3.98127e-127
3.89044e-130
4.84311e-133
6.90722e-136
9.5418e-139
1.18671e-141
1.8579e-144
2.52699e-147
3.65936e-150
4.43713e-153
5.06563e-156
5.90724e-159
6.43532e-162
9.20696e-165
1.00066e-167
1.13362e-170
8.91137e-174
2.79249e-179
6.7139e-185
1.45981e-190
3.00677e-196
7.46901e-202
2.46746e-207
1.04344e-212
4.82414e-218
1.9053e-223
7.38399e-229
2.63234e-234
1.00807e-239
4.84747e-245
2.57994e-250
1.54977e-255
1.08631e-260
8.57476e-266
6.46104e-271
3.92173e-276
2.01885e-281
8.92257e-287
1.6175e-291
1.67947e-294
2.26259e-297
3.02898e-300
4.13196e-303
5.54639e-306
7.52812e-309
9.96412e-312
1.32209e-314
1.70753e-317
2.20254e-320
2.96439e-323
0
0
0
0
0
0
0
0
0
0
0
0
0
0
0
0
0
0
0
0
0
0
0
0
0
0
0
0
0
0
0
0
0
0
0
0
0
0
0
0
0
0
0
0
0
0
0
0
0
0
0
0
0
0
0
0
0
0
0
0
0
0
0
0
0
0
0
0
0
0
0
0
0
0
0
0
0
0
0
0
0
0
0
0
0
0
0
0
0
0
0
0
0
0
0
0
0
0
0
0
0
0
0
0
0
0
0
0
0
0
0
0
0
0
0
0
0
0
0
0
0
0
0
0
0
0
0
0
0
0
0
0
0
0
0
0
0
0
0
0
0
0
0
0
0
0
0
0
0
0
0
0
0
0
0
0
0
0
0
0
0
0
0
0
0
0
0
0
0
0
0
0
0
0
0
0
0
0
0
0
0
0
0
0
0
0
0
0
0
0
0
0
0
0
0
0
0
0
0
0
0
0
0
0
0
0
0
0
0
0
0
0
0
0
0
0
0
0
0
0
0
0
0
0
0
0
0
0
0
0
0
0
0
0
0
0
0
0
0
0
0
0
0
0
0
0
0
0
0
0
0
0
0
0
0
0
0
0
0
0
0
0
0
0
0
3.8215e-09
4.32896e-09
5.25069e-09
6.08186e-09
6.58908e-09
6.94146e-09
7.43331e-09
7.20278e-09
7.00623e-09
6.39623e-09
7.06976e-09
9.83283e-09
1.43402e-08
2.62503e-08
4.12809e-08
5.28362e-08
3.40185e-07
2.75049e-05
2.5449e-05
1.0351e-06
2.09232e-07
1.69284e-07
2.11028e-07
2.83504e-07
3.26238e-07
1.61109e-07
1.00572e-07
4.45286e-08
1.91262e-08
1.55228e-08
1.03014e-08
7.25405e-09
7.05434e-09
6.76059e-09
6.57632e-09
6.3518e-09
5.98018e-09
5.48827e-09
4.84781e-09
4.29627e-09
3.92268e-09
3.13055e-09
2.16005e-09
2.14626e-09
1.47229e-09
9.77179e-10
5.1179e-10
5.68332e-10
4.39989e-10
8.03077e-11
1.32892e-11
8.71645e-15
6.78641e-18
2.28052e-21
4.5546e-25
7.89531e-29
8.8283e-33
1.08297e-36
1.43677e-40
5.13915e-44
1.48327e-47
4.23776e-51
1.23804e-54
3.43026e-58
9.79422e-62
2.90167e-65
9.21315e-69
3.08715e-72
1.09068e-75
3.98736e-79
8.42896e-83
7.5674e-86
3.19353e-89
1.43518e-92
7.01772e-96
4.18317e-99
3.97167e-102
5.85109e-105
9.60852e-108
1.39277e-110
1.56401e-113
1.8104e-116
1.85151e-119
1.79101e-122
1.52662e-125
1.60369e-128
1.76829e-131
2.02869e-134
2.3292e-137
2.67912e-140
2.71046e-143
3.2998e-146
3.59127e-149
4.19066e-152
5.71007e-155
5.88021e-158
6.03238e-161
5.97542e-164
6.00137e-167
5.76152e-170
5.57523e-173
2.90576e-178
1.43341e-183
6.62681e-189
2.82035e-194
1.142e-199
4.22485e-205
1.50821e-210
4.94221e-216
1.62587e-221
4.79996e-227
1.54285e-232
5.21434e-238
2.07152e-243
9.78545e-249
5.33085e-254
3.29532e-259
2.31312e-264
1.69454e-269
1.09453e-274
5.73023e-280
2.52307e-285
1.11664e-290
1.90424e-294
2.51933e-297
3.41752e-300
4.67884e-303
6.43795e-306
8.79402e-309
1.20551e-311
1.61782e-314
2.16075e-317
2.83001e-320
3.45846e-323
0
0
0
0
0
0
0
0
0
0
0
0
0
0
0
0
0
0
0
0
0
0
0
0
0
0
0
0
0
0
0
0
0
0
0
0
0
0
0
0
0
0
0
0
0
0
0
0
0
0
0
0
0
0
0
0
0
0
0
0
0
0
0
0
0
0
0
0
0
0
0
0
0
0
0
0
0
0
0
0
0
0
0
0
0
0
0
0
0
0
0
0
0
0
0
0
0
0
0
0
0
0
0
0
0
0
0
0
0
0
0
0
0
0
0
0
0
0
0
0
0
0
0
0
0
0
0
0
0
0
0
0
0
0
0
0
0
0
0
0
0
0
0
0
0
0
0
0
0
0
0
0
0
0
0
0
0
0
0
0
0
0
0
0
0
0
0
0
0
0
0
0
0
0
0
0
0
0
0
0
0
0
0
0
0
0
0
0
0
0
0
0
0
0
0
0
0
0
0
0
0
0
0
0
0
0
0
0
0
0
0
0
0
0
0
0
0
0
0
0
0
0
0
0
0
0
0
0
0
0
0
0
0
0
0
0
0
0
0
0
0
0
0
0
0
0
0
0
0
0
0
0
0
0
0
0
0
0
0
0
0
0
0
0
0
0
4.70127e-09
4.99577e-09
5.46171e-09
5.69151e-09
5.80332e-09
5.54621e-09
5.50247e-09
5.34451e-09
5.0997e-09
5.08129e-09
5.22496e-09
5.58164e-09
6.17814e-09
6.45392e-09
1.06781e-08
1.22851e-08
1.5929e-08
1.45959e-07
1.42803e-07
5.41831e-08
2.99099e-08
2.40473e-08
2.54481e-08
3.11395e-08
3.11674e-08
2.48069e-08
1.95037e-08
1.57767e-08
1.08594e-08
7.8299e-09
7.01495e-09
6.4655e-09
6.32388e-09
6.22533e-09
6.06999e-09
5.89236e-09
5.77081e-09
5.58303e-09
5.32188e-09
5.12381e-09
4.81166e-09
4.41854e-09
3.84441e-09
2.86668e-09
2.33528e-09
2.06392e-09
1.63945e-09
1.65807e-09
8.63627e-10
4.53013e-10
7.48869e-11
1.07432e-13
3.75599e-17
5.96721e-21
8.09475e-25
1.68142e-28
1.78608e-32
2.01733e-36
3.23871e-40
7.73462e-44
2.37075e-47
8.17375e-51
2.7189e-54
9.48671e-58
3.17162e-61
1.07741e-64
3.68568e-68
1.2787e-71
4.36775e-75
1.53161e-78
5.47236e-82
2.1803e-85
8.19754e-89
2.94086e-92
1.11105e-95
4.50542e-99
1.84888e-102
9.9562e-106
7.1415e-109
7.90776e-112
1.00501e-114
1.26472e-117
1.67757e-120
2.00905e-123
2.54212e-126
2.99492e-129
3.61803e-132
4.19814e-135
4.87524e-138
5.41218e-141
6.01562e-144
6.45987e-147
6.68394e-150
7.1138e-153
7.40157e-156
7.52139e-159
7.15404e-162
6.92555e-165
6.50549e-168
6.05313e-171
5.35524e-174
2.48769e-179
1.03815e-184
3.80409e-190
1.26054e-195
3.81814e-201
1.07175e-206
2.96943e-212
8.15935e-218
2.513e-223
8.60629e-229
3.43371e-234
1.46919e-239
6.90033e-245
3.37072e-250
1.78379e-255
9.95404e-261
5.77316e-266
2.96071e-271
1.27962e-276
4.74524e-282
1.59201e-287
5.35914e-293
6.33498e-297
8.21883e-300
1.12713e-302
1.52622e-305
2.12225e-308
2.90144e-311
4.03111e-314
5.47952e-317
7.46187e-320
9.88131e-323
0
0
0
0
0
0
0
0
0
0
0
0
0
0
0
0
0
0
0
0
0
0
0
0
0
0
0
0
0
0
0
0
0
0
0
0
0
0
0
0
0
0
0
0
0
0
0
0
0
0
0
0
0
0
0
0
0
0
0
0
0
0
0
0
0
0
0
0
0
0
0
0
0
0
0
0
0
0
0
0
0
0
0
0
0
0
0
0
0
0
0
0
0
0
0
0
0
0
0
0
0
0
0
0
0
0
0
0
0
0
0
0
0
0
0
0
0
0
0
0
0
0
0
0
0
0
0
0
0
0
0