/*--------------------------------*- C++ -*----------------------------------*\
| =========                 |                                                 |
| \\      /  F ield         | OpenFOAM: The Open Source CFD Toolbox           |
|  \\    /   O peration     | Version:  2.1.1                                 |
|   \\  /    A nd           | Web:      www.OpenFOAM.org                      |
|    \\/     M anipulation  |                                                 |
\*---------------------------------------------------------------------------*/
FoamFile
{
    version     2.0;
    format      ascii;
    class       volScalarField;
    location    "0.001650000";
    object      O2;
}
// * * * * * * * * * * * * * * * * * * * * * * * * * * * * * * * * * * * * * //

dimensions      [0 0 0 0 0 0 0];

internalField   nonuniform List<scalar> 
12384
(
0.0281306
0.0198894
0.0199548
0.207036
0.225277
0.226851
0.226992
0.227143
0.226915
0.226648
0.226364
0.226204
0.226138
0.226199
0.22743
0.227899
0.228381
0.228406
0.228392
0.228329
0.228248
0.228168
0.228251
0.228325
0.228438
0.228505
0.228572
0.228585
0.228584
0.228552
0.228533
0.228461
0.2282
0.227791
0.227247
0.226852
0.226564
0.226331
0.226201
0.226147
0.226145
0.226156
0.226169
0.226172
0.226629
0.226876
0.227074
0.227334
0.227539
0.227807
0.227907
0.22805
0.227999
0.227933
0.227781
0.227608
0.227358
0.22712
0.226902
0.226719
0.226557
0.226428
0.226326
0.226252
0.226202
0.226183
0.22617
0.226174
0.226177
0.226168
0.226172
0.226173
0.226174
0.226175
0.226401
0.22647
0.226457
0.226421
0.22639
0.226347
0.226309
0.226262
0.22624
0.226197
0.226203
0.226169
0.226195
0.226166
0.226194
0.226168
0.226192
0.22617
0.226189
0.226173
0.226186
0.226175
0.226184
0.226177
0.226182
0.226178
0.226181
0.226178
0.22618
0.226176
0.226177
0.22618
0.226181
0.226181
0.226181
0.226181
0.226181
0.226181
0.226181
0.226182
0.226182
0.226182
0.226183
0.226183
0.226184
0.226184
0.226184
0.226183
0.226183
0.226183
0.226183
0.226183
0.226182
0.226182
0.226182
0.226182
0.226182
0.226182
0.226182
0.226177
0.226177
0.226182
0.226183
0.226183
0.226183
0.226183
0.226183
0.226184
0.226184
0.226184
0.226185
0.226185
0.226186
0.226186
0.226186
0.226186
0.226186
0.226186
0.226185
0.226185
0.226185
0.226184
0.226184
0.226184
0.226184
0.226183
0.226183
0.226183
0.226183
0.226177
0.226177
0.226183
0.226183
0.226183
0.226183
0.226183
0.226184
0.226184
0.226184
0.226185
0.226185
0.226185
0.226186
0.226186
0.226186
0.226186
0.226186
0.226186
0.226185
0.226185
0.226184
0.226184
0.226184
0.226184
0.226183
0.226183
0.226183
0.226183
0.226183
0.226177
0.226177
0.226183
0.226183
0.226183
0.226183
0.226184
0.226184
0.226184
0.226184
0.226185
0.226185
0.226185
0.226186
0.226186
0.226186
0.226186
0.226186
0.226186
0.226185
0.226185
0.226185
0.226184
0.226184
0.226184
0.226184
0.226183
0.226183
0.226183
0.226183
0.226177
0.226177
0.226183
0.226183
0.226183
0.226183
0.226184
0.226184
0.226184
0.226184
0.226184
0.226185
0.226185
0.226186
0.226186
0.226186
0.226186
0.226186
0.226186
0.226185
0.226185
0.226185
0.226184
0.226184
0.226184
0.226184
0.226183
0.226183
0.226183
0.226183
0.226177
0.226177
0.226183
0.226183
0.226183
0.226183
0.226184
0.226184
0.226184
0.226184
0.226185
0.226185
0.226185
0.226185
0.226186
0.226186
0.226186
0.226186
0.226186
0.226185
0.226185
0.226184
0.226184
0.226184
0.226184
0.226184
0.226183
0.226183
0.226183
0.226183
0.226177
0.226177
0.226183
0.226183
0.226183
0.226183
0.226184
0.226184
0.226184
0.226184
0.226185
0.226185
0.226185
0.226185
0.226186
0.226186
0.226186
0.226186
0.226186
0.226185
0.226185
0.226185
0.226184
0.226184
0.226184
0.226184
0.226183
0.226183
0.226183
0.226183
0.226177
0.226177
0.226183
0.226183
0.226183
0.226183
0.226183
0.226184
0.226184
0.226184
0.226185
0.226185
0.226185
0.226186
0.226186
0.226186
0.226186
0.226186
0.226186
0.226185
0.226185
0.226185
0.226184
0.226184
0.226184
0.226184
0.226183
0.226183
0.226183
0.226183
0.226177
0.226177
0.226183
0.226183
0.226183
0.226183
0.226184
0.226184
0.226184
0.226184
0.226184
0.226185
0.226185
0.226185
0.226186
0.226186
0.226186
0.226186
0.226186
0.226185
0.226185
0.226185
0.226184
0.226184
0.226184
0.226184
0.226183
0.226183
0.226183
0.226183
0.226177
0.0404682
0.0446188
0.0293248
0.17386
0.217482
0.226969
0.228497
0.229452
0.229078
0.228925
0.228165
0.227674
0.226901
0.226576
0.228639
0.229484
0.229255
0.228365
0.226135
0.222597
0.219792
0.21966
0.220419
0.221333
0.222623
0.223623
0.224464
0.228272
0.229127
0.229588
0.229816
0.230018
0.230196
0.230289
0.230135
0.229737
0.229425
0.228705
0.227886
0.227121
0.226554
0.226244
0.226127
0.22613
0.228371
0.229192
0.229673
0.229963
0.230054
0.230075
0.230061
0.229996
0.230128
0.230204
0.230245
0.230249
0.23023
0.230133
0.229968
0.229742
0.229488
0.229223
0.228911
0.228582
0.228208
0.227795
0.227335
0.226929
0.226595
0.226436
0.226311
0.226278
0.22625
0.226216
0.229204
0.229348
0.229359
0.229228
0.22918
0.229005
0.228863
0.228651
0.228443
0.228233
0.228001
0.227829
0.227606
0.227479
0.227301
0.2272
0.227064
0.226969
0.22686
0.226765
0.226691
0.226602
0.22658
0.226501
0.226503
0.226451
0.226455
0.226431
0.226432
0.2263
0.226827
0.226934
0.226919
0.226884
0.226833
0.226791
0.226753
0.226719
0.226689
0.226667
0.226645
0.226636
0.226627
0.226635
0.226622
0.226626
0.2266
0.226598
0.226569
0.226573
0.226554
0.226558
0.226543
0.226543
0.226531
0.22653
0.226529
0.226525
0.226524
0.226315
0.226323
0.226541
0.226545
0.226553
0.226555
0.226564
0.226566
0.226576
0.226579
0.22659
0.226594
0.226605
0.226616
0.226627
0.226635
0.226631
0.226627
0.226614
0.226607
0.226598
0.226595
0.226585
0.226583
0.226573
0.22657
0.226561
0.226558
0.226554
0.226544
0.226324
0.226317
0.226546
0.226551
0.226559
0.226561
0.226565
0.226575
0.226578
0.226588
0.226591
0.226601
0.226604
0.226616
0.226623
0.226632
0.226632
0.22663
0.226615
0.226606
0.226593
0.226589
0.226578
0.226576
0.226567
0.226565
0.226557
0.226556
0.226549
0.226545
0.226318
0.226317
0.226547
0.226555
0.226558
0.226567
0.226569
0.226578
0.22658
0.22659
0.226592
0.226601
0.226604
0.226617
0.226625
0.226634
0.226632
0.226628
0.226614
0.226607
0.226598
0.226595
0.226585
0.226583
0.226573
0.226571
0.226562
0.226559
0.226554
0.226544
0.226324
0.226323
0.226542
0.226553
0.226555
0.226564
0.226565
0.226575
0.226577
0.226586
0.226588
0.226598
0.226602
0.226616
0.226625
0.226634
0.226632
0.226628
0.226615
0.226608
0.226598
0.226595
0.226585
0.226583
0.226573
0.22657
0.226562
0.226559
0.226554
0.226544
0.226324
0.226324
0.226544
0.226553
0.226561
0.226563
0.226572
0.226575
0.226584
0.226585
0.226595
0.226597
0.226606
0.226612
0.226625
0.22663
0.226635
0.226627
0.226618
0.226602
0.226595
0.22659
0.22658
0.226577
0.226568
0.226566
0.226557
0.226557
0.226549
0.226545
0.226317
0.226324
0.226543
0.226554
0.226556
0.226565
0.226566
0.226576
0.226578
0.226587
0.226589
0.226599
0.226602
0.226615
0.226624
0.226634
0.226632
0.226629
0.226615
0.226608
0.226598
0.226595
0.226585
0.226583
0.226573
0.22657
0.226561
0.226558
0.226554
0.226544
0.226324
0.226317
0.226547
0.226552
0.226556
0.226563
0.226566
0.226576
0.226578
0.226588
0.226591
0.226601
0.226604
0.226617
0.226625
0.226634
0.226634
0.226626
0.226617
0.226604
0.226601
0.226591
0.226588
0.226579
0.226577
0.226567
0.226565
0.226556
0.226553
0.226547
0.226317
0.226323
0.226543
0.226555
0.226558
0.226567
0.226568
0.226578
0.226579
0.226588
0.22659
0.226599
0.226602
0.226614
0.226622
0.226633
0.226632
0.226629
0.226616
0.226609
0.226599
0.226596
0.226586
0.226583
0.226573
0.226571
0.226561
0.226558
0.226554
0.226544
0.226324
0.0830547
0.0855306
0.0935153
0.186974
0.211309
0.219647
0.223025
0.223011
0.228754
0.230107
0.230305
0.230103
0.229117
0.228381
0.2302
0.229079
0.223973
0.210566
0.176063
0.0439442
0.0326959
0.0285568
0.0336286
0.0467227
0.0502147
0.0516576
0.0440187
0.181288
0.207848
0.21686
0.223528
0.228238
0.229287
0.230038
0.230637
0.230926
0.230905
0.230873
0.230626
0.22997
0.228894
0.227608
0.22663
0.226278
0.230428
0.230504
0.230375
0.229836
0.229175
0.228092
0.227685
0.227301
0.227754
0.228451
0.229279
0.229931
0.23034
0.230594
0.23075
0.23086
0.230929
0.230963
0.230992
0.231013
0.231016
0.230997
0.23095
0.230808
0.230552
0.230106
0.229593
0.229038
0.228641
0.228387
0.231006
0.230952
0.230915
0.230946
0.230933
0.230976
0.230959
0.231007
0.230975
0.231016
0.230971
0.231013
0.230961
0.231002
0.230945
0.230986
0.230936
0.230986
0.230945
0.230989
0.230947
0.230981
0.230927
0.230947
0.230881
0.230875
0.230808
0.230786
0.230741
0.230841
0.231119
0.230992
0.23097
0.230965
0.230963
0.230957
0.230955
0.230946
0.230945
0.230936
0.230934
0.230925
0.230917
0.230903
0.230901
0.230894
0.230902
0.230907
0.230916
0.230919
0.230921
0.230924
0.230925
0.230929
0.230932
0.230933
0.230933
0.230934
0.230936
0.231111
0.231112
0.230929
0.230922
0.230917
0.230914
0.230909
0.230905
0.2309
0.230896
0.23089
0.230885
0.230878
0.230867
0.230859
0.230854
0.230855
0.23086
0.230869
0.230876
0.230881
0.230885
0.23089
0.230894
0.230898
0.230903
0.230907
0.230911
0.230914
0.23092
0.231111
0.231111
0.230921
0.230915
0.23091
0.230909
0.230905
0.230899
0.230895
0.23089
0.230886
0.230881
0.230877
0.230869
0.230861
0.230856
0.230854
0.230858
0.230867
0.230877
0.230884
0.23089
0.230895
0.230899
0.230903
0.230906
0.23091
0.230912
0.230916
0.230923
0.231112
0.231111
0.23092
0.230914
0.230909
0.230905
0.230901
0.230897
0.230894
0.230889
0.230886
0.230881
0.230877
0.230868
0.23086
0.230854
0.230854
0.230859
0.230868
0.230876
0.230881
0.230886
0.23089
0.230894
0.230898
0.230903
0.230906
0.23091
0.230914
0.23092
0.231111
0.231111
0.230923
0.230915
0.230911
0.230907
0.230904
0.2309
0.230896
0.230892
0.230888
0.230883
0.230878
0.230869
0.23086
0.230854
0.230854
0.230859
0.230868
0.230876
0.230881
0.230885
0.23089
0.230894
0.230898
0.230903
0.230907
0.23091
0.230914
0.23092
0.231111
0.231112
0.230921
0.230914
0.230908
0.230905
0.230901
0.230897
0.230894
0.23089
0.230886
0.230882
0.230877
0.23087
0.230861
0.230856
0.230854
0.230857
0.230867
0.230878
0.230885
0.230888
0.230894
0.230898
0.230902
0.230906
0.230909
0.230912
0.230916
0.230923
0.231112
0.231111
0.230921
0.230914
0.23091
0.230907
0.230903
0.230899
0.230895
0.230891
0.230888
0.230883
0.230878
0.23087
0.23086
0.230855
0.230854
0.230859
0.230867
0.230876
0.230881
0.230885
0.23089
0.230894
0.230899
0.230903
0.230907
0.230911
0.230914
0.23092
0.231111
0.231111
0.23092
0.230914
0.230912
0.230907
0.230903
0.230899
0.230895
0.23089
0.230886
0.230881
0.230876
0.230868
0.23086
0.230854
0.230854
0.230859
0.230868
0.230876
0.230881
0.230886
0.23089
0.230895
0.230898
0.230903
0.230906
0.23091
0.230914
0.23092
0.231111
0.231111
0.230921
0.230913
0.230909
0.230905
0.230902
0.230898
0.230894
0.230891
0.230887
0.230883
0.230878
0.230871
0.230862
0.230855
0.230853
0.230858
0.230867
0.230875
0.23088
0.230885
0.23089
0.230894
0.230898
0.230903
0.230907
0.230911
0.230914
0.23092
0.231111
0.122357
0.119731
0.133558
0.153912
0.155885
0.159122
0.158329
0.150103
0.205298
0.219586
0.22874
0.230598
0.230532
0.2301
0.229889
0.224242
0.166117
0.00347602
7.01265e-05
0.000377815
0.000272587
0.000160589
0.000359242
0.000460633
0.000295796
0.000100263
1.57112e-05
1.09145e-05
3.10077e-05
0.000104014
9.02281e-05
0.193163
0.221661
0.227609
0.228811
0.229771
0.230343
0.23061
0.230812
0.23087
0.230644
0.229586
0.228037
0.226993
0.230562
0.230042
0.228591
0.22673
0.224986
0.224451
0.223986
0.223729
0.223471
0.223585
0.224595
0.226287
0.227769
0.228791
0.229421
0.229815
0.230087
0.230293
0.230451
0.230574
0.23068
0.230773
0.230851
0.230898
0.230938
0.230935
0.230935
0.230808
0.230676
0.230532
0.230278
0.229834
0.229866
0.229971
0.230159
0.23027
0.230421
0.230489
0.230607
0.230653
0.230735
0.23076
0.230812
0.230826
0.230859
0.230871
0.230887
0.230902
0.230903
0.230925
0.230916
0.23094
0.230929
0.230952
0.230939
0.230955
0.230945
0.230954
0.230954
0.23098
0.2309
0.230896
0.2309
0.230907
0.230913
0.23092
0.230922
0.230929
0.23093
0.230934
0.230935
0.230937
0.230938
0.230938
0.23094
0.230939
0.23094
0.230941
0.230941
0.230942
0.230941
0.230942
0.230942
0.230942
0.230942
0.230942
0.230943
0.230942
0.230944
0.230974
0.230974
0.230942
0.23094
0.23094
0.23094
0.23094
0.230939
0.23094
0.230939
0.230939
0.230938
0.230939
0.230938
0.230938
0.230938
0.230937
0.230938
0.230938
0.230939
0.230938
0.230939
0.230939
0.230939
0.230939
0.230939
0.230939
0.23094
0.23094
0.230942
0.230974
0.230974
0.230942
0.230939
0.23094
0.230939
0.230939
0.230939
0.230939
0.230939
0.230938
0.230939
0.230938
0.230938
0.230938
0.230938
0.230937
0.230938
0.230938
0.230939
0.230938
0.230939
0.230939
0.230939
0.230939
0.23094
0.230939
0.23094
0.230939
0.230942
0.230974
0.230974
0.230941
0.23094
0.230939
0.23094
0.230939
0.230939
0.230939
0.230939
0.230938
0.230939
0.230938
0.230938
0.230938
0.230938
0.230937
0.230938
0.230938
0.230939
0.230938
0.230939
0.230939
0.230939
0.230939
0.230939
0.230939
0.23094
0.23094
0.230942
0.230974
0.230974
0.230942
0.23094
0.230939
0.23094
0.230939
0.230939
0.230939
0.230939
0.230938
0.230939
0.230938
0.230938
0.230938
0.230938
0.230937
0.230938
0.230938
0.230939
0.230938
0.230939
0.230939
0.230939
0.230939
0.230939
0.230939
0.23094
0.23094
0.230942
0.230974
0.230974
0.230942
0.230939
0.23094
0.230939
0.230939
0.230939
0.230939
0.230939
0.230939
0.230938
0.230939
0.230938
0.230938
0.230938
0.230938
0.230938
0.230938
0.230938
0.230939
0.230939
0.230939
0.230939
0.230939
0.230939
0.230939
0.23094
0.230939
0.230942
0.230974
0.230974
0.230942
0.23094
0.230939
0.23094
0.230939
0.230939
0.230939
0.230939
0.230938
0.230939
0.230938
0.230938
0.230938
0.230938
0.230937
0.230938
0.230938
0.230939
0.230938
0.230939
0.230939
0.230939
0.230939
0.230939
0.230939
0.23094
0.23094
0.230942
0.230974
0.230974
0.230942
0.230939
0.230939
0.23094
0.230939
0.230939
0.230939
0.230939
0.230938
0.230939
0.230938
0.230938
0.230938
0.230938
0.230938
0.230938
0.230938
0.230938
0.230939
0.230938
0.230939
0.230939
0.230939
0.230939
0.23094
0.230939
0.23094
0.230942
0.230974
0.230974
0.230942
0.23094
0.230939
0.23094
0.230939
0.230939
0.230939
0.230939
0.230938
0.230939
0.230938
0.230938
0.230938
0.230938
0.230937
0.230938
0.230938
0.230939
0.230938
0.230939
0.230938
0.230939
0.230939
0.230939
0.230939
0.23094
0.23094
0.230942
0.230974
0.123497
0.119814
0.11845
0.0935048
0.074244
0.0814551
0.0899171
0.0994656
0.101972
0.121803
0.202295
0.222573
0.229978
0.230877
0.228476
0.189105
2.42374e-05
4.57857e-05
0.000176064
0.000107452
9.30318e-05
3.48699e-05
3.13677e-05
2.11937e-05
8.48177e-06
4.61082e-06
2.62491e-06
1.21097e-06
1.48227e-06
3.50258e-06
1.54596e-06
4.78995e-06
0.154775
0.215954
0.226566
0.227878
0.228924
0.229704
0.230169
0.230573
0.230795
0.230638
0.229656
0.228173
0.230263
0.228363
0.226087
0.224841
0.224795
0.225159
0.225055
0.224429
0.223329
0.22217
0.221536
0.221923
0.223833
0.225853
0.227318
0.228213
0.228776
0.22915
0.229443
0.229676
0.229874
0.230047
0.230202
0.230341
0.230474
0.230615
0.23072
0.230814
0.230843
0.230874
0.229137
0.228007
0.227779
0.228027
0.228422
0.228909
0.229221
0.229518
0.229678
0.229853
0.229937
0.23005
0.230093
0.23017
0.23019
0.230248
0.230256
0.230304
0.230304
0.230343
0.230341
0.230371
0.230371
0.230396
0.230407
0.230431
0.230454
0.230474
0.230498
0.230515
0.230286
0.230288
0.230306
0.230319
0.230334
0.230346
0.230358
0.230364
0.230374
0.230378
0.230385
0.230387
0.230392
0.230392
0.230397
0.230396
0.2304
0.230399
0.230403
0.230401
0.230404
0.230402
0.230405
0.230404
0.230406
0.230406
0.230405
0.230407
0.230406
0.23041
0.230409
0.230406
0.230407
0.230406
0.230407
0.230406
0.230407
0.230406
0.230407
0.230406
0.230407
0.230406
0.230407
0.230407
0.230406
0.230407
0.230406
0.230407
0.230406
0.230407
0.230406
0.230407
0.230406
0.230407
0.230406
0.230407
0.230406
0.230406
0.230407
0.230409
0.23041
0.230407
0.230407
0.230406
0.230407
0.230407
0.230406
0.230407
0.230406
0.230408
0.230406
0.230408
0.230406
0.230407
0.230406
0.230407
0.230406
0.230407
0.230406
0.230407
0.230406
0.230407
0.230406
0.230407
0.230406
0.230408
0.230406
0.230407
0.230407
0.230411
0.23041
0.230407
0.230406
0.230407
0.230406
0.230407
0.230406
0.230407
0.230406
0.230408
0.230406
0.230407
0.230406
0.230407
0.230406
0.230407
0.230406
0.230407
0.230406
0.230407
0.230406
0.230407
0.230406
0.230407
0.230406
0.230407
0.230406
0.230406
0.230407
0.230409
0.230409
0.230407
0.230406
0.230407
0.230406
0.230407
0.230406
0.230407
0.230406
0.230407
0.230406
0.230407
0.230406
0.230407
0.230406
0.230407
0.230406
0.230407
0.230406
0.230407
0.230406
0.230407
0.230406
0.230407
0.230406
0.230407
0.230406
0.230406
0.230407
0.230409
0.23041
0.230407
0.230407
0.230406
0.230407
0.230406
0.230407
0.230406
0.230408
0.230406
0.230407
0.230406
0.230407
0.230406
0.230407
0.230406
0.230407
0.230406
0.230407
0.230406
0.230406
0.230407
0.230406
0.230407
0.230406
0.230407
0.230406
0.230408
0.230407
0.23041
0.230409
0.230407
0.230406
0.230407
0.230406
0.230407
0.230406
0.230407
0.230406
0.230407
0.230406
0.230407
0.230406
0.230407
0.230406
0.230407
0.230406
0.230407
0.230406
0.230407
0.230406
0.230407
0.230406
0.230407
0.230406
0.230407
0.230406
0.230406
0.230407
0.230409
0.230411
0.230407
0.230407
0.230407
0.230406
0.230408
0.230406
0.230408
0.230406
0.230408
0.230406
0.230407
0.230406
0.230407
0.230406
0.230406
0.230407
0.230406
0.230407
0.230406
0.230408
0.230406
0.230408
0.230406
0.230407
0.230406
0.230407
0.230407
0.230407
0.23041
0.230409
0.230407
0.230406
0.230407
0.230406
0.230407
0.230406
0.230407
0.230406
0.230408
0.230406
0.230407
0.230406
0.230407
0.230406
0.230407
0.230406
0.230407
0.230406
0.230407
0.230406
0.230407
0.230406
0.230407
0.230406
0.230407
0.230406
0.230406
0.230407
0.230409
0.0826529
0.0776194
0.0610719
0.0270332
0.0172233
0.0225756
0.0339381
0.0482014
0.0584435
0.0764326
0.0910177
0.108768
0.218763
0.230502
0.227696
0.186685
7.6391e-05
5.13673e-05
0.00141239
0.000987492
0.000494466
0.000212509
6.85992e-05
1.77186e-05
6.31724e-06
2.2299e-06
8.89833e-07
3.80107e-07
3.18653e-07
3.80845e-07
5.26505e-07
1.09583e-06
1.19247e-06
0.14624
0.212658
0.225304
0.226823
0.228003
0.228981
0.229706
0.23036
0.230731
0.230594
0.229436
0.229417
0.226935
0.225227
0.225657
0.22692
0.22788
0.227843
0.226848
0.225525
0.223639
0.22163
0.220288
0.220342
0.221994
0.224165
0.225874
0.226948
0.227615
0.228069
0.228451
0.228748
0.229026
0.229271
0.229503
0.229738
0.229959
0.2302
0.230426
0.23063
0.230772
0.227686
0.2261
0.225507
0.225289
0.225836
0.226668
0.227501
0.228028
0.228444
0.228672
0.228913
0.229027
0.229183
0.229252
0.22935
0.229404
0.229467
0.229518
0.229553
0.229606
0.22962
0.229679
0.229683
0.229741
0.22975
0.229802
0.22982
0.22987
0.2299
0.229959
0.22947
0.229473
0.229517
0.229561
0.229597
0.22963
0.229653
0.229678
0.22969
0.229709
0.229716
0.229729
0.229735
0.229741
0.229748
0.22975
0.229757
0.229756
0.229763
0.229761
0.229767
0.229765
0.229769
0.229768
0.22977
0.229771
0.229772
0.229773
0.229775
0.229808
0.229805
0.229772
0.229771
0.229771
0.229771
0.229772
0.229772
0.229772
0.229772
0.229772
0.229772
0.229772
0.229772
0.229772
0.229771
0.229772
0.229771
0.229772
0.229772
0.229772
0.229772
0.229772
0.229772
0.229772
0.229772
0.229772
0.229772
0.229772
0.229774
0.229809
0.229808
0.229774
0.229772
0.229772
0.229772
0.229772
0.229772
0.229772
0.229772
0.229772
0.229772
0.229772
0.229772
0.229772
0.229772
0.229772
0.229772
0.229772
0.229772
0.229772
0.229772
0.229772
0.229772
0.229772
0.229772
0.229772
0.229772
0.229772
0.229774
0.229809
0.229808
0.229774
0.229772
0.229772
0.229772
0.229772
0.229772
0.229772
0.229772
0.229772
0.229772
0.229772
0.229772
0.229772
0.229771
0.229772
0.229771
0.229772
0.229772
0.229772
0.229772
0.229772
0.229772
0.229772
0.229772
0.229772
0.229771
0.229772
0.229774
0.229809
0.229809
0.229774
0.229772
0.229772
0.229772
0.229772
0.229772
0.229772
0.229772
0.229772
0.229772
0.229772
0.229772
0.229772
0.229771
0.229772
0.229771
0.229772
0.229772
0.229772
0.229772
0.229772
0.229772
0.229772
0.229772
0.229772
0.229771
0.229772
0.229774
0.229809
0.229809
0.229774
0.229772
0.229772
0.229772
0.229772
0.229772
0.229772
0.229772
0.229772
0.229772
0.229772
0.229772
0.229772
0.229772
0.229771
0.229772
0.229771
0.229772
0.229772
0.229772
0.229772
0.229772
0.229772
0.229772
0.229772
0.229772
0.229772
0.229774
0.229808
0.229809
0.229774
0.229772
0.229772
0.229772
0.229772
0.229772
0.229772
0.229772
0.229772
0.229772
0.229772
0.229772
0.229772
0.229771
0.229772
0.229771
0.229772
0.229772
0.229772
0.229772
0.229772
0.229772
0.229772
0.229772
0.229772
0.229772
0.229772
0.229774
0.229809
0.229809
0.229774
0.229772
0.229772
0.229772
0.229772
0.229772
0.229772
0.229772
0.229772
0.229772
0.229772
0.229772
0.229772
0.229772
0.229772
0.229772
0.229771
0.229772
0.229772
0.229772
0.229772
0.229772
0.229772
0.229772
0.229772
0.229772
0.229772
0.229774
0.229809
0.229809
0.229774
0.229772
0.229772
0.229772
0.229772
0.229772
0.229772
0.229772
0.229772
0.229772
0.229772
0.229771
0.229772
0.229771
0.229771
0.229771
0.229772
0.229771
0.229772
0.229772
0.229772
0.229772
0.229772
0.229771
0.229772
0.229772
0.229772
0.229774
0.229809
0.0225322
0.0231554
0.0174944
0.00907259
0.00756051
0.0092954
0.0138227
0.0225844
0.0278244
0.0406663
0.0567062
0.0747549
0.201956
0.229469
0.226002
0.168167
0.000256257
0.00187905
0.0196787
0.0224751
0.0204452
0.0104249
0.00115296
0.000106848
1.83593e-05
3.42084e-06
8.75072e-07
2.79742e-07
1.26718e-07
1.1003e-07
1.20067e-07
1.43372e-07
3.74641e-07
4.48468e-07
0.10772
0.202491
0.223466
0.225705
0.227016
0.228199
0.229236
0.23014
0.230649
0.230198
0.228754
0.22614
0.225445
0.227028
0.228687
0.228995
0.229056
0.228126
0.226652
0.224711
0.222613
0.220538
0.219186
0.219242
0.220747
0.222794
0.224465
0.225566
0.226272
0.226775
0.227209
0.227572
0.2279
0.228221
0.228526
0.228857
0.229201
0.229607
0.23002
0.230471
0.226444
0.225809
0.22496
0.223862
0.223285
0.223922
0.225077
0.226113
0.226724
0.227167
0.227417
0.22767
0.227805
0.227966
0.228039
0.228154
0.228195
0.228286
0.228309
0.228382
0.228397
0.228459
0.228475
0.228531
0.228558
0.228619
0.228677
0.228756
0.228857
0.228952
0.228085
0.22814
0.228237
0.228313
0.228371
0.228414
0.228449
0.228471
0.228495
0.228506
0.228525
0.22853
0.228545
0.228546
0.228558
0.228558
0.228566
0.228566
0.228573
0.228571
0.228578
0.228576
0.228581
0.22858
0.228583
0.228584
0.228585
0.228587
0.228588
0.228579
0.228572
0.228585
0.228586
0.228587
0.228588
0.228588
0.228589
0.228589
0.22859
0.228589
0.22859
0.228589
0.22859
0.22859
0.22859
0.22859
0.22859
0.22859
0.22859
0.22859
0.22859
0.22859
0.228589
0.22859
0.228589
0.22859
0.228589
0.228589
0.228589
0.228578
0.228577
0.228589
0.22859
0.228589
0.22859
0.22859
0.22859
0.22859
0.22859
0.22859
0.22859
0.22859
0.22859
0.22859
0.22859
0.22859
0.22859
0.22859
0.22859
0.22859
0.228589
0.22859
0.22859
0.22859
0.228589
0.22859
0.228589
0.22859
0.228589
0.228578
0.228577
0.22859
0.22859
0.22859
0.228589
0.22859
0.22859
0.22859
0.22859
0.22859
0.22859
0.22859
0.22859
0.22859
0.22859
0.22859
0.22859
0.22859
0.22859
0.22859
0.22859
0.22859
0.228589
0.22859
0.228589
0.22859
0.228589
0.228589
0.228589
0.228578
0.228578
0.228589
0.228589
0.22859
0.228589
0.22859
0.228589
0.22859
0.22859
0.22859
0.22859
0.22859
0.22859
0.22859
0.22859
0.22859
0.22859
0.22859
0.22859
0.22859
0.22859
0.22859
0.22859
0.22859
0.228589
0.22859
0.228589
0.228589
0.228589
0.228578
0.228578
0.22859
0.22859
0.228589
0.22859
0.228589
0.22859
0.22859
0.22859
0.22859
0.22859
0.22859
0.22859
0.22859
0.22859
0.22859
0.22859
0.22859
0.22859
0.22859
0.22859
0.22859
0.228589
0.22859
0.228589
0.22859
0.228589
0.22859
0.228589
0.228577
0.228578
0.228589
0.228589
0.22859
0.228589
0.22859
0.22859
0.22859
0.22859
0.22859
0.22859
0.22859
0.22859
0.22859
0.22859
0.22859
0.22859
0.22859
0.22859
0.22859
0.22859
0.22859
0.228589
0.22859
0.228589
0.22859
0.228589
0.228589
0.228589
0.228578
0.228578
0.228589
0.22859
0.22859
0.22859
0.22859
0.22859
0.22859
0.22859
0.22859
0.22859
0.22859
0.22859
0.22859
0.22859
0.22859
0.22859
0.22859
0.22859
0.22859
0.22859
0.22859
0.22859
0.22859
0.22859
0.228589
0.22859
0.22859
0.22859
0.228577
0.228578
0.228589
0.228589
0.22859
0.228589
0.22859
0.228589
0.22859
0.22859
0.22859
0.22859
0.22859
0.22859
0.22859
0.22859
0.22859
0.22859
0.22859
0.22859
0.22859
0.22859
0.22859
0.22859
0.22859
0.228589
0.22859
0.22859
0.22859
0.22859
0.228578
0.0101502
0.00873801
0.00428982
0.00246122
0.00291538
0.00503074
0.00808425
0.0115328
0.0133505
0.0226455
0.0430909
0.0738153
0.20683
0.229049
0.216331
0.0392317
0.00323371
0.0236973
0.0529587
0.0555951
0.0501541
0.0396058
0.0204707
0.00343895
7.78985e-05
1.47599e-05
1.86285e-06
3.79412e-07
1.1114e-07
5.53206e-08
4.38623e-08
4.10791e-08
5.61655e-08
8.56327e-08
9.9745e-08
3.74533e-07
0.185402
0.22012
0.224402
0.225749
0.227289
0.228809
0.230278
0.230631
0.227585
0.226084
0.225861
0.227009
0.228385
0.229365
0.229376
0.228603
0.22679
0.224604
0.222442
0.220594
0.219044
0.218178
0.21846
0.219851
0.221611
0.223083
0.224101
0.224796
0.225345
0.225825
0.226256
0.226693
0.227107
0.227553
0.228056
0.228614
0.229406
0.230194
0.227176
0.227056
0.226029
0.224114
0.222277
0.221758
0.22266
0.223878
0.224813
0.225321
0.225746
0.225981
0.226269
0.226405
0.226596
0.226684
0.226825
0.226887
0.226991
0.227051
0.227122
0.227193
0.227243
0.22733
0.227375
0.227473
0.227542
0.227677
0.227819
0.227974
0.226529
0.22658
0.226771
0.226928
0.227047
0.227128
0.227189
0.227235
0.227269
0.2273
0.227319
0.227343
0.227353
0.227371
0.227378
0.227389
0.227395
0.227401
0.227408
0.22741
0.227417
0.227417
0.227423
0.227423
0.227427
0.22743
0.227432
0.227438
0.227441
0.227434
0.227415
0.227429
0.227432
0.227432
0.227433
0.227433
0.227434
0.227434
0.227434
0.227434
0.227434
0.227434
0.227434
0.227434
0.227434
0.227434
0.227434
0.227434
0.227434
0.227434
0.227434
0.227434
0.227434
0.227434
0.227434
0.227435
0.227435
0.227436
0.227436
0.227425
0.227424
0.227436
0.227436
0.227435
0.227435
0.227434
0.227434
0.227434
0.227434
0.227434
0.227434
0.227434
0.227434
0.227434
0.227434
0.227434
0.227434
0.227434
0.227434
0.227434
0.227434
0.227434
0.227434
0.227434
0.227434
0.227435
0.227435
0.227436
0.227436
0.227425
0.227424
0.227436
0.227436
0.227435
0.227435
0.227434
0.227434
0.227434
0.227434
0.227434
0.227434
0.227434
0.227434
0.227434
0.227434
0.227434
0.227434
0.227434
0.227434
0.227434
0.227434
0.227434
0.227434
0.227434
0.227434
0.227435
0.227435
0.227436
0.227436
0.227425
0.227425
0.227436
0.227436
0.227435
0.227434
0.227434
0.227434
0.227434
0.227434
0.227434
0.227434
0.227434
0.227434
0.227434
0.227434
0.227434
0.227434
0.227434
0.227434
0.227434
0.227434
0.227434
0.227434
0.227434
0.227434
0.227435
0.227435
0.227436
0.227436
0.227425
0.227425
0.227436
0.227436
0.227435
0.227435
0.227434
0.227434
0.227434
0.227434
0.227434
0.227434
0.227434
0.227434
0.227434
0.227434
0.227434
0.227434
0.227434
0.227434
0.227434
0.227434
0.227434
0.227434
0.227434
0.227434
0.227435
0.227435
0.227436
0.227436
0.227424
0.227425
0.227436
0.227436
0.227435
0.227434
0.227434
0.227434
0.227434
0.227434
0.227434
0.227434
0.227434
0.227434
0.227434
0.227434
0.227434
0.227434
0.227434
0.227434
0.227434
0.227434
0.227434
0.227434
0.227434
0.227434
0.227435
0.227435
0.227436
0.227436
0.227425
0.227424
0.227436
0.227436
0.227435
0.227435
0.227434
0.227434
0.227434
0.227434
0.227434
0.227434
0.227434
0.227434
0.227434
0.227434
0.227434
0.227434
0.227434
0.227434
0.227434
0.227434
0.227434
0.227434
0.227434
0.227434
0.227434
0.227435
0.227436
0.227436
0.227424
0.227425
0.227436
0.227436
0.227435
0.227435
0.227434
0.227434
0.227434
0.227434
0.227434
0.227434
0.227434
0.227434
0.227434
0.227434
0.227434
0.227434
0.227434
0.227434
0.227434
0.227434
0.227434
0.227434
0.227434
0.227434
0.227435
0.227436
0.227438
0.227441
0.227429
0.00152806
0.00116896
0.000375089
0.000293723
0.000527466
0.00125642
0.00206486
0.00153775
0.0013466
0.00339268
0.0236595
0.0697077
0.119258
0.218134
0.176954
0.119645
0.176587
0.0342406
0.024453
0.0494117
0.0709221
0.0659607
0.0532879
0.0436301
0.0334932
0.0174447
0.00231014
4.80927e-05
3.41968e-06
2.95337e-07
1.13072e-07
4.42856e-08
2.97476e-08
2.19666e-08
1.47733e-08
1.78672e-08
3.00994e-08
3.52499e-08
5.54011e-08
0.130701
0.206539
0.222179
0.224519
0.226369
0.228488
0.230187
0.230773
0.23087
0.229976
0.227943
0.227009
0.227462
0.228647
0.229483
0.229406
0.228316
0.226283
0.223751
0.221531
0.219858
0.218643
0.217777
0.217416
0.217842
0.218991
0.220393
0.2216
0.222485
0.223148
0.223678
0.224177
0.224646
0.22513
0.22567
0.226283
0.22709
0.228012
0.229336
0.229413
0.229155
0.228635
0.227688
0.226188
0.224087
0.221825
0.220514
0.220758
0.221782
0.222702
0.223302
0.223688
0.224003
0.224251
0.224452
0.224617
0.224748
0.22486
0.224955
0.225039
0.225111
0.22518
0.225244
0.225306
0.225372
0.225446
0.225543
0.225667
0.225831
0.226059
0.226356
0.225804
0.22547
0.224865
0.224678
0.224844
0.225022
0.225137
0.225211
0.225271
0.225308
0.225348
0.225369
0.225397
0.225409
0.225429
0.225439
0.22545
0.225459
0.225466
0.225473
0.225478
0.225483
0.225488
0.22549
0.225495
0.225497
0.225502
0.225504
0.225508
0.225512
0.225514
0.22546
0.225398
0.225396
0.225436
0.225501
0.225509
0.225511
0.225512
0.225512
0.225513
0.225514
0.225514
0.225515
0.225515
0.225515
0.225516
0.225516
0.225516
0.225516
0.225516
0.225516
0.225516
0.225516
0.225516
0.225516
0.225516
0.225517
0.225517
0.225517
0.225518
0.225517
0.225513
0.225449
0.225393
0.225393
0.225448
0.225513
0.225517
0.225518
0.225518
0.225517
0.225516
0.225517
0.225516
0.225517
0.225516
0.225516
0.225516
0.225516
0.225516
0.225516
0.225516
0.225516
0.225516
0.225516
0.225516
0.225516
0.225516
0.225517
0.225517
0.225517
0.225518
0.225518
0.225513
0.225449
0.225393
0.225393
0.225449
0.225513
0.225518
0.225518
0.225517
0.225517
0.225516
0.225517
0.225516
0.225517
0.225516
0.225516
0.225516
0.225516
0.225516
0.225516
0.225516
0.225516
0.225516
0.225516
0.225516
0.225516
0.225516
0.225517
0.225517
0.225517
0.225518
0.225517
0.225513
0.225449
0.225393
0.225393
0.225449
0.225513
0.225517
0.225518
0.225517
0.225517
0.225516