/*--------------------------------*- C++ -*----------------------------------*\
| =========                 |                                                 |
| \\      /  F ield         | OpenFOAM: The Open Source CFD Toolbox           |
|  \\    /   O peration     | Version:  2.1.1                                 |
|   \\  /    A nd           | Web:      www.OpenFOAM.org                      |
|    \\/     M anipulation  |                                                 |
\*---------------------------------------------------------------------------*/
FoamFile
{
    version     2.0;
    format      ascii;
    class       volScalarField;
    location    "0.001650000";
    object      omegaC_burn;
}
// * * * * * * * * * * * * * * * * * * * * * * * * * * * * * * * * * * * * * //

dimensions      [1 -3 -1 0 0 0 0];

internalField   nonuniform List<scalar> 
12384
(
4937.26
4091.87
6278.36
409.159
40.4996
4.17179
0.697867
0.275707
0.0756648
0.0126692
0.000354002
9.58828e-06
2.03878e-07
2.99343e-09
2.40853e-06
0.00053162
0.026095
0.68896
3.07725
6.94242
10.098
9.96412
8.94323
7.5545
6.53124
5.48056
5.44112
1.07958
0.356147
0.049311
0.00205534
3.6787e-05
1.01207e-07
9.73358e-11
9.02355e-14
1.18971e-16
1.71369e-19
5.63862e-22
1.32129e-24
6.40995e-26
1.50787e-28
5.98609e-31
4.57967e-33
7.08952e-32
2.36036e-41
4.1547e-41
1.28319e-41
4.22625e-44
1.93697e-47
6.72162e-51
1.53668e-54
3.34348e-58
5.25401e-61
1.06302e-62
2.32836e-65
3.06967e-68
2.26579e-71
1.67326e-74
1.29542e-77
1.05154e-80
8.87848e-84
7.7531e-87
6.96995e-90
6.41702e-93
6.00395e-96
5.69453e-99
5.48393e-102
5.36558e-105
5.30061e-108
5.26296e-111
6.38649e-114
9.73081e-117
1.28629e-119
1.54926e-122
5.01913e-132
4.61614e-133
1.3563e-135
2.82146e-138
4.35259e-141
5.4348e-144
5.88105e-147
5.84694e-150
5.65259e-153
5.43785e-156
5.32701e-159
4.78919e-162
0
0
0
0
0
0
0
0
0
0
0
0
0
0
0
0
0
0
0
0
0
0
0
0
0
0
0
0
0
0
0
0
0
0
0
0
0
0
0
0
0
0
0
0
0
0
0
0
0
0
0
0
0
0
0
0
0
0
0
0
0
0
0
0
0
0
0
0
0
0
0
0
0
0
0
0
0
0
0
0
0
0
0
0
0
0
0
0
0
0
0
0
0
0
0
0
0
0
0
0
0
0
0
0
0
0
0
0
0
0
0
0
0
0
0
0
0
0
0
0
0
0
0
0
0
0
0
0
0
0
0
0
0
0
0
0
0
0
0
0
0
0
0
0
0
0
0
0
0
0
0
0
0
0
0
0
0
0
0
0
0
0
0
0
0
0
0
0
0
0
0
0
0
0
0
0
0
0
0
0
0
0
0
0
0
0
0
0
0
0
0
0
0
0
0
0
0
0
0
0
0
0
0
0
0
0
0
0
0
0
0
0
0
0
0
0
0
0
0
0
0
0
0
0
0
0
0
0
0
0
0
0
0
0
0
0
0
0
0
0
0
0
0
0
0
0
0
0
0
0
0
0
0
0
0
0
0
0
0
0
0
0
0
0
0
0
0
0
0
0
0
0
0
0
0
0
0
0
0
0
0
0
0
0
0
0
0
0
4368.2
4201.25
4154.59
898.683
132.698
31.4752
14.5957
9.67115
2.67814
0.634847
0.0225028
0.000737726
1.64191e-05
1.83681e-07
0.000370781
0.0907682
3.57887
18.8917
57.6151
194.279
206.994
214.053
204.213
194.243
180.681
172.51
156.123
33.8274
12.0939
5.40009
1.12932
0.0234694
1.5411e-05
6.56328e-10
4.99177e-12
8.4671e-14
6.08381e-17
3.33139e-19
5.65824e-22
4.31891e-23
7.47444e-26
4.42255e-28
4.34119e-30
9.54308e-29
5.89162e-38
1.72207e-37
8.3353e-38
3.86123e-40
2.06081e-43
8.03003e-47
1.98834e-50
4.51937e-54
1.36032e-57
1.43456e-59
3.22265e-62
4.00987e-65
1.15185e-68
1.84331e-72
8.49802e-76
6.1522e-79
4.88894e-82
1.74889e-85
7.60895e-89
4.17696e-92
2.96719e-95
2.64201e-98
2.70666e-101
2.93869e-104
3.21755e-106
4.87454e-109
2.22459e-111
5.58627e-114
7.03599e-117
7.63825e-120
6.09913e-129
5.78645e-130
1.66549e-132
3.41364e-135
4.99559e-138
5.68742e-141
5.46016e-144
4.86757e-147
4.64993e-150
4.61938e-153
4.89923e-156
4.89043e-159
5.02287e-162
0
0
0
0
0
0
0
0
0
0
0
0
0
0
0
0
0
0
0
0
0
0
0
0
0
0
0
0
0
0
0
0
0
0
0
0
0
0
0
0
0
0
0
0
0
0
0
0
0
0
0
0
0
0
0
0
0
0
0
0
0
0
0
0
0
0
0
0
0
0
0
0
0
0
0
0
0
0
0
0
0
0
0
0
0
0
0
0
0
0
0
0
0
0
0
0
0
0
0
0
0
0
0
0
0
0
0
0
0
0
0
0
0
0
0
0
0
0
0
0
0
0
0
0
0
0
0
0
0
0
0
0
0
0
0
0
0
0
0
0
0
0
0
0
0
0
0
0
0
0
0
0
0
0
0
0
0
0
0
0
0
0
0
0
0
0
0
0
0
0
0
0
0
0
0
0
0
0
0
0
0
0
0
0
0
0
0
0
0
0
0
0
0
0
0
0
0
0
0
0
0
0
0
0
0
0
0
0
0
0
0
0
0
0
0
0
0
0
0
0
0
0
0
0
0
0
0
0
0
0
0
0
0
0
0
0
0
0
0
0
0
0
0
0
0
0
0
0
0
0
0
0
0
0
0
0
0
0
0
0
0
0
0
0
0
0
0
0
0
0
0
0
0
0
0
0
0
0
0
0
0
0
0
0
0
0
0
3649.06
3330.17
3380.45
611.354
175.933
107.83
90.0828
70.6825
20.9157
6.69821
1.26533
0.068306
0.00178902
1.17069e-05
0.0556848
5.44243
133.506
378.909
996.092
5554.81
6284.65
6313.83
6777.58
6708.2
6956.57
7378.9
5397.59
951.614
424.251
301.667
228.159
24.4434
2.73101
0.00316599
1.29422e-12
7.04492e-24
2.39324e-26
6.85874e-27
1.43397e-22
3.68363e-20
3.23896e-23
3.53063e-25
4.05294e-27
1.17984e-25
2.41367e-34
1.55368e-33
1.39195e-33
1.07481e-35
6.49865e-39
2.74595e-42
7.0687e-46
1.59549e-49
3.83365e-53
7.0011e-56
1.51931e-58
2.17126e-61
1.01676e-64
1.37934e-79
8.94646e-103
2.26562e-133
1.55159e-182
0
0
0
0
0
0
0
3.75955e-103
3.88936e-106
9.91993e-109
4.33325e-111
2.7943e-114
1.54096e-117
1.89957e-125
1.9415e-126
5.76278e-129
1.14478e-131
1.68151e-134
1.76263e-137
1.57938e-140
1.26929e-143
1.15935e-146
1.08579e-149
1.08598e-152
1.0028e-155
9.83074e-159
8.62073e-162
0
0
0
0
0
0
0
0
0
0
0
0
0
0
0
0
0
0
0
0
0
0
0
0
0
0
0
0
0
0
0
0
0
0
0
0
0
0
0
0
0
0
0
0
0
0
0
0
0
0
0
0
0
0
0
0
0
0
0
0
0
0
0
0
0
0
0
0
0
0
0
0
0
0
0
0
0
0
0
0
0
0
0
0
0
0
0
0
0
0
0
0
0
0
0
0
0
0
0
0
0
0
0
0
0
0
0
0
0
0
0
0
0
0
0
0
0
0
0
0
0
0
0
0
0
0
0
0
0
0
0
0
0
0
0
0
0
0
0
0
0
0
0
0
0
0
0
0
0
0
0
0
0
0
0
0
0
0
0
0
0
0
0
0
0
0
0
0
0
0
0
0
0
0
0
0
0
0
0
0
0
0
0
0
0
0
0
0
0
0
0
0
0
0
0
0
0
0
0
0
0
0
0
0
0
0
0
0
0
0
0
0
0
0
0
0
0
0
0
0
0
0
0
0
0
0
0
0
0
0
0
0
0
0
0
0
0
0
0
0
0
0
0
0
0
0
0
0
0
0
0
0
0
0
0
0
0
0
0
0
0
0
0
0
0
0
0
0
0
0
0
0
0
0
0
0
0
0
0
0
0
0
0
0
0
0
3116.36
2953.76
2409.43
1820.87
1815.45
0
1835.27
2020.34
333.526
115.265
19.4892
3.38768
0.333152
0.0012055
2.0553
144.015
2781.19
7658.78
9556.48
9376.26
8870.81
9304.1
9125.94
9306.14
9739.32
11198.9
11062.9
11063.4
11529.8
10310
12371.5
751.64
122.435
11.1003
0.0989061
9.66974e-05
7.70469e-10
2.61011e-15
2.93016e-22
9.5845e-26
6.33386e-22
4.06967e-22
4.27729e-24
1.41415e-22
3.40385e-30
3.40733e-29
3.53154e-29
2.10264e-31
8.91037e-35
2.50543e-38
5.79976e-42
1.21559e-45
3.42618e-49
3.2413e-52
3.3442e-55
6.62584e-58
1.07226e-60
1.12994e-63
8.63849e-67
5.65459e-70
3.66853e-73
4.17934e-77
0
0
0
0
0
0
0
0
0
1.09648e-107
3.815e-111
8.54215e-115
2.76668e-121
2.65531e-122
7.59686e-125
1.6511e-127
2.50824e-130
2.90773e-133
2.59888e-136
2.31445e-139
2.09579e-142
2.13714e-145
2.03523e-148
2.01699e-151
1.83781e-154
1.71772e-157
1.54112e-160
0
0
0
0
0
0
0
0
0
0
0
0
0
0
0
0
0
0
0
0
0
0
0
0
0
0
0
0
0
0
0
0
0
0
0
0
0
0
0
0
0
0
0
0
0
0
0
0
0
0
0
0
0
0
0
0
0
0
0
0
0
0
0
0
0
0
0
0
0
0
0
0
0
0
0
0
0
0
0
0
0
0
0
0
0
0
0
0
0
0
0
0
0
0
0
0
0
0
0
0
0
0
0
0
0
0
0
0
0
0
0
0
0
0
0
0
0
0
0
0
0
0
0
0
0
0
0
0
0
0
0
0
0
0
0
0
0
0
0
0
0
0
0
0
0
0
0
0
0
0
0
0
0
0
0
0
0
0
0
0
0
0
0
0
0
0
0
0
0
0
0
0
0
0
0
0
0
0
0
0
0
0
0
0
0
0
0
0
0
0
0
0
0
0
0
0
0
0
0
0
0
0
0
0
0
0
0
0
0
0
0
0
0
0
0
0
0
0
0
0
0
0
0
0
0
0
0
0
0
0
0
0
0
0
0
0
0
0
0
0
0
0
0
0
0
0
0
0
0
0
0
0
0
0
0
0
0
0
0
0
0
0
0
0
0
0
0
0
0
0
0
0
0
0
0
0
0
0
0
0
0
0
0
0
0
3155.95
3215.69
3370.5
4511.47
5332.43
5249.66
4813.93
4257.33
4014.88
2955.85
346.624
101.508
7.45142
0.247543
26.5128
658.556
9809.85
11986.8
12445.1
12026.4
11781.5
11028.9
11170.3
10782
11297.8
11831.1
11243.1
10771.5
10874
11723.1
9642.13
11707.4
1914.06
218.759
19.8989
0.369508
0.000922364
3.78699e-06
4.81105e-09
6.77186e-15
7.93028e-22
2.05088e-20
6.69081e-21
1.88807e-19
5.27591e-26
4.32156e-25
2.2457e-25
1.0299e-27
3.33619e-31
8.17785e-35
1.66068e-38
3.26024e-42
1.47992e-45
1.65167e-48
8.04958e-52
4.77538e-55
8.2715e-58
1.61919e-60
2.12866e-63
2.04791e-66
1.72565e-69
1.50958e-72
1.41048e-75
1.34285e-78
1.26722e-81
1.15397e-84
1.04383e-87
8.98792e-91
7.14306e-94
4.89664e-97
2.75249e-100
1.13545e-103
3.20841e-107
5.42386e-111
1.66763e-117
1.08946e-118
3.14444e-121
7.66226e-124
1.44714e-126
1.9669e-129
2.1385e-132
2.15032e-135
2.32303e-138
2.56508e-141
2.74497e-144
2.84503e-147
2.78822e-150
2.67325e-153
2.50922e-156
2.27654e-159
1.99406e-162
0
0
0
0
0
0
0
0
0
0
0
0
0
0
0
0
0
0
0
0
0
0
0
0
0
0
0
0
0
0
0
0
0
0
0
0
0
0
0
0
0
0
0
0
0
0
0
0
0
0
0
0
0
0
0
0
0
0
0
0
0
0
0
0
0
0
0
0
0
0
0
0
0
0
0
0
0
0
0
0
0
0
0
0
0
0
0
0
0
0
0
0
0
0
0
0
0
0
0
0
0
0
0
0
0
0
0
0
0
0
0
0
0
0
0
0
0
0
0
0
0
0
0
0
0
0
0
0
0
0
0
0
0
0
0
0
0
0
0
0
0
0
0
0
0
0
0
0
0
0
0
0
0
0
0
0
0
0
0
0
0
0
0
0
0
0
0
0
0
0
0
0
0
0
0
0
0
0
0
0
0
0
0
0
0
0
0
0
0
0
0
0
0
0
0
0
0
0
0
0
0
0
0
0
0
0
0
0
0
0
0
0
0
0
0
0
0
0
0
0
0
0
0
0
0
0
0
0
0
0
0
0
0
0
0
0
0
0
0
0
0
0
0
0
0
0
0
0
0
0
0
0
0
0
0
0
0
0
0
0
0
0
0
0
0
0
0
0
0
0
0
0
0
0
0
0
0
0
0
0
0
0
0
4777.9
5143.83
6267.69
8472.13
8825.75
8061.41
6827.1
6186.66
5563.5
4861.28
4185.56
3536.81
137.567
4.65113
36.5387
843.894
12404.7
16174.2
14897
15269.9
13294.1
13184.7
12500.2
12231.7
11774.8
11665.4
10863.5
10179.3
9883.06
10754.2
11354.3
11348.6
11812.5
2397.37
310.91
38.5027
1.33889
0.00803451
0.000102748
7.59913e-07
3.16012e-11
1.18032e-19
1.0393e-19
3.46834e-16
5.61409e-22
1.81209e-21
6.46175e-22
3.57139e-24
8.72228e-28
1.29819e-31
1.6689e-35
2.60156e-39
7.07725e-42
9.29455e-45
4.18478e-48
1.26621e-51
4.64913e-55
5.7161e-58
1.19022e-60
2.00383e-63
2.6199e-66
3.13659e-69
3.77821e-72
4.42058e-75
4.92027e-78
5.15044e-81
5.23135e-84
5.08958e-87
4.6264e-90
3.73806e-93
2.41834e-96
1.12996e-99
3.28891e-103
5.40252e-107
4.23811e-114
1.63211e-115
4.05042e-118
1.0546e-120
2.44722e-123
4.46068e-126
6.17811e-129
8.09878e-132
1.05402e-134
1.38046e-137
1.61966e-140
1.8796e-143
1.93227e-146
2.01235e-149
1.93641e-152
1.87168e-155
1.71958e-158
1.57077e-161
0
0
0
0
0
0
0
0
0
0
0
0
0
0
0
0
0
0
0
0
0
0
0
0
0
0
0
0
0
0
0
0
0
0
0
0
0
0
0
0
0
0
0
0
0
0
0
0
0
0
0
0
0
0
0
0
0
0
0
0
0
0
0
0
0
0
0
0
0
0
0
0
0
0
0
0
0
0
0
0
0
0
0
0
0
0
0
0
0
0
0
0
0
0
0
0
0
0
0
0
0
0
0
0
0
0
0
0
0
0
0
0
0
0
0
0
0
0
0
0
0
0
0
0
0
0
0
0
0
0
0
0
0
0
0
0
0
0
0
0
0
0
0
0
0
0
0
0
0
0
0
0
0
0
0
0
0
0
0
0
0
0
0
0
0
0
0
0
0
0
0
0
0
0
0
0
0
0
0
0
0
0
0
0
0
0
0
0
0
0
0
0
0
0
0
0
0
0
0
0
0
0
0
0
0
0
0
0
0
0
0
0
0
0
0
0
0
0
0
0
0
0
0
0
0
0
0
0
0
0
0
0
0
0
0
0
0
0
0
0
0
0
0
0
0
0
0
0
0
0
0
0
0
0
0
0
0
0
0
0
0
0
0
0
0
0
0
0
0
0
0
0
0
0
0
0
0
0
0
0
0
0
7693.49
8195.31
8941.07
9713.45
9514.71
8631.76
7343.42
6491.16
6317.79
6089.57
5645.17
4858.05
389.745
13.9027
73.9315
1644.12
17155.2
18210.2
16464
14986.7
14514.8
13532.2
13650.8
13076.5
12599.9
11959.4
11105.5
10399.7
10222.4
10179.8
10511.6
11380.3
12202.9
12425.1
4466.42
627.243
76.5332
4.75717
0.0865895
0.00163891
2.18494e-05
1.41401e-09
3.32539e-19
1.12258e-12
3.11811e-18
4.33203e-18
1.3373e-18
1.19846e-20
1.77269e-24
4.71429e-29
5.00562e-34
1.26989e-36
3.61908e-38
4.82125e-41
2.15052e-44
6.18199e-48
1.39341e-51
3.5159e-55
2.68008e-58
5.34127e-61
1.13647e-63
2.22462e-66
3.93853e-69
6.16754e-72
8.49613e-75
1.05503e-77
1.23525e-80
1.37755e-83
1.47437e-86
1.42612e-89
1.15798e-92
6.89349e-96
2.4828e-99
4.46749e-103
5.73826e-111
1.5106e-112
2.96611e-115
7.19065e-118
1.73674e-120
3.75298e-123
6.86977e-126
1.24573e-128
2.16038e-131
3.32617e-134
4.58568e-137
5.78489e-140
6.59777e-143
7.27652e-146
7.53405e-149
7.61905e-152
7.34616e-155
7.00661e-158
6.42569e-161
0
0
0
0
0
0
0
0
0
0
0
0
0
0
0
0
0
0
0
0
0
0
0
0
0
0
0
0
0
0
0
0
0
0
0
0
0
0
0
0
0
0
0
0
0
0
0
0
0
0
0
0
0
0
0
0
0
0
0
0
0
0
0
0
0
0
0
0
0
0
0
0
0
0
0
0
0
0
0
0
0
0
0
0
0
0
0
0
0
0
0
0
0
0
0
0
0
0
0
0
0
0
0
0
0
0
0
0
0
0
0
0
0
0
0
0
0
0
0
0
0
0
0
0
0
0
0
0
0
0
0
0
0
0
0
0
0
0
0
0
0
0
0
0
0
0
0
0
0
0
0
0
0
0
0
0
0
0
0
0
0
0
0
0
0
0
0
0
0
0
0
0
0
0
0
0
0
0
0
0
0
0
0
0
0
0
0
0
0
0
0
0
0
0
0
0
0
0
0
0
0
0
0
0
0
0
0
0
0
0
0
0
0
0
0
0
0
0
0
0
0
0
0
0
0
0
0
0
0
0
0
0
0
0
0
0
0
0
0
0
0
0
0
0
0
0
0
0
0
0
0
0
0
0
0
0
0
0
0
0
0
0
0
0
0
0
0
0
0
0
0
0
0
0
0
0
0
0
0
0
0
8645.56
9324.79
9837.35
9838.62
9016.7
8015.35
7303.38
7415.52
7757.71
7783.18
7040.73
5176.23
322.128
17.1218
345.004
14185.1
22450.5
21255.9
17612
16760.3
15406.6
14701.2
14597.7
14134.9
13779.1
13071.4
12292.8
11486.7
10882.2
10656
10813.5
11457.7
11472.7
13679.8
13134.3
14904.7
1187.16
188.619
25.9954
1.29633
0.0290536
0.000292367
4.20075e-11
3.04792e-09
1.13469e-14
7.6015e-15
2.21775e-15
2.91022e-17
3.38435e-21
1.92386e-28
1.11622e-32
9.85981e-34
1.83168e-34
2.20304e-37
9.51396e-41
2.68316e-44
5.94731e-48
1.12382e-51
2.21599e-55
9.92648e-59
2.03558e-61
6.04378e-64
1.60011e-66
3.49049e-69
6.19129e-72
9.36016e-75
1.27689e-77
1.63841e-80
2.02274e-83
2.33662e-86
2.36264e-89
1.89769e-92
9.50322e-96
2.28697e-99
5.79653e-108
2.14283e-110
1.7763e-112
4.22347e-115
9.70251e-118
1.97834e-120
3.77423e-123
9.86793e-126
2.25039e-128
4.09406e-131
6.37488e-134
8.81834e-137
1.08683e-139
1.28802e-142
1.39295e-145
1.50544e-148
1.48367e-151
1.49414e-154
1.3849e-157
1.32013e-160
0
0
0
0
0
0
0
0
0
0
0
0
0
0
0
0
0
0
0
0
0
0
0
0
0
0
0
0
0
0
0
0
0
0
0
0
0
0
0
0
0
0
0
0
0
0
0
0
0
0
0
0
0
0
0
0
0
0
0
0
0
0
0
0
0
0
0
0
0
0
0
0
0
0
0
0
0
0
0
0
0
0
0
0
0
0
0
0
0
0
0
0
0
0
0
0
0
0
0
0
0
0
0
0
0
0
0
0
0
0
0
0
0
0
0
0
0
0
0
0
0
0
0
0
0
0
0
0
0
0
0
0
0
0
0
0
0
0
0
0
0
0
0
0
0
0
0
0
0
0
0
0
0
0
0
0
0
0
0
0
0
0
0
0
0
0
0
0
0
0
0
0
0
0
0
0
0
0
0
0
0
0
0
0
0
0
0
0
0
0
0
0
0
0
0
0
0
0
0
0
0
0
0
0
0
0
0
0
0
0
0
0
0
0
0
0
0
0
0
0
0
0
0
0
0
0
0
0
0
0
0
0
0
0
0
0
0
0
0
0
0
0
0
0
0
0
0
0
0
0
0
0
0
0
0
0
0
0
0
0
0
0
0
0
0
0
0
0
0
0
0
0
0
0
0
0
0
0
0
0
9209.03
9947.82
9942.91
9639.33
8967.05
8204.81
8580.17
9034.19
9644.05
9923.84
9534.43
7391.31
4541.71
170.981
3601.34
7981.87
1901.13
21387
26715.3
22434.3
19033.6
17949.4
17361.2
16204.9
15741.3
15243.2
14814.1
14777.7
13801.6
12816.7
12014.2
11430.5
11300.5
11507.8
11926.9
12569.7
14479.7
14346.9
16812.9
3947.04
520.398
109.256
14.1957
0.27689
0.00442457
3.77399e-15
5.08521e-13
3.15071e-13
1.75259e-13
9.4824e-12
2.30426e-12
2.68482e-14
7.42438e-20
1.62231e-27
5.75049e-31
6.20419e-30
8.59017e-31
8.23867e-34
3.30491e-37
9.40626e-41
2.10781e-44
4.03207e-48
6.87981e-52
1.2116e-55
4.60742e-59
9.7679e-62
3.10882e-64
8.63221e-67
1.92585e-69
3.42843e-72
5.45972e-75
8.22094e-78
1.19819e-80
1.67368e-83
2.14626e-86
2.27658e-89
1.80457e-92
7.34182e-96
3.35607e-99
3.09822e-102
6.74944e-105
2.31353e-107
8.19835e-110
2.4202e-112
5.2552e-115
9.57483e-118
1.66707e-120
2.7945e-123
8.53707e-126
1.98624e-128
3.62133e-131
5.65946e-134
7.79384e-137
9.84619e-140
1.17104e-142
1.29617e-145
1.42696e-148
1.41608e-151
1.46025e-154
1.35315e-157
1.32216e-160
0
0
0
0
0
0
0
0
0
0
0
0
0
0
0
0
0
0
0
0
0
0
0
0
0
0
0
0
0
0
0
0
0
0
0
0
0
0
0
0
0
0
0
0
0
0
0
0
0
0
0
0
0
0
0
0
0
0
0
0
0
0
0
0
0
0
0
0
0
0
0
0
0
0
0
0
0
0
0
0
0
0
0
0
0
0
0
0
0
0
0
0
0
0
0
0
0
0
0
0
0
0
0
0
0
0
0
0
0
0
0
0
0
0
0
0
0
0
0
0
0
0
0
0
0
0
0
0
0
0
0
0
0
0
0
0
0
0
0
0
0
0
0
0
0
0
0
0
0
0
0
0
0
0
0
0
0
0
0
0
0
0
0
0
0
0
0
0
0
0
0
0
0
0
0
0
0
0
0
0
0
0
0
0
0
0
0
0
0
0
0
0
0
0
0
0
0
0
0
0
0
0
0
0
0
0
0
0
0
0
0
0
0
0
0
0
0
0
0
0
0
0
0
0
0
0
0
0
0
0
0
0
0
0
0
0
0
0
0
0
0
0
0
0
0
0
0
0
0
0
0
0
0
0
0
0
0
0
0
0
0
0
0
0
0
0
0
0
0
0
0
0
0
0
0
0
0
0
0
0
0
0
0
0
0
0
0
0
0
0
0
0
0
0
0
0
0
0
0
8740.91
9266.02
8964.55
8551.31
8346.35
8247.97
8198.35
8314.23
8599.75
9155.73
10102.8
10253.8
8085.91
5696.24
8266.57
11454.2
14971.9
24850.2
24851.7
20994.1
18739.7
19158.9
18877.1
17752.7
16934.3
16205.4
16665.1
16214.4
15197.9
13708.6
13080.4
12332.5
11910
11951.4
12539.2
13112.3
13734.2
16114.7
15615.6
16031.3
18238.7
2313.68
459.899
81.7754
8.75925
0.0134136
5.16953e-08
1.36265e-15
9.07623e-21
3.42937e-23
3.06157e-23
1.29984e-24
1.89535e-27
4.59648e-28
2.06279e-25
6.46946e-25
3.83442e-27
2.32332e-30
8.69074e-34
2.51926e-37
5.82348e-41
1.14094e-44
1.99155e-48
3.17783e-52
5.17009e-56
1.5381e-59
2.23228e-62
5.37562e-65
1.24781e-67
2.66164e-70
5.28581e-73
9.95595e-76
1.79242e-78
3.09676e-81
5.04663e-84
7.62099e-87
1.0001e-89
1.02052e-92
7.42497e-96
6.12763e-99
5.84763e-102
1.31852e-104
3.78405e-107
9.41172e-110
1.98048e-112
3.56192e-115
5.87094e-118
9.17903e-121
1.36923e-123
1.95506e-126
2.65413e-129
3.4521e-132
4.41162e-135
5.42014e-138
6.43179e-141
7.54781e-144
8.60155e-147
9.64019e-150
1.0566e-152
1.14251e-155
1.213e-158
1.31499e-161
0
0
0
0
0
0
0
0
0
0
0
0
0
0
0
0
0
0
0
0
0
0
0
0
0
0
0
0
0
0
0
0
0
0
0
0
0
0
0
0
0
0
0
0
0
0
0
0
0
0
0
0
0
0
0
0
0
0
0
0
0
0
0
0
0
0
0
0
0
0
0
0
0
0
0
0
0
0
0
0
0
0
0
0
0
0
0
0
0
0
0
0
0
0
0
0
0
0
0
0
0
0
0
0
0
0
0
0
0
0
0
0
0
0
0
0
0
0
0
0
0
0
0
0
0
0
0
0
0
0
0
0
0
0
0
0
0
0
0
0
0
0
0
0
0
0
0
0
0
0
0
0
0
0
0
0
0
0
0
0
0
0
0
0
0
0
0
0
0
0
0
0
0
0
0
0
0
0
0
0
0
0
0
0
0
0
0
0
0
0
0
0
0
0
0
0
0
0
0
0
0
0
0
0
0
0
0
0
0
0
0
0
0
0
0
0
0
0
0
0
0
0
0
0
0
0
0
0
0
0
0
0
0
0
0
0
0
0
0
0
0
0
0
0
0
0
0
0
0
0
0
0
0
0
0
0
0
0
0
0
0
0
0
0
0
0
0
0
0
0
0
0
0
0
0
0
0
0
0
0
0
0
0
0
0
0
0
0
0
0
0
0
0
0
0
0
0
0
6634.4
7315.1
7014.17
6703.56
6861.31
7186.13
7446.99
7552.09
7625.56
7958.3
8860.28
9907.61
12080
13051.7
14098.7
15182.6
17835.4
21752.6
19113.1
16597.4
17693.1
18437.2
17960.3
17863.4
17794.2
17913.2
17530.8
16477.3
15005.6
13980.4
13385.6
12973.4
12890.3
12799.7
12903.2
13622.1
14810.9
15269.4
16717.4
17721.6
20147.5
20158.2
23311.1
2067.78
411.219
44.4529
2.09756
0.0018795
9.39672e-06
7.70472e-08
3.81637e-10
7.99197e-13
9.9531e-15
1.84364e-16
4.76893e-18
1.50367e-20
9.99757e-24
4.22857e-27
1.52854e-30
4.44148e-34
1.09645e-37
2.2823e-41
4.15424e-45
6.8523e-49
1.04564e-52
1.55214e-56
2.54877e-60
6.53296e-64
4.83911e-67
7.7628e-70
1.47779e-72
2.84767e-75
5.40868e-78
1.00977e-80
1.86196e-83
3.3421e-86
5.76216e-89
9.48466e-92
1.44605e-94
2.19519e-97
3.38564e-100
5.25272e-103
7.8723e-106
1.15664e-108
1.59719e-111
2.09459e-114
2.71289e-117
3.5221e-120
4.58099e-123
5.92676e-126
7.48451e-129
9.32071e-132
1.14591e-134
1.36943e-137
1.63235e-140
1.88052e-143
2.15404e-146
2.42631e-149
2.72008e-152
3.01655e-155
3.30277e-158
3.59107e-161
0
0
0
0
0
0
0
0
0
0
0
0
0
0
0
0
0
0
0
0
0
0
0
0
0
0
0
0
0
0
0
0
0
0
0
0
0
0
0
0
0
0
0
0
0
0
0
0
0
0
0
0
0
0
0
0
0
0
0
0
0
0
0
0
0
0
0
0
0
0
0
0
0
0
0
0
0
0
0
0
0
0
0
0
0
0
0
0
0
0
0
0
0
0
0
0
0
0
0
0
0
0
0
0
0
0
0
0
0
0
0
0
0
0
0
0
0
0
0
0
0
0
0
0
0
0
0
0
0
0
0
0
0
0
0
0
0
0
0
0
0
0
0
0
0
0
0
0
0
0
0
0
0
0
0
0
0
0
0
0
0
0
0
0
0
0
0
0
0
0
0
0
0
0
0
0
0
0
0
0
0
0
0
0
0
0
0
0
0
0
0
0
0
0
0
0
0
0
0
0
0
0
0
0
0
0
0
0
0
0
0
0
0
0
0
0
0
0
0
0
0
0
0
0
0
0
0
0
0
0
0
0
0
0
0
0
0
0
0
0
0
0
0
0
0
0
0
0
0
0
0
0
0
0
0
0
0
0
0
0
0
0
0
0
0
0
0
0
0
0
0
0
0
0
0
0
0
0
0
0
0
0
0
0
0
0
0
0
0
0
0
0
0
0
0
0
0
0
5045.38
5533.47
5536.86
5436.15
5442.1
5634.12
6180.17
6438.46
6673.93
7023.23
7471.57
8416.17
9877.07
11178.4
11691.2
11920.6
14377.4
17490
15745.2
16538.7
16580.7
15846.2
16019.6
16561.6
17154.6
17452.1
17041.6
15743.5
14777.9
14092.7
13948.4
13749
13702.3
13863.2
14210
14884.9
15932.9
17275.8
18578.7
19952.2
21301.2
23995.4
23843.5
29265.2
42066.9
350.077
26.3342
3.70263
0.267258
0.0108858
0.00186848
1.06443e-06
1.15442e-08
2.67004e-11
2.76305e-14
1.78245e-17
7.70451e-21
3.00332e-24
1.04753e-27
3.37446e-31
9.24161e-35
2.24019e-38
4.64132e-42
8.47885e-46
1.37805e-49
2.05216e-53
2.92158e-57
4.64971e-61
9.84318e-65
2.94019e-68
1.1639e-71
6.55499e-75
6.25621e-78
9.0828e-81
1.55559e-83
2.79601e-86
4.93367e-89
8.57274e-92
1.43209e-94
2.37898e-97
3.7724e-100
5.62373e-103
8.09837e-106
1.09079e-108
1.38189e-111
1.69445e-114
2.03075e-117
2.43556e-120
2.9181e-123
3.48338e-126
4.0702e-129
4.78891e-132
5.4275e-135
6.14164e-138
6.87771e-141
7.53006e-144
8.3051e-147
8.88682e-150
9.54675e-153
1.00403e-155
1.05325e-158
1.09683e-161
0
0
0
0
0
0
0
0
0
0
0
0
0
0
0
0
0
0
0
0
0
0
0
0
0
0
0
0
0
0
0
0
0
0
0
0
0
0
0
0
0
0
0
0
0
0
0
0
0
0
0
0
0
0
0
0
0
0
0
0
0
0
0
0
0
0
0
0
0
0
0
0
0
0
0
0
0
0
0
0
0
0
0
0
0
0
0
0
0
0
0
0
0
0
0
0
0
0
0
0
0
0
0
0
0
0
0
0
0
0
0
0
0
0
0
0
0
0
0
0
0
0
0
0
0
0
0
0
0
0
0
0
0
0
0
0
0
0
0
0
0
0
0
0
0
0
0
0
0
0
0
0
0
0
0
0
0
0
0
0
0
0
0
0
0
0
0
0
0
0
0
0
0
0
0
0
0
0
0
0
0
0
0
0
0
0
0
0
0
0
0
0
0
0
0
0
0
0
0
0
0
0
0
0
0
0
0
0
0
0
0
0
0
0
0
0
0
0
0
0
0
0
0
0
0
0
0
0
0
0
0
0
0
0
0
0
0
0
0
0
0
0
0
0
0
0
0
0
0
0
0
0
0
0
0
0
0
0
0
0
0
0
0
0
0
0
0
0
0
0
0
0
0
0
0
0
0
0
0
0
0
0
0
0
0
0
0
0
0
0
0
0
0
0
0
0
0
0
4423.12
4581.47
4683.5
4744.74
4975.02
5434.25
5845.46
6328.43
6583.32
6775.65
7101.62
7887.88
8912.67
9839.48
10402.6
10765.6
12479.5
16420.3
16732.9
15689.4
14458.7
14647.9
15233.8
15844.2
16340.4
16242.4
16112.7
15828.4
15292.2
15452.3
15381.9
15423.3
15656.7
15872.7
16410.7
17413.9
18601.7
20037.9
21897
24033
26451.8
28929.5
30620.4
24480.8
14629.2
7213.84
38.192
3.46564
2.85627
0.697172
0.0310855
0.000506582
2.5779e-07
2.2223e-10
1.37229e-13
6.94802e-17
3.2139e-20
1.1456e-23
3.91396e-27
1.34093e-30
4.74791e-34
1.55986e-37
4.94739e-41
1.46367e-44
4.20184e-48
1.20707e-51
3.57952e-55
1.10601e-58
3.59902e-62
1.2092e-65
4.22083e-69
1.49864e-72
5.41646e-76
2.02229e-79
7.86429e-83
3.3112e-86
1.82441e-89
1.54351e-92
1.9469e-95
2.8025e-98
4.07386e-101
5.57581e-104
7.42407e-107
9.45072e-110
1.17097e-112
1.41068e-115
1.66763e-118
1.9374e-121
2.21971e-124
2.49539e-127
2.74381e-130
2.98625e-133
3.13091e-136
3.30032e-139
3.34824e-142
3.37122e-145
3.35597e-148
3.30324e-151
3.23795e-154
3.10546e-157
2.9763e-160
0
0
0
0
0
0
0
0
0
0
0
0
0
0
0
0
0
0
0
0
0
0
0
0
0
0
0
0
0
0
0
0
0
0
0
0
0
0
0
0
0
0
0
0
0
0
0
0
0
0
0
0
0
0
0
0
0
0
0
0
0
0
0
0
0
0
0
0
0
0
0
0
0
0
0
0
0
0
0
0
0
0
0
0
0
0
0
0
0
0
0
0
0
0
0
0
0
0
0
0
0
0
0
0
0
0
0
0
0
0
0
0
0
0
0
0
0
0
0
0
0
0
0
0
0
0
0
0
0
0
0
0
0
0
0
0
0
0
0
0
0
0
0
0
0
0
0
0
0
0
0
0
0
0
0
0
0
0
0
0
0
0
0
0
0
0
0
0
0
0
0
0
0
0
0
0
0
0
0
0
0
0
0
0
0
0
0
0
0
0
0
0
0
0
0
0
0
0
0
0
0
0
0
0
0
0
0
0
0
0
0
0
0
0
0
0
0
0
0
0
0
0
0
0
0
0
0
0
0
0
0
0
0
0
0
0
0
0
0
0
0
0
0
0
0
0
0
0
0
0
0
0
0
0
0
0
0
0
0
0
0
0
0
0
0
0
0
0
0
0
0
0
0
0
0
0
0
0
0
0
0
0
0
0
0
0
0
0
0
0
0
0
0
0
0
0
0
0
0
4226.54
4284.54
4541.27
4761.96
4990.73
5566.21
5959.31
6786.53
7403.2
7624.89
8048
8721.41
9611.94
10295.8
10865.4
11048.6
11593.1
14382.7
15373.6
15047.9
15102.9
15403.2
15997
16471.2
16787.3
17217.7
17446.7
17915
18218.8
18755.8
19143.9
19566.2
19879.7
19869.1
20268.8
21220.5
22328.5
23542.2
25314.1
27374.8
30253.1
32758.5
30531.5
21805.4
10951.1
4701.03
1333.08
381.268
10.3901
0.352369
0.170701
0.00835423
6.59308e-06
2.26302e-09
1.09326e-12
4.02946e-16
1.24649e-19
3.31704e-23
8.13917e-27
2.29029e-30
7.53905e-34
2.74778e-37
9.97394e-41
3.53347e-44
1.22743e-47
4.15281e-51
1.40079e-54
4.74234e-58
1.61073e-61
5.50162e-65
1.91682e-68
6.63464e-72
2.36195e-75
8.41118e-79
3.0622e-82
1.15493e-85
4.47019e-89
1.8916e-92
9.7258e-96
7.50749e-99
8.372e-102
1.07207e-104
1.4449e-107
1.87514e-110
2.40894e-113
2.9994e-116
3.65368e-119
4.35264e-122
5.10579e-125
5.80791e-128
6.53905e-131
7.11709e-134
7.55543e-137
7.96876e-140
8.05348e-143
8.1663e-146
7.92933e-149
7.71432e-152
7.31201e-155
6.87679e-158
6.37924e-161
0
0
0
0
0
0
0
0
0
0
0
0
0
0
0
0
0
0
0
0
0
0
0
0
0
0
0
0
0
0
0
0
0
0
0
0
0
0
0
0
0
0
0
0
0
0
0
0
0
0
0
0
0
0
0
0
0
0
0
0
0
0
0
0
0
0
0
0
0
0
0
0
0
0
0
0
0
0
0
0
0
0
0
0
0
0
0
0
0
0
0
0
0
0
0
0
0
0
0
0
0
0
0
0
0
0
0
0
0
0
0
0
0
0
0
0
0
0
0
0
0
0
0
0
0
0
0
0
0
0
0
0
0
0
0
0
0
0
0
0
0
0
0
0
0
0
0
0
0
0
0
0
0
0
0
0
0
0
0
0
0
0
0
0
0
0
0
0
0
0
0
0
0
0
0
0
0
0
0
0
0
0
0
0
0
0
0
0
0
0
0
0
0
0
0
0
0
0
0
0
0
0
0
0
0
0
0
0
0
0
0
0
0
0
0
0
0
0
0
0
0
0
0
0
0
0
0
0
0
0
0
0
0
0
0
0
0
0
0
0
0
0
0
0
0
0
0
0
0
0
0
0
0
0
0
0
0
0
0
0
0
0
0
0
0
0
0
0
0
0
0
0
0
0
0
0
0
0
0
0
0
0
0
0
0
0
0
0
0
0
0
0
0
0
0
0
0
0
0
4047.96
4094.2
4463.95
4878.15
5159.88
5799.66
6112.63
6795.96
7142.24
7492.84
7899.29
8945.87
10026.2
11061.1
12370.4
13420
14345.1
15570.2
16789.9
17782.3
18596.1
19203.2
19669.6
19905.4
20115.3
20207.6
20743.3
21196.7
21801.6
22772
23707
24256
24531.2
25079.4
25883.5
27449
29371.1
31147.7
32945.8
34399
35499.7
33934.6
29133.7
19540.5
11302.1
5516.88
2456.19
1746.5
9.95382
0.527499
0.0332374
0.000914443
2.88591e-07
9.02303e-11
2.88859e-14
1.19366e-17
4.30681e-21
1.35656e-24
3.82528e-28
1.08615e-31
3.39818e-35
1.12539e-38
3.87285e-42
1.31313e-45
4.54242e-49
1.57369e-52
5.42963e-56
1.87206e-59
6.57645e-63
2.30963e-66
8.49276e-70
3.10526e-73
1.20826e-76
4.68225e-80
1.9171e-83
7.99491e-87
3.60408e-90
1.76221e-93
1.03051e-96
8.50469e-100
9.58435e-103
1.20398e-105
1.61446e-108
2.10324e-111
2.70071e-114
3.3875e-117
4.15053e-120
4.9467e-123
5.80303e-126
6.56479e-129
7.36088e-132
7.89846e-135
8.36634e-138
8.57457e-141
8.5856e-144
8.50069e-147
8.14081e-150
7.80269e-153
7.21017e-156
6.67716e-159
6.35482e-162
0
0
0
0
0
0
0
0
0
0
0
0
0
0
0
0
0
0
0
0
0
0
0
0
0
0
0
0
0
0
0
0
0
0
0
0
0
0
0
0
0
0
0
0
0
0
0
0
0
0
0
0
0
0
0
0
0
0
0
0
0
0
0
0
0
0
0
0
0
0
0
0
0
0
0
0
0
0
0
0
0
0
0
0
0
0
0
0
0
0
0
0
0
0
0
0
0
0
0
0
0
0
0
0
0
0
0
0
0
0
0
0
0
0
0
0
0
0
0
0
0
0
0
0
0
0
0
0
0
0
0
0
0
0
0
0
0
0
0
0
0
0
0
0
0
0
0
0
0
0
0
0
0
0
0
0
0
0
0
0
0
0
0
0
0
0
0
0
0
0
0
0
0
0
0
0
0
0
0
0
0
0
0
0
0
0
0
0
0
0
0
0
0
0
0
0
0
0
0
0
0
0
0
0
0
0
0
0
0
0
0
0
0
0
0
0
0
0
0
0
0
0
0
0
0
0
0
0
0
0
0
0
0
0
0
0
0
0
0
0
0
0
0
0
0
0
0
0
0
0
0
0
0
0
0
0
0
0
0
0
0
0
0
0
0
0
0
0
0
0
0
0
0
0
0
0
0
0
0
0
0
0
0
0
0
0
0
0
0
0
0
0
0
0
0
0
0
0
0
3572.73
3720.3
3840.5
3890.77
3895.35
4169.55
4245.24
4505.89
4660
5088.47
5022.89
5856.94
5902.53
6734.07
7961.38
7871.45
9574.45
10984.1
11641.9
11852.3
11707.7
12718.6
13092.5
13734.8
13677.2
12856.5
12683.1
12821.2
12110.2
11875.1
12026.9
12240.6
11948.8
10681
10477.1
5397.16
2037.03
1410.71
1283.31
1264.06
1312.84
1323.1
1355.49
1353.92
1294.9
1068.12
777.232
494.328
113.972
14.6603
0.436474
0.000239732
9.82074e-08
3.91675e-11
1.70543e-14
7.29762e-18
3.13198e-21
1.3482e-24
5.74412e-28
2.41359e-31
9.9172e-35
4.07789e-38
1.62706e-41
6.5323e-45
2.64965e-48
1.06344e-51
4.28854e-55
1.73214e-58
6.98486e-62
2.86001e-65
1.16864e-68
4.83972e-72
2.08389e-75
8.9859e-79
4.07645e-82
1.87396e-85
8.92855e-89
4.36018e-92
2.15109e-95
1.1298e-98
6.08311e-102
3.51689e-105
2.22869e-108
1.48296e-111
1.087e-114
8.41727e-118
6.83133e-121
5.69178e-124
4.8548e-127
4.1454e-130
3.58326e-133
3.05801e-136
2.64159e-139
2.2358e-142
1.92288e-145
1.62603e-148
1.37583e-151
1.17462e-154
9.92355e-158
8.47073e-161
0
0
0
0
0
0
0
0
0
0
0
0
0
0
0
0
0
0
0
0
0
0
0
0
0
0
0
0
0
0
0
0
0
0
0
0
0
0
0
0
0
0
0
0
0
0
0
0
0
0
0
0
0
0
0
0
0
0
0
0
0
0
0
0
0
0
0
0
0
0
0
0
0
0
0
0
0
0
0
0
0
0
0
0
0
0
0
0
0
0
0
0
0
0
0
0
0
0
0
0
0
0
0
0
0
0
0
0
0
0
0
0
0
0
0
0
0
0
0
0
0
0
0
0
0
0
0
0
0
0
0
0
0
0
0
0
0
0
0
0
0
0
0
0
0
0
0
0
0
0
0
0
0
0
0
0
0
0
0
0
0
0
0
0
0
0
0
0
0
0
0
0
0
0
0
0
0
0
0
0
0
0
0
0
0
0
0
0
0
0
0
0
0
0
0
0
0
0
0
0
0
0
0
0
0
0
0
0
0
0
0
0
0
0
0
0
0
0
0
0
0
0
0
0
0
0
0
0
0
0
0
0
0
0
0
0
0
0
0
0
0
0
0
0
0
0
0
0
0
0
0
0
0
0
0
0
0
0
0
0
0
0
0
0
0
0
0
0
0
0
0
0
0
0
0
0
0
0
0
0
0
0
0
0
0
0
0
0
0
0
0
0
0
0
0
0
0
0
0
0
4001.26
5628.97
5027.14
499.829
47.5515
4.80355
1.23713
0.389403
0.101907
0.0175367
0.000512515
1.22549e-05
2.60507e-07
3.9478e-09
1.74247e-05
0.00340933
0.329057
1.58584
2.7591
8.94758
11.5646
12.0368
10.1433
7.91896
6.22513
6.17782
2.48643
1.03361
0.376103
0.0544713
0.00104714
1.42452e-05
8.38507e-08
8.70338e-11
9.67521e-14
1.29702e-16
2.17929e-19
8.62191e-22
2.08703e-24
9.35029e-26
2.53245e-28
1.11286e-30
7.49167e-33
9.66128e-32
1.59125e-40
5.17906e-41
8.91555e-43
1.44049e-45
1.00478e-48
5.80601e-52
3.33597e-55
1.55492e-58
1.07141e-60
2.30334e-62
5.34863e-65
7.20559e-68
5.45757e-71
4.14582e-74
3.24652e-77
2.61156e-80
2.16939e-83
1.85166e-86
1.62534e-89
1.46538e-92
1.34444e-95
1.25936e-98
1.20561e-101
1.16459e-104
1.14499e-107
1.13329e-110
1.66279e-113
2.28746e-116
2.81854e-119
3.29405e-122
1.16433e-131
1.16452e-132
3.54171e-135
7.18561e-138
1.09529e-140
1.34605e-143
1.42097e-146
1.40188e-149
1.34326e-152
1.3077e-155
1.26713e-158
1.26465e-161
0
0
0
0
0
0
0
0
0
0
0
0
0
0
0
0
0
0
0
0
0
0
0
0
0
0
0
0
0
0
0
0
0
0
0
0
0
0
0
0
0
0
0
0
0
0
0
0
0
0
0
0
0
0
0
0
0
0
0
0
0
0
0
0
0
0
0
0
0
0
0
0
0
0
0
0
0
0
0
0
0
0
0
0
0
0
0
0
0
0
0
0
0
0
0
0
0
0
0
0
0
0
0
0
0
0
0
0
0
0
0
0
0
0
0
0
0
0
0
0
0
0
0
0
0
0
0
0
0
0
0
0
0
0
0
0
0
0
0
0
0
0
0
0
0
0
0
0
0
0
0
0
0
0
0
0
0
0
0
0
0
0
0
0
0
0
0
0
0
0
0
0
0
0
0
0
0
0
0
0
0
0
0
0
0
0
0
0
0
0
0
0
0
0
0
0
0
0
0
0
0
0
0
0
0
0
0
0
0
0
0
0
0
0
0
0
0
0
0
0
0
0
0
0
0
0
0
0
0
0
0
0
0
0
0
0
0
0
0
0
0
0
0
0
0
0
0
0
0
0
0
0
0
0
0
0
0
0
0
0
0
0
0
0
0
0
0
0
0
0
0
0
0
0
0
0
0
0
0
0
0
0
0
0
0
0
0
0
4343.79
3853.38
5424.97
850.286
154.145
31.696
15.6063
9.219
3.35714
0.825606
0.0280761
0.000853068
1.70539e-05
2.02797e-07
0.00163427
0.368257
11.105
23.2238
64.2347
212.212
236.544
230.358
219.015
198.679
187.35
174.528
71.3463
26.322
12.0106
5.17356
0.532289
0.00402436
7.11981e-07
7.35624e-10
1.68681e-11
7.93093e-14
9.36804e-17
5.29671e-19
9.12605e-22
6.09946e-23
1.20003e-25
7.60814e-28
6.99994e-30
1.2705e-28
4.27337e-37
1.75155e-37
4.72193e-39
9.50427e-42
6.82065e-45
3.69159e-48
1.99425e-51
8.11284e-55
1.4821e-57
2.91409e-59
7.05546e-62
8.96162e-65
1.93611e-68
3.97228e-72
2.03254e-75
1.43032e-78
1.10075e-81
3.9349e-85
1.66685e-88
9.0156e-92
6.36929e-95
5.65459e-98
5.71183e-101
6.10574e-104
6.74931e-106
1.0061e-108
1.20134e-110
1.53455e-113
1.64179e-116
1.66132e-119
1.38025e-128
1.41751e-129
4.29416e-132
8.54401e-135
1.23944e-137
1.37775e-140
1.28058e-143
1.15644e-146
1.1101e-149
1.15942e-152
1.17486e-155
1.23159e-158
1.16484e-161
0
0
0
0
0
0
0
0
0
0
0
0
0
0
0
0
0
0
0
0
0
0
0
0
0
0
0
0
0
0
0
0
0
0
0
0
0
0
0
0
0
0
0
0
0
0
0
0
0
0
0
0
0
0
0
0
0
0
0
0
0
0
0
0
0
0
0
0
0
0
0
0
0
0
0
0
0
0
0
0
0
0
0
0
0
0
0
0
0
0
0
0
0
0
0
0
0
0
0
0
0
0
0
0
0
0
0
0
0
0
0
0
0
0
0
0
0
0
0
0
0
0
0
0
0
0
0
0
0
0
0
0
0
0
0
0
0
0
0
0
0
0
0
0
0
0
0
0
0
0
0
0
0
0
0
0
0
0
0
0
0
0
0
0
0
0
0
0
0
0
0
0
0
0
0
0
0
0
0
0
0
0
0
0
0
0
0
0
0
0
0
0
0
0
0
0
0
0
0
0
0
0
0
0
0
0
0
0
0
0
0
0
0
0
0
0
0
0
0
0
0
0
0
0
0
0
0
0
0
0
0
0
0
0
0
0
0
0
0
0
0
0
0
0
0
0
0
0
0
0
0
0
0
0
0
0
0
0
0
0
0
0
0
0
0
0
0
0
0
0
0
0
0
0
0
0
0
0
0
0
0
0
0
0
0
0
0
3956.62
3559.54
3195.97
618.318
199.36
110.305
87.5219
71.7139
23.1327
7.77556
1.42493
0.0903616
0.00162565
9.22137e-06
0.209961
16.3385
313.521
394.966
1052.55
6292.55
6463.11
6783.03
6890.86
6940.6
6947.55
7250.01
3094.14
803.594
407.388
305.598
112.162
19.5315
2.6717
0.00185214
6.59394e-14
3.49095e-22
6.9946e-29
3.4922e-27
9.49907e-23
5.04798e-20
5.42291e-23
5.87674e-25
6.42796e-27
1.50039e-25
1.92012e-33
1.35692e-33
6.94336e-35
2.24927e-37
1.66635e-40
8.14602e-44
3.60939e-47
1.37385e-50
1.13724e-53
1.072e-55
3.1053e-58
4.68649e-61
1.29561e-64
1.33639e-80
3.42662e-105
9.72219e-135
1.19261e-179
0
0
0
0
0
0
0
7.99516e-103
7.96578e-106
1.3646e-107
1.01835e-110
6.1198e-114
3.27241e-117
4.14457e-125
4.73411e-126
1.41151e-128
2.87161e-131
3.96674e-134
4.30259e-137
3.58402e-140
3.08094e-143
2.76385e-146
2.77571e-149
2.58918e-152
2.55265e-155
2.24697e-158
2.18462e-161
0
0
0
0
0
0
0
0
0
0
0
0
0
0
0
0
0
0
0
0
0
0
0
0
0
0
0
0
0
0
0
0
0
0
0
0
0
0
0
0
0
0
0
0
0
0
0
0
0
0
0
0
0
0
0
0
0
0
0
0
0
0
0
0
0
0
0