/*--------------------------------*- C++ -*----------------------------------*\
| =========                 |                                                 |
| \\      /  F ield         | OpenFOAM: The Open Source CFD Toolbox           |
|  \\    /   O peration     | Version:  2.1.1                                 |
|   \\  /    A nd           | Web:      www.OpenFOAM.org                      |
|    \\/     M anipulation  |                                                 |
\*---------------------------------------------------------------------------*/
FoamFile
{
    version     2.0;
    format      ascii;
    class       volScalarField;
    location    "0.001650000";
    object      T;
}
// * * * * * * * * * * * * * * * * * * * * * * * * * * * * * * * * * * * * * //

dimensions      [0 0 0 1 0 0 0];

internalField   nonuniform List<scalar> 
12384
(
2384.85
2320.69
2487.51
565.285
362.61
343.272
342.654
344.848
341.369
342.458
338.679
340.984
341.009
344.538
360.381
353.914
352.184
341.366
342.077
341.111
342.379
341.871
341.049
338.367
340.962
336.331
345.083
342.108
349.32
353.812
359.323
362.174
360.552
359.474
352.632
353.013
353.913
353.528
354.323
358.435
361.087
361.126
361.528
358.128
320.508
320.154
320.278
320.526
320.927
322.659
323.083
325.84
325.819
327.827
328.116
328.926
329.003
329.26
329.408
329.868
330.206
331.124
332.191
333.165
333.765
333.757
333.526
333.77
334.095
335.982
337.221
339.035
339.745
341.172
311.793
311.813
311.807
311.756
311.508
311.168
310.941
310.51
310.265
309.785
309.372
309.016
308.567
307.915
307.786
306.755
306.894
305.571
305.982
304.687
305.133
304.037
304.416
303.57
303.77
303.132
303.344
302.819
303.007
302.778
295.807
295.645
295.681
295.511
295.5
295.408
295.206
295.236
294.938
295.008
294.687
294.693
294.552
294.339
294.395
294.121
294.18
293.999
293.903
293.916
293.723
293.792
293.594
293.658
293.52
293.478
293.499
293.4
293.438
293.382
293.04
293.035
293.036
293.037
293.032
293.033
293.026
293.028
293.021
293.019
293.02
293.014
293.016
293.009
293.012
293.007
293.006
293.007
293.005
293.006
293.002
293.003
293.003
293
293.002
293.001
293
293.001
293
293
293
293
293
293
293.001
293
293.001
293.001
293.002
293.002
293.004
293.003
293.002
293.002
293.002
293.002
293.002
293.002
293.003
293.003
293.002
293.001
293.002
293.001
293.001
293.001
293.001
293
293
293
293
293
293
293
293.002
293.001
293.001
293.001
293.002
293.001
293.004
293.003
293.002
293.002
293.002
293.002
293.002
293.002
293.003
293.003
293.002
293.001
293.002
293.001
293
293.001
293
293.001
293
293
293
293
293
293
293.002
293
293.001
293.001
293.002
293.001
293.004
293.003
293.002
293.002
293.002
293.002
293.002
293.002
293.003
293.003
293.002
293.001
293.002
293.001
293
293.001
293
293.001
293
293
293.001
293.001
293
293
293.001
293.001
293.001
293.002
293.001
293.002
293.003
293.003
293.002
293.002
293.002
293.003
293.002
293.002
293.003
293.003
293.002
293.001
293.002
293.001
293
293.002
293.001
293
293
293
293
293
293
293
293.002
293
293.001
293.001
293.002
293.001
293.004
293.003
293.002
293.002
293.002
293.002
293.002
293.002
293.004
293.003
293.002
293.001
293.002
293
293
293.001
293
293.001
293
293
293
293
293
293
293.002
293
293.001
293.001
293.001
293.001
293.003
293.003
293.003
293.002
293.002
293.002
293.002
293.002
293.003
293.003
293.001
293.001
293.001
293.001
293
293.002
293
293
293.001
293
292.999
292.999
292.999
292.999
293.001
292.999
293.001
293
293.001
293.001
293.003
293.002
293.002
293.002
293.004
293.003
293.004
293.002
293.002
293.002
293.002
293.001
293.002
293.001
293.001
293.001
293
293.001
293
293.001
2281.02
2274.43
2293.73
956.17
485.042
371.783
350.555
346.939
344.626
343.582
341.711
341.949
343.153
345.398
360.435
358.947
349.444
360.31
379.273
422.062
448.575
449.864
437.194
426.616
414.237
405.479
397.906
356.793
349.83
349.306
350.053
353.165
356.28
355.957
355.939
353.615
352.746
354.491
355.072
357.527
359.129
361.141
361.719
362.316
319.439
319.395
319.459
318.98
320.192
320.279
321.88
323.062
324.955
326.071
327.39
328.147
328.92
329.231
329.549
330.108
330.499
331.318
332.099
332.916
333.342
333.571
333.685
333.841
334.56
335.801
337.174
338.87
339.698
340.533
311.905
311.926
312.037
311.764
311.831
311.442
310.972
310.771
310.235
310.026
309.345
309.23
308.537
308.14
307.534
307.313
306.508
305.943
305.691
305.04
304.805
304.347
304.12
303.726
303.611
303.196
303.229
302.85
302.887
302.692
295.673
295.749
295.695
295.702
295.49
295.456
295.312
295.188
295.079
294.885
294.869
294.57
294.662
294.316
294.387
294.211
294.053
294.103
293.853
293.953
293.718
293.749
293.64
293.577
293.573
293.45
293.489
293.404
293.409
293.393
293.022
293.039
293.021
293.036
293.018
293.033
293.012
293.027
293.004
293.023
292.997
293.017
292.998
293
293.007
292.991
293.006
292.987
293.004
292.984
293.003
292.983
293.002
292.982
293.001
292.983
292.998
292.997
292.988
292.995
292.982
292.993
292.979
292.998
292.993
292.982
293
292.981
293.001
292.982
293.001
292.983
293.002
292.985
293.001
292.985
293.001
292.984
293.002
292.983
293.001
292.982
293
292.981
293
292.98
292.999
292.979
292.993
292.983
292.985
292.989
292.995
292.981
293
292.981
293.001
292.982
293.002
292.982
293.001
292.983
293.002
292.985
293.001
292.985
293.001
292.984
293.002
292.983
293.002
292.982
293.002
292.981
293.001
292.983
292.998
292.996
292.988
292.994
292.994
292.986
293.001
292.98
293.001
292.98
293.001
292.981
293.001
292.982
293.002
292.983
293.002
292.985
293.001
292.985
293.002
292.984
293.002
292.983
293.002
292.982
293.002
292.982
293.001
292.982
292.998
292.996
292.988
292.994
292.989
292.99
292.983
292.998
292.98
293
292.981
293.001
292.982
293.002
292.982
293.002
292.984
293.002
292.986
293.002
292.985
293.001
292.986
292.995
293
292.982
293.001
292.981
293
292.98
293
292.978
292.993
292.982
292.994
292.986
293.001
292.981
293.001
292.981
293.002
292.981
293.001
292.982
293.002
292.983
293.002
292.985
293.001
292.985
293.001
292.984
293.001
292.983
293.002
292.982
293.002
292.981
293.001
292.983
292.997
292.997
292.989
292.995
292.98
292.992
292.981
292.984
292.998
292.98
293
292.981
293.001
292.982
293.002
292.983
293.002
292.985
292.999
292.999
292.985
293.002
292.983
293.002
292.982
293.001
292.981
293
292.981
292.999
292.982
292.985
292.99
292.981
292.993
292.985
293.001
292.979
293.001
292.979
293.001
292.979
293.002
292.98
293.002
292.982
293.002
292.984
293.002
292.985
293.002
292.984
293.002
292.983
293.002
292.982
293.002
292.981
293.001
292.982
292.997
292.997
292.989
292.995
2002.76
1969.72
1920.51
907.515
617.425
503.662
455.071
456.254
370.258
350.039
343.298
344.263
345.658
348.859
363.226
359.318
418.764
565.407
945.874
2228.21
2309.94
2289.85
2280.99
2194.67
2173.87
2155.1
2147.75
864.007
575.747
475.658
400.108
352.549
347.928
353.025
356.224
356.112
355.519
355.238
355.913
355.504
356.67
358.626
362.054
364.331
319.191
318.717
317.831
318.85
318.203
319.102
321.462
322.236
324.199
325.578
327.088
328.272
329.057
329.862
330.375
330.777
331.089
331.523
331.832
332.192
332.545
332.886
332.821
333.616
333.939
335.793
336.917
338.311
338.68
339.099
311.965
312.076
312.371
312.322
312.303
311.622
311.996
310.657
310.811
309.788
309.788
308.805
308.856
307.81
307.885
306.797
306.917
305.674
305.982
304.703
305.106
304.01
304.375
303.44
303.71
303.045
303.142
302.742
302.78
302.586
296.01
295.896
295.79
295.641
295.658
295.494
295.332
295.31
295.053
295.043
294.818
294.624
294.66
294.356
294.38
294.254
294.062
294.12
293.881
293.933
293.773
293.705
293.714
293.553
293.6
293.489
293.468
293.455
293.4
293.428
293.066
293.051
293.055
293.05
293.046
293.044
293.041
293.039
293.035
293.031
293.031
293.025
293.026
293.022
293.022
293.022
293.019
293.018
293.016
293.016
293.015
293.016
293.015
293.015
293.013
293.014
293.014
293.013
293.013
293.015
293.015
293.012
293.013
293.013
293.014
293.013
293.014
293.015
293.015
293.014
293.014
293.014
293.014
293.014
293.014
293.015
293.014
293.014
293.014
293.015
293.014
293.015
293.014
293.014
293.012
293.014
293.014
293.014
293.013
293.015
293.015
293.013
293.013
293.013
293.013
293.013
293.014
293.015
293.014
293.013
293.014
293.014
293.014
293.014
293.014
293.014
293.014
293.014
293.013
293.014
293.013
293.015
293.014
293.015
293.012
293.013
293.014
293.014
293.013
293.015
293.014
293.014
293.014
293.014
293.013
293.013
293.014
293.015
293.014
293.014
293.014
293.014
293.014
293.014
293.014
293.014
293.014
293.014
293.013
293.014
293.013
293.015
293.014
293.015
293.012
293.013
293.014
293.013
293.013
293.015
293.015
293.013
293.013
293.014
293.013
293.012
293.014
293.014
293.014
293.013
293.014
293.014
293.014
293.014
293.015
293.015
293.014
293.014
293.014
293.016
293.014
293.015
293.015
293.014
293.012
293.013
293.013
293.013
293.013
293.016
293.014
293.014
293.013
293.014
293.013
293.013
293.014
293.015
293.014
293.013
293.014
293.014
293.014
293.014
293.015
293.014
293.014
293.014
293.013
293.014
293.013
293.014
293.014
293.014
293.012
293.014
293.014
293.013
293.013
293.015
293.015
293.012
293.013
293.013
293.013
293.012
293.014
293.014
293.014
293.013
293.014
293.014
293.014
293.014
293.014
293.015
293.014
293.013
293.014
293.014
293.013
293.014
293.015
293.014
293.013
293.013
293.013
293.013
293.013
293.015
293.014
293.013
293.013
293.013
293.012
293.013
293.013
293.014
293.013
293.014
293.014
293.014
293.014
293.014
293.015
293.014
293.014
293.015
293.014
293.014
293.014
293.014
293.014
293.014
293.013
293.014
293.014
293.013
293.014
293.015
1683.89
1706.03
1564.57
1371.25
1361.7
1322.1
1320.4
1399.9
702.738
499.867
373.144
348.211
349.116
349.566
358.482
416.854
1019.83
2501.88
2484.34
2474.59
2431.41
2431.38
2420.18
2441.02
2424.65
2410.17
2335.92
2339.21
2393.12
2315.94
2535.17
677.9
400.057
348.273
352.271
356.868
358.087
357.133
354.782
353.929
355.22
358.114
362.001
365.563
318.713
319.132
318.529
316.899
316.979
317.247
318.41
320.672
322.592
324.47
326.458
327.845
329.186
330.268
331.177
331.71
331.911
331.905
331.851
331.537
331.786
332.097
332.054
334.047
334.212
335.807
336.981
337.764
338.121
337.963
311.566
312.106
312.332
312.777
312.873
313.059
311.984
311.752
310.518
310.558
309.437
309.426
308.374
308.408
307.457
307.473
306.436
306.526
305.624
304.968
304.988
304.073
304.323
303.365
303.747
302.861
303.201
302.572
302.829
302.421
295.791
295.816
295.85
295.91
295.588
295.604
295.436
295.215
295.235
294.921
294.973
294.617
294.659
294.47
294.252
294.342
294.03
294.124
293.93
293.831
293.857
293.661
293.732
293.571
293.544
293.535
293.427
293.468
293.385
293.414
293.04
293.058
293.041
293.05
293.041
293.036
293.035
293.031
293.027
293.025
293.018
293.022
293.015
293.013
293.015
293.009
293.012
293.007
293.008
293.005
293.006
293.004
293.005
293.002
293.003
293.002
293.003
293.003
293.001
293.002
293.001
293.002
293.001
293.003
293.002
293.001
293.004
293.002
293.004
293.002
293.005
293.002
293.005
293.003
293.006
293.004
293.006
293.003
293.005
293.003
293.005
293.002
293.004
293.001
293.003
293.001
293.003
293
293.002
293
293.001
293.001
293.003
293.001
293.003
293.001
293.004
293.002
293.004
293.002
293.005
293.002
293.006
293.003
293.006
293.004
293.006
293.003
293.005
293.002
293.005
293.002
293.004
293.001
293.003
293.001
293.003
293.003
293.001
293.002
293.002
293.001
293.004
293.001
293.003
293
293.004
293.002
293.005
293.002
293.005
293.002
293.006
293.004
293.006
293.003
293.006
293.003
293.005
293.002
293.005
293.002
293.005
293.002
293.003
293.001
293.003
293.003
293.001
293.002
293.001
293.001
293.001
293.003
293.001
293.003
293.001
293.004
293.002
293.005
293.002
293.005
293.003
293.006
293.004
293.006
293.004
293.006
293.004
293.004
293.005
293.002
293.005
293.001
293.003
293.001
293.003
293.001
293.002
293.001
293.002
293.001
293.004
293.001
293.003
293
293.004
293.001
293.005
293.002
293.005
293.002
293.006
293.003
293.006
293.004
293.006
293.003
293.005
293.002
293.005
293.002
293.004
293.001
293.003
293.001
293.002
293.003
293.001
293.002
293
293.002
293
293.001
293.003
293
293.004
293.002
293.005
293.002
293.005
293.002
293.006
293.003
293.005
293.005
293.003
293.006
293.002
293.005
293.002
293.005
293.002
293.004
293
293.003
293.001
293
293.002
293
293.001
293
293.002
293
293.003
292.999
293.003
293.001
293.005
293.002
293.005
293.002
293.005
293.002
293.005
293.002
293.005
293.002
293.005
293.002
293.005
293.002
293.005
293.002
293.003
293.001
293.003
293.003
293.002
293.002
1683
1720.66
1735.99
1975.72
2154.26
2123.81
2054.07
1944.86
1901.04
1676.85
723.905
454.9
357.333
351.035
372.477
784.414
2419.16
2456.06
2504.77
2468.89
2450.45
2405.5
2387.47
2366.03
2337.63
2319.34
2290.89
2250.38
2226.62
2276
2127.66
2244.27
1008.2
443.557
349.169
351.001
356.865
356.798
356.074
353.153
354.242
357.778
362.438
365.191
321.496
319.997
317.866
318.338
315.912
318.58
317.866
320.609
322.13
324.477
326.341
327.984
329.223
330.403
331.267
331.639
331.791
331.555
331.241
331.319
331.095
331.19
332.41
333.23
334.719
335.897
336.541
336.816
336.486
336.026
311.212
311.6
312.126
312.849
313.132
313.217
313.15
312.397
311.699
310.332
310.266
309.047
309.003
307.982
307.949
307.058
306.998
306.067
306.072
304.95
305.199
303.967
304.403
303.277
303.698
302.803
303.034
302.564
302.593
302.414
296.325
296.258
296.112
295.874
295.894
295.583
295.597
295.375
295.172
295.15
294.857
294.859
294.537
294.608
294.272
294.303
294.142
293.989
294.031
293.814
293.828
293.728
293.63
293.647
293.508
293.545
293.448
293.44
293.41
293.397
293.079
293.054
293.068
293.043
293.05
293.043
293.037
293.034
293.03
293.027
293.023
293.018
293.019
293.013
293.013
293.011
293.008
293.01
293.003
293.008
293.002
293.006
293
293.004
292.999
293.003
292.999
293
293.001
292.998
293.002
292.999
293.003
293
293.001
293.002
292.999
293.003
293
293.005
293
293.004
293.001
293.005
293.001
293.005
293.001
293.005
293
293.005
293
293.004
292.999
293.003
292.999
293.003
292.999
293.003
292.999
293.002
293.001
293
293
293.003
292.999
293.003
292.999
293.003
293
293.004
293
293.004
293.001
293.005
293.001
293.004
293.001
293.005
293
293.005
293
293.004
292.999
293.003
292.999
293.002
292.999
293
293.001
292.998
292.999
293.002
292.998
293.003
292.999
293.003
292.999
293.003
293
293.004
293
293.004
293.001
293.005
293.001
293.004
293.001
293.005
293
293.005
293
293.004
292.999
293.003
292.999
293.002
292.999
293
293.001
292.998
292.999
293.001
293.002
292.999
293.003
292.999
293.003
292.998
293.004
293
293.005
293
293.005
293.001
293.004
293.001
293.004
293.001
293.003
293.002
293.001
293.004
292.999
293.003
292.999
293.003
292.999
293.003
292.999
293.002
292.998
293.002
292.998
293.003
292.998
293.003
292.998
293.003
293
293.004
293
293.004
293.001
293.004
293.001
293.004
293.001
293.005
293
293.004
293
293.004
292.999
293.003
292.999
293.002
292.999
292.999
293.001
292.998
293.002
293
293.003
293.002
293
293.004
292.999
293.004
293
293.004
293
293.004
293
293.004
293.001
293.001
293.005
293.001
293.004
293
293.004
293
293.003
292.999
293.004
293
293.003
293.002
293
293.002
292.997
293.001
292.998
293.002
292.998
293.003
292.998
293.002
292.998
293.004
292.999
293.004
293
293.005
293
293.005
293
293.005
293
293.004
293
293.004
292.999
293.003
292.998
293.002
292.999
292.999
293
292.998
2023.92
2069.8
2187.82
2375.58
2450.56
2493.71
2485.32
2392.28
2285.67
2119.43
1966.64
1778.53
501.386
354.314
370.325
815.631
2499.14
2506.27
2567.57
2569.73
2527.73
2504.56
2443.43
2401.53
2351.22
2302.97
2260.24
2193.63
2149.46
2151.55
2174.99
2163.84
2161.66
1053.06
462.43
355.399
349.634
354.793
354.122
353.642
354.018
357.769
361.617
363.949
322.892
322.307
321.504
319.062
319.456
320.994
320.192
322.63
323.314
325.269
326.904
328.118
329.413
330.275
331.006
331.436
331.621
331.522
331.02
330.68
330.409
330.756
331.671
333.1
334.395
335.872
336.08
335.88
335.495
334.856
309.983
310.228
311.301
312.707
313.31
313.652
313.841
313.35
312.382
311.534
310.114
309.964
308.59
308.628
307.551
307.602
306.617
306.678
305.581
305.758
304.771
304.152
304.232
303.294
303.56
302.674
303.018
302.262
302.417
302.156
296.118
296.319
296.118
296.155
295.97
295.899
295.548
295.549
295.329
295.079
295.078
294.764
294.777
294.463
294.508
294.204
294.232
294.064
293.946
293.949
293.742
293.816
293.612
293.652
293.549
293.486
293.505
293.407
293.436
293.393
293.06
293.08
293.058
293.07
293.049
293.05
293.044
293.037
293.035
293.028
293.027
293.021
293.021
293.015
293.013
293.013
293.009
293.009
293.007
293.005
293.006
293.003
293.006
293.001
293.002
293.001
293.001
293.001
293
293.002
293
293.001
293.001
293.001
293.001
293.001
293.002
293.002
293.003
293.003
293.003
293.002
293.003
293.003
293.003
293.003
293.003
293.002
293.003
293.002
293.003
293.002
293.003
293.001
293.002
293.001
293.001
293.001
293.001
293.001
293
293.001
293.001
293.001
293.001
293.001
293.002
293.002
293.003
293.002
293.003
293.002
293.003
293.002
293.003
293.003
293.003
293.002
293.003
293.002
293.003
293.002
293.003
293.001
293.002
293.001
293.001
293.001
293
293.001
293.002
293
293.001
293
293.001
293.001
293.002
293.002
293.003
293.002
293.003
293.002
293.003
293.002
293.003
293.003
293.003
293.002
293.003
293.002
293.003
293.002
293.003
293.001
293.002
293.001
293.001
293.001
293
293.001
293.001
293.001
293.001
293.002
293.001
293.002
293.001
293.003
293.002
293.003
293.002
293.003
293.002
293.003
293.003
293.003
293.003
293.003
293.003
293.002
293.003
293.002
293.003
293.001
293.002
293.001
293.001
293.001
293.001
293
293.002
293
293.001
293.001
293.002
293.001
293.002
293.002
293.003
293.002
293.003
293.002
293.003
293.002
293.003
293.002
293.003
293.002
293.003
293.002
293.003
293.002
293.003
293.001
293.001
293.001
293.001
293.001
293
293.001
293
293.001
293.001
293.001
293.001
293.001
293.002
293.002
293.003
293.002
293.004
293.002
293.003
293.003
293.003
293.003
293.003
293.004
293.002
293.004
293.002
293.003
293.002
293.002
293.001
293.002
293.001
293.001
293.001
293
293.001
293
293.001
293
293.001
293
293.002
293.001
293.003
293.002
293.003
293.002
293.004
293.003
293.004
293.002
293.003
293.003
293.004
293.002
293.003
293.002
293.003
293.001
293.002
293.001
293.001
293.001
293
293.002
2362.45
2362.04
2393.9
2449.92
2500.98
2553.37
2595.51
2553.85
2506.25
2405.19
2253.2
2093.45
714.801
366.538
385.168
1034.75
2542.74
2584.08
2525.56
2478.9
2486.97
2515.14
2543.69
2486.5
2422.93
2340.25
2261.55
2180.98
2126.07
2085.75
2075.71
2087.87
2122.98
2123.5
1363.1
552.86
362.482
346.896
351.351
353.197
354.033
356.731
359.588
361.624
323.494
323.761
322.04
323.4
321.519
325.14
324.486
327.168
325.271
327.061
326.986
328.732
329.299
329.931
330.378
330.809
331.041
331.008
330.919
330.827
330.689
330.633
331.525
332.568
334.105
335.126
335.424
334.387
332.842
331.62
309.773
310.488
310.953
311.691
312.892
313.829
313.993
314.074
313.251
312.266
311.041
310.236
309.161
308.452
308.064
307.287
307.011
306.349
306.056
305.311
305.133
304.17
304.289
303.19
303.562
302.581
302.811
302.184
302.125
301.848
296.606
296.597
296.654
296.258
296.181
295.96
295.861
295.522
295.471
295.244
294.998
294.966
294.682
294.653
294.427
294.301
294.242
294.015
294.077
293.86
293.805
293.779
293.631
293.678
293.526
293.497
293.507
293.399
293.445
293.363
293.112
293.083
293.093
293.062
293.071
293.048
293.049
293.041
293.035
293.032
293.026
293.024
293.02
293.016
293.013
293.011
293.009
293.007
293.006
293.005
293.002
293.005
293
293.002
292.999
293.001
292.999
292.999
293
292.998
292.999
292.998
293
292.999
292.999
293
292.999
293.001
293
293.002
292.999
293.002
293
293.002
293
293.002
293
293.002
292.999
293.002
292.999
293.002
292.999
293.001
292.998
293.001
292.998
293
292.998
292.999
292.999
292.999
292.999
293
292.999
293.001
292.998
293.001
293
293.002
292.999
293.002
293
293.002
293
293.002
293
293.002
292.999
293.002
292.999
293.002
292.999
293.001
292.998
293
292.999
292.998
292.999
292.998
292.998
292.999
292.998
293
292.998
293.001
292.998
293.001
293
293.002
292.999
293.002
293
293.002
293.001
293.002
293
293.002
292.999
293.002
292.999
293.002
292.999
293.001
292.998
293
292.999
292.998
292.999
292.998
292.998
292.999
292.999
292.999
293.001
292.998
293.001
292.999
293.002
292.999
293.002
292.999
293.002
293
293.002
293
293.001
293
293
293.001
292.999
293.002
292.999
293.001
292.998
293.001
292.998
293
292.998
292.999
292.998
292.999
292.998
293.001
292.998
293.001
292.998
293.001
293
293.002
292.999
293.002
293
293.002
293
293.002
293
293.001
292.999
293.002
292.999
293.002
292.999
293.001
292.998
293
292.999
292.998
293
292.998
293
292.999
293
293
292.999
293.001
292.998
293.001
293
293.002
292.999
293.002
293
293.002
293.001
293.001
293.002
293
293.002
292.999
293.002
293
293.001
292.999
293.001
292.999
293
293
292.999
293
292.998
292.999
292.998
293
292.997
293.001
292.998
293.001
292.999
293.002
292.999
293.003
293
293.003
293
293.002
293
293.002
293
293.003
292.999
293.002
292.998
293.001
292.998
293
292.999
292.998
292.999
292.997
2418.53
2428.76
2466.62
2518.09
2566.68
2617.75
2626.5
2604.1
2586.12
2519.18
2356.48
2107.02
643.338
364.267
492.618
2333.89
2573.37
2491.89
2305.71
2289.68
2306.98
2363.89
2474.74
2556.72
2516
2420.81
2313.72
2212.85
2126.99
2075.5
2051.22
2050.1
2022.14
2091.82
2065.21
2121.51
695.524
381.817
346.086
349.813
352.328
356.088
359.036
363.778
324.179
323.315
322.895
321.676
324.416
324.214
330.623
328.465
328.731
328.54
329.701
328.863
329.807
329.654
329.958
330.257
330.419
330.646
330.69
330.573
330.617
330.7
331.193
332.286
333.457
334.097
333.957
334.005
332.533
332.017
308.293
308.86
310.113
311.59
312.631
313.761
314.318
314.117
313.902
312.837
311.579
311.263
309.196
309.258
307.97
307.758
306.661
306.817
305.671
305.91
304.578
305.021
303.585
303.731
303.125
302.775
302.534
302.123
302.086
301.739
296.444
296.802
296.351
296.682
296.149
296.244
295.795
295.856
295.347
295.497
295.051
294.994
294.784
294.591
294.583
294.254
294.352
294.026
294.074
293.901
293.813
293.814
293.628
293.694
293.533
293.519
293.492
293.419
293.429
293.381
293.088
293.109
293.079
293.096
293.064
293.071
293.05
293.047
293.042
293.034
293.033
293.026
293.024
293.018
293.017
293.013
293.012
293.01
293.007
293.008
293.005
293.005
293.004
293.003
293.003
293.002
293.002
293.001
293.001
293.001
293.001
293.001
293.001
293.002
293.001
293.002
293.002
293.002
293.003
293.002
293.002
293.002
293.002
293.002
293.002
293.002
293.002
293.002
293.003
293.002
293.002
293.002
293.002
293.002
293.002
293.001
293.002
293.001
293.001
293.001
293.001
293.001
293.001
293.001
293.002
293.001
293.002
293.002
293.002
293.002
293.002
293.002
293.002
293.002
293.002
293.002
293.002
293.002
293.003
293.002
293.002
293.002
293.002
293.002
293.002
293.002
293.001
293.001
293.001
293.001
293.001
293.001
293.001
293.001
293.002
293.001
293.002
293.001
293.002
293.002
293.002
293.002
293.002
293.002
293.002
293.002
293.002
293.002
293.003
293.002
293.002
293.002
293.002
293.001
293.002
293.002
293.001
293.001
293.001
293.001
293.001
293.001
293.001
293.002
293.001
293.002
293.002
293.002
293.002
293.002
293.002
293.003
293.002
293.002
293.002
293.002
293.002
293.002
293.003
293.002
293.003
293.001
293.003
293.001
293.002
293.001
293.002
293.001
293.001
293
293.001
293.001
293.001
293.001
293.002
293.001
293.002
293.002
293.002
293.002
293.002
293.002
293.002
293.002
293.002
293.002
293.002
293.002
293.002
293.002
293.002
293.002
293.002
293.002
293.002
293.002
293.001
293.001
293.001
293.001
293.001
293.001
293.001
293.002
293.002
293.002
293.002
293.002
293.003
293.002
293.002
293.002
293.002
293.002
293.002
293.002
293.002
293.002
293.002
293.002
293.002
293.002
293.002
293.002
293.002
293.002
293.002
293.001
293.001
293.001
293
293
293.001
293
293.002
293.001
293.002
293.001
293.003
293.001
293.002
293.002
293.003
293.003
293.004
293.003
293.003
293.002
293.003
293.002
293.003
293.002
293.002
293.001
293.001
293.001
293.001
293.001
293
293.001
2458.64
2463.31
2472.46
2513.9
2572.76
2627.51
2639.61
2634.59
2639.2
2626.54
2506.82
2143.84
1690.45
508.059
1021.71
1676.25
968.352
2360.84
2459.26
2310.49
2175.93
2222.04
2316.7
2362.37
2422.34
2510.25
2568.55
2487.14
2353.71
2238.94
2147.71
2086.36
2047.25
2020.14
1998.86
1993.68
2046.41
2021.96
2087.93
1127.09
480.424
356.737
348.262
349.296
350.542
348.768
336.095
339.844
336.927
329.19
324.486
324.213
326.088
329.324
327.605
330.47
330.277
330.237
330.552
330.453
329.484
330.011
329.6
329.571
330.071
330.53
330.602
330.432
330.619
330.806
331.187
331.81
332.401
333.131
333
330.751
328.44
322.288
311.621
312.941
310.082
309.473
310.175
312.248
313.26
314.141
314.277
314.375
313.971
313.294
312.719
310.631
310.387
309.493
307.602
308.474
306.603
306.938
305.698
305.908
304.541
304.914
303.645
303.711
302.867
302.688
301.814
301.885
300.87
300.632
298.384
298.806
297.823
297.549
297.536
296.772
296.858
296.187
296.235
295.771
295.715
295.37
295.186
295.17
294.736
294.814
294.503
294.343
294.323
294.067
294.126
293.856
293.93
293.73
293.698
293.644
293.551
293.547
293.447
293.423
293.364
293.364
293.239
293.279
293.162
293.139
293.132
293.087
293.1
293.062
293.063
293.051
293.041
293.04
293.029
293.027
293.024
293.017
293.018
293.01
293.012
293.007
293.005
293.005
293.002
293.003
293.001
293.002
292.999
293
292.999
292.999
292.998
292.998
293.002
293.002
292.997
292.998
292.998
292.998
292.999
292.999
292.999
292.999
292.999
292.999
292.998
292.999
292.999
292.999
292.999
293
292.999
293
292.999
293
292.999
293
292.998
292.999
292.999
292.999
292.998
292.998
292.998
292.997
293.002
293.002
292.997
292.998
292.998
292.999
292.998
292.999
292.999
293
292.998
292.999
292.998
292.999
292.999
292.999
292.999
293
292.999
292.999
292.998
292.999
292.998
292.999
292.999
293
292.998
292.999
292.998
292.998
292.998
292.998
293.002
293.002
292.998
292.998
292.998
292.999
292.998
292.999
292.998
292.999
292.998
292.999
292.998
292.999
292.999
293
292.999
293
292.999
292.999
292.999
292.999
292.998
292.999
292.999
293
292.998
292.999
292.998
292.998
292.998
292.997
293.002
293.002
292.998
292.998
292.998
292.998
292.999
292.998
293
292.999
292.999
292.998
292.999
292.998
292.999
292.999
293
293
292.999
293
292.999
293
292.998
293
292.998
292.999
292.998
292.999
292.998
292.998
292.998
292.997
293.002
293.002
292.998
292.998
292.998
292.999
292.999
292.999
292.999
293
292.999
292.999
292.998
292.999
292.999
292.999
292.999
293
292.999
292.999
292.998
292.999
292.998
292.999
292.999
293
292.998
292.999
292.998
292.998
292.998
292.998
293.002
293.002
292.998
292.998
292.998
292.998
292.998
292.999
292.999
293
292.998
292.999
292.998
292.999
292.999
293
292.999
293
293
292.999
292.999
292.998
292.999
292.998
293
292.999
292.999
292.998
292.999
292.998
292.998
292.998
293.002
293.002
292.997
292.998
292.998
292.999
292.998
292.999
292.998
293
292.998
293
292.998
293
292.999
293
292.999
293
293
293
292.999
293
292.999
293
292.998
292.999
292.998
292.999
292.998
292.998
292.998
292.998
293.002
293.002
2375.73
2381.49
2376.92
2394.71
2467.06
2528.03
2546.49
2547.55
2530.52
2545.86
2574.67
2614.13
2072.72
1586.2
1668.85
1876.79
1908.62
2175.52
2247.18
2162.47
2200.53
2415.62
2571.48
2575.48
2551.83
2565.11
2593.93
2484.47
2343.86
2225.16
2149.2
2091.42
2045.68
2013.19
2000.96
1985.32
1968.87
2009.36
1980.31
1969.85
2011.37
851.298
423.781
347.749
342.918
344.398
336.142
336.94
335.712
336.118
334.254
331.174
325.833
326.196
326.848
327.999
329.306
332.168
331.937
332.411
330.863
329.531
329.878
329.701
329.769
330.31
330.494
330.757
330.662
330.821
330.895
331.261
331.382
331.185
330.472
329.94
326.381
324.393
314.813
316.441
311.618
312.098
313.503
313.305
314.041
314.07
314.571
314.236
314.072
313.7
312.647
310.69
311.244
309.242
308.328
308.147
306.88
307.074
305.709
306.054
304.602
305.025
303.545
303.966
302.52
302.944
301.545
302.037
300.466
300.992
298.481
299.562
297.353
297.93
297.451
296.805
296.981
296.259
296.319
295.775
295.885
295.318
295.362
295.041
294.882
294.773
294.501
294.536
294.203
294.275
293.99
293.985
293.849
293.77
293.74
293.605
293.629
293.48
293.52
293.388
293.406
293.329
293.268
293.261
293.154
293.192
293.107
293.122
293.095
293.072
293.075
293.049
293.056
293.037
293.035
293.032
293.024
293.025
293.016
293.019
293.011
293.013
293.007
293.007
293.005
293.004
293.004
293.003
293.003
293.001
293.002
293
293.001
293
293
293
293
293
293
293.001
293.001
293.001
293.001
293.001
293.001
293
293.001
293.001
293.002
293.002
293.002
293.002
293.002
293.001
293.002
293
293.001
293.001
293.001
293.001
293.001
293.001
293.001
293
293
293
292.999
292.999
293
293
293
293.001
293.001
293.001
293.001
293.001
293.001
293
293.001
293.001
293.002
293.002
293.002
293.002
293.002
293.001
293.002
293
293.001
293.001
293.001
293.001
293.001
293.001
293.001
293
293
293
293
293
293
293
293
293.001
293.001
293.001
293.001
293.001
293.001
293
293.001
293.001
293.002
293.002
293.002
293.002
293.002
293.001
293.002
293
293.001
293.001
293.001
293.001
293.001
293.001
293.001
293
293
293
293
293
293
293
293
293.001
293.001
293.001
293.001
293.002
293.001
293.001
293
293.002
293.001
293.002
293.002
293.002
293.002
293.001
293.002
293
293.001
293.001
293.001
293
293.001
293.001
293.001
293
293
293
292.999
293
293
293.001
293
293.001
293.001
293.001
293.001
293.001
293.001
293
293.001
293.001
293.002
293.002
293.002
293.002
293.002
293.001
293.002
293
293.001
293.001
293.001
293.001
293.001
293.001
293.001
293
293
293
293
293
293
293
293
293.001
293.002
293.001
293.001
293.001
293.001
293
293.001
293.001
293.002
293.001
293.002
293.002
293.002
293.002
293.001
293.001
293.001
293.001
293.001
293.001
293.001
293.001
293.001
293
293
293
292.999
293
293.001
293
293
293.001
293.001
293.001
293.001
293.001
293.001
293.001
293.002
293.002
293.002
293.002
293.002
293.002
293.002
293.002
293.002
293.002
293.003
293.002
293.002
293.001
293.002
293
293
293
293
293
293
293.001
2186.2
2205.69
2196.37
2212.24
2270.61
2338.24
2376.78
2366.87
2376.2
2362.77
2374.17
2395.38
2531.08
2604.17
2621.82
2570.75
2604.09
2274.28
2151.47
2189.39