/*--------------------------------*- C++ -*----------------------------------*\
| =========                 |                                                 |
| \\      /  F ield         | OpenFOAM: The Open Source CFD Toolbox           |
|  \\    /   O peration     | Version:  2.1.1                                 |
|   \\  /    A nd           | Web:      www.OpenFOAM.org                      |
|    \\/     M anipulation  |                                                 |
\*---------------------------------------------------------------------------*/
FoamFile
{
    version     2.0;
    format      ascii;
    class       volScalarField;
    location    "0.005150000";
    object      fH;
}
// * * * * * * * * * * * * * * * * * * * * * * * * * * * * * * * * * * * * * //

dimensions      [0 0 0 0 0 0 0];

internalField   nonuniform List<scalar> 
12384
(
0.0336435
0.0319111
0.0304583
0.0296648
0.0293014
0.0292014
0.0293544
0.0296584
0.0302137
0.0311045
0.0327798
0.0354044
0.0352493
0.0272752
0.0225649
0.0230078
0.0231975
0.0233924
0.0236895
0.0240824
0.0243844
0.0246279
0.0247112
0.0247556
0.0246973
0.0246171
0.0245433
0.0244788
0.0243987
0.0243447
0.0242622
0.0242145
0.0241359
0.0240724
0.0239966
0.0239304
0.0238734
0.0238212
0.023771
0.0237096
0.0236251
0.0230583
0.0233986
0.0235074
0.0302373
0.0304801
0.0303364
0.0302786
0.0306956
0.0313087
0.0310565
0.0294859
0.0288312
0.0282132
0.0281666
0.0283105
0.0284969
0.0286915
0.0288908
0.0290772
0.0292226
0.029414
0.0295861
0.0298246
0.0300217
0.030215
0.0304563
0.0307414
0.0309947
0.0311418
0.0310669
0.0293252
0.026258
0.0254862
0.0308742
0.0294588
0.0282397
0.0284747
0.0297578
0.0311597
0.0320331
0.0323407
0.0322676
0.0321282
0.0320052
0.0319352
0.031908
0.0319232
0.0319779
0.0320487
0.0321357
0.0322427
0.0322741
0.0321931
0.0323581
0.0321743
0.0322031
0.0319437
0.0313476
0.0306279
0.0297563
0.0289364
0.0282316
0.0280387
0.0333971
0.0335777
0.0333584
0.0332696
0.0331892
0.033011
0.0328389
0.0326933
0.0326232
0.0325582
0.0325463
0.0325643
0.032586
0.032625
0.0326098
0.0326173
0.0326154
0.0325743
0.03249
0.032407
0.0322359
0.0321222
0.0319829
0.031801
0.0313537
0.0300542
0.0278614
0.0273976
0.0275547
0.0277119
0.0318261
0.0348645
0.0364124
0.0366415
0.0366944
0.0368685
0.0369547
0.0372043
0.0373482
0.037508
0.0376625
0.0377433
0.0377659
0.0376785
0.0375373
0.0373767
0.0371206
0.037029
0.0368319
0.0367183
0.03668
0.0367383
0.0367494
0.0367727
0.0367431
0.0366795
0.036733
0.0366325
0.0332341
0.0301011
0.0307272
0.0325443
0.0314461
0.0297095
0.0291128
0.0289131
0.028661
0.0283303
0.028103
0.0281933
0.0286583
0.029167
0.0295316
0.0296739
0.0296078
0.0294371
0.0291835
0.0285716
0.0278605
0.0272633
0.0265778
0.0260129
0.0255399
0.0251498
0.0250139
0.0250621
0.0254372
0.0262963
0.0274332
0.0278427
0.0265866
0.0266397
0.0278414
0.0301525
0.0322988
0.0337465
0.0345904
0.0350388
0.0353099
0.0354417
0.0356106
0.0356507
0.0356157
0.0356591
0.0354254
0.0354687
0.0352506
0.0352332
0.0352293
0.0351536
0.0351106
0.0350372
0.0349405
0.0342486
0.032796
0.032933
0.0339442
0.0341962
0.0340525
0.033816
0.0319735
0.0334595
0.0339521
0.0340514
0.0339565
0.0338235
0.0337093
0.0336273
0.0335889
0.0334693
0.0334987
0.0334035
0.0335591
0.0336192
0.0337312
0.0341479
0.0345321
0.0352828
0.036433
0.0376107
0.0378093
0.0382844
0.0425682
0.0456367
0.0462744
0.0461957
0.0459726
0.0457462
0.0453877
0.0452297
0.027162
0.0276001
0.0283444
0.0290873
0.0296407
0.0300534
0.0302929
0.0305552
0.030546
0.0307632
0.0307636
0.0308772
0.0309844
0.0310232
0.0311312
0.0312067
0.0313285
0.0314915
0.0317404
0.0321772
0.0330073
0.0352184
0.0372483
0.0373906
0.0371282
0.0369974
0.0368719
0.0367953
0.0367282
0.0366592
0.033824
0.0345897
0.0360427
0.0372364
0.0380693
0.0384449
0.0387152
0.0387531
0.0389448
0.0387419
0.0389578
0.0389141
0.0392739
0.0393183
0.0395279
0.0396587
0.0401639
0.0406044
0.0410911
0.04166
0.042459
0.0430735
0.0416914
0.0397375
0.0396272
0.0396449
0.0391202
0.0387407
0.0385198
0.0384994
0.0278239
0.0355791
0.0414148
0.0383951
0.0341457
0.0329758
0.0330867
0.0341492
0.0350849
0.0365676
0.037266
0.0379852
0.0384972
0.0389118
0.0392881
0.0395447
0.0397152
0.0397422
0.0396294
0.0394845
0.039255
0.0391138
0.0387589
0.0382613
0.0374509
0.036228
0.0348018
0.0345754
0.0335369
0.0207456
0.0168185
0.0168607
0.0171595
0.0173114
0.0175877
0.0189618
0.037885
0.0543194
0.0537766
0.0539756
0.0541382
0.0542223
0.0542506
0.0542709
0.054262
0.0542127
0.0540634
0.0537761
0.0532414
0.052318
0.0501524
0.0469145
0.0435896
0.0429723
0.0430034
0.0420392
0.0381145
0.0290614
0.0201465
0.0176824
0.0269176
0.0262368
0.0259598
0.0262264
0.0267551
0.0272506
0.0274258
0.0273282
0.0272296
0.0275853
0.0291173
0.0327011
0.0348401
0.0295903
0.0225957
0.0231263
0.0234182
0.023987
0.0247047
0.0254079
0.025787
0.0259301
0.0257271
0.0254703
0.0251496
0.0249266
0.0247974
0.0247071
0.0246403
0.0245955
0.0245527
0.0245099
0.0244544
0.0243766
0.0242714
0.0241528
0.0240208
0.0238901
0.0237806
0.0237042
0.0236603
0.0233419
0.0230354
0.0223326
0.030151
0.0303183
0.0302083
0.0304975
0.0310693
0.0302898
0.0279219
0.0255623
0.0247645
0.0246554
0.0250259
0.0256053
0.0262161
0.0267394
0.0271069
0.0273508
0.027523
0.0276476
0.0277572
0.0278631
0.0280305
0.0282832
0.0286718
0.0292498
0.029939
0.0305432
0.0308556
0.0304272
0.0291436
0.0277596
0.0304442
0.0288209
0.0283267
0.0297796
0.0322151
0.0337155
0.0337125
0.0327195
0.0316949
0.0310004
0.0306432
0.0304871
0.030448
0.030461
0.0305182
0.0306038
0.030721
0.030876
0.0310679
0.0312667
0.031576
0.0315827
0.0320562
0.0320116
0.0319606
0.0313374
0.0305016
0.0296111
0.0287723
0.0283444
0.0334332
0.0336845
0.0335546
0.0334691
0.0328125
0.032165
0.0317279
0.0314363
0.0312159
0.0310765
0.0309953
0.030993
0.0310507
0.0311685
0.0312977
0.0314732
0.0316321
0.0317942
0.0319467
0.0320118
0.031992
0.0319477
0.0318483
0.0317606
0.0315433
0.030937
0.0295417
0.0283491
0.0278502
0.02807
0.0324693
0.0355411
0.0366708
0.0369564
0.0372731
0.0376421
0.0379427
0.0381799
0.0384494
0.0386666
0.0387163
0.0385959
0.0381068
0.0374936
0.0368316
0.0362642
0.0358816
0.0356054
0.0354329
0.0353869
0.0354522
0.0355574
0.0357333
0.0359396
0.0361462
0.0363243
0.0365433
0.0367171
0.0352306
0.0322551
0.0315142
0.0322014
0.0303151
0.0296046
0.0299878
0.0299594
0.0290824
0.0287763
0.0301219
0.0324094
0.0337518
0.034299
0.0344493
0.0345375
0.034597
0.0346878
0.0346873
0.0344987
0.0338142
0.0324747
0.030699
0.0287074
0.0268338
0.0254286
0.0246711
0.0245256
0.0248403
0.0256477
0.0269359
0.0278164
0.0314395
0.033066
0.0347421
0.0353603
0.0357485
0.0363998
0.0372828
0.0380635
0.0386346
0.0389423
0.0390206
0.0388581
0.0387366
0.0384164
0.038022
0.0375792
0.0370973
0.0366153
0.0361882
0.0358804
0.0356497
0.0354548
0.0353157
0.034973
0.0339195
0.0329807
0.0327224
0.0333311
0.0340729
0.0340495
0.0359357
0.0345494
0.033347
0.0325014
0.031941
0.0315878
0.0313478
0.0312332
0.0310972
0.0311264
0.0309571
0.0310171
0.0310918
0.0311125
0.0312016
0.0314716
0.0319053
0.0327449
0.0340396
0.0358015
0.0371446
0.0375765
0.0393459
0.0420231
0.0426664
0.0423686
0.0427535
0.0437915
0.0451196
0.0457965
0.0286632
0.0306991
0.0316275
0.031879
0.0319596
0.0320261
0.0320152
0.0319518
0.031796
0.0315494
0.0312784
0.0310263
0.0308657
0.0306874
0.0305869
0.0304777
0.0304229
0.0305112
0.0308017
0.0313563
0.0322127
0.0339869
0.0366737
0.0374233
0.0372005
0.0370344
0.0369186
0.0367843
0.0365589
0.0363949
0.0351512
0.0377286
0.0391132
0.039007
0.0382535
0.0371465
0.0360767
0.03528
0.0346433
0.0342583
0.0341257
0.0341136
0.034447
0.0347393
0.0352678
0.035959
0.0369349
0.0379744
0.0391241
0.0402431
0.0414321
0.0426
0.0426437
0.0405954
0.0392253
0.0389991
0.0383983
0.0381507
0.0380729
0.0379329
0.0339652
0.0395876
0.0386017
0.0346988
0.0339732
0.0356898
0.0382597
0.0405285
0.0419863
0.0425976
0.043168
0.0434099
0.0435343
0.043503
0.0432136
0.0424638
0.0413896
0.0403032
0.039568
0.0392235
0.0393008
0.0397933
0.0405782
0.040937
0.0406099
0.0394826
0.0371572
0.0353524
0.0342647
0.0273948
0.0170017
0.0191437
0.0226048
0.0247272
0.0269539
0.0342309
0.0496514
0.0547917
0.0547786
0.0552525
0.0552775
0.0551113
0.0549024
0.0546668
0.054581
0.0546562
0.0549379
0.055444
0.0561368
0.0567447
0.0566288
0.0539051
0.0466992
0.0400363
0.0399298
0.0426589
0.0424874
0.0359051
0.0244285
0.0180307
0.0254224
0.0255236
0.0265596
0.0284769
0.0301928
0.0310482
0.0312432
0.0308826
0.0296671
0.0279684
0.027706
0.0296969
0.0336358
0.0308896
0.0227015
0.0234363
0.0240499
0.0250259
0.0260801
0.0268165
0.0269857
0.0267676
0.0261269
0.0255242
0.0251224
0.0249623
0.0249055
0.0248787
0.0248742
0.0249137
0.0249798
0.0250491
0.0251024
0.0250457
0.0249478
0.0247414
0.0245023
0.0242502
0.0239985
0.0237916
0.0236914
0.0235181
0.0230662
0.0221154
0.0299285
0.0298344
0.0299889
0.0306902
0.0310008
0.0289909
0.0263675
0.02464
0.0241696
0.0242372
0.0246097
0.0255724
0.0263724
0.0269731
0.0272811
0.0275266
0.027711
0.0277936
0.0278277
0.0277551
0.0276527
0.0275608
0.0275526
0.0278484
0.0284651
0.0292794
0.0300381
0.0303636
0.0300512
0.0288014
0.0299675
0.028463
0.028758
0.0313624
0.0339633
0.0345919
0.0335389
0.0319582
0.0305463
0.0299391
0.0297759
0.0297706
0.0297797
0.0298008
0.0297753
0.0297506
0.0297491
0.0297868
0.0298858
0.0299553
0.0301347
0.0303579
0.0307538
0.0312273
0.031645
0.031613
0.0311054
0.0302355
0.0292335
0.0285631
0.0335259
0.0338944
0.0338311
0.0328898
0.0317125
0.0310365
0.0306165
0.0302661
0.0300286
0.0298932
0.0298266
0.0298124
0.0298582
0.0299117
0.030016
0.0301933
0.0303702
0.0306315
0.0309176
0.0311574
0.0313322
0.0314301
0.0314548
0.0314685
0.0314287
0.0312513
0.0306959
0.0298548
0.0288493
0.0283925
0.033107
0.0360929
0.0369453
0.0372121
0.037363
0.037339
0.0373169
0.0374244
0.0378029
0.0381442
0.0382518
0.0378707
0.0368599
0.0358195
0.0350902
0.034604
0.0344638
0.0344283
0.0344427
0.0344822
0.0344931
0.0345419
0.0346718
0.0348979
0.0352748
0.0357169
0.0361874
0.0366466
0.0360969
0.0335962
0.0320051
0.0315723
0.0306527
0.0313474
0.0313815
0.029382
0.0290199
0.0318208
0.0351405
0.0359999
0.0353458
0.0344471
0.0339089
0.0337867
0.0339954
0.0343954
0.0349143
0.0355043
0.0361532
0.0363135
0.0353848
0.0329969
0.0298938
0.0269735
0.0250036
0.0242608
0.0244192
0.0251528
0.0265724
0.0277688
0.0336988
0.0356459
0.0361619
0.0365589
0.0381339
0.0398847
0.0408514
0.0410876
0.0409089
0.0404248
0.0398245
0.0391788
0.0386938
0.0381968
0.0378294
0.0374322
0.0370836
0.0366652
0.0362581
0.0359502
0.0357906
0.0357092
0.0356774
0.0355714
0.0350291
0.033945
0.0330369
0.0327129
0.033326
0.0339699
0.0315969
0.0305928
0.0299787
0.0295832
0.0293566
0.0291665
0.0290889
0.0290522
0.0289887
0.0292159
0.0290209
0.0292662
0.0289794
0.0290205
0.0289834
0.0290154
0.0292846
0.029843
0.0310221
0.0328799
0.0351724
0.0366481
0.0375142
0.0391777
0.0398358
0.0391062
0.0387731
0.0400451
0.0428387
0.0452165
0.0306286
0.031984
0.0322407
0.0324892
0.032791
0.0329375
0.0328807
0.0326031
0.0323289
0.0318988
0.0315593
0.0311831
0.0309024
0.0305609
0.0303136
0.0300837
0.0298804
0.0297485
0.0298497
0.0303299
0.031188
0.0326855
0.0353193
0.0372894
0.0373936
0.0372528
0.0371922
0.0369786
0.0365679
0.0363413
0.0367779
0.0394153
0.0385795
0.0365825
0.0346699
0.033224
0.0320518
0.0312601
0.0305456
0.0302845
0.0298219
0.0299593
0.0299619
0.0303234
0.0309805
0.0317435
0.0329893
0.0343352
0.0361328
0.0379067
0.0396965
0.0415047
0.0426335
0.0418701
0.0397354
0.0388031
0.0385398
0.03863
0.0385829
0.0379459
0.0377786
0.0386997
0.0354263
0.0344687
0.0370398
0.0401546
0.041886
0.042417
0.0425838
0.0429177
0.0432098
0.0433867
0.0431528
0.0422189
0.0404516
0.0382735
0.0364578
0.0351902
0.0341295
0.0330278
0.0324836
0.0324845
0.0341743
0.0367964
0.0394736
0.0406704
0.0394257
0.0368947
0.035195
0.0304624
0.0193038
0.0280541
0.036479
0.0364698
0.0389319
0.048276
0.0549472
0.0552851
0.055083
0.0544503
0.0533212
0.0523803
0.0518533
0.051738
0.0518123
0.051938
0.0521003
0.0524382
0.0532569
0.0549557
0.0572355
0.0578111
0.054177
0.0422552
0.0352509
0.0380968
0.0420307
0.0391498
0.0272553
0.0183214
0.0252166
0.0262505
0.0292018
0.0318348
0.0325714
0.0324586
0.0323388
0.0323291
0.0318802
0.0299326
0.027839
0.0284589
0.0324275
0.031474
0.0228811
0.0238828
0.0248536
0.0261426
0.0274411
0.0281249
0.0281131
0.0274258
0.0263172
0.0254901
0.0251889
0.0251459
0.0250884
0.0250191
0.0250685
0.0252214
0.0254709
0.0257336
0.025938
0.0260073
0.0259075
0.0256333
0.0252658
0.0248223
0.0243945
0.0240073
0.0237692
0.0236232
0.0231973
0.0221169
0.0295672
0.0291245
0.0297125
0.0308779
0.0311705
0.0291248
0.0269116
0.0254791
0.0248333
0.0245683
0.0250638
0.0260832
0.0269079
0.0274265
0.0277806
0.0281269
0.0283747
0.0284968
0.0285206
0.0284513
0.0282524
0.0279302
0.0276186
0.0273542
0.0274798
0.0280578
0.0288987
0.0297464
0.0300539
0.0291659
0.029623
0.0282517
0.029417
0.0326423
0.0350829
0.0353033
0.0340353
0.0317659
0.030174
0.0297582
0.0297118
0.0297319
0.0296657
0.0295551
0.0293788
0.0292272
0.0291321
0.0291246
0.0292175
0.0293156
0.0294121
0.0294871
0.0296426
0.0301456
0.0307185
0.0312131
0.0311703
0.0305226
0.029513
0.0287183
0.0336382
0.0341586
0.0337414
0.0316822
0.0307471
0.0302019
0.0297639
0.0295387
0.0294397
0.0294713
0.0294885
0.0295555
0.0296196
0.029637
0.0296737
0.0296287
0.0297242
0.0298779
0.0300798
0.0303356
0.0305694
0.0307464
0.0308766
0.0309702
0.0311072
0.0311624
0.0310158
0.0305956
0.0296787
0.0287477
0.0335792
0.0364742
0.0371026
0.0370232
0.0365333
0.0359265
0.0357028
0.0357788
0.0362475
0.036875
0.0373127
0.0370423
0.0359129
0.0349427
0.0346588
0.0348239
0.0351636
0.0354083
0.035586
0.0355959
0.0355203
0.0353171
0.0350746
0.034935
0.0350025
0.0353459
0.0358755
0.0364875
0.0363538
0.0343381
0.0320285
0.0315143
0.0317617
0.0321315
0.0300717
0.0294379
0.0328064
0.0365797
0.0370306
0.0349218
0.0327003
0.0317099
0.0317185
0.0321324
0.0326409
0.0330435
0.0335309
0.034163
0.0350834
0.0361557
0.036978
0.0360924
0.0332527
0.0294432
0.0261001
0.0243931
0.0242477
0.024999
0.0265182
0.0278351
0.0350025
0.0364158
0.0369054
0.0394778
0.041645
0.0422482
0.0415874
0.0402162
0.0387251
0.0374624
0.0365209
0.0360428
0.0359435
0.0358503
0.0360151
0.0359762
0.0360732
0.0360331
0.0359149
0.0357807
0.0357046
0.0357274
0.0358199
0.0359272
0.0357752
0.0350224
0.0338533
0.0328745
0.0328814
0.0337351
0.0299805
0.0298589
0.0296225
0.0294203
0.0293894
0.0295157
0.0297222
0.0299893
0.0302086
0.0302674
0.0303347
0.0301584
0.0300411
0.0298812
0.0296229
0.0292912
0.0290872
0.0288338
0.0291329
0.0303264
0.0326359
0.0349154
0.0363674
0.037461
0.038144
0.0377173
0.0371901
0.0378467
0.0410357
0.0446017
0.0320525
0.0320168
0.0331241
0.0342137
0.0343296
0.033889
0.0332257
0.0323687
0.0317485
0.031106
0.0307884
0.0304772
0.0303749
0.0302966
0.0301649
0.0299986
0.0297797
0.0295386
0.0293608
0.0295284
0.03022
0.0315091
0.033831
0.0364999
0.0374792
0.0374889
0.0373957
0.0371173
0.0365492
0.0364599
0.0388577
0.0385961
0.035949
0.0338437
0.0324385
0.0313155
0.0303406
0.0294171
0.0286706
0.0279938
0.0277194
0.0274528
0.0276046
0.0277411
0.0280675
0.028796
0.0299192
0.0312332
0.0330617
0.0351966
0.0375553
0.0399262
0.0419743
0.0425618
0.0411767
0.0396541
0.0393241
0.0396596
0.0393604
0.0380491
0.0394606
0.0367129
0.0346215
0.0365474
0.0397918
0.041042
0.040973
0.0406802
0.0407281
0.041129
0.0415559
0.0417512
0.0413441
0.0400271
0.0379352
0.0359734
0.0350241
0.034591
0.0334267
0.0314201
0.0293877
0.0283569
0.0288081
0.0315579
0.0361849
0.0401266
0.0404406
0.0382115
0.0360194
0.0319835
0.0238948
0.0400033
0.0474187
0.044989
0.0485402
0.05462
0.0556971
0.0550322
0.0538267
0.0521051
0.0505991
0.0498359
0.0496871
0.049954
0.0505375
0.0511802
0.0515232
0.0514293
0.0512929
0.0519028
0.0544359
0.0580144
0.0581419
0.0489949
0.0360996
0.0360983
0.0402751
0.0391865
0.0279139
0.018396
0.0252612
0.0276374
0.031673
0.0327927
0.0319684
0.030724
0.0299272
0.0301362
0.0309523
0.0305253
0.0283751
0.0280592
0.0314444
0.0316109
0.0231091
0.0244221
0.0256817
0.0272075
0.0286547
0.0293393
0.029118
0.0280408
0.0263795
0.0254734
0.02533
0.025295
0.0251185
0.0249738
0.0251402
0.025472
0.0259357
0.026426
0.0268229
0.027006
0.0269425
0.0265949
0.0260337
0.0254322
0.0248324
0.0242913
0.0239007
0.0237091
0.0233004
0.0221502
0.0291376
0.0284356
0.0294299
0.0311071
0.0317504
0.0306144
0.0291465
0.0278543
0.0262358
0.0251659
0.025437
0.0264954
0.0273485
0.0278464
0.0282602
0.0286578
0.0288255
0.0288978
0.0289664
0.0290097
0.0289392
0.0286309
0.0281437
0.0275933
0.0272006
0.0273351
0.0279771
0.0289454
0.0297093
0.0292739
0.0293886
0.0282956
0.0300116
0.0335868
0.0360318
0.0364624
0.0346073
0.0312235
0.0298404
0.0296929
0.0296869
0.0296457
0.0295421
0.0292843
0.0289106
0.028542
0.0283016
0.028242
0.0283713
0.0285958
0.0289059
0.0290851
0.0291058
0.0293995
0.0298168
0.0304904
0.0308649
0.030492
0.0295973
0.0288008
0.0337617
0.0343105
0.0327942
0.0307512
0.0299805
0.0294563
0.0293085
0.0293084
0.029419
0.0295654
0.0297168
0.0298289
0.0299394
0.029977
0.0299776
0.0299449
0.0298508
0.0298263
0.0298349
0.0299076
0.0300246
0.0301585
0.0302912
0.0304427
0.0306722
0.0308959
0.0309585
0.0307728
0.0300488
0.0289513
0.0339554
0.0367033
0.0370846
0.0365142
0.0357649
0.0353624
0.0352032
0.0350422
0.0351989
0.035985
0.0368521
0.0367446
0.0355596
0.03491
0.03525
0.0358368
0.0362236
0.036527
0.0365857
0.0366137
0.0365148
0.0363866
0.0360482
0.0356358
0.0353213
0.0353488
0.0357614
0.0363936
0.0365543
0.0346111
0.0320395
0.0320748
0.0326566
0.0314218
0.0301988
0.0332239
0.0370685
0.037963
0.0352573
0.0317653
0.0303553
0.0308448
0.0318239
0.0326771
0.0332799
0.0336718
0.0339024
0.0340476
0.0344331
0.0354694
0.0370062
0.0374841
0.0356324
0.0316976
0.02732
0.0248031
0.0243467
0.0251862
0.0267146
0.0278642
0.0357295
0.0370283
0.039496
0.0425018
0.0428821
0.0413637
0.0388996
0.036541
0.0351008
0.0344386
0.0344359
0.0348242
0.0352302
0.0357638
0.0361395
0.0364101
0.0364787
0.0364837
0.0363634
0.0361427
0.035963
0.0358459
0.0359279
0.036162
0.036301
0.0358943
0.0347878
0.0333446
0.0328055
0.0335684
0.0301496
0.0298615
0.029817
0.0298066
0.0301521
0.0306204
0.0310668
0.0313631
0.0313784
0.0311262
0.0308292
0.0303461
0.0301505
0.0300206
0.0299702
0.0298629
0.0295558
0.0290877
0.0287101
0.028992
0.0305555
0.0329604
0.035016
0.0362954
0.0369665
0.0368864
0.0364427
0.0367978
0.0401189
0.0441708
0.0322526
0.0332538
0.0352534
0.0352209
0.0342972
0.0329021
0.0314739
0.0304752
0.0296931
0.0292359
0.0288819
0.0288071
0.0288008
0.0289621
0.0291485
0.0293481
0.029419
0.0293463
0.0291544
0.0290777
0.0294725
0.0305391
0.0325486
0.03531
0.0372023
0.0375895
0.0375588
0.0372673
0.0365466
0.0366915
0.0397205
0.0363781
0.0341586
0.0329945
0.0319085
0.0307272
0.029411
0.0283569
0.0272799
0.0266348
0.0261297
0.0258542
0.0257479
0.0258762
0.0263301
0.0268787
0.0278573
0.0289805
0.0306688
0.032809
0.0353649
0.0382194
0.0408051
0.0424447
0.0423104
0.0412217
0.0406593
0.0406952
0.0399723
0.0381971
0.0391843
0.0355924
0.0355563
0.0386542
0.0403494
0.0400156
0.0391923
0.0389863
0.0391363
0.0395069
0.0400192
0.040448
0.0404017
0.0393512
0.0374647
0.0361892
0.0363888
0.0367515
0.035182
0.0316773
0.0281293
0.0265026
0.026703
0.028851
0.0339734
0.0394457
0.0408711
0.0388993
0.0365274
0.0327019
0.0294487
0.0494731
0.0530087
0.0508971
0.0536374
0.0561897
0.0555043
0.0538865
0.0516776
0.0493426
0.0476718
0.0467339
0.0463824
0.0468613
0.048173
0.0499489
0.0514412
0.0519141
0.0512757
0.0503824
0.0516928
0.056488
0.0592978
0.054568
0.039151
0.0357293
0.038818
0.0378394
0.0270074
0.0182712
0.0253806
0.0290466
0.0325498
0.0320259
0.0301827
0.0286994
0.027795
0.0274321
0.0285095
0.0293218
0.0281889
0.0277714
0.0309685
0.0315806
0.0233741
0.0249228
0.0263502
0.0280334
0.0295025
0.0300693
0.0297324
0.02852
0.0263805
0.0254123
0.02542
0.0253616
0.0250532
0.024893
0.0251469
0.0256468
0.0262923
0.0269116
0.027365
0.0275644
0.0275557
0.0272453
0.0266701
0.0259098
0.0251889
0.0245599
0.024067
0.0237898
0.0233748
0.0221444
0.0287826
0.0279355
0.0292237
0.0313962
0.0326375
0.0325953
0.0319417
0.0302722
0.0275157
0.0257213
0.025796
0.0268939
0.0277623
0.0282277
0.0285964
0.0287157
0.0286571
0.0287341
0.0289283
0.0291974
0.0293365
0.0292228
0.028732
0.0280123
0.0273299
0.0270178
0.0273779
0.0282717
0.0292988
0.0291489
0.0293515
0.0281744
0.0303629
0.0342514
0.0368286
0.0372503
0.0344949
0.0304471
0.0297252
0.029705
0.0296273
0.0296332
0.0295403
0.0291663
0.0286289
0.0280573
0.0276588
0.0275051
0.0276249
0.0279924
0.028435
0.0288028
0.0289093
0.0290061
0.0292321
0.0298124
0.0303609
0.0302264
0.0295202
0.0288152
0.0338814
0.0339821
0.0311891
0.0300491
0.0292661
0.029231
0.0292951
0.0294261
0.0295948
0.0297505
0.0299096
0.0300523
0.0301765
0.0302814
0.0303082
0.0302761
0.0301727
0.0300147
0.0299039
0.0298235
0.0297993
0.0297987
0.0298421
0.0299653
0.0302484
0.0305876
0.0307868
0.0307394
0.0301212
0.0290177
0.0342238
0.0368036
0.0369564
0.0363446
0.0362054
0.0363926
0.0360456
0.0351147
0.0346835
0.035386
0.0366787
0.0366104
0.0353918
0.0351252
0.0357976
0.0363646
0.0366945
0.0368502
0.0368436
0.0368062
0.0367785
0.0367115
0.0365497
0.0361761
0.0357502
0.035555
0.0358194
0.0364344
0.0365502
0.0347343
0.0321775
0.0327349
0.0329863
0.0315656
0.0329245
0.0371206
0.0387574
0.0368332
0.0322505
0.0297549
0.0300056
0.0314329
0.0326525
0.0334334
0.034002
0.0344264
0.0345628
0.034565
0.0345874
0.0353092
0.036988
0.0381413
0.0369401
0.0330261
0.0279259
0.0250803
0.0247489
0.025723
0.0271205
0.0280155
0.0362077
0.0382395
0.0423939
0.0435402
0.0417579
0.0387726
0.0360145
0.0342748
0.0337707
0.0339806
0.0346202
0.035559
0.0367509
0.0378464
0.0385655
0.0388679
0.0386715
0.0381916
0.0375727
0.0370045
0.036572
0.0362498
0.0362152
0.0364086
0.0367416
0.0365735
0.035566
0.0337997
0.0328442
0.0335319
0.0302797
0.0301374
0.0302775
0.0306531
0.0312827
0.0318401
0.0321299
0.0319559
0.0313461
0.0304202
0.0294411
0.0285933
0.0281573
0.0281012
0.0284527
0.0290553
0.0293251
0.029337
0.0288897
0.0285772
0.0293417
0.0313214
0.0335899
0.0352015
0.0360658
0.0361811
0.0358855
0.0362348
0.0396877
0.0437989
0.0324834
0.0354202
0.0360887
0.0347736
0.0327986
0.0311497
0.0297004
0.0290433
0.0285121
0.028435
0.0282725
0.0283465
0.0284154
0.0284266
0.0284959
0.028653
0.0288393
0.0289895
0.0289633
0.0288241
0.0289823
0.0298239
0.0315317
0.0342095
0.036505
0.0374375
0.0375489
0.0371715
0.0366559
0.0372627
0.0392913
0.0350331
0.0340305
0.0331863
0.0319288
0.0304085
0.0288646
0.0277427
0.0264792
0.0258072
0.0252103
0.0248026
0.0247948
0.0248003
0.0251583
0.0256907
0.0266051
0.0275781
0.0291192
0.0309492
0.0336205
0.0365961
0.0394386
0.0417649
0.0425912
0.0422907
0.0418655
0.0415875
0.040382
0.0382254
0.0385835
0.035394
0.0369319
0.0394876
0.0397357
0.0386517
0.0380146
0.0379678
0.0380869
0.0383326
0.0387386
0.0393044
0.0397187
0.0393422
0.0377486
0.0366618
0.0376555
0.0387433
0.0371038
0.0330357
0.0284705
0.0262778
0.0265249
0.0289826
0.0345296
0.04009
0.04111
0.0389038
0.0367504
0.0329766
0.0348625
0.0542964
0.0563186
0.0546481
0.0560885
0.0563414
0.0547217
0.0522509
0.0492691
0.0463869
0.0441294
0.0425351
0.0418418
0.0424831
0.0443701
0.0472966
0.0503029
0.0521832
0.0520072
0.0501781
0.0499028
0.0547844
0.0596805
0.05811
0.0438084
0.0349528
0.0367639
0.0353554
0.025088
0.0180744
0.0255037
0.0297656
0.032476
0.0310404
0.0292078
0.0281996
0.0273493
0.0265905
0.0266619
0.027647
0.0274689
0.0276414
0.0308161
0.0315007
0.0236125
0.0254287
0.0269724
0.0287186
0.029969
0.0302298
0.0298656
0.0288808
0.0264774
0.0252669
0.0254159
0.0254009
0.0249842
0.0247864
0.0250889
0.0256767
0.0263701
0.026954
0.027317
0.0274809
0.0274905
0.0272864
0.0267717
0.0260721
0.0253236
0.0247284
0.0241793
0.0238624
0.0233437
0.0220854
0.0285457
0.0277514
0.0292355
0.0317329
0.0334473
0.0342022
0.0340354
0.0320652
0.0283765
0.0261597
0.0260572
0.0272129
0.0280423
0.0283992
0.0285294
0.028322
0.0281287
0.0282671
0.028686
0.0291891
0.0295065
0.0294767
0.0290636
0.0282917
0.0274881
0.0269936
0.0270861
0.0278876
0.0290182
0.0290662
0.0291831
0.0283171
0.0306163
0.034696
0.0373478
0.0375165
0.0338067
0.0298663
0.0297815
0.0296729
0.0296139
0.0298067
0.0297876
0.0294295
0.0288556
0.0281106
0.0274809
0.0272116
0.0272646
0.0275816
0.0281281
0.0285695
0.0287773
0.0288005
0.0289143
0.0293382
0.029845
0.0298355
0.0293474
0.028877
0.0339415
0.0330154
0.030229
0.0293761
0.029164
0.0293288
0.029415
0.0294898
0.0295987
0.0297277
0.0298622
0.0300049
0.0301711
0.0302806
0.030408
0.0304178
0.0303483
0.0301713
0.0300224
0.0298734
0.0297452
0.0296319
0.0295661
0.0296277
0.0299156
0.0303359
0.0306322
0.0306314
0.0300314
0.028969
0.0344266
0.0369319
0.0369439
0.0369038
0.0377927
0.0385317
0.0375672
0.035642
0.0344331
0.0348645
0.036573
0.0365372
0.0352749
0.0353107
0.0359541
0.0365102
0.0368778
0.0369439
0.0368131
0.0367281
0.0367248
0.0367292
0.0366658
0.036433
0.0360207
0.0357591
0.0360285
0.0366135
0.0365469
0.0342689
0.0324046
0.0334474
0.0334088
0.0333753
0.0366244
0.0392527
0.0388358
0.034538
0.0302177
0.0291101
0.0301868
0.0316778
0.0327861
0.0338393
0.034797
0.0352092
0.035101
0.0349631
0.0349652
0.035864
0.0376244
0.0387856
0.0374549
0.0328269
0.027473
0.0252894
0.0253606
0.0264486
0.0275939
0.0280815
0.0367672
0.0404966
0.0438397
0.0430817
0.0403303
0.0372965
0.0346625
0.0336657
0.0336876
0.0342851
0.0355381
0.037446
0.0391417
0.0402707
0.0408948
0.0411766
0.0409884
0.04018
0.0390756
0.0380338
0.0373025
0.0367645
0.0366443
0.0368425
0.0372445
0.0371471
0.0360986
0.0339592
0.0328095
0.0336333
0.030365
0.0305131
0.0311118
0.0318403
0.0324094
0.0328319
0.0327097
0.0319967
0.030695
0.0292498
0.0279152
0.0270478
0.026541
0.0264035
0.0267925
0.0277408
0.0286309
0.0291229
0.0289642
0.0285622
0.0287859
0.0302538
0.0323992
0.0342132
0.0352582
0.0355264
0.0353495
0.0361276
0.0399495
0.0432586
0.0336948
0.0367138
0.0358461
0.0338146
0.0316254
0.0300923
0.0289216
0.0285797
0.0283238
0.0284886
0.0285983
0.0288548
0.0288862
0.028894
0.0287369
0.0285317
0.0285415
0.0286719
0.0287537
0.0286567
0.0286952
0.029321
0.0308835
0.0333296
0.0357691
0.0370429
0.0373381
0.0367785
0.0371984
0.0381077
0.0380328
0.0349412
0.034613
0.0337085
0.0322378
0.0305503
0.028915
0.0277465
0.0263839
0.0256402
0.0248283
0.0245553
0.0243291
0.0243525
0.0246198
0.0250923
0.025874
0.0268235
0.0281756
0.0298281
0.032409
0.0352598
0.0382344
0.0407886
0.0423178
0.0426324
0.0424881
0.0420187
0.0403629
0.0380705
0.0379606
0.0355
0.0378609
0.0395291
0.0388474
0.0378152
0.0375458
0.0375365
0.0376018
0.0377649
0.0380111
0.038409
0.0390413
0.0392594
0.0380692
0.0367044
0.0379243
0.0400808
0.0395648
0.0364823
0.0325856
0.0299114
0.0303161
0.0332896
0.0380807
0.0412146
0.0408855
0.0385019
0.0365503
0.032906
0.0379357
0.0565727
0.0582234
0.0567196
0.0567688
0.0560161
0.053798
0.0506005
0.0470737
0.0435563
0.0406327
0.0384193
0.0375273
0.0385328
0.0409365
0.044455
0.0485847
0.0518894
0.0525864
0.0504414
0.0492843
0.053287
0.0600669
0.0600494
0.0473823
0.0341106
0.0337837
0.0317652
0.0226862
0.0174897
0.0255276
0.0297837
0.0320182
0.0304441
0.0289894
0.0281949
0.0274656
0.0266942
0.0260701
0.0263179
0.0267257
0.0274626
0.0310884
0.0313954
0.0238961
0.0258033
0.0273575
0.029042
0.0300511
0.0297928
0.0295774
0.0290002
0.0266952
0.02506
0.0252873
0.0254452
0.0249415
0.0246729
0.0249349
0.0255102
0.0261681
0.0266321
0.0267645
0.0266679
0.0267077
0.0266901
0.0263414
0.025829
0.0252655
0.0247772
0.0242481
0.023865
0.0232305
0.0219526
0.0285471
0.027747
0.029106
0.0317341
0.0338336
0.0348851
0.0349924
0.0330236
0.0289332
0.0264324
0.0262757
0.0274457
0.0281887
0.0284121
0.0282836
0.0278379
0.0276568
0.0279517
0.0285633
0.029153
0.0294572
0.0294012
0.0289487
0.0282101
0.0274218
0.0268888
0.0269759
0.027795
0.028902
0.0290372
0.0293157
0.0282448
0.0308213
0.0350228
0.0377944
0.0373191
0.0327851
0.0294527
0.02993
0.0295457
0.0297567
0.0300856
0.030187
0.0299785
0.0293723
0.0284677
0.0275991
0.0272051
0.0271029
0.0274214
0.0279401
0.0284487
0.0286649
0.0286662
0.0287233
0.0290309
0.0294151
0.0294583
0.0291623
0.0286899
0.0339539
0.0318001
0.0295095
0.0292579
0.0293376
0.0293743
0.0293831
0.029434
0.029557
0.029647
0.0297467
0.0298703
0.0300611
0.0301937
0.0303657
0.0303994
0.0303569
0.0302061
0.0300432
0.0298581
0.0296642
0.0294576
0.029325
0.0293958
0.029762
0.0302269
0.0305085
0.0304655
0.0297864
0.0288866
0.034591
0.0369047
0.037144
0.0378992
0.0396131
0.0402726
0.0388786
0.0363363
0.0342797
0.034376
0.0364738
0.0365192
0.0351712
0.0352872
0.0359198
0.0365107
0.036967
0.0370315
0.0367819
0.0366296
0.0366297
0.0366603
0.0366268
0.0364243
0.0361036
0.036041
0.0364117
0.0367059
0.0359975
0.0342758
0.0327388
0.0340966
0.0344503
0.0360806
0.039225
0.0399374
0.0378894
0.0328769
0.0294151
0.0289048
0.0299756
0.0312627
0.0325837
0.0343665
0.0358698
0.0365456
0.0363156
0.0360315
0.0364464
0.0376947
0.0389113
0.0387791
0.0360691
0.0305673
0.026487
0.0255512
0.0261249
0.0271916
0.0279826
0.0281522
0.037593
0.0429423
0.0443066
0.0426104
0.0399125
0.0370615
0.0345346
0.0336311
0.0337614
0.0347239
0.0366686
0.0389388
0.040543
0.0414082
0.0417732
0.0420277
0.0420625
0.0412345
0.040129
0.0389298
0.0379865
0.0373271
0.0371402
0.0374587
0.0378314
0.0376794
0.0363065
0.0335727
0.0328513
0.0336738
0.030842
0.0313292
0.0321
0.0329355
0.0333589
0.0335023
0.0330655
0.0319578
0.0301837
0.0285835
0.0271498
0.0264407
0.0260716
0.0259982
0.0262342
0.0272977
0.0281993
0.0288881
0.0289078
0.0284785
0.0284654
0.0297505
0.0316059
0.0334709
0.0345792
0.0348656
0.0348508
0.0365185
0.0395083
0.040684
0.0353777
0.0368402
0.0355061
0.0334183
0.0312626
0.0297584
0.0288156
0.0284817
0.0284724
0.0286867
0.0289719
0.0290855
0.0292366
0.0291802
0.0289226
0.0285573
0.0283786
0.0284563
0.028596
0.0285647
0.0285298
0.0290844
0.0305126
0.0328825
0.0352271
0.0366142
0.0369752
0.0367865
0.0382799
0.0390451
0.0371472
0.035478
0.0355119
0.0345625
0.0330155
0.0312341
0.0295403
0.0282295
0.0269022
0.0258965
0.0249249
0.0246007
0.0243663
0.0243007
0.0246578
0.0250525
0.02588
0.0266406
0.0278845
0.0293478
0.0317201
0.0343653
0.0372845
0.0398841
0.0418017
0.0426167
0.0425562
0.0419938
0.0399519
0.0378128
0.0375243
0.0357555
0.0383161
0.0392804
0.0382079
0.0373963
0.0371186
0.0369336
0.0369754
0.0373713
0.0377846