/*--------------------------------*- C++ -*----------------------------------*\
| =========                 |                                                 |
| \\      /  F ield         | OpenFOAM: The Open Source CFD Toolbox           |
|  \\    /   O peration     | Version:  2.1.1                                 |
|   \\  /    A nd           | Web:      www.OpenFOAM.org                      |
|    \\/     M anipulation  |                                                 |
\*---------------------------------------------------------------------------*/
FoamFile
{
    version     2.0;
    format      ascii;
    class       volScalarField;
    location    "0.005150000";
    object      O;
}
// * * * * * * * * * * * * * * * * * * * * * * * * * * * * * * * * * * * * * //

dimensions      [0 0 0 0 0 0 0];

internalField   nonuniform List<scalar> 
12384
(
0.000590197
0.000663697
0.000730707
0.000761863
0.000781436
0.000786164
0.000773119
0.000759244
0.000721788
0.000671085
0.000601989
0.000532629
0.000764643
0.000883208
0.000192733
0.000193664
0.000169904
0.000164519
0.000172736
0.000191709
0.000210178
0.00023317
0.000243651
0.000253221
0.000250543
0.000251158
0.000244771
0.000246689
0.000242368
0.000246012
0.000243127
0.000247867
0.000238978
0.000244665
0.000234559
0.000250285
0.000242044
0.000243266
0.000246714
0.000239596
0.000230768
0.000212802
0.000237152
0.000252397
0.000234179
0.000190632
0.000203635
0.00021882
0.00018345
0.000105024
0.000137319
0.000198603
0.000249555
0.000262683
0.000278338
0.000255648
0.00025229
0.000229219
0.000220728
0.000203875
0.000198135
0.000179149
0.000173605
0.000150017
0.00014254
0.000133356
0.000115978
0.00010267
9.22046e-05
8.89004e-05
0.000100199
0.000206081
0.000323118
0.000307377
7.89604e-05
0.000140271
0.000172223
0.00015542
0.000114427
6.59828e-05
5.92089e-05
6.52588e-05
7.54937e-05
8.4575e-05
9.09577e-05
9.71797e-05
9.75782e-05
9.28915e-05
8.84813e-05
8.18437e-05
7.12859e-05
6.57583e-05
6.45043e-05
5.81882e-05
6.50124e-05
6.41431e-05
7.43972e-05
8.544e-05
8.41745e-05
0.000119942
0.000167944
0.000208337
0.000278208
0.000304245
1.85161e-05
1.77552e-05
2.33452e-05
2.51139e-05
2.75824e-05
2.80531e-05
2.96493e-05
3.04377e-05
3.09819e-05
3.03621e-05
3.01625e-05
3.05021e-05
2.82938e-05
2.68438e-05
2.58161e-05
2.45505e-05
2.51331e-05
2.70504e-05
2.66644e-05
3.22479e-05
3.44858e-05
4.04642e-05
4.66551e-05
3.0175e-05
5.63249e-05
0.00012559
0.000284209
0.000324583
0.000329543
0.000321698
2.56338e-05
3.07224e-05
2.05706e-05
1.93259e-05
1.81862e-05
1.61974e-05
1.41496e-05
1.53732e-05
1.29741e-05
1.0498e-05
7.60656e-06
5.84277e-06
9.14283e-06
7.71317e-06
7.39786e-06
1.04775e-05
8.92448e-06
1.1308e-05
1.29587e-05
1.39821e-05
1.42926e-05
1.47185e-05
1.58457e-05
1.73547e-05
2.14369e-05
2.48488e-05
2.77318e-05
3.48087e-05
7.50049e-05
0.000211543
8.14814e-05
3.97372e-05
3.33455e-05
0.000102314
0.000111416
0.000114697
0.000126641
0.000153281
0.000168696
0.000172712
0.000159206
0.000139344
0.000123994
0.000117774
0.000114106
0.00011096
0.000115826
0.000128897
0.000156773
0.000165711
0.000171663
0.000167796
0.000157034
0.000155004
0.000149442
0.000150744
0.000152163
0.000167636
0.000165766
0.000199038
0.00030899
0.000304359
0.000272686
0.0001434
6.55416e-05
3.47757e-05
1.59358e-05
2.84932e-05
2.68306e-05
2.39366e-05
2.37583e-05
2.02214e-05
1.98039e-05
1.95188e-05
2.00032e-05
2.02942e-05
1.95362e-05
2.05121e-05
2.06275e-05
2.11508e-05
2.13512e-05
2.19589e-05
2.28109e-05
2.01021e-05
4.38978e-05
4.17761e-05
2.59542e-05
3.07519e-05
4.13388e-05
4.81976e-05
6.95387e-05
5.23275e-05
4.54174e-05
2.17681e-05
2.84158e-05
2.66587e-05
2.7325e-05
2.77201e-05
2.88224e-05
2.30172e-05
2.3247e-05
2.12025e-05
1.9897e-05
2.00493e-05
1.82049e-05
1.73915e-05
9.5805e-06
1.74639e-05
1.25617e-05
7.16756e-06
4.1302e-06
9.84534e-06
3.26692e-06
1.64086e-06
1.14282e-06
1.32038e-06
1.26335e-06
1.25404e-06
1.27701e-06
1.42141e-06
0.000347973
0.000333176
0.000283202
0.000227882
0.000179147
0.000151717
0.000129249
0.000113061
0.000102787
9.48695e-05
8.80222e-05
8.297e-05
6.72977e-05
6.64813e-05
6.53533e-05
5.5211e-05
4.88974e-05
4.87348e-05
4.15096e-05
4.77612e-05
3.7357e-05
1.65561e-05
7.71978e-06
8.595e-06
9.48815e-06
7.31538e-06
7.44414e-06
7.87596e-06
7.957e-06
8.30139e-06
1.25929e-05
2.55687e-06
7.59718e-06
5.10813e-06
5.96788e-06
5.26309e-06
4.21614e-06
4.54043e-06
3.51225e-06
3.92312e-06
2.91871e-06
2.67026e-06
2.75583e-06
2.6643e-06
2.48301e-06
2.40524e-06
1.83086e-06
1.55274e-06
2.25606e-06
2.40055e-06
2.00999e-06
1.72574e-06
2.30368e-06
3.21236e-06
3.95761e-06
3.56873e-06
4.80264e-06
5.89671e-06
5.75822e-06
6.49479e-06
0.00015564
6.58151e-06
1.85065e-06
3.45143e-06
6.10703e-06
1.65825e-05
1.36622e-05
5.97536e-06
8.21104e-06
4.54672e-06
3.47009e-06
4.29687e-06
3.79961e-06
3.17851e-06
2.74496e-06
2.70173e-06
2.53215e-06
2.5246e-06
2.50199e-06
2.63789e-06
2.95573e-06
2.91761e-06
3.68995e-06
4.03795e-06
2.73757e-06
6.29451e-06
1.03389e-05
2.09706e-06
1.62523e-05
6.71362e-05
7.15255e-06
7.32968e-06
9.50842e-06
1.14075e-05
1.49444e-05
2.68179e-05
3.8576e-06
2.58036e-07
2.86608e-07
2.64364e-07
3.14163e-07
2.91536e-07
2.84672e-07
2.91814e-07
3.04132e-07
2.567e-07
2.89062e-07
3.3722e-07
3.83209e-07
4.33727e-07
5.75169e-07
8.75263e-07
1.39496e-06
1.90949e-06
1.72181e-06
1.87095e-06
4.33522e-06
9.92948e-05
4.71498e-05
1.78361e-05
0.000826766
0.000791651
0.000760822
0.000773678
0.000789403
0.000797416
0.000810024
0.000807441
0.000807018
0.000806304
0.000766111
0.000596203
0.000703279
0.000899548
0.000185371
0.000176379
0.000164455
0.000183725
0.000217501
0.000268958
0.000299877
0.000324885
0.000319391
0.000314766
0.000306692
0.000302391
0.000301529
0.000315725
0.000329449
0.000343501
0.000355406
0.00036534
0.000365525
0.000365743
0.000351666
0.00034191
0.000323026
0.000313463
0.000287513
0.000267832
0.000246281
0.000225696
0.000220621
0.00021761
0.000235784
0.000212917
0.000224791
0.000201526
0.000151205
0.000176794
0.000333081
0.00032237
0.000321633
0.000299413
0.000324315
0.000321753
0.000339819
0.000330802
0.000332016
0.000321815
0.000323868
0.000309372
0.000304488
0.000294399
0.000273835
0.00025377
0.000224669
0.000187633
0.000148505
0.000117055
0.000105177
0.00013059
0.000215006
0.000321877
9.81552e-05
0.000156238
0.000163154
0.000108861
4.86909e-05
3.94453e-05
4.34609e-05
7.37412e-05
9.36382e-05
0.000141581
0.000170873
0.000175986
0.000176435
0.000161197
0.000150456
0.000136616
0.000121215
0.000100022
9.24231e-05
7.2402e-05
6.92774e-05
6.39999e-05
8.1364e-05
8.60268e-05
8.80487e-05
9.41202e-05
0.000129931
0.000173392
0.000220558
0.00027009
1.77001e-05
1.9775e-05
2.20686e-05
2.40931e-05
2.85664e-05
3.40136e-05
2.63588e-05
3.99377e-05
5.19394e-05
5.26173e-05
5.70254e-05
6.05472e-05
5.73618e-05
4.48719e-05
3.89526e-05
3.35939e-05
3.18418e-05
1.83905e-05
2.92006e-05
3.39266e-05
3.59379e-05
3.94841e-05
4.72698e-05
3.45392e-05
5.60207e-05
8.22234e-05
0.000165321
0.00024354
0.000286252
0.000274305
4.71262e-05
2.80587e-05
1.74023e-05
1.76854e-05
1.16074e-05
6.25804e-06
1.3115e-05
1.19275e-05
1.02339e-05
8.86323e-06
8.80209e-06
8.05001e-06
8.63192e-06
4.51014e-06
9.24062e-06
1.21927e-05
1.27351e-05
1.42883e-05
1.51401e-05
1.50664e-05
1.80074e-05
1.74592e-05
1.7165e-05
1.87717e-05
2.27768e-05
2.2274e-05
2.53461e-05
2.61887e-05
5.26161e-05
0.000115127
4.56442e-05
4.2139e-05
7.2219e-05
9.75432e-05
8.49202e-05
9.88304e-05
0.000142441
0.000166488
0.00011502
5.53848e-05
3.12505e-05
2.21065e-05
1.63361e-05
2.0303e-05
1.43625e-05
1.65021e-05
1.06124e-05
1.14107e-05
2.36157e-05
3.97413e-05
6.86026e-05
0.000137865
0.000174586
0.000153302
0.000140658
0.000135115
0.000144093
0.000156256
0.000162461
0.000181672
6.84889e-05
5.46372e-05
3.23706e-05
2.78592e-05
2.40716e-05
1.65501e-05
1.22172e-05
1.30609e-05
1.03355e-05
9.77272e-06
8.54912e-06
8.85991e-06
8.4351e-06
1.00589e-05
9.98955e-06
7.80468e-06
1.09154e-05
1.33933e-05
1.63144e-05
1.8645e-05
1.81339e-05
2.08766e-05
2.09159e-05
2.24442e-05
2.53244e-05
4.10539e-05
4.68436e-05
3.51826e-05
2.69594e-05
3.88139e-05
2.86986e-05
4.49798e-05
6.99096e-05
7.79414e-05
8.93289e-05
6.58789e-05
8.09852e-05
7.04055e-05
8.46223e-05
6.82491e-05
7.0318e-05
7.49973e-05
6.47968e-05
6.49656e-05
6.04861e-05
5.15374e-05
5.15103e-05
4.38409e-05
2.32774e-05
1.69008e-05
9.41573e-06
7.52202e-06
7.29428e-06
3.94227e-06
3.23171e-06
3.62873e-06
3.28341e-06
2.03576e-06
1.74104e-06
1.39153e-06
0.000260492
0.000116832
5.66021e-05
5.54049e-05
4.61997e-05
4.2273e-05
3.80891e-05
3.54515e-05
2.03421e-05
2.50966e-05
3.8397e-05
4.40927e-05
4.88976e-05
5.15708e-05
5.93505e-05
6.69803e-05
6.89569e-05
7.35625e-05
6.99844e-05
5.19078e-05
4.57063e-05
1.81142e-05
1.01592e-05
5.9274e-06
7.86075e-06
6.17357e-06
5.28063e-06
4.84558e-06
5.52909e-06
6.23383e-06
1.11995e-05
1.51597e-06
4.93632e-06
5.25419e-06
5.68555e-06
5.03909e-06
8.15704e-06
9.44278e-06
3.04689e-06
1.02723e-05
1.19039e-05
1.23168e-05
1.00432e-05
8.26818e-06
8.72594e-06
7.25644e-06
4.89081e-06
3.46238e-06
3.09171e-06
2.15055e-06
2.29728e-06
1.97113e-06
1.71091e-06
2.32682e-06
4.5298e-06
4.54724e-06
5.9817e-06
6.44506e-06
6.54966e-06
6.92014e-06
9.30717e-06
2.25311e-06
3.67518e-06
3.47074e-06
9.23143e-06
7.96332e-06
4.60334e-06
1.34498e-06
2.33362e-06
1.93103e-06
1.5228e-06
1.20247e-06
1.06518e-06
9.25166e-07
1.08604e-06
1.79737e-06
2.28426e-06
1.9201e-06
2.82539e-06
3.11731e-06
2.98232e-06
2.84625e-06
1.86867e-06
1.58674e-06
1.03191e-06
3.3327e-06
2.48847e-06
9.66423e-06
8.66104e-06
0.000168085
1.12495e-05
3.09639e-05
9.52919e-05
0.000143467
0.000167543
4.32014e-06
5.39297e-07
2.73623e-07
2.56333e-07
2.45825e-07
2.369e-07
2.38796e-07
2.43403e-07
2.57034e-07
2.80565e-07
2.9353e-07
2.95968e-07
1.46332e-07
1.00754e-07
2.41779e-07
2.44309e-07
3.47959e-07
9.37377e-07
3.37063e-06
3.83351e-06
2.11498e-06
2.23398e-06
6.07099e-06
0.000135494
2.12964e-05
0.000744473
0.000738097
0.000788973
0.000781076
0.000704701
0.000665182
0.000673616
0.000698935
0.000773032
0.000829941
0.000810353
0.000727956
0.000647742
0.000863034
0.000176607
0.000170061
0.000179043
0.000232592
0.000287672
0.000329342
0.000343069
0.000348088
0.000342909
0.000321728
0.000309134
0.000321085
0.000345717
0.000391817
0.000428009
0.000461507
0.000490473
0.000505664
0.000527177
0.000516799
0.000518985
0.00048167
0.000457973
0.000416291
0.000370651
0.000325117
0.000279172
0.000244454
0.000219792
0.000208793
0.000258038
0.000252317
0.000246396
0.00018094
0.000148959
0.000250942
0.000373596
0.00029786
0.000305354
0.000287639
0.00031558
0.000331671
0.000362714
0.000352648
0.000358506
0.000349501
0.000344982
0.000332256
0.000329609
0.000324263
0.000327535
0.000315559
0.000307278
0.000287753
0.000239352
0.000185558
0.00014389
0.000131213
0.000152859
0.00024646
0.000119786
0.000163604
0.000138802
5.2461e-05
3.08507e-05
2.27395e-05
4.46059e-05
9.27651e-05
0.000162631
0.000205684
0.000207739
0.000200557
0.000185394
0.000179152
0.000174821
0.000163813
0.000158553
0.000147516
0.000145786
0.000131987
0.000137028
0.000132079
0.000121234
0.000100401
7.32413e-05
6.96829e-05
0.000104511
0.000149215
0.000195759
0.000246663
2.05473e-05
1.75996e-05
2.23828e-05
2.74031e-05
2.93486e-05
5.46214e-05
7.98721e-05
0.000103673
0.000127253
0.000142399
0.000149532
0.000154023
0.000147046
0.00013183
0.000123898
0.000100027
8.51682e-05
6.82723e-05
5.82635e-05
5.25955e-05
4.20525e-05
4.56314e-05
4.87569e-05
5.44442e-05
5.3785e-05
6.64406e-05
0.000100493
0.00014482
0.000204057
0.000237615
4.21237e-05
2.44994e-05
1.79169e-05
1.1554e-05
1.20898e-05
1.13393e-05
1.08115e-05
9.46166e-06
4.14778e-06
1.04494e-05
9.30801e-06
8.613e-06
9.01919e-06
1.33053e-05
1.85789e-05
1.40983e-05
1.44338e-05
1.68425e-05
1.99851e-05
1.87039e-05
1.21938e-05
1.37586e-05
1.38982e-05
2.3306e-05
2.36914e-05
2.59876e-05
2.60295e-05
2.41864e-05
3.8502e-05
6.377e-05
4.64216e-05
2.69864e-05
5.78698e-05
3.63278e-05
4.16511e-05
0.000140713
0.000160588
3.5136e-05
2.84669e-05
2.31745e-05
2.73757e-05
1.73772e-05
3.26663e-05
3.12029e-05
2.27445e-05
2.06089e-05
2.5109e-05
2.19406e-05
1.66713e-05
1.7728e-05
2.28498e-05
3.86741e-05
0.000101074
0.000180533
0.000151918
0.000128656
0.00013217
0.000153464
0.000166578
0.000171678
3.90456e-05
2.58925e-05
2.17749e-05
1.68957e-05
1.40644e-05
7.26013e-06
3.25546e-06
5.72729e-06
3.89328e-06
4.78992e-06
6.90041e-06
7.94403e-06
9.52827e-06
9.38634e-06
1.02328e-05
8.8229e-06
9.21705e-06
1.3693e-05
1.40567e-05
1.61025e-05
1.93786e-05
1.76535e-05
1.92263e-05
1.89058e-05
2.1571e-05
2.42264e-05
4.06516e-05
4.82413e-05
3.96397e-05
3.08367e-05
0.000138855
0.000195017
0.000208733
0.000218124
0.000220947
0.000215899
0.000212457
0.000193807
0.000191312
0.000174319
0.000171523
0.000161239
0.000158263
0.000158838
0.000160546
0.000167369
0.000163878
0.000143512
8.91869e-05
4.36537e-05
2.13388e-05
1.24413e-05
7.50912e-06
7.77252e-06
6.1036e-06
7.54718e-06
8.94007e-06
4.92213e-06
2.99764e-06
1.64273e-06
0.000108539
5.52837e-05
4.41202e-05
3.43181e-05
2.82711e-05
2.20515e-05
2.21292e-05
2.35831e-05
2.36234e-05
2.66412e-05
2.60473e-05
3.80449e-05
4.86396e-05
5.96012e-05
6.87882e-05
7.6128e-05
8.231e-05
8.66359e-05
8.37016e-05
7.92768e-05
4.82784e-05
3.54426e-05
1.53773e-05
6.79281e-06
5.23106e-06
5.10115e-06
4.4703e-06
4.14707e-06
5.16525e-06
6.84973e-06
5.87355e-06
4.17843e-06
5.68128e-06
8.03228e-06
5.64868e-06
1.83311e-05
2.53111e-05
3.51024e-05
6.13095e-05
7.01486e-05
8.85536e-05
8.35249e-05
8.55593e-05
7.28691e-05
5.07348e-05
2.56382e-05
2.01643e-05
1.04456e-05
6.02801e-06
4.09242e-06
2.6398e-06
2.18629e-06
1.95756e-06
2.38913e-06
3.65638e-06
4.76116e-06
5.44302e-06
5.398e-06
5.13234e-06
6.32418e-06
1.98934e-07
3.42213e-06
7.52738e-06
2.86708e-06
3.37551e-06
2.99211e-06
2.87174e-06
2.60047e-06
2.24351e-06
1.78643e-06
1.65883e-06
1.32163e-06
1.15645e-06
1.83757e-06
1.39034e-06
4.58231e-06
6.40645e-06
1.02837e-05
7.31677e-06
2.19996e-05
2.70181e-05
2.71036e-05
9.6526e-06
4.94223e-06
3.02484e-06
1.25316e-06
3.66825e-06
3.60109e-06
1.09904e-05
5.71812e-05
2.93473e-05
0.000145871
4.9511e-06
5.0565e-06
3.46606e-06
6.51624e-07
2.26746e-07
2.5522e-07
2.96753e-07
3.6411e-07
4.63455e-07
5.40678e-07
4.18987e-07
4.5614e-07
4.24741e-07
3.7979e-07
5.45468e-07
4.95483e-07
4.07615e-07
2.76057e-07
2.05337e-07
1.95128e-07
3.07916e-07
2.43443e-06
1.20156e-05
6.43461e-06
2.65003e-06
3.72602e-06
0.000165654
2.245e-05
0.000728701
0.000784682
0.000746632
0.000618659
0.000609699
0.000644844
0.000661469
0.000658241
0.000667722
0.000761326
0.000816414
0.000782083
0.000652284
0.000831669
0.000162894
0.00017734
0.000213926
0.000276935
0.000311819
0.000305161
0.000311972
0.000338148
0.000347485
0.000315083
0.000316869
0.000349473
0.000406813
0.000460455
0.000509888
0.000535717
0.000568121
0.000587663
0.000619667
0.000622222
0.000640818
0.000606862
0.000591696
0.000538104
0.000476073
0.000395771
0.000331484
0.000267211
0.000231564
0.000212258
0.000279138
0.000308113
0.000264443
0.00015832
0.000133335
0.000242539
0.000359723
0.000320021
0.000326301
0.000304879
0.000342148
0.00035386
0.000366591
0.00036413
0.000364412
0.000334121
0.000299859
0.000286969
0.000271495
0.000282115
0.00028729
0.000313877
0.000324551
0.000320564
0.000304284
0.000264639
0.000202541
0.000157686
0.000150754
0.000220455
0.00012782
0.000170018
0.000114873
4.07826e-05
2.3865e-05
2.52896e-05
3.01795e-05
6.30802e-05
0.000179844
0.000199514
0.000190419
0.000177126
0.000180622
0.000182457
0.00018846
0.000191934
0.00019649
0.000187685
0.00018214
0.000170433
0.00017478
0.000174302
0.000181101
0.000157431
0.000130357
9.63674e-05
0.000106128
0.000134792
0.000188675
0.000238881
1.71063e-05
1.58791e-05
1.79373e-05
2.46701e-05
6.73896e-05
0.000110034
0.000154976
0.000193006
0.000212925
0.000229397
0.00023205
0.00023493
0.000218698
0.000216586
0.00019553
0.000177414
0.000153382
0.000128663
0.00010892
9.07657e-05
7.81434e-05
7.48001e-05
6.80508e-05
7.46959e-05
7.67217e-05
7.53181e-05
8.64402e-05
0.000103614
0.000159086
0.000212413
3.38372e-05
2.16506e-05
1.49788e-05
1.13672e-05
1.79052e-05
2.0483e-05
2.47361e-05
2.34268e-05
1.64961e-05
1.19281e-05
8.07575e-06
9.54217e-06
1.44798e-05
2.26766e-05
1.80692e-05
3.23447e-05
3.42254e-05
3.52527e-05
3.36008e-05
3.50795e-05
3.47282e-05
3.0361e-05
2.96145e-05
2.99789e-05
2.89646e-05
2.75367e-05
2.80357e-05
2.69698e-05
3.54471e-05
3.27943e-05
4.29485e-05
3.30029e-05
1.6085e-05
4.32055e-05
0.000107791
0.000141371
4.45807e-05
1.64956e-05
1.21043e-05
2.98438e-05
4.96035e-05
4.2977e-05
4.28839e-05
6.04608e-05
5.02553e-05
4.10231e-05
3.35401e-05
2.3776e-05
2.55754e-05
1.71912e-05
1.55471e-05
1.7809e-05
3.12669e-05
0.000117159
0.000178024
0.00013274
0.000128472
0.000149947
0.000168997
0.000156193
3.17852e-05
1.80646e-05
1.14875e-05
8.6957e-06
5.13141e-06
4.07704e-06
4.85925e-06
6.32809e-06
1.06188e-05
7.37024e-06
1.47255e-05
1.90543e-05
1.99957e-05
1.74871e-05
1.66298e-05
1.61458e-05
1.68073e-05
1.48502e-05
1.5309e-05
1.78305e-05
1.9358e-05
1.92439e-05
1.8516e-05
1.73665e-05
1.75453e-05
2.14335e-05
2.7101e-05
4.53624e-05
4.50255e-05
4.08342e-05
0.000221165
0.000214512
0.000206765
0.000209965
0.000194894
0.000182266
0.000167621
0.000146632
0.000122936
0.000128627
0.000109982
0.000116486
0.00012617
0.000127376
0.000146959
0.000161178
0.000183354
0.000202542
0.000194337
0.000124175
4.94406e-05
2.28321e-05
1.47604e-05
7.59237e-06
1.06283e-05
3.75825e-06
1.13141e-05
1.25913e-05
3.2762e-06
1.88414e-06
5.64028e-05
4.79917e-05
2.53609e-05
1.25345e-05
8.24414e-06
1.4449e-05
1.77562e-05
2.59276e-05
1.28791e-05
3.31346e-05
5.16727e-05
6.32914e-05
6.63225e-05
7.03084e-05
7.39824e-05
8.02648e-05
8.7181e-05
9.40048e-05
9.97765e-05
9.42127e-05
7.90976e-05
4.22919e-05
2.30777e-05
9.18919e-06
6.64512e-06
3.51305e-06
3.57817e-06
5.31444e-06
5.53297e-06
5.56777e-06
4.42179e-06
5.83303e-06
9.74627e-06
1.09378e-05
2.50934e-05
3.19941e-05
6.58164e-05
9.80238e-05
0.00012751
0.000161223
0.000174699
0.000179612
0.000177381
0.00017824
0.000161523
0.000126551
8.49961e-05
4.08644e-05
1.91164e-05
7.75863e-06
3.19124e-06
2.41324e-06
2.08754e-06
1.97142e-06
2.69681e-06
3.15945e-06
4.20164e-06
3.25085e-06
4.24439e-06
6.32426e-06
2.11322e-06
4.94918e-06
2.3399e-06
5.46442e-06
3.50586e-06
1.58079e-06
1.9315e-06
1.88606e-06
2.97566e-06
3.10309e-06
2.74249e-06
2.18273e-06
2.24735e-06
2.53977e-06
4.47711e-06
6.84252e-06
1.009e-05
2.91214e-06
1.86653e-05
2.63901e-05
0.000102095
0.00014831
0.000127267
1.66839e-05
7.69223e-06
2.12334e-06
1.62838e-06
4.70991e-06
8.32174e-06
2.94359e-05
0.000123933
1.87925e-06
4.81965e-07
1.0167e-06
5.94113e-07
2.84684e-07
1.25257e-07
2.08791e-07
3.78174e-07
5.89048e-07
6.79883e-07
9.07795e-07
9.79939e-07
9.28622e-07
8.00177e-07
5.80489e-07
4.29703e-07
5.32329e-07
3.78708e-07
3.60083e-07
2.5219e-07
1.72953e-07
1.71299e-07
7.49342e-07
8.02728e-06
1.03789e-05
2.46679e-06
3.67136e-06
0.00015342
2.39377e-05
0.000731902
0.000802452
0.000585417
0.0005956
0.000703607
0.000821134
0.000893625
0.000833732
0.000749756
0.000758565
0.000815935
0.000793251
0.000666009
0.000820198
0.00016609
0.000191365
0.000245564
0.000290878
0.000266002
0.000234273
0.000252688
0.000328003
0.000353009
0.000316014
0.000320822
0.000370313
0.00044442
0.000490802
0.000529887
0.000550999
0.000588933
0.000633378
0.000656654
0.00067932
0.000701792
0.000690086
0.000685513
0.00062473
0.000570437
0.000477399
0.000381152
0.000298581
0.000244622
0.00021195
0.000303669
0.000351383
0.00028524
0.000147529
7.89621e-05
0.000146721
0.000245946
0.000287179
0.000349676
0.000333319
0.000347529
0.000365757
0.000372589
0.000359325
0.000330286
0.000281715
0.000241786
0.000232278
0.000215992
0.000216011
0.000234302
0.000254207
0.000291292
0.000323991
0.000322951
0.000306556
0.000268144
0.000198703
0.000164386
0.000212642
0.00013143
0.000160379
9.40703e-05
3.01072e-05
1.74817e-05
1.49163e-05
2.12587e-05
0.000104044
0.000187424
0.000184881
0.000175027
0.000170665
0.000177514
0.000193837
0.000212049
0.000236284
0.000250796
0.00025125
0.000247823
0.000221689
0.000215354
0.000201201
0.000220114
0.000206429
0.000189471
0.000152299
0.000126459
0.000142248
0.000184742
0.000226666
1.95647e-05
1.87277e-05
3.3994e-05
7.18117e-05
0.000138172
0.000195034
0.00023385
0.000247678
0.000261473
0.00025862
0.000251357
0.000248062
0.000250003
0.000233357
0.000230746
0.000217684
0.000200924
0.000179304
0.000152357
0.000126918
0.000114777
0.000101297
0.000102961
0.000100462
9.41294e-05
9.3569e-05
8.53756e-05
9.89328e-05
0.000137362
0.000201165
3.02168e-05
1.95217e-05
1.37596e-05
1.57433e-05
2.25243e-05
2.75781e-05
2.86079e-05
2.99241e-05
2.52914e-05
1.74273e-05
1.02781e-05
8.8135e-06
1.84294e-05
2.83288e-05
3.34747e-05
3.30528e-05
3.07576e-05
2.86039e-05
3.05199e-05
2.80151e-05
3.15239e-05
3.58126e-05
3.42414e-05
3.33448e-05
3.2985e-05
3.13632e-05
2.95248e-05
2.44461e-05
2.92638e-05
2.82209e-05
4.11826e-05
3.51679e-05
3.17754e-05
4.53595e-05
0.000105774
3.72932e-05
1.35899e-05
1.43797e-05
2.69679e-05
3.43172e-05
0.000111283
8.55744e-05
4.19359e-05
5.70306e-05
4.24153e-05
3.46739e-05
3.05788e-05
2.92387e-05
2.28588e-05
2.42463e-05
1.36884e-05
9.18338e-06
2.17624e-05
3.3234e-05
0.000180913
0.000146107
0.000131697
0.000156007
0.00016747
0.000150883
2.58548e-05
1.13918e-05
8.58173e-06
3.77251e-06
2.99018e-06
5.16356e-06
9.18528e-06
1.58638e-05
3.15074e-05
2.50077e-05
2.66295e-05
2.94449e-05
2.48751e-05
2.11678e-05
1.70622e-05
1.59551e-05
1.42425e-05
1.37942e-05
1.2617e-05
1.42925e-05
1.64034e-05
1.84586e-05
1.79475e-05
1.66562e-05
1.44094e-05
1.71795e-05
2.38319e-05
3.72453e-05
4.68537e-05
4.355e-05
0.000203843
0.000182564
0.000165826
0.000161088
0.000142045
0.000111921
8.59016e-05
7.32471e-05
6.40911e-05
7.47031e-05
9.13978e-05
0.000117973
0.000119358
0.000130846
0.0001317
0.000146974
0.000163626
0.000196529
0.000217502
0.000197917
0.000110815
4.31538e-05
2.21525e-05
1.55764e-05
1.12979e-05
1.35935e-05
1.6712e-05
1.25926e-05
4.52893e-06
1.25406e-06
5.0671e-05
2.29243e-05
1.13021e-05
1.13197e-05
8.83597e-06
2.15881e-05
3.15513e-05
6.42123e-05
9.42797e-05
0.000115339
0.000121096
0.000127429
0.000122702
0.000114045
0.000109274
0.000102423
0.000100522
0.000102482
0.000107137
0.000106707
9.34578e-05
7.20086e-05
3.39458e-05
1.41122e-05
6.69037e-06
3.27712e-06
4.08028e-06
4.35373e-06
6.90104e-06
5.55851e-06
3.01346e-06
8.41417e-06
7.75306e-06
2.04229e-05
2.47247e-05
5.26542e-05
9.82724e-05
0.000141578
0.000177676
0.000184124
0.000184985
0.000179034
0.000179442
0.000180677
0.000188554
0.00018559
0.000168779
0.000116048
5.86865e-05
2.07382e-05
8.2686e-06
4.20511e-06
1.11053e-06
1.77743e-06
1.86208e-06
2.6827e-06
1.65486e-06
1.90743e-06
2.7393e-06
5.98758e-06
2.59374e-06
7.69203e-06
8.97124e-06
5.15069e-06
3.7437e-06
4.07795e-06
6.76317e-06
7.0323e-06
5.80753e-06
5.24118e-06
3.11078e-06
1.90314e-06
1.91468e-06
3.01704e-06
3.69121e-06
7.04843e-06
5.71778e-06
5.14969e-06
1.02338e-05
2.03315e-05
0.000156294
0.000193845
0.000195846
0.000122184
1.22625e-05
3.74404e-06
9.11981e-07
3.78476e-06
6.2593e-06
2.25562e-05
8.99224e-05
4.52259e-07
2.5694e-07
3.43375e-07
2.86143e-07
2.60106e-07
1.87374e-07
3.81098e-07
4.74588e-07
1.12748e-06
1.38998e-06
2.11893e-06
2.37116e-06
2.07575e-06
1.64742e-06
1.14492e-06
6.63822e-07
4.09674e-07
4.86265e-07
5.7265e-07
2.84571e-07
2.21141e-07
1.15846e-07
2.58946e-07
4.35051e-06
1.03935e-05
5.18984e-06
5.39456e-06
0.000167589
2.25568e-05
0.000737787
0.000741915
0.000569273
0.000665955
0.000859251
0.00100797
0.0010456
0.000986168
0.000886729
0.00082313
0.000811169
0.000783608
0.000675768
0.000803352
0.000170347
0.000209627
0.00026893
0.000272679
0.000213272
0.000183756
0.000218787
0.000313751
0.000360626
0.000316468
0.000327117
0.000379554
0.000456679
0.00049163
0.00052455
0.000543322
0.000598694
0.000640644
0.000686908
0.000715233
0.000736239
0.000727326
0.000734134
0.000679603
0.000646288
0.000531023
0.000429012
0.000331795
0.000251817
0.000224623
0.00032215
0.000375769
0.000302513
0.000120128
8.78075e-05
7.68294e-05
8.57627e-05
0.000150906
0.00031783
0.000341827
0.000364205
0.000376529
0.00037124
0.000335837
0.000283008
0.000252197
0.000225882
0.00022431
0.000200637
0.000193564
0.000194058
0.000210269
0.000249325
0.000299967
0.000323446
0.000319415
0.000292771
0.000239219
0.00018005
0.000214703
0.000133867
0.000162066
8.30328e-05
2.17864e-05
1.19448e-05
9.61714e-06
2.19306e-05
0.000150314
0.000186571
0.000169009
0.00016862
0.000167657
0.000172804
0.000193787
0.000223742
0.000257356
0.000285899
0.000292066
0.00030089
0.000272706
0.000254216
0.000231714
0.000235071
0.000228075
0.000227885
0.0001913
0.000154103
0.000165118
0.00019497
0.000233676
2.02045e-05
1.94188e-05
5.96356e-05
0.000147147
0.000222192
0.000253069
0.000248278
0.000261192
0.000250604
0.000261251
0.000246508
0.000255207
0.000238812
0.000242939
0.000232064
0.000229329
0.000219487
0.000205365
0.000172409
0.000158915
0.000129403
0.000130532
0.000125112
0.000127426
0.000122453
0.000107686
0.000104835
0.000105932
0.000141147
0.000195682
2.62199e-05
1.82599e-05
1.44229e-05
1.88398e-05
2.28996e-05
2.32303e-05
2.41344e-05
2.80342e-05
1.34033e-05
2.21806e-05
1.13672e-05
1.08161e-05
2.16109e-05
3.37699e-05
3.2864e-05
3.25252e-05
2.75207e-05
2.80444e-05
3.0019e-05
3.28257e-05
3.06962e-05
3.2062e-05
3.16423e-05
3.36025e-05
3.45191e-05
3.27921e-05
2.86726e-05
2.89165e-05
2.77777e-05
1.76277e-05
3.92223e-05
3.13198e-05
3.41909e-05
3.88991e-05
3.97783e-05
8.28328e-06
9.81861e-06
1.45414e-05
5.27376e-05
0.000132734
0.000124596
5.6124e-05
5.53198e-05
4.42926e-05
3.35432e-05
2.61717e-05
2.33366e-05
2.25855e-05
2.06873e-05
2.35507e-05
1.50236e-05
1.2578e-05
1.50633e-05
3.75952e-05
0.000171697
0.000154652
0.000144619
0.000161973
0.000165874
0.000147652
1.96175e-05
1.18878e-05
4.13191e-06
2.48548e-06
4.59804e-06
1.04691e-05
2.06931e-05
3.21547e-05
3.58205e-05
3.28851e-05
2.093e-05
2.39019e-05
1.49558e-05
1.04052e-05
8.82276e-06
7.51872e-06
8.32703e-06
9.32593e-06
6.33478e-06
9.44287e-06
1.23724e-05
1.52292e-05
1.6923e-05
1.49426e-05
1.23869e-05
1.43569e-05
1.94467e-05
3.00493e-05
4.80836e-05
4.5947e-05
0.000143405
0.000139709
0.000122475
0.000101312
6.8886e-05
6.19269e-05
5.80491e-05
6.65114e-05
6.26201e-05
0.000120393
0.00016548
0.000203466
0.000221209
0.000226052
0.000206713
0.000173714
0.000183256
0.000181794
0.000211667
0.000236081
0.000181577
6.41463e-05
3.23562e-05
2.1443e-05
1.79435e-05
1.81403e-05
2.03922e-05
2.05658e-05
5.80915e-06
1.31662e-06
4.25027e-05
1.22462e-05
8.46281e-06
1.3386e-05
2.74398e-05
4.56608e-05
0.000112398
0.000137187
0.000168314
0.00016322
0.000171745
0.000159225
0.000158647
0.00014365
0.00013543
0.000129939
0.000120256
0.000113513
0.000114384
0.000119889
0.000111205
8.84529e-05
3.48288e-05
1.69668e-05
8.39095e-06
5.84834e-06
3.62168e-06
4.65922e-06
5.71329e-06
5.07556e-06
4.31341e-06
1.25797e-05
1.01396e-05
1.59305e-05
2.64016e-05
6.43178e-05
0.000117797
0.000171929
0.00018645
0.000177204
0.000168074
0.000159526
0.000159145
0.000160423
0.000169357
0.00017808
0.000185393
0.00017735
0.000109216
4.90101e-05
1.44038e-05
6.0046e-06
2.83081e-06
2.10905e-06
1.7026e-06
2.05666e-06
2.44435e-06
2.50182e-06
1.79519e-06
6.15326e-06
3.203e-06
8.74765e-06
6.19534e-06
5.00035e-06
5.79565e-06
8.57077e-06
1.10487e-05
1.09374e-05
9.83385e-06
8.55055e-06
6.81262e-06
5.00945e-06
3.18407e-06
2.99371e-06
2.35968e-06
5.30259e-06
1.62298e-06
3.80777e-06
3.31257e-06
1.68045e-05
0.000133802
0.000190878
0.000193447
0.000112447
5.11469e-06
2.82264e-06
2.59978e-06
3.36055e-06
4.95784e-06
1.85853e-05
8.28202e-06
1.97024e-07
1.72475e-07
1.72207e-07
1.05644e-07
2.52345e-07
2.91952e-07
6.04044e-07
1.16439e-06
2.27702e-06
3.33235e-06
5.21542e-06
6.81236e-06
5.6569e-06
1.9147e-06
1.45649e-06
8.23329e-07
6.82591e-07
2.23194e-07
6.20168e-07
5.89011e-07
2.53833e-07
9.0358e-08
1.63818e-07
1.34155e-06
1.21398e-05
5.45054e-06
9.70437e-06
0.000155712
2.37941e-05
0.000741561
0.000692796
0.000569737
0.000702271
0.000867468
0.000939477
0.00100161
0.000949879
0.00086741
0.000844674
0.000809183
0.000782556
0.000689964
0.000821164
0.000178716
0.000225125
0.000266643
0.000230844
0.00017809
0.000159481
0.000206416
0.00030889
0.000374687
0.000318982
0.000326527
0.000380845
0.000455197
0.000478471
0.000504257
0.000531825
0.00059846
0.000655597
0.000717442
0.000738721
0.000761912
0.000744846
0.000747839
0.000703791
0.000660355
0.000572519
0.000467274
0.000341193
0.000263754
0.000232587
0.000318572
0.000393027
0.000284964
8.95835e-05
6.39336e-05
3.48512e-05
3.44495e-05
8.09246e-05
0.000267269
0.000361462
0.000377157
0.000386213
0.00035485
0.000321529
0.000270216
0.000261677
0.000245797
0.000249632
0.000213382
0.000192589
0.000182248
0.000188763
0.000219707
0.000279983
0.000322011
0.000323033
0.000304611
0.000266105
0.000192498
0.000218214
0.000135531
0.000156459
6.97159e-05
1.20452e-05
9.87602e-06
6.3618e-06
3.38422e-05
0.000180937
0.000176126
0.000160953
0.000161911
0.000153388
0.000148606
0.000165875
0.000195881
0.000244372
0.000281005
0.000300098
0.000312169
0.000301137
0.000278978
0.000269204
0.000248764
0.000245694
0.000245736
0.000223244
0.000193544
0.000193229
0.000203882
0.00023157
1.94397e-05
3.84876e-05
0.000129614
0.000231339
0.000265462
0.000243569
0.000251736
0.000255253
0.000258271
0.000254112
0.000260803
0.000255361
0.000247718
0.000248074
0.000240933
0.000235718
0.000221019
0.000212666
0.000186836
0.000158309
0.000143265
0.000139149
0.000144804
0.000148695
0.000142374
0.000133064
0.000118605
0.000112384
0.000143868
0.000204147
2.30418e-05
1.6016e-05
1.47718e-05
1.72106e-05
9.70318e-06
1.54803e-05
8.84905e-06
2.38607e-05
1.9885e-05
2.58495e-05
1.23915e-05
1.24669e-05
2.43163e-05
3.27082e-05
3.25541e-05
2.8207e-05
2.68985e-05
2.51148e-05
3.21563e-05
3.34492e-05
3.53801e-05
3.48755e-05
3.59313e-05
3.43832e-05
3.60245e-05
3.26845e-05
2.97924e-05
2.32564e-05
2.90032e-05
3.75717e-05
3.42486e-05
2.19525e-05
2.93142e-05
2.92459e-05
1.0978e-05
8.31504e-06
9.50899e-06
1.31179e-05
0.000106311
0.000153929
0.000111111
5.01379e-05
5.09777e-05
2.94294e-05
2.88797e-05
2.57554e-05
2.77611e-05
2.60717e-05
2.63212e-05
2.05292e-05
9.26783e-06
1.18442e-05
1.0484e-05
3.91113e-05
0.000177213
0.000154852
0.000156268
0.000175721
0.000161084
0.000143693
1.45004e-05
4.13096e-06
2.51916e-06
2.92439e-06
5.32875e-06
1.17051e-05
2.00985e-05
3.67108e-05
4.01082e-05
2.9755e-05