/*--------------------------------*- C++ -*----------------------------------*\
| =========                 |                                                 |
| \\      /  F ield         | OpenFOAM: The Open Source CFD Toolbox           |
|  \\    /   O peration     | Version:  2.1.1                                 |
|   \\  /    A nd           | Web:      www.OpenFOAM.org                      |
|    \\/     M anipulation  |                                                 |
\*---------------------------------------------------------------------------*/
FoamFile
{
    version     2.0;
    format      ascii;
    class       volScalarField;
    location    "0.005150000";
    object      OH;
}
// * * * * * * * * * * * * * * * * * * * * * * * * * * * * * * * * * * * * * //

dimensions      [0 0 0 0 0 0 0];

internalField   nonuniform List<scalar> 
12384
(
0.00817398
0.00849686
0.00877643
0.00884083
0.00889451
0.00891663
0.00885001
0.00882909
0.00870897
0.00856888
0.00812986
0.00780663
0.00955815
0.00907241
0.00297021
0.0030365
0.00281013
0.00276967
0.00288213
0.00314342
0.00335864
0.00361695
0.00372537
0.0038274
0.00379462
0.00378894
0.00372026
0.00372859
0.00367758
0.003703
0.00366493
0.00370145
0.00360955
0.00366483
0.00355071
0.00367405
0.00359149
0.00359824
0.00362596
0.0035538
0.00346443
0.00324654
0.00350376
0.00365323
0.00477607
0.00434441
0.00444948
0.0044967
0.00427204
0.0032237
0.00361576
0.00405909
0.00464482
0.00457678
0.00474003
0.00452839
0.00452987
0.00434961
0.00430608
0.00413719
0.00402981
0.00379136
0.00372424
0.00345862
0.00336951
0.00321444
0.00306379
0.00290747
0.00278297
0.00274019
0.00286425
0.00410293
0.00474712
0.0044534
0.00251535
0.0033044
0.00354307
0.00339542
0.00291613
0.0023528
0.00217318
0.0022871
0.00248452
0.00266129
0.00279433
0.00288625
0.00289344
0.00282635
0.00272768
0.00259565
0.00242621
0.00230066
0.00227836
0.0021472
0.00231614
0.00227785
0.00250651
0.00268498
0.00294807
0.00331748
0.00375934
0.00422659
0.00480002
0.00501844
0.00112073
0.00116526
0.00129647
0.00133897
0.00139597
0.0014144
0.00145686
0.00148065
0.0014957
0.00148539
0.0014817
0.00146506
0.00141357
0.00135755
0.00135585
0.00128442
0.00131652
0.00136498
0.00135934
0.00151268
0.0015903
0.00172474
0.00187656
0.00189737
0.0023036
0.00314111
0.00471138
0.00503611
0.00511231
0.00508362
0.00185851
0.00157027
0.00132748
0.00129274
0.00126627
0.0012173
0.00117011
0.00114235
0.00108274
0.00102084
0.000949607
0.000906603
0.000933475
0.000901602
0.000898353
0.000936375
0.000948572
0.00096837
0.00101679
0.00108386
0.00109276
0.00114274
0.0012136
0.00129449
0.00137885
0.00149734
0.00160111
0.00178418
0.00274836
0.00444534
0.00256563
0.00176737
0.00197186
0.00278103
0.00290546
0.00303537
0.00313048
0.00337562
0.0035396
0.00362652
0.003557
0.00333195
0.00313292
0.00301079
0.00297019
0.00290577
0.00295576
0.00309839
0.00331714
0.00332082
0.00326858
0.00313502
0.00295764
0.00286121
0.00278786
0.00280749
0.00289622
0.00318162
0.00338766
0.00384758
0.00474995
0.00472272
0.00466959
0.00350593
0.00237044
0.00183257
0.00150559
0.00151233
0.00146542
0.00136443
0.00135474
0.00123851
0.00125903
0.00119575
0.0012158
0.00122248
0.00120823
0.0012353
0.00123854
0.00125491
0.00126158
0.00128031
0.00130641
0.00137876
0.00186755
0.00182357
0.00155474
0.00168
0.00191182
0.00208715
0.00245478
0.00204298
0.00188291
0.00162304
0.00165734
0.00157274
0.00153196
0.001492
0.00151412
0.00132081
0.00132408
0.00128696
0.00117652
0.00121217
0.00113003
0.00117308
0.000995271
0.00112712
0.000953443
0.000801535
0.000759381
0.000834682
0.000462291
0.000313336
0.000269528
0.00027489
0.000271441
0.000272073
0.000276323
0.000282946
0.0052192
0.00520016
0.0048542
0.00437564
0.0038676
0.00352643
0.00322721
0.00304193
0.00286959
0.00277082
0.0026308
0.00256657
0.00237893
0.00236763
0.00227878
0.00222667
0.0021469
0.00213603
0.00203845
0.0019335
0.00170071
0.00110384
0.000759227
0.000813644
0.000846833
0.000753408
0.000731252
0.000723358
0.000727704
0.000741467
0.000995016
0.00078716
0.000754265
0.000643136
0.000621929
0.000581537
0.000525537
0.000529942
0.000460722
0.000486859
0.000407659
0.000400417
0.000393719
0.000386884
0.000372435
0.00036593
0.00033422
0.000345689
0.000364369
0.000376286
0.000340781
0.000314533
0.000368672
0.000461155
0.000500038
0.000497916
0.000563364
0.00062003
0.000632003
0.000651507
0.00328625
0.000643039
0.000328375
0.000474734
0.000783081
0.00105853
0.0010124
0.000779807
0.000751064
0.000580742
0.000525209
0.000516302
0.000481414
0.000453563
0.000425377
0.000419718
0.00040839
0.000407643
0.000407907
0.000417124
0.000437088
0.000436932
0.000482858
0.000508009
0.000523915
0.000677357
0.000852598
0.000776672
0.00113104
0.00145692
0.000301092
0.000306382
0.000365287
0.000417952
0.000496669
0.00075294
0.000492113
0.000118093
0.00012404
0.000120138
0.000122532
0.000118663
0.000117486
0.000118574
0.000120571
0.000118262
0.000123501
0.000131505
0.000139969
0.000150321
0.000178501
0.000232293
0.000311598
0.000338077
0.000324981
0.000343736
0.000526402
0.00279025
0.00112442
0.000556847
0.00860312
0.00819364
0.00794083
0.00808806
0.00832439
0.00852816
0.0086484
0.00860724
0.00857965
0.00870274
0.00879343
0.00809337
0.00905413
0.00968642
0.0028996
0.0028745
0.00277057
0.00304211
0.00346872
0.00407483
0.00443866
0.0046919
0.00460739
0.00452001
0.00436439
0.00430172
0.00427326
0.00438842
0.00448965
0.00460477
0.00470346
0.00477305
0.00476478
0.00475397
0.00462658
0.00453177
0.0043485
0.0042313
0.00399422
0.00381641
0.00361539
0.00338638
0.00331432
0.00319784
0.0047879
0.00445796
0.00462354
0.00434727
0.00391431
0.00392267
0.00523485
0.00461995
0.00448489
0.00424875
0.004529
0.00461915
0.00488641
0.00492262
0.00501031
0.004974
0.0050272
0.00492969
0.00488707
0.0047959
0.00463624
0.00449675
0.00426147
0.00388921
0.00343705
0.00307092
0.00292823
0.00327496
0.00420311
0.005039
0.00276137
0.00351918
0.00345727
0.0028457
0.00194876
0.00178869
0.00196189
0.00250988
0.00310029
0.00364489
0.00391936
0.00397014
0.00391302
0.00377012
0.00360165
0.00339857
0.00317295
0.00294617
0.00278679
0.00256152
0.00260205
0.00254457
0.00261805
0.00272498
0.00275677
0.00304379
0.00341782
0.0038185
0.00435288
0.00475035
0.00109956
0.00116898
0.00125992
0.00130752
0.00140934
0.00156301
0.00161348
0.00180841
0.00197757
0.00205911
0.00211829
0.00210173
0.00205638
0.00188703
0.0017354
0.00165089
0.00154892
0.00142354
0.00144422
0.00156869
0.00161583
0.00171163
0.00189557
0.00195041
0.00221076
0.00261349
0.00360995
0.0044244
0.00473008
0.00465874
0.00190632
0.00148718
0.00125022
0.00120353
0.00105405
0.000919503
0.000976189
0.000929199
0.000863469
0.00081028
0.000787529
0.00076082
0.000775567
0.000732491
0.000846072
0.000947378
0.000973708
0.00102638
0.00105598
0.00105516
0.00113877
0.00114221
0.00115746
0.00122397
0.00134584
0.00141059
0.00151193
0.00163119
0.00214822
0.00322496
0.00210734
0.00179651
0.00236685
0.00269231
0.00250223
0.00276596
0.00334091
0.00372758
0.003097
0.00216356
0.00177991
0.00161345
0.00151929
0.00149835
0.0014024
0.00135912
0.00126251
0.00128587
0.00146254
0.00177116
0.00235518
0.00325436
0.00336321
0.00291944
0.00265288
0.00257829
0.00271092
0.00296888
0.00324144
0.00363993
0.00280084
0.00216552
0.00163786
0.00151932
0.00142432
0.00123974
0.00106647
0.000986651
0.000883914
0.000837168
0.000792162
0.000806356
0.000773371
0.000841044
0.000832943
0.000820985
0.000919743
0.0010014
0.00109342
0.00116588
0.00118537
0.00123892
0.00124393
0.00129551
0.00148659
0.00180854
0.00192242
0.00173954
0.00162774
0.00187453
0.00152524
0.00195096
0.00243511
0.00263377
0.00277684
0.00276793
0.00282998
0.00263756
0.00271227
0.00253542
0.00241465
0.0024666
0.00227409
0.00227479
0.00221573
0.00217053
0.00201587
0.00186921
0.00144467
0.00114831
0.000915316
0.000853617
0.000718456
0.000505624
0.000459284
0.000484515
0.000461191
0.000380797
0.000324795
0.000283506
0.00471479
0.00320516
0.00238715
0.00208797
0.00188724
0.00178319
0.00167623
0.00162212
0.00153826
0.00161655
0.00173971
0.00183373
0.00191003
0.00195798
0.00206944
0.00217892
0.00225738
0.0023097
0.00229753
0.00210645
0.00186569
0.00129879
0.000849553
0.000734998
0.000764979
0.000657777
0.000603187
0.000589601
0.000620238
0.000650383
0.000895147
0.000552659
0.000569326
0.000585825
0.000617154
0.000643574
0.000748603
0.000794851
0.000689571
0.000845633
0.000893904
0.000905388
0.000833066
0.000775509
0.000745075
0.000668314
0.000546699
0.000460175
0.000434204
0.000382291
0.000370479
0.000336614
0.000327857
0.000404925
0.000534265
0.000553234
0.000629145
0.000654411
0.000660362
0.000679719
0.00082973
0.000365009
0.000472724
0.000695305
0.000866657
0.00072855
0.000550398
0.000379987
0.000375929
0.000342797
0.000309768
0.000285611
0.00027505
0.000265712
0.000279285
0.000324242
0.000369156
0.000387786
0.000443332
0.000462731
0.000454937
0.000441206
0.000381316
0.000362143
0.000363815
0.000469353
0.000557064
0.000816058
0.000933054
0.00343487
0.000402679
0.000831386
0.001912
0.00268804
0.00328961
0.000736247
0.000169974
0.000118964
0.000116462
0.000113465
0.000112108
0.000112929
0.000114272
0.000117022
0.000120754
0.000122408
0.000121849
0.000105446
9.68502e-05
0.000107335
0.00010808
0.000132698
0.000239037
0.000482306
0.000505687
0.00036651
0.000364817
0.000652845
0.00256736
0.00063078
0.00767689
0.00766663
0.00826875
0.00872972
0.00855279
0.00852741
0.00859142
0.00869902
0.00890658
0.00890243
0.00875753
0.00860903
0.00866988
0.00976961
0.0028209
0.00283489
0.00300297
0.00365443
0.00437091
0.00491031
0.00506024
0.00507363
0.00487819
0.00458762
0.00438862
0.00446513
0.00467557
0.00504378
0.00533616
0.00559809
0.00582936
0.0059477
0.00612223
0.00602492
0.00603675
0.00572145
0.00551227
0.00515277
0.00474201
0.00432089
0.00391323
0.00358321
0.0033103
0.00309781
0.00490196
0.0047959
0.00480037
0.00416942
0.00389497
0.00473428
0.00526841
0.00424991
0.00425522
0.00409719
0.00440564
0.00471014
0.00511971
0.00517038
0.00530748
0.00528688
0.00529159
0.0051506
0.0051345
0.00505669
0.00507876
0.00495827
0.00488848
0.00473253
0.0043655
0.0038657
0.00338271
0.00323088
0.00352147
0.00455029
0.00299876
0.00350891
0.00325226
0.00210964
0.00158026
0.0015329
0.00198857
0.00279204
0.00377601
0.00419663
0.00422259
0.00411181
0.00396577
0.00385792
0.0037725
0.00365845
0.00356133
0.00344023
0.0033764
0.0032177
0.00331403
0.00324843
0.0032471
0.00310298
0.00292762
0.00289554
0.00315115
0.00355222
0.00405561
0.00454673
0.001193
0.0011905
0.00129119
0.00140583
0.0016537
0.00202555
0.0024276
0.00278561
0.00311635
0.00333217
0.00341278
0.00346244
0.00338207
0.00317002
0.00303606
0.00269768
0.00245772
0.00222306
0.0020202
0.00198638
0.00183799
0.00194625
0.00205511
0.00212198
0.00227121
0.00242142
0.00282945
0.00340772
0.00410813
0.00434791
0.00182022
0.00138769
0.00120921
0.00105486
0.00101772
0.00100021
0.000988049
0.000951922
0.000811137
0.000860675
0.000800832
0.000778746
0.00083874
0.000991774
0.00116511
0.00119325
0.0012693
0.00131293
0.00136651
0.00134226
0.00122911
0.00125347
0.0012489
0.00134055
0.00136406
0.00143338
0.00149211
0.00153954
0.00186929
0.00259532
0.00188909
0.00180435
0.00216651
0.00193134
0.00207151
0.00336509
0.00370529
0.0022541
0.00150843
0.00139659
0.00150961
0.0015349
0.00172602
0.00170996
0.00156645
0.00144244
0.00138689
0.00128777
0.00116702
0.00118739
0.00131446
0.00172467
0.00279452
0.00347173
0.00282102
0.00247711
0.0025343
0.00284698
0.00322233
0.00350285
0.00189865
0.00146714
0.00136059
0.00124171
0.00101883
0.000755605
0.00060199
0.000632928
0.000589708
0.000631091
0.000717972
0.000746722
0.000815937
0.00081945
0.000846324
0.000853039
0.000874046
0.0010082
0.00106247
0.00112433
0.00118866
0.00117135
0.00118755
0.00118175
0.00127007
0.00146624
0.00179859
0.00194707
0.00181297
0.00176066
0.00349426
0.00411232
0.00436515
0.00439687
0.00437999
0.00429493
0.00422886
0.00410835
0.00402342
0.00376221
0.00374509
0.00355902
0.00356083
0.00361814
0.00358515
0.00375025
0.00361289
0.00340283
0.00276502
0.00190308
0.00128149
0.00100814
0.000855261
0.000739786
0.000664397
0.000754604
0.000810768
0.000642999
0.000444434
0.000308718
0.00305699
0.00210752
0.00183292
0.00159827
0.00142751
0.00128622
0.00125686
0.00130248
0.00128939
0.00138118
0.00148352
0.00167978
0.00184714
0.0020262
0.00217177
0.00229181
0.00239403
0.00246437
0.00244915
0.00239667
0.00207405
0.00164407
0.00104612
0.000729471
0.000678415
0.000614857
0.00056666
0.00055906
0.000606267
0.000656488
0.000679745
0.000529526
0.000612154
0.000756066
0.000850907
0.00115421
0.00134209
0.00163341
0.00204973
0.00219246
0.00248031
0.00240039
0.002426
0.00222262
0.00186481
0.00145704
0.00115413
0.000847661
0.000627274
0.000506678
0.000415592
0.00036164
0.000335297
0.000373492
0.000483464
0.000566084
0.000601863
0.000598323
0.000586525
0.000651613
0.000356083
0.000456861
0.000717633
0.00074259
0.000589998
0.000462577
0.000422006
0.000399604
0.000375355
0.00034294
0.000318789
0.000294013
0.00028473
0.000329285
0.000359195
0.000537556
0.000677072
0.000843093
0.000911604
0.00124655
0.00138584
0.00138779
0.000959809
0.000647968
0.000473896
0.000373258
0.000486891
0.000600157
0.000866476
0.00212013
0.000808191
0.00320084
0.000574925
0.0005794
0.000456944
0.000184927
0.000111519
0.000114746
0.000121569
0.000133589
0.000151881
0.000166301
0.000162314
0.000166727
0.000163064
0.000157713
0.000167757
0.000159228
0.000143599
0.000118764
9.91553e-05
9.59171e-05
0.00012591
0.000380522
0.000919741
0.000654263
0.000406737
0.000480243
0.00331908
0.000667888
0.00752813
0.00815694
0.00864997
0.00816903
0.0081775
0.00845253
0.00851115
0.00849113
0.0085576
0.00890381
0.00879338
0.0087327
0.00849909
0.00974241
0.00271768
0.00294761
0.00344587
0.00427298
0.00489675
0.00496709
0.00502402
0.00513503
0.0049526
0.00452584
0.00446456
0.00473651
0.00520664
0.005612
0.00598276
0.00622202
0.00649833
0.00670575
0.00698403
0.00701549
0.00711287
0.00682652
0.00664365
0.00615737
0.00561944
0.00494479
0.00437115
0.00380241
0.00343105
0.00312952
0.00507514
0.00527473
0.00494696
0.00397435
0.00376079
0.00456966
0.00526246
0.00458583
0.00453314
0.00429299
0.00469337
0.00498943
0.00529203
0.00538335
0.00544189
0.00524937
0.00497355
0.0048849
0.0047201
0.00480251
0.00481288
0.00499367
0.00504526
0.00495604
0.00482311
0.00453513
0.00409131
0.00354426
0.00345463
0.00427952
0.0031164
0.00352046
0.00291634
0.00174961
0.00135131
0.00140381
0.00167982
0.00271117
0.00389282
0.00409884
0.00397228
0.00384037
0.00383867
0.00386182
0.00393033
0.00397111
0.00399653
0.00390095
0.0038131
0.00367757
0.00375217
0.00374252
0.0038875
0.00368787
0.00348602
0.00315534
0.00316387
0.00346273
0.003975
0.00450669
0.0011483
0.00114271
0.00120491
0.00167544
0.00226518
0.00291137
0.00347947
0.00395849
0.00419086
0.00437964
0.00440171
0.0044264
0.00426495
0.0042446
0.00396748
0.0037504
0.00345497
0.00309909
0.00285383
0.00257523
0.00235535
0.00241026
0.00232099
0.00245927
0.0024742
0.00252498
0.00265654
0.00293083
0.00357011
0.0041708
0.00170395
0.00131003
0.00113681
0.00105673
0.00118477
0.00130108
0.00137638
0.00134222
0.00115942
0.000988562
0.000835373
0.000849209
0.00102357
0.00130262
0.00138647
0.00160912
0.00164135
0.0016795
0.00163801
0.00166947
0.0016644
0.00154813
0.00153859
0.00152789
0.0015009
0.00148122
0.00150639
0.00154547
0.0017569
0.00218834
0.00182087
0.00179938
0.00166282
0.00182061
0.00290856
0.0033678
0.00192225
0.0011877
0.00112247
0.00154703
0.00205725
0.00233958
0.00233633
0.00221958
0.00202445
0.00185105
0.00170173
0.00150709
0.00139392
0.00117965
0.00111376
0.0011963
0.00162464
0.00301496
0.00327105
0.00253582
0.00247341
0.00279046
0.0032356
0.00331639
0.00158869
0.00127195
0.00111322
0.00081191
0.000597157
0.000538921
0.000584926
0.000689871
0.000871708
0.000950371
0.00110795
0.00122799
0.00122452
0.00116312
0.00113604
0.0010954
0.0011105
0.00105832
0.00107423
0.0011469
0.00119074
0.00118689
0.00116421
0.00112957
0.00113872
0.0012665
0.00152081
0.00188868
0.00192555
0.0018628
0.00452957
0.00435858
0.00424269
0.00423505
0.00408692
0.00391244
0.00370937
0.00347859
0.00316164
0.00322037
0.00295593
0.00303687
0.00310651
0.00312901
0.00340336
0.00358022
0.00383811
0.00410078
0.0039807
0.00323127
0.00201133
0.00132768
0.0010763
0.000859117
0.000867282
0.000804119
0.00100385
0.000958982
0.00053514
0.000333306
0.00212325
0.00191883
0.0013847
0.00102093
0.000922807
0.00103546
0.00114118
0.00134369
0.00136378
0.0016816
0.00189894
0.00208287
0.00213329
0.0021931
0.0022551
0.00235433
0.00246771
0.00258247
0.00267651
0.00258629
0.00240206
0.0019066
0.0013051
0.000823944
0.00069002
0.000586122
0.000557701
0.000600136
0.000620623
0.000623775
0.000549047
0.000619022
0.000828135
0.00100367
0.00132004
0.00158742
0.0021308
0.00264768
0.0030471
0.00334624
0.00347124
0.00347413
0.00347754
0.00350621
0.00335185
0.00304253
0.00242376
0.0017099
0.00112356
0.00071621
0.000509944
0.000400435
0.000350373
0.000336899
0.000401987
0.000478635
0.000532158
0.000482741
0.000517938
0.000649998
0.000388839
0.000592589
0.000723665
0.000670974
0.000513003
0.000438084
0.000453721
0.000456757
0.000475466
0.000444167
0.000407937
0.000367724
0.000366907
0.000405025
0.000536298
0.000703657
0.000840128
0.000794944
0.00115235
0.00164775
0.00276474
0.00331895
0.00315378
0.00159833
0.000753611
0.000422094
0.000394108
0.000555784
0.000753497
0.00146223
0.00236407
0.000369604
0.000172974
0.00023423
0.000176287
0.000116346
0.000101782
0.000115479
0.00014275
0.000177434
0.000204164
0.000230159
0.000237907
0.000231564
0.000216094
0.000191518
0.000175091
0.000175984
0.000160541
0.000146532
0.000116835
9.11351e-05
9.05495e-05
0.000198377
0.00076716
0.000845078
0.000460483
0.000491176
0.00326824
0.000694977
0.00755864
0.0086577
0.00805898
0.00808385
0.00878354
0.00946399
0.00971813
0.00941639
0.00904507
0.00899148
0.00893736
0.00870869
0.00864603
0.00970085
0.00276406
0.00317057
0.0038961
0.00462502
0.00468876
0.00442831
0.00461366
0.00514821
0.00500992
0.00453023
0.00454214
0.00495849
0.00550363
0.00583054
0.00614768
0.00638392
0.00676499
0.00719225
0.00746302
0.00765126
0.00779853
0.00763457
0.00746688
0.00689307
0.00637538
0.00562595
0.00479217
0.00408735
0.00356935
0.00312939
0.0052764
0.00559672
0.00507049
0.00388278
0.00318091
0.00363507
0.00460396
0.00476688
0.00499673
0.00462389
0.00483186
0.00519339
0.00546241
0.00541094
0.00524154
0.0048701
0.00451276
0.00440179
0.00426335
0.00426959
0.0044235
0.00458461
0.00482884
0.00503446
0.00494335
0.00481282
0.00455532
0.00406343
0.00361766
0.00417203
0.00317483
0.00342206
0.00260657
0.0014964
0.00113119
0.00107951
0.0014417
0.00304539
0.00397676
0.00391604
0.00377873
0.0037361
0.00381124
0.00399038
0.00423703
0.00439348
0.00448265
0.00444593
0.00446443
0.00422398
0.00426332
0.00407084
0.00429633
0.00414872
0.00401147
0.00363176
0.00337004
0.00353523
0.0039314
0.00441129
0.00123643
0.0012402
0.00161061
0.0023791
0.0032861
0.00398456
0.00443328
0.00456212
0.00471346
0.00467961
0.00463887
0.00460458
0.00461895
0.00446518
0.00439874
0.00427898
0.0040439
0.00379366
0.003438
0.00307804
0.00292954
0.00276193
0.00277474
0.00278613
0.00275954
0.00274176
0.00271751
0.0028724
0.00331921
0.00409907
0.00162407
0.00125383
0.00110949
0.00117352
0.00135317
0.00148195
0.00151072
0.00152298
0.00140566
0.00115692
0.000908886
0.00087191
0.00116891
0.00148883
0.00164632
0.00164944
0.00162974
0.00157722
0.00161209
0.00156285
0.00163412
0.00172148
0.00166644
0.00163059
0.00160743
0.00156907
0.00154271
0.00150042
0.00163623
0.0020199
0.00176024
0.00163555
0.00157394
0.00211022
0.00287667
0.00173029
0.00106267
0.00103323
0.00144347
0.0022491
0.00304353
0.002817
0.00231887
0.00213368
0.00191273
0.00177025
0.00163295
0.0015477
0.00141684
0.00134833
0.00106819
0.000991824
0.00127914
0.00195429
0.00353556
0.00272454
0.00251894
0.0028762
0.00325216
0.00326106
0.00142923
0.00110697
0.000807691
0.000521071
0.000478713
0.000602353
0.000840202
0.00117486
0.00157989
0.00157704
0.00160245
0.00151841
0.00137196
0.00126048
0.001116
0.00107784
0.00100285
0.000989627
0.000988121
0.00104005
0.00110283
0.00116217
0.00114575
0.00110349
0.00103804
0.00112523
0.00133865
0.00172329
0.00195968
0.0019144
0.00431624
0.00401035
0.00379677
0.00369405
0.00343104
0.00309577
0.00280439
0.00257526
0.00255892
0.00259717
0.00272079
0.00304211
0.00306588
0.00320108
0.0031714
0.00343121
0.003591
0.00402792
0.00425787
0.00413106
0.00308261
0.0018905
0.00130725
0.00109951
0.000969368
0.00103082
0.00115828
0.00109173
0.000627646
0.000314162
0.00198219
0.00137312
0.000896289
0.0008794
0.000937131
0.00127784
0.00170537
0.00219505
0.00263432
0.00293797
0.00303598
0.00309805
0.00300569
0.00292841
0.00282199
0.00271169
0.00267927
0.00271265
0.00279409
0.00286213
0.00260756
0.00228779
0.00158882
0.000989595
0.000698267
0.000575987
0.000571709
0.0005881
0.00067228
0.000618475
0.000470731
0.000773861
0.000920161
0.00118248
0.00133374
0.00191852
0.00265155
0.00317077
0.00343025
0.00338865
0.00331006
0.00320962
0.00319528
0.00322819
0.00337629
0.00343926
0.00341384
0.00294836
0.00200209
0.00117566
0.000733219
0.000509286
0.000341127
0.000323561
0.000341155
0.000407133
0.000393395
0.000404502
0.000453956
0.000621354
0.000418256
0.000720247
0.000787739
0.000602597
0.000538036
0.000583386
0.000680907
0.000695329
0.000642912
0.000593816
0.000492616
0.000407762
0.00038634
0.000439493
0.000529618
0.000683908
0.000654588
0.000626325
0.000826089
0.00147309
0.0033465
0.00351778
0.00357632
0.00310454
0.00102558
0.000490893
0.00035438
0.000500031
0.000669215
0.00127255
0.00254085
0.000153909
0.000112021
0.000134064
0.000119368
0.000110143
0.000110955
0.000142957
0.000178695
0.000253891
0.000303015
0.000360312
0.000380374
0.000356388
0.000310158
0.000252421
0.000198203
0.000171132
0.000171914
0.000177316
0.00013892
0.000101172
7.72126e-05
0.000117446
0.000525748
0.000854492
0.000585505
0.000586994
0.00329825
0.000674869
0.00762467
0.00866799
0.00786383
0.00854166
0.00955648
0.0102109
0.0101284
0.00971301
0.0094202
0.00916211
0.00886446
0.00855907
0.00850555
0.0096067
0.00283233
0.00341201
0.00422456
0.00459997
0.0041887
0.00387167
0.00426577
0.00513522
0.00508707
0.0045222
0.00461151
0.00505982
0.00558122
0.00582008
0.00610021
0.00637539
0.00691625
0.00738519
0.00781214
0.00806172
0.00818814
0.00805273
0.00794999
0.00737468
0.00697249
0.00605668
0.00521336
0.00437869
0.00364005
0.00325142
0.00543842
0.00568492
0.00521968
0.00354883
0.00275668
0.00261098
0.00268953
0.00355595
0.00501975
0.00482483
0.00503544
0.00536711
0.00551658
0.0053114
0.00486996
0.00459022
0.00426962
0.0042677
0.0040753
0.00395184
0.00394962
0.00414644
0.00455848
0.0048826
0.0049727
0.00485424
0.00470264
0.00433169
0.00380448
0.00419791
0.00318087
0.00342305
0.00243923
0.00130266
0.000956928
0.000881208
0.00145884
0.00353702
0.00392901
0.00371413
0.00367772
0.00366724
0.00372666
0.00396913
0.00425972
0.00450393
0.00471386
0.00473142
0.0048319
0.00462282
0.00456723
0.00443294
0.00453627
0.00444703
0.00440138
0.00402981
0.0037187
0.0037656
0.00407903
0.00452527
0.00129008
0.00127004
0.00220822
0.0034251
0.00429711
0.0046493
0.00459641
0.0047439
0.0046035
0.00473081
0.00458778
0.00470574
0.0045079
0.00458969
0.00449285
0.00441893
0.00433435
0.00411961
0.00371829
0.00354857
0.00315042
0.00313329
0.00310372
0.00312411
0.00309661
0.00297399
0.00293468
0.00294895
0.00335696
0.00405842
0.00154387
0.00122168
0.00112888
0.00124996
0.00134744
0.00134894
0.00138098
0.0015006
0.00138252
0.00129729
0.000943773
0.000930717
0.00128275
0.00163201
0.00164692
0.00162019
0.00155008
0.00155467
0.00159321
0.00164882
0.00160883
0.00163756
0.00168109
0.00168656
0.00168231
0.00162096
0.00155981
0.00154289
0.00160923
0.00188245
0.00171351
0.00152527
0.00160404
0.00202606
0.00174851
0.000932621
0.000864441
0.00109303
0.00208635
0.00325583
0.00315045
0.00248266
0.00214881
0.00193345
0.00173425
0.00153215
0.0014782
0.00146575
0.00143335
0.00133563
0.00110118
0.000970463
0.00110324
0.00170359
0.00351294
0.00284744
0.00270226
0.00303328
0.00330033
0.00321653
0.00127131
0.000943941
0.000524163
0.00042585
0.000555703
0.000865391
0.00130266
0.00176349
0.00184592
0.00179054
0.00150333
0.00133707
0.00107106
0.000853677
0.000776989
0.000705082
0.000755144
0.000803903
0.00078181
0.00088292
0.000975347
0.00106243
0.00110957
0.0010497
0.000970164
0.00102857
0.00119651
0.00157464
0.00197776
0.00195379
0.00355398
0.00340605
0.00316362
0.0029192
0.0025394
0.00225955
0.00214774
0.00232853
0.00245673
0.00311988
0.00361637
0.00402006
0.00409542
0.00413563
0.00402702
0.00380702
0.00384464
0.00383032
0.00423174
0.00440799
0.0038648
0.00256743
0.00167905
0.00128345
0.00116738
0.00116905
0.0012651
0.0012584
0.000681668
0.000321775
0.00182104
0.000923438
0.000782076
0.000962539
0.00140921
0.00197845
0.00293555
0.00332079
0.00356592
0.00350155
0.00356499
0.00341248
0.00341646
0.00322256
0.00314119
0.00306981
0.0029836
0.00292432
0.00293172
0.0029795
0.00290185
0.00255093
0.00181297
0.00116191
0.00079886
0.000664416
0.000588155
0.000631559
0.00065
0.00058788
0.000537824
0.00092839
0.000930208
0.00106495
0.00135751
0.00210388
0.00296089
0.00345009
0.00338549
0.00318512
0.00300146
0.00285227
0.00284748
0.00286047
0.00299918
0.00317327
0.00339542
0.0034732
0.00282464
0.00184646
0.000978145
0.000636756
0.000429169
0.000353641
0.000327661
0.00035459
0.000384911
0.000391285
0.00040372
0.000639243
0.000458818
0.000764399
0.000685911
0.000603624
0.000654104
0.00077956
0.000885708
0.000882431
0.000838217
0.00078462
0.000674766
0.000570112
0.000459643
0.000438438
0.000473278
0.000607795
0.00048103
0.000490092
0.000553479
0.0011271
0.00314007
0.00344179
0.00351954
0.00301634
0.000845246
0.000435858
0.000394604
0.000478774
0.000618315
0.00116934
0.000730676
0.000103051
8.84873e-05
9.8052e-05
9.00091e-05
0.000110373
0.000127927
0.000179004
0.000257817
0.000373865
0.000481565
0.000607945
0.000688927
0.000628437
0.00043508
0.000325403
0.00022899
0.000189983
0.000152638
0.000183633
0.000175063
0.000110879
7.13953e-05
8.91684e-05
0.000291724
0.000914098
0.000665915
0.000802012
0.00286816
0.000676729
0.00767887
0.00839871
0.00786693
0.00872211
0.00943219
0.00962975
0.00976483
0.00925381
0.00878034
0.00892338
0.00864827
0.00854467
0.00857413
0.00968884
0.00293995
0.003651
0.00434418
0.00435302
0.00377921
0.00357591
0.00414203
0.00519247
0.0052254
0.00451489
0.00460577
0.00506252
0.00555722
0.00570688
0.00594762
0.00628811
0.00693373
0.00748833
0.00801075
0.00820614
0.00834933
0.00816665
0.0080581
0.00758457
0.00711295
0.00638173
0.00553906
0.00446362
0.00374141
0.00331451
0.00531291
0.0057828
0.0050279
0.00327554
0.00238868
0.00187698
0.00181053
0.00261081
0.00468003
0.00509197
0.00518951
0.00553871
0.00543257
0.00522797
0.0047161
0.00457883
0.00437135
0.00442957
0.00412087
0.00394159
0.0038147
0.00391313
0.00430872
0.00475342
0.00499406
0.00489904
0.00474309
0.00452162
0.0040158
0.00430061
0.00321325
0.00335607
0.00225001
0.00109249
0.000852516
0.000784557
0.00169178
0.00386496
0.00378167
0.00359242
0.00360666
0.00350656
0.00345637
0.00362678
0.00399564
0.00436656
0.00460791
0.00473985
0.00487704
0.00482133
0.00473145
0.00476105
0.00462798
0.00460958
0.00463649
0.00439149
0.00405141
0.00405025
0.00417005
0.00446954
0.00132495
0.00172062
0.00323201
0.00441586
0.00477134
0.00455609
0.00462775
0.00465513
0.00470835
0.00466434
0.00471854
0.00470609
0.00463239
0.00463318
0.00456733
0.00452242
0.00434211
0.00422668
0.00389995
0.00353792
0.00334795
0.00327578
0.00334619
0.00342048
0.00337762
0.00325829
0.00308946
0.00308645
0.00343893
0.00413059
0.00148068
0.00116623
0.00113734
0.00119451
0.00104582
0.00107557
0.0010351
0.00138801
0.00149745
0.00140749
0.000974934
0.00097809
0.00138014
0.00162791
0.00163512
0.00152698
0.00153132
0.00149482
0.0016807
0.0017077
0.00174316
0.00169146
0.00175533
0.0016925
0.00173886
0.00164446
0.0015755
0.00146973
0.00158314
0.00198598
0.00160114
0.00134495
0.001489
0.00153305
0.000971593
0.000779554
0.000830086
0.00131169
0.00293706
0.00349709
0.00299008
0.00231691
0.00202843
0.00167918
0.00148828
0.00141762
0.00146973
0.00141124
0.00141761
0.00127008
0.00094206
0.000933084
0.000976356
0.00174154
0.00349819
0.00289544
0.00292031
0.00328047
0.00333034
0.00318091
0.00113578
0.000638567
0.000424032
0.000453896
0.000652027
0.00101003
0.0015628
0.001865
0.00191412
0.00165952
0.00133853
0.000921381
0.000692299
0.000571002
0.000476737
0.000505531
0.000466376
0.000539603
0.000670163
0.000784691
0.000811747
0.000952709
0.000993455
0.000965608
0.000860267
0.000919977
0.001102
0.00148994
0.00204112
0.00191286
0.00366826
0.00315614
0.00260153
0.00212447
0.00197769
0.00178171
0.00197711
0.00215803
0.00303257
0.0037625
0.0044573
0.0042789
0.00422773
0.00418196
0.00419362
0.00427447
0.00408392
0.0040201
0.00415839
0.00442151
0.00433492
0.00325157
0.00214958
0.00145895
0.00132461
0.00128933
0.00143396
0.0012803
0.00065279
0.000358227
0.00133783
0.000741899
0.00084178
0.00113738
0.00181409
0.00273118
0.00362817
0.00375669
0.00383605
0.0035207
0.00336196
0.00318686
0.00306563
0.00320286
0.00308867
0.00314521
0.00312851
0.00306026
0.00301177
0.00305294
0.00301854
0.00272145
0.00215314
0.00136014
0.000922455
0.000720085
0.000667816
0.000701211
0.000627207
0.000553896
0.000639078
0.000893609
0.000760364
0.000920742
0.00129352
0.00203373
0.0029528
0.00345705
0.00338491
0.00312943
0.00286559
0.00274194
0.00265431
0.00266686
0.00276605
0.00297906
0.00320387
0.00341551
0.00325963
0.00244418
0.00125645
0.000773435
0.000526506
0.000372896
0.000348466
0.000340846
0.0003536
0.000369032
0.000418371
0.000638115
0.000514863
0.000757656
0.00068726
0.000652271
0.000789693
0.000833543
0.000979319
0.000994548
0.000940869
0.000876708
0.00084362
0.000699646
0.000545465
0.000463575
0.000493825
0.000559039
0.000528378
0.000387468
0.000419488
0.000631323
0.00123626
0.0023417
0.00220613
0.00114688
0.000567259
0.000383996
0.000339698
0.000494003
0.000613415
0.00112345
0.00046379
9.21823e-05
7.52882e-05
9.25529e-05
0.000103339
0.000101438
0.00014881
0.000210017
0.000333927
0.000527188
0.000760955
0.00113712
0.00116729
0.00108767
0.000677923
0.000442381
0.000296254
0.000178449
0.000170222
0.00018157
0.000178131
0.000125183