/*--------------------------------*- C++ -*----------------------------------*\
| =========                 |                                                 |
| \\      /  F ield         | OpenFOAM: The Open Source CFD Toolbox           |
|  \\    /   O peration     | Version:  2.1.1                                 |
|   \\  /    A nd           | Web:      www.OpenFOAM.org                      |
|    \\/     M anipulation  |                                                 |
\*---------------------------------------------------------------------------*/
FoamFile
{
    version     2.0;
    format      ascii;
    class       volScalarField;
    location    "0.005150000";
    object      p;
}
// * * * * * * * * * * * * * * * * * * * * * * * * * * * * * * * * * * * * * //

dimensions      [1 -1 -2 0 0 0 0];

internalField   nonuniform List<scalar> 
12384
(
771252
771249
772742
772852
774041
777015
775809
779587
779349
780407
780796
780460
779946
779748
743296
743348
741360
748220
746386
754539
754011
757705
758049
758271
756028
756782
752363
753629
749263
751121
748521
752629
747326
757690
750244
767167
765168
772436
782913
783477
790655
792668
793644
799277
999671
986487
979261
942731
945118
869689
897324
831351
859469
818258
835046
815843
822885
809059
812901
797404
801849
784663
790075
777028
781671
776188
779782
781142
782097
782810
782723
782837
782432
782974
798570
804113
801325
810347
813902
822012
828865
837400
847556
856483
863530
868175
868803
864465
855822
844032
831398
820364
824657
805254
852648
831018
892563
896242
915308
913923
911441
903331
900120
897356
782783
784938
782634
777927
785540
785369
788290
788770
787637
782243
778841
769768
759762
745968
747429
725326
731539
735104
726165
745617
747838
758734
774276
776135
797103
794764
808067
810794
818138
820438
875244
874988
878045
880669
882889
886901
887499
889621
889653
890164
890682
890603
889848
885110
884395
875411
876245
865524
863959
875887
869840
880627
893765
912019
916814
933167
945209
954828
962109
970847
881906
888059
884947
896954
893222
906570
907232
919724
926682
935205
940030
938969
931853
919612
907635
890839
886560
871797
874168
883788
887347
889239
911818
907984
928582
930603
943403
948572
953626
955402
947684
947530
947333
946604
947290
942829
940534
931009
931740
911394
915598
887957
896833
870658
867122
867797
855948
861542
862506
866930
868335
868116
866751
864377
863315
863168
864295
867131
867688
869280
1.02717e+06
1.0228e+06
1.00947e+06
990930
973211
939515
917397
896997
893927
843007
847667
838043
807401
826046
806725
853539
837878
885775
881903
898890
899657
903502
902753
903321
901889
903882
905386
908247
909587
910755
872906
875318
876103
877094
872620
872993
859879
863787
845043
851164
833853
837577
822906
825949
815617
820469
819068
827066
830811
830446
829236
825105
820140
817425
812557
806404
810010
808363
810406
809762
894313
894395
894586
891946
886629
877813
861598
850836
818413
824558
771902
790140
753035
768106
774114
770992
784266
818601
818732
842589
842432
851532
856740
859733
863960
865833
867825
875449
878445
879261
906409
907642
908657
909851
910734
908141
906679
907198
901311
903183
898602
900179
897037
901388
900649
903121
903041
902769
900311
898407
904856
899719
914784
914290
927585
934777
945460
951937
957360
962352
902639
902051
900152
898499
895462
894099
894146
891938
888262
885385
880474
875078
872838
874524
877948
885913
891422
898489
902739
904393
903802
902720
898583
897419
891729
893614
887552
890231
884219
883568
770738
771094
771984
771976
774413
774372
776935
776477
779038
778870
778955
779113
779003
778794
741741
743984
742803
749211
747366
754614
753950
757762
757394
758264
755358
756696
751541
752878
750071
747886
748796
748989
749768
753482
754766
760599
763433
774789
778141
784976
790558
792634
797891
798181
997016
984557
977978
940414
938419
872957
891900
832649
853303
820698
831915
816878
819649
809775
809578
798312
797604
785181
784107
779879
775297
777793
777354
778846
780453
781415
782030
781972
782036
781847
799107
803143
802112
810091
810659
817808
825808
835069
843268
852738
861117
865022
865110
861581
853159
841144
827285
817630
814071
802121
845366
830370
885043
896399
914463
914389
912865
906106
900890
901348
770964
771648
774855
783096
782172
788583
786304
785819
782289
779836
773352
762207
759180
747091
735416
736282
722572
729660
725678
747063
746917
756715
774516
781825
792993
800941
805634
812167
816016
819810
877782
877852
878916
881203
882317
885706
887614
887786
888264
888750
887536
887375
884014
883438
875333
874792
864382
865406
860450
855636
869970
874387
882403
893017
910091
923580
934512
949984
957926
965586
881218
886911
884107
897043
892430
908450
909254
921748
928940
935899
938263
934911
926251
914079
901475
887301
875385
875861
873157
877143
881727
893192
894425
911805
911729
928178
932404
941489
943985
947292
946927
946233
945944
947210
945229
941224
938268
930586
922786
912890
900307
897975
875440
881162
861478
854442
857452
852164
855709
858580
862880
864398
864620
864422
863233
863281
863843
866058
867740
868842
1.01674e+06
1.01103e+06
1.0014e+06
981285
961803
935341
917108
885336
872698
862962
820458
836911
809813
811475
810981
836729
842369
872963
880727
895463
900842
902675
902198
900955
901738
900813
902129
905068
906720
905963
876590
877375
876480
875899
869642
870200
857772
855017
844964
838803
833933
824145
825266
812943
816817
814529
816134
815955
824160
829405
829267
827093
822322
817499
813507
806464
807347
807025
808439
809077
890314
890352
888901
886278
879367
868836
853851
841254
816188
802135
779671
768410
762349
749976
760682
760047
788292
797533
817904
832819
845839
851572
859803
860101
864828
863858
868023
871248
875660
878120
908122
909607
910207
912255
910650
910798
906109
908137
899902
903105
896919
896657
898215
897153
900502
899246
899421
897530
897260
896153
893357
902357
904527
909482
923745
931424
942460
950641
956339
961100
899676
899037
897634
896309
893444
894063
893329
890746
886455
882154
874839
870954
868688
869317
874360
880792
889019
894694
899711
902172
902313
899831
898188
897994
891490
893610
887738
890088
886356
885624
770584
770359
772283
771189
773453
773506
774484
775646
775056
776521
777731
778085
778272
778320
745295
745899
745288
748703
749722
753837
754834
757438
757370
757763
754815
756004
751295
752591
749615
746894
748490
744808
752331
746966
759507
753957
765758
771168
778177
783816
788659
795805
796278
799948
991013
980858
971619
934908
934858
875364
889005
833948
854974
817909
833160
813771
820116
807576
807978
796065
794779
781831
783792
773241
776145
770299
772586
775831
778065
779528
780253
781127
781233
782303
799519
801054
800399
807368
807707
816192
820523
831307
840605
848806
856944
861620
861391
857248
848352
836061
823640
813141
814565
797687
834858
828669
880359
890543
911032
911276
910055
906778
901703
900111
804329
798069
803528
790659
794425
786402
788596
782056
779021
773544
762508
759301
752219
738401
740182
726627
722583
726562
726005
748039
740583
762095
775777
778119
795989
800686
806101
812341
816392
816482
879637
879122
880207
880247
882390
884085
885511
886152
886378
884741
883506
881294
880105
873394
872650
862180
861887
850865
854059
853735
844908
859938
873320
882298
894903
908277
925692
936789
950749
958271
879263
883233
883070
893834
891016
910319
910190
922403
929845
935511
935670
929452
919018
907515
891678
880120
866401
862859
863507
875831
874676
884875
891462
896288
910497
910930
926049
929960
935532
938891
947147
946018
946981
945090
941519
939590
935039
926010
915445
906981
903542
880653
879198
863811
851323
853701
841044
851856
852506
853230
852883
857438
859033
860371
861882
862505
864852
867139
869156
868763
1.00814e+06
1.00245e+06
989056
968966
952852
925622
908999
881164
861397
853440
822740
826164
797860
813084
800904
834379
831208
861361
873403
886944
891003
897235
897614
898588
897158
901488
900378
901508
902635
903043
880189
878504
878771
875875
871318
864934
850728
853934
831915
835065
818746
824081
809096
813265
801818
804728
811531
813658
813331
820318
824177
822823
820636
817171
813577
808059
808407
805512
809035
807901
883448
882545
882226
877739
869160
858945
840814
828459
799397
797800
761391
767076
742396
750500
754417
751841
782530
776747
813821
822231
837387
847308
854456
859260
861438
865515
866497
872458
874217
876906
911381
911198
912716
912010
912777
911426
905839
907515
899249
901955
894357
896650
895828
895981
894379
895188
893612
891423
888695
887626
892719
890684
903106
903168
918221
926332
936899
945652
952426
956722
896312
896425
895080
894085
893291
890876
889327
884867
881750
874343
869782
865073
863621
865314
868802
874758
883151
890821
895732
899281
898972
898853
898818
896319
891731
894371
888308
890798
886503
885404
769498
770246
769948
771747
770278
772478
771992
772768
773165
772378
772429
773019
773082
773627
744367
746096
747929
748812
752828
752654
755999
756178
757409
756107
755841
753277
753307
748977
750531
745674
746863
744370
750539
745574
756889
752135
766408
768117
777919
781482
792161
793312
798294
804906
985056
975028
961293
930160
933782
873926
891960
836837
851333
821203
830071
813455
817971
806559
803078
797373
784326
785708
771353
774522
766548
770519
771045
770242
771754
773400
775740
777018
779047
780651
796248
798828
799326
802251
804235
814686
817321
826091
836276
845843
851344
855604
855919
850504
841822
830136
819242
805163
800291
794471
827408
823187
876921
880267
906994
909347
908218
908108
909512
909343
791053
793788
789670
801226
789912
794592
782260
783824
769288
768001
755071
751686
737157
740207
725951
720711
723912
720123
733866
740498
740097
771020
766338
789185
792552
804472
808478
814234
820776
820220
880938
880532
880853
880978
879896
883771
882354
883082
881488
880516
878069
875176
870640
869040
859934
857847
846292
847677
835714
841501
847066
835835
850298
867383
879734
895184
909265
927697
936124
950624
879973
878040
884623
885324
893707
902343
913687
921039
929263
932186
929340
920871
910464
892870
878232
864826
864211
864469
863794
859282
876017
873544
883621
890943
895656
908754
908295
916556
917141
919909
939139
939430
938128
938227
936409
934618
925997
916711
907124
905639
880547
879175
864070
847329
850023
831919
842262
831038
831453
838658
845028
847870
852896
857944
860562
861632
866185
868754
868455
870385
976426
972403
964445
956046
934248
915595
893569
878674
842920
850607
812062
807698
802244
792484
807267
814879
826130
851993
861334
876386
886449
888299
894796
892459
895962
895589
899904
897373
897314
900539
878219
878000
876575
876734
870632
863700
847093
843500
825614
820219
817824
802657
806841
790644
799502
790520
792884
806673
810363
809693
816329
819422
819293
819359
815389
813721
811055
811104
807050
810127
882646
882330
876239
867260
857643
843320
826017
808298
792444
772485
758753
734663
742952
723005
735461
743349
765475
772359
799628
810664
834596
837185
853191
856088
859981
863376
871111
869145
871954
883340
914225
914490
914146
914999
911232
911840
904319
902013
900051
893150
894046
893145
891448
891141
890316
888865
887772
886897
884544
883441
881606
887033
892832
899065
909880
919813
930850
939324
945940
950847
896192
895989
893445
893222
890292
888139
885265
880474
874070
867046
860641
854859
852967
854020
860176
865766
875952
883506
891126
893804
896800
898742
895804
894012
893878
893065
889474
891216
887642
887100
768812
768288
768553
767987
769366
766633
768578
767278
769185
770858
771722
773020
773788
774466
748295
748370
749931
750506
753101
753565
755756
755958
756655
755872
755624
752585
753138
748719
749672
744991
746778
746177
746063
745847
754756
749568
767480
762551
776988
785432
787487
795372
804161
800160
977527
965880
949768
938055
912783
881853
887481
837288
852779
824028
827563
813898
818006
801833
801725
794642
780268
778493
768685
765104
767629
763104
762288
768356
770233
772899
774439
777247
778175
779110
796416
795904
798101
802393
799599
810585
815786
823282
831864
840700
848005
848713
847691
843663
834781
824817
813427
797287
804582
785762
825563
818083
870818
873745
897707
906005
906960
906997
904735
902136
831157
830806
827476
804482
808823
790461
790925
772552
772138
758255
747091
739740
737984
724796
718796
721313
716534
726599
730010
732036
754265
762579
776030
788572
798391
807211
812809
818843
818569
823816
881309
880500
880919
879647
879044
880116
879925
877928
877333
873565
872274
869455
865683
858065
855447
844290
842317
827021
827067
814618
823794
840212
837118
844666
863509
878927
897016
910548
922149
928293
871472
875642
874481
884347
887856
901062
909351
921381
924329
926530
921374
913419
895625
878238
866173
859082
840607
835149
837800
857417
857483
875771
872219
881769
886378
890686
904631
909007
914457
919584
939879
938179
939444
937294
934829
926055
914394
905585
904165
880296
878061
864990
845451
848161
826018
832778
814010
815993
820613
827943
831849
842410
845905
857002
856286
863603
868872
868926
869512
871026
977448
964297
956657
935925
919653
900447
884134
860341
848556
823545
802169
806064
787525
796078
783352
818363
809452
845939
849942
865274
873219
887104
884963
893056
889885
892878
894114
898740
896929
894694
881768
883893
881180
874781
870271
863889
845370
834426
812341
819099
792640
799666
779755
790551
780384
784576
779528
782769
801941
809680
811821
815570
819680
814629
812541
809186
811488
808438
813785
810542
868649
868438
866406
859114
844637
830072
807693
798863
767566
761649
729562
738156
712610
724741
730952
726267
760946
762739
782143
806705
823499
833561
850459
851123
862181
868586
867529
877358
882102
876856
916301
915797
916382
914341
909803
910137
897778
897368
889308
889453
889849
885676
888378
886645
885776
883404
881946
877968
875203
872373
875791
877164
888155
891851
903939
911771
924059
931988
937505
941914
889823
889940
890649
888941
888290
884691
882029
873130
868903
856295
852303
847270
844396
844946
850958
858600
866335
876573
883714
890216
895271
893834
892944
894877
893024
891560
889717
891452
889311
888958
767181
767112
766469
766361
765708
767215
764728
766169
763009
763466
764132
763296
764245
764626
748987
748561
751628
751064
754152
753743
756067
755633
757057
755829
756174
753537
753846
749661
749937
745820
746220
745421
744604
744447
751563
749830
765699
760253
782260
777882
790167
802705
800758
813149
968012
951242
951519
921132
911069
896211
867376
850549
851625
826309
828294
817570
813829
806476
792715
795716
774155
777587
763767
760675
759279
759393
763330
760365
763227
764084
767712
768925
770082
772286
791080
791094
794634
798388
802572
802623
814348
820858
828633
837359
840554
841391
840245
837719
829416
818814
809251
797710
799479
787025
815063
821612
866136
866673
896339
900663
912543
911948
916529
919749
833776
823152
824332
828156
804050
808004
779682
786010
755889
762438
735985
743625
719283
725860
718696
714285
720159
725103
722036
750159
746291
769931
779985
791289
802811
811010
820477
821034
825716
822854
879364
880326
879811
878190
877384
876013
874574
873874
871701
870372
866213
862451
857721
853732
846645
837746
830818
819953
810873
812494
801792
807668
827999
835581
852735
866162
886087
898833
915242
923553
873132
871128
878526
874559
891404
892995
908077
912183
919007
912405
904259
893204
881988
864689
853194
827824
827659
832602
843498
839435
858176
858220
874295
873533
885183
886486
889007
894893
895334
896734
920032
920914
920384
922268
913966
909323
901315
902737
878633
878310
864994
846090
847395
823020
826850
806165
819358
819514
817997
823060
825350
835879
845070
852535
855662
867722
868817
869043
871419
871386
907100
910541
903647
906597
896461
888163
861570
864803
822050
824196
798162
790290
775988
779052
782301
793847
814349
825913
839345
865016
861147
876011
886930
884507
890771
889669
888699
889538
892232
888547
886526
885184
883538
878471
869019
860491
847335
835879
806137
803877
789659
777382
782822
764838
769709
775079
785892
784644
786765
796243
808216
817575
816843
825720
826453
824767
818311
820520
813066
816057
873782
868100
862323
848050
835447
817549
798357
783023
752934
748949
727487
712129
714552
699762
721203
716294
752079
744964
793100
786910
818805
839474
839458
856316
866778
871678
878309
881615
882549
891871
915753
916617
914816
912059
908892
897917
894130
885234
879844
885212
876249
881776
878711
881322
881538
882154
878884
876640
873282
874240
873158
874601
885849
887528
897409
908004
915902
925242
929844
932790
890594
891605
889408
889037
885416
882324
877161
866165
857882
847734
838496
833203
835545
836963
837974
850807
860115
866190
878415
885003
888398
889600
893176
892849
890983
892148
890029
891037
889570
889955
764347
763894
763105
760358
758936
758142
758627
758275
762318
762890
763896
766126
767012
767720
750018
750662
752197
752526
753363
754638
755777
755135
756291
755828
755850
753193
753719
748855
749804
746054
745555
742935
746272
742893
753684
747596
764689
761888
781023
777782
800637
796468
812267
818923
942931
952154
927989
921203
909538
886435
867009
868036
842993
838528
825976
825025
809211
811606
791387
795370
772286
777366
758540
759320
757526
756960
755237
759792
762381
766201
767285
771157
771864
773196
791019
792064
791218
794951
802292
801894
810615
817481
827504
832877
838197
842427
840368
831591
824408
815727
803056
800941
803067
787739
806580
835784
858105
868965
892421
907223
906545
913872
913080
912121
861324
857445
845196
835213
827625
798793
792821
778843
764590
751293
740015
736359
721216
719873
715072
717970
713511
726233
733041
741449
758571
771341
782872
796477
806983
818490
821594
826487
830310
827526
876798
875872
876644
874955
872960
871427
870411
868210
867235
863935
861472
858395
854502
844733
843924
828508
831417
806844
814952
805811
809521
799111
822706
818095
848799
855586
875984
888153
893387
892322
863617
868189
866642
878011
879043
894967
896786
906898
905446
906778
895563
883217
866590
854815
835137
834506
830298
824624
824155
846278
839922
862713
861557
874836
874159
885211
884627
891290
900550
905426
927043
927396
926925
917898
912914
901821
900134
876635
874241
866394
845319
849339
821394
826335
803411
812176
795538
793675
797285
813813
813835
834973
835408
849244
861053
867281
868533
871987
872604
871858
930316
922825
913834
897939
891742
863999
868604
833748
832920
801318
799997
773817
771144
772992
774587
789938
796298
831851
823732
855909
864427
866644
881248
887135
885955
889485
891461
886514
886071
891487
890504
890016
887835
882031
873393
858721
847000
843698
805041
804526
768284
780944
757558
770729
757119
750694
762496
777302
794020
792089
811461
811133
824785
821542
821763
822255
826179
819832
822121
819656
868091
864711
858072
843040
826169
811711
784750
776739
742465
747301
709371
718225
704989
701299
723421
709580
752140
747845
784732
790982
823205
830101
845713
865300
868165
876263
880771
884864
890347
888465
914478
913299
911047
910036
896563
890040
881412
872225
875228
861890
870776
868345
874221
874438
876527
874955
875515
871747
870666
868474
871836
870799
887187
885086
894054
903671
911369
914877
919234
920676
886316
885872
886677
885240
885059
877506
874688
857726
852319
843931
832076
830949
819412
825149
826275
841594
858573
857758
870844
880694
883391
889227
890197
889572
889759
891621
889249
891436
890232
889426
758517
759925
760888
761759
760362
758855
757838
755956
752432
753933
753851
753541
754562
754938
753400
753048
753236
753684
754382
754201
756414
756082
757653
757957
757536
757938
756567
755348
752172
750534
751059
748706
744666
746716
753612
747639
767822
762012
780760
787472
793566
808041
822618
812840
938204
923932
925524
921614
895540
892956
876582
864503
846744
848842
832500
826558
817345
811874
796298
795211
777567
770825
767370
758785
758291
756964
755916
759613
760414
762063
764726
764470
765644
765462
780323
784305
789371
789214
796070
802328
807177
813202
821781
829709
831383
831621
831147
828100
821825
810346
800715
801776
799619
797835
806313
850665
857587
877190
897515
915996
927208
928162
930527
935406
881873
874327
864314
847506
826761
825159
782343
794189
754841
766015
732467
742436
718655
724326
714421
720933
719381
736002
729165
754382
759584
777528
784421
801522
813022
818233
827102
832116
829542
826810
872023
876616
876570
873985
870758
868052
865346
864874
864042
861538
858528
856625
852530
844855
844792
826589
829417
803141
806562
796392
798971
795735
819201
818561
843477
853526
870680
882903
894974
901277
867030
867720
874108
870838
884467
884011
897066
894124
892719
878689
876456
864641
854005
842486
831223
819540
816562
818971
821980
844592
838999
858253
865396
867394
874638
885345
886872
892282
897300
904371
914661
913803
908641
905885
900522
895699
880199
882368
864572
854795
848423
831512
822609
808641
806116
789186
795213
798300
800221
809045
814466
832519
831671
853780
862602
863690
869465
872265
871119
869172
884746
879568
875406
877482
860737
867928
838523
839643
808778
811195
777925
784057
767615
774252
762307
795197
786463
819126
829901
835974
862326
866145
874822
882911
887364
883880
885108
881940
880650
881292
909645
899622
893148
886000
877173
863995
853361
842394
816090
802742
769574
776002
751630
751789
757983
759982
763579
773254
790031
803452
801664
822722
823649
837500
842019
841219
831018
829042
819858
820777
885312
874058
856886
840607
821857
802014
779617
777412
737959
742260
711299
708176
696424
695736
717770
719848
759312
749525
784361
803106
822443
835423
859965
870092
880539
889669
896405
895841
898028
900614
912812
909282
910357
899026
887441
888402
862283
863302
848263
856027
858449
864940
866916
875436
876222
879789
878409
876175
869494
869990
872687
879157
883809
889269
892059
901356
906322
912073
915329
919217
884857
887169
886906
885507
880653
878019
869103
856768
842721
840825
818610
827490
822920
828034
824265
829590
851345
858629
861971
877406
880846
885020
884619
887660
888921
890039
888952
891465
888956
890345
759736
754400
751905
751404
749686
749626
750074
752655
754642
754450
756842
758162
757185
757950
745613
739530
749206
749243
753401
754624
755170
754533
756246
756415
758037
757834
759252
757396
757238
755642
754748
750552
748568
748747
751212
749085
753295
752795
770153
761627
787916
781745
803210
817608
818541
846619
852797
857652
897813
903773
913078
902117
898641
895184
872320
875936
857823
852604
840017
836248
823679
817256
807352
794651
790405
771565
771874
756900
759934
755743
759424
757946
764529
762205
765981
766533
763744
767183
754698
756601
779027
778585
784764
791914
789685
796874
806113
808837
816173
821831
830364
831240
828880
824172
815255
808560
805287
797195
810656
806050
820017
856948
867809
891648
909277
919588
924938
935752
937087
934051
932918
923959
912654
901347
874185
866335
827515
829451
790749
788341
766200
763996
737830
737293
733866
717884
725243
716905
725975
729138
741555
762761
760113
785242
788336
810060
810528
824732
831457
830640
832904
825654
827332
780190
850363
862381
871621
871217
868461
866019
863458
862783
861691
860469
856864
853680
854251
846424
842170
834069
824567
809977
805657
800215
799667
803033
819132
821947
849609
851419
869524
877548
879566
868362
865851
816575
863416
866761
864883
875686
874986
886123
883921
891420
883066
884758
868014
854463
848622
841194
823658
826958
822474
824796
819429
846201
837185
859527
861260
866397
877770
884445
887508
894929
903767
909239
906746
904797
917362
915241
910708
902874
897657
883139
885616
866488
855943
856216
832110
836367
808095
814939
793167
796769
797915
802253
795135
812012
816236
824170
837545
856501
857927
867008
873835
874972
876045
875458
876808
885495
894844
887926
885766
864413
868020
843083
844731
818993
819409
792689
790777
766944
773154
774445
771404
791476
788281
818349
829572
832509
862649
860205
876085
879275
884141
886911
885031
885091
884303
886097
884112
889213
890859
890948
890404
885664
877486
876022
860559
847929
815382
822821
769015
783471
747958
753299
758433
751016
775572
771935
795482
802496
812201
819490
834675
837849
840178
842628
849748
841349
840257
833111
833596
826528
844241
844535
841173
832516
815666
800857
786602
779616
757202
755706
742584
733288
733063
735145
737957
721809
757862
764504
802594
811804
832661
853183
869862
880058
889683
895097
901648
905452
901764
900030
909851
891981
902293
907503
900132
891382
889439
865574
854452
850959
841507
849429
850515
857221
861373
872826
878279
876542
875629
878815
882133
881506
880497
883122
886713
886161
897877
898368
903871
903194
902266
898800
895292
885584
887709
885031
885704
883365
879213
876115
862196
858231
837222
838606
817904
822633
814019
821565
822794
832108
840743
858796
860168
872556
878839
880930
884640
886920
886269
887718
889162
888538
887846
888609
887333
888464
749889
754817
755215
752690
752592
750933
748640
745669
746319
746899
747831
747972
749219
749406
750306
744372
754405
751155
751831
752033
754274
753755
756545
757312
758262
760584
760434
761510
761426
760493
759363
759768
757460
755158
755332
755406
760089
755764
770861
770000
781138
798447
799609
820004
837745
838230
857737
867963
887445
903800
896920
898134
898165
885804
884844
876493
863329
862377
849588
842635
835440
825072
815961
804718
793697
784698
775434
768929
764306
763530
762875
765891
762174
768574
765471
767605
767028
769131
758208
765431
773433
775335
778804
782426
791523
789397
797489
805385
807586
812784
816981
817428
818875
819960
811820
812357
806486
810142
808936
819533
843389
856087
890791
905983
929086
942947
953789
955415
954706
955844
938796
940285
918158
909269
873596
876030
826253
839056
789819
800894
761489
775235
745452
746220
729840
738639
722430
733599
729649
743738
744539
766189
765742
793260
787927
810591
812665
827762
826722
835392
838563
833901
834048
831333
865039
862624
873172
870681
868097
864638
865040
862437
861145
859134
859456
860560
854832
849786
844199
841833
828056
817698
816332
808996
809429
810067
828251
827843
853155
855261
873585
878501
883912
882526
865718
850927
864887
863384
870206
869736
879130
879003
885165
879003
881423
864338
865385
846267
851794
834566
833332
824406
826214
823202
831971
840040
840316
862213
856151
873962
878012
885184
892468
902646
906911
912050
907831
912136
911052
907913
903318
898790
891273
882046
873760
867000
851686
851861
831951
831190
810740
815449
800780
797084
791710
801518
805818
820481
812946
828976
849165
851347
860422
871043
873859
874245
874451
870885
870415
876342
860859
863003
858272
865691
849318
851158
828923
830984
803384
808518
780314
780880
765075
775302
771461
797905
800610
822821
825436
845444
854125
860727
872464
881398
881985
883294
884347
882016
880207
878374
877663
883736
887726
887725
890130
889248
886949
874523
872662
856517
837212
823104
791676
778879
762355
757142
751080
771529
768715
788362
802186
805258
822963
844018
848626
855118
857838
857595
849502
849378
836913
837547
829627
834456
842711
838296
836411
827082
815731
806193
788269
776952
755779
749804
730446
733332
718991
716762
724189
749277
774789
783875
818685
824660
849915
866944
880053
891165
901593
906023
905894
907799
910746
907920
909725
901230
905844
904241
898425
893277
881549
859573
854758
840198
839841
841962
847871
852383
864566
880324
884113
878652
878999
880827
881371
884592
884067
884530
886480
893890
895623
901042
900673
904677
902901
899985
888803
888613
880792
884264
882206
881079
878270
873220
861217
861342
837013
839516
816595
825243
812209
821403
818354
838002
836420
853920
862816
868347
877655
878552
882662
883147
884392
887177
886157
887994
887946
888836
887033
886915
745956
743415
743429
742334
741296
742450
742325
746920
746150
747843
749431
751220
751299
751038
746475
748570
752862
752857
752699
753170
754009
754473
756362
756488
759193
760251
762325
762882
763686
763290
762837
760806
760108
758502
757635
759439
763140
762093
770601
784060
777373
807986
801355
816320
836184
846956
843976
869998
879861
877755
892399
897863
887452
890140
883453
876542
875867
865007
858728
852294
842423
836146
825543
813437
806038
789344
786908
774984
772000
767112
767091
766783
770567
769196
772454
769884
769977
770339
760524
762115
771198
774370
776963
778562
779502
789986
788130
797362
805646
807619
811150
821547
819380
813230
813069
812103
811030
804247
827331
823365
849487
877635
899839
927537
943896
959966
964866
966250
965725
962528
942561
938061
916845
914674
870194
883486
821729
841807
790030
809205
774111
772497
767445
755106
751594
735737
746383
735017
745503
749434
752611
773420
768666
795845
788732
811662
812010
819900
827480
835695
834300
835346
849932
848017
866153
875263
876285
870352
870789
867390
864756
865462
863375
860946
864327
862134
859759
855967
849638
842762
840370
831576
822893
825250
821504
822603
835377
839228
853912
861104
873528
878917
877507
876048
873395
860045
868396
867369
869063
874216
874831
880327
878814
881948
872762
868735
860870
849184
849449
834838
839009
827079
829364
825591
838928
834099
847921
859096
857759
878871
877077
891738
898513
906627
911856
919095
909157
911032
912273
901571
899860
891770
891497
876792
879288
863471
850855
854166
830666
835310
811607
811686
813785
814800
814050
808949
815172
817380
818566
846080
847656
852667
868622
873505
872903
874097
873146
870197
865907
870299
871929
867610
867982
854498
856935
842067
840440
823680
812510
809021
796678
784843
788417
790862
784978
813466
803487
835109
824474
852701
849261
864881
872516
876388
881774
880542
880163
880041
877631
872812
873249
876283
881530
883997
885980
890714
891567
900687
889786
881917
850915
839318
802906
796120
766636
769277
774423
766278
787379
798740
806971
822913
844914
845563
852005
859470
864732
860686
857435
846116
845542
834572
832199
830599
835455
831965
828378
824990
820173
815520
810274
805597
798810
788302
781658
769724
771163
770542
777108
778915
788316
812060
829233
839984
868573
877559
890484
901657
907497
911812
913295
912005
912206
911088
910835
904694
912133
906377
901069
893078
883557
860338
854504
834784
834342
830631
844107
859150
877053
880252
882437
889763
892377
888302
884998
884131
886015
889342
892305
895341
897963
899193
900900
898671