/*--------------------------------*- C++ -*----------------------------------*\
| =========                 |                                                 |
| \\      /  F ield         | OpenFOAM: The Open Source CFD Toolbox           |
|  \\    /   O peration     | Version:  2.1.1                                 |
|   \\  /    A nd           | Web:      www.OpenFOAM.org                      |
|    \\/     M anipulation  |                                                 |
\*---------------------------------------------------------------------------*/
FoamFile
{
    version     2.0;
    format      ascii;
    class       volScalarField;
    location    "0.005150000";
    object      T;
}
// * * * * * * * * * * * * * * * * * * * * * * * * * * * * * * * * * * * * * //

dimensions      [0 0 0 1 0 0 0];

internalField   nonuniform List<scalar> 
12384
(
3043
3049.85
3041.7
3037.61
3035.09
3036.13
3036.42
3040.7
3044.08
3050.48
3051.34
3041.97
3034.81
2888.39
2686.18
2711.36
2708
2707.56
2706.86
2719.3
2728.04
2743.53
2748.13
2752.28
2745.48
2740.97
2732.57
2729.44
2722.64
2721.99
2716.83
2718.17
2709.89
2713.5
2703.32
2708.61
2702.52
2702.55
2705.48
2702.79
2715.31
2681.77
2591.32
2586.15
3062.6
3046.21
3043.21
3026.84
3019.48
2957.25
2967.45
2936.61
2942.05
2910.58
2917.16
2911.12
2919.06
2917.97
2924.95
2924.04
2928.06
2920.23
2922.05
2915
2916.04
2911.27
2912.93
2912.86
2913.6
2915.71
2922.1
2940.71
2842.09
2797.64
2860.05
2861.64
2840.36
2849.19
2866.66
2875.65
2886.1
2898.85
2914.17
2927.51
2937.76
2942.43
2942.75
2938.79
2930.44
2919.71
2908.52
2897.3
2894.4
2882.31
2898.43
2891.14
2909.96
2915.21
2918.92
2915.06
2914.2
2914.59
2905.85
2901.02
2828.47
2825.96
2820.97
2817.97
2823.97
2827.75
2832.44
2834.11
2833.57
2829.76
2826.38
2818.75
2810.88
2800.56
2799.83
2784.01
2786.79
2787.21
2782.26
2793.75
2797.07
2802.02
2812.03
2817.23
2829.48
2818.48
2742.83
2706.78
2720.34
2734.65
2838.6
2798.15
2800.25
2801.75
2798.96
2797.57
2794.14
2792.08
2788.91
2788.44
2785.13
2783.35
2777.73
2772.29
2767.06
2759.88
2759.39
2752.92
2753.96
2762.37
2762.67
2770.61
2780.15
2791.99
2796.45
2808.52
2819.16
2838.81
2894.18
2914.32
2759.08
2770.93
2762.11
2763.68
2772.77
2782.87
2782.67
2781.46
2779.46
2790.46
2808.41
2825.66
2825.09
2819.49
2815.25
2805.28
2800.12
2775.36
2753.34
2724.2
2690.28
2653.66
2636.93
2608.89
2612.07
2616.86
2647.45
2698.32
2756.04
2768.72
2681.81
2684.55
2741.34
2792.28
2806.69
2806.19
2808.17
2803.59
2805.89
2797.64
2799.86
2787.3
2795.5
2781.45
2786.49
2786.21
2786
2788
2788.83
2790.84
2791.28
2792
2793.59
2807.15
2825.66
2797.26
2766.03
2762.31
2776.66
2789.69
2976.24
2941.07
2924.94
2917.65
2910.48
2896.35
2887.37
2878.69
2878.88
2852.92
2855.76
2849.74
2830.71
2839.51
2825.95
2843.52
2828.53
2835.22
2810.13
2793.03
2794.91
2791.85
2695.47
2632.74
2625.31
2633.11
2642.36
2652.31
2664.27
2670.93
2851.78
2867.64
2890.72
2911.77
2911.75
2914.16
2907.24
2911.71
2901.88
2905.57
2895.99
2896.68
2889.51
2890.59
2884.95
2889.24
2887.92
2891.46
2892.64
2884.77
2870.77
2823.6
2775.17
2770.07
2768.83
2761.79
2761.89
2760.71
2762.6
2762.89
2859.62
2853.81
2838.69
2829.29
2819.94
2813.72
2803.13
2800.17
2778.66
2787.98
2750.09
2762.98
2731.39
2740.47
2739.11
2736.9
2740.06
2756.76
2751.16
2754.75
2739.49
2728.33
2747.81
2772.59
2775.73
2786.1
2804.47
2819.17
2827.27
2827.48
2802.28
2812.88
2769.43
2826.19
2894.66
2908.75
2913.55
2894.88
2884.16
2857.51
2848.61
2836.7
2826.83
2823.64
2816.48
2814.32
2811.37
2811.04
2811.66
2813.35
2819.8
2819.02
2831.71
2838.73
2857.96
2880.09
2906.68
2915.24
2934.17
2557.72
2189.29
2200.2
2236.08
2264.56
2295.15
2393.32
2838.29
2635.36
2640.73
2637.12
2632.11
2628.66
2627.63
2628.24
2629.72
2634.46
2638.74
2645.52
2653.94
2665.52
2692.57
2734.19
2778.24
2782.98
2777.58
2788.71
2838.53
2937.17
2475.27
2307.24
2978.87
2952.98
2942.16
2952.32
2974.07
2989.76
2996.64
2993.7
2991.47
3002.1
3036.41
3050.87
3037.46
2963.75
2681.62
2704
2699.23
2713.56
2735.9
2779.66
2816.27
2839.33
2827.78
2811.1
2783.55
2768.87
2761.26
2765.73
2770.7
2777.78
2783.96
2787.37
2786.19
2783.21
2773.74
2765.23
2750.84
2738.99
2723.62
2712.27
2714.52
2704.05
2654.42
2599.59
3057.74
3039.72
3044.05
3023.09
3001.99
2958.03
2934.01
2818.71
2793.36
2773.39
2797.84
2818.89
2851.3
2875.25
2897.11
2907.29
2919.23
2919.53
2925.41
2923.77
2921.97
2924.02
2925.94
2929.19
2921.74
2918.07
2919.98
2930.7
2940.37
2919.28
2859.97
2854.54
2842.12
2864.16
2868.39
2877.02
2901.18
2929.51
2955.46
2964.42
2967.91
2965.3
2958.23
2949.93
2938.45
2925.89
2913.33
2904.94
2898.52
2890.7
2905.78
2902.7
2915.42
2922.61
2923.08
2921.5
2916.13
2915.31
2911.97
2908.85
2824.3
2815.26
2814.78
2822.62
2835.52
2848.88
2852.28
2847.5
2840.72
2836.58
2830.05
2820.78
2817.94
2809.74
2801.44
2799.87
2788.13
2793.35
2784.9
2795.58
2795.93
2799.7
2810.91
2817.53
2823.59
2828.74
2815.96
2775.15
2752.81
2769.22
2826.9
2798.72
2801.29
2798.78
2795.17
2795.07
2791.61
2791.42
2787.29
2783.41
2773.42
2760.6
2743.7
2732.42
2721.33
2721.11
2718.18
2722.4
2724.27
2723.37
2732.68
2738.81
2748.16
2760.91
2778.15
2794.53
2806.7
2827.14
2862.67
2903.87
2766.88
2768.23
2768.48
2786.61
2802.59
2819.13
2816.85
2816.45
2834.76
2844.33
2838.99
2834.09
2828.23
2818.75
2811.49
2801.49
2795.68
2795.59
2795.81
2806.18
2808.51
2794.09
2714.03
2641.04
2589.42
2586.49
2606.91
2659.67
2730.9
2768.17
2798.54
2793.4
2799.39
2812.81
2815.91
2806.74
2790.19
2772.08
2759.62
2750.57
2746.4
2750.79
2744.36
2757.13
2755.26
2765.39
2777.58
2786.69
2797.27
2802.84
2804.91
2800.74
2795.09
2796.71
2813.59
2820.24
2811.36
2785.45
2767.44
2777.38
2887.71
2922.04
2943.4
2951.23
2952.2
2947.5
2940.36
2924.62
2921.25
2913.44
2894.4
2900.34
2886.02
2887
2886.16
2896.4
2894.32
2892.68
2869.48
2835.54
2809.36
2807.54
2768.94
2707.94
2692.88
2698.59
2692.6
2674.39
2652.84
2646.26
2902.86
2915.43
2917.83
2915.57
2911.33
2909.31
2902.22
2899.92
2899.18
2897.01
2893.04
2890.85
2891.43
2887.13
2889.18
2889.25
2891.99
2890.65
2893.3
2893.49
2883
2852.11
2791.02
2768.66
2762.78
2754.22
2753.74
2755.5
2759.56
2761.4
2857.8
2828.67
2818.18
2824.35
2834.4
2846.87
2855.7
2860.14
2857.81
2852.27
2838.53
2831.48
2819.58
2808.95
2804.88
2793.93
2793.46
2783.57
2777.11
2767.43
2755.69
2738.9
2739.85
2765
2785.27
2800.75
2824.79
2834.02
2837.41
2840.8
2824.86
2782.28
2820.21
2888.29
2901.86
2879.17
2846.87
2816.03
2793.44
2784.07
2770.96
2764.37
2761.07
2758.64
2763.58
2773.6
2791.27
2809.14
2821.87
2827.07
2824.97
2821.87
2809.05
2804.23
2814.45
2831.59
2870.72
2900.85
2922.9
2920.58
2245.54
2409.36
2640.54
2758.61
2869.63
2894.11
2685.29
2632.79
2630.65
2625.86
2624.14
2625.16
2626.74
2629.54
2632.45
2633.36
2632.22
2627.45
2620.05
2612.72
2614.21
2645.71
2736.89
2834.07
2837.36
2795.39
2789.57
2865.58
2741.08
2334.43
2919.48
2923.01
2965.52
3018.63
3041.81
3050.33
3052.83
3051.68
3042.2
3015.53
3005.54
3040.38
3047.36
2991.65
2678.01
2697.73
2709.62
2751.46
2819.61
2890.54
2917.04
2908.44
2866.08
2817.4
2778.13
2774.66
2786.79
2811.08
2830.58
2847.56
2861.47
2867.9
2876.72
2870.08
2868.11
2847.6
2830.48
2804.62
2774.68
2741.87
2721.87
2716.93
2691.5
2629.59
3047.22
3034.42
3040.9
3015.99
2993.35
2952.5
2876.83
2776.87
2768.01
2754.16
2781.45
2823.76
2872.53
2905.01
2930.85
2940.4
2947.33
2946.28
2947.27
2939.89
2935.17
2925.72
2921.87
2924.49
2926.68
2930.79
2924.09
2925.43
2933.91
2943.05
2858.96
2843.33
2851.11
2864.84
2860.93
2880.51
2905.02
2935.19
2953.68
2959.3
2954.28
2942.38
2929.56
2916.92
2904.97
2894.73
2885.14
2878.3
2875.81
2870.59
2885.64
2890.65
2912.67
2922.97
2930.88
2927.04
2918.48
2913.29
2916.6
2911.01
2837.96
2828.61
2830.86
2843.32
2862.26
2851.58
2841.9
2828.39
2819.35
2811.65
2803.1
2800.81
2797.41
2791.5
2794.12
2788.19
2788.04
2791.13
2788.54
2801.03
2795.94
2805.64
2813.48
2811.58
2822.86
2826.77
2829.83
2827.61
2808.38
2792.25
2820.82
2799.97
2802.97
2802.59
2804.82
2809.69
2810.83
2809.08
2799.72
2782.48
2760.46
2737.99
2720.86
2718.27
2723.5
2733.16
2743.36
2746.73
2752.02
2753.54
2746.76
2749.48
2753.06
2755.78
2766.22
2780.68
2797.34
2813.59
2844.25
2888.18
2765.01
2774.36
2783.71
2813.04
2822.28
2825.13
2823.05
2848.25
2823.49
2822.32
2826.19
2830.34
2826.15
2820.72
2811.82
2800.78
2787.78
2780.07
2775.86
2779.2
2787.73
2806.82
2814.06
2727.75
2619.77
2567.34
2582.22
2628.04
2712.43
2767.08
2793.31
2795
2812.28
2809.41
2773.76
2736.71
2716.37
2709.98
2713.87
2725.51
2741.91
2746.53
2762.08
2765
2770.09
2780.58
2783.84
2799.55
2810.61
2817.25
2817.9
2815.19
2804.3
2795.03
2798.3
2814.86
2825.25
2819.89
2791.52
2778.16
2986.92
2990.78
2988.58
2979.66
2971.98
2960.55
2953.72
2939.26
2931.19
2928.81
2915.92
2916.28
2903.1
2908.88
2904.11
2917.45
2920.87
2928.5
2926.76
2899.59
2850.51
2822.52
2808.94
2772.68
2756.68
2777.99
2787.26
2757.25
2694.61
2652.3
2912.98
2915.8
2914.09
2905.83
2893.22
2882.6
2873.78
2875.45
2867.58
2873.27
2869.54
2874
2867.37
2872.23
2868.42
2874.2
2883.55
2890.69
2893.71
2894.83
2893.74
2872.08
2820.04
2773.93
2760.65
2752.52
2752.68
2756.22
2763.78
2762.36
2837.27
2812.4
2833.39
2862.71
2888.34
2902.74
2911.84
2913.62
2902.07
2902.03
2883.54
2883.11
2868.91
2869.72
2866.6
2862.39
2857.39
2834.31
2825.4
2799.13
2777.22
2753.47
2739.22
2749.85
2779.41
2804.03
2818.92
2824.33
2825.36
2837.47
2804.51
2815.88
2877.33
2899.19
2869.35
2830.38
2809.19
2802.77
2794.66
2786.32
2772.58
2765.78
2763.89
2774.8
2801.79
2839.04
2872.15
2896.07
2916.15
2935.34
2947.57
2947.52
2924.63
2877.94
2836.58
2816.22
2835.63
2876.49
2905.34
2969.9
2416.94
2905.29
2844.65
2847.88
2819.73
2697.11
2627.03
2626.98
2631.42
2641.25
2658.05
2671.58
2680.19
2682.58
2680.93
2678.25
2674.49
2667.79
2654.22
2630.92
2602.86
2597.85
2640.44
2795.86
2909
2869.53
2805.12
2825.56
2882.09
2353.56
2910.19
2951.11
3031.24
3052.84
3054.1
3057.84
3058.07
3057.93
3059.21
3045.02
3010.7
3021.49
3049.86
3004.23
2675.11
2701.15
2740.27
2814.45
2911.91
2963.81
2969.45
2939.6
2876.17
2807.35
2776.78
2791.33
2823.34
2850.92
2875.32
2890.78
2905.43
2917.12
2929.68
2930.17
2932.05
2916.6
2903.12
2869.02
2832.37
2784.54
2746.06
2725.21
2707.76
2652.61
3038.65
3030.23
3035.95
3009.92
2986.56
2951.5
2897.71
2814.93
2795.09
2771.43
2805.5
2854.93
2909.48
2940.67
2962.56
2964.05
2956.27
2954.9
2946.04
2948.11
2942.9
2940.65
2930.51
2918.68
2915.34
2921.29
2929.28
2927.65
2930.4
2948.3
2858.35
2836.52
2858.25
2855.6
2849.63
2863.52
2885.63
2930.98
2945.7
2944.59
2928.75
2913.32
2901.57
2894.2
2889.03
2883.95
2878.46
2870.69
2866.31
2862.02
2873.34
2878.19
2902.18
2912.67
2926.63
2927
2920.82
2916.45
2918.32
2916.61
2835.67
2824.68
2831.44
2868.53
2850.99
2835.41
2813.86
2804.3
2790.97
2787
2780.04
2778.62
2773.57
2777.95
2772.2
2774.35
2779.97
2781.56
2792.79
2798.51
2796.77
2813.6
2809.55
2818.5
2817.63
2824.18
2828.73
2834.9
2833.13
2813.77
2818.16
2802.83
2808.25
2814.01
2822.23
2832.97
2830.16
2824.15
2807.09
2784.46
2754.98
2729.08
2718.92
2733.79
2758.93
2782.96
2796.31
2809.49
2811.2
2813.71
2814.05
2795.6
2788.01
2780.75
2778.23
2783.31
2792.5
2807.55
2831.08
2874.99
2766.86
2777.75
2804.77
2816.93
2822.5
2826.74
2830.66
2808.57
2812.01
2829.48
2839.12
2842.56
2837.94
2824.88
2814.41
2805.94
2800.32
2795.32
2784.73
2774
2773.53
2781.73
2805.59
2814.5
2682.92
2580.82
2566.92
2616.6
2703.7
2762.8
2789.03
2801.79
2799.44
2741.99
2692.87
2682.3
2699.03
2733.48
2771.56
2810.33
2822.95
2839.55
2835.31
2832.17
2830.16
2822.22
2824.5
2817.69
2817.83
2823.46
2826.72
2824.39
2815.84
2802.28
2793.52
2800.28
2821.46
2833.95
2814.71
2785.62
2994.33
2986.39
2977.37
2970.53
2961.18
2953.05
2944.3
2937.83
2923.72
2928.14
2911.63
2911.77
2909.57
2905.78
2915.52
2917.85
2925.18
2928.37
2938.61
2935.64
2906.39
2857.21
2831.7
2810.64
2797.58
2812.28
2831.14
2813.44
2734.28
2662.73
2908.69
2918.35
2895.36
2869.25
2859.35
2855.98
2857.95
2865.64
2872.11
2872.87
2872.15
2864.69
2866.6
2855.08
2861.7
2857.08
2862.17
2877.43
2888.12
2893.38
2895.37
2889.08
2849.02
2794.38
2765.24
2757.36
2757.05
2763.23
2767.7
2765.59
2813.96
2833.75
2871.77
2897.42
2910.87
2919.35
2918.97
2918.22
2905.75
2881.29
2864.1
2841.77
2848.5
2839.81
2855.04
2875.59
2886.09
2882.38
2869.34
2841.01
2812.22
2773
2748.63
2740.07
2759.79
2788.49
2804.43
2800.86
2807
2838.12
2794.11
2856.24
2898.12
2879.72
2844.44
2836.7
2837.66
2839.44
2834.7
2817.22
2803.34
2791.21
2789.09
2805.5
2839.82
2875.67
2894.96
2907.49
2927.57
2963.57
2979.58
2966
2978.65
2972.23
2892.67
2825.51
2820.97
2853.75
2889.27
2953.83
2699.52
2796.11
2693.34
2727.92
2690.63
2626.58
2624.54
2634.4
2654.84
2682.98
2708.72
2721.94
2725.49
2721.79
2713.49
2701.4
2693.91
2688.36
2682.81
2667.39
2632.29
2592.45
2591.63
2702.38
2889.93
2898.04
2833.97
2831.76
2910.45
2359.95
2911.24
2995.65
3048.72
3051.98
3059.19
3053.8
3049.93
3050.29
3055.08
3051.31
3024.23
3014.15
3050.9
3012.78
2677.41
2717.44
2779.22
2878.39
2969.13
2993.44
2994.27
2966.63
2884.85
2806.09
2785.98
2810.28
2844.69
2867.81
2888.56
2905.01
2926.64
2947.73
2963.55
2970.26
2972.87
2960.9
2946.44
2915.28
2878.77
2828.87
2770.58
2738.25
2720.08
2662.2
3030.89
3011.44
3028.98
3008.65
2970.98
2947.53
2951.31
2902.83
2855.52
2801.57
2828.3
2886.38
2940.04
2963.57
2969.89
2957.26
2939.74
2932.93
2927.14
2928.83
2936.63
2937.26
2936.03
2927.36
2913.99
2911.26
2919.48
2930.46
2930.96
2946.12
2857.77
2834.37
2854.52
2844.21
2830.4
2834.35
2867
2927.85
2940.95
2925.97
2905.8
2894.15
2891.44
2891.06
2884.86
2874.72
2865.31
2856.06
2859.68
2853.55
2870.37
2873.89
2894.57
2902.69
2917.48
2923.24
2921.36
2917.58
2916.66
2915
2851.04
2846.47
2866.56
2859.71
2836.17
2807.79
2796.54
2781.78
2780.16
2773.05
2771.2
2769.9
2772.23
2767.09
2766.45
2769.2
2770.16
2779.82
2787.85
2792.08
2807.16
2812.12
2816.46
2820.22
2821.16
2822.68
2827.74
2834.69
2836.5
2826.8
2815.51
2806.27
2815.66
2828.03
2840.15
2844.1
2839.54
2828.17
2811.94
2786.47
2754.08
2729.52
2734.04
2767.7
2802.25
2820.59
2831.82
2830.77
2835.77
2832.03
2836.55
2843.07
2828.64
2812.36
2800.17
2794.62
2796.77
2803.93
2822.54
2862.6
2762.83
2779.75
2803.02
2825.28
2825.02
2821.86
2796.43
2792.77
2822.59
2847.64
2833.05
2834.85
2834.42
2817.31
2809.9
2802.23
2789.8
2782.06
2780.16
2778.47
2766.16
2770.69
2784.03
2816.9
2746.88
2601.27
2577.2
2629.78
2716.68
2766.11
2789.89
2794.15
2738.4
2671.99
2665.46
2702.16
2765.6
2829.13
2872.32
2883.51
2890.11
2876.84
2861.83
2852.25
2834.58
2831.01
2818.64
2817.12
2820.19
2822.26
2824.76
2828.17
2822.46
2810.48
2792
2791.44
2810.52
2835.23
2827.29
2793.02
2992.35
2976.39
2966.3
2955.83
2947.97
2940.92
2935.08
2926.43
2928
2918.7
2914.21
2918.49
2912.93
2917.19
2910.55
2925.92
2923.06
2937.56
2930.7
2938.65
2934.22
2900.7
2856.88
2836.39
2823.48
2830.45
2847.98
2844.72
2757.9
2669.09
2914.5
2897.72
2853.69
2843.86
2854.88
2868.66
2885.01
2885.35
2885.67
2890.87
2876.8
2878.17
2866.09
2873.78
2865.57
2863.04
2855.45
2857.77
2875.93
2889.78
2897.87
2894.52
2872.34
2817.16
2774.67
2760.02
2759.83
2767.01
2775.46
2769.57
2801.23
2863.4
2891.03
2899.4
2910.88
2915.23
2920.24
2904.16
2862.62
2835.96
2800.49
2792.12
2773.51
2782.97
2800.95
2819.71
2870
2895.46
2892.24
2880.27
2845.4
2799.48
2766.13
2739.09
2746.25
2766.76
2778.78
2785.28
2800.4
2829.76
2808.04
2877.4
2891.05
2862.76
2852.46
2865.65
2875.72
2878.53
2869.31
2856.51
2838.32
2816.62
2806.53
2814.24
2843.83
2866.59
2867.39
2863.52
2890.72
2955.91
2955.93
2898.47
2910.36
2979.6
2930.43
2834.01
2812.21
2839.99
2877
2938.16
2925.45
2667.6
2626.04
2654.45
2634.11
2614.78
2629.88
2654.6
2694.52
2733.38
2766.13
2784.76
2791.62
2783.41
2760.71
2730.41
2702.94
2690.81
2687.26
2687.98
2664.96
2604.39
2574.75
2633.29
2838.86
2900.27
2853.51
2851.59
2877.97
2354.43
2914.87
3025.36
3049.22
3056.23
3046.36
3033.25
3016.93
3006.43
3028.38
3040.33
3017.89
3004.02
3044.34
3010.44
2682.37
2735.39
2813.16
2920.87
2984.3
2987.57
2988.93
2982.89
2895.05
2808.58
2792.26
2819.19
2851.07
2869.98
2888.24
2910
2937.38
2961.9
2978.09
2985.68
2989.8
2981.03
2972
2939.49
2912.04
2856.64
2798.44
2753.87
2725.44
2677.48
3014.83
2995.74
3026.46
2994.67
2950.27
2932.76
2926.29
2929.15
2899.37
2830.21
2851.2
2913.25
2963.52
2973.86
2956.03
2937.37
2911.77
2911.22
2906.33
2912.19
2915.68
2928.12
2935.62
2931.26
2916.26
2902.76
2905.49
2918.32
2930.63
2944.63
2855.28
2829.09
2853.24
2836.48
2818.26
2813.56
2862.93
2930.44
2932.59
2905.92
2890.1
2889.03
2890.94
2893.26
2880.83
2865.91
2850.7
2839.74
2842.93
2845.46
2859.88
2867.82
2885.67
2892.09
2912.75
2919.5
2925.37
2920.5
2922.02
2922.64
2859.57
2851.03
2876.51
2844.43
2809.94
2799.39
2781.46
2782.34
2769.95
2774.89
2767.75
2775.32
2766.98
2774.18
2770.56
2769.01
2773.15
2778.67
2781.79
2801.91
2804.99
2817.29
2822.52
2823.42
2823.73
2823.63
2827.57
2832.32
2840.19
2830.33
2813.01
2810.37
2824.04
2841.08
2852.21
2854.11
2844.82
2830.12
2815.51
2791.04
2754.55
2732.32
2750.68
2792.88
2821.43
2828.97
2831.16
2833.1
2836.65
2842.3
2838.29
2839.4
2847.88
2836.52
2823.87
2809.61
2805.72
2803.15
2820.65
2855.69
2763.25
2783.49
2809.06
2825.94
2819.76
2786.6
2771.38
2795.22
2836.73
2824.53
2824.51
2834.22
2823.32
2811.15
2800.25
2783.6
2782.09
2782.13
2784.49
2773.39
2767.14
2755.73
2773.18
2803.72
2776.37
2620.17
2598.06
2661
2730.62
2758.76
2784.72
2759.84
2666.05
2643.33
2681.64
2760.58
2837.32
2891.7
2899.3
2903.69
2887.63
2858.71
2832.98
2796.41
2782.22
2767.06
2781.69
2792.22
2801.88
2811.83
2818.23
2822.87
2823.73
2812.03
2791.83
2787.02
2800
2833.4
2834.07
2796.73
2958.3
2950.23
2938.68
2935.72
2930.84
2923.91
2912.7
2924.29
2918.69
2929.35
2925.63
2913.6
2898.75
2899.39
2911.13
2923.34
2933.95
2932.99
2934.2
2934.24
2940.66
2928.79
2890.99
2856.24
2844.84
2846.15
2860.06
2854.22
2767.66
2674.86
2917.78
2857.57
2837.37
2849
2876.54
2892.63
2905.09
2900.09
2885.42
2879.71
2874.62
2868.76
2873.4
2861.8
2863.05
2862.28
2866.64
2862.66
2861.18
2869.72
2891.19
2901.85
2889.82
2846.32
2800.03
2777.54
2771.82
2780.43
2779.92
2773.13
2816.06
2881.62
2884.72
2888.83
2904.65
2911.18
2915.4
2881.75
2830.49
2798.82
2766.48
2739.59
2739.06
2730.28
2756.22
2775.42
2826.47
2856.78
2915.69
2895.8
2873.51
2832.94
2781.99
2752
2745.52
2752.52
2763.61
2770.21
2791.38
2837.16
2820.2
2884.17
2880.34
2864.85
2875.82
2895.33
2911.74
2910.58
2904.58
2895.79
2870.56
2847.69
2821.26
2813.49
2835.04
2854.82
2842.73
2825.91
2855.43
2927.68
2961.54
2883.34
2901.22
2979.3
2917.51
2821.3
2802.7
2835.38
2869.24
2928.95
2864.73
2616.95
2591.05
2614.21
2608.99
2616.41
2642.42
2682.88
2735.52
2789.86
2832.2
2864.07
2879.79
2867.71
2829.85
2779.35
2725.67
2689.52
2683.4
2691.37
2683.88
2620.94
2568.29
2590.78
2766.1
2905.46
2876.92
2887.39
2782.09
2345.02
2917.86
3030.95
3048.74
3047.26
3030.75
3010.16
2994.87
2977.68
2979.58
3006.15
2997.94
2999.89
3042.72
3013.09
2688.83
2759.13
2844.42
2944.89
2978.17
2971.86
2977.79
2993.11
2911.68
2813.65
2794.28
2819.82
2850.4
2864.39
2883.05
2907.1
2935.58
2959.49
2977.69
2984.55
2991.17
2982.34
2976.13
2949.08
2924.24
2875.05
2819.35
2757.63
2733.76
2685.93
2996.5
2990.95
3012.5
2990.25
2934.85
2900.52
2892.44
2924.11
2918.2
2858.1
2867.59
2936.21
2970.19
2973.15
2939.77
2917.83
2892.16
2895.72
2893.69
2907.1
2907.45
2914.16
2927.05
2929.32
2919.93
2904.05
2899.08
2914.09
2930.28
2944.86
2854.1
2831.26
2849.11
2826.15
2806.79
2805.68
2868.45
2932.47
2921.77
2890.37
2887.27
2892.46
2894.34
2891.49
2884.49
2865.21
2840.96
2829.14
2828.71
2829.38
2846.7
2867.18
2877.13
2886.14
2903.06
2921.34
2921.36
2922.13
2923.01
2921.45
2870.16
2882.31
2864.32
2826.77
2807.08
2787.71
2783.22
2776.34
2773.31
2770.36
2773.11
2776.1
2775.51
2776.87
2775.85
2776.4
2773.56
2781.04
2790.13
2799.51
2814.03
2822.07
2825.85
2827.7
2825.72
2824.48
2824.29
2833.18
2844.73
2831.57
2813.11
2812.17
2832.14
2852.62
2867.31
2864.58
2851.28
2828.85
2814.74
2793.78
2756.04
2736.36
2764.42
2803.46
2826.58
2822.81
2830.58
2828.32
2847.75
2850.17
2853.45
2844.87
2855
2842.21
2838.89
2821.53
2808.83
2803.28
2813.51
2845.26
2762.16
2788.06
2807.8
2812.43
2782.16
2752.55
2755.97
2810.86
2825.84
2817.27
2823.27
2829.94
2812.49
2798.75
2777.56
2774.27
2776.73
2769.24
2772.88
2771.16
2756.47
2751.12
2763.68
2803.46
2752.75
2635.44
2640.85
2706.4
2760.61
2766.01
2779.12
2713.17
2639.68
2650.54
2715.78
2795.72
2875.04
2893.24
2903.12
2891.09
2855.52
2813.23
2760.03
2738.65
2717.41
2720.37
2718.79
2736.74
2765.35
2789.55
2804.68
2816.84
2815.13
2805.31
2791.57
2779.97
2793.42
2837.63
2837.32
2797.24
2968.77
2950.7
2936.25
2919.26
2909.24
2894.79
2908.02
2910.45
2930.98
2927.54
2907.86
2863.37
2845.12
2837.92
2855.91
2894.7
2919.68
2940.41
2933.36
2931.86
2940.16
2934.57
2914.27
2881.78
2862.02
2862.89
2876.57
2856.35
2758.65
2689.75
2902.5
2836.27
2840.33
2867.27
2901.72
2903.25
2912.41
2902.1
2892.51
2886.5
2879.71
2884.85
2876.91
2885.3
2870.38
2853.99
2851.11
2856.82
2862.03
2861.66
2883.7
2902.6
2899.9
2861.62
2814.88
2789.49
2785.48
2789.73
2786.02
2777.61
2838.25
2876.68
2872.17
2877.33
2893.15
2905.91
2906.62
2877.69
2822.54
2790.43
2743.52
2733.42
2718.1
2718.63
2738.56
2752.33
2799.54
2837.39
2892.61
2911.6
2898.16
2852.16
2806.89
2773.85
2749.86
2750.04
2754.8
2763.64
2794.86
2837.66
2831.95
2886.64
2875.87
2876.28
2895.98
2924.23
2935.21
2936.97
2938.38
2919.03
2904.4
2874.72
2843.99
2818.55
2825.48
2847.49
2832.57
2799.31
2809.51
2862.52
2933.77
2967.3
2972.21
2931.38
2849.46
2798.08
2801.34
2834.26
2866.86
2924.26
2822.05
2592.11
2573.02
2592.64
2605.39
2621.86
2658.55
2710.78
2777.18
2847.64
2903.19
2950.5
2963.12
2944.29
2893.39
2829.96
2757.51
2693.58
2675.99
2689.18
2688.53
2638.08
2560.36
2565.74
2717.17
2912.19
2914.96
2942.71
2650.66
2311.92
2915.45
3028.7
3048.59
3039.22
3016.05
2992.22
2980.33
2972.86
2948.12
2954.67
2967.91
2989.16
3040.79
3007.07
2700.27
2776.27
2859.48
2951.2
2967.56
2950.83
2965.78
2993.27
2929.58
2820.01
2793.7
2819.16
2849.06
2860.93
2874.14
2896.81
2924.75
2949.23
2961.86
2966.56
2971.61
2967.95
2963.52
2941.98
2922.63
2885.12
2817.72
2762.72
2739.03
2685.75
2991.88
2970.41
3007.62
2987.6
2922.34
2892.06
2878.76
2907.17
2932.8
2877.27
2884.64
2950.49
2977.91
2967.2
2932.11
2906.4
2882.12
2887.06
2895.82
2905.84
2905.58
2911.99
2921.93
2925.85
2915.33
2897.98
2893.85
2909.17
2926.83
2942.89
2848.79
2825.99
2849.59
2820.44
2798.59
2806.17
2881.08
2934.37
2908.5
2885.74
2887.21
2888.3
2889.6
2889.72
2888.72
2870.18
2842.62
2826.13
2817.1
2819.99
2837.58
2867.27
2873.7
2885.23
2900.99
2922.05
2931.13
2929.44
2929.76
2927.67
2887.77
2899.16
2849.57
2819.09
2803.2
2795.79
2778.04
2781.23
2768.25
2777.08
2771.07
2781.92
2777.81
2781.88
2779.4
2779.9
2780.83
2792.74
2793.8
2811.64
2817.8
2826.94
2826.63
2828.26
2824.71
2821.2
2824.36
2835.82
2843.84
2827.61
2808.2
2817.29
2841.06
2865.76
2881.91
2879.69
2855.33
2827.66
2814.16
2799.38
2758.61
2740.27
2770.74
2808.57
2825.08
2819.8
2827.77
2827.4
2847.84
2854.07
2856.88
2852.53
2860.48
2850.35
2843.63
2823.38
2807.82
2804.97
2822.31
2844.06
2761.53
2793.07
2807.82
2782.75
2743.31
2730.77
2758.75
2815.02
2812.47
2798.32
2815.88
2819.72
2805.58
2785.54
2762.52
2753.08
2754.17
2759.66
2759.44
2755.53
2741.72
2749.14
2775.45
2809.39
2705.72
2656.09
2693.34
2750.98
2775.45
2766.09
2762.06
2657.84
2626.27
2656.17
2718.42
2796.29
2868.1
2896.3
2895.69
2875.47
2828.38
2764.64
2725.61
2702.68
2700.91
2692.75
2702.02
2719.87
2750.38
2768.69
2794.77
2805.4
2805.21
2795.85
2781.14
2768.81
2793.27
2849.22
2831.57
2796.98
2947.02
2930.63
2908.66
2891.35
2879.06
2885.05
2886.37
2914.7
2924.41
2923.51
2871.12
2844.81
2818.37
2817.37
2822.97
2879.9
2908.35
2927.11
2940.25
2920.22
2936.85
2938.8
2931.61
2896.22
2881.82
2878.1
2889.28
2845.52
2763.99
2742.46
2881.19
2838.76
2848.52
2876.25
2908.28
2912.58
2917.59
2904.39
2905.67
2887.22
2888.23
2874.01
2870.62
2865.73
2875.24
2864.43
2853.07
2851.17
2856.9
2866.55
2873.48
2910.88
2904.45
2878.96
2838.92
2812.71
2801.12
2799.8
2790.7
2786.15
2866
2870.9
2855.36
2861.84
2875.73
2891.84
2897.8
2889.05
2834.34
2798.7
2748.38
2726.59
2717.75
2712.36
2738.17
2761.53
2807.61
2835.07
2886.8
2926.55
2912.05
2873.78
2833.42
2792.64
2765.1
2756.76
2761.74
2768.73
2804.94
2849.97
2840.52
2886.15
2879.39
2883.95
2915.39
2946.78
2953.2
2964.32
2954.61
2945.17
2923.49
2900.43
2869.52
2835.35
2821.25
2849.8
2844.94
2794.63
2774.2
2788.46
2816.98
2843.91
2848.04
2825.39
2793.4
2788.07
2808.83
2840.68
2873.65
2927.25
2820.95
2588.04
2566.89
2584.34
2603.17
2629.29
2669.37
2734.07
2803.88
2889.49
2947.21
3005.96
3015.34
2997.72
2932.15
2857.23
2775.84
2702.42
2669.38
2685.37
2687.66
2644.02
2549.1
2546.67
2679.59
2929.76
2948.36
2880.16
2475.3
2301.9
2909.19
3022.24
3041.01
3026.47
2997.62
2967.47
2954.18
2963.62
2956.18
2937.21
2953.96
3011.85
3030.76
3007.11
2982.36
2819.64
2713.12
2807.39
2881.39
2945.39
2947.43
2936.12
2954.97
2989.59
2948.88
2832.02
2789.71
2813.18
2845.07
2852.39
2861.46
2878.95
2902.14
2926.92
2943.23
2941.32
2939.13
2939.73
2942.31
2928.5
2917.28
2875.6
2812.15
2763.15
2729.17
2748.95
2924.57
2957.98
2969.82
2970.02
2991.41
2973.76
2925.81
2895.08
2876.58
2910.43
2942.76
2888.66
2897.65
2961.16
2983.42
2968.82
2936.31
2899.94
2882.25
2880.96
2895.4
2901.76
2911.36
2914.69
2918.77
2915.53
2905.11
2891.32
2891.25
2908.92
2924.77
2943.48
2946.5
2906.43
2848.7
2826.89
2845.41
2817.2
2789.96
2803.37
2892.87
2933.61
2896.59
2880.64
2886.57
2889.55
2888.77
2887.62
2884.59
2877.3
2853.46
2826.73
2822.62
2822.7
2840.25
2865.17
2873.49
2888.87
2904.45
2919.31
2927.44
2931.18
2930.95
2935.92
2951.08
2932.74
2912.19
2875.68
2835.56
2821.49
2801.25
2797.51
2780.85
2777.06
2771.46
2775.13
2771.66
2780.43
2783.8
2782.01
2786.19
2785.3
2790.99
2796.34
2806.51
2819.62
2818.48
2827.98
2823.03
2824.79
2816.83
2818.85
2826.56
2839.71
2845.82
2829.79
2829.74
2794.27
2798.13
2814.74
2847.15
2875.31
2890.92
2890.93
2858.61
2824.96
2813.2
2803.36
2761.37
2740.62
2773.01
2807.72
2820.65
2820.06
2821.66
2826.45
2843.26
2852.83
2859.55
2857.92
2861.02
2846.07
2836.34
2812.83
2807.9
2811.57
2827.76
2825.27
2778.33
2757.28
2772.17
2791.22
2782.56
2745.89
2717.97
2722.23
2761.62
2816.11
2800.02
2786.41
2807.03
2807.79
2810.03
2786.53
2755.57
2746.13
2740.12
2741.22
2734.01
2744.38
2741.83
2768.56
2806.56
2765.51
2680.39
2688.09
2738.56
2783.29
2786.2
2771.18
2803.81
2777.83
2701.33
2635.06
2633.83
2648.1
2698.43
2771.43
2854.3
2878.32
2885.52
2864.42
2810.55
2754.47
2707.82
2699.44
2689.39
2699.81
2709.41
2724.21
2739.04
2763.17
2784.7
2786.1
2790.47
2777.18
2761.07
2765.15
2815.47
2852.55
2831.56
2882.96
2949.61
2951.31
2935.34
2924.69
2904.33
2874.97
2870.86
2863.12
2881.96
2901.79
2927.45
2910.32
2876.14
2837.17
2831.55
2839.14
2852.94
2891.77
2909.06
2923.52
2933.46
2917.3
2937.86
2938.01
2937.48
2905.26
2897.58
2902.21
2860.44
2807.84
2847.47
2876.1
2861.85
2842.37
2837.92
2834.51
2846.61
2871.34
2907.47
2919.41
2924.29
2912.35
2905.2
2899.13
2878.98
2867.87
2853.28
2850.27
2857.44
2847.71
2854.59
2846.63
2857.53
2865.8
2882.28
2910.68
2911.1
2883.79
2844.4
2820.84
2813.46
2805.45
2825.69
2838.28
2840.88
2833.83
2841.01
2829.75
2828.76
2835.67
2850.37
2872.56
2889.54
2903.68
2870.96
2832.68
2799.46
2767.43
2765.81
2763.67
2769.82
2775.36
2817.79
2851.06
2903.09
2934.2
2921.96
2890.83
2850.13
2809.35
2779.7
2764.83
2768.42
2780.5
2821.51
2855.32
2842.04
2832.23
2844.13
2887.52
2879.04
2892.68
2934.94
2955.11
2980.06
2996.74
2992.61
2970.54
2938.24
2912.18
2889.26
2856.57
2822.03
2844.28
2867.18
2817.72
2778.95
2769.81
2769.6
2771.67
2772.42
2770.89
2778.63
2792.41
2815.82
2840.72
2879.84
2943.78
2575.73
2556.16
2892.86
2597.9
2565.79
2579.34
2601.84
2631.24
2671.66
2741.67
2814.18
2901.96
2964
3015.93
3019.99
3002.92
2936.77
2862.52
2771.41
2700.57
2665.88
2681.32
2685.31
2637.37
2537.18
2528.92
2658.8
2931.62
2845.17
2685.12
2538.93
2732.35
2495.5
2458.61
2888.62
3002.35
3034.02
3021.41
2990.68
2958.71
2939.34
2944.71
2967.18
2952.14
2947.55
3003.95
3030.08
3012.22
3001.97
2881.98
2744.29
2816.13
2876.15
2918.33
2924.37
2915.99
2945.54
2984.27
2966.14
2853.03
2787.14
2807.15
2842.48
2846.69
2848.63
2858.77
2879.81
2902.88
2924.9
2932.97
2932.24
2926.75
2929.26
2923.55
2899.69
2859.75
2788.94
2752.64
2752.94
2824.06
2932.95
2954.87
2959.77
2973.88
2980.49
2971.76
2944.4
2913.38
2905.65
2920.31
2945.34
2897.09
2906.63
2966.11
2992.26
2978.06
2948.33
2912.3
2884.52
2879.95
2886.74
2902.03
2906.83
2910.02
2905.3
2898.55
2888.91
2888.88
2895.12
2917.71
2933.92
2949.19
2918.57
2884.96
2849.87
2827.78
2843.98
2811.93
2795.03
2807.89
2894.77
2933.85
2890.32
2878.12
2881.78
2883.59
2886.75
2887.68
2884.75
2886.09
2860.6
2840.47
2825.04
2827.19
2843.04
2858.96
2880.72
2894.77
2912.17
2924.48
2934.05
2946.31
2952.13
2965.17
2940.1
2932.32
2895.22
2856.97
2835.1
2824.34
2802.16
2802.14
2781.96
2782.06
2768.22
2776.7
2771.4
2778.54
2779.48
2787.63
2787.69
2794.44
2795.94
2805.13
2806.18
2815.84
2812.44
2819.12
2809.29
2812.16
2809.63
2820.31
2830.37
2845.73
2847.45
2833.6
2827.97
2804
2807.56
2822.21
2855.03
2880.97
2892.59
2888.47
2855.06
2820.73
2812.86
2809
2768.09
2742.35
2770.39
2804.2
2817.19
2820.28
2817.74
2820.38
2833.28
2841.97
2848.36
2847.46
2844.17
2826.66
2820.53
2808.81
2814.31
2819.09
2811.6
2793.08
2777.1
2770.67
2777.16
2776.44
2751.16
2718.57
2714.46
2716.24
2756.82
2809.06
2790.22
2765.38
2791.35
2798.31
2805.25
2801.28
2781.07
2758.49
2747.97
2742.58
2747.67
2760.12
2778.85
2810.24
2769.3
2701.38
2692.47
2728.33
2768.51
2791.82
2787.33
2781.42
2794.29
2740.5
2662.75
2644.92
2638.78
2634.11
2665.07
2730.53
2816.46
2863.75
2877.48
2865.54
2817.31
2762.3
2712.87
2697.43
2689.73
2696.33
2705.22
2724.82
2739.8
2758.8
2763.77
2764.52
2766.2
2748.7
2751.1
2785.56
2841.16
2849.95
2858.21
2927.02
2941.01
2916.05
2882.88
2898.66
2889.74
2875.11
2857.66
2859.4
2864.49
2892.49
2914.93
2927.19
2883.78
2859.32
2845.4
2856.78
2873.91
2899.5
2910.15
2918.65
2920.03
2924.08
2937.52
2938.63
2938.22
2917.73
2906.23
2870.51
2846.29
2866.84
2879.72
2860.53
2847.51
2847.54
2851.8
2846.15
2841.99
2861.83
2894.17
2915
2930.91
2923.14
2916.97
2902.95
2886.75
2861.92
2851.66
2840.16
2837.19
2849.13
2843.91
2853.46
2864.78
2872.68
2898.54
2925.84
2917.5
2884.92
2849.66
2825.27
2810.63
2820.24
2834.85
2842.69
2836.73
2833.44
2833.31