/*--------------------------------*- C++ -*----------------------------------*\
| =========                 |                                                 |
| \\      /  F ield         | OpenFOAM: The Open Source CFD Toolbox           |
|  \\    /   O peration     | Version:  2.1.1                                 |
|   \\  /    A nd           | Web:      www.OpenFOAM.org                      |
|    \\/     M anipulation  |                                                 |
\*---------------------------------------------------------------------------*/
FoamFile
{
    version     2.0;
    format      ascii;
    class       volScalarField;
    location    "0.000800000";
    object      c;
}
// * * * * * * * * * * * * * * * * * * * * * * * * * * * * * * * * * * * * * //

dimensions      [0 0 0 0 0 0 0];

internalField   nonuniform List<scalar> 
12384
(
0.00817796
0.00290938
0.000504354
2.00266e-05
5.68976e-07
1.48895e-08
3.18149e-10
5.18974e-12
8.08277e-14
1.25693e-15
2.04972e-17
2.95134e-19
3.76186e-21
4.19952e-23
5.46438e-36
1.5227e-36
2.77309e-38
2.16335e-40
1.4845e-42
8.85853e-45
4.83275e-47
2.47883e-49
1.21721e-51
5.76258e-54
2.61367e-56
1.13837e-58
4.70734e-61
1.86205e-63
7.14392e-66
2.66796e-68
1.0178e-70
3.92157e-73
1.56439e-75
6.30916e-78
2.545e-80
1.01348e-82
3.96686e-85
1.51766e-87
5.74114e-90
2.11841e-92
7.85886e-95
2.87222e-97
1.06614e-99
4.02662e-102
6.29295e-110
1.35269e-111
5.56546e-114
2.07956e-116
7.67151e-119
2.94827e-121
1.23285e-123
5.88011e-126
3.2076e-128
1.93177e-130
1.21188e-132
7.56844e-135
4.62034e-137
2.72647e-139
1.56091e-141
8.69776e-144
4.74413e-146
2.54714e-148
1.35167e-150
7.09799e-153
3.7095e-155
1.92623e-157
1.00001e-159
5.18676e-162
2.68548e-164
5.86164e-167
6.00336e-171
1.11328e-173
5.2536e-176
1.54007e-179
7.78418e-193
1.38105e-190
4.73703e-193
8.19021e-196
1.04536e-198
1.07625e-201
9.52125e-205
7.6278e-208
5.64238e-211
3.93759e-214
2.62874e-217
1.71582e-220
1.12832e-223
7.82492e-227
5.47459e-230
3.28051e-233
1.52962e-236
6.15122e-240
2.28665e-243
8.31788e-247
2.9912e-250
1.08677e-253
3.96026e-257
1.45116e-260
5.34281e-264
1.97754e-267
7.26252e-271
2.70042e-274
9.97166e-278
8.26545e-282
4.05577e-304
5.59841e-302
1.20937e-304
1.36025e-307
1.14681e-310
8.00868e-314
4.97341e-317
2.72082e-320
0
0
0
0
0
0
0
0
0
0
0
0
0
0
0
0
0
0
0
0
0
0
0
0
0
0
0
0
0
0
0
0
0
0
0
0
0
0
0
0
0
0
0
0
0
0
0
0
0
0
0
0
0
0
0
0
0
0
0
0
0
0
0
0
0
0
0
0
0
0
0
0
0
0
0
0
0
0
0
0
0
0
0
0
0
0
0
0
0
0
0
0
0
0
0
0
0
0
0
0
0
0
0
0
0
0
0
0
0
0
0
0
0
0
0
0
0
0
0
0
0
0
0
0
0
0
0
0
0
0
0
0
0
0
0
0
0
0
0
0
0
0
0
0
0
0
0
0
0
0
0
0
0
0
0
0
0
0
0
0
0
0
0
0
0
0
0
0
0
0
0
0
0
0
0
0
0
0
0
0
0
0
0
0
0
0
0
0
0
0
0
0
0
0
0
0
0
0
0
0
0
0
0
0
0
0
0
0
0
0
0
0
0
0
0
0
0
0
0
0
0
0
0
0
0
0
0
0
0
0
0
0
0
0
0
0
0
0
0
0
0
0
0
0
0
0
0
0
0
0
0
0
0
0
0
0
0
0
0
0
0
0
0.105108
0.0560423
0.0131776
0.000573259
2.22351e-05
6.17147e-07
1.90249e-08
1.78331e-10
1.30826e-12
1.10435e-14
1.08176e-16
1.22208e-18
1.41073e-20
1.40968e-22
1.09516e-33
3.15856e-34
6.51883e-36
4.84795e-38
3.18607e-40
1.76254e-42
8.92084e-45
4.22674e-47
1.97806e-49
8.94609e-52
3.90911e-54
1.68439e-56
6.80064e-59
2.65481e-61
9.87418e-64
3.61183e-66
1.35207e-68
5.36069e-71
2.23406e-73
9.49802e-76
3.96729e-78
1.61121e-80
6.31413e-83
2.40909e-85
8.86904e-88
3.17922e-90
1.15154e-92
4.00215e-95
1.42143e-97
4.95169e-100
2.21772e-107
4.63726e-109
1.49169e-111
4.90035e-114
1.67482e-116
6.0065e-119
2.23512e-121
8.76004e-124
3.67279e-126
1.68306e-128
8.53604e-131
4.65909e-133
2.66988e-135
1.54544e-137
8.90545e-140
5.08447e-142
2.86225e-144
1.60482e-146
8.90269e-149
4.94615e-151
2.73471e-153
1.52399e-155
8.51401e-158
4.82299e-160
2.75253e-162
1.57997e-164
8.03371e-168
2.57429e-170
1.31281e-172
6.34944e-176
1.17483e-188
7.4682e-187
2.63529e-189
4.74904e-192
6.2274e-195
6.49683e-198
5.79882e-201
4.62546e-204
3.40237e-207
2.34395e-210
1.54123e-213
9.79143e-217
6.19587e-220
4.00561e-223
2.62521e-226
1.57303e-229
7.95202e-233
3.43408e-236
1.35464e-239
5.13822e-243
1.92846e-246
7.22611e-250
2.71746e-253
1.0189e-256
3.82113e-260
1.42724e-263
5.26912e-267
1.93653e-270
7.09213e-274
9.67969e-278
1.04147e-299
5.0183e-298
1.0623e-300
1.20128e-303
1.01739e-306
7.0612e-310
4.34964e-313
2.41984e-316
1.23798e-319
0
0
0
0
0
0
0
0
0
0
0
0
0
0
0
0
0
0
0
0
0
0
0
0
0
0
0
0
0
0
0
0
0
0
0
0
0
0
0
0
0
0
0
0
0
0
0
0
0
0
0
0
0
0
0
0
0
0
0
0
0
0
0
0
0
0
0
0
0
0
0
0
0
0
0
0
0
0
0
0
0
0
0
0
0
0
0
0
0
0
0
0
0
0
0
0
0
0
0
0
0
0
0
0
0
0
0
0
0
0
0
0
0
0
0
0
0
0
0
0
0
0
0
0
0
0
0
0
0
0
0
0
0
0
0
0
0
0
0
0
0
0
0
0
0
0
0
0
0
0
0
0
0
0
0
0
0
0
0
0
0
0
0
0
0
0
0
0
0
0
0
0
0
0
0
0
0
0
0
0
0
0
0
0
0
0
0
0
0
0
0
0
0
0
0
0
0
0
0
0
0
0
0
0
0
0
0
0
0
0
0
0
0
0
0
0
0
0
0
0
0
0
0
0
0
0
0
0
0
0
0
0
0
0
0
0
0
0
0
0
0
0
0
0
0
0
0
0
0
0
0
0
0
0
0
0
0
0
0
0
0
0.256522
0.207457
0.115114
0.0328525
0.00469817
6.79808e-05
4.54079e-06
2.55303e-08
7.77226e-11
1.54301e-13
2.34923e-16
4.00683e-19
8.41286e-22
6.54788e-24
4.63668e-31
1.42022e-31
2.87906e-33
2.31529e-35
1.49076e-37
7.51776e-40
3.45903e-42
1.45733e-44
6.1328e-47
2.59139e-49
1.01524e-51
4.26882e-54
1.57416e-56
5.97985e-59
2.04464e-61
6.97461e-64
2.38218e-66
9.5478e-69
4.02371e-71
1.8053e-73
7.6383e-76
3.12105e-78
1.21297e-80
4.47359e-83
1.51726e-85
5.21242e-88
1.79645e-90
5.75631e-93
1.98488e-95
6.17859e-98
8.57741e-105
1.76344e-106
3.64679e-109
1.183e-111
4.12823e-114
1.49209e-116
5.35338e-119
1.97594e-121
7.229e-124
2.77198e-126
1.06378e-128
4.32105e-131
1.77094e-133
7.68717e-136
3.38406e-138
1.56874e-140
7.45097e-143
3.747e-145
1.97611e-147
1.11118e-149
6.54143e-152
4.0953e-154
2.65868e-156
1.80431e-158
1.25006e-160
8.84866e-163
6.21352e-165
4.03463e-167
1.87094e-169
8.72941e-173
1.48669e-184
2.1505e-183
7.18512e-186
1.27606e-188
1.62804e-191
1.65543e-194
1.43664e-197
1.10815e-200
7.8412e-204
5.1744e-207
3.23734e-210
1.93597e-213
1.12969e-216
6.50579e-220
3.70521e-223
1.98055e-226
9.54641e-230
4.19502e-233
1.76463e-236
7.31389e-240
3.01704e-243
1.23082e-246
4.96215e-250
1.96521e-253
7.65435e-257
2.92436e-260
1.08928e-263
3.96253e-267
1.40703e-270
1.84559e-274
2.34344e-295
2.47414e-294
4.77212e-297
5.10146e-300
4.08064e-303
2.6975e-306
1.57733e-309
8.36231e-313
4.11988e-316
1.89963e-319
0
0
0
0
0
0
0
0
0
0
0
0
0
0
0
0
0
0
0
0
0
0
0
0
0
0
0
0
0
0
0
0
0
0
0
0
0
0
0
0
0
0
0
0
0
0
0
0
0
0
0
0
0
0
0
0
0
0
0
0
0
0
0
0
0
0
0
0
0
0
0
0
0
0
0
0
0
0
0
0
0
0
0
0
0
0
0
0
0
0
0
0
0
0
0
0
0
0
0
0
0
0
0
0
0
0
0
0
0
0
0
0
0
0
0
0
0
0
0
0
0
0
0
0
0
0
0
0
0
0
0
0
0
0
0
0
0
0
0
0
0
0
0
0
0
0
0
0
0
0
0
0
0
0
0
0
0
0
0
0
0
0
0
0
0
0
0
0
0
0
0
0
0
0
0
0
0
0
0
0
0
0
0
0
0
0
0
0
0
0
0
0
0
0
0
0
0
0
0
0
0
0
0
0
0
0
0
0
0
0
0
0
0
0
0
0
0
0
0
0
0
0
0
0
0
0
0
0
0
0
0
0
0
0
0
0
0
0
0
0
0
0
0
0
0
0
0
0
0
0
0
0
0
0
0
0
0
0
0
0
1
1
1
0.351725
0.126985
0.0356467
0.00614214
3.26558e-05
1.16765e-07
1.99529e-10
3.07149e-13
3.71455e-16
4.32093e-19
3.6475e-22
1.57279e-27
4.3685e-28
8.23254e-30
8.5139e-32
5.95977e-34
3.1803e-36
1.48998e-38
6.39763e-41
2.7348e-43
1.14189e-45
4.68352e-48
1.92465e-50
7.46372e-53
2.78818e-55
9.85744e-58
3.23695e-60
1.03331e-62
3.79917e-65
1.50336e-67
7.01165e-70
3.01694e-72
1.28834e-74
5.27111e-77
1.93439e-79
6.88001e-82
2.26955e-84
7.23856e-87
2.36618e-89
7.33269e-92
2.35717e-94
5.35995e-101
9.66717e-103
2.06937e-105
6.61033e-108
2.31087e-110
8.16738e-113
2.89904e-115
1.03298e-117
3.70602e-120
1.36095e-122
5.08022e-125
1.97347e-127
7.77112e-130
3.22142e-132
1.34035e-134
5.86678e-137
2.57599e-139
1.17957e-141
5.49884e-144
2.67385e-146
1.34842e-148
7.20578e-151
4.04073e-153
2.41157e-155
1.50126e-157
9.87036e-160
6.66138e-162
4.60775e-164
3.23828e-166
2.27305e-169
2.14349e-180
5.432e-180
1.68793e-182
2.89471e-185
3.58111e-188
3.55576e-191
3.01155e-194
2.26618e-197
1.55961e-200
1.00167e-203
6.0847e-207
3.52418e-210
1.95532e-213
1.04217e-216
5.34784e-220
2.64775e-223
1.26782e-226
5.88506e-230
2.65456e-233
1.16598e-236
4.99642e-240
2.09187e-243
8.5677e-247
3.43623e-250
1.35081e-253
5.20921e-257
1.9725e-260
7.33996e-264
2.63428e-267
4.53116e-271
5.90725e-291
1.10755e-290
1.93386e-293
1.91519e-296
1.42922e-299
8.94387e-303
4.95219e-306
2.50417e-309
1.18054e-312
5.26322e-316
2.23377e-319
0
0
0
0
0
0
0
0
0
0
0
0
0
0
0
0
0
0
0
0
0
0
0
0
0
0
0
0
0
0
0
0
0
0
0
0
0
0
0
0
0
0
0
0
0
0
0
0
0
0
0
0
0
0
0
0
0
0
0
0
0
0
0
0
0
0
0
0
0
0
0
0
0
0
0
0
0
0
0
0
0
0
0
0
0
0
0
0
0
0
0
0
0
0
0
0
0
0
0
0
0
0
0
0
0
0
0
0
0
0
0
0
0
0
0
0
0
0
0
0
0
0
0
0
0
0
0
0
0
0
0
0
0
0
0
0
0
0
0
0
0
0
0
0
0
0
0
0
0
0
0
0
0
0
0
0
0
0
0
0
0
0
0
0
0
0
0
0
0
0
0
0
0
0
0
0
0
0
0
0
0
0
0
0
0
0
0
0
0
0
0
0
0
0
0
0
0
0
0
0
0
0
0
0
0
0
0
0
0
0
0
0
0
0
0
0
0
0
0
0
0
0
0
0
0
0
0
0
0
0
0
0
0
0
0
0
0
0
0
0
0
0
0
0
0
0
0
0
0
0
0
0
0
0
0
0
0
0
0
1
1
1
1
1
0.39574
0.1435
0.0267385
0.000346902
4.51964e-07
6.39053e-10
9.41556e-13
1.02799e-15
8.11069e-19
2.68647e-24
6.20192e-25
1.1784e-26
1.53743e-28
1.24078e-30
7.38004e-33
3.71911e-35
1.7059e-37
7.61551e-40
3.34045e-42
1.44025e-44
6.1638e-47
2.54419e-49
1.00916e-51
3.72428e-54
1.28032e-56
4.03463e-59
1.36311e-61
5.02119e-64
2.3104e-66
1.00599e-68
4.48684e-71
1.92019e-73
7.53058e-76
2.82937e-78
9.43579e-81
3.11801e-83
9.83579e-86
3.03588e-88
9.5277e-91
2.48346e-97
4.43164e-99
9.80112e-102
3.14111e-104
1.09641e-106
3.90409e-109
1.37315e-111
4.87521e-114
1.71583e-116
6.18167e-119
2.24892e-121
8.47503e-124
3.24827e-126
1.30192e-128
5.27732e-131
2.23813e-133
9.51258e-136
4.19629e-138
1.85386e-140
8.44757e-143
3.88697e-145
1.85604e-147
9.0654e-150
4.65933e-152
2.46285e-154
1.38629e-156
8.08818e-159
4.96455e-161
3.18018e-163
7.90592e-166
3.72739e-176
1.14469e-176
2.92954e-179
4.49764e-182
5.16659e-185
4.82403e-188
3.8532e-191
2.7328e-194
1.77076e-197
1.07103e-200
6.14144e-204
3.37177e-207
1.78261e-210
9.10045e-214
4.49311e-217
2.14777e-220
9.95405e-224
4.48013e-227
1.962e-230
8.37574e-234
3.49174e-237
1.42353e-240
5.68252e-244
2.22306e-247
8.53018e-251
3.21251e-254
1.1883e-257
4.31986e-261
1.51578e-264
2.60953e-268
1.48974e-286
4.15166e-287
6.00259e-290
5.13647e-293
3.39132e-296
1.90802e-299
9.61064e-303
4.46115e-306
1.94457e-309
8.06323e-313
3.21089e-316
1.2238e-319
0
0
0
0
0
0
0
0
0
0
0
0
0
0
0
0
0
0
0
0
0
0
0
0
0
0
0
0
0
0
0
0
0
0
0
0
0
0
0
0
0
0
0
0
0
0
0
0
0
0
0
0
0
0
0
0
0
0
0
0
0
0
0
0
0
0
0
0
0
0
0
0
0
0
0
0
0
0
0
0
0
0
0
0
0
0
0
0
0
0
0
0
0
0
0
0
0
0
0
0
0
0
0
0
0
0
0
0
0
0
0
0
0
0
0
0
0
0
0
0
0
0
0
0
0
0
0
0
0
0
0
0
0
0
0
0
0
0
0
0
0
0
0
0
0
0
0
0
0
0
0
0
0
0
0
0
0
0
0
0
0
0
0
0
0
0
0
0
0
0
0
0
0
0
0
0
0
0
0
0
0
0
0
0
0
0
0
0
0
0
0
0
0
0
0
0
0
0
0
0
0
0
0
0
0
0
0
0
0
0
0
0
0
0
0
0
0
0
0
0
0
0
0
0
0
0
0
0
0
0
0
0
0
0
0
0
0
0
0
0
0
0
0
0
0
0
0
0
0
0
0
0
0
0
0
0
0
0
1
1
1
1
1
1
1
0.349185
0.0493197
0.000901772
9.41525e-07
1.46407e-09
2.0188e-12
1.63742e-15
2.07323e-21
3.48455e-22
6.3667e-24
1.01514e-25
1.03589e-27
7.3186e-30
4.19131e-32
2.10893e-34
1.0164e-36
4.68261e-39
2.18186e-41
9.6977e-44
4.26562e-46
1.81797e-48
7.1314e-51
2.64615e-53
8.60452e-56
2.74373e-58
9.41073e-61
4.06216e-63
1.79286e-65
8.15643e-68
3.54444e-70
1.48135e-72
5.82968e-75
2.06876e-77
7.08612e-80
2.27477e-82
7.05636e-85
2.16468e-87
5.91087e-94
1.01205e-95
2.45539e-98
7.83655e-101
2.75389e-103
9.82262e-106
3.47962e-108
1.22073e-110
4.30706e-113
1.51001e-115
5.45491e-118
1.97911e-120
7.4772e-123
2.88278e-125
1.14886e-127
4.73068e-130
1.97731e-132
8.54263e-135
3.69743e-137
1.64297e-139
7.30952e-142
3.32447e-144
1.52784e-146
7.21865e-149
3.47834e-151
1.74377e-153
9.01773e-156
4.88998e-158
2.79683e-160
1.05593e-162
8.87701e-172
2.52791e-173
4.82962e-176
6.26335e-179
6.53536e-182
5.70603e-185
4.29995e-188
2.88062e-191
1.76057e-194
1.00306e-197
5.41877e-201
2.8097e-204
1.40896e-207
6.85888e-211
3.24598e-214
1.49397e-217
6.6895e-221
2.91612e-224
1.23905e-227
5.13876e-231
2.08343e-234
8.2687e-238
3.21628e-241
1.22716e-244
4.5962e-248
1.69073e-251
6.11151e-255
2.17173e-258
7.45845e-262
1.28605e-265
3.71556e-282
1.54179e-283
1.77404e-286
1.28146e-289
7.36855e-293
3.68524e-296
1.67445e-299
7.08893e-303
2.84234e-306
1.09159e-309
4.04865e-313
1.45922e-316
5.01477e-320
0
0
0
0
0
0
0
0
0
0
0
0
0
0
0
0
0
0
0
0
0
0
0
0
0
0
0
0
0
0
0
0
0
0
0
0
0
0
0
0
0
0
0
0
0
0
0
0
0
0
0
0
0
0
0
0
0
0
0
0
0
0
0
0
0
0
0
0
0
0
0
0
0
0
0
0
0
0
0
0
0
0
0
0
0
0
0
0
0
0
0
0
0
0
0
0
0
0
0
0
0
0
0
0
0
0
0
0
0
0
0
0
0
0
0
0
0
0
0
0
0
0
0
0
0
0
0
0
0
0
0
0
0
0
0
0
0
0
0
0
0
0
0
0
0
0
0
0
0
0
0
0
0
0
0
0
0
0
0
0
0
0
0
0
0
0
0
0
0
0
0
0
0
0
0
0
0
0
0
0
0
0
0
0
0
0
0
0
0
0
0
0
0
0
0
0
0
0
0
0
0
0
0
0
0
0
0
0
0
0
0
0
0
0
0
0
0
0
0
0
0
0
0
0
0
0
0
0
0
0
0
0
0
0
0
0
0
0
0
0
0
0
0
0
0
0
0
0
0
0
0
0
0
0
0
0
0
1
1
1
1
1
1
1
1
0.466786
0.0570612
0.000892981
1.31153e-06
2.41087e-09
2.3419e-12
7.85963e-19
8.79679e-20
1.27713e-21
2.25115e-23
3.20957e-25
2.99121e-27
2.05684e-29
1.18882e-31
6.30265e-34
3.16553e-36
1.56609e-38
7.51119e-41
3.4947e-43
1.6116e-45
6.85464e-48
2.80876e-50
9.82765e-53
3.20243e-55
1.02142e-57
4.07257e-60
1.80729e-62
8.40742e-65
3.70994e-67
1.62464e-69
6.63824e-72
2.53763e-74
9.09039e-77
3.02379e-79
9.60241e-82
2.96245e-84
7.50629e-91
1.17606e-92
3.29186e-95
1.08729e-97
3.85776e-100
1.39889e-102
4.99881e-105
1.76754e-107
6.21535e-110
2.17275e-112
7.72418e-115
2.75537e-117
1.01686e-119
3.81204e-122
1.48538e-124
5.94636e-127
2.44804e-129
1.03681e-131
4.44242e-134
1.94859e-136
8.5511e-139
3.82022e-141
1.70852e-143
7.76876e-146
3.56876e-148
1.67441e-150
8.05144e-153
4.0006e-155
2.07475e-157
9.71929e-160
2.25228e-167
5.88513e-170
7.85411e-173
7.85548e-176
7.1118e-179
5.72009e-182
4.05494e-185
2.56914e-188
1.4846e-191
7.9811e-195
4.06199e-198
1.98481e-201
9.404e-205
4.34506e-208
1.96236e-211
8.66494e-215
3.7389e-218
1.57602e-221
6.49093e-225
2.6139e-228
1.03033e-231
3.9799e-235
1.50817e-238
5.61164e-242
2.05151e-245
7.37225e-249
2.60505e-252
9.05372e-256
3.04445e-259
5.2745e-263
9.28832e-278
5.71752e-280
4.92836e-283
2.91136e-286
1.42945e-289
6.27056e-293
2.5455e-296
9.75842e-300
3.57938e-303
1.26764e-306
4.36358e-310
1.46745e-313
4.84038e-317
1.46836e-320
0
0
0
0
0
0
0
0
0
0
0
0
0
0
0
0
0
0
0
0
0
0
0
0
0
0
0
0
0
0
0
0
0
0
0
0
0
0
0
0
0
0
0
0
0
0
0
0
0
0
0
0
0
0
0
0
0
0
0
0
0
0
0
0
0
0
0
0
0
0
0
0
0
0
0
0
0
0
0
0
0
0
0
0
0
0
0
0
0
0
0
0
0
0
0
0
0
0
0
0
0
0
0
0
0
0
0
0
0
0
0
0
0
0
0
0
0
0
0
0
0
0
0
0
0
0
0
0
0
0
0
0
0
0
0
0
0
0
0
0
0
0
0
0
0
0
0
0
0
0
0
0
0
0
0
0
0
0
0
0
0
0
0
0
0
0
0
0
0
0
0
0
0
0
0
0
0
0
0
0
0
0
0
0
0
0
0
0
0
0
0
0
0
0
0
0
0
0
0
0
0
0
0
0
0
0
0
0
0
0
0
0
0
0
0
0
0
0
0
0
0
0
0
0
0
0
0
0
0
0
0
0
0
0
0
0
0
0
0
0
0
0
0
0
0
0
0
0
0
0
0
0
0
0
0
0
1
1
1
1
1
1
1
1
1
0.414149
0.0533419
0.000932592
2.10752e-06
2.02983e-09
2.04646e-16
1.43694e-17
1.30947e-19
1.91586e-21
3.47658e-23
5.05127e-25
4.42493e-27
2.96586e-29
1.78183e-31
9.59131e-34
5.03527e-36
2.59914e-38
1.24154e-40
6.12886e-43
2.79402e-45
1.26682e-47
4.86892e-50
1.73619e-52
5.15232e-55
1.9246e-57
8.50173e-60
3.98502e-62
1.80367e-64
8.08749e-67
3.41514e-69
1.38421e-71
5.20071e-74
1.84566e-76
6.10413e-79
1.94739e-81
4.63247e-88
6.65577e-90
1.96397e-92
6.90449e-95
2.53793e-97
9.32482e-100
3.37285e-102
1.19641e-104
4.22185e-107
1.46725e-109
5.17382e-112
1.81795e-114
6.56603e-117
2.40399e-119
9.11472e-122
3.55149e-124
1.43097e-126
5.93861e-129
2.51586e-131
1.0919e-133
4.76615e-136
2.11543e-138
9.37236e-141
4.19986e-143
1.8844e-145
8.52894e-148
3.93041e-150
1.8367e-152
8.92531e-155
4.32946e-157
2.81552e-164
1.25656e-166
1.15814e-169
8.39484e-173
6.23348e-176
4.50762e-179
2.98219e-182
1.78467e-185
9.76361e-189
4.96277e-192
2.38255e-195
1.09647e-198
4.89527e-202
2.13764e-205
9.16856e-209
3.86664e-212
1.60216e-215
6.51428e-219
2.59664e-222
1.01446e-225
3.88594e-229
1.46057e-232
5.39135e-236
1.95602e-239
6.97945e-243
2.45031e-246
8.466e-250
2.87895e-253
9.50635e-257
1.7421e-260
2.28488e-273
2.04057e-276
1.20021e-279
5.56394e-283
2.27889e-286
8.6392e-290
3.10176e-293
1.06897e-296
3.56765e-300
1.16031e-303
3.69485e-307
1.15626e-310
3.56657e-314
1.08689e-317
2.49009e-321
0
0
0
0
0
0
0
0
0
0
0
0
0
0
0
0
0
0
0
0
0
0
0
0
0
0
0
0
0
0
0
0
0
0
0
0
0
0
0
0
0
0
0
0
0
0
0
0
0
0
0
0
0
0
0
0
0
0
0
0
0
0
0
0
0
0
0
0
0
0
0
0
0
0
0
0
0
0
0
0
0
0
0
0
0
0
0
0
0
0
0
0
0
0
0
0
0
0
0
0
0
0
0
0
0
0
0
0
0
0
0
0
0
0
0
0
0
0
0
0
0
0
0
0
0
0
0
0
0
0
0
0
0
0
0
0
0
0
0
0
0
0
0
0
0
0
0
0
0
0
0
0
0
0
0
0
0
0
0
0
0
0
0
0
0
0
0
0
0
0
0
0
0
0
0
0
0
0
0
0
0
0
0
0
0
0
0
0
0
0
0
0
0
0
0
0
0
0
0
0
0
0
0
0
0
0
0
0
0
0
0
0
0
0
0
0
0
0
0
0
0
0
0
0
0
0
0
0
0
0
0
0
0
0
0
0
0
0
0
0
0
0
0
0
0
0
0
0
0
0
0
0
0
0
0
1
1
1
1
1
1
1
1
1
1
1
0.089403
0.00227041
2.43641e-06
4.03001e-09
1.1953e-11
5.8784e-14
4.05133e-16
5.98389e-18
9.39469e-20
8.50099e-22
5.50999e-24
3.27715e-26
1.92861e-28
1.18366e-30
7.43373e-33
4.75662e-35
3.10832e-37
1.97809e-39
1.25828e-41
7.79521e-44
4.73266e-46
2.73728e-48
1.5464e-50
8.25107e-53
4.26699e-55
2.11186e-57
1.01493e-59
4.74168e-62
2.17104e-64
9.43066e-67
3.97496e-69
1.58482e-71
6.04657e-74
2.16541e-76
7.35065e-79
2.98703e-81
1.52413e-83
1.71159e-85
1.12413e-87
5.38051e-90
2.34811e-92
9.23285e-95
3.50965e-97
1.28935e-99
4.60901e-102
1.63239e-104
5.69911e-107
1.97975e-109
7.00475e-112
2.44081e-114
8.94683e-117
3.24259e-119
1.25426e-121
4.85001e-124
1.9887e-126
8.24101e-129
3.54937e-131
1.5366e-133
6.85978e-136
3.01593e-138
1.36348e-140
6.0244e-143
2.70272e-145
1.21039e-147
5.4428e-150
2.51163e-152
1.17324e-154
5.6189e-157
2.54971e-159
1.14427e-161
4.98493e-164
1.67175e-166
7.02864e-170
3.98768e-173
2.55371e-176
1.56336e-179
8.78693e-183
4.54166e-186
2.18316e-189
9.89689e-193
4.29132e-196
1.80292e-199
7.41584e-203
3.0066e-206
1.205e-209
4.77354e-213
1.86596e-216
7.18311e-220
2.71926e-223
1.01168e-226
3.69929e-230
1.33011e-233
4.70579e-237
1.63905e-240
5.62271e-244
1.90011e-247
6.32594e-251
2.07457e-254
6.52608e-258
1.13356e-261
5.99231e-266
1.52602e-269
6.04893e-273
2.24971e-276
7.87922e-280
2.64156e-283
8.56181e-287
2.70065e-290
8.32999e-294
2.52165e-297
7.51414e-301
2.20956e-304
6.42522e-308
1.85111e-311
5.29227e-315
1.50226e-318
0
0
0
0
0
0
0
0
0
0
0
0
0
0
0
0
0
0
0
0
0
0
0
0
0
0
0
0
0
0
0
0
0
0
0
0
0
0
0
0
0
0
0
0
0
0
0
0
0
0
0
0
0
0
0
0
0
0
0
0
0
0
0
0
0
0
0
0
0
0
0
0
0
0
0
0
0
0
0
0
0
0
0
0
0
0
0
0
0
0
0
0
0
0
0
0
0
0
0
0
0
0
0
0
0
0
0
0
0
0
0
0
0
0
0
0
0
0
0
0
0
0
0
0
0
0
0
0
0
0
0
0
0
0
0
0
0
0
0
0
0
0
0
0
0
0
0
0
0
0
0
0
0
0
0
0
0
0
0
0
0
0
0
0
0
0
0
0
0
0
0
0
0
0
0
0
0
0
0
0
0
0
0
0
0
0
0
0
0
0
0
0
0
0
0
0
0
0
0
0
0
0
0
0
0
0
0
0
0
0
0
0
0
0
0
0
0
0
0
0
0
0
0
0
0
0
0
0
0
0
0
0
0
0
0
0
0
0
0
0
0
0
0
0
0
0
0
0
0
0
0
0
0
0
0
0
0
0
0
0
0
0
0
0
0
0
0
0
0
0
0
0
0
1
1
1
1
1
1
1
1
1
1
1
0.425634
0.0536014
0.00106243
1.15047e-06
2.8588e-09
1.39895e-11
7.52593e-14
3.46757e-16
1.34992e-18
5.00811e-21
1.94824e-23
8.22723e-26
3.86821e-28
2.01148e-30
1.17826e-32
7.56364e-35
5.20028e-37
3.6513e-39
2.60042e-41
1.82372e-43
1.25093e-45
8.37043e-48
5.37563e-50
3.39814e-52
2.0508e-54
1.23083e-56
7.07827e-59
4.0595e-61
2.22359e-63
1.21037e-65
6.32598e-68
3.23707e-70
1.59889e-72
7.6909e-75
3.56846e-77
1.68605e-79
7.84287e-82
3.50745e-84
1.54432e-86
6.59085e-89
2.77444e-91
1.14414e-93
4.65646e-96
1.87506e-98
7.4389e-101
2.939e-103
1.15205e-105
4.51403e-108
1.77919e-110
7.05569e-113
2.85128e-115
1.17163e-117
4.93621e-120
2.12848e-122
9.38403e-125
4.22578e-127
1.93042e-129
8.94318e-132
4.17261e-134
1.9608e-136
9.23269e-139
4.36212e-141
2.05936e-143
9.74888e-146
4.61465e-148
2.19487e-150
1.0474e-152
5.03751e-155
2.42098e-157
1.15502e-159
5.45092e-162
2.53279e-164
6.12381e-167
2.00147e-170
8.88939e-174
4.54031e-177
2.30914e-180
1.10881e-183
5.00013e-187
2.13307e-190
8.70176e-194
3.43495e-197
1.32692e-200
5.06176e-204
1.91716e-207
7.2212e-211
2.70143e-214
1.00104e-217
3.66459e-221
1.32278e-224
4.70355e-228
1.64723e-231
5.68313e-235
1.93243e-238
6.47838e-242
2.14169e-245
6.98206e-249
2.24442e-252
7.11159e-256
2.18866e-259
6.5306e-263
1.95003e-266
5.83778e-270
1.72435e-273
5.02744e-277
1.4478e-280
4.12143e-284
1.16073e-287
3.23709e-291
8.94826e-295
2.4542e-298
6.68506e-302
1.81037e-305
4.87897e-309
1.3098e-312
3.50579e-316
9.27509e-320
0
0
0
0
0
0
0
0
0
0
0
0
0
0
0
0
0
0
0
0
0
0
0
0
0
0
0
0
0
0
0
0
0
0
0
0
0
0
0
0
0
0
0
0
0
0
0
0
0
0
0
0
0
0
0
0
0
0
0
0
0
0
0
0
0
0
0
0
0
0
0
0
0
0
0
0
0
0
0
0
0
0
0
0
0
0
0
0
0
0
0
0
0
0
0
0
0
0
0
0
0
0
0
0
0
0
0
0
0
0
0
0
0
0
0
0
0
0
0
0
0
0
0
0
0
0
0
0
0
0
0
0
0
0
0
0
0
0
0
0
0
0
0
0
0
0
0
0
0
0
0
0
0
0
0
0
0
0
0
0
0
0
0
0
0
0
0
0
0
0
0
0
0
0
0
0
0
0
0
0
0
0
0
0
0
0
0
0
0
0
0
0
0
0
0
0
0
0
0
0
0
0
0
0
0
0
0
0
0
0
0
0
0
0
0
0
0
0
0
0
0
0
0
0
0
0
0
0
0
0
0
0
0
0
0
0
0
0
0
0
0
0
0
0
0
0
0
0
0
0
0
0
0
0
0
0
0
0
0
0
0
0
0
0
0
0
0
0
0
0
0
0
1
1
1
1
1
1
1
1
1
1
1
1
0.184753
0.0151038
4.2204e-05
1.13181e-07
3.10408e-10
8.81605e-13
2.20875e-15
5.42993e-18
1.32895e-20
3.57111e-23
1.09066e-25
3.64631e-28
1.344e-30
5.31077e-33
2.32153e-35
1.16024e-37
6.53496e-40
4.05977e-42
2.63821e-44
1.73177e-46
1.13008e-48
7.21909e-51
4.54623e-53
2.74241e-55
1.65194e-57
9.50671e-60
5.48916e-62
3.02283e-64
1.67707e-66
8.90854e-69
4.83495e-71
2.54612e-73
1.34326e-75
7.14675e-78
3.32876e-80
1.52067e-82
6.56682e-85
2.77614e-87
1.15527e-89
4.73971e-92
1.90575e-94
7.55566e-97
2.9477e-99
1.13735e-101
4.35971e-104
1.66335e-106
6.37115e-109
2.4525e-111
9.57244e-114
3.80534e-116
1.54684e-118
6.46601e-121
2.77592e-123
1.22524e-125
5.54319e-128
2.55811e-130
1.20151e-132
5.70432e-135
2.73653e-137
1.31734e-139
6.375e-142
3.0815e-144
1.4934e-146
7.22375e-149
3.50422e-151
1.7007e-153
8.28799e-156
4.04719e-158
1.9816e-160
9.7034e-163
4.67868e-165
2.52015e-168
1.87237e-171
1.29392e-174
7.37334e-178
3.64546e-181
1.64264e-184
6.95975e-188
2.84152e-191
1.13928e-194
4.53714e-198
1.80102e-201
7.10842e-205
2.77634e-208
1.06847e-211
4.04166e-215
1.50178e-218
5.485e-222
1.97154e-225
6.98239e-229
2.43868e-232
8.40266e-236
2.85611e-239
9.57371e-243
3.1634e-246
1.03001e-249
3.30415e-253
1.04429e-256
3.25115e-260
9.97793e-264
3.02197e-267
9.03584e-271
2.66919e-274
7.79625e-278
2.25344e-281
6.45109e-285
1.83071e-288
5.15455e-292
1.44125e-295
4.00559e-299
1.1076e-302
3.04992e-306
8.37082e-310
2.29167e-313
6.26194e-317
1.63931e-320
0
0
0
0
0
0
0
0
0
0
0
0
0
0
0
0
0
0
0
0
0
0
0
0
0
0
0
0
0
0
0
0
0
0
0
0
0
0
0
0
0
0
0
0
0
0
0
0
0
0
0
0
0
0
0
0
0
0
0
0
0
0
0
0
0
0
0
0
0
0
0
0
0
0
0
0
0
0
0
0
0
0
0
0
0
0
0
0
0
0
0
0
0
0
0
0
0
0
0
0
0
0
0
0
0
0
0
0
0
0
0
0
0
0
0
0
0
0
0
0
0
0
0
0
0
0
0
0
0
0
0
0
0
0
0
0
0
0
0
0
0
0
0
0
0
0
0
0
0
0
0
0
0
0
0
0
0
0
0
0
0
0
0
0
0
0
0
0
0
0
0
0
0
0
0
0
0
0
0
0
0
0
0
0
0
0
0
0
0
0
0
0
0
0
0
0
0
0
0
0
0
0
0
0
0
0
0
0
0
0
0
0
0
0
0
0
0
0
0
0
0
0
0
0
0
0
0
0
0
0
0
0
0
0
0
0
0
0
0
0
0
0
0
0
0
0
0
0
0
0
0
0
0
0
0
0
0
0
0
0
0
0
0
0
0
0
0
0
0
0
0
0
1
1
1
1
1
1
1
1
1
1
1
1
0.229987
0.0249052
8.61509e-05
2.64314e-07
6.97836e-10
1.57672e-12
3.21664e-15
5.85209e-18
1.08457e-20
1.99544e-23
4.24603e-26
9.86421e-29
2.64071e-31
7.69772e-34
2.41716e-36
8.29866e-39
3.23165e-41
1.46451e-43
7.86637e-46
4.60454e-48
2.81469e-50
1.72381e-52
1.05032e-54
6.12048e-57
3.61609e-59
2.00654e-61
1.13541e-63
6.07313e-66
3.27245e-68
1.68653e-70
8.65001e-73
4.29077e-75
2.11499e-77
1.01979e-79
4.77693e-82
2.16857e-84
9.38517e-87
3.95238e-89
1.6404e-91
6.64932e-94
2.65379e-96
1.04239e-98
4.05191e-101
1.56556e-103
6.01318e-106
2.31472e-108
8.94112e-111
3.49374e-113
1.38807e-115
5.63334e-118
2.3472e-120
1.00577e-122
4.42839e-125
2.00241e-127
9.24608e-130
4.34757e-132
2.07187e-134
9.97004e-137
4.83454e-139
2.35224e-141
1.14949e-143
5.6165e-146
2.75351e-148
1.34941e-150
6.64425e-153
3.27545e-155
1.62351e-157
8.05444e-160
4.0109e-162
1.99344e-164
3.29611e-167
9.07448e-171
7.81893e-174
6.5903e-177
4.54961e-180
2.57578e-183
1.29398e-186
6.02439e-190
2.66636e-193
1.14118e-196
4.77645e-200
1.96744e-203
7.99448e-207
3.20448e-210
1.26578e-213
4.92219e-217
1.88341e-220
7.09165e-224
2.62882e-227
9.5994e-231
3.4549e-234
1.22606e-237
4.29119e-241
1.48147e-244
5.0454e-248
1.69528e-251
5.62131e-255
1.84009e-258
5.94864e-262
1.90056e-265
6.0065e-269
1.87918e-272
5.82509e-276
1.7908e-279
5.46559e-283
1.6577e-286
5.00134e-290
1.50249e-293
4.49876e-297
1.34368e-300
4.00628e-304
1.19309e-307
3.55019e-311
1.05566e-314
3.13531e-318
7.90505e-323
0
0
0
0
0
0
0
0
0
0
0
0
0
0
0
0
0
0
0
0
0
0
0
0
0
0
0
0
0
0
0
0
0
0
0
0
0
0
0
0
0
0
0
0
0
0
0
0
0
0
0
0
0
0
0
0
0
0
0
0
0
0
0
0
0
0
0
0
0
0
0
0
0
0
0
0
0
0
0
0
0
0
0
0
0
0
0
0
0
0
0
0
0
0
0
0
0
0
0
0
0
0
0
0
0
0
0
0
0
0
0
0
0
0
0
0
0
0
0
0
0
0
0
0
0
0
0
0
0
0
0
0
0
0
0
0
0
0
0
0
0
0
0
0
0
0
0
0
0
0
0
0
0
0
0
0
0
0
0
0
0
0
0
0
0
0
0
0
0
0
0
0
0
0
0
0
0
0
0
0
0
0
0
0
0
0
0
0
0
0
0
0
0
0
0
0
0
0
0
0
0
0
0
0
0
0
0
0
0
0
0
0
0
0
0
0
0
0
0
0
0
0
0
0
0
0
0
0
0
0
0
0
0
0
0
0
0
0
0
0
0
0
0
0
0
0
0
0
0
0
0
0
0
0
0
0
0
0
0
0
0
0
0
0
0
0
0
0
0
0
0
0
1
1
1
1
1
1
1
1
1
1
1
1
0.174229
0.0135756
3.5078e-05
8.04754e-08
1.66875e-10
3.1361e-13
5.46584e-16
9.01031e-19
1.39448e-21
2.20565e-24
3.49466e-27
6.07506e-30
1.14826e-32
2.41661e-35
5.58771e-38
1.49399e-40
4.94606e-43
2.11312e-45
1.11397e-47
6.53605e-50
3.88279e-52
2.34202e-54
1.36739e-56
7.82339e-59
4.43302e-61
2.39235e-63
1.30894e-65
6.80464e-68
3.55154e-70
1.78762e-72
8.85594e-75
4.30275e-77
2.03542e-79
9.54794e-82
4.30068e-84
1.90605e-86
8.09408e-89
3.36321e-91
1.37281e-93
5.46791e-96
2.154e-98
8.35207e-101
3.2255e-103
1.23876e-105
4.75666e-108
1.83803e-110
7.15736e-113
2.83832e-115
1.14751e-117
4.764e-120
2.03566e-122
8.93831e-125
4.03379e-127
1.86071e-129
8.74568e-132
4.16973e-134
2.00972e-136
9.75659e-139
4.7654e-141
2.33142e-143
1.14483e-145
5.61708e-148
2.76551e-150
1.36173e-152
6.73725e-155
3.33875e-157
1.66256e-159
8.28046e-162
4.13221e-164
1.35091e-166
2.40418e-170
1.66084e-173
1.77305e-176
1.76844e-179
1.44151e-182
9.40009e-186
5.1947e-189
2.60794e-192
1.23036e-195
5.56561e-199
2.4452e-202
1.05141e-205
4.44194e-209
1.84634e-212
7.5513e-216
3.03791e-219
1.20205e-222
4.67916e-226
1.79283e-229
6.76616e-233
2.51707e-236
9.23614e-240
3.34489e-243
1.19618e-246
4.22624e-250
1.47598e-253
5.09849e-257
1.74326e-260
5.90347e-264
1.98194e-267
6.60329e-271
2.18503e-274
7.18764e-278
2.35241e-281
7.66607e-285
2.48916e-288
8.05734e-292
2.60113e-295
8.37676e-299
2.6914e-302
8.62687e-306
2.7582e-309
8.79381e-313
2.79474e-316
8.64763e-320
0
0
0
0
0
0
0
0
0
0
0
0
0
0
0
0
0
0
0
0
0
0
0
0
0
0
0
0
0
0
0
0
0
0
0
0
0
0
0
0
0
0
0
0
0
0
0
0
0
0
0
0
0
0
0
0
0
0
0
0
0
0
0
0
0
0
0
0
0
0
0
0
0
0
0
0
0
0
0
0
0
0
0
0
0
0
0
0
0
0
0
0
0
0
0
0
0
0
0
0
0
0
0
0
0
0
0
0
0
0
0
0
0
0
0
0
0
0
0
0
0
0
0
0
0
0
0
0
0
0
0
0
0
0
0
0
0
0
0
0
0
0
0
0
0
0
0
0
0
0
0
0
0
0
0
0
0
0
0
0
0
0
0
0
0
0
0
0
0
0
0
0
0
0
0
0
0
0
0
0
0
0
0
0
0
0
0
0
0
0
0
0
0
0
0
0
0
0
0
0
0
0
0
0
0
0
0
0
0
0
0
0
0
0
0
0
0
0
0
0
0
0
0
0
0
0
0
0
0
0
0
0
0
0
0
0
0
0
0
0
0
0
0
0
0
0
0
0
0
0
0
0
0
0
0
0
0
0
0
0
0
0
0
0
0
0
0
0
0
0
0
0
0
1
1
1
1
1
1
0.341493
0.171824
0.143109
0.149941
0.153881
0.110418
0.024281
0.000288701
5.08485e-07
1.32716e-09
3.15967e-12
6.44027e-15
1.10943e-17
1.67215e-20
2.28895e-23
2.9581e-26
3.98811e-29
5.96169e-32
1.04114e-34
2.13627e-37
5.06723e-40
1.45132e-42
5.36469e-45
2.52514e-47
1.36833e-49
8.02908e-52
4.68307e-54
2.72893e-56
1.53747e-58
8.55233e-61
4.63535e-63
2.42563e-65
1.27967e-67
6.43101e-70
3.25362e-72
1.58886e-74
7.6417e-77
3.60601e-79
1.65429e-81
7.53284e-84
3.29319e-86
1.42891e-88
5.94348e-91
2.44139e-93
9.75586e-96
3.84842e-98
1.49671e-100
5.76762e-103
2.216e-105
8.48378e-108
3.26566e-110
1.26782e-112
4.9903e-115
2.01172e-117
8.28635e-120
3.52764e-122
1.53984e-124
6.92545e-127
3.18573e-129
1.49415e-131
7.11966e-134
3.42753e-136
1.66598e-138
8.13392e-141
3.99091e-143
1.95884e-145
9.63897e-148
4.73683e-150
2.33556e-152
1.15118e-154
5.70516e-157
2.8283e-159
1.40889e-161
6.99694e-164
2.76845e-166
4.19448e-170
2.10012e-173
2.44321e-176
3.05536e-179
3.44136e-182
3.22662e-185
2.38335e-188
1.43652e-191
7.69912e-195
3.8391e-198
1.82443e-201
8.38273e-205
3.75582e-208
1.64837e-211
7.10094e-215
3.00472e-218
1.24925e-221
5.10514e-225
2.05178e-228
8.11643e-232
3.16306e-235
1.21551e-238
4.60984e-242
1.72675e-245
6.39293e-249
2.34091e-252
8.48364e-256
3.04501e-259
1.08325e-262
3.82207e-266
1.33851e-269
4.65606e-273
1.60973e-276
5.53433e-280
1.89304e-283
6.44453e-287
2.1841e-290
7.37009e-294
2.47639e-297
8.28516e-301
2.7598e-304
9.15126e-308
3.02012e-311
9.91766e-315
3.23853e-318
0
0
0
0
0
0
0
0
0
0
0
0
0
0
0
0
0
0
0
0
0
0
0
0
0
0
0
0
0
0
0
0
0
0
0
0
0
0
0
0
0
0
0
0
0
0
0
0
0
0
0
0
0
0
0
0
0
0
0
0
0
0
0
0
0
0
0
0
0
0
0
0
0
0
0
0
0
0
0
0
0
0
0
0
0
0
0
0
0
0
0
0
0
0
0
0
0
0
0
0
0
0
0
0
0
0
0
0
0
0
0
0
0
0
0
0
0
0
0
0
0
0
0
0
0
0
0
0
0
0
0
0
0
0
0
0
0
0
0
0
0
0
0
0
0
0
0
0
0
0
0
0
0
0
0
0
0
0
0
0
0
0
0
0
0
0
0
0
0
0
0
0
0
0
0
0
0
0
0
0
0
0
0
0
0
0
0
0
0
0
0
0
0
0
0
0
0
0
0
0
0
0
0
0
0
0
0
0
0
0
0
0
0
0
0
0
0
0
0
0
0
0
0
0
0
0
0
0
0
0
0
0
0
0
0
0
0
0
0
0
0
0
0
0
0
0
0
0
0
0
0
0
0
0
0
0
0
0
0
0
0
0
0
0
0
0
0
0
0
0
0
0
0
0
1
1
0.293583
0.168011
0.113836
0.066593
0.021478
0.00843197
0.00600861
0.00688216
0.00682867
0.00359297
0.000295683
9.13286e-07
2.59272e-09
6.54318e-12
1.46698e-14
2.79687e-17
4.66193e-20
6.836e-23
9.44132e-26
1.28777e-28
1.87843e-31
3.19994e-34
6.24471e-37
1.43719e-39
3.91336e-42
1.33014e-44
5.75892e-47
2.98469e-49
1.64204e-51
9.55238e-54
5.41796e-56
3.05601e-58
1.65986e-60
8.94693e-63
4.62152e-65
2.36868e-67
1.18112e-69
5.84228e-72
2.82222e-74
1.34888e-76
6.26399e-79
2.87945e-81
1.28038e-83
5.65594e-86
2.41623e-88
1.01968e-90
4.18899e-93
1.68597e-95
6.69795e-98
2.60876e-100
1.01218e-102
3.87719e-105
1.48768e-107
5.70013e-110
2.20621e-112
8.63587e-115
3.45231e-117
1.41406e-119
5.95444e-122
2.58867e-124
1.15376e-126
5.29003e-129
2.4686e-131
1.17212e-133
5.63616e-136
2.732e-138
1.33509e-140
6.53992e-143
3.2177e-145
1.58103e-147
7.78723e-150
3.82622e-152
1.88633e-154
9.29029e-157
4.59904e-159
2.27641e-161
1.1306e-163
4.89079e-166
6.32299e-170
2.28609e-173
2.53224e-176
3.53298e-179
4.76761e-182
5.84171e-185
5.96105e-188
4.63301e-191
2.90213e-194
1.61057e-197
8.29559e-201
4.06524e-204
1.92308e-207
8.85605e-211
3.98822e-214
1.7602e-217
7.62164e-221
3.23991e-224
1.3531e-227
5.55666e-231
2.24606e-234
8.94543e-238
3.51389e-241
1.36261e-244
5.22043e-248
1.97746e-251
7.41093e-255
2.74973e-258
1.01074e-261
3.68302e-265
1.33112e-268
4.77448e-272
1.70063e-275
6.01782e-279
2.11614e-282
7.39693e-286
2.57068e-289
8.88361e-293
3.05283e-296
1.04326e-299
3.54522e-303
1.19789e-306
4.02414e-310
1.34388e-313
4.46068e-317
1.29445e-320
0
0
0
0
0
0
0
0
0
0
0
0
0
0
0
0
0
0
0
0
0
0
0
0
0
0
0
0
0
0
0
0
0
0
0
0
0
0
0
0
0
0
0
0
0
0
0
0
0
0
0
0
0
0
0
0
0
0
0
0
0
0
0
0
0
0
0
0
0
0
0
0
0
0
0
0
0
0
0
0