/*--------------------------------*- C++ -*----------------------------------*\
| =========                 |                                                 |
| \\      /  F ield         | OpenFOAM: The Open Source CFD Toolbox           |
|  \\    /   O peration     | Version:  2.1.1                                 |
|   \\  /    A nd           | Web:      www.OpenFOAM.org                      |
|    \\/     M anipulation  |                                                 |
\*---------------------------------------------------------------------------*/
FoamFile
{
    version     2.0;
    format      ascii;
    class       volScalarField;
    location    "0.000800000";
    object      omegaC_burn;
}
// * * * * * * * * * * * * * * * * * * * * * * * * * * * * * * * * * * * * * //

dimensions      [1 -3 -1 0 0 0 0];

internalField   nonuniform List<scalar> 
12384
(
27.5501
13.6712
3.12759
0.173875
0.00662533
0.000186772
5.24375e-06
8.13295e-08
1.19205e-09
1.7967e-11
2.77648e-13
4.48797e-15
6.63769e-17
8.34884e-19
2.18411e-31
6.27777e-32
1.33373e-33
1.11673e-35
7.72314e-38
4.62841e-40
2.52765e-42
1.28906e-44
6.35972e-47
3.02758e-49
1.40016e-51
6.25318e-54
2.67566e-56
1.08531e-58
4.20147e-61
1.57148e-63
5.89744e-66
2.21773e-68
8.76708e-71
3.53843e-73
1.44101e-75
5.81789e-78
2.30733e-80
8.91776e-83
3.37111e-85
1.24807e-87
4.60418e-90
1.66414e-92
6.09089e-95
2.2109e-97
3.96154e-105
8.34164e-107
3.59409e-109
1.32214e-111
4.76319e-114
1.73649e-116
6.5886e-119
2.69751e-121
1.23533e-123
6.47733e-126
3.77489e-128
2.32038e-130
1.43573e-132
8.69462e-135
5.12127e-137
2.92677e-139
1.6314e-141
8.92174e-144
4.80167e-146
2.55828e-148
1.3519e-150
7.10876e-153
3.73485e-155
1.96222e-157
1.03859e-159
3.97409e-162
0
0
0
0
0
0
0
0
0
0
0
0
0
0
0
0
0
0
0
0
0
0
0
0
0
0
0
0
0
0
0
0
0
0
0
0
0
0
0
0
0
0
0
0
0
0
0
0
0
0
0
0
0
0
0
0
0
0
0
0
0
0
0
0
0
0
0
0
0
0
0
0
0
0
0
0
0
0
0
0
0
0
0
0
0
0
0
0
0
0
0
0
0
0
0
0
0
0
0
0
0
0
0
0
0
0
0
0
0
0
0
0
0
0
0
0
0
0
0
0
0
0
0
0
0
0
0
0
0
0
0
0
0
0
0
0
0
0
0
0
0
0
0
0
0
0
0
0
0
0
0
0
0
0
0
0
0
0
0
0
0
0
0
0
0
0
0
0
0
0
0
0
0
0
0
0
0
0
0
0
0
0
0
0
0
0
0
0
0
0
0
0
0
0
0
0
0
0
0
0
0
0
0
0
0
0
0
0
0
0
0
0
0
0
0
0
0
0
0
0
0
0
0
0
0
0
0
0
0
0
0
0
0
0
0
0
0
0
0
0
0
0
0
0
0
0
0
0
0
0
0
0
0
0
0
0
0
0
0
0
0
0
0
0
0
0
0
0
0
0
0
0
0
0
0
0
0
0
0
0
0
0
0
0
0
0
0
0
0
0
0
0
0
0
0
0
0
0
0
0
0
0
0
0
119.121
74.7392
20.9865
4.20888
0.565434
0.00742542
0.000517326
4.23634e-06
3.07336e-08
2.32901e-10
2.06129e-12
2.15811e-14
2.49168e-16
2.89212e-18
4.91103e-29
1.41417e-29
3.06148e-31
2.65536e-33
1.7964e-35
9.96683e-38
4.97463e-40
2.32532e-42
1.0751e-44
4.89726e-47
2.14211e-49
9.45711e-52
3.88977e-54
1.56524e-56
5.90853e-59
2.15063e-61
7.85303e-64
2.98552e-66
1.21906e-68
5.26773e-71
2.23758e-73
9.36006e-76
3.71659e-78
1.44052e-80
5.29446e-83
1.90677e-85
6.81813e-88
2.37469e-90
8.2967e-93
2.88078e-95
1.43825e-102
2.95414e-104
9.81211e-107
3.18842e-109
1.07582e-111
3.79e-114
1.36324e-116
5.06777e-119
1.93683e-121
7.84014e-124
3.41927e-126
1.6382e-128
8.58709e-131
4.77957e-133
2.72263e-135
1.55971e-137
8.83979e-140
4.98159e-142
2.78331e-144
1.54658e-146
8.59021e-149
4.76254e-151
2.66353e-153
1.49884e-155
8.57678e-158
4.98125e-160
0
0
0
0
0
0
0
0
0
0
0
0
0
0
0
0
0
0
0
0
0
0
0
0
0
0
0
0
0
0
0
0
0
0
0
0
0
0
0
0
0
0
0
0
0
0
0
0
0
0
0
0
0
0
0
0
0
0
0
0
0
0
0
0
0
0
0
0
0
0
0
0
0
0
0
0
0
0
0
0
0
0
0
0
0
0
0
0
0
0
0
0
0
0
0
0
0
0
0
0
0
0
0
0
0
0
0
0
0
0
0
0
0
0
0
0
0
0
0
0
0
0
0
0
0
0
0
0
0
0
0
0
0
0
0
0
0
0
0
0
0
0
0
0
0
0
0
0
0
0
0
0
0
0
0
0
0
0
0
0
0
0
0
0
0
0
0
0
0
0
0
0
0
0
0
0
0
0
0
0
0
0
0
0
0
0
0
0
0
0
0
0
0
0
0
0
0
0
0
0
0
0
0
0
0
0
0
0
0
0
0
0
0
0
0
0
0
0
0
0
0
0
0
0
0
0
0
0
0
0
0
0
0
0
0
0
0
0
0
0
0
0
0
0
0
0
0
0
0
0
0
0
0
0
0
0
0
0
0
0
0
0
0
0
0
0
0
0
0
0
0
0
0
0
0
0
0
0
0
0
0
0
0
0
0
0
0
0
0
0
0
0
0
0
0
0
0
0
0
0
0
0
0
0
137.226
103.917
40.9209
10.9853
3.0094
0.877285
0.141434
0.000700866
2.73106e-06
5.84962e-09
9.72799e-12
1.63253e-14
2.50367e-17
4.84496e-20
2.32656e-26
6.64713e-27
1.25773e-28
1.27991e-30
8.80418e-33
4.55351e-35
2.11138e-37
8.85816e-40
3.67625e-42
1.57126e-44
6.1151e-47
2.64679e-49
9.92104e-52
3.92908e-54
1.36299e-56
4.66661e-59
1.48543e-61
5.56401e-64
2.19777e-66
1.03829e-68
4.48181e-71
1.96243e-73
7.97453e-76
3.0559e-78
1.06355e-80
3.63063e-83
1.2479e-85
3.93749e-88
1.31633e-90
4.00856e-93
6.42073e-100
1.27808e-101
2.76601e-104
8.93402e-107
3.10841e-109
1.11473e-111
3.9439e-114
1.42916e-116
5.09817e-119
1.89944e-121
7.06188e-124
2.7672e-126
1.09236e-128
4.54403e-131
1.90379e-133
8.34279e-136
3.65709e-138
1.678e-140
7.78424e-143
3.82028e-145
1.91006e-147
1.03046e-149
5.71281e-152
3.43947e-154
2.11749e-156
1.40017e-158
9.39064e-161
6.25591e-163
0
0
0
0
0
0
0
0
0
0
0
0
0
0
0
0
0
0
0
0
0
0
0
0
0
0
0
0
0
0
0
0
0
0
0
0
0
0
0
0
0
0
0
0
0
0
0
0
0
0
0
0
0
0
0
0
0
0
0
0
0
0
0
0
0
0
0
0
0
0
0
0
0
0
0
0
0
0
0
0
0
0
0
0
0
0
0
0
0
0
0
0
0
0
0
0
0
0
0
0
0
0
0
0
0
0
0
0
0
0
0
0
0
0
0
0
0
0
0
0
0
0
0
0
0
0
0
0
0
0
0
0
0
0
0
0
0
0
0
0
0
0
0
0
0
0
0
0
0
0
0
0
0
0
0
0
0
0
0
0
0
0
0
0
0
0
0
0
0
0
0
0
0
0
0
0
0
0
0
0
0
0
0
0
0
0
0
0
0
0
0
0
0
0
0
0
0
0
0
0
0
0
0
0
0
0
0
0
0
0
0
0
0
0
0
0
0
0
0
0
0
0
0
0
0
0
0
0
0
0
0
0
0
0
0
0
0
0
0
0
0
0
0
0
0
0
0
0
0
0
0
0
0
0
0
0
0
0
0
0
0
0
0
0
0
0
0
0
0
0
0
0
0
0
0
0
0
0
0
0
0
0
0
0
0
0
0
0
0
0
0
0
0
0
0
0
0
0
0
0
0
0
2658.4
2506.28
1817.89
239.274
62.5702
21.9032
6.51599
0.922965
0.00905184
9.82497e-06
1.36812e-08
1.83882e-11
2.14892e-14
1.90705e-17
7.96097e-23
2.15548e-23
3.85533e-25
4.67863e-27
3.55265e-29
1.985e-31
9.5039e-34
4.13505e-36
1.76526e-38
7.4326e-41
3.06993e-43
1.2787e-45
5.09529e-48
1.97446e-50
7.1577e-53
2.41618e-55
7.39739e-58
2.48209e-60
8.88678e-63
4.09325e-65
1.74735e-67
7.76459e-70
3.29294e-72
1.27842e-74
4.73607e-77
1.5833e-79
5.12462e-82
1.64537e-84
4.9749e-87
1.53576e-89
4.0889e-96
7.2927e-98
1.62127e-100
5.11974e-103
1.78285e-105
6.27194e-108
2.20396e-110
7.74215e-113
2.7253e-115
9.74886e-118
3.54659e-120
1.33056e-122
5.09981e-125
2.03842e-127
8.26268e-130
3.49833e-132
1.48819e-134
6.54867e-137
2.89725e-139
1.31783e-141
6.06832e-144
2.89897e-146
1.41465e-148
7.29105e-151
3.85067e-153
2.17498e-155
1.26952e-157
7.81432e-160
5.00243e-162
0
0
0
0
0
0
0
0
0
0
0
0
0
0
0
0
0
0
0
0
0
0
0
0
0
0
0
0
0
0
0
0
0
0
0
0
0
0
0
0
0
0
0
0
0
0
0
0
0
0
0
0
0
0
0
0
0
0
0
0
0
0
0
0
0
0
0
0
0
0
0
0
0
0
0
0
0
0
0
0
0
0
0
0
0
0
0
0
0
0
0
0
0
0
0
0
0
0
0
0
0
0
0
0
0
0
0
0
0
0
0
0
0
0
0
0
0
0
0
0
0
0
0
0
0
0
0
0
0
0
0
0
0
0
0
0
0
0
0
0
0
0
0
0
0
0
0
0
0
0
0
0
0
0
0
0
0
0
0
0
0
0
0
0
0
0
0
0
0
0
0
0
0
0
0
0
0
0
0
0
0
0
0
0
0
0
0
0
0
0
0
0
0
0
0
0
0
0
0
0
0
0
0
0
0
0
0
0
0
0
0
0
0
0
0
0
0
0
0
0
0
0
0
0
0
0
0
0
0
0
0
0
0
0
0
0
0
0
0
0
0
0
0
0
0
0
0
0
0
0
0
0
0
0
0
0
0
0
0
0
0
0
0
0
0
0
0
0
0
0
0
0
0
0
0
0
0
0
0
0
0
0
0
0
0
0
0
0
0
0
0
0
0
0
0
0
0
0
0
0
0
4365.18
4510.88
3912.56
2547.46
1704.95
410.384
145.353
35.146
3.12921
0.0420876
3.55393e-05
4.69951e-08
5.5543e-11
4.57053e-14
1.32594e-19
2.96003e-20
5.15314e-22
7.33163e-24
6.66481e-26
4.27284e-28
2.24057e-30
1.04841e-32
4.74226e-35
2.07284e-37
9.10452e-40
3.9126e-42
1.66671e-44
6.8793e-47
2.65009e-49
9.62566e-52
3.05572e-54
9.74034e-57
3.19701e-59
1.39455e-61
5.93951e-64
2.69319e-66
1.16344e-68
4.73869e-71
1.85773e-73
6.48358e-76
2.17337e-78
6.89438e-81
2.09164e-83
6.38609e-86
1.86886e-92
3.20387e-94
7.78087e-97
2.45083e-99
8.51217e-102
3.01647e-104
1.05835e-106
3.70998e-109
1.29419e-111
4.54793e-114
1.62692e-116
5.92222e-119
2.21815e-121
8.58242e-124
3.40048e-126
1.40131e-128
5.84587e-131
2.52409e-133
1.09046e-135
4.84511e-138
2.15233e-140
9.79569e-143
4.49051e-145
2.12899e-147
1.02223e-149
5.14883e-152
2.65887e-154
1.44819e-156
8.28927e-159
3.2071e-161
0
0
0
0
0
0
0
0
0
0
0
0
0
0
0
0
0
0
0
0
0
0
0
0
0
0
0
0
0
0
0
0
0
0
0
0
0
0
0
0
0
0
0
0
0
0
0
0
0
0
0
0
0
0
0
0
0
0
0
0
0
0
0
0
0
0
0
0
0
0
0
0
0
0
0
0
0
0
0
0
0
0
0
0
0
0
0
0
0
0
0
0
0
0
0
0
0
0
0
0
0
0
0
0
0
0
0
0
0
0
0
0
0
0
0
0
0
0
0
0
0
0
0
0
0
0
0
0
0
0
0
0
0
0
0
0
0
0
0
0
0
0
0
0
0
0
0
0
0
0
0
0
0
0
0
0
0
0
0
0
0
0
0
0
0
0
0
0
0
0
0
0
0
0
0
0
0
0
0
0
0
0
0
0
0
0
0
0
0
0
0
0
0
0
0
0
0
0
0
0
0
0
0
0
0
0
0
0
0
0
0
0
0
0
0
0
0
0
0
0
0
0
0
0
0
0
0
0
0
0
0
0
0
0
0
0
0
0
0
0
0
0
0
0
0
0
0
0
0
0
0
0
0
0
0
0
0
0
0
0
0
0
0
0
0
0
0
0
0
0
0
0
0
0
0
0
0
0
0
0
0
0
0
0
0
0
0
0
0
0
0
0
0
0
0
0
0
0
0
0
4498.68
4446.37
4447.77
3967.59
2751.16
2475.51
2197.77
538.489
86.795
6.34731
0.0841894
8.1731e-05
1.10887e-07
9.97573e-11
9.8091e-17
1.48133e-17
2.22444e-19
3.61632e-21
4.4794e-23
3.64644e-25
2.24316e-27
1.17458e-29
5.75404e-32
2.6939e-34
1.25611e-36
5.69692e-39
2.54605e-41
1.13009e-43
4.67764e-46
1.85993e-48
6.37765e-51
2.04477e-53
6.22527e-56
2.46885e-58
1.04503e-60
4.85539e-63
2.08595e-65
8.95876e-68
3.62835e-70
1.35371e-72
4.77658e-75
1.56592e-77
4.83706e-80
1.46502e-82
4.2729e-89
6.59958e-91
1.90859e-93
5.99919e-96
2.09517e-98
7.46127e-101
2.63524e-103
9.21377e-106
3.22103e-108
1.11396e-110
3.95259e-113
1.3981e-115
5.15495e-118
1.9208e-120
7.47885e-123
2.98222e-125
1.2261e-127
5.1854e-130
2.21691e-132
9.70816e-135
4.26072e-137
1.89757e-139
8.49947e-142
3.85731e-144
1.77265e-146
8.32588e-149
4.00543e-151
1.99552e-153
1.03643e-155
4.83971e-158
0
0
0
0
0
0
0
0
0
0
0
0
0
0
0
0
0
0
0
0
0
0
0
0
0
0
0
0
0
0
0
0
0
0
0
0
0
0
0
0
0
0
0
0
0
0
0
0
0
0
0
0
0
0
0
0
0
0
0
0
0
0
0
0
0
0
0
0
0
0
0
0
0
0
0
0
0
0
0
0
0
0
0
0
0
0
0
0
0
0
0
0
0
0
0
0
0
0
0
0
0
0
0
0
0
0
0
0
0
0
0
0
0
0
0
0
0
0
0
0
0
0
0
0
0
0
0
0
0
0
0
0
0
0
0
0
0
0
0
0
0
0
0
0
0
0
0
0
0
0
0
0
0
0
0
0
0
0
0
0
0
0
0
0
0
0
0
0
0
0
0
0
0
0
0
0
0
0
0
0
0
0
0
0
0
0
0
0
0
0
0
0
0
0
0
0
0
0
0
0
0
0
0
0
0
0
0
0
0
0
0
0
0
0
0
0
0
0
0
0
0
0
0
0
0
0
0
0
0
0
0
0
0
0
0
0
0
0
0
0
0
0
0
0
0
0
0
0
0
0
0
0
0
0
0
0
0
0
0
0
0
0
0
0
0
0
0
0
0
0
0
0
0
0
0
0
0
0
0
0
0
0
0
0
0
0
0
0
0
0
0
0
0
0
0
0
0
0
0
0
4496.88
4458.11
4438.44
4295.93
3727.35
3327.39
3036.81
2772.13
1033.01
133.178
9.37069
0.118116
0.000171533
1.57391e-07
3.83577e-14
3.14093e-15
3.63452e-17
5.28572e-19
8.93033e-21
1.14792e-22
9.1805e-25
5.68026e-27
3.15622e-29
1.61405e-31
8.0063e-34
3.93743e-36
1.81759e-38
8.67818e-41
3.87231e-43
1.70739e-45
6.54155e-48
2.28798e-50
6.79361e-53
2.40542e-55
1.01198e-57
4.71769e-60
2.07632e-62
9.30874e-65
3.85482e-67
1.53854e-69
5.73087e-72
1.96762e-74
6.35785e-77
1.97149e-79
4.98705e-86
7.13914e-88
2.37069e-90
7.85068e-93
2.77353e-95
1.00715e-97
3.59881e-100
1.27133e-102
4.45066e-105
1.54414e-107
5.40713e-110
1.89676e-112
6.82497e-115
2.48985e-117
9.41775e-120
3.66177e-122
1.47037e-124
6.09665e-127
2.574e-129
1.11711e-131
4.85987e-134
2.15759e-136
9.53981e-139
4.27692e-141
1.91912e-143
8.70369e-146
4.0167e-148
1.88693e-150
9.19127e-153
4.52743e-155
3.00348e-162
0
0
0
0
0
0
0
0
0
0
0
0
0
0
0
0
0
0
0
0
0
0
0
0
0
0
0
0
0
0
0
0
0
0
0
0
0
0
0
0
0
0
0
0
0
0
0
0
0
0
0
0
0
0
0
0
0
0
0
0
0
0
0
0
0
0
0
0
0
0
0
0
0
0
0
0
0
0
0
0
0
0
0
0
0
0
0
0
0
0
0
0
0
0
0
0
0
0
0
0
0
0
0
0
0
0
0
0
0
0
0
0
0
0
0
0
0
0
0
0
0
0
0
0
0
0
0
0
0
0
0
0
0
0
0
0
0
0
0
0
0
0
0
0
0
0
0
0
0
0
0
0
0
0
0
0
0
0
0
0
0
0
0
0
0
0
0
0
0
0
0
0
0
0
0
0
0
0
0
0
0
0
0
0
0
0
0
0
0
0
0
0
0
0
0
0
0
0
0
0
0
0
0
0
0
0
0
0
0
0
0
0
0
0
0
0
0
0
0
0
0
0
0
0
0
0
0
0
0
0
0
0
0
0
0
0
0
0
0
0
0
0
0
0
0
0
0
0
0
0
0
0
0
0
0
0
0
0
0
0
0
0
0
0
0
0
0
0
0
0
0
0
0
0
0
0
0
0
0
0
0
0
0
0
0
0
0
0
0
0
0
0
0
0
0
0
0
0
0
4532.48
4484.25
4472.72
4297.54
3702.24
3585.62
3426.82
3200.88
3297.78
1068.96
245.199
14.7677
0.242739
0.000200991
1.13533e-11
1.07565e-13
3.71945e-15
3.89874e-17
5.09924e-19
8.45424e-21
1.14408e-22
9.47748e-25
6.09763e-27
3.52333e-29
1.84808e-31
9.43188e-34
4.73166e-36
2.23328e-38
1.07985e-40
4.90861e-43
2.20646e-45
8.56999e-48
3.16496e-50
1.07895e-52
4.49344e-55
2.08373e-57
9.39867e-60
4.28402e-62
1.84502e-64
7.71174e-67
3.03678e-69
1.12396e-71
3.88629e-74
1.26974e-76
2.77966e-83
1.92755e-85
1.32168e-87
4.6073e-90
1.7082e-92
6.31437e-95
2.29546e-97
8.17113e-100
2.87387e-102
1.00011e-104
3.4664e-107
1.21531e-109
4.25034e-112
1.53902e-114
5.60257e-117
2.14085e-119
8.30714e-122
3.3754e-124
1.39852e-126
5.98881e-129
2.58915e-131
1.14747e-133
5.05467e-136
2.26762e-138
1.00617e-140
4.50614e-143
2.02547e-145
9.16868e-148
4.25091e-150
2.01283e-152
1.56089e-159
8.13866e-162
0
0
0
0
0
0
0
0
0
0
0
0
0
0
0
0
0
0
0
0
0
0
0
0
0
0
0
0
0
0
0
0
0
0
0
0
0
0
0
0
0
0
0
0
0
0
0
0
0
0
0
0
0
0
0
0
0
0
0
0
0
0
0
0
0
0
0
0
0
0
0
0
0
0
0
0
0
0
0
0
0
0
0
0
0
0
0
0
0
0
0
0
0
0
0
0
0
0
0
0
0
0
0
0
0
0
0
0
0
0
0
0
0
0
0
0
0
0
0
0
0
0
0
0
0
0
0
0
0
0
0
0
0
0
0
0
0
0
0
0
0
0
0
0
0
0
0
0
0
0
0
0
0
0
0
0
0
0
0
0
0
0
0
0
0
0
0
0
0
0
0
0
0
0
0
0
0
0
0
0
0
0
0
0
0
0
0
0
0
0
0
0
0
0
0
0
0
0
0
0
0
0
0
0
0
0
0
0
0
0
0
0
0
0
0
0
0
0
0
0
0
0
0
0
0
0
0
0
0
0
0
0
0
0
0
0
0
0
0
0
0
0
0
0
0
0
0
0
0
0
0
0
0
0
0
0
0
0
0
0
0
0
0
0
0
0
0
0
0
0
0
0
0
0
0
0
0
0
0
0
0
0
0
0
0
0
0
0
0
0
0
0
0
0
0
0
0
0
4589.98
4532.34
4570.3
4271.87
3870.69
3762.28
3637.82
3860.51
3613.38
4217.24
4875.18
347.842
18.5999
0.27996
0.000290853
6.19192e-07
2.97301e-09
2.04951e-11
1.28833e-13
1.48614e-15
2.19833e-17
1.99232e-19
1.30275e-21
7.68279e-24
4.50569e-26
2.74975e-28
1.71827e-30
1.09614e-32
7.09526e-35
4.48662e-37
2.82339e-39
1.74467e-41
1.05488e-43
6.06859e-46
3.40448e-48
1.80045e-50
9.10131e-53
4.52362e-55
2.11982e-57
9.92544e-60
4.49293e-62
1.93711e-64
8.08215e-67
3.18244e-69
1.191e-71
4.16362e-74
1.49447e-76
6.2228e-79
3.23095e-81
3.5677e-83
2.28608e-85
1.08975e-87
4.69392e-90
1.84027e-92
6.94025e-95
2.53948e-97
9.0505e-100
3.1955e-102
1.11225e-104
3.86354e-107
1.36266e-109
4.75652e-112
1.7393e-114
6.32508e-117
2.44779e-119
9.50142e-122
3.90864e-124
1.62623e-126
7.0311e-129
3.05709e-131
1.36944e-133
6.05011e-136
2.74504e-138
1.21939e-140
5.50206e-143
2.47754e-145
1.12297e-147
5.21918e-150
2.45416e-152
1.17484e-154
5.36646e-157
2.41861e-159
1.0547e-161
0
0
0
0
0
0
0
0
0
0
0
0
0
0
0
0
0
0
0
0
0
0
0
0
0
0
0
0
0
0
0
0
0
0
0
0
0
0
0
0
0
0
0
0
0
0
0
0
0
0
0
0
0
0
0
0
0
0
0
0
0
0
0
0
0
0
0
0
0
0
0
0
0
0
0
0
0
0
0
0
0
0
0
0
0
0
0
0
0
0
0
0
0
0
0
0
0
0
0
0
0
0
0
0
0
0
0
0
0
0
0
0
0
0
0
0
0
0
0
0
0
0
0
0
0
0
0
0
0
0
0
0
0
0
0
0
0
0
0
0
0
0
0
0
0
0
0
0
0
0
0
0
0
0
0
0
0
0
0
0
0
0
0
0
0
0
0
0
0
0
0
0
0
0
0
0
0
0
0
0
0
0
0
0
0
0
0
0
0
0
0
0
0
0
0
0
0
0
0
0
0
0
0
0
0
0
0
0
0
0
0
0
0
0
0
0
0
0
0
0
0
0
0
0
0
0
0
0
0
0
0
0
0
0
0
0
0
0
0
0
0
0
0
0
0
0
0
0
0
0
0
0
0
0
0
0
0
0
0
0
0
0
0
0
0
0
0
0
0
0
0
0
0
0
0
0
0
0
0
0
0
0
0
0
0
0
0
0
0
0
0
0
0
0
0
0
0
0
0
0
0
0
0
0
0
0
0
0
0
0
0
0
0
0
0
0
0
4672.69
4684.61
4402.03
4015.05
3741.12
3763.52
3962.81
4086.03
4092.63
4020.59
4482.37
1540.95
206.288
12.5378
0.185392
0.000208629
5.99797e-07
3.26071e-09
1.78748e-11
7.64965e-14
2.90914e-16
1.08026e-18
4.29293e-21
1.85239e-23
8.75533e-26
4.61856e-28
2.7264e-30
1.75431e-32
1.21154e-34
8.43725e-37
6.02403e-39
4.22072e-41
2.89563e-43
1.93989e-45
1.24449e-47
7.83171e-50
4.67192e-52
2.79079e-54
1.59343e-56
9.03427e-59
4.96836e-61
2.67432e-63
1.40245e-65
7.11265e-68
3.51513e-70
1.67387e-72
7.77594e-75
3.64271e-77
1.68989e-79
7.52009e-82
3.29491e-84
1.40892e-86
5.87879e-89
2.43151e-91
9.8349e-94
3.94921e-96
1.56682e-98
6.15684e-101
2.41485e-103
9.43486e-106
3.70771e-108
1.47209e-110
5.92051e-113
2.43766e-115
1.0236e-117
4.4174e-120
1.94489e-122
8.7571e-125
3.99971e-127
1.85223e-129
8.64268e-132
4.05929e-134
1.91148e-136
9.02343e-139
4.26099e-141
2.01458e-143
9.53998e-146
4.53197e-148
2.16395e-150
1.03985e-152
4.99636e-155
2.38161e-157
1.12379e-159
4.64746e-162
0
0
0
0
0
0
0
0
0
0
0
0
0
0
0
0
0
0
0
0
0
0
0
0
0
0
0
0
0
0
0
0
0
0
0
0
0
0
0
0
0
0
0
0
0
0
0
0
0
0
0
0
0
0
0
0
0
0
0
0
0
0
0
0
0
0
0
0
0
0
0
0
0
0
0
0
0
0
0
0
0
0
0
0
0
0
0
0
0
0
0
0
0
0
0
0
0
0
0
0
0
0
0
0
0
0
0
0
0
0
0
0
0
0
0
0
0
0
0
0
0
0
0
0
0
0
0
0
0
0
0
0
0
0
0
0
0
0
0
0
0
0
0
0
0
0
0
0
0
0
0
0
0
0
0
0
0
0
0
0
0
0
0
0
0
0
0
0
0
0
0
0
0
0
0
0
0
0
0
0
0
0
0
0
0
0
0
0
0
0
0
0
0
0
0
0
0
0
0
0
0
0
0
0
0
0
0
0
0
0
0
0
0
0
0
0
0
0
0
0
0
0
0
0
0
0
0
0
0
0
0
0
0
0
0
0
0
0
0
0
0
0
0
0
0
0
0
0
0
0
0
0
0
0
0
0
0
0
0
0
0
0
0
0
0
0
0
0
0
0
0
0
0
0
0
0
0
0
0
0
0
0
0
0
0
0
0
0
0
0
0
0
0
0
0
0
0
0
0
0
0
0
0
0
0
0
0
0
0
0
0
0
0
0
0
0
4509.82
4221
3723.39
3313.71
3284.96
3678.47
3886.31
4128.66
4348.96
4245.81
4246.61
4091.18
670.609
74.7867
3.71811
0.00972995
2.59529e-05
7.15988e-08
1.90995e-10
4.53969e-13
1.06041e-15
2.59064e-18
7.07315e-21
2.16796e-23
7.40704e-26
2.75831e-28
1.10613e-30
4.86838e-33
2.45567e-35
1.37627e-37
8.6306e-40
5.58033e-42
3.68667e-44
2.41531e-46
1.54626e-48
9.75217e-51
5.83811e-53
3.49107e-55
2.01415e-57
1.14479e-59
6.35153e-62
3.48825e-64
1.86604e-66
1.00653e-68
5.31581e-71
2.80684e-73
1.46731e-75
6.77749e-78
3.06041e-80
1.30573e-82
5.54044e-85
2.29701e-87
9.40498e-90
3.78299e-92
1.49349e-94
5.83888e-97
2.24132e-99
8.59694e-102
3.27521e-104
1.25052e-106
4.82279e-109
1.87513e-111
7.45432e-114
3.02979e-116
1.26409e-118
5.43484e-121
2.39398e-123
1.08467e-125
4.99972e-128
2.34973e-130
1.11519e-132
5.34992e-135
2.57504e-137
1.24577e-139
6.02072e-142
2.91571e-144
1.41063e-146
6.83499e-149
3.31958e-151
1.61598e-153
7.89145e-156
3.86127e-158
1.89012e-160
0
0
0
0
0
0
0
0
0
0
0
0
0
0
0
0
0
0
0
0
0
0
0
0
0
0
0
0
0
0
0
0
0
0
0
0
0
0
0
0
0
0
0
0
0
0
0
0
0
0
0
0
0
0
0
0
0
0
0
0
0
0
0
0
0
0
0
0
0
0
0
0
0
0
0
0
0
0
0
0
0
0
0
0
0
0
0
0
0
0
0
0
0
0
0
0
0
0
0
0
0
0
0
0
0
0
0
0
0
0
0
0
0
0
0
0
0
0
0
0
0
0
0
0
0
0
0
0
0
0
0
0
0
0
0
0
0
0
0
0
0
0
0
0
0
0
0
0
0
0
0
0
0
0
0
0
0
0
0
0
0
0
0
0
0
0
0
0
0
0
0
0
0
0
0
0
0
0
0
0
0
0
0
0
0
0
0
0
0
0
0
0
0
0
0
0
0
0
0
0
0
0
0
0
0
0
0
0
0
0
0
0
0
0
0
0
0
0
0
0
0
0
0
0
0
0
0
0
0
0
0
0
0
0
0
0
0
0
0
0
0
0
0
0
0
0
0
0
0
0
0
0
0
0
0
0
0
0
0
0
0
0
0
0
0
0
0
0
0
0
0
0
0
0
0
0
0
0
0
0
0
0
0
0
0
0
0
0
0
0
0
0
0
0
0
0
0
0
0
0
0
0
0
0
0
0
0
0
0
0
0
0
0
0
0
0
0
3631.44
3331.05
2945.67
2773.65
2874.87
3147.25
3498.15
3661.81
4032.35
4144.28
4244.28
4043.81
731.309
89.4957
5.80166
0.0194037
5.67223e-05
1.44706e-07
3.13452e-10
6.01077e-13
1.06304e-15
1.89641e-18
3.55026e-21
7.51004e-24
1.78034e-26
4.82473e-29
1.42997e-31
4.54025e-34
1.56659e-36
6.14478e-39
2.81548e-41
1.52647e-43
9.04075e-46
5.57031e-48
3.44128e-50
2.09183e-52
1.22604e-54
7.1291e-57
3.99499e-59
2.21675e-61
1.1986e-63
6.37371e-66
3.32032e-68
1.69281e-70
8.46935e-73
4.18119e-75
1.98879e-77
9.26146e-80
4.11964e-82
1.76791e-84
7.45357e-87
3.06458e-89
1.2476e-91
4.93799e-94
1.94398e-96
7.52827e-99
2.90389e-101
1.11541e-103
4.2773e-106
1.65376e-108
6.44716e-111
2.55573e-113
1.0397e-115
4.31584e-118
1.85286e-120
8.1438e-123
3.68485e-125
1.70028e-127
7.99441e-130
3.80913e-132
1.83227e-134
8.88056e-137
4.31856e-139
2.10868e-141
1.02924e-143
5.04181e-146
2.46749e-148
1.2133e-150
5.97889e-153
2.95803e-155
1.46672e-157
7.29143e-160
3.98234e-162
0
0
0
0
0
0
0
0
0
0
0
0
0
0
0
0
0
0
0
0
0
0
0
0
0
0
0
0
0
0
0
0
0
0
0
0
0
0
0
0
0
0
0
0
0
0
0
0
0
0
0
0
0
0
0
0
0
0
0
0
0
0
0
0
0
0
0
0
0
0
0
0
0
0
0
0
0
0
0
0
0
0
0
0
0
0
0
0
0
0
0
0
0
0
0
0
0
0
0
0
0
0
0
0
0
0
0
0
0
0
0
0
0
0
0
0
0
0
0
0
0
0
0
0
0
0
0
0
0
0
0
0
0
0
0
0
0
0
0
0
0
0
0
0
0
0
0
0
0
0
0
0
0
0
0
0
0
0
0
0
0
0
0
0
0
0
0
0
0
0
0
0
0
0
0
0
0
0
0
0
0
0
0
0
0
0
0
0
0
0
0
0
0
0
0
0
0
0
0
0
0
0
0
0
0
0
0
0
0
0
0
0
0
0
0
0
0
0
0
0
0
0
0
0
0
0
0
0
0
0
0
0
0
0
0
0
0
0
0
0
0
0
0
0
0
0
0
0
0
0
0
0
0
0
0
0
0
0
0
0
0
0
0
0
0
0
0
0
0
0
0
0
0
0
0
0
0
0
0
0
0
0
0
0
0
0
0
0
0
0
0
0
0
0
0
0
0
0
0
0
0
0
0
0
0
0
0
0
0
0
0
0
0
0
0
0
0
2845.01
2718.03
2499.82
2544.11
2625.65
2746.91
2876.93
3410.43
3614.17
4053.26
4005.66
3883.74
546.414
52.2031
2.71037
0.00663704
1.51373e-05
3.05503e-08
5.59152e-11
9.48504e-14
1.49713e-16
2.3226e-19
3.49911e-22
5.66209e-25
9.78471e-28
1.87297e-30
3.98472e-33
9.35804e-36
2.52444e-38
8.61562e-41
3.71702e-43
2.00535e-45
1.18189e-47
7.11908e-50
4.3045e-52
2.51891e-54
1.4497e-56
8.08829e-59
4.421e-61
2.36218e-63
1.24653e-65
6.39871e-68
3.25071e-70
1.59927e-72
7.77487e-75
3.69175e-77
1.70837e-79
7.72277e-82
3.35611e-84
1.42397e-86
5.88344e-89
2.38763e-91
9.52314e-94
3.72242e-96
1.45045e-98
5.55926e-101
2.14237e-103
8.19051e-106
3.16405e-108
1.23252e-110
4.87258e-113
1.97386e-115
8.18642e-118
3.49282e-120
1.53759e-122
6.91779e-125
3.19832e-127
1.50026e-129
7.15789e-132
3.44627e-134
1.67337e-136
8.16272e-139
3.99386e-141
1.95832e-143
9.60643e-146
4.72458e-148
2.32493e-150
1.14957e-152
5.69353e-155
2.83251e-157
1.41044e-159
6.90681e-162
0
0
0
0
0
0
0
0
0
0
0
0
0
0
0
0
0
0
0
0
0
0
0
0
0
0
0
0
0
0
0
0
0
0
0
0
0
0
0
0
0
0
0
0
0
0
0
0
0
0
0
0
0
0
0
0
0
0
0
0
0
0
0
0
0
0
0
0
0
0
0
0
0
0
0
0
0
0
0
0
0
0
0
0
0
0
0
0
0
0
0
0
0
0
0
0
0
0
0
0
0
0
0
0
0
0
0
0
0
0
0
0
0
0
0
0
0
0
0
0
0
0
0
0
0
0
0
0
0
0
0
0
0
0
0
0
0
0
0
0
0
0
0
0
0
0
0
0
0
0
0
0
0
0
0
0
0
0
0
0
0
0
0
0
0
0
0
0
0
0
0
0
0
0
0
0
0
0
0
0
0
0
0
0
0
0
0
0
0
0
0
0
0
0
0
0
0
0
0
0
0
0
0
0
0
0
0
0
0
0
0
0
0
0
0
0
0
0
0
0
0
0
0
0
0
0
0
0
0
0
0
0
0
0
0
0
0
0
0
0
0
0
0
0
0
0
0
0
0
0
0
0
0
0
0
0
0
0
0
0
0
0
0
0
0
0
0
0
0
0
0
0
0
0
0
0
0
0
0
0
0
0
0
0
0
0
0
0
0
0
0
0
0
0
0
0
0
0
0
0
0
0
0
0
0
0
0
0
0
0
0
0
0
0
0
0
0
0
2334.74
2067.83
2479.56
2462.87
2452.69
2456.96
753.88
414.892
388.208
417.852
435.181
340.927
68.5301
5.06322
0.0461377
8.67024e-05
2.29702e-07
5.52327e-10
1.10285e-12
1.86865e-15
2.7804e-18
3.62747e-21
4.64782e-24
6.27302e-27
9.41205e-30
1.67498e-32
3.49664e-35
8.40496e-38
2.44049e-40
9.22544e-43
4.34286e-45
2.4104e-47
1.41052e-49
8.30544e-52
4.86004e-54
2.74568e-56
1.53303e-58
8.20042e-61
4.34791e-63
2.23544e-65
1.14245e-67
5.67295e-70
2.79641e-72
1.3334e-74
6.29383e-77
2.8978e-79
1.30467e-81
5.73103e-84
2.44827e-86
1.02095e-88
4.14733e-91
1.66011e-93
6.49477e-96
2.52325e-98
9.71012e-101
3.71232e-103
1.425e-105
5.45574e-108
2.12471e-110
8.34156e-113
3.36118e-115
1.38776e-117
5.89e-120
2.57961e-122
1.15812e-124
5.3272e-127
2.50133e-129
1.18963e-131
5.73533e-134
2.78225e-136
1.35962e-138
6.65982e-141
3.26997e-143
1.60694e-145
7.90164e-148
3.89145e-150
1.92017e-152
9.50922e-155
4.71862e-157
2.3487e-159
1.16838e-161
0
0
0
0
0
0
0
0
0
0
0
0
0
0
0
0
0
0
0
0
0
0
0
0
0
0
0
0
0
0
0
0
0
0
0
0
0
0
0
0
0
0
0
0
0
0
0
0
0
0
0
0
0
0
0
0
0
0
0
0
0
0
0
0
0
0
0
0
0
0
0
0
0
0
0
0
0
0
0
0
0
0
0
0
0
0
0
0
0
0
0
0
0
0
0
0
0
0
0
0
0
0
0
0
0
0
0
0
0
0
0
0
0
0
0
0
0
0
0
0
0
0
0
0
0
0
0
0
0
0
0
0
0
0
0
0
0
0
0
0
0
0
0
0
0
0
0
0
0
0
0
0
0
0
0
0
0
0
0
0
0
0
0
0
0
0
0
0
0
0
0
0
0
0
0
0
0
0
0
0
0
0
0
0
0
0
0
0
0
0
0
0
0
0
0
0
0
0
0
0
0
0
0
0
0
0
0
0
0
0
0
0
0
0
0
0
0
0
0
0
0
0
0
0
0
0
0
0
0
0
0
0
0
0
0
0
0
0
0
0
0
0
0
0
0
0
0
0
0
0
0
0
0
0
0
0
0
0
0
0
0
0
0
0
0
0
0
0
0
0
0
0
0
0
0
0
0
0
0
0
0
0
0
0
0
0
0
0
0
0
0
0
0
0
0
0
0
0
0
0
0
0
0
0
0
0
0
0
0
0
0
0
0
0
0
0
0
0
0
2097.89
2503.46
556.202
339.656
249.342
195.57
72.7701
34.7008
28.7254
30.1289
30.5282
21.5371
4.11591
0.0623706
0.000167901
4.80362e-07
1.24023e-09
2.7287e-12
5.15275e-15
8.17127e-18
1.19002e-20
1.54546e-23
2.08964e-26
3.06071e-29
5.18266e-32
1.02948e-34
2.3969e-37
6.61412e-40
2.27724e-42
9.93038e-45
5.14684e-47
2.86829e-49
1.6609e-51
9.52525e-54
5.37694e-56
2.94198e-58
1.58362e-60
8.15164e-63
4.17642e-65
2.06633e-67
1.02164e-69
4.9102e-72
2.34243e-74
1.08909e-76
4.96791e-79
2.22704e-81
9.72628e-84
4.17281e-86
1.74275e-88
7.14258e-91
2.86043e-93
1.12864e-95
4.39066e-98
1.69487e-100
6.47393e-103
2.47924e-105
9.49135e-108
3.6644e-110
1.43766e-112
5.73061e-115
2.35623e-117
9.90681e-120
4.30767e-122
1.92557e-124
8.80599e-127
4.12084e-129
1.95428e-131
9.39667e-134
4.5575e-136
2.22435e-138
1.09061e-140
5.35707e-143
2.63433e-145
1.29551e-147
6.37395e-150
3.1385e-152
1.54902e-154
7.66239e-157
3.80017e-159
1.89123e-161
0
0
0
0
0
0
0
0
0
0
0
0
0
0
0
0
0
0
0
0
0
0
0
0
0
0
0
0
0
0
0
0
0
0
0
0
0
0
0
0
0
0
0
0
0
0
0
0
0
0
0
0
0
0
0
0
0
0
0
0
0
0
0
0
0
0
0
0
0
0
0
0
0
0
0
0
0
0
0
0
0
0
0
0
0
0
0
0
0
0
0
0
0
0
0
0
0
0
0
0
0
0
0
0
0
0
0
0
0
0
0
0
0
0
0
0
0
0
0
0
0
0
0
0
0
0
0
0
0
0
0
0
0
0
0
0
0
0
0
0
0
0
0
0
0
0
0
0
0
0
0
0
0
0
0
0
0
0
0
0
0
0
0
0
0
0
0
0
0
0
0
0
0
0
0
0
0
0
0
0
0
0
0
0
0
0
0
0
0
0
0
0
0
0
0
0
0
0
0
0
0
0
0
0
0
0
0
0
0
0
0
0
0
0
0
0
0
0
0
0
0
0
0
0
0
0
0
0
0
0
0
0
0
0
0
0
0
0
0
0
0
0
0
0
0
0
0
0
0
0
0
0
0
0
0
0
0
0
0
0
0
0
0
0
0
0
0
0
0
0
0
0
0
0
0
0
0
0
0
0
0
0
0
0
0
0
0
0
0
0
0
0
0
0
0
0
0
0
0
0
0
0
0
0
0
0
0
0
0
0
0
0
0
0
0
0
0
0
0
0
222.28
174.063
57.5831
30.8947
19.5415
11.6321
3.66776
1.45556
1.02382
1.13066
1.08667
0.566815
0.0448367
0.000358976
8.66468e-07
2.07606e-09
4.74241e-12
9.57375e-15
1.67023e-17
2.61315e-20
3.7283e-23
5.10024e-26
7.7342e-29
1.28124e-31
2.517e-34
5.79136e-37
1.57907e-39
5.32342e-42
2.23131e-44
1.09459e-46
5.97371e-49
3.33337e-51
1.87636e-53
1.05254e-55
5.72905e-58
3.04143e-60
1.57e-62
7.84566e-65
3.84564e-67
1.85438e-69
8.78933e-72
4.13365e-74
1.89366e-76
8.63728e-79
3.80106e-81
1.66779e-83
7.09035e-86
2.97289e-88
1.22379e-90
4.92298e-93
1.96002e-95
7.63096e-98
2.96329e-100
1.13513e-102
4.32977e-105
1.65977e-107
6.36547e-110
2.48424e-112
9.82533e-115
3.99478e-117
1.66932e-119
7.18095e-122
3.18434e-124
1.4454e-126
6.71523e-129
3.17428e-131
1.51652e-133
7.3396e-136
3.57057e-138
1.7465e-140
8.57327e-143
4.2102e-145
2.06844e-147
1.01521e-149
4.98073e-152
2.44294e-154
1.19926e-156
5.88831e-159
2.89671e-161
0
0
0
0
0
0
0
0
0
0
0
0
0
0
0
0
0
0
0
0
0
0
0
0
0
0
0
0
0
0
0
0
0
0
0
0
0
0
0
0
0
0
0
0
0
0
0
0
0
0
0
0
0
0
0
0
0
0
0
0
0
0
0
0
0
0
0
0
0
0
0
0
0
0
0
0
0
0
0
0
0
0
0
0
0
0
0
0
0
0
0
0
0
0
0
0
0
0
0
0
0
0
0
0
0
0
0
0
0
0
0
0
0
0
0
0
0
0
0
0
0
0
0
0
0
0
0
0
0
0
0
0
0
0
0
0
0
0
0
0
0
0
0
0
0
0
0
0
0
0
0
0
0
0
0
0
0
0
0
0
0
0
0
0
0
0
0
0
0
0
0
0
0
0
0
0
0
0
0
0
0
0
0
0
0
0
0
0
0
0
0
0
0
0
0
0
0
0
0
0
0
0
0
0
0
0
0
0
0
0
0
0
0
0
0
0
0
0
0
0
0
0
0
0
0
0
0
0
0
0
0
0
0
0
0
0
0
0
0
0
0
0
0
0
0
0
0
0
0
0
0
0
0
0
0
0
0
0
0
0
0
0
0
0
0
0
0
0
0
0
0
0
0
0
0
0
0
0
0
0
0
0
0
0
0
0
0
0
0
0
0
0
0
0
0
0
0
0
0
0
0
0
0
0
0
0
0
0
0
0
0
0
0
0
0
0
0
0
0
0
0
27.7341
13.3624
2.80928
0.173717
0.00672607
0.000192994
8.44143e-06
1.19637e-07
1.54702e-09
2.04081e-11
2.82979e-13
4.44094e-15
6.53592e-17
8.3368e-19
2.6831e-31
5.72809e-32
9.87365e-34
1.01411e-35
7.50426e-38
4.58911e-40
2.50606e-42
1.28787e-44
6.29549e-47
2.99927e-49
1.3849e-51
6.1704e-54
2.63188e-56
1.07175e-58
4.16376e-61
1.56599e-63
5.78749e-66
2.22492e-68
8.72462e-71
3.5383e-73
1.44421e-75
5.83425e-78
2.30824e-80
8.92708e-83
3.36754e-85
1.25277e-87
4.56781e-90
1.67343e-92
6.04146e-95
2.22165e-97
4.47552e-105
9.10868e-107
3.74629e-109
1.332e-111
4.70277e-114
1.70423e-116
6.48145e-119
2.65999e-121
1.22594e-123
6.44124e-126
3.77122e-128
2.32299e-130
1.4363e-132
8.71253e-135
5.12506e-137
2.93059e-139
1.63376e-141
8.92286e-144
4.80643e-146
2.55884e-148
1.35229e-150
7.11241e-153
3.73199e-155
1.96525e-157
1.037e-159
3.97528e-162
0
0
0
0
0
0
0
0
0
0
0
0
0
0
0
0
0
0
0
0
0
0
0
0
0
0
0
0
0
0
0
0
0
0
0
0
0
0
0
0
0
0
0
0
0
0
0
0
0
0
0
0
0
0
0
0
0
0
0
0
0
0
0
0
0
0
0
0
0
0
0
0
0
0
0
0
0
0
0
0
0
0
0
0
0
0
0
0
0
0
0
0
0
0
0
0
0
0
0
0
0
0
0
0
0
0
0
0
0
0
0
0
0
0
0
0
0
0
0
0
0
0
0
0
0
0
0
0
0
0
0
0
0
0
0
0
0
0
0
0
0
0
0
0
0
0
0
0
0
0
0
0
0
0
0
0
0
0
0
0
0
0
0
0
0
0
0
0
0
0
0
0
0
0
0
0
0
0
0
0
0
0
0
0
0
0
0
0
0
0
0
0
0
0
0
0
0
0
0
0
0
0
0
0
0
0
0
0
0
0
0
0
0
0
0
0
0
0
0
0
0
0
0
0
0
0
0
0
0
0
0
0
0
0
0
0
0
0
0
0
0
0
0
0
0
0
0
0
0
0
0
0
0
0
0
0
0
0
0
0
0
0
0
0
0
0
0
0
0
0
0
0
0
0
0
0
0
0
0
0
0
0
0
0
0
0
0
0
0
0
0
0
0
0
0
0
0
0
0
0
0
0
0
0
123.495
76.5195
21.1929
3.89491
0.494296
0.00846506
0.00090313
7.80014e-06
5.20905e-08
3.75142e-10
3.01558e-12
2.76092e-14
2.97005e-16
3.15799e-18
6.31305e-29
1.29655e-29
2.37566e-31
2.50216e-33
1.77487e-35
9.97494e-38
4.96671e-40
2.35146e-42
1.06849e-44
4.77549e-47
2.14819e-49
9.10793e-52
3.86081e-54
1.52726e-56
5.82003e-59
2.1246e-61
7.69504e-64
2.96028e-66
1.22624e-68
5.21601e-71
2.25161e-73
9.30738e-76
3.74988e-78
1.42177e-80
5.29018e-83
1.91178e-85
6.74011e-88
2.3843e-90
8.28792e-93
2.87688e-95
1.58984e-102
3.22166e-104
1.049e-106
3.25401e-109
1.09059e-111
3.80444e-114
1.37535e-116
5.06324e-119
1.94105e-121
7.8122e-124
3.40523e-126
1.63381e-128
8.57491e-131
4.77387e-133
2.7285e-135
1.55754e-137
8.86023e-140
4.98088e-142
2.78357e-144
1.54863e-146
8.57888e-149
4.77229e-151
2.65929e-153
1.50098e-155
8.56899e-158
4.97951e-160
0
0
0
0
0
0
0
0
0
0
0
0
0
0
0
0
0
0
0
0
0
0
0
0
0
0
0
0
0
0
0
0
0
0
0
0
0
0
0
0
0
0
0
0
0
0
0
0
0
0
0
0
0
0
0
0
0
0
0
0
0
0
0
0
0
0
0
0
0
0
0
0
0
0
0
0
0
0
0
0
0
0
0
0
0
0
0
0
0
0
0
0
0
0
0
0
0
0
0
0
0
0
0
0
0
0
0
0
0
0
0
0
0
0
0
0
0
0
0
0
0
0
0
0
0
0
0
0
0
0
0
0
0
0
0
0
0
0
0
0
0
0
0
0
0
0
0
0
0
0
0
0
0
0
0
0
0
0
0
0
0
0
0
0
0
0
0
0
0
0
0
0
0
0
0
0
0
0
0
0
0
0
0
0
0
0
0
0
0
0
0
0
0
0
0
0
0
0
0
0
0
0
0
0
0
0
0
0
0
0
0
0
0
0
0
0
0
0
0
0
0
0
0
0
0
0
0
0
0
0
0
0
0
0
0
0
0
0
0
0
0
0
0
0
0
0
0
0
0
0
0
0
0
0
0
0
0
0
0
0
0
0
0
0
0
0
0
0
0
0
0
0
0
0
0
0
0
0
0
0
0
0
0
0
0
0
0
0
0
0
0
0
0
0
0
0
0
0
0
0
0
0
0
0
139.702
104.373
40.5956
10.1898
2.92205
0.966132
0.248586
0.00253741
7.02598e-06
9.69003e-09
1.65833e-11
2.34189e-14
3.84226e-17
7.56112e-20
3.17156e-26
6.24871e-27
1.13202e-28
1.24213e-30
8.75668e-33
4.71595e-35
2.11356e-37
9.04897e-40
3.72164e-42
1.47375e-44
6.4054e-47
2.45582e-49
1.02981e-51
3.73529e-54
1.36923e-56
4.47118e-59
1.51557e-61
5.26974e-64
2.33027e-66
9.90315e-69
4.58872e-71
1.94896e-73
7.99363e-76
2.98834e-78
1.07877e-80
3.65278e-83
1.19558e-85
4.12046e-88
1.2946e-90
4.00326e-93
6.85918e-100
1.44512e-101
2.88183e-104
9.08252e-107
3.21865e-109
1.1376e-111
4.07548e-114
1.43183e-116
5.20145e-119
1.88031e-121
7.14575e-124
2.72582e-126
1.10144e-128
4.48179e-131
1.91825e-133
8.22906e-136
3.68767e-138
1.66147e-140
7.8592e-143
3.77306e-145
1.93476e-147
1.01521e-149
5.79895e-152
3.39129e-154
2.14233e-156
1.38549e-158
9.43441e-161
6.23669e-163
0
0
0
0
0
0
0
0
0
0
0
0
0
0
0
0
0
0
0
0
0
0
0
0
0
0
0
0
0
0
0
0
0
0
0
0
0
0
0
0
0
0
0
0
0
0
0
0
0
0
0
0
0
0
0
0
0
0
0
0
0
0
0
0
0
0
0
0
0
0
0
0
0
0
0
0
0
0
0
0
0
0
0
0
0
0
0
0
0
0
0
0
0
0
0
0
0
0
0
0
0
0
0
0
0
0
0
0
0
0
0
0
0
0
0
0
0
0
0
0
0
0
0
0
0
0
0
0
0
0
0
0
0
0
0
0
0
0
0
0
0
0
0
0
0
0
0
0
0
0
0
0
0
0
0
0
0
0
0
0
0
0
0
0
0
0
0
0
0
0
0
0
0
0
0
0
0
0
0
0
0
0
0
0
0
0
0
0
0
0
0
0
0
0
0
0
0
0
0
0
0
0
0
0
0
0
0
0
0
0
0
0
0
0
0
0
0
0
0
0
0
0
0
0
0
0
0
0
0
0
0
0
0
0
0
0
0
0
0
0
0
0
0
0
0
0
0
0
0
0
0
0
0
0
0
0
0
0
0
0
0
0
0
0
0
0
0
0
0
0
0
0
0
0
0
0
0
0
0
0
0
0
0
0
0
0
0
0
0
0
0
0
0
0
0
0
0
0
0
0
0
0
2768.55
2546.59
1655.16
243.745
61.3384
23.3782
8.49115
1.46431
0.0306733
2.46216e-05
2.31079e-08
2.87032e-11
2.91546e-14
2.30636e-17
1.17e-22
2.14806e-23
3.73473e-25
4.47335e-27
3.51191e-29
2.00288e-31
9.48496e-34
4.18847e-36
1.75376e-38
7.29878e-41
3.06155e-43
1.24582e-45
5.04866e-48
1.93712e-50
7.02126e-53
2.3357e-55
7.53932e-58
2.34737e-60
9.48099e-63
3.86606e-65
1.79759e-67
7.74868e-70
3.23961e-72
1.30457e-74