/*--------------------------------*- C++ -*----------------------------------*\
| =========                 |                                                 |
| \\      /  F ield         | OpenFOAM: The Open Source CFD Toolbox           |
|  \\    /   O peration     | Version:  2.1.1                                 |
|   \\  /    A nd           | Web:      www.OpenFOAM.org                      |
|    \\/     M anipulation  |                                                 |
\*---------------------------------------------------------------------------*/
FoamFile
{
    version     2.0;
    format      ascii;
    class       volScalarField;
    location    "0.000800000";
    object      Tu;
}
// * * * * * * * * * * * * * * * * * * * * * * * * * * * * * * * * * * * * * //

dimensions      [0 0 0 1 0 0 0];

internalField   nonuniform List<scalar> 
12384
(
309.958
314.205
314.701
314.855
313.096
313.988
311.786
312.735
311.51
310.452
310.191
309.699
312.205
312.549
304.506
304.596
304.664
304.767
304.845
304.789
304.7
304.421
304.263
304.175
304.476
304.541
304.801
304.504
303.846
302.616
302.948
300.988
301.628
301.212
301.208
301.171
301.192
300.751
300.594
299.88
300.201
299.195
299.77
299.088
294.855
294.745
294.782
294.661
294.676
294.569
294.441
294.452
294.181
294.253
294.037
293.934
293.986
293.787
293.848
293.745
293.715
293.73
293.656
293.584
293.588
293.391
293.442
293.182
293.263
293.111
293.059
293.098
293.026
293.053
293.002
293.003
293.003
293.002
293.004
293.002
293.002
293.002
293.002
293.003
293.002
293.003
293.002
293.001
293.001
293.001
293.001
293.002
293.003
293.003
293.001
293.003
293.002
293.002
293.002
293.004
293.003
293.002
293.002
293.002
293.002
293.002
293.002
293.002
293.003
293.002
293.002
293.002
293.002
293.003
293.003
293.003
293.001
293.001
293.002
293.001
293.001
293.001
293.003
293.003
293.003
293.002
293.002
293.002
293.002
293.003
293.002
293.002
293.002
293.002
293.002
293.003
293.002
293.003
293.004
293.002
293.002
293.002
293.003
293.001
293.003
293.002
293.001
293.002
293.002
293.001
293.001
293.002
293.003
293.003
293.001
293.003
293.002
293.002
293.002
293.003
293.003
293.002
293.002
293.002
293.002
293.002
293.002
293.002
293.003
293.002
293.003
293.002
293.002
293.003
293.003
293.003
293.001
293.001
293.001
293.001
293.001
293.002
293.003
293.003
293.001
293.003
293.002
293.002
293.002
293.003
293.003
293.003
293.003
293.002
293.002
293.003
293.003
293.002
293.004
293.002
293.001
293.002
293.002
293.003
293.003
293.003
293.001
293.001
293.001
293.001
293.001
293.002
293.003
293.003
293.001
293.003
293.002
293.002
293.002
293.003
293.003
293.002
293.002
293.002
293.003
293.002
293.002
293.003
293.003
293.002
293.001
293.002
293.002
293.003
293.003
293.003
293.001
293.001
293.001
293.001
293.001
293.002
293.003
293.003
293.001
293.003
293.002
293.002
293.002
293.004
293.003
293.002
293.002
293.002
293.003
293.003
293.002
293.003
293.004
293.002
293.002
293.002
293.003
293.001
293.003
293.003
293.002
293.001
293.001
293.002
293.002
293.001
293.002
293.002
293.001
293.002
293.002
293.002
293.002
293.004
293.002
293.002
293.003
293.002
293.002
293.002
293.002
293.002
293.003
293.002
293.001
293.002
293.002
293.003
293.003
293.003
293.001
293.001
293.001
293.001
293.001
293.002
293.003
293.003
293.001
293.003
293.002
293.002
293.002
293.004
293.003
293.002
293.002
293.002
293.002
293.003
293.003
293.002
293.004
293.002
293.002
293.003
293.001
293.003
293.002
293.003
293.002
293.001
293.001
293.002
293.001
293.001
293.002
293.003
293.002
293.001
293.003
293.002
293.002
293.003
293.002
293.003
293.002
293.002
293.003
293.003
293.003
293.004
293.004
293.002
293.002
293.002
293.001
293.002
293.002
293.002
293.001
293.001
293.002
293.002
293.002
293.002
293
293.001
293.001
293.002
293.002
293.002
293.002
293.004
293.002
293.002
293.003
293.002
289.942
287.396
306.577
311.335
313.007
311.245
312.583
311.698
311.424
310.342
309.968
309.979
310.547
312.987
304.306
304.333
304.258
304.354
304.393
304.629
304.493
304.526
304.44
304.337
304.299
304.567
304.434
304.298
303.857
302.953
302.817
301.549
301.4
301.324
301.088
301.223
300.903
300.761
300.565
299.983
299.96
299.46
299.55
299.203
294.809
294.851
294.797
294.774
294.681
294.61
294.536
294.434
294.305
294.157
294.192
293.93
294.001
293.827
293.806
293.798
293.722
293.693
293.678
293.583
293.548
293.448
293.356
293.301
293.166
293.194
293.044
293.101
293.033
293.045
293.003
293.003
293.003
293.002
293.001
293.004
293
293.003
292.999
293.003
292.999
293.002
292.999
293.002
292.998
293.001
292.999
293.001
293
293.002
292.999
293.003
292.999
293.003
293
293.002
293.003
293.001
293.002
293
293.003
293.002
293.003
293.001
293.003
293.003
293
293.002
292.999
293.003
292.999
293.002
293
293.001
293.001
292.999
293.002
292.999
293.002
292.999
293.003
292.999
293.002
293
293.003
293.003
293.001
293.003
293.002
293.003
293.002
293.001
293.003
293
293.004
293
293.003
292.999
293.003
292.999
293.003
292.999
293.001
293.002
292.999
293.001
292.999
293.002
293
293.002
292.999
293.003
292.999
293.003
293
293.002
293.003
293.001
293.001
293
293.002
293.003
293.002
293.001
293.002
293.003
293
293.002
292.999
293.003
292.999
293.002
292.999
293.002
292.999
293.001
292.999
293.002
293
293.003
293
293.003
292.999
293.003
293
293.004
293
293.002
293.001
293.003
293.003
293.002
293.002
293.003
293
293.003
293
293.003
292.999
293.003
292.999
293.002
292.999
293.002
292.998
293.001
292.999
293.001
293
293.002
292.999
293.003
292.999
293.003
293
293.002
293.002
293.001
293.001
293
293.001
293.002
293
293.003
293
293.003
293
293.003
292.999
293.003
292.999
293.002
292.999
293.002
292.998
293.001
292.999
293.001
293
293.002
292.999
293.003
292.999
293.003
293
293.002
293.002
293.001
293.002
293
293
293.001
293.002
293
293.004
292.999
293.003
292.999
293.003
292.999
293.002
292.999
293.002
292.999
293.002
292.999
293.002
293
293.002
293.001
293
293.003
292.999
293.003
293
293.004
293
293.004
293.002
293.003
293
293.002
293
293.003
293
293.003
293
293.003
292.999
293.003
292.999
293.002
292.999
293.002
292.999
293.001
292.999
293.001
293
293.002
292.999
293.003
292.999
293.003
293
293.002
293.003
293.001
293.002
293
293.003
293.003
293.002
293.002
293.001
293.003
293
293.003
292.999
293.003
292.999
293.002
292.999
293.002
292.999
292.999
293.002
292.999
293.001
292.999
293.002
292.999
293.003
292.999
293.003
293
293.002
293.002
293.002
293.002
293.001
293.003
293.001
293.004
292.999
293.003
292.999
293.003
292.999
293.002
292.999
293.001
292.998
293.002
293
293.001
292.999
293.002
292.999
293.002
292.999
293.002
293
293.003
293
293.002
293.002
293
293.002
293
384.87
328.751
304.036
307.853
307.849
310.648
310.781
311.327
310.732
310.72
309.733
309.751
310.484
310.779
304.258
304.043
304.051
304.028
304.066
304.128
304.365
304.548
304.501
304.554
304.262
304.187
304.024
303.966
303.625
303.215
302.557
302.322
301.256
301.482
301.006
301.079
300.754
300.611
300.333
299.928
299.685
299.517
299.195
299.291
294.942
294.897
294.869
294.723
294.722
294.636
294.488
294.516
294.273
294.282
294.097
294.042
293.944
293.824
293.828
293.768
293.709
293.695
293.617
293.61
293.469
293.492
293.295
293.362
293.143
293.209
293.059
293.094
293.031
293.056
293.005
293.005
293.004
293.005
293.006
293.004
293.005
293.004
293.005
293.004
293.003
293.004
293.003
293.004
293.003
293.003
293.003
293.004
293.003
293.003
293.003
293.004
293.004
293.004
293.004
293.004
293.004
293.004
293.004
293.005
293.005
293.004
293.004
293.004
293.005
293.004
293.004
293.003
293.005
293.004
293.003
293.003
293.003
293.003
293.004
293.003
293.004
293.003
293.003
293.003
293.004
293.005
293.004
293.004
293.004
293.005
293.004
293.004
293.004
293.005
293.005
293.004
293.004
293.005
293.004
293.004
293.004
293.004
293.004
293.003
293.003
293.003
293.003
293.003
293.004
293.004
293.004
293.004
293.003
293.003
293.004
293.004
293.004
293.004
293.004
293.004
293.004
293.004
293.004
293.005
293.005
293.004
293.004
293.004
293.005
293.004
293.004
293.004
293.005
293.004
293.003
293.003
293.003
293.004
293.003
293.003
293.003
293.004
293.004
293.004
293.004
293.004
293.004
293.003
293.004
293.005
293.005
293.004
293.005
293.005
293.005
293.005
293.004
293.003
293.005
293.004
293.005
293.003
293.004
293.003
293.003
293.003
293.003
293.004
293.003
293.003
293.003
293.004
293.003
293.003
293.003
293.004
293.004
293.004
293.004
293.004
293.004
293.004
293.004
293.005
293.005
293.005
293.005
293.004
293.005
293.004
293.004
293.003
293.004
293.004
293.003
293.004
293.003
293.004
293.003
293.003
293.003
293.004
293.003
293.003
293.003
293.004
293.004
293.004
293.004
293.004
293.004
293.004
293.004
293.005
293.005
293.004
293.004
293.005
293.004
293.004
293.004
293.004
293.004
293.003
293.003
293.003
293.004
293.004
293.004
293.003
293.004
293.004
293.004
293.004
293.003
293.004
293.004
293.004
293.004
293.004
293.005
293.004
293.005
293.005
293.005
293.005
293.004
293.004
293.005
293.004
293.005
293.004
293.004
293.003
293.003
293.004
293.003
293.004
293.003
293.003
293.003
293.004
293.003
293.003
293.003
293.004
293.004
293.004
293.004
293.004
293.004
293.004
293.004
293.005
293.005
293.004
293.004
293.005
293.005
293.004
293.005
293.004
293.004
293.003
293.003
293.003
293.003
293.003
293.003
293.003
293.003
293.003
293.003
293.003
293.003
293.004
293.003
293.004
293.004
293.004
293.004
293.004
293.004
293.005
293.006
293.005
293.005
293.004
293.005
293.004
293.005
293.003
293.004
293.003
293.004
293.003
293.004
293.003
293.003
293.003
293.003
293.002
293.003
293.003
293.003
293.003
293.005
293.003
293.003
293.005
293.005
293.004
293.006
293.005
438.831
352.329
270
270.62
284.899
298.649
307.837
311.109
310.749
310.232
309.732
310.645
310.301
309.902
304.185
304.758
304.512
304.248
304.007
303.913
304.098
304.342
304.526
304.346
304.178
303.753
303.52
303.482
303.345
303.461
302.839
302.66
301.434
301.632
300.746
301.111
300.497
300.509
300.054
299.77
299.735
299.397
299.183
299.21
294.989
294.817
294.832
294.917
294.681
294.69
294.594
294.418
294.448
294.194
294.262
293.988
294.071
293.836
293.835
293.79
293.66
293.708
293.535
293.592
293.442
293.482
293.303
293.374
293.155
293.242
293.063
293.129
293.036
293.055
293.003
293.003
293.003
293.003
293.003
293.002
293.001
293.002
293.002
293.002
293.001
293.002
293.001
293.002
293.001
293.002
293.001
293.002
293.001
293.002
293.002
293.002
293.001
293.001
293.001
293.002
293.002
293.002
293.002
293.001
293.003
293.003
293.003
293.002
293.003
293.001
293.002
293.001
293.002
293.002
293.001
293.002
293.001
293.002
293.002
293.001
293.002
293.001
293.002
293.001
293.002
293.002
293.002
293.002
293.002
293.002
293.002
293.003
293.003
293.003
293.003
293.002
293.003
293.002
293.003
293.001
293.002
293.001
293.002
293.002
293.002
293.002
293.002
293.002
293.002
293.002
293.001
293.002
293.001
293.002
293.002
293.002
293.001
293.001
293.001
293.002
293.002
293.002
293.002
293.001
293.003
293.002
293.003
293.002
293.002
293.001
293.001
293.001
293.002
293.002
293.002
293.002
293.001
293.002
293.001
293.002
293.001
293.001
293.001
293.002
293.001
293.002
293.001
293.002
293.001
293.003
293.002
293.003
293.002
293.002
293.002
293.002
293.002
293.002
293.002
293.002
293.001
293.001
293.002
293.002
293.001
293.002
293.001
293.002
293.001
293.002
293.001
293.002
293.001
293.002
293.001
293.002
293.001
293.001
293
293.002
293.002
293.002
293.002
293.001
293.002
293.003
293.002
293.003
293.002
293.002
293.001
293.001
293.002
293.002
293.001
293.002
293.002
293.002
293.001
293.002
293.001
293.002
293.001
293.002
293.001
293.002
293.001
293.001
293
293.002
293.002
293.002
293.002
293.001
293.001
293.003
293.003
293.002
293.002
293.001
293.001
293.001
293.002
293.001
293.002
293.001
293.002
293.001
293.002
293.001
293.002
293.001
293.002
293.002
293.002
293.002
293.001
293.002
293.001
293.003
293.002
293.003
293.002
293.003
293.001
293.002
293.002
293.002
293.002
293.002
293.001
293.001
293.002
293.002
293.001
293.002
293.002
293.002
293.001
293.002
293.001
293.002
293.001
293.002
293.001
293.002
293.001
293.001
293
293.002
293.001
293.002
293.002
293.001
293.003
293.003
293.003
293.002
293.002
293.002
293.001
293.001
293.002
293.002
293.001
293.002
293.001
293.002
293.001
293.001
293.002
293.001
293.002
293.001
293.002
293.002
293.001
293.001
293.001
293.002
293.003
293.002
293.003
293.003
293.002
293.004
293.003
293.003
293.002
293.002
293.001
293.001
293.001
293.002
293.001
293.001
293
293.001
293
293.001
293
293.001
293
293
293.001
293.002
293.001
293.001
293.001
293.002
293.002
293.002
293.003
293.001
508.036
514.14
449.172
288.349
270
270
270
298.505
310.56
310.71
310.21
309.191
308.328
309.449
305.028
304.892
305.029
304.555
304.232
304.05
303.918
304.082
304.176
304.137
303.706
303.485
303.267
303.154
303.274
303.441
303.106
303.026
301.741
301.939
300.482
300.972
300.159
300.23
299.775
299.88
299.44
299.247
299.332
299.076
294.951
295.258
295.023
294.892
294.93
294.681
294.678
294.565
294.4
294.388
294.219
294.178
293.992
293.965
293.842
293.713
293.717
293.645
293.53
293.566
293.442
293.456
293.341
293.372
293.195
293.249
293.103
293.121
293.081
293.055
293.005
293.004
293.003
293.004
293.002
293.003
293.002
293.001
293.003
293.001
293.002
293
293.001
293
293.001
293
293.001
293
293.001
293.001
293.003
293.001
293.002
293.001
293.003
293.002
293.002
293.002
293.002
293.003
293.002
293.002
293.002
293.002
293.002
293.002
293.002
293
293.003
293.001
293.002
293.001
293.001
293
293.001
293.001
293
293.001
293
293.002
293.001
293.003
293.001
293.002
293.001
293.002
293.002
293.002
293.002
293.002
293.002
293.002
293.002
293.002
293.002
293.003
293.001
293.002
293.001
293.002
293.001
293.001
293
293
293.001
293
293.001
293
293.001
293.001
293.003
293.001
293.002
293.001
293.003
293.002
293.002
293.002
293.002
293.003
293.002
293.002
293.002
293.002
293.003
293.002
293.002
293.001
293.003
293.001
293.002
293
293.001
293
293.001
293
293.001
293
293.001
293.001
293.003
293.001
293.002
293.001
293.003
293.001
293.002
293.001
293.002
293.002
293.002
293.002
293.002
293.002
293.002
293.002
293.002
293.001
293.002
293.001
293.002
293
293.001
293
293.001
293
293.001
293
293.001
293.001
293.003
293.001
293.002
293.001
293.003
293.002
293.003
293.002
293.002
293.003
293.002
293.002
293.003
293.002
293.003
293.002
293.002
293.001
293.003
293.001
293.002
293
293.001
293
293.001
293
293.001
293
293.001
293.001
293.003
293.001
293.002
293.001
293.003
293.002
293.003
293.002
293.002
293.003
293.002
293.002
293.002
293.003
293.002
293.002
293.001
293.001
293.001
293.003
293.001
293.002
293.001
293.001
293
293.001
293
293.001
293.001
293.001
293.003
293.001
293.002
293.001
293.003
293.002
293.003
293.002
293.002
293.002
293.003
293.002
293.002
293.002
293.003
293.002
293.002
293.001
293.002
293.001
293.002
293.001
293.001
293
293.001
293
293.001
293
293.001
293.001
293.003
293.001
293.002
293.001
293.003
293.002
293.003
293.002
293.002
293.003
293.002
293.002
293.002
293.002
293.002
293.002
293.002
293.001
293.003
293.001
293.002
293.001
293.002
293
293.001
293.001
293
293.002
293
293.002
293.001
293.003
293
293.002
293.002
293.002
293.002
293.002
293.002
293.002
293.003
293.002
293.003
293.002
293.004
293.002
293.002
293
293.001
293.001
293.001
293
293
293
293.001
293
293.001
293
293.001
293
293.002
293.001
293.002
293
293.002
293.002
293.002
293.002
293.002
293.002
495.627
492.26
496.106
445.103
278.208
270
270
270
283.968
311.307
311.018
308.906
307.385
305.552
304.895
305.388
305.371
305.503
304.885
304.346
303.898
303.71
303.783
303.613
303.667
303.093
303.195
303.032
303.138
303.31
303.243
303.277
302.06
301.969
300.373
300.998
299.837
299.887
299.853
299.51
299.269
299.398
299.048
299.135
295.545
295.239
295.325
295.044
294.938
294.948
294.686
294.648
294.573
294.325
294.394
294.104
294.175
293.859
293.971
293.659
293.737
293.593
293.531
293.511
293.439
293.427
293.366
293.361
293.25
293.266
293.137
293.163
293.08
293.099
293.002
293.006
293.005
293.003
293.004
293.002
293.002
293.002
293.001
293.001
293.001
293.001
293.001
293.001
293.001
293.001
293.001
293.001
293.001
293.001
293.002
293.001
293.002
293.002
293.002
293.002
293.002
293.002
293.002
293.002
293.002
293.002
293.002
293.002
293.002
293.002
293.002
293.002
293.001
293.001
293.001
293.001
293.001
293.001
293
293.001
293.001
293.001
293.001
293.001
293.001
293.001
293.002
293.002
293.002
293.002
293.002
293.002
293.002
293.002
293.002
293.002
293.002
293.002
293.002
293.002
293.002
293.002
293.001
293.002
293.001
293.001
293.001
293
293.001
293.001
293.001
293.001
293.001
293.001
293.002
293.001
293.002
293.002
293.002
293.002
293.002
293.002
293.002
293.002
293.002
293.002
293.002
293.002
293.002
293.002
293.002
293.002
293.001
293.001
293.001
293.001
293.001
293.001
293.001
293.001
293.001
293.001
293.001
293.001
293.001
293
293.002
293.002
293.002
293.002
293.002
293.002
293.002
293.002
293.002
293.002
293.002
293.002
293.002
293.002
293.001
293.002
293.001
293.001
293.001
293.001
293.001
293.001
293.001
293.001
293.001
293.001
293.001
293.001
293.002
293.001
293.002
293.002
293.002
293.002
293.002
293.002
293.002
293.002
293.002
293.002
293.003
293.002
293.002
293.002
293.002
293.002
293.001
293.001
293.001
293.001
293.001
293.001
293.001
293.001
293.001
293.001
293.001
293.001
293.002
293.001
293.002
293.002
293.002
293.002
293.002
293.002
293.002
293.002
293.002
293.002
293.002
293.003
293.002
293.002
293.002
293.002
293.001
293.002
293.001
293.001
293.001
293.001
293.001
293.001
293.001
293.001
293.001
293.002
293.001
293.001
293.002
293.002
293.002
293.002
293.002
293.002
293.002
293.002
293.002
293.002
293.002
293.002
293.002
293.002
293.002
293.002
293.001
293.001
293.001
293.001
293.001
293.001
293.001
293.001
293.001
293.001
293.001
293.001
293.002
293.001
293.002
293.002
293.002
293.002
293.002
293.002
293.002
293.002
293.002
293.002
293.002
293.002
293.002
293.002
293.002
293.002
293.001
293.001
293.001
293.001
293.001
293.001
293
293
293.001
293.001
293.001
293.001
293.001
293.001
293.002
293.001
293.002
293.002
293.002
293.002
293.002
293.002
293.002
293.002
293.003
293.002
293.003
293.002
293.002
293.002
293
293.002
293
293
293
293
293
293
292.999
293
293.001
293.001
293.001
293.001
293.001
293.002
293.001
293.002
293.003
293.003
293.001
293.001
489.131
492.181
490.556
458.326
358.617
298.528
270
270
270
277.591
313.067
310.445
305.283
306.22
305.195
305.364
305.691
305.669
305.62
304.807
304.042
303.616
303.394
303.685
303.34
303.417
302.892
302.942
302.995
303.196
303.284
303.143
302.537
301.683
300.485
300.951
299.525
300.08
299.358
299.314
299.366
299.04
298.999
299.007
295.377
295.627
295.318
295.43
295.11
294.985
294.945
294.67
294.652
294.485
294.325
294.246
294.145
293.921
293.923
293.709
293.718
293.532
293.568
293.452
293.454
293.399
293.388
293.33
293.325
293.231
293.208
293.173
293.101
293.122
293.017
293.004
293.004
293.006
293.003
293.003
293.001
293.001
293.001
293
293
292.999
292.999
292.999
292.999
292.999
292.999
292.999
293
293
293
293.001
293
293
293
293.001
293.002
293.001
293.001
293.001
293
293.001
293.001
293.002
293.001
293.001
293
293
293.001
293
293
293
292.999
292.999
293
292.999
292.999
292.999
293
293
293
293.001
293
293
293.001
293.001
293.002
293.001
293.001
293
293.001
293
293.001
293.001
293.001
293
293
293
293
293
293
293
292.999
293
292.999
292.999
292.999
292.999
293
293
293
293.001
293
293
293
293.001
293.002
293.001
293.001
293.001
293
293.001
293.001
293.002
293.001
293.001
293.001
293
293.001
293
293
293
292.999
292.999
292.999
292.999
292.999
292.999
292.999
293
293
293
293
293
293
293.001
293.001
293.001
293.001
293.001
293
293.001
293.001
293.002
293.001
293.001
293
293
293.001
293
293
293
292.999
292.999
292.999
292.999
292.999
292.999
293
293
293
293.001
293
293
293
293.001
293.002
293.001
293.001
293.001
293
293.001
293
293.002
293.001
293
293
293
293.001
293
293
293
292.999
292.999
292.999
292.999
292.999
292.999
293
293
293
293.001
293
293
293
293.001
293.002
293.001
293.001
293.001
293.001
293.001
293.001
293.001
293.001
293
293
293
293.001
293
293
293
292.999
292.999
292.999
292.999
292.999
292.999
293
292.999
293
293
293
293
293
293.001
293.001
293.001
293
293
293.001
293.001
293
293.002
293
293.001
293
293
293.001
293
293
293
292.999
292.999
292.999
292.999
292.999
292.999
292.999
293
293
293.001
293
293
293
293.001
293.002
293.001
293.001
293.001
293
293.001
293.001
293.002
293.001
293
293.001
293
293.001
293
293
292.999
292.999
292.999
293
293
293
292.999
293
293
293
293.001
293
293
293.001
293.001
293.001
293.001
293.001
293
293.001
293
293.001
293.001
293.001
293.001
293.001
293
293.001
293
293
292.999
293
292.999
292.999
292.999
293
292.999
292.999
292.999
293
293
293
293
293
293
293
293.001
293
293.001
491.024
494.762
484.675
418.956
300.858
292.281
305.091
270
270
270
290.951
313.998
308.317
303.342
303.032
304.673
305.635
305.731
305.389
305.434
304.151
303.823
303.618
303.522
303.462
303.454
302.94
303.056
302.836
302.961
303.045
302.971
302.6
301.78
300.634
300.944
299.493
299.674
299.394
299.289
299.143
299.083
299.001
299.049
296.228
295.418
295.842
295.349
295.447
295.1
294.956
294.916
294.601
294.595
294.421
294.233
294.227
293.93
293.992
293.664
293.785
293.487
293.594
293.444
293.449
293.39
293.392
293.328
293.325
293.247
293.249
293.161
293.158
293.113
292.999
293.017
293.006
293.005
293.004
293.002
293.003
293.001
293.001
293.001
293.001
293
292.999
292.999
292.999
292.999
292.999
292.999
293
293.001
293.001
293
293
293.001
293
293
293.001
293.001
293.001
293.001
293.001
293.001
293.001
293.001
293
293
293.001
293
293
293.001
293
293.001
292.999
292.999
292.999
292.999
292.999
292.999
293.001
293
293.001
293
293
293.001
293
293
293.001
293.001
293.001
293.001
293.001
293.001
293.001
293.001
293
293
293.001
293
293
293.001
293.001
293
292.999
292.999
292.999
292.999
292.999
292.999
293
293.001
293.001
293
293
293.001
293
293
293.001
293.001
293.001
293.001
293.001
293.001
293.001
293.001
293
293
293.001
293
293
293.001
293
293.001
292.999
292.999
292.999
292.999
292.999
292.999
293
293.001
293.001
293
293
293.001
293
293
293.001
293.001
293.001
293.001
293.001
293.001
293.001
293.001
293
293
293.001
293
293
293.001
293
293.001
292.999
292.999
292.999
292.999
292.999
292.999
293
293.001
293.001
293
293
293.001
293
293
293.001
293.001
293.001
293.001
293.001
293.001
293.001
293.001
293
293
293.001
293
293
293.001
293
293.001
292.999
292.999
292.999
292.999
292.999
292.999
293
293.001
293.001
293
293
293.001
293
293
293.001
293.001
293.001
293.001
293.001
293.001
293.001
293.001
293
293
293.001
293
293
293.001
293.001
293
292.999
292.999
292.999
292.999
292.999
292.999
293
293.001
293.001
293
293
293.001
293
293
293.001
293.001
293.001
293.001
293.001
293.001
293.001
293.001
293
293
293.001
293
293
293.001
293
293.001
292.999
292.999
292.999
292.999
292.999
292.999
293
293.001
293.001
293
293
293.001
293
293
293.001
293.001
293.001
293.001
293.001
293.001
293.001
293.001
293.001
293
293.001
293
293
293.001
293
293.001
292.999
292.999
292.999
292.999
292.999
292.999
293.001
293
293.001
293
293
293.001
293
293
293.001
293.001
293.001
293.001
293.001
293.002
293.002
293.002
293.001
293.002
293.001
293
293
293.001
292.999
292.999
292.999
292.999
292.999
292.999
292.999
292.999
293
293
292.999
293
293.001
293.001
293.001
293.002
293.002
293.001
293.001
293.002
495.386
488.678
437.131
340.181
289.332
294.502
304.483
330.291
270
270
270
271.161
312.494
306.642
299.638
300.873
302.093
305.17
305.981
306.725
305.808
305.011
304.691
303.758
303.665
303.593
303.605
303.501
303.188
303.014
302.534
302.659
302.788
302.663
302.531
302.06
300.575
301.119
299.376
299.737
299.165
298.949
298.885
298.664
298.427
298.056
297.369
297.253
296.227
296.671
295.809
295.973
295.511
295.456
295.103
294.938
294.802
294.656
294.406
294.443
294.118
294.124
293.847
293.807
293.693
293.543
293.577
293.424
293.47
293.367
293.402
293.323
293.346
293.256
293.268
293.18
293.186
293.092
293.127
293.03
293.056
293.016
293.013
293.01
293.003
293.005
293.001
293.001
293
292.999
292.999
292.998
292.999
292.998
292.998
292.998
292.998
292.998
292.999
292.998
292.999
292.999
292.999
293
293
293
293
293
292.999
293
292.999
292.999
293
293
293
293
293
293
292.999
292.999
292.999
292.999
292.999
292.998
292.999
292.998
292.998
292.998
292.998
292.998
292.998
292.999
292.999
292.999
292.999
292.999
293
293
293
293
293
293
292.999
292.999
293
293
293
293
293
293
292.999
292.999
292.999
292.999
292.998
292.999
292.998
292.998
292.998
292.998
292.998
292.998
292.999
292.998
292.999
292.999
292.999
293
293
293
293
293
292.999
293
292.999
292.999
293
293
293
293
293
293
292.999
292.999
292.999
292.999
292.999
292.998
292.999
292.998
292.998
292.998
292.998
292.998
292.999
292.998
292.999
292.999
292.999
292.999
293
293
293
293
292.999
293
292.999
292.999
293
293
293
293
293
293
293
292.999
292.999
292.999
292.999
292.998
292.998
292.998
292.998
292.998
292.998
292.998
292.999
292.998
292.999
292.999
292.999
293
293
293
293
293
292.999
293
292.999
292.999
293
292.999
293
293
293
293
292.999
292.999
292.999
292.999
292.999
292.998
292.998
292.998
292.998
292.998
292.998
292.998
292.999
292.998
292.999
292.999
292.999
293
293
293
293
293
292.999
293.001
293
292.999
293
292.999
293
293
293
293
293
292.999
292.999
292.999
292.998
292.999
292.998
292.998
292.998
292.998
292.998
292.998
292.999
292.998
292.999
292.999
292.999
292.999
293
293
293
293
293
293
292.999
292.999
293
292.999
293
293
293
293
292.999
292.999
292.999
292.999
292.999
292.998
292.999
292.998
292.998
292.998
292.998
292.998
292.999
292.998
292.999
292.999
292.999
293
293
293
293
293
292.999
293
292.999
292.999
293
293
293
293
293
293
293
292.999
292.999
292.998
292.999
292.998
292.998
292.998
292.998
292.998
292.998
292.998
292.998
292.999
292.998
292.999
292.999
292.999
293
293
293
293
293
293
292.999
292.999
293.001
292.999
293.001
293
293
293
293
292.999
292.999
292.998
293
292.998
292.999
292.998
292.998
292.998
292.998
292.998
292.999
292.998
292.999
292.999
293
292.999
293
293.001
293
293.001
293.001
293
292.998
292.999
467.831
427.181
344.528
293.892
282.366
287.701
316.789
331.265
314.689
270
270
270
278.764
311.441
305.307
303.298
303.786
304.627
307.287
306.52
306.672
304.756
304.076
304.096
303.45
303.696
303.706
303.49
303.469
302.557
302.631
302.459
302.402
302.488
302.432
302.001
301.114
300.699
300.122
299.174
299.576
298.692
299.052
298.397
298.577
298.059
297.75
296.98
296.703
296.418
295.904
296.12
295.383
295.667
295.155
294.957
294.973
294.551
294.616
294.37
294.127
294.207
293.79
293.93
293.614
293.654
293.503
293.471
293.429
293.388
293.38
293.333
293.336
293.262
293.286
293.178
293.215
293.108
293.122
293.045
293.067
293.01
293.029
293.004
293.011
293.002
293.005
293.002
293.001
293
292.999
292.999
292.999
292.999
292.999
292.999
292.999
292.999
292.999
292.999
293
293
293.001
293.001
293
293.001
293.001
293
293
293.001
293
293
293.001
293
293
293.001
293.001
293
293.001
293.001
293.001
292.999
292.999
292.999
292.999
292.999
292.999
292.999
292.999
292.999
292.999
292.999
292.999
293.001
293.001
293.001
293
293.001
293.001
293
293
293.001
293
293
293.001
293
293
293.001
293.001
293
293.001
293.001
293
293
292.999
292.999
293
292.999
292.999
292.999
292.999
292.999
292.999
292.999
293
293
293.001
293.001
293
293.001
293.001
293
293
293.001
293
293
293.001
293
293
293.001
293.001
293
293.001
293.001
293.001
292.999
292.999
292.999
292.999
292.999
292.999
292.999
292.999
292.999
292.999
292.999
293
293
293.001
293.001
293
293.001
293.001
293
293
293.001
293
293
293.001
293
293
293.001
293.001
293
293.001
293.001
293
292.999
292.999
292.999
292.999
292.998
292.999
292.999
292.999
292.999
292.999
292.999
293
293
293.001
293.001
293
293.001
293.001
293
293
293.001
293
293
293.001
293
293
293.001
293.001
293
293.001
293.001
293
292.999
292.999
292.999
292.999
292.999
292.999
292.999
292.999
292.999
292.999
292.999
293
293
293.001
293.001
293
293.001
293.001
293
293
293.001
293
293
293.001
293
293
293.001
293.001
293
293.001
293.001
293
293
292.999
292.999
292.999
292.999
292.999
292.999
292.999
293
292.999
292.999
293
293
293.001
293.001
293
293.001
293.001
293
293
293.001
293
293
293.001
293
293
293.001
293.001
293
293.001
293.001
293
292.999
292.999
292.999
292.999
292.999
292.999
292.999
292.999
292.999
292.999
292.999
293
293
293.001
293.001
293
293.001
293.001
293
293
293.001
293
293
293.001
293
293
293.001
293.001
293
293.001
293.001
293
292.999
292.999
292.999
292.999
292.999
292.999
292.999
292.999
293
292.999
292.999
292.999
293
293.001
293.001
293
293.001
293.001
293
293
293.001
293
293
293.001
293
293
293.001
293
293
293.001
293.001
293
292.999
292.999
292.999
292.999
292.999
292.998
292.998
292.998
292.998
292.999
293
293
292.999
292.999
293
293
292.999
293
293
293.001
293
292.999
292.999
359.621
327.818
296.38
286.631
276.93
287.024
304.958
326.81
331.842
270
270
270
270
306.589
311.214
304.914
303.826
306.705
306.86
308.013
305.979
305.165
304.644
303.108
303.709
303.554
303.732
303.505
303.554
302.404
302.774
301.901
302.127
302.271
302.134
302.205
301.243
300.609
300.553
299.131
299.602
298.599
298.964
298.325
298.377
298.054
297.424
297.192
296.976
296.239
296.36
295.981
295.651
295.645
295.176
295.284
294.794
294.792
294.61
294.299
294.385
294.017
293.938
293.884
293.632
293.716
293.466
293.556
293.396
293.431
293.36
293.355
293.317
293.292
293.267
293.202
293.216
293.111
293.15
293.053
293.077
293.022
293.028
293.011
293.009
293.004
293.001
293.001
293.001
292.999
293
292.999
292.999
292.998
292.998
292.998
292.998
292.999
292.999
292.999
292.998
292.999
292.999
292.999
293
293
293
292.999
292.999
292.998
292.999
292.999
292.998
292.999
292.999
292.999
293
292.999
292.999
292.999
292.999
292.999
292.999
292.999
292.999
292.999
292.998
292.998
292.999
292.998
292.999
292.998
292.999
292.999
292.999
292.999
292.999
293
292.999
292.999
292.999
292.998
292.999
292.999
292.998
292.999
292.999
293
293