/*--------------------------------*- C++ -*----------------------------------*\
| =========                 |                                                 |
| \\      /  F ield         | OpenFOAM: The Open Source CFD Toolbox           |
|  \\    /   O peration     | Version:  2.1.1                                 |
|   \\  /    A nd           | Web:      www.OpenFOAM.org                      |
|    \\/     M anipulation  |                                                 |
\*---------------------------------------------------------------------------*/
FoamFile
{
    version     2.0;
    format      ascii;
    class       volScalarField;
    location    "0.000900000";
    object      N2;
}
// * * * * * * * * * * * * * * * * * * * * * * * * * * * * * * * * * * * * * //

dimensions      [0 0 0 0 0 0 0];

internalField   nonuniform List<scalar> 
12384
(
0.746249
0.74594
0.745619
0.745491
0.745327
0.745612
0.745581
0.745212
0.744903
0.744761
0.744767
0.744713
0.744679
0.744772
0.745259
0.745495
0.745403
0.745282
0.745211
0.745125
0.745033
0.744932
0.744846
0.744787
0.744753
0.744759
0.744735
0.744748
0.744753
0.744742
0.744748
0.744748
0.744743
0.744751
0.744742
0.744749
0.744745
0.744745
0.744749
0.744742
0.744747
0.744743
0.744746
0.744744
0.744749
0.744752
0.744748
0.744747
0.744748
0.744748
0.744749
0.744749
0.744749
0.74475
0.74475
0.74475
0.74475
0.744751
0.744751
0.744751
0.744751
0.744751
0.744751
0.744751
0.744751
0.744751
0.744751
0.744751
0.744751
0.744751
0.74475
0.744751
0.74475
0.744745
0.744745
0.744751
0.744752
0.744752
0.744752
0.744752
0.744753
0.744753
0.744753
0.744754
0.744754
0.744755
0.744755
0.744756
0.744757
0.744756
0.744756
0.744755
0.744755
0.744754
0.744754
0.744754
0.744753
0.744753
0.744753
0.744752
0.744752
0.744752
0.744752
0.744745
0.744745
0.744751
0.744752
0.744752
0.744752
0.744753
0.744753
0.744753
0.744754
0.744754
0.744754
0.744755
0.744755
0.744756
0.744756
0.744756
0.744756
0.744755
0.744755
0.744754
0.744754
0.744754
0.744753
0.744753
0.744753
0.744752
0.744752
0.744752
0.744751
0.744745
0.744745
0.744751
0.744752
0.744752
0.744752
0.744753
0.744753
0.744753
0.744754
0.744754
0.744754
0.744755
0.744755
0.744756
0.744756
0.744756
0.744756
0.744755
0.744755
0.744754
0.744754
0.744754
0.744753
0.744753
0.744753
0.744752
0.744752
0.744752
0.744752
0.744745
0.744745
0.744751
0.744752
0.744752
0.744752
0.744753
0.744753
0.744753
0.744754
0.744754
0.744754
0.744755
0.744755
0.744756
0.744756
0.744756
0.744756
0.744755
0.744755
0.744754
0.744754
0.744754
0.744753
0.744753
0.744753
0.744752
0.744752
0.744752
0.744752
0.744745
0.744745
0.744751
0.744752
0.744752
0.744752
0.744753
0.744753
0.744753
0.744754
0.744754
0.744754
0.744755
0.744755
0.744756
0.744756
0.744757
0.744756
0.744755
0.744755
0.744754
0.744754
0.744754
0.744753
0.744753
0.744753
0.744752
0.744752
0.744752
0.744752
0.744745
0.744745
0.744752
0.744752
0.744752
0.744752
0.744753
0.744753
0.744753
0.744754
0.744754
0.744754
0.744755
0.744755
0.744756
0.744756
0.744756
0.744756
0.744755
0.744755
0.744754
0.744754
0.744754
0.744753
0.744753
0.744753
0.744752
0.744752
0.744752
0.744752
0.744745
0.744745
0.744752
0.744752
0.744752
0.744752
0.744753
0.744753
0.744753
0.744754
0.744754
0.744754
0.744755
0.744755
0.744756
0.744756
0.744757
0.744756
0.744755
0.744755
0.744754
0.744754
0.744754
0.744753
0.744753
0.744753
0.744752
0.744752
0.744752
0.744751
0.744745
0.744745
0.744751
0.744752
0.744752
0.744752
0.744753
0.744753
0.744753
0.744754
0.744754
0.744754
0.744755
0.744755
0.744756
0.744756
0.744757
0.744756
0.744755
0.744755
0.744754
0.744754
0.744754
0.744753
0.744753
0.744753
0.744752
0.744752
0.744752
0.744752
0.744745
0.744745
0.744751
0.744752
0.744752
0.744752
0.744752
0.744753
0.744753
0.744754
0.744754
0.744754
0.744755
0.744755
0.744756
0.744757
0.744757
0.744756
0.744755
0.744755
0.744754
0.744754
0.744754
0.744753
0.744753
0.744753
0.744752
0.744752
0.744752
0.744751
0.744745
0.744745
0.744751
0.744752
0.744752
0.744752
0.744753
0.744753
0.744753
0.744754
0.744754
0.744754
0.744755
0.744755
0.744756
0.744756
0.744757
0.744756
0.744755
0.744755
0.744754
0.744754
0.744754
0.744753
0.744753
0.744753
0.744752
0.744752
0.744752
0.744752
0.744745
0.754569
0.752755
0.752978
0.753187
0.752628
0.75394
0.753611
0.752727
0.751277
0.749365
0.747872
0.746934
0.746585
0.74659
0.754036
0.754852
0.754569
0.75414
0.753824
0.753449
0.752991
0.75243
0.751726
0.75105
0.750255
0.749474
0.748953
0.748324
0.747813
0.747477
0.746996
0.746753
0.746505
0.74623
0.74611
0.745851
0.745763
0.745573
0.745433
0.745333
0.745235
0.74525
0.745231
0.745048
0.747385
0.747437
0.747405
0.747165
0.746998
0.746756
0.746552
0.746418
0.746189
0.74616
0.745933
0.745945
0.745794
0.74578
0.745732
0.745642
0.745679
0.745542
0.745622
0.745512
0.745561
0.7455
0.745505
0.745475
0.74546
0.745446
0.745447
0.745421
0.745424
0.745035
0.745013
0.745438
0.745455
0.745471
0.745486
0.745497
0.745523
0.745536
0.745561
0.745571
0.745593
0.745598
0.745627
0.745651
0.74568
0.745672
0.745651
0.745617
0.745607
0.745587
0.745583
0.745558
0.745549
0.745523
0.74551
0.74549
0.745478
0.745465
0.745442
0.745006
0.745001
0.745444
0.745459
0.745479
0.745488
0.7455
0.745524
0.745537
0.745561
0.745571
0.745592
0.745599
0.745628
0.745657
0.745671
0.745678
0.745647
0.745624
0.745598
0.745594
0.745573
0.745563
0.745538
0.745526
0.745502
0.74549
0.745481
0.74546
0.745445
0.745001
0.745002
0.745442
0.745458
0.745479
0.745486
0.745509
0.74552
0.745544
0.745553
0.745578
0.745586
0.745606
0.745625
0.745651
0.745679
0.745672
0.74565
0.745617
0.745606
0.745587
0.745582
0.745557
0.745548
0.745523
0.74551
0.745489
0.745478
0.745465
0.745442
0.745006
0.745001
0.745445
0.745461
0.745481
0.74549
0.745503
0.745527
0.74554
0.745564
0.745574
0.745595
0.7456
0.745624
0.745641
0.745672
0.745675
0.745662
0.745626
0.745609
0.745585
0.745572
0.745546
0.745537
0.745514
0.745503
0.745481
0.745473
0.745456
0.74544
0.745002
0.745001
0.745445
0.745463
0.745477
0.745495
0.745505
0.745532
0.745542
0.745566
0.745573
0.745593
0.745598
0.745624
0.745646
0.745679
0.745674
0.745654
0.745618
0.745606
0.745586
0.745582
0.745557
0.745549
0.745523
0.745511
0.74549
0.745479
0.745465
0.745442
0.745006
0.745004
0.745438
0.745463
0.745474
0.745495
0.745505
0.74553
0.74554
0.745563
0.745571
0.745591
0.745596
0.745623
0.745647
0.745679
0.745674
0.745654
0.745619
0.745607
0.745587
0.745582
0.745558
0.745549
0.745523
0.745511
0.74549
0.745479
0.745465
0.745442
0.745006
0.745005
0.745442
0.745462
0.74548
0.74549
0.745513
0.745524
0.74555
0.745557
0.745581
0.745585
0.745604
0.745614
0.745645
0.745667
0.745681
0.745658
0.745629
0.745598
0.745584
0.745572
0.745552
0.745541
0.745516
0.745505
0.745483
0.745476
0.745455
0.745442
0.745001
0.745007
0.745441
0.745466
0.745477
0.745498
0.745507
0.745532
0.745541
0.745565
0.745572
0.745591
0.745596
0.745621
0.745643
0.745677
0.745675
0.745657
0.74562
0.745607
0.745587
0.745582
0.745557
0.745548
0.745522
0.74551
0.745489
0.745477
0.745465
0.745442
0.745006
0.745001
0.745445
0.745462
0.745477
0.745492
0.745503
0.745529
0.745541
0.745566
0.745575
0.745595
0.7456
0.745627
0.745647
0.745679
0.745679
0.74565
0.745626
0.745599
0.745594
0.745573
0.745565
0.745541
0.74553
0.745504
0.745494
0.745479
0.745463
0.745446
0.745002
0.745006
0.745442
0.745468
0.745478
0.745501
0.745509
0.745536
0.745544
0.745568
0.745573
0.745593
0.745595
0.745621
0.745639
0.745673
0.745677
0.745659
0.745621
0.745607
0.745589
0.745584
0.745559
0.74555
0.745523
0.745511
0.74549
0.745477
0.745464
0.745441
0.745007
0.759972
0.759098
0.760056
0.760352
0.76016
0.759687
0.759752
0.759893
0.759723
0.759537
0.759275
0.758482
0.757676
0.756645
0.760769
0.760603
0.760585
0.760694
0.760752
0.760791
0.760821
0.760862
0.760886
0.760901
0.760939
0.76094
0.760947
0.760952
0.760948
0.760938
0.760895
0.760898
0.760819
0.760822
0.760791
0.760676
0.760676
0.760514
0.760409
0.760293
0.759904
0.759943
0.75966
0.759713
0.761091
0.760903
0.760887
0.760869
0.760848
0.760846
0.760812
0.760812
0.760787
0.760781
0.760765
0.760761
0.760741
0.76074
0.760718
0.760721
0.760719
0.760717
0.760727
0.760705
0.760727
0.76071
0.760732
0.760729
0.760744
0.760746
0.760752
0.760755
0.760767
0.761088
0.761086
0.760732
0.760714
0.760702
0.760693
0.760681
0.760666
0.760653
0.76064
0.760629
0.760619
0.760611
0.760594
0.760571
0.760552
0.760556
0.760576
0.760597
0.76061
0.760618
0.760625
0.760637
0.760647
0.760661
0.760673
0.760684
0.760693
0.760702
0.760718
0.761086
0.761086
0.760719
0.760704
0.760693
0.760685
0.760678
0.760663
0.760652
0.760639
0.760628
0.760619
0.76061
0.760592
0.760567
0.76056
0.760554
0.760575
0.760596
0.760611
0.760618
0.760627
0.760638
0.76065
0.760662
0.760677
0.760685
0.760691
0.760703
0.760718
0.761086
0.761086
0.760722
0.760704
0.760693
0.760685
0.760674
0.760663
0.760651
0.760641
0.760627
0.760619
0.760609
0.760592
0.760573
0.760554
0.760556
0.760576
0.760598
0.76061
0.760619
0.760625
0.760638
0.760648
0.760661
0.760673
0.760684
0.760692
0.760702
0.760718
0.761086
0.761086
0.760718
0.760703
0.760691
0.760686
0.760676
0.760661
0.76065
0.760637
0.760626
0.760617
0.76061
0.760597
0.76058
0.760559
0.760554
0.760567
0.76059
0.760607
0.760619
0.76063
0.760645
0.760655
0.760667
0.760678
0.760689
0.760696
0.760707
0.760724
0.761086
0.761086
0.760718
0.760704
0.760692
0.760682
0.760673
0.760659
0.760648
0.760636
0.760627
0.760619
0.760611
0.760596
0.760575
0.760554
0.760554
0.760573
0.760596
0.76061
0.760619
0.760625
0.760638
0.760647
0.760661
0.760673
0.760684
0.760692
0.760702
0.760718
0.761086
0.761086
0.760722
0.760704
0.760693
0.760683
0.760673
0.76066
0.76065
0.760638
0.760629
0.76062
0.760612
0.760597
0.760575
0.760554
0.760554
0.760573
0.760596
0.76061
0.760619
0.760625
0.760638
0.760647
0.760661
0.760673
0.760684
0.760692
0.760702
0.760718
0.761086
0.761086
0.760719
0.760703
0.760692
0.760683
0.760672
0.76066
0.760647
0.760638
0.760627
0.76062
0.760611
0.7606
0.76058
0.76056
0.760552
0.760566
0.76059
0.760612
0.760623
0.760631
0.760642
0.760652
0.760665
0.760677
0.760688
0.760695
0.760706
0.760722
0.761086
0.761086
0.760719
0.760702
0.760691
0.760681
0.760672
0.760659
0.760649
0.760637
0.760628
0.76062
0.760613
0.760598
0.760577
0.760555
0.760553
0.760571
0.760595
0.760609
0.760618
0.760625
0.760638
0.760648
0.760661
0.760674
0.760685
0.760693
0.760702
0.760718
0.761086
0.761086
0.760717
0.760703
0.760694
0.760684
0.760674
0.76066
0.760648
0.760636
0.760626
0.760617
0.76061
0.760595
0.760575
0.760553
0.760553
0.760573
0.760595
0.760611
0.760618
0.760627
0.760637
0.760649
0.76066
0.760674
0.760683
0.760692
0.760702
0.760717
0.761086
0.761086
0.760718
0.760701
0.76069
0.760679
0.76067
0.760657
0.760646
0.760635
0.760627
0.760619
0.760613
0.760599
0.760581
0.760558
0.760551
0.760569
0.760595
0.760609
0.760617
0.760624
0.760637
0.760647
0.760661
0.760673
0.760685
0.760694
0.760703
0.760718
0.761086
0.756064
0.754281
0.756072
0.757928
0.758979
0.758465
0.758301
0.758571
0.759129
0.759842
0.760188
0.760603
0.760381
0.759857
0.758668
0.757283
0.757437
0.757763
0.758163
0.75854
0.758854
0.759144
0.759384
0.759577
0.759757
0.759894
0.759998
0.760096
0.760169
0.760221
0.760283
0.760315
0.760369
0.760386
0.760404
0.760447
0.760455
0.76048
0.760516
0.760497
0.76054
0.760497
0.760531
0.760575
0.760205
0.760212
0.760221
0.760265
0.760297
0.760329
0.760369
0.760381
0.760417
0.760417
0.760446
0.760443
0.760464
0.760461
0.760474
0.760476
0.760478
0.760486
0.760483
0.760489
0.760487
0.760488
0.76049
0.760487
0.76049
0.760487
0.760487
0.760489
0.760487
0.760546
0.760551
0.760487
0.760485
0.760485
0.760485
0.760484
0.760484
0.760483
0.760484
0.760483
0.760484
0.760483
0.760484
0.760483
0.760484
0.760483
0.760484
0.760483
0.760484
0.760483
0.760484
0.760483
0.760484
0.760483
0.760484
0.760483
0.760484
0.760484
0.760487
0.760553
0.760553
0.760487
0.760483
0.760484
0.760483
0.760483
0.760484
0.760483
0.760484
0.760483
0.760484
0.760483
0.760484
0.760483
0.760483
0.760483
0.760483
0.760484
0.760483
0.760484
0.760483
0.760484
0.760483
0.760484
0.760483
0.760483
0.760484
0.760483
0.760487
0.760553
0.760553
0.760486
0.760484
0.760484
0.760483
0.760484
0.760483
0.760484
0.760483
0.760484
0.760483
0.760484
0.760483
0.760483
0.760484
0.760483
0.760484
0.760483
0.760484
0.760483
0.760484
0.760483
0.760484
0.760483
0.760484
0.760483
0.760484
0.760484
0.760487
0.760553
0.760553
0.760487
0.760483
0.760484
0.760484
0.760483
0.760484
0.760483
0.760484
0.760483
0.760484
0.760483
0.760484
0.760483
0.760484
0.760483
0.760484
0.760483
0.760484
0.760483
0.760484
0.760483
0.760484
0.760483
0.760484
0.760483
0.760484
0.760484
0.760486
0.760553
0.760553
0.760486
0.760484
0.760484
0.760484
0.760483
0.760484
0.760483
0.760484
0.760483
0.760484
0.760483
0.760484
0.760483
0.760484
0.760483
0.760484
0.760483
0.760484
0.760483
0.760484
0.760483
0.760484
0.760483
0.760484
0.760483
0.760484
0.760484
0.760487
0.760553
0.760553
0.760486
0.760484
0.760483
0.760484
0.760483
0.760484
0.760483
0.760484
0.760483
0.760484
0.760483
0.760484
0.760483
0.760484
0.760483
0.760484
0.760483
0.760484
0.760483
0.760484
0.760483
0.760484
0.760483
0.760484
0.760483
0.760484
0.760484
0.760487
0.760553
0.760553
0.760486
0.760484
0.760484
0.760483
0.760484
0.760483
0.760484
0.760483
0.760484
0.760483
0.760484
0.760483
0.760484
0.760483
0.760484
0.760483
0.760484
0.760483
0.760484
0.760484
0.760483
0.760484
0.760483
0.760484
0.760483
0.760484
0.760484
0.760486
0.760553
0.760553
0.760487
0.760484
0.760483
0.760484
0.760483
0.760484
0.760483
0.760484
0.760483
0.760484
0.760483
0.760484
0.760483
0.760484
0.760483
0.760484
0.760483
0.760484
0.760483
0.760484
0.760483
0.760484
0.760483
0.760484
0.760483
0.760484
0.760484
0.760487
0.760553
0.760553
0.760487
0.760483
0.760484
0.760484
0.760483
0.760484
0.760483
0.760484
0.760483
0.760484
0.760483
0.760484
0.760483
0.760483
0.760483
0.760483
0.760484
0.760483
0.760484
0.760483
0.760484
0.760483
0.760484
0.760483
0.760484
0.760484
0.760483
0.760487
0.760553
0.760553
0.760486
0.760484
0.760483
0.760484
0.760483
0.760484
0.760483
0.760484
0.760483
0.760484
0.760483
0.760484
0.760483
0.760484
0.760483
0.760484
0.760483
0.760484
0.760483
0.760484
0.760483
0.760484
0.760483
0.760484
0.760483
0.760483
0.760484
0.760487
0.760553
0.746474
0.74574
0.746756
0.750835
0.75463
0.75614
0.756062
0.755662
0.756182
0.757285
0.758414
0.759122
0.75976
0.760105
0.755233
0.751832
0.751378
0.752
0.753229
0.754481
0.755389
0.756074
0.756601
0.757025
0.757357
0.757623
0.757824
0.757978
0.758098
0.758219
0.758307
0.758323
0.758443
0.758441
0.758504
0.758556
0.758585
0.758662
0.758721
0.758814
0.758921
0.759008
0.759125
0.759178
0.758112
0.758104
0.758199
0.758273
0.758335
0.758395
0.758439
0.758489
0.75851
0.758555
0.75856
0.758596
0.758596
0.758623
0.758621
0.758641
0.758637
0.758655
0.758652
0.758659
0.758666
0.758658
0.758676
0.758657
0.75868
0.758662
0.758676
0.758668
0.758673
0.758676
0.758681
0.758679
0.758679
0.75868
0.758679
0.758681
0.75868
0.758681
0.75868
0.758681
0.758679
0.758682
0.758679
0.758681
0.758679
0.758681
0.758679
0.758682
0.758679
0.758682
0.758679
0.758682
0.758679
0.758682
0.758679
0.758681
0.75868
0.758679
0.758681
0.758684
0.758686
0.758681
0.758682
0.75868
0.758681
0.758681
0.75868
0.758682
0.758679
0.758682
0.758679
0.758682
0.758679
0.758681
0.758681
0.758679
0.758681
0.758679
0.758682
0.758679
0.758682
0.758679
0.758682
0.75868
0.758681
0.758681
0.75868
0.758681
0.758681
0.758686
0.758685
0.758681
0.758682
0.758679
0.758682
0.758679
0.758682
0.758679
0.758682
0.758679
0.758682
0.75868
0.758681
0.758681
0.758679
0.758681
0.758679
0.758682
0.758679
0.758682
0.758679
0.758682
0.758679
0.758682
0.758679
0.758681
0.75868
0.758679
0.758681
0.758684
0.758686
0.758681
0.758681
0.75868
0.758681
0.758681
0.75868
0.758682
0.758679
0.758682
0.758679
0.758682
0.758679
0.758682
0.758679
0.758681
0.758679
0.758681
0.758679
0.758681
0.758679
0.758681
0.758679
0.758682
0.758679
0.758681
0.758679
0.758681
0.758681
0.758685
0.758685
0.758681
0.758681
0.758681
0.75868
0.758682
0.758679
0.758682
0.758679
0.758682
0.758679
0.758682
0.758679
0.758681
0.758679
0.758681
0.758679
0.758682
0.758679
0.758682
0.758679
0.758682
0.758679
0.758682
0.758679
0.758681
0.75868
0.758679
0.758681
0.758684
0.758684
0.758681
0.758679
0.758681
0.758679
0.758682
0.758679
0.758682
0.758679
0.758682
0.758679
0.758682
0.758679
0.758681
0.758679
0.758681
0.758679
0.758682
0.758679
0.758682
0.758679
0.758682
0.758679
0.758682
0.758679
0.758681
0.75868
0.758679
0.758681
0.758684
0.758684
0.758681
0.75868
0.758679
0.758681
0.758679
0.758682
0.758679
0.758682
0.758679
0.758682
0.758679
0.758682
0.758679
0.758681
0.758679
0.758681
0.758679
0.758681
0.75868
0.75868
0.758681
0.758679
0.758682
0.75868
0.758682
0.75868
0.758682
0.758681
0.758685
0.758684
0.758681
0.758679
0.758681
0.758679
0.758682
0.758679
0.758682
0.758679
0.758682
0.758679
0.758682
0.758679
0.758681
0.758679
0.758681
0.758679
0.758682
0.758679
0.758682
0.758679
0.758682
0.758679
0.758681
0.758679
0.758681
0.75868
0.758679
0.758681
0.758684
0.758686
0.758681
0.758681
0.75868
0.75868
0.758681
0.758679
0.758682
0.758679
0.758682
0.758679
0.758682
0.758679
0.758681
0.758679
0.75868
0.758681
0.758679
0.758682
0.758679
0.758682
0.758679
0.758682
0.758679
0.758682
0.75868
0.75868
0.758681
0.758681
0.758685
0.758684
0.758681
0.758679
0.758681
0.758679
0.758682
0.758679
0.758682
0.758679
0.758682
0.758679
0.758682
0.758679
0.758681
0.758679
0.758681
0.758679
0.758681
0.758679
0.758682
0.758679
0.758682
0.758679
0.758681
0.758679
0.758681
0.75868
0.758679
0.758681
0.758684
0.74475
0.744658
0.744818
0.745993
0.748763
0.751125
0.751466
0.752799
0.75299
0.753766
0.755398
0.75686
0.75811
0.759109
0.750742
0.745376
0.743628
0.74341
0.745247
0.747762
0.749992
0.751548
0.75261
0.753394
0.753983
0.754465
0.754822
0.755141
0.755355
0.755571
0.755714
0.755838
0.756008
0.756078
0.756202
0.756286
0.756387
0.756516
0.75662
0.756761
0.756886
0.757019
0.75719
0.757341
0.755274
0.755227
0.755442
0.755635
0.755812
0.75594
0.756086
0.756152
0.756266
0.756297
0.756385
0.756398
0.756466
0.75647
0.756523
0.756518
0.756561
0.756555
0.756586
0.756582
0.756602
0.7566
0.756611
0.756609
0.756619
0.756612
0.756625
0.756617
0.756627
0.756696
0.756701
0.756634
0.756634
0.756634
0.756637
0.756637
0.756637
0.756637
0.756637
0.756636
0.756636
0.756636
0.756636
0.756635
0.756635
0.756635
0.756636
0.756636
0.756636
0.756636
0.756636
0.756636
0.756636
0.756636
0.756636
0.756636
0.756635
0.756636
0.756639
0.756716
0.756715
0.75664
0.756636
0.756636
0.756636
0.756636
0.756636
0.756636
0.756636
0.756636
0.756636
0.756636
0.756636
0.756635
0.756636
0.756636
0.756635
0.756636
0.756636
0.756636
0.756636
0.756636
0.756636
0.756636
0.756636
0.756636
0.756636
0.756636
0.75664
0.756715
0.756716
0.75664
0.756636
0.756636
0.756636
0.756637
0.756636
0.756636
0.756636
0.756636
0.756636
0.756636
0.756636
0.756635
0.756636
0.756635
0.756636
0.756636
0.756636
0.756636
0.756636
0.756636
0.756636
0.756636
0.756636
0.756636
0.756636
0.756636
0.756639
0.756716
0.756715
0.75664
0.756636
0.756636
0.756636
0.756636
0.756636
0.756636
0.756636
0.756636
0.756636
0.756636
0.756636
0.756636
0.756636
0.756635
0.756636
0.756636
0.756636
0.756636
0.756636
0.756636
0.756636
0.756636
0.756636
0.756636
0.756636
0.756636
0.75664
0.756716
0.756715
0.756639
0.756636
0.756636
0.756636
0.756636
0.756636
0.756636
0.756636
0.756636
0.756636
0.756636
0.756636
0.756635
0.756635
0.756635
0.756635
0.756636
0.756636
0.756636
0.756636
0.756636
0.756636
0.756636
0.756636
0.756636
0.756636
0.756636
0.756639
0.756716
0.756716
0.756639
0.756636
0.756636
0.756636
0.756636
0.756636
0.756636
0.756636
0.756636
0.756636
0.756636
0.756636
0.756635
0.756635
0.756635
0.756636
0.756636
0.756636
0.756636
0.756636
0.756636
0.756636
0.756636
0.756636
0.756636
0.756635
0.756636
0.756639
0.756716
0.756716
0.756639
0.756636
0.756636
0.756636
0.756636
0.756636
0.756636
0.756636
0.756636
0.756636
0.756636
0.756636
0.756636
0.756635
0.756636
0.756635
0.756636
0.756635
0.756636
0.756636
0.756636
0.756636
0.756636
0.756637
0.756636
0.756636
0.756636
0.75664
0.756715
0.756716
0.756639
0.756636
0.756635
0.756636
0.756636
0.756636
0.756636
0.756636
0.756636
0.756636
0.756636
0.756636
0.756635
0.756635
0.756635
0.756636
0.756636
0.756636
0.756636
0.756636
0.756636
0.756636
0.756636
0.756636
0.756636
0.756635
0.756636
0.756639
0.756716
0.756715
0.756639
0.756635
0.756636
0.756637
0.756636
0.756636
0.756636
0.756636
0.756636
0.756636
0.756636
0.756636
0.756635
0.756635
0.756635
0.756635
0.756636
0.756636
0.756636
0.756636
0.756636
0.756636
0.756636
0.756636
0.756636
0.756636
0.756635
0.756639
0.756715
0.756716
0.756639
0.756636
0.756636
0.756636
0.756636
0.756636
0.756636
0.756636
0.756636
0.756636
0.756636
0.756635
0.756635
0.756635
0.756635
0.756635
0.756635
0.756635
0.756635
0.756636
0.756636
0.756636
0.756636
0.756636
0.756636
0.756635
0.756636
0.756639
0.756717
0.744791
0.744859
0.744867
0.744964
0.745703
0.746676
0.747016
0.748608
0.749064
0.749963
0.751168
0.753434
0.755432
0.757604
0.746269
0.74301
0.740192
0.73737
0.736571
0.739013
0.742528
0.745393
0.747221
0.748418
0.749251
0.749894
0.750447
0.750807
0.751145
0.751361
0.751583
0.751726
0.751883
0.751999
0.752136
0.75219
0.752378
0.752477
0.752659
0.752899
0.753116
0.753486
0.753905
0.754266
0.750589
0.75056
0.751034
0.751368
0.751668
0.751847
0.75201
0.752133
0.752206
0.752319
0.75233
0.752433
0.752423
0.752502
0.752498
0.752538
0.752557
0.752562
0.752598
0.752582
0.752623
0.752602
0.752633
0.752621
0.752635
0.752635
0.752639
0.752646
0.752648
0.752629
0.752622
0.752658
0.752661
0.752666
0.752668
0.752671
0.752672
0.752674
0.752674
0.752674
0.752674
0.752674
0.752674
0.752674
0.752674
0.752675
0.752675
0.752675
0.752674
0.752675
0.752674
0.752675
0.752674
0.752674
0.752674
0.752674
0.752673
0.752673
0.752672
0.752644
0.752643
0.752673
0.752674
0.752673
0.752674
0.752674
0.752674
0.752674
0.752674
0.752674
0.752674
0.752675
0.752675
0.752675
0.752675
0.752675
0.752675
0.752674
0.752675
0.752674
0.752675
0.752674
0.752675
0.752674
0.752674
0.752674
0.752673
0.752673
0.752673
0.752643
0.752643
0.752673
0.752673
0.752673
0.752674
0.752674
0.752674
0.752674
0.752675
0.752674
0.752674
0.752675
0.752675
0.752674
0.752675
0.752675
0.752675
0.752675
0.752674
0.752675
0.752674
0.752675
0.752674
0.752674
0.752674
0.752673
0.752673
0.752673
0.752673
0.752644
0.752643
0.752673
0.752673
0.752673
0.752674
0.752674
0.752674
0.752675
0.752674
0.752675
0.752674
0.752675
0.752674
0.752675
0.752675
0.752675
0.752675
0.752675
0.752674
0.752674
0.752674
0.752674
0.752674
0.752674
0.752674
0.752674
0.752673
0.752673
0.752673
0.752643
0.752643
0.752673
0.752673
0.752673
0.752674
0.752674
0.752674
0.752675
0.752674
0.752675
0.752674
0.752675
0.752674
0.752675
0.752675
0.752675
0.752674
0.752675
0.752674
0.752675
0.752674
0.752675
0.752674
0.752674
0.752674
0.752673
0.752673
0.752673
0.752672
0.752644
0.752643
0.752673
0.752673
0.752673
0.752673
0.752674
0.752674
0.752675
0.752674
0.752675
0.752674
0.752675
0.752674
0.752675
0.752675
0.752675
0.752675
0.752675
0.752674
0.752675
0.752674
0.752675
0.752674
0.752674
0.752674
0.752673
0.752673
0.752673
0.752672
0.752644
0.752644
0.752672
0.752673
0.752673
0.752674
0.752674
0.752674
0.752674
0.752675
0.752674
0.752675
0.752674
0.752675
0.752675
0.752675
0.752675
0.752675
0.752674
0.752674
0.752675
0.752674
0.752674
0.752674
0.752674
0.752674
0.752674
0.752673
0.752673
0.752673
0.752643
0.752644
0.752673
0.752673
0.752673
0.752673
0.752674
0.752674
0.752675
0.752674
0.752675
0.752674
0.752675
0.752674
0.752675
0.752674
0.752675
0.752675
0.752675
0.752674
0.752675
0.752674
0.752675
0.752674
0.752674
0.752674
0.752673
0.752673
0.752673
0.752672
0.752644
0.752643
0.752673
0.752673
0.752673
0.752674
0.752674
0.752674
0.752675
0.752674
0.752675
0.752674
0.752675
0.752674
0.752675
0.752675
0.752675
0.752675
0.752674
0.752675
0.752674
0.752675
0.752674
0.752675
0.752674
0.752674
0.752674
0.752673
0.752673
0.752673
0.752643
0.752644
0.752673
0.752673
0.752673
0.752673
0.752674
0.752674
0.752675
0.752674
0.752675
0.752674
0.752675
0.752674
0.752675
0.752674
0.752675
0.752675
0.752675
0.752675
0.752675
0.752674
0.752675
0.752674
0.752675
0.752674
0.752674
0.752673
0.752673
0.752673
0.752644
0.744998
0.74499
0.744662
0.743768
0.74353
0.744029
0.74488
0.745698
0.746096
0.746051
0.747911
0.750229
0.753125
0.756564
0.747045
0.746302
0.742637
0.736827
0.732044
0.73148
0.73464
0.738365
0.740961
0.742636
0.743737
0.744605
0.745348
0.745905
0.746396
0.746754
0.747059
0.747343
0.747533
0.747801
0.74798
0.748122
0.74846
0.748552
0.748884
0.749121
0.749457
0.749969
0.750567
0.751158
0.74536
0.745129
0.74592
0.746567
0.747151
0.7475
0.747791
0.747997
0.748159
0.748304
0.748396
0.748494
0.748566
0.748617
0.748685
0.748707
0.748769
0.748766
0.748832
0.748815
0.748863
0.748862
0.748875
0.748898
0.748883
0.748921
0.748901
0.748942
0.748935
0.748955
0.748889
0.748928
0.748939
0.748943
0.748948
0.748949
0.748952
0.748951
0.748953
0.748951
0.748951
0.74895
0.74895
0.74895
0.74895
0.74895
0.74895
0.74895
0.74895
0.74895
0.74895
0.748951
0.748951
0.748951
0.748951
0.748952
0.748953
0.748955
0.748957
0.748935
0.748934
0.748958
0.748955
0.748953
0.748951
0.748951
0.74895
0.74895
0.74895
0.74895
0.74895
0.74895
0.74895
0.74895
0.748951
0.74895
0.74895
0.74895
0.74895
0.74895
0.74895
0.74895
0.748951
0.74895
0.748951
0.748952
0.748953
0.748955
0.748958
0.748934
0.748934
0.748958
0.748955
0.748953
0.748952
0.748951
0.74895
0.748951
0.74895
0.74895
0.74895
0.74895
0.74895
0.74895
0.74895
0.74895
0.74895
0.74895
0.74895
0.74895
0.74895
0.748951
0.748951
0.748951
0.748951
0.748952
0.748953
0.748955
0.748957
0.748935
0.748934
0.748958
0.748955
0.748953
0.748952
0.748951
0.748951
0.748951
0.74895
0.74895
0.74895
0.74895
0.74895
0.74895
0.748951
0.74895
0.74895
0.74895
0.74895
0.74895
0.74895
0.74895
0.74895
0.74895
0.748951
0.748951
0.748953
0.748955
0.748958
0.748935
0.748934
0.748957
0.748955
0.748953
0.748952
0.748951
0.748951
0.748951
0.748951
0.74895
0.74895
0.74895
0.74895
0.74895
0.74895
0.74895
0.74895
0.74895
0.74895
0.74895
0.74895
0.74895
0.748951
0.748951
0.748951
0.748951
0.748953
0.748955
0.748957
0.748934
0.748934
0.748957
0.748955
0.748953
0.748952
0.748951
0.748951
0.748951
0.748951
0.74895
0.74895
0.74895
0.74895
0.74895
0.74895
0.74895
0.74895
0.74895
0.74895
0.74895
0.74895
0.74895
0.748951
0.748951
0.748951
0.748952
0.748953
0.748955
0.748957
0.748934
0.748935
0.748957
0.748955
0.748953
0.748952
0.748951
0.748951
0.748951
0.748951
0.748951
0.74895
0.74895
0.74895
0.74895
0.74895
0.74895
0.74895
0.74895
0.74895
0.74895
0.74895
0.74895
0.748951
0.74895
0.748951
0.748951
0.748953
0.748955
0.748958
0.748934
0.748935
0.748957
0.748955
0.748953
0.748952
0.748951
0.748951
0.748951
0.748951
0.74895
0.74895
0.74895
0.74895
0.74895
0.74895
0.74895
0.74895
0.74895
0.74895
0.74895
0.74895
0.74895
0.748951
0.74895
0.748951
0.748951
0.748953
0.748955
0.748957
0.748934
0.748934
0.748958
0.748955
0.748953
0.748952
0.748951
0.74895
0.748951
0.74895
0.74895
0.74895
0.74895
0.74895
0.74895
0.74895
0.74895
0.74895
0.74895
0.74895
0.74895
0.74895
0.74895
0.74895
0.74895
0.748951
0.748952
0.748953
0.748955
0.748958
0.748934
0.748934
0.748958
0.748956
0.748953
0.748952
0.748951
0.748951
0.748951
0.748951
0.74895
0.74895
0.74895
0.74895
0.74895
0.74895
0.74895
0.74895
0.74895
0.74895
0.74895
0.74895
0.74895
0.74895
0.748951
0.748951
0.748952
0.748953
0.748958
0.748963
0.748942
0.744844
0.744279
0.742272
0.739378
0.739016
0.740362
0.742145
0.743177
0.743344
0.742903
0.742924
0.745083
0.74751
0.751777
0.752598
0.752077
0.751139
0.748774
0.743901
0.736989
0.730074
0.72687
0.728257
0.731532
0.734198
0.735933
0.737116
0.737988
0.738748
0.73935
0.739888
0.740205
0.740577
0.74086
0.741039
0.741318
0.741472
0.741689
0.741911
0.742125
0.74243
0.742765
0.743307
0.743938
0.744851
0.746135
0.744171
0.742803
0.740308
0.739078
0.739487
0.740255
0.740773
0.741142
0.741364
0.741597
0.741708
0.741876
0.741933
0.742049
0.742092
0.742164
0.742207
0.742246
0.742285
0.74231
0.74234
0.742361
0.742376
0.742401
0.7424
0.742429
0.74242
0.742453
0.742443
0.742478
0.742474
0.742394
0.74227
0.742268
0.74232
0.742468
0.742483
0.742496
0.742499
0.742504
0.742506
0.742509
0.742511
0.742513
0.742514
0.742514
0.742514
0.742514
0.742515
0.742514
0.742515
0.742514
0.742515
0.742515
0.742515
0.742515
0.742515
0.742515
0.742516
0.742516
0.742518
0.742518
0.742511
0.742375
0.742257
0.742257
0.742374
0.742512
0.742517
0.742518
0.742516
0.742515
0.742515
0.742515
0.742515
0.742515
0.742515
0.742514
0.742515
0.742515
0.742515
0.742515
0.742515
0.742515
0.742515
0.742515
0.742515
0.742515
0.742515
0.742515
0.742515
0.742516
0.742518
0.742517
0.742512
0.742374
0.742257
0.742257
0.742374
0.742512
0.742517
0.742518
0.742516
0.742516
0.742515
0.742515
0.742515
0.742515
0.742515
0.742515
0.742515
0.742514
0.742515
0.742515
0.742515
0.742515
0.742515
0.742515
0.742515
0.742515
0.742515
0.742515
0.742516
0.742516
0.742518
0.742518
0.742511
0.742375
0.742257
0.742257
0.742374
0.742511
0.742517
0.742518
0.742517
0.742515
0.742515
0.742515
0.742515
0.742515
0.742515
0.742514
0.742515
0.742515
0.742515
0.742515
0.742515
0.742514
0.742515
0.742515
0.742515
0.742514
0.742515
0.742515
0.742516
0.742516
0.742518
0.742517
0.742511
0.742374
0.742257
0.742257
0.742374
0.742512
0.742518
0.742517
0.742517
0.742516
0.742515
0.742515
0.742515
0.742515
0.742515
0.742515
0.742515
0.742515
0.742515
0.742515
0.742515
0.742515
0.742515
0.742515
0.742515
0.742515
0.742515
0.742515
0.742516
0.742516
0.742518
0.742518
0.742511
0.742374
0.742257
0.742257
0.742374
0.742511
0.742518
0.742517
0.742517
0.742516
0.742515
0.742515
0.742515
0.742515
0.742515
0.742515
0.742515
0.742515
0.742515
0.742515
0.742515
0.742515
0.742515
0.742515
0.742515
0.742515
0.742515
0.742515
0.742516
0.742516
0.742518
0.742518
0.742511
0.742374
0.742257
0.742257
0.742374
0.742511
0.742517
0.742518
0.742517
0.742516
0.742515
0.742515