/*--------------------------------*- C++ -*----------------------------------*\
| =========                 |                                                 |
| \\      /  F ield         | OpenFOAM: The Open Source CFD Toolbox           |
|  \\    /   O peration     | Version:  2.1.1                                 |
|   \\  /    A nd           | Web:      www.OpenFOAM.org                      |
|    \\/     M anipulation  |                                                 |
\*---------------------------------------------------------------------------*/
FoamFile
{
    version     2.0;
    format      ascii;
    class       volScalarField;
    location    "0.000900000";
    object      O;
}
// * * * * * * * * * * * * * * * * * * * * * * * * * * * * * * * * * * * * * //

dimensions      [0 0 0 0 0 0 0];

internalField   nonuniform List<scalar> 
12384
(
6.35944e-06
2.64514e-06
4.5816e-07
2.03665e-08
8.61085e-10
3.09241e-11
9.95807e-13
2.21022e-14
2.48835e-16
2.70954e-18
3.88437e-20
5.32075e-22
7.57373e-24
1.05519e-25
3.833e-37
8.51162e-38
1.74774e-39
1.69104e-41
1.43637e-43
9.96e-46
5.86478e-48
3.06567e-50
1.49652e-52
7.15131e-55
3.3431e-57
1.58058e-59
7.27485e-62
3.38189e-64
1.5148e-66
6.55178e-69
2.76947e-71
1.1168e-73
4.36383e-76
1.68805e-78
6.49949e-81
2.57145e-83
1.02488e-85
4.11162e-88
1.62111e-90
6.19244e-93
2.29995e-95
8.22207e-98
2.89272e-100
9.96283e-103
3.63911e-110
1.19346e-111
4.65658e-114
1.62364e-116
5.50637e-119
1.87994e-121
6.48701e-124
2.27298e-126
7.99875e-129
2.86049e-131
1.03933e-133
3.93066e-136
1.57195e-138
6.81757e-141
3.22917e-143
1.6443e-145
8.83049e-148
4.82565e-150
2.66598e-152
1.45871e-154
7.96138e-157
4.29098e-159
2.30683e-161
1.23167e-163
6.57888e-166
3.49219e-168
1.88054e-172
2.06888e-176
5.65152e-179
7.18403e-182
1.19142e-191
9.45072e-191
5.39371e-193
1.69214e-195
4.04322e-198
7.87864e-201
1.28832e-203
1.82717e-206
2.2523e-209
2.44479e-212
2.37437e-215
2.15695e-218
1.99849e-221
1.95121e-224
1.55149e-227
1.10744e-230
7.3051e-234
3.95459e-237
1.81335e-240
7.9874e-244
3.47145e-247
1.52455e-250
6.73653e-254
3.00262e-257
1.33299e-260
5.99398e-264
2.58497e-267
1.11632e-270
4.64367e-274
4.42971e-278
3.67809e-300
5.89873e-298
1.57523e-300
2.31292e-303
2.47694e-306
2.05499e-309
1.51827e-312
9.98386e-316
6.02409e-319
3.40905e-322
0
0
0
0
0
0
0
0
0
0
0
0
0
0
0
0
0
0
0
0
0
0
0
0
0
0
0
0
0
0
0
0
0
0
0
0
0
0
0
0
0
0
0
0
0
0
0
0
0
0
0
0
0
0
0
0
0
0
0
0
0
0
0
0
0
0
0
0
0
0
0
0
0
0
0
0
0
0
0
0
0
0
0
0
0
0
0
0
0
0
0
0
0
0
0
0
0
0
0
0
0
0
0
0
0
0
0
0
0
0
0
0
0
0
0
0
0
0
0
0
0
0
0
0
0
0
0
0
0
0
0
0
0
0
0
0
0
0
0
0
0
0
0
0
0
0
0
0
0
0
0
0
0
0
0
0
0
0
0
0
0
0
0
0
0
0
0
0
0
0
0
0
0
0
0
0
0
0
0
0
0
0
0
0
0
0
0
0
0
0
0
0
0
0
0
0
0
0
0
0
0
0
0
0
0
0
0
0
0
0
0
0
0
0
0
0
0
0
0
0
0
0
0
0
0
0
0
0
0
0
0
0
0
0
0
0
0
0
0
0
0
0
0
0
0
0
0
0
0
0
0
0
0
0
0
0
0
0
0
0
1.77324e-06
3.76201e-06
1.00761e-06
6.43244e-08
7.146e-09
1.65733e-10
6.69823e-12
4.60202e-13
7.89249e-15
7.87492e-17
5.84763e-19
4.9669e-21
4.4914e-23
4.19731e-25
1.25807e-35
1.01801e-36
1.5273e-38
2.04204e-40
2.2097e-42
1.91819e-44
1.41965e-46
9.28803e-49
5.90337e-51
3.62073e-53
2.08233e-55
1.25111e-57
6.62929e-60
3.67528e-62
1.83995e-64
8.76978e-67
3.9879e-69
1.64381e-71
6.26807e-74
2.3836e-76
9.33407e-79
3.89805e-81
1.64731e-83
6.85846e-86
2.74192e-88
1.03716e-90
3.70678e-93
1.25458e-95
4.14405e-98
1.29368e-100
1.5629e-107
4.90483e-109
1.48935e-111
4.74444e-114
1.57449e-116
5.48741e-119
1.89694e-121
6.60185e-124
2.29198e-126
7.96064e-129
2.77378e-131
9.761e-134
3.50207e-136
1.29245e-138
4.95131e-141
1.97859e-143
8.58269e-146
3.84017e-148
1.88593e-150
9.35572e-153
4.92652e-155
2.599e-157
1.40684e-159
7.6636e-162
4.22516e-164
2.35842e-166
1.30022e-168
9.45994e-173
1.39086e-175
2.21566e-178
1.26799e-187
2.49273e-187
1.57055e-189
5.47565e-192
1.47652e-194
3.23429e-197
5.94186e-200
9.15453e-203
1.18226e-205
1.29914e-208
1.27004e-211
1.13461e-214
1.00813e-217
8.99227e-221
7.28011e-224
5.25782e-227
3.5056e-230
2.03125e-233
1.02054e-236
4.69593e-240
2.12221e-243
9.49539e-247
4.28984e-250
1.92786e-253
8.67671e-257
3.86069e-260
1.66904e-263
7.12363e-267
2.9815e-270
4.63866e-274
7.93133e-296
4.52e-294
1.18998e-296
1.72753e-299
1.83265e-302
1.54944e-305
1.16471e-308
7.75577e-312
4.75523e-315
2.68401e-318
1.44761e-321
0
0
0
0
0
0
0
0
0
0
0
0
0
0
0
0
0
0
0
0
0
0
0
0
0
0
0
0
0
0
0
0
0
0
0
0
0
0
0
0
0
0
0
0
0
0
0
0
0
0
0
0
0
0
0
0
0
0
0
0
0
0
0
0
0
0
0
0
0
0
0
0
0
0
0
0
0
0
0
0
0
0
0
0
0
0
0
0
0
0
0
0
0
0
0
0
0
0
0
0
0
0
0
0
0
0
0
0
0
0
0
0
0
0
0
0
0
0
0
0
0
0
0
0
0
0
0
0
0
0
0
0
0
0
0
0
0
0
0
0
0
0
0
0
0
0
0
0
0
0
0
0
0
0
0
0
0
0
0
0
0
0
0
0
0
0
0
0
0
0
0
0
0
0
0
0
0
0
0
0
0
0
0
0
0
0
0
0
0
0
0
0
0
0
0
0
0
0
0
0
0
0
0
0
0
0
0
0
0
0
0
0
0
0
0
0
0
0
0
0
0
0
0
0
0
0
0
0
0
0
0
0
0
0
0
0
0
0
0
0
0
0
0
0
0
0
0
0
0
0
0
0
0
0
0
0
0
0
0
8.59249e-09
1.76258e-08
1.15273e-09
2.28788e-10
7.26741e-11
2.72766e-11
7.7441e-13
2.9626e-14
3.63317e-16
1.42701e-18
3.58844e-21
1.99955e-23
1.08031e-25
7.54126e-28
1.52344e-36
2.83745e-37
1.84303e-39
1.14894e-41
7.83348e-44
4.45586e-46
2.08033e-48
7.55085e-51
2.43933e-53
8.56164e-56
2.28805e-58
9.17782e-61
3.80838e-63
1.70349e-65
7.63476e-68
3.97461e-70
2.01505e-72
7.76221e-75
3.38216e-77
1.22571e-79
4.95261e-82
2.71913e-84
1.15579e-86
6.59796e-89
4.56415e-91
2.40372e-93
1.55644e-95
4.11447e-98
2.60513e-100
6.18218e-103
1.06472e-110
6.28908e-112
1.37611e-114
4.52641e-117
1.61649e-119
5.62812e-122
2.08682e-124
7.1421e-127
2.54315e-129
8.70063e-132
3.02445e-134
1.03516e-136
3.69939e-139
1.29728e-141
4.84007e-144
1.77628e-146
6.74006e-149
2.66952e-151
1.06028e-153
4.67525e-156
1.92271e-158
8.86209e-161
3.80577e-163
1.79069e-165
8.19253e-168
4.04968e-170
2.05989e-172
1.12645e-174
1.63423e-177
2.37448e-180
1.7515e-189
1.29996e-189
7.82989e-192
2.90488e-194
8.32451e-197
1.9817e-199
4.03503e-202
6.87845e-205
9.44291e-208
1.05308e-210
1.0127e-213
8.71396e-217
7.21966e-220
5.77493e-223
4.27541e-226
2.8563e-229
1.75617e-232
9.72659e-236
4.96176e-239
2.42124e-242
1.17228e-245
5.56273e-249
2.62678e-252
1.21221e-255
5.51671e-259
2.44106e-262
1.03469e-265
4.28869e-269
1.73138e-272
9.85518e-277
2.52094e-297
7.62954e-296
1.85861e-298
2.5118e-301
2.49049e-304
2.01678e-307
1.46834e-310
9.55037e-314
5.72658e-317
3.16301e-320
1.4822e-323
0
0
0
0
0
0
0
0
0
0
0
0
0
0
0
0
0
0
0
0
0
0
0
0
0
0
0
0
0
0
0
0
0
0
0
0
0
0
0
0
0
0
0
0
0
0
0
0
0
0
0
0
0
0
0
0
0
0
0
0
0
0
0
0
0
0
0
0
0
0
0
0
0
0
0
0
0
0
0
0
0
0
0
0
0
0
0
0
0
0
0
0
0
0
0
0
0
0
0
0
0
0
0
0
0
0
0
0
0
0
0
0
0
0
0
0
0
0
0
0
0
0
0
0
0
0
0
0
0
0
0
0
0
0
0
0
0
0
0
0
0
0
0
0
0
0
0
0
0
0
0
0
0
0
0
0
0
0
0
0
0
0
0
0
0
0
0
0
0
0
0
0
0
0
0
0
0
0
0
0
0
0
0
0
0
0
0
0
0
0
0
0
0
0
0
0
0
0
0
0
0
0
0
0
0
0
0
0
0
0
0
0
0
0
0
0
0
0
0
0
0
0
0
0
0
0
0
0
0
0
0
0
0
0
0
0
0
0
0
0
0
0
0
0
0
0
0
0
0
0
0
0
0
0
0
0
0
0
0
7.9355e-06
2.0308e-05
3.01189e-06
1.25665e-07
1.06358e-08
1.10356e-08
5.19208e-09
3.09872e-10
1.33168e-12
1.04993e-15
1.07804e-18
4.45261e-22
1.15005e-24
5.18377e-27
1.38392e-30
1.21135e-30
4.58246e-33
1.34251e-35
5.32908e-38
1.57932e-40
5.74131e-43
1.29709e-45
4.2483e-48
1.27654e-50
3.37774e-53
8.54778e-56
3.01454e-58
1.04212e-60
3.7142e-63
1.32336e-65
4.35628e-68
1.50987e-70
4.35662e-73
1.46103e-75
4.96945e-78
1.77011e-80
7.31356e-83
2.79953e-85
8.54451e-88
3.36933e-90
1.033e-92
3.12582e-95
8.17248e-98
2.11855e-100
6.8776e-106
1.75534e-107
3.97533e-110
1.14597e-112
3.6075e-115
1.14414e-117
3.44711e-120
1.13085e-122
3.2962e-125
1.10137e-127
3.24777e-130
1.10227e-132
3.35297e-135
1.16642e-137
3.78403e-140
1.34347e-142
4.82121e-145
1.73132e-147
6.99865e-150
2.76227e-152
1.1484e-154
4.9986e-157
2.16887e-159
9.89032e-162
4.44164e-164
2.08908e-166
9.88582e-169
4.88408e-171
2.59288e-173
1.11198e-175
4.83388e-185
1.9381e-186
9.58331e-189
3.20791e-191
8.59964e-194
1.98404e-196
4.04379e-199
7.34511e-202
1.08906e-204
1.29746e-207
1.25616e-210
1.07889e-213
8.32637e-217
6.01055e-220
4.0277e-223
2.57496e-226
1.5519e-229
9.03972e-233
5.01054e-236
2.70921e-239
1.40347e-242
7.14377e-246
3.50421e-249
1.69591e-252
7.95012e-256
3.68076e-259
1.66244e-262
7.27365e-266
3.0952e-269
5.80226e-273
1.88586e-292
3.73808e-292
8.10566e-295
9.63751e-298
8.89513e-301
6.74327e-304
4.48259e-307
2.72076e-310
1.50971e-313
7.92333e-317
3.88928e-320
1.97626e-323
0
0
0
0
0
0
0
0
0
0
0
0
0
0
0
0
0
0
0
0
0
0
0
0
0
0
0
0
0
0
0
0
0
0
0
0
0
0
0
0
0
0
0
0
0
0
0
0
0
0
0
0
0
0
0
0
0
0
0
0
0
0
0
0
0
0
0
0
0
0
0
0
0
0
0
0
0
0
0
0
0
0
0
0
0
0
0
0
0
0
0
0
0
0
0
0
0
0
0
0
0
0
0
0
0
0
0
0
0
0
0
0
0
0
0
0
0
0
0
0
0
0
0
0
0
0
0
0
0
0
0
0
0
0
0
0
0
0
0
0
0
0
0
0
0
0
0
0
0
0
0
0
0
0
0
0
0
0
0
0
0
0
0
0
0
0
0
0
0
0
0
0
0
0
0
0
0
0
0
0
0
0
0
0
0
0
0
0
0
0
0
0
0
0
0
0
0
0
0
0
0
0
0
0
0
0
0
0
0
0
0
0
0
0
0
0
0
0
0
0
0
0
0
0
0
0
0
0
0
0
0
0
0
0
0
0
0
0
0
0
0
0
0
0
0
0
0
0
0
0
0
0
0
0
0
0
0
0
0.000821872
0.000756738
0.000688538
0.000138401
1.1861e-05
2.77806e-06
9.87374e-07
4.56787e-07
5.64073e-08
9.79643e-11
4.89731e-14
2.53833e-17
1.18857e-20
1.20304e-23
6.17965e-25
4.60599e-25
2.17749e-27
6.56464e-30
1.43801e-32
3.2713e-35
8.37849e-38
2.2422e-40
6.04693e-43
1.48943e-45
4.65502e-48
1.36027e-50
3.92696e-53
1.38895e-55
4.9235e-58
1.69037e-60
5.7019e-63
2.13077e-65
5.30882e-68
1.85476e-70
6.22667e-73
2.38899e-75
9.72012e-78
3.77351e-80
1.41259e-82
4.72647e-85
1.38596e-87
3.51644e-90
7.3208e-93
1.64449e-95
1.30818e-100
3.19423e-102
7.07539e-105
2.06366e-107
6.32885e-110
1.95364e-112
6.15813e-115
2.00654e-117
6.67028e-120
2.11188e-122
7.08446e-125
2.24191e-127
7.58885e-130
2.45581e-132
8.45801e-135
2.86859e-137
1.02666e-139
3.71483e-142
1.40514e-144
5.55335e-147
2.20894e-149
9.51553e-152
3.93775e-154
1.80148e-156
7.69862e-159
3.60402e-161
1.60725e-163
7.60653e-166
3.64157e-168
1.84271e-170
1.97283e-179
1.11223e-181
3.12495e-184
8.47452e-187
1.99097e-189
4.20962e-192
8.27795e-195
1.49971e-197
2.47225e-200
3.40811e-203
3.71168e-206
3.28836e-209
2.58577e-212
1.84512e-215
1.23171e-218
7.70118e-222
4.5983e-225
2.60758e-228
1.42934e-231
7.50597e-235
3.84335e-238
1.89788e-241
9.19335e-245
4.31958e-248
1.99765e-251
9.0088e-255
3.99936e-258
1.74353e-261
7.29542e-265
1.49877e-268
1.93086e-286
5.44725e-287
9.57862e-290
1.00384e-292
8.089e-296
5.55299e-299
3.4043e-302
1.90083e-305
9.93229e-309
4.85763e-312
2.27273e-315
1.01022e-318
4.34778e-322
0
0
0
0
0
0
0
0
0
0
0
0
0
0
0
0
0
0
0
0
0
0
0
0
0
0
0
0
0
0
0
0
0
0
0
0
0
0
0
0
0
0
0
0
0
0
0
0
0
0
0
0
0
0
0
0
0
0
0
0
0
0
0
0
0
0
0
0
0
0
0
0
0
0
0
0
0
0
0
0
0
0
0
0
0
0
0
0
0
0
0
0
0
0
0
0
0
0
0
0
0
0
0
0
0
0
0
0
0
0
0
0
0
0
0
0
0
0
0
0
0
0
0
0
0
0
0
0
0
0
0
0
0
0
0
0
0
0
0
0
0
0
0
0
0
0
0
0
0
0
0
0
0
0
0
0
0
0
0
0
0
0
0
0
0
0
0
0
0
0
0
0
0
0
0
0
0
0
0
0
0
0
0
0
0
0
0
0
0
0
0
0
0
0
0
0
0
0
0
0
0
0
0
0
0
0
0
0
0
0
0
0
0
0
0
0
0
0
0
0
0
0
0
0
0
0
0
0
0
0
0
0
0
0
0
0
0
0
0
0
0
0
0
0
0
0
0
0
0
0
0
0
0
0
0
0
0
0.000651352
0.000650979
0.000666011
0.000720824
0.000370135
0.000115888
9.56009e-05
4.57143e-05
1.17273e-05
8.99412e-07
1.49427e-09
9.50734e-13
4.44127e-16
2.83593e-19
3.35275e-20
3.00988e-21
5.55052e-24
1.78945e-26
1.18266e-28
5.65988e-31
1.76193e-33
5.21873e-36
1.61337e-38
4.99544e-41
1.52641e-43
4.96549e-46
1.58169e-48
5.33117e-51
1.85975e-53
6.16082e-56
2.2389e-58
7.96416e-61
2.51989e-63
8.20323e-66
2.53738e-68
8.79214e-71
3.4292e-73
1.31888e-75
4.92699e-78
1.6344e-80
5.1123e-83
1.27785e-85
3.14897e-88
7.37287e-91
7.25834e-96
1.69974e-97
3.87704e-100
1.15846e-102
3.57587e-105
1.14473e-107
3.4333e-110
1.10623e-112
3.30875e-115
1.09826e-117
3.42545e-120
1.13582e-122
3.56673e-125
1.19535e-127
3.81794e-130
1.32203e-132
4.38254e-135
1.59192e-137
5.62995e-140
2.17552e-142
8.35113e-145
3.435e-147
1.42312e-149
6.17207e-152
2.67742e-154
1.20517e-156
5.33917e-159
2.44511e-161
1.11454e-163
4.92953e-166
8.87635e-174
9.9352e-177
5.18197e-180
8.34298e-183
1.62144e-185
3.076e-188
5.60617e-191
9.78893e-194
1.61477e-196
2.40966e-199
2.99298e-202
2.94579e-205
2.40137e-208
1.73775e-211
1.153e-214
7.15399e-218
4.195e-221
2.34579e-224
1.25713e-227
6.49522e-231
3.24498e-234
1.57437e-237
7.43447e-241
3.43018e-244
1.5473e-247
6.84936e-251
2.97638e-254
1.27003e-257
5.21518e-261
9.86062e-265
5.89174e-281
2.79607e-282
3.9232e-285
3.46087e-288
2.44308e-291
1.50064e-294
8.34836e-298
4.30399e-301
2.08251e-304
9.56847e-308
4.19938e-311
1.77263e-314
7.22404e-318
2.8557e-321
0
0
0
0
0
0
0
0
0
0
0
0
0
0
0
0
0
0
0
0
0
0
0
0
0
0
0
0
0
0
0
0
0
0
0
0
0
0
0
0
0
0
0
0
0
0
0
0
0
0
0
0
0
0
0
0
0
0
0
0
0
0
0
0
0
0
0
0
0
0
0
0
0
0
0
0
0
0
0
0
0
0
0
0
0
0
0
0
0
0
0
0
0
0
0
0
0
0
0
0
0
0
0
0
0
0
0
0
0
0
0
0
0
0
0
0
0
0
0
0
0
0
0
0
0
0
0
0
0
0
0
0
0
0
0
0
0
0
0
0
0
0
0
0
0
0
0
0
0
0
0
0
0
0
0
0
0
0
0
0
0
0
0
0
0
0
0
0
0
0
0
0
0
0
0
0
0
0
0
0
0
0
0
0
0
0
0
0
0
0
0
0
0
0
0
0
0
0
0
0
0
0
0
0
0
0
0
0
0
0
0
0
0
0
0
0
0
0
0
0
0
0
0
0
0
0
0
0
0
0
0
0
0
0
0
0
0
0
0
0
0
0
0
0
0
0
0
0
0
0
0
0
0
0
0
0
0.000667152
0.000675315
0.000700738
0.000659118
0.000576856
0.000500194
0.000374367
0.000286261
0.000252814
6.86289e-05
4.71642e-06
1.08394e-08
1.10948e-11
7.40559e-15
1.62509e-16
1.48268e-18
9.03332e-22
9.74241e-25
2.63638e-27
2.2784e-29
3.87456e-31
6.38541e-33
4.28639e-35
2.1068e-37
9.39943e-40
3.89863e-42
1.5421e-44
6.28994e-47
2.38097e-49
9.69361e-52
3.61928e-54
1.39537e-56
5.13297e-59
1.75865e-61
5.96339e-64
2.34504e-66
8.88733e-69
3.79492e-71
1.46075e-73
5.11787e-76
1.63887e-78
4.52067e-81
9.70002e-84
2.16851e-86
1.51764e-91
3.25303e-93
8.47241e-96
2.61144e-98
8.70814e-101
3.01202e-103
1.01688e-105
3.40779e-108
1.15544e-110
3.79183e-113
1.30746e-115
4.14671e-118
1.42725e-120
4.5399e-123
1.55388e-125
5.09918e-128
1.75266e-130
6.06647e-133
2.15363e-135
7.97006e-138
3.01312e-140
1.1945e-142
4.87328e-145
2.04628e-147
8.88738e-150
3.86702e-152
1.73186e-154
7.64008e-157
3.44398e-159
1.59813e-161
1.21021e-168
5.81167e-171
8.0388e-175
2.02365e-178
2.11418e-181
3.27714e-184
5.30459e-187
8.53852e-190
1.34711e-192
2.02541e-195
2.77486e-198
3.17753e-201
2.86972e-204
2.15312e-207
1.44265e-210
8.91407e-214
5.17122e-217
2.84739e-220
1.50016e-223
7.60087e-227
3.72363e-230
1.76821e-233
8.17749e-237
3.68952e-240
1.62945e-243
7.05457e-247
2.99966e-250
1.25335e-253
5.06384e-257
1.07938e-260
3.60629e-275
2.36425e-277
2.45644e-280
1.77029e-283
1.07e-286
5.80537e-290
2.91216e-293
1.3718e-296
6.13523e-300
2.62385e-303
1.08022e-306
4.29681e-310
1.65897e-313
6.23254e-317
2.28357e-320
9.88131e-324
0
0
0
0
0
0
0
0
0
0
0
0
0
0
0
0
0
0
0
0
0
0
0
0
0
0
0
0
0
0
0
0
0
0
0
0
0
0
0
0
0
0
0
0
0
0
0
0
0
0
0
0
0
0
0
0
0
0
0
0
0
0
0
0
0
0
0
0
0
0
0
0
0
0
0
0
0
0
0
0
0
0
0
0
0
0
0
0
0
0
0
0
0
0
0
0
0
0
0
0
0
0
0
0
0
0
0
0
0
0
0
0
0
0
0
0
0
0
0
0
0
0
0
0
0
0
0
0
0
0
0
0
0
0
0
0
0
0
0
0
0
0
0
0
0
0
0
0
0
0
0
0
0
0
0
0
0
0
0
0
0
0
0
0
0
0
0
0
0
0
0
0
0
0
0
0
0
0
0
0
0
0
0
0
0
0
0
0
0
0
0
0
0
0
0
0
0
0
0
0
0
0
0
0
0
0
0
0
0
0
0
0
0
0
0
0
0
0
0
0
0
0
0
0
0
0
0
0
0
0
0
0
0
0
0
0
0
0
0
0
0
0
0
0
0
0
0
0
0
0
0
0
0
0
0.000699219
0.000715693
0.000660319
0.000444963
0.000281713
0.000318909
0.000393337
0.000360703
0.000374599
0.000375582
8.75145e-05
6.6606e-06
4.39254e-08
4.38372e-11
2.24425e-13
3.3007e-15
1.48518e-18
4.40878e-22
2.54566e-25
6.30023e-28
5.08942e-30
8.15129e-32
1.37458e-33
1.67201e-35
1.76477e-37
1.36015e-39
8.92278e-42
5.29589e-44
2.59466e-46
1.20458e-48
5.17577e-51
2.05974e-53
8.62817e-56
3.12925e-58
1.1428e-60
4.66615e-63
1.93153e-65
8.81051e-68
3.59695e-70
1.44078e-72
5.21703e-75
1.60201e-77
4.17833e-80
9.81653e-83
1.69428e-88
2.76817e-90
1.19595e-92
4.86758e-95
1.91288e-97
7.28869e-100
2.72681e-102
9.78211e-105
3.45005e-107
1.18607e-109
4.04928e-112
1.36676e-114
4.56959e-117
1.53366e-119
5.13966e-122
1.72317e-124
5.8097e-127
1.98736e-129
6.94162e-132
2.47212e-134
9.24645e-137
3.4673e-139
1.41276e-141
5.62062e-144
2.45447e-146
1.02765e-148
4.62287e-151
1.98737e-153
8.84988e-156
3.88572e-158
3.46244e-165
1.99716e-167
7.52232e-170
6.51391e-174
1.02541e-177
6.40703e-181
8.38066e-184
1.21046e-186
1.77564e-189
2.56643e-192
3.51955e-195
4.3295e-198
4.35999e-201
3.51084e-204
2.41719e-207
1.50238e-210
8.66172e-214
4.70938e-217
2.43959e-220
1.21331e-223
5.82279e-227
2.70853e-230
1.22548e-233
5.41002e-237
2.33447e-240
9.86371e-244
4.08332e-247
1.65892e-250
6.52205e-254
1.4473e-257
3.4014e-270
3.39554e-273
2.37904e-276
1.34021e-279
6.79154e-283
3.21659e-286
1.44593e-289
6.19481e-293
2.54595e-296
1.0095e-299
3.87967e-303
1.45022e-306
5.28712e-310
1.88449e-313
6.57665e-317
2.25146e-320
4.94066e-324
0
0
0
0
0
0
0
0
0
0
0
0
0
0
0
0
0
0
0
0
0
0
0
0
0
0
0
0
0
0
0
0
0
0
0
0
0
0
0
0
0
0
0
0
0
0
0
0
0
0
0
0
0
0
0
0
0
0
0
0
0
0
0
0
0
0
0
0
0
0
0
0
0
0
0
0
0
0
0
0
0
0
0
0
0
0
0
0
0
0
0
0
0
0
0
0
0
0
0
0
0
0
0
0
0
0
0
0
0
0
0
0
0
0
0
0
0
0
0
0
0
0
0
0
0
0
0
0
0
0
0
0
0
0
0
0
0
0
0
0
0
0
0
0
0
0
0
0
0
0
0
0
0
0
0
0
0
0
0
0
0
0
0
0
0
0
0
0
0
0
0
0
0
0
0
0
0
0
0
0
0
0
0
0
0
0
0
0
0
0
0
0
0
0
0
0
0
0
0
0
0
0
0
0
0
0
0
0
0
0
0
0
0
0
0
0
0
0
0
0
0
0
0
0
0
0
0
0
0
0
0
0
0
0
0
0
0
0
0
0
0
0
0
0
0
0
0
0
0
0
0
0
0
0.000694538
0.000597484
0.000279203
6.80055e-05
4.27381e-05
6.74527e-05
0.000159769
0.000212028
0.000174048
0.000138061
0.000138246
0.000315555
6.58038e-05
1.96754e-06
2.06123e-07
3.77742e-08
1.38214e-10
5.55376e-13
1.44297e-15
2.57715e-19
6.39645e-23
5.4543e-26
2.08932e-28
1.28463e-30
8.76377e-33
6.67701e-35
4.9648e-37
2.90078e-39
2.01415e-41
1.17632e-43
6.98957e-46
4.12018e-48
2.98833e-50
1.96647e-52
1.25187e-54
7.88302e-57
4.59113e-59
2.65573e-61
1.47944e-63
7.92349e-66
4.11267e-68
2.20101e-70
1.22214e-72
6.23497e-75
3.00544e-77
1.22907e-79
3.44238e-82
1.07662e-84
7.64152e-87
3.75706e-89
2.6343e-91
1.64467e-93
8.93625e-96
4.61434e-98
2.06286e-100
8.86377e-103
3.48753e-105
1.36287e-107
4.94988e-110
1.82416e-112
6.35266e-115
2.2603e-117
7.72022e-120
2.67443e-122
9.21159e-125
3.14167e-127
1.11994e-129
3.8642e-132
1.45402e-134
5.22618e-137
2.11595e-139
8.08032e-142
3.50503e-144
1.4278e-146
6.36914e-149
2.70993e-151
1.18792e-153
5.06696e-156
2.26092e-158
1.00253e-160
5.7429e-163
2.80403e-165
1.328e-167
4.91984e-170
7.75278e-174
3.44648e-178
1.30491e-181
1.34572e-184
1.6473e-187
2.11072e-190
2.68015e-193
3.24938e-196
3.60931e-199
3.35273e-202
2.51781e-205
1.60747e-208
9.28657e-212
4.99752e-215
2.54771e-218
1.24279e-221
5.84287e-225
2.65971e-228
1.17733e-231
5.08246e-235
2.13339e-238
8.64365e-242
3.36478e-245
1.26966e-248
4.61298e-252
1.62391e-255
3.40926e-259
2.40943e-263
8.16078e-267
3.93404e-270
1.67627e-273
6.99192e-277
2.89222e-280
1.18387e-283
4.75568e-287
1.85304e-290
6.97394e-294
2.55115e-297
9.1133e-301
3.1874e-304
1.09395e-307
3.68844e-311
1.22336e-314
3.99497e-318
1.28457e-321
0
0
0
0
0
0
0
0
0
0
0
0
0
0
0
0
0
0
0
0
0
0
0
0
0
0
0
0
0
0
0
0
0
0
0
0
0
0
0
0
0
0
0
0
0
0
0
0
0
0
0
0
0
0
0
0
0
0
0
0
0
0
0
0
0
0
0
0
0
0
0
0
0
0
0
0
0
0
0
0
0
0
0
0
0
0
0
0
0
0
0
0
0
0
0
0
0
0
0
0
0
0
0
0
0
0
0
0
0
0
0
0
0
0
0
0
0
0
0
0
0
0
0
0
0
0
0
0
0
0
0
0
0
0
0
0
0
0
0
0
0
0
0
0
0
0
0
0
0
0
0
0
0
0
0
0
0
0
0
0
0
0
0
0
0
0
0
0
0
0
0
0
0
0
0
0
0
0
0
0
0
0
0
0
0
0
0
0
0
0
0
0
0
0
0
0
0
0
0
0
0
0
0
0
0
0
0
0
0
0
0
0
0
0
0
0
0
0
0
0
0
0
0
0
0
0
0
0
0
0
0
0
0
0
0
0
0
0
0
0
0
0
0
0
0
0
0
0
0
0
0
0
0
0
0
0
0
0
0
0
0
0
0
0
0
0
0
0
0
0
0
0.000231367
8.78424e-05
1.45072e-05
4.07546e-06
3.59273e-06
1.08315e-05
3.48394e-05
7.44491e-05
5.94265e-05
7.49758e-05
4.99085e-05
3.81494e-05
2.44199e-05
0.000215827
4.56152e-05
1.45381e-05
9.27681e-07
7.00272e-10
2.02578e-13
4.2978e-17
1.27566e-20
8.6152e-24
1.50823e-26
5.52854e-29
1.97863e-31
5.79477e-34
1.77413e-36
5.14681e-39
1.50442e-41
4.96064e-44
2.53016e-46
1.38181e-48
9.02811e-51
6.22887e-53
4.37007e-55
3.04744e-57
2.36532e-59
1.64395e-61
1.11625e-63
7.32491e-66
4.64352e-68
2.87777e-70
1.76203e-72
1.02698e-74
7.04415e-77
5.27857e-79
1.89684e-81
6.25163e-84
1.43588e-86
4.62755e-89
2.46854e-91
1.41572e-93
7.30433e-96
3.50252e-98
1.48145e-100
7.24588e-103
3.33902e-105
1.48661e-107
6.37002e-110
2.65628e-112
1.09745e-114
4.40215e-117
1.77545e-119
7.01507e-122
2.78301e-124
1.1088e-126
4.39509e-129
1.79501e-131
7.27727e-134
3.07849e-136
1.30258e-138
5.7303e-141
2.53418e-143
1.15558e-145
5.28066e-148
2.46661e-150
1.15022e-152
5.44986e-155
2.451e-157
1.16202e-159
5.65263e-162
2.71361e-164
1.29401e-166
6.22618e-169
1.68159e-171
4.11548e-176
4.23884e-180
3.17543e-183
3.27572e-186
3.60892e-189
4.08162e-192
4.64073e-195
5.05064e-198
4.87259e-201
3.85279e-204
2.50185e-207
1.43506e-210
7.58929e-214
3.78344e-217
1.80155e-220
8.26298e-224
3.67073e-227
1.58603e-230
6.68569e-234
2.75682e-237
1.10823e-240
4.35106e-244
1.69708e-247
6.5543e-251
2.49441e-254
8.85459e-258
3.21595e-261
1.22653e-264
4.458e-268
1.60207e-271
5.67702e-275
1.9934e-278
6.98767e-282
2.42444e-285
8.28834e-289
2.79426e-292
9.30304e-296
3.06109e-299
9.95565e-303
3.20094e-306
1.01747e-309
3.19836e-313
9.94099e-317
3.0558e-320
9.88131e-324
0
0
0
0
0
0
0
0
0
0
0
0
0
0
0
0
0
0
0
0
0
0
0
0
0
0
0
0
0
0
0
0
0
0
0
0
0
0
0
0
0
0
0
0
0
0
0
0
0
0
0
0
0
0
0
0
0
0
0
0
0
0
0
0
0
0
0
0
0
0
0
0
0
0
0
0
0
0
0
0
0
0
0
0
0
0
0
0
0
0
0
0
0
0
0
0
0
0
0
0
0
0
0
0
0
0
0
0
0
0
0
0
0
0
0
0
0
0
0
0
0
0
0
0
0
0
0
0
0
0
0
0
0
0
0
0
0
0
0
0
0
0
0
0
0
0
0
0
0
0
0
0
0
0
0
0
0
0
0
0
0
0
0
0
0
0
0
0
0
0
0
0
0
0
0
0
0
0
0
0
0
0
0
0
0
0
0
0
0
0
0
0
0
0
0
0
0
0
0
0
0
0
0
0
0
0
0
0
0
0
0
0
0
0
0
0
0
0
0
0
0
0
0
0
0
0
0
0
0
0
0
0
0
0
0
0
0
0
0
0
0
0
0
0
0
0
0
0
0
0
0
0
0
0
0
0
0
0
0
0
0
0
0
0
0
0
0
0
0
0
4.8254e-06
1.85984e-06
4.58791e-07
2.45307e-07
4.24737e-07
1.37171e-06
4.96753e-06
1.50328e-05
2.50589e-05
1.67841e-05
1.55769e-05
1.58132e-05
1.14375e-05
9.62231e-06
1.06025e-05
4.39213e-06
5.20774e-07
6.9478e-10
4.38232e-13
1.63274e-16
6.77751e-20
4.48861e-23
4.75688e-26
8.60327e-29
2.00681e-31
4.00956e-34
7.95426e-37
1.62856e-39
4.45604e-42
1.06655e-44
2.68617e-47
7.61064e-50
2.61593e-52
1.18927e-54
6.55952e-57
4.54916e-59
3.11929e-61
2.12939e-63
1.40858e-65
9.7955e-68
6.26423e-70
4.08749e-72
2.59997e-74
1.62913e-76
1.01809e-78
8.60183e-81
3.25433e-83
1.25068e-85
3.21614e-88
1.28926e-90
5.7808e-93
2.65439e-95
1.21663e-97
5.05181e-100
2.39229e-102
1.08582e-104
4.86081e-107
2.09294e-109
8.86348e-112
3.6287e-114
1.47359e-116
5.83346e-119
2.30497e-121
8.95685e-124
3.50469e-126
1.35895e-128
5.36454e-131
2.11939e-133
8.63439e-136
3.54145e-138
1.51586e-140
6.53186e-143
2.94351e-145
1.33097e-147
6.24018e-150
2.92295e-152
1.40226e-154
6.72133e-157
3.25862e-159
1.57083e-161
7.52392e-164
3.66283e-166
1.7833e-168
8.65918e-171
4.61943e-175
4.06843e-179
1.17734e-182
1.00435e-185
1.13124e-188
1.33794e-191
1.58933e-194
1.89497e-197
2.208e-200
2.42413e-203
2.34397e-206
1.85796e-209
1.20984e-212
6.93559e-216
3.64754e-219
1.79865e-222
8.43345e-226
3.79783e-229
1.65502e-232
7.02023e-236
2.9114e-239
1.18473e-242
4.74243e-246
1.87075e-249
7.28025e-253
2.79759e-256
1.0646e-259
3.98571e-263
1.46895e-266
5.36645e-270
1.93692e-273
6.90968e-277
2.43578e-280
8.48931e-284
2.92534e-287
9.9638e-291
3.35514e-294
1.1167e-297
3.67365e-301
1.19443e-304
3.8385e-308
1.21943e-311
3.83067e-315
1.19015e-318
3.65609e-322
0
0
0
0
0
0
0
0
0
0
0
0
0
0
0
0
0
0
0
0
0
0
0
0
0
0
0
0
0
0
0
0
0
0
0
0
0
0
0
0
0
0
0
0
0
0
0
0
0
0
0
0
0
0
0
0
0
0
0
0
0
0
0
0
0
0
0
0
0
0
0
0
0
0
0
0
0
0
0
0
0
0
0
0
0
0
0
0
0
0
0
0
0
0
0
0
0
0
0
0
0
0
0
0
0
0
0
0
0
0
0
0
0
0
0
0
0
0
0
0
0
0
0
0
0
0
0
0
0
0
0
0
0
0
0
0
0
0
0
0
0
0
0
0
0
0
0
0
0
0
0
0
0
0
0
0
0
0
0
0
0
0
0
0
0
0
0
0
0
0
0
0
0
0
0
0
0
0
0
0
0
0
0
0
0
0
0
0
0
0
0
0
0
0
0
0
0
0
0
0
0
0
0
0
0
0
0
0
0
0
0
0
0
0
0
0
0
0
0
0
0
0
0
0
0
0
0
0
0
0
0
0
0
0
0
0
0
0
0
0
0
0
0
0
0
0
0
0
0
0
0
0
0
0
0
0
0
0
0
0
0
0
0
0
0
0
0
0
0
0
0
1.05763e-07
6.14528e-08
4.12261e-08
4.3361e-08
5.25249e-08
1.54311e-07
3.90117e-07
1.28932e-06
3.91168e-06
5.53344e-06
5.69384e-06
5.50792e-06
4.28775e-06
3.09762e-06
2.51718e-06
5.53286e-07
5.45633e-08
1.76797e-10
9.8318e-14
5.94677e-17
4.06001e-20
3.32061e-23
3.84444e-26
4.99324e-29
6.73225e-32
9.88713e-35
2.01292e-37
3.71233e-40
6.92594e-43
1.31864e-45
2.53738e-48
4.95861e-51
1.01001e-53
2.8721e-56
8.87105e-59
3.4418e-61
1.76121e-63
1.01618e-65
6.0641e-68
3.71257e-70
2.23726e-72
1.32847e-74
7.7696e-77
4.45099e-79
2.47729e-81
1.49599e-83
7.21106e-86
2.94366e-88
1.09829e-90
3.89571e-93
1.73002e-95
7.79678e-98
3.63195e-100
1.61033e-102
7.33783e-105
3.20706e-107
1.39797e-109
5.86433e-112
2.4271e-114
9.76174e-117
3.89729e-119
1.52749e-121
5.97942e-124
2.32184e-126
9.07714e-129
3.54509e-131
1.41567e-133
5.66905e-136
2.36357e-138
9.882e-141
4.34182e-143
1.91054e-145
8.8046e-148
4.04812e-150
1.92973e-152
9.14354e-155
4.43422e-157
2.1422e-159
1.04537e-161
5.09454e-164
2.47895e-166
1.21934e-168
5.9765e-171
1.2123e-173
1.63945e-178
1.027e-182
7.74282e-186
9.28004e-189
1.176e-191
1.5095e-194
1.93572e-197
2.46338e-200
3.06109e-203
3.61313e-206
3.83136e-209
3.36082e-212
2.3778e-215
1.44037e-218
7.91245e-222
4.05302e-225
1.96766e-228
9.15374e-232
4.11278e-235
1.79538e-238
7.65009e-242
3.19299e-245
1.30887e-248
5.27914e-252
2.09827e-255
8.2282e-259
3.18876e-262
1.21755e-265
4.58245e-269
1.70604e-272
6.27717e-276
2.28213e-279
8.19852e-283
2.91099e-286
1.02167e-289
3.54482e-293
1.21607e-296
4.12563e-300
1.38436e-303
4.59596e-307
1.50983e-310
4.90965e-314
1.58094e-317
5.04441e-321
0
0
0
0
0
0
0
0
0
0
0
0
0
0
0
0
0
0
0
0
0
0
0
0
0
0
0
0
0
0
0
0
0
0
0
0
0
0
0
0
0
0
0
0
0
0
0
0
0
0
0
0
0
0
0
0
0
0
0
0
0
0
0
0
0
0
0
0
0
0
0
0
0
0
0
0
0
0
0
0
0
0
0
0
0
0
0
0
0
0
0
0
0
0
0
0
0
0
0
0
0
0
0
0
0
0
0
0
0
0
0
0
0
0
0
0
0
0
0
0
0
0
0
0
0
0
0
0
0
0
0
0
0
0
0
0
0
0
0
0
0
0
0
0
0
0
0
0
0
0
0
0
0
0
0
0
0
0
0
0
0
0
0
0
0
0
0
0
0
0
0
0
0
0
0
0
0
0
0
0
0
0
0
0
0
0
0
0
0
0
0
0
0
0
0
0
0
0
0
0
0
0
0
0
0
0
0
0
0
0
0
0
0
0
0
0
0
0
0
0
0
0
0
0
0
0
0
0
0
0
0
0
0
0
0
0
0
0
0
0
0
0
0
0
0
0
0
0
0
0
0
0
0
0
0
0
0
0
0
0
0
0
0
0
0
0
0
0
0
0
0
0
5.99796e-09
7.61792e-09
8.40907e-09
1.40663e-08
1.6843e-08
2.21205e-08
4.29345e-08
7.80492e-08
3.09154e-07
6.89174e-07
9.63649e-07
1.79222e-06
1.20752e-06
1.13983e-06
9.33349e-07
1.33314e-07
8.44354e-09
7.40612e-12
7.17207e-15
7.72111e-18
6.48756e-21
6.10593e-24
6.35565e-27
6.94237e-30
8.07141e-33
8.98935e-36
1.43712e-38
1.94643e-41
2.81254e-44
4.18059e-47
6.49013e-50
1.00601e-52
1.63502e-55
2.66223e-58
4.99204e-61
1.2322e-63
4.44508e-66
2.21667e-68
1.23859e-70
7.10053e-73
4.09997e-75
2.28873e-77
1.28598e-79
7.02188e-82
3.70554e-84
1.99299e-86
9.59911e-89
4.16168e-91
1.80877e-93
7.47961e-96
3.27576e-98
1.403e-100
6.0925e-103
2.56873e-105
1.10058e-107
4.56657e-110
1.89371e-112
7.62803e-115
3.037e-117
1.19102e-119
4.62001e-122
1.79162e-124
6.89572e-127
2.67099e-129
1.0438e-131
4.09291e-134
1.65978e-136
6.73743e-139
2.87078e-141
1.22909e-143
5.49876e-146
2.48492e-148
1.15835e-150
5.42792e-153
2.60991e-155
1.24852e-157
6.10758e-160
2.95385e-162
1.45471e-164
7.11452e-167
3.49694e-169
1.72603e-171
5.90193e-174
1.4771e-178
4.84456e-183
2.13064e-186
2.672e-189
3.64733e-192
5.01734e-195
6.93481e-198
9.475e-201
1.27118e-203
1.67456e-206
2.11644e-209
2.45509e-212
2.42009e-215
1.91041e-218
1.23802e-221
7.13357e-225
3.79865e-228
1.90778e-231
9.15387e-235
4.23301e-238
1.89893e-241
8.30308e-245
3.55192e-248
1.49075e-251
6.15088e-255
2.49918e-258
9.99357e-262
3.95403e-265
1.54088e-268
5.91714e-272
2.25148e-275
8.45077e-279
3.13511e-282
1.14974e-285
4.16905e-289
1.49514e-292
5.30454e-296
1.86243e-299
6.47377e-303
2.2286e-306
7.60101e-310
2.56967e-313
8.61454e-317
2.86558e-320
9.88131e-324
0
0
0
0
0
0
0
0
0
0
0
0
0
0
0
0
0
0
0
0
0
0
0
0
0
0
0
0
0
0
0
0
0
0
0
0
0
0
0
0
0
0
0
0
0
0
0
0
0
0
0
0
0
0
0
0
0
0
0
0
0
0
0
0
0
0
0
0
0
0
0
0
0
0
0
0
0
0
0
0
0
0
0
0
0
0
0
0
0
0
0
0
0
0
0
0
0
0
0
0
0
0
0
0
0
0
0
0
0
0
0
0
0
0
0
0
0
0
0
0
0
0
0
0
0
0
0
0
0
0
0
0
0
0
0
0
0
0
0
0
0
0
0
0
0
0
0
0
0
0
0
0
0
0
0
0
0
0
0
0
0
0
0
0
0
0
0
0
0
0
0
0
0
0
0
0
0
0
0
0
0
0
0
0
0
0
0
0
0
0
0
0
0
0
0
0
0
0
0
0
0
0
0
0
0
0
0
0
0
0
0
0
0
0
0
0
0
0
0
0
0
0
0
0
0
0
0
0
0
0
0
0
0
0
0
0
0
0
0
0
0
0
0
0
0
0
0
0
0
0
0
0
0
0
0
0
0
0
0
0
0
0
0
0
0
0
0
0
0
0
0
0
3.01483e-09
5.5145e-09
7.08567e-09
7.41888e-09
7.89476e-09
8.52237e-09
1.3313e-08
1.59123e-08
1.43739e-08
2.65788e-08
5.76333e-08
1.40062e-07
2.09422e-07
1.49838e-07
4.65843e-08
5.22159e-09
1.39809e-10
7.21262e-14
7.20288e-17
7.88932e-20
9.30809e-23
1.13816e-25
1.34542e-28
1.57805e-31
1.88444e-34
2.14534e-37
2.44055e-40
2.91033e-43
3.70659e-46
4.90661e-49
6.77871e-52
9.43096e-55
1.37901e-57
1.97068e-60
3.31725e-63
7.18165e-66
2.43816e-68
1.14728e-70
6.1295e-73
3.36135e-75
1.8159e-77
9.90727e-80
5.18694e-82
2.72601e-84
1.38494e-86
6.99373e-89
3.37888e-91
1.60196e-93
7.28376e-96
3.21114e-98
1.37624e-100
5.91416e-103
2.44114e-105
1.01995e-107
4.12151e-110
1.67367e-112
6.58073e-115
2.58642e-117
9.90818e-120
3.81495e-122
1.44778e-124
5.53416e-127
2.11985e-129
8.15048e-132
3.21094e-134
1.26855e-136
5.21359e-139
2.16352e-141
9.35345e-144
4.11002e-146
1.86277e-148
8.59125e-151
4.04565e-153
1.91822e-155
9.28503e-158
4.46956e-160
2.19119e-162
1.06577e-164
5.25133e-167
2.57529e-169
1.27277e-171
5.16023e-174
1.86087e-178
5.86092e-183
1.1837e-186
1.47902e-189
2.16821e-192
3.20073e-195
4.72819e-198
6.92011e-201
9.97759e-204
1.4104e-206
1.95935e-209
2.62596e-212
3.28144e-215
3.57489e-218
3.09741e-221
2.1522e-224
1.29983e-227
7.18293e-231
3.72393e-234
1.83855e-237
8.73098e-241
4.01628e-244
1.79886e-247
7.87597e-251
3.38047e-254
1.42548e-257
5.91482e-261
2.41724e-264
9.74565e-268
3.87553e-271
1.52106e-274
5.89955e-278
2.26027e-281
8.55992e-285
3.2057e-288
1.18764e-291
4.3546e-295
1.58076e-298
5.68373e-302
2.02515e-305
7.15364e-309
2.50641e-312
8.71444e-316
3.00822e-319
1.03754e-322
0
0
0
0
0
0
0
0
0
0
0
0
0
0
0
0
0
0
0
0
0
0
0
0
0
0
0
0
0
0
0
0
0
0
0
0
0
0
0
0
0
0
0
0
0
0
0
0
0
0
0
0
0
0
0
0
0
0
0
0
0
0
0
0
0
0
0
0
0
0
0
0
0
0
0
0
0
0
0
0
0
0
0
0
0
0
0
0
0
0
0
0
0
0
0
0
0
0
0
0
0
0
0
0
0
0
0
0
0
0
0
0
0
0
0
0
0
0
0
0
0
0
0
0
0
0
0
0
0
0
0
0
0
0
0
0
0
0
0
0
0
0
0
0
0
0
0
0
0
0
0
0
0
0
0
0
0
0
0
0
0
0
0
0
0
0
0
0
0
0
0
0
0
0
0
0
0
0
0
0
0
0
0
0
0
0
0
0
0
0
0
0
0
0
0
0
0
0
0
0
0
0
0
0
0
0
0
0
0
0
0
0
0
0
0
0
0
0
0
0
0
0
0
0
0
0
0
0
0
0
0
0
0
0
0
0
0
0
0
0
0
0
0
0
0
0
0
0
0
0
0
0
0
0
0
0
0
0
0
0
0
0
0
0
0
0
0
0
0
0
0
0
0
6.47242e-09
7.3493e-09
7.69568e-09
3.55996e-09
1.8536e-09
1.38031e-09
1.09093e-09
9.22187e-10
8.62363e-10
1.11498e-09
1.47923e-09
2.6764e-09
2.474e-09
1.82976e-09
8.76971e-10
6.87018e-11
1.00425e-13
1.41378e-16
1.93661e-19
2.61373e-22
3.48492e-25
4.55701e-28
5.60473e-31
6.878e-34
8.25777e-37
9.68946e-40
1.14154e-42
1.43617e-45
1.96905e-48
2.84736e-51
4.22577e-54
6.21958e-57
9.23544e-60
1.37584e-62
2.51101e-65
6.18447e-68