/*--------------------------------*- C++ -*----------------------------------*\
| =========                 |                                                 |
| \\      /  F ield         | OpenFOAM: The Open Source CFD Toolbox           |
|  \\    /   O peration     | Version:  2.1.1                                 |
|   \\  /    A nd           | Web:      www.OpenFOAM.org                      |
|    \\/     M anipulation  |                                                 |
\*---------------------------------------------------------------------------*/
FoamFile
{
    version     2.0;
    format      ascii;
    class       volScalarField;
    location    "0.000100000";
    object      H;
}
// * * * * * * * * * * * * * * * * * * * * * * * * * * * * * * * * * * * * * //

dimensions      [0 0 0 0 0 0 0];

internalField   nonuniform List<scalar> 
12384
(
7.27743e-11
6.21031e-11
1.08961e-12
3.08052e-15
1.61994e-17
3.4449e-20
5.88614e-23
8.04775e-26
9.98301e-29
1.48792e-31
2.55724e-34
4.59015e-37
8.22364e-40
1.38811e-42
1.63336e-59
7.34181e-60
2.92774e-62
7.42119e-65
1.45943e-67
2.41005e-70
3.4969e-73
4.58438e-76
5.53922e-79
6.25171e-82
6.65743e-85
6.73688e-88
6.50688e-91
6.01869e-94
5.34653e-97
4.5723e-100
3.77219e-103
3.00779e-106
2.32145e-109
1.73636e-112
1.26024e-115
8.88771e-119
6.09938e-122
4.08196e-125
2.6652e-128
1.69743e-131
1.05088e-134
6.27899e-138
3.6169e-141
1.81334e-144
1.53565e-158
3.0044e-159
4.66712e-162
4.73376e-165
3.81743e-168
2.0167e-171
1.17928e-175
1.79635e-179
6.01541e-183
2.33861e-186
8.5278e-190
2.7896e-193
8.02292e-197
2.03808e-200
4.6385e-204
9.59331e-208
1.82448e-211
3.22263e-215
5.32672e-219
8.28952e-223
1.22908e-226
1.75031e-230
2.41234e-234
3.25834e-238
4.24786e-242
5.29105e-246
6.09738e-250
6.22895e-254
5.96194e-258
1.12903e-262
2.91754e-289
6.60988e-287
4.96657e-290
2.16752e-293
6.66916e-297
1.61196e-300
3.31684e-304
6.08187e-308
1.03548e-311
1.65031e-315
2.48752e-319
3.45846e-323
0
0
0
0
0
0
0
0
0
0
0
0
0
0
0
0
0
0
0
0
0
0
0
0
0
0
0
0
0
0
0
0
0
0
0
0
0
0
0
0
0
0
0
0
0
0
0
0
0
0
0
0
0
0
0
0
0
0
0
0
0
0
0
0
0
0
0
0
0
0
0
0
0
0
0
0
0
0
0
0
0
0
0
0
0
0
0
0
0
0
0
0
0
0
0
0
0
0
0
0
0
0
0
0
0
0
0
0
0
0
0
0
0
0
0
0
0
0
0
0
0
0
0
0
0
0
0
0
0
0
0
0
0
0
0
0
0
0
0
0
0
0
0
0
0
0
0
0
0
0
0
0
0
0
0
0
0
0
0
0
0
0
0
0
0
0
0
0
0
0
0
0
0
0
0
0
0
0
0
0
0
0
0
0
0
0
0
0
0
0
0
0
0
0
0
0
0
0
0
0
0
0
0
0
0
0
0
0
0
0
0
0
0
0
0
0
0
0
0
0
0
0
0
0
0
0
0
0
0
0
0
0
0
0
0
0
0
0
0
0
0
0
0
0
0
0
0
0
0
0
0
0
0
0
0
0
0
0
0
0
0
0
0
0
0
0
0
0
0
0
0
0
0
0
0
0
0
0
0
0
0
0
0
0
0
0
0
0
9.59921e-09
8.43676e-09
1.17091e-10
2.93626e-13
6.83498e-16
1.54453e-18
3.25522e-21
6.51529e-24
1.25417e-26
2.33788e-29
4.29931e-32
7.85892e-35
1.47329e-37
2.76186e-40
1.46641e-56
6.20376e-57
2.46732e-59
6.16795e-62
1.20457e-64
1.98969e-67
2.9057e-70
3.85051e-73
4.71048e-76
5.39497e-79
5.84424e-82
6.03023e-85
5.94942e-88
5.62657e-91
5.11333e-94
4.47499e-97
3.77866e-100
3.08384e-103
2.43587e-106
1.86431e-109
1.38456e-112
9.99111e-116
7.01199e-119
4.79347e-122
3.19595e-125
2.07693e-128
1.31013e-131
7.9577e-135
4.6436e-138
2.2275e-141
3.88626e-155
6.94854e-156
1.04631e-158
1.01913e-161
7.95039e-165
5.36465e-168
2.62898e-171
3.79701e-175
1.19645e-178
4.68913e-182
1.7404e-185
5.79608e-189
1.69479e-192
4.36069e-196
1.00289e-199
2.09566e-203
4.03169e-207
7.21321e-211
1.20873e-214
1.91028e-218
2.87371e-222
4.14456e-226
5.74878e-230
7.70484e-234
1.00041e-237
1.25351e-241
1.48933e-245
1.6337e-249
1.6758e-253
5.73399e-258
2.89185e-284
2.03692e-282
1.40863e-285
5.63142e-289
1.66172e-292
3.97347e-296
8.21545e-300
1.52647e-303
2.60459e-307
4.14475e-311
6.23797e-315
8.98621e-319
1.23516e-322
0
0
0
0
0
0
0
0
0
0
0
0
0
0
0
0
0
0
0
0
0
0
0
0
0
0
0
0
0
0
0
0
0
0
0
0
0
0
0
0
0
0
0
0
0
0
0
0
0
0
0
0
0
0
0
0
0
0
0
0
0
0
0
0
0
0
0
0
0
0
0
0
0
0
0
0
0
0
0
0
0
0
0
0
0
0
0
0
0
0
0
0
0
0
0
0
0
0
0
0
0
0
0
0
0
0
0
0
0
0
0
0
0
0
0
0
0
0
0
0
0
0
0
0
0
0
0
0
0
0
0
0
0
0
0
0
0
0
0
0
0
0
0
0
0
0
0
0
0
0
0
0
0
0
0
0
0
0
0
0
0
0
0
0
0
0
0
0
0
0
0
0
0
0
0
0
0
0
0
0
0
0
0
0
0
0
0
0
0
0
0
0
0
0
0
0
0
0
0
0
0
0
0
0
0
0
0
0
0
0
0
0
0
0
0
0
0
0
0
0
0
0
0
0
0
0
0
0
0
0
0
0
0
0
0
0
0
0
0
0
0
0
0
0
0
0
0
0
0
0
0
0
0
0
0
0
0
0
0
0
0
0
0
0
0
0
0
0
0
0
0
0
0
0
0
0
0
0
0
0
0
0
0
0
0
0
0
5.5767e-15
3.99089e-15
3.69276e-18
1.01149e-21
4.50949e-25
1.51669e-27
1.29671e-30
8.51846e-34
5.94267e-37
9.32813e-40
2.68748e-42
9.60969e-45
3.69515e-47
2.14823e-50
1.87859e-63
1.06555e-63
4.18566e-66
9.90484e-69
1.79682e-71
2.77809e-74
3.86392e-77
4.95009e-80
5.89882e-83
6.62642e-86
7.09874e-89
7.29693e-92
7.20949e-95
6.85216e-98
6.27533e-101
5.54564e-104
4.73595e-107
3.91468e-110
3.13498e-113
2.43636e-116
1.84166e-119
1.35495e-122
9.68003e-126
6.6961e-129
4.51891e-132
2.99294e-135
1.9282e-138
1.18215e-141
6.79421e-145
4.24543e-149
1.4614e-161
3.37241e-162
4.871e-165
4.36456e-168
3.08075e-171
1.89432e-174
1.06915e-177
5.61842e-181
2.4527e-184
1.02449e-187
3.86282e-191
1.28972e-194
3.73206e-198
9.39947e-202
2.10176e-205
4.2653e-209
7.99315e-213
1.39963e-216
2.30651e-220
3.60119e-224
5.36617e-228
7.67681e-232
1.05482e-235
1.38879e-239
1.76709e-243
2.19506e-247
2.64215e-251
3.01605e-255
3.24342e-259
7.12839e-264
3.85789e-289
8.18721e-288
5.11189e-291
1.81243e-294
4.77122e-298
1.04598e-301
2.03137e-305
3.60959e-309
5.93645e-313
9.13088e-317
1.332e-320
0
0
0
0
0
0
0
0
0
0
0
0
0
0
0
0
0
0
0
0
0
0
0
0
0
0
0
0
0
0
0
0
0
0
0
0
0
0
0
0
0
0
0
0
0
0
0
0
0
0
0
0
0
0
0
0
0
0
0
0
0
0
0
0
0
0
0
0
0
0
0
0
0
0
0
0
0
0
0
0
0
0
0
0
0
0
0
0
0
0
0
0
0
0
0
0
0
0
0
0
0
0
0
0
0
0
0
0
0
0
0
0
0
0
0
0
0
0
0
0
0
0
0
0
0
0
0
0
0
0
0
0
0
0
0
0
0
0
0
0
0
0
0
0
0
0
0
0
0
0
0
0
0
0
0
0
0
0
0
0
0
0
0
0
0
0
0
0
0
0
0
0
0
0
0
0
0
0
0
0
0
0
0
0
0
0
0
0
0
0
0
0
0
0
0
0
0
0
0
0
0
0
0
0
0
0
0
0
0
0
0
0
0
0
0
0
0
0
0
0
0
0
0
0
0
0
0
0
0
0
0
0
0
0
0
0
0
0
0
0
0
0
0
0
0
0
0
0
0
0
0
0
0
0
0
0
0
0
0
0
0
0
0
0
0
0
0
0
0
0
0
0
0
0
0
0
0
0
0
0
0
0
0
0
0
0
0
0
0
3.71073e-06
2.13659e-06
2.93875e-14
9.37694e-18
8.30345e-21
2.98951e-23
3.53605e-26
2.88838e-29
1.86263e-32
1.75072e-35
3.07917e-38
9.14846e-41
3.48482e-43
3.86187e-46
2.13811e-58
2.44916e-59
9.01635e-62
2.0939e-64
3.85664e-67
6.12452e-70
8.74105e-73
1.14848e-75
1.41169e-78
1.64194e-81
1.82101e-84
1.93444e-87
1.97314e-90
1.93554e-93
1.82851e-96
1.66599e-99
1.4661e-102
1.2479e-105
1.02868e-108
8.22198e-112
6.37779e-115
4.80548e-118
3.52137e-121
2.51467e-124
1.75381e-127
1.19692e-130
8.00424e-134
5.23617e-137
3.30775e-140
4.62142e-144
4.92282e-156
2.14721e-157
2.80297e-160
2.38463e-163
1.65642e-166
1.01756e-169
5.74926e-173
3.05615e-176
1.54538e-179
6.6215e-183
2.53782e-186
8.58135e-190
2.48308e-193
6.17265e-197
1.34809e-200
2.66004e-204
4.85489e-208
8.32271e-212
1.35166e-215
2.08981e-219
3.08745e-223
4.37547e-227
5.97393e-231
7.89414e-235
1.01419e-238
1.272e-242
1.56285e-246
1.88622e-250
2.2304e-254
1.20479e-258
4.70726e-283
9.6336e-283
5.18002e-286
1.64873e-289
4.02882e-293
8.33587e-297
1.53497e-300
2.59077e-304
4.0855e-308
6.09923e-312
8.70229e-316
1.195e-319
1.4822e-323
0
0
0
0
0
0
0
0
0
0
0
0
0
0
0
0
0
0
0
0
0
0
0
0
0
0
0
0
0
0
0
0
0
0
0
0
0
0
0
0
0
0
0
0
0
0
0
0
0
0
0
0
0
0
0
0
0
0
0
0
0
0
0
0
0
0
0
0
0
0
0
0
0
0
0
0
0
0
0
0
0
0
0
0
0
0
0
0
0
0
0
0
0
0
0
0
0
0
0
0
0
0
0
0
0
0
0
0
0
0
0
0
0
0
0
0
0
0
0
0
0
0
0
0
0
0
0
0
0
0
0
0
0
0
0
0
0
0
0
0
0
0
0
0
0
0
0
0
0
0
0
0
0
0
0
0
0
0
0
0
0
0
0
0
0
0
0
0
0
0
0
0
0
0
0
0
0
0
0
0
0
0
0
0
0
0
0
0
0
0
0
0
0
0
0
0
0
0
0
0
0
0
0
0
0
0
0
0
0
0
0
0
0
0
0
0
0
0
0
0
0
0
0
0
0
0
0
0
0
0
0
0
0
0
0
0
0
0
0
0
0
0
0
0
0
0
0
0
0
0
0
0
0
0
0
0
0
0
0
0
0
0
0
0
0
0
0
0
0
0
0
0
0
0
0
0
0
0
0
0
0
0
0
0
0
0
0
0.000100495
9.39904e-05
3.78676e-06
1.19434e-12
4.21276e-15
3.61388e-17
5.12046e-20
5.03239e-23
3.25778e-26
2.48015e-29
2.8608e-32
4.53783e-35
1.05378e-37
1.55163e-40
4.86325e-52
1.42357e-53
4.88763e-56
1.11714e-58
2.07234e-61
3.35368e-64
4.90928e-67
6.63997e-70
8.42094e-73
1.01197e-75
1.16048e-78
1.27503e-81
1.34507e-84
1.36413e-87
1.33155e-90
1.2526e-93
1.13719e-96
9.97719e-100
8.47033e-103
6.96721e-106
5.55793e-109
4.30384e-112
3.23968e-115
2.37619e-118
1.70207e-121
1.19311e-124
8.19358e-128
5.49312e-131
3.55357e-134
6.62252e-138
3.49687e-149
3.61447e-151
4.23208e-154
3.41979e-157
2.31629e-160
1.40794e-163
7.94371e-167
4.24241e-170
2.17318e-173
1.07392e-176
4.09442e-180
1.37364e-183
3.84828e-187
9.04542e-191
1.82817e-194
3.29184e-198
5.45815e-202
8.53253e-206
1.27425e-209
1.82833e-213
2.52611e-217
3.36628e-221
4.3367e-225
5.41845e-229
6.59095e-233
7.83594e-237
9.13892e-241
1.0488e-244
1.18227e-248
6.46111e-253
1.47635e-275
3.04266e-276
1.34056e-279
3.62854e-283
7.70764e-287
1.40739e-290
2.31325e-294
3.51688e-298
5.03397e-302
6.86732e-306
9.00727e-310
1.14322e-313
1.41096e-317
1.69959e-321
0
0
0
0
0
0
0
0
0
0
0
0
0
0
0
0
0
0
0
0
0
0
0
0
0
0
0
0
0
0
0
0
0
0
0
0
0
0
0
0
0
0
0
0
0
0
0
0
0
0
0
0
0
0
0
0
0
0
0
0
0
0
0
0
0
0
0
0
0
0
0
0
0
0
0
0
0
0
0
0
0
0
0
0
0
0
0
0
0
0
0
0
0
0
0
0
0
0
0
0
0
0
0
0
0
0
0
0
0
0
0
0
0
0
0
0
0
0
0
0
0
0
0
0
0
0
0
0
0
0
0
0
0
0
0
0
0
0
0
0
0
0
0
0
0
0
0
0
0
0
0
0
0
0
0
0
0
0
0
0
0
0
0
0
0
0
0
0
0
0
0
0
0
0
0
0
0
0
0
0
0
0
0
0
0
0
0
0
0
0
0
0
0
0
0
0
0
0
0
0
0
0
0
0
0
0
0
0
0
0
0
0
0
0
0
0
0
0
0
0
0
0
0
0
0
0
0
0
0
0
0
0
0
0
0
0
0
0
0
0
0
0
0
0
0
0
0
0
0
0
0
0
0
0
0
0
0
0
0
0
0
0
0
0
0
0
0
0
0
0
0
0
0
0
0
0
0
0
0
0
0
0
0
0
0
0
0.000106479
0.000106404
9.29824e-05
7.9764e-06
1.35989e-10
3.46917e-12
5.73798e-15
7.07654e-18
4.72868e-21
3.46722e-24
3.69732e-27
4.79771e-30
7.13048e-33
1.03987e-35
1.11169e-46
1.23221e-48
3.90456e-51
8.79758e-54
1.65003e-56
2.73206e-59
4.11728e-62
5.75232e-65
7.55203e-68
9.40648e-71
1.11848e-73
1.27412e-76
1.3933e-79
1.46412e-82
1.47979e-85
1.44016e-88
1.35139e-91
1.2243e-94
1.07225e-97
9.09148e-101
7.47054e-104
5.9547e-107
4.61184e-110
3.48021e-113
2.56458e-116
1.84939e-119
1.30588e-122
8.97244e-126
5.93712e-129
1.50919e-132
2.65869e-143
9.54798e-146
9.89226e-149
7.58793e-152
5.02042e-155
3.02597e-158
1.70849e-161
9.18539e-165
4.75695e-168
2.39191e-171
1.16962e-174
3.88867e-178
1.04421e-181
2.30467e-185
4.26972e-189
6.91296e-193
1.0194e-196
1.41543e-200
1.89064e-204
2.45438e-208
3.10482e-212
3.82558e-216
4.58905e-220
5.36376e-224
6.12155e-228
6.8426e-232
7.51639e-236
8.13921e-240
8.67777e-244
4.60457e-248
8.23138e-269
1.77215e-270
6.09577e-274
1.36006e-277
2.45162e-281
3.87029e-285
5.57428e-289
7.50422e-293
9.59506e-297
1.17828e-300
1.40074e-304
1.62145e-308
1.83563e-312
2.03915e-316
2.22824e-320
0
0
0
0
0
0
0
0
0
0
0
0
0
0
0
0
0
0
0
0
0
0
0
0
0
0
0
0
0
0
0
0
0
0
0
0
0
0
0
0
0
0
0
0
0
0
0
0
0
0
0
0
0
0
0
0
0
0
0
0
0
0
0
0
0
0
0
0
0
0
0
0
0
0
0
0
0
0
0
0
0
0
0
0
0
0
0
0
0
0
0
0
0
0
0
0
0
0
0
0
0
0
0
0
0
0
0
0
0
0
0
0
0
0
0
0
0
0
0
0
0
0
0
0
0
0
0
0
0
0
0
0
0
0
0
0
0
0
0
0
0
0
0
0
0
0
0
0
0
0
0
0
0
0
0
0
0
0
0
0
0
0
0
0
0
0
0
0
0
0
0
0
0
0
0
0
0
0
0
0
0
0
0
0
0
0
0
0
0
0
0
0
0
0
0
0
0
0
0
0
0
0
0
0
0
0
0
0
0
0
0
0
0
0
0
0
0
0
0
0
0
0
0
0
0
0
0
0
0
0
0
0
0
0
0
0
0
0
0
0
0
0
0
0
0
0
0
0
0
0
0
0
0
0
0
0
0
0
0
0
0
0
0
0
0
0
0
0
0
0
0
0
0
0
0
0
0
0
0
0
0
0
0
0
0
0.000104668
0.000104766
0.000106428
9.5422e-05
2.07254e-05
1.58054e-08
5.75657e-11
1.57303e-13
3.28522e-16
5.73803e-19
8.82464e-22
1.24363e-24
1.66744e-27
2.26068e-30
5.68877e-41
2.94225e-43
8.52205e-46
1.89712e-48
3.61149e-51
6.14191e-54
9.56239e-57
1.38447e-59
1.88773e-62
2.44442e-65
3.02162e-68
3.57644e-71
4.06225e-74
4.43168e-77
4.64643e-80
4.68658e-83
4.55321e-86
4.26619e-89
3.86038e-92
3.37945e-95
2.86481e-98
2.35422e-101
1.87919e-104
1.46183e-107
1.11033e-110
8.25108e-114
5.9958e-117
4.21603e-120
2.84699e-123
1.15093e-126
4.80475e-137
7.33198e-140
6.63112e-143
4.82742e-146
3.12399e-149
1.86982e-152
1.05812e-155
5.73633e-159
3.00874e-162
1.53652e-165
7.67012e-169
3.73214e-172
9.30486e-176
1.88801e-179
3.13399e-183
4.45628e-187
5.68787e-191
6.78474e-195
7.79764e-199
8.79671e-203
9.81002e-207
1.08121e-210
1.17445e-214
1.25478e-218
1.31785e-222
1.3622e-226
1.38878e-230
1.39912e-234
1.39105e-238
7.50918e-243
1.73694e-261
3.68832e-264
9.15178e-268
1.60712e-271
2.37065e-275
3.13233e-279
3.8347e-283
4.43895e-287
4.92908e-291
5.30321e-295
5.56753e-299
5.73231e-303
5.81153e-307
5.81923e-311
5.76796e-315
5.66866e-319
5.43472e-323
0
0
0
0
0
0
0
0
0
0
0
0
0
0
0
0
0
0
0
0
0
0
0
0
0
0
0
0
0
0
0
0
0
0
0
0
0
0
0
0
0
0
0
0
0
0
0
0
0
0
0
0
0
0
0
0
0
0
0
0
0
0
0
0
0
0
0
0
0
0
0
0
0
0
0
0
0
0
0
0
0
0
0
0
0
0
0
0
0
0
0
0
0
0
0
0
0
0
0
0
0
0
0
0
0
0
0
0
0
0
0
0
0
0
0
0
0
0
0
0
0
0
0
0
0
0
0
0
0
0
0
0
0
0
0
0
0
0
0
0
0
0
0
0
0
0
0
0
0
0
0
0
0
0
0
0
0
0
0
0
0
0
0
0
0
0
0
0
0
0
0
0
0
0
0
0
0
0
0
0
0
0
0
0
0
0
0
0
0
0
0
0
0
0
0
0
0
0
0
0
0
0
0
0
0
0
0
0
0
0
0
0
0
0
0
0
0
0
0
0
0
0
0
0
0
0
0
0
0
0
0
0
0
0
0
0
0
0
0
0
0
0
0
0
0
0
0
0
0
0
0
0
0
0
0
0
0
0
0
0
0
0
0
0
0
0
0
0
0
0
0
0
0
0
0
0
0
0
0
0
0
0
0
0.0001052
0.0001043
0.000105458
9.98726e-05
3.90344e-05
3.27159e-07
2.15096e-09
9.00122e-12
2.99498e-14
8.15707e-17
1.9015e-19
3.92611e-22
7.40991e-25
1.32483e-27
1.20089e-36
3.94456e-39
1.02605e-41
2.22799e-44
4.28517e-47
7.47739e-50
1.20359e-52
1.8096e-55
2.56729e-58
3.46312e-61
4.46091e-64
5.4994e-67
6.50088e-70
7.37546e-73
8.03451e-76
8.41138e-79
8.47309e-82
8.22229e-85
7.69624e-88
6.96218e-91
6.09445e-94
5.16919e-97
4.25717e-100
3.41355e-103
2.67097e-106
2.04086e-109
1.52066e-112
1.09295e-115
7.52936e-119
4.12878e-122
3.81071e-132
3.42379e-135
2.60906e-138
1.76459e-141
1.10734e-144
6.55877e-148
3.71566e-151
2.03333e-154
1.08165e-157
5.61992e-161
2.86009e-164
1.42791e-167
6.95857e-171
1.24468e-174
1.71781e-178
1.99017e-182
2.03681e-186
1.92049e-190
1.72824e-194
1.52629e-198
1.3428e-202
1.18048e-206
1.03554e-210
9.06999e-215
7.94094e-219
6.96199e-223
6.11677e-227
5.27112e-231
4.32468e-235
1.91334e-239
3.1866e-255
7.156e-259
1.09322e-262
1.38484e-266
1.57497e-270
1.6416e-274
1.59906e-278
1.47834e-282
1.31328e-286
1.13358e-290
9.56486e-295
7.90924e-299
6.43314e-303
5.16951e-307
4.11146e-311
3.23912e-315
2.53001e-319
1.97626e-323
0
0
0
0
0
0
0
0
0
0
0
0
0
0
0
0
0
0
0
0
0
0
0
0
0
0
0
0
0
0
0
0
0
0
0
0
0
0
0
0
0
0
0
0
0
0
0
0
0
0
0
0
0
0
0
0
0
0
0
0
0
0
0
0
0
0
0
0
0
0
0
0
0
0
0
0
0
0
0
0
0
0
0
0
0
0
0
0
0
0
0
0
0
0
0
0
0
0
0
0
0
0
0
0
0
0
0
0
0
0
0
0
0
0
0
0
0
0
0
0
0
0
0
0
0
0
0
0
0
0
0
0
0
0
0
0
0
0
0
0
0
0
0
0
0
0
0
0
0
0
0
0
0
0
0
0
0
0
0
0
0
0
0
0
0
0
0
0
0
0
0
0
0
0
0
0
0
0
0
0
0
0
0
0
0
0
0
0
0
0
0
0
0
0
0
0
0
0
0
0
0
0
0
0
0
0
0
0
0
0
0
0
0
0
0
0
0
0
0
0
0
0
0
0
0
0
0
0
0
0
0
0
0
0
0
0
0
0
0
0
0
0
0
0
0
0
0
0
0
0
0
0
0
0
0
0
0
0
0
0
0
0
0
0
0
0
0
0
0
0
0
0
0
0
0
0
0
0
0
0
0
0
0.00010425
0.00010496
0.000104596
0.000105752
8.97874e-05
4.78589e-06
5.34211e-08
3.73795e-10
1.99447e-12
8.63117e-15
3.16401e-17
1.01605e-19
2.92117e-22
7.71007e-25
1.9152e-27
4.50206e-30
1.06899e-32
2.55748e-35
5.75506e-38
1.20463e-40
2.34749e-43
4.25913e-46
7.20791e-49
1.14382e-51
1.71157e-54
2.42651e-57
3.27545e-60
4.22489e-63
5.21646e-66
6.16987e-69
6.99555e-72
7.61227e-75
7.96031e-78
8.00974e-81
7.76316e-84
7.25612e-87
6.55111e-90
5.72517e-93
4.85285e-96
3.99186e-99
3.19005e-102
2.47799e-105
1.86797e-108
1.36411e-111
9.65848e-115
6.62241e-118
4.06841e-121
2.24907e-124
1.32882e-127
8.35688e-131
5.19953e-134
3.18625e-137
1.92038e-140
1.13314e-143
6.51806e-147
3.65492e-150
1.99962e-153
1.06802e-156
5.58298e-160
2.86334e-163
1.44243e-166
7.05981e-170
7.32929e-174
6.59941e-178
5.31697e-182
3.96912e-186
2.8424e-190
2.01215e-194
1.438e-198
1.04774e-202
7.77276e-207
5.80074e-211
4.32545e-215
3.19787e-219
2.30529e-223
1.59778e-227
1.06486e-231
6.71989e-236
2.38082e-240
2.68634e-245
1.28363e-249
1.02709e-253
8.26316e-258
6.64305e-262
5.34474e-266
4.24623e-270
3.28266e-274
2.47026e-278
1.81658e-282
1.30607e-286
9.25613e-291
6.52122e-295
4.58515e-299
3.21794e-303
2.25178e-307
1.57118e-311
1.09353e-315
7.58835e-320
4.94066e-324
0
0
0
0
0
0
0
0
0
0
0
0
0
0
0
0
0
0
0
0
0
0
0
0
0
0
0
0
0
0
0
0
0
0
0
0
0
0
0
0
0
0
0
0
0
0
0
0
0
0
0
0
0
0
0
0
0
0
0
0
0
0
0
0
0
0
0
0
0
0
0
0
0
0
0
0
0
0
0
0
0
0
0
0
0
0
0
0
0
0
0
0
0
0
0
0
0
0
0
0
0
0
0
0
0
0
0
0
0
0
0
0
0
0
0
0
0
0
0
0
0
0
0
0
0
0
0
0
0
0
0
0
0
0
0
0
0
0
0
0
0
0
0
0
0
0
0
0
0
0
0
0
0
0
0
0
0
0
0
0
0
0
0
0
0
0
0
0
0
0
0
0
0
0
0
0
0
0
0
0
0
0
0
0
0
0
0
0
0
0
0
0
0
0
0
0
0
0
0
0
0
0
0
0
0
0
0
0
0
0
0
0
0
0
0
0
0
0
0
0
0
0
0
0
0
0
0
0
0
0
0
0
0
0
0
0
0
0
0
0
0
0
0
0
0
0
0
0
0
0
0
0
0
0
0
0
0
0
0
0
0
0
0
0
0
0
0
0
0
0
0
0
0
0
0
0
0
0
0
0
0
0
0
0
0
0
0
0
0
0
0
0
0
0
0
0
0
0
0
0
0
0.000104693
0.00010445
0.000105187
0.000114165
0.000119497
5.33983e-06
6.80277e-08
5.60633e-10
3.48121e-12
1.74819e-14
7.42549e-17
2.75827e-19
9.15803e-22
2.76694e-24
7.87176e-27
2.23059e-29
6.36815e-32
1.736e-34
4.33057e-37
9.88202e-40
2.09251e-42
4.14214e-45
7.69511e-48
1.34488e-50
2.2185e-53
3.4707e-56
5.17656e-59
7.38835e-62
1.0104e-64
1.32457e-67
1.66608e-70
2.01305e-73
2.3391e-76
2.61627e-79
2.81881e-82
2.92648e-85
2.9299e-88
2.83363e-91
2.65235e-94
2.40565e-97
2.11528e-100
1.80302e-103
1.48954e-106
1.19246e-109
9.2587e-113
6.95603e-116
5.22128e-119
3.93747e-122
2.81008e-125
1.90482e-128
1.26797e-131
8.26653e-135
5.28161e-138
3.3043e-141
2.02157e-144
1.20764e-147
7.03819e-151
4.00325e-154
2.22622e-157
1.2127e-160
6.47286e-164
3.38293e-167
1.6344e-170
1.15245e-174
7.31364e-179
4.31439e-183
2.47841e-187
1.4493e-191
8.87382e-196
5.71282e-200
3.80748e-204
2.57067e-208
1.72724e-212
1.14002e-216
7.33371e-221
4.57809e-225
2.78548e-229
1.62428e-233
1.11761e-237
9.09501e-242
6.27815e-246
3.6784e-250
2.24605e-254
1.39718e-258
8.85572e-263
5.67879e-267
3.65501e-271
2.34198e-275
1.48725e-279
9.37243e-284
5.91478e-288
3.77492e-292
2.43763e-296
1.58399e-300
1.03247e-304
6.74021e-309
4.40438e-313
2.8768e-317
1.87251e-321
0
0
0
0
0
0
0
0
0
0
0
0
0
0
0
0
0
0
0
0
0
0
0
0
0
0
0
0
0
0
0
0
0
0
0
0
0
0
0
0
0
0
0
0
0
0
0
0
0
0
0
0
0
0
0
0
0
0
0
0
0
0
0
0
0
0
0
0
0
0
0
0
0
0
0
0
0
0
0
0
0
0
0
0
0
0
0
0
0
0
0
0
0
0
0
0
0
0
0
0
0
0
0
0
0
0
0
0
0
0
0
0
0
0
0
0
0
0
0
0
0
0
0
0
0
0
0
0
0
0
0
0
0
0
0
0
0
0
0
0
0
0
0
0
0
0
0
0
0
0
0
0
0
0
0
0
0
0
0
0
0
0
0
0
0
0
0
0
0
0
0
0
0
0
0
0
0
0
0
0
0
0
0
0
0
0
0
0
0
0
0
0
0
0
0
0
0
0
0
0
0
0
0
0
0
0
0
0
0
0
0
0
0
0
0
0
0
0
0
0
0
0
0
0
0
0
0
0
0
0
0
0
0
0
0
0
0
0
0
0
0
0
0
0
0
0
0
0
0
0
0
0
0
0
0
0
0
0
0
0
0
0
0
0
0
0
0
0
0
0
0
0
0
0
0
0
0
0
0
0
0
0
0
0
0
0
0
0
0
0
0
0
0
0
0
0
0
0
0
0
0
0.000104616
0.000105445
0.000118076
0.000133116
4.92924e-06
2.55814e-07
2.04087e-09
1.34751e-11
6.63636e-14
2.63625e-16
9.23284e-19
3.03789e-21
9.42906e-24
2.7736e-26
7.98884e-29
2.35023e-31
6.90786e-34
1.89817e-36
4.73153e-39
1.08004e-41
2.27579e-44
4.45783e-47
8.18684e-50
1.41931e-52
2.33587e-55
3.66838e-58
5.51001e-61
7.91915e-64
1.09043e-66
1.44119e-69
1.83101e-72
2.23826e-75
2.63409e-78
2.98634e-81
3.26421e-84
3.44261e-87
3.50445e-90
3.44278e-93
3.26632e-96
2.99732e-99
2.66158e-102
2.28975e-105
1.913e-108
1.55311e-111
1.22929e-114
9.4232e-118
7.08998e-121
5.26398e-124
3.75389e-127
2.59541e-130
1.75582e-133
1.15427e-136
7.39223e-140
4.61615e-143
2.8192e-146
1.68616e-149
9.87944e-153
5.67951e-156
3.20433e-159
1.77169e-162
9.59237e-166
5.08067e-169
3.97915e-173
3.03073e-177
2.22166e-181
1.56017e-185
1.05044e-189
6.8117e-194
4.26973e-198
2.59526e-202
1.5491e-206
9.24511e-211
5.5529e-215
3.37944e-219
2.10529e-223
1.33496e-227
8.70747e-232
5.53594e-236
3.69797e-240
2.69547e-244
1.79615e-248
1.14512e-252
7.47587e-257
4.75019e-261
2.98003e-265
1.8481e-269
1.1514e-273
7.2494e-278
4.60885e-282
2.98238e-286
1.96457e-290
1.30406e-294
8.67041e-299
5.77472e-303
3.85545e-307
2.57879e-311
1.72483e-315
1.15275e-319
9.88131e-324
0
0
0
0
0
0
0
0
0
0
0
0
0
0
0
0
0
0
0
0
0
0
0
0
0
0
0
0
0
0
0
0
0
0
0
0
0
0
0
0
0
0
0
0
0
0
0
0
0
0
0
0
0
0
0
0
0
0
0
0
0
0
0
0
0
0
0
0
0
0
0
0
0
0
0
0
0
0
0
0
0
0
0
0
0
0
0
0
0
0
0
0
0
0
0
0
0
0
0
0
0
0
0
0
0
0
0
0
0
0
0
0
0
0
0
0
0
0
0
0
0
0
0
0
0
0
0
0
0
0
0
0
0
0
0
0
0
0
0
0
0
0
0
0
0
0
0
0
0
0
0
0
0
0
0
0
0
0
0
0
0
0
0
0
0
0
0
0
0
0
0
0
0
0
0
0
0
0
0
0
0
0
0
0
0
0
0
0
0
0
0
0
0
0
0
0
0
0
0
0
0
0
0
0
0
0
0
0
0
0
0
0
0
0
0
0
0
0
0
0
0
0
0
0
0
0
0
0
0
0
0
0
0
0
0
0
0
0
0
0
0
0
0
0
0
0
0
0
0
0
0
0
0
0
0
0
0
0
0
0
0
0
0
0
0
0
0
0
0
0
0
0
0
0
0
0
0
0
0
0
0
0
0
0
0
0
0
0
0
0
0
0
0
0
0
0
0
0
0
0
0
0.00011651
0.000122086
0.000117363
2.53208e-06
5.79388e-08
1.27218e-09
1.02059e-11
6.05876e-14
2.83656e-16
1.12199e-18
3.97196e-21
1.30751e-23
4.05526e-26
1.20467e-28
3.57519e-31
1.09844e-33
3.33672e-36
9.21838e-39
2.26985e-41
5.0735e-44
1.04476e-46
2.00533e-49
3.6208e-52
6.18534e-55
1.00451e-57
1.55843e-60
2.31617e-63
3.29897e-66
4.50463e-69
5.90137e-72
7.42231e-75
8.96869e-78
1.04209e-80
1.16544e-83
1.25578e-86
1.30496e-89
1.30802e-92
1.26483e-95
1.18161e-98
1.06845e-101
9.36378e-105
7.96618e-108
6.58885e-111
5.30336e-114
4.16091e-117
3.17045e-120
2.36319e-123
1.7223e-126
1.21472e-129
8.33171e-133
5.56189e-136
3.60638e-139
2.27223e-142
1.39336e-145
8.33895e-149
4.88132e-152
2.80064e-155
1.5784e-158
8.74545e-162
4.75955e-165
2.54229e-168
9.31843e-172
4.67804e-176
2.55183e-180
1.65752e-184
1.19818e-188
8.85182e-193
6.42564e-197
4.5204e-201
3.07889e-205
2.05646e-209
1.37094e-213
9.24238e-218
6.3684e-222
4.51945e-226
3.30534e-230
2.48905e-234
1.89154e-238
1.47456e-242
1.18434e-246
9.30323e-251
7.19221e-255
5.53994e-259
4.17173e-263
3.06496e-267
2.2013e-271
1.55833e-275
1.09508e-279
7.69022e-284
5.44287e-288
3.893e-292
2.79491e-296
2.00201e-300
1.43001e-304
1.01834e-308
7.23091e-313
5.12264e-317
3.6215e-321
0
0
0
0
0
0
0
0
0
0
0
0
0
0
0
0
0
0
0
0
0
0
0
0
0
0
0
0
0
0
0
0
0
0
0
0
0
0
0
0
0
0
0
0
0
0
0
0
0
0
0
0
0
0
0
0
0
0
0
0
0
0
0
0
0
0
0
0
0
0
0
0
0
0
0
0
0
0
0
0
0
0
0
0
0
0
0
0
0
0
0
0
0
0
0
0
0
0
0
0
0
0
0
0
0
0
0
0
0
0
0
0
0
0
0
0
0
0
0
0
0
0
0
0
0
0
0
0
0
0
0
0
0
0
0
0
0
0
0
0
0
0
0
0
0
0
0
0
0
0
0
0
0
0
0
0
0
0
0
0
0
0
0
0
0
0
0
0
0
0
0
0
0
0
0
0
0
0
0
0
0
0
0
0
0
0
0
0
0
0
0
0
0
0
0
0
0
0
0
0
0
0
0
0
0
0
0
0
0
0
0
0
0
0
0
0
0
0
0
0
0
0
0
0
0
0
0
0
0
0
0
0
0
0
0
0
0
0
0
0
0
0
0
0
0
0
0
0
0
0
0
0
0
0
0
0
0
0
0
0
0
0
0
0
0
0
0
0
0
0
0
0
0
0
0
0
0
0
0
0
0
0
0
0
0
0
0
0
0
0
0
0
0
0
0
0
0
0
0
0
0
0
0.000137032
0.000129318
1.45628e-06
2.66841e-08
3.19063e-10
4.11704e-12
2.95718e-14
1.60221e-16
7.03587e-19
2.67878e-21
9.28832e-24
3.05232e-26
9.53815e-29
2.91376e-31
9.10184e-34
2.94988e-36
9.00692e-39
2.40815e-41
5.71564e-44
1.23599e-46
2.47027e-49
4.60365e-52
8.05348e-55
1.33451e-57
2.11624e-60
3.22676e-63
4.71977e-66
6.60383e-69
8.83491e-72
1.13091e-74
1.38718e-77
1.63333e-80
1.84911e-83
2.0159e-86
2.1191e-89
2.14967e-92
2.10534e-95
1.98924e-98
1.81395e-101
1.60109e-104
1.37246e-107
1.14384e-110
9.27203e-114
7.32679e-117
5.66866e-120
4.27589e-123
3.16053e-126
2.28326e-129
1.59082e-132
1.07329e-135
7.01122e-139
4.43401e-142
2.72843e-145
1.63621e-148
9.55636e-152
5.44605e-155
3.04535e-158
1.67847e-161
9.11608e-165
4.87138e-168
2.34055e-171
1.87889e-175
1.30831e-179
9.03786e-184
6.65132e-188
5.22121e-192
4.22418e-196
3.41259e-200
2.70842e-204
2.09211e-208
1.57657e-212
1.18337e-216
9.04202e-221
7.07133e-225
5.64695e-229
4.63679e-233
3.9849e-237
3.52251e-241
3.21914e-245
3.02944e-249
2.76074e-253
2.43358e-257
2.08035e-261
1.70274e-265
1.36327e-269
1.07282e-273
8.2184e-278
6.12382e-282
4.52406e-286
3.3703e-290
2.52286e-294
1.87942e-298
1.38934e-302
1.01808e-306
7.40563e-311
5.36006e-315
3.86923e-319
2.96439e-323
0
0
0
0
0
0
0
0
0
0
0
0
0
0
0
0
0
0
0
0
0
0
0
0
0
0
0
0
0
0
0
0
0
0
0
0
0
0
0
0
0
0
0
0
0
0
0
0
0
0
0
0
0
0
0
0
0
0
0
0
0
0
0
0
0
0
0
0
0
0
0
0
0
0
0
0
0
0
0
0
0
0
0
0
0
0
0
0
0
0
0
0
0
0
0
0
0
0
0
0
0
0
0
0
0
0
0
0
0
0
0
0
0
0
0
0
0
0
0
0
0
0
0
0
0
0
0
0
0
0
0
0
0
0
0
0
0
0
0
0
0
0
0
0
0
0
0
0
0
0
0
0
0
0
0
0
0
0
0
0
0
0
0
0
0
0
0
0
0
0
0
0
0
0
0
0
0
0
0
0
0
0
0
0
0
0
0
0
0
0
0
0
0
0
0
0
0
0
0
0
0
0
0
0
0
0
0
0
0
0
0
0
0
0
0
0
0
0
0
0
0
0
0
0
0
0
0
0
0
0
0
0
0
0
0
0
0
0
0
0
0
0
0
0
0
0
0
0
0
0
0
0
0
0
0
0
0
0
0
0
0
0
0
0
0
0
0
0
0
0
0
0
0
0
0
0
0
0
0
0
0
0
0
0
0
0
0
0
0
0
0
0
0
0
0
0
0
0
0
0
0
0
8.27583e-07
7.34675e-07
5.0468e-08
3.62649e-10
2.27652e-12
1.63806e-14
9.9813e-17
4.92189e-19
2.04045e-21
7.51478e-24
2.58081e-26
8.594e-29
2.757e-31
8.85614e-34
2.99689e-36
1.06143e-38
3.35853e-41
8.92939e-44
2.08027e-46
4.41482e-49
8.66362e-52
1.58598e-54
2.73235e-57
4.48102e-60
7.05465e-63
1.06366e-65
1.52859e-68
2.09532e-71
2.74543e-74
3.44531e-77
4.14857e-80
4.80056e-83
5.34631e-86
5.73947e-89
5.94849e-92
5.95708e-95
5.76558e-98
5.38377e-101
4.83511e-104
4.18658e-107
3.51849e-110
2.88343e-113
2.31599e-116
1.83355e-119
1.42454e-122
1.07447e-125
7.86304e-129
5.58831e-132
3.85691e-135
2.59072e-138
1.68749e-141
1.0593e-144
6.4225e-148
3.79571e-151
2.20048e-154
1.25933e-157
7.1643e-161
4.03773e-164
2.23072e-167
1.18775e-170
1.63123e-174
2.00053e-178
2.26111e-182
2.44042e-186
2.58774e-190
2.75e-194
2.95842e-198
3.21776e-202
3.50331e-206
3.74706e-210
3.84054e-214
3.7693e-218
3.63119e-222
3.50617e-226
3.47252e-230
3.62125e-234
3.93383e-238
4.29319e-242
4.63287e-246
4.93452e-250
5.18059e-254
5.35771e-258
5.38792e-262
5.10951e-266
4.55011e-270
3.92635e-274
3.3717e-278
2.95494e-282
2.72423e-286
2.63845e-290
2.59799e-294
2.53801e-298
2.43347e-302
2.28373e-306
2.10154e-310
1.90031e-314
1.69155e-318
1.4822e-322
0
0
0
0
0
0
0
0
0
0
0
0
0
0
0
0
0
0
0
0
0
0
0
0
0
0
0
0
0
0
0
0
0
0
0
0
0
0
0
0
0
0
0
0
0
0
0
0
0
0
0
0
0
0
0
0
0
0
0
0
0
0
0
0
0
0
0
0
0
0
0
0
0
0
0
0
0
0
0
0
0
0
0
0
0
0
0
0
0
0
0
0
0
0
0
0
0
0
0
0
0
0
0
0
0
0
0
0
0
0
0
0
0
0
0
0
0
0
0
0
0
0
0
0
0
0
0
0
0
0
0
0
0
0
0
0
0
0
0
0
0
0
0
0
0
0
0
0
0
0
0
0
0
0
0
0
0
0
0
0
0
0
0
0
0
0
0
0
0
0
0
0
0
0
0
0
0
0
0
0
0
0
0
0
0
0
0
0
0
0
0
0
0
0
0
0
0
0
0
0
0
0
0
0
0
0
0
0
0
0
0
0
0
0
0
0
0
0
0
0
0
0
0
0
0
0
0
0
0
0
0
0
0
0
0
0
0
0
0
0
0
0
0
0
0
0
0
0
0
0
0
0
0
0
0
0
0
0
0
0
0
0
0
0
0
0
0
0
0
0
0
0
0
0
0
0
0
0
0
0
0
0
0
0
0
0
0
0
0
0
0
0
0
0
0
0
0
0
0
0
0
0
9.46007e-09
8.61904e-09
3.92406e-10
2.50776e-12
1.34823e-14
7.33186e-17
3.73876e-19
1.66031e-21
6.47188e-24
2.31449e-26
7.94736e-29
2.71334e-31
9.03848e-34
3.12081e-36
1.16662e-38
4.38162e-41
1.36798e-43
3.53723e-46
8.07847e-49
1.67886e-51
3.22428e-54
5.78134e-57
9.7599e-60
1.56367e-62
2.38988e-65
3.48684e-68
4.86072e-71
6.48454e-74
8.28998e-77
1.01693e-79
1.19858e-82
1.35916e-85
1.48492e-88
1.56516e-91
1.59367e-94
1.5691e-97
1.49508e-100
1.37886e-103
1.23046e-106
1.06387e-109
8.92836e-113
7.2856e-116
5.79394e-119
4.50066e-122
3.41046e-125
2.51621e-128
1.80723e-131
1.26416e-134
8.61671e-138
5.72695e-141
3.70909e-144
2.33767e-147
1.43555e-150
8.60695e-154
5.04747e-157
2.90225e-160
1.63981e-163
9.09671e-167
4.93271e-170
7.79757e-174
1.14923e-177
1.56131e-181
1.97379e-185
2.36769e-189
2.75331e-193
3.1597e-197
3.61701e-201
4.1413e-205
4.72836e-209
5.35253e-213
5.97296e-217
6.55925e-221
7.09742e-225
7.58756e-229
8.04468e-233
8.49505e-237
8.95029e-241
9.40506e-245
9.84547e-249
1.0251e-252
1.05982e-256
1.08651e-260
1.10222e-264
1.10321e-268
1.08863e-272
1.0601e-276
1.02036e-280
9.72887e-285
9.21443e-289
8.68206e-293
8.13744e-297
7.57861e-301
7.00303e-305
6.41241e-309
5.81326e-313
5.21526e-317
4.6294e-321
0
0
0
0
0
0
0
0
0
0
0
0
0
0
0
0
0
0
0
0
0
0
0
0
0
0
0
0
0
0
0
0
0
0
0
0
0
0
0
0
0
0
0
0
0
0
0
0
0
0
0
0
0
0
0
0
0
0
0
0
0
0
0
0
0
0
0
0
0
0
0
0
0
0
0
0
0
0
0
0
0
0
0
0
0
0
0
0
0
0
0
0
0
0
0
0
0
0
0
0
0
0
0
0
0
0
0
0
0
0
0
0
0
0
0
0
0
0
0
0
0
0
0
0
0
0
0
0
0
0
0
0
0
0
0
0
0
0
0
0
0
0
0
0
0
0
0
0
0
0
0
0
0
0
0
0
0
0
0
0
0
0
0
0
0
0
0
0
0
0
0
0
0
0
0
0
0
0
0
0
0
0
0
0
0
0
0
0
0
0
0
0
0
0
0
0
0
0
0
0
0
0
0
0
0
0
0
0
0
0
0
0
0
0
0
0
0
0
0
0
0
0
0
0
0
0
0
0
0
0
0
0
0
0
0
0
0
0
0
0
0
0
0
0
0
0
0
0
0
0
0
0
0
0
0
0
0
0
0
0
0
0
0
0
0
0
0
0
0
0
0
0
0
0
0
0
0
0
0
0
0
0
0
0
0
0
0
0
0
0
0
0
0
0
0
0
0
0
0
0
0
0
0
6.54192e-11
6.08388e-11
2.61111e-12
1.37063e-14
6.43315e-17
2.96332e-19
1.30726e-21
5.25992e-24
1.93388e-26
6.74448e-29
2.32247e-31
7.95197e-34
2.69723e-36
9.50246e-39
3.44407e-41
1.1553e-43
3.19018e-46
7.62022e-49
1.63468e-51
3.21704e-54
5.88285e-57
1.00848e-59
1.63245e-62
2.51061e-65
3.68324e-68
5.16484e-71
6.9329e-74
8.91978e-77
1.10117e-79
1.30599e-82
1.48993e-85
1.63726e-88
1.73529e-91
1.77611e-94
1.75754e-97
1.68313e-100
1.56133e-103
1.40388e-106
1.22385e-109
1.03496e-112
8.49865e-116
6.78475e-119
5.2739e-122
3.99743e-125
2.954e-128
2.12673e-131
1.49173e-134
1.01991e-137
6.80083e-141
4.425e-144
2.80958e-147
1.73989e-150
1.05127e-153
6.20429e-157
3.58113e-160
2.02501e-163
1.12326e-166
6.09569e-170
4.26963e-174
5.8281e-178
8.0887e-182
1.04618e-185
1.27555e-189
1.49945e-193
1.73332e-197
1.99483e-201
2.29486e-205
2.63327e-209
2.99998e-213
3.37743e-217
3.7429e-221
4.08118e-225
4.38775e-229
4.6656e-233
4.92469e-237
5.17976e-241
5.43515e-245
5.68417e-249
5.91552e-253
6.11576e-257
6.27183e-261
6.3731e-265
6.40693e-269
6.357e-273
6.22139e-277
6.01125e-281
5.74343e-285
5.43876e-289
5.11743e-293
4.78898e-297
4.45466e-301
4.11346e-305
3.76557e-309
3.41393e-313
3.06361e-317
2.7223e-321
0
0
0
0
0
0
0
0
0
0
0
0
0
0
0
0
0
0
0
0
0
0
0
0
0
0
0
0
0
0
0
0
0
0
0
0
0
0
0
0
0
0
0
0
0
0
0
0
0
0
0
0
0
0
0
0
0
0
0
0
0
0
0
0
0
0
0
0
0
0
0
0
0
0
0
0
0
0
0
0
0
0
0
0
0
0
0
0
0
0
0
0
0
0
0
0
0
0
0
0
0
0
0
0
0
0
0
0
0
0
0
0
0
0
0
0
0
0
0
0
0
0
0
0
0
0
0
0
0
0
0
0
0
0
0
0
0
0
0
0
0
0
0
0
0
0
0
0
0
0
0
0
0
0
0
0
0
0
0
0
0
0
0
0
0
0
0
0
0
0
0
0
0
0
0
0
0
0
0
0
0
0
0
0
0
0
0
0
0
0
0
0
0
0
0
0
0
0
0
0
0
0
0
0
0
0
0
0
0
0
0
0
0
0
0
0
0
0
0
0
0
0
0
0
0
0
0
0
0
0
0
0
0
0
0
0
0
0
0
0
0
0
0
0
0
0
0
0
0
0
0
0
0
0
0
0
0
0
0
0
0
0
0
0
0
0
0
0
0
0
0
0
0
0
0
0
0
0
0
0
0
0
0
0
0
0
0
0
0
0
0
0
0
0
0
0
0
0
0
0
0
0
0
0
7.27339e-11
6.20891e-11
1.08923e-12
3.07811e-15
1.62312e-17
3.43978e-20
5.89372e-23
8.05686e-26
9.98335e-29
1.48807e-31
2.55733e-34
4.59017e-37
8.22356e-40
1.38811e-42
1.63341e-59
7.34148e-60
2.92763e-62
7.42098e-65
1.4594e-67
2.41003e-70
3.49688e-73
4.58441e-76
5.5393e-79
6.25186e-82
6.65767e-85
6.7372e-88
6.50726e-91
6.01911e-94
5.34698e-97
4.57275e-100
3.77261e-103
3.00817e-106
2.32178e-109
1.73663e-112
1.26046e-115
8.8894e-119
6.10065e-122
4.08289e-125
2.66586e-128
1.69788e-131
1.05118e-134
6.28093e-138
3.61809e-141
1.81397e-144
1.53655e-158
3.00552e-159
4.66902e-162
4.73585e-165
3.81923e-168
2.01687e-171
1.17955e-175
1.79716e-179
6.01853e-183
2.3399e-186
8.5326e-190
2.79124e-193
8.0281e-197
2.03956e-200
4.6423e-204
9.60209e-208
1.82633e-211
3.22618e-215
5.33309e-219
8.30024e-223
1.23079e-226
1.75294e-230
2.41623e-234
3.26396e-238
4.25568e-242
5.30141e-246
6.11001e-250
6.24256e-254
5.97561e-258
1.13169e-262
2.92397e-289
6.62126e-287
4.97572e-290
2.17179e-293
6.68319e-297
1.61558e-300
3.32476e-304
6.0973e-308
1.03826e-311
1.655e-315
2.49498e-319
3.45846e-323
0
0