/*--------------------------------*- C++ -*----------------------------------*\
| =========                 |                                                 |
| \\      /  F ield         | OpenFOAM: The Open Source CFD Toolbox           |
|  \\    /   O peration     | Version:  2.1.1                                 |
|   \\  /    A nd           | Web:      www.OpenFOAM.org                      |
|    \\/     M anipulation  |                                                 |
\*---------------------------------------------------------------------------*/
FoamFile
{
    version     2.0;
    format      ascii;
    class       volScalarField;
    location    "0.000100000";
    object      H2O2;
}
// * * * * * * * * * * * * * * * * * * * * * * * * * * * * * * * * * * * * * //

dimensions      [0 0 0 0 0 0 0];

internalField   nonuniform List<scalar> 
12384
(
1.45726e-13
1.24458e-13
2.18671e-15
6.17926e-18
3.22259e-20
6.74767e-23
1.13253e-25
1.53033e-28
1.89462e-31
2.8726e-34
4.9716e-37
8.97727e-40
1.61067e-42
2.71862e-45
3.19829e-62
1.4377e-62
5.73323e-65
1.45325e-67
2.8579e-70
4.71945e-73
6.84776e-76
8.97735e-79
1.08472e-81
1.22424e-84
1.30369e-87
1.31925e-90
1.27421e-93
1.17861e-96
1.04698e-99
8.95371e-103
7.38689e-106
5.89e-109
4.54598e-112
3.40022e-115
2.46787e-118
1.74044e-121
1.19441e-124
7.99346e-128
5.21909e-131
3.32396e-134
2.05788e-137
1.22958e-140
7.08273e-144
3.55071e-147
3.00696e-161
5.88332e-162
9.13937e-165
9.26986e-168
7.47543e-171
3.94918e-174
2.30931e-178
3.5177e-182
1.17797e-185
4.57958e-189
1.66996e-192
5.46274e-196
1.57109e-199
3.99106e-203
9.08333e-207
1.87861e-210
3.57279e-214
6.3107e-218
1.0431e-221
1.6233e-225
2.40684e-229
3.42756e-233
4.72396e-237
6.38061e-241
8.3183e-245
1.03611e-248
1.19402e-252
1.21978e-256
1.16749e-260
2.21076e-265
5.71286e-292
1.29437e-289
9.72574e-293
4.24453e-296
1.30598e-299
3.1566e-303
6.49516e-307
1.19098e-310
2.02773e-314
3.23172e-318
4.89125e-322
0
0
0
0
0
0
0
0
0
0
0
0
0
0
0
0
0
0
0
0
0
0
0
0
0
0
0
0
0
0
0
0
0
0
0
0
0
0
0
0
0
0
0
0
0
0
0
0
0
0
0
0
0
0
0
0
0
0
0
0
0
0
0
0
0
0
0
0
0
0
0
0
0
0
0
0
0
0
0
0
0
0
0
0
0
0
0
0
0
0
0
0
0
0
0
0
0
0
0
0
0
0
0
0
0
0
0
0
0
0
0
0
0
0
0
0
0
0
0
0
0
0
0
0
0
0
0
0
0
0
0
0
0
0
0
0
0
0
0
0
0
0
0
0
0
0
0
0
0
0
0
0
0
0
0
0
0
0
0
0
0
0
0
0
0
0
0
0
0
0
0
0
0
0
0
0
0
0
0
0
0
0
0
0
0
0
0
0
0
0
0
0
0
0
0
0
0
0
0
0
0
0
0
0
0
0
0
0
0
0
0
0
0
0
0
0
0
0
0
0
0
0
0
0
0
0
0
0
0
0
0
0
0
0
0
0
0
0
0
0
0
0
0
0
0
0
0
0
0
0
0
0
0
0
0
0
0
0
0
0
0
0
0
0
0
0
0
0
0
0
0
0
0
0
0
0
0
0
0
0
0
0
0
0
0
0
0
0
0
4.98429e-11
4.10477e-11
5.51692e-13
1.4384e-15
2.92985e-18
5.06863e-21
8.42656e-24
1.42837e-26
2.54511e-29
4.71121e-32
8.73959e-35
1.61181e-37
3.03947e-40
5.50283e-43
2.92033e-59
1.28665e-59
5.13399e-62
1.28589e-64
2.51237e-67
4.15e-70
6.06066e-73
8.03148e-76
9.82528e-79
1.12531e-81
1.21905e-84
1.25787e-87
1.24102e-90
1.17368e-93
1.06662e-96
9.33466e-100
7.88213e-103
6.43274e-106
5.08107e-109
3.88876e-112
2.88799e-115
2.08398e-118
1.46258e-121
9.99816e-125
6.66597e-128
4.33187e-131
2.73135e-134
1.65584e-137
9.63078e-141
4.43604e-144
7.73944e-158
1.44112e-158
2.17715e-161
2.12468e-164
1.65822e-167
1.11893e-170
5.48349e-174
7.91989e-178
2.49561e-181
9.78085e-185
3.63029e-188
1.20902e-191
3.53525e-195
9.09621e-199
2.09199e-202
4.37147e-206
8.40993e-210
1.50464e-213
2.52133e-217
3.98464e-221
5.99415e-225
8.64487e-229
1.19909e-232
1.60706e-236
2.0866e-240
2.61445e-244
3.10494e-248
3.3994e-252
3.47558e-256
1.14192e-260
5.75909e-287
4.22454e-285
2.93107e-288
1.17404e-291
3.46585e-295
8.28768e-299
1.71357e-302
3.18394e-306
5.43276e-310
8.64537e-314
1.30118e-317
1.87251e-321
0
0
0
0
0
0
0
0
0
0
0
0
0
0
0
0
0
0
0
0
0
0
0
0
0
0
0
0
0
0
0
0
0
0
0
0
0
0
0
0
0
0
0
0
0
0
0
0
0
0
0
0
0
0
0
0
0
0
0
0
0
0
0
0
0
0
0
0
0
0
0
0
0
0
0
0
0
0
0
0
0
0
0
0
0
0
0
0
0
0
0
0
0
0
0
0
0
0
0
0
0
0
0
0
0
0
0
0
0
0
0
0
0
0
0
0
0
0
0
0
0
0
0
0
0
0
0
0
0
0
0
0
0
0
0
0
0
0
0
0
0
0
0
0
0
0
0
0
0
0
0
0
0
0
0
0
0
0
0
0
0
0
0
0
0
0
0
0
0
0
0
0
0
0
0
0
0
0
0
0
0
0
0
0
0
0
0
0
0
0
0
0
0
0
0
0
0
0
0
0
0
0
0
0
0
0
0
0
0
0
0
0
0
0
0
0
0
0
0
0
0
0
0
0
0
0
0
0
0
0
0
0
0
0
0
0
0
0
0
0
0
0
0
0
0
0
0
0
0
0
0
0
0
0
0
0
0
0
0
0
0
0
0
0
0
0
0
0
0
0
0
0
0
0
0
0
0
0
0
0
0
0
0
0
0
0
0
0
2.90574e-11
2.18146e-11
2.46151e-14
8.01878e-18
3.97269e-21
1.54133e-23
1.49879e-26
1.08037e-29
8.13992e-33
1.37365e-35
4.69037e-38
1.99794e-40
8.37092e-43
5.91026e-46
5.16829e-59
2.26933e-59
8.5634e-62
1.99303e-64
3.61786e-67
5.61302e-70
7.81821e-73
1.0021e-75
1.19444e-78
1.34175e-81
1.43707e-84
1.47687e-87
1.45902e-90
1.38664e-93
1.26987e-96
1.12221e-99
9.58395e-103
7.92232e-106
6.34507e-109
4.93219e-112
3.72909e-115
2.74362e-118
1.95963e-121
1.35488e-124
9.1303e-128
6.02624e-131
3.87988e-134
2.41856e-137
1.44699e-140
1.16799e-144
4.02053e-157
7.18237e-158
9.96556e-161
8.78226e-164
6.20303e-167
3.82742e-170
2.1633e-173
1.13739e-176
4.96642e-180
2.07444e-183
7.81991e-187
2.61034e-190
7.55273e-194
1.90213e-197
4.25311e-201
8.63125e-205
1.61754e-208
2.83249e-212
4.6683e-216
7.29027e-220
1.08657e-223
1.55446e-227
2.13538e-231
2.81006e-235
3.57034e-239
4.41971e-243
5.31648e-247
6.17053e-251
6.90764e-255
1.96113e-259
1.06137e-284
1.74366e-283
1.04584e-286
3.64694e-290
9.60676e-294
2.11336e-297
4.11026e-301
7.30726e-305
1.20206e-308
1.84887e-312
2.69692e-316
3.77565e-320
4.94066e-324
0
0
0
0
0
0
0
0
0
0
0
0
0
0
0
0
0
0
0
0
0
0
0
0
0
0
0
0
0
0
0
0
0
0
0
0
0
0
0
0
0
0
0
0
0
0
0
0
0
0
0
0
0
0
0
0
0
0
0
0
0
0
0
0
0
0
0
0
0
0
0
0
0
0
0
0
0
0
0
0
0
0
0
0
0
0
0
0
0
0
0
0
0
0
0
0
0
0
0
0
0
0
0
0
0
0
0
0
0
0
0
0
0
0
0
0
0
0
0
0
0
0
0
0
0
0
0
0
0
0
0
0
0
0
0
0
0
0
0
0
0
0
0
0
0
0
0
0
0
0
0
0
0
0
0
0
0
0
0
0
0
0
0
0
0
0
0
0
0
0
0
0
0
0
0
0
0
0
0
0
0
0
0
0
0
0
0
0
0
0
0
0
0
0
0
0
0
0
0
0
0
0
0
0
0
0
0
0
0
0
0
0
0
0
0
0
0
0
0
0
0
0
0
0
0
0
0
0
0
0
0
0
0
0
0
0
0
0
0
0
0
0
0
0
0
0
0
0
0
0
0
0
0
0
0
0
0
0
0
0
0
0
0
0
0
0
0
0
0
0
0
0
0
0
0
0
0
0
0
0
0
0
0
0
0
0
0
1.96874e-07
1.7037e-07
5.27487e-11
2.98666e-14
2.77094e-17
1.49126e-19
1.79866e-22
1.4833e-25
9.60538e-29
9.01458e-32
1.57995e-34
4.68462e-37
1.78307e-39
1.98541e-42
1.09947e-54
1.25187e-55
4.60862e-58
1.0703e-60
1.97135e-63
3.1306e-66
4.46808e-69
5.87057e-72
7.21598e-75
8.39295e-78
9.30827e-81
9.88809e-84
1.00859e-86
9.89372e-90
9.34661e-93
8.51585e-96
7.49411e-99
6.37878e-102
5.25821e-105
4.20274e-108
3.26007e-111
2.45637e-114
1.79999e-117
1.2854e-120
8.96475e-124
6.11813e-127
4.09139e-130
2.67642e-133
1.69073e-136
2.37646e-140
2.53144e-152
1.09753e-153
1.43271e-156
1.21891e-159
8.4669e-163
5.20133e-166
2.9388e-169
1.56219e-172
7.89936e-176
3.38465e-179
1.29723e-182
4.38644e-186
1.26925e-189
3.15521e-193
6.89089e-197
1.35971e-200
2.48163e-204
4.25424e-208
6.90916e-212
1.06823e-215
1.57818e-219
2.23657e-223
3.05364e-227
4.03518e-231
5.18414e-235
6.50193e-239
7.98854e-243
9.64123e-247
1.14005e-250
6.19536e-255
2.4206e-279
4.92414e-279
2.64772e-282
8.42755e-286
2.05936e-289
4.26095e-293
7.84617e-297
1.3243e-300
2.08835e-304
3.11768e-308
4.44826e-312
6.10841e-316
8.11651e-320
9.88131e-324
0
0
0
0
0
0
0
0
0
0
0
0
0
0
0
0
0
0
0
0
0
0
0
0
0
0
0
0
0
0
0
0
0
0
0
0
0
0
0
0
0
0
0
0
0
0
0
0
0
0
0
0
0
0
0
0
0
0
0
0
0
0
0
0
0
0
0
0
0
0
0
0
0
0
0
0
0
0
0
0
0
0
0
0
0
0
0
0
0
0
0
0
0
0
0
0
0
0
0
0
0
0
0
0
0
0
0
0
0
0
0
0
0
0
0
0
0
0
0
0
0
0
0
0
0
0
0
0
0
0
0
0
0
0
0
0
0
0
0
0
0
0
0
0
0
0
0
0
0
0
0
0
0
0
0
0
0
0
0
0
0
0
0
0
0
0
0
0
0
0
0
0
0
0
0
0
0
0
0
0
0
0
0
0
0
0
0
0
0
0
0
0
0
0
0
0
0
0
0
0
0
0
0
0
0
0
0
0
0
0
0
0
0
0
0
0
0
0
0
0
0
0
0
0
0
0
0
0
0
0
0
0
0
0
0
0
0
0
0
0
0
0
0
0
0
0
0
0
0
0
0
0
0
0
0
0
0
0
0
0
0
0
0
0
0
0
0
0
0
0
0
0
0
0
0
0
0
0
0
0
0
0
0
0
0
0
2.08917e-07
2.18716e-07
1.95285e-07
1.503e-10
4.00322e-13
3.70549e-15
5.55409e-18
5.53879e-21
3.62887e-24
2.77331e-27
3.19156e-30
5.04919e-33
1.1698e-35
1.72037e-38
5.39267e-50
1.5782e-51
5.41855e-54
1.23851e-56
2.29753e-59
3.71815e-62
5.44283e-65
7.36161e-68
9.33613e-71
1.12195e-73
1.2866e-76
1.4136e-79
1.49124e-82
1.51238e-85
1.47626e-88
1.38873e-91
1.26078e-94
1.10615e-97
9.39087e-101
7.7244e-104
6.16196e-107
4.77159e-110
3.59177e-113
2.63444e-116
1.88705e-119
1.32276e-122
9.08374e-126
6.08981e-129
3.93955e-132
7.34344e-136
3.87754e-147
4.00707e-149
4.69179e-152
3.79131e-155
2.56798e-158
1.56095e-161
8.80704e-165
4.70348e-168
2.40936e-171
1.19064e-174
4.5394e-178
1.52293e-181
4.2665e-185
1.00285e-188
2.02685e-192
3.64959e-196
6.05133e-200
9.45983e-204
1.41273e-207
2.02703e-211
2.80064e-215
3.73213e-219
4.80802e-223
6.00733e-227
7.30724e-231
8.68742e-235
1.01318e-238
1.16272e-242
1.31069e-246
7.16446e-251
1.63707e-273
3.37314e-274
1.48618e-277
4.02275e-281
8.54519e-285
1.56034e-288
2.56465e-292
3.8991e-296
5.58106e-300
7.61366e-304
9.98617e-308
1.26746e-311
1.5643e-315
1.88437e-319
1.97626e-323
0
0
0
0
0
0
0
0
0
0
0
0
0
0
0
0
0
0
0
0
0
0
0
0
0
0
0
0
0
0
0
0
0
0
0
0
0
0
0
0
0
0
0
0
0
0
0
0
0
0
0
0
0
0
0
0
0
0
0
0
0
0
0
0
0
0
0
0
0
0
0
0
0
0
0
0
0
0
0
0
0
0
0
0
0
0
0
0
0
0
0
0
0
0
0
0
0
0
0
0
0
0
0
0
0
0
0
0
0
0
0
0
0
0
0
0
0
0
0
0
0
0
0
0
0
0
0
0
0
0
0
0
0
0
0
0
0
0
0
0
0
0
0
0
0
0
0
0
0
0
0
0
0
0
0
0
0
0
0
0
0
0
0
0
0
0
0
0
0
0
0
0
0
0
0
0
0
0
0
0
0
0
0
0
0
0
0
0
0
0
0
0
0
0
0
0
0
0
0
0
0
0
0
0
0
0
0
0
0
0
0
0
0
0
0
0
0
0
0
0
0
0
0
0
0
0
0
0
0
0
0
0
0
0
0
0
0
0
0
0
0
0
0
0
0
0
0
0
0
0
0
0
0
0
0
0
0
0
0
0
0
0
0
0
0
0
0
0
0
0
0
0
0
0
0
0
0
0
0
0
0
0
0
0
0
1.91008e-07
1.88928e-07
2.16835e-07
2.25447e-07
9.51325e-10
2.05703e-11
3.94394e-14
5.03508e-17
3.50275e-20
2.64288e-23
2.85318e-26
3.70861e-29
5.49567e-32
8.0847e-35
8.63861e-46
9.41504e-48
2.98322e-50
6.72198e-53
1.26082e-55
2.08769e-58
3.14625e-61
4.39571e-64
5.77102e-67
7.18813e-70
8.54704e-73
9.73643e-76
1.06471e-78
1.11883e-81
1.1308e-84
1.10052e-87
1.03269e-90
9.35567e-94
8.19379e-97
6.94741e-100
5.70874e-103
4.55039e-106
3.5242e-109
2.65943e-112
1.95971e-115
1.41315e-118
9.97788e-122
6.85525e-125
4.53642e-128
1.17275e-131
2.06599e-142
7.2954e-145
7.55803e-148
5.79772e-151
3.83618e-154
2.31228e-157
1.30555e-160
7.01915e-164
3.6351e-167
1.82782e-170
8.93782e-174
2.97159e-177
7.97948e-181
1.76115e-184
3.26278e-188
5.28265e-192
7.78995e-196
1.08162e-199
1.44476e-203
1.87555e-207
2.3726e-211
2.92338e-215
3.50679e-219
4.09876e-223
4.67775e-227
5.22855e-231
5.74306e-235
6.21864e-239
6.63049e-243
3.57808e-247
6.39638e-268
1.35406e-269
4.65738e-273
1.03918e-276
1.87332e-280
2.95746e-284
4.25962e-288
5.73446e-292
7.33223e-296
9.00401e-300
1.0704e-303
1.23906e-307
1.40273e-311
1.55825e-315
1.7029e-319
1.97626e-323
0
0
0
0
0
0
0
0
0
0
0
0
0
0
0
0
0
0
0
0
0
0
0
0
0
0
0
0
0
0
0
0
0
0
0
0
0
0
0
0
0
0
0
0
0
0
0
0
0
0
0
0
0
0
0
0
0
0
0
0
0
0
0
0
0
0
0
0
0
0
0
0
0
0
0
0
0
0
0
0
0
0
0
0
0
0
0
0
0
0
0
0
0
0
0
0
0
0
0
0
0
0
0
0
0
0
0
0
0
0
0
0
0
0
0
0
0
0
0
0
0
0
0
0
0
0
0
0
0
0
0
0
0
0
0
0
0
0
0
0
0
0
0
0
0
0
0
0
0
0
0
0
0
0
0
0
0
0
0
0
0
0
0
0
0
0
0
0
0
0
0
0
0
0
0
0
0
0
0
0
0
0
0
0
0
0
0
0
0
0
0
0
0
0
0
0
0
0
0
0
0
0
0
0
0
0
0
0
0
0
0
0
0
0
0
0
0
0
0
0
0
0
0
0
0
0
0
0
0
0
0
0
0
0
0
0
0
0
0
0
0
0
0
0
0
0
0
0
0
0
0
0
0
0
0
0
0
0
0
0
0
0
0
0
0
0
0
0
0
0
0
0
0
0
0
0
0
0
0
0
0
0
0
0
1.91008e-07
1.89926e-07
1.88953e-07
2.13299e-07
2.49118e-07
2.83038e-09
1.13305e-11
3.15902e-14
6.72508e-17
1.19024e-19
1.83818e-22
2.58955e-25
3.47124e-28
4.68941e-31
1.18078e-41
6.12988e-44
1.7757e-46
3.95342e-49
7.52708e-52
1.28024e-54
1.99339e-57
2.88625e-60
3.93545e-63
5.09598e-66
6.29926e-69
7.45593e-72
8.46872e-75
9.23888e-78
9.68658e-81
9.77028e-84
9.49223e-87
8.89388e-90
8.04786e-93
7.04524e-96
5.97238e-99
4.90796e-102
3.91762e-105
3.04736e-108
2.31439e-111
1.71968e-114
1.24947e-117
8.78493e-121
5.93205e-124
2.38896e-127
9.9731e-138
1.52771e-140
1.38172e-143
1.00599e-146
6.511e-150
3.8975e-153
2.20577e-156
1.19587e-159
6.27246e-163
3.20324e-166
1.59901e-169
7.78053e-173
1.93982e-176
3.936e-180
6.53353e-184
9.29017e-188
1.18577e-191
1.41444e-195
1.6256e-199
1.83388e-203
2.04513e-207
2.25405e-211
2.44842e-215
2.61573e-219
2.74695e-223
2.83908e-227
2.89407e-231
2.91534e-235
2.89842e-239
1.55866e-243
3.60533e-262
7.68506e-265
1.90695e-268
3.34907e-272
4.94088e-276
6.52911e-280
7.99387e-284
9.25403e-288
1.02759e-291
1.10558e-295
1.16068e-299
1.19503e-303
1.21155e-307
1.21315e-311
1.20247e-315
1.18176e-319
9.88131e-324
0
0
0
0
0
0
0
0
0
0
0
0
0
0
0
0
0
0
0
0
0
0
0
0
0
0
0
0
0
0
0
0
0
0
0
0
0
0
0
0
0
0
0
0
0
0
0
0
0
0
0
0
0
0
0
0
0
0
0
0
0
0
0
0
0
0
0
0
0
0
0
0
0
0
0
0
0
0
0
0
0
0
0
0
0
0
0
0
0
0
0
0
0
0
0
0
0
0
0
0
0
0
0
0
0
0
0
0
0
0
0
0
0
0
0
0
0
0
0
0
0
0
0
0
0
0
0
0
0
0
0
0
0
0
0
0
0
0
0
0
0
0
0
0
0
0
0
0
0
0
0
0
0
0
0
0
0
0
0
0
0
0
0
0
0
0
0
0
0
0
0
0
0
0
0
0
0
0
0
0
0
0
0
0
0
0
0
0
0
0
0
0
0
0
0
0
0
0
0
0
0
0
0
0
0
0
0
0
0
0
0
0
0
0
0
0
0
0
0
0
0
0
0
0
0
0
0
0
0
0
0
0
0
0
0
0
0
0
0
0
0
0
0
0
0
0
0
0
0
0
0
0
0
0
0
0
0
0
0
0
0
0
0
0
0
0
0
0
0
0
0
0
0
0
0
0
0
0
0
0
0
0
0
1.95384e-07
1.90105e-07
1.90313e-07
2.07544e-07
2.34086e-07
6.79704e-09
4.56697e-11
2.012e-13
6.83764e-16
1.8899e-18
4.42757e-21
9.14849e-24
1.72553e-26
3.07928e-29
2.79131e-38
9.18022e-41
2.38835e-43
5.1862e-46
9.97576e-49
1.74081e-51
2.80218e-54
4.21325e-57
5.97747e-60
8.06327e-63
1.03864e-65
1.28043e-68
1.5136e-71
1.71723e-74
1.87068e-77
1.95843e-80
1.9728e-83
1.9144e-86
1.79192e-89
1.62102e-92
1.41899e-95
1.20355e-98
9.91187e-102
7.9474e-105
6.21824e-108
4.75102e-111
3.5397e-114
2.54408e-117
1.75245e-120
9.59726e-124
8.85791e-134
7.96885e-137
6.07315e-140
4.10748e-143
2.57782e-146
1.52694e-149
8.65076e-153
4.73416e-156
2.51842e-159
1.3085e-162
6.6592e-166
3.32462e-169
1.62017e-172
2.89799e-176
3.99958e-180
4.63372e-184
4.74231e-188
4.4715e-192
4.02387e-196
3.55368e-200
3.12648e-204
2.74853e-208
2.41102e-212
2.11167e-216
1.84872e-220
1.62071e-224
1.42382e-228
1.22697e-232
1.00657e-236
4.44752e-241
7.40718e-257
1.66555e-260
2.5447e-264
3.22354e-268
3.66646e-272
3.82179e-276
3.72291e-280
3.44198e-284
3.05773e-288
2.63935e-292
2.227e-296
1.84152e-300
1.49783e-304
1.20362e-308
9.57273e-313
7.54166e-317
5.88926e-321
0
0
0
0
0
0
0
0
0
0
0
0
0
0
0
0
0
0
0
0
0
0
0
0
0
0
0
0
0
0
0
0
0
0
0
0
0
0
0
0
0
0
0
0
0
0
0
0
0
0
0
0
0
0
0
0
0
0
0
0
0
0
0
0
0
0
0
0
0
0
0
0
0
0
0
0
0
0
0
0
0
0
0
0
0
0
0
0
0
0
0
0
0
0
0
0
0
0
0
0
0
0
0
0
0
0
0
0
0
0
0
0
0
0
0
0
0
0
0
0
0
0
0
0
0
0
0
0
0
0
0
0
0
0
0
0
0
0
0
0
0
0
0
0
0
0
0
0
0
0
0
0
0
0
0
0
0
0
0
0
0
0
0
0
0
0
0
0
0
0
0
0
0
0
0
0
0
0
0
0
0
0
0
0
0
0
0
0
0
0
0
0
0
0
0
0
0
0
0
0
0
0
0
0
0
0
0
0
0
0
0
0
0
0
0
0
0
0
0
0
0
0
0
0
0
0
0
0
0
0
0
0
0
0
0
0
0
0
0
0
0
0
0
0
0
0
0
0
0
0
0
0
0
0
0
0
0
0
0
0
0
0
0
0
0
0
0
0
0
0
0
0
0
0
0
0
0
0
0
0
0
0
0
1.90612e-07
1.95272e-07
1.97519e-07
1.9954e-07
1.4014e-07
2.26333e-09
2.60159e-11
1.83157e-13
9.82845e-16
4.27626e-18
1.56671e-20
5.01614e-23
1.44021e-25
3.78626e-28
9.3762e-31
2.2044e-33
5.25603e-36
1.26627e-38
2.8493e-41
5.96372e-44
1.16209e-46
2.10827e-49
3.56768e-52
5.66127e-55
8.47133e-58
1.20099e-60
1.62116e-63
2.09107e-66
2.58183e-69
3.05371e-72
3.46238e-75
3.76761e-78
3.93987e-81
3.96434e-84
3.8423e-87
3.59136e-90
3.24244e-93
2.83364e-96
2.4019e-99
1.97584e-102
1.57907e-105
1.22669e-108
9.24769e-112
6.7535e-115
4.7818e-118
3.2561e-121
1.99167e-124
1.10102e-127
6.53351e-131
4.1374e-134
2.5742e-137
1.5774e-140
9.50654e-144
5.60906e-147
3.22623e-150
1.80899e-153
9.89697e-157
5.2861e-160
2.76326e-163
1.41718e-166
7.13917e-170
3.49418e-173
3.62756e-177
3.26631e-181
2.63158e-185
1.96447e-189
1.40682e-193
9.95901e-198
7.11728e-202
5.18573e-206
3.8471e-210
2.87118e-214
2.1411e-218
1.58306e-222
1.14127e-226
7.91035e-231
5.272e-235
3.30402e-239
1.16552e-243
1.31508e-248
6.31132e-253
5.08498e-257
4.09095e-261
3.28875e-265
2.64583e-269
2.10188e-273
1.62481e-277
1.22265e-281
8.99103e-286
6.4643e-290
4.58126e-294
3.22761e-298
2.26937e-302
1.59269e-306
1.11449e-310
7.77638e-315
5.41229e-319
3.95253e-323
0
0
0
0
0
0
0
0
0
0
0
0
0
0
0
0
0
0
0
0
0
0
0
0
0
0
0
0
0
0
0
0
0
0
0
0
0
0
0
0
0
0
0
0
0
0
0
0
0
0
0
0
0
0
0
0
0
0
0
0
0
0
0
0
0
0
0
0
0
0
0
0
0
0
0
0
0
0
0
0
0
0
0
0
0
0
0
0
0
0
0
0
0
0
0
0
0
0
0
0
0
0
0
0
0
0
0
0
0
0
0
0
0
0
0
0
0
0
0
0
0
0
0
0
0
0
0
0
0
0
0
0
0
0
0
0
0
0
0
0
0
0
0
0
0
0
0
0
0
0
0
0
0
0
0
0
0
0
0
0
0
0
0
0
0
0
0
0
0
0
0
0
0
0
0
0
0
0
0
0
0
0
0
0
0
0
0
0
0
0
0
0
0
0
0
0
0
0
0
0
0
0
0
0
0
0
0
0
0
0
0
0
0
0
0
0
0
0
0
0
0
0
0
0
0
0
0
0
0
0
0
0
0
0
0
0
0
0
0
0
0
0
0
0
0
0
0
0
0
0
0
0
0
0
0
0
0
0
0
0
0
0
0
0
0
0
0
0
0
0
0
0
0
0
0
0
0
0
0
0
0
0
0
0
0
0
0
0
0
0
0
0
0
0
0
0
0
0
0
0
0
0
1.96579e-07
1.97605e-07
1.98184e-07
1.57709e-07
8.43942e-08
4.65712e-10
5.33139e-12
4.60512e-14
2.86394e-16
1.43388e-18
6.05641e-21
2.23408e-23
7.39997e-26
2.23682e-28
6.3506e-31
1.7997e-33
5.15533e-36
1.40502e-38
3.50456e-41
7.99668e-44
1.69321e-46
3.35156e-49
6.22619e-52
1.08813e-54
1.79496e-57
2.80808e-60
4.18824e-63
5.97775e-66
8.17492e-69
1.07168e-71
1.34799e-74
1.62872e-77
1.89251e-80
2.11677e-83
2.28064e-86
2.36775e-89
2.37053e-92
2.29265e-95
2.14601e-98
1.94644e-101
1.71156e-104
1.45897e-107
1.20537e-110
9.65014e-114
7.49332e-117
5.63078e-120
4.21174e-123
3.17616e-126
2.27471e-129
1.54162e-132
1.02612e-135
6.68945e-139
4.27378e-142
2.67365e-145
1.63567e-148
9.77094e-152
5.69451e-155
3.23896e-158
1.80119e-161
9.81172e-165
5.23705e-168
2.73706e-171
1.32236e-174
9.32423e-179
5.9173e-183
3.49068e-187
2.00523e-191
1.17259e-195
7.17964e-200
4.62217e-204
3.08062e-208
2.07996e-212
1.39758e-216
9.22484e-221
5.93459e-225
3.70488e-229
2.25436e-233
1.31483e-237
9.01521e-242
7.33648e-246
5.08206e-250
2.97703e-254
1.81764e-258
1.13063e-262
7.16589e-267
4.59495e-271
2.95731e-275
1.89488e-279
1.20331e-283
7.58307e-288
4.78552e-292
3.0542e-296
1.97223e-300
1.28157e-304
8.35351e-309
5.45335e-313
3.56348e-317
2.32705e-321
0
0
0
0
0
0
0
0
0
0
0
0
0
0
0
0
0
0
0
0
0
0
0
0
0
0
0
0
0
0
0
0
0
0
0
0
0
0
0
0
0
0
0
0
0
0
0
0
0
0
0
0
0
0
0
0
0
0
0
0
0
0
0
0
0
0
0
0
0
0
0
0
0
0
0
0
0
0
0
0
0
0
0
0
0
0
0
0
0
0
0
0
0
0
0
0
0
0
0
0
0
0
0
0
0
0
0
0
0
0
0
0
0
0
0
0
0
0
0
0
0
0
0
0
0
0
0
0
0
0
0
0
0
0
0
0
0
0
0
0
0
0
0
0
0
0
0
0
0
0
0
0
0
0
0
0
0
0
0
0
0
0
0
0
0
0
0
0
0
0
0
0
0
0
0
0
0
0
0
0
0
0
0
0
0
0
0
0
0
0
0
0
0
0
0
0
0
0
0
0
0
0
0
0
0
0
0
0
0
0
0
0
0
0
0
0
0
0
0
0
0
0
0
0
0
0
0
0
0
0
0
0
0
0
0
0
0
0
0
0
0
0
0
0
0
0
0
0
0
0
0
0
0
0
0
0
0
0
0
0
0
0
0
0
0
0
0
0
0
0
0
0
0
0
0
0
0
0
0
0
0
0
0
0
0
0
0
0
0
0
0
0
0
0
0
0
0
0
0
0
0
0
2.00881e-07
1.99822e-07
1.54136e-07
1.07318e-08
7.17377e-11
4.12418e-12
2.94356e-14
1.98046e-16
9.70068e-19
3.82679e-21
1.32873e-23
4.33735e-26
1.34155e-28
3.94948e-31
1.13903e-33
3.35403e-36
9.85713e-39
2.70955e-41
6.75429e-44
1.54178e-46
3.24871e-49
6.36372e-52
1.16871e-54
2.02612e-57
3.33454e-60
5.23673e-63
7.86571e-66
1.13048e-68
1.55662e-71
2.05735e-74
2.61384e-77
3.19519e-80
3.76026e-83
4.26311e-86
4.65977e-89
4.91444e-92
5.0027e-95
4.91468e-98
4.66281e-101
4.27883e-104
3.7995e-107
3.26864e-110
2.73081e-113
2.21701e-116
1.75465e-119
1.34468e-122
1.01248e-125
7.51723e-129
5.35677e-132
3.70463e-135
2.50637e-138
1.64773e-141
1.05525e-144
6.58971e-148
4.02455e-151
2.40706e-154
1.41032e-157
8.10768e-161
4.57428e-164
2.52915e-167
1.36934e-170
7.25284e-174
5.68037e-178
4.32647e-182
3.1715e-186
2.22719e-190
1.49954e-194
9.72392e-199
6.09517e-203
3.70482e-207
2.21141e-211
1.31979e-215
7.92697e-220
4.82417e-224
3.00531e-228
1.90561e-232
1.24288e-236
7.89974e-241
5.28088e-245
3.84926e-249
2.56309e-253
1.63452e-257
1.06715e-261
6.78091e-266
4.25401e-270
2.63822e-274
1.64368e-278
1.03488e-282
6.57929e-287
4.25745e-291
2.80448e-295
1.86159e-299
1.23773e-303
8.24361e-308
5.50379e-312
3.68131e-316
2.46242e-320
0
0
0
0
0
0
0
0
0
0
0
0
0
0
0
0
0
0
0
0
0
0
0
0
0
0
0
0
0
0
0
0
0
0
0
0
0
0
0
0
0
0
0
0
0
0
0
0
0
0
0
0
0
0
0
0
0
0
0
0
0
0
0
0
0
0
0
0
0
0
0
0
0
0
0
0
0
0
0
0
0
0
0
0
0
0
0
0
0
0
0
0
0
0
0
0
0
0
0
0
0
0
0
0
0
0
0
0
0
0
0
0
0
0
0
0
0
0
0
0
0
0
0
0
0
0
0
0
0
0
0
0
0
0
0
0
0
0
0
0
0
0
0
0
0
0
0
0
0
0
0
0
0
0
0
0
0
0
0
0
0
0
0
0
0
0
0
0
0
0
0
0
0
0
0
0
0
0
0
0
0
0
0
0
0
0
0
0
0
0
0
0
0
0
0
0
0
0
0
0
0
0
0
0
0
0
0
0
0
0
0
0
0
0
0
0
0
0
0
0
0
0
0
0
0
0
0
0
0
0
0
0
0
0
0
0
0
0
0
0
0
0
0
0
0
0
0
0
0
0
0
0
0
0
0
0
0
0
0
0
0
0
0
0
0
0
0
0
0
0
0
0
0
0
0
0
0
0
0
0
0
0
0
0
0
0
0
0
0
0
0
0
0
0
0
0
0
0
0
0
0
0
0
1.83847e-07
1.68097e-07
5.02222e-09
1.42621e-11
3.62638e-13
7.77819e-15
6.09586e-17
3.60959e-19
1.68117e-21
6.60441e-24
2.31636e-26
7.5703e-29
2.33849e-31
6.95447e-34
2.06425e-36
6.34421e-39
1.92748e-41
5.32548e-44
1.3113e-46
2.931e-49
6.03572e-52
1.15852e-54
2.09181e-57
3.57335e-60
5.80314e-63
9.0031e-66
1.33805e-68
1.90582e-71
2.60233e-74
3.40924e-77
4.28789e-80
5.18124e-83
6.02019e-86
6.7328e-89
7.25465e-92
7.53877e-95
7.55644e-98
7.30701e-101
6.8263e-104
6.17263e-107
5.40963e-110
4.60215e-113
3.80637e-116
3.06367e-119
2.40365e-122
1.83139e-125
1.36516e-128
9.94932e-132
7.01674e-135
4.81301e-138
3.21301e-141
2.0834e-144
1.31269e-147
8.0497e-151
4.81757e-154
2.82001e-157
1.61795e-160
9.11847e-164
5.05225e-167
2.7496e-170
1.46869e-173
5.38328e-177
2.70251e-181
1.4742e-185
9.57555e-190
6.92194e-194
5.11371e-198
3.7121e-202
2.61145e-206
1.77869e-210
1.18804e-214
7.92021e-219
5.3395e-223
3.67909e-227
2.61088e-231
1.90944e-235
1.43786e-239
1.09264e-243
8.51818e-248
6.84166e-252
5.37396e-256
4.15475e-260
3.20033e-264
2.41e-268
1.77066e-272
1.27173e-276
9.0028e-281
6.32644e-285
4.44269e-289
3.14436e-293
2.24899e-297
1.61462e-301
1.15656e-305
8.26118e-310
5.88299e-314
4.17732e-318
2.96439e-322
0
0
0
0
0
0
0
0
0
0
0
0
0
0
0
0
0
0
0
0
0
0
0
0
0
0
0
0
0
0
0
0
0
0
0
0
0
0
0
0
0
0
0
0
0
0
0
0
0
0
0
0
0
0
0
0
0
0
0
0
0
0
0
0
0
0
0
0
0
0
0
0
0
0
0
0
0
0
0
0
0
0
0
0
0
0
0
0
0
0
0
0
0
0
0
0
0
0
0
0
0
0
0
0
0
0
0
0
0
0
0
0
0
0
0
0
0
0
0
0
0
0
0
0
0
0
0
0
0
0
0
0
0
0
0
0
0
0
0
0
0
0
0
0
0
0
0
0
0
0
0
0
0
0
0
0
0
0
0
0
0
0
0
0
0
0
0
0
0
0
0
0
0
0
0
0
0
0
0
0
0
0
0
0
0
0
0
0
0
0
0
0
0
0
0
0
0
0
0
0
0
0
0
0
0
0
0
0
0
0
0
0
0
0
0
0
0
0
0
0
0
0
0
0
0
0
0
0
0
0
0
0
0
0
0
0
0
0
0
0
0
0
0
0
0
0
0
0
0
0
0
0
0
0
0
0
0
0
0
0
0
0
0
0
0
0
0
0
0
0
0
0
0
0
0
0
0
0
0
0
0
0
0
0
0
0
0
0
0
0
0
0
0
0
0
0
0
0
0
0
0
0
0
1.72313e-08
9.51749e-09
3.1376e-12
6.2239e-14
7.47387e-16
9.58397e-18
6.75827e-20
3.64383e-22
1.58651e-24
5.98036e-27
2.05115e-29
6.70525e-32
2.08562e-34
6.38558e-37
1.99458e-39
6.46736e-42
1.97523e-44
5.28142e-47
1.25354e-49
2.71077e-52
5.41787e-55
1.0097e-57
1.76636e-60
2.92701e-63
4.64165e-66
7.07744e-69
1.03521e-71
1.44846e-74
1.93782e-77
2.4805e-80
3.04259e-83
3.58248e-86
4.05578e-89
4.4216e-92
4.64796e-95
4.71501e-98
4.61776e-101
4.36311e-104
3.97858e-107
3.51166e-110
3.01015e-113
2.50869e-116
2.03352e-119
1.60688e-122
1.24322e-125
9.37752e-129
6.93122e-132
5.00731e-135
3.48885e-138
2.3539e-141
1.53767e-144
9.72458e-148
5.98405e-151
3.58862e-154
2.09599e-157
1.1945e-160
6.67952e-164
3.68148e-167
1.99948e-170
1.06847e-173
5.13367e-177
4.12109e-181
2.8696e-185
1.98233e-189
1.45887e-193
1.1452e-197
9.26515e-202
7.48502e-206
5.94052e-210
4.58873e-214
3.45795e-218
2.59548e-222
1.98315e-226
1.5509e-230
1.23848e-234
1.01692e-238
8.73951e-243
7.72527e-247
7.05977e-251
6.64373e-255
6.05461e-259
5.33721e-263
4.56251e-267
3.73441e-271
2.98995e-275
2.35298e-279
1.80254e-283
1.34316e-287
9.92285e-292
7.39227e-296
5.53353e-300
4.12225e-304
3.04732e-308
2.23303e-312
1.62432e-316
1.17588e-320
0
0
0
0
0
0
0
0
0
0
0
0
0
0
0
0
0
0
0
0
0
0
0
0
0
0
0
0
0
0
0
0
0
0
0
0
0
0
0
0
0
0
0
0
0
0
0
0
0
0
0
0
0
0
0
0
0
0
0
0
0
0
0
0
0
0
0
0
0
0
0
0
0
0
0
0
0
0
0
0
0
0
0
0
0
0
0
0
0
0
0
0
0
0
0
0
0
0
0
0
0
0
0
0
0
0
0
0
0
0
0
0
0
0
0
0
0
0
0
0
0
0
0
0
0
0
0
0
0
0
0
0
0
0
0
0
0
0
0
0
0
0
0
0
0
0
0
0
0
0
0
0
0
0
0
0
0
0
0
0
0
0
0
0
0
0
0
0
0
0
0
0
0
0
0
0
0
0
0
0
0
0
0
0
0
0
0
0
0
0
0
0
0
0
0
0
0
0
0
0
0
0
0
0
0
0
0
0
0
0
0
0
0
0
0
0
0
0
0
0
0
0
0
0
0
0
0
0
0
0
0
0
0
0
0
0
0
0
0
0
0
0
0
0
0
0
0
0
0
0
0
0
0
0
0
0
0
0
0
0
0
0
0
0
0
0
0
0
0
0
0
0
0
0
0
0
0
0
0
0
0
0
0
0
0
0
0
0
0
0
0
0
0
0
0
0
0
0
0
0
0
0
0
0
1.18255e-12
1.04553e-12
7.72569e-14
5.55908e-16
3.46205e-18
2.48126e-20
1.50805e-22
7.42407e-25
3.06105e-27
1.1192e-29
3.81859e-32
1.26721e-34
4.05569e-37
1.30426e-39
4.41341e-42
1.56352e-44
4.94771e-47
1.31547e-49
3.06463e-52
6.50388e-55
1.27632e-57
2.33646e-60
4.02532e-63
6.60149e-66
1.0393e-68
1.56698e-71
2.25192e-74
3.08684e-77
4.04458e-80
5.07565e-83
6.1117e-86
7.07221e-89
7.87623e-92
8.45543e-95
8.76336e-98
8.77601e-101
8.49389e-104
7.93143e-107
7.12315e-110
6.1677e-113
5.18343e-116
4.24784e-119
3.41189e-122
2.70117e-125
2.09863e-128
1.58289e-131
1.15837e-134
8.23261e-138
5.68196e-141
3.81663e-144
2.486e-147
1.56056e-150
9.46157e-154
5.59183e-157
3.24176e-160
1.85526e-163
1.05545e-166
5.9484e-170
3.28631e-173
1.74979e-176
2.40314e-180
2.9472e-184
3.33108e-188
3.59524e-192
3.81227e-196
4.05132e-200
4.35836e-204
4.74042e-208
5.16109e-212
5.5202e-216
5.65793e-220
5.55295e-224
5.34946e-228
5.16525e-232
5.11568e-236
5.33478e-240
5.79529e-244
6.32468e-248
6.82506e-252
7.26945e-256
7.63198e-260
7.89294e-264
7.93742e-268
7.52727e-272
6.70319e-276
5.78429e-280
4.96722e-284
4.35326e-288
4.01336e-292
3.88697e-296
3.82737e-300
3.73901e-304
3.58501e-308
3.36441e-312
3.096e-316
2.79938e-320
4.94066e-324
0
0
0
0
0
0
0
0
0
0
0
0
0
0
0
0
0
0
0
0
0
0
0
0
0
0
0
0
0
0
0
0
0
0
0
0
0
0
0
0
0
0
0
0
0
0
0
0
0
0
0
0
0
0
0
0
0
0
0
0
0
0
0
0
0
0
0
0
0
0
0
0
0
0
0
0
0
0
0
0
0
0
0
0
0
0
0
0
0
0
0
0
0
0
0
0
0
0
0
0
0
0
0
0
0
0
0
0
0
0
0
0
0
0
0
0
0
0
0
0
0
0
0
0
0
0
0
0
0
0
0
0
0
0
0
0
0
0
0
0
0
0
0
0
0
0
0
0
0
0
0
0
0
0
0
0
0
0
0
0
0
0
0
0
0
0
0
0
0
0
0
0
0
0
0
0
0
0
0
0
0
0
0
0
0
0
0
0
0
0
0
0
0
0
0
0
0
0
0
0
0
0
0
0
0
0
0
0
0
0
0
0
0
0
0
0
0
0
0
0
0
0
0
0
0
0
0
0
0
0
0
0
0
0
0
0
0
0
0
0
0
0
0
0
0
0
0
0
0
0
0
0
0
0
0
0
0
0
0
0
0
0
0
0
0
0
0
0
0
0
0
0
0
0
0
0
0
0
0
0
0
0
0
0
0
0
0
0
0
0
0
0
0
0
0
0
0
0
0
0
0
0
0
1.39076e-14
1.26878e-14
5.79036e-16
3.68875e-18
1.98536e-20
1.07866e-22
5.48109e-25
2.41812e-27
9.34174e-30
3.31013e-32
1.12992e-34
3.84741e-37
1.2801e-39
4.42196e-42
1.65335e-44
6.21083e-47
1.93916e-49
5.01416e-52
1.14515e-54
2.37983e-57
4.57051e-60
8.19519e-63
1.38349e-65
2.21653e-68
3.38767e-71
4.9426e-74
6.89009e-77
9.19188e-80
1.17511e-82
1.44151e-85
1.699e-88
1.92662e-91
2.10489e-94
2.21863e-97
2.25903e-100
2.2242e-103
2.11928e-106
1.95455e-109
1.74419e-112
1.50806e-115
1.26562e-118
1.03275e-121
8.21306e-125
6.37979e-128
4.8344e-131
3.56678e-134
2.56177e-137
1.79196e-140
1.22144e-143
8.11807e-147
5.25772e-150
3.31371e-153
2.03493e-156
1.22006e-159
7.1549e-163
4.11397e-166
2.32443e-169
1.28946e-172
6.99214e-176
1.10531e-179
1.62904e-183
2.21317e-187
2.79787e-191
3.35621e-195
3.90284e-199
4.47889e-203
5.12713e-207
5.87032e-211
6.70247e-215
7.58724e-219
8.46675e-223
9.29787e-227
1.00608e-230
1.07556e-234
1.14035e-238
1.20419e-242
1.26872e-246
1.33318e-250
1.39561e-254
1.4531e-258
1.50232e-262
1.54015e-266
1.56242e-270
1.56383e-274
1.54316e-278
1.50272e-282
1.44638e-286
1.37908e-290
1.30615e-294
1.23069e-298
1.15349e-302
1.07427e-306
9.92685e-311
9.08964e-315
8.24032e-319
7.41098e-323
0
0
0
0
0
0
0
0
0
0
0
0
0
0
0
0
0
0
0
0
0
0
0
0
0
0
0
0
0
0
0
0
0
0
0
0
0
0
0
0
0
0
0
0
0
0
0
0
0
0
0
0
0
0
0
0
0
0
0
0
0
0
0
0
0
0
0
0
0
0
0
0
0
0
0
0
0
0
0
0
0
0
0
0
0
0
0
0
0
0
0
0
0
0
0
0
0
0
0
0
0
0
0
0
0
0
0
0
0
0
0
0
0
0
0
0
0
0
0
0
0
0
0
0
0
0
0
0
0
0
0
0
0
0
0
0
0
0
0
0
0
0
0
0
0
0
0
0
0
0
0
0
0
0
0
0
0
0
0
0
0
0
0
0
0
0
0
0
0
0
0
0
0
0
0
0
0
0
0
0
0
0
0
0
0
0
0
0
0
0
0
0
0
0
0
0
0
0
0
0
0
0
0
0
0
0
0
0
0
0
0
0
0
0
0
0
0
0
0
0
0
0
0
0
0
0
0
0
0
0
0
0
0
0
0
0
0
0
0
0
0
0
0
0
0
0
0
0
0
0
0
0
0
0
0
0
0
0
0
0
0
0
0
0
0
0
0
0
0
0
0
0
0
0
0
0
0
0
0
0
0
0
0
0
0
0
0
0
0
0
0
0
0
0
0
0
0
0
0
0
0
0
0
0
9.63092e-17
8.96951e-17
3.86086e-18
2.03235e-20
9.56738e-23
4.40148e-25
1.9288e-27
7.66804e-30
2.78347e-32
9.62391e-35
3.29628e-37
1.1258e-39
3.82086e-42
1.34611e-44
4.87995e-47
1.63718e-49
4.52088e-52
1.07987e-54
2.31652e-57
4.55888e-60
8.33657e-63
1.42911e-65
2.3133e-68
3.5577e-71
5.21938e-74
7.3189e-77
9.82438e-80
1.26399e-82
1.56044e-85
1.85067e-88
2.11132e-91
2.32011e-94
2.45903e-97
2.51686e-100
2.49055e-103
2.3851e-106
2.2125e-109
1.98938e-112
1.73428e-115
1.46662e-118
1.20434e-121
9.61467e-125
7.47366e-128
5.66477e-131
4.18612e-134
3.01378e-137
2.11394e-140
1.44532e-143
9.63745e-147
6.27068e-150
3.98147e-153
2.46561e-156
1.48976e-159
8.79205e-163
5.07474e-166
2.86957e-169
1.59173e-172
8.63798e-176
6.05034e-180
8.2588e-184
1.14622e-187
1.4825e-191
1.80755e-195
2.12482e-199
2.45624e-203
2.82681e-207
3.25197e-211
3.73152e-215
4.25116e-219
4.78602e-223
5.30393e-227
5.78335e-231
6.21784e-235
6.61162e-239
6.9788e-243
7.34026e-247
7.70216e-251
8.05503e-255
8.38288e-259
8.66665e-263
8.88781e-267
9.03134e-271
9.07928e-275
9.00853e-279
8.81633e-283
8.51849e-287
8.13888e-291
7.70708e-295
7.25172e-299
6.78628e-303
6.31255e-307
5.82904e-311
5.33607e-315
4.83779e-319
4.44659e-323
0
0
0
0
0
0
0
0
0
0
0
0
0
0
0
0
0
0
0
0
0
0
0
0
0
0
0
0
0
0
0
0
0
0
0
0
0
0
0
0
0
0
0
0
0
0
0
0
0
0
0
0
0
0
0
0
0
0
0
0
0
0
0
0
0
0
0
0
0
0
0
0
0
0
0
0
0
0
0
0
0
0
0
0
0
0
0
0
0
0
0
0
0
0
0
0
0
0
0
0
0
0
0
0
0
0
0
0
0
0
0
0
0
0
0
0
0
0
0
0
0
0
0
0
0
0
0
0
0
0
0
0
0
0
0
0
0
0
0
0
0
0
0
0
0
0
0
0
0
0
0
0
0
0
0
0
0
0
0
0
0
0
0
0
0
0
0
0
0
0
0
0
0
0
0
0
0
0
0
0
0
0
0
0
0
0
0
0
0
0
0
0
0
0
0
0
0
0
0
0
0
0
0
0
0
0
0
0
0
0
0
0
0
0
0
0
0
0
0
0
0
0
0
0
0
0
0
0
0
0
0
0
0
0
0
0
0
0
0
0
0
0
0
0
0
0
0
0
0
0
0
0
0
0
0
0
0
0
0
0
0
0
0
0
0
0
0
0
0
0
0
0
0
0
0
0
0
0
0
0
0
0
0
0
0
0
0
0
0
0
0
0
0
0
0
0
0
0
0
0
0
0
0
0
0
1.45641e-13
1.24437e-13
2.18585e-15
6.17431e-18
3.22925e-20
6.7379e-23
1.1336e-25
1.53204e-28
1.89473e-31
2.87287e-34
4.97178e-37
8.97729e-40
1.61066e-42
2.71861e-45
3.1984e-62
1.43763e-62
5.73302e-65
1.45321e-67
2.85785e-70
4.7194e-73
6.84774e-76
8.9774e-79
1.08473e-81
1.22427e-84
1.30374e-87
1.31931e-90
1.27428e-93
1.17869e-96
1.04707e-99
8.95458e-103
7.38771e-106
5.89074e-109
4.54662e-112
3.40076e-115
2.4683e-118
1.74077e-121
1.19466e-124
7.99528e-128
5.22038e-131
3.32485e-134
2.05847e-137
1.22996e-140
7.08507e-144
3.55195e-147
3.00873e-161
5.8855e-162
9.14309e-165
9.27394e-168
7.47895e-171
3.94951e-174
2.30984e-178
3.51927e-182
1.17858e-185
4.58212e-189
1.6709e-192
5.46596e-196
1.5721e-199
3.99396e-203
9.09078e-207
1.88033e-210
3.5764e-214
6.31766e-218
1.04435e-221
1.62539e-225
2.41019e-229
3.4327e-233
4.73157e-237
6.39161e-241
8.33361e-245
1.03814e-248
1.19649e-252
1.22245e-256
1.17016e-260
2.21596e-265
5.72545e-292
1.2966e-289
9.74367e-293
4.25289e-296
1.30873e-299
3.16369e-303
6.51068e-307
1.194e-310
2.03318e-314
3.24091e-318
4.89125e-322
0
0
0
0
0
0
0
0
0
0
0
0
0
0
0
0
0
0
0
0
0
0
0
0
0
0
0
0
0
0
0
0
0
0
0
0
0
0
0
0
0
0
0
0
0
0
0
0
0
0