/*--------------------------------*- C++ -*----------------------------------*\
| =========                 |                                                 |
| \\      /  F ield         | OpenFOAM: The Open Source CFD Toolbox           |
|  \\    /   O peration     | Version:  2.1.1                                 |
|   \\  /    A nd           | Web:      www.OpenFOAM.org                      |
|    \\/     M anipulation  |                                                 |
\*---------------------------------------------------------------------------*/
FoamFile
{
    version     2.0;
    format      ascii;
    class       volScalarField;
    location    "0.003800000";
    object      fH;
}
// * * * * * * * * * * * * * * * * * * * * * * * * * * * * * * * * * * * * * //

dimensions      [0 0 0 0 0 0 0];

internalField   nonuniform List<scalar> 
12384
(
0.02863
0.0322939
0.034352
0.0348406
0.0345061
0.0329753
0.0304895
0.026818
0.0230678
0.0201811
0.0190181
0.0212572
0.0260767
0.0271084
0.0197751
0.0213782
0.0233739
0.0244786
0.0255604
0.0260528
0.0265674
0.0269088
0.026889
0.0272761
0.0269806
0.0270339
0.0265909
0.026123
0.0253446
0.024522
0.0238649
0.0235881
0.0231265
0.0231378
0.0227684
0.0226444
0.0217285
0.021029
0.019465
0.0189239
0.0185737
0.0196824
0.0235587
0.0276723
0.025407
0.0250192
0.0247548
0.024464
0.0243332
0.0241689
0.0240716
0.023999
0.0238832
0.0237981
0.0236994
0.0236333
0.023571
0.0235674
0.0236157
0.0238639
0.0244622
0.0263545
0.0288736
0.0304206
0.0310003
0.0313346
0.0313368
0.0310207
0.030594
0.0297754
0.0287856
0.0263228
0.0231594
0.0220652
0.0291811
0.0295236
0.0299696
0.0304386
0.0307383
0.0309363
0.0308388
0.030921
0.030833
0.0311121
0.0306049
0.0310008
0.0306094
0.0308097
0.0306106
0.030495
0.0303266
0.0307277
0.0305353
0.0307629
0.0307098
0.0308158
0.0303271
0.0288392
0.0270579
0.0281538
0.0288072
0.0269654
0.0257192
0.0250192
0.0285689
0.0291039
0.029784
0.0300942
0.0301754
0.0302167
0.0299698
0.0300719
0.0296709
0.0297095
0.0293867
0.0292475
0.0290457
0.0288084
0.0287158
0.0281937
0.0279855
0.0273012
0.0270655
0.02659
0.0262587
0.0260479
0.0260279
0.026683
0.0289507
0.0301598
0.0285784
0.0265077
0.0249419
0.0246089
0.023116
0.0241562
0.026212
0.0280834
0.0302406
0.0330883
0.0358003
0.0374471
0.0378907
0.0376822
0.0373445
0.0369722
0.0366351
0.0363518
0.0361165
0.0359551
0.0359433
0.0359074
0.0360653
0.0362986
0.0362433
0.0369756
0.036357
0.0377251
0.0379752
0.0380238
0.0379934
0.034589
0.0250352
0.0219316
0.0285729
0.0268765
0.0293533
0.0348922
0.0327589
0.0250307
0.0227379
0.0238172
0.0272179
0.0297683
0.0326602
0.0339074
0.0352815
0.0359155
0.0362111
0.0362418
0.0359293
0.035589
0.0351835
0.0348437
0.0346259
0.0343452
0.0338081
0.032702
0.0308627
0.0279368
0.0234301
0.0191122
0.0176655
0.0186358
0.0210004
0.0218417
0.0230596
0.0239003
0.0241658
0.0232384
0.0219217
0.0263798
0.0396989
0.0476448
0.0473636
0.0466049
0.045613
0.0446638
0.0439464
0.0435184
0.0426658
0.0422062
0.0414629
0.0410414
0.040225
0.0395428
0.0395173
0.0395634
0.0407772
0.0425393
0.0449996
0.0479782
0.0427382
0.0232559
0.0186183
0.0182012
0.0178788
0.0184084
0.0195216
0.0197254
0.0197821
0.0210515
0.0247324
0.0280092
0.0335449
0.0353928
0.0382857
0.0426502
0.0422053
0.0446733
0.0452314
0.0452685
0.0449813
0.0434242
0.0409053
0.0370908
0.029833
0.0259377
0.0208548
0.0198229
0.0189953
0.0188156
0.0198066
0.0233489
0.0202136
0.0199608
0.020799
0.0219078
0.0229447
0.0229103
0.0217457
0.0193824
0.0178219
0.0179454
0.0189173
0.0199334
0.0202145
0.0202965
0.0206827
0.0231859
0.0281086
0.0330457
0.0352967
0.0353909
0.0366207
0.0366851
0.0365546
0.0362638
0.0360403
0.035588
0.0355493
0.0365703
0.0344946
0.0252841
0.0170111
0.017164
0.0175264
0.0184704
0.0195771
0.0202272
0.0201347
0.0194393
0.0186563
0.0182787
0.0181504
0.0178798
0.0178744
0.017949
0.0182656
0.0184381
0.0185458
0.0188519
0.0189386
0.0186145
0.0185657
0.017681
0.0175363
0.0171304
0.0173378
0.0174039
0.0173777
0.0172182
0.017601
0.0193675
0.0169318
0.0177751
0.0191465
0.0191969
0.0187878
0.0182596
0.018056
0.0177127
0.0177812
0.0177169
0.0192722
0.0191864
0.0202934
0.022059
0.0232793
0.0235537
0.0250369
0.024952
0.0239923
0.0225226
0.0209529
0.0193488
0.0179968
0.017167
0.0167963
0.0166973
0.0169355
0.0175884
0.0181773
0.019254
0.0167816
0.0173811
0.018074
0.0181416
0.0177039
0.0173283
0.0170721
0.0167669
0.0165248
0.0163457
0.0162734
0.0161156
0.0159635
0.0159067
0.0159505
0.0157816
0.0157911
0.0157077
0.0157477
0.0156673
0.0158269
0.0156984
0.0159202
0.0158384
0.016081
0.016375
0.016643
0.0176969
0.0184916
0.019217
0.046287
0.0447577
0.0414766
0.040014
0.0415288
0.0447046
0.0466048
0.0458262
0.0400588
0.0304702
0.0231016
0.020676
0.0225866
0.0258181
0.0198038
0.0223254
0.0247218
0.0259115
0.0266317
0.0265613
0.0270575
0.0271061
0.0277396
0.0280059
0.0288126
0.0290653
0.029306
0.029145
0.0285501
0.0275248
0.0261877
0.0249275
0.0238801
0.0233704
0.0230286
0.0228262
0.0224489
0.0219773
0.0207952
0.0197544
0.0188243
0.0194124
0.0226864
0.027496
0.0251603
0.024631
0.0242883
0.0240462
0.0238543
0.0237701
0.0237122
0.0236904
0.0236822
0.0236507
0.0235704
0.0234528
0.0233134
0.0232131
0.0232
0.0233862
0.0237772
0.024816
0.0265016
0.0288451
0.030485
0.0320167
0.0329634
0.0336525
0.0335427
0.0318133
0.0296837
0.0264963
0.0232298
0.0221083
0.0296563
0.031411
0.0321774
0.0322571
0.0320091
0.0315164
0.0308931
0.0303087
0.0296681
0.0292479
0.0288252
0.0284173
0.02822
0.0280372
0.0279994
0.0280818
0.0281124
0.0285135
0.0288803
0.029509
0.0301037
0.0306416
0.0306833
0.0298575
0.0282286
0.0274752
0.0283027
0.0287855
0.0280136
0.026057
0.0295559
0.0321914
0.0332545
0.033748
0.0338136
0.0336227
0.033284
0.0326766
0.0321299
0.0312893
0.0305636
0.0298031
0.0289151
0.0282294
0.0275521
0.026825
0.0260275
0.0252416
0.0244999
0.0238692
0.023516
0.0235313
0.0239636
0.025024
0.0272871
0.0296253
0.0300056
0.0288635
0.0264347
0.024741
0.023578
0.025204
0.0278247
0.0308211
0.034396
0.0377703
0.0389116
0.0382728
0.0367417
0.0355474
0.0343546
0.0331849
0.032235
0.0316805
0.031512
0.0318237
0.032364
0.0330193
0.0334929
0.0338212
0.0342146
0.0342606
0.0344831
0.0350114
0.0361219
0.0372325
0.0378912
0.0372451
0.0327087
0.0245285
0.0386156
0.0315461
0.0322029
0.0343642
0.0298877
0.0263762
0.028755
0.0354147
0.0388907
0.041722
0.0425398
0.0428918
0.0423537
0.0408947
0.038907
0.0367153
0.0346214
0.0326593
0.0316916
0.031386
0.0321699
0.0339094
0.0355184
0.0363969
0.0355171
0.032175
0.0260095
0.02033
0.0178895
0.0185355
0.0213546
0.0230193
0.0244161
0.0248845
0.0237498
0.0220916
0.0248658
0.0365777
0.0463886
0.0474476
0.0462384
0.0452958
0.0450256
0.0447703
0.0444749
0.0445543
0.0441549
0.043346
0.0423026
0.0404018
0.0388104
0.0362812
0.0343984
0.033096
0.0346241
0.0375444
0.0430507
0.0480544
0.0443489
0.0252285
0.0184484
0.0180099
0.0181742
0.0190078
0.019532
0.0196439
0.0205223
0.0235217
0.029865
0.0371181
0.0449444
0.0498095
0.053429
0.0541677
0.0551487
0.0551932
0.0560605
0.0566845
0.0576842
0.0586947
0.0596789
0.0597977
0.0593683
0.0530462
0.0453177
0.0340294
0.0254165
0.0196176
0.0173314
0.0208019
0.0200399
0.0199453
0.0210185
0.0221736
0.0223514
0.0216248
0.020003
0.0182112
0.0172709
0.0174024
0.0182756
0.0189589
0.019123
0.0197771
0.0224152
0.0275408
0.0331024
0.0367709
0.0381881
0.0382643
0.0379511
0.0374877
0.0368324
0.035874
0.0345879
0.0332362
0.0323314
0.0359617
0.036294
0.0266225
0.0170156
0.0172194
0.0178681
0.0188729
0.0197566
0.0199936
0.0197983
0.0192805
0.0188157
0.0186303
0.0180119
0.0175383
0.0169656
0.0164693
0.0158368
0.0154308
0.014962
0.0146655
0.014491
0.0144987
0.0147281
0.0153967
0.0170946
0.020133
0.0223114
0.0240668
0.0235937
0.0217637
0.0173452
0.0140922
0.0170135
0.0180984
0.0191074
0.0191088
0.0189591
0.0189298
0.0196024
0.0207671
0.0234602
0.0278948
0.0350706
0.0409338
0.048434
0.0526396
0.0555974
0.0577394
0.0580764
0.0579193
0.0573913
0.0560393
0.0529314
0.0479764
0.0405058
0.0325228
0.0251999
0.0203254
0.0164775
0.0145959
0.0142219
0.0149506
0.0168229
0.0175651
0.0181783
0.0181801
0.017832
0.0175871
0.017454
0.0175696
0.0176791
0.0184474
0.0185705
0.0190362
0.019698
0.0201656
0.0213871
0.021799
0.0212652
0.0205972
0.0201774
0.0201761
0.0199328
0.0198822
0.0192014
0.0206671
0.0189208
0.0181055
0.0167744
0.0159801
0.0164043
0.0171296
0.0431556
0.0338502
0.0279599
0.0262776
0.0265891
0.0296543
0.0371259
0.0471083
0.0506547
0.0460039
0.0345749
0.0247158
0.0218209
0.0238468
0.020516
0.0237384
0.0255942
0.0257353
0.0252449
0.024656
0.0240824
0.0241813
0.024534
0.0254366
0.0267126
0.0282812
0.0298136
0.030907
0.031371
0.030828
0.0292717
0.0272299
0.0252013
0.0239935
0.0233007
0.0230513
0.0229878
0.0228341
0.0219866
0.0207178
0.0192558
0.0194448
0.0226263
0.0273382
0.0243233
0.0241082
0.0240262
0.0238811
0.0237499
0.0235734
0.0234014
0.0232428
0.0231833
0.0231371
0.0231214
0.0230717
0.0230027
0.0229097
0.0228982
0.0230301
0.0233437
0.0240683
0.0254275
0.0274816
0.0292325
0.0311834
0.033144
0.0353877
0.0357056
0.0341
0.031119
0.0267546
0.0231617
0.0222577
0.0319064
0.0326337
0.0323634
0.03149
0.030386
0.029229
0.0281765
0.0271649
0.0265858
0.025877
0.0256431
0.0252792
0.0250485
0.0249807
0.0249488
0.0251342
0.0253668
0.0255533
0.0264086
0.0271345
0.0284924
0.0298373
0.0305803
0.0304799
0.0293395
0.0278387
0.0276759
0.0286327
0.0288406
0.0271055
0.0327431
0.0340098
0.0337293
0.0336424
0.0335689
0.0334989
0.0334223
0.0332536
0.0329535
0.0325364
0.0318861
0.030934
0.0299008
0.0288154
0.027741
0.0267427
0.0257315
0.024717
0.0236926
0.0227726
0.0220646
0.0217694
0.0220795
0.023247
0.0255194
0.0283416
0.0299558
0.0298718
0.0278372
0.0250872
0.0243655
0.0269745
0.0306476
0.0348187
0.0382798
0.0390826
0.0378149
0.0359008
0.0349417
0.0340387
0.0327206
0.0310175
0.0297084
0.0293977
0.0303528
0.0320694
0.0339315
0.0353885
0.0363612
0.036604
0.0361092
0.0355767
0.0351172
0.0344741
0.0348386
0.0361769
0.037481
0.0378885
0.0358208
0.0267556
0.0468346
0.0375956
0.0351746
0.033542
0.0302047
0.0317161
0.0370031
0.0428648
0.0437533
0.0444704
0.0442128
0.0430788
0.0406872
0.037239
0.0336533
0.0298718
0.0271411
0.0251754
0.0244114
0.0244886
0.0259329
0.0286812
0.032625
0.0362828
0.037936
0.0356895
0.0294465
0.0217771
0.0180497
0.0184917
0.0219381
0.0240797
0.0255927
0.0253033
0.0232329
0.0225889
0.0299587
0.0438946
0.0482547
0.0476425
0.0471779
0.0474531
0.0481016
0.0485527
0.0485581
0.0485472
0.0480474
0.047928
0.0472116
0.0457447
0.0428879
0.0386037
0.0338717
0.0310283
0.032161
0.0372561
0.0450818
0.0495694
0.0448218
0.0247719
0.0183501
0.0180104
0.0186509
0.019224
0.019421
0.0200976
0.0229447
0.0286055
0.0377029
0.045828
0.0515661
0.0532986
0.0530865
0.0523623
0.0522596
0.0525688
0.0530123
0.054009
0.0556073
0.0577851
0.0600955
0.0620426
0.0635969
0.0633558
0.0620481
0.0550966
0.0445547
0.0323198
0.0206571
0.0170088
0.0198876
0.0197877
0.0209954
0.0216655
0.021258
0.0200794
0.0186959
0.017498
0.0168611
0.0168718
0.0173022
0.0179091
0.0185211
0.0204553
0.0255752
0.0322267
0.0366256
0.0380351
0.0379648
0.0376083
0.0374806
0.0375209
0.037283
0.0365033
0.0349048
0.0328133
0.031545
0.0323945
0.0369241
0.027685
0.0169224
0.0171839
0.0179421
0.019023
0.0196021
0.0197747
0.0197173
0.0199683
0.0200442
0.0206691
0.0192784
0.0188015
0.0177473
0.0171922
0.0169505
0.0171045
0.0176592
0.0181885
0.0189796
0.0205081
0.022731
0.0276269
0.031306
0.0345401
0.0349077
0.0353844
0.0356706
0.035584
0.0325478
0.018396
0.0170461
0.0181709
0.0191559
0.0196126
0.0202888
0.0216625
0.0251877
0.0307807
0.0395086
0.0490099
0.0565826
0.0622228
0.060672
0.0599563
0.0595907
0.0584996
0.0580235
0.0592521
0.0612398
0.0641031
0.0666558
0.0673065
0.066429
0.0628933
0.0551471
0.0476643
0.0336966
0.0234593
0.015321
0.0132062
0.0169029
0.0177371
0.0182192
0.0185617
0.0194045
0.0208836
0.0226978
0.0248663
0.0276751
0.0300091
0.0330828
0.0351188
0.037581
0.038906
0.040355
0.041217
0.0402005
0.0400864
0.0399315
0.0401171
0.0401077
0.0409516
0.0418365
0.0424011
0.0404505
0.0341177
0.0298421
0.0193737
0.0155965
0.0148867
0.034145
0.028056
0.0248322
0.0243469
0.0239037
0.0242877
0.0274623
0.0366747
0.0482215
0.0526774
0.046806
0.0336126
0.0239934
0.0230135
0.0242281
0.0255627
0.0253235
0.0244788
0.0235797
0.0227521
0.0223957
0.0222527
0.0225434
0.0232168
0.0245357
0.0265612
0.0290263
0.0313965
0.0328159
0.0329706
0.0316058
0.0290469
0.026276
0.0244785
0.0236173
0.0233075
0.0234849
0.0234274
0.02292
0.0210415
0.0192406
0.0191665
0.0225216
0.0273291
0.0241485
0.0244559
0.0246596
0.0246283
0.0245503
0.0243032
0.0240766
0.0237115
0.0233608
0.0231204
0.0230037
0.0229748
0.0229936
0.0229904
0.0229978
0.0230984
0.0234001
0.0240553
0.0253678
0.026966
0.0283182
0.030579
0.0331511
0.035275
0.0353371
0.0344899
0.0313873
0.02676
0.0231537
0.0224925
0.0333674
0.0328722
0.0316651
0.0302679
0.0290815
0.0280594
0.0271769
0.0264223
0.0258535
0.0253373
0.0248831
0.0246744
0.0242988
0.024285
0.0240791
0.0241291
0.0242854
0.0244245
0.0249373
0.0256807
0.0270802
0.0287082
0.0301481
0.0306393
0.0300242
0.028517
0.0275366
0.0280359
0.0286614
0.0275493
0.0347409
0.0320714
0.0306675
0.0302808
0.0306816
0.0308832
0.0312587
0.0314505
0.0316031
0.031647
0.031504
0.0311486
0.030516
0.0296619
0.0286967
0.0277118
0.0266927
0.0255138
0.0240741
0.0226711
0.0215811
0.0209885
0.0210415
0.0220375
0.0241886
0.026994
0.0293526
0.0300168
0.0282082
0.0252393
0.0255008
0.029524
0.0341536
0.0381464
0.0395098
0.0382681
0.036406
0.0355279
0.0350669
0.0342444
0.0326177
0.0298933
0.02818
0.0283307
0.0307343
0.0341588
0.0367955
0.0382476
0.0388903
0.0391854
0.0387539
0.0380761
0.0370301
0.0356435
0.0349806
0.0357365
0.0371596
0.0381766
0.0366753
0.0277656
0.050755
0.0426118
0.0365672
0.0330636
0.0322424
0.0369369
0.0420028
0.0441758
0.0447867
0.0446649
0.0442448
0.0425257
0.0391531
0.0352557
0.0309398
0.0272196
0.024551
0.0231337
0.0225273
0.023156
0.0249823
0.0283302
0.0327523
0.0372067
0.0389946
0.0375193
0.0313467
0.0225253
0.0182637
0.0184855
0.0224732
0.0245115
0.0256973
0.025442
0.0231562
0.024156
0.0348897
0.0469614
0.0489775
0.0485911
0.0492532
0.0500158
0.0503889
0.0499816
0.0496679
0.0487878
0.0484364
0.0485869
0.0487066
0.0487003
0.0469668
0.0424244
0.0354623
0.0300289
0.0306266
0.0375484
0.0485428
0.0510165
0.0424737
0.0229641
0.0182774
0.018177
0.0188874
0.0190875
0.0195659
0.0217373
0.0272335
0.0353548
0.0448309
0.050594
0.0524082
0.0517563
0.0511431
0.050444
0.0502743
0.0505795
0.0509535
0.0520335
0.0538521
0.0566833
0.0600278
0.0627828
0.0644075
0.0650529
0.0654252
0.0637601
0.0596039
0.0503691
0.0313414
0.0171362
0.0196534
0.0193373
0.0203434
0.0207059
0.0202918
0.0195032
0.0187961
0.0179715
0.0170037
0.0164017
0.0166895
0.0173567
0.0187728
0.0220799
0.0284384
0.0349517
0.0378271
0.0376441
0.0369648
0.0368412
0.0367382
0.0369899
0.0374478
0.0374935
0.0361862
0.0337063
0.0321952
0.0329295
0.0395411
0.0286305
0.0169316
0.0171279
0.0178415
0.0186786
0.0192456
0.0195784
0.0200976
0.0216192
0.0229906
0.0250749
0.0234084
0.0230711
0.0212969
0.0211535
0.0222696
0.0240403
0.0278964
0.0305326
0.033559
0.0352326
0.0365739
0.0381756
0.0369544
0.0357198
0.0353834
0.0349329
0.0339329
0.0341534
0.0381484
0.034041
0.0170031
0.0180627
0.0194269
0.0211034
0.0234601
0.0277486
0.0360538
0.0451829
0.0534184
0.0581235
0.0574462
0.05514
0.0465034
0.0467839
0.0426266
0.0416466
0.0418867
0.0434019
0.0465448
0.0512656
0.0576067
0.0642387
0.0688368
0.0702449
0.069073
0.0659701
0.0560906
0.0420293
0.0203436
0.0134016
0.0168616
0.0178198
0.0189805
0.0209406
0.0246035
0.0299056
0.0354285
0.0403229
0.0450788
0.0489534
0.0529193
0.0553701
0.057414
0.0581708
0.0589654
0.0580178
0.0575748
0.057167
0.0575703
0.0580395
0.0591691
0.0599773
0.0617416
0.0597133
0.0569565
0.0508161
0.0452474
0.0307103
0.0184375
0.014301
0.0361164
0.0308341
0.028713
0.0284332
0.0264489
0.0245481
0.0253071
0.030867
0.0429282
0.0523527
0.052183
0.0432048
0.0282189
0.02287
0.0260259
0.0249811
0.0241081
0.0234367
0.022756
0.0224209
0.0222447
0.0222978
0.0225001
0.0232466
0.0245831
0.0265649
0.0293712
0.0322719
0.0337186
0.0335966
0.0321684
0.0292701
0.0262726
0.0243672
0.023606
0.0236462
0.024113
0.0241513
0.023291
0.0205977
0.018209
0.0181823
0.0218165
0.0269041
0.0246537
0.0249488
0.0250351
0.0252089
0.0252461
0.0252101
0.02499
0.0245922
0.0241831
0.0238013
0.0237061
0.0237577
0.0238412
0.0237912
0.0236666
0.023687
0.0239698
0.024703
0.0258037
0.0269539
0.029108
0.0318892
0.0326735
0.0325726
0.0321871
0.0317678
0.0295914
0.0260404
0.0230269
0.0227954
0.0337124
0.0327287
0.0305177
0.0288426
0.0278569
0.0271567
0.0265219
0.025945
0.0254317
0.0250232
0.0246612
0.0244787
0.0242654
0.0241895
0.0241356
0.0241197
0.0241889
0.0242944
0.0246022
0.0250883
0.0262766
0.0279608
0.0296667
0.0306604
0.0303708
0.029135
0.0277288
0.0275202
0.0281197
0.0276237
0.0339582
0.029589
0.0287539
0.029555
0.0303311
0.0310825
0.0313878
0.0316191
0.0315939
0.0315352
0.0314213
0.0312898
0.0310024
0.0304552
0.029835
0.0291133
0.0281473
0.0265882
0.0243728
0.0223655
0.0211089
0.0205934
0.0206569
0.0215458
0.0235306
0.026238
0.0290521
0.0298569
0.0280045
0.0250955
0.0268618
0.032465
0.0371367
0.039561
0.0392257
0.0373342
0.0359157
0.0354451
0.0350296
0.0344201
0.0325902
0.0291366
0.026953
0.0275104
0.0310641
0.0353829
0.0378962
0.0386496
0.0389022
0.0389115
0.039012
0.0385137
0.0374996
0.0363067
0.035456
0.0359399
0.0372788
0.0380985
0.0364405
0.0275519
0.0522233
0.0445459
0.0368615
0.0330724
0.0351176
0.0404789
0.0433818
0.0443658
0.0444216
0.0447688
0.0443322
0.0426163
0.0392198
0.0346939
0.0301692
0.0263614
0.0238546
0.022505
0.021945
0.0225065
0.024319
0.0274963
0.0319803
0.0361094
0.0380726
0.0367267
0.0305313
0.0221825
0.0183309
0.0184383
0.0232125
0.0243441
0.0252474
0.0253218
0.0234432
0.0257467
0.0375173
0.0481533
0.0496302
0.0498144
0.0507014
0.0509164
0.0505878
0.0496972
0.0493907
0.0484543
0.047598
0.0466331
0.0468375
0.0480813
0.0487089
0.0461661
0.0386784
0.031071
0.0296588
0.0374218
0.0502705
0.0505584
0.0384225
0.0218242
0.0182081
0.0183774
0.0189067
0.0189808
0.0202027
0.0244354
0.0329163
0.0415078
0.0491635
0.0516688
0.0518085
0.0503355
0.0497138
0.0494123
0.0492422
0.049486
0.049816
0.0506957
0.0523666
0.0555043
0.059925
0.0638508
0.0650509
0.0642676
0.0635532
0.0637406
0.0644272
0.0612223
0.0469533
0.0198289
0.0196071
0.0189874
0.0195422
0.0201127
0.0198957
0.0195372
0.0193376
0.0188528
0.0177622
0.0166
0.0164066
0.0174727
0.0199305
0.0242174
0.0305045
0.0359183
0.0375368
0.0364476
0.0352321
0.0348568
0.0347573
0.0352424
0.036511
0.0377991
0.0374045
0.0348736
0.0324867
0.0346709
0.0401188
0.0286323
0.0168169
0.0169615
0.0175424
0.0182101
0.0187656
0.0195862
0.0209512
0.0241403
0.0277513
0.0315459
0.0310533
0.0309774
0.0289264
0.0303367
0.0332873
0.0374215
0.0425195
0.0448501
0.0458525
0.0432882
0.0402723
0.0363608
0.0338456
0.0338949
0.0342387
0.0328124
0.029337
0.0271862
0.0318546
0.0409624
0.0168551
0.0178591
0.0200606
0.0237908
0.0290464
0.0362748
0.0464378
0.0537662
0.0569937
0.0554744
0.0491385
0.0414576
0.0372497
0.0366218
0.0336684
0.0340319
0.0344192
0.034708
0.0369036
0.0404655
0.0466987
0.0553419
0.0643928
0.0700775
0.0716327
0.0708877
0.0667582
0.0576536
0.0332119
0.0147636
0.0169333
0.0180188
0.0203849
0.0256904
0.0342653
0.0434343
0.0510747
0.0560503
0.0600105
0.0624802
0.0642272
0.0657159
0.0657915
0.0662473
0.066468
0.0658431
0.0652653
0.0643606
0.0642669
0.0647693
0.0655351
0.0667791
0.0670371
0.0657313
0.0596048
0.0514177
0.0481196
0.0421546
0.0249595
0.0148373
0.0399595
0.0342164
0.0330259
0.0321001
0.0282234
0.0247955
0.0246218
0.0278214
0.0364118
0.0472318
0.0521163
0.0482933
0.0334948
0.0235871
0.0244147
0.023756
0.0235869
0.0232972
0.0230933
0.0230031
0.0230375
0.023345
0.0240161
0.0250415
0.0265923
0.0287327
0.0312027
0.0330414
0.033417
0.0325224
0.0302701
0.0273235
0.0249674
0.0239425
0.0239553
0.0245749
0.0249956
0.0240971
0.0219244
0.0183747
0.0163822
0.0166549
0.0203331
0.0260389
0.0250996
0.0251961
0.0253688
0.0255582
0.0258021
0.0257793
0.0256324
0.0253536
0.0250402
0.0250109
0.0254821
0.0260458
0.0262008
0.0256185
0.0250143
0.0246351
0.0248604
0.0254275
0.0264833
0.0290399
0.0316799
0.031976
0.0314322
0.0316388
0.0313544
0.0300893
0.0278769
0.0249716
0.0227617
0.0230488
0.0330002
0.0310542
0.0283674
0.0267884
0.0260876
0.0256805
0.0252587
0.0248865
0.0246208
0.0244673
0.0243404
0.0242489
0.0242
0.0241647
0.0242152
0.0242642
0.024386
0.0246293
0.024852
0.0252757
0.0262056
0.0277769
0.0295128
0.0306763
0.0306752
0.0296699
0.0281081
0.0273383
0.0275568
0.0275006
0.0322225
0.0283744
0.0289298
0.0304292
0.031667
0.0321903
0.0322715
0.0321403
0.0321688
0.0321583
0.0320248
0.0318033
0.0315564
0.0313025
0.030919
0.0303536
0.0291188
0.0264513
0.0231387
0.021419
0.020801
0.0205901
0.0208148
0.0217288
0.0237957
0.0267048
0.0293494
0.0293499
0.0271206
0.024846
0.0284408
0.0350809
0.0390378
0.040051
0.0388256
0.0367103
0.0355305
0.0349473
0.0347144
0.0343438
0.0327601
0.0289379
0.0262876
0.0266361
0.030389
0.0348642
0.037569
0.0382422
0.0381543
0.0380505
0.0381253
0.0378354
0.0370107
0.0363958
0.0360429
0.0366424
0.0376383
0.0381936
0.0356243
0.0260832
0.0530514
0.0443072
0.0358228
0.0344221
0.0378227
0.0417862
0.0436125
0.0434683
0.0437561
0.0447113
0.0451051
0.0433672
0.0398532
0.0349528
0.0298884
0.0260122
0.0235723
0.0222833
0.0215901
0.0215846
0.0223289
0.023999
0.0267913
0.0299119
0.032181
0.0314288
0.0275269
0.0215047
0.0184635
0.0183297
0.0239475
0.0242611
0.0244599
0.0250337
0.0238196
0.0259086
0.0382803
0.0486293
0.0503695
0.0507948
0.0514092
0.0515051
0.0512059
0.0511217
0.0507207
0.0502397
0.0487762
0.0467194
0.0446091
0.0449664
0.0478296
0.0482284
0.0428015
0.0324745
0.029079
0.036851
0.0508781
0.0488768
0.0346391
0.0212621
0.0181885
0.0185542
0.0188313
0.0188938
0.0214111
0.0280414
0.0380407
0.0461867
0.0512058
0.0517672
0.0509424
0.0494655
0.0486582
0.0484405
0.0480702
0.048282
0.0487337
0.0496797
0.0509594
0.0536254
0.0586659
0.0644453
0.0657502
0.0609614
0.05351
0.0518893
0.0558741
0.0605946
0.057018
0.0264586
0.019164
0.018394
0.0184623
0.0191176
0.0194309
0.0195215
0.020146
0.020624
0.0197604
0.0179654
0.0167305
0.0177014
0.021121
0.0264574
0.0322277
0.0362589
0.0369653
0.0353721
0.0339812
0.0333386
0.0331856
0.0335055
0.0352345
0.0374613
0.0382814
0.0365108
0.0331432
0.0322711
0.0359647
0.0282689
0.0167472
0.0167932
0.0172289
0.0176734
0.0182263
0.0192946
0.0214721
0.0260735
0.0321035
0.0376854
0.0399985
0.0410434
0.0407432
0.0437214
0.0469673
0.0512025
0.0535022
0.0527671
0.049402
0.0441245
0.0380453
0.0336363
0.0326791
0.0340219
0.0348107
0.0326037
0.0265746
0.0221239
0.0246425
0.0408369
0.0167115
0.0175887
0.0207699
0.0273933
0.0356864
0.0439622
0.0518791
0.0554614
0.0547252
0.0489255
0.0417025
0.0357993
0.034085
0.0331715
0.032523
0.0326635
0.0327191
0.0326421
0.0332653
0.0352066
0.0399046
0.0484053
0.0596371
0.0687903
0.0720325
0.0718643
0.0682744
0.0614864
0.0450463
0.0175842
0.0166851
0.0183902
0.0228402
0.0323236
0.0440355
0.0539572
0.0607188
0.064172
0.0663137
0.0672512
0.0678391
0.0669196
0.0658938
0.0653463
0.0660248
0.0675458
0.0683805
0.0679093
0.0669941
0.0667548
0.0673472
0.06826
0.0690608
0.0674671
0.0582671
0.0453642
0.0393258
0.0402544
0.0302085
0.0160246
0.0421027
0.0356408
0.0342577
0.031616
0.0266369
0.0240631
0.02417
0.0256274
0.0300328
0.0378575
0.0468686
0.0477637
0.0365015
0.02492
0.0230741
0.0233521
0.0235474
0.0235242
0.0235678
0.0235816
0.023697
0.0239795
0.0248146
0.0260175
0.0277373
0.0294832
0.0309032
0.0314042
0.0306338
0.0287379
0.0265595
0.0249115
0.0243019
0.0245276
0.0250367
0.0250909
0.0237305
0.0209207
0.0177957
0.0160943
0.0155435
0.0164069
0.0198738
0.0248271
0.0251808
0.0252622
0.0256567
0.0260578
0.0262159
0.0262284
0.0259831
0.0257337
0.0258875
0.0265637
0.0278499
0.0287501
0.0284868
0.027178
0.0261553
0.025481
0.0255584
0.0266194
0.0291898
0.0314985
0.0319076
0.0330992
0.034774
0.0353858
0.0343523
0.0318004
0.0283603
0.0248628
0.022792
0.0234043
0.0302337
0.0280116
0.0262282
0.0253956
0.025073
0.0248323
0.0246277
0.0245597
0.0244896
0.0244488
0.024414
0.0244183
0.0243465
0.02452
0.0245542
0.0248755
0.0251206
0.0252537
0.0254951
0.0259157
0.026785
0.0283121
0.0298063
0.0309664
0.0310448
0.030151
0.0286072
0.0272809
0.0270838
0.0272887
0.0307469
0.0281312
0.0298271
0.0318772
0.0328708
0.032732
0.0318796
0.0316168
0.0316252
0.0318035
0.0320563
0.0320938
0.0320324
0.0319406
0.0316506
0.0309429
0.028138
0.0239172
0.0218577
0.0212885
0.0211496
0.0211704
0.0217301
0.0231959
0.0255472
0.0280499
0.0292113
0.0280405
0.0259058
0.024545
0.0303382
0.0373729
0.0400666
0.0400944
0.0384654
0.0363579
0.0351921
0.0348066
0.0346005
0.0344487
0.0333975
0.0295256
0.0258762
0.0257002
0.0286644
0.033132
0.0364186
0.0377979
0.0378079
0.0376164
0.0375819
0.0373995
0.0369479
0.0366318
0.0368545
0.0375026
0.038027
0.0373445
0.0327787
0.0244533
0.0525719
0.0425892
0.0357001
0.0354048
0.0394586
0.0424885
0.0425714
0.0424528
0.0431095
0.0445927
0.0458439
0.0446533
0.0411461
0.0358864
0.0303167
0.0262045
0.0236818
0.0223991
0.0217449
0.0214008
0.0213784
0.0217007
0.0223853
0.0235327
0.024715
0.0250829
0.0235428
0.020581
0.018531
0.0182436
0.0246146
0.0243043
0.0237051
0.0245385
0.0241521
0.0257518
0.0362611
0.0480568
0.0511539
0.051364
0.0521454
0.0520851
0.0520344
0.0521406
0.052361
0.05229
0.0516025
0.0492345
0.0450967
0.0422586
0.0448193
0.0481311
0.0447896
0.0357085
0.0303851
0.0375539
0.0477686
0.0479563
0.03288
0.0213868
0.0181964
0.0185998
0.0187579
0.0190899
0.0230456
0.031723
0.0423631
0.0490978
0.0518135
0.0515187
0.0501931
0.0489029
0.0478352
0.0473287
0.0469837
0.0471813
0.0478094
0.048878
0.0500877
0.0517436
0.0560814
0.0639925
0.0670549
0.0587762
0.0433275
0.0351103
0.0344645
0.0477085
0.0573877
0.0354592
0.0193869
0.0184308
0.0180432
0.0184567
0.0188973
0.0192765
0.0202722
0.0218482
0.0224745
0.0207524
0.0182805
0.0180394
0.0217593
0.0281507
0.0338574
0.0368868
0.0367638
0.0348471
0.0333446
0.0328657
0.0325407
0.0327908
0.0341131
0.0365904
0.0385278
0.0379098
0.0346011
0.0310071
0.0330435
0.0318923
0.0166592
0.016672
0.0169413
0.0172273
0.0176526
0.0187037
0.0212267
0.0265268
0.0344597
0.0414688
0.046194
0.0490783
0.050378
0.0534163
0.055637
0.0573143
0.0566611
0.0545907
0.0491043
0.041994
0.035192
0.0325003
0.0322847
0.0339811
0.0350309
0.0327123
0.0260506
0.0201384
0.0192552
0.0304085
0.0165535
0.0175665
0.0217991
0.0311844
0.0410038
0.0484242
0.0535292
0.0544491
0.0506581
0.0439756
0.0376212
0.0339328
0.0326839
0.0325161
0.0324534
0.0327155
0.0329049
0.032899
0.0327337
0.0332417
0.0368132
0.044338
0.0565213
0.068038
0.0710603
0.0689519
0.0635984
0.0580185
0.0513032
0.0223633
0.0169339
0.0192537
0.0271133
0.0407368
0.0531265
0.0610097
0.065763
0.0674703
0.0677214
0.065742
0.061705
0.0567765
0.0547355
0.0544187
0.0573918
0.0613684
0.0663001
0.0692216
0.069026
0.0679465
0.0681305
0.0690259
0.0698201
0.0689907
0.0595597
0.0402476
0.0330398
0.0332445
0.0296042
0.0165853
0.0430256
0.034203
0.0330597
0.0282642
0.0247842
0.0244672
0.0249557
0.0254004
0.0266548
0.0301014
0.038332
0.0438169
0.0360808
0.026189
0.0226646
0.0232898
0.0235365
0.0236366
0.0237412
0.0238581
0.0239119
0.0239931
0.0241572
0.0248565
0.0257307
0.0266832
0.027149
0.0268848
0.026098
0.0252202
0.0247368
0.0247789
0.0249531
0.0248091
0.0237281
0.0214617
0.0192603
0.0180033
0.0175191
0.0172937
0.016896
0.0181352
0.0219935
0.024505
0.0252246
0.0255858
0.0260823
0.0264073
0.0265763
0.0264335
0.0261563
0.0262802
0.0270006
0.0284023
0.0294479
0.0296263
0.0288518
0.0274527
0.0263973
0.0260571
0.0269681
0.0291027
0.0310039
0.032294
0.0344428
0.0358463
0.0352956
0.0346172
0.0341785
0.0326163
0.0288287
0.025161
0.0232737
0.0236661
0.0272769
0.0257023
0.0251639
0.0249116
0.0247951
0.0247145
0.0247071
0.0246989
0.0247749
0.0249739
0.0250956
0.0254418
0.0257998
0.0260134
0.0265533
0.0266742
0.0268241
0.026823
0.0269956
0.027445
0.0282408
0.0294393
0.0305663
0.0314597
0.0314895
0.0306721
0.0290256
0.0273619
0.0268227
0.0271421
0.0297999
0.028448
0.0311677
0.0336253
0.033964
0.0327708
0.0313556
0.0310086
0.0307815
0.0309564
0.0315659
0.0320051
0.0322097
0.0323049
0.0317835
0.0292799
0.0250113
0.0225942
0.0221397
0.0222684
0.0224227
0.0230338
0.0242347
0.0259025
0.0275441
0.0283242
0.0277414
0.0260833
0.0248009
0.0243493
0.03183
0.0388561
0.0406391
0.0401471
0.038126
0.0360705
0.0354681
0.035654
0.0351655
0.0346459
0.0339072
0.0308614
0.0264925
0.0251042
0.0265907
0.0304602
0.0344146
0.036893
0.0377344
0.0377147
0.037526
0.0373739
0.0372803
0.0374688
0.0378239
0.0381115
0.0375611
0.0346328
0.0280346
0.0232777
0.0520526
0.0405047
0.034777
0.0367249
0.040733
0.0421967
0.0419938
0.0416716
0.0424459
0.0443428
0.0461025
0.0457317
0.0431316
0.0379385
0.0319099
0.0270794
0.0242442
0.0229995
0.0224108
0.0220919
0.021949
0.0218808
0.0218578
0.0218007
0.0215124
0.0211418
0.020586
0.0195132
0.018457
0.0181737
0.0246675
0.0240031
0.0230989
0.0239778
0.0242017
0.0247373
0.0330275
0.0462657
0.0510821
0.0517905
0.0522652
0.0525248
0.0524645
0.0524397
0.0524984
0.0527166
0.0527618
0.0514348
0.0474247
0.0416062
0.0410843
0.0467045
0.0473587
0.0373173
0.03051
0.0352612
0.0449486
0.0430306
0.0316984
0.0228224
0.0182746
0.0186037
0.0187148
0.0194673
0.0245302
0.0349945
0.0450966
0.0504317
0.0519289
0.0513856
0.0498442
0.0486643
0.0475474
0.046887
0.0465814
0.0465755
0.0471409
0.0483044
0.0497809
0.0507034
0.0531428
0.0619772
0.068609
0.0600292
0.0402789
0.0281391
0.0233986
0.0330992
0.0537415
0.0409304
0.0236769
0.019944
0.0177633
0.0175924
0.0179928
0.0185623
0.0198767
0.0223823
0.0246379
0.0250863
0.0219015
0.0198137
0.0218408
0.0282908
0.0348995
0.0382412
0.0380676
0.0351213
0.0336677
0.0325927
0.0325013
0.0324212
0.0336434
0.0361212
0.0384277
0.0385268
0.0374306
0.0317598
0.0273735
0.029672
0.0165604
0.016569
0.016716
0.0168699
0.0171456
0.0179912
0.0201033
0.0248883
0.0333121
0.0418017
0.0482696
0.0518771
0.0541868
0.0561156
0.0574079
0.0576433
0.0566563
0.0532926
0.0470567
0.0394901
0.0337665
0.0319064
0.0319831
0.0335237
0.0358031
0.0344846
0.0287969
0.0209942
0.0166772
0.0173974
0.0164322
0.0174694
0.022658
0.0339756
0.0442489
0.0500063
0.0530752
0.0523608
0.047547
0.0411522
0.0362757
0.0333049
0.0322768
0.0323669
0.0323048