/*--------------------------------*- C++ -*----------------------------------*\
| =========                 |                                                 |
| \\      /  F ield         | OpenFOAM: The Open Source CFD Toolbox           |
|  \\    /   O peration     | Version:  2.1.1                                 |
|   \\  /    A nd           | Web:      www.OpenFOAM.org                      |
|    \\/     M anipulation  |                                                 |
\*---------------------------------------------------------------------------*/
FoamFile
{
    version     2.0;
    format      ascii;
    class       volScalarField;
    location    "0.003800000";
    object      O;
}
// * * * * * * * * * * * * * * * * * * * * * * * * * * * * * * * * * * * * * //

dimensions      [0 0 0 0 0 0 0];

internalField   nonuniform List<scalar> 
12384
(
0.00278414
0.00203225
0.00157305
0.00150475
0.00153384
0.00190072
0.00239137
0.00289891
0.00271158
0.00185361
0.00083791
0.000187288
0.000213624
0.000202077
4.51903e-05
0.00015088
0.000333232
0.000465737
0.000521602
0.000615798
0.000526334
0.000585036
0.000485706
0.000525204
0.000448354
0.000467054
0.000409085
0.000385698
0.000327234
0.000264296
0.000236682
0.000205888
0.000206398
0.000204385
0.0002236
0.000240255
0.000319832
0.000280177
0.000229869
0.000155857
9.26752e-05
0.000107959
0.000302995
0.000405132
0.000660923
0.000631086
0.000549454
0.000436828
0.000350319
0.000307052
0.000280848
0.000240713
0.000241661
0.000208559
0.000201899
0.000191331
0.00017943
0.000195887
0.000183456
0.000216175
0.000321085
0.000603957
0.000777387
0.000580463
0.000591671
0.000520075
0.000503791
0.000491217
0.000467604
0.00042949
0.000395602
0.000396829
0.000252081
0.000178345
0.000114405
0.000103106
8.90524e-05
7.49258e-05
6.61794e-05
5.99727e-05
6.7917e-05
6.34505e-05
7.15085e-05
6.4139e-05
8.0758e-05
4.96611e-05
8.42449e-05
6.934e-05
7.25385e-05
7.53238e-05
9.45281e-05
7.85426e-05
6.96353e-05
7.31392e-05
7.55793e-05
6.94173e-05
8.42655e-05
0.000136471
0.000193198
0.000166307
0.000135256
0.000192242
0.000184438
0.000170566
0.000312553
0.000273004
0.000203076
0.000154464
0.000119355
9.86898e-05
9.40971e-05
8.98028e-05
0.000106419
0.00010536
0.000117569
0.000121576
0.000128693
0.000139844
0.000149096
0.000191635
0.00022769
0.000269997
0.000290622
0.00030128
0.000300187
0.000297653
0.000275656
0.000256354
0.00014239
0.000103317
0.000179079
0.00024295
0.000219909
0.000206874
0.000107529
0.000136636
0.000182473
0.000156943
7.36953e-05
1.97859e-05
7.50487e-06
3.93644e-06
3.68409e-06
3.24885e-06
3.85042e-06
4.50775e-06
4.72068e-06
7.28272e-06
7.63127e-06
9.30468e-06
8.94018e-06
1.03576e-05
6.93129e-06
8.02819e-06
7.21739e-06
9.02888e-06
1.05301e-05
1.00178e-05
2.23554e-05
4.48013e-05
4.73235e-05
3.80165e-05
0.000342055
0.000189729
0.000409433
0.00045754
0.0002782
3.87385e-05
4.66548e-05
0.000237261
0.00016073
0.000139842
0.000197679
9.03886e-05
2.77632e-05
1.4435e-05
9.99891e-06
7.14338e-06
6.95195e-06
6.98031e-06
7.63295e-06
8.38352e-06
9.24594e-06
9.9665e-06
9.69119e-06
1.18112e-05
1.56128e-05
2.40501e-05
5.682e-05
0.000171667
0.000122935
2.66521e-05
1.30161e-05
2.15136e-05
9.88507e-05
0.000107586
0.000120668
0.000133373
0.000140967
0.000113907
7.76407e-05
0.000189699
2.54558e-06
2.63861e-07
2.92662e-07
4.5498e-07
5.80564e-07
6.78211e-07
9.57411e-07
1.06998e-06
1.44002e-06
1.52801e-06
1.7897e-06
2.1643e-06
2.79184e-06
3.20809e-06
3.23826e-06
3.06878e-06
2.14252e-06
1.3077e-06
6.04136e-07
2.42971e-07
1.99573e-06
0.000228299
2.59164e-05
2.6456e-05
2.55871e-05
3.52051e-05
4.31157e-05
4.35218e-05
3.70708e-05
5.6739e-05
0.000152156
0.000157706
1.74048e-05
8.63818e-06
4.22131e-06
1.29721e-06
1.53775e-06
7.28958e-07
6.62781e-07
6.52834e-07
6.71535e-07
1.08003e-06
1.92856e-06
5.92459e-06
9.71801e-05
0.000188303
5.58234e-05
3.71994e-05
2.54289e-05
2.37073e-05
3.7255e-05
0.000123557
6.63404e-05
6.0661e-05
8.38067e-05
0.000111041
0.000141106
0.000125542
8.3143e-05
2.91083e-05
1.69662e-05
1.99976e-05
3.28827e-05
4.49587e-05
5.339e-05
8.21676e-05
0.000107464
0.000198614
0.000220214
3.93274e-05
1.88322e-05
1.19042e-05
1.52102e-05
1.63335e-05
2.5243e-05
3.21685e-05
4.01382e-05
4.28029e-05
3.74415e-05
3.14683e-05
5.47525e-05
0.000473688
8.75822e-06
9.33818e-06
1.21649e-05
1.98208e-05
3.3565e-05
4.33001e-05
4.18729e-05
3.05476e-05
2.13381e-05
1.72099e-05
1.60868e-05
1.42702e-05
1.40835e-05
1.46357e-05
1.66967e-05
1.84712e-05
2.04321e-05
2.51203e-05
2.95417e-05
2.7849e-05
2.86669e-05
1.41129e-05
1.50812e-05
1.19135e-05
1.49284e-05
1.77834e-05
1.66328e-05
1.40747e-05
1.55166e-05
3.30897e-05
1.54521e-05
1.8277e-05
5.19164e-05
9.08138e-05
9.90398e-05
8.60976e-05
7.68397e-05
6.64124e-05
6.37402e-05
6.49968e-05
7.17519e-05
7.08777e-05
5.67323e-05
0.000102272
0.000159215
0.000140861
0.000249044
0.000273068
0.000259083
0.00022821
0.000180887
0.00012441
8.52515e-05
6.25147e-05
5.32943e-05
4.98391e-05
5.28474e-05
6.48736e-05
6.65548e-05
0.000110807
5.6565e-06
8.21026e-06
1.84811e-05
4.20025e-05
4.51396e-05
4.93063e-05
6.02261e-05
5.24697e-05
5.81066e-05
5.11544e-05
5.7812e-05
5.954e-05
7.18617e-05
7.82394e-05
8.83259e-05
7.39204e-05
5.1044e-05
3.52361e-05
2.6473e-05
2.70271e-05
3.61355e-05
2.93722e-05
4.35772e-05
4.23833e-05
4.86455e-05
5.57862e-05
5.83369e-05
8.09236e-05
0.00010629
0.000130817
0.000336973
0.000293262
0.000353133
0.000388881
0.000385637
0.000331342
0.000343741
0.000487055
0.000893197
0.00229646
0.00206388
0.000583466
0.000185977
0.000204581
5.28693e-05
0.000257371
0.000577064
0.000773815
0.000766895
0.000790854
0.00071735
0.000736404
0.000676526
0.000682007
0.000580386
0.00057895
0.000497706
0.000485296
0.00045775
0.000448912
0.00041553
0.000323423
0.000274946
0.00022733
0.000239013
0.000244843
0.000314074
0.000350107
0.000380872
0.00024752
0.000146469
0.00010276
0.000274384
0.000403328
0.000491086
0.000388731
0.000325029
0.000263053
0.000237338
0.000193376
0.000184831
0.000171021
0.000167636
0.000172421
0.000166643
0.000165607
0.000160923
0.00017429
0.000165258
0.000197118
0.00023233
0.000391904
0.000673733
0.00079021
0.000732383
0.000638082
0.000558508
0.000447946
0.000419181
0.00040428
0.000417492
0.000426086
0.000246937
0.000181106
9.90007e-05
4.11084e-05
2.87445e-05
2.84786e-05
3.08016e-05
4.1265e-05
6.51202e-05
8.56249e-05
0.000107924
0.000127026
0.000143966
0.000173031
0.000184
0.000199287
0.000204081
0.000197241
0.000199734
0.000163471
0.000146111
0.000116685
9.58371e-05
7.54404e-05
7.4125e-05
9.90409e-05
0.000163972
0.000188481
0.000159033
0.000136275
0.000172835
0.000191504
0.000258834
0.000115992
7.82359e-05
4.95223e-05
4.11907e-05
3.21631e-05
3.01869e-05
3.21126e-05
3.13919e-05
5.13404e-05
7.75189e-05
0.000101758
0.000133888
0.000165807
0.000207038
0.000237683
0.00025891
0.000259604
0.000246783
0.000224091
0.000204834
0.000200805
0.000208449
0.000228942
0.000216204
0.000121092
0.000112358
0.000166242
0.000243671
0.000210941
0.000121713
0.000164228
0.000169476
5.45835e-05
1.02047e-05
3.3138e-06
2.96356e-06
3.43126e-06
5.38487e-06
7.81485e-06
9.08296e-06
2.55156e-05
4.52166e-05
3.95508e-05
5.8671e-05
3.81137e-05
4.95912e-05
3.42953e-05
3.04442e-05
2.09208e-05
1.97669e-05
1.5261e-05
1.85927e-05
2.67816e-05
3.36395e-05
3.08191e-05
4.68268e-05
3.70007e-05
9.40552e-05
0.000302871
2.85639e-05
0.000168384
0.000117438
4.76869e-05
0.000160433
0.000257438
0.00016624
1.09072e-05
5.28357e-06
1.64609e-06
1.63692e-06
1.0926e-06
1.09813e-06
1.60876e-06
3.08666e-06
5.9074e-06
9.59553e-06
2.40345e-05
2.88612e-05
3.91767e-05
2.76235e-05
1.48548e-05
8.56877e-06
6.81034e-06
8.71785e-06
2.8659e-05
0.000187386
4.4365e-05
1.42356e-05
2.00932e-05
0.000105616
0.000133537
0.000156711
0.00016199
0.000129687
8.22204e-05
0.000160282
6.23195e-06
5.32168e-07
4.10826e-07
4.87463e-07
5.92017e-07
6.533e-07
6.79468e-07
8.12157e-07
7.36452e-07
1.00735e-06
1.22346e-06
1.5274e-06
2.67273e-06
3.7943e-06
8.32413e-06
1.50949e-05
2.46972e-05
1.26987e-05
4.45276e-06
1.30452e-06
2.52063e-07
8.77983e-07
0.000274205
2.53784e-05
2.51323e-05
2.93241e-05
3.89684e-05
3.92973e-05
3.76298e-05
4.64735e-05
0.00011965
8.49932e-05
4.4995e-06
6.04968e-07
2.02998e-07
1.0412e-07
8.58162e-08
7.64043e-08
7.20241e-08
5.90792e-08
4.40044e-08
3.76091e-08
3.13528e-08
2.52992e-08
2.44411e-08
2.69763e-08
1.0125e-07
6.25641e-07
1.66309e-05
0.000179657
3.43021e-05
1.08249e-05
5.56622e-05
6.24498e-05
6.17406e-05
8.64166e-05
0.000119793
0.000115229
8.38028e-05
4.04073e-05
1.78891e-05
1.13934e-05
1.5052e-05
2.22918e-05
3.263e-05
4.29542e-05
8.20504e-05
0.000179706
0.000265602
4.16411e-05
1.2608e-05
5.41549e-06
4.12099e-06
7.2278e-06
8.02413e-06
1.51425e-05
2.10577e-05
1.20954e-05
3.26534e-05
4.0202e-05
1.81726e-05
3.04152e-05
0.000440829
8.74422e-06
1.00221e-05
1.45022e-05
2.41671e-05
3.61932e-05
3.95842e-05
3.64441e-05
2.80915e-05
2.30136e-05
2.10019e-05
1.5095e-05
1.18529e-05
8.28805e-06
6.20782e-06
4.61328e-06
4.06392e-06
3.739e-06
3.38217e-06
3.31445e-06
3.27188e-06
3.336e-06
4.15742e-06
1.10708e-05
4.91302e-05
0.000109607
0.000155514
0.000150041
8.10416e-05
1.25731e-05
1.2097e-06
1.45027e-05
2.49706e-05
7.10412e-05
0.000110619
0.000130339
0.000133679
0.000153075
0.000176229
0.000304631
0.000331926
3.02773e-05
7.42973e-06
4.97155e-07
5.18026e-07
4.87397e-07
3.53784e-07
4.31114e-07
6.69794e-07
8.85013e-07
1.16041e-06
2.09414e-06
4.14202e-06
1.58181e-05
0.000107948
0.000430262
0.000228374
5.70041e-05
2.52764e-05
1.55201e-05
2.08915e-05
6.57672e-06
1.37824e-05
3.34936e-05
5.88766e-05
6.71196e-05
7.40239e-05
7.63639e-05
9.59369e-05
0.000102086
0.000147686
0.000162456
0.000203146
0.000262038
0.000321759
0.000431897
0.000400165
0.000318906
0.000221388
0.000174687
0.000176213
0.000179041
0.000164847
0.000172309
0.000236814
0.00017072
0.000109744
8.00639e-05
4.86467e-05
5.02843e-05
7.33905e-05
0.000211549
0.000670798
0.0013771
0.00148147
0.0015097
0.00130522
0.000559228
0.000219039
0.000236243
0.000459043
0.00141799
0.00173669
0.0003734
0.000184754
0.000113311
0.000520856
0.00083014
0.000880515
0.000777429
0.000719634
0.000548563
0.000574936
0.000531618
0.000639045
0.000652426
0.000672818
0.000560118
0.000488357
0.000418469
0.000399229
0.00045668
0.000446379
0.000373366
0.000279746
0.000249495
0.000263971
0.000322121
0.000406375
0.000500959
0.000388614
0.000182129
0.000122762
0.000268352
0.000427904
0.000286356
0.000249169
0.000235069
0.000228309
0.000200584
0.00016846
0.000153821
0.000122766
0.000126456
0.000118094
0.000123924
0.000134854
0.000137932
0.000152282
0.000155965
0.000177204
0.000192803
0.000285496
0.000505955
0.000781069
0.000901844
0.000740496
0.000586877
0.000404961
0.000374528
0.000348074
0.000390982
0.000428585
0.000239996
0.000175738
3.06068e-05
2.53667e-05
2.75844e-05
4.04656e-05
7.85627e-05
0.000118117
0.000166299
0.00019671
0.000200811
0.000198088
0.000192237
0.000197953
0.000207157
0.000203716
0.000206941
0.000210323
0.000212405
0.000194362
0.000227348
0.000201069
0.000160016
0.000103507
7.81442e-05
7.94231e-05
0.000115736
0.00018154
0.000186746
0.00014408
0.000134461
0.000192161
9.6235e-05
5.55665e-05
6.29586e-05
5.6267e-05
5.5257e-05
5.11677e-05
3.66788e-05
4.00971e-05
3.28669e-05
3.57567e-05
3.61681e-05
6.60746e-05
0.000109012
0.000160177
0.000234695
0.000264469
0.000274677
0.000264386
0.000228525
0.00018154
0.000145969
0.000126987
0.000126812
0.000158397
0.000206647
0.000173839
0.000108824
0.00011752
0.000209702
0.000208721
0.00014266
0.000180722
6.06823e-05
9.64427e-06
3.45363e-06
2.86702e-06
3.23391e-06
7.26733e-06
9.20633e-06
1.54708e-05
3.49669e-05
7.69614e-05
0.000153308
0.00018094
0.000133414
6.54689e-05
2.85757e-05
2.04523e-05
1.47099e-05
1.08861e-05
1.25929e-05
1.71803e-05
2.0659e-05
2.79016e-05
4.35636e-05
4.45313e-05
3.42459e-05
3.77046e-05
4.348e-05
0.000335791
5.26853e-06
3.19001e-05
4.98769e-05
6.45229e-05
0.000147539
3.82743e-05
8.46637e-06
1.4944e-06
1.1781e-06
5.39699e-07
7.55002e-07
1.02903e-06
1.71909e-06
4.74696e-06
1.64086e-05
8.9093e-05
0.000181972
0.000169134
0.000146747
0.000149134
0.000181803
0.000134347
2.46345e-05
6.88993e-06
3.88743e-06
8.1833e-06
0.000101645
7.45741e-05
1.5448e-05
1.95924e-05
0.000105467
0.000156816
0.000177232
0.000170927
0.000114059
9.56544e-05
8.68822e-05
7.97044e-07
4.44227e-07
4.7503e-07
3.7223e-07
4.21206e-07
3.26321e-07
2.81697e-07
2.88742e-07
2.89675e-07
3.91614e-07
3.91406e-07
4.79627e-07
6.36864e-07
1.30621e-06
3.90453e-06
1.95229e-05
6.87158e-05
4.25128e-05
7.71872e-06
1.19896e-06
3.75359e-07
1.46706e-06
0.000264735
2.49419e-05
2.54008e-05
3.39803e-05
3.44661e-05
3.26047e-05
4.01664e-05
0.000104005
0.000133791
3.45557e-06
4.85936e-07
1.23831e-07
9.13872e-08
1.09169e-07
1.14705e-07
1.23581e-07
1.13847e-07
1.08203e-07
8.86547e-08
6.2905e-08
3.66743e-08
2.27617e-08
1.40447e-08
1.07848e-08
1.1324e-08
1.40996e-08
6.97916e-08
7.19045e-07
2.95681e-05
5.26578e-05
8.69364e-06
6.06967e-05
5.6471e-05
8.63264e-05
0.000102291
8.34638e-05
4.47642e-05
2.2905e-05
1.16392e-05
8.9834e-06
1.0177e-05
1.34806e-05
1.98165e-05
3.53022e-05
0.00010021
0.000304072
6.84271e-05
1.53944e-05
7.93411e-06
6.15767e-06
6.94186e-06
9.8953e-06
1.12816e-05
1.41308e-05
1.96436e-05
2.06833e-05
2.88207e-05
3.25023e-05
4.00612e-05
1.88893e-05
0.000356879
8.31627e-06
9.75184e-06
1.4889e-05
2.56905e-05
3.3641e-05
3.61212e-05
3.5027e-05
3.87791e-05
3.97892e-05
5.0892e-05
2.78629e-05
2.28288e-05
1.32087e-05
9.38565e-06
1.01061e-05
1.13067e-05
1.73435e-05
2.2114e-05
3.27667e-05
5.49782e-05
0.000119065
0.000183464
4.03559e-05
1.37111e-05
2.32426e-05
2.37433e-05
1.87415e-05
1.20258e-05
2.52077e-05
1.85018e-05
1.66685e-05
3.48251e-05
9.10317e-05
0.000156624
0.000225747
0.000312928
0.000469252
0.000191516
1.93831e-05
4.0125e-06
6.74605e-07
4.50099e-07
5.76725e-08
2.76553e-07
2.61763e-07
3.81744e-07
5.51316e-07
6.57815e-07
6.06347e-07
4.39238e-07
3.58535e-07
3.77897e-07
4.15784e-07
6.69618e-07
1.72923e-06
6.30236e-06
8.16213e-05
0.000451866
4.25506e-05
1.117e-05
9.77314e-06
2.59159e-05
5.22191e-05
8.34107e-05
0.000134486
0.000219977
0.000320436
0.000407625
0.00043129
0.000254731
0.000123825
7.59911e-05
4.56605e-05
4.41145e-05
3.26214e-05
2.31283e-05
2.32045e-05
1.68624e-05
1.60854e-05
1.30177e-05
1.53253e-05
1.15683e-05
1.55441e-05
1.2494e-05
2.36603e-05
7.96548e-05
0.000263612
0.000149585
4.00471e-05
2.64688e-05
0.000672439
0.00140082
0.0014635
0.00143172
0.0014286
0.00148213
0.00157695
0.000600639
0.000219132
0.00021148
0.000379525
0.00136013
0.000990672
0.000183707
0.000608922
0.000906981
0.000947809
0.00079037
0.000582094
0.00042451
0.000302943
0.000296569
0.000291757
0.000383397
0.000516291
0.000672493
0.00064757
0.00048727
0.000418616
0.000369796
0.000368045
0.00045712
0.000439083
0.000327309
0.0002721
0.000287352
0.000350394
0.000514471
0.000614192
0.000438184
0.000185661
0.00011392
0.000277348
0.000434973
0.000166999
0.000202766
0.000216428
0.000226456
0.000227509
0.000212681
0.000174389
0.00015958
0.000127615
0.000123656
0.000120954
0.000126633
0.000135024
0.000158814
0.000156822
0.000183014
0.000196368
0.000265846
0.000485933
0.000779409
0.000911102
0.000781736
0.000512248
0.000370812
0.000327909
0.000296978
0.000362103
0.00044747
0.000223588
0.000188315
2.00795e-05
2.38714e-05
3.45151e-05
8.19513e-05
0.000121508
0.000171655
0.00019127
0.000202938
0.000191248
0.000187044
0.000175655
0.000170224
0.000176901
0.000172011
0.000171986
0.000169932
0.000177215
0.00017806
0.00017867
0.000195422
0.000202195
0.000148964
9.31448e-05
7.48001e-05
9.40319e-05
0.000150431
0.000188561
0.000172526
0.000142951
0.000188435
4.48161e-05
9.32678e-05
0.000157845
0.000186541
0.000162279
0.000138464
0.000106867
8.50002e-05
5.72066e-05
6.0569e-05
6.01253e-05
7.44363e-05
0.000107347
0.000154588
0.000213473
0.000287131
0.000320868
0.000320244
0.000260517
0.000185743
0.000124689
9.06856e-05
8.50879e-05
0.000107185
0.000164608
0.000208342
0.000129301
0.000104748
0.000180637
0.000194518
0.000170029
9.81849e-05
1.23051e-05
3.56806e-06
2.563e-06
3.47807e-06
6.31468e-06
8.08302e-06
1.18282e-05
1.41179e-05
4.02148e-05
0.00013335
0.000236024
0.000228475
0.000108276
2.78421e-05
1.38941e-05
9.77043e-06
7.41876e-06
6.87283e-06
7.57972e-06
7.77529e-06
1.26958e-05
2.6544e-05
4.88528e-05
5.17714e-05
3.61459e-05
3.25267e-05
3.44147e-05
0.000312115
2.19808e-06
1.03311e-05
3.50022e-05
6.35102e-05
5.94575e-05
8.29154e-06
2.92994e-06
1.23353e-06
1.14419e-06
8.66182e-07
5.3568e-07
1.16423e-06
2.88272e-06
8.89933e-06
5.32937e-05
0.000181128
0.000150601
0.000109996
9.39241e-05
0.00011075
0.000163542
0.000149315
2.32261e-05
4.88996e-06
3.00265e-06
3.92642e-06
3.92597e-05
9.26134e-05
1.65862e-05
1.9105e-05
0.000115662
0.000158826
0.00017961
0.000176319
0.000112525
0.000140757
9.88081e-06
3.16816e-07
4.52068e-07
4.90648e-07
3.75259e-07
2.88041e-07
2.07515e-07
2.30963e-07
2.43228e-07
2.89589e-07
3.01769e-07
2.97905e-07
2.92475e-07
2.74914e-07
4.90341e-07
1.38534e-06
1.12416e-05
0.000104421
9.06489e-05
8.39098e-06
5.78318e-07
3.26285e-07
2.73645e-06
0.000208777
2.33345e-05
2.69491e-05
3.25185e-05
3.11433e-05
3.23571e-05
7.29907e-05
0.000182298
8.75283e-06
6.11201e-07
1.58041e-07
1.03247e-07
1.23099e-07
1.84865e-07
2.04234e-07
2.2747e-07
2.05299e-07
1.89915e-07
1.36547e-07
9.15986e-08
4.314e-08
2.33185e-08
1.24844e-08
9.11645e-09
7.75705e-09
6.0005e-09
1.05794e-08
2.65177e-08
2.05565e-07
5.07391e-05
9.21345e-06
5.19637e-05
4.31742e-05
6.51392e-05
6.89706e-05
5.17304e-05
3.49254e-05
2.30467e-05
1.49138e-05
8.53438e-06
7.44357e-06
9.45622e-06
1.45139e-05
3.67127e-05
0.000154822
0.000273089
3.62674e-05
1.28747e-05
9.99304e-06
1.14437e-05
1.57599e-05
1.89063e-05
2.31452e-05
1.57726e-05
1.28614e-05
1.19675e-05
1.4403e-05
2.8049e-05
4.19943e-05
1.07331e-05
0.000272462
8.35723e-06
9.13788e-06
1.42045e-05
2.18532e-05
2.78771e-05
3.27774e-05
4.08091e-05
7.0763e-05
0.000107389
0.000168536
0.000119909
0.000109981
6.36644e-05
6.07815e-05
8.67819e-05
0.000135249
0.000168033
6.48079e-05
1.56237e-05
1.35548e-05
9.04244e-06
7.82784e-06
1.15175e-05
2.51942e-05
3.24106e-05
2.70772e-05
1.82001e-05
1.4107e-05
3.93461e-06
1.63125e-05
1.85507e-05
3.95068e-05
0.000116955
0.000268487
0.000458899
0.000493735
6.28915e-05
9.75861e-06
2.30921e-06
1.40867e-06
7.03401e-07
1.71544e-06
7.96723e-07
3.95128e-06
5.26815e-06
7.09159e-06
1.15287e-05
1.04707e-05
6.89182e-06
3.02796e-06
1.34735e-06
5.56313e-07
2.98414e-07
2.50315e-07
2.93674e-07
4.26329e-07
1.56986e-06
1.81033e-05
0.000257108
1.54761e-05
1.48826e-05
3.8966e-05
9.13401e-05
0.000198148
0.000389856
0.00025384
5.0741e-05
1.76249e-05
6.92196e-06
3.95157e-06
2.1215e-06
1.83961e-06
1.47485e-06
1.69676e-06
1.29761e-06
1.46778e-06
1.01314e-06
9.954e-07
7.5727e-07
7.64268e-07
6.63679e-07
6.0302e-07
4.82856e-07
7.74857e-07
1.43898e-06
4.51955e-06
9.86025e-06
0.000187506
9.3567e-05
1.90484e-05
0.000537358
0.00108825
0.0013981
0.00146204
0.00157662
0.00153714
0.00163799
0.00128051
0.000317342
0.000171078
0.000227152
0.000524135
0.00144429
0.000213199
0.00101166
0.000983464
0.00079949
0.000609085
0.000411819
0.000306997
0.000256081
0.000256235
0.000271964
0.000371402
0.000498953
0.000698761
0.000656015
0.000482752
0.000370832
0.000366669
0.000376385
0.000454376
0.000438527
0.000323764
0.000281941
0.000336364
0.000447039
0.000698452
0.000675
0.000372451
0.000111517
7.11776e-05
0.000225347
0.000458234
0.00018779
0.000191028
0.000203219
0.00019858
0.000227365
0.000227948
0.000224418
0.000177927
0.000163499
0.000151956
0.000148323
0.000165474
0.00017748
0.000196555
0.000197878
0.000218373
0.000227822
0.00033167
0.000575135
0.000836962
0.000808685
0.000481415
0.00033714
0.000267256
0.000251728
0.000266478
0.000402898
0.000397134
0.000208407
0.000177059
1.77721e-05
2.51449e-05
7.3461e-05
0.000132234
0.000179299
0.000191462
0.000197484
0.000193126
0.000184578
0.000176888
0.000170125
0.000163253
0.00017452
0.00016813
0.00017148
0.000167915
0.000174348
0.000160374
0.000185335
0.00018161
0.000206394
0.000184679
0.000110807
7.50365e-05
8.31202e-05
0.000123327
0.000187709
0.000189552
0.000169337
0.000188087
3.40136e-05
0.000187136
0.000254628
0.000239135
0.000172995
0.000132672
0.000106246
8.62852e-05
7.42328e-05
7.42583e-05
7.98618e-05
8.88851e-05
0.000104498
0.000144698
0.000190039
0.000243341
0.000315954
0.000353112
0.000272434
0.000160031
9.2482e-05
6.7195e-05
6.55547e-05
8.59041e-05
0.000142223
0.000212112
0.00013433
0.000106589
0.000176375
0.000177385
0.000181586
2.49171e-05
4.88121e-06
2.57328e-06
2.80261e-06
4.41345e-06
7.38459e-06
8.03462e-06
1.23417e-05
1.38474e-05
3.80542e-05
0.000162734
0.000253285
0.000235891
7.71336e-05
2.04338e-05
1.04844e-05
8.84555e-06
7.44217e-06
7.99663e-06
6.92807e-06
9.5238e-06
1.11114e-05
2.42636e-05
5.09664e-05
5.55477e-05
3.85924e-05
3.02708e-05
3.06596e-05
0.000305516
1.32141e-06
5.64304e-06
2.74829e-05
4.52774e-05
2.4798e-05
2.58732e-06
1.72212e-06
1.03414e-06
9.85187e-07
9.23192e-07
4.91322e-07
1.15176e-06
2.82818e-06
8.89341e-06
7.87622e-05
0.000189123
0.00013209
9.30481e-05
7.79628e-05
9.33367e-05
0.000144482
0.000180405
2.92523e-05
7.21974e-06
3.64254e-06
5.72536e-06
6.39341e-05
8.27913e-05
1.72032e-05
1.8538e-05
0.000117607
0.000150098
0.000175104
0.000173984
0.000121848
0.000180836
4.46108e-06
2.71729e-07
3.69878e-07
4.09556e-07
3.02924e-07
1.83889e-07
2.0885e-07
2.32918e-07
2.66884e-07
3.02163e-07
4.33987e-07
5.38175e-07
4.94453e-07
3.66291e-07
3.11639e-07
7.25462e-07
4.83033e-06
8.09988e-05
0.000157357
8.16567e-06
6.13523e-07
4.95077e-07
8.57348e-06
0.000150747
2.42994e-05
2.65374e-05
3.05191e-05
2.4934e-05
4.23808e-05
0.000150098
2.2492e-05
1.48499e-06
2.27391e-07
1.21334e-07
1.16255e-07
1.82654e-07
2.40446e-07
2.48701e-07
2.6882e-07
2.51638e-07
2.39165e-07
1.95847e-07
1.15532e-07
6.39574e-08
2.40898e-08
1.03032e-08
7.79916e-09
9.38623e-09
1.09441e-08
1.06356e-08
9.4488e-09
1.60306e-08
4.70866e-07
3.75595e-05
5.04752e-05
3.97393e-05
4.72302e-05
5.41261e-05
4.85328e-05
3.41785e-05
2.94266e-05
2.39381e-05
1.35919e-05
8.00122e-06
7.71526e-06
1.46769e-05
5.45321e-05
0.000225389
0.000162694
3.55588e-05
1.70138e-05
2.04764e-05
2.43503e-05
3.09713e-05
3.62099e-05
3.44066e-05
2.6065e-05
1.25445e-05
7.66705e-06
1.01905e-05
2.61543e-05
3.09655e-05
1.09392e-05
0.000270096
7.77121e-06
8.39013e-06
1.20039e-05
1.65601e-05
2.25648e-05
3.27216e-05
5.67101e-05
0.000140804
0.000179628
3.60171e-05
5.24144e-05
5.5792e-05
0.000122946
7.50953e-05
1.96677e-05
4.36288e-06
1.18052e-06
5.87403e-07
8.34265e-07
1.8715e-06
4.15569e-06
1.50776e-05
4.31485e-05
5.29177e-05
3.82586e-05
3.65112e-05
0.000110264
0.000191179
3.35199e-05
2.0727e-06
1.98562e-05
4.48608e-05
0.000165688
0.000457781
0.000413132
6.58447e-05
9.54769e-06
3.2569e-06
1.39816e-06
1.8543e-06
4.64901e-06
1.83835e-05
1.19407e-05
3.64347e-05
5.86245e-05
4.26803e-05
7.0428e-05
6.37013e-05
4.68325e-05
2.33359e-05
7.946e-06
2.03025e-06
5.24499e-07
2.21969e-07
2.3249e-07
2.32881e-07
3.73666e-07
1.34913e-06
0.00014406
3.79302e-05
2.50168e-05
6.05511e-05
0.000168882
0.000425845
6.82125e-05
1.14361e-05
2.70776e-06
1.14028e-06
6.77403e-07
3.84086e-07
3.64094e-07
2.79876e-07
4.2092e-07
4.21196e-07
4.06735e-07
3.35067e-07
3.29503e-07
3.18768e-07
3.26675e-07
2.76852e-07
2.67326e-07
1.93236e-07
2.55842e-07
2.60539e-07
7.70965e-07
3.24036e-06
5.23039e-06
1.58263e-05
0.000346939
2.35051e-05
0.000325036
0.000776419
0.000965494
0.00107806
0.00141113
0.00139938
0.00144949
0.001613
0.00069545
0.000239234
0.000202412
0.000320479
0.0010852
0.000329925
0.000944512
0.000778615
0.000672534
0.000509124
0.000396646
0.000331006
0.000307547
0.000309571
0.000414272
0.000512648
0.000670422
0.000654796
0.000521386
0.000422395
0.000392935
0.000391156
0.000432387
0.00047449
0.00035954
0.000314299
0.000335876
0.000501613
0.000672561
0.000759447
0.000528018
0.000123185
3.26617e-05
2.95816e-05
0.0001569
0.000455621
0.000179881
0.00018737
0.000189054
0.000222023
0.000194595
0.000210863
0.000204829
0.000208849
0.000185949
0.00018842
0.000221308
0.000283014
0.00030194
0.00030901
0.000276071
0.000265136
0.000319518
0.000474139
0.00073926
0.000716385
0.00037016
0.000192023
8.50848e-05
6.77123e-05
7.84397e-05
0.000158198
0.000304164
0.000286121
0.000167301
0.000191704
2.33449e-05
5.60203e-05
0.000154773
0.000193419
0.000191139
0.000183821
0.000177433
0.000168434
0.000164049
0.000158825
0.000160741
0.000156639
0.000168709
0.000169656
0.000171464
0.000174733
0.000180202
0.000186398
0.000194375
0.00018967
0.00020555
0.000194327
0.000116529
7.60323e-05
7.38723e-05
0.000106058
0.000170967
0.000191083
0.000188436
0.000188133
6.94298e-05
0.00025748
0.00024362
0.000156213
9.17839e-05
7.85842e-05
8.27422e-05
7.99364e-05
7.94625e-05
7.18302e-05
7.60743e-05
7.55285e-05
9.67756e-05
0.000126808
0.000153347
0.000205946
0.000278705
0.000352144
0.000186874
0.000102252
7.10281e-05
6.1107e-05
6.63123e-05
8.7641e-05
0.000152322
0.000210329
0.000121689
0.000110971
0.000187475
0.000162663
0.000143007
9.20469e-06
2.9375e-06
2.23898e-06
3.18472e-06
5.88352e-06
8.30914e-06
9.4756e-06
8.36233e-06
1.49757e-05
3.19724e-05
0.000145186
0.000227991
0.000218168
9.41556e-05
2.09384e-05
8.70764e-06
8.9466e-06
1.01105e-05
9.18542e-06
1.02222e-05
1.21074e-05
2.02918e-05
2.75599e-05
4.6261e-05
4.56487e-05
2.29104e-05
1.97828e-05
3.28184e-05
0.000304933
9.29009e-07
2.18175e-06
2.08511e-05
1.68884e-05
8.85407e-06
2.98707e-06
1.33295e-06
1.61389e-06
1.18908e-06
9.91961e-07
5.68693e-07
9.3595e-07
2.38501e-06
9.5934e-06
8.85459e-05
0.000182845
0.000123319
8.71186e-05
6.87236e-05
6.93375e-05
8.85736e-05
0.000134889
0.000186191
8.69257e-05
2.72999e-05
3.51101e-05
0.000174774
6.58374e-05
1.83527e-05
1.68691e-05
0.000138965
0.000148409
0.000154484
0.000172081
0.000134906
0.000187226
3.76592e-06
2.63632e-07
2.45511e-07
2.91257e-07
1.90458e-07
1.38262e-07
2.03664e-07
1.9687e-07
2.09699e-07
2.34761e-07
2.93381e-07
5.1248e-07
7.46718e-07
7.23768e-07
4.41463e-07
3.89454e-07
1.47231e-06
3.22743e-05
0.000149656
1.29055e-05
4.99557e-07
9.25301e-07
1.38712e-05
0.000137795
1.90791e-05
2.83175e-05
2.65114e-05
2.40324e-05
6.69411e-05
0.000167128
3.89818e-06
4.89974e-07
1.447e-07
1.18034e-07
1.52336e-07
2.24002e-07
2.80279e-07
2.86092e-07
3.84881e-07
3.04303e-07
2.849e-07
2.4006e-07
1.8445e-07
9.44643e-08
3.16958e-08
9.1238e-09
5.74893e-09
1.6271e-08
9.43315e-08
1.3585e-07
5.86816e-08
1.72757e-08
4.22014e-08
0.000199611
3.39427e-05
2.26796e-05
2.21771e-05
2.93708e-05
3.12301e-05
3.27338e-05
4.24126e-05
5.13917e-05
3.61315e-05
1.64046e-05
9.68346e-06
1.7221e-05
7.6651e-05
0.00025583
8.28044e-05
3.60292e-05
2.4648e-05
3.4351e-05
5.12287e-05
6.27668e-05
6.93405e-05
5.448e-05
3.62783e-05
1.30914e-05
8.22159e-06
9.49124e-06
1.85091e-05
6.91734e-05
4.23888e-05
0.000296122
7.48219e-06
7.63161e-06
9.7961e-06
1.2795e-05
1.65336e-05
2.80073e-05
6.74503e-05
0.000185577
2.86767e-05
4.08711e-06
2.3902e-06
1.63003e-06
1.79467e-06
8.79415e-07
3.99694e-07
1.46645e-07
8.56416e-08
1.16992e-07
3.31031e-07
1.30216e-06
8.06939e-06
3.06259e-05
7.25948e-05
4.82426e-05
3.11243e-05
2.56223e-05
0.000196146
8.91563e-05
0.000166811
2.5364e-06
2.03061e-05
4.3578e-05
0.000206876
0.000502304
8.2103e-05
1.46806e-05
3.39147e-06
1.86067e-06
2.17278e-06
4.83537e-06
2.18548e-05
6.42352e-05
4.8058e-05
7.50603e-05
0.000103086
0.000106333
0.000124291
0.000113602
0.000111066
6.76238e-05
2.67697e-05
5.47119e-06
9.22803e-07
2.85243e-07
2.01498e-07
1.87493e-07
3.30721e-07
7.19075e-07
1.10446e-05
0.000109436
2.59882e-05
8.61967e-05
0.000305585
0.000122335
1.1291e-05
1.943e-06
5.52668e-07
3.50742e-07
2.08933e-07
2.11936e-07
1.78118e-07
2.46611e-07
2.50405e-07
3.06655e-07
2.76969e-07
2.94341e-07
2.32711e-07
2.4304e-07
2.23347e-07
2.32193e-07
1.93621e-07
1.99646e-07
1.62255e-07
2.59808e-07
9.04862e-07
1.02715e-05
3.17232e-05
2.1995e-05
0.000212882
3.73824e-05
0.000275196
0.000675806
0.000805831
0.000989694
0.00119432
0.000956122
0.00105407
0.00132609
0.00126629
0.000586509
0.000266743
0.000299032
0.000806307
0.000554588
0.000670915
0.000637513
0.000572332
0.000463779
0.000439744
0.000366365
0.000369013
0.000352627
0.000423122
0.000539042
0.000601631
0.000547654
0.000480603
0.000425988
0.000437817
0.000474457
0.000453362
0.000371649
0.000340968
0.000405775
0.000578521
0.000701929
0.000618256
0.000327403
6.13663e-05
2.02227e-05
1.25664e-05
2.44909e-05
0.000121525
0.000402686
0.000216384
0.000202323
0.000220113
0.000209698
0.00021522
0.000205339
0.000187761
0.000181704
0.000195305
0.000236226
0.000324244
0.00032514
0.000338028
0.000376087
0.000328939
0.000345874
0.000454901
0.000678883
0.000655
0.000304354
9.81233e-05
3.7682e-05
1.82093e-05
1.43697e-05
1.98233e-05
3.30544e-05
0.000177889
0.000222241
0.00015385
0.000183307
8.27038e-05
0.000171733
0.000192927
0.000178257
0.00017162
0.000165055
0.000159312
0.000158171
0.000159298
0.000157561
0.000160911
0.00016295
0.000160407
0.000182641
0.000186007
0.000199073
0.000206302
0.000198717
0.000205672
0.000200779
0.000209634
0.00016953
0.00010805
6.70886e-05
6.31288e-05
8.99874e-05
0.000148445
0.000191188
0.000191516
0.000190493
0.000116094
0.000276194
0.000192124
8.51506e-05
6.44634e-05
7.07058e-05
9.13423e-05
9.273e-05
9.15652e-05
7.86262e-05
9.13366e-05
8.42557e-05
0.000101643
0.000118528
0.000134099
0.000189991
0.000326194
0.000235272
0.000116853
7.98409e-05
7.42056e-05
7.31923e-05
8.56607e-05
0.000129806
0.000192475
0.000172398
0.000116092
0.000168265
0.00018545
0.000154021
7.5166e-05
4.61622e-06
2.31664e-06
2.24082e-06
3.43242e-06
6.73291e-06
9.12643e-06
9.85783e-06
9.76431e-06
1.24699e-05
2.13847e-05
0.000108446
0.000195644
0.000189893
0.000147715
3.16303e-05
1.40868e-05
8.88539e-06
9.78016e-06
9.3882e-06
1.1825e-05
1.35306e-05
2.09378e-05
2.54078e-05
2.80852e-05
2.73279e-05
2.07499e-05
1.93162e-05
6.88538e-05
0.00024854
8.67721e-07
4.78066e-06
2.17448e-05
1.59849e-05
4.76604e-06
1.87619e-06
1.81059e-06
1.93931e-06
1.46363e-06
9.4355e-07
5.39658e-07
6.45298e-07
1.56959e-06
7.68319e-06
7.49054e-05
0.00018601
0.000126557
9.03749e-05
7.27885e-05
6.54696e-05
6.49523e-05
7.17272e-05
8.96796e-05
0.000122275
0.000154085
0.000164414
0.000119589
4.63156e-05
1.88064e-05
1.5811e-05
0.0001619
0.000152003
0.000133321
0.000157091
0.000145804
0.000183647
7.5146e-06
3.22294e-07
1.66362e-07
1.77186e-07
1.28037e-07
1.41075e-07
1.58887e-07
1.26613e-07
1.26109e-07
1.25843e-07
1.69057e-07
2.71591e-07