/*--------------------------------*- C++ -*----------------------------------*\
| =========                 |                                                 |
| \\      /  F ield         | OpenFOAM: The Open Source CFD Toolbox           |
|  \\    /   O peration     | Version:  2.1.1                                 |
|   \\  /    A nd           | Web:      www.OpenFOAM.org                      |
|    \\/     M anipulation  |                                                 |
\*---------------------------------------------------------------------------*/
FoamFile
{
    version     2.0;
    format      ascii;
    class       volScalarField;
    location    "0.003800000";
    object      omega;
}
// * * * * * * * * * * * * * * * * * * * * * * * * * * * * * * * * * * * * * //

dimensions      [0 0 -1 0 0 0 0];

internalField   nonuniform List<scalar> 
12384
(
2975
9639.44
13990.3
16417.7
17291.8
16596.7
15090.6
13687.8
11932.7
9944.24
7804.63
5627.8
3785.79
2486.97
11108.9
30176.8
55338.7
74900.3
90323.5
98098
105670
103988
103740
99735.8
96930.6
94744
92262.2
88974.1
84795.8
79837.7
74030.4
67482.1
60360.4
53732.4
48100.2
44609.7
41730.3
39638.6
36146.1
32233.9
25309.3
18614.6
11883.6
5380.36
31152.3
50948.2
66103.3
81469.9
94640.4
104387
110403
113589
114372
113032
109474
101378
93810.8
84553.6
76860.7
68991.6
63683.5
59103.9
57489.9
55093.6
53286
50053.4
47757.9
43198.5
41099.6
35475.6
30504.1
23071.9
15947.2
8376.37
35878.3
51377.4
63600
77480.1
91988
106863
120405
134908
147190
160077
169660
179130
183011
186502
184903
182396
181944
178789
178649
175024
168835
157977
140822
115730
85013.2
54960.8
38173
30628
22295.3
9853.05
42565.2
62602.5
74841.2
86769.1
98754.9
110150
122244
132022
143666
153646
163879
173188
180455
188831
194455
200245
200167
200411
190765
176295
159083
139112
119821
100864
81115.3
62690.3
49925.9
36376.1
24747.8
12693.7
18237.7
31887.7
44324.6
53610.2
67209.5
84813.4
104346
118184
128902
136735
143588
150794
159601
170502
184006
198430
213411
223926
233020
230201
228549
220360
216614
204514
184080
153068
112768
64686
27523.9
15550.8
26077.4
41278.8
52755.5
63150.5
71948.6
78578.3
82994.4
85681.8
86493.8
87506.3
87966.7
89870
91212.6
94238
96797.8
99719.3
102441
105307
108456
110741
111401
106899
102713
92547.3
82160.8
67979.9
52149.2
34437.6
20461.1
9825.66
9912.42
20774.5
27606.4
27766.6
27270
22851.5
18834.7
18618.2
19427.5
27065.7
32067.6
58374.2
73476.7
107757
133112
149185
162191
166120
160637
156997
144935
137176
123269
108924
89098.7
68149.9
45468.7
26299.8
11903.4
3948.49
1575.82
2180.43
2665.67
3240.8
4340.87
6364.57
10572.9
16305.8
23081.1
29147.7
34095.4
37451.5
43666.8
52537.2
71479
87271.2
90139.8
89128.6
76999.6
64679
49151.1
32326.4
19252.1
9635.41
4954.83
3074.48
2301.67
1865.59
1655.53
1551.27
1297.42
1522.83
1746.24
2167.45
2536.11
3188.11
3578.91
4078.05
4143.43
4039.67
3997.69
3743.65
3471.42
3277.69
3437.63
4126.71
5289.59
6879.65
9897.25
16934.2
31046.1
60735.3
94875.2
127995
155347
170155
140042
66339.7
28157.2
8231.18
1063.05
1094.09
1167.14
1246.1
1401.35
1861.69
2588.53
3307.29
4297.25
5945
3622.14
5628.18
3501.46
4191.8
3432.67
2928.59
2812.49
2608.62
2438.8
2344.66
2315.57
2794.4
2777.93
3432.29
3369.52
3255.19
2931.97
2410.14
1585.47
1214.55
878.05
1036.97
1242.58
1605.99
2154.8
2786.39
3403.99
3806.43
3984.91
3999.46
3860.81
3757.91
4017.47
4872.18
7024.76
11517.4
14462.8
15526.7
14224.6
11890.4
8665.34
5506.63
3337.08
2299.01
1772.88
1524.3
1348.71
1205.44
1097.59
922.413
928.115
1024.28
1097.69
1319.09
2030.29
3262.42
5023.01
5539.07
6363.93
5828.92
6367.56
5442.77
5384.62
4305.16
3774.86
3176.51
2520.27
2189.79
2011.8
1870.39
1764.09
1674.8
1540.05
1470.67
1379.61
1220.83
1198.21
1089.56
1004.61
905.83
6538.42
115015
159370
193067
221459
240209
245052
235635
212941
181931
149067
118501
88684.8
7723.27
20221.8
189498
328379
446799
549656
644771
738182
824124
889792
920589
925360
904016
863956
811904
753154
696497
643347
598873
557889
523419
489377
463348
432051
405393
368047
327048
270212
204566
134696
14274.5
43913
272959
378605
470820
554744
628837
691654
741030
774501
792699
799451
791409
770802
734827
684274
617116
536254
449680
381772
333703
310962
297011
292189
284851
278717
261939
236611
195422
143171
19544.7
49359.1
262198
370886
480074
593023
705432
814572
920563
1.025e+06
1.12829e+06
1.23099e+06
1.33622e+06
1.43807e+06
1.54148e+06
1.63933e+06
1.71478e+06
1.76666e+06
1.75169e+06
1.70104e+06
1.57991e+06
1.42306e+06
1.22973e+06
1.01584e+06
793430
601677
444020
304211
212562
160792
24841.3
58399.2
321533
403919
474316
548747
627962
709208
790374
868203
938191
996480
1.04275e+06
1.07737e+06
1.10149e+06
1.11617e+06
1.12709e+06
1.1351e+06
1.13956e+06
1.14101e+06
1.13324e+06
1.10301e+06
1.04884e+06
966737
852255
701512
541127
415782
321450
230026
37410.2
38412.4
214961
290376
351486
413012
464946
496705
508747
514452
536038
588888
666483
766784
892111
1.04225e+06
1.21233e+06
1.39429e+06
1.5752e+06
1.73581e+06
1.86141e+06
1.92568e+06
1.91363e+06
1.8265e+06
1.64563e+06
1.42475e+06
1.16703e+06
896370
638531
400697
58603.7
50195.2
260448
333607
423809
526154
623869
701296
757180
767232
762415
726941
677132
617898
560034
510022
473564
452364
450782
466749
496127
529681
554983
564549
555343
520826
468680
393874
307519
219848
25954
25382.3
220372
273752
297283
318516
338085
371736
442795
566333
730656
896085
1.02545e+06
1.12294e+06
1.17324e+06
1.17118e+06
1.12967e+06
1.04429e+06
938481
829896
735369
662126
619550
592812
582896
579406
579073
534054
432355
291215
17410.3
2631.91
172484
217385
271880
349297
433729
529375
638078
793073
975702
1.17218e+06
1.30933e+06
1.40787e+06
1.41477e+06
1.35998e+06
1.25403e+06
1.12031e+06
979826
843415
717592
601118
490786
402950
327330
274781
227040
191067
162242
130586
1510.93
1717.34
153425
189084
217660
237280
260688
278481
304683
328554
364752
414883
486844
576594
683759
804293
956829
1.15141e+06
1.37972e+06
1.57659e+06
1.69059e+06
1.68505e+06
1.59111e+06
1.46775e+06
1.37904e+06
1.33267e+06
1.28147e+06
1.08722e+06
665367
458340
34229.6
1395.48
156880
201894
242623
272164
301969
319620
338129
346182
365798
363987
388820
395725
414687
436507
457077
480928
510220
539856
577001
605316
637766
652000
651674
614929
542671
442825
325837
201209
1105.24
1676.86
237477
338503
434785
534639
628496
741459
860621
1.01236e+06
1.20879e+06
1.44599e+06
1.681e+06
1.80145e+06
1.84603e+06
1.81106e+06
1.71902e+06
1.57666e+06
1.40652e+06
1.21708e+06
1.02388e+06
837208
668056
524403
408393
326563
273582
230854
197067
158173
938.382
2198.95
269480
352964
432796
494722
546147
588198
609683
629787
631607
632431
630142
626377
617356
602344
573716
532509
479649
424684
375006
335841
303044
279492
265351
255857
240108
228299
203470
163814
964.851
11868.8
176219
216177
239163
258397
275508
287033
287063
272171
244390
207581
169282
131507
15596.1
33848.5
303253
474415
578027
638279
678630
716245
762315
810009
852013
876700
881343
862076
824879
777789
727533
678423
633653
593106
556567
522751
490962
460204
427845
389774
344287
287390
223528
159275
18416.4
52312.8
423824
546311
612847
658967
696933
732457
763028
787200
800850
804315
797138
779032
750875
711538
658995
591115
511078
431866
371330
338931
326293
325504
321473
315650
299072
271731
231022
180798
23735.8
57533.2
354117
452930
524994
589695
653169
717570
783533
855872
932656
1.01979e+06
1.10981e+06
1.20866e+06
1.30676e+06
1.4048e+06
1.49456e+06
1.56208e+06
1.60014e+06
1.59947e+06
1.55562e+06
1.4734e+06
1.3608e+06
1.20635e+06
1.01187e+06
809814
632138
470154
320995
220006
36818.9
68257.2
456426
528752
562797
596427
637740
685159
741632
801546
863241
916903
959888
988469
1.00245e+06
1.00769e+06
1.0044e+06
1.00168e+06
998512
1.00029e+06
1.00149e+06
1.0027e+06
1.00091e+06
989869
952789
857915
699257
533228
408815
312268
53826.2
56263.6
290714
379031
462094
532101
569472
580384
586351
611254
663029
733261
800847
862446
926305
1.0052e+06
1.10441e+06
1.22048e+06
1.34785e+06
1.47026e+06
1.57728e+06
1.64371e+06
1.66147e+06
1.60895e+06
1.51523e+06
1.39132e+06
1.23776e+06
1.03985e+06
801955
539126
82929.5
71695.1
349910
420237
520055
631971
731314
805916
847863
855002
833817
790001
735599
680112
629902
589043
556784
531089
515547
506660
506746
512327
523447
538409
548418
543399
516767
458303
377468
298423
37608
43257.2
293625
337711
359638
382908
418449
470629
581649
739215
912795
1.06219e+06
1.176e+06
1.25954e+06
1.29995e+06
1.29779e+06
1.25549e+06
1.17818e+06
1.09007e+06
1.00042e+06
915024
841400
771420
702966
624902
542271
491070
476974
448399
367971
22170.8
4199.49
251524
314875
394499
480404
563795
661884
786724
951205
1.13457e+06
1.30481e+06
1.43052e+06
1.49905e+06
1.48664e+06
1.4301e+06
1.34211e+06
1.23814e+06
1.13118e+06
1.02545e+06
914996
792098
654620
520928
403250
322564
269149
232617
203957
171344
1565.87
1912.17
195779
223832
249736
271173
292555
311817
334006
358534
395499
450233
526493
619323
727572
864946
1.05906e+06
1.30514e+06
1.53776e+06
1.6843e+06
1.72698e+06
1.68567e+06
1.62682e+06
1.63723e+06
1.74282e+06
1.87921e+06
1.9061e+06
1.68055e+06
994451
635103
47396.1
1487.67
204846
247493
286982
317135
340421
355131
366239
372977
382380
393482
408854
423541
443146
460667
479154
505073
539797
589141
652133
730417
817472
875775
907292
892313
836979
732682
552339
320905
2643.53
1943.03
318631
404922
477659
556629
654832
792926
972761
1.19213e+06
1.46036e+06
1.76047e+06
2.01742e+06
2.11504e+06
2.10086e+06
2.02251e+06
1.88766e+06
1.73024e+06
1.55366e+06
1.36798e+06
1.17433e+06
980049
795932
632193
497964
402810
337428
280677
240843
200251
1101.77
3117.65
366066
451576
514689
558732
597568
636003
664613
685887
693386
696215
698917
696700
692958
678252
646645
602381
545297
486132
432646
388674
351682
327255
307033
295256
280759
260954
233496
197004
1034.27
18933.7
233085
257316
261565
262194
267126
277052
286777
289053
279911
256420
222240
180842
27853.5
53999.8
424080
572440
626422
629173
612250
593915
592815
611542
647491
686824
717085
729372
722556
701235
671735
639227
605969
575805
545755
518731
491616
464367
431245
392279
343229
288670
232645
179718
22825.5
63063.1
570909
668215
689006
686837
681579
683455
690523
699333
707858
712474
711683
703880
688765
663989
629264
580335
516459
445116
387650
356600
351415
359356
363220
362541
349959
321641
279918
229894
29885
66162.2
435460
520710
555092
574620
592139
614146
641771
681291
730043
792306
864058
945150
1.03068e+06
1.11653e+06
1.20313e+06
1.27765e+06
1.33709e+06
1.37266e+06
1.38846e+06
1.37393e+06
1.32983e+06
1.24034e+06
1.10168e+06
932256
765174
604978
434681
288572
49818.5
80254.1
578308
625565
628773
629689
638512
654361
682738
717934
760413
801942
833562
851260
855466
850872
840612
830825
822768
818314
819349
830344
857488
897545
922529
881140
751521
585040
455901
365213
66149.4
74852.2
369296
475770
568019
622160
632537
628667
647478
706047
789483
870794
930243
964587
987394
1.01495e+06
1.04732e+06
1.07558e+06
1.10407e+06
1.14179e+06
1.1915e+06
1.24071e+06
1.27204e+06
1.26704e+06
1.23814e+06
1.19359e+06
1.13353e+06
1.02673e+06
852282
615406
93036.3
89592.4
413528
493779
603313
717719
810912
875486
901439
896160
863413
817958
770960
729055
693255
662951
636673
607635
582596
557615
533639
514573
502768
503906
516110
527160
519629
482002
419250
363513
50750.6
58935.1
338666
371096
394045
426882
478142
556481
685683
836400
987681
1.11928e+06
1.22457e+06
1.29793e+06
1.33361e+06
1.33066e+06
1.29253e+06
1.2324e+06
1.16478e+06
1.09935e+06
1.03751e+06
976272
908274
824842
714919
581439
469953
442579
459484
424757
27943.2
7355.46
334754
413382
496401
570034
646063
752861
893175
1.05143e+06
1.20725e+06
1.34437e+06
1.44064e+06
1.48415e+06
1.46089e+06
1.40888e+06
1.346e+06
1.28643e+06
1.23362e+06
1.1783e+06
1.1037e+06
993778
847271
681717
524543
393089
307929
271156
250410
224849
2007.48
2104.63
224307
243227
264174
283912
302660
320729
339016
362545
397763
451174
520081
602415
707718
860216
1.08794e+06
1.34129e+06
1.53458e+06
1.60671e+06
1.57346e+06
1.50952e+06
1.50597e+06
1.64987e+06
1.93937e+06
2.23205e+06
2.33759e+06
2.12222e+06
1.40601e+06
799668
53876.5
1698.89
248285
282878
313343
336694
351099
364687
376911
389282
404114
424019
443693
464168
484582
499562
521284
553206
603616
682929
788336
910643
1.02875e+06
1.1131e+06
1.16964e+06
1.2095e+06
1.22686e+06
1.173e+06
953273
537983
8790.51
2295.21
377035
431383
480022
556869
683390
868036
1.10313e+06
1.36316e+06
1.63509e+06
1.88764e+06
2.08106e+06
2.1681e+06
2.1276e+06
2.05345e+06
1.92663e+06
1.78192e+06
1.62657e+06
1.47146e+06
1.30743e+06
1.12849e+06
933150
736152
569459
462583
401816
349763
293330
231248
1408.77
4759.91
440663
509233
557242
600175
643765
688719
721920
746330
763057
773301
776358
772414
762145
741051
699396
648531
587319
528204
475303
429519
394528
366785
343583
324127
307531
279820
249914
215731
1203.92
27153.5
279678
288529
277874
261451
252638
255822
268169
282500
290483
286998
270438
236744
43596.9
79017.6
515009
608529
612174
575390
520746
463471
422510
412988
436925
482711
529553
564300
582278
585418
578489
565308
548096
530090
511175
491415
470155
446935
415849
376903
327813
279361
236468
201984
31319
78830.1
665572
721523
708072
668754
627055
597341
582256
578399
579371
582856
588039
593984
598276
596818
584057
554818
505477
442582
389925
365830
372301
394235
412969
423176
421238
397209
354794
301800
38898.9
79746.3
509096
579964
585818
573322
560822
554547
556388
569260
591293
622211
661768
704939
757842
816926
890705
970444
1.05268e+06
1.12279e+06
1.18316e+06
1.22196e+06
1.23385e+06
1.20189e+06
1.119e+06
995655
857363
711110
538718
366698
60595.3
97495
660769
682702
676993
672889
674695
672052
675332
676695
689479
705567
718222
718021
710761
696163
679734
664150
651139
642177
641618
662160
715195
794638
857516
845473
738972
590216
479516
406678
77101.4
94957.9
463663
580109
659728
680750
661712
651930
693631
785692
892230
979048
1.03446e+06
1.05509e+06
1.06148e+06
1.06637e+06
1.05408e+06
1.00279e+06
920279
837488
789262
797997
844129
901042
950469
990184
1.0094e+06
977476
862859
655608
89640.1
106262
469128
566586
685541
795313
878110
925177
934596
915077
879839
840935
807612
780865
759711
738754
716804
687407
657993
625024
588228
553874
524566
505732
503999
512114
510516
488004
445845
418535
60130.3
73284
366444
390363
416771
465942
531902
634588
769690
901309
1.01545e+06
1.10974e+06
1.18197e+06
1.22566e+06
1.23952e+06
1.23392e+06
1.21678e+06
1.19502e+06
1.16936e+06
1.13825e+06
1.10369e+06
1.06438e+06
1.01097e+06
929523
808060
649676
498984
442428
488440
483011
35509.5
12208.5
434043
518607
590042
648939
725092
843693
979596
1.11427e+06
1.22578e+06
1.30618e+06
1.35173e+06
1.35476e+06
1.31601e+06
1.27302e+06
1.24568e+06
1.24081e+06
1.25423e+06
1.2623e+06
1.23466e+06
1.15089e+06
1.0025e+06
825181
655678
497341
361943
307873
299778
297765
3394.13
2524.06
249426
259671
272545
286769
301504
318788
335923
360490
395044
443122
502742
575319
680238
845298
1.08033e+06
1.30964e+06
1.44576e+06
1.4427e+06
1.336e+06
1.23933e+06
1.2729e+06
1.52566e+06
1.95033e+06
2.35153e+06
2.52999e+06
2.39488e+06
1.7193e+06
1.04894e+06
43558.4
1997.26
294376
316692
333713
348408
356976
369375
385576
404126
426560
456440
486745
515163
542603
562620
590810
630996
695562
785944
896348
1.01213e+06
1.10797e+06
1.18539e+06
1.27031e+06
1.41341e+06
1.585e+06
1.64571e+06
1.43215e+06
863586
19183
2909.12
434465
461628
496684
579736
729850
944331
1.18877e+06
1.42088e+06
1.6317e+06
1.82789e+06
1.99643e+06
2.08235e+06
2.03414e+06
1.96619e+06
1.85002e+06
1.73108e+06
1.62818e+06
1.53273e+06
1.42662e+06
1.29076e+06
1.11129e+06
887393
665575
520828
457995
417364
354801
270881
2155.8
7646.34
510918
561408
601227
647970
697454
746235
784432
811549
823810
824154
822047
813525
796585
760192
704560
639065
574860
519837
475013
437534
410393
387862
373321
357099
334176
293971
259263
231885
1447.41
35406.1
314552
310846
289329
261192
242577
238183
248255
267817
287839
301650
305894
291217
60438.3
103245
557954
600173
578466
532583
472800
405810
348235
316758
324227
360515
405695
445160
471818
485925
491941
492680
488287
480480
471271
459160
441183
415623
380439
340477
298504
264597
241752
230756
42337.6
100753
709105
733108
705908
648839
583738
531257
498248
484658
478506
479726
488558
509027
535716
558189
564573
547068
502433
442280
394711
383437
404298
436389
458533
467203
472334
467357
438141
389769
48899.4
101603
571534
630628
623659
596922
571866
551264
538606
534319
534818
534787
533453
525739
523849
535674
584177
669756
775892
880311
978830
1.05947e+06
1.11284e+06
1.12557e+06
1.08998e+06
1.01399e+06
913396
787978
626522
450392
70647.2
120403
695889
707268
725141
759066
789264
791523
770129
718172
682671
662800
649982
634207
614115
584509
554539
527099
509390
502587
515020
561690
645702
744994
811200
798483
700977
575430
490748
431332
83425.9
115782
574040
681149
728632
707601
661335
652410
718359
836784
957807
1.05017e+06
1.10373e+06
1.11944e+06
1.12473e+06
1.13031e+06
1.10558e+06
1.01971e+06
873683
699768
550912
491844
552461
664693
778901
875596
942092
945915
860938
662661
79500.8
121878
525112
639682
757810
856375
925060
956930
952941
931891
900481
871530
850079
834268
821944
808442
790644
763910
731520
696156
653844
611452
572590
537291
510610
497215
490373
479863
466484
475765
72679.8
95519
384527
405306
442191
508803
587848
703191
842953
949167
1.01541e+06
1.05342e+06
1.06672e+06
1.05679e+06
1.04456e+06
1.03886e+06
1.05214e+06
1.08171e+06
1.10861e+06
1.11802e+06
1.11203e+06
1.09542e+06
1.06424e+06
1.00117e+06
886791
721826
547386
459691
517075
536032
43743.5
21714.7
553465
627827
680158
728061
810238
922735
1.04326e+06
1.14413e+06
1.20267e+06
1.21595e+06
1.19673e+06
1.15298e+06
1.09896e+06
1.06192e+06
1.06592e+06
1.11301e+06
1.19385e+06
1.27159e+06
1.29813e+06
1.25018e+06
1.10741e+06
923320
751858
597244
437037
339171
334153
369024
6023.35
4052.31
271659
274139
277844
285047
295420
310883
328499
353805
389005
437381
493857
561748
661204
826175
1.04074e+06
1.22983e+06
1.31401e+06
1.25497e+06
1.0929e+06
958022
998267
1.2997e+06
1.79036e+06
2.25501e+06
2.5105e+06
2.47435e+06
1.95641e+06
1.25561e+06
65612.6
2507.18
339091
346225
349908
354081
357536
371007
392260
418078
447869
485621
524024
562530
595965
626536
662727
706702
770714
846001
925310
993785
1.04545e+06
1.11093e+06
1.25055e+06
1.52659e+06
1.88132e+06
2.0889e+06
1.93304e+06
1.26724e+06
40206.1
4176.85
499133
503449
528896
614483
770774
975529
1.1804e+06
1.35642e+06
1.50585e+06
1.63983e+06
1.7531e+06
1.81033e+06
1.77348e+06
1.70876e+06
1.6199e+06
1.55039e+06
1.52915e+06
1.52758e+06
1.50552e+06
1.43267e+06
1.29541e+06
1.0698e+06
795088
597054
517539
479366
412811
314419
3657.37
11790.4
574723
613082
655018
701031
744240
783024
814513
838015
853519
862242
862667
854003
828551
776884
699883
610928
532983
477007
440675
418238
405597
395157
389986
382418
358253
306216
262269
247265
1678.7
42614.3
337881
322030
293138
259960
237090
226898
231531
248533
272838
300316
324713
332950
76192.5
124481
562950
573090
555650
528315
489936
443951
397799
364373
352557
363018
385568
409995
429413
442367
449484
452101
449299
443038
434000
418561
394958
363328
328543
294347
266707
251475
251822
262952
54838.7
126115
726731
753813
740041
680308
604482
533240
483235
459237
447860
450777
468134
501183
542094
573161
582328
561629
514640
462268
437336
461867
516721
571363
593710
572322
530027
502237
490513
465884
58704.9
134876
635347
678113
676171
660313
642204
624681
607734
594936
579252
557155
527759
486464
444503
417484
428415
490940
594136
704287
820542
920399
997060
1.03674e+06
1.03557e+06
999242
935070
836311
695877
539183
81323.7
147266
691818
718269
793431
902347
989229
1.01104e+06
949662
828737
723763
653653
617147
591202
562132
527222
491860
462163
451626
469420
517880
595998
688996
771366
804607
765646
669329
567062
501128
446455
90768.6
137274
698200
771991
774718
712145
643374
639020
724765
859057
988533
1.08464e+06
1.14055e+06
1.15714e+06
1.16293e+06
1.17427e+06
1.16545e+06
1.09859e+06
964608
792437
634703
546158
573598
671214
786636
885396
944570
937101
836550
624891
73699
135783
591958
714845
824668
906214
957933
972736
965034
944473
923987
907673
895034
882831
871910
862777
850900
831649
804206
773989
732522
686790
638175
590699
541696
501715
478706
472978
488899
533848
89144.7
119034
398805
425305
480639
561673
647351
763324
904160
991456
1.01538e+06
992666
935724
860541
796857
782522
830702
922995
1.00809e+06
1.05841e+06
1.07541e+06
1.07653e+06
1.06753e+06
1.02869e+06
937884
786167
601124
489151
533865
579028
59941.2
41777.4
694584
739133
766669
808094
893415
989848
1.08609e+06
1.14782e+06
1.15678e+06
1.11098e+06
1.02901e+06
936805
860418
816438
835992
925302
1.07165e+06
1.21838e+06
1.30086e+06
1.29329e+06
1.16641e+06
979079
805974
661556
508869
371141
350414
422009
9879.14
11819.9
291233
289326
284372
284811
290056
303196
321161
348938
386386
436766
496551
563192
654141
801473
979944
1.13201e+06
1.18886e+06
1.10447e+06
904120
729707
729143
1.01852e+06
1.53049e+06
2.01946e+06
2.32676e+06
2.37694e+06
2.04844e+06
1.43724e+06
153825
4508.3
385268
370759
362057
356975
356451
368239
392122
421622
454694
498535
543622
591250
633561
674681
714831
757651
807161
848335
874245
883385
893828
951933
1.14828e+06
1.55381e+06
2.07866e+06
2.40458e+06
2.32259e+06
1.68354e+06
111606
8945.87
576937
560024
574404
647427
781768
944159
1.09586e+06
1.212e+06
1.29899e+06
1.35739e+06
1.39882e+06
1.39376e+06
1.34724e+06
1.27808e+06
1.22082e+06
1.2399e+06
1.35658e+06
1.48476e+06
1.54959e+06
1.53426e+06
1.44612e+06
1.24352e+06
932618
688803
588666
543724
471816
375668
7471.7
18092.2
634673
670929
714752
750875
784753
819976
857867
891651
911621
916436
912123
900757
874187
818478
726290
608754
497476
423857
386652
375178
376577
384951
395434
397934
376032
319305
268892
261590
2188.13
48890.9
351692
323141
289757
261325
244636
237539
239133
250571
272355
306620
347210
368096
95935.1
141236
538420
551772
560135
561086
550494
531650
506587
482691
462991
453033
450776
453314
455213
455194
450408
442815
432392
418417
399747
375724
351479
326113
301073
277909
264689
266037
282767
303943
75145.5
160128
767606
845956
860823
803476
718874
626435
557071
520129
508492
515849
538712
572186
605631
625520
623490
598552
563075
546718
581589
673557
819307
978806
1.08032e+06
1.06676e+06
946825
789945
647815
538204
80511.1
193240
731779
759147
776921
782233
779839
774397
767395
759817
744879
718553
683089
641038
600375
567925
550179
558540
600559
666572
753607
839863
910414
955656
971708
961491
924775
854472
745582
630395
93079.6
171999
662711
731115
890211
1.08971e+06
1.23139e+06
1.2651e+06
1.1528e+06
959436
772437
651099
599236
571685
547384
521705
501224
499013
526225
585247
666565
753324
822651
855905
835582
762100
661539
572716
512193
453400
101824
160578
829736
847545
800079
700299
616404
616899
713975
854551
983887
1.08015e+06
1.14003e+06
1.16247e+06
1.16557e+06
1.17932e+06
1.19926e+06
1.18163e+06
1.10747e+06
998324
891633
821272
810727
856163
923568
975561
982055
917539
770172
558449
79427
151841
678933
787397
878436
941204
970711
973214
961803
949521
941731
939511
935785
923342
906107
895636
888899
880288
864855
846535
815273
775949
726475
670747
607912
544340
502753
496200
532752
604737
110515
138908
422283
461587
535842
624766
706316
810134
948906
1.03256e+06
1.03686e+06
975959
868014
736058
616668
580771
656354
790104
913338
988312
1.01559e+06
1.02318e+06
1.03023e+06
1.01572e+06
955978
834443
666041
544714
551914
597016
79878.1
79172.3
876023
852770
846757
881199
959120
1.03785e+06
1.10646e+06
1.13518e+06
1.10957e+06
1.0209e+06
895037
762550
658791
594366
612858
727208
922967
1.12714e+06
1.25965e+06
1.28775e+06
1.18382e+06
999248
824316
688653
547874
400523
351709
451749
14406.2
44964.8
317985
309081
293754
287596
289906
299697
317567
344979
383209
438893
505991
576812
660718
781741
925382
1.04813e+06
1.09271e+06
1.00998e+06
808671
600883
540460
790173
1.26806e+06
1.72874e+06
2.03311e+06
2.13521e+06
1.97205e+06
1.51872e+06
262879
14221.1
442162
397610
373905
358774
354188
363020
388356
421507
459625
506342
556694
614231
667441
713482
746014
774438
793370
794156
768651
721369
681683
730158
976580
1.47122e+06
2.07014e+06
2.46867e+06
2.50863e+06
2.03095e+06
224265
26006.7
679443
626663
618565
659757
751522
865018
970438
1.04004e+06
1.07743e+06
1.07373e+06
1.045e+06
962096
858042
750625
737002
910451
1.20113e+06
1.44859e+06
1.574e+06
1.59398e+06
1.54058e+06
1.37072e+06
1.05376e+06
785801
672443
613733
529518
445734
14884.5
32657.3
695068
740031
774119
798012
826112
863236
905990
938927
946575
937916
924112
921690
923449
899176
809029
661687
505029
397007
343509
328295
332671
349117
373486
389572
379069
333834
289025
265205
5626.77
52862.1
349599
315081
285923
274060
279495
297188
320048
340164
362046
392637
429099
446633
389557
141559
144030
486413
522282
554908
585898
605610
612388
609106
598107
581561
563553
546123
530192
516763
502311
488228
471418
453055
432740
410979
391798
374562
362414
348840
335972
324957
325556
342521
381484
428531
398041
122369
155626
754359
935608
1.0397e+06
1.06737e+06
1.00998e+06
917235
809278
725837
674629
659716
668321
687170
706027
715917
711965
693963
671563
664830
699748
800866
979430
1.22744e+06
1.4964e+06
1.69044e+06
1.7379e+06
1.63279e+06
1.44407e+06
1.22777e+06
1.01662e+06
752375
286432
314296
971553
952589
947676
954749
958563
961566
969801
978431
989539
992069
982988
954501
917948
876137
833192
793221
761495
748977
754432
783465
825273
865018
894835
910105
910777
893558
857378
796945
737320
564563
172507
197764
591441
636753
762739
1.00178e+06
1.27466e+06
1.45481e+06
1.48779e+06
1.33595e+06
1.10076e+06
862041
694995
624978
604161
598040
597585
611635
652514
719821
803755
885061
943755
966632
944824
876629
775775
670950
585946
526051
482928
406383
170458
211071
844980
960530
906410
807678
681002
590250
592711
693978
832848
948620
1.03309e+06
1.0998e+06
1.13277e+06
1.14113e+06
1.1523e+06
1.18436e+06
1.21361e+06
1.20904e+06
1.17173e+06
1.12186e+06
1.08081e+06
1.06043e+06
1.06385e+06
1.07595e+06
1.06054e+06
991273
857366
682644
510811
333367
149956
167970
705375
804058
859127
920388
957550
966473
958651
945502
935541
937615
949288
952443
939279
915331
898977
893158
897786
897272
894128
879773
854402
815794
763180
698806
626697
570708
553549
586645
662755
558473
155495
151137
441811
496596
536225
612187
689870
754428
841557
970417
1.06214e+06
1.07244e+06
1.01193e+06
897288
760315
644205
606049
668953
782474
885931
944631
957755
959043
969980
970093
938679
853624
723762
623326
618036
676619
569679
151757
176881
1.00453e+06
1.08386e+06
952990
905025
929504
995931
1.05696e+06
1.10394e+06
1.11074e+06
1.06811e+06
961774
826212
679986
554578
470029
466653
583342
799957
1.02947e+06
1.19448e+06
1.24511e+06
1.16275e+06
989448
811926
683181
559705
427429
362021
453459
513841
56607.6
45901.4
405269
429447
372049
326251
304979
299308
303844
320919
350097
391807
450463
522400
598103
678477
777117
889105
988796
1.02701e+06
969621
800974
620518
555232
742589
1.1154e+06
1.48834e+06
1.72544e+06
1.80477e+06
1.73123e+06
1.47562e+06
1.00179e+06
118153
93122.8
548260
515186
435989
394945
369857
360460
364578
386599
422979
466617
521429
582859
652792
715129
759742
781706
790518
780684
748253
683051
591327
524691
573755
844298
1.32981e+06
1.87734e+06
2.30758e+06
2.42092e+06
2.16971e+06
1.38163e+06
100343
142615
937508
850608
712278
655343
648971
692110
766450
843507
896856
922796
902947
851817
759364
642834
521625
569572
854861
1.19316e+06
1.45083e+06
1.57937e+06
1.60619e+06
1.56259e+06
1.42187e+06
1.13435e+06
869311
763857
705218
638504
618311
641518
64293.3
93693.4
684730
768675
816690
832896
839935
856506
889538
923163
933999
908735
872398
857443
891473
963410
1.0135e+06
945878
774035
561314
406810
326389
296753
293825
307275
331902
355173
360410
339172
326812
327642
247425
3683.66
1839.23
56655.1
336887
302399
283005
288297
313954
353605
394790
426920
452109
475986
492264
489672
461711
419570
427926
491409
534211
581175
619974
646017
659288
660638
652917
637979
619793
600796
580848
561241
540814
520021
498397
477535
459314
445260
438845
435734
435272
429938
427071
429281
440498
458098
487546
543461
626858
714754
823698
987227
1.15375e+06
1.26387e+06
1.29326e+06
1.24257e+06
1.15046e+06
1.0452e+06
955717
894263
867248
863783
866839
865592
851220
825190
795138
778812
792640
852033
973392
1.17013e+06
1.43736e+06
1.71179e+06
1.92002e+06
2.01506e+06
1.97704e+06
1.84263e+06
1.66158e+06
1.47397e+06
1.31511e+06
1.24445e+06
1.18592e+06
1.1336e+06
1.11789e+06
1.11821e+06
1.12192e+06
1.12902e+06
1.13811e+06
1.15746e+06
1.18256e+06
1.21035e+06
1.22752e+06
1.22816e+06
1.20754e+06
1.17213e+06
1.12496e+06
1.07143e+06
1.01673e+06
962653
916136
880527
860156
854718
857068
862912
868431
873063
871736
860058
830576
797902
746377
598106
573251
565098
641647
814727
1.0909e+06
1.40508e+06
1.61127e+06
1.65164e+06
1.50411e+06
1.27498e+06
1.04401e+06
870857
784664
757431
757272
772354
810875
872716
948287
1.02035e+06
1.07284e+06
1.09297e+06
1.07305e+06
1.01335e+06
923188
822064
729035
656421
604207
570829
571125
663794
873767
1.09784e+06
1.02391e+06
926198
798959
661632
565966
563267
663060
801655
898954
963412
1.02798e+06
1.07251e+06
1.09282e+06
1.10074e+06
1.12463e+06
1.1702e+06
1.21058e+06
1.22965e+06
1.2299e+06
1.21646e+06
1.19825e+06
1.17556e+06
1.13905e+06
1.06716e+06
947104
797688
647344
536834
502539
572810
728423
874343
882984
912868
940595
951846
940298
916792
892953
881452
887704
908600
922445
916508
892893
871179
867408
879637
896113
906922
909057
900424
880245
845619
797182
734993
671128
628247
633469
684636
687142
571704
561587
573841
589541
628337
687716
739993
780802
845878
959835
1.06602e+06
1.10243e+06
1.07423e+06
1.00019e+06
913864
848956
837257
879325
938482
969122
958650
920346
894792
897775
909597
900528
854884
777045
733570
782878
893290
947195
1.0283e+06
1.1929e+06
1.37763e+06
1.14199e+06
982692
916638
931867
980860
1.02743e+06
1.05988e+06
1.05805e+06
1.02169e+06
934164
822799
692095
578973
498337
486874
576130
751746
955375
1.11616e+06
1.175e+06
1.11006e+06
954677
777491
654237
548429
444511