/*--------------------------------*- C++ -*----------------------------------*\
| =========                 |                                                 |
| \\      /  F ield         | OpenFOAM: The Open Source CFD Toolbox           |
|  \\    /   O peration     | Version:  2.1.1                                 |
|   \\  /    A nd           | Web:      www.OpenFOAM.org                      |
|    \\/     M anipulation  |                                                 |
\*---------------------------------------------------------------------------*/
FoamFile
{
    version     2.0;
    format      ascii;
    class       volScalarField;
    location    "0.003800000";
    object      rhoEu;
}
// * * * * * * * * * * * * * * * * * * * * * * * * * * * * * * * * * * * * * //

dimensions      [1 -1 -2 0 0 0 0];

internalField   nonuniform List<scalar> 
12384
(
807643
780875
771813
765191
776100
791415
805373
813660
821394
778717
577247
82892
-83520.5
-91884.9
-94104.6
25839.4
99211.6
141907
141714
191784
138621
183122
129207
159332
112281
122312
81646.1
66972.6
42983.2
15901.8
12113.9
-5584.82
11132.3
6504.36
41164.2
49896.1
159637
154422
224809
181129
121997
82807.6
91399.5
132866
280794
262100
216159
147700
80851.4
49777.9
29517.6
-5062.69
-2358.39
-28335.3
-30808
-37470.1
-48103.4
-30441.8
-45575.7
-22854.8
54524.7
174391
338104
323511
383078
365885
363427
333110
289942
211447
143572
74247
55816.3
29742.7
-147670
-151716
-158677
-166978
-172258
-174524
-198300
-189585
-215663
-218515
-221710
-230130
-225388
-226209
-223467
-218319
-215470
-213018
-207226
-193255
-177545
-133111
-101305
-123242
-148157
-155648
-153866
-154282
-154842
-155654
107930
94913.3
58874.3
10790.1
-38491.2
-67140.5
-116140
-108233
-118928
-121127
-115700
-111121
-100769
-91105.1
-66502
-51827.9
-32420.5
-10853.6
1369.76
5980.86
4628.18
3417.04
-20517.5
-45474.5
-84808.7
-75358.9
-69366.8
-64370.8
-61132.9
-63174.3
-181501
-191999
-191641
-212947
-208964
-161773
-145778
-160945
-176602
-164917
-146738
-119680
-90492.4
-60705.3
-32762.1
-7796.36
13574.5
45859.7
37039.5
66191.1
37526.8
75667.9
52282.5
104829
130546
208501
203187
115830
53937.7
53371.5
258216
223581
157470
109861
24339.9
-28150.2
-23259.8
-101515
-84016.7
-102617
-84521.4
-101906
-96134.4
-112872
-126053
-140446
-155439
-166701
-178337
-187231
-198244
-214699
-238571
-286463
-355855
-422407
-451635
-452470
-449917
-433593
-40481.8
-70922.3
-110082
-137606
-160796
-169213
-185675
-209545
-159555
-111107
-112563
-156703
-180413
-173146
-187985
-193824
-212963
-202871
-219760
-207918
-214986
-198306
-199973
-178565
-171930
-168398
-134183
-108627
-58790.1
17879.3
-95904.7
-67763.2
-54230.2
-40210.6
-78310.2
-92020.7
-118897
-134076
-159841
-206735
-218978
-250161
-264999
-253989
-274636
-266454
-280346
-287799
-290821
-295935
-295059
-297958
-290671
-276288
-217189
-212580
-194013
-196785
-204919
-255817
-59409.8
-58775.5
-53027.5
-62347.1
-66348.5
-85013.9
-97653.6
-118403
-95962.3
-77464.4
-63288.7
-70794.4
-39466.7
36280.9
84752.1
100776
90951.7
140742
178361
165965
217355
185632
182965
153535
131457
101786
90400.5
110390
127424
147118
-360600
-339655
-315128
-268590
-237288
-194873
-184274
-166104
-153962
-153566
-172313
-171904
-155848
-156502
-130858
-138455
-124505
-119281
-101015
-81405.5
-67582
-81721.2
-57219.6
-54435.3
-49336
-42103.9
-62372.4
-77920.3
-98158.6
-102174
-28043
-89620.7
26183.2
197347
281202
319516
320126
334153
343564
402740
318748
329553
240839
312727
290857
213191
242357
243653
227611
240492
264421
283982
299699
305633
296326
285609
266853
251008
184533
219547
-213552
-197519
-101181
99488.1
186139
266062
371948
367761
432920
417767
462535
479453
568972
609211
653012
603670
451528
339853
258570
271383
332871
296833
389951
405318
418746
416982
380949
328367
309839
278227
734640
657028
601818
589492
632140
694224
770845
830133
827980
795598
694405
381179
9814.63
-87676.5
-67859.9
89780.7
191875
265125
246323
265066
229259
250290
223822
239125
212875
221804
187246
174478
140908
102188
77954
40555.9
39517.7
19606.9
44217
52394
119943
157874
258721
217138
197252
92308.8
110666
126877
164411
115933
81212.5
36473.8
5988.05
-37444
-43162.4
-60240.4
-60868.8
-55152.9
-57576.3
-53818.2
-54838.8
-34330.4
-46114.5
-17866.2
-514.938
89637.1
225915
339845
399803
440142
447215
433794
397447
323529
192380
94995.5
44332.2
32747.5
-186531
-202136
-210130
-211330
-213513
-211288
-223692
-224822
-231622
-246159
-234233
-245247
-237126
-233345
-232179
-221287
-217023
-209346
-199544
-182755
-163074
-122014
-102350
-97402.9
-120560
-144946
-154026
-152284
-151237
-151433
100911
106686
92001.9
59459.3
13545.6
-23018.4
-56616.2
-66643.1
-91360.2
-84426.6
-95268.6
-85269.5
-78058.6
-74408.7
-58860.4
-41656.1
-24602.8
-11256.9
-1063.46
844.669
-1420.98
-6291.05
-17239.4
-36962.4
-70110.6
-75096.2
-72106.5
-67606.2
-66060.5
-63265.8
-183553
-188250
-194564
-183812
-162686
-171001
-209878
-219684
-180236
-136197
-97474.2
-62371.3
-30335.3
-6160.26
19383.5
32996.9
49123.6
54503.5
70873.7
58688
62359.3
50382.5
68226.6
81416.6
137901
187961
215077
158061
84377.4
38833.3
251479
220751
170820
115042
32633.3
-25840
-40996.6
-78193.1
-43225.8
-88964.7
-67523.2
-110493
-111028
-140763
-153531
-171229
-180338
-190778
-196232
-200194
-201488
-207374
-229545
-279637
-339467
-406698
-446909
-437814
-432592
-426006
-47605.7
-87103.3
-113318
-150266
-162983
-181526
-210738
-173016
-102548
-91909.1
-110893
-118990
-133187
-110934
-127150
-109149
-136976
-125085
-139420
-132387
-131222
-113925
-111112
-101766
-102346
-83732.9
-87129.5
-83450.5
-50913.9
-7744.77
-85840.5
-62513.4
-51979.9
-63515.1
-89481.7
-100815
-120446
-146999
-178878
-191722
-200416
-221080
-236156
-209306
-226993
-215211
-222825
-225097
-232812
-240599
-249050
-257073
-249268
-262209
-268697
-285795
-265919
-224129
-182897
-223450
-59142
-55867.5
-60729.7
-62833
-77368.2
-90650.9
-114946
-111719
-99988.7
-68226.9
-59128.6
-42123.7
9518.42
86296.8
100080
94230.6
122829
154550
159419
154179
178484
147276
137635
103381
52987.4
-3210.03
-35832.1
2570.87
92036.7
129711
-358649
-332956
-299632
-253019
-220265
-187177
-176201
-160611
-150623
-152542
-164234
-161479
-154698
-139280
-113818
-100550
-78533.6
-65889.6
-53550.6
-52225.6
-64749.6
-63939.5
-54254
-35538.5
-19991
-37065.7
-47531.9
-83124.2
-97465
-116888
-45697.5
-40132
137359
286474
371901
393070
383318
329458
327795
304441
326203
362249
307295
455683
442368
439211
422209
442430
430353
397544
365721
324880
273177
215404
243123
339065
344315
381035
320589
283563
-179639
-111416
34583.4
184901
270101
334260
356861
416770
412044
452892
450253
480971
503568
547185
554082
478154
414259
327616
278080
281961
320356
298454
393055
366998
431300
381220
441335
389655
329699
339213
560046
492679
472698
481757
491661
514091
587619
699616
805775
825046
770880
576929
209543
-53141
30716.9
198380
291513
309387
257566
260233
188432
207584
169244
203654
192407
228247
230583
244954
237786
201219
164955
96932.7
68407.3
39322.8
40095.6
59982.5
106909
156694
254715
270827
202264
134749
108908
151819
38855.8
22690.9
11696.8
699.509
-26119.7
-56423.9
-67183.5
-100787
-92811.6
-101551
-91970.9
-74891
-68714.2
-45218
-41508.7
-18118.6
-19566.8
43919
154077
285658
397164
423031
454487
455356
451170
374238
265442
98925.1
42900.3
15843.4
-231533
-242890
-243369
-239994
-237856
-236165
-232016
-242045
-232241
-249096
-232985
-246517
-236278
-230784
-220775
-210725
-206955
-195423
-187949
-169173
-156021
-125867
-100710
-86500.6
-98086.1
-128172
-151487
-153836
-145340
-141051
88375.4
104801
90436.3
74266.3
34719.2
27299
-26192.7
-25473
-60169.5
-58775.1
-67646
-69438.7
-61775.6
-56556.9
-40384.8
-28105.2
-14550.5
-1247.95
2289.71
574.626
-5880.85
-11718.2
-27453.3
-39433.6
-65712.7
-76221.6
-78594.2
-72143.8
-76411.4
-76621.6
-182752
-186047
-171437
-152234
-175456
-213325
-217049
-157092
-110586
-76925.5
-50751.3
-26410.4
-5559.26
12607.4
25087
37421.8
42507.1
54743.7
48444.7
42638.9
30232.4
44677
45884.4
79525.3
109082
171927
203934
181452
109980
33315.5
260683
224115
185740
113474
41290.2
-13574.8
415.796
-55333.9
-35239.9
-81971.6
-91478.5
-121671
-140098
-163703
-178106
-189858
-189660
-189555
-189250
-187437
-198261
-215143
-236463
-264924
-314294
-358744
-395859
-424177
-440623
-429066
-77317.1
-97872.5
-127412
-147174
-167287
-197779
-215556
-129032
-71705.2
-69191.2
-89151
-86407.6
-93226.9
-92812.4
-79656.1
-83729.9
-97708.4
-89399.2
-99997.4
-98459.6
-87167.8
-89867.3
-71542
-71790.2
-60494.8
-53002.4
-55382.4
-64848.1
-33685.2
-3767.68
-79505.8
-57383.5
-56746.8
-83201.2
-100252
-113309
-138058
-169253
-169448
-173575
-187729
-202665
-185799
-163700
-174570
-154796
-162348
-161464
-173386
-186467
-203154
-222126
-226058
-231272
-219907
-246153
-277752
-294282
-223839
-161483
-54860.4
-58384.4
-58362.9
-61116
-76617.2
-102532
-111893
-120114
-94861.6
-74799.3
-57097.2
-39737.7
19001.5
82487.9
97199.3
115506
140589
148845
137373
132638
156722
157962
159137
141878
86513.7
9477.74
-52141.8
-57458.4
53945.2
110664
-352102
-326831
-281789
-234816
-208595
-180667
-166502
-153289
-148377
-147313
-153726
-152637
-147716
-133537
-105612
-99264.5
-85473.3
-89215.8
-83687.6
-84844.3
-63867.2
-46058.3
-9024.43
60327.7
99972
110635
57003.1
-27486.1
-107019
-130744
-10345.2
47369.9
219873
360584
426263
439103
366505
326861
382259
490162
492019
604695
373189
526381
465098
483945
472238
475270
489160
465128
461834
450219
438069
408441
358859
352000
220463
347180
416480
405665
-117762
9506.15
148265
247665
302842
314020
298752
265428
285548
257934
314477
339011
381255
424629
447860
401169
332317
255020
250870
215172
259729
244860
325621
305693
361333
281959
239014
307227
370168
336059
509742
484831
488912
490996
499993
511155
525762
589513
713983
819399
813859
709784
390678
-8669.82
234868
329091
340967
290619
223714
174478
111060
117265
96580.3
129820
150336
185870
224634
259183
280341
268246
221873
153300
86333.5
56141.4
43158.1
66917.1
99071.7
189724
260534
282392
212259
129690
130576
163775
-59120.7
-34247.6
-27211.1
-27405.8
-24997.5
-33853.8
-69630.3
-76806.2
-101486
-95567.1
-93863.2
-84450.8
-74629.7
-41689.6
-44631
-16091.1
-16566
28852.1
141180
276202
349167
408765
402902
418995
391971
366931
250458
110982
29010
22821
-260672
-256926
-247269
-240488
-232406
-233073
-219503
-233083
-217896
-234165
-228701
-226156
-224881
-212570
-208041
-197550
-188849
-180483
-166987
-157831
-142551
-124085
-100948
-81585.6
-90066.2
-115444
-145827
-152971
-142400
-136783
69254.5
60835.9
65792.4
55650.7
60198
32137
15728.3
-2420.41
-35804
-36968.4
-42076.7
-42554.3
-40177.7
-32150.5
-22390.4
-8065.85
4185.02
13591.3
8793.84
-2138.64
-18982.1
-36312.5
-45853.6
-53171
-68335.5
-75602.6
-78629.9
-77428
-86510.1
-91793.6
-179252
-167644
-141391
-157463
-204741
-218787
-171083
-118061
-85111.8
-62043
-42172.8
-26618.5
-9975.14
-5006.19
4352.28
19717.1
25903.3
24723.1
14833
18054.8
15087
2606.42
25836.4
51728.1
109441
160799
198784
166683
112592
29322.9
236644
219615
182043
97648.8
45258
15372.8
-3076.68
-40920.9
-40422
-68263.6
-95947.8
-129198
-154714
-173818
-182035
-181495
-172975
-168914
-173767
-178491
-190834
-216202
-246061
-287844
-315968
-343169
-393321
-413855
-421240
-415805
-88157.6
-108666
-129070
-163738
-180270
-217868
-204343
-107301
-52985.2
-50862.7
-62260.4
-69091.6
-88296.3
-78003.5
-75843.8
-84476.6
-78515.7
-81570.7
-84700.1
-67997.6
-80040.5
-70839.6
-60387.8
-58799.2
-53093.9
-41456.1
-50962.2
-35412.7
-35210.6
18625.3
-77017.2
-52914.8
-68925.9
-81757.8
-115937
-133093
-159930
-160911
-155130
-160947
-168580
-161631
-152172
-134970
-145806
-127647
-133377
-129229
-138854
-144979
-162277
-182901
-201253
-212345
-202440
-201210
-229438
-258199
-277524
-160521
-62089.7
-65790.6
-67861.5
-76047.8
-95711.5
-102291
-119982
-115721
-109525
-78555.7
-62116.1
-42540.6
-428.293
56856.5
93014.4
135155
137297
122824
113943
120837
126945
145104
159554
156788
120834
48485.2
-21194.7
-37802.1
62825.5
107986
-350258
-320170
-274499
-227204
-194904
-170509
-154211
-144366
-140689
-141402
-142324
-144792
-145698
-140564
-139708
-136815
-144094
-144479
-95442.6
-46953
-6656.39
53954.7
111181
175853
223757
197523
101983
-22411.2
-87829.8
-169005
34637.8
109582
286860
408387
445367
408237
412224
466405
494337
609491
495846
589492
356360
520592
413824
421720
451365
441280
458403
435586
447146
451705
450345
445033
432760
423570
388480
330874
377699
443463
-22021.3
108422
214650
255994
239004
230890
250521
287765
287934
333079
340776
396310
409857
460006
448102
427237
350719
348667
308961
327972
318786
355017
342274
379992
385848
400586
342413
188728
240614
339018
524700
501288
504358
516088
508555
520074
535185
568002
659966
770728
820983
779494
518594
31521.7
365470
364224
306913
247006
161777
110773
77607.1
73647.5
73296.7
109079
127449
185631
231519
284306
294090
285458
242299
158305
83521.8
55006
47929.5
85538.6
128436
251308
270302
269378
186947
112260
131049
174848
-45611.3
-51265.1
-47913.2
-59443.6
-47173.5
-51672.1
-50823.1
-84039.2
-84396.7
-88356.5
-87619.4
-71097.4
-59453
-36011.6
-28750.2
-4029.95
-954.034
60145.3
180176
292717
333094
313771
283181
229833
207350
209554
177473
81931.4
26170.1
3621.27
-268783
-248366
-230462
-220113
-213369
-211516
-202275
-212515
-204999
-211998
-217603
-202605
-208295
-195207
-192556
-182173
-180544
-163738
-161364
-143269
-137504
-119059
-105324
-84871.6
-84671.7
-114377
-143335
-152884
-143888
-132726
14967.7
19989.4
38753.4
68704.9
45530.3
53899.7
30111.1
17289.6
-13389
-8265.7
-24305.1
-17702.7
-12583.4
-5976.86
4971.99
12600.4
23197.6
18317.4
2109.54
-21237.1
-49313.7
-65855.7
-68584.4
-66457.2
-72785.9
-75047.2
-81581.2
-84721.5
-100706
-107513
-174658
-144744
-138018
-184484
-221928
-200628
-144727
-107904
-82131.3
-57151
-45815.8
-37508.6
-28267.8
-32257.3
-21358.4
715.788
9810.34
1641.52
-8090.75
-8532.61
-22295.1
-2698.41
7053.82
33376.9
110479
159782
189549
165591
97125.7
23898.3
211487
201075
147630
71164.6
54885.5
-3652.34
1287.14
-38416.7
-26092.8
-62444.8
-91666.3
-128098
-154538
-164398
-168565
-159620
-145630
-143214
-147055
-162020
-186819
-223666
-266750
-297565
-312239
-332116
-365004
-396144
-416392
-416184
-136538
-138802
-159503
-164805
-184360
-233608
-198176
-107964
-49071.9
-43985.7
-56214.7
-79588.3
-87327.8
-78904.7
-89066.3
-77963.6
-78949.7
-76171
-59216.7
-66651
-54868.1
-39369.3
-37844.6
-16603
-16028.4
-42039.9
-20315.9
-26225.2
-14069
7878.16
-61791.4
-55783.9
-64961.2
-89903.3
-122883
-166764
-160653
-144900
-143496
-154356
-139650
-131841
-137130
-122554
-134261
-124273
-131698
-127895
-130403
-132551
-140522
-155130
-176009
-195118
-194319
-187280
-191887
-210391
-246592
-193861
-63379.9
-61408.8
-67670.3
-81163.4
-84082.5
-108045
-120162
-128260
-108990
-83372.5
-66593.7
-54426.8
-23356.1
29603.2
92899.1
134725
126890
99610.7
79194.6
80123.8
87651.7
100837
136632
153125
144120
92044.5
29339.2
27280.7
78476.7
117601
-332090
-306711
-259042
-216058
-182357
-162922
-147767
-135975
-145396
-140690
-141338
-156762
-154380
-159643
-152992
-135850
-126241
-100288
-51198.8
-18717
29628.3
64152.9
130354
238007
279859
251959
117838
-59385.7
-164950
-146261
87138.8
181862
337203
414154
409240
438225
482809
556228
500854
540748
514052
490009
351291
449909
374203
377099
402796
389180
427147
413957
423961
431939
435230
440888
452786
441066
410684
379370
327324
467455
102700
210583
264167
242373
242324
297903
311813
313073
347088
327895
366686
354251
428156
434046
434594
394532
406069
342471
349653
318526
352905
320785
371906
339407
360068
327687
330394
284742
151896
309202
559420
548335
556646
548532
498076
480316
499711
546984
619840
719178
797121
803304
628831
95977.1
367427
309881
273155
197766
140958
99470.5
78200.2
62050.6
100921
115001
168696
202031
247976
276449
282505
254405
185665
106433
54325.2
55715.1
66653.1
144591
198679
271003
274010
185191
120585
81338.6
128611
162638
-64063.1
-59118.8
-63694.6
-44631.8
-80093.2
-74264.9
-81961.3
-66812.6
-81875.1
-79549.2
-54389.6
-11056.3
-1282.53
21579.8
6439.65
16931.2
52557.4
139228
248894
292885
271217
148623
11450.1
1774.86
-5074.99
18154.8
39026.3
30336.1
6392.97
17766.5
-259389
-228539
-209378
-200374
-196404
-188833
-185439
-180017
-190726
-178004
-203269
-182795
-195640
-187945
-183940
-175959
-174191
-165900
-153619
-148302
-133364
-118667
-105392
-92480.7
-90118.6
-112717
-145382
-150424
-137964
-119129
18840.8
22841.6
41193.4
40363.3
65467.8
51678.4
41243.7
27881.6
15978.3
-929.608
-427.038
5004.03
9310.42
25779.2
32214.3
46236.5
37069.1
13385.7
-29921.8
-52325.3
-76169.2
-81846.2
-77640.6
-73888.7
-73240
-77040.7
-86626.6
-106363
-123816
-132934
-174164
-120559
-136664
-200880
-221572
-181204
-138535
-112338
-86133.5
-66921.2
-57706.3
-64777.4
-55542.5
-59669.1
-46796.5
-9157.26
-7658.76
-9560.81
-9322.87
-28208.5
-20890.5
-10222.7
18196.1
34976.9
104006
158925
147062
111168
76140.5
14968.2
170973
126404
91066.4
64969.7
1352.83
-7447.46
-26173.6
-23314.8
-38666.9
-47877
-82948.6
-117405
-138311
-142021
-146190
-132985
-120655
-123330
-134085
-148630
-174022
-214787
-269426
-312701
-348050
-369820
-387699
-397041
-406651
-394756
-134805
-148424
-168530
-191690
-195880
-246490
-214354
-130577
-57806.2
-54018.7
-73983.6
-88158.3
-81607.2
-99884.7
-89420.3
-95352.2
-86282.1
-60023.8
-62040.5
-48392.8
-41234.5
-26053.5
-30650.3
-33769.1
-28285.4
-13296.3
-17209.2
-999.091
-29354.3
16147.2
-71166.7
-47157.3
-62837.3
-84993.8
-143406
-191287
-155868
-135285
-130324
-133313
-120967
-132514
-130394
-123108
-155335
-144594
-145066
-140290
-138063
-132664
-134901
-140642
-159646
-181278
-189215
-192587
-194906
-190601
-216172
-249742
-90915.3
-96949.4
-102204
-104333
-120392
-127343
-123560
-116528
-106754
-92200.8
-68464
-55452.6
-42775.2
-4266.58
78241.9
126000
114915
83196.8
57482.5
44979.6
54733
52159
114383
139306
153039
135730
52812.6
49497.2
105964
108770
-325005
-293627
-255031
-212481
-172767
-154928
-141583
-139921
-137706
-133558
-133473
-134999
-132189
-126929
-122347
-114209
-107694
-84362.6
-50326.1
-4253.69
16060.9
40528.9
136454
247121
331279
305577
178886
-18400.8
-194679
-204206
132351
222986
351900
389747
432969
464307
505587
479224
480271
433842
454313
372440
345214
325525
300158
317516
358849
323675
366130
374679
398310
408757
430482
448827
439806
423549
417490
388680
350005
399441
152518
275442
251220
234058
311535
328107
324775
342472
325700
343151
334058
368008
335580
359706
370192
428027
397384
392659
353343
347346
322650
351817
327938
366154
326818
341327
299973
269570
164454
274785
581781
561979
570148
509898
412680
367038
397841
456241
532030
626713
733180
792142
664214
191486
297281
268693
224004
160109
147948
93120.2
91912.9
66901.9
80934.5
117334
149976
184401
225110
226228
196994
138826
83438.8
59567.4
59479.9
89851
159603
209987
211569
208822
92275.1
60320.6
32986.4
74132.3
102897
138455
-32073
-46489
-41778.2
-67028.6
-69494.8
-83183.5
-95811.2
-91877.7
-75648.8
-43092.1
43008.2
86193
81903.3
80989.4
43495.8
73540.4
138732
237426
283233
234357
52009.8
-28918.9
-42292.2
-60126.6
-48705
-44307.1
-42403.9
-10224.1
-3120.46
-574.022
-225605
-200119
-186244
-185350
-174441
-164658
-149313
-149605
-157455
-151184
-177693
-181676
-175225
-185538
-182917
-181774
-169053
-163755
-162421
-142672
-144031
-122009
-114709
-103052
-105268
-117827
-149600
-144645
-124041
-118451
712.019
20207.1
33618.6
47270.6
65242.6
81177.2
58188.5
48780.1
12497
-4400.09
20065.7
10765.5
34067.3
52503.3
66152.8
68815.1
30660.9
-16681.5
-51340.1
-80762.5
-82027.6
-81274
-77930.1
-75009.3
-79792.2
-90056.2
-116427
-138949
-152685
-155661
-167750
-128684
-170715
-211865
-207294
-173893
-143384
-112968
-95025.8
-78975.5
-71759.4
-81665.2
-79154.4
-78208
-64978.8
-32592
-9224.74
-1069.86
-19162.9
-22371.9
-10287.7
-1478.92
32294.9
45481.6
87164.8
133195
114811
96108.2
55355.9
2139.18
152313
111307
71694
-1757.26
-15555.2
-44686.1
-39242.1
-41287
-32539.2
-43994.1
-63955
-91931.6
-107209
-120369
-125953
-114007
-102947
-108267
-118163
-131259
-150526
-180424
-215670
-266216
-316019
-347370
-370331
-383592
-389319
-388207
-171368
-173387
-185367
-188266
-203625
-236120
-225533
-165205
-85169.2
-77934.9
-83898.4
-86785.9
-109194
-102705
-114772
-106815
-85687.1
-80727.6
-56158.9
-23140.1
11209.9
-5788.11
44427.3
62628.4
43805.8
27834.4
30829.2
2951.46
3104.42
-8978.67
-55410.6
-61147.5
-60931.9
-97409.3
-157179
-192258
-154726
-128758
-123648
-129438
-112012
-132869
-128035
-130898
-174555
-167618
-161065
-158826
-151366
-141530
-134981
-134464
-147427
-169826
-186405
-203554
-198636
-194373
-205555
-245639
-100400
-97739
-100211
-115125
-114103
-117319
-121382
-120397
-93402.2
-87965.1
-67047.9
-51430.3
-43901.7
-38177.8
48393.7
104468
105581
73626.5
46080.8
27972.1
8377.18
42642.1
78842.8
109659
166209
163339
76407.6
40406.9
138316
164122
-302863
-280041
-239103
-201961
-169635
-151736
-142620
-153239
-149291
-141695
-137040
-129484
-118834
-109384
-107421
-100706
-104972
-84049
-48635.1
-29729.3
-15885.1
44395.1
139910
288051
353624
375495
245808
58339.3
-132520
-258033
183518
234333
326683
362220
435357
469152
458058
421952
380125
390546
314632
334519
245957
286518
228872
222954
325075
284710
325553
325678
362519
390450
415766
414831
405837
405143
383336
365195
350283
311000
187633
286186
243760
289982
360964
340039
338623
325571
340104
300657
298078
271184
332980
324784
384925
380731
416546
399691
387504
343421
336881
319897
348850
319903
324947
265698
275009
233144
165989
297519
594351
555958
540889
395766
284434
269022
297588
335939
400789
484519
624630
745691
644507
269195
240601
216509
158594
124087
123171
95923.3
102109
69348.5
70928.4
58386.6
79702.2
94570.5
91220.4
91897.1
74400.1
65358.1
69018.8
91712.2
134976
171793
168430
130259
28426.5
8448.24
-11951.7
12533.4
51114.1
49007.3
90649.7
93553.7
1423.18
-14768.4
-39937.2
-51002.8
-94873.4
-84732.1
-85087.4
-83209
-35792.9
34825.8
125698
117843
126079
105133
101426
161986
235121
270445
206527
46897.8
6117.05
5256.93
-8485.49
-29997.2
-45679.8
-45352.8
-61715.2
-39435.8
-298.88
9293.56
-178027
-165560
-171575
-159371
-150757
-134808
-134576
-127309
-148914
-150149
-163243
-188944
-181841
-190425
-190011
-176453
-187605
-178246
-173733
-156177
-150344
-136718
-128869
-116992
-123524
-142146
-147253
-129961
-118399
-92993.6
2734.47
23103.4
40209
61777.4
95313
115824
90118.3
64180
51447
442.236
14846.8
33059.8
50409.5
86866
91849.3
57211.6
3214.76
-44687.8
-82469.3
-86846.7
-88880.9
-85584
-82933.8
-88063.2
-107261
-133335
-163534
-178491
-183011
-184115
-149718
-143129
-191843
-222440
-207129
-165667
-131722
-103601
-100439
-103603
-101984
-113907
-118871
-106856
-93961.1
-54181.6
-9429.08
-12385
-14837.6
-12323.6
-15934.9
3216.53
29146.9
50867.4
70773.5
103412
88910
62088.3
12985.5
-9874.91
46052.5
45669.2
236.712
-27891.2
-57775
-56935.1
-67518.5
-52519.4
-41997.3
-36951.3
-41095.4
-60373.7
-80268.7
-100020
-111806
-106969
-97719.5
-102917
-112521
-124294
-137330
-154131
-175237
-205086
-244666
-288958
-333145
-355793
-372236
-369312
-156923
-186210
-196495
-200987
-203394
-241867
-255049
-197355
-126707
-101283
-85713.3
-110993
-101859
-125865
-125749
-115774
-123084
-96652.4
-47540
9810.25
17259.4
95059.4
63904.8
50838.5
58206.5
43941.7
38379.8
24132.4
7156.38
28970
-62846.3
-59497.1
-77677.5
-104241
-172422
-179711
-149779
-114074
-89750.3
-111900
-104495
-102627
-144342
-145408
-157386
-175453
-183070
-171312
-165800
-152885
-140299
-135432
-137070
-159521
-188792
-209179
-184794
-205926
-194042
-230906
-160589
-143786
-136719
-138748
-145979
-142844
-131810
-120753
-92617.5
-86709.9
-61616.4
-48577.5
-39721.9
-50705.7
10770.1
70977.3
95334.7
67529.1
43129.1
20210.7
7364.73
35736.9
40669.4
87367.3
142481
192314
130225
-1554.33
7187.09
114529
-284288
-259600
-225143
-197492
-175157
-164437
-158821
-178224
-173091
-155829
-142113
-130329
-117476
-106781
-101960
-100331
-97718
-80784.7
-67222.5
-52852.6
-14996.9
36286.3
150485
218824
352485
307545
237138
162895
-8146.49
-178910
251203
246997
297550
345067
429882
429285
403652
359737
312783
293371
267472
229543
220539
194105
181464
212928
269389
296048
299083
301346
339349
375609
399773
405313
399455
353104
313148
288752
319416
264029
155345
262290
252283
337957
366262
339484
361806
309697
300139
288588
255742
280590
264214
322486
354903
404321
395710
408643
396404
373278
328659
331180
315485
340553
295460
264348
209849
206011
177536
193256
584387
521462
462687
296509
238587
252445
273152
276263
320961
435257
584893
614953
438974
305827
318580
273445
201900
120449
74019.1
38416.9
57614.7
66471.8
98510.2
91221.7
97657.2
82158.9
73322.4
72715.7
85452.1
76650.8
92588.7
107238
131069
144504
132606
68587.3
1306.81
-59965.9
-45898.5
-18474.7
17090.8
32430.9
46668.8
84303.9
76401.3
84357
23263.2
59025.8
4341.59
18991.8
-34385.5
-56634.7
-80450.1
-85770.3
-83207
-25806.1
20143.6
98561.7
138122
125099
147326
143861
187878
239736
273127
225159
91761.7
40709.7
39575.5
31538.3
4763.17
-7677.05
-16955.3
-20464.8
-30976.4
-34129.3
-29067
-38613.8
-166176
-163639
-144349
-148539
-145033
-142492
-134012
-133475
-128148
-130939
-136625
-155668
-151389
-182976
-181399
-184404
-187846
-198393
-185677
-182974
-173628
-174422
-156869
-154233
-148264
-138163
-156898
-150956
-131587
-124981
-89283.7
-51477.1
-25786.2
-11961.3
-5551.01
21045.2
42580
75092.8
120543
149426
116086
99035.5
55237.7
30745.4
21868
70016.4
85487.6
107699
80199.5
23559.1
-29079.5
-78966.4
-94357
-100607
-98895.5
-103296
-115706
-134157
-163944
-194012
-211229
-209551
-206108
-200232
-204771
-187558
-171907
-153274
-199093
-221493
-211098
-165863
-102207
-68491.9
-79536.6
-100922
-102336
-118064
-136733
-125339
-110265
-76105.2
-45377.6
-16882
-5313.49
-9901.95
3179.86
15037
44346.4
81558.5
71661.8
64911.1
48409.6
2289.3
-42463.1
-74117.6
-32217.6
-64236.3
71115
4706.95
-23966
-56745.6
-60521.9
-81005.8
-73561.2
-70650.5
-54296.5
-34239.2
-29611.4
-36422.7
-58603.6
-81503.4
-100108
-113323
-99812.1
-94096.5
-104535
-111768
-122309
-132274
-143388
-154869
-174512
-202300
-252781
-303720
-347273
-365163
-280940
-196183
-202412
-180914
-194417
-197827
-199108
-219848
-246219
-237313
-178500
-137829
-115888
-109379
-125577
-130263
-133089
-144270
-145999
-106747
-43599.3
2103.99
117177
141081
146342
152820
125027
123383
104122
85007.5
91927.8
75911.8
31337.7
10080.6
37779.1
-5404.49
-25049.3
-67399
-168449
-175074
-132126
-126919
-107164
-82513.7
-99315
-112898
-107964
-157021
-173985
-167555
-175042
-184234
-180386
-166325
-148680
-138869
-133179
-149928
-185228
-212596
-189578
-195440
-198058
-210977
-217143
-197196
-206331
-172230
-129608
-127561
-136900
-146532
-132489
-124551
-87181
-86909.8
-59563.5
-54467.7
-32914.4
-43199
-20843
31093.2
57701.7
64551.2
38593.5
32056.9
19863
12128.1
22017.3
55197.7
101055
166678
193433
64246.4
-129363
-150864
-172141
-243291
-242460
-238814
-214688
-198779
-184628
-184457
-181172
-194378
-208366
-176153
-146401
-128039
-115019
-106746
-99508.6
-97552.9
-97750.6
-87769.7
-86195.3
-51985.2
-34292.8
68933.1
113916
251156
314245
390170
411535
285778
124413
-13351.3
-122653
-64985.6
235927
216788
251730
270554
368652
385673
349922
317258
269639
213405
215025
193059
178200
162349
175110
230731
244489
307321
286595
309928
316310
371245
398197
406426
358338
268093
199178
182472
211079
219763
264656
284174
103464
224465
283628
367670
355143
340834
328067
278183
283933
243029
235656
189005
239090
302649
387168
412461
423823
398336
394506
382771
347809
323939
315871
314845
318761
241148
182060
173186
163134
244598
258524
334844
574322
488439
366421
242326
231174
260247
273266
277246
337234
435374
498026
430633
317058
278441
252631
193866
113839
23960.6
-34726.7
-59157.1
-56163.3
-40099.2
2007.07
42809.8
84928.6
95596.7
104172
104541
103236
118466
114984
118873
98358.8
44695.5
-26717.8
-69378.8
-69013.8
-56475.7
-34417.6
3532.08
16302.5
38271.5
43906.5
50619.4
66990.7
43028.2
71446.7
47301.6
51865.2
15209.1
-26978.2
-37961.1
-69837.8
-54805.3
-42335
29934.8
61949.1
135010
126449
167647
192033
215201
262931
271392
226268
133010
49207.5
50183.6
65923.6
58754.2
39871.5
20640.9
-2774.77
-11980.1
-26028.3
-48838.6
-64702.1
-90463.8
-139538
-133964
-140410
-144478
-139218
-136341
-135486
-134565
-139831
-141573
-145003
-152548
-160916
-177792
-179653
-183594
-183805
-181764
-187022
-184765
-188028
-176278
-178815
-180490
-171601
-173838
-155462
-138757
-126768
-102847
-65100.5
-50217.5
-34082.4
-24642.5
772.102
25129.2
39655.2
84405.4
135987
162042
137987
118659
87727.9
66489.1
62802.4
102664
110172
92277.7
39975.1
-15236.8
-73709.1
-108518
-128756
-131822
-135615
-146388
-166075
-190943
-208527
-220708
-220888
-211126
-196616
-183030
-181644
-178560
-170886
-196908
-226618
-218526
-191112
-144395
-74711.3
-44070.8
-65895.6
-105670
-132527
-142101
-160772
-161678
-134187
-107291
-74647.6
-41320.4
-20719.2
-2732.94
3900.13
32725.1
42924
55077.6
63791.4
14387
-20903.6
-41944.6
-42361
-10576.6
-14758.1
-10273.9
-2618.14
-32673.5
-65591.5
-66421.2
-83096.4
-77119.9
-79040
-60884.2
-49743.8
-35932.5
-23388.3
-30052.8
-40799.2
-62288.7
-84528
-103125
-107410
-98510.4
-100556
-108003
-115258
-124065
-134488
-140549
-151973
-160885
-185858
-235737
-302101
-342153
-288592
-207945
-194259
-173033
-185253
-196082
-193221
-206572
-238740
-238627
-208743
-186419
-153538
-147941
-145949
-148244
-149677
-172982
-143128
-108870
-78847.5
68323.5
134019
138591
159166
158665
155435
141445
162409
154214
124846
98250.4
32394.2
11962.7
15029.3
-5978.69
-40915.3
-75796.4
-137950
-166089
-140526
-88806.9
-96169.2
-84229.8
-72967.8
-107378
-128347
-123259
-166437
-179614
-177757
-177624
-185626
-177900
-159972
-146472
-132746
-141494
-174516
-212092
-194714
-188615
-216244
-199508
-191435
-194444
-195320
-150342
-144108
-153425
-160956
-161724
-143406
-131940
-103685
-84147.1
-55234.7
-49191.8
-44648.4
-31583.9
-22559.3
-4649.99
15869.8
28279
34483
17630.8
2631.75
-14904
1315.34
23067.7
64264.2
106761
155515
152061
4955.03
-162684
-208590
-219912
-217615
-224750
-220151
-219379
-228542
-226189
-213928
-214485
-211539
-220230
-179963
-135101
-110015