/*--------------------------------*- C++ -*----------------------------------*\
| =========                 |                                                 |
| \\      /  F ield         | OpenFOAM: The Open Source CFD Toolbox           |
|  \\    /   O peration     | Version:  2.1.1                                 |
|   \\  /    A nd           | Web:      www.OpenFOAM.org                      |
|    \\/     M anipulation  |                                                 |
\*---------------------------------------------------------------------------*/
FoamFile
{
    version     2.0;
    format      ascii;
    class       volScalarField;
    location    "0.003800000";
    object      sL;
}
// * * * * * * * * * * * * * * * * * * * * * * * * * * * * * * * * * * * * * //

dimensions      [0 1 -1 0 0 0 0];

internalField   nonuniform List<scalar> 
12384
(
18.9293
21.3127
22.3051
22.3559
22.344
21.79
20.1526
16.8712
12.8996
9.13553
5.87271
2.12171
1.39522
1.40204
0.850511
1.74656
2.7889
3.53661
3.85571
4.59004
3.95796
4.59657
3.74091
4.24892
3.45769
3.65839
2.98853
2.7528
2.31374
1.91832
1.81879
1.62653
1.77041
1.74818
2.04966
2.17094
3.05833
2.90206
2.92407
2.38965
1.83568
1.77264
2.5504
3.68053
5.04024
4.7236
4.18769
3.42153
2.76737
2.42729
2.23671
1.87401
1.88204
1.61338
1.58677
1.51448
1.41768
1.58069
1.44765
1.69123
2.47944
4.53938
7.78183
8.12094
9.13559
8.92593
8.82959
8.25251
7.30528
5.80176
4.43303
3.02157
2.24573
1.85619
1.21798
1.23589
1.26145
1.29068
1.31047
1.32154
1.33981
1.33501
1.35763
1.38199
1.35581
1.41024
1.37791
1.42243
1.39723
1.38494
1.39912
1.37289
1.37963
1.35038
1.35146
1.3425
1.3115
1.23028
1.12478
1.18381
1.21824
1.11342
1.03928
0.996904
3.53595
3.52047
3.23249
2.6946
2.08201
1.70022
1.28382
1.28477
1.27991
1.28302
1.27344
1.26297
1.24908
1.23623
1.32995
1.49457
1.78255
1.97781
2.09844
2.08766
2.03696
2.02998
1.83872
1.69306
1.45085
1.68614
1.64599
1.55801
1.46955
1.43075
0.847768
0.912665
1.03396
1.13894
1.24941
1.3733
1.46244
1.49616
1.50399
1.4942
1.48247
1.46903
1.65546
1.79033
1.86571
1.83941
1.78924
1.98746
1.52254
1.89349
1.50038
2.3069
2.09523
3.75901
4.65078
6.42796
6.62094
4.85331
2.55568
2.00842
4.65766
3.98646
3.95753
4.21149
3.03543
1.74414
1.51109
1.00245
1.35417
1.25685
1.64788
1.50974
1.67939
1.51013
1.48579
1.49037
1.48166
1.4733
1.46141
1.45081
1.44281
1.43438
1.41392
1.37621
1.29363
1.15512
0.892981
0.616893
0.526419
0.585908
1.27682
1.17087
0.99456
0.904766
0.926681
0.866337
0.78083
1.05606
1.55844
1.65274
1.64205
1.62061
1.6318
1.62451
1.64866
1.64353
1.6835
1.66387
1.67593
1.65663
1.64838
1.62419
1.62536
1.60744
1.62232
1.62417
1.59966
1.71084
2.41001
1.9801
0.700594
0.807929
0.844539
0.969361
0.859144
0.815215
0.678509
0.715094
0.943302
1.12719
1.40257
1.46119
1.61175
1.63165
1.66734
1.66529
1.66278
1.65801
1.64693
1.63757
1.60856
1.53997
1.27021
1.05196
0.727871
0.663248
0.610028
0.602735
0.666283
0.90335
1.05371
1.03179
1.14327
1.17651
1.23126
1.07267
0.901307
0.626784
0.623117
0.683729
0.788574
0.777799
0.855929
1.23734
1.44987
1.67088
1.76724
2.25222
2.44775
1.77619
2.79897
3.16976
4.02144
4.50192
4.84928
4.56191
4.20332
4.42547
4.79267
3.58929
0.49216
0.498167
0.521128
0.576972
0.650239
0.686172
0.680528
0.630936
0.579818
0.554862
0.548413
0.532904
0.528105
0.533874
0.54792
0.557322
0.589165
0.639792
0.724809
0.761212
0.795216
0.559543
0.627207
0.603088
0.667888
0.745994
0.716475
0.668692
0.622837
0.71134
0.823976
0.760057
1.21377
1.76271
1.94866
1.92094
1.81114
1.72461
1.68057
1.70224
1.50712
1.51525
0.914409
1.22015
1.54219
1.29592
2.04261
2.27886
2.31869
2.37363
2.31983
2.13703
1.93217
1.78183
1.67914
1.63393
1.64256
1.72876
1.66375
2.0069
0.425437
0.457586
0.711923
1.2683
1.39836
1.5417
1.75691
1.67155
1.7848
1.71046
1.81908
1.84869
2.01389
2.08626
2.18936
2.04435
1.74989
1.50265
1.33053
1.33978
1.50146
1.39672
1.62454
1.61255
1.70351
1.77222
1.76318
1.91857
2.09682
2.21674
23.6965
20.9188
18.881
18.3148
19.675
21.8427
24.2727
26.0872
25.4314
19.6137
10.802
4.7973
1.76258
1.34098
0.973591
2.44497
4.25657
5.64846
5.79584
5.90395
5.6049
5.79446
5.62215
5.92902
5.8248
6.08936
5.58142
5.29842
4.51396
3.65921
2.99781
2.31888
2.13568
1.88131
2.09871
2.18757
2.80293
3.18244
3.65988
2.97176
2.33962
1.7939
2.508
3.59812
3.72538
3.0572
2.62443
2.17044
1.89504
1.51742
1.44672
1.31776
1.28057
1.33641
1.30137
1.32558
1.31897
1.48263
1.39904
1.6642
1.85339
2.96579
5.17831
7.83302
9.60367
10.8848
11.4194
11.3842
10.7092
8.51245
5.52388
3.30406
2.16328
1.87953
1.24385
1.32932
1.3658
1.37351
1.36991
1.35086
1.33737
1.31432
1.28675
1.29163
1.25795
1.26594
1.25492
1.25316
1.25562
1.25643
1.26549
1.26309
1.28327
1.29652
1.32172
1.33525
1.33765
1.28384
1.19226
1.14568
1.19104
1.21709
1.17577
1.06265
3.72443
4.1853
4.10731
3.71829
3.09819
2.49691
1.95219
1.71032
1.397
1.35289
1.32877
1.28544
1.23824
1.19937
1.3584
1.52745
1.69288
1.76632
1.78251
1.70931
1.63176
1.59051
1.5647
1.5178
1.41854
1.59815
1.70786
1.69546
1.5386
1.43713
0.876939
0.975556
1.12599
1.27729
1.41999
1.5057
1.52756
1.51487
1.47762
1.44699
1.66962
1.98626
2.2042
2.28937
2.39284
2.34352
2.32488
2.19644
2.17385
2.02618
2.01976
1.88334
2.57487
3.08337
4.3362
5.53579
6.43418
5.694
4.11748
2.33541
5.95476
4.8909
4.51961
4.14177
2.79288
1.85456
1.91357
1.81971
2.35279
1.76573
2.10607
1.59297
1.59693
1.56995
1.53997
1.49515
1.44093
1.37026
1.32908
1.31634
1.35016
1.41732
1.4727
1.49621
1.47866
1.36431
1.0487
0.685809
0.530461
0.573151
1.25747
1.1358
1.0318
0.970835
0.89936
0.79178
0.965548
1.49295
1.78918
1.93528
1.615
1.61431
1.63668
1.6345
1.65247
1.66018
1.6884
1.67915
1.67462
1.65286
1.61694
1.55243
1.49157
1.4437
1.48701
1.76914
1.92394
2.05874
2.52487
1.9812
0.7324
0.816659
0.87579
0.888877
0.785809
0.727707
0.688287
0.872044
1.2269
1.48348
1.59605
1.60201
1.66184
1.62264
1.64657
1.62697
1.6238
1.6055
1.58923
1.57495
1.56112
1.55793
1.56276
1.61911
1.64079
1.4596
1.0235
0.654192
0.508931
0.732945
1.03833
1.04332
1.11039
1.19081
1.08953
0.941027
0.675223
0.579794
0.551095
0.6548
0.710891
0.768812
0.948591
1.37526
1.70339
1.95605
2.33666
2.41051
1.93756
1.62916
2.32979
2.50602
3.05579
3.17633
2.9349
2.44052
2.10927
2.90159
4.22276
3.44516
0.4904
0.500928
0.542276
0.603231
0.659411
0.67049
0.656996
0.620349
0.589221
0.577162
0.538567
0.509755
0.473515
0.443254
0.446674
0.465618
0.500926
0.518904
0.532757
0.526877
0.500373
0.481058
0.562175
0.809064
1.06761
1.13512
1.16585
0.887558
0.580868
0.355669
0.787834
0.900568
1.51858
2.01574
2.25281
2.28455
2.36252
2.32671
2.79945
3.3641
3.83349
4.26864
2.53399
3.97615
4.5918
4.65862
5.07936
5.86693
6.2364
6.4126
6.55019
6.44394
5.8987
4.64728
3.54052
2.83657
1.77791
1.39662
1.18984
1.27042
0.470126
0.656238
1.09047
1.54442
1.72838
1.85911
1.91346
2.12415
2.1768
2.51844
2.62556
2.86583
3.21137
3.51541
4.01355
3.78832
3.32267
2.75241
2.42961
2.4454
2.51937
2.40681
2.60126
2.85601
2.62858
2.1953
2.03422
1.69392
1.68651
1.91554
17.588
13.9427
10.6874
9.81107
10.1991
12.4147
17.2693
21.6452
24.8078
25.8505
21.6873
10.191
3.43147
1.44171
1.62762
3.97196
5.95365
6.28579
5.47516
5.12628
4.06967
4.2259
3.88347
4.58639
4.92185
6.08427
6.7502
7.47076
7.42978
6.48859
5.20005
3.54714
2.70359
2.17816
2.09505
2.29204
2.7687
3.38444
4.13921
3.72112
2.54344
2.02208
2.47866
3.79432
2.27291
2.01922
1.90885
1.81076
1.59789
1.33918
1.25093
0.964309
1.02424
0.941405
1.0086
1.13798
1.18158
1.368
1.40156
1.59754
1.6408
2.30569
3.83721
6.51461
9.1466
10.602
11.9552
12.6986
12.7025
10.5571
7.24537
3.42452
2.12528
1.76697
1.35251
1.38434
1.3764
1.34181
1.29659
1.24292
1.18892
1.14693
1.1084
1.09037
1.06914
1.06807
1.06158
1.05594
1.06257
1.06646
1.09325
1.07977
1.14154
1.16089
1.24118
1.30171
1.33574
1.32023
1.25458
1.16768
1.15737
1.21114
1.22293
1.1255
4.06718
4.32717
4.09587
3.91754
3.38978
3.2633
2.48787
2.39762
1.81087
1.75656
1.50311
1.44314
1.51657
1.5273
1.69298
1.7743
1.85008
1.8817
1.78919
1.63955
1.47535
1.37501
1.27429
1.28701
1.27058
1.42854
1.58504
1.70089
1.52357
1.34078
0.925099
1.07989
1.27054
1.43559
1.5178
1.53369
1.50723
1.46425
1.47935
1.88438
2.13695
2.27635
2.33054
2.41106
2.53633
2.68601
2.71097
2.79122
2.57096
2.38864
2.22977
2.47614
2.60372
3.30966
3.9582
5.1446
5.96394
5.8801
4.76839
2.59476
6.21947
5.60257
4.93677
3.97644
2.84941
2.40177
2.88158
2.24323
2.51601
1.84968
1.77029
1.59134
1.56257
1.50593
1.40392
1.24358
1.09698
0.983536
0.936984
0.942157
1.03087
1.18784
1.37337
1.48645
1.52957
1.47669
1.21629
0.776077
0.543789
0.569856
1.10238
1.10477
1.01581
0.995416
0.867373
0.823954
1.25055
1.59579
2.17499
2.18326
1.83698
1.80836
1.64569
1.65185
1.6665
1.66751
1.69643
1.68449
1.69426
1.69041
1.65903
1.60673
1.69352
1.52775
1.86656
2.22919
2.43888
2.33193
2.77037
1.9454
0.748538
0.824901
0.875357
0.759893
0.685007
0.664481
0.843834
1.17088
1.5042
1.58392
1.58586
1.59147
1.66201
1.63569
1.67423
1.64656
1.65102
1.62535
1.61098
1.58405
1.55544
1.53169
1.51143
1.51566
1.53371
1.60936
1.64607
1.39858
0.723934
0.488647
1.04397
1.01125
1.11594
1.15227
1.00732
0.742806
0.605896
0.50912
0.517066
0.563175
0.623715
0.685897
0.938511
1.45594
2.13052
2.73045
2.76593
2.44272
2.06141
1.96397
2.74094
3.20168
3.46729
3.30745
2.60166
1.823
1.55281
1.99625
3.54364
3.02676
0.482263
0.497909
0.542852
0.61108
0.647831
0.65608
0.650043
0.663809
0.666472
0.707553
0.616294
0.587741
0.520263
0.486277
0.541468
0.574156
0.670591
0.697909
0.777537
0.843777
1.04777
1.21849
1.53754
2.33079
2.80763
3.10108
2.74039
1.98841
1.37033
0.562752
0.854054
1.10039
1.7775
2.39458
2.8276
3.2628
3.83285
4.43682
5.59409
6.54294
5.52556
6.17893
2.84686
4.79521
4.69834
5.01585
5.46909
6.07149
6.55
6.64148
6.8022
6.93847
7.0541
7.07048
6.98912
7.19416
4.90501
3.84543
1.67815
1.10713
0.603281
0.974244
1.4248
1.80815
2.22801
2.67155
3.05034
3.36373
4.13641
4.36364
5.44304
6.10911
6.80509
7.4769
7.7015
7.21358
6.43516
5.48808
5.35848
5.01733
5.51718
5.38287
6.40518
6.12794
6.74131
5.42705
4.40128
2.38136
1.60638
1.40733
14.498
10.9673
9.00376
8.71923
8.52351
8.93405
11.3115
17.0706
21.9419
24.9232
25.4235
19.4203
6.62928
1.67807
4.53887
6.43621
6.55251
5.55976
4.34665
3.47297
2.72249
2.71852
2.58804
3.10845
3.78545
4.98582
6.58928
8.19051
9.11793
8.80328
7.19413
4.97858
3.20211
2.46037
2.18907
2.40258
2.82493
3.94903
4.64091
3.94258
2.58101
1.92297
2.59609
3.9045
1.19547
1.45577
1.53628
1.64899
1.67499
1.61454
1.28568
1.20894
0.980346
1.00919
1.01261
1.07527
1.15904
1.40836
1.38574
1.63065
1.66287
2.14547
3.67665
6.16692
8.1531
10.1096
11.0998
12.0734
11.5205
10.5342
7.16557
3.54909
1.97495
1.80476
1.41446
1.39745
1.34899
1.28839
1.22851
1.18185
1.12882
1.10235
1.06302
1.05164
1.02985
1.01984
1.01346
1.00484
1.00647
1.00222
1.01416
1.01455
1.0409
1.08215
1.1602
1.24924
1.31749
1.33144
1.29487
1.20822
1.15136
1.17967
1.2135
1.15205
3.95142
3.41205
3.37079
3.25106
3.41552
3.10059
2.91603
2.66921
2.1648
2.11238
2.01101
1.96582
1.97725
2.06555
2.12986
2.23306
2.28309
2.23995
1.98431
1.67725
1.38317
1.16361
1.07096
1.0772
1.12693
1.30536
1.51371
1.62795
1.43005
1.21021
0.994141
1.21688
1.41594
1.51669
1.54223
1.51918
1.47731
1.45481
1.79298
2.06563
2.22034
2.16423
2.14075
2.15682
2.41522
2.81284
2.9413
2.91649
2.68152
2.77048
2.66539
2.44243
2.93076
3.36569
4.27402
5.0825
5.80384
5.52144
4.73393
2.64531
5.87156
5.68547
4.93852
3.67877
2.99268
3.03397
2.94152
2.4497
2.36928
2.02734
1.64565
1.58158
1.54205
1.45597
1.29324
1.10103
0.944741
0.856694
0.819587
0.858411
0.972083
1.16421
1.37236
1.5082
1.53952
1.50333
1.30954
0.812418
0.546388
0.562282
1.05617
1.01406
1.02349
1.01254
0.866021
0.926342
1.45275
1.61758
2.37411
2.37622
2.17449
1.99665
1.6523
1.66685
1.666
1.68868
1.6836
1.6888
1.68767
1.67387
1.67984
1.68788
1.70072
1.46158
1.7627
2.36592
2.51492
2.77852
2.70159
1.89995
0.72858
0.829927
0.781591
0.70856
0.636938
0.770679
1.10556
1.46141
1.59166
1.58
1.58748
1.59668
1.66762
1.65015
1.68486
1.66335
1.66236
1.6405
1.6287
1.59469
1.55807
1.52189
1.50155
1.49261
1.49167
1.5135
1.5713
1.64687
1.36103
0.495901
0.971752
0.916926
0.987367
0.964444
0.796519
0.703944
0.592503
0.539015
0.480444
0.519607
0.566147
0.647219
0.90563
1.57511
2.62319
3.49325
3.1928
2.62821
2.48432
2.84418
3.23867
3.71669
3.76142
3.30479
2.36715
1.44426
1.35906
2.31622
3.84636
2.84001
0.482986
0.492944
0.53675
0.586334
0.621273
0.640336
0.672084
0.768321
0.855102
0.986025
0.880664
0.860831
0.743838
0.735847
0.801915
0.912019
1.13557
1.26635
1.46772
2.04191
2.32904
2.67301
3.07692
3.39035
3.67456
3.06869
2.02043
1.44008
1.55748
1.45642
0.916986
1.22499
2.05114
3.007
3.93315
4.87024
6.30411
7.04901
6.89144
7.44823
5.77538
6.82915
2.73298
5.45021
4.44973
4.58628
5.6392
6.0811
6.66759
6.83938
7.07819
7.04671
6.95867
6.95795
6.96696
7.03517
7.28872
6.86498
3.05531
1.2237
0.81376
1.24838
1.82603
2.47342
3.26783
4.26312
5.2173
5.93247
6.12581
6.50546
6.58047
7.1121
7.26917
7.72109
7.50223
7.36674
6.47116
6.37268
5.96711
6.15701
6.05827
6.39956
6.2127
6.75513
7.06507
7.56333
7.08507
4.21374
1.9639
1.28237
15.4191
12.786
11.7409
11.7583
10.3787
9.24283
10.0133
14.1985
20.1532
23.3052
25.0861
24.2586
11.4433
1.9818
7.20238
6.66799
5.59289
4.54681
3.39603
2.75714
2.41386
2.395
2.45294
3.0181
3.65677
5.1875
7.05728
9.21372
9.8568
9.56208
7.9028
5.1927
3.20313
2.45519
2.27109
2.68419
3.41144
5.0067
4.92601
3.65787
2.08736
1.61175
2.42995
3.91038
1.26008
1.21367
1.31172
1.24316
1.52876
1.53614
1.53755
1.19111
1.15119
1.10702
1.09196
1.24936
1.3323
1.53305
1.57757
1.77434
1.82791
2.54024
4.32726
6.53047
8.19487
8.98511
8.24483
7.11189
6.50468
6.41368
5.19296
2.97141
1.86866
1.65544
1.43048
1.39477
1.29968
1.2152
1.16378
1.12768
1.09134
1.06935
1.04106
1.02454
1.02049
1.0008
1.00942
0.998629
1.00498
0.998674
1.00978
1.00161
1.02613
1.04278
1.11952
1.20945
1.30143
1.33731
1.3152
1.24746
1.1654
1.15335
1.1871
1.15742
2.96489
2.5798
2.73324
3.21592
3.11937
3.29785
3.11334
2.93397
2.49565
2.58105
2.32293
2.45324
2.54271
2.61265
2.72969
2.77354
2.81058
2.52692
2.01684
1.52741
1.15012
0.961957
0.922373
0.966136
1.05442
1.25633
1.43545
1.50951
1.25111
1.05719
1.07309
1.3556
1.50018
1.54815
1.54052
1.50286
1.47034
1.49343
1.8213
2.12501
2.14971
1.95801
1.82236
1.78216
2.15562
2.70992
2.96113
2.89738
2.75607
2.83739
2.61037
2.93378
2.98984
3.50461
4.64483
5.283
5.7169
5.35811
4.32099
2.48487
5.48896
5.46221
4.50108
3.28634
3.29436
2.89087
2.96813
2.39093
2.58126
2.03316
1.64486
1.58581
1.54266
1.44099
1.25635
1.05426
0.902405
0.816591
0.780663
0.8181
0.932809
1.12176
1.34514
1.48523
1.51721
1.48913
1.26277
0.787506
0.548881
0.558379
0.88533
0.95207
1.00831
1.00486
0.886842
1.02745
1.52503
1.60988
2.32321
2.42408
2.237
1.86554
1.67158
1.69709
1.6931
1.6861
1.69082
1.68998
1.67116
1.67685
1.78751
2.01508
1.95085
2.02786
2.12057
2.30773
3.03192
2.92499
2.9265
1.64549
0.763227
0.776652
0.741309
0.60243
0.677843
0.947781
1.38491
1.58125
1.5994
1.58824
1.58877
1.60303
1.66408
1.65601
1.68383
1.66818
1.67005
1.65346
1.64008
1.60905
1.56121
1.50962
1.49379
1.50271
1.5141
1.51425
1.513
1.55059
1.66199
0.667129
0.960333
0.912185
0.925309
0.878566
0.842766
0.676922
0.630077
0.601668
0.529615
0.515691
0.533318
0.623769
0.934589
1.68889
3.0352
3.96075
3.6469
3.09793
2.79054
3.0673
3.33347
3.49893
3.65815
3.2039
2.29196
1.46346
1.3744
3.24982
4.23751
2.87179
0.469885
0.479601
0.513615
0.554129
0.587682
0.638751
0.724524
0.927136
1.14236
1.33265
1.31056
1.31078
1.20117
1.27207
1.39786
1.51028
1.58543
1.61406
2.21211
2.46796
2.78018
2.75316
3.15545
3.82555
3.39595
2.07402
1.23025
1.12933
1.38654
1.63396
0.977313
1.35544
2.37629
3.86258
5.31697
6.76131
7.55019
7.833
7.02284
7.31975
6.9307
6.61216
3.28148
5.02551
4.31072
4.26134
5.09176
5.31337
6.07327
6.54847
7.07078
7.23343
7.00879
6.86037
6.95027
6.89051
6.8618
7.07959
6.14779
1.63316
1.09304
1.58683
2.33561
3.52669
5.13689
6.35221
6.49342
6.24255
6.3569
6.03126
6.33337
6.24852
6.93947
6.98832
6.95792
6.56199
6.55428
6.07388
6.08357
5.85427
6.12086
5.81942
6.25332
6.14308
6.73871
6.96163
7.13231
6.5591
2.89316
1.35324
17.1058
15.4749
15.1949
14.5285
11.2124
8.70101
8.88872
11.8756
17.8415
22.0938
24.2412
24.9052
17.0041
2.71657
6.4204
5.4475
4.88734
3.97969
3.26813
2.82608
2.63671
2.55149
3.1749
3.69758
5.00712
6.38712
8.24147
9.48663
9.62308
8.47742
6.13129
3.84327
2.61559
2.43249
2.5891
3.70942
4.76043
5.33672
4.30708
2.22231
1.32889
1.19925
2.09159
3.60941
1.06579
1.13185
1.12496
1.44238
1.13346
1.31607
1.27158
1.35489
1.16086
1.19165
1.45588
1.97475
2.1072
2.25828
1.98052
2.00001
2.40104
3.56632
5.58079
7.42871
7.78448
5.31376
2.97719
2.83033
2.60738
2.67511
2.61782
2.07053
1.57854
1.71041
1.40835
1.32688
1.19024
1.1017
1.06123
1.03726
1.01611
0.995922
0.993995
0.980925
0.999526
0.98638
0.999577
1.00146
1.00433
1.00982
1.01871
1.02781
1.04019
1.06384
1.11721
1.20309
1.29655
1.34622
1.33455
1.27797
1.19052
1.14249
1.15272
1.14673
2.86643
2.45744
2.75485
2.92782
3.31552
3.0757
3.18759
2.99556
3.00059
2.77594
2.80744
2.91821
2.98117
3.24334
3.32172
3.49324
3.18934
2.48416
1.57641
1.19088
0.954221
0.87483
0.88762
0.940969
1.08403
1.27426
1.39364
1.23564
1.11166
0.975129
1.16667
1.44815
1.53679
1.55888
1.54254
1.49363
1.46376
1.44355
1.73783
1.9621
1.95902
1.58545
1.44551
1.39878
1.75608
2.54558
2.73647
2.77431
2.90752
2.7289
2.90036
3.09799
3.45866
3.68357
4.769
5.3507
4.98964
4.38309
3.88704
2.17767
5.01337
4.52678
3.69757
3.27609
2.78234
2.77824
2.50961
2.57365
2.30418
2.14913
1.62778
1.59006
1.55581
1.44869
1.24442
1.03428
0.884044
0.802613
0.759554
0.758899
0.806817
0.912283
1.08007
1.24229
1.3476
1.30743
1.10812
0.740076
0.552819
0.543967
0.927252
0.94972
0.963216
1.0023
0.918314
1.04835
1.55184
1.62401
2.07187
2.22732
1.95637
1.68427
1.82987
1.69253
1.68519
1.69843
1.69622
1.67554
1.6743
1.7362
1.86612
1.96515
1.90716
1.56574
1.60763
2.59501
2.97458
3.36993
2.52547
1.63977
0.633353
0.770825
0.667907
0.597514
0.758392
1.16214
1.54164
1.61276
1.59694
1.58906
1.59257
1.61413
1.65763
1.65142
1.69245
1.67528
1.67358
1.66044
1.65163
1.62671
1.57735
1.50371
1.48512
1.544
1.61811
1.62834
1.60877
1.55608
1.60429
1.09271
0.757922
0.67335
0.642454
0.669099
0.640273
0.647187
0.68606
0.716712
0.658098
0.577319
0.56799
0.661038
0.949333
1.66811
3.17521
4.23959
4.06869
3.5556
3.26859
3.1804
3.25173
2.99023
3.67267
3.25629
2.63376
2.0529
1.39436
2.88818
4.61656
2.87294
0.465733
0.466288
0.492841
0.518446
0.55083
0.616767
0.755729
1.04286
1.35459
1.52805
1.57056
1.5866
1.57616
1.60415
1.60979
1.59995
1.5797
1.76507
2.11609
2.5991
2.65385
2.4841
3.26221
3.78118
3.18766
1.38359
1.09167
0.832795
1.00535
1.68902
1.00722
1.38292
2.60648
4.76072
6.8364
7.56001
7.70897
7.14234
7.19025
6.9466
7.21011
5.96649
4.77564
4.37165
4.359
4.51263
5.01822
4.75847
5.21793
5.7602
6.52093
7.05754
7.09762
6.91833
6.80606
6.71271
6.87346
6.96895
7.24617
2.26575
1.16132
1.88397
2.9424
4.81825
6.69354
6.74879
6.30178
6.15329
5.87664
5.99002
5.85556
6.21175
6.07232
6.34149
6.2676
6.67865
6.40486
6.39601
6.10148
6.11736
5.88567
6.11171
5.87566
6.32153
6.52982
7.20429
6.67523
6.3637
4.0239
1.52976
18.0151
16.3317
16.021
13.2739
8.5305
6.44723
6.93016
8.71569
12.803
18.346
22.5503
24.5116
19.137
4.14532
4.98523
4.73471
4.31704
3.62805
3.45947
2.9243
2.91552
2.74649
3.11156
3.96454
5.04204
6.27469
7.50466
7.64666
6.63235
4.86961
3.38918
2.71735
2.60199
3.041
4.16526
4.94489
4.5037
3.26775
1.55545
1.06451
0.893018
1.13642
1.86568
3.14629
1.39179
1.25859
1.38987
1.24114
1.28997
1.18961
1.04999
1.04623
1.15631
1.51391
2.74977
3.49448
3.4171
3.03555
2.38905
2.59475
3.44619
5.24648
7.04069
6.71071
3.43691
2.35464
2.31865
2.17436
2.23214
1.96212
1.57507
1.55343
1.41747
1.51952
1.28498
1.17141
1.06686
1.0188
0.998114
0.985157
0.973396
0.972558
0.981563
0.976595
0.994395
1.00428
0.997303
1.02198
1.02776
1.04851
1.05913
1.06853
1.08552
1.10163
1.1625
1.23561
1.31919
1.36416
1.36048
1.30209
1.22181
1.13774
1.12143
1.13607
2.55365
2.46816
2.79734
3.00381
3.1499
3.19208
3.11333
3.07411
2.92498
2.79629
3.22883
3.0538
3.46656
3.76538
3.96132
3.92095
2.93319
1.78727
1.24012
0.94974
0.906638
0.884541
0.917262
1.022
1.14107
1.22733
1.23062
1.16576
1.04241
0.957192
1.27265
1.51535
1.56897
1.56324
1.53362
1.48857
1.45765
1.44231
1.58808
1.77454
1.79898
1.41866
1.1939
1.14263
1.38672
2.04451
2.53652
2.81542
2.69803
2.75597
3.05654
3.25024
3.75928
3.81583
4.3556
4.86459
4.38719
4.12518
3.36032
1.87018
4.79473
4.17982
3.37281
2.55935
2.55364
2.20459
2.30598
2.20059
2.27401
2.07533
1.7137
1.60066
1.57258
1.47884
1.26763
1.04442
0.890456
0.810814
0.768959
0.747336
0.745559
0.766812
0.808109
0.882264
0.950256
0.970947
0.870534
0.682335
0.552928
0.53681
0.9849
0.961794
0.920672
0.969371
0.945123
1.03657
1.51052
1.63888
1.63145
1.79234
1.71735
1.79581
1.68844
1.68141
1.69789
1.6899
1.67282
1.68932
1.67861
2.09644
2.46343
2.11949
2.90023
3.06205
2.69625
3.2681
3.80735
3.43424
2.93315
1.46657
0.594519
0.589498
0.594529
0.614976
0.864552
1.35077
1.60433
1.61701
1.59795
1.59897
1.59725
1.61874
1.64279
1.64336
1.6891
1.68203
1.67064
1.66387
1.65472
1.64071
1.60216
1.51042
1.46872
1.5684
1.63216
1.49204
1.47822
1.65285
1.60129
1.51197
0.733154
0.672862
0.634423
0.579932
0.603276
0.627911
0.69479
0.801399
0.897783
0.787177
0.707432
0.729089
1.03095
1.49592
3.00931
4.20589
4.36699
3.91172
3.56758
3.33094
2.83301
3.38174
3.48522
3.40387
3.66374
3.11349
1.93895
2.29896
4.68103
4.66728
0.456522
0.457393
0.471871
0.488109
0.513175
0.577274
0.737617
1.0687
1.44454
1.5875
1.61515
1.61021
1.60518
1.59148
1.57643
1.60849
1.56429
1.65732
2.08612
2.27505
2.18608
2.71187
3.42138
4.37594
3.40369
1.94206
1.05638
0.707028
0.650781
1.36738
1.0148
1.37624
2.74195
5.41575
7.33839
7.62046
7.3315
6.81883
6.5853
7.05445
6.23089
6.21014
4.89561
5.16529
4.78527
4.46131
5.49814
4.86553
4.88972
4.96408
5.80025
6.68513
6.97836
6.60478
6.47807
6.64044
6.82639
6.98685
7.18017
3.23769
1.27163
2.14042
3.90423
6.33755
7.13754
6.55527
6.18738
5.8648
5.9674
5.66375
5.87807
5.80563
6.38588
6.21935
6.65421
6.52116
6.61428
6.43801
6.42835
6.14586
6.08946
5.91985
6.10493
5.92359
6.50967
6.31486
5.79885
5.3024
3.89159
1.71067
18.4081
15.7106
14.6315
9.03619
5.51395
5.16283
5.75838
6.56013
8.25917
11.7219
18.3655
23.0165
18.4167
5.69531
4.15831
4.10446
3.53973
3.18656
3.21707
2.99776
3.06768
2.75805
2.80654
2.8219
3.28541
3.72485
3.78686
3.67901
3.24062
2.9154
2.85547
3.16738
3.82827
4.3289
3.93377
2.72545
1.46005
1.12999
0.983018
1.06656
1.14091
1.32506
2.24281
2.76437
1.848
1.68569
1.46687
1.40714
1.09192
1.08658
1.05615
1.06567
1.4245
2.468
4.04663
3.9294
3.88755
3.19388
2.96402
3.70687
5.11186
6.47411
5.68261
3.04731
2.52573
2.58663
2.38723
2.18452
2.01212
1.83667
1.25909
1.23435
1.44693
1.61397
1.13258
1.03203
1.00425
0.985926
0.981517
0.975105
0.976494
0.977196
0.991985
1.01209
1.02362
1.07229
1.08936
1.11867
1.14958
1.15412
1.17547
1.17286
1.184
1.19954
1.24883
1.30574
1.35903
1.38688
1.38323
1.33441
1.23905
1.13591
1.10461
1.19857
2.56661
2.61214
3.02825
3.20167
3.35154
3.4587
3.3048
3.16181
3.50232
2.78399
3.17401
3.39626
3.69983
4.34166
4.3041
3.36833
2.05029
1.2976
0.932296
0.892004
0.844947
0.869583
0.943745
1.04466
1.1405
1.1832
1.15024
1.05489
0.976132
0.948527
1.33925
1.56024
1.58907
1.5802
1.54038
1.49217
1.48059
1.48514
1.47077
1.45617
1.43344
1.3068
1.07273
0.988032
1.07639
1.48426
2.32801
2.46131
2.54199
2.70785
2.74544
3.11076
3.51378
3.79941
3.88631
4.27893
3.98053
3.51034
2.32066
1.649
3.31994
3.2666
2.49502
2.21422
1.96824
2.0467
1.82166
1.95872
2.02074
1.93915
1.83145
1.60309
1.59001
1.52476
1.33791
1.09343
0.925222
0.847965
0.810826
0.790842
0.78266
0.77871
0.776129
0.771606
0.750562
0.724543
0.687471
0.614124
0.54866
0.528669
0.976191
0.94311
0.885056
0.941541
0.954309
0.990775
1.43033
1.64211
1.63734
1.65438
1.66477
1.67906
1.67517
1.70129
1.69544
1.6777
1.68665
1.67124
1.95033
2.50732
2.47183
3.67927
2.98722
2.65178
2.60868
3.24202
3.75666
3.65703
2.8615
1.97799
0.573908
0.592764
0.597356
0.640612
0.964577
1.4676
1.61332
1.60127
1.58202
1.58922
1.66422
1.86307
1.63511
1.64592
1.65247
1.66711
1.67484
1.65923
1.6512
1.6423
1.62268
1.53451
1.44679
1.5546
1.60288
1.18196
0.901148
1.42745
1.63139
1.62046
0.928474
0.680029
0.539143
0.527347
0.553321
0.588885
0.672217
0.83906
1.04095
1.07134
1.05929
0.915465
1.11038
1.43805
2.63834
3.87748
4.48154
4.12865
3.78315
3.42739
3.14481
3.48185
3.21646
3.71558
4.13598
4.4694
3.38577
1.89423
2.09202
3.86829
0.448346
0.44755
0.456007
0.464533
0.480594
0.531926
0.66495
0.969952
1.40181
1.59083
1.6116
1.59749
1.57996
1.58251
1.60535
1.56753
1.56401
1.70235
1.85086
1.89368
2.27592
2.80591
3.91871
3.71151
3.73139
1.48159
1.24262
0.75444
0.49062
0.553388
0.991021
1.34169
2.76807
5.67758
7.39019
7.28969
6.89766
6.51846
6.17253
6.2365
6.00035
5.47972
5.43633
5.19576
5.13676
5.29559
5.62995
5.40474
4.79748
4.59103
5.37693
6.38891
6.7548
6.35734
6.43547
6.58811
6.54412
6.44642
6.85302
3.36319
1.14454
2.3058
4.8615
7.08399
6.92406
6.29117
6.26401
5.78791
5.75354
5.93419
5.81697
6.24689
6.1038
6.50771
6.64759
6.91461
6.64223
6.64748
6.49326
6.45904
6.1154
6.11489
5.94085
6.11699
6.11038
6.34151
4.32957
4.03818
3.32809
2.06172
18.1201
14.1433
11.4273
6.26709
4.79802
5.17225
5.52871
5.59978
6.56168
10.1133
16.2108
17.5222
10.3447
5.79963
5.69687
4.71667
3.68057
3.02182
2.5138
2.19325
2.39976
2.59289
3.02539
3.05644
3.15944
3.03172
2.97328
3.01227
3.19105
3.09854
3.26853
3.45433
3.76558
3.85248
3.38003
2.2384
1.40696
0.975856
1.13286
1.36359
1.57899
1.4525
1.51355
2.2937
2.63784
2.71435
2.1741
2.55533
1.99091
2.02664
1.53309
1.22489
1.09672
1.09854
1.10941
1.45804
2.03649
3.35579
4.03743
3.66388
3.79748
3.55466
4.14353
5.32861
6.37523
5.70413
3.42396
2.66235
2.57577
2.27908
1.79356
1.67324
1.64235
1.71018
1.51888
1.36188
1.38162
1.52595
1.28356
1.21647
1.06385
0.997169
0.983171
0.984193
0.987461
1.00002
1.01352
1.03414
1.05624
1.09187
1.12057
1.17899
1.22486
1.26235
1.29451
1.32804
1.32913
1.32124
1.31856
1.33262
1.3513
1.39022
1.41283
1.41438
1.41232
1.34986
1.2505
1.13424
1.11475
1.60965
2.06016
2.4163
2.41394
2.70135
3.22713
3.41595
3.5351
3.74868
3.42955
3.68221
3.4793
3.13162
3.10654
3.8898
4.13489
4.4278
3.57487
2.22249
1.38801
0.911765
0.907415
0.947648
0.986876
1.0371
1.09078
1.12727
1.1276
1.08126
1.00939
0.97467
0.975294
0.994377
1.21159
1.37846
1.44915
1.57688
1.58709
1.58561
1.55268
1.50503
1.50549
1.97126
1.73872
1.46706
1.44865
1.38124
1.16131
0.975218
0.980551
1.11658
1.57167
2.15815
2.49332
2.48321
2.78196
3.06562
3.5477
4.03131
3.81234
3.53142
3.13351
2.29707
1.77655
1.75468
2.90196
2.00768
3.24395
2.39172
2.12544
1.85417
1.94209
1.66158
1.7244
1.6304
1.64643
1.88935
1.90866
1.8394
1.60326
1.57423
1.453
1.21021
1.0104
0.917479
0.89524
0.901882
0.923215
0.944946
0.954116
0.943306
0.895235
0.821863
0.718888
0.633851
0.560568
0.534124
0.637193
0.817598
0.915942
0.916162
0.860801
0.908719
0.952065
0.958662
1.26161
1.6412
1.66365
1.64835
1.67103
1.66516
1.69171
1.69406
1.6864
1.68985
1.68085
1.65031
1.97395
2.43052
4.01985
3.93312
3.97781
4.21355
3.58564
4.13916
4.5174
4.19861
3.5125
2.72207
2.36407
1.43118
0.750444
0.682704
0.664495
0.675894
1.04232
1.50513
1.59903
1.60147
1.59343
1.74903
1.85625
1.7157
1.8873
1.63323
1.65824
1.65039
1.65292
1.6587
1.64691
1.63642
1.62866
1.56722
1.4337
1.5075
1.63513
1.19596
0.829538
0.917812
1.63544
1.66554
1.69101
1.65518
1.43453
0.86675
0.564697
0.514286
0.518603
0.544325
0.612778
0.792735
1.1485
1.27436
1.55346
1.25824
1.37119
1.53614
2.27404
3.31672
3.97024
4.24699
3.83062
3.75215
3.39206
3.13108
3.16347
3.57554
4.04485
4.82583
5.27057
3.46318
1.23417
0.721599
0.448069
0.4164
0.430821
0.435679
0.454347
0.471358
0.485565
0.509188
0.576073
0.772764
1.17414
1.52747
1.61277
1.59735
1.57859
1.56631
1.59023
1.57106
1.58376
1.60984
1.6261
1.93145
2.1609
3.46129
3.61914
4.6982
3.81293
3.10637
2.19413
0.898503
0.570413
0.423096
0.415384
0.423826
0.684788
1.17223
2.46865
4.77595
6.82067
6.97763
6.52578
6.21364
5.97688
5.33091
5.35576
5.10476
5.21816
5.06209
5.44869
5.80956
5.64577
5.7564
4.78051
4.69452
5.07393
6.28317
6.59395
6.25317
6.29246
5.82991
4.83244
4.50307
5.22026
3.93306
3.77231
2.58119
1.03903
2.44607
5.85006
7.21707
6.60363
6.19735
6.00192
5.70367
6.10531
6.02836
6.00689
5.27991
5.70706
6.22071
6.83755
6.96786
7.04028
6.73023
6.49372
6.50933
6.34624
6.12711
6.04139
5.98661
6.11789
6.15281
4.42373
3.52899
4.27187
5.99511
6.16705
6.71582
17.6921
11.8272
8.03915
4.90631
4.65395
5.29171
5.47647
5.64883
7.19636
10.2096
12.4515
9.96946
5.86576
4.35997
3.90129
3.46244
2.81298
1.98857
1.4652
1.24782
1.27291
1.40916
1.82564
2.36207
2.96265
3.19547
3.34864
3.38381
3.38588
3.53677
3.45559
3.37782
2.88381
2.05113
1.31243
1.05729
1.12693
1.30262
1.48267
1.73893
1.67806
1.68229
1.87458
2.30913
2.59557
2.29077
2.55075
2.40113
2.3455
1.9509
1.43793
1.28751
1.12106
1.13306
1.16233
2.06251
2.50824
3.68838
3.49762
4.14786
4.39139
4.98079
6.08826
6.4443
5.52778
3.78457
2.56366
2.5764
2.66347
2.34631
1.90831
1.54111
1.35327
1.34248
1.35726
1.28639
1.3193
1.27696
1.15242
1.08063
1.04048
1.00709
0.998386
1.00178
1.03705
1.09236
1.15462
1.20575
1.221
1.21922
1.21887
1.23066
1.25178
1.28819
1.33431
1.36753
1.40726
1.42108
1.44033
1.43579
1.45189
1.45832
1.4557
1.44539
1.40653
1.34064
1.24337
1.1157
1.3474
1.59123
1.90274
2.31396
2.4733
2.91441
3.38205
3.59417
3.65524
3.70386
3.51244
3.86004
3.72911
3.47177
3.47818
4.1818
4.11775
3.4648
2.24155
1.38826
0.912702
0.94909
1.00177
1.03776
1.06215
1.08044
1.07522
1.04835
1.00481
0.990339
1.05752
1.145
1.20885
1.22219
1.35752
1.45695
1.53879
1.62103
1.61441
1.58739
1.54282
1.54653
1.86436
2.42557
1.92213
1.55095
1.50486
1.47939
1.32786
1.08585
0.953953
0.975753
1.10435
1.56543
2.00399
2.43811
2.62971
3.0997
3.2636
3.33301
3.32867
2.52824
2.07511
2.1836
2.47103
2.96807
2.81526
2.55051
2.1408
1.77837
1.47435
1.72724
1.59102
1.72478
1.6271
1.76906
1.76858
1.79606
1.95585
1.90858
1.84238
1.61815
1.54502
1.37952
1.16092
1.04311
1.0209
1.04668
1.08252
1.11057
1.11998
1.11496
1.09938
1.04376
0.920164
0.750428
0.614999
0.543313
0.630285
0.828699
0.917517
0.877766
0.842957
0.893999
0.955681
0.930343
1.08606
1.5249
1.66086
1.66506
1.6608
1.67336
1.68639
1.68382
1.67957
1.69405
1.65372
1.64036
1.64503
3.68184
4.02927
4.13958
4.40711
4.29112
3.96354