/*--------------------------------*- C++ -*----------------------------------*\
| =========                 |                                                 |
| \\      /  F ield         | OpenFOAM: The Open Source CFD Toolbox           |
|  \\    /   O peration     | Version:  2.1.1                                 |
|   \\  /    A nd           | Web:      www.OpenFOAM.org                      |
|    \\/     M anipulation  |                                                 |
\*---------------------------------------------------------------------------*/
FoamFile
{
    version     2.0;
    format      ascii;
    class       volScalarField;
    location    "0.007000000";
    object      H;
}
// * * * * * * * * * * * * * * * * * * * * * * * * * * * * * * * * * * * * * //

dimensions      [0 0 0 0 0 0 0];

internalField   nonuniform List<scalar> 
12384
(
0.000137559
0.00012468
0.000117032
0.000112144
0.000109144
0.000109373
0.0001128
0.000120641
0.000125477
0.000139282
0.000150304
0.000159856
0.000166111
0.000200303
1.6961e-05
2.29754e-05
2.29921e-05
2.14342e-05
2.12213e-05
2.17022e-05
2.31557e-05
2.38959e-05
2.29943e-05
2.40234e-05
2.63641e-05
2.97482e-05
3.29406e-05
3.53452e-05
3.66927e-05
3.69627e-05
3.66712e-05
3.57285e-05
3.51626e-05
3.45765e-05
3.39075e-05
3.17101e-05
3.23363e-05
3.35831e-05
3.5193e-05
3.70857e-05
3.74382e-05
3.31171e-05
2.0177e-05
8.74454e-06
5.50244e-05
6.70703e-05
7.03502e-05
7.409e-05
7.83372e-05
8.17248e-05
8.38668e-05
8.60037e-05
8.52396e-05
8.67004e-05
8.6196e-05
8.46734e-05
8.30765e-05
8.15342e-05
7.93458e-05
7.7666e-05
7.56968e-05
7.43219e-05
7.35491e-05
7.36523e-05
7.31975e-05
7.72377e-05
7.63971e-05
8.03827e-05
8.27701e-05
8.60199e-05
8.82494e-05
8.48844e-05
6.66882e-05
6.28894e-05
7.6082e-05
8.03042e-05
8.64875e-05
9.19433e-05
9.4178e-05
9.43937e-05
9.42816e-05
9.32482e-05
9.29032e-05
9.1901e-05
9.16486e-05
9.12957e-05
9.1022e-05
9.06316e-05
8.98921e-05
8.87432e-05
8.73369e-05
8.50072e-05
8.2467e-05
8.15306e-05
7.87621e-05
7.85132e-05
7.76343e-05
7.76864e-05
7.93473e-05
8.06177e-05
8.26121e-05
8.38845e-05
7.96567e-05
7.59124e-05
9.83204e-05
9.66877e-05
9.47159e-05
9.34585e-05
9.35988e-05
9.30269e-05
9.35203e-05
9.41063e-05
9.44533e-05
9.43892e-05
9.45001e-05
9.37078e-05
9.33063e-05
9.23683e-05
9.11999e-05
9.09501e-05
9.02218e-05
9.14453e-05
9.29189e-05
9.35102e-05
9.42874e-05
0.00010071
9.04331e-05
7.95688e-05
8.22317e-05
8.52399e-05
8.74729e-05
8.81022e-05
8.69755e-05
8.15402e-05
8.704e-05
8.7839e-05
8.70691e-05
8.72808e-05
8.87817e-05
9.16722e-05
9.13223e-05
9.22813e-05
9.16688e-05
9.30012e-05
9.38898e-05
9.57288e-05
9.6816e-05
9.69484e-05
9.80359e-05
9.88539e-05
9.93785e-05
9.9774e-05
0.000100138
0.000100664
0.000100625
0.000101278
0.000101307
0.000102082
0.000103401
0.000104658
0.000106389
0.000106042
0.000107532
0.00010821
6.02363e-05
6.71203e-05
7.52104e-05
7.84549e-05
7.75609e-05
7.60429e-05
7.46138e-05
7.37762e-05
7.27934e-05
7.21996e-05
7.14238e-05
7.04837e-05
7.41928e-05
7.29743e-05
7.15305e-05
7.14663e-05
6.97327e-05
6.98415e-05
7.01167e-05
6.70166e-05
6.86222e-05
7.05003e-05
7.25532e-05
7.42935e-05
6.39806e-05
1.64622e-05
1.50722e-05
1.76543e-05
1.979e-05
2.04998e-05
8.98727e-05
0.000101635
0.00010558
0.000107997
0.000109427
0.00011024
0.000109995
0.000109705
0.000106976
0.000106926
0.000101516
0.000102705
9.85666e-05
0.000100485
9.98472e-05
0.000100499
0.000101917
0.000102117
0.000103355
0.000104042
0.000100146
9.74192e-05
9.54095e-05
9.46661e-05
9.495e-05
9.44928e-05
9.42764e-05
9.4613e-05
9.36217e-05
9.39689e-05
8.34325e-05
8.5193e-05
8.57589e-05
8.57056e-05
8.48585e-05
8.3446e-05
8.23348e-05
8.06825e-05
8.07895e-05
7.90692e-05
8.16908e-05
7.97614e-05
8.59857e-05
8.60903e-05
9.05794e-05
9.07786e-05
9.35873e-05
9.53358e-05
8.508e-05
8.81228e-05
8.87986e-05
9.29487e-05
9.37812e-05
9.9026e-05
9.93751e-05
9.98015e-05
9.95431e-05
9.75329e-05
8.99566e-05
8.54874e-05
8.42605e-05
8.74706e-05
8.88239e-05
8.88752e-05
8.81124e-05
8.61865e-05
8.51432e-05
8.27639e-05
8.19414e-05
7.96695e-05
8.0319e-05
7.95746e-05
8.10391e-05
8.25187e-05
8.31423e-05
8.25537e-05
8.01342e-05
7.75785e-05
7.60887e-05
7.42259e-05
7.47969e-05
7.46192e-05
7.55913e-05
7.56664e-05
7.68553e-05
7.78091e-05
7.77737e-05
7.89527e-05
7.83599e-05
7.82011e-05
6.74876e-05
7.0826e-05
7.35807e-05
7.47028e-05
7.51147e-05
7.40604e-05
7.20363e-05
7.08281e-05
6.98426e-05
7.06254e-05
7.00433e-05
7.04018e-05
7.11457e-05
7.14477e-05
6.84016e-05
6.44898e-05
6.34663e-05
6.38617e-05
6.42705e-05
6.35565e-05
6.27994e-05
6.22991e-05
6.29633e-05
6.28572e-05
6.28269e-05
6.20919e-05
6.28012e-05
6.38101e-05
6.39409e-05
6.2874e-05
5.5696e-05
5.65376e-05
5.63898e-05
6.19971e-05
6.34332e-05
6.27438e-05
6.10006e-05
6.03212e-05
5.96695e-05
5.89133e-05
5.91821e-05
5.86768e-05
5.8707e-05
5.82512e-05
5.78791e-05
5.77576e-05
5.76197e-05
5.74835e-05
5.74008e-05
5.73583e-05
5.72095e-05
5.73857e-05
5.75301e-05
5.79909e-05
5.83836e-05
5.86617e-05
5.85289e-05
5.6502e-05
5.65072e-05
5.65403e-05
5.22251e-05
5.20421e-05
5.09469e-05
5.01202e-05
5.05499e-05
5.52141e-05
5.63169e-05
4.95732e-05
4.9154e-05
4.86577e-05
4.80498e-05
4.75816e-05
4.69787e-05
4.699e-05
4.74093e-05
4.75993e-05
4.81037e-05
4.86386e-05
4.90297e-05
4.94956e-05
4.9793e-05
5.02331e-05
5.03229e-05
5.11551e-05
5.12877e-05
5.32199e-05
5.44575e-05
5.48465e-05
5.02273e-05
4.29689e-05
9.07681e-05
8.74338e-05
7.45767e-05
6.39792e-05
6.14588e-05
6.40306e-05
6.85768e-05
7.43289e-05
8.02515e-05
9.93145e-05
0.000121242
0.000151709
0.000167187
0.000197639
1.76273e-05
2.32005e-05
2.19517e-05
2.09242e-05
2.18912e-05
2.27593e-05
2.2451e-05
2.22469e-05
2.39535e-05
3.06207e-05
4.4671e-05
5.19904e-05
5.68641e-05
5.51553e-05
5.02363e-05
4.44717e-05
4.12393e-05
3.7652e-05
3.5142e-05
3.39739e-05
3.30964e-05
3.33907e-05
3.39365e-05
3.46913e-05
3.44771e-05
3.75392e-05
3.98648e-05
3.70708e-05
2.66399e-05
1.28398e-05
5.63891e-05
6.65006e-05
7.02303e-05
7.61597e-05
8.27059e-05
8.75484e-05
8.97692e-05
9.01764e-05
8.93372e-05
8.62633e-05
8.46749e-05
8.0833e-05
7.69059e-05
7.22452e-05
6.761e-05
6.36384e-05
6.34398e-05
6.11993e-05
5.96264e-05
5.87777e-05
5.89198e-05
6.0215e-05
6.34488e-05
6.64212e-05
7.17745e-05
7.83776e-05
8.48158e-05
8.66317e-05
7.9084e-05
6.53086e-05
7.71659e-05
8.29114e-05
8.97322e-05
9.32777e-05
9.40177e-05
9.22001e-05
8.88975e-05
8.54478e-05
8.29834e-05
8.16909e-05
8.11881e-05
8.15551e-05
8.25966e-05
8.42334e-05
8.60084e-05
8.52534e-05
8.21876e-05
7.86233e-05
7.42887e-05
7.03165e-05
6.74263e-05
6.52451e-05
6.49311e-05
6.55399e-05
6.78984e-05
7.18363e-05
7.64822e-05
8.11379e-05
8.13951e-05
7.80153e-05
9.86012e-05
9.67912e-05
9.36453e-05
9.23781e-05
9.24163e-05
9.34105e-05
9.46693e-05
9.56523e-05
9.53924e-05
9.52962e-05
9.4821e-05
9.431e-05
9.37404e-05
9.24135e-05
9.22592e-05
9.15725e-05
9.11184e-05
9.05628e-05
9.21312e-05
9.34434e-05
9.34248e-05
9.40873e-05
9.65959e-05
8.66569e-05
8.30237e-05
8.53453e-05
8.80655e-05
8.98585e-05
9.06158e-05
8.94044e-05
8.748e-05
8.73984e-05
8.71721e-05
8.78631e-05
8.96106e-05
9.06835e-05
9.01043e-05
9.02626e-05
9.10184e-05
9.24713e-05
9.44048e-05
9.5912e-05
9.69108e-05
9.62756e-05
9.69342e-05
9.77357e-05
9.88571e-05
0.000100028
0.000101248
0.000102397
0.000102223
0.000103042
0.000103748
0.000103705
0.000104791
0.000105375
0.000106089
0.000106367
0.000106524
0.000107581
6.18965e-05
7.07671e-05
8.02203e-05
8.11288e-05
7.76044e-05
7.53635e-05
7.36698e-05
7.27424e-05
7.20288e-05
7.59508e-05
7.32441e-05
7.01962e-05
6.83049e-05
6.71574e-05
6.6546e-05
6.68206e-05
6.49265e-05
6.56008e-05
6.60185e-05
6.66997e-05
6.76473e-05
7.06167e-05
6.88216e-05
7.24779e-05
7.02895e-05
4.05457e-05
1.86949e-05
2.03468e-05
2.65876e-05
3.13699e-05
9.36331e-05
0.000105744
0.000109506
0.000111573
0.000113068
0.000113037
0.000111384
0.000108219
0.000106752
0.000104949
0.000102125
9.9862e-05
0.000100722
9.77363e-05
9.86578e-05
9.92625e-05
9.98446e-05
0.000100902
0.000101116
0.000102882
0.000101873
9.94792e-05
9.63715e-05
9.39128e-05
9.4313e-05
9.54821e-05
9.5377e-05
9.51984e-05
9.5735e-05
9.55267e-05
8.39585e-05
8.51677e-05
8.52667e-05
8.3906e-05
8.16345e-05
7.9819e-05
7.75399e-05
7.59365e-05
7.47845e-05
7.43167e-05
7.49688e-05
7.60467e-05
7.98076e-05
8.17172e-05
8.58728e-05
8.73825e-05
9.24531e-05
9.73582e-05
9.21891e-05
8.92219e-05
8.97047e-05
9.43064e-05
9.46354e-05
9.83545e-05
0.00010086
0.000104188
0.000107143
0.000107773
0.000101655
8.81051e-05
8.13711e-05
8.33544e-05
8.25005e-05
8.06409e-05
7.89931e-05
7.52934e-05
7.29067e-05
7.02282e-05
6.98158e-05
6.70369e-05
6.79561e-05
6.90824e-05
7.08627e-05
7.38105e-05
7.66102e-05
7.93304e-05
8.00666e-05
7.86759e-05
7.89651e-05
7.62952e-05
7.43502e-05
7.48944e-05
7.52852e-05
7.54022e-05
7.66616e-05
7.77215e-05
7.82102e-05
7.86806e-05
7.98508e-05
7.88434e-05
6.75251e-05
7.47063e-05
7.59172e-05
7.3089e-05
6.98658e-05
6.61359e-05
6.42193e-05
6.31695e-05
6.28669e-05
6.42259e-05
6.73772e-05
7.00947e-05
7.01026e-05
7.18563e-05
7.09578e-05
6.45442e-05
6.35656e-05
6.36041e-05
6.23322e-05
6.21478e-05
6.04711e-05
5.94047e-05
5.86633e-05
5.83486e-05
5.88581e-05
5.97371e-05
6.06134e-05
6.26318e-05
6.37396e-05
6.3009e-05
5.5263e-05
5.62951e-05
5.8395e-05
6.38704e-05
6.40991e-05
6.30602e-05
6.31055e-05
6.25655e-05
6.21698e-05
6.1188e-05
6.00892e-05
5.92928e-05
5.75849e-05
5.65896e-05
5.55833e-05
5.62923e-05
5.6397e-05
5.64729e-05
5.65713e-05
5.66842e-05
5.68237e-05
5.69539e-05
5.68897e-05
5.59243e-05
5.63375e-05
5.73112e-05
5.79026e-05
5.70152e-05
5.6227e-05
5.65597e-05
5.44239e-05
5.50787e-05
5.37358e-05
4.99802e-05
4.93606e-05
5.6109e-05
5.42737e-05
5.02325e-05
4.90793e-05
4.90382e-05
4.77417e-05
4.97026e-05
4.97887e-05
4.94543e-05
4.92867e-05
4.90754e-05
4.85682e-05
4.81199e-05
4.75761e-05
4.71502e-05
4.51603e-05
4.58438e-05
4.80205e-05
4.9076e-05
5.11069e-05
5.46801e-05
5.53594e-05
5.49945e-05
5.03269e-05
4.23095e-05
7.85613e-05
6.05839e-05
4.79671e-05
4.70866e-05
5.24302e-05
6.59354e-05
7.21254e-05
7.57199e-05
7.51738e-05
7.60781e-05
9.19222e-05
0.00012573
0.000162681
0.000195878
1.80909e-05
2.3347e-05
2.12272e-05
2.05349e-05
2.11934e-05
2.03319e-05
1.89684e-05
2.04913e-05
3.05628e-05
5.45949e-05
7.80301e-05
8.16649e-05
7.40917e-05
6.04147e-05
4.58378e-05
3.76091e-05
3.16136e-05
2.87353e-05
2.97053e-05
3.03115e-05
3.03692e-05
2.99268e-05
2.86558e-05
3.05998e-05
3.3001e-05
3.40223e-05
4.00703e-05
4.06498e-05
3.38307e-05
1.69202e-05
5.62236e-05
6.48962e-05
6.91228e-05
7.78525e-05
8.74851e-05
9.36479e-05
9.55158e-05
9.29624e-05
8.96805e-05
8.45392e-05
8.0683e-05
7.61036e-05
7.14959e-05
6.57962e-05
6.39927e-05
6.05045e-05
5.82218e-05
5.61464e-05
5.49412e-05
5.41535e-05
5.28416e-05
5.32344e-05
5.3593e-05
5.66814e-05
6.25152e-05
6.7482e-05
7.69482e-05
8.45488e-05
8.43591e-05
7.19213e-05
7.74538e-05
8.51244e-05
9.11744e-05
9.31812e-05
9.0526e-05
8.48174e-05
7.92615e-05
7.55686e-05
7.45521e-05
7.40472e-05
7.40237e-05
7.39521e-05
7.44409e-05
7.63143e-05
8.16169e-05
8.21406e-05
7.93058e-05
7.41985e-05
6.82351e-05
6.33804e-05
5.94296e-05
5.74417e-05
5.55254e-05
5.65527e-05
5.86192e-05
6.24641e-05
6.86818e-05
7.57208e-05
8.02546e-05
7.90791e-05
9.80091e-05
9.64432e-05
9.29561e-05
9.08855e-05
9.21544e-05
9.37549e-05
9.5495e-05
9.5824e-05
9.60317e-05
9.58978e-05
9.72995e-05
9.34571e-05
9.0518e-05
9.00986e-05
8.96589e-05
8.8361e-05
8.9574e-05
9.09924e-05
9.20277e-05
9.54743e-05
9.30063e-05
9.31904e-05
9.8584e-05
9.30606e-05
8.61581e-05
8.76901e-05
8.65271e-05
8.89235e-05
9.08316e-05
9.27773e-05
8.73052e-05
8.70185e-05
8.6675e-05
8.84057e-05
8.93277e-05
8.94844e-05
8.83608e-05
9.04872e-05
9.27596e-05
9.68128e-05
9.98032e-05
0.000100431
9.82413e-05
9.65557e-05
9.62929e-05
9.71809e-05
9.94699e-05
0.000102732
0.000104918
0.000107953
0.000109229
0.000109543
0.000109973
0.000109439
0.000108847
0.000107779
0.000107072
0.000106416
0.000105866
0.000106841
6.405e-05
7.49659e-05
8.3696e-05
8.24495e-05
8.06701e-05
8.19878e-05
8.18062e-05
7.96774e-05
7.68894e-05
7.35226e-05
7.51723e-05
7.01869e-05
6.84217e-05
6.88746e-05
7.02919e-05
7.16527e-05
6.82782e-05
6.91035e-05
6.88281e-05
7.29419e-05
7.12437e-05
6.99281e-05
7.0299e-05
6.90694e-05
7.13467e-05
6.51645e-05
3.5614e-05
2.13678e-05
2.61435e-05
3.83006e-05
9.91072e-05
0.000108863
0.000111401
0.000111789
0.000111933
0.000112299
0.000108849
0.000106558
0.000106027
0.000102594
0.000101316
0.000101981
9.82181e-05
9.93886e-05
9.92091e-05
9.92642e-05
9.93728e-05
9.92273e-05
9.98391e-05
0.000101375
0.000102545
9.96235e-05
9.63824e-05
9.38599e-05
9.36636e-05
9.53226e-05
9.54215e-05
9.58129e-05
9.67193e-05
9.61036e-05
8.52577e-05
8.62514e-05
8.50424e-05
8.20669e-05
7.90973e-05
7.89504e-05
7.30773e-05
6.9266e-05
6.61621e-05
6.38267e-05
6.69817e-05
6.83453e-05
7.50858e-05
8.12083e-05
8.28474e-05
8.43282e-05
8.97692e-05
9.27891e-05
9.54678e-05
9.29008e-05
8.92209e-05
9.27922e-05
9.34271e-05
9.67858e-05
0.000100297
0.000102761
0.000105453
0.000109948
0.000108735
9.58648e-05
8.33849e-05
8.28978e-05
8.05506e-05
7.71783e-05
7.34607e-05
7.44684e-05
6.82646e-05
6.2984e-05
6.10944e-05
5.83265e-05
5.90714e-05
6.06329e-05
6.52428e-05
6.55155e-05
6.89944e-05
7.29526e-05
7.61367e-05
7.77739e-05
7.74971e-05
7.90672e-05
7.53109e-05
7.46164e-05
7.50395e-05
7.64228e-05
7.79129e-05
7.80909e-05
7.8677e-05
7.92935e-05
7.96271e-05
8.12312e-05
7.26379e-05
7.67759e-05
7.28814e-05
6.84165e-05
6.43129e-05
6.2139e-05
5.76421e-05
5.53214e-05
5.62491e-05
5.95776e-05
6.11397e-05
6.46689e-05
6.97718e-05
7.01608e-05
7.15422e-05
6.7115e-05
6.34474e-05
6.31941e-05
6.18754e-05
6.17213e-05
5.9874e-05
5.84486e-05
5.81144e-05
5.77031e-05
5.85735e-05
5.85031e-05
6.01699e-05
6.19415e-05
6.36214e-05
6.27527e-05
5.53432e-05
5.58386e-05
6.23591e-05
6.59107e-05
6.6268e-05
6.71393e-05
6.84852e-05
6.87049e-05
6.84669e-05
6.72378e-05
6.51359e-05
6.36882e-05
6.04578e-05
5.81456e-05
5.61275e-05
5.6302e-05
5.64266e-05
5.64002e-05
5.63092e-05
5.64495e-05
5.68964e-05
5.73701e-05
5.7704e-05
5.81169e-05
5.72885e-05
5.63963e-05
5.70461e-05
5.68405e-05
5.60609e-05
5.65709e-05
5.39815e-05
5.54166e-05
5.61768e-05
4.88697e-05
5.32306e-05
5.51311e-05
5.07879e-05
5.04238e-05
4.89941e-05
5.06957e-05
5.17534e-05
5.08177e-05
5.15552e-05
5.23723e-05
5.11374e-05
5.22578e-05
5.01372e-05
4.93366e-05
4.75199e-05
4.61596e-05
4.63733e-05
4.69065e-05
4.67859e-05
4.84028e-05
5.09632e-05
5.47955e-05
5.4999e-05
5.25971e-05
4.33792e-05
4.1109e-05
5.77984e-05
4.02879e-05
4.04432e-05
5.39068e-05
7.95145e-05
0.000110148
0.000125353
0.000130948
0.000119492
9.82922e-05
8.73124e-05
0.00010226
0.000148815
0.000194668
1.83593e-05
2.31871e-05
2.05034e-05
1.95301e-05
1.89892e-05
1.67466e-05
1.62666e-05
2.415e-05
5.16847e-05
8.47383e-05
9.04535e-05
8.04533e-05
6.53106e-05
4.89895e-05
3.57853e-05
2.77295e-05
2.82468e-05
2.97485e-05
3.2266e-05
3.46479e-05
3.54485e-05
3.49636e-05
3.33073e-05
3.17841e-05
3.04667e-05
3.36219e-05
3.72528e-05
4.25038e-05
3.70423e-05
2.06937e-05
5.53413e-05
6.27947e-05
6.61566e-05
7.7435e-05
9.05558e-05
9.25416e-05
9.2826e-05
9.18159e-05
9.08273e-05
8.21208e-05
7.57294e-05
7.235e-05
6.78871e-05
6.53547e-05
6.14431e-05
5.92245e-05
5.70692e-05
5.52529e-05
5.33971e-05
5.21057e-05
5.17993e-05
5.12551e-05
5.15822e-05
5.10824e-05
5.43176e-05
6.14584e-05
6.82908e-05
8.00933e-05
8.46251e-05
7.52977e-05
7.76567e-05
8.581e-05
9.13564e-05
9.10219e-05
8.53415e-05
7.85079e-05
7.44818e-05
7.45639e-05
7.65828e-05
7.83043e-05
7.73547e-05
7.47703e-05
7.25786e-05
7.26311e-05
7.82559e-05
8.03948e-05
7.66276e-05
6.97022e-05
6.32691e-05
5.78876e-05
5.37035e-05
5.29196e-05
5.23966e-05
5.24947e-05
5.43581e-05
5.57332e-05
6.12985e-05
6.99197e-05
7.74549e-05
7.89053e-05
9.72651e-05
9.64618e-05
9.11934e-05
8.99586e-05
9.15745e-05
9.42415e-05
9.57178e-05
9.56344e-05
9.85002e-05
9.37287e-05
8.87346e-05
8.47866e-05
8.27372e-05
8.13862e-05
8.01263e-05
8.06337e-05
8.1715e-05
8.4317e-05
8.65945e-05
8.99263e-05
9.37465e-05
9.26012e-05
9.23064e-05
9.59909e-05
8.90659e-05
8.59461e-05
8.52925e-05
8.53784e-05
8.97747e-05
8.92742e-05
8.7105e-05
8.6701e-05
8.60478e-05
8.83081e-05
8.87212e-05
8.84884e-05
8.83621e-05
9.15535e-05
9.77418e-05
0.000103724
0.000105444
0.000104968
0.000101158
9.68962e-05
9.67565e-05
9.69941e-05
0.00010124
0.000105402
0.000110132
0.000115104
0.000117665
0.000117924
0.000118148
0.000117058
0.000115128
0.000110635
0.00010881
0.000106999
0.000105548
0.000105837
6.6327e-05
7.77634e-05
8.38292e-05
8.67645e-05
8.65897e-05
8.82111e-05
8.87817e-05
8.97349e-05
8.18476e-05
7.43877e-05
7.38133e-05
6.90881e-05
6.91521e-05
7.25784e-05
7.07295e-05
7.29747e-05
7.50481e-05
7.55771e-05
7.5352e-05
7.4505e-05
7.25536e-05
6.95918e-05
7.15031e-05
7.17417e-05
7.05764e-05
6.94728e-05
5.30087e-05
2.7678e-05
2.43128e-05
3.96785e-05
0.000104037
0.000109645
0.000111919
0.000112073
0.00011231
0.000109358
0.000106616
0.000105708
0.000104019
0.000102404
0.000102532
0.000101159
0.000100058
9.91466e-05
9.80201e-05
9.85529e-05
9.9467e-05
9.94239e-05
9.88518e-05
9.9332e-05
0.000100785
0.000100384
9.71387e-05
9.36856e-05
9.16109e-05
9.36266e-05
9.50519e-05
9.54645e-05
9.68367e-05
9.6925e-05
8.70272e-05
8.74887e-05
8.40634e-05
7.93792e-05
7.7985e-05
7.0246e-05
6.28849e-05
5.82732e-05
5.46423e-05
5.32175e-05
5.3347e-05
5.71556e-05
6.38917e-05
6.91084e-05
8.13793e-05
8.10929e-05
8.69083e-05
9.05013e-05
9.9282e-05
9.4581e-05
9.1191e-05
9.12913e-05
9.29253e-05
9.83353e-05
0.000100956
0.000101263
0.000103684
0.000107386
0.000112423
0.000101439
8.51754e-05
8.18771e-05
7.85231e-05
7.50426e-05
7.14897e-05
6.38348e-05
5.7986e-05
5.17932e-05
4.80499e-05
4.71829e-05
4.63711e-05
4.83813e-05
5.15533e-05
5.7455e-05
6.47259e-05
6.66352e-05
7.1743e-05
7.46029e-05
7.56756e-05
7.80169e-05
7.92027e-05
7.61005e-05
7.57059e-05
7.73036e-05
7.78346e-05
7.83506e-05
7.93204e-05
7.86765e-05
7.95946e-05
8.16168e-05
7.5733e-05
7.56589e-05
6.98856e-05
6.42655e-05
5.76633e-05
4.81868e-05
4.1372e-05
3.90323e-05
4.02025e-05
4.50545e-05
5.22866e-05
6.26834e-05
6.41745e-05
6.91572e-05
7.02202e-05
6.93303e-05
6.41935e-05
6.19914e-05
6.21696e-05
6.25359e-05
6.04136e-05
5.86696e-05
5.78416e-05
5.71534e-05
5.7347e-05
5.79059e-05
6.09842e-05
6.20162e-05
6.37372e-05
6.24799e-05
5.53375e-05
5.78521e-05
6.47372e-05
6.80117e-05
6.93992e-05
7.29005e-05
7.40078e-05
7.61951e-05
7.58413e-05
7.43079e-05
7.21294e-05
6.90501e-05
6.4975e-05
6.09875e-05
5.76131e-05
5.52851e-05
5.60116e-05
5.5758e-05
5.53145e-05
5.57356e-05
5.63787e-05
5.81767e-05
5.68816e-05
5.65264e-05
5.72153e-05
5.73023e-05
5.6398e-05
5.63509e-05
5.60381e-05
5.6588e-05
5.06006e-05
5.51618e-05
5.75054e-05
5.41991e-05
5.48344e-05
5.37494e-05
5.07987e-05
5.03717e-05
5.20133e-05
5.32436e-05
5.66091e-05
6.01166e-05
6.17345e-05
6.14552e-05
6.03127e-05
5.7307e-05
5.3765e-05
5.14001e-05
4.89868e-05
4.59355e-05
4.51142e-05
4.53824e-05
4.70851e-05
4.81188e-05
5.3022e-05
5.4942e-05
5.33694e-05
4.56738e-05
3.7919e-05
4.13166e-05
3.4975e-05
3.35938e-05
5.05635e-05
8.95428e-05
0.000118141
0.000135669
0.000146383
0.000156781
0.000157008
0.000131379
0.000100542
9.97997e-05
0.000136841
0.000192592
1.83773e-05
2.32886e-05
1.98057e-05
1.78504e-05
1.63187e-05
1.3626e-05
1.66095e-05
3.0682e-05
6.68574e-05
9.34674e-05
8.81133e-05
7.24075e-05
6.12494e-05
3.93488e-05
2.81387e-05
2.7472e-05
3.02206e-05
3.52727e-05
3.82005e-05
4.39161e-05
4.62892e-05
4.53603e-05
4.08472e-05
3.76085e-05
3.37469e-05
3.2121e-05
3.68171e-05
4.23941e-05
3.9979e-05
2.14998e-05
5.32605e-05
6.36616e-05
6.15717e-05
7.16384e-05
8.67918e-05
9.81426e-05
9.31594e-05
9.26295e-05
9.00744e-05
7.91835e-05
7.16191e-05
6.86491e-05
6.56025e-05
6.33828e-05
6.08149e-05
5.85119e-05
5.63317e-05
5.28386e-05
5.07068e-05
4.98513e-05
4.93055e-05
4.97007e-05
4.99604e-05
4.98467e-05
5.06945e-05
5.50915e-05
6.48955e-05
7.50779e-05
8.39501e-05
7.71256e-05
7.66924e-05
8.54012e-05
9.05271e-05
8.85202e-05
8.12741e-05
7.53119e-05
7.50356e-05
7.91929e-05
8.4554e-05
8.69129e-05
8.48365e-05
7.95072e-05
7.40284e-05
7.13924e-05
7.65214e-05
7.88062e-05
7.36061e-05
6.56188e-05
5.85411e-05
5.30082e-05
5.11943e-05
4.86026e-05
4.63501e-05
4.64909e-05
4.87679e-05
5.2287e-05
5.54205e-05
6.4427e-05
7.39468e-05
7.76614e-05
9.62618e-05
9.53324e-05
9.35324e-05
8.95638e-05
9.18613e-05
9.42314e-05
9.53388e-05
9.9243e-05
9.26246e-05
8.64701e-05
8.21842e-05
7.97858e-05
7.84194e-05
7.74152e-05
7.73476e-05
7.67356e-05
7.65563e-05
7.80954e-05
8.1946e-05
8.60381e-05
9.01888e-05
9.39808e-05
9.23782e-05
9.70425e-05
9.19855e-05
8.69894e-05
8.10483e-05
7.70979e-05
8.14569e-05
8.94703e-05
8.75296e-05
8.66727e-05
8.663e-05
8.76251e-05
8.82698e-05
8.80621e-05
8.83054e-05
9.36247e-05
9.98664e-05
0.000106077
0.00010749
0.000106897
0.000102753
9.67126e-05
9.57357e-05
9.6748e-05
0.00010242
0.000109304
0.000115565
0.000121478
0.000126203
0.000129205
0.000126415
0.000125344
0.000121832
0.0001169
0.000110417
0.000107492
0.000105
0.000104335
6.79715e-05
7.99284e-05
8.47952e-05
8.75733e-05
8.99793e-05
9.24579e-05
9.17584e-05
8.97523e-05
8.7038e-05
7.41982e-05
7.28193e-05
6.8748e-05
7.14736e-05
7.18114e-05
7.50933e-05
7.94839e-05
8.25614e-05
8.54462e-05
8.54766e-05
8.23889e-05
7.81344e-05
7.43072e-05
6.92592e-05
7.23013e-05
6.94153e-05
7.06889e-05
6.61311e-05
3.90809e-05
2.8599e-05
4.10681e-05
0.000107972
0.000111494
0.00011194
0.000110947
0.000110467
0.000106626
0.0001061
0.000104984
0.000102604
0.000103058
0.000102084
9.8523e-05
9.9126e-05
9.74947e-05
9.84231e-05
9.76485e-05
9.75712e-05
9.81842e-05
9.78723e-05
9.75003e-05
9.88433e-05
9.97115e-05
9.76707e-05
9.53422e-05
9.25945e-05
9.49322e-05
9.50611e-05
9.65107e-05
9.84691e-05
9.74345e-05
8.99938e-05
8.7466e-05
8.14713e-05
7.98726e-05
6.99955e-05
6.12408e-05
5.35958e-05
4.80713e-05
4.63835e-05
4.35288e-05
4.5624e-05
4.7504e-05
5.43051e-05
5.97792e-05
7.20114e-05
8.05409e-05
8.46624e-05
8.80316e-05
9.68048e-05
9.54506e-05
9.47699e-05
9.20501e-05
9.46476e-05
9.92035e-05
0.000101018
0.000100726
0.00010045
0.000105994
0.000112278
0.000104563
8.40577e-05
8.11836e-05
7.72787e-05
7.60379e-05
6.6191e-05
5.5551e-05
4.85455e-05
4.44635e-05
4.09961e-05
3.87421e-05
3.83685e-05
3.84407e-05
4.12361e-05
4.61681e-05
5.3452e-05
6.36945e-05
6.70304e-05
7.08831e-05
7.4271e-05
7.64992e-05
7.94198e-05
7.81279e-05
7.76825e-05
7.86265e-05
7.83939e-05
7.78677e-05
7.86149e-05
7.94278e-05
8.04104e-05
8.29862e-05
7.6792e-05
7.39241e-05
6.6867e-05
6.11289e-05
4.65116e-05
3.65568e-05
2.79564e-05
2.45671e-05
2.59807e-05
3.21059e-05
3.96049e-05
5.11909e-05
6.03281e-05
6.64119e-05
6.92394e-05
6.90307e-05
6.47156e-05
6.19141e-05
6.16051e-05
6.27204e-05
6.16056e-05
6.01943e-05
5.84839e-05
5.70972e-05
5.61951e-05
5.76773e-05
5.95462e-05
6.20863e-05
6.33071e-05
6.27028e-05
5.53232e-05
5.95397e-05
6.69699e-05
6.99626e-05
7.38373e-05
7.89546e-05
8.12563e-05
8.48603e-05
8.39559e-05
8.25341e-05
7.92305e-05
7.45293e-05
6.94131e-05
6.42607e-05
5.95692e-05
5.61439e-05
5.58384e-05
5.53893e-05
5.52065e-05
5.58845e-05
5.70547e-05
5.72901e-05
5.54183e-05
5.50441e-05
5.6071e-05
5.8049e-05
5.60447e-05
5.57442e-05
5.61626e-05
5.6594e-05
5.1119e-05
5.41465e-05
5.83823e-05
5.62883e-05
5.4099e-05
5.2959e-05
5.02892e-05
5.24956e-05
5.38406e-05
6.00002e-05
6.61741e-05
7.00152e-05
7.10833e-05
7.07557e-05
6.91431e-05
6.60307e-05
6.07241e-05
5.4508e-05
5.0532e-05
4.70296e-05
4.50231e-05
4.42618e-05
4.5294e-05
4.84864e-05
5.46631e-05
5.4322e-05
4.84233e-05
3.90499e-05
3.68487e-05
4.24582e-05
3.1561e-05
4.1656e-05
7.63511e-05
0.000114114
0.000111352
0.000102147
0.000108223
0.000128295
0.000153042
0.000147608
0.000115578
0.00010015
0.000129938
0.00019259
1.81156e-05
2.3788e-05
1.92319e-05
1.60724e-05
1.39116e-05
1.34578e-05
1.5649e-05
3.40904e-05
7.55834e-05
9.90005e-05
8.45216e-05
6.64982e-05
5.65191e-05
3.53818e-05
2.66212e-05
2.8421e-05
3.40257e-05
3.96995e-05
4.82323e-05
5.52334e-05
6.0199e-05
6.0923e-05
5.54641e-05
4.53121e-05
3.86881e-05
3.22147e-05
3.56277e-05
4.16643e-05
4.12857e-05
2.36719e-05
5.04526e-05
6.23655e-05
6.07069e-05
6.52735e-05
7.43963e-05
8.66698e-05
9.12456e-05
9.06148e-05
8.31787e-05
7.54328e-05
6.6921e-05
6.59747e-05
6.42199e-05
6.26457e-05
6.03689e-05
5.84421e-05
5.40089e-05
5.02045e-05
4.84986e-05
4.86702e-05
4.91451e-05
4.88188e-05
4.94244e-05
4.93549e-05
4.93302e-05
5.16857e-05
5.99456e-05
7.11718e-05
8.27112e-05
7.76969e-05
7.63329e-05
8.49493e-05
8.98816e-05
8.68001e-05
7.88047e-05
7.52114e-05
7.6755e-05
8.2142e-05
8.87796e-05
9.19962e-05
8.914e-05
8.18056e-05
7.54166e-05
7.14635e-05
7.60199e-05
7.74811e-05
7.08191e-05
6.18353e-05
5.4614e-05
5.15246e-05
4.61098e-05
4.33205e-05
4.27946e-05
4.31393e-05
4.49743e-05
4.82238e-05
5.39698e-05
6.0199e-05
7.08325e-05
7.65556e-05
9.5107e-05
9.30486e-05
9.10312e-05
9.00383e-05
9.2698e-05
9.48098e-05
9.52145e-05
9.50173e-05
8.70996e-05
8.22034e-05
7.95023e-05
7.88686e-05
7.95081e-05
8.11881e-05
8.22681e-05
8.11509e-05
7.87488e-05
7.63028e-05
7.7605e-05
8.16303e-05
8.70317e-05
9.19769e-05
9.5531e-05
9.69088e-05
9.32051e-05
8.75482e-05
7.91941e-05
7.36161e-05
7.89729e-05
8.93581e-05
8.72633e-05
8.6771e-05
8.63306e-05
8.67482e-05
8.79819e-05
8.80314e-05
8.77782e-05
9.20467e-05
9.83199e-05
0.000104178
0.000107197
0.000106549
0.000103053
9.61402e-05
9.46593e-05
9.66296e-05
0.000104348
0.000112131
0.000119715
0.000125507
0.000131081
0.000134275
0.000136199
0.00013233
0.000126125
0.000119864
0.000113208
0.000107871
0.000104332
0.000104074
6.9704e-05
8.15296e-05
8.63017e-05
8.89205e-05
9.3212e-05
9.23999e-05
9.38243e-05
9.13111e-05
8.69114e-05
7.43965e-05
7.2217e-05
6.8438e-05
6.95397e-05
7.45411e-05
7.90279e-05
8.52005e-05
8.86589e-05
8.97898e-05
8.94043e-05
8.83255e-05
8.43928e-05
7.72439e-05
7.33319e-05
6.91582e-05
6.91091e-05
7.10714e-05
7.28076e-05
4.92532e-05
3.48085e-05
4.03701e-05
0.000108834
0.000110976
0.000111676
0.000111849
0.000107343
0.000106181
0.000105608
0.000104318
0.000101938
0.000103041
9.85896e-05
9.71642e-05
9.54654e-05
9.54097e-05
9.48865e-05
9.76058e-05
9.77597e-05
9.81109e-05
9.81373e-05
9.73911e-05
9.71542e-05
9.89525e-05
9.8373e-05
9.62697e-05
9.55328e-05
9.56172e-05
9.69999e-05
9.50108e-05
9.68297e-05
9.76853e-05
9.15925e-05
8.52781e-05
7.87274e-05
7.34612e-05
6.3127e-05
5.46285e-05
4.81351e-05
4.16242e-05
3.69308e-05
3.51104e-05
3.68007e-05
3.90473e-05
4.7599e-05
5.25692e-05
6.54571e-05
7.41644e-05
8.29772e-05
8.70141e-05
9.43515e-05
9.78479e-05
9.60235e-05
9.43027e-05
9.78468e-05
9.90718e-05
9.99976e-05
9.91515e-05
0.000101906
0.000103347
0.000112661
0.000106509
8.52465e-05
8.17868e-05
7.71452e-05
7.27948e-05
6.0401e-05
5.22406e-05
4.34435e-05
4.13042e-05
3.93349e-05
3.64492e-05
3.57867e-05
3.67869e-05
3.82159e-05
3.9444e-05
4.5884e-05
5.38921e-05
6.37272e-05
6.89765e-05
7.25604e-05
7.45988e-05
7.85801e-05
7.98614e-05
8.00676e-05
7.93925e-05
7.72254e-05
7.68221e-05
7.83297e-05
7.94714e-05
8.06388e-05
8.29283e-05
7.76185e-05
7.14283e-05
6.29033e-05
5.14147e-05
3.68853e-05
2.50615e-05
2.02738e-05
1.89304e-05
1.93188e-05
2.2109e-05
2.94366e-05
4.04741e-05
5.65808e-05
6.30795e-05
6.78253e-05
6.889e-05
6.59317e-05
6.12687e-05
6.06948e-05
6.22895e-05
6.34097e-05
6.26151e-05
6.07104e-05
5.84654e-05
5.71744e-05
5.55345e-05
5.72773e-05
6.00017e-05
6.25013e-05
6.30871e-05
5.52855e-05
6.09696e-05
6.84038e-05
7.32699e-05
7.86945e-05
8.36247e-05
8.87638e-05
9.12123e-05
9.09222e-05
8.96453e-05
8.57306e-05
8.0972e-05
7.45657e-05
6.81845e-05
6.23873e-05
5.79155e-05
5.50362e-05
5.44976e-05
5.52219e-05
5.58074e-05
5.69491e-05
5.72468e-05
5.51836e-05
5.44702e-05
5.58865e-05
5.80905e-05
5.5705e-05
5.60132e-05
5.63506e-05
5.66021e-05
4.9594e-05
4.97874e-05
5.72916e-05
5.69269e-05
5.44416e-05
5.09716e-05
5.14923e-05
5.2973e-05
5.83962e-05
6.82228e-05
7.30856e-05
8.03391e-05
8.1942e-05
8.40233e-05
8.02578e-05
7.3483e-05
6.77776e-05
5.97815e-05
5.42323e-05
4.90233e-05
4.43901e-05
4.30135e-05
4.40067e-05
4.81616e-05
5.46988e-05
5.54182e-05
4.4469e-05
3.8349e-05
4.05619e-05
5.07029e-05
3.26584e-05
5.72163e-05
0.000101922
9.26067e-05
7.68622e-05
7.05095e-05
7.97011e-05
0.000100058
0.000135891
0.000147496
0.000118444
0.000101154
0.000129813
0.000194372
1.74138e-05
2.49787e-05
1.95491e-05
1.50132e-05
1.39068e-05
1.26211e-05
1.53062e-05
3.31754e-05
7.89933e-05
0.000101242
8.42192e-05
6.29183e-05
5.32611e-05
3.11942e-05
2.60417e-05
3.03911e-05
3.55837e-05
4.50276e-05
5.37468e-05
6.18186e-05
6.93408e-05
7.16357e-05
6.70746e-05
5.54081e-05
4.18202e-05
3.37919e-05
3.51799e-05
4.10746e-05
4.18736e-05
2.45896e-05
4.60955e-05
5.96965e-05
5.93745e-05
5.76244e-05
6.17874e-05
6.70795e-05
7.0432e-05
7.29451e-05
7.24003e-05
6.9342e-05
6.23536e-05
6.3226e-05
6.32219e-05
6.22397e-05
6.07807e-05
5.79118e-05
5.21232e-05
4.84619e-05
4.79024e-05
4.87918e-05
4.98999e-05
5.0078e-05
4.99993e-05
4.95741e-05
4.89928e-05
5.02239e-05
5.70542e-05
6.90166e-05
8.18006e-05
7.74826e-05
7.41849e-05
8.32056e-05
8.72594e-05
8.5492e-05
7.97703e-05
7.63898e-05
7.68236e-05
8.17535e-05
9.03027e-05
9.38371e-05
8.99129e-05
8.13525e-05
7.46559e-05
7.10889e-05
7.6507e-05
7.67726e-05
6.7776e-05
5.90006e-05
5.46456e-05
4.79344e-05
4.28059e-05
4.14892e-05
3.95407e-05
3.96524e-05
4.22377e-05
4.61275e-05
5.11199e-05
5.81101e-05
6.88949e-05
7.52733e-05
9.58421e-05
9.47952e-05
9.15769e-05
9.15404e-05
9.30888e-05
9.54325e-05
9.99713e-05
9.11121e-05
8.4337e-05
7.99672e-05
7.83939e-05
8.00816e-05
8.21834e-05
8.41034e-05
8.52463e-05
8.51583e-05
8.31101e-05
7.91953e-05
7.68786e-05
7.88623e-05
8.45419e-05
8.98147e-05
9.46195e-05
9.65316e-05
9.34884e-05
8.78011e-05
7.8083e-05
7.30573e-05
8.08206e-05
8.73817e-05
8.85235e-05
8.74637e-05
8.60547e-05
8.57173e-05
8.7176e-05
8.82235e-05
8.74735e-05
9.06013e-05
9.42335e-05
9.90264e-05
0.000101946
0.00010387
0.000102224
9.63394e-05
9.36211e-05
9.70054e-05
0.000104569
0.000113947
0.000122326
0.000131511
0.000135809
0.000140299
0.000140563
0.000138335
0.000133217
0.000122299
0.000115012
0.000108192
0.000103679
0.000102498
6.59975e-05
8.27574e-05
8.75877e-05
9.13336e-05
9.20226e-05
9.16747e-05
9.12493e-05
9.1963e-05
8.71344e-05
7.45216e-05
7.20587e-05
7.06285e-05
7.11174e-05
7.55261e-05
8.15606e-05
8.79394e-05
9.08279e-05
9.3617e-05
9.50606e-05
9.23983e-05
8.68004e-05
8.17081e-05
7.49474e-05
6.98745e-05
6.93876e-05
7.17153e-05
6.93464e-05
5.57431e-05
4.04852e-05
4.45409e-05
0.000110244
0.000110787
0.000109898
0.000109551
0.000106728
0.00010512
0.00010602
0.000102459
0.000101831
0.000101717
9.48955e-05