/*--------------------------------*- C++ -*----------------------------------*\
| =========                 |                                                 |
| \\      /  F ield         | OpenFOAM: The Open Source CFD Toolbox           |
|  \\    /   O peration     | Version:  2.1.1                                 |
|   \\  /    A nd           | Web:      www.OpenFOAM.org                      |
|    \\/     M anipulation  |                                                 |
\*---------------------------------------------------------------------------*/
FoamFile
{
    version     2.0;
    format      ascii;
    class       volScalarField;
    location    "0.007000000";
    object      HO2;
}
// * * * * * * * * * * * * * * * * * * * * * * * * * * * * * * * * * * * * * //

dimensions      [0 0 0 0 0 0 0];

internalField   nonuniform List<scalar> 
12384
(
1.25597e-05
1.28081e-05
1.28892e-05
1.29022e-05
1.26469e-05
1.25086e-05
1.2025e-05
1.18054e-05
1.07077e-05
1.04031e-05
1.00724e-05
9.99005e-06
9.95009e-06
8.68379e-06
9.90952e-06
1.06543e-05
1.1209e-05
1.13728e-05
1.14069e-05
1.11975e-05
1.09155e-05
1.06033e-05
1.03177e-05
1.02166e-05
1.02386e-05
1.01628e-05
1.0034e-05
9.86343e-06
9.68336e-06
9.54626e-06
9.42776e-06
9.3074e-06
9.20113e-06
9.11339e-06
8.94393e-06
8.55148e-06
8.38317e-06
8.20081e-06
7.97564e-06
7.74214e-06
7.75032e-06
9.01705e-06
1.06398e-05
1.00144e-05
5.49575e-06
3.02351e-06
2.59117e-06
2.32286e-06
2.04319e-06
1.81651e-06
1.63149e-06
1.52102e-06
1.52168e-06
1.43473e-06
1.47164e-06
1.55226e-06
1.67476e-06
1.8583e-06
2.0054e-06
2.17985e-06
2.30987e-06
2.39175e-06
2.45688e-06
2.46906e-06
2.4261e-06
2.3405e-06
2.29679e-06
2.18401e-06
2.03187e-06
1.83563e-06
1.59658e-06
1.76069e-06
3.27019e-06
4.85118e-06
2.24356e-06
2.1349e-06
1.78268e-06
1.43346e-06
1.26994e-06
1.16974e-06
1.14566e-06
1.14265e-06
1.16008e-06
1.18098e-06
1.21351e-06
1.23579e-06
1.24969e-06
1.2692e-06
1.30009e-06
1.34271e-06
1.38504e-06
1.48986e-06
1.4852e-06
1.56039e-06
1.4987e-06
1.57885e-06
1.55406e-06
1.58687e-06
1.64374e-06
1.68926e-06
1.66819e-06
1.74351e-06
1.84367e-06
1.75123e-06
5.58924e-07
6.08423e-07
6.24148e-07
6.31025e-07
6.30487e-07
6.11086e-07
6.01211e-07
5.91063e-07
5.84505e-07
5.77154e-07
5.80151e-07
5.71068e-07
5.68594e-07
5.57911e-07
5.48742e-07
5.58007e-07
5.5677e-07
5.79168e-07
6.04508e-07
6.28463e-07
6.66311e-07
1.00122e-06
1.28787e-06
1.24925e-06
1.04511e-06
9.16232e-07
8.17567e-07
7.6528e-07
8.54474e-07
1.08679e-06
7.85683e-08
1.0428e-07
1.05113e-07
1.01167e-07
1.04621e-07
1.16914e-07
1.18178e-07
1.20525e-07
1.18958e-07
1.24166e-07
1.26758e-07
1.33162e-07
1.36884e-07
1.3521e-07
1.40412e-07
1.45006e-07
1.48224e-07
1.50887e-07
1.53135e-07
1.56102e-07
1.56363e-07
1.58845e-07
1.58953e-07
1.60518e-07
1.66466e-07
1.71775e-07
1.74791e-07
1.78688e-07
2.02143e-07
1.98677e-07
9.27608e-07
3.28005e-07
2.35166e-07
2.01459e-07
2.26084e-07
2.75062e-07
3.15139e-07
3.47337e-07
3.67941e-07
3.85574e-07
3.94746e-07
3.98013e-07
5.86653e-07
5.78564e-07
5.34647e-07
5.44264e-07
5.66026e-07
5.35025e-07
5.35327e-07
3.5193e-07
3.54822e-07
3.58533e-07
3.47636e-07
3.18521e-07
8.90743e-07
5.71086e-06
5.93945e-06
5.64993e-06
5.39135e-06
5.30349e-06
3.32519e-07
1.54918e-07
1.27916e-07
1.23725e-07
1.19465e-07
1.15673e-07
1.1033e-07
1.13167e-07
1.14282e-07
1.02525e-07
9.15552e-08
9.7771e-08
9.17656e-08
1.00967e-07
9.78158e-08
1.00329e-07
1.06584e-07
9.86719e-08
1.06657e-07
1.17149e-07
1.66141e-07
1.59172e-07
1.58261e-07
1.48512e-07
1.46459e-07
1.41403e-07
1.3767e-07
1.38012e-07
1.36858e-07
1.44217e-07
2.79808e-07
2.56158e-07
2.81633e-07
2.99321e-07
3.08501e-07
3.07287e-07
3.22921e-07
3.05199e-07
3.06885e-07
2.91842e-07
3.09707e-07
2.97724e-07
3.27443e-07
3.33173e-07
3.58248e-07
3.77263e-07
3.34533e-07
1.10861e-07
3.56478e-08
3.8146e-08
4.12998e-08
4.74772e-08
5.05658e-08
5.95361e-08
6.11119e-08
6.24408e-08
6.04805e-08
5.43536e-08
3.58791e-08
2.32729e-08
2.07779e-07
1.88587e-07
1.89523e-07
1.91211e-07
1.84462e-07
1.59626e-07
1.5044e-07
1.42598e-07
1.40591e-07
1.18039e-07
1.3096e-07
1.0542e-07
1.16421e-07
9.23849e-08
1.11531e-07
1.36513e-07
1.70803e-07
1.7753e-07
7.7391e-08
4.54858e-08
5.04609e-08
4.579e-08
5.0735e-08
5.32326e-08
5.7817e-08
5.94593e-08
5.62813e-08
5.58654e-08
5.07901e-08
4.87042e-08
4.15427e-08
5.37102e-08
7.25103e-08
8.50301e-08
9.15028e-08
8.06045e-08
6.35782e-08
7.58279e-08
7.5844e-08
7.37627e-08
6.46147e-08
5.42699e-08
4.28826e-08
3.78521e-08
2.4875e-08
1.70463e-08
1.49903e-08
1.6177e-08
1.81264e-08
1.88987e-08
1.92784e-08
1.94243e-08
2.02822e-08
2.02256e-08
2.00926e-08
1.90814e-08
1.91312e-08
1.89484e-08
1.75045e-08
1.54655e-08
3.52076e-08
4.38806e-08
4.15478e-08
2.7617e-08
1.8309e-08
2.43836e-08
2.10884e-08
2.02771e-08
1.95065e-08
1.87333e-08
2.56259e-08
2.5631e-08
2.68357e-08
2.69282e-08
2.69867e-08
2.74465e-08
2.78345e-08
2.81139e-08
2.83525e-08
2.83666e-08
2.77068e-08
2.71501e-08
2.52552e-08
2.48189e-08
2.36389e-08
2.41592e-08
2.49626e-08
2.71327e-08
3.94205e-08
3.99329e-08
1.09671e-08
1.07517e-08
9.14401e-09
7.98751e-09
8.60967e-09
1.99457e-08
3.20949e-08
1.59329e-09
1.33275e-09
1.27164e-09
1.18556e-09
1.121e-09
1.04865e-09
1.03768e-09
1.06972e-09
1.08849e-09
1.14024e-09
1.19958e-09
1.25157e-09
1.3137e-09
1.36263e-09
1.42733e-09
1.46506e-09
1.60579e-09
1.89444e-09
2.81495e-09
3.54612e-09
3.92399e-09
1.93112e-09
6.82545e-10
1.37894e-05
1.43874e-05
1.4388e-05
1.42866e-05
1.39539e-05
1.36289e-05
1.31901e-05
1.28506e-05
1.19196e-05
1.12938e-05
1.00819e-05
9.53633e-06
9.67676e-06
8.72954e-06
1.00017e-05
1.08915e-05
1.13872e-05
1.13761e-05
1.10833e-05
1.06867e-05
1.04772e-05
1.0419e-05
1.07257e-05
1.09445e-05
1.08716e-05
1.01166e-05
9.55481e-06
9.23468e-06
9.14102e-06
9.25791e-06
9.81685e-06
1.00075e-05
1.01022e-05
1.01627e-05
1.00403e-05
9.88531e-06
9.58939e-06
9.17882e-06
8.40737e-06
7.86622e-06
7.52696e-06
7.95603e-06
9.87618e-06
1.05656e-05
5.35864e-06
3.02875e-06
2.62361e-06
2.24079e-06
1.82909e-06
1.50729e-06
1.32239e-06
1.27486e-06
1.31252e-06
1.46003e-06
1.59628e-06
1.84498e-06
2.21973e-06
2.61705e-06
3.02017e-06
3.31632e-06
4.12673e-06
4.34357e-06
4.47851e-06
4.56027e-06
4.60138e-06
4.48984e-06
4.24997e-06
3.31834e-06
2.91837e-06
2.46741e-06
1.9288e-06
1.7065e-06
2.25316e-06
3.4438e-06
2.2336e-06
1.99886e-06
1.5835e-06
1.31896e-06
1.22687e-06
1.28795e-06
1.41613e-06
1.54353e-06
1.64612e-06
1.71207e-06
1.72905e-06
1.73197e-06
1.68988e-06
1.61031e-06
1.51035e-06
1.52809e-06
1.66552e-06
1.78762e-06
1.90366e-06
2.00702e-06
2.11074e-06
2.14667e-06
2.19221e-06
2.1742e-06
2.10235e-06
2.01781e-06
1.88825e-06
1.78279e-06
1.84836e-06
1.87324e-06
5.37608e-07
5.81194e-07
6.04941e-07
6.20518e-07
5.94424e-07
5.63728e-07
5.45391e-07
5.43172e-07
5.41398e-07
5.61479e-07
5.88595e-07
6.16953e-07
6.34275e-07
6.2979e-07
6.35723e-07
6.28663e-07
6.22309e-07
6.06865e-07
6.1771e-07
6.30617e-07
6.4095e-07
6.78652e-07
1.10823e-06
1.33237e-06
1.11732e-06
5.2979e-07
4.83869e-07
4.50971e-07
4.35626e-07
4.52906e-07
8.16956e-08
1.02768e-07
1.02651e-07
9.99548e-08
1.08489e-07
1.16113e-07
1.15368e-07
1.14346e-07
1.11536e-07
1.05954e-07
1.07523e-07
1.11858e-07
1.18674e-07
1.16961e-07
1.26709e-07
1.35999e-07
1.45084e-07
1.52248e-07
1.57983e-07
1.6233e-07
1.59459e-07
1.62463e-07
1.65418e-07
1.65845e-07
1.71577e-07
1.75278e-07
1.7591e-07
1.77233e-07
1.87381e-07
1.95351e-07
8.58463e-07
2.74624e-07
1.66087e-07
1.97564e-07
2.802e-07
3.22996e-07
3.45513e-07
3.77219e-07
4.01814e-07
5.66692e-07
6.7111e-07
8.08211e-07
8.2231e-07
8.01768e-07
7.67874e-07
7.28045e-07
7.28953e-07
7.23362e-07
7.01835e-07
6.98523e-07
6.76156e-07
5.45429e-07
3.65557e-07
3.39657e-07
3.72083e-07
1.92238e-06
5.51128e-06
5.35566e-06
4.061e-06
3.57473e-06
2.64634e-07
1.19557e-07
1.16449e-07
1.02455e-07
9.02613e-08
8.99335e-08
9.04166e-08
8.70843e-08
8.90957e-08
9.93751e-08
8.92107e-08
9.21643e-08
9.60973e-08
8.25784e-08
8.58633e-08
8.92364e-08
9.33522e-08
1.00275e-07
9.40783e-08
1.06744e-07
1.34878e-07
1.45545e-07
1.6153e-07
1.51409e-07
1.52161e-07
1.52382e-07
1.41723e-07
1.31579e-07
1.25727e-07
1.21438e-07
2.51897e-07
2.8138e-07
3.24059e-07
3.57523e-07
3.81046e-07
4.11505e-07
4.19636e-07
4.24693e-07
4.24904e-07
4.2065e-07
4.13059e-07
3.98934e-07
3.93874e-07
3.72881e-07
3.68847e-07
3.66104e-07
3.72637e-07
1.89701e-07
6.13513e-08
4.06428e-08
4.33707e-08
5.13651e-08
5.30393e-08
5.0673e-08
6.30299e-08
9.65528e-08
1.13427e-07
9.48045e-08
4.94087e-08
3.12215e-08
2.95135e-07
3.16869e-07
3.13256e-07
3.12739e-07
3.38747e-07
3.27637e-07
3.29546e-07
3.14465e-07
3.15457e-07
2.77108e-07
2.67458e-07
2.4325e-07
2.1463e-07
1.96617e-07
1.60196e-07
1.7448e-07
1.96146e-07
2.11314e-07
1.49955e-07
6.67031e-08
4.47416e-08
4.98264e-08
5.56727e-08
5.98288e-08
6.59008e-08
6.62159e-08
6.30818e-08
5.96573e-08
4.81224e-08
4.2149e-08
4.22518e-08
8.3996e-08
1.23435e-07
1.78959e-07
2.25028e-07
2.26966e-07
2.38336e-07
2.31698e-07
2.09595e-07
1.76532e-07
1.33864e-07
7.78796e-08
5.81109e-08
4.60221e-08
3.04443e-08
1.69847e-08
1.53499e-08
1.7366e-08
1.87168e-08
2.01517e-08
1.61381e-08
1.48116e-08
1.32275e-08
1.17875e-08
1.82126e-08
1.86249e-08
1.90757e-08
2.00366e-08
1.85928e-08
1.57308e-08
3.09011e-08
4.15005e-08
3.42158e-08
2.23043e-08
2.08251e-08
2.01617e-08
2.18735e-08
2.82104e-08
2.89306e-08
2.84229e-08
2.79062e-08
3.23236e-08
3.08471e-08
3.10228e-08
3.10943e-08
3.63708e-08
3.76654e-08
3.85475e-08
3.94502e-08
4.0219e-08
4.1264e-08
4.21441e-08
4.1593e-08
3.60389e-08
3.11289e-08
2.71678e-08
2.5195e-08
2.62611e-08
3.64199e-08
4.0229e-08
1.41559e-08
1.51468e-08
1.31985e-08
5.5395e-09
6.09508e-09
2.98233e-08
5.58117e-09
1.47754e-09
1.25758e-09
1.20098e-09
8.59835e-10
9.64446e-10
9.62105e-10
9.43955e-10
9.36035e-10
9.27708e-10
9.08016e-10
8.93831e-10
8.76882e-10
8.65878e-10
6.44265e-10
7.41555e-10
1.12607e-09
1.26545e-09
1.63732e-09
3.23141e-09
4.45261e-09
3.87254e-09
1.64023e-09
6.43711e-10
1.46284e-05
1.48378e-05
1.49094e-05
1.45829e-05
1.39437e-05
1.33448e-05
1.25358e-05
1.22008e-05
1.20162e-05
1.16483e-05
1.10388e-05
9.48927e-06
9.38534e-06
8.64309e-06
1.00924e-05
1.11259e-05
1.14618e-05
1.12066e-05
1.08193e-05
1.05306e-05
1.06132e-05
1.11076e-05
1.17427e-05
1.08848e-05
9.73413e-06
9.00963e-06
8.63827e-06
8.62316e-06
9.15788e-06
1.01485e-05
1.0716e-05
1.12127e-05
1.15862e-05
1.1752e-05
1.17709e-05
1.15864e-05
1.11728e-05
1.06396e-05
9.872e-06
8.71719e-06
7.69847e-06
7.52686e-06
9.03852e-06
1.06053e-05
5.33833e-06
3.13192e-06
2.72443e-06
2.18518e-06
1.57117e-06
1.14221e-06
9.95994e-07
1.09953e-06
1.25695e-06
1.51912e-06
1.76115e-06
2.08156e-06
2.57511e-06
3.10648e-06
4.06921e-06
4.44737e-06
4.63626e-06
4.77084e-06
4.88298e-06
4.97815e-06
5.09678e-06
5.23899e-06
5.22563e-06
5.10097e-06
4.55767e-06
3.30222e-06
2.58926e-06
1.94612e-06
1.88917e-06
2.87246e-06
2.17968e-06
1.83367e-06
1.43981e-06
1.28513e-06
1.39583e-06
1.64292e-06
1.85598e-06
1.98229e-06
1.99987e-06
1.98519e-06
1.99412e-06
2.01734e-06
2.0318e-06
1.96119e-06
1.68344e-06
1.66114e-06
1.76231e-06
1.95204e-06
2.15703e-06
2.32953e-06
2.45091e-06
2.54946e-06
2.55908e-06
2.60104e-06
2.54578e-06
2.42575e-06
2.21375e-06
1.97215e-06
1.85422e-06
1.90717e-06
4.94037e-07
5.38709e-07
6.21295e-07
6.07e-07
5.77212e-07
5.34489e-07
5.25741e-07
5.47706e-07
6.22225e-07
7.12184e-07
1.25887e-06
1.50468e-06
1.66508e-06
1.72044e-06
1.72699e-06
1.67951e-06
1.55617e-06
1.34403e-06
1.15397e-06
9.63758e-07
6.53689e-07
6.50475e-07
9.05777e-07
1.19551e-06
1.23428e-06
8.64371e-07
5.44086e-07
5.04557e-07
4.40471e-07
4.0245e-07
8.14135e-08
1.00823e-07
9.80885e-08
9.95924e-08
1.07925e-07
1.11822e-07
1.04295e-07
1.01206e-07
8.74379e-08
7.88217e-08
8.26856e-08
8.93084e-08
9.51572e-08
1.06688e-07
1.21518e-07
1.35865e-07
1.49949e-07
1.6276e-07
1.66497e-07
1.74483e-07
1.76039e-07
1.71364e-07
1.7383e-07
1.75634e-07
1.81172e-07
1.81444e-07
1.80209e-07
1.76311e-07
1.78572e-07
1.88944e-07
7.48365e-07
2.32614e-07
1.39211e-07
1.99916e-07
2.30718e-07
2.34713e-07
2.53049e-07
2.86113e-07
3.35525e-07
3.82994e-07
5.52926e-07
7.43919e-07
7.49228e-07
6.96826e-07
6.16401e-07
4.95969e-07
3.60208e-07
3.6142e-07
3.60192e-07
4.68025e-07
5.2094e-07
5.80553e-07
5.67994e-07
3.55044e-07
3.46913e-07
8.61682e-07
3.01297e-06
5.22902e-06
4.10514e-06
2.9798e-06
1.66378e-07
1.11785e-07
9.83402e-08
7.74522e-08
7.79448e-08
7.67268e-08
8.63783e-08
9.10564e-08
1.06851e-07
8.93071e-08
9.25693e-08
9.15713e-08
7.36538e-08
7.6177e-08
7.50838e-08
7.77887e-08
8.22066e-08
8.61128e-08
9.36442e-08
1.04915e-07
1.22819e-07
1.54415e-07
1.77971e-07
1.65803e-07
1.9768e-07
1.8403e-07
1.53758e-07
1.46122e-07
1.38627e-07
1.17863e-07
2.64208e-07
3.11211e-07
3.46503e-07
3.83252e-07
4.31443e-07
7.24667e-07
9.22736e-07
1.10308e-06
1.18629e-06
1.30433e-06
1.25148e-06
1.11471e-06
9.50347e-07
6.62427e-07
4.56747e-07
4.10806e-07
4.32719e-07
3.64208e-07
1.27408e-07
5.05771e-08
4.25073e-08
4.82355e-08
4.93923e-08
5.66157e-08
7.82229e-08
1.04995e-07
1.28512e-07
1.33581e-07
1.07091e-07
5.23912e-08
3.36293e-07
3.22468e-07
3.21513e-07
3.48463e-07
3.72808e-07
6.12621e-07
7.22083e-07
8.65582e-07
9.1167e-07
8.92935e-07
8.12338e-07
6.69436e-07
5.15455e-07
2.82259e-07
2.45754e-07
2.20287e-07
1.92678e-07
2.11252e-07
2.15648e-07
1.0032e-07
5.48062e-08
4.64586e-08
5.07662e-08
5.92777e-08
6.83106e-08
6.41294e-08
5.93682e-08
5.84062e-08
4.65892e-08
4.81416e-08
7.20865e-08
1.20163e-07
1.80332e-07
2.42288e-07
2.86917e-07
5.46138e-07
7.29146e-07
8.19418e-07
7.45889e-07
5.51119e-07
2.48592e-07
1.70263e-07
7.88324e-08
5.58744e-08
4.07868e-08
2.17664e-08
1.53704e-08
1.68375e-08
1.84426e-08
1.99783e-08
1.56165e-08
1.33676e-08
1.87866e-08
1.68451e-08
1.7719e-08
1.71682e-08
1.81903e-08
1.95405e-08
1.8852e-08
1.55044e-08
3.17216e-08
3.64908e-08
3.15705e-08
2.57195e-08
2.73527e-08
3.03772e-08
3.36427e-08
3.40112e-08
3.38835e-08
3.22112e-08
2.94477e-08
3.45445e-08
3.06885e-08
3.29138e-08
3.18528e-08
3.64736e-08
3.75776e-08
3.73009e-08
3.61938e-08
3.74865e-08
4.17904e-08
4.66944e-08
5.00704e-08
5.24446e-08
4.5891e-08
3.48961e-08
2.78952e-08
2.60119e-08
3.41536e-08
3.98823e-08
1.35153e-08
2.16898e-08
2.99143e-08
5.66281e-09
1.25061e-08
1.27858e-08
1.99922e-09
1.37391e-09
1.02855e-09
1.13436e-09
1.20562e-09
8.96275e-10
9.85552e-10
1.0712e-09
9.13396e-10
1.07527e-09
9.6109e-10
9.32667e-10
8.56542e-10
8.04782e-10
8.2443e-10
8.53227e-10
9.92166e-10
1.19863e-09
1.79768e-09
3.53274e-09
4.06478e-09
2.7042e-09
6.9405e-10
5.79584e-10
1.54296e-05
1.51531e-05
1.48231e-05
1.41503e-05
1.28087e-05
1.1733e-05
1.06119e-05
1.03762e-05
1.06229e-05
1.13849e-05
1.11588e-05
9.83287e-06
9.20846e-06
8.59929e-06
1.01625e-05
1.12049e-05
1.14458e-05
1.10317e-05
1.07105e-05
1.06887e-05
1.11639e-05
1.19247e-05
1.15983e-05
9.72993e-06
8.07661e-06
7.54073e-06
7.51783e-06
8.65475e-06
1.00916e-05
1.09977e-05
1.17702e-05
1.21932e-05
1.24607e-05
1.26344e-05
1.26579e-05
1.26479e-05
1.24336e-05
1.20057e-05
1.11716e-05
1.00313e-05
8.38335e-06
7.39284e-06
8.06624e-06
1.04469e-05
5.43311e-06
3.31509e-06
2.9478e-06
2.26338e-06
1.39758e-06
6.71581e-07
6.3262e-07
6.49374e-07
1.22224e-06
1.6737e-06
2.02071e-06
2.29562e-06
2.79476e-06
3.82166e-06
4.29903e-06
4.43888e-06
4.54154e-06
4.70932e-06
4.86547e-06
5.03864e-06
5.16551e-06
5.22716e-06
5.40762e-06
5.5216e-06
5.36767e-06
4.7537e-06
3.23399e-06
2.33686e-06
1.8844e-06
2.56876e-06
2.13229e-06
1.71143e-06
1.35964e-06
1.36176e-06
1.62338e-06
1.89733e-06
2.01827e-06
1.97089e-06
1.85022e-06
1.7771e-06
1.81221e-06
1.91851e-06
2.01654e-06
2.04279e-06
1.81935e-06
1.70717e-06
1.83221e-06
2.08854e-06
2.37441e-06
2.56079e-06
2.70641e-06
3.30442e-06
3.47265e-06
3.47833e-06
3.37206e-06
2.74093e-06
2.51995e-06
2.1857e-06
1.91221e-06
1.90174e-06
4.6591e-07
5.33501e-07
6.32709e-07
6.14489e-07
5.65609e-07
5.28116e-07
5.50753e-07
6.31507e-07
1.16348e-06
1.63186e-06
2.04552e-06
2.3331e-06
2.54306e-06
2.60791e-06
2.59905e-06
2.56995e-06
2.43311e-06
2.20743e-06
1.86754e-06
1.4002e-06
1.09338e-06
6.61608e-07
6.62707e-07
1.04417e-06
1.29238e-06
1.10157e-06
1.02138e-06
1.1055e-06
9.04732e-07
5.0476e-07
7.98568e-08
9.87864e-08
9.40153e-08
9.74359e-08
1.04851e-07
1.05887e-07
9.61473e-08
8.20038e-08
6.98582e-08
7.51087e-08
6.08777e-08
6.9223e-08
9.28167e-08
1.10788e-07
1.29268e-07
1.37632e-07
1.56448e-07
1.65333e-07
1.71304e-07
1.82423e-07
1.78742e-07
1.74078e-07
1.77511e-07
1.81279e-07
1.89552e-07
1.80316e-07
1.83348e-07
1.78018e-07
1.74716e-07
1.82416e-07
6.51249e-07
1.65548e-07
1.19196e-07
1.04971e-07
1.22693e-07
1.12759e-07
1.18614e-07
1.13463e-07
2.22848e-07
3.53266e-07
5.80102e-07
6.99243e-07
6.62832e-07
5.46927e-07
3.59566e-07
3.38681e-07
3.18856e-07
3.13049e-07
3.12815e-07
3.28258e-07
3.51053e-07
3.65926e-07
5.34719e-07
4.95704e-07
3.49604e-07
3.60281e-07
1.37265e-06
3.75661e-06
4.20475e-06
2.80475e-06
1.2702e-07
1.05564e-07
7.30491e-08
6.71572e-08
7.8318e-08
8.71985e-08
9.66506e-08
1.04756e-07
8.84199e-08
8.38402e-08
6.03171e-08
6.42766e-08
5.63784e-08
5.25365e-08
5.01601e-08
5.76646e-08
6.8958e-08
7.65016e-08
8.239e-08
9.18708e-08
1.0628e-07
1.3161e-07
1.62158e-07
1.92273e-07
2.20408e-07
1.94915e-07
1.55823e-07
1.52554e-07
1.51426e-07
1.27272e-07
3.08136e-07
3.26898e-07
3.55007e-07
4.10039e-07
7.74925e-07
1.15814e-06
1.45627e-06
1.72252e-06
1.89059e-06
1.94511e-06
1.93359e-06
1.8366e-06
1.59343e-06
1.24352e-06
9.24783e-07
4.65709e-07
4.60917e-07
4.23352e-07
1.80961e-07
7.83604e-08
4.57827e-08
4.55545e-08
4.83003e-08
5.51934e-08
1.06328e-07
1.31126e-07
1.48615e-07
1.45002e-07
1.45377e-07
5.96835e-08
3.15145e-07
3.00672e-07
3.45761e-07
4.00248e-07
7.71218e-07
1.07801e-06
1.33339e-06
1.45301e-06
1.49313e-06
1.5408e-06
1.4491e-06
1.33435e-06
1.13729e-06
8.91797e-07
5.64662e-07
2.77322e-07
2.51348e-07
2.16032e-07
2.25253e-07
2.07135e-07
9.00764e-08
5.3515e-08
4.82452e-08
5.92145e-08
6.39844e-08
6.13088e-08
5.62111e-08
3.93277e-08
4.12261e-08
4.67954e-08
1.13259e-07
1.61824e-07
2.09405e-07
2.77834e-07
7.65539e-07
1.24729e-06
1.53137e-06
1.60087e-06
1.51963e-06
1.30991e-06
9.31974e-07
3.78048e-07
1.58208e-07
7.10655e-08
4.65647e-08
2.61949e-08
1.663e-08
1.47823e-08
1.78408e-08
2.0399e-08
1.66934e-08
1.38159e-08
1.83939e-08
1.60438e-08
1.68609e-08
1.63621e-08
1.79442e-08
1.81617e-08
1.87543e-08
1.51302e-08
3.15038e-08
3.38967e-08
2.73024e-08
3.06945e-08
2.75501e-08
3.5247e-08
2.63974e-08
3.0298e-08
2.84788e-08
2.53528e-08
3.14781e-08
3.49968e-08
3.02402e-08
3.13518e-08
3.19119e-08
2.94001e-08
3.31211e-08
3.01587e-08
2.38093e-08
2.85727e-08
3.90189e-08
5.24688e-08
9.1528e-08
1.01958e-07
7.97936e-08
4.58525e-08
3.15942e-08
2.64092e-08
3.35839e-08
3.95605e-08
7.69654e-09
1.90567e-08
4.45495e-08
1.39027e-08
1.48439e-08
5.24366e-09
1.51937e-09
1.17127e-09
1.27521e-09
1.20343e-09
1.63771e-09
2.09854e-09
2.31759e-09
2.2833e-09
2.11217e-09
1.70176e-09
1.21989e-09
1.02472e-09
9.12263e-10
7.81778e-10
7.64177e-10
7.79279e-10
8.6151e-10
1.20932e-09
2.80783e-09
4.2728e-09
2.97301e-09
9.92133e-10
3.47365e-10
6.01101e-10
1.55924e-05
1.51406e-05
1.44936e-05
1.2493e-05
1.05683e-05
9.81075e-06
9.68725e-06
9.70034e-06
9.93499e-06
1.04168e-05
1.11688e-05
1.05357e-05
9.15514e-06
8.46208e-06
1.01762e-05
1.12458e-05
1.14447e-05
1.1015e-05
1.08327e-05
1.09744e-05
1.16194e-05
1.22618e-05
1.06489e-05
8.48033e-06
7.44008e-06
7.0273e-06
7.86303e-06
9.15102e-06
1.0747e-05
1.17582e-05
1.2356e-05
1.26784e-05
1.27296e-05
1.27407e-05
1.28312e-05
1.2878e-05
1.28566e-05
1.28346e-05
1.22767e-05
1.10464e-05
9.4753e-06
7.55397e-06
7.71794e-06
1.0132e-05
5.62937e-06
4.15682e-06
3.31998e-06
2.69404e-06
1.72256e-06
9.14893e-07
6.32592e-07
6.69038e-07
1.45633e-06
1.98677e-06
2.34588e-06
2.50956e-06
2.94227e-06
4.06477e-06
4.26896e-06
4.299e-06
4.53539e-06
4.82945e-06
5.1464e-06
5.31831e-06
5.38843e-06
5.42025e-06
5.44453e-06
5.61649e-06
5.64142e-06
5.3696e-06
4.37776e-06
2.73368e-06
1.94737e-06
2.38928e-06
2.06532e-06
1.63034e-06
1.34099e-06
1.44905e-06
1.77155e-06
1.98551e-06
1.95813e-06
1.73695e-06
1.44377e-06
1.28282e-06
1.42413e-06
1.71176e-06
1.94656e-06
2.03789e-06
1.82357e-06
1.71689e-06
1.91169e-06
2.24932e-06
2.54188e-06
2.75625e-06
3.5666e-06
3.86784e-06
3.90852e-06
3.91013e-06
3.83154e-06
3.58769e-06
2.75042e-06
2.36852e-06
2.00995e-06
1.91573e-06
4.26114e-07
5.59003e-07
9.02776e-07
6.19053e-07
5.5279e-07
5.21209e-07
5.84113e-07
1.08275e-06
1.70576e-06
2.23715e-06
2.57807e-06
2.82121e-06
2.945e-06
2.97714e-06
2.99958e-06
2.96198e-06
2.88142e-06
2.75175e-06
2.49438e-06
1.99033e-06
1.43525e-06
1.05392e-06
6.61993e-07
9.50907e-07
1.2177e-06
1.17469e-06
1.27489e-06
1.57602e-06
1.34463e-06
9.24602e-07
7.92781e-08
9.76768e-08
9.88958e-08
9.23162e-08
1.00922e-07
1.02237e-07
9.19582e-08
8.13949e-08
6.54537e-08
5.72435e-08
6.1864e-08
7.03807e-08
9.33288e-08
1.08678e-07
1.2643e-07
1.37125e-07
1.57223e-07
1.71565e-07
1.7846e-07
1.83582e-07
1.84488e-07
1.92458e-07
1.78063e-07
1.93651e-07
1.92839e-07
1.93558e-07
1.80473e-07
1.78483e-07
1.70867e-07
1.73996e-07
5.54136e-07
1.31657e-07
1.08456e-07
1.0863e-07
7.81974e-08
6.1305e-08
6.30273e-08
9.07618e-08
1.49089e-07
3.36509e-07
5.5147e-07
6.42293e-07
5.43736e-07
3.60685e-07
3.24069e-07
2.9911e-07
2.82745e-07
2.61971e-07
2.62281e-07
2.85702e-07
2.9994e-07
3.47128e-07
3.56091e-07
5.2395e-07
3.54975e-07
3.37633e-07
7.66926e-07
1.9423e-06
3.74189e-06
2.67927e-06
1.07218e-07
7.752e-08
5.74408e-08
6.49729e-08
7.9677e-08
9.87137e-08
1.08526e-07
8.88734e-08
6.0794e-08
4.78945e-08
6.2102e-08
5.49291e-08
5.52704e-08
5.25758e-08
5.48935e-08
5.55162e-08
4.39167e-08
5.90446e-08
7.01247e-08
7.93571e-08
9.37405e-08
1.13179e-07
1.45808e-07
1.7377e-07
2.07758e-07
1.68583e-07
1.55046e-07
1.44329e-07
1.59036e-07
1.3742e-07
2.6817e-07
3.23972e-07
3.84296e-07
6.99776e-07
1.18264e-06
1.63019e-06
2.00716e-06
2.32014e-06
3.05177e-06
3.29808e-06
3.23891e-06
2.84848e-06
2.25075e-06
1.79486e-06
1.3919e-06
8.96943e-07
5.07387e-07
4.56032e-07
3.08111e-07
1.12537e-07
5.42709e-08
4.68216e-08
5.27975e-08
9.36135e-08
1.51627e-07
1.73311e-07
1.6612e-07
1.64291e-07
1.56801e-07
9.57692e-08
2.82294e-07
3.08041e-07
3.74469e-07
6.41017e-07
1.11589e-06
1.46201e-06
1.72578e-06
1.92451e-06
1.96198e-06
1.90521e-06
1.88874e-06
1.76639e-06
1.61214e-06
1.36998e-06
1.07056e-06
6.49143e-07
2.99742e-07
2.57796e-07
2.45792e-07
2.48299e-07
1.32586e-07
7.4206e-08
5.83565e-08
6.48629e-08
6.35864e-08
5.88372e-08
5.26599e-08
3.56585e-08
3.76611e-08
4.75069e-08
1.27726e-07
1.50026e-07
2.34335e-07
5.82901e-07
1.316e-06
2.33632e-06
3.14227e-06
3.40589e-06
3.2229e-06
2.57285e-06
1.51657e-06
9.50584e-07
2.38397e-07
9.03495e-08
5.68509e-08
2.77378e-08
1.8429e-08
1.40327e-08
1.6234e-08
2.01223e-08
1.83637e-08
1.64105e-08
1.33926e-08
1.68502e-08
1.34625e-08
1.66993e-08
1.66743e-08
1.68354e-08
1.70483e-08
1.5066e-08
3.0878e-08
3.06255e-08
3.05135e-08
2.79569e-08
2.8945e-08
3.94202e-08
3.13951e-08
4.05592e-08
3.68057e-08
3.27552e-08
2.42179e-08
2.58559e-08
2.76058e-08
2.89949e-08
2.94029e-08
2.90709e-08
3.05099e-08
2.57182e-08
1.83553e-08
2.62129e-08
4.26148e-08
7.87856e-08
1.35529e-07
1.47782e-07
1.1568e-07
5.42908e-08
3.39797e-08
2.68484e-08
3.44828e-08
3.93867e-08
5.45998e-09
1.38199e-08
5.44067e-08
3.1494e-08
1.27447e-08
3.05278e-09
1.25506e-09
1.34282e-09
1.30102e-09
2.078e-09
2.90996e-09
4.12642e-09
4.15786e-09
4.04879e-09
3.88399e-09
2.88801e-09
2.15115e-09
1.31146e-09
9.74175e-10
8.21978e-10
7.56472e-10
7.28706e-10
7.77594e-10
1.29953e-09
3.41388e-09
3.85569e-09
1.40831e-09
4.162e-10
2.90512e-10
8.42775e-10
1.54074e-05
1.50084e-05
1.30382e-05
1.11128e-05
9.54458e-06
9.13577e-06
9.12681e-06
9.3033e-06
9.77905e-06
1.0219e-05
1.12294e-05
1.07021e-05
9.1461e-06
8.38507e-06
1.01431e-05
1.12321e-05
1.14479e-05
1.10919e-05
1.09962e-05
1.10983e-05
1.16928e-05
1.22682e-05
1.03536e-05
8.24368e-06
7.05084e-06
6.73422e-06
7.91883e-06
9.8492e-06
1.13325e-05
1.2138e-05
1.25034e-05
1.2508e-05
1.25826e-05
1.26027e-05
1.27694e-05
1.28436e-05
1.29741e-05
1.29804e-05
1.28744e-05
1.17751e-05
1.01194e-05
7.80133e-06
7.56783e-06
9.92296e-06
5.9475e-06
4.49095e-06
4.41144e-06
4.01346e-06
2.69931e-06
1.79649e-06
1.5095e-06
1.64324e-06
2.20164e-06
2.58796e-06
2.77342e-06
2.71274e-06
3.0453e-06
4.15038e-06
4.1491e-06
4.25879e-06
4.66906e-06
5.18748e-06
5.45977e-06
5.5132e-06
5.55069e-06
5.50092e-06
5.50386e-06
5.61388e-06
5.71099e-06
5.64369e-06
4.87409e-06
3.01282e-06
2.02215e-06
2.29922e-06
2.02891e-06
1.63857e-06
1.37226e-06
1.47308e-06
1.83029e-06
1.97676e-06
1.88316e-06
1.52362e-06
1.10009e-06
9.36406e-07
1.11988e-06
1.52682e-06
1.88842e-06
2.04892e-06
1.79911e-06
1.72653e-06
2.02154e-06
2.38861e-06
2.69292e-06
3.57718e-06
3.92005e-06
4.20724e-06
4.37553e-06
4.36195e-06
4.23299e-06
3.93308e-06
3.42565e-06
2.49275e-06
2.0448e-06
1.89276e-06
4.08737e-07
6.03354e-07
9.93938e-07
5.9796e-07
5.34822e-07
5.29935e-07
6.50577e-07
1.4366e-06
2.11192e-06
2.55519e-06
2.81078e-06
2.99171e-06
3.09698e-06
3.18954e-06
3.23669e-06
3.20537e-06
3.12662e-06
2.98779e-06
2.8211e-06
2.44775e-06
1.8682e-06
1.20892e-06
9.6093e-07
9.11354e-07
1.18782e-06
1.26103e-06
1.41312e-06
1.75085e-06
1.47978e-06
9.01052e-07
7.55574e-08
9.59511e-08
9.93656e-08
8.64627e-08
9.49081e-08
9.9852e-08
9.15528e-08
7.93964e-08
6.57287e-08
7.24107e-08
6.52353e-08
7.42866e-08
9.4845e-08
1.05336e-07
1.22489e-07
1.35993e-07
1.57396e-07
1.70007e-07
1.79054e-07
1.77357e-07
1.89976e-07
1.97881e-07
1.92289e-07
1.9475e-07
1.81553e-07
1.86427e-07
1.85563e-07
1.78389e-07
1.67472e-07
1.7177e-07
4.99726e-07
1.06502e-07
9.85251e-08
7.46386e-08
5.17341e-08
4.37406e-08
4.82455e-08
5.93802e-08
1.25726e-07
3.27958e-07
5.21273e-07
6.4764e-07
3.68382e-07
3.33786e-07
2.85455e-07
2.63323e-07
2.36063e-07
2.05446e-07
2.00312e-07
2.23225e-07
2.54758e-07
2.97619e-07
3.59703e-07
3.68606e-07
3.56028e-07
3.32866e-07
4.94735e-07
1.48328e-06
3.08157e-06
2.02422e-06
1.00448e-07
6.55575e-08
5.36306e-08
7.79301e-08
9.79369e-08
1.13805e-07
9.63139e-08
7.05918e-08
6.36517e-08
6.20468e-08
5.27259e-08
4.90683e-08
4.55886e-08
4.59161e-08
4.58843e-08
5.21301e-08
5.49986e-08
4.73083e-08
6.23846e-08
7.34995e-08
8.25139e-08
1.02568e-07
1.32214e-07
1.58385e-07
1.71432e-07
1.55987e-07
1.39885e-07
1.84232e-07
1.90961e-07
1.45343e-07
2.31833e-07
3.46812e-07
4.4168e-07
1.03129e-06
1.53909e-06
2.04733e-06
2.91873e-06
3.58597e-06
3.96424e-06
4.15307e-06
4.21387e-06
3.84855e-06
3.31613e-06
2.24801e-06
1.8271e-06
1.218e-06
5.51934e-07
4.94525e-07
3.75733e-07
1.5472e-07
6.92262e-08
5.25975e-08
7.30424e-08
1.47624e-07
1.93106e-07
2.09747e-07
1.56769e-07
1.63268e-07
1.63645e-07
1.16528e-07
2.95029e-07
3.24353e-07
4.00545e-07
8.18116e-07
1.33066e-06
1.78288e-06
1.95091e-06
2.62093e-06
2.83018e-06
2.77008e-06
2.76293e-06
2.71742e-06
2.47603e-06
1.76326e-06
1.50333e-06
1.09839e-06
6.51863e-07
3.08044e-07
2.72018e-07
2.64105e-07
2.064e-07
9.49387e-08
8.03222e-08
6.95254e-08
6.10413e-08
5.81743e-08
5.22001e-08
3.21517e-08
3.35293e-08
4.39552e-08
1.15679e-07
1.66216e-07
2.50681e-07
1.00952e-06
1.77092e-06
3.52539e-06
4.60947e-06
5.02701e-06
4.84568e-06
4.18408e-06
2.72046e-06
1.35114e-06
5.48708e-07
1.5481e-07
6.10811e-08
4.10246e-08
2.10835e-08
1.33759e-08
1.43995e-08
1.89599e-08
2.11124e-08
1.98839e-08
1.72505e-08
1.39069e-08
1.77583e-08
1.25029e-08
1.63659e-08
1.65271e-08
1.5919e-08
1.54756e-08
3.01831e-08
3.18293e-08
3.29607e-08
3.60357e-08
4.06061e-08
4.07192e-08
4.43334e-08
5.46892e-08
5.49515e-08
4.86695e-08
3.20686e-08
2.93642e-08
2.64433e-08
3.37285e-08
3.27026e-08
3.14523e-08
2.49287e-08
1.80177e-08
1.47405e-08
2.28635e-08
4.13568e-08
8.06497e-08
1.42431e-07
1.6471e-07
1.21747e-07
5.44296e-08
3.40686e-08
3.21557e-08
3.61088e-08
3.91202e-08
3.79642e-09
6.7437e-09
4.26646e-08
3.83754e-08
1.04054e-08
2.09676e-09
1.32167e-09
1.20941e-09
1.88693e-09
3.16308e-09
4.95619e-09
7.66182e-09
7.58547e-09
8.98576e-09
7.53495e-09
5.36262e-09
3.12182e-09
2.03045e-09
1.17609e-09
9.04807e-10
7.10663e-10
6.80797e-10
7.16286e-10
1.27476e-09
3.51052e-09
5.1943e-09
8.96794e-10
3.79817e-10
5.66703e-10
2.80232e-09
1.54568e-05
1.43822e-05
1.15422e-05
9.35987e-06
9.33035e-06
9.14749e-06
9.31366e-06
9.12613e-06
9.74348e-06
1.03591e-05
1.0797e-05
1.07517e-05
9.14013e-06
8.28121e-06
1.00603e-05
1.11722e-05
1.15129e-05
1.12709e-05
1.11373e-05
1.11689e-05
1.16664e-05
1.20524e-05
1.03072e-05
8.14168e-06
6.89271e-06
6.61016e-06
8.05438e-06
1.01911e-05
1.16354e-05
1.22895e-05
1.22347e-05
1.22191e-05
1.2411e-05
1.25607e-05
1.27858e-05
1.28953e-05
1.2948e-05
1.306e-05
1.28987e-05
1.22142e-05
1.05563e-05
8.03302e-06
7.49827e-06
9.83859e-06
6.24747e-06
4.89758e-06
4.72865e-06
5.00131e-06
4.70832e-06
3.43159e-06
3.24973e-06
3.16875e-06
3.32526e-06
3.36017e-06
3.23733e-06
2.88809e-06
3.11915e-06
4.1904e-06
4.0395e-06
4.26924e-06
4.90316e-06
5.45962e-06
5.59613e-06
5.51314e-06
5.39659e-06
5.46115e-06
5.4063e-06
5.58158e-06
5.70462e-06
5.74238e-06
5.09783e-06
3.15572e-06
2.05807e-06
2.2894e-06
2.05423e-06
1.64929e-06
1.3865e-06
1.45002e-06
1.78115e-06
1.92251e-06
1.81024e-06
1.49817e-06
1.04561e-06
8.77392e-07
1.09137e-06
1.51278e-06
1.87963e-06
2.04784e-06
1.78453e-06
1.76313e-06
2.1128e-06
2.51237e-06
3.34809e-06
3.80314e-06
4.23408e-06
4.50784e-06
4.53488e-06
4.51645e-06
4.44072e-06
4.1785e-06
3.60234e-06
2.551e-06
2.05181e-06
1.85484e-06
4.4281e-07
8.89424e-07
9.7269e-07
5.61148e-07
5.18968e-07
5.47869e-07
9.40255e-07
1.71086e-06
2.31814e-06
2.61849e-06
2.8047e-06
3.04032e-06
3.18477e-06
3.22767e-06
3.23959e-06
3.25526e-06
3.25475e-06
3.15752e-06
3.00927e-06
2.69057e-06
2.1026e-06
1.41099e-06
1.03686e-06
9.25877e-07
1.18651e-06
1.31766e-06
1.50019e-06
1.75107e-06
1.33531e-06
5.66541e-07
7.83251e-08
9.33171e-08
9.72907e-08
8.45118e-08
8.64573e-08
9.51286e-08
9.09965e-08
9.07417e-08
7.8364e-08
7.0194e-08
7.62502e-08
7.69968e-08
9.57765e-08
1.05243e-07
1.19822e-07
1.3687e-07
1.53805e-07
1.71841e-07
1.84707e-07
1.98714e-07
1.8703e-07
2.00112e-07
2.00288e-07
1.95924e-07
2.03455e-07
1.87017e-07
1.89226e-07
1.78574e-07
1.64039e-07
1.64798e-07
3.35513e-07
8.23732e-08
8.82362e-08
5.52669e-08
4.21805e-08
3.69272e-08
3.85069e-08
4.38415e-08
1.14361e-07
3.12308e-07
4.73794e-07
5.18952e-07
3.58505e-07
3.08442e-07
2.79199e-07
2.56035e-07
2.04278e-07
1.87753e-07
1.52689e-07
2.09419e-07
2.146e-07
2.99694e-07
3.3794e-07
3.59184e-07
3.54038e-07
3.35819e-07
3.49686e-07
1.19143e-06
2.52924e-06
1.86225e-06
9.19509e-08
4.55127e-08
5.60534e-08
8.26247e-08
1.20284e-07
1.04984e-07
8.94414e-08
5.19425e-08
6.11499e-08
5.68678e-08