/*--------------------------------*- C++ -*----------------------------------*\
| =========                 |                                                 |
| \\      /  F ield         | OpenFOAM: The Open Source CFD Toolbox           |
|  \\    /   O peration     | Version:  2.1.1                                 |
|   \\  /    A nd           | Web:      www.OpenFOAM.org                      |
|    \\/     M anipulation  |                                                 |
\*---------------------------------------------------------------------------*/
FoamFile
{
    version     2.0;
    format      ascii;
    class       volScalarField;
    location    "0.007000000";
    object      rho;
}
// * * * * * * * * * * * * * * * * * * * * * * * * * * * * * * * * * * * * * //

dimensions      [1 -3 0 0 0 0 0];

internalField   nonuniform List<scalar> 
12384
(
0.827118
0.830651
0.83155
0.833147
0.829754
0.830485
0.822593
0.821455
0.811258
0.809503
0.801431
0.800535
0.797345
0.790405
0.889786
0.879165
0.880441
0.882455
0.885636
0.882436
0.881643
0.877965
0.879624
0.877912
0.876248
0.872937
0.869788
0.867049
0.864754
0.863288
0.861795
0.860232
0.858662
0.857687
0.854664
0.853388
0.852338
0.85239
0.851589
0.850554
0.850553
0.858151
0.889828
0.94617
0.857569
0.850878
0.848872
0.845806
0.841945
0.839024
0.834589
0.834002
0.830314
0.829906
0.829037
0.827407
0.827224
0.828385
0.82732
0.828066
0.826887
0.825107
0.825356
0.825598
0.823474
0.829424
0.827728
0.835394
0.83485
0.838741
0.839036
0.843027
0.848662
0.851627
0.873954
0.873895
0.86876
0.863723
0.859544
0.855054
0.852869
0.849793
0.849338
0.847838
0.848586
0.848877
0.849028
0.84938
0.849524
0.849335
0.848518
0.847159
0.841505
0.842841
0.833396
0.837102
0.834898
0.836498
0.84216
0.846509
0.848684
0.850783
0.853833
0.855565
0.82435
0.825229
0.829222
0.831145
0.833785
0.836045
0.838019
0.839327
0.839704
0.838913
0.836338
0.833262
0.83095
0.826193
0.822488
0.823203
0.822128
0.826545
0.831857
0.83283
0.834074
0.834941
0.839051
0.842771
0.839572
0.838992
0.837959
0.837137
0.839655
0.841903
0.816722
0.82512
0.82728
0.827111
0.824837
0.83034
0.828528
0.835736
0.835469
0.840416
0.842586
0.84772
0.850034
0.853419
0.855742
0.857446
0.857803
0.857667
0.856828
0.856508
0.85548
0.854934
0.853624
0.856964
0.859435
0.861373
0.861657
0.862491
0.861653
0.861706
0.912355
0.897237
0.886512
0.883654
0.882648
0.885996
0.889201
0.892778
0.894251
0.895918
0.895853
0.89446
0.890533
0.886352
0.879276
0.879934
0.871771
0.87058
0.869535
0.872463
0.874654
0.878103
0.876994
0.8788
0.893617
0.970271
0.974232
0.970283
0.965573
0.964873
0.922232
0.898908
0.887956
0.883047
0.881703
0.880055
0.876992
0.875193
0.864548
0.866978
0.849435
0.853758
0.840609
0.847463
0.84494
0.846532
0.84991
0.852173
0.852649
0.852945
0.860487
0.862473
0.857392
0.854182
0.853546
0.849386
0.846543
0.844826
0.839968
0.839984
0.80823
0.807756
0.808533
0.8085
0.807189
0.804023
0.800074
0.794276
0.794939
0.790255
0.799593
0.792573
0.813299
0.807102
0.82435
0.821957
0.827366
0.832451
0.82685
0.835735
0.835243
0.84152
0.842132
0.84811
0.846948
0.847368
0.848693
0.849787
0.849864
0.85
0.84346
0.84233
0.841094
0.839216
0.835906
0.828075
0.825222
0.811054
0.810985
0.794328
0.799426
0.790978
0.793573
0.795344
0.795613
0.795753
0.799011
0.800847
0.798028
0.798053
0.797669
0.798757
0.802043
0.802441
0.804773
0.806718
0.804827
0.806259
0.804623
0.807071
0.813237
0.811979
0.815614
0.815767
0.813686
0.808473
0.802583
0.797713
0.797541
0.7996
0.799817
0.798718
0.796236
0.794437
0.794547
0.792202
0.79026
0.789681
0.791642
0.792695
0.79403
0.795169
0.795941
0.796175
0.795878
0.795231
0.794536
0.793622
0.791997
0.79178
0.828077
0.833501
0.824357
0.800917
0.794357
0.795504
0.791819
0.791642
0.790829
0.790473
0.791465
0.79224
0.795302
0.796747
0.797309
0.798313
0.798833
0.798783
0.798449
0.797786
0.796418
0.795755
0.794314
0.793621
0.794132
0.794684
0.79626
0.799955
0.806626
0.807679
0.780885
0.781442
0.779218
0.77896
0.780259
0.792709
0.795496
0.743326
0.733951
0.732837
0.730926
0.729975
0.728335
0.728981
0.731493
0.733571
0.736562
0.739918
0.742123
0.743944
0.744839
0.745961
0.74671
0.749518
0.754268
0.762537
0.769855
0.771625
0.760541
0.743539
0.84466
0.848296
0.85348
0.859106
0.857341
0.854325
0.847552
0.842119
0.833022
0.82339
0.811357
0.800605
0.797635
0.791176
0.888535
0.878058
0.882385
0.883282
0.88281
0.878726
0.88082
0.880617
0.880912
0.869968
0.857903
0.849481
0.84679
0.847614
0.850303
0.853748
0.857072
0.859978
0.859084
0.86004
0.857476
0.85727
0.855447
0.8535
0.851609
0.849594
0.848068
0.851254
0.871927
0.920084
0.857272
0.85046
0.847715
0.84261
0.837899
0.833519
0.83029
0.829181
0.828517
0.82724
0.828685
0.827408
0.829193
0.828988
0.830411
0.82958
0.829928
0.830149
0.829597
0.829702
0.831303
0.831774
0.832357
0.835979
0.835504
0.839241
0.839461
0.841986
0.845417
0.84945
0.873937
0.872074
0.866431
0.860185
0.85575
0.852778
0.850082
0.847878
0.847526
0.84821
0.848045
0.848976
0.849209
0.848852
0.848144
0.848135
0.84799
0.847159
0.844139
0.841684
0.838958
0.83639
0.838498
0.839257
0.841976
0.84666
0.84989
0.851651
0.854144
0.857438
0.823881
0.824349
0.828137
0.83179
0.833607
0.834436
0.83576
0.836873
0.837086
0.835948
0.834387
0.832867
0.82835
0.824069
0.825172
0.822754
0.823639
0.82266
0.827851
0.83346
0.834566
0.835161
0.836814
0.840681
0.84
0.836035
0.834119
0.83324
0.832495
0.833686
0.818565
0.825366
0.82743
0.825098
0.824806
0.82833
0.830222
0.833645
0.833077
0.835566
0.835857
0.838618
0.843687
0.848487
0.852554
0.85489
0.856003
0.85537
0.854037
0.85174
0.851498
0.850645
0.851583
0.850612
0.854743
0.858969
0.860818
0.862165
0.862504
0.86272
0.910611
0.891627
0.880817
0.879562
0.883851
0.887207
0.887998
0.891497
0.894843
0.894387
0.895416
0.894693
0.891055
0.886624
0.881396
0.878621
0.868844
0.869779
0.868421
0.86982
0.871743
0.874304
0.878092
0.879366
0.884275
0.917637
0.965655
0.961872
0.944605
0.937474
0.916308
0.88551
0.878516
0.875651
0.874108
0.873484
0.871443
0.865567
0.863639
0.856122
0.848623
0.840339
0.842679
0.834924
0.837018
0.839564
0.842564
0.846973
0.850204
0.851039
0.854608
0.860261
0.860035
0.857797
0.856393
0.854619
0.848151
0.842285
0.839234
0.834728
0.8081
0.806847
0.807656
0.807886
0.80638
0.803947
0.800123
0.797416
0.794961
0.796366
0.797034
0.796331
0.810528
0.808081
0.823985
0.819659
0.834907
0.830511
0.831928
0.837254
0.835212
0.844217
0.844412
0.845024
0.846834
0.84698
0.844988
0.845843
0.848368
0.850184
0.847553
0.848317
0.845814
0.844496
0.843352
0.835618
0.829963
0.822047
0.818742
0.806716
0.804896
0.802507
0.798841
0.798588
0.798735
0.800501
0.800888
0.801844
0.802679
0.800958
0.800459
0.803469
0.80622
0.80578
0.806467
0.806163
0.805492
0.803642
0.802953
0.803934
0.811579
0.812327
0.814949
0.81701
0.814903
0.809338
0.804858
0.802693
0.799521
0.799338
0.801968
0.802574
0.800265
0.796821
0.794825
0.79274
0.790432
0.790656
0.791305
0.79355
0.795187
0.796264
0.796991
0.797003
0.796663
0.796544
0.795122
0.794613
0.793002
0.792217
0.824376
0.828546
0.812208
0.798305
0.794364
0.792156
0.791644
0.787183
0.788614
0.78923
0.7915
0.793742
0.795452
0.799366
0.801697
0.802459
0.803106
0.803394
0.802952
0.801774
0.800671
0.799476
0.799415
0.798755
0.797153
0.795937
0.796575
0.798866
0.804902
0.807899
0.783472
0.78558
0.783101
0.774623
0.778865
0.795576
0.76717
0.735952
0.730522
0.727468
0.724672
0.722405
0.721865
0.721523
0.723312
0.726493
0.729598
0.733293
0.73663
0.738856
0.740546
0.740937
0.740973
0.742897
0.750006
0.763781
0.771239
0.770363
0.756176
0.741943
0.854277
0.863937
0.87562
0.874699
0.864335
0.852533
0.843091
0.837542
0.83816
0.833058
0.826355
0.807713
0.79811
0.790061
0.887652
0.878149
0.883544
0.88311
0.883171
0.882584
0.887769
0.885455
0.870591
0.846821
0.833894
0.831606
0.835657
0.843218
0.852961
0.862874
0.868344
0.870165
0.867567
0.866473
0.864975
0.861505
0.860208
0.859665
0.856327
0.851595
0.847166
0.847229
0.858683
0.901716
0.855904
0.849278
0.845958
0.839968
0.833867
0.829063
0.827855
0.826411
0.827361
0.828664
0.829969
0.828898
0.830561
0.830724
0.831113
0.832035
0.831994
0.831035
0.831577
0.831506
0.830367
0.836406
0.83415
0.840105
0.838063
0.83955
0.839487
0.840579
0.843352
0.848719
0.871402
0.86867
0.861668
0.856399
0.853243
0.850885
0.848896
0.847193
0.847325
0.846536
0.847879
0.849146
0.850643
0.850099
0.847876
0.846763
0.846729
0.846549
0.844045
0.842879
0.837839
0.838561
0.834323
0.839462
0.841814
0.846125
0.850242
0.851692
0.852622
0.856069
0.822396
0.823362
0.829808
0.830862
0.83305
0.832691
0.833889
0.835374
0.836191
0.836384
0.836077
0.833157
0.830556
0.830884
0.829466
0.825432
0.826335
0.825606
0.823512
0.827717
0.833858
0.83465
0.834126
0.837354
0.839239
0.837567
0.837566
0.835543
0.834093
0.830352
0.818415
0.825786
0.825945
0.824949
0.824425
0.828961
0.827824
0.829163
0.821626
0.820113
0.819054
0.824649
0.832915
0.843771
0.850313
0.85315
0.853249
0.851803
0.848991
0.846119
0.841566
0.841573
0.842833
0.846064
0.847352
0.852704
0.857606
0.859854
0.861306
0.862729
0.906496
0.88585
0.876585
0.877385
0.877873
0.87891
0.881402
0.883057
0.887324
0.891897
0.892154
0.891309
0.886944
0.882736
0.876034
0.86734
0.864147
0.86294
0.860665
0.862118
0.864134
0.869041
0.873595
0.876767
0.880111
0.893487
0.927388
0.959648
0.944322
0.927973
0.904315
0.877629
0.873931
0.870181
0.870354
0.869529
0.866872
0.863699
0.858803
0.846827
0.839835
0.839324
0.828379
0.830388
0.830952
0.832322
0.835649
0.838736
0.843311
0.846389
0.848503
0.853911
0.858963
0.85833
0.858437
0.854737
0.848367
0.841278
0.837148
0.833045
0.807023
0.806833
0.807071
0.807083
0.805156
0.804544
0.798935
0.798091
0.793788
0.792465
0.801971
0.796151
0.80928
0.8062
0.8239
0.818888
0.836499
0.830401
0.835118
0.838006
0.836293
0.842075
0.847565
0.845369
0.84434
0.846306
0.845412
0.843398
0.845582
0.850246
0.845434
0.84576
0.847179
0.844294
0.842758
0.840048
0.831053
0.823696
0.821842
0.811071
0.809342
0.802727
0.804988
0.803952
0.802314
0.801645
0.802131
0.80371
0.804509
0.800779
0.80042
0.803713
0.806467
0.808011
0.807549
0.801954
0.799805
0.802912
0.802569
0.804942
0.80935
0.812426
0.814914
0.815142
0.811974
0.807566
0.805708
0.803335
0.801289
0.800181
0.800187
0.801831
0.800927
0.797333
0.794133
0.791547
0.789476
0.790399
0.790654
0.792331
0.794302
0.795859
0.796704
0.796821
0.797004
0.795097
0.79449
0.794969
0.792825
0.79195
0.823171
0.820436
0.804221
0.795638
0.791992
0.78808
0.785032
0.780844
0.779718
0.780447
0.782261
0.787656
0.791776
0.795238
0.799988
0.802763
0.802741
0.802283
0.800682
0.799691
0.799088
0.799464
0.799773
0.799524
0.799907
0.797913
0.796903
0.798155
0.802713
0.806649
0.782261
0.788761
0.791948
0.777477
0.785662
0.782751
0.745365
0.729156
0.725561
0.722373
0.718381
0.715672
0.714886
0.718161
0.718607
0.722585
0.724992
0.728809
0.732553
0.736264
0.737632
0.738582
0.739982
0.742725
0.752863
0.766873
0.769944
0.762726
0.744203
0.739149
0.86927
0.88483
0.883289
0.864874
0.845339
0.828577
0.820913
0.814334
0.818607
0.823628
0.827792
0.816625
0.801109
0.791327
0.886868
0.877889
0.884422
0.884502
0.886156
0.890333
0.894689
0.882099
0.851237
0.829293
0.824586
0.828225
0.835552
0.848859
0.864773
0.874046
0.875281
0.871141
0.864663
0.859742
0.856016
0.85736
0.858334
0.857967
0.858373
0.855276
0.848344
0.844607
0.850695
0.889565
0.855234
0.848463
0.845186
0.837996
0.830606
0.827239
0.825946
0.824167
0.827291
0.829411
0.8304
0.83108
0.8302
0.829533
0.831403
0.831219
0.829699
0.830497
0.828356
0.828762
0.831077
0.830261
0.835326
0.838592
0.839599
0.841736
0.839112
0.840044
0.841892
0.847015
0.869432
0.864085
0.857297
0.853361
0.850688
0.848303
0.845594
0.844818
0.844148
0.845605
0.846888
0.848136
0.848795
0.848525
0.846942
0.845391
0.844714
0.844132
0.843325
0.839683
0.835864
0.832541
0.837395
0.837945
0.840409
0.844214
0.848262
0.85093
0.85105
0.853443
0.821315
0.822622
0.831051
0.831476
0.830853
0.831777
0.832795
0.834369
0.836373
0.838128
0.836753
0.83443
0.834238
0.830652
0.825634
0.827178
0.827642
0.830369
0.828917
0.824468
0.827482
0.833131
0.834356
0.835253
0.837962
0.839224
0.84126
0.842654
0.840253
0.835875
0.817745
0.825958
0.824887
0.825089
0.824198
0.828205
0.825143
0.819668
0.810674
0.805838
0.80519
0.812175
0.825721
0.838662
0.848665
0.850915
0.849961
0.845325
0.840264
0.834486
0.831297
0.825543
0.827496
0.832897
0.83918
0.844022
0.851127
0.856917
0.859772
0.861628
0.903371
0.88124
0.873892
0.872293
0.869698
0.865525
0.867769
0.873086
0.878851
0.886412
0.888642
0.887561
0.882258
0.876808
0.866306
0.858142
0.854202
0.845059
0.844371
0.84729
0.855824
0.861667
0.868509
0.872181
0.879032
0.882862
0.90536
0.940006
0.94634
0.924004
0.887297
0.873806
0.868075
0.865932
0.867253
0.867111
0.86427
0.857514
0.846608
0.836388
0.833266
0.824432
0.819613
0.818709
0.816483
0.821342
0.827845
0.832969
0.836589
0.840441
0.843212
0.84734
0.853868
0.858208
0.857312
0.852944
0.848049
0.839297
0.833205
0.832407
0.807011
0.806819
0.80634
0.805805
0.804498
0.803638
0.798054
0.798553
0.796791
0.797412
0.795606
0.799636
0.811713
0.802563
0.825826
0.816664
0.835457
0.83148
0.838859
0.834995
0.840418
0.840912
0.845554
0.845544
0.844931
0.844382
0.846085
0.843539
0.842503
0.848975
0.847583
0.84675
0.84737
0.849161
0.841861
0.839887
0.838496
0.825812
0.81771
0.81858
0.80981
0.810927
0.807279
0.808074
0.806162
0.804636
0.806756
0.806528
0.805435
0.808144
0.807975
0.806284
0.807143
0.808756
0.803578
0.799633
0.796919
0.795593
0.79928
0.801531
0.809191
0.811701
0.811278
0.810634
0.807287
0.807639
0.802008
0.798224
0.797203
0.80042
0.800745
0.799025
0.799132
0.796716
0.791891
0.789562
0.788455
0.786742
0.789993
0.792016
0.792867
0.793917
0.795303
0.796514
0.795252
0.79433
0.793778
0.79281
0.792636
0.791104
0.820966
0.813713
0.7999
0.792307
0.788004
0.782594
0.774196
0.772166
0.769335
0.770285
0.772526
0.777167
0.784837
0.79102
0.795484
0.799934
0.801535
0.799628
0.796986
0.795958
0.797488
0.797424
0.79936
0.80015
0.800619
0.799294
0.797212
0.797551
0.801732
0.805418
0.77707
0.788562
0.799089
0.786397
0.788623
0.765743
0.733514
0.725021
0.72128
0.716536
0.713638
0.714068
0.714143
0.713827
0.716637
0.718328
0.722315
0.724425
0.728419
0.731711
0.734632
0.736427
0.738779
0.742655
0.760434
0.7694
0.761331
0.746582
0.732843
0.740304
0.891523
0.891768
0.869569
0.84088
0.826268
0.818076
0.815173
0.808169
0.808501
0.810287
0.822484
0.820952
0.80348
0.790959
0.886555
0.877848
0.885968
0.887843
0.892382
0.89781
0.898347
0.872894
0.838472
0.82138
0.823106
0.829429
0.838405
0.856085
0.873635
0.877422
0.871798
0.862045
0.85273
0.845336
0.840939
0.84043
0.844213
0.852164
0.856025
0.855807
0.850293
0.843876
0.847079
0.880855
0.853376
0.848071
0.844802
0.838054
0.831293
0.825081
0.824087
0.82389
0.826364
0.827978
0.832187
0.830882
0.830126
0.830304
0.831169
0.828886
0.830677
0.82662
0.82763
0.827688
0.825881
0.830685
0.829995
0.837649
0.837624
0.842191
0.839634
0.839051
0.83995
0.844751
0.863749
0.859076
0.853632
0.850208
0.847184
0.843824
0.842618
0.840891
0.83847
0.837119
0.841918
0.847992
0.84989
0.847266
0.844045
0.842574
0.842635
0.843333
0.839098
0.837231
0.834889
0.837789
0.831585
0.83235
0.838091
0.841667
0.845164
0.847863
0.848346
0.849777
0.821773
0.824086
0.831361
0.83182
0.830187
0.829462
0.83261
0.835397
0.838195
0.837707
0.834982
0.831638
0.825997
0.819777
0.818727
0.816782
0.817024
0.822015
0.829985
0.82999
0.827091
0.829094
0.833224
0.834881
0.837265
0.839496
0.843787
0.84895
0.846344
0.840155
0.818482
0.826256
0.825723
0.824578
0.824034
0.828076
0.823086
0.817398
0.803144
0.80099
0.79997
0.805901
0.819521
0.83652
0.84609
0.847416
0.842495
0.836302
0.827667
0.821845
0.819457
0.818917
0.813859
0.817909
0.827647
0.837271
0.845027
0.851788
0.856624
0.858335
0.898696
0.876428
0.868037
0.864694
0.858954
0.854871
0.854059
0.861378
0.873984
0.882999
0.885373
0.883582
0.877118
0.869711
0.852553
0.848247
0.839284
0.840437
0.838357
0.838808
0.841618
0.853175
0.859262
0.870946
0.876105
0.878658
0.892303
0.918995
0.938604
0.922102
0.875696
0.868996
0.861557
0.863561
0.867042
0.864793
0.858958
0.849129
0.83397
0.82991
0.823164
0.809219
0.81173
0.804866
0.809598
0.809221
0.812686
0.82139
0.829
0.834214
0.839028
0.842334
0.849134
0.85405
0.854881
0.84988
0.844784
0.83477
0.830375
0.829166
0.806295
0.807403
0.806494
0.805743
0.803935
0.802478
0.798105
0.797793
0.797269
0.795835
0.803929
0.793407
0.814737
0.803667
0.822539
0.81728
0.835901
0.830708
0.842444
0.835222
0.842828
0.841809
0.844465
0.844504
0.846984
0.846198
0.845812
0.844969
0.841162
0.846428
0.845652
0.847999
0.848601
0.8469
0.850525
0.838259
0.833968
0.831347
0.822501
0.810193
0.81047
0.804023
0.805231
0.805394
0.807575
0.811179
0.810416
0.807532
0.811207
0.813058
0.807621
0.807606
0.809649
0.808323
0.803451
0.799189
0.796295
0.795195
0.79842
0.80278
0.8076
0.809167
0.808947
0.805429
0.805816
0.801808
0.797308
0.793437
0.791888
0.791754
0.79546
0.798686
0.797181
0.79418
0.790406
0.787212
0.784456
0.785551
0.786129
0.788299
0.790648
0.792124
0.794112
0.794127
0.795082
0.795259
0.792897
0.791724
0.791969
0.79098
0.818036
0.80925
0.796264
0.788779
0.78337
0.774631
0.765174
0.765074
0.759985
0.761636
0.765307
0.769087
0.775742
0.784796
0.792727
0.796879
0.798784
0.797193
0.794258
0.795125
0.796185
0.798902
0.801478
0.80156
0.801102
0.799843
0.797662
0.797547
0.801207
0.804877
0.769416
0.785233
0.801863
0.795946
0.784805
0.753054
0.72785
0.722353
0.716161
0.714698
0.714106
0.715623
0.715926
0.716329
0.715644
0.716501
0.719149
0.721866
0.724116
0.728038
0.733321
0.735092
0.735299
0.744255
0.762819
0.768359
0.749162
0.732448
0.730587
0.747042
0.898288
0.882227
0.848434
0.830145
0.828178
0.829793
0.828172
0.818063
0.810034
0.80683
0.815811
0.82125
0.806557
0.791669
0.887231
0.877427
0.886417
0.890867
0.897355
0.902981
0.901662
0.868379
0.832716
0.818879
0.821988
0.829918
0.839972
0.862625
0.877728
0.875587
0.863565
0.851995
0.842117
0.831798
0.827923
0.826258
0.830852
0.838883
0.849932
0.853906
0.85088
0.84291
0.844754
0.876046
0.854409
0.847771
0.847038
0.841056
0.833818
0.82736
0.825351
0.824454
0.824543
0.828475
0.831538
0.832409
0.829506
0.831281
0.829117
0.830501
0.826803
0.827082
0.824646
0.824174
0.826594
0.825865
0.827685
0.834304
0.835111
0.840754
0.840024
0.837636
0.837716
0.842471
0.861707
0.859267
0.853603
0.846887
0.843085
0.842549
0.840513
0.834418
0.829347
0.830032
0.83486
0.842773
0.848925
0.847749
0.841787
0.840476
0.842264
0.840607
0.836711
0.837809
0.829064
0.830753
0.833999
0.835427
0.838281
0.840325
0.841361
0.844287
0.843836
0.845983
0.820721
0.826861
0.832536
0.830286
0.829163
0.829426
0.832222
0.835782
0.837194
0.835965
0.831146
0.826199
0.822089
0.82204
0.821049
0.818321
0.81578
0.813823
0.820294
0.826951
0.830332
0.826572
0.832342
0.834087
0.837345
0.839651
0.844894
0.851096
0.847476
0.840384
0.816121
0.825602
0.82691
0.825133
0.823722
0.827664
0.824334
0.818779
0.807015
0.800908
0.801518
0.805242
0.816546
0.832212
0.842767
0.843284
0.84046
0.831074
0.82167
0.811842
0.804484
0.802186
0.808188
0.807713
0.813849
0.826491
0.839441
0.847789
0.853791
0.858509
0.898033
0.873969
0.864543
0.857117
0.84839
0.844851
0.847386
0.852834
0.867142
0.881896
0.882226
0.879725
0.875144
0.859446
0.844276
0.843021
0.831875
0.822545
0.820816
0.827116
0.836267
0.841271
0.857851
0.867344
0.873349
0.876905
0.886891
0.908555
0.928702
0.917482
0.86899
0.863236
0.859754
0.865355
0.865826
0.861571
0.853123
0.840311
0.826235
0.82659
0.807816
0.807566
0.800983
0.803016
0.799861
0.807646
0.810431
0.815564
0.823979
0.830534
0.833864
0.839361
0.844997
0.850577
0.850143
0.847336
0.83817
0.82932
0.826291
0.827749
0.807364
0.80875
0.808212
0.806531
0.802555
0.803999
0.797887
0.799879
0.796295
0.797194
0.807278
0.798412
0.8138
0.804518
0.827021
0.815102
0.835972
0.833351
0.842729
0.838898
0.84427
0.844568
0.844032
0.845834
0.849543
0.849779
0.846914
0.844469
0.841044
0.845153
0.850658
0.850471
0.8507
0.849532
0.846221
0.848817
0.83007
0.828278
0.825419
0.810675
0.808716
0.812987
0.811011
0.808069
0.812748
0.812058
0.809461
0.814957
0.817219
0.815102
0.813896
0.814091
0.813107
0.805553
0.800506
0.798489
0.796152
0.794591
0.796915
0.800166
0.800543
0.807107
0.803084
0.800358
0.800228
0.798617
0.80072
0.808105
0.803129
0.793846
0.785382
0.786527
0.790291
0.791553
0.788905
0.783723
0.782054
0.781022
0.782049
0.786484
0.787891
0.789807
0.790176
0.792384
0.795121
0.794299
0.794585
0.793156
0.791483
0.791407
0.815988
0.80584
0.792915
0.786828
0.777788
0.76622
0.762255
0.757462
0.755056
0.756587
0.758529
0.7642
0.770995
0.778594
0.788365
0.795706
0.79834
0.796302
0.793408
0.794309
0.795675
0.798835
0.802128
0.80287
0.801211
0.798851
0.797983
0.797766
0.801392
0.803982
0.763859
0.778862
0.800471
0.798776
0.779461
0.744865
0.72472
0.719662
0.713669
0.716476
0.713898
0.714242
0.713504
0.715428
0.717417
0.71515
0.718019
0.718984
0.721888
0.724301
0.730711
0.733246
0.734345
0.743002
0.76434
0.768871
0.744944
0.732625
0.737707
0.766784
0.896366
0.864435
0.836181
0.834749
0.843704
0.844159
0.840546
0.826842
0.815098
0.807235
0.813943
0.819809
0.807448
0.790888
0.889178
0.876552
0.886608
0.896259
0.903193
0.907243
0.902726
0.866325
0.830388
0.817013
0.820574
0.829902
0.842269
0.868507
0.879064
0.87193
0.855784
0.845021
0.835619
0.823871
0.819395
0.818109
0.820136
0.83048
0.841565
0.85142
0.84995
0.842096
0.843041
0.873703
0.851721
0.845156
0.844654
0.844248
0.838512
0.832987
0.830299
0.827599
0.826164
0.828015
0.832444
0.833212
0.829726
0.83144
0.829367
0.829142
0.826141
0.825347
0.824153
0.823166
0.822015
0.82742
0.823963
0.832681
0.832766
0.839208
0.838439
0.836293
0.835727
0.840505
0.856889
0.854841
0.846804
0.842245
0.842469
0.8404
0.835
0.83122
0.829364
0.830604
0.836042
0.841952
0.846136
0.845738
0.841491
0.840623
0.840463
0.840254
0.838083
0.833189
0.828709
0.833481
0.826856
0.826809
0.833936
0.841219
0.838173
0.84075
0.839834
0.840997
0.823606
0.829976
0.832545
0.828167
0.827814
0.829833
0.831696
0.835547
0.837692
0.831213
0.824808
0.825063
0.821685
0.815314
0.812073
0.813065
0.816625
0.816037
0.818775
0.824047
0.829723
0.826353
0.832075
0.834489
0.837845
0.840269
0.846233
0.850643
0.845729
0.840078
0.818744
0.824661
0.829565
0.826701
0.82399
0.827504
0.825824
0.824795
0.814654
0.811003
0.806965
0.810948
0.815917
0.831208
0.842325
0.841398
0.832057
0.823854
0.814918
0.809877
0.800522
0.797403
0.79676
0.802119
0.812819
0.817873
0.835706
0.844719
0.851483
0.854737
0.894955
0.87118
0.861192
0.852045
0.842982
0.838691
0.841535
0.850669
0.862763
0.878452
0.87838
0.878364
0.871766
0.850731
0.841408
0.838361
0.821303
0.818957
0.819634
0.824586
0.824428
0.841466
0.854019
0.863424
0.8708
0.878686
0.884157
0.901588
0.921245
0.914675
0.867942
0.854457
0.857907
0.864626
0.864953
0.85679
0.850691
0.830465
0.825455
0.81971
0.800267
0.796168
0.798116
0.789756
0.790745
0.792955
0.801827
0.808333
0.815624
0.825555
0.833679
0.837302
0.842467
0.846563
0.846571
0.841909
0.828842
0.826218
0.825287
0.824638
0.809311
0.810767
0.809077
0.80777
0.801962
0.804743
0.79882
0.80018
0.79976
0.797155
0.807492
0.801555
0.815417
0.805436
0.826746
0.817285
0.839799
0.832704
0.84687
0.840882
0.84787
0.844374
0.846528
0.852303
0.852254
0.84988
0.847689
0.843795
0.840999
0.844031
0.849528
0.850595
0.85383
0.85072
0.849104
0.840056
0.844519
0.821853
0.824107
0.811563
0.812527
0.80595
0.808491
0.812111
0.814747
0.809036
0.817421
0.819566
0.817607
0.819153
0.819483
0.815918
0.815484
0.803208
0.801291
0.799913
0.7968
0.795254
0.797167
0.800299
0.80145
0.803012
0.795522
0.801093
0.800316
0.800554
0.805665
0.803743
0.801214
0.803616
0.798501
0.785809
0.786978
0.785708
0.782064
0.782418
0.781839
0.777238
0.779295
0.780851
0.783442
0.78414
0.787492
0.790094
0.791831
0.794348
0.796063
0.796318
0.795033
0.793119
0.813985
0.802874
0.791129
0.784792
0.77145
0.763608
0.759589
0.751487
0.7535
0.751521
0.75392
0.760448
0.765215
0.775167
0.785834
0.793353
0.797503
0.797908
0.793693
0.7923
0.796082
0.798065
0.79967
0.80118
0.800077
0.798276
0.798237
0.799665
0.802616
0.803498
0.757117
0.769241
0.79282
0.796707
0.773138
0.741339
0.722208
0.718933
0.713152
0.716253
0.71116
0.713639
0.711465
0.712032
0.715794
0.715259
0.718789
0.716806
0.720446
0.721335
0.726778
0.734962
0.732499
0.741846
0.766158
0.774909
0.752986
0.743554
0.761809
0.797533
0.887109
0.850749
0.837009
0.846445
0.850337
0.846272
0.836184
0.821964
0.813444
0.808201
0.816381
0.819112
0.806779
0.790019
0.891444
0.874809
0.883518
0.895796
0.90408
0.908477
0.904505
0.870625
0.832228
0.816795
0.819017
0.829508
0.843354
0.872032
0.879154
0.868733
0.852198
0.840945
0.833101
0.821837
0.815699
0.814046
0.817027
0.8244
0.837801
0.847016
0.84877
0.839964
0.842766
0.87337
0.855685
0.84802
0.845481
0.843479
0.842655
0.84023
0.837066
0.834561
0.831279
0.831834
0.836006
0.835945
0.830768
0.831131
0.829354
0.828873
0.824836
0.824924
0.822511
0.822951
0.822259
0.825431
0.824133
0.831305
0.831053
0.838433
0.836512
0.834052
0.834162
0.839094
0.857759
0.853167
0.849197
0.845962
0.840891
0.836088
0.834661
0.832499
0.829771
0.831547
0.838737
0.845012
0.8467
0.844515
0.841181
0.840304
0.841374
0.839861
0.838096
0.831615
0.831689
0.832592
0.829741
0.828426
0.828605
0.842449
0.836402
0.837124
0.839248
0.839537
0.825068
0.834428
0.830202
0.826656
0.827845
0.828893
0.831342
0.835648
0.835335
0.827767
0.824604
0.822495
0.8113
0.805349
0.805791
0.805987
0.812493
0.812192
0.819956
0.823976
0.829364
0.826946
0.832225
0.834654
0.839067
0.83987
0.845873
0.849586
0.842767
0.836492
0.817326
0.82271
0.828354
0.828528
0.825871
0.826819
0.826167
0.828272
0.823444
0.8205
0.81737
0.816584
0.819056
0.829193
0.840307
0.839298
0.832022
0.820458
0.814218
0.801361
0.794568
0.7892
0.792583
0.793064
0.807215
0.81855
0.832134
0.845268
0.851818
0.855627
0.895758
0.871347
0.858856
0.849446
0.840916
0.838751
0.841365
0.849539
0.86187
0.875032
0.878268
0.877694
0.867421
0.848222
0.84437
0.83522
0.820447
0.818549
0.815605
0.818159
0.826872
0.844135
0.848901
0.864085
0.870406
0.878962
0.881746
0.900205
0.917786
0.901219
0.861861
0.850209
0.859633
0.864628
0.860724
0.856802
0.8439
0.831239
0.819198
0.818442
0.795359
0.798455
0.794992
0.79051
0.790854
0.795651
0.796097
0.808524
0.815097
0.821741
0.831526
0.836133
0.84044
0.844212
0.843294
0.832387
0.82443
0.822419
0.817638
0.816125
0.817142
0.814529
0.811149
0.80917
0.803319
0.803836
0.802278
0.80182
0.800646
0.799806
0.811423
0.800217
0.82069
0.806758
0.831198
0.81892
0.840189
0.836428
0.847597
0.846172
0.847658
0.84615
0.851252
0.854173
0.852525
0.847863
0.843815
0.841176
0.838668
0.843614
0.850289
0.851484
0.853689
0.855166
0.850073
0.843629
0.835866
0.83756
0.815135
0.815872
0.811319
0.809313
0.812166
0.811037
0.811714
0.815101
0.822603
0.818604
0.820981
0.823838
0.821993
0.819011
0.810465
0.803154
0.80443
0.801547
0.798582
0.797126
0.798188
0.799387
0.783719
0.797215
0.798092
0.797916
0.799102
0.802132
0.801218
0.79868
0.794806
0.789964
0.794367
0.789149
0.778505
0.785759
0.780801
0.775687
0.773192
0.776071
0.776191
0.779192
0.778891
0.780878
0.783086
0.784619
0.788224
0.792687
0.794718
0.798487
0.797531
0.797
0.812172
0.803076
0.792391
0.782373
0.770435
0.76475
0.755482
0.750086
0.752613
0.750537
0.754556
0.755791
0.763658
0.775286
0.782584
0.79254
0.798607
0.797737
0.793447
0.792911
0.795189
0.79821
0.799216
0.79932
0.799219
0.798219
0.79935
0.801258
0.802707
0.802528
0.753384
0.758047
0.783075
0.789467
0.769641
0.739149
0.722533
0.717497
0.712941
0.7154
0.711552
0.715948
0.715701
0.714186
0.71575
0.711612
0.718392
0.716101
0.720538
0.71828
0.724992
0.734502
0.733755
0.736912
0.765903
0.782163
0.772095
0.7732
0.800124
0.873858
0.87945
0.844204
0.843837
0.849493
0.845361
0.829479
0.819537
0.810813
0.81062
0.811927
0.81951
0.818852
0.804002
0.790138
0.811927
0.851953
0.891437
0.878117
0.880346
0.894758
0.906758
0.909922
0.90188
0.871454
0.835723
0.816971
0.818739
0.830584
0.844967
0.874221
0.879683
0.867286
0.852286
0.839319
0.833068
0.825067
0.815954
0.815814
0.816226
0.826843
0.835501
0.847911
0.844852
0.840263
0.841627
0.878339
0.884256
0.873334
0.852342
0.845293
0.841554
0.841454
0.840466
0.839841
0.837815
0.836729
0.834805
0.833521
0.838585
0.836889
0.831654
0.832533
0.830582
0.82887
0.826417
0.823871
0.822939
0.824087
0.821903
0.82666
0.823967
0.831078
0.83008
0.83861
0.834619
0.832628
0.832575
0.839202
0.836446
0.843592
0.852454
0.853371
0.850543
0.844292
0.839043
0.837985
0.834728
0.831575
0.832829
0.836371
0.843452
0.847445
0.846755
0.844767
0.841733
0.84375
0.842993
0.84213
0.839099
0.835004
0.833243
0.835606
0.833637
0.832624
0.832984
0.840254
0.836998
0.837117
0.834088
0.839977
0.828436
0.827834
0.830069
0.831929
0.825291
0.824138
0.8267
0.828
0.831242
0.835065
0.834487
0.827014
0.825244
0.817529
0.813024
0.807359
0.806765
0.804411
0.812652
0.809619
0.82198
0.825619
0.827832
0.828346
0.832559
0.836534
0.83973
0.8418
0.848631
0.84876
0.84238
0.837045
0.836012
0.828769
0.822476
0.822559
0.827959
0.829967
0.829536
0.827561
0.828726
0.829708
0.82706
0.827533
0.825708
0.823592
0.821976
0.830008
0.842312
0.84178
0.830627
0.821399
0.813002
0.800718
0.790777
0.787998
0.792334
0.794031
0.809136
0.818718
0.834063
0.843313
0.851623
0.855566
0.869596
0.880262
0.892581
0.869654
0.857244
0.84761
0.840168
0.839045
0.845397
0.852013
0.859411
0.873102
0.877937
0.877403
0.868542
0.850593
0.845804
0.836591
0.823754
0.822973
0.82499
0.824083
0.835751
0.846461
0.848098
0.869421
0.870481
0.876453
0.882715
0.904233
0.906118
0.885437
0.842787
0.840441
0.84544
0.841214
0.852752
0.860825
0.861981
0.852926
0.847954
0.829494
0.821315
0.818295
0.796419
0.798011
0.795787
0.787383
0.788166
0.794148
0.79721
0.80679
0.815929
0.822545
0.830963
0.836687
0.840845
0.84286
0.836561
0.828854
0.825001
0.823153
0.821953
0.820587
0.818366
0.82622
0.815514
0.815953
0.81175
0.811637
0.804577
0.804563
0.805853
0.807681
0.807492
0.810023
0.80885
0.805083
0.822751
0.812425
0.829012
0.825288
0.843054
0.837621
0.852352
0.846405
0.848438
0.848054
0.854926
0.857172
0.854669
0.847571
0.845964
0.845833
0.846083
0.853328
0.86
0.865823
0.851975
0.854555
0.855842
0.855634
0.858945
0.845704
0.838998
0.831771
0.831399
0.809362
0.818526
0.807713
0.813298
0.808703