/*--------------------------------*- C++ -*----------------------------------*\
| =========                 |                                                 |
| \\      /  F ield         | OpenFOAM: The Open Source CFD Toolbox           |
|  \\    /   O peration     | Version:  2.1.1                                 |
|   \\  /    A nd           | Web:      www.OpenFOAM.org                      |
|    \\/     M anipulation  |                                                 |
\*---------------------------------------------------------------------------*/
FoamFile
{
    version     2.0;
    format      ascii;
    class       volScalarField;
    location    "0.007000000";
    object      rhoUnburned;
}
// * * * * * * * * * * * * * * * * * * * * * * * * * * * * * * * * * * * * * //

dimensions      [1 -3 0 0 0 0 0];

internalField   nonuniform List<scalar> 
12384
(
2.54658
2.58542
2.61283
2.63805
2.65778
2.67229
2.66802
2.652
2.62054
2.58258
2.53931
2.50582
2.47808
2.37006
4.30619
3.94709
3.80294
3.77924
3.79049
3.83363
3.89594
3.97011
4.01207
4.01337
3.96416
3.90961
3.87457
3.86561
3.87984
3.90456
3.93388
3.96432
3.99691
4.02927
4.06628
4.10376
4.13444
4.16062
4.18492
4.20513
4.19579
4.0849
4.01494
4.4363
4.28003
4.521
4.62586
4.63964
4.64157
4.64573
4.65422
4.64872
4.65552
4.64738
4.64078
4.63599
4.61677
4.58179
4.56603
4.5344
4.52407
4.51206
4.50471
4.49851
4.51654
4.48665
4.51481
4.49867
4.50982
4.53114
4.57932
4.60487
4.43281
4.2719
4.70637
4.62776
4.61958
4.62187
4.62208
4.64145
4.64517
4.66158
4.66313
4.67211
4.66881
4.66877
4.67032
4.67286
4.67818
4.68696
4.6998
4.71242
4.75555
4.75191
4.8115
4.79614
4.82011
4.81264
4.76745
4.72857
4.69036
4.63605
4.71229
4.88547
4.43354
4.4449
4.49546
4.52476
4.55698
4.56591
4.56779
4.56541
4.56206
4.56393
4.57242
4.58114
4.58257
4.59569
4.60982
4.60939
4.62696
4.60784
4.57402
4.54819
4.49512
4.42887
4.56987
4.9353
4.95305
4.92896
4.90893
4.9141
4.91025
4.95602
4.9403
4.96443
5.00339
4.98639
4.93353
4.862
4.87101
4.83923
4.85656
4.83566
4.81893
4.78286
4.75933
4.73763
4.71715
4.70201
4.68972
4.67916
4.66667
4.65324
4.65105
4.63126
4.62741
4.59164
4.56737
4.54537
4.50509
4.52
4.497
4.47859
6.37729
6.16838
5.79258
5.63569
5.64124
5.67283
5.70907
5.72398
5.75121
5.76707
5.78941
5.81921
5.87194
5.91879
5.98994
5.98245
6.0452
6.05237
6.03142
5.99039
5.92138
5.83893
5.75503
5.67239
6.10379
6.73742
6.68982
6.68119
6.67593
6.68369
5.1353
4.74533
4.58539
4.51948
4.48339
4.45888
4.45247
4.45665
4.49893
4.48776
4.57384
4.56345
4.64094
4.62109
4.62593
4.61437
4.59103
4.56975
4.54151
4.52483
4.70979
4.85872
4.86858
4.86438
4.85136
4.84901
4.84071
4.83185
4.85066
4.84807
5.15015
5.07786
5.0424
5.03057
5.04527
5.07953
5.11744
5.16463
5.1585
5.21782
5.14753
5.199
5.021
4.98513
4.88056
4.84475
4.83143
4.79814
4.92352
4.83118
4.83868
4.73031
4.73849
4.65327
4.65088
4.61371
4.61102
4.66234
4.75953
4.79622
5.3132
5.21793
5.16862
5.16104
5.18006
5.23183
5.26439
5.33318
5.36849
5.44357
5.42662
5.44696
5.38648
5.32509
5.28069
5.28218
5.35901
5.50037
5.53818
5.53181
5.5249
5.51385
5.48356
5.48982
5.45577
5.41595
5.40397
5.34906
5.35889
5.37151
6.12763
5.9217
5.79726
5.7748
5.81904
5.91843
6.02341
6.09093
6.09493
6.03121
5.97378
5.89933
5.7886
5.73983
5.82584
5.83585
5.81809
5.83934
5.91719
6.04268
6.15462
6.22497
6.26639
6.27603
6.26879
6.22542
6.1444
6.01935
5.91315
5.90677
7.41853
7.45886
7.42644
6.48176
6.24921
6.36188
6.48268
6.53339
6.59356
6.65828
6.70903
6.77466
6.802
6.85442
6.90283
6.92942
6.95221
6.97228
6.98409
6.98745
6.99156
6.96037
6.91409
6.8495
6.79567
6.77222
6.80271
7.08483
7.32758
7.33417
6.94927
6.95548
6.92066
6.90691
6.91899
7.08434
7.15808
4.89862
4.55416
4.54094
4.50608
4.48357
4.46978
4.45543
4.43819
4.43836
4.43997
4.44669
4.46411
4.48396
4.50975
4.53696
4.58048
4.66243
4.86316
5.14337
5.42871
5.46254
5.04132
4.49119
2.69214
2.72261
2.79552
2.87675
2.9169
2.92924
2.92396
2.91019
2.88332
2.80281
2.69363
2.57111
2.49316
2.37864
4.26922
3.86849
3.77365
3.78965
3.85686
3.95449
4.03144
4.05272
3.94713
3.69616
3.48268
3.41452
3.44223
3.52594
3.6211
3.69539
3.74133
3.76266
3.77224
3.78064
3.80309
3.83961
3.901
3.98368
4.07515
4.15165
4.19048
4.14834
4.02002
4.20667
4.28865
4.53099
4.61178
4.61521
4.61665
4.62072
4.63133
4.63504
4.63728
4.64379
4.62312
4.60099
4.54343
4.48679
4.43094
4.4006
4.37139
4.36025
4.35442
4.35093
4.34229
4.34782
4.34572
4.37074
4.40365
4.45081
4.51935
4.583
4.54032
4.39417
4.67976
4.62233
4.61973
4.62608
4.63105
4.64137
4.66077
4.68371
4.69877
4.70627
4.71069
4.70336
4.69497
4.68622
4.68002
4.69004
4.71122
4.74398
4.79104
4.83653
4.85927
4.89315
4.89096
4.88082
4.8562
4.81132
4.76235
4.69122
4.66757
4.762
4.43752
4.45401
4.5264
4.58439
4.60462
4.60256
4.58814
4.56891
4.551
4.53416
4.51826
4.50637
4.51413
4.52437
4.52591
4.54119
4.55472
4.57839
4.56531
4.54705
4.54498
4.49353
4.48759
4.66275
4.88965
4.87653
4.8209
4.78903
4.77559
4.80231
4.9344
4.97994
4.99775
4.95821
4.90869
4.8926
4.92238
4.92641
4.89746
4.82545
4.76528
4.73254
4.72432
4.7301
4.72959
4.71937
4.69537
4.66319
4.62702
4.58946
4.56441
4.54043
4.52448
4.52503
4.51817
4.51985
4.50896
4.50877
4.51442
4.49416
6.34665
5.97662
5.58697
5.51598
5.59698
5.65574
5.70704
5.73446
5.75135
5.80658
5.85046
5.89503
5.95736
6.00764
6.03868
6.05755
6.12526
6.08963
6.08756
6.05757
6.04118
6.00429
5.91261
5.77575
5.85506
6.51255
6.65878
6.61991
6.53246
6.51743
5.05981
4.5679
4.47116
4.41029
4.36604
4.36524
4.39836
4.44868
4.47719
4.52296
4.56572
4.60892
4.60319
4.64843
4.63111
4.62481
4.62222
4.61184
4.59103
4.54811
4.59341
4.8055
4.8955
4.89873
4.87427
4.83323
4.8098
4.78866
4.76307
4.75467
5.1242
5.05439
5.02257
5.04217
5.09331
5.1489
5.20903
5.25112
5.2892
5.31585
5.29578
5.26388
5.16473
5.10203
5.00969
4.94759
4.83746
4.79634
4.84583
4.81305
4.82657
4.73
4.73051
4.67698
4.62014
4.55613
4.4882
4.45192
4.59655
4.78381
5.35575
5.27664
5.30119
5.36178
5.4356
5.5629
5.67172
5.77615
5.82907
5.96838
5.91593
5.88153
5.80307
5.67707
5.5566
5.43038
5.37558
5.42384
5.47934
5.49547
5.52237
5.52359
5.52616
5.53485
5.49976
5.44929
5.41288
5.37178
5.26642
5.30013
6.11992
5.80755
5.76181
5.83957
5.98439
6.1601
6.2834
6.34994
6.39023
6.36248
6.24188
6.1097
5.94325
5.75933
5.73829
5.82086
5.82897
5.93909
6.16473
6.35345
6.49232
6.59057
6.65494
6.67445
6.64597
6.55966
6.47332
6.28151
6.00211
5.90956
7.40187
7.45039
6.98336
6.2551
6.21436
6.28049
6.29035
6.3775
6.42428
6.51842
6.63134
6.78712
6.9792
7.12334
7.25358
7.2949
7.30524
7.31223
7.31343
7.30652
7.30146
7.29393
7.29404
7.27468
7.148
6.9729
6.8798
7.00662
7.31078
7.33808
7.01173
7.03968
7.00131
6.70668
6.8564
7.14477
5.85285
4.59993
4.44808
4.36672
4.27743
4.22779
4.19928
4.19533
4.20037
4.21231
4.24193
4.28208
4.33161
4.3805
4.41322
4.43007
4.4377
4.47714
4.72152
5.18704
5.50581
5.43194
4.89393
4.44199
2.75442
2.85067
2.98216
3.02016
2.99138
2.93814
2.90005
2.89447
2.92027
2.93724
2.88075
2.71184
2.53353
2.38709
4.22474
3.81288
3.76574
3.8443
3.95116
4.04183
4.05958
3.88016
3.52781
3.24983
3.15362
3.2106
3.35649
3.54812
3.69136
3.74286
3.72039
3.66174
3.60257
3.56154
3.54999
3.57252
3.62661
3.71618
3.84767
4.00161
4.1289
4.16765
4.07232
4.10138
4.29129
4.52156
4.58965
4.59013
4.59759
4.61126
4.62301
4.63845
4.65069
4.66626
4.65469
4.61882
4.52727
4.43856
4.38272
4.35334
4.35115
4.35446
4.35332
4.3422
4.3324
4.30874
4.29261
4.29078
4.30708
4.36403
4.43669
4.52792
4.56505
4.47083
4.68062
4.62628
4.62755
4.62816
4.63915
4.67068
4.71267
4.75049
4.77016
4.78584
4.78579
4.78311
4.77035
4.74924
4.71545
4.71147
4.73746
4.78185
4.83004
4.87298
4.91154
4.9227
4.95376
4.92266
4.9012
4.86559
4.81808
4.75113
4.68619
4.71028
4.46966
4.48378
4.56279
4.62423
4.62088
4.60479
4.57142
4.52973
4.48147
4.42981
4.38093
4.3489
4.32873
4.30916
4.31531
4.34872
4.3782
4.42819
4.49324
4.52967
4.54291
4.54345
4.51088
4.53653
4.72021
4.87654
4.83265
4.78282
4.74225
4.72814
4.93952
4.9943
5.00536
4.93938
4.91786
4.93539
4.96665
4.89057
4.75772
4.60972
4.52824
4.53118
4.61868
4.70347
4.73601
4.72865
4.67026
4.5808
4.48776
4.40607
4.36128
4.33304
4.32795
4.34649
4.39342
4.44153
4.47526
4.4976
4.51974
4.5075
6.31759
5.80365
5.45753
5.45243
5.49642
5.44963
5.44586
5.50367
5.58975
5.69773
5.84555
5.93737
5.99419
5.99152
5.96195
5.95769
5.86993
5.83782
5.84065
5.88708
5.93051
5.97354
5.99179
5.90759
5.82253
6.07002
6.58063
6.61488
6.52572
6.4027
4.86756
4.4778
4.40636
4.30752
4.30719
4.36409
4.43904
4.48652
4.51388
4.55374
4.56954
4.55508
4.61043
4.58022
4.59052
4.5966
4.6058
4.62368
4.62627
4.59469
4.57345
4.69276
4.88227
4.94949
4.92804
4.87913
4.82518
4.78893
4.74635
4.72681
5.06471
4.9956
5.0094
5.07989
5.16345
5.22016
5.28722
5.30091
5.3444
5.36027
5.31171
5.31426
5.23722
5.18958
5.06727
5.03706
4.9073
4.83749
4.8054
4.78926
4.83519
4.7817
4.75015
4.69193
4.65295
4.60712
4.54952
4.41714
4.43749
4.71022
5.24666
5.28111
5.37649
5.5059
5.61748
5.72508
5.88673
5.99563
6.05313
6.2002
6.2299
6.2629
6.15854
6.02377
5.87635
5.70928
5.55774
5.47238
5.47614
5.51572
5.51086
5.51963
5.52021
5.48914
5.44487
5.41643
5.37685
5.35217
5.28119
5.21267
5.8767
5.71142
5.83703
6.0414
6.24806
6.40871
6.48431
6.55106
6.56479
6.56422
6.50617
6.35708
6.17031
5.9167
5.74536
5.79503
5.83572
5.95256
6.1938
6.38678
6.54141
6.67295
6.76997
6.79041
6.72586
6.60176
6.45442
6.33264
6.0291
5.92287
7.40559
7.41896
6.49078
6.10422
6.07283
6.00522
5.91591
5.88153
5.89626
5.98234
6.1391
6.33495
6.61576
6.93901
7.19491
7.29573
7.29599
7.29347
7.28423
7.28617
7.29812
7.32052
7.33404
7.33471
7.31815
7.19601
7.01939
7.02203
7.28672
7.32456
6.99883
7.08353
7.12974
6.8873
6.99609
6.67243
4.96769
4.40376
4.29614
4.18419
4.12044
4.0973
4.08659
4.07215
4.08119
4.08942
4.12425
4.17848
4.25702
4.34034
4.40417
4.42709
4.43479
4.48571
4.8491
5.37822
5.46847
5.16813
4.54594
4.39185
2.85483
3.00694
3.04784
2.96165
2.83313
2.72016
2.65239
2.6272
2.67267
2.79702
2.90057
2.83269
2.61155
2.39861
4.19144
3.79248
3.78201
3.90421
4.01374
4.06577
3.94898
3.62407
3.25797
3.08348
3.13753
3.3229
3.52728
3.73411
3.7926
3.73632
3.60448
3.48394
3.38767
3.3238
3.29774
3.30848
3.35975
3.45404
3.59789
3.79221
4.00858
4.14915
4.11209
4.07073
4.28071
4.49251
4.55508
4.55983
4.58277
4.58937
4.59859
4.62754
4.63322
4.6608
4.66847
4.62518
4.51971
4.41951
4.37267
4.38392
4.39675
4.39554
4.38053
4.35906
4.33794
4.32977
4.28786
4.28336
4.26211
4.29141
4.37018
4.46766
4.55524
4.50687
4.68557
4.64227
4.63804
4.63778
4.66414
4.7128
4.75903
4.77299
4.76965
4.76007
4.76906
4.79
4.80998
4.8033
4.74744
4.73094
4.76644
4.82425
4.855
4.9075
4.93084
4.95592
4.92385
4.92723
4.91377
4.89465
4.8605
4.80089
4.72259
4.70361
4.52296
4.50764
4.60342
4.64365
4.63438
4.59422
4.54334
4.47622
4.39625
4.30728
4.24005
4.19355
4.15389
4.1417
4.15067
4.15811
4.1931
4.23748
4.31359
4.42461
4.50619
4.54364
4.53201
4.51713
4.60328
4.80526
4.87002
4.82078
4.78772
4.74342
4.94375
5.00526
5.02025
4.9425
4.93577
4.96433
4.94554
4.78481
4.55022
4.38219
4.32757
4.36315
4.517
4.7035
4.74842
4.72625
4.61192
4.46348
4.31433
4.1925
4.10722
4.08328
4.09173
4.13113
4.20746
4.31696
4.4118
4.47349
4.51854
4.52414
6.27294
5.6902
5.35509
5.32515
5.22883
5.13285
5.13276
5.22191
5.42492
5.6717
5.89134
6.01059
6.00771
5.91051
5.77972
5.65137
5.53357
5.50917
5.51428
5.55295
5.65572
5.79639
5.92879
5.97935
5.85193
5.90075
6.30941
6.67982
6.60524
6.41459
4.63363
4.44846
4.2756
4.23646
4.32153
4.4286
4.49087
4.51806
4.51801
4.52587
4.48594
4.51772
4.50862
4.53762
4.55666
4.56659
4.57308
4.59243
4.62403
4.6275
4.59755
4.63399
4.80403
4.94
4.97589
4.91589
4.83981
4.81337
4.75578
4.71583
4.97306
4.94333
5.03159
5.14148
5.22219
5.25623
5.30145
5.29895
5.31082
5.32839
5.33268
5.2745
5.21508
5.23192
5.10521
5.08606
4.96786
4.87078
4.79164
4.79027
4.80841
4.80282
4.75558
4.68618
4.6639
4.66391
4.62081
4.48743
4.36412
4.61413
5.22524
5.34777
5.46763
5.56497
5.74407
5.81654
5.88468
6.05864
6.1589
6.19363
6.31281
6.32569
6.339
6.24468
6.13571
5.97938
5.75821
5.61205
5.55541
5.4927
5.44763
5.47508
5.48155
5.4382
5.42744
5.40291
5.33612
5.30475
5.26992
5.18544
5.75206
5.71562
5.98012
6.25401
6.44229
6.50463
6.63551
6.70249
6.71964
6.64485
6.60066
6.56898
6.39357
6.11567
5.84817
5.78051
5.82961
5.94618
6.11877
6.3127
6.48809
6.64337
6.78564
6.84471
6.82085
6.60838
6.32528
6.16753
6.00945
5.92688
7.40011
7.04991
6.22316
5.96251
5.82066
5.61376
5.47941
5.35689
5.36319
5.43851
5.60019
5.85316
6.1681
6.56777
6.99031
7.26304
7.27056
7.24821
7.17492
7.18385
7.25557
7.32094
7.3674
7.3803
7.36508
7.31377
7.14806
7.08599
7.27531
7.31068
6.83293
7.07294
7.21998
7.02181
7.04473
5.83079
4.56598
4.26812
4.1626
4.07941
4.05122
4.03478
4.03274
4.03788
4.03232
4.03763
4.04622
4.09039
4.16984
4.29166
4.3905
4.40596
4.42822
4.54778
5.16436
5.51351
5.19143
4.62617
4.2294
4.46097
2.99932
3.06287
2.95669
2.79372
2.70501
2.66147
2.61531
2.55194
2.54008
2.61169
2.80203
2.86716
2.67546
2.41329
4.1859
3.7819
3.79735
3.94519
4.03297
4.03807
3.8387
3.47039
3.13948
3.05066
3.24623
3.51
3.66582
3.81246
3.78809
3.62226
3.45598
3.3211
3.21494
3.13635
3.08992
3.08929
3.13864
3.23537
3.38237
3.593
3.86131
4.10013
4.12537
4.07543
4.26218
4.43317
4.50788
4.5082
4.53649
4.58251
4.58119
4.56933
4.5418
4.57964
4.62496
4.62256
4.51075
4.39318
4.39742
4.4346
4.4246
4.39969
4.35551
4.32258
4.30228
4.30566
4.28733
4.27631
4.25181
4.25736
4.31366
4.42098
4.53781
4.52685
4.71354
4.66096
4.64853
4.65136
4.69071
4.74376
4.75836
4.74517
4.72957
4.7317
4.73248
4.75515
4.79597
4.8241
4.77882
4.75735
4.798
4.85375
4.89513
4.92943
4.91582
4.89134
4.92554
4.92458
4.90546
4.90189
4.89276
4.84774
4.76479
4.71781
4.57532
4.52478
4.64625
4.65477
4.63083
4.58744
4.50459
4.40944
4.30129
4.21502
4.14873
4.0875
4.04435
4.01707
4.00105
4.02313
4.06749
4.11993
4.17581
4.27634
4.41547
4.52329
4.54821
4.52793
4.55066
4.72972
4.87015
4.83822
4.81236
4.78203
4.93117
5.00637
5.03478
4.95955
4.9474
4.97352
4.93678
4.71277
4.46712
4.30009
4.26453
4.30273
4.4598
4.69997
4.76884
4.72178
4.55213
4.33936
4.15599
4.01046
3.91091
3.85833
3.88013
3.9333
4.02861
4.16743
4.3255
4.44315
4.51852
4.54461
6.25502
5.61531
5.27373
5.14922
4.96771
4.84545
4.8706
5.00458
5.28899
5.6761
5.94763
6.05836
5.96727
5.74317
5.55553
5.33874
5.2065
5.09587
5.08837
5.20369
5.36922
5.56208
5.81653
5.92281
5.88313
5.85676
6.10833
6.5939
6.60677
6.39621
4.48696
4.37699
4.1803
4.24757
4.39786
4.49356
4.51308
4.50345
4.49285
4.45179
4.44027
4.47673
4.46679
4.47294
4.47745
4.5073
4.55063
4.57892
4.61907
4.65136
4.63471
4.62469
4.72614
4.89559
4.9516
4.88745
4.8347
4.8442
4.77684
4.70783
4.87628
4.94832
5.09507
5.20692
5.24687
5.26744
5.27659
5.27722
5.25974
5.25465
5.22127
5.2888
5.16486
5.20524
5.12472
5.1046
4.99727
4.91673
4.79297
4.78257
4.77763
4.78759
4.73351
4.70246
4.72107
4.74983
4.72273
4.56881
4.37057
4.55092
5.28362
5.37493
5.49937
5.64672
5.73153
5.89652
5.9787
5.99895
6.1205
6.25994
6.31111
6.41683
6.42323
6.39599
6.29889
6.12542
5.94221
5.79185
5.6334
5.52579
5.49267
5.4495
5.42298
5.39616
5.41827
5.43399
5.37143
5.27119
5.2307
5.13781
5.68149
5.7919
6.15066
6.42505
6.51774
6.63894
6.68166
6.73119
6.76496
6.81121
6.76368
6.66098
6.57029
6.33128
5.98912
5.82023
5.86292
5.90381
6.07426
6.25407
6.37692
6.49897
6.65713
6.85007
6.91168
6.74799
6.40768
6.07356
5.95281
5.89916
7.38518
6.77673
6.0561
5.79063
5.52739
5.26029
5.08147
4.94619
4.95671
5.01438
5.16001
5.42027
5.77646
6.21804
6.70077
7.13676
7.23543
7.21068
7.10188
7.13104
7.28007
7.35591
7.41987
7.42692
7.39536
7.33871
7.22527
7.16532
7.26882
7.30419
6.396
7.01834
7.25543
7.14787
6.83732
5.30006
4.37594
4.17354
4.09044
4.0333
4.02118
4.01443
4.01411
4.01449
4.02419
4.02683
4.0255
4.03725
4.09304
4.21732
4.37048
4.41454
4.42105
4.62788
5.32358
5.50291
4.77874
4.2695
4.22567
4.78686
3.05786
3.00737
2.83831
2.75757
2.83488
2.93372
2.89069
2.73087
2.56577
2.55169
2.70098
2.85153
2.71878
2.42085
4.20811
3.78116
3.80218
3.95274
4.02685
4.00648
3.81697
3.42578
3.08885
3.0318
3.34224
3.65273
3.73827
3.84128
3.73088
3.52447
3.36244
3.23436
3.11942
3.02222
2.95492
2.93221
2.96967
3.06889
3.22117
3.4383
3.72837
4.04307
4.12683
4.07537
4.23656
4.36235
4.42758
4.41785
4.43129
4.49083
4.49139
4.44408
4.38686
4.41706
4.55336
4.60627
4.49683
4.38949
4.43648
4.45845
4.42461
4.35578
4.29765
4.27126
4.25387
4.27081
4.26576
4.27046
4.24732
4.24697
4.28268
4.39309
4.52636
4.53999
4.72713
4.66704
4.65275
4.67235
4.71356
4.74196
4.74509
4.74548
4.74167
4.72805
4.72732
4.7582
4.78343
4.81653
4.78903
4.77511
4.81858
4.88732
4.91413
4.91528
4.91902
4.89832
4.85791
4.86012
4.86651
4.88818
4.9102
4.8861
4.81205
4.74006
4.61081
4.56163
4.67335
4.6528
4.61979
4.56277
4.46485
4.3504
4.24704
4.16592
4.09393
4.01278
3.93817
3.86997
3.83759
3.8524
3.91106
4.00481
4.09081
4.18419
4.31491
4.47786
4.54668
4.54196
4.532
4.66992
4.85562
4.85687
4.82634
4.79678
4.92968
4.99979
5.05289
4.98702
4.94788
4.96997
4.95866
4.76438
4.51842
4.35644
4.28045
4.30683
4.44422
4.70253
4.78566
4.7056
4.46826
4.23827
4.03821
3.88815
3.78331
3.72822
3.70966
3.77072
3.88843
4.05753
4.24798
4.41818
4.5245
4.54956
6.21027
5.56513
5.17835
4.99176
4.77288
4.6742
4.70166
4.8789
5.22172
5.67379
5.98953
6.06504
5.85522
5.61107
5.35177
5.11161
4.98337
4.93207
4.93674
4.97834
5.11575
5.40655
5.62738
5.83823
5.88525
5.83944
5.99745
6.43207
6.60793
6.42102
4.44888
4.24838
4.1632
4.32644
4.47738
4.52163
4.50162
4.48303
4.45102
4.4114
4.4587
4.46051
4.47456
4.48779
4.49643
4.48086
4.50356
4.5497
4.59098
4.6381
4.6567
4.63196
4.68324
4.81807
4.87822
4.8182
4.83989
4.85879
4.79674
4.7117
4.85612
5.00688
5.15012
5.23168
5.25542
5.23837
5.24307
5.21743
5.22161
5.21872
5.15261
5.18028
5.16044
5.17346
5.0953
5.11447
5.02312
4.92899
4.81554
4.7648
4.7573
4.73992
4.71526
4.77101
4.83981
4.85198
4.80628
4.63853
4.36777
4.51039
5.2578
5.35255
5.49138
5.67202
5.80298
5.82795
6.03871
6.01664
6.0097
6.18109
6.21396
6.21034
6.28711
6.38147
6.2986
6.23569
6.12846
5.87596
5.69514
5.60246
5.49354
5.41207
5.38498
5.38147
5.4789
5.49316
5.3881
5.26156
5.2101
5.12662
5.61801
5.93429
6.35561
6.5604
6.61631
6.59802
6.4554
6.29433
6.38093
6.60573
6.86058
6.90134
6.76381
6.49362
6.12596
5.89293
5.87112
5.92386
6.04463
6.16158
6.2395
6.2914
6.44963
6.64937
6.85454
6.97952
6.77178
6.33552
5.97289
5.88421
7.37489
6.63582
5.94737
5.60554
5.28899
5.00378
4.78113
4.70095
4.69236
4.74042
4.87222
5.08971
5.43076
5.91279
6.44266
6.94925
7.22395
7.19425
7.04872
7.09175
7.2692
7.35419
7.42914
7.44905
7.39996
7.32656
7.26918
7.23979
7.26955
7.29345
5.97941
6.86257
7.21949
7.18645
6.51441
4.99614
4.2829
4.11801
4.05342
4.0075
4.01844
4.01732
4.01958
4.01038
4.00632
4.02547
4.02644
4.03127
4.04103
4.12972
4.33265
4.47167
4.40934
4.64193
5.39954
5.59892
4.67898
4.27053
4.46385
5.52698
3.04177
2.91111
2.80137
2.99272
3.24901
3.33537
3.21225
2.93485
2.65244
2.54104
2.65057
2.83476
2.72268
2.42027
4.26304
3.78355
3.7838
3.93494
4.00038
3.98802
3.82707
3.41935
3.05849
3.02355
3.3699
3.73426
3.77241
3.84727
3.67033
3.46917
3.33057
3.20703
3.07881
2.95686
2.86661
2.83478
2.86206
2.95773
3.11555
3.33468
3.63524
3.99421
4.12418
4.07261
4.23342
4.28975
4.34826
4.31319
4.28273
4.30111
4.28951
4.25744
4.20735
4.25662
4.46565
4.60165
4.48222
4.38624
4.46298
4.46282
4.39753
4.30345
4.26293
4.25465
4.2551
4.25388
4.25933
4.26449
4.24418
4.24137
4.27549
4.38023
4.52348
4.54729
4.75622
4.68725
4.68456
4.69126
4.70243
4.73328
4.75419
4.74933
4.72696
4.70995
4.71875
4.76536
4.79435
4.82232
4.78175
4.7785
4.8494
4.89758
4.90195
4.92892
4.8873
4.83475
4.85728
4.86883
4.86117
4.85955
4.91914
4.91106
4.84265
4.77003
4.58427
4.61397
4.67133
4.63288
4.61487
4.53915
4.44107
4.31731
4.22456
4.16626
4.08309
3.96163
3.86638
3.79526
3.75913
3.75863
3.80523
3.89947
4.01491
4.13129
4.26435
4.43587
4.5305
4.54497
4.52627
4.6366
4.84761
4.87269
4.84352
4.79131
4.8974
4.96879
5.04179
5.02868
4.96722
4.95464
4.97205
4.85868
4.68135
4.51563
4.43327
4.38753
4.46246
4.69311
4.81772
4.68767
4.43146
4.17456
3.96956
3.79487
3.68789
3.62002
3.62203
3.6656
3.77808
3.98241
4.2012
4.39899
4.52813
4.57431
6.18961
5.5285
5.10014
4.86693
4.66221
4.61247
4.65697
4.83312
5.17156
5.6748
6.01823
6.03699
5.78922
5.5519
5.2394
5.01721
4.89377
4.79314
4.76034
4.8417
5.01959
5.24306
5.50845
5.7933
5.87188
5.81445
5.92541
6.33136
6.57378
6.33245
4.41052
4.13084
4.21334
4.411
4.52023
4.5275
4.48409
4.48213
4.42722
4.40152
4.49032
4.48953
4.48551
4.52102
4.52545
4.51
4.49791
4.52721
4.59041
4.64223
4.66388
4.64854
4.66373
4.75736
4.78077
4.79171
4.85014
4.83162
4.75846
4.70868
4.88972
5.05957
5.18677
5.22742
5.24503
5.21287
5.19893
5.17867
5.15712
5.17904
5.11499
5.1341
5.0995
5.15379
5.08707
5.09658
5.00152
4.9483
4.81087
4.76543
4.73041
4.70043
4.73788
4.87837
4.92426
4.87272
4.79328
4.62948
4.34408
4.48405
5.19394
5.29717
5.46697
5.6683
5.81017
5.90866
5.89151
6.05062
5.99317
6.09534
6.09
6.2186
6.26373
6.28224
6.29388
6.33977
6.12227
5.92158
5.78829
5.6416
5.50183
5.42531
5.36357
5.44167
5.59239
5.48978
5.29948
5.19563
5.14232
5.07761
5.63535
6.13921
6.52981
6.57501
6.57196
6.49026
6.31094
6.33056
6.36321
6.39017
6.56802
6.91144
6.85942
6.66607
6.33345
5.97904
5.89603
5.95588
6.02113
6.13387
6.14323
6.14756
6.19007
6.33922
6.60125
6.89452
7.06367
6.93993
6.53516
6.13748
7.3609
6.58673
5.86404
5.46804
5.13455
4.81149
4.61116
4.56555
4.52226
4.58275
4.68997
4.88421
5.21793
5.67705
6.20923
6.79226
7.15381
7.14228
6.98673
7.0567
7.25549
7.31992
7.37124
7.39763
7.3613
7.29889
7.26163
7.25686
7.28075
7.2874
5.6353
6.29744
7.10416
7.1526
6.22868
4.83523
4.23628
4.08778
4.03128
4.01303
4.03032
4.01982
4.02119
4.01917
4.00431
4.01303
4.01981
4.04481
4.03402
4.06248
4.25337
4.53987
4.43256
4.60311
5.54944
5.9242
5.04009
4.70682
5.3035
6.72567
2.99135
2.87151
2.9767
3.32705
3.47222
3.38931
3.13461
2.83301
2.60897
2.53881
2.64222
2.83194
2.71934
2.40607
4.35069
3.84364
3.75393
3.89807
3.97819
3.97532
3.87294
3.48266
3.05136
3.02933
3.36547
3.77792
3.79467
3.85052
3.63485
3.45649
3.34071
3.22498
3.07663
2.92777
2.81984
2.79639
2.8193
2.90737
3.0639
3.28762
3.59023
3.98004
4.12172
4.06521
4.2268
4.23105
4.25669
4.2385
4.16953
4.11685
4.07345
4.05468
4.04532
4.11508
4.36851
4.60119
4.46162
4.39269
4.47905
4.45992
4.3665
4.27935
4.25311
4.2612
4.27255
4.27559
4.26352
4.26895
4.24475
4.24013
4.2793
4.38439
4.52879
4.5578
4.76485
4.71496
4.68709
4.67608
4.70061
4.73503
4.73464
4.72472
4.71503
4.70978
4.72879
4.76028
4.78031
4.81251
4.76751
4.78007
4.85909
4.90308
4.89357
4.928
4.83981
4.80743
4.79368
4.82368
4.87024
4.83881
4.91636
4.93255
4.85657
4.78538
4.53785
4.64919
4.63052
4.6147
4.60777
4.53112
4.42499
4.30885
4.24446
4.18911
4.08303
3.96203
3.87919
3.79369
3.72402
3.72548
3.77004
3.86751
3.97903
4.10506
4.24403
4.41378
4.52438
4.54672
4.52179
4.62441
4.85607
4.88724
4.85059
4.8068
4.89504
4.93158
5.01801
5.05564
5.00547
4.96128
4.97047
4.91425
4.82648
4.70938
4.62101
4.5302
4.49617
4.68606
4.83367
4.67529
4.3869
4.14963
3.9295
3.76834
3.62759
3.56816
3.55928
3.62568
3.74106
3.94573
4.20044
4.40308
4.53368
4.56876
6.1782
5.54735
5.06711
4.81756
4.62374
4.58948
4.69084
4.88427
5.11848
5.64682
5.98365
6.01941
5.79438
5.53797
5.20208
5.02526
4.87732
4.7665
4.75876
4.86103
4.95915
5.20059
5.50788
5.75489
5.84582
5.8058
5.92616
6.30414
6.50693
6.12691
4.35614
4.04818
4.24391
4.4531
4.5429
4.5231
4.49557
4.46363
4.4429
4.39115
4.5139
4.46886
4.49344
4.5228
4.51944
4.49532
4.51598
4.51225
4.57187
4.65424
4.67525
4.655
4.65937
4.71014
4.73974
4.81892
4.82863
4.78163
4.76193
4.7386
4.8788
5.06981
5.1797
5.21644
5.22735
5.20936
5.16289
5.15503
5.14868
5.16055
5.07024
5.14412
5.04563
5.13292
5.07288
5.08118
5.00763
4.9298
4.81439
4.74031
4.71622
4.6674
4.83641
4.9913
4.90754
4.74415
4.64165
4.49043
4.32512
4.3895
5.15325
5.24444
5.41108
5.60676
5.77647
5.8937
5.95178
5.89271
6.09173
6.04332
6.07387
6.174
6.16112
6.28246
6.34218
6.28307
6.08628
6.0017
5.82133
5.64804
5.51129
5.40889
5.35392
5.59867
5.62467
5.45923
5.29621
5.19353
5.13222
5.12223
5.90667
6.30135
6.5454
6.6313
6.53748
6.41756
6.29055
6.31293
6.37301
6.53491
6.58467
6.80424
7.05462
6.73516
6.41295
6.12431
6.01283
5.96122
6.01498
6.07118
6.08043
6.02694
6.03546
6.12814
6.25987
6.49897
6.92496
7.18021
7.16485
6.92318
7.34389
6.58316
5.8095
5.41106
5.03198
4.69746
4.54988
4.48765
4.43677
4.48444
4.57155
4.79769
5.09116
5.5076
6.07929
6.64003
7.06157
7.19155
6.98499
6.95254
7.18672
7.28401
7.31677
7.32774
7.31151
7.27257
7.26165
7.26924
7.27997
7.27648
5.37011
5.68113
6.89478
7.05312
5.99699
4.75272
4.21755
4.08264
4.03093
4.01858
4.02665
4.00522
3.99428
4.0024
3.99689
4.0195
4.01414
4.0467
4.04267
4.04735
4.15644
4.60539
4.49734
4.53064
5.53185
6.37045
5.88633
5.72539
6.83881
7.93568
2.93738
2.90711
3.22552
3.47661
3.38206
3.02624
2.74237
2.5762
2.52025
2.54886
2.69086
2.83982
2.67898
2.41625
2.76718
3.4918
4.32776
3.92101
3.71977
3.83108
3.93573
3.95216
3.86859
3.50223
3.07929
3.05134
3.35982
3.80043
3.81357
3.84916
3.63012
3.47832
3.38354
3.27875
3.11793
2.9508
2.83794
2.81108
2.83375
2.91924
3.07146
3.28883
3.60864
3.99446
4.11311
4.05345
4.28264
4.38455
4.24351
4.20224
4.19265
4.17166
4.11725
4.05083
3.99607
3.97008
3.97114
4.04172
4.31418
4.61441
4.4454
4.39379
4.4883
4.45437
4.34615
4.27807
4.2551
4.25932
4.2889
4.27605
4.2744
4.26723
4.24415
4.2414
4.29037
4.40682
4.54413
4.5373
4.46813
4.64893
4.8069
4.72351
4.68909
4.69285
4.703
4.70065
4.70602
4.70232
4.69379
4.71119
4.74335
4.75502
4.76568
4.79722
4.75119
4.7621
4.85743
4.89847
4.88372
4.90308
4.82257
4.78998
4.774
4.81295
4.8507
4.86149
4.923
4.92864
4.87473
4.78503
4.58434
4.53245
4.55818
4.65785
4.60231
4.6206
4.61058
4.53174
4.42482
4.32484
4.28
4.22536
4.1126
4.01065
3.90959
3.82921
3.76304
3.77392
3.80333
3.90945
3.99315
4.11796
4.26143
4.42168
4.52449
4.54
4.5165
4.63537
4.85632
4.88035
4.84535
4.80369
4.76048
4.78085
4.81988
4.87985
4.96175
5.03933
5.03823
5.00412
4.96859
4.94025
4.91531
4.85611
4.78199
4.66906
4.53931
4.67963
4.84657
4.6567
4.38289
4.14695
3.93141
3.75842
3.62678
3.55764
3.5619
3.61918
3.76105
3.97547
4.23096
4.4281
4.54482
4.57952
5.37693
6.02274
6.12969
5.50078
5.01519
4.78135
4.62116
4.60459
4.80067
4.98813
5.08482
5.56855
5.93757
6.0114
5.81591
5.57413
5.26827
5.11459
4.96577
4.84113
4.81278
4.91494
5.00834
5.26886
5.57576
5.72206
5.82309
5.82757
5.93623
6.3087
6.28068
5.46566
4.31951
4.1732
4.11388
3.99944
4.24073
4.46244
4.54851
4.54607
4.49507
4.47735
4.4411
4.39014
4.50518
4.4685
4.49426
4.52878
4.52952
4.49787
4.50903
4.5235
4.57918
4.65317
4.6805
4.65525
4.65038
4.69093
4.77765
4.77927
4.75135
4.72752
4.71512
4.71948
4.7302
4.69753
4.92627
5.06627
5.17889
5.203
5.21961
5.2123
5.1424
5.10882
5.09078
5.07347
5.07827
5.12444
5.00681
5.12247
5.05414
5.05725
4.96589
4.92749
4.77982
4.74085
4.66756
4.68731
4.93141
4.99861
4.87174
4.72488
4.60331
4.51105
4.4732
4.65854
5.07706
5.02708
5.05539
5.11742
5.3117
5.5325
5.67849
5.83992
5.95385
5.94667
5.95207
6.14527
6.0146
6.16672
6.14779
6.32226
6.24459
6.23195
6.13293
5.98923
5.8104
5.66006
5.49862
5.37444
5.47893
5.67457
5.70734
5.67071
5.60165
5.52973
5.5112
5.54328
5.54066
5.4105
5.81946
6.23277
6.4744
6.64259
6.50693
6.41647
6.2865
6.33805
6.3534
6.53682
6.64576
6.89531
6.955
6.8895
6.48058
6.15019
6.028
6.03052
6.05742
6.09142
6.0451
5.99038
6.02091
6.0039
6.07561
6.16108
6.47383
7.00733
7.23692
7.22525
7.084
7.19971
7.33906
6.65999
5.84077
5.41016
5.00864
4.68673
4.52449
4.46114
4.43135
4.46057
4.55971
4.76855
5.02526
5.47362
5.9999
6.5397
6.96791
7.16486
6.96112
6.83588
7.03231
7.23217
7.26281
7.26688
7.27136
7.27392
7.26902
7.26964
7.21768
6.7395
5.76983
5.22174
5.03029
5.4514
6.28845
6.44652
5.78279
4.7307
4.22663
4.0871
4.03096
4.02143
4.02747
4.00338
4.00033
4.00592
3.99008
4.01846
4.01275
4.05173
4.05162
4.05128
4.11319
4.60982
4.65488
4.53792
5.4803
6.68974
6.86425
7.35405
7.76006
8.00454
3.98017
3.10017
2.90792
3.02259
3.36331
3.35908
2.91705
2.60426
2.47676
2.46697
2.53391
2.63188
2.77118
2.81172
2.5895
2.41351
2.69368
3.41905
4.2948
3.96527
3.71952
3.75273
3.84338
3.89138
3.80988
3.50159
3.13855
3.08385
3.38661
3.8298
3.82821
3.84885
3.6538
3.52139
3.44833
3.36379
3.21585
3.04549
2.93226
2.88978
2.91106
2.99193
3.13327
3.35147
3.67808
4.03309
4.10497
4.05868
4.33671
4.46407
4.31651
4.23193
4.18205
4.13947
4.09028
4.03597
3.98258
3.95513
3.95892
4.01831
4.2905
4.61382
4.43899
4.39461
4.48637
4.46449
4.35828
4.28193
4.26091
4.26315
4.27221
4.27329
4.27987
4.26075
4.23341
4.25435
4.31103
4.43308
4.55549
4.51595
4.45088
4.64488
4.78338
4.74511
4.71335
4.70215
4.68976
4.69283
4.69522
4.691
4.70597
4.73569
4.74609
4.73927
4.73432
4.77769
4.73561
4.76053
4.82929
4.89009
4.88121
4.8811
4.84272
4.8265
4.81197
4.82537
4.84186
4.87878
4.92008
4.91765
4.85669
4.7634
4.57387
4.56241
4.60124
4.62098
4.60619
4.63185
4.62122
4.54063
4.43848
4.34836
4.31141
4.2689
4.17191
4.07873
3.97718
3.92349
3.87987
3.86671
3.8938
3.96311
4.0405
4.16483
4.31593
4.44416
4.52121
4.53286
4.51582
4.65772
4.88126
4.90572
4.86944
4.82137
4.79777
4.79419
4.76565
4.78953
4.85912
4.95034
5.02262
5.02446
5.00706
4.98219
4.96571
4.9332
4.88729
4.76854
4.58901
4.6726
4.86878
4.67281
4.40021
4.17454
3.96682
3.78855
3.66439
3.59813
3.60593
3.68139
3.84032
4.05708
4.28308
4.4493
4.56553
4.76908
5.65174
6.02064
5.92754
5.35699
4.97083
4.78136
4.63102
4.66942
4.96732
5.11844
5.0622
5.45604
5.85975
6.01597
5.87087
5.65068
5.39911
5.23953
5.14181
5.01834
5.02351
5.07962
5.22909
5.46426
5.61294
5.75108
5.79758
5.85917
6.055
6.20248
5.3891
4.60728
4.10213
4.03119
3.91454
3.91596
4.18593
4.45123
4.55797
4.54932
4.5236
4.49168
4.44778
4.39784
4.4814
4.46377
4.46849
4.48359
4.50898
4.50874
4.50853
4.54107
4.61225
4.65594
4.67786
4.65577
4.66203
4.73057
4.79769
4.77344
4.72676
4.66491
4.62778
4.63129
4.66758
4.72507
4.89103
5.03764
5.15875
5.18328
5.20659
5.23609
5.2163
5.15491
5.14014
5.13918
5.05116
5.07646
5.01868
5.13667
5.00661
5.04901
4.96038
4.88326
4.76845
4.72293
4.61575
4.65886
4.86105
4.99822
5.02709
4.94434
4.85394
4.83913
4.88335
4.96335
5.00672
4.94679
4.98095
5.01465
5.18916
5.44637
5.63125
5.74842
5.91586
5.96693
5.94588
6.17301
6.18527
6.15614
6.27778
6.24743
6.22739
6.24868
6.10364
5.94858
5.80133
5.63433
5.46097
5.38124
5.49933
5.60699
5.62761
5.62666
5.6147
5.58281
5.54067