/*--------------------------------*- C++ -*----------------------------------*\
| =========                 |                                                 |
| \\      /  F ield         | OpenFOAM: The Open Source CFD Toolbox           |
|  \\    /   O peration     | Version:  2.1.1                                 |
|   \\  /    A nd           | Web:      www.OpenFOAM.org                      |
|    \\/     M anipulation  |                                                 |
\*---------------------------------------------------------------------------*/
FoamFile
{
    version     2.0;
    format      ascii;
    class       volScalarField;
    location    "0.007000000";
    object      sL;
}
// * * * * * * * * * * * * * * * * * * * * * * * * * * * * * * * * * * * * * //

dimensions      [0 1 -1 0 0 0 0];

internalField   nonuniform List<scalar> 
12384
(
8.29962
7.98889
7.77516
7.62599
7.45965
7.42063
7.39434
7.5606
7.69716
8.00579
8.23125
8.48579
8.65426
9.53472
2.82606
3.32534
3.51856
3.51602
3.51373
3.45791
3.42508
3.33644
3.31675
3.32729
3.43272
3.55223
3.64591
3.69038
3.68425
3.64631
3.5914
3.5295
3.46587
3.40779
3.34088
3.28682
3.2547
3.24211
3.23002
3.22626
3.2435
3.32635
3.21215
2.5058
3.41948
3.20786
3.10613
3.10502
3.11378
3.11811
3.09885
3.11712
3.08485
3.09636
3.09704
3.08425
3.08971
3.12714
3.12346
3.15047
3.1453
3.13672
3.14146
3.15081
3.11423
3.21354
3.16308
3.25649
3.25686
3.27451
3.23315
3.19978
3.30475
3.47298
3.14257
3.24139
3.27205
3.2857
3.27927
3.23418
3.21727
3.17901
3.17592
3.15143
3.15951
3.15869
3.15635
3.15287
3.14304
3.12495
3.09774
3.06383
2.9701
2.97599
2.84585
2.87857
2.83537
2.8541
2.94173
3.01031
3.07643
3.15717
3.06417
2.88438
3.34851
3.31529
3.25995
3.22238
3.19757
3.2056
3.22037
3.23732
3.24646
3.23986
3.20987
3.17333
3.15493
3.11169
3.0616
3.05732
3.03069
3.08922
3.15787
3.18998
3.26678
3.35614
3.14597
2.74056
2.7274
2.76589
2.79254
2.78683
2.79497
2.72528
2.80953
2.79459
2.76063
2.78116
2.8378
2.94538
2.92286
3.00455
2.98108
3.036
3.07331
3.1485
3.19216
3.24324
3.28325
3.31186
3.32821
3.33927
3.34848
3.36471
3.36044
3.38252
3.38153
3.45899
3.50782
3.55497
3.62351
3.60405
3.62472
3.66035
1.88557
2.03321
2.30241
2.42561
2.40561
2.38137
2.35466
2.3443
2.32092
2.31008
2.28679
2.25376
2.20123
2.15073
2.07173
2.07481
2.01253
1.99815
2.0079
2.0481
2.10876
2.18137
2.25025
2.33248
2.00227
1.50792
1.51642
1.5456
1.56393
1.56882
3.02639
3.52735
3.7583
3.84474
3.90743
3.94289
3.93392
3.91619
3.7596
3.80163
3.53784
3.58643
3.37708
3.45634
3.42941
3.45561
3.51164
3.55578
3.59468
3.60447
3.33796
3.13167
3.09362
3.07763
3.09411
3.07984
3.07536
3.0895
3.04239
3.04093
2.58791
2.66051
2.69555
2.70315
2.67602
2.62124
2.56045
2.48331
2.48855
2.41297
2.52904
2.44397
2.73415
2.73309
2.95291
2.96562
3.05294
3.19598
3.02107
3.19761
3.17935
3.3622
3.36362
3.52742
3.51929
3.58552
3.60159
3.53164
3.39599
3.33503
2.65007
2.75339
2.80186
2.803
2.76766
2.67431
2.62825
2.49549
2.46466
2.32614
2.36482
2.31095
2.37596
2.43774
2.4721
2.4662
2.403
2.29188
2.28659
2.29893
2.29787
2.31661
2.35012
2.34619
2.39152
2.4349
2.44234
2.5035
2.4903
2.49406
2.01923
2.14797
2.23947
2.2465
2.19702
2.10497
2.01203
1.94873
1.95004
2.0032
2.04742
2.10496
2.17546
2.20724
2.15072
2.13162
2.13291
2.11529
2.07713
2.00518
1.94577
1.91112
1.89108
1.88678
1.88984
1.90998
1.95189
2.02159
2.07786
2.07941
1.43848
1.41806
1.42473
1.80009
1.90639
1.84678
1.77032
1.73979
1.71066
1.67672
1.65256
1.62772
1.62643
1.60401
1.58553
1.57811
1.56951
1.56093
1.5549
1.55183
1.54646
1.55785
1.57479
1.59976
1.62829
1.64021
1.63058
1.51906
1.43366
1.43225
1.51363
1.51424
1.52224
1.527
1.52427
1.47748
1.45165
2.56535
2.81605
2.81662
2.8315
2.8428
2.83994
2.86132
2.89388
2.90664
2.92847
2.94529
2.94433
2.93954
2.92188
2.90611
2.86987
2.81504
2.66671
2.49144
2.32266
2.30824
2.54451
2.83887
7.22133
7.0106
6.58567
6.19247
6.00758
5.99631
6.03855
6.1413
6.29224
6.72962
7.35694
8.09526
8.60042
9.47762
2.87249
3.42924
3.54103
3.49463
3.43946
3.32439
3.24522
3.21342
3.38162
3.86102
4.41063
4.66297
4.65196
4.47445
4.25136
4.06347
3.92024
3.83571
3.76737
3.73932
3.6748
3.62981
3.54577
3.44442
3.35278
3.29017
3.2667
3.30068
3.32896
2.84148
3.41383
3.19165
3.11689
3.13505
3.1576
3.16338
3.14616
3.13579
3.12555
3.08832
3.10652
3.0966
3.14436
3.17434
3.21651
3.21787
3.22582
3.2213
3.21139
3.20938
3.2306
3.2387
3.27404
3.31263
3.30968
3.32358
3.2852
3.23294
3.2496
3.35282
3.1741
3.25558
3.2849
3.27307
3.25064
3.21775
3.16754
3.11215
3.0788
3.06761
3.05882
3.0729
3.08759
3.1039
3.11455
3.09757
3.05438
2.99067
2.89714
2.81131
2.75241
2.69346
2.70585
2.71821
2.77573
2.86995
2.96732
3.0836
3.1251
3.02548
3.34805
3.30612
3.21464
3.14803
3.14022
3.16273
3.20041
3.23514
3.25479
3.25789
3.2503
3.24246
3.192
3.13691
3.13476
3.10533
3.08743
3.06126
3.12863
3.18749
3.19297
3.2655
3.26728
3.03389
2.79289
2.83856
2.91109
2.9584
2.97738
2.94381
2.824
2.77915
2.7729
2.80858
2.86556
2.89962
2.87905
2.89518
2.93842
3.05049
3.13389
3.19645
3.23343
3.24374
3.25857
3.27765
3.30855
3.34264
3.38092
3.41767
3.4556
3.48248
3.50789
3.50421
3.54801
3.57395
3.60668
3.61925
3.60958
3.64076
1.90645
2.16602
2.466
2.51537
2.43761
2.38221
2.33377
2.32021
2.30974
2.2634
2.22471
2.18045
2.1186
2.06477
2.02268
2.0101
1.92757
1.94887
1.95156
1.97491
1.99791
2.04301
2.12437
2.24628
2.1852
1.72331
1.55208
1.58164
1.66768
1.69249
3.11455
3.75771
3.90908
4.00592
4.07805
4.07627
4.00551
3.87051
3.8056
3.68585
3.57005
3.43547
3.47146
3.35248
3.3898
3.41434
3.43729
3.4775
3.52008
3.57199
3.49974
3.19268
3.06558
3.0387
3.04976
3.09949
3.11369
3.12393
3.16054
3.15605
2.61482
2.67214
2.6994
2.66805
2.59717
2.51604
2.43209
2.37331
2.32995
2.31299
2.33304
2.36423
2.54429
2.59804
2.79321
2.83856
3.06881
3.13328
3.15078
3.21723
3.19286
3.38236
3.37384
3.46864
3.57381
3.66709
3.76373
3.83653
3.62832
3.36499
2.59851
2.68185
2.64752
2.5807
2.50436
2.35681
2.23426
2.12098
2.0747
1.94045
1.96663
1.99343
2.03972
2.14049
2.24427
2.35568
2.39639
2.35383
2.3291
2.33663
2.30816
2.3208
2.32295
2.32251
2.36541
2.41739
2.44439
2.47609
2.57606
2.54722
2.01476
2.20881
2.23062
2.16266
2.04085
1.89942
1.80115
1.7567
1.73108
1.76353
1.85928
1.96004
2.07784
2.19826
2.21206
2.14547
2.12714
2.05822
1.92971
1.83529
1.77067
1.72707
1.70034
1.69244
1.70292
1.74424
1.78104
1.87559
2.02802
2.07988
1.44304
1.42377
1.58457
1.91638
1.92801
1.87683
1.87116
1.80483
1.78298
1.73756
1.6892
1.61936
1.54378
1.49836
1.45585
1.44164
1.43845
1.4363
1.43433
1.43297
1.43094
1.42935
1.43055
1.44018
1.48796
1.55444
1.59745
1.54874
1.44069
1.43144
1.49568
1.48905
1.501
1.59853
1.54759
1.45677
2.01189
2.79196
2.8973
2.95834
3.0386
3.08099
3.10925
3.10533
3.10962
3.11127
3.09149
3.06499
3.02547
2.98258
2.96317
2.95613
2.95255
2.93484
2.76401
2.47232
2.27805
2.32526
2.63009
2.86757
6.79608
6.24254
5.62473
5.50496
5.68184
5.98675
6.21255
6.23015
6.14288
6.06074
6.40027
7.28994
8.36655
9.40134
2.92839
3.50451
3.53798
3.41482
3.3062
3.17784
3.1449
3.38538
4.13376
5.02605
5.49009
5.38555
4.9811
4.47106
4.08328
3.88189
3.82872
3.87843
3.93061
3.99615
4.00842
3.95136
3.87547
3.77058
3.60866
3.44911
3.3381
3.30015
3.34517
3.05402
3.4001
3.18483
3.12593
3.16514
3.19312
3.1887
3.17851
3.13993
3.10505
3.05809
3.05225
3.05126
3.12985
3.19592
3.22501
3.23373
3.2163
3.18632
3.18166
3.18704
3.18087
3.25259
3.26163
3.33081
3.34837
3.35764
3.33258
3.27871
3.24498
3.29871
3.15663
3.24959
3.26109
3.25125
3.21444
3.14094
3.05616
2.98266
2.95628
2.93125
2.93518
2.94457
2.96912
2.99889
3.05086
3.05024
3.00175
2.91878
2.81391
2.73274
2.64175
2.6214
2.55969
2.61593
2.66087
2.74853
2.85864
2.9831
3.0887
3.07635
3.30642
3.27497
3.16667
3.08893
3.12331
3.15975
3.218
3.26959
3.3082
3.33905
3.36685
3.3549
3.33079
3.34625
3.33426
3.26038
3.24154
3.18421
3.12182
3.14815
3.18122
3.18815
3.23146
3.18905
2.96613
2.82501
2.8861
2.95088
3.01707
3.03568
2.82568
2.76834
2.76091
2.83486
2.85407
2.85866
2.82754
2.9381
3.07622
3.2886
3.4107
3.43433
3.33916
3.26956
3.2372
3.25078
3.31953
3.43178
3.55099
3.65998
3.70375
3.76195
3.77803
3.75835
3.6886
3.65311
3.63443
3.61809
3.59442
3.6203
1.92143
2.29112
2.57172
2.56254
2.51545
2.56764
2.57361
2.51494
2.4441
2.35117
2.22799
2.1436
2.08141
2.06701
2.07054
2.04928
2.0857
2.11524
2.10221
2.077
2.04655
2.03496
2.04351
2.12709
2.20888
2.02821
1.66468
1.58972
1.665
1.76992
3.35747
3.8854
4.00022
4.15786
4.16062
4.05371
3.89955
3.79753
3.72744
3.58902
3.49929
3.5306
3.37957
3.4278
3.42395
3.42417
3.42652
3.41839
3.43803
3.486
3.50179
3.32848
3.07514
2.97391
2.98407
3.03162
3.08721
3.11768
3.17406
3.18782
2.66614
2.72687
2.70209
2.61434
2.50016
2.42466
2.31791
2.27793
2.21083
2.1823
2.27715
2.25061
2.40959
2.47418
2.69733
2.72346
2.97753
3.04282
3.20743
3.25184
3.18152
3.29738
3.37055
3.44084
3.51172
3.59895
3.67462
3.87567
3.86207
3.47364
2.68917
2.66696
2.5867
2.44538
2.32151
2.21568
2.04887
1.92527
1.88239
1.75962
1.74075
1.71432
1.79517
1.88457
1.99103
2.12504
2.24953
2.32239
2.31484
2.29941
2.32115
2.31753
2.32682
2.36797
2.41932
2.43266
2.47872
2.51612
2.57393
2.64399
2.15529
2.25673
2.15336
1.99664
1.83636
1.70736
1.64863
1.60508
1.59596
1.60483
1.6615
1.77918
1.91438
2.08492
2.19937
2.15978
2.11613
2.04975
1.90808
1.81015
1.74202
1.68684
1.64645
1.63724
1.66822
1.71949
1.78675
1.85044
2.01054
2.07049
1.44124
1.43583
1.80103
1.99713
2.0017
2.02486
2.07287
2.0753
2.06244
2.00998
1.9222
1.8291
1.69302
1.55919
1.47605
1.4414
1.43911
1.43975
1.44244
1.4397
1.42992
1.41762
1.4088
1.40699
1.41964
1.46927
1.53798
1.54047
1.44634
1.4328
1.49953
1.47456
1.4573
1.53389
1.50456
1.63509
2.52537
2.94685
3.03691
3.15871
3.22181
3.24125
3.2569
3.30264
3.28044
3.28111
3.22772
3.16611
3.0798
2.99821
2.93284
2.92007
2.93608
2.91898
2.66827
2.34639
2.2976
2.47021
2.82102
2.88381
6.14234
5.43065
5.32965
5.79981
6.54622
7.20517
7.65692
7.7492
7.47597
6.72687
6.28238
6.67468
7.89688
9.35359
2.96834
3.52828
3.50121
3.32037
3.18792
3.08158
3.22182
3.81275
4.92632
5.72168
5.6564
5.11818
4.56915
4.03364
3.78189
3.75886
3.92895
4.13385
4.32267
4.46649
4.51368
4.48853
4.36546
4.16818
3.94931
3.69567
3.46584
3.33183
3.33961
3.15801
3.40203
3.19682
3.14325
3.18763
3.21104
3.22904
3.22034
3.15493
3.1276
3.0515
3.00157
3.02761
3.11036
3.18232
3.21344
3.17987
3.13493
3.12779
3.11521
3.13042
3.16601
3.16816
3.25328
3.27586
3.34098
3.38191
3.35374
3.32028
3.25129
3.27095
3.13981
3.21102
3.22531
3.21413
3.14902
3.05066
2.96245
2.94159
2.95117
2.97468
2.95928
2.92283
2.89621
2.91133
2.9944
3.01178
2.94277
2.8307
2.75006
2.64223
2.56767
2.50248
2.54631
2.55252
2.58872
2.65581
2.75448
2.88749
3.02171
3.06659
3.23967
3.24442
3.11106
3.0606
3.09566
3.17294
3.23479
3.2959
3.36059
3.42985
3.45904
3.46046
3.48975
3.48109
3.42394
3.42814
3.40093
3.38349
3.29297
3.17503
3.15407
3.16889
3.19626
3.2125
3.09706
2.88845
2.82299
2.87021
2.92107
2.99384
2.81089
2.76021
2.74225
2.83703
2.8349
2.82929
2.84641
3.03187
3.33088
3.57842
3.67629
3.65514
3.46145
3.24462
3.20552
3.23473
3.3766
3.56705
3.78351
3.9621
4.09697
4.10235
4.11236
4.07449
3.96057
3.79728
3.69089
3.63409
3.58431
3.58705
1.94829
2.37822
2.66474
2.68178
2.7711
2.86533
2.87979
2.79512
2.58356
2.36225
2.18323
2.07848
2.05837
2.11426
2.17672
2.2384
2.32986
2.30719
2.29774
2.27768
2.22682
2.1327
2.0653
2.05467
2.1813
2.14909
1.86549
1.60229
1.62383
1.76336
3.6436
3.91959
4.20207
4.26131
4.11049
3.91949
3.79566
3.71595
3.65051
3.55808
3.60204
3.51867
3.47171
3.43905
3.38989
3.40962
3.44181
3.43483
3.40519
3.41335
3.45007
3.39792
3.15572
2.98434
2.925
2.97639
3.06628
3.0879
3.14728
3.20518
2.75336
2.77978
2.67037
2.53075
2.41704
2.34445
2.23777
2.21349
2.17194
2.15056
2.14876
2.23281
2.35892
2.34846
2.6336
2.62969
2.88851
2.99255
3.20714
3.22585
3.24529
3.25575
3.35656
3.46372
3.4948
3.50929
3.58702
3.77419
3.95982
3.6086
2.74851
2.62295
2.49686
2.39884
2.196
2.086
2.01476
1.84482
1.73292
1.71655
1.6367
1.6467
1.6511
1.72643
1.80477
1.92376
2.10195
2.21076
2.25432
2.33468
2.40234
2.36882
2.3681
2.41036
2.41978
2.45716
2.52197
2.549
2.58709
2.66277
2.21054
2.23985
2.02856
1.82862
1.6698
1.59882
1.49972
1.45427
1.45154
1.50917
1.55777
1.61775
1.75127
1.93975
2.1093
2.15769
2.11906
2.03557
1.94619
1.84659
1.75999
1.69146
1.63187
1.61337
1.62032
1.71058
1.85043
1.93194
2.02102
2.06392
1.4419
1.56121
1.93885
2.07424
2.14731
2.27895
2.34859
2.43421
2.41914
2.3587
2.23901
2.08305
1.9149
1.71473
1.53869
1.44894
1.44917
1.45141
1.47629
1.46774
1.4436
1.40765
1.38428
1.37759
1.39091
1.41996
1.4882
1.51263
1.44796
1.43414
1.5589
1.47955
1.42727
1.4965
1.49048
2.01582
2.81501
3.07777
3.19145
3.29346
3.34104
3.39552
3.414
3.40773
3.42202
3.39774
3.37252
3.27865
3.16916
3.02142
2.91193
2.90957
2.92448
2.85692
2.46438
2.26158
2.44304
2.78282
2.98594
2.82852
5.36241
5.17396
5.78561
6.77405
7.4134
7.6953
7.97742
8.29366
8.37693
7.77773
6.73107
6.50553
7.51898
9.25206
2.97464
3.54744
3.47007
3.24051
3.11562
3.05174
3.33989
4.17395
5.39965
5.90467
5.34807
4.64327
4.24686
3.81732
3.68887
3.88958
4.19023
4.50204
4.78892
5.01707
5.14027
5.1224
4.94249
4.67119
4.32646
3.97594
3.63241
3.38677
3.34132
3.19259
3.39618
3.24325
3.15856
3.20512
3.24297
3.22686
3.22871
3.22506
3.22114
3.10915
3.02715
3.00413
3.10149
3.19924
3.17691
3.09845
3.10349
3.08015
3.1168
3.14823
3.1538
3.18025
3.20724
3.26465
3.30577
3.3707
3.37059
3.33671
3.25819
3.24771
3.07283
3.1547
3.18575
3.17061
3.0823
2.97424
2.95089
2.98448
3.02269
3.02221
3.02272
2.98347
2.91117
2.8656
2.93524
2.96027
2.87714
2.7697
2.65519
2.56799
2.53324
2.54252
2.46561
2.4719
2.53513
2.58656
2.66543
2.78785
2.93892
3.02178
3.18638
3.21771
3.05064
3.04984
3.09921
3.16598
3.26429
3.34489
3.42821
3.47379
3.49502
3.52468
3.5332
3.51194
3.51917
3.48193
3.43035
3.42497
3.43848
3.33794
3.20264
3.14215
3.16141
3.20102
3.16302
2.96501
2.80542
2.82159
2.8612
2.92027
2.83374
2.7627
2.7303
2.81907
2.82512
2.81973
2.85231
3.12275
3.41995
3.70206
3.75369
3.7269
3.5226
3.22775
3.1618
3.21892
3.41302
3.70546
3.97388
4.22814
4.4396
4.5335
4.42662
4.36741
4.2435
4.02572
3.7901
3.64454
3.56188
3.53228
1.95153
2.43042
2.72733
2.84637
3.0339
3.1696
3.13478
3.01276
2.72068
2.34321
2.13007
2.03401
2.07336
2.22039
2.30374
2.4708
2.56493
2.68219
2.68109
2.559
2.41518
2.28575
2.11411
2.08927
2.13826
2.17901
2.0116
1.68574
1.63585
1.77651
3.84949
4.01721
4.33639
4.22195
3.9715
3.79426
3.7289
3.6954
3.60726
3.63407
3.63838
3.46781
3.50189
3.43694
3.46246
3.40762
3.37409
3.39178
3.37221
3.34751
3.38437
3.38592
3.25348
3.02945
2.95141
3.00465
3.06696
3.04158
3.1201
3.20267
2.86061
2.77798
2.59288
2.44514
2.3485
2.27142
2.19432
2.15908
2.14461
2.11781
2.18499
2.1133
2.35674
2.3044
2.54375
2.58443
2.83067
2.91951
3.19622
3.23236
3.30384
3.27817
3.38106
3.43993
3.43124
3.37426
3.42574
3.65706
3.9514
3.68563
2.68977
2.6046
2.46731
2.29766
2.20476
1.99672
1.87539
1.83405
1.73171
1.60885
1.58827
1.52729
1.54385
1.58689
1.68195
1.82724
1.9542
2.07347
2.2214
2.30592
2.34044
2.40635
2.43344
2.45718
2.45524
2.44845
2.50424
2.59694
2.63689
2.72946
2.25614
2.1665
1.90339
1.69094
1.57653
1.46105
1.37634
1.32353
1.31844
1.34825
1.42902
1.52854
1.62292
1.78809
2.0045
2.11732
2.0807
2.05386
1.95837
1.86305
1.80633
1.74882
1.68455
1.60143
1.57736
1.65125
1.80385
1.98035
2.0521
2.08047
1.44383
1.67236
2.0292
2.17429
2.34707
2.54145
2.65251
2.79531
2.75427
2.70162
2.57891
2.3651
2.12885
1.88589
1.65782
1.48414
1.4512
1.4615
1.49916
1.48841
1.42887
1.39197
1.3555
1.3474
1.36871
1.40586
1.45693
1.47962
1.44646
1.43482
1.72502
1.49707
1.40953
1.45334
1.56633
2.30789
2.98025
3.19069
3.2831
3.40175
3.47137
3.54456
3.57032
3.56463
3.52316
3.48371
3.45391
3.38811
3.26394
3.08839
2.92364
2.88385
2.89018
2.79479
2.35688
2.26345
2.67419
2.95905
2.96385
2.60029
5.08431
5.43985
6.51308
7.14008
6.851
6.4201
6.60671
7.30186
8.20919
8.19709
7.22934
6.5594
7.30286
9.21447
2.94881
3.56211
3.44826
3.19423
3.07174
3.04636
3.33835
4.31648
5.61153
6.00171
5.08247
4.32098
4.07492
3.69493
3.71482
4.05256
4.41039
4.77229
5.12495
5.40898
5.64275
5.69881
5.53462
5.15688
4.7053
4.23172
3.80387
3.44659
3.34408
3.21567
3.41745
3.31572
3.22496
3.25217
3.29664
3.27365
3.28862
3.33674
3.35371
3.27686
3.06849
3.00964
3.10194
3.20324
3.11335
3.07994
3.06472
3.11273
3.14922
3.17623
3.21664
3.18642
3.20969
3.246
3.28057
3.34347
3.36998
3.33358
3.25109
3.22398
3.04249
3.14325
3.17921
3.12252
3.01773
2.96592
2.97283
2.97782
2.99146
3.0193
3.01474
2.96827
2.92971
2.87329
2.9048
2.91826
2.83549
2.69526
2.59218
2.55085
2.46048
2.45595
2.49835
2.50714
2.53309
2.55179
2.59346
2.70401
2.84767
2.97032
3.13644
3.15935
3.01028
3.0564
3.11961
3.1891
3.2863
3.37747
3.43517
3.47778
3.51037
3.56859
3.63527
3.74158
3.79736
3.74623
3.62107
3.47808
3.43965
3.40459
3.30938
3.15133
3.15058
3.17565
3.1898
3.02843
2.81154
2.7884
2.83801
2.90352
2.82864
2.77167
2.71615
2.79581
2.82761
2.82403
2.83067
3.05812
3.35719
3.59615
3.73987
3.70403
3.52859
3.20338
3.11684
3.20793
3.52763
3.85024
4.16114
4.40176
4.58363
4.69963
4.80923
4.63368
4.42726
4.16876
3.88727
3.65313
3.53466
3.5252
1.98365
2.47013
2.81477
2.99136
3.23464
3.36008
3.334
3.1211
2.7749
2.3451
2.0906
2.01463
2.14719
2.29723
2.44263
2.67728
2.77413
2.78617
2.76657
2.74815
2.63529
2.38191
2.26225
2.12477
2.12474
2.18913
2.09834
1.79474
1.65572
1.76765
3.88405
4.21666
4.35453
4.08651
3.82424
3.72823
3.71685
3.67817
3.61175
3.69596
3.50643
3.48119
3.42873
3.42556
3.38962
3.45868
3.42547
3.39722
3.38851
3.34731
3.32381
3.3699
3.3052
3.12124
3.03093
3.0898
3.05835
3.01154
3.07891
3.19633
2.89711
2.71238
2.52543
2.39331
2.29074
2.25225
2.16838
2.14757
2.09245
2.08693
2.18588
2.13859
2.291
2.29288
2.53709
2.52593
2.79208
2.90443
3.14629
3.2609
3.33703
3.36309
3.41331
3.35244
3.2636
3.24414
3.30742
3.54816
3.95934
3.735
2.74626
2.63758
2.4772
2.27912
2.10105
2.0499
1.81224
1.76709
1.761
1.61611
1.5832
1.61079
1.58153
1.561
1.64946
1.71394
1.81968
2.03643
2.17859
2.24653
2.36194
2.46121
2.48559
2.48132
2.41217
2.40409
2.49362
2.60868
2.65831
2.73439
2.26992
2.05672
1.75755
1.56947
1.46911
1.38981
1.3815
1.44418
1.4023
1.33094
1.28656
1.35725
1.49202
1.67734
1.91221
2.04582
2.05912
2.02577
1.95447
1.9064
1.86616
1.84732
1.7667
1.67738
1.60118
1.54878
1.63775
1.84091
2.03889
2.09239
1.44569
1.73258
2.08443
2.30047
2.53034
2.73915
2.95514
3.03603
3.01623
2.97608
2.8413
2.6435
2.36835
2.04751
1.77433
1.55724
1.45598
1.46779
1.51973
1.50344
1.43212
1.39104
1.3507
1.33529
1.36489
1.40629
1.44024
1.44776
1.44323
1.43586
1.91509
1.54923
1.43157
1.4424
1.69609
2.49901
3.0721
3.26228
3.35428
3.52845
3.56985
3.6283
3.64279
3.67027
3.65983
3.55088
3.51169
3.43554
3.35742
3.18841
2.9555
2.80498
2.87891
2.77116
2.30977
2.19792
2.71673
2.94958
2.8028
2.20407
5.14428
5.98793
6.87387
6.18109
5.30943
5.02298
5.39749
6.35507
7.68302
8.23998
7.50374
6.61215
7.29633
9.22794
2.88328
3.58771
3.48406
3.20923
3.07369
3.04637
3.31568
4.35007
5.71833
6.03927
5.0156
4.14999
3.99276
3.6331
3.78336
4.17224
4.519
4.88325
5.27944
5.63762
5.98102
6.10529
5.95411
5.56186
4.99638
4.44557
3.9346
3.50242
3.34519
3.22709
3.36753
3.36894
3.29247
3.32859
3.37791
3.39817
3.42597
3.4706
3.52115
3.43756
3.14251
2.99907
3.11773
3.20276
3.0871
3.06355
3.08016
3.14749
3.18717
3.19046
3.18144
3.21886
3.18857
3.24282
3.26608
3.32493
3.34424
3.32605
3.23634
3.20163
2.9705
3.08731
3.08871
3.05817
3.02629
2.97926
2.93689
2.95014
3.01701
3.0538
3.0273
2.94469
2.89799
2.85938
2.91422
2.91205
2.77603
2.65711
2.59172
2.49003
2.44548
2.4954
2.42686
2.42432
2.50019
2.55969
2.54369
2.64567
2.78406
2.90539
3.18242
3.08804
3.01869
3.09122
3.12457
3.21938
3.29572
3.37812
3.43942
3.42942
3.45938
3.62993
3.77228
3.85198
3.89393
3.89831
3.83173
3.65029
3.50868
3.42313
3.3409
3.17751
3.1575
3.17002
3.19898
3.06645
2.81747
2.76886
2.82853
2.92516
2.88382
2.81009
2.74132
2.75679
2.81386
2.84489
2.8198
2.95545
3.15195
3.38646
3.49885
3.59496
3.48838
3.21096
3.07706
3.21853
3.52801
3.90913
4.24755
4.60233
4.78294
4.94155
4.95318
4.879
4.67155
4.24993
3.95062
3.6607
3.50837
3.46497
1.98718
2.49646
2.89407
3.12727
3.357
3.40917
3.37037
3.17695
2.80876
2.33847
2.05727
2.03051
2.19677
2.311
2.52729
2.76716
2.82176
2.90965
2.95975
2.88489
2.68477
2.54589
2.33441
2.14149
2.1316
2.21608
2.14165
1.86506
1.6923
1.82756
3.9494
4.37285
4.24124
3.92582
3.74551
3.6887
3.74115
3.60726
3.63721
3.68286
3.40938
3.36247
3.40139
3.28765
3.28345
3.32263
3.38968
3.37308
3.33219
3.31949
3.31841
3.34067
3.32864
3.19208
3.1501
3.12672
3.02105
3.03819
3.12802
3.19136
2.86918
2.6484
2.4784
2.37876
2.26661
2.24038
2.16402
2.13307
2.11561
2.07617
2.18048
2.15439
2.2963
2.27796
2.50897
2.52835
2.82058
2.8695
3.16728
3.26054
3.38685
3.42457
3.40474
3.21912
3.15521
3.21626
3.32712
3.55818
4.00141
3.76869
2.81157
2.68953
2.51623
2.28396
2.10689
1.93917
1.9359
1.727
1.73718
1.6449
1.64834
1.56861
1.57032
1.59407
1.61382
1.63126
1.83646
1.99176
2.10142
2.23639
2.36798
2.44945
2.51521
2.4525
2.3428
2.4142
2.57972
2.6749
2.73
2.79731
2.26959
1.91264
1.62015
1.52588
1.44551
1.38418
1.41134
1.38914
1.37084
1.40581
1.37881
1.30873
1.41418
1.56179
1.76674
1.98636
2.04934
1.98311
1.95382
1.89729
1.9028
1.90234
1.8869
1.82062
1.69948
1.57898
1.51997
1.57129
1.74852
1.94863
1.44747
1.74761
2.13079
2.40687
2.64149
2.9255
3.15679
3.15549
3.21705
3.13055
3.01884
2.83446
2.52364
2.20062
1.89326
1.61852
1.48074
1.48961
1.54561
1.51303
1.44371
1.40913
1.37817
1.36646
1.38727
1.41941
1.442
1.44719
1.44026
1.43762
2.08419
1.76657
1.47025
1.45398
1.81734
2.61695
3.11786
3.31501
3.42459
3.58267
3.58606
3.66795
3.66689
3.67992
3.72029
3.64098
3.58283
3.44518
3.39729
3.27493
3.02451
2.75203
2.8329
2.78964
2.21524
2.01919
2.47823
2.65449
2.32744
1.65416
5.36321
6.32542
6.20716
5.07346
4.66995
4.87264
5.63238
6.7755
7.88183
8.18147
7.52933
6.61808
7.3277
9.34246
2.77201
3.5
3.55978
3.24229
3.07474
3.05594
3.24112
4.18702
5.72136
6.03182
5.03291
4.0601
3.93158
3.58676
3.82847
4.21787
4.52626
4.85005
5.28766
5.73607
6.15499
6.24935
6.14346
5.73709
5.16208
4.53552
4.01932
3.51296
3.34759
3.2202
3.35898
3.41915
3.41101
3.41168
3.48954
3.55815
3.6167
3.66171
3.68687
3.60385
3.24194
2.99553
3.15101
3.19174
3.07183
3.0653
3.10226
3.17308
3.18928
3.18443
3.16576
3.18295
3.18232
3.22503
3.25481
3.31676
3.3167
3.30344
3.21962
3.17686
2.9712
3.02489
3.07302
3.09969
3.04186
2.96235
2.96103
2.99872
3.03306
3.04159
3.00737
2.9476
2.90371
2.86231
2.93543
2.90484
2.75289
2.6372
2.58765
2.46385
2.48267
2.50848
2.49194
2.4527
2.45089
2.58169
2.52473
2.60592
2.76683
2.875
3.23208
3.04357
3.09103
3.12745
3.13722
3.21972
3.29541
3.37298
3.38734
3.36531
3.45938
3.62487
3.67251
3.76228
3.8947
3.90026
3.87026
3.67815
3.56865
3.44305
3.34968
3.19614
3.15594
3.16487
3.20791
3.07276
2.80087
2.75826
2.82819
2.90616
2.88172
2.85688
2.76348
2.73188
2.78473
2.83728
2.82779
2.91035
2.99337
3.1471
3.25795
3.38878
3.44834
3.20704
3.04559
3.22352
3.59886
3.92781
4.32895
4.58986
4.89731
5.01024
5.07396
4.88968
4.72709
4.33122
3.91772
3.66159
3.50323
3.47619
1.99537
2.48154
2.91336
3.18033
3.40415
3.44311
3.32092
3.11282
2.8707
2.35333
2.07444
2.04616
2.1837
2.30599
2.57851
2.74636
2.83151
2.94678
2.94344
2.83022
2.77285
2.58738
2.31311
2.18054
2.15058
2.22178
2.14075
1.89083
1.73427
1.96084
4.0031
4.49433
4.19289
3.8523
3.67815
3.70126
3.6727
3.64255
3.57674
3.6925
3.33856
3.40613
3.37385
3.29761
3.29937
3.35706
3.32543
3.41286
3.3479
3.27402
3.29524
3.32461
3.32709
3.25453
3.20619
3.08102
3.03833
3.0849
3.08708
3.10296
2.92108
2.64245
2.48461
2.38091
2.27338
2.21975
2.18682
2.15106
2.12112
2.09485
2.22511
2.13263
2.36186
2.27962
2.53557
2.53564
2.80695
2.90575
3.16048
3.31986
3.40408
3.49266
3.2762
3.07553
3.1798
3.38645
3.52642
3.76172
4.00728
3.9301
2.87025
2.7592
2.57057
2.36177
2.1415
1.97406
1.84923
1.87437
1.6646
1.66487
1.64902
1.59329
1.61688
1.56148
1.57609
1.67039
1.84142
1.92652
2.09276
2.24306
2.36329
2.47676
2.54099
2.34812
2.32584
2.44584
2.58374
2.67779
2.74263
2.75336
2.00086
1.78709
1.60398
1.47566
1.41834
1.38695
1.37537
1.34055
1.31013
1.28023
1.35216
1.32373
1.3042
1.53388
1.70556
1.86426
1.93518
1.97625
1.945
1.92372
1.91611
1.95375
1.96498
1.91411
1.85271
1.74525
1.56764
1.48198
1.48642
1.5849
1.44978
1.74852
2.17625
2.44569
2.73048
3.07678
3.21208
3.23668
3.32809
3.24963
3.16412
2.8982
2.64479
2.32871
1.95625
1.69051
1.52119
1.46994
1.54642
1.56137
1.46905
1.43405
1.41551
1.40739
1.4154
1.4329
1.44293
1.44344
1.44068
1.44212
2.23694
2.05252
1.54408
1.49014
1.93057
2.6788
3.15112
3.32307
3.44863
3.59544
3.62343
3.74206
3.77579
3.74123
3.74954
3.63278
3.62652
3.46633
3.40995
3.2918
3.13775
2.69457
2.76916
2.8058
2.22279
1.79844
2.02009
2.1181
1.60878
1.06304
5.64758
6.3026
5.36682
4.66591
4.91501
6.02231
7.23318
8.04469
8.31871
8.02733
7.23583
6.60569
7.56308
9.26391
7.02806
4.36042
2.81461
3.41098
3.67717
3.37663
3.15415
3.1074
3.26746
4.15138
5.61095
5.9475
5.05644
4.025
3.89648
3.56857
3.83562
4.18109
4.46038
4.7186
5.146
5.65047
6.03686
6.18632
6.04598
5.70123
5.10915
4.55775
3.97563
3.51666
3.3516
3.24447
2.90579
2.94584
3.26036
3.39129
3.44777
3.49154
3.55448
3.64428
3.71385
3.76418
3.77281
3.67544
3.2888
2.96523
3.18025
3.20365
3.07364
3.07474
3.1455
3.17632
3.19104
3.19851
3.14506
3.19027
3.16523
3.22312
3.24955
3.32036
3.29823
3.27607
3.19048
3.19422
3.2047
3.03191
2.8888
2.99959
3.06612
3.0597
3.02602
3.02799
3.02209
3.03284
3.05395
3.01976
2.97411
2.94221
2.9184
2.88719
2.96056
2.94062
2.75425
2.65037
2.59817
2.4999
2.50588
2.53363
2.5331
2.49318
2.48761
2.54669
2.53309
2.61217
2.71824
2.87623
3.08427
3.18241
3.19399
3.03199
3.1357
3.11822
3.13073
3.21251
3.29485
3.34912
3.33592
3.31809
3.43787
3.51924
3.63002
3.71327
3.83435
3.79305
3.80201
3.58912
3.57145
3.4346
3.32117
3.20176
3.15748
3.17733
3.21117
3.06783
2.8123
2.78521
2.86074
2.93013
3.00743
2.99141
2.98987
2.92099
2.83512
2.75782
2.76526
2.80155
2.84242
2.87886
2.90185
2.98718
3.07371
3.21397
3.39412
3.21972
3.04067
3.26288
3.59796
3.93771
4.31292
4.60732
4.85865
5.03043
5.06955
4.91823
4.68855
4.26551
3.87446
3.60737
3.48502
3.45877
2.55213
2.0512
2.02645
2.5177
2.97025
3.21685
3.40446
3.42717
3.1965
2.99509
2.90235
2.41804
2.11121
2.04931
2.16866
2.28759
2.52305
2.65513
2.74084
2.88342
2.93307
2.80784
2.75896
2.51493
2.25914
2.23552
2.16456
2.202
2.14241
1.88521
1.87587
2.54042
3.90873
4.17509
4.3235
4.51566
4.14528
3.80037
3.68005
3.63613
3.69984
3.6121
3.58784
3.69205
3.3556
3.40123
3.38233
3.26624
3.25793
3.34028
3.33867
3.37902
3.34619
3.27611
3.28132
3.32842
3.34429
3.2861
3.15375
3.13635
3.16009
3.17611
3.18709
3.17136
3.14006
3.22149
2.84319
2.65393
2.48977
2.40754
2.28953
2.22673
2.2231
2.22291
2.20584
2.2128
2.20973
2.18706
2.41333
2.32001
2.54926
2.60557
2.86363
2.92051
3.23542
3.33229
3.49071
3.47707
3.16146
3.08924
3.23835
3.40945
3.59696
3.74559
3.80447
3.55579
3.01203
3.11046
2.9975
2.93138
2.69445
2.43853
2.26914
2.03656
1.87986
1.80595
1.8047
1.60793
1.69981
1.5893
1.61858
1.54558
1.64949
1.68899
1.80166
1.94585
2.10682
2.23184
2.3834
2.5222
2.44946
2.29892
2.27342
2.29904
2.35093
2.4119
2.43193
2.40718
2.43069
2.56588
2.1512
1.85212
1.64752
1.46652
1.42306
1.38628
1.3716
1.33111
1.32232
1.26971
1.30477
1.29416
1.34192
1.43339
1.68045
1.85744
1.92287
1.93171
1.90909
1.89314
1.92466
1.96456
1.9376
1.97099
1.93759
1.91455
1.76444
1.54342
1.47004
1.47743
1.53318
1.47907
1.45083
1.70868
2.15317
2.44079
2.76288
3.09682
3.2509
3.2974
3.31977
3.29225
3.15923
2.94926
2.72222
2.34781
2.0145
1.74137
1.56033
1.48936
1.56618
1.6115
1.53259
1.4506
1.44139
1.43651
1.43608
1.43977
1.44227
1.44386
1.45865
1.63749
2.06332
2.36142
2.43019
2.18109
1.77708
1.72721
2.03816
2.70336
3.13994
3.32426
3.46174
3.59984
3.6281
3.76198
3.7653
3.74537
3.79195
3.63618
3.63287
3.45413
3.41469
3.29162
3.18242
2.70195
2.6426
2.78165
2.25328
1.66401
1.59061
1.40291
1.16414
0.985122
3.16717
3.68376
5.82577
5.91083
4.96364
4.98793
6.49539
8.00069
8.72135
8.6434
8.12141
7.49254
6.86287
6.79311
8.11885
9.27846
7.42799
4.55494
2.86113
3.35057
3.71994
3.56496
3.33449
3.22685
3.41151
4.17299
5.40227
5.83656
4.98011
3.96081
3.86957
3.57039
3.78969
4.09704
4.32555
4.54358
4.85353
5.33435
5.6341
5.81911
5.7128
5.39262
4.9342
4.41924
3.90295
3.46304
3.36018
3.2066
2.83621
2.79801
3.13462
3.30218
3.42856
3.51487
3.59364
3.66769
3.74681
3.78886
3.78556
3.70945
3.31576
2.97429
3.20405
3.2179
3.08873
3.07409
3.14265
3.20669
3.19627
3.19111
3.17806
3.18651
3.1547
3.23622
3.28637
3.29899
3.30044
3.25617
3.17221
3.19924
3.2219
3.02882
2.92689
2.9604
3.01614
3.02732
3.05118
3.04263
3.03602
3.04437
3.02232
2.97172
2.95587
2.94869
2.96012
2.91769
2.98984
2.93747
2.80897
2.66906
2.61803
2.54316
2.5086
2.48127
2.48028
2.48338
2.51193
2.53129
2.56337
2.63532
2.76353
2.89749
3.13064
3.15599
3.11678
3.09968
3.13474
3.10927
3.11618
3.20848
3.28953
3.33281
3.30986
3.28822
3.37697
3.4393
3.5738
3.58312
3.66371
3.70276
3.68542
3.57709
3.54992
3.40045
3.26911
3.21635
3.18206
3.18463
3.20851
3.05067
2.78719
2.75579
2.81634
2.91108
2.97586
2.99263
3.03674
3.01782
2.94467
2.85752
2.78795
2.80106
2.80704
2.83918
2.86787
2.91516
2.96144
3.10948
3.33518
3.23752
3.01096
3.22543
3.58099
3.90995
4.25644
4.59605
4.84852
5.0102
4.99355
4.81661
4.51743
4.13277
3.81533
3.60138
3.47429
3.24473
2.34503
2.08314
2.17592
2.6516
3.01654
3.22249
3.40407
3.34498
3.01629
2.86988
2.9278
2.52107
2.17318
2.04482
2.13463
2.25537
2.42206
2.56173
2.60219
2.71924
2.6876
2.6627
2.51982
2.35899
2.27434
2.21864
2.19918
2.18718
2.06189
1.95007
2.59465
3.47441
4.26626
4.36558
4.60583
4.59493
4.2166
3.82786
3.64
3.64882
3.64302
3.60695
3.60638
3.69919
3.41879
3.42659
3.42741
3.40159
3.33205
3.33393
3.37235
3.36359
3.30526
3.29683
3.28305
3.32181
3.32348
3.21927
3.12039
3.14252
3.18189
3.24853
3.27108
3.26647
3.21589
3.15524
2.90019
2.69071
2.52781
2.44956
2.3418
2.23183
2.17339
2.19303
2.17278
2.16667
2.29499
2.29026
2.441
2.34769
2.66882
2.63174
2.8863
3.00885
3.25309
3.37821
3.57684
3.50135
3.26068
3.10115
3.05976
3.16252
3.2888
3.30172
3.24775
3.16494
3.09595
3.20385
3.10971
3.08546
2.84773
2.54436
2.31948
2.16735
1.93572
1.83047
1.82206
1.63521
1.60071
1.63989
1.56169
1.62675
1.6589
1.68554
1.83807
1.98411
2.10993
2.25568
2.42388
2.5207
2.42272
2.33916
2.32942
2.33371
2.34283
2.37134
2.40762
2.42813
2.42518
2.43535
2.07156