/*--------------------------------*- C++ -*----------------------------------*\
| =========                 |                                                 |
| \\      /  F ield         | OpenFOAM: The Open Source CFD Toolbox           |
|  \\    /   O peration     | Version:  2.1.1                                 |
|   \\  /    A nd           | Web:      www.OpenFOAM.org                      |
|    \\/     M anipulation  |                                                 |
\*---------------------------------------------------------------------------*/
FoamFile
{
    version     2.0;
    format      ascii;
    class       volScalarField;
    location    "0.007000000";
    object      T;
}
// * * * * * * * * * * * * * * * * * * * * * * * * * * * * * * * * * * * * * //

dimensions      [0 0 0 1 0 0 0];

internalField   nonuniform List<scalar> 
12384
(
3042.12
3033.78
3028.28
3025.33
3021.79
3022.96
3024.54
3031.34
3038.68
3045.95
3050.29
3054.89
3056.57
3058.89
2824.7
2851.95
2856.56
2850.16
2850.48
2854.3
2864
2868.03
2874.15
2877.61
2886.38
2896.28
2905.84
2912.62
2916.74
2917.26
2915.88
2913.85
2911.56
2909.36
2908.37
2910.58
2911.69
2914.45
2917.93
2922.08
2923.8
2909.9
2833.49
2690.89
2957.43
2950.45
2944.68
2943.33
2941.27
2939.87
2937.71
2937.44
2933.77
2935.6
2935.39
2935.5
2937.25
2940.64
2942.73
2946.19
2947.69
2949.08
2950.05
2950.25
2948.61
2950.24
2947.41
2950.27
2946.35
2943.36
2937.31
2935.97
2962.37
2968.86
2906.62
2897.28
2896.67
2897.29
2896.31
2895.94
2897.05
2897.55
2898.81
2899.39
2900.5
2901
2901.19
2901.36
2901.55
2901.93
2902.03
2900.2
2897.64
2898.98
2894.32
2896.01
2894.75
2895.49
2898.95
2901.86
2905.86
2908.66
2909.18
2909.64
2857.18
2859.51
2859.7
2859.59
2857.17
2857.06
2856.22
2855.24
2854.29
2852.74
2849.41
2847.19
2845.62
2843.04
2840.79
2841.41
2840.77
2843.64
2848.03
2850.83
2855.51
2864.21
2863.7
2856.68
2855.86
2856.23
2855.78
2854.76
2855.13
2853.02
2755.7
2753.27
2751.56
2753.08
2756.67
2764.44
2765.12
2770.54
2770.52
2773.78
2775.28
2778.61
2780.43
2783.12
2784.74
2785.99
2786.59
2787.04
2787.12
2788.2
2787.7
2788.94
2788.73
2792.44
2795.17
2797.6
2799.12
2801.46
2813.19
2812.01
2781.3
2795.47
2786.74
2787.63
2791.2
2797.98
2803.59
2808.58
2811.53
2814.21
2815.48
2815.78
2817.87
2815.71
2812.12
2812.7
2806.01
2805.47
2806.05
2803.7
2804.53
2806.05
2804.47
2803.35
2799.84
2685.77
2677.54
2695.79
2709.13
2713.93
2787.27
2792.06
2808.4
2816.33
2818.12
2818.48
2817.39
2819.29
2813.26
2817.72
2805.64
2808.85
2799.65
2803.37
2801.82
2802.01
2803.33
2805.55
2806.02
2803.93
2809.75
2811.49
2797.92
2790.96
2788.71
2786.77
2788.78
2793.51
2797.59
2804.61
2877.93
2879.66
2883.86
2886.74
2888.14
2887.64
2885.06
2881.94
2882.55
2879.42
2883.38
2880.55
2891.94
2892.36
2900.65
2902.82
2897.62
2845.41
2774.62
2783.38
2789.94
2803.71
2808.07
2820.9
2824.97
2830.49
2828.27
2816.77
2790
2759.79
2890.33
2890.69
2892.75
2894.31
2894.01
2890.27
2889.65
2879.52
2879.9
2866.86
2870.44
2865.31
2868.01
2873.04
2876.31
2879.54
2883.42
2876.03
2834.93
2804.52
2799.33
2802.51
2806.67
2809.29
2814.21
2818.37
2818.25
2820.05
2817.41
2816.16
2839.51
2858.44
2880.15
2890.08
2892.84
2892.17
2887.76
2880.96
2876.49
2874.03
2869.47
2860.93
2852.39
2849.14
2824.19
2789.24
2780.61
2786.11
2796.63
2804.68
2810.72
2814.22
2815.28
2815.65
2814.74
2813.31
2810.17
2804.12
2794.28
2785.7
2799.19
2799.24
2817.1
2841.96
2842.6
2838.52
2834.41
2833.57
2832.3
2831.38
2830.68
2830.45
2831.97
2832.49
2832.69
2833.45
2834.49
2835.29
2836.03
2836.29
2835.49
2834.6
2831.54
2830.4
2828.47
2828.99
2830.12
2833.7
2839.8
2838.85
2767.38
2767.62
2759.62
2753.63
2754.62
2786.62
2810.1
2683.68
2662.53
2658.69
2654.14
2650.64
2647.19
2645.79
2646.4
2646.96
2648.6
2651.02
2653.57
2656.79
2659.88
2663.64
2667.06
2675.74
2691.36
2716.17
2739.81
2743.52
2696.32
2618.16
3008.69
2997.27
2981.64
2967.89
2962.36
2966.6
2973.34
2982.43
2995.49
3013.23
3035.57
3050.64
3058.36
3060.38
2828.26
2855.93
2854.1
2849.61
2856.02
2861.31
2862.87
2862.2
2869.16
2898.6
2930.83
2952.36
2957.95
2955.65
2948.6
2938.82
2925.7
2916.07
2908.92
2906.22
2903.67
2904.91
2906.55
2909.64
2916.49
2922.73
2927.9
2924.22
2877.91
2758.76
2956.79
2951.33
2947.01
2947.05
2945.37
2942.86
2940.3
2938.75
2937.64
2934.82
2938.34
2940.43
2946.91
2953.97
2962.09
2966.34
2963.97
2962.18
2960.74
2960.22
2961.39
2962.97
2966.01
2969.1
2962.19
2955.8
2946.77
2937.56
2945.97
2966.7
2903.86
2895.14
2896.33
2897.16
2899.57
2903.77
2907.79
2910.52
2912.48
2913.48
2913.19
2913.1
2912.33
2910.46
2907.22
2906.45
2904.63
2904.31
2902.44
2900.8
2898.23
2896.46
2897.37
2897.85
2900.11
2902.41
2904.34
2908.06
2910.06
2911.9
2856.13
2858.76
2858.83
2856.52
2853.85
2850.96
2849.21
2847.93
2847.99
2846.32
2845.12
2844.18
2840.85
2838.57
2838.79
2837.19
2837.33
2836.33
2839.61
2844.5
2848.16
2854.3
2862.95
2861.22
2858.02
2851.32
2844.89
2841.48
2840.48
2842.18
2756.51
2752.22
2751.94
2754.8
2760.47
2765.3
2765.87
2766.98
2767.77
2774.24
2778.74
2781.44
2782.06
2781.79
2781.76
2783.11
2784.82
2786.39
2787.87
2789.07
2790.95
2791.97
2793.17
2793.08
2795.31
2797.54
2798.68
2800.14
2805.73
2809.49
2783.12
2790.86
2783.63
2787.99
2799.32
2805.28
2807.89
2812.26
2816.32
2823.07
2823.08
2820.11
2817.93
2815.58
2813.31
2811.71
2805.2
2806.2
2805.57
2806.52
2807.13
2810.51
2806.82
2803.13
2803.67
2785.83
2696.83
2710.07
2752.41
2765.9
2786.12
2804.1
2818.48
2816.15
2812.12
2812.41
2814.07
2815.26
2818.35
2815.45
2812.85
2807.9
2809.92
2804.5
2805.86
2807.37
2807.82
2807.85
2808.14
2806.16
2806.27
2811.86
2797.06
2782.44
2779.58
2781.47
2782.46
2786.77
2791.61
2794.6
2878.94
2883.7
2890.35
2895.47
2898.74
2900.33
2901.17
2901.78
2901.23
2900.53
2899.6
2897.22
2900.84
2898.14
2903.51
2901.98
2908.98
2888.66
2818.27
2786.9
2790.39
2805.68
2808.87
2823.44
2843.5
2861.54
2869.47
2869.5
2841.77
2783.89
2897.44
2903.14
2905.73
2907.98
2908.44
2905.99
2902.81
2899.1
2895.92
2886.72
2885.27
2880.59
2875.68
2873.35
2874.01
2877.5
2881.46
2883.08
2870.45
2824.32
2798.84
2799.57
2803.98
2810.08
2821.32
2830.01
2832.15
2829.66
2829.64
2823.49
2839.87
2885.69
2909.29
2918.04
2919.65
2918.9
2916.92
2915.13
2909.73
2902
2893.08
2879.28
2864.5
2855.03
2841.58
2796.93
2782.45
2794.4
2807.62
2816.02
2820.58
2821.8
2821.8
2820.98
2818.97
2818.63
2817.47
2814.46
2801.8
2786.91
2803.9
2811.91
2834.39
2846.51
2845.01
2844.3
2845.89
2843.08
2844.15
2843.44
2842.73
2840.55
2838.37
2838.7
2839.68
2840.67
2842.89
2844.92
2847.28
2849.04
2851.36
2852.99
2853.05
2850.52
2842.07
2834.68
2830.88
2832.27
2838.26
2839.7
2787.1
2792
2783.06
2745.8
2752.11
2803.78
2742.07
2668.81
2655.86
2650.78
2647.19
2644.07
2642.83
2641.16
2640.04
2639.09
2637.65
2637.04
2636.76
2637.3
2640.77
2644.77
2647.55
2654.85
2679.64
2725.61
2749.03
2742.62
2679.66
2611.74
2985.8
2962.27
2931.3
2928.87
2945.84
2967.65
2986.16
2989.41
2988.46
2989.16
3005.86
3035.82
3056.28
3061.07
2831.59
2858.3
2852.03
2849.37
2854.32
2852.04
2847.49
2852.66
2897.32
2954.1
2982.53
2987.21
2978
2961.41
2940.2
2915.63
2899.64
2893.94
2889.34
2890.72
2891.39
2891.52
2895.79
2900.09
2906.13
2918.61
2927.81
2929.7
2906.92
2804.13
2955.91
2953.36
2950.63
2950
2945.57
2940.89
2938.37
2933.95
2933.46
2933.59
2937.28
2941.25
2951.26
2962.23
2964.21
2961.77
2959.16
2956.33
2955.36
2955.14
2953.94
2958.28
2958.99
2964.36
2968.73
2970.88
2958.21
2943.96
2939.03
2955.15
2900.47
2893.35
2895.36
2899.48
2906.64
2914.4
2919.2
2919.14
2918.8
2916.34
2915.15
2914.66
2915.3
2915.09
2911.18
2906.58
2905.31
2904.25
2902.44
2901.05
2897.77
2897.84
2895.63
2898.39
2899.64
2902.3
2904.36
2905.91
2909.14
2911.22
2853.93
2857.2
2858.65
2854.89
2852.86
2849.25
2846.91
2847.38
2847.7
2848.9
2849.28
2844.62
2841.51
2842.45
2841.33
2837.91
2838.84
2839.74
2838.18
2842.12
2843.3
2847.18
2858.19
2862.06
2861.23
2858.37
2847.39
2842.25
2840.8
2836.07
2756.26
2751.81
2751.08
2756.45
2761.31
2764.85
2762.65
2769.4
2780.29
2794.73
2802.3
2801.97
2792.97
2784.16
2779.93
2782.61
2785.64
2789.93
2794.82
2798.34
2799.36
2801.42
2802.21
2802.59
2799.81
2799.36
2799.42
2798.96
2801.06
2805.77
2783.64
2785.88
2780.99
2789.42
2793.56
2794.34
2797.22
2801.41
2807.89
2814.86
2822.7
2818.3
2815.73
2814.16
2812.23
2809.15
2804.08
2803.53
2803.13
2809.02
2809.17
2809.86
2810.68
2804.81
2802.88
2802.29
2769.16
2713.83
2749.85
2783.5
2783.44
2814.36
2814.57
2801
2801.51
2808.72
2815.63
2821.64
2822.38
2817.5
2813.85
2813.9
2805.77
2807.89
2807.05
2807.71
2809.13
2808.6
2807.62
2805.68
2803.26
2805.82
2800.92
2790.81
2791.14
2791.77
2790.37
2799.82
2804.76
2795.06
2880.91
2888.14
2893.54
2899
2903.6
2912.23
2910.74
2912.13
2910.74
2909.14
2913.84
2911.06
2914.79
2912.71
2912.2
2904.71
2912.74
2903.28
2859.13
2803.37
2788.16
2795.13
2801.11
2817.28
2845.5
2872.22
2884.4
2889.62
2877.25
2817.85
2906.24
2909.56
2912.04
2912.05
2915.15
2920.86
2915.21
2909.43
2907.79
2899.56
2897.77
2894.01
2895.01
2887.96
2881.66
2877.69
2879.27
2882.9
2883.6
2860.61
2809.15
2794.66
2796.83
2807.78
2827.49
2840.61
2846.16
2843.85
2838.36
2833.09
2875.09
2909.02
2918.01
2922.49
2927.99
2934.63
2935.19
2932.07
2930.49
2927.57
2915.79
2900.78
2881.9
2862.67
2850.3
2813.27
2782.89
2792.64
2807.06
2815.18
2819.37
2820.18
2818.9
2817.35
2814.79
2812.65
2812.91
2814.23
2803.57
2786.37
2809.7
2825.89
2844.22
2850.71
2852
2855.44
2858.93
2859.58
2859.58
2857.76
2854.71
2851.46
2846.94
2841.63
2840.11
2839.96
2840.54
2841.08
2842.74
2847.49
2855.9
2865.15
2870.61
2872.2
2862.33
2848.33
2835.73
2832.1
2835.78
2838.72
2785.46
2800.85
2810.71
2755.47
2771.05
2776.48
2691.28
2659.65
2654.23
2654.69
2655.73
2659.07
2661.7
2663.3
2658.72
2653.08
2644.94
2637.86
2633.01
2630.69
2629.94
2634.28
2642
2652.35
2688.89
2738.73
2744.8
2714.36
2633.96
2602.54
2947.74
2912.02
2912.3
2947.96
2990.19
3013.47
3030.01
3032.62
3029.59
3008.68
3000.99
3022.44
3049.27
3062.2
2834.1
2859.42
2849.42
2846.35
2846.05
2834.82
2832.84
2863.87
2940.17
2988.71
2997.88
2990.12
2975.64
2946.31
2909.72
2888.47
2882.96
2888.14
2896.61
2904.01
2906.62
2905.96
2902.3
2899.07
2902.74
2909.2
2924.78
2933.01
2922.93
2832.91
2955.66
2956.35
2955.8
2952.56
2944.5
2932.9
2927.41
2926.22
2932.27
2932.78
2936.03
2942.34
2953.13
2963.16
2960.96
2957.16
2954.06
2952.63
2950.91
2950.35
2951.28
2950.88
2955.4
2956.91
2962.37
2969.15
2969.73
2953.66
2940.05
2950.02
2898.13
2890.81
2894.98
2903.15
2913.67
2921.24
2921.98
2920.23
2915.63
2911.77
2907.91
2905.76
2907.38
2913.16
2910.4
2906.75
2904.32
2902.37
2901.6
2897.88
2896.1
2889.66
2890.17
2890.58
2895.26
2900.89
2903.47
2905.22
2907.87
2909.78
2850.66
2855.31
2858.43
2855.92
2852.54
2848.68
2846.12
2847.41
2851.01
2847.6
2842.37
2838.17
2835.95
2833.84
2830.47
2832.22
2833.84
2837.35
2838.15
2838.12
2840.23
2842.86
2848.85
2858.71
2860.71
2859.79
2852.06
2848.4
2849.27
2841.85
2756.41
2751.48
2749.98
2756.27
2760.83
2763.04
2763.05
2778.08
2799.83
2817.18
2824.17
2820.77
2803.39
2784.36
2777.34
2782.28
2787.6
2794.71
2802.36
2808.02
2813.67
2812.86
2812.97
2812.92
2809.57
2804.32
2800.54
2798.96
2798.83
2802.65
2784.49
2782.69
2777.07
2785.84
2780.43
2775.04
2778.46
2789.61
2799.98
2810.83
2818.49
2815.42
2813.4
2812.98
2803.64
2800.04
2799.46
2794.23
2794.09
2796.66
2801.36
2804.58
2810.44
2810.18
2804.38
2802.1
2792.6
2751.31
2744.73
2786.12
2790.87
2816.11
2796.34
2789.94
2799.34
2815.52
2824.26
2824.06
2820.54
2813.54
2814.2
2806.24
2804.86
2802.04
2801.04
2803.51
2807.34
2809.25
2808.37
2805.92
2802.74
2801.92
2801.99
2797.77
2797.73
2796.08
2794.96
2811.84
2823.45
2805.97
2887.44
2889.91
2894.62
2902.69
2912.45
2914.84
2915.47
2919.01
2920.37
2920.78
2919.37
2920.29
2924.3
2915.92
2925.4
2912.5
2916.34
2911.35
2889.02
2827.24
2793.09
2791.39
2800.01
2830.04
2864.86
2889.66
2899.49
2901.26
2893.83
2847.51
2911
2910.85
2913.77
2920.29
2921.86
2921.21
2920.02
2911.36
2907.68
2906.03
2901.22
2900.68
2897.91
2897.65
2896.34
2887
2883.28
2883.01
2884.54
2881
2843.33
2803.06
2795.43
2808.33
2831.89
2849.73
2857.41
2855.02
2846.32
2838.72
2907.39
2915.4
2916.28
2925.76
2936.34
2941.9
2942.03
2941.78
2939.96
2938.16
2932.91
2924.77
2898.03
2872.59
2854.73
2827.94
2787.55
2783.94
2801.8
2813.76
2817.94
2818.21
2817.08
2816.06
2811.36
2808.29
2806.57
2806.54
2802.31
2784.85
2815.09
2834.76
2851.18
2856.13
2862.94
2869.95
2872.87
2876.47
2874.97
2872.75
2867.47
2861.06
2855.78
2847.9
2840.08
2836.25
2833.26
2830.21
2831.36
2840.36
2857.99
2874.34
2888.56
2891.57
2882.23
2862.8
2842.39
2832.87
2834.59
2837.54
2767.41
2796.44
2826.21
2780.42
2782.84
2736.74
2669.9
2658.89
2659.44
2667.66
2681.34
2695.7
2702.69
2701.35
2695.08
2681.73
2666.52
2648.91
2635.84
2627.66
2623.73
2625.66
2635.5
2655.05
2715.99
2747.25
2713.15
2648.5
2585.6
2608.03
2898.52
2894.37
2942.21
2997.09
3024.61
3029.49
3032.95
3038.78
3046.04
3035.49
3012.64
3013.13
3041.97
3062.03
2835.08
2860.79
2846.97
2840.2
2833.6
2819.49
2825.28
2884.04
2968.69
3002.31
2998.11
2985.78
2966.21
2928.68
2888.31
2878.71
2888.08
2905.18
2923.83
2935.06
2940.73
2938.73
2929.43
2915.68
2905.59
2907.89
2918.41
2932.44
2927.86
2852.51
2954.8
2954.86
2960.4
2959.53
2948.91
2938.2
2927.03
2928.85
2938.52
2940.64
2942.11
2943.76
2954.65
2961.86
2957.43
2953.22
2952.58
2949.8
2949.83
2949.21
2947.4
2948.91
2950.4
2953.77
2957.27
2964.11
2970.71
2960.66
2942.23
2947.14
2894.48
2887.87
2894.58
2905.84
2917.61
2922.06
2923.3
2919.11
2913.45
2907.08
2902.07
2899.17
2900.97
2908.5
2908.44
2905.11
2902.86
2901.2
2897.93
2896.1
2886.51
2882.24
2876
2877.17
2883.86
2891.88
2901.93
2903.5
2904.61
2906.34
2849.75
2857.36
2861.31
2857.25
2852.74
2846.5
2846.47
2851.61
2846.85
2840.46
2835.76
2830.9
2825.78
2821.89
2821.63
2821.36
2822.51
2827.31
2834.5
2838.45
2838.57
2841.07
2843.95
2855.67
2860.95
2862.17
2852.35
2846.57
2847.92
2846.39
2758.48
2751.71
2748.66
2754.33
2759.5
2762.15
2762.38
2783.92
2807.6
2827.6
2831.35
2829.91
2810.19
2786.1
2775.32
2780.74
2787.95
2798.77
2808.12
2817.21
2825.28
2829.7
2826.03
2822.25
2818.75
2811.48
2804.3
2798.97
2796.85
2799.01
2784.2
2778.87
2771.21
2772.61
2764.61
2758.96
2760.26
2771.48
2793.54
2808.81
2816.33
2812.78
2811.87
2804.39
2796.97
2797.44
2793.95
2796.64
2796.19
2794.08
2795.63
2800.96
2802.43
2811.03
2805.11
2800.9
2802.2
2787.19
2755.4
2789.85
2809.71
2806.56
2780.17
2788.74
2811.13
2823.49
2825.42
2821.69
2813.83
2812.46
2806.74
2797.69
2798.95
2795.93
2797.83
2797.24
2799.66
2803.96
2806.43
2805.15
2802.43
2799.85
2802.32
2801.11
2801.64
2795.76
2802.38
2829.79
2844.88
2819.46
2885.48
2889.11
2898.89
2912.4
2915.29
2919.18
2922.49
2926.39
2922.4
2917.96
2923.78
2922.21
2932.67
2922.98
2927.48
2923.07
2922.31
2915.32
2903.89
2852.56
2808.29
2793.87
2810.94
2855.7
2893.36
2908.74
2910.64
2908.01
2903.04
2864.79
2909.62
2913.42
2917.75
2928.08
2927.94
2919.38
2915.93
2914.9
2909.09
2902.4
2901.49
2898.73
2899.06
2898.3
2897.95
2900.86
2892.19
2884.24
2887.08
2888.99
2866.59
2825.19
2807.96
2821.16
2846.09
2861.8
2865.24
2861.91
2852.92
2845.26
2909.97
2912.61
2916.23
2933.96
2942.14
2942.54
2925.11
2917.67
2919.68
2930.63
2938.91
2931.65
2912.88
2883.47
2858.56
2838.03
2795.61
2779.67
2792.84
2809.18
2816.02
2817.03
2817.46
2815.21
2813.14
2808.28
2802.26
2797.63
2793.48
2783.52
2819.23
2841.51
2855.45
2863.58
2874.79
2882.89
2887.74
2893.97
2891.28
2888.67
2883.03
2873.33
2863.7
2854.69
2845.39
2835.68
2828.31
2822.53
2822.99
2837.02
2859.5
2884.74
2904.88
2908.3
2895.09
2872.76
2846.79
2833.97
2834.23
2836.85
2743.48
2783.06
2832.92
2804.28
2774.75
2708.79
2664.75
2662.36
2671.26
2694.68
2721.28
2743.49
2754.79
2754.06
2740.81
2719.71
2695.24
2669.22
2645.03
2629.73
2622.64
2620.63
2626.28
2661.51
2725.92
2743.3
2664.41
2593.35
2580.6
2636.46
2877.37
2911.68
2986.58
3014.09
3010.74
3000.28
3001.81
3014.69
3036.41
3043.87
3024.14
3013.26
3038.09
3061.39
2834.47
2863.74
2844.61
2831.76
2821.68
2807.28
2817.14
2895.7
2980
3007.63
2999.48
2983.48
2960.57
2909.22
2875.5
2881.26
2901.47
2926.98
2945.12
2957.46
2966.1
2966.9
2957.47
2939.53
2918.5
2910.34
2916.25
2932.24
2930.19
2862.09
2956
2955.74
2956.49
2966.73
2963.71
2950.35
2946.79
2950.61
2956.5
2956.52
2949.44
2946.61
2955.85
2960.67
2954.46
2953.15
2950.69
2951.14
2949.57
2947.85
2947.78
2945.69
2947.01
2950.27
2953.87
2960.13
2967.62
2965.26
2943.76
2945.53
2893.01
2886.96
2893.94
2905.32
2916.38
2923.72
2924.33
2918.87
2913.23
2907.39
2898.67
2893.74
2896.98
2906.92
2907.13
2903.67
2901.98
2898.15
2896.66
2887.38
2874.57
2868.06
2867.51
2869.35
2875.38
2883.73
2894.96
2901.63
2901.95
2904.28
2849.17
2859.08
2860.71
2857.65
2851.93
2845.43
2846.72
2848.71
2841.63
2835.15
2828.95
2823.57
2820.31
2820.78
2820.58
2820.31
2820.2
2821.63
2826.98
2833.94
2838
2839.47
2844.41
2852.85
2859.46
2862.1
2853.17
2846.32
2845.85
2844.53
2759.48
2753.16
2747.69
2751.53
2757.04
2760.73
2760.24
2778.21
2802.15
2819.76
2831.55
2828.91
2812.75
2786.12
2773.31
2780.09
2792.46
2803.74
2815.48
2824.91
2831.63
2836.1
2841.54
2834.24
2825.77
2816.02
2807.34
2799.09
2795.06
2797.82
2785.56
2775.97
2766.32
2762.67
2749.47
2744.56
2747.59
2760.03
2783.78
2807.81
2814.34
2808.71
2806.56
2798.82
2795.23
2797.95
2792.6
2787.05
2786.12
2789.75
2794.88
2795.03
2802.89
2805.84
2804.93
2801.1
2807.27
2792.38
2771.59
2793.28
2815.43
2788.72
2776.57
2799.25
2820.13
2825.22
2823.46
2816.82
2808.13
2808.76
2796.86
2796.07
2792.65
2792.51
2790.63
2796.09
2797.76
2801.35
2804.98
2805.62
2801.5
2799.67
2800.9
2800.92
2803.96
2795.34
2822.85
2852.88
2860.14
2831.65
2878.4
2892.83
2907.38
2914.8
2918.29
2925.11
2925.03
2916.66
2909.28
2907.16
2913.94
2913.6
2929.35
2930.08
2933.81
2924.73
2927.61
2920.46
2911.7
2873.4
2830.48
2808.37
2842.55
2890.73
2915.83
2919.49
2916.19
2909.66
2907.67
2875.55
2912.75
2916.2
2921.51
2928.59
2923.42
2924.41
2912.85
2908.2
2900.75
2889.12
2887.73
2892.04
2897.15
2901.14
2903
2900.84
2897.49
2893.13
2891.88
2891.17
2880.46
2850.26
2829.67
2842.54
2863.34
2870.91
2868.63
2862.73
2855.41
2847.97
2907.24
2907.97
2918.59
2933.76
2946.34
2920.94
2901.04
2895.74
2895.94
2907.73
2924.22
2931.15
2922.11
2890.95
2862.84
2842.19
2807
2776.57
2784.47
2805.25
2812.25
2815.06
2815.68
2817.09
2816.34
2812.06
2806.25
2798.91
2790.47
2785.03
2822.1
2844.78
2858.59
2871.18
2883.77
2893.99
2906.4
2911.41
2912.19
2908.19
2898.34
2886.29
2873.51
2860.23
2849.87
2839.33
2829.16
2819.36
2817.12
2831.85
2856.58
2884.44
2906.7
2913.56
2896.97
2871.56
2847.04
2834.22
2834.44
2835.72
2722.62
2760.26
2820.46
2811.92
2762.03
2692.94
2664.87
2668.9
2689.4
2728.07
2763.1
2791.15
2805.55
2804.85
2789.47
2759.17
2726.81
2691.71
2659.59
2634.61
2623.35
2618.36
2619.4
2660.53
2729.85
2746.73
2647.24
2590.24
2604.95
2708.29
2880.61
2950.48
3003.44
2998.12
2973.02
2963.67
2971.9
2996.02
3025.06
3041.98
3031.8
3013.87
3037.47
3061.52
2831.96
2869.13
2846.17
2826.58
2810.92
2799.92
2814.62
2901.32
2983.53
3011.14
3003.32
2983.42
2955.68
2895.22
2871.34
2887.64
2915.71
2938.86
2956.75
2970.06
2981.37
2983.87
2975.9
2957.54
2933.21
2916.05
2916.46
2932.99
2931.07
2866.11
2952.6
2956.19
2955.55
2961.11
2969.8
2977.46
2976.18
2976.64
2979.56
2974.14
2959.68
2948.77
2957.99
2959.91
2953.48
2952.76
2951.9
2951.83
2950.02
2945.78
2940.19
2941.71
2941.25
2947.62
2951.58
2958
2964.58
2967.5
2944.21
2943.32
2890.27
2883
2886.07
2899.08
2914.96
2922.24
2922.56
2920.19
2916.68
2908.27
2897.2
2891.05
2894.44
2906.43
2907.52
2903.18
2900.3
2897.91
2894.05
2878.61
2866.99
2862.09
2855.73
2857.42
2866.53
2879.33
2889.11
2899.07
2899.86
2901.61
2852.01
2863.94
2862.56
2858.34
2851.08
2845.04
2851.63
2845.66
2838.94
2829.71
2822.77
2822.14
2820.18
2816.73
2815.14
2816.58
2819.72
2821.29
2825.44
2830.66
2837.32
2837.67
2842.43
2851.18
2858.61
2861.84
2853.64
2846.85
2846.1
2839.05
2762.95
2756.66
2751.04
2749.5
2753.48
2758.44
2758.18
2767.07
2784.16
2802.6
2812.32
2820.59
2811.38
2786.34
2772.8
2779.77
2791.56
2805.97
2819.01
2833.1
2841.76
2848.18
2847.94
2844.76
2835.93
2818.86
2809.11
2799.39
2793.84
2794.97
2780.14
2773.07
2760.78
2755.37
2742.2
2738.01
2740.48
2755.04
2778.57
2805.35
2812.53
2811.14
2804.18
2794.25
2795.24
2796.4
2787.31
2785.63
2788.48
2788.52
2788.3
2795.38
2802.83
2804.18
2803.92
2802.34
2801.66
2795.58
2786.32
2796.63
2812.94
2768.73
2779.83
2810.64
2822.89
2824.05
2821.84
2811.04
2807.83
2805.16
2790.61
2787.39
2787.69
2782.35
2784.21
2787.29
2793.43
2796.64
2800.34
2803.4
2802.51
2799.4
2800.03
2801.06
2802.27
2805.59
2853.63
2875.19
2870.83
2842.89
2878.44
2902.38
2916.75
2917.16
2920.91
2929.58
2917.93
2910.74
2906.04
2902.92
2909.3
2909.94
2923.85
2931.47
2937.06
2928.24
2935.58
2922.48
2918.39
2888.55
2843.35
2834.53
2884.11
2915.28
2918.52
2917.2
2912.47
2909.9
2909.52
2881.29
2914.94
2918.18
2924.38
2928.79
2923.77
2919.97
2920.84
2898.54
2894.27
2884.09
2883.98
2880.69
2885.89
2896.59
2905.61
2900.29
2904.09
2901.29
2893.99
2894.17
2889.3
2866.32
2846.15
2862.54
2874.6
2874.28
2868.46
2860.7
2855.76
2851.98
2904.17
2903.32
2925.04
2939.88
2932.77
2902.27
2882.87
2871.21
2872.43
2889.4
2917.73
2938.01
2922.8
2895.3
2861.37
2844.74
2817.92
2778.07
2778.3
2796.77
2806.21
2808.15
2812.94
2817.74
2818.95
2817.31
2814.31
2808.78
2801.69
2794.47
2823.44
2846
2862.17
2877.49
2890.24
2906.52
2922.15
2927.99
2934.06
2926.57
2913.5
2898.71
2879.26
2866.12
2855.64
2842.93
2831.6
2820.46
2813.37
2823.1
2847.86
2871.23
2889.73
2895.98
2883.22
2860.78
2842.82
2834.98
2834.93
2834.82
2704.02
2729.16
2795.31
2803.31
2750.05
2685.98
2666.3
2676.53
2707.89
2755.13
2797.51
2833.87
2851.99
2850.65
2830.94
2793.91
2755.5
2712.12
2674.67
2641.08
2624.15
2623
2614.74
2652.99
2740.05
2764.21
2677.16
2633.71
2693.18
2822.24
2896.5
2974.59
2994.13
2967.33
2954.02
2960.1
2981
3009.21
3031.95
3042.37
3029.13
3014.07
3038.8
3062.56
2826.45
2869.2
2853.76
2824.23
2804.43
2797.21
2810.48
2890.81
2980.41
3013.96
3007.71
2983.89
2951.46
2885.43
2870.02
2893.25
2921.54
2943.07
2960.45
2973.94
2986.61
2988.22
2983.18
2965.24
2940.91
2919.81
2919.87
2933.7
2931.06
2863.82
2945.37
2956.99
2958.3
2960.51
2966.99
2972.87
2977.05
2981.45
2983.85
2979.95
2960.37
2951.23
2959.64
2959.03
2953.3
2953.56
2953.54
2952.87
2948.78
2942.25
2936.99
2937.23
2938.37
2945.33
2950.14
2957.35
2962.96
2967.13
2943.49
2942.38
2891.07
2880.57
2883.32
2896.26
2906.45
2914.83
2919.16
2918.66
2912.74
2902.04
2892.24
2890.43
2896.89
2908.9
2908.35
2902.49
2900.43
2897.7
2891.59
2874.03
2864.19
2857.56
2854.2
2855.89
2861.17
2877.76
2887.17
2897.21
2899.08
2900.7
2854.25
2862.5
2862.84
2860.64
2852.21
2844.52
2850.24
2844.49
2836.3
2827.22
2822.57
2821.19
2815.26
2813.54
2814.04
2814.44
2818.29
2819.18
2825.14
2829.98
2836.31
2837.29
2841.3
2850.07
2858.59
2861.29
2853.39
2848.25
2846.57
2833.79
2764.67
2760.04
2752.78
2748.53
2749.61
2754.48
2755.48
2760.18
2767.82
2781.05
2791.71
2804.97
2808.57
2786.18
2771.77
2780.15
2793.85
2806.51
2822.51
2832.55
2845.66
2851.91
2854.8
2846.32
2838.94
2822.52
2808.49
2799.4
2793.71
2794.44
2780.42
2772.17
2755.94
2750.79
2739.87
2737.33
2738.89
2752.27
2775.73
2802.73
2807.05
2811.14
2800.77
2793.05
2797.37
2794.68
2786.83
2786.96
2785.88
2784.45
2790.65
2798.73
2800.33
2804.49
2803.56
2802.31
2800.04
2797.09
2791.24
2803.79
2798.79
2755.4
2783.94
2813.72
2821.94
2824.06
2817.52
2811.43
2802.87
2804.97
2786.46
2789.2
2782.99
2781.07
2784.29
2789.14
2789.33
2796.88
2800.54
2799.99
2801.51
2799.47
2799.67
2800.38
2799.8
2845.87
2876.2
2875.74
2862.55
2855.13
2887.91
2910.53
2918.18
2918.95
2923.66
2929.07
2917.28
2909.65
2905.17
2900.3
2911.51
2908.11
2926.12
2929.13
2941.54
2930.54
2936.15
2925.8
2920.98
2894.51
2846.54
2870.14
2913.24
2916.8
2917.48
2916.75
2910.68
2909.26
2904.75
2891.24
2914.58
2917.25
2923.66
2931.53
2924.4
2920.77
2916.93
2906.27
2886.44
2884.83
2881.23
2879.2
2884.9
2890.28
2904.07
2904.28
2908.21
2904.41
2897.57
2897.82
2892.79
2871.69
2859.37
2874.27
2878.09
2876.19
2871.35
2864.85
2862.36
2862.35
2887.21
2902.97
2928.57
2942.17
2924.09
2891.26
2868.45
2855.11
2856.99
2869.13
2901.81
2932.07
2920.2
2898.91
2864.11
2842.9
2822.49
2784.67
2774.47
2790.82
2798.42
2800.8
2806.23
2814.54
2820.06
2822.94
2818.61
2816.35
2811.86
2804.95
2822.91
2846.89
2864.97
2879.15
2895.42
2916.36
2929.27
2939.44
2947.23
2939.55
2928.12
2905.6
2886.03
2871.83
2857.64
2847.54
2835.68
2822.25
2810.78
2814.98
2834.46
2852.91
2864.92
2870.2
2862.9
2848.65
2838.7
2834.76
2834.24
2833.28
2689.19
2697.68
2760.36
2783.4
2738.56
2682.52
2668.92
2681.31
2719.1
2771.32
2821.91
2865.29
2893.19
2887.61
2861.01
2814.87
2771.76
2725.96
2686.18
2646.29
2626.35
2627.71
2613.93
2637.56
2736.17
2791.55
2746.29
2737.59
2821.71
2848.01
2914.46
2984.8
2975.35
2956.25
2966.5
2999.41
3023.33
3037.55
3044.15
3037.02
3022.57
3014.88
3042.97
3061.39
3025.19
2932.3
2832.3
2868.81
2867.47
2832.82
2806.83
2799.87
2815.34
2889.56
2975.51
3013.88
3010.75
2985.71
2949.72
2880.33
2869.14
2894.83
2923.7
2942.21
2957.28
2969.76
2980.67
2985.54
2979.02
2963.51
2939.27
2922.87
2921.1
2936.57
2930.74
2862.03
2838.08
2879.9
2933.88
2954.26
2959.2
2962.48
2966.92
2973.21
2977.8
2981.4
2983.04
2979.59
2959.32
2949.73
2960.9
2959.36
2953.77
2955.41
2956.13
2952.71
2949.28
2943.58
2937.24
2938.04
2937.88
2945.7
2950.19
2958.02
2963.17
2964.2
2941.68
2944.49
2953.81
2927.71
2890.97
2880.61
2880.42
2885.46
2894.38
2904.08
2908.15
2907
2901.25
2891.87
2887.93
2892.5
2903.12
2913.56
2909.23
2903.55
2901.29
2898.59
2891.9
2875
2863.99
2858.3
2856.75
2857.72
2863.77
2876.59
2888.26
2897.36
2895.48
2900.34
2872.17
2864.28
2860.45
2865.51
2865.64
2864.46
2854.32
2845.04
2850.63
2844.33
2836
2827.69
2823.97
2819.74
2817.71
2816.14
2816.05
2815
2819.72
2818.17
2826.51
2831
2835.72
2837.62
2841.17
2850.7
2859.18
2861.48
2854.3
2850.15
2847.64
2830.95
2826.73
2816.03
2782.18
2768.71
2758.4
2751.9
2749.71
2750.23
2753.29
2755.74
2758.04
2764.96
2775.42
2790.29
2804.79
2786.69
2772.22
2781.83
2793.73
2807.2
2822.17
2833.23
2844.6
2851.97
2854.86
2847.14
2837.14
2820.64
2807.23
2797.05
2792.26
2794.47
2787.22
2782.58
2780.62
2766.64
2750.61
2745.14
2737.92
2737.07
2740.26
2752.2
2772.02
2800.75
2806.56
2805.16
2800.68
2793.58
2797.26
2794.64
2789.06
2788.54
2791.31
2788.88
2796.43
2799.54
2798.51
2806.5
2802.29
2800.06
2800.34
2798.88
2798.35
2811.56
2775.69
2767.25
2760.87
2742.71
2776.4
2810.62
2822.79
2821.28
2819.27
2809.67
2803.86
2804.92
2787.77
2790.74
2786.4
2781.79
2784.13
2789.28
2790.58
2795.71
2800.34
2799.97
2800.78
2799.75
2799.16
2805.64
2845.2
2877.19
2869.02
2847.26
2837.42
2849.02
2863.56
2882.38
2892.78
2911.15
2918.4
2921.92
2924.34
2930.38
2921.34
2915.77
2912.05
2911.64
2911.5
2911.78
2929.72
2934.15
2941.57
2934.26
2938.71
2925.73
2923.99
2888.4
2856.26
2903.76
2915.82
2916.3
2917.5
2912.29
2910.8
2910.72
2908.36
2905.7
2917.73
2923.33
2912.78
2918.18
2922.87
2933.62
2930.65
2922.11
2918.36
2905.81
2896.58
2881.28
2885.76
2879.91
2886.25
2888.09
2906.15
2907.03
2906.7
2905.5
2900.81
2898.84
2891.98
2869.51
2869.13
2877.74
2881
2882.45
2883.33
2884.31
2885.5
2886.73
2893.44
2907.06
2897.92
2912.56
2935.6
2944.17
2922.78
2889.36
2864.57
2853.66
2856.31
2868.08
2897
2927.94
2923.67
2893.86
2865.29
2845.85
2830.93
2791.91
2771.44
2780.66
2790.75
2791.34
2793.01
2807.08
2819.07
2827.39
2826.12
2819.9
2816.82
2811.6
2806.19
2807.68
2823.63
2845.87
2863.67
2878.79
2897.03
2917.64
2931.85
2942.5
2946.74
2941.88
2929.59
2909.81
2891.05
2872.21
2860.13
2850.75
2839.39
2830.66
2813.37
2807.99
2821.45
2835.47
2843.96
2845.89
2844.62
2840.06
2835.77
2833.74
2823.02
2791.77
2732
2689.76
2663.28
2683.27
2729.12
2751.78
2727.89
2681.83
2669.58
2683.44
2722.03
2773.93
2827.66
2873.09
2899.44
2896.49
2870.6
2820.96
2775.38
2729.12
2690.7
2650.24
2626.84
2633.02
2621.51
2631.86
2734.23
2818.17
2827.13
2854.4
2901.68
2779.22
2564.55
2431.54
2929.28
2980.31
2967.3
2972.32
3013.87
3041.44
3052.22
3049.02
3038.52
3025.46
3015.74
3024.91
3054.04
3060.63
3033.47
2943.01
2837.04
2872.42
2880.68
2852.16
2823.74
2811.67
2831.44
2892.82
2971.45
3013.94
3011.39
2986
2949.57
2878.86
2866.36
2892.11
2920.9
2939.08
2949.08
2959.5
2965.44
2970.37
2965.01
2951.6
2934.33
2922.77
2927.97
2937.92
2928
2856.03
2828.07
2861.78
2916.23
2937.64
2955.62
2961.86
2967.03
2972.55
2977.69
2981.24
2981.77
2978.74
2957.47
2948.51
2961.57
2960.39
2954.95
2956.14
2957.65
2956.28
2951.44
2946.85
2941.99
2941.12
2940.58
2947.97
2953.6
2958.47
2965.65
2959.52
2940.7
2948.02
2957.4
2933.83
2895.13
2880.95
2878.1
2879.45
2885.01
2889.75
2892.09
2891
2887.19
2884.61
2889.37
2900.66
2913.16
2918.59
2909.1
2903.33
2904.31
2899.11
2894.78
2879.66
2867.23
2859.39
2858.05
2861.05
2868.86
2879.38
2893.03
2897.29
2897.34
2900.34
2870.99
2868.93
2867
2866.93
2871.34
2872.8
2858.94
2846.71
2852.39
2845.8
2837.84
2830.19
2825.94
2821.1
2821.84
2817.86
2818.13
2820.51
2823.06
2823.6
2830.5
2833.26
2834.46
2839.31
2845.26
2851.88
2859.81
2862.08
2854.3
2851.93
2850.19
2832.41
2813.8
2803.93
2806.1
2792.64
2776.46
2762.15
2753.14
2751.01
2750.1
2751.14
2752.71
2757.14
2764.11
2780.56
2800.82
2787.72
2770.73
2780.54
2793.31
2806.21
2820.42
2833.44
2843.88
2850.79
2850.56
2843.33
2831.25
2816.6
2805.17
2796.63
2793.26
2799.45
2789.51
2784.67
2778.29
2761.64
2746.37
2741.09
2737.79
2733.7
2742.61
2756.08
2768.57
2798.09
2806.32
2804.22
2801.78
2795.94
2797.09
2796.51
2791.17
2793.66
2790.85
2794.8
2795.68
2798.74
2802.78
2804.62
2801.32
2800.37
2807.26
2803.48
2807.17
2781.87
2756.57
2744.55
2729.22
2728.2
2768.32
2810.05
2820.47
2822.53
2817.43
2811.39
2806.42
2806.79
2792.33
2793.9
2793.16
2791.53
2788.64
2789.83
2793.78
2798.41
2798.61
2801.94
2800.2
2798.46
2801.88
2822.03
2853.11
2850.69
2825.28
2789.34
2765.21
2783.71
2816.72
2849.84
2886.87
2908.69
2918.84
2921.87
2925.07
2927.73
2923.79
2919.5
2914.68
2912.28
2919.86
2921.57
2936.81
2935.34
2943.81
2933.94
2937.82
2928.63
2918.02
2874.58
2875.04
2911.76
2914.17
2915.84
2914.84
2916.47
2917.13
2916.42
2916.36
2916.9
2913.08
2914.22
2905.03
2915.53
2921.94
2927.98
2931.21
2928.11
2919.36
2914.18
2903.74
2887.67
2884.67
2887.35
2886.38
2897.08
2909.52
2905.51
2906.76
2906.95
2901.35
2898.1
2886.92
2866.38
2867.37
2868.34
2869.03
2870.86
2871.92
2872.44
2872.77
2873.81
2879.69
2894.55
2898.21
2914.88
2934.71
2944.15