/*--------------------------------*- C++ -*----------------------------------*\
| =========                 |                                                 |
| \\      /  F ield         | OpenFOAM: The Open Source CFD Toolbox           |
|  \\    /   O peration     | Version:  2.1.1                                 |
|   \\  /    A nd           | Web:      www.OpenFOAM.org                      |
|    \\/     M anipulation  |                                                 |
\*---------------------------------------------------------------------------*/
FoamFile
{
    version     2.0;
    format      ascii;
    class       volVectorField;
    location    "0.007000000";
    object      U;
}
// * * * * * * * * * * * * * * * * * * * * * * * * * * * * * * * * * * * * * //

dimensions      [0 1 -1 0 0 0 0];

internalField   nonuniform List<vector> 
12384
(
(0.693923 -1.23016 0)
(4.5661 -2.85395 0)
(7.98923 -3.85991 0)
(14.4586 -4.3473 0)
(19.9835 -4.76772 0)
(25.5073 -3.88804 0)
(29.381 -3.45628 0)
(30.9705 -2.06165 0)
(31.1043 -0.911614 0)
(26.9514 0.490811 0)
(23.0142 1.23997 0)
(15.7111 1.19596 0)
(9.55508 1.62839 0)
(3.43502 0.466772 0)
(-3.10473 2.05543 0)
(-10.3496 2.24658 0)
(-17.5833 2.58234 0)
(-25.9213 3.05011 0)
(-34.4826 4.23405 0)
(-43.3771 3.5144 0)
(-50.7828 3.28726 0)
(-55.862 0.994751 0)
(-57.447 -0.020337 0)
(-53.9638 -3.0914 0)
(-46.9829 -5.71035 0)
(-34.3103 -7.89431 0)
(-18.2067 -9.69394 0)
(0.977098 -11.3165 0)
(22.6081 -12.289 0)
(45.8796 -12.6607 0)
(69.2954 -12.2577 0)
(91.2296 -10.8183 0)
(109.269 -8.49751 0)
(122.482 -6.15113 0)
(131.379 -3.57025 0)
(133.04 0.104501 0)
(126.921 3.68976 0)
(114.389 8.33127 0)
(95.2572 10.5498 0)
(71.2167 11.97 0)
(46.5912 11.3013 0)
(24.6134 8.84839 0)
(8.6903 5.18683 0)
(1.38647 0.629073 0)
(-8.31544 8.25502 0)
(-25.8565 9.49676 0)
(-45.0754 9.9687 0)
(-63.3322 9.20102 0)
(-78.7678 6.86305 0)
(-88.0318 3.84389 0)
(-93.1773 0.153952 0)
(-92.8089 -0.494573 0)
(-86.7568 -4.9602 0)
(-77.0699 -6.09486 0)
(-62.6062 -9.91351 0)
(-42.959 -11.1567 0)
(-19.728 -13.9962 0)
(7.40558 -16.1511 0)
(38.5566 -17.3258 0)
(70.7014 -19.0243 0)
(102.966 -16.4009 0)
(131.786 -16.0599 0)
(154.081 -10.9424 0)
(172.717 -5.66318 0)
(179.549 -5.19635 0)
(176.692 5.04543 0)
(164.413 6.70526 0)
(139.281 14.3004 0)
(107.979 17.967 0)
(70.1439 18.0408 0)
(37.0607 15.7427 0)
(10.9582 10.7046 0)
(-3.26056 2.34363 0)
(-6.59732 -5.66835 0)
(-4.87967 6.30223 0)
(-18.3553 11.0554 0)
(-40.4735 14.6033 0)
(-68.3717 17.0239 0)
(-97.1423 16.8216 0)
(-122.587 13.467 0)
(-139.985 9.02801 0)
(-149.719 3.23522 0)
(-150.539 1.13961 0)
(-142.336 -4.01633 0)
(-126.721 -7.50169 0)
(-103.868 -10.6381 0)
(-75.7009 -13.1051 0)
(-43.7387 -14.8721 0)
(-9.37873 -16.0814 0)
(27.5258 -18.1847 0)
(68.0498 -20.1194 0)
(112.985 -21.6755 0)
(153.936 -20.0687 0)
(194.662 -18.0621 0)
(225.868 -13.8284 0)
(242.704 -6.00109 0)
(253.578 -1.22855 0)
(241.07 7.44712 0)
(213.364 17.0173 0)
(170.064 24.2136 0)
(115.666 26.7672 0)
(63.0648 22.6845 0)
(22.3989 14.1924 0)
(3.32249 1.41821 0)
(-13.3919 12.5102 0)
(-35.9484 7.14955 0)
(-45.4914 2.12058 0)
(-43.2701 -3.75441 0)
(-33.1088 -8.90602 0)
(-11.1511 -13.6207 0)
(19.2002 -17.5484 0)
(57.1358 -20.6297 0)
(99.7645 -22.7066 0)
(144.313 -22.1996 0)
(187.835 -19.9242 0)
(226.352 -16.6336 0)
(257.521 -12.016 0)
(280.349 -6.092 0)
(293.371 -1.48709 0)
(295.093 4.21195 0)
(283.698 10.6785 0)
(260.592 17.2335 0)
(224.684 23.4368 0)
(175.17 29.2809 0)
(119.861 30.4891 0)
(67.907 26.1151 0)
(25.199 19.2276 0)
(-3.05657 10.9479 0)
(-15.1428 0.14832 0)
(-15.8038 -2.26378 0)
(-11.9694 -5.30462 0)
(-6.94709 -3.35757 0)
(-2.17366 -3.55566 0)
(0.454746 -1.15007 0)
(-4.67404 7.31563 0)
(-15.3929 7.69325 0)
(-26.1796 8.54185 0)
(-38.0118 8.3529 0)
(-51.7891 8.87811 0)
(-61.8944 8.00347 0)
(-72.1638 5.14686 0)
(-76.1054 3.45648 0)
(-76.4904 -0.463285 0)
(-72.4485 -3.82268 0)
(-59.5808 -8.42005 0)
(-41.7456 -10.8648 0)
(-17.746 -14.668 0)
(10.834 -16.4882 0)
(44.0892 -19.0803 0)
(79.9728 -19.8805 0)
(115.857 -19.8102 0)
(149.962 -18.0392 0)
(179.248 -15.0226 0)
(202.096 -11.1995 0)
(216.932 -5.0754 0)
(220.608 2.28595 0)
(212.505 7.94275 0)
(191.795 16.2685 0)
(158.849 22.2243 0)
(113.702 27.2601 0)
(65.6349 25.7789 0)
(24.3665 19.6063 0)
(-0.139116 6.72383 0)
(-5.74005 -3.37887 0)
(-14.109 10.0729 0)
(-41.3776 10.2295 0)
(-68.4402 9.00217 0)
(-89.2144 5.59451 0)
(-100.389 0.582388 0)
(-102.05 -2.9433 0)
(-92.11 -8.56975 0)
(-72.1109 -13.7019 0)
(-42.8288 -17.1017 0)
(-6.52413 -20.0568 0)
(34.5355 -21.9352 0)
(78.4451 -22.7738 0)
(121.629 -21.8592 0)
(162.939 -19.8502 0)
(197.986 -15.9631 0)
(226.414 -13.298 0)
(248.012 -8.26965 0)
(257.564 -0.0336786 0)
(254.447 3.52172 0)
(238.184 13.1495 0)
(210.235 18.9868 0)
(168.063 26.5331 0)
(115.882 28.819 0)
(63.9379 25.9828 0)
(19.0066 19.2859 0)
(-10.2798 11.0194 0)
(-23.9988 1.26854 0)
(-27.7756 -1.7441 0)
(-20.6018 -7.68019 0)
(-7.60511 -8.81537 0)
(-6.40789 5.75462 0)
(-11.3982 1.18776 0)
(-9.97855 -1.73551 0)
(1.57488 -10.2503 0)
(27.7673 -17.2004 0)
(65.1984 -22.2583 0)
(109.322 -23.6421 0)
(157.32 -25.3186 0)
(200.289 -22.0152 0)
(237.696 -18.6207 0)
(269.721 -16.2692 0)
(286.795 -6.87705 0)
(301.365 -3.73293 0)
(294.269 4.33288 0)
(278.9 11.292 0)
(246.949 18.4487 0)
(202.965 25.1258 0)
(149.417 28.5951 0)
(91.2593 27.3962 0)
(40.7953 22.5308 0)
(0.620483 16.0641 0)
(-27.3136 10.341 0)
(-44.2247 5.62091 0)
(-53.9815 1.91372 0)
(-56.1642 -0.061712 0)
(-48.9254 -4.5315 0)
(-36.4138 -6.90249 0)
(-22.1602 -5.12688 0)
(-8.96364 -3.51258 0)
(-2.19335 -0.877763 0)
(-12.1442 15.1372 0)
(-6.59189 -2.23718 0)
(20.6027 -17.4349 0)
(67.3019 -25.4439 0)
(124.85 -28.0958 0)
(182.041 -26.2033 0)
(233.898 -21.6446 0)
(274.609 -15.7045 0)
(302.135 -8.44867 0)
(311.375 -5.62449 0)
(310.074 9.26058 0)
(294.88 10.608 0)
(256.975 23.1324 0)
(210.134 26.8087 0)
(153.076 30.4258 0)
(95.7631 28.1441 0)
(45.7292 19.3644 0)
(19.4918 13.7152 0)
(-3.56731 6.90419 0)
(-12.9295 5.60273 0)
(-21.1829 3.0153 0)
(-27.941 -0.0978609 0)
(-25.7788 0.0302114 0)
(-17.2699 -5.31442 0)
(-4.2862 -4.97836 0)
(7.2733 -3.72871 0)
(15.8902 -0.372168 0)
(17.2254 2.4004 0)
(13.0822 5.54443 0)
(5.62602 7.3285 0)
(-3.21871 -8.75061 0)
(4.79653 -19.6845 0)
(31.5063 -26.8439 0)
(70.9401 -29.8372 0)
(118.07 -30.6892 0)
(163.826 -28.9634 0)
(207.529 -22.704 0)
(238.136 -19.7375 0)
(259.93 -9.26388 0)
(275.737 -7.42732 0)
(270.403 6.26983 0)
(257.08 10.9986 0)
(219.877 19.9964 0)
(174.02 25.7486 0)
(118.996 26.9304 0)
(65.244 23.8953 0)
(20.5296 18.8809 0)
(-12.5568 12.7676 0)
(-34.5459 7.46463 0)
(-47.8164 4.21253 0)
(-57.1699 2.39476 0)
(-61.4834 1.56527 0)
(-60.3222 -1.31479 0)
(-54.133 -5.77185 0)
(-39.54 -9.49152 0)
(-21.848 -8.69762 0)
(-7.9951 -6.529 0)
(1.31728 -3.28566 0)
(4.16425 -1.28874 0)
(3.6408 2.83454 0)
(-25.4147 17.814 0)
(-18.7989 -4.39529 0)
(15.36 -25.7266 0)
(75.3536 -35.0874 0)
(144.727 -34.4165 0)
(206.009 -27.5569 0)
(250.547 -16.1262 0)
(271.835 -4.49204 0)
(266.453 9.36234 0)
(237.865 21.2714 0)
(188.423 29.4732 0)
(129.122 30.3508 0)
(74.7078 25.0989 0)
(33.205 17.1412 0)
(6.89545 9.97321 0)
(-8.97988 6.1186 0)
(-19.9604 5.17784 0)
(-30.3538 4.40923 0)
(-37.6147 1.8963 0)
(-38.1106 -2.69977 0)
(-30.5399 -6.65724 0)
(-16.4954 -9.59169 0)
(1.0541 -11.1371 0)
(19.2072 -11.1265 0)
(35.2978 -9.25106 0)
(46.1052 -5.37625 0)
(48.5289 -2.11469 0)
(43.7523 2.23569 0)
(31.1714 5.67091 0)
(11.9001 8.75959 0)
(-0.524389 -4.48026 0)
(-6.52495 2.77665 0)
(-24.2164 10.046 0)
(-52.1746 15.7361 0)
(-88.0476 17.3044 0)
(-124.032 16.8917 0)
(-153.084 11.6598 0)
(-174.616 7.03385 0)
(-183.411 1.0821 0)
(-181.215 -4.6747 0)
(-170.894 -7.96566 0)
(-153.502 -11.0163 0)
(-129.491 -13.4975 0)
(-102.8 -14.8026 0)
(-75.0734 -14.7818 0)
(-46.9309 -14.2997 0)
(-20.205 -13.6129 0)
(5.21615 -12.9768 0)
(29.999 -12.4345 0)
(53.8588 -11.3334 0)
(74.6485 -8.9921 0)
(90.4666 -5.72056 0)
(98.2671 0.779636 0)
(95.0265 2.7643 0)
(86.1546 8.59168 0)
(70.0973 12.1055 0)
(48.1996 13.3515 0)
(27.1563 11.6728 0)
(10.8972 8.42392 0)
(2.30387 4.48382 0)
(4.84079 -4.2818 0)
(14.9735 -4.30246 0)
(22.797 -2.53111 0)
(25.7215 0.629615 0)
(23.1427 3.62564 0)
(13.0803 7.88711 0)
(-4.19439 11.5807 0)
(-30.2165 16.4042 0)
(-64.5571 19.3465 0)
(-100.887 19.5632 0)
(-133.1 15.3629 0)
(-155.552 9.36694 0)
(-166.727 2.4723 0)
(-164.702 -2.581 0)
(-150.488 -8.60801 0)
(-127.595 -12.9754 0)
(-96.3536 -16.4934 0)
(-59.8933 -18.1128 0)
(-22.1783 -18.2698 0)
(13.8239 -16.665 0)
(43.9674 -13.5201 0)
(66.5355 -9.56589 0)
(80.0274 -5.33143 0)
(85.193 -1.03652 0)
(83.3289 1.18758 0)
(75.4579 3.82188 0)
(63.9943 5.65376 0)
(48.7679 6.81007 0)
(30.943 7.83925 0)
(10.8362 8.66178 0)
(1.70921 -4.45165 0)
(6.85005 -9.20889 0)
(13.0598 -11.623 0)
(20.2932 -12.8845 0)
(26.474 -13.7229 0)
(32.1375 -10.7366 0)
(35.735 -10.8322 0)
(37.2207 -5.08767 0)
(37.5089 -4.1275 0)
(34.4463 1.72507 0)
(30.078 2.43344 0)
(23.1383 4.65409 0)
(14.1616 5.54843 0)
(4.6765 4.17312 0)
(-4.21142 7.5364 0)
(-13.7169 7.76387 0)
(-22.1504 8.91653 0)
(-31.29 9.04873 0)
(-38.9235 11.0173 0)
(-45.5446 8.7945 0)
(-50.497 7.49084 0)
(-52.6258 1.6304 0)
(-51.8259 -2.70017 0)
(-45.8224 -10.0936 0)
(-36.6909 -17.497 0)
(-23.2001 -23.7432 0)
(-6.37385 -28.9655 0)
(13.4637 -33.368 0)
(35.5748 -36.5812 0)
(59.2176 -37.7845 0)
(82.4783 -36.4514 0)
(104.945 -32.6111 0)
(122.904 -25.7755 0)
(136.644 -17.9006 0)
(145.411 -9.96577 0)
(145.712 1.34669 0)
(142.269 11.5398 0)
(131.799 21.3984 0)
(115.647 29.2658 0)
(95.8383 34.1226 0)
(72.432 34.3272 0)
(47.8757 29.2075 0)
(24.8503 20.0229 0)
(7.19199 7.81018 0)
(-10.5052 26.6765 0)
(-30.1922 28.8381 0)
(-48.2149 28.1582 0)
(-62.9086 24.0209 0)
(-73.6014 17.56 0)
(-79.9728 9.44878 0)
(-81.9081 0.994402 0)
(-80.5386 -3.89832 0)
(-73.3641 -13.4492 0)
(-62.6201 -19.9034 0)
(-47.729 -27.882 0)
(-28.108 -33.7946 0)
(-5.33278 -40.6307 0)
(22.5481 -48.1459 0)
(53.1095 -51.8814 0)
(86.2972 -54.2335 0)
(117.493 -49.5922 0)
(146.054 -44.2088 0)
(169.014 -33.1869 0)
(183.026 -19.2205 0)
(189.465 -9.10808 0)
(190.245 9.05006 0)
(181.427 20.7901 0)
(165.13 36.8946 0)
(142.23 47.8261 0)
(111.866 51.2389 0)
(80.6247 48.4899 0)
(48.9992 36.7087 0)
(22.9647 20.0029 0)
(4.93663 0.901781 0)
(-10.7891 25.1867 0)
(-34.0447 36.7923 0)
(-60.214 44.6135 0)
(-85.1839 47.7464 0)
(-107.216 44.1898 0)
(-124.374 34.9847 0)
(-135.434 23.2036 0)
(-140.048 10.5168 0)
(-137.862 1.87946 0)
(-127.72 -11.0305 0)
(-110.506 -21.5642 0)
(-87.5618 -31.1952 0)
(-59.6415 -38.519 0)
(-27.9292 -43.7261 0)
(6.65634 -47.8839 0)
(44.1936 -53.8676 0)
(85.3372 -59.6145 0)
(129.056 -63.9248 0)
(171.49 -58.9907 0)
(211.398 -51.6595 0)
(244.309 -38.3391 0)
(260.997 -20.011 0)
(265.559 -0.406397 0)
(258.779 21.9157 0)
(237.63 45.0208 0)
(206.061 63.8742 0)
(163.105 74.6242 0)
(111.815 70.7251 0)
(59.8064 51.65 0)
(18.1034 19.4707 0)
(-10.3918 32.5336 0)
(-26.7559 17.0559 0)
(-32.2138 2.70859 0)
(-25.6382 -13.987 0)
(-11.5361 -28.1847 0)
(12.0143 -41.0872 0)
(43.5241 -52.7277 0)
(81.7988 -61.5136 0)
(124.673 -65.4383 0)
(169.063 -64.0936 0)
(211.097 -57.907 0)
(248.144 -47.376 0)
(279.139 -32.8387 0)
(301.047 -17.1427 0)
(311.936 -2.1025 0)
(312.992 14.0701 0)
(306.138 30.2252 0)
(288.31 47.3076 0)
(262.649 62.7904 0)
(228.946 76.2853 0)
(185.149 84.4403 0)
(135.636 79.9539 0)
(87.2034 63.3604 0)
(45.9706 41.0737 0)
(15.9684 14.5818 0)
(-1.50561 3.69504 0)
(-8.66344 -4.38278 0)
(-9.56163 -6.86347 0)
(-6.45762 -10.853 0)
(-2.27948 -4.93806 0)
(-5.96329 23.7162 0)
(-18.9889 23.563 0)
(-30.5837 25.2732 0)
(-41.4058 23.7717 0)
(-52.0442 24.4282 0)
(-59.657 20.4262 0)
(-66.2156 14.8639 0)
(-69.1054 8.54593 0)
(-68.376 -0.964581 0)
(-62.0252 -11.6176 0)
(-50.183 -23.3085 0)
(-33.239 -32.1523 0)
(-9.59691 -41.9635 0)
(18.8703 -49.0965 0)
(51.2763 -55.0427 0)
(85.94 -57.4198 0)
(120.631 -56.183 0)
(153.313 -51.4179 0)
(182.193 -42.0903 0)
(204.298 -31.0051 0)
(219.039 -13.5121 0)
(224.548 2.48643 0)
(219.74 20.9528 0)
(206.699 40.3822 0)
(184.276 58.3282 0)
(154.059 71.884 0)
(114.818 74.1549 0)
(72.8776 62.1401 0)
(34.9357 36.3218 0)
(7.62085 8.25816 0)
(-16.1285 31.7835 0)
(-44.438 30.8308 0)
(-69.0317 25.4393 0)
(-86.6233 14.7744 0)
(-95.1725 1.37989 0)
(-94.4416 -11.4512 0)
(-84.5738 -25.7159 0)
(-64.8457 -38.9809 0)
(-36.5976 -50.0764 0)
(-1.89963 -57.9421 0)
(37.9803 -63.98 0)
(80.22 -65.9717 0)
(121.738 -62.6988 0)
(161.089 -56.4891 0)
(193.269 -46.0998 0)
(219.78 -35.5825 0)
(241.999 -21.1296 0)
(250.876 -4.66306 0)
(252.738 9.21661 0)
(244.082 29.6655 0)
(226.32 49.9187 0)
(200.171 67.7872 0)
(163.433 78.3503 0)
(118.922 76.9476 0)
(71.7031 61.9492 0)
(31.6237 39.8784 0)
(5.77445 14.3896 0)
(-7.7348 1.57022 0)
(-9.95364 -13.3221 0)
(-4.91915 -21.7219 0)
(-3.7904 14.2336 0)
(-3.88116 -0.240823 0)
(5.15928 -11.426 0)
(25.6568 -33.119 0)
(56.7339 -52.4858 0)
(96.5176 -65.63 0)
(142.196 -69.5271 0)
(188.975 -71.2983 0)
(230.608 -63.8735 0)
(265.79 -51.4473 0)
(295.886 -39.5808 0)
(313.679 -19.9862 0)
(318.683 -6.53584 0)
(317.339 14.2527 0)
(300.679 30.7049 0)
(275.845 49.9646 0)
(241.936 67.8092 0)
(199.478 80.4368 0)
(148.725 82.4571 0)
(93.0305 72.3826 0)
(41.7686 55.6645 0)
(0.883803 37.4953 0)
(-26.7055 21.3896 0)
(-41.8745 9.50512 0)
(-47.567 -0.0550469 0)
(-43.001 -12.0177 0)
(-31.0531 -18.3568 0)
(-19.1277 -14.6055 0)
(-8.87014 -9.43466 0)
(-1.95838 -1.6428 0)
(0.270097 18.9123 0)
(20.9936 -20.5063 0)
(59.2973 -55.0297 0)
(110.19 -74.4964 0)
(164.899 -79.1419 0)
(217.444 -73.4258 0)
(263.395 -59.7016 0)
(299.344 -43.2988 0)
(323.593 -23.2371 0)
(337.485 -7.21393 0)
(340.491 18.7195 0)
(325.108 34.1115 0)
(300.816 58.9709 0)
(268.36 72.2904 0)
(226.062 84.335 0)
(180.139 79.6083 0)
(128.206 65.9838 0)
(81.6488 49.5222 0)
(41.2599 30.6572 0)
(15.7654 22.2173 0)
(-5.10947 14.5009 0)
(-12.4543 2.46124 0)
(-11.4018 -3.0909 0)
(-3.03402 -14.6578 0)
(11.0533 -13.6919 0)
(20.8899 -9.48965 0)
(25.1137 1.43398 0)
(23.6612 9.86865 0)
(16.609 17.5405 0)
(6.29412 23.0861 0)
(4.82278 -28.0401 0)
(27.5889 -58.3688 0)
(62.2184 -80.1493 0)
(103.067 -89.5995 0)
(148.138 -90.0865 0)
(193.66 -84.2126 0)
(235.623 -68.7954 0)
(267.433 -54.6333 0)
(290.901 -29.5105 0)
(307.382 -15.2233 0)
(304.326 10.9848 0)
(295.401 28.9335 0)
(277.474 49.6156 0)
(245.051 67.2544 0)
(202.729 75.8263 0)
(151.79 73.692 0)
(97.3343 63.1839 0)
(47.4256 47.0702 0)
(8.00528 31.4569 0)
(-20.1707 19.1687 0)
(-38.3277 12.1295 0)
(-46.4824 7.77706 0)
(-46.5116 -4.4669 0)
(-38.9792 -18.4325 0)
(-23.82 -27.4638 0)
(-8.10531 -25.4509 0)
(3.02684 -18.6287 0)
(8.30546 -10.2501 0)
(8.48393 -1.89605 0)
(4.7953 6.31093 0)
(-7.31154 32.2248 0)
(18.4977 -31.3896 0)
(73.2461 -81.6149 0)
(141.044 -102.08 0)
(207.423 -96.426 0)
(262.742 -73.2691 0)
(300.561 -42.849 0)
(318.77 -10.381 0)
(318.617 24.1414 0)
(299.468 56.1962 0)
(265.286 79.9583 0)
(216.274 89.8582 0)
(156.669 82.296 0)
(97.6281 62.7708 0)
(47.038 42.1683 0)
(9.92308 27.5445 0)
(-15.0369 20.7257 0)
(-31.6045 14.7399 0)
(-39.9152 5.84209 0)
(-40.5349 -5.0349 0)
(-35.2806 -17.131 0)
(-24.7507 -25.407 0)
(-10.9302 -29.8142 0)
(4.27916 -30.1565 0)
(18.1992 -26.4077 0)
(28.4727 -17.1082 0)
(33.453 -7.13198 0)
(31.5127 3.58294 0)
(22.6813 13.6006 0)
(8.91506 21.6543 0)
(-7.9669 0.567088 0)
(-28.2724 18.9301 0)
(-58.1428 35.4711 0)
(-93.5848 48.075 0)
(-128.18 50.1737 0)
(-159.638 44.8065 0)
(-182.725 31.3895 0)
(-197.79 17.6568 0)
(-205.159 2.54397 0)
(-201.493 -12.6003 0)
(-189.909 -24.0175 0)
(-172.004 -33.3149 0)
(-149.297 -39.5006 0)
(-122.238 -43.4699 0)
(-94.5332 -44.088 0)
(-67.5815 -42.08 0)
(-41.2369 -39.6646 0)
(-15.8934 -38.0933 0)
(8.77001 -36.5701 0)
(32.5498 -33.7164 0)
(54.2207 -26.909 0)
(70.6496 -18.5995 0)
(81.1209 -2.93702 0)
(84.2619 6.47026 0)
(80.7742 20.7825 0)
(71.2224 30.8453 0)
(56.2797 36.2283 0)
(38.3947 34.708 0)
(20.4072 27.5402 0)
(6.19768 17.3075 0)
(4.42108 -11.4683 0)
(11.8684 -10.572 0)
(15.9409 -3.90664 0)
(13.1153 6.761 0)
(2.67308 15.5299 0)
(-15.5177 27.8177 0)
(-41.6978 39.521 0)
(-75.8831 51.931 0)
(-111.628 57.4024 0)
(-144.085 53.1548 0)
(-169.715 40.6212 0)
(-186.192 24.7711 0)
(-192.2 6.73397 0)
(-188.617 -9.77356 0)
(-175.471 -24.5981 0)
(-152.305 -38.0397 0)
(-121.832 -47.5723 0)
(-86.2774 -53.4435 0)
(-48.5469 -53.6837 0)
(-12.6714 -48.8618 0)
(17.923 -39.9079 0)
(41.1252 -28.4462 0)
(56.0002 -15.7791 0)
(63.0644 -5.71124 0)
(63.851 2.65252 0)
(60.2151 8.50827 0)
(52.6752 13.7419 0)
(41.687 17.8571 0)
(27.4103 21.5559 0)
(9.9949 24.5713 0)
(2.32048 -9.03581 0)
(7.93977 -15.9921 0)
(13.9842 -19.2564 0)
(20.4661 -21.8514 0)
(27.0522 -21.2323 0)
(32.1306 -18.4833 0)
(36.8285 -16.3957 0)
(38.0658 -9.54506 0)
(37.7518 -5.0562 0)
(35.1511 1.16807 0)
(29.5483 5.29687 0)
(22.5163 8.94777 0)
(13.4063 10.5995 0)
(4.34677 9.57719 0)
(-4.95948 15.2821 0)
(-15.1079 14.8505 0)
(-23.4597 15.7343 0)
(-31.4716 15.0154 0)
(-37.8377 16.6876 0)
(-43.2728 12.6763 0)
(-45.9096 9.49995 0)
(-45.4751 0.463591 0)
(-43.0733 -7.38175 0)
(-35.6425 -18.452 0)
(-25.708 -29.967 0)
(-12.3338 -40.13 0)
(3.9059 -48.4704 0)
(22.9204 -55.5063 0)
(43.901 -60.5299 0)
(65.9499 -62.4331 0)
(87.1912 -60.2678 0)
(108.083 -53.6503 0)
(124.933 -43.8497 0)
(137.051 -28.5567 0)
(145.698 -14.4393 0)
(146.245 2.75966 0)
(142.088 17.6746 0)
(133.897 32.1071 0)
(121.054 44.8854 0)
(103.509 53.4318 0)
(82.5319 56.7507 0)
(58.6868 52.4434 0)
(33.5121 41.6774 0)
(10.5081 24.2136 0)
(-9.6198 46.1717 0)
(-26.1888 46.2477 0)
(-40.4456 42.7558 0)
(-51.5067 34.967 0)
(-58.8467 25.1299 0)
(-63.8449 12.7385 0)
(-65.227 1.65564 0)
(-63.2751 -9.9107 0)
(-56.5453 -21.1241 0)
(-47.016 -34.4498 0)
(-32.7654 -44.1146 0)
(-14.7179 -56.4551 0)
(6.15717 -65.7999 0)
(31.9398 -78.9876 0)
(61.1094 -85.217 0)
(90.7077 -88.7957 0)
(119.86 -81.1813 0)
(145.226 -71.2645 0)
(164.137 -54.3646 0)
(180.364 -34.2122 0)
(186.369 -14.8764 0)
(186.912 8.47418 0)
(180.247 30.1441 0)
(165.56 52.9393 0)
(148.83 70.7097 0)
(123.876 79.762 0)
(97.3422 80.445 0)
(66.5407 68.0316 0)
(36.5154 47.4284 0)
(11.4074 19.9761 0)
(-12.4523 52.4656 0)
(-36.6447 65.0138 0)
(-59.5931 72.5845 0)
(-79.6977 72.689 0)
(-95.9609 64.348 0)
(-107.838 50.1348 0)
(-114.637 33.307 0)
(-117.244 15.7922 0)
(-113.374 -1.08787 0)
(-102.575 -20.1618 0)
(-86.3847 -36.8554 0)
(-64.2523 -51.498 0)
(-37.573 -63.8792 0)
(-7.92184 -72.7009 0)
(24.1945 -79.7751 0)
(59.3782 -89.3906 0)
(97.6745 -99.0807 0)
(139.078 -104.539 0)
(178.801 -97.3627 0)
(215.087 -85.8557 0)
(242.169 -61.1298 0)
(258.077 -32.6367 0)
(264.861 -0.468212 0)
(254.543 32.0725 0)
(236.472 65.7036 0)
(209.385 95.0434 0)
(173.671 115.487 0)
(128.144 118.816 0)
(75.8288 100.172 0)
(24.812 59.137 0)
(-6.51857 46.6784 0)
(-17.1491 22.4738 0)
(-18.5723 -0.248806 0)
(-10.2343 -26.9474 0)
(4.69089 -49.1858 0)
(28.0191 -69.9287 0)
(58.2126 -88.5067 0)
(95.3999 -102.429 0)
(136.45 -108.238 0)
(177.592 -105.607 0)
(215.95 -94.7449 0)
(249.915 -76.5855 0)
(276.738 -54.4576 0)
(293.994 -31.1518 0)
(304.448 -4.49315 0)
(307.126 20.13 0)
(300.126 44.3927 0)
(285.953 69.0608 0)
(263.818 94.0271 0)
(238.39 114.045 0)
(207.416 127.438 0)
(167.877 128.866 0)
(123.521 113.078 0)
(80.2349 82.036 0)
(42.3823 44.4921 0)
(15.3592 19.4251 0)
(0.389345 0.999153 0)
(-6.26122 -7.24389 0)
(-6.57187 -16.6638 0)
(-3.61124 -11.1884 0)
(-5.36485 40.7229 0)
(-16.3917 39.3685 0)
(-26.3987 40.8463 0)
(-34.8373 36.8964 0)
(-43.3129 37.3191 0)
(-48.4317 30.1981 0)
(-53.5248 23.1566 0)
(-55.4172 11.2632 0)
(-53.8938 -2.44426 0)
(-48.7726 -19.2372 0)
(-37.5579 -37.5376 0)
(-22.1097 -53.3593 0)
(-0.827262 -68.4188 0)
(25.0255 -80.7602 0)
(54.3898 -89.8248 0)
(85.7831 -93.9434 0)
(117.56 -92.2198 0)
(147.045 -84.2248 0)
(171.958 -69.551 0)
(191.332 -50.8098 0)
(204.121 -23.2296 0)
(210.97 2.60331 0)
(210.494 29.07 0)
(199.61 57.1065 0)
(182.25 84.6287 0)
(158.447 106.713 0)
(128.182 116.188 0)
(90.7513 107.287 0)
(50.6272 77.3583 0)
(15.5756 36.9084 0)
(-14.4251 54.4562 0)
(-40.705 49.7946 0)
(-63.424 39.7089 0)
(-79.6783 21.6367 0)
(-88.4385 2.59408 0)
(-87.4945 -20.2891 0)
(-77.6618 -42.9441 0)
(-60.3744 -63.5924 0)
(-34.9829 -80.9801 0)
(-2.93581 -95.3502 0)
(33.1979 -104.313 0)
(71.6144 -106.436 0)
(109.13 -100.951 0)
(143.794 -91.223 0)
(173.031 -75.4573 0)
(198.267 -55.1267 0)
(215.836 -35.9032 0)
(225.294 -9.84497 0)
(229.483 14.9217 0)
(225.632 41.4256 0)
(214.188 68.8512 0)
(194.699 96.0644 0)
(170.306 114.957 0)
(137.608 120.066 0)
(100.273 105.969 0)
(61.8867 76.693 0)
(29.7131 38.1437 0)
(10.5272 11.7402 0)
(1.34988 -12.0639 0)
(-1.14638 -27.3487 0)
(-1.07806 18.1736 0)
(3.9282 -6.83136 0)
(18.6071 -29.8221 0)
(43.8114 -61.716 0)
(77.1014 -90.5205 0)
(116.923 -109.512 0)
(159.25 -114.709 0)
(199.492 -116.354 0)
(236.213 -100.365 0)
(268.133 -84.9385 0)
(291.424 -57.6117 0)
(305.289 -36.9594 0)
(315.228 -4.62634 0)
(310.305 19.2187 0)
(294.472 47.7965 0)
(273.878 74.4103 0)
(244.57 99.6938 0)
(209.635 121.413 0)
(168.985 131.739 0)
(121.983 125.278 0)
(72.8521 103.376 0)
(28.7215 72.8832 0)
(-3.69875 45.2718 0)
(-23.9122 21.5966 0)
(-32.1777 1.66387 0)
(-30.3876 -18.4852 0)
(-22.1339 -26.4206 0)
(-13.6099 -23.4046 0)
(-5.75312 -13.3688 0)
(-0.862184 -1.5308 0)
(11.4799 9.18424 0)
(43.166 -50.8261 0)
(88.1306 -98.1228 0)
(137.861 -122.162 0)
(185.208 -124.983 0)
(228.337 -114.819 0)
(265.36 -91.6927 0)
(294.089 -66.5715 0)
(315.775 -36.2086 0)
(322.752 -6.34521 0)
(327.207 22.7875 0)
(321.243 49.2574 0)
(299.645 81.7861 0)
(279.08 106.745 0)
(245.11 122.81 0)
(207.693 126.643 0)
(163.099 116.01 0)
(117.187 93.0402 0)
(71.7449 69.8726 0)
(41.2672 45.6349 0)
(16.3815 31.61 0)
(7.70795 5.97911 0)
(11.4398 -9.24061 0)
(20.25 -26.015 0)
(30.3035 -20.6348 0)
(38.4322 -12.996 0)
(38.3232 5.58212 0)
(31.6479 20.9815 0)
(21.1348 32.2168 0)
(7.58573 40.3004 0)
(8.84193 -57.5276 0)
(33.7487 -104.093 0)
(71.3877 -133.192 0)
(115.214 -147.769 0)
(157.933 -147.643 0)
(198.023 -134.534 0)
(236.646 -113.892 0)
(265.054 -89.0553 0)
(286.787 -52.0188 0)
(300.995 -22.9842 0)
(304.227 8.90387 0)
(299.542 37.7581 0)
(283.88 66.7406 0)
(263.378 93.5485 0)
(232.868 113.807 0)
(194.04 120.477 0)
(147.992 112.573 0)
(99.6594 93.1942 0)
(54.8469 67.9316 0)
(19.0786 44.2037 0)
(-5.32466 27.5811 0)
(-19.9703 13.3562 0)
(-25.0527 -8.43706 0)
(-17.5202 -30.5314 0)
(-3.5682 -42.22 0)
(8.91561 -39.5128 0)
(15.1175 -26.3674 0)
(17.398 -11.5179 0)
(11.8835 2.3993 0)
(4.27176 13.071 0)
(7.60401 24.8966 0)
(50.3828 -78.3861 0)
(114.229 -146.861 0)
(181.194 -167.975 0)
(239.426 -150.912 0)
(283.522 -113.324 0)
(312.068 -67.1719 0)
(325.879 -17.3431 0)
(323.609 31.2788 0)
(309.811 78.6055 0)
(283.477 118.1 0)
(245.824 141.822 0)
(195.704 143.497 0)
(136.697 124.112 0)
(79.0072 92.8623 0)
(31.9344 63.8456 0)
(-2.40466 43.876 0)
(-24.6692 28.8327 0)
(-36.6954 11.074 0)
(-42.0009 -6.48873 0)
(-40.5846 -24.2397 0)
(-34.4559 -37.2845 0)
(-25.3506 -44.6169 0)
(-14.8395 -46.4273 0)
(-3.9376 -42.4864 0)
(6.20448 -29.5571 0)
(12.2848 -14.4584 0)
(13.426 1.07879 0)
(9.86443 16.8094 0)
(3.48793 27.6081 0)
(-12.8038 16.5975 0)
(-40.8298 44.0244 0)
(-75.2822 67.1051 0)
(-111.444 80.4057 0)
(-143.772 79.9431 0)
(-171.498 66.7837 0)
(-191.043 47.663 0)
(-204.231 25.2315 0)
(-210.204 2.57762 0)
(-208.583 -19.3158 0)
(-198.924 -38.7929 0)
(-180.851 -55.5664 0)
(-159.1 -65.8942 0)
(-134.768 -70.6877 0)
(-108.449 -71.664 0)
(-83.2245 -69.163 0)
(-59.5428 -65.0862 0)
(-36.3161 -62.5715 0)
(-13.5712 -60.5286 0)
(8.5913 -55.6527 0)
(28.4911 -45.164 0)
(44.4584 -31.0793 0)
(56.3529 -9.59384 0)
(61.4023 7.24548 0)
(60.8332 27.793 0)
(55.8999 44.1166 0)
(46.2591 54.1798 0)
(33.868 55.1308 0)
(19.595 47.4297 0)
(6.21603 34.7272 0)
(3.33003 -16.9791 0)
(8.0605 -14.3732 0)
(8.7221 -1.71501 0)
(1.80159 17.0724 0)
(-13.453 34.5652 0)
(-36.5421 54.0843 0)
(-66.795 74.2497 0)
(-100.953 89.8608 0)
(-133.375 91.3252 0)
(-160.357 80.5944 0)
(-180.284 61.2349 0)
(-193.256 37.9169 0)
(-199.522 11.9652 0)
(-196.716 -15.5962 0)
(-185.245 -40.3717 0)
(-164.69 -62.0619 0)
(-137.009 -78.6578 0)
(-104.311 -88.0338 0)
(-68.7294 -89.4923 0)
(-34.5932 -82.0039 0)
(-4.57046 -66.2334 0)
(18.3017 -47.6473 0)
(32.8009 -27.6529 0)
(40.8868 -12.2431 0)
(43.1927 2.02096 0)
(40.7541 10.5214 0)
(36.3077 18.6005 0)
(28.9324 25.0306 0)
(19.0151 31.6495 0)
(6.99815 37.0845 0)
(3.26376 -15.1467 0)
(10.4051 -23.0964 0)
(18.4193 -27.1177 0)
(26.103 -29.7176 0)
(32.7621 -29.2066 0)
(37.3252 -24.8932 0)
(40.7669 -21.9208 0)
(42.4591 -12.1695 0)
(40.9795 -7.16233 0)
(39.0982 1.73572 0)
(33.3727 8.18364 0)
(26.3639 13.8009 0)
(16.7933 16.7872 0)
(5.15016 15.6752 0)
(-4.14576 23.1673 0)
(-13.0755 21.9732 0)
(-20.6279 21.7972 0)
(-26.8928 19.953 0)
(-31.38 20.7051 0)
(-34.1476 15.113 0)
(-35.8 9.86926 0)
(-34.9266 -1.56344 0)
(-32.2062 -12.5525 0)
(-25.3778 -26.7849 0)
(-15.9649 -42.1865 0)
(-3.78638 -55.2113 0)
(10.9772 -66.4346 0)
(27.6435 -75.8129 0)
(46.0501 -82.3394 0)
(65.6612 -84.7762 0)
(84.8941 -81.8844 0)
(103.546 -72.3973 0)
(119.027 -59.0244 0)
(129.699 -39.7198 0)
(137.131 -17.7886 0)
(138.558 2.16487 0)
(135.12 22.8273 0)
(127.447 41.4603 0)
(115.142 58.2683 0)
(100.409 70.0477 0)
(82.113 77.0784 0)
(60.4435 75.124 0)
(36.0855 65.2724 0)
(11.9141 45.3979 0)
(-6.44617 61.4558 0)
(-18.2086 59.44 0)
(-28.8399 53.5246 0)
(-36.954 43.2055 0)
(-42.6142 30.1605 0)
(-46.6865 15.2199 0)
(-47.2723 1.27445 0)
(-45.0757 -13.6618 0)
(-40.3791 -30.0996 0)
(-31.4287 -45.1448 0)
(-19.6172 -60.2928 0)
(-4.45968 -75.1269 0)
(14.3636 -90.5099 0)
(37.1238 -105.991 0)
(62.1967 -116.772 0)
(89.1091 -118.094 0)
(112.98 -109.766 0)
(134.557 -93.8157 0)
(151.939 -71.9031 0)
(160.476 -46.8468 0)
(167.902 -19.2009 0)
(169.89 10.0832 0)
(162.346 38.4171 0)
(153.408 66.0204 0)
(138.762 89.2243 0)
(119.276 103.37 0)
(97.3808 108.566 0)
(70.0433 98.973 0)
(41.165 78.2826 0)
(13.4337 47.1333 0)
(-11.1532 78.9618 0)
(-31.027 91.06 0)
(-49.1128 95.8991 0)
(-64.0622 91.8163 0)
(-75.4654 79.3083 0)
(-82.8545 61.7707 0)
(-87.0021 40.7953 0)
(-87.0045 17.7793 0)
(-81.8146 -6.49379 0)
(-71.0061 -30.7577 0)
(-55.3038 -52.8888 0)
(-36.5105 -71.5803 0)
(-14.1945 -86.1751 0)
(11.7511 -97.7634 0)
(39.9138 -108.125 0)
(70.3863 -121.807 0)
(104.97 -134.891 0)
(141.969 -141.696 0)
(176.721 -132.975 0)
(208.357 -114.051 0)
(232.858 -82.125 0)
(242.985 -41.7504 0)
(244.549 0.860726 0)
(238.724 44.2274 0)
(221.201 85.0291 0)
(195.417 122.511 0)
(164.006 150.691 0)
(124.649 162.199 0)
(76.9808 148.855 0)
(26.2708 107.041 0)
(-3.75961 54.3942 0)
(-9.69148 24.1038 0)
(-8.7974 -6.20856 0)
(0.399791 -41.0514 0)
(14.4757 -69.2057 0)
(36.378 -97.2708 0)
(64.3784 -122.464 0)
(98.2017 -140.859 0)
(135.295 -148.317 0)
(171.674 -143.238 0)
(204.587 -126.635 0)
(231.961 -101.741 0)
(252.604 -72.0991 0)
(268.618 -39.252 0)
(278.833 -3.72998 0)
(280.43 27.3498 0)
(275.517 57.9945 0)
(264.982 86.6916 0)
(247.744 116.047 0)
(224.762 143.489 0)
(199.885 162.23 0)
(171.511 168.166 0)
(135.436 156.053 0)
(96.2036 123.825 0)
(58.6269 79.8683 0)
(28.5831 41.7885 0)
(8.48991 12.84 0)
(-1.81292 -4.72893 0)
(-4.65804 -19.6989 0)
(-4.86238 -18.0531 0)
(-4.09647 53.6659 0)
(-10.9844 53.2329 0)
(-18.2084 52.2537 0)
(-24.0231 49.1015 0)
(-29.4588 46.2121 0)
(-33.2536 39.6657 0)
(-35.7678 27.8517 0)
(-37.8271 14.737 0)
(-35.4708 -3.84058 0)
(-31.3111 -26.6448 0)
(-22.504 -49.0506 0)
(-9.40745 -72.1232 0)
(8.48791 -91.9183 0)
(30.136 -108.701 0)
(54.7641 -121.029 0)
(81.0621 -126.963 0)
(107.606 -123.289 0)
(132.693 -111.877 0)
(155.989 -92.485 0)
(174.7 -68.0935 0)
(186.244 -35.622 0)
(189.296 0.248024 0)
(186.332 37.3486 0)
(179.338 70.9718 0)
(163.589 104.327 0)
(143.567 133.918 0)
(118.884 151.247 0)
(88.6064 147.957 0)
(53.0124 119.62 0)
(17.345 73.9892 0)
(-12.892 74.8434 0)
(-36.4593 67.048 0)
(-56.877 52.2399 0)
(-71.2543 28.1733 0)
(-79.2317 2.47881 0)
(-79.459 -27.58 0)
(-70.8478 -57.3 0)
(-54.8619 -86.4171 0)
(-33.6157 -108.888 0)
(-6.35972 -127.119 0)
(25.0844 -139.188 0)
(57.651 -141.676 0)
(88.7821 -134.001 0)
(117.855 -121.913 0)
(144.003 -99.4354 0)
(163.236 -74.2093 0)
(179.017 -46.0371 0)
(190.952 -13.4078 0)
(195.239 17.5534 0)
(190.351 50.9186 0)
(182.456 85.191 0)
(171.304 116.305 0)
(153.27 140.418 0)
(130.549 151.517 0)
(103.608 143.238 0)
(71.3398 111.753 0)
(40.5007 66.9011 0)
(18.7121 27.9042 0)
(6.22394 -5.03941 0)
(0.761493 -26.4109 0)
(0.881114 17.0133 0)
(9.37876 -17.7162 0)
(27.9133 -52.5419 0)
(55.4563 -92.2282 0)
(88.1843 -126.885 0)
(124.147 -149.563 0)
(159.915 -155.794 0)
(193.781 -152.814 0)
(223.911 -131.866 0)
(248.49 -108.329 0)
(265.278 -79.8131 0)
(277.678 -43.433 0)
(283.533 -7.72761 0)
(277.943 29.0797 0)
(269.897 64.1821 0)
(250.023 98.918 0)
(228 128.483 0)
(199.871 154.799 0)
(165.836 170.828 0)
(127.575 169.364 0)
(85.8479 146.849 0)
(46.506 110.12 0)
(15.1654 71.8246 0)
(-6.14004 36.1822 0)
(-15.0742 6.0094 0)
(-15.4671 -22.2158 0)
(-11.9365 -31.5895 0)
(-6.19562 -27.4089 0)
(-2.07199 -15.639 0)
(0.103953 0.58055 0)
(18.4008 -17.897 0)
(59.7665 -90.1981 0)
(106.041 -140.931 0)
(149.034 -163.163 0)
(185.085 -160.868 0)
(218.053 -144.97 0)
(245.132 -114.589 0)
(264.419 -83.0667 0)
(280.477 -47.4744 0)
(290.73 -9.23967 0)
(296.382 26.9315 0)
(286.067 63.5286 0)
(276.788 98.6963 0)
(257.518 131.499 0)
(235.423 150.834 0)
(206.941 164.451 0)
(168.311 157.999 0)
(129.872 137.07 0)
(87.8207 107.805 0)
(57.6558 72.4916 0)
(35.2612 44.8314 0)
(29.718 7.18901 0)
(33.2807 -15.8525 0)
(43.2604 -36.2634 0)
(49.4631 -26.8581 0)
(52.3401 -11.2515 0)
(49.1568 13.4456 0)
(38.3993 34.9438 0)
(23.3561 50.4601 0)
(8.07485 58.8358 0)
(14.8932 -92.4161 0)
(46.1963 -149.743 0)
(77.03 -183.617 0)
(109.994 -197.846 0)
(148.195 -198.887 0)
(181.791 -181.334 0)
(210.378 -151.743 0)
(239.279 -117.824 0)
(257.263 -79.0746 0)
(270.325 -33.7033 0)
(276.552 4.14165 0)
(273.922 42.8977 0)
(267.639 79.843 0)
(252.467 111.702 0)
(230.578 138.231 0)
(201.502 153.543 0)
(168.291 153.807 0)
(127.93 136.227 0)
(84.8643 106.156 0)
(48.2865 75.422 0)
(21.518 48.233 0)
(7.71245 21.1692 0)
(5.95449 -11.7741 0)
(11.7611 -41.5844 0)
(18.5044 -55.978 0)
(24.2728 -49.1494 0)
(27.6229 -30.0285 0)
(23.6654 -9.26753 0)
(15.7679 8.4587 0)
(6.29849 21.4318 0)
(18.8667 -4.08198 0)
(73.5073 -140.269 0)
(141.699 -213.651 0)
(198.261 -223.982 0)
(241.345 -192.271 0)
(269.735 -142.446 0)