/*--------------------------------*- C++ -*----------------------------------*\
| =========                 |                                                 |
| \\      /  F ield         | OpenFOAM: The Open Source CFD Toolbox           |
|  \\    /   O peration     | Version:  2.1.1                                 |
|   \\  /    A nd           | Web:      www.OpenFOAM.org                      |
|    \\/     M anipulation  |                                                 |
\*---------------------------------------------------------------------------*/
FoamFile
{
    version     2.0;
    format      ascii;
    class       volScalarField;
    location    "0.002000000";
    object      N2;
}
// * * * * * * * * * * * * * * * * * * * * * * * * * * * * * * * * * * * * * //

dimensions      [0 0 0 0 0 0 0];

internalField   nonuniform List<scalar> 
12384
(
0.747425
0.746975
0.746695
0.74681
0.746748
0.746976
0.747342
0.748741
0.749017
0.748169
0.747109
0.745717
0.744856
0.74478
0.749344
0.751188
0.752331
0.752355
0.752278
0.752292
0.752293
0.752292
0.752278
0.752326
0.752386
0.752537
0.752658
0.752791
0.752879
0.752964
0.752966
0.753006
0.7531
0.752949
0.75257
0.752356
0.750814
0.748791
0.746928
0.745596
0.744767
0.744532
0.744596
0.744695
0.746902
0.748759
0.7512
0.752305
0.752403
0.752176
0.752083
0.750937
0.750586
0.748878
0.748332
0.748013
0.748125
0.748527
0.748961
0.750313
0.751911
0.753517
0.753352
0.75418
0.752394
0.75245
0.750092
0.749482
0.746904
0.746156
0.744776
0.744613
0.744659
0.744701
0.746075
0.747107
0.74798
0.74912
0.750254
0.750987
0.751475
0.75167
0.751961
0.751733
0.751401
0.750822
0.749987
0.748927
0.747824
0.746935
0.746229
0.745705
0.745335
0.745016
0.744874
0.744766
0.744761
0.744751
0.744744
0.744756
0.744738
0.744737
0.744737
0.744744
0.745478
0.745678
0.745612
0.745525
0.745419
0.745296
0.745162
0.745022
0.744931
0.744837
0.744815
0.744758
0.744776
0.744755
0.744789
0.744749
0.744788
0.744754
0.744783
0.744756
0.744779
0.744756
0.744775
0.744759
0.744769
0.744762
0.744766
0.744764
0.744765
0.744749
0.744748
0.744767
0.74477
0.74477
0.744769
0.744772
0.744769
0.744774
0.744771
0.744776
0.744773
0.744779
0.744777
0.744783
0.74478
0.744784
0.74478
0.744782
0.744778
0.74478
0.744778
0.744778
0.744777
0.744777
0.744776
0.744776
0.744776
0.744775
0.744775
0.744749
0.744748
0.744776
0.744777
0.744778
0.744778
0.744779
0.74478
0.744781
0.744782
0.744783
0.744784
0.744786
0.744787
0.744789
0.74479
0.74479
0.744789
0.744787
0.744785
0.744784
0.744783
0.744782
0.744781
0.74478
0.744779
0.744779
0.744778
0.744777
0.744776
0.744748
0.744748
0.744776
0.744777
0.744778
0.744779
0.74478
0.744781
0.744782
0.744783
0.744784
0.744785
0.744786
0.744787
0.744789
0.74479
0.74479
0.744789
0.744787
0.744786
0.744785
0.744784
0.744783
0.744782
0.744781
0.74478
0.744779
0.744778
0.744778
0.744776
0.744749
0.744748
0.744776
0.744777
0.744778
0.744779
0.74478
0.744781
0.744782
0.744782
0.744783
0.744784
0.744785
0.744787
0.744789
0.74479
0.74479
0.744789
0.744787
0.744786
0.744785
0.744784
0.744783
0.744782
0.744781
0.74478
0.744779
0.744778
0.744778
0.744776
0.744749
0.744749
0.744776
0.744777
0.744778
0.744779
0.74478
0.744781
0.744782
0.744783
0.744784
0.744784
0.744786
0.744787
0.744789
0.74479
0.74479
0.744789
0.744787
0.744785
0.744784
0.744783
0.744782
0.744781
0.74478
0.74478
0.744779
0.744778
0.744777
0.744776
0.744748
0.744749
0.744776
0.744777
0.744778
0.744779
0.74478
0.744781
0.744782
0.744783
0.744783
0.744784
0.744785
0.744787
0.744789
0.74479
0.74479
0.744789
0.744787
0.744786
0.744785
0.744784
0.744783
0.744782
0.744781
0.74478
0.744779
0.744778
0.744778
0.744776
0.744749
0.744748
0.744776
0.744777
0.744778
0.744779
0.744779
0.744781
0.744782
0.744782
0.744784
0.744785
0.744786
0.744787
0.744789
0.74479
0.74479
0.744789
0.744787
0.744786
0.744785
0.744784
0.744783
0.744782
0.744781
0.74478
0.744779
0.744778
0.744777
0.744776
0.744748
0.744749
0.744776
0.744778
0.744779
0.744779
0.74478
0.744781
0.744782
0.744782
0.744783
0.744784
0.744785
0.744787
0.744789
0.74479
0.74479
0.744789
0.744788
0.744786
0.744785
0.744784
0.744783
0.744782
0.744781
0.74478
0.744779
0.744778
0.744778
0.744776
0.744749
0.747949
0.748694
0.749357
0.749296
0.750671
0.751157
0.752032
0.753295
0.755253
0.754889
0.75343
0.751484
0.748978
0.746628
0.752275
0.754713
0.754097
0.753037
0.752744
0.752372
0.752084
0.752248
0.752131
0.752149
0.752248
0.752352
0.752518
0.752759
0.753093
0.75353
0.753958
0.754303
0.754713
0.755277
0.756312
0.757035
0.756674
0.756052
0.754017
0.751288
0.747982
0.74586
0.744482
0.744561
0.748801
0.752871
0.754076
0.752604
0.750456
0.747619
0.744518
0.742438
0.74231
0.74321
0.743989
0.743903
0.743159
0.741859
0.740122
0.739213
0.739785
0.741745
0.747757
0.752994
0.756317
0.758648
0.757911
0.758303
0.755211
0.753881
0.749773
0.746278
0.744855
0.744596
0.753334
0.755855
0.757507
0.757449
0.757273
0.756744
0.756172
0.755927
0.75597
0.756857
0.757582
0.758161
0.758213
0.758089
0.757749
0.75694
0.75607
0.755059
0.754106
0.75279
0.751624
0.750059
0.748622
0.747302
0.746344
0.74574
0.745404
0.745244
0.745191
0.74501
0.754642
0.755121
0.754917
0.75467
0.754342
0.753943
0.753365
0.752729
0.752045
0.751336
0.750695
0.749976
0.74948
0.748863
0.748553
0.748023
0.747816
0.747351
0.747217
0.746823
0.746727
0.746426
0.746353
0.746133
0.746064
0.745926
0.745897
0.745851
0.745845
0.745238
0.746435
0.746954
0.746962
0.746907
0.746786
0.746712
0.746615
0.746555
0.746492
0.746458
0.746425
0.746411
0.746413
0.746414
0.746431
0.746402
0.746376
0.746329
0.746294
0.746268
0.746246
0.746223
0.746206
0.746186
0.746172
0.746155
0.746148
0.74615
0.746126
0.745324
0.745315
0.746175
0.746198
0.746224
0.746232
0.746244
0.746278
0.746285
0.746319
0.746325
0.74636
0.746366
0.746407
0.746426
0.746456
0.746452
0.746448
0.746401
0.746373
0.746333
0.74632
0.746285
0.746281
0.746252
0.746248
0.74622
0.74622
0.746197
0.746173
0.745305
0.745304
0.74618
0.746218
0.746225
0.746253
0.746257
0.746289
0.746294
0.746324
0.746328
0.746359
0.746366
0.746408
0.746431
0.746462
0.746453
0.746442
0.746399
0.746379
0.746347
0.74634
0.746308
0.746303
0.746272
0.746265
0.746236
0.746229
0.746211
0.746169
0.745333
0.74533
0.746161
0.74621
0.746215
0.746243
0.746247
0.746278
0.746282
0.746312
0.746318
0.746349
0.74636
0.746404
0.74643
0.746461
0.746452
0.746442
0.746399
0.746379
0.746348
0.746341
0.746308
0.746303
0.746272
0.746265
0.746236
0.746229
0.746211
0.746169
0.745333
0.745334
0.74617
0.746208
0.746235
0.74624
0.74627
0.746276
0.746306
0.746309
0.746339
0.746344
0.746374
0.746391
0.746434
0.746446
0.746462
0.746438
0.746411
0.746362
0.746339
0.746324
0.746291
0.746284
0.746254
0.74625
0.746222
0.746222
0.746196
0.746174
0.745305
0.745335
0.746165
0.746213
0.746218
0.746246
0.746251
0.746281
0.746286
0.746316
0.746321
0.746351
0.74636
0.746403
0.746428
0.74646
0.746453
0.746444
0.746402
0.74638
0.746348
0.74634
0.746308
0.746302
0.74627
0.746263
0.746234
0.746227
0.746211
0.746168
0.745333
0.745303
0.746177
0.74621
0.746217
0.746243
0.746248
0.746282
0.746288
0.74632
0.746327
0.74636
0.746368
0.746409
0.746431
0.746459
0.746459
0.746433
0.746409
0.746366
0.746357
0.746326
0.746319
0.746289
0.746283
0.746251
0.746247
0.74622
0.746213
0.746178
0.745303
0.745331
0.746166
0.746217
0.746223
0.746253
0.746256
0.746288
0.74629
0.746321
0.746322
0.746354
0.74636
0.7464
0.746423
0.746457
0.746454
0.746445
0.746403
0.746381
0.74635
0.746343
0.746309
0.746304
0.746272
0.746265
0.746235
0.746227
0.746211
0.746168
0.745332
0.749493
0.752291
0.754172
0.75456
0.755699
0.756499
0.757573
0.75832
0.759088
0.758888
0.758512
0.757609
0.755604
0.751793
0.756236
0.754648
0.752813
0.752844
0.755688
0.751973
0.750756
0.75086
0.75102
0.751151
0.751672
0.751829
0.7514
0.751729
0.752885
0.75411
0.753492
0.754787
0.755243
0.754961
0.755288
0.756066
0.757575
0.759152
0.758898
0.757717
0.754748
0.749898
0.74536
0.744538
0.752734
0.755653
0.75328
0.749386
0.744954
0.742493
0.742388
0.745386
0.749133
0.750398
0.750862
0.750912
0.750779
0.749693
0.747069
0.743313
0.737565
0.732784
0.731147
0.732642
0.740826
0.750096
0.756285
0.759461
0.75956
0.759766
0.757401
0.753155
0.747689
0.745446
0.759386
0.759455
0.758189
0.755395
0.751044
0.747376
0.745584
0.743944
0.743955
0.745564
0.749084
0.75301
0.756219
0.758176
0.759198
0.759842
0.760172
0.760378
0.760417
0.760524
0.760508
0.760527
0.760381
0.760018
0.75911
0.757832
0.756194
0.75452
0.753287
0.752468
0.760668
0.760442
0.760378
0.76037
0.760397
0.760409
0.760454
0.760464
0.760464
0.760471
0.760417
0.760459
0.76035
0.760438
0.760262
0.760395
0.760233
0.76038
0.760268
0.760393
0.760296
0.760367
0.760288
0.760294
0.760239
0.760153
0.760087
0.759972
0.759901
0.760374
0.76098
0.76044
0.760355
0.76034
0.76034
0.760317
0.760308
0.760284
0.760272
0.760246
0.760229
0.760202
0.760166
0.760134
0.760114
0.760108
0.760124
0.760144
0.760166
0.760178
0.760186
0.760202
0.760205
0.76022
0.760223
0.760235
0.760235
0.760241
0.760247
0.760954
0.760954
0.760232
0.760203
0.760187
0.760182
0.760167
0.760148
0.760134
0.760118
0.760103
0.760087
0.760072
0.760048
0.760023
0.760006
0.760001
0.760013
0.760042
0.760073
0.760095
0.760113
0.760131
0.760143
0.760155
0.760166
0.760177
0.760184
0.760198
0.76023
0.760954
0.760953
0.760221
0.76019
0.760174
0.760162
0.760151
0.760137
0.760125
0.760113
0.760101
0.760087
0.760072
0.760046
0.760019
0.760002
0.760001
0.760018
0.760045
0.760071
0.760087
0.760101
0.760116
0.760128
0.760141
0.760154
0.760166
0.760179
0.760191
0.76022
0.760954
0.760953
0.760228
0.760195
0.76018
0.760169
0.760158
0.760146
0.760134
0.760122
0.760108
0.760094
0.760076
0.760049
0.760019
0.760001
0.760001
0.760018
0.760044
0.76007
0.760086
0.7601
0.760115
0.760128
0.760141
0.760155
0.760167
0.760179
0.760191
0.76022
0.760954
0.760954
0.760222
0.760189
0.760173
0.760162
0.76015
0.760138
0.760126
0.760115
0.760102
0.760089
0.760075
0.760051
0.760025
0.760006
0.76
0.760011
0.760041
0.760075
0.760098
0.760108
0.760127
0.76014
0.760153
0.760164
0.760176
0.760184
0.760197
0.760229
0.760954
0.760953
0.760223
0.760192
0.760178
0.760167
0.760156
0.760144
0.760132
0.760119
0.760107
0.760093
0.760076
0.76005
0.760021
0.760003
0.76
0.760016
0.760042
0.760069
0.760085
0.7601
0.760116
0.760128
0.760142
0.760156
0.760168
0.760181
0.760192
0.760221
0.760954
0.760953
0.760221
0.760191
0.760183
0.760169
0.760157
0.760142
0.760129
0.760115
0.760101
0.760086
0.76007
0.760045
0.760019
0.76
0.760001
0.760017
0.760046
0.760071
0.760087
0.760102
0.760115
0.760129
0.760141
0.760155
0.760166
0.760179
0.760191
0.76022
0.760953
0.760953
0.760222
0.760188
0.760174
0.760163
0.760152
0.76014
0.760128
0.760117
0.760106
0.760092
0.760076
0.760053
0.760025
0.760005
0.759999
0.760015
0.76004
0.760068
0.760083
0.760098
0.760114
0.760127
0.760141
0.760155
0.760168
0.760181
0.760191
0.76022
0.760954
0.752952
0.755723
0.757446
0.758131
0.758827
0.760012
0.760315
0.759829
0.759256
0.759382
0.759384
0.759598
0.759009
0.75724
0.756755
0.753216
0.752729
0.749601
0.748603
0.747161
0.745322
0.746064
0.746671
0.747291
0.74677
0.745297
0.744344
0.744863
0.746081
0.746569
0.747834
0.75089
0.753823
0.753546
0.752939
0.753744
0.755325
0.757015
0.758426
0.759387
0.758851
0.755382
0.748748
0.745083
0.755598
0.755468
0.75046
0.745195
0.742375
0.74262
0.746475
0.750452
0.751858
0.752226
0.752091
0.751679
0.751481
0.751495
0.75198
0.75156
0.749202
0.743424
0.734893
0.727838
0.725897
0.729271
0.74236
0.75126
0.757414
0.759035
0.76002
0.758414
0.753268
0.748516
0.759237
0.755905
0.749929
0.744228
0.740447
0.738955
0.738277
0.736886
0.735054
0.733781
0.73353
0.736743
0.743352
0.749191
0.753195
0.755525
0.756981
0.757912
0.758649
0.759141
0.759563
0.759886
0.760127
0.760277
0.760394
0.76043
0.760382
0.760114
0.759666
0.759421
0.758227
0.756991
0.757193
0.757625
0.758043
0.758485
0.758815
0.759166
0.759396
0.759656
0.759785
0.759963
0.760015
0.760147
0.760151
0.76025
0.76024
0.760313
0.760304
0.760356
0.760353
0.760386
0.760391
0.760417
0.760421
0.760435
0.760436
0.760439
0.760457
0.760553
0.760379
0.760324
0.760336
0.760352
0.760354
0.760372
0.760374
0.760388
0.760389
0.760398
0.760398
0.760403
0.760403
0.760406
0.760405
0.760408
0.760408
0.760411
0.760411
0.760412
0.760413
0.760413
0.760414
0.760413
0.760415
0.760413
0.760415
0.760413
0.760419
0.760538
0.76054
0.760416
0.760407
0.760407
0.760407
0.760405
0.760406
0.760403
0.760404
0.760402
0.760403
0.760401
0.760402
0.760399
0.7604
0.760398
0.7604
0.760399
0.760403
0.760402
0.760404
0.760403
0.760405
0.760404
0.760407
0.760405
0.760407
0.760406
0.760415
0.760541
0.760541
0.760415
0.760408
0.760405
0.760406
0.760404
0.760405
0.760403
0.760404
0.760402
0.760403
0.760401
0.760401
0.760398
0.760399
0.760398
0.7604
0.7604
0.760403
0.760401
0.760404
0.760403
0.760405
0.760404
0.760406
0.760405
0.760407
0.760407
0.760416
0.760538
0.760539
0.760415
0.760408
0.760405
0.760407
0.760404
0.760406
0.760403
0.760405
0.760402
0.760403
0.760401
0.760402
0.760398
0.760399
0.760398
0.7604
0.7604
0.760402
0.760401
0.760404
0.760403
0.760405
0.760404
0.760406
0.760405
0.760407
0.760407
0.760416
0.760538
0.760538
0.760416
0.760406
0.760407
0.760404
0.760406
0.760403
0.760405
0.760402
0.760404
0.760401
0.760403
0.7604
0.7604
0.760398
0.760399
0.760398
0.760401
0.760401
0.760403
0.760404
0.760403
0.760405
0.760404
0.760406
0.760405
0.760407
0.760406
0.760415
0.760541
0.760538
0.760415
0.760408
0.760405
0.760407
0.760404
0.760405
0.760403
0.760404
0.760402
0.760403
0.760401
0.760402
0.760399
0.760399
0.760398
0.7604
0.7604
0.760402
0.760401
0.760404
0.760403
0.760405
0.760404
0.760406
0.760405
0.760407
0.760407
0.760416
0.760539
0.760541
0.760415
0.760407
0.760406
0.760407
0.760404
0.760406
0.760403
0.760404
0.760402
0.760403
0.760401
0.760402
0.760399
0.760399
0.760399
0.760399
0.760401
0.760401
0.760403
0.760402
0.760404
0.760403
0.760406
0.760404
0.760407
0.760405
0.760407
0.760415
0.760541
0.760539
0.760415
0.760408
0.760405
0.760406
0.760404
0.760405
0.760403
0.760404
0.760402
0.760403
0.760401
0.760402
0.760399
0.7604
0.760398
0.7604
0.760399
0.760402
0.760401
0.760404
0.760402
0.760405
0.760403
0.760406
0.760405
0.760407
0.760407
0.760416
0.760539
0.755993
0.756643
0.75714
0.757545
0.757053
0.755263
0.75326
0.754011
0.754564
0.7553
0.757812
0.758891
0.759017
0.75976
0.75568
0.752472
0.745508
0.746406
0.744801
0.742738
0.741591
0.741398
0.741844
0.741943
0.740679
0.73844
0.737265
0.737596
0.739278
0.739789
0.741523
0.745262
0.747733
0.748416
0.749049
0.750189
0.752018
0.753002
0.75594
0.758126
0.759478
0.758353
0.753063
0.746324
0.757672
0.7541
0.747231
0.742858
0.74273
0.745466
0.749147
0.75057
0.751439
0.750878
0.750269
0.74917
0.748273
0.747617
0.747167
0.747897
0.749095
0.749068
0.745655
0.738175
0.727918
0.721721
0.72621
0.736075
0.749106
0.755537
0.758673
0.759729
0.758021
0.75306
0.757221
0.749924
0.742673
0.740353
0.742084
0.744493
0.745603
0.744053
0.740719
0.735641
0.730558
0.727782
0.729194
0.736139
0.743415
0.748674
0.751797
0.75371
0.754971
0.755985
0.756739
0.757351
0.757903
0.758392
0.758832
0.75928
0.75966
0.759937
0.760061
0.760134
0.754455
0.750887
0.750793
0.751574
0.752946
0.754174
0.755201
0.755894
0.756498
0.756887
0.75728
0.757498
0.757752
0.757899
0.758043
0.758158
0.758242
0.758334
0.758379
0.758451
0.758488
0.758533
0.75857
0.758612
0.758646
0.758703
0.758753
0.758807
0.758863
0.758909
0.758422
0.758416
0.758453
0.75847
0.75852
0.75853
0.75857
0.758575
0.758603
0.758607
0.758626
0.758629
0.758639
0.758646
0.758646
0.758656
0.758653
0.758663
0.758658
0.758668
0.758661
0.758671
0.758663
0.758673
0.758666
0.758673
0.758669
0.758673
0.758674
0.758684
0.758685
0.758672
0.758672
0.758671
0.758671
0.758675
0.75867
0.758675
0.75867
0.758675
0.75867
0.758675
0.75867
0.758675
0.75867
0.758675
0.75867
0.758675
0.75867
0.758675
0.75867
0.758676
0.758671
0.758676
0.758671
0.758676
0.758671
0.758676
0.758673
0.758689
0.758687
0.758674
0.758672
0.758675
0.75867
0.758676
0.75867
0.758676
0.758671
0.758676
0.758671
0.758675
0.75867
0.758675
0.75867
0.758674
0.75867
0.758675
0.75867
0.758675
0.758671
0.758675
0.75867
0.758675
0.75867
0.758675
0.758671
0.758673
0.758675
0.758684
0.758685
0.758676
0.75867
0.758675
0.75867
0.758675
0.75867
0.758676
0.758671
0.758676
0.75867
0.758675
0.75867
0.758675
0.75867
0.758674
0.75867
0.758675
0.75867
0.758675
0.758671
0.758675
0.75867
0.758675
0.75867
0.758675
0.758671
0.758673
0.758675
0.758684
0.758686
0.758676
0.758675
0.758671
0.758676
0.758671
0.758676
0.758671
0.758676
0.758671
0.758676
0.758671
0.758675
0.75867
0.758675
0.75867
0.758674
0.75867
0.758674
0.758672
0.758671
0.758675
0.75867
0.758676
0.758671
0.758676
0.758671
0.758676
0.758673
0.758689
0.758684
0.758676
0.75867
0.758675
0.75867
0.758675
0.75867
0.758676
0.758671
0.758676
0.758671
0.758675
0.75867
0.758675
0.75867
0.758674
0.75867
0.758675
0.75867
0.758675
0.75867
0.758675
0.75867
0.758675
0.75867
0.758675
0.758671
0.758673
0.758675
0.758684
0.758689
0.758674
0.758674
0.758675
0.758671
0.758676
0.758671
0.758676
0.758671
0.758676
0.758671
0.758675
0.75867
0.758675
0.758671
0.758671
0.758674
0.75867
0.758675
0.758671
0.758676
0.758671
0.758676
0.758671
0.758676
0.758671
0.758675
0.758674
0.758674
0.758688
0.758685
0.758676
0.75867
0.758676
0.75867
0.758676
0.75867
0.758676
0.75867
0.758676
0.75867
0.758676
0.75867
0.758675
0.75867
0.758674
0.75867
0.758675
0.75867
0.758675
0.75867
0.758675
0.75867
0.758675
0.75867
0.758675
0.758671
0.758673
0.758675
0.758684
0.756042
0.754855
0.754162
0.753641
0.751248
0.747588
0.74753
0.748716
0.75025
0.75121
0.752944
0.755802
0.757782
0.759693
0.754285
0.754016
0.7455
0.742672
0.741564
0.74107
0.740856
0.740192
0.739154
0.737942
0.735633
0.733027
0.731039
0.731167
0.73194
0.732887
0.734772
0.738878
0.741991
0.743979
0.74515
0.746728
0.748311
0.750159
0.751918
0.755153
0.757762
0.759175
0.756581
0.748552
0.757934
0.751969
0.744499
0.741842
0.743903
0.747026
0.748927
0.75046
0.751152
0.751294
0.750543
0.749659
0.748659
0.747656
0.746089
0.744823
0.744209
0.74447
0.744332
0.74269
0.736767
0.728762
0.721009
0.721855
0.734562
0.747108
0.754654
0.758615
0.75962
0.757228
0.754844
0.745898
0.741405
0.743934
0.748299
0.752108
0.752852
0.751896
0.748738
0.743085
0.73578
0.728195
0.723722
0.724563
0.730849
0.738441
0.744184
0.747726
0.749954
0.751532
0.752817
0.753867
0.754743
0.755603
0.756358
0.757122
0.757845
0.758605
0.759257
0.759777
0.749577
0.744512
0.743062
0.742928
0.744795
0.747586
0.749788
0.751455
0.752451
0.753277
0.753834
0.754317
0.754695
0.754973
0.755254
0.755436
0.755645
0.755759
0.755944
0.755981
0.756181
0.756169
0.756355
0.75636
0.756517
0.756552
0.756684
0.756735
0.756857
0.757033
0.755927
0.75589
0.756001
0.756103
0.75617
0.756255
0.756292
0.756364
0.756381
0.756435
0.75644
0.756481
0.756479
0.756513
0.756504
0.756534
0.756523
0.756549
0.756535
0.756558
0.756545
0.756563
0.756553
0.756566
0.756559
0.756569
0.756564
0.75657
0.756574
0.756702
0.756693
0.756568
0.756565
0.756562
0.756566
0.756565
0.756565
0.756565
0.756565
0.756565
0.756565
0.756565
0.756565
0.756565
0.756565
0.756566
0.756565
0.756566
0.756565
0.756566
0.756565
0.756566
0.756566
0.756567
0.756566
0.756567
0.756566
0.756567
0.756574
0.756702
0.756701
0.756574
0.756566
0.756566
0.756565
0.756566
0.756565
0.756567
0.756566
0.756567
0.756565
0.756566
0.756565
0.756566
0.756565
0.756566
0.756565
0.756566
0.756565
0.756566
0.756565
0.756566
0.756565
0.756566
0.756565
0.756566
0.756565
0.756566
0.756574
0.756702
0.756702
0.756574
0.756565
0.756566
0.756565
0.756566
0.756566
0.756567
0.756566
0.756567
0.756565
0.756566
0.756565
0.756566
0.756565
0.756566
0.756565
0.756566
0.756565
0.756566
0.756565
0.756566
0.756565
0.756566
0.756565
0.756566
0.756565
0.756566
0.756574
0.756702
0.756703
0.756575
0.756566
0.756565
0.756566
0.756565
0.756567
0.756566
0.756567
0.756566
0.756567
0.756565
0.756566
0.756565
0.756566
0.756565
0.756566
0.756565
0.756566
0.756566
0.756566
0.756566
0.756565
0.756567
0.756566
0.756567
0.756565
0.756567
0.756574
0.756701
0.756703
0.756574
0.756565
0.756566
0.756565
0.756566
0.756566
0.756567
0.756566
0.756567
0.756565
0.756566
0.756565
0.756566
0.756565
0.756566
0.756565
0.756566
0.756565
0.756566
0.756565
0.756566
0.756565
0.756566
0.756565
0.756566
0.756565
0.756566
0.756574
0.756702
0.756701
0.756574
0.756567
0.756567
0.756566
0.756567
0.756566
0.756567
0.756566
0.756567
0.756565
0.756566
0.756565
0.756566
0.756565
0.756565
0.756566
0.756565
0.756566
0.756565
0.756567
0.756566
0.756567
0.756566
0.756567
0.756565
0.756566
0.756567
0.756574
0.756701
0.756703
0.756574
0.756565
0.756566
0.756565
0.756566
0.756566
0.756567
0.756566
0.756567
0.756566
0.756566
0.756565
0.756565
0.756564
0.756565
0.756564
0.756565
0.756565
0.756566
0.756565
0.756566
0.756565
0.756566
0.756565
0.756566
0.756565
0.756566
0.756575
0.756702
0.752708
0.749934
0.748908
0.747637
0.745514
0.744862
0.745797
0.746921
0.747608
0.748678
0.75091
0.75222
0.756401
0.759116
0.752998
0.750232
0.744757
0.74108
0.740754
0.741854
0.742793
0.741753
0.739837
0.737056
0.734531
0.731353
0.728731
0.726682
0.726458
0.726937
0.728904
0.732666
0.736631
0.73983
0.741968
0.743705
0.74504
0.74707
0.749392
0.751048
0.754688
0.7578
0.757936
0.751564
0.757799
0.749609
0.742388
0.740906
0.743089
0.746481
0.749536
0.752026
0.75344
0.751887
0.749442
0.748005
0.746733
0.745903
0.745257
0.744049
0.742413
0.741623
0.742055
0.741018
0.737806
0.733135
0.725426
0.719302
0.721377
0.732875
0.745907
0.754268
0.758494
0.759015
0.752238
0.744417
0.74245
0.74583
0.750652
0.753776
0.755037
0.754778
0.752367
0.746876
0.739814
0.731386
0.723964
0.720198
0.721347
0.727165
0.734164
0.739671
0.743225
0.745613
0.747362
0.748876
0.750102
0.751228
0.752358
0.75347
0.754606
0.755842
0.757157
0.758658
0.745612
0.743326
0.740384
0.737198
0.736284
0.738921
0.742668
0.745408
0.747214
0.748264
0.749183
0.749756
0.750322
0.750672
0.751053
0.75128
0.751533
0.751699
0.751891
0.751988
0.752163
0.752218
0.752376
0.752431
0.752582
0.752672
0.752852
0.753022
0.753264
0.753515
0.751506
0.751714
0.751933
0.752087
0.752217
0.752301
0.752384
0.752428
0.752486
0.752514
0.752549
0.752572
0.752591
0.752612
0.752619
0.752639
0.752638
0.752657
0.752652
0.75267
0.752662
0.75268
0.75267
0.752687
0.752676
0.752693
0.752684
0.752697
0.752693
0.752662
0.752642
0.75269
0.752691
0.752694
0.752695
0.752698
0.752695
0.752699
0.752696
0.7527
0.752697
0.7527
0.752698
0.7527
0.752698
0.7527
0.752698
0.7527
0.752698
0.7527
0.752698
0.7527
0.752698
0.7527
0.752698
0.7527
0.752697
0.7527
0.752697
0.752656
0.752655
0.752699
0.752699
0.752699
0.752697
0.7527
0.752698
0.752701
0.752698
0.752701
0.752698
0.752701
0.752698
0.7527
0.752699
0.7527
0.752699
0.7527
0.752698
0.752701
0.752698
0.752701
0.752698
0.7527
0.752697
0.752699
0.752697
0.752699
0.752698
0.752657
0.752657
0.752698
0.752697
0.752699
0.752697
0.7527
0.752698
0.752701
0.752698
0.752701
0.752698
0.752701
0.752698
0.7527
0.752699
0.7527
0.752699
0.7527
0.752698
0.752701
0.752698
0.752701
0.752698
0.7527
0.752697
0.752699
0.752698
0.752699
0.752698
0.752657
0.752659
0.752699
0.752699
0.752697
0.752699
0.752697
0.7527
0.752698
0.752701
0.752698
0.752701
0.752699
0.752701
0.752699
0.7527
0.752699
0.7527
0.752698
0.752699
0.7527
0.752699
0.7527
0.752698
0.7527
0.752697
0.7527
0.752697
0.7527
0.752697
0.752656
0.752658
0.752698
0.752697
0.752699
0.752697
0.7527
0.752698
0.752701
0.752698
0.752701
0.752698
0.752701
0.752698
0.7527
0.752699
0.7527
0.752699
0.7527
0.752698
0.752701
0.752698
0.7527
0.752698
0.7527
0.752697
0.752699
0.752698
0.752698
0.752698
0.752657
0.752656
0.752698
0.752699
0.7527
0.752698
0.7527
0.752698
0.752701
0.752698
0.752701
0.752698
0.752701
0.752698
0.7527
0.752699
0.752699
0.7527
0.752698
0.752701
0.752698
0.752701
0.752698
0.752701
0.752698
0.7527
0.752697
0.752699
0.7527
0.752699
0.752656
0.752658
0.752698
0.752697
0.752699
0.752697
0.7527
0.752697
0.752701
0.752698
0.752701
0.752698
0.752701
0.752699
0.752701
0.752699
0.7527
0.752699
0.752701
0.752699
0.752701
0.752698
0.752701
0.752698
0.7527
0.752697
0.7527
0.752698
0.752699
0.752699
0.752658
0.747058
0.745275
0.744309
0.743423
0.743737
0.744717
0.745015
0.745317
0.745841
0.747682
0.750364
0.752903
0.756176
0.758212
0.751843
0.750772
0.744842
0.741443
0.74201
0.744791
0.746321
0.745483
0.742956
0.740243
0.736785
0.733736
0.729973
0.726637
0.72423
0.723121
0.723774
0.726411
0.730286
0.734779
0.737746
0.740236
0.742078
0.743681
0.746257
0.749086
0.751208
0.754382
0.757364
0.753689
0.757153
0.747836
0.741643
0.741381
0.745086
0.751293
0.754292
0.755497
0.752867
0.748196
0.745017
0.742532
0.740659
0.740003
0.74029
0.740726
0.740192
0.739886
0.738823
0.73719
0.735759
0.733563
0.728193
0.722302
0.717187
0.720281
0.731349
0.744655
0.755029
0.759259
0.748692
0.745313
0.744433
0.746512
0.750692
0.754124
0.755589
0.755022
0.752411
0.74686
0.740045
0.731758
0.724542
0.719147
0.717215
0.719006
0.724126
0.730108
0.735015
0.738388
0.740805
0.742797
0.744518
0.74608
0.747569
0.749036
0.750709
0.752605
0.75507
0.757734
0.747747
0.747022
0.742942
0.736685
0.731753
0.731469
0.734914
0.738634
0.740997
0.742564
0.74354
0.744512
0.745072
0.745797
0.7461
0.746684
0.746815
0.747326
0.747359
0.74779
0.747812
0.748156
0.748189
0.748507
0.748584
0.748882
0.749045
0.749395
0.749727
0.750119
0.746607
0.746918
0.747388
0.747751
0.74798
0.748195
0.748294
0.748441
0.748479
0.748587
0.748598
0.74868
0.748679
0.748741
0.748733
0.748781
0.748774
0.748808
0.7488
0.74883
0.748817
0.748845
0.748831
0.748856
0.748842
0.748867
0.748857
0.748881
0.748876
0.748852
0.748807
0.748855
0.748864
0.748861
0.748866
0.748863
0.748864
0.748863
0.748864
0.748864
0.748864
0.748863
0.748864
0.748863
0.748864
0.748864
0.748864
0.748864
0.748864
0.748863
0.748864
0.748864
0.748864
0.748865
0.748865
0.748866
0.748868
0.748871
0.748871
0.748826
0.748825
0.748871
0.748871
0.748868
0.748866
0.748865
0.748864
0.748865
0.748864
0.748865
0.748864
0.748864
0.748864
0.748864
0.748864
0.748864
0.748864
0.748864
0.748864
0.748864
0.748864
0.748864
0.748864
0.748864
0.748865
0.748866
0.748867
0.74887
0.748871
0.748827
0.748827
0.74887
0.74887
0.748868
0.748866
0.748865
0.748865
0.748865
0.748865
0.748864
0.748864
0.748864
0.748864
0.748864
0.748864
0.748864
0.748864
0.748864
0.748864
0.748864
0.748864
0.748864
0.748864
0.748864
0.748865
0.748866
0.748867
0.74887
0.748871
0.748827
0.748828
0.748872
0.74887
0.748867
0.748866
0.748865
0.748865
0.748865
0.748865
0.748865
0.748865
0.748864
0.748864
0.748864
0.748864
0.748864
0.748864
0.748863
0.748864
0.748864
0.748864
0.748864
0.748864
0.748865
0.748865
0.748866
0.748868
0.748871
0.748871
0.748825
0.748828
0.748871
0.74887
0.748867
0.748866
0.748865
0.748865
0.748865
0.748865
0.748865
0.748864
0.748864
0.748864
0.748864
0.748864
0.748864
0.748864
0.748864
0.748864
0.748864
0.748864
0.748864
0.748864
0.748864
0.748865
0.748866
0.748868
0.74887
0.748871
0.748827
0.748825
0.748871
0.74887
0.748868
0.748866
0.748865
0.748864
0.748865
0.748864
0.748864
0.748864
0.748864
0.748864
0.748864
0.748864
0.748864
0.748864
0.748864
0.748864
0.748864
0.748864
0.748864
0.748865
0.748864
0.748865
0.748866
0.748867
0.748871
0.748872
0.748825
0.748827
0.748871
0.74887
0.748868
0.748866
0.748865
0.748865
0.748864
0.748864
0.748864
0.748864
0.748864
0.748864
0.748864
0.748864
0.748864
0.748864
0.748864
0.748864
0.748864
0.748864
0.748864
0.748864
0.748865
0.748865
0.748867
0.74887
0.748876
0.748886
0.748842
0.742658
0.741225
0.740838
0.741389
0.742818
0.743141
0.741377
0.740807
0.740724
0.745063
0.751225
0.755289
0.758042
0.758111
0.75755
0.753971
0.751109
0.749864
0.747229
0.74352
0.744297
0.748069
0.749915
0.74927
0.747495
0.744851
0.742046
0.738366
0.734359
0.729681
0.725298
0.722081
0.720918
0.721704
0.724651
0.728925
0.732623
0.735794
0.738839
0.741165
0.742558
0.745729
0.748095
0.752238
0.755788
0.754808
0.756127
0.757367
0.754909
0.748206
0.744568
0.746235
0.750664
0.755575
0.756298
0.753963
0.748834
0.744071
0.739003
0.735191
0.732567
0.730022
0.729216
0.730561
0.734129
0.735312
0.735312
0.73361
0.732717
0.730183
0.727
0.723569
0.718307
0.715713
0.719146
0.730283
0.745423
0.756759
0.759902
0.760155
0.757279
0.756095
0.755214
0.756468
0.756137
0.755898
0.754527
0.752325
0.748499
0.743141
0.736737
0.729484
0.723082
0.718381
0.715674
0.715095
0.717042
0.72116
0.726025
0.730071
0.733157
0.735456
0.737395
0.739188
0.741016
0.742847
0.745
0.747459
0.750464
0.754723
0.755053
0.753869
0.751663
0.748494
0.742937
0.73587
0.729306
0.726673
0.728456
0.731737
0.734269
0.735863
0.736981
0.73789
0.738639
0.739267
0.739752
0.740203
0.740512
0.74088
0.741063
0.741383
0.741493
0.741779
0.74186
0.742136
0.742234
0.742574
0.742763
0.743315
0.743754
0.744513
0.742863
0.742189
0.740664
0.740617
0.741078
0.741487
0.741715
0.741899
0.742023
0.742125
0.742202
0.742266
0.742316
0.74236
0.742393
0.742422
0.742446
0.742465
0.742483
0.742497
0.74251
0.742521
0.74253
0.742539
0.742544
0.742555
0.742558
0.742572
0.742575
0.74259
0.742579
0.742371
0.742137
0.74214
0.742306
0.742561
0.742574
0.742588
0.742584
0.74259
0.742586
0.742591
0.742589
0.742592
0.742591
0.742592
0.742591
0.742592
0.742592
0.742592
0.742592
0.742592
0.742592
0.742593
0.742592
0.742593
0.742593
0.742594
0.742595
0.742597
0.742598
0.742598
0.742579
0.74234
0.742129
0.742129
0.74234
0.742581
0.742598
0.742598
0.742596
0.742596
0.742594
0.742594
0.742593
0.742594
0.742593
0.742593
0.742592
0.742593
0.742593
0.742593
0.742593
0.742593
0.742593
0.742594
0.742593
0.742594
0.742593
0.742594
0.742594
0.742597
0.742598
0.742598
0.74258
0.742342
0.742129
0.742129
0.742341
0.742579
0.742597
0.742598
0.742596
0.742596
0.742594
0.742594
0.742593
0.742594
0.742593
0.742593
0.742593
0.742593
0.742593
0.742593
0.742593
0.742593
0.742593
0.742594
0.742593
0.742594
0.742593
0.742594
0.742594
0.742597
0.742598
0.742598
0.74258
0.742341
0.742129
0.742129
0.742343
0.742581
0.742598
0.742597
0.742597
0.742595
0.742595
0.742593
0.742594
0.742593
0.742594
0.742593
0.742593
0.742593
0.742593
0.742593
0.742593
0.742592
0.742592
0.742594
0.742593