/*--------------------------------*- C++ -*----------------------------------*\
| =========                 |                                                 |
| \\      /  F ield         | OpenFOAM: The Open Source CFD Toolbox           |
|  \\    /   O peration     | Version:  2.1.1                                 |
|   \\  /    A nd           | Web:      www.OpenFOAM.org                      |
|    \\/     M anipulation  |                                                 |
\*---------------------------------------------------------------------------*/
FoamFile
{
    version     2.0;
    format      ascii;
    class       volScalarField;
    location    "0.002000000";
    object      O2;
}
// * * * * * * * * * * * * * * * * * * * * * * * * * * * * * * * * * * * * * //

dimensions      [0 0 0 0 0 0 0];

internalField   nonuniform List<scalar> 
12384
(
0.0236736
0.0193633
0.0168911
0.0177859
0.0176423
0.166383
0.221555
0.227201
0.227398
0.227196
0.226893
0.226471
0.22621
0.226187
0.227573
0.228129
0.228452
0.228398
0.22785
0.226082
0.223167
0.217577
0.218442
0.217638
0.218146
0.222869
0.224027
0.224914
0.226037
0.227446
0.228249
0.228561
0.228685
0.228665
0.228552
0.228488
0.228019
0.227405
0.226839
0.226435
0.226183
0.226111
0.226131
0.226161
0.226831
0.227395
0.228136
0.228472
0.228502
0.228433
0.228405
0.228057
0.22795
0.227431
0.227265
0.227169
0.227203
0.227325
0.227456
0.227867
0.228352
0.22884
0.22879
0.229041
0.228499
0.228516
0.2278
0.227615
0.226832
0.226605
0.226185
0.226136
0.22615
0.226163
0.22658
0.226893
0.227158
0.227505
0.227849
0.228072
0.22822
0.228279
0.228368
0.228298
0.228197
0.228021
0.227768
0.227446
0.227111
0.226841
0.226627
0.226468
0.226355
0.226258
0.226215
0.226182
0.226181
0.226178
0.226176
0.226179
0.226174
0.226174
0.226173
0.226176
0.226399
0.22646
0.226439
0.226413
0.226381
0.226343
0.226303
0.22626
0.226233
0.226204
0.226197
0.22618
0.226186
0.226179
0.226189
0.226177
0.226189
0.226179
0.226188
0.226179
0.226186
0.226179
0.226185
0.22618
0.226183
0.226181
0.226182
0.226182
0.226182
0.226177
0.226177
0.226183
0.226184
0.226184
0.226183
0.226184
0.226183
0.226185
0.226184
0.226186
0.226184
0.226186
0.226186
0.226187
0.226187
0.226188
0.226187
0.226187
0.226186
0.226187
0.226186
0.226186
0.226186
0.226186
0.226185
0.226185
0.226185
0.226185
0.226185
0.226177
0.226177
0.226185
0.226186
0.226186
0.226186
0.226186
0.226187
0.226187
0.226187
0.226188
0.226188
0.226188
0.226189
0.226189
0.22619
0.22619
0.22619
0.226189
0.226188
0.226188
0.226188
0.226187
0.226187
0.226187
0.226186
0.226186
0.226186
0.226186
0.226185
0.226177
0.226177
0.226185
0.226186
0.226186
0.226186
0.226187
0.226187
0.226187
0.226188
0.226188
0.226188
0.226188
0.226189
0.226189
0.22619
0.22619
0.226189
0.226189
0.226188
0.226188
0.226188
0.226188
0.226187
0.226187
0.226187
0.226186
0.226186
0.226186
0.226185
0.226177
0.226177
0.226185
0.226186
0.226186
0.226186
0.226187
0.226187
0.226187
0.226187
0.226188
0.226188
0.226188
0.226189
0.226189
0.22619
0.22619
0.226189
0.226189
0.226188
0.226188
0.226188
0.226188
0.226187
0.226187
0.226187
0.226186
0.226186
0.226186
0.226185
0.226177
0.226177
0.226185
0.226186
0.226186
0.226186
0.226187
0.226187
0.226187
0.226188
0.226188
0.226188
0.226188
0.226189
0.226189
0.22619
0.22619
0.22619
0.226189
0.226188
0.226188
0.226188
0.226187
0.226187
0.226187
0.226187
0.226186
0.226186
0.226186
0.226185
0.226177
0.226177
0.226185
0.226186
0.226186
0.226186
0.226187
0.226187
0.226187
0.226187
0.226188
0.226188
0.226188
0.226189
0.226189
0.22619
0.22619
0.226189
0.226189
0.226188
0.226188
0.226188
0.226187
0.226187
0.226187
0.226187
0.226186
0.226186
0.226186
0.226185
0.226177
0.226177
0.226186
0.226186
0.226186
0.226186
0.226187
0.226187
0.226187
0.226187
0.226188
0.226188
0.226188
0.226189
0.226189
0.22619
0.22619
0.226189
0.226189
0.226188
0.226188
0.226188
0.226187
0.226187
0.226187
0.226187
0.226186
0.226186
0.226186
0.226186
0.226177
0.226177
0.226185
0.226186
0.226186
0.226187
0.226187
0.226187
0.226187
0.226187
0.226188
0.226188
0.226188
0.226189
0.226189
0.22619
0.22619
0.22619
0.226189
0.226188
0.226188
0.226188
0.226187
0.226187
0.226187
0.226187
0.226186
0.226186
0.226186
0.226186
0.226177
0.0288754
0.036393
0.0433902
0.0427469
0.0574513
0.188247
0.222453
0.226207
0.227648
0.228822
0.22879
0.228222
0.227462
0.226748
0.22846
0.229052
0.228057
0.225881
0.216121
0.201584
0.17093
0.0744432
0.0731618
0.0733619
0.0744302
0.159719
0.180805
0.185271
0.196892
0.209051
0.21646
0.220785
0.226272
0.22913
0.22968
0.229906
0.229797
0.22961
0.228992
0.228163
0.227159
0.226515
0.226096
0.22612
0.227408
0.228644
0.22901
0.228563
0.227911
0.227049
0.226107
0.225476
0.225437
0.22571
0.225947
0.225919
0.225685
0.22529
0.224767
0.224495
0.22467
0.225265
0.227091
0.228681
0.22969
0.230398
0.230174
0.230293
0.229355
0.22895
0.227703
0.226642
0.226209
0.226131
0.228785
0.22955
0.230052
0.230034
0.229981
0.22982
0.229646
0.229572
0.229585
0.229854
0.230075
0.23025
0.230266
0.230229
0.230125
0.22988
0.229615
0.229308
0.229019
0.228619
0.228265
0.22779
0.227353
0.226953
0.226662
0.226478
0.226376
0.226327
0.226311
0.226257
0.229182
0.229327
0.229265
0.22919
0.229091
0.22897
0.228794
0.228601
0.228393
0.228178
0.227983
0.227765
0.227614
0.227427
0.227333
0.227171
0.227109
0.226967
0.226927
0.226807
0.226778
0.226686
0.226664
0.226598
0.226577
0.226535
0.226526
0.226512
0.22651
0.226326
0.226689
0.226847
0.226849
0.226833
0.226796
0.226773
0.226744
0.226726
0.226707
0.226696
0.226686
0.226682
0.226683
0.226683
0.226688
0.226679
0.226671
0.226657
0.226646
0.226639
0.226632
0.226625
0.22662
0.226614
0.226609
0.226604
0.226602
0.226603
0.226595
0.226352
0.226349
0.22661
0.226617
0.226625
0.226628
0.226631
0.226642
0.226644
0.226654
0.226656
0.226666
0.226668
0.226681
0.226687
0.226696
0.226694
0.226693
0.226679
0.226671
0.226658
0.226655
0.226644
0.226643
0.226634
0.226633
0.226624
0.226624
0.226617
0.22661
0.226346
0.226346
0.226612
0.226623
0.226626
0.226634
0.226635
0.226645
0.226646
0.226655
0.226657
0.226666
0.226668
0.226681
0.226688
0.226697
0.226695
0.226692
0.226678
0.226672
0.226663
0.22666
0.226651
0.226649
0.22664
0.226638
0.226629
0.226627
0.226621
0.226609
0.226355
0.226354
0.226606
0.226621
0.226622
0.226631
0.226632
0.226642
0.226643
0.226652
0.226654
0.226663
0.226666
0.22668
0.226688
0.226697
0.226694
0.226691
0.226679
0.226672
0.226663
0.226661
0.226651
0.226649
0.22664
0.226638
0.226629
0.226627
0.226621
0.226608
0.226355
0.226355
0.226609
0.22662
0.226629
0.22663
0.226639
0.226641
0.22665
0.226651
0.22666
0.226662
0.226671
0.226676
0.226689
0.226693
0.226698
0.22669
0.226682
0.226667
0.22666
0.226656
0.226646
0.226644
0.226634
0.226633
0.226625
0.226624
0.226617
0.22661
0.226346
0.226355
0.226607
0.226622
0.226624
0.226632
0.226633
0.226643
0.226644
0.226653
0.226655
0.226664
0.226667
0.226679
0.226687
0.226697
0.226695
0.226692
0.226679
0.226673
0.226663
0.226661
0.226651
0.226649
0.226639
0.226637
0.226628
0.226626
0.226621
0.226608
0.226354
0.226346
0.226611
0.226621
0.226623
0.226631
0.226633
0.226643
0.226645
0.226654
0.226656
0.226666
0.226669
0.226682
0.226688
0.226697
0.226697
0.226689
0.226681
0.226668
0.226666
0.226656
0.226654
0.226645
0.226643
0.226634
0.226632
0.226624
0.226622
0.226611
0.226346
0.226354
0.226608
0.226623
0.226625
0.226634
0.226635
0.226645
0.226645
0.226655
0.226655
0.226665
0.226667
0.226679
0.226686
0.226696
0.226695
0.226692
0.22668
0.226673
0.226663
0.226661
0.226651
0.22665
0.22664
0.226638
0.226629
0.226626
0.226621
0.226608
0.226354
0.0448426
0.0749134
0.09525
0.0994176
0.111574
0.197321
0.213723
0.213025
0.213543
0.223366
0.228879
0.230058
0.229472
0.228316
0.229619
0.22659
0.212503
0.198431
0.111427
0.0714623
0.0582516
0.0594704
0.0612018
0.0626075
0.068225
0.0699192
0.0652831
0.0688347
0.0812872
0.0945711
0.0878769
0.10185
0.182458
0.217141
0.225244
0.225948
0.228808
0.230494
0.230474
0.230116
0.229214
0.227741
0.226363
0.226113
0.228602
0.229489
0.228768
0.227585
0.22624
0.225492
0.22546
0.226371
0.227509
0.227892
0.228024
0.227411
0.224604
0.223909
0.224151
0.224952
0.223966
0.22254
0.222046
0.2225
0.224986
0.227801
0.229681
0.230645
0.230675
0.230738
0.23002
0.22873
0.22707
0.226389
0.230623
0.230643
0.230259
0.229411
0.228089
0.226975
0.226431
0.225933
0.225936
0.226425
0.227494
0.228686
0.229661
0.230255
0.230565
0.230761
0.230861
0.230924
0.230936
0.230968
0.230963
0.230969
0.230925
0.230815
0.230539
0.230151
0.229653
0.229145
0.22877
0.228521
0.231012
0.230943
0.230924
0.230921
0.230929
0.230933
0.230947
0.23095
0.23095
0.230952
0.230935
0.230948
0.230915
0.230942
0.230888
0.230929
0.23088
0.230924
0.23089
0.230928
0.230899
0.23092
0.230896
0.230898
0.230881
0.230855
0.230835
0.230801
0.230779
0.230923
0.231107
0.230942
0.230917
0.230912
0.230912
0.230905
0.230903
0.230895
0.230891
0.230884
0.230878
0.23087
0.230859
0.230849
0.230844
0.230842
0.230847
0.230853
0.230859
0.230863
0.230865
0.23087
0.230871
0.230876
0.230877
0.23088
0.23088
0.230882
0.230884
0.231099
0.231099
0.230879
0.230871
0.230866
0.230864
0.23086
0.230854
0.23085
0.230845
0.23084
0.230835
0.230831
0.230823
0.230816
0.230811
0.230809
0.230813
0.230822
0.230831
0.230838
0.230843
0.230849
0.230852
0.230856
0.230859
0.230863
0.230865
0.230869
0.230879
0.231099
0.231098
0.230876
0.230867
0.230862
0.230858
0.230855
0.23085
0.230847
0.230843
0.23084
0.230835
0.230831
0.230823
0.230815
0.230809
0.230809
0.230814
0.230823
0.23083
0.230835
0.23084
0.230844
0.230848
0.230852
0.230856
0.230859
0.230863
0.230867
0.230876
0.231099
0.231098
0.230878
0.230868
0.230864
0.23086
0.230857
0.230853
0.23085
0.230846
0.230842
0.230837
0.230832
0.230824
0.230815
0.230809
0.230809
0.230814
0.230822
0.23083
0.230835
0.230839
0.230844
0.230848
0.230852
0.230856
0.23086
0.230863
0.230867
0.230876
0.231099
0.231099
0.230876
0.230866
0.230861
0.230858
0.230854
0.230851
0.230847
0.230844
0.23084
0.230836
0.230832
0.230825
0.230816
0.230811
0.230809
0.230812
0.230821
0.230832
0.230839
0.230842
0.230847
0.230852
0.230855
0.230859
0.230862
0.230865
0.230869
0.230878
0.231099
0.231098
0.230877
0.230867
0.230863
0.23086
0.230856
0.230853
0.230849
0.230845
0.230841
0.230837
0.230832
0.230824
0.230815
0.23081
0.230809
0.230814
0.230822
0.23083
0.230835
0.230839
0.230844
0.230848
0.230852
0.230856
0.23086
0.230864
0.230867
0.230876
0.231099
0.231098
0.230876
0.230867
0.230865
0.23086
0.230857
0.230852
0.230848
0.230844
0.23084
0.230835
0.23083
0.230823
0.230815
0.230809
0.230809
0.230814
0.230823
0.230831
0.230836
0.23084
0.230844
0.230848
0.230852
0.230856
0.230859
0.230863
0.230867
0.230876
0.231098
0.231098
0.230876
0.230866
0.230862
0.230858
0.230855
0.230851
0.230848
0.230845
0.230841
0.230837
0.230832
0.230825
0.230817
0.230811
0.230809
0.230813
0.230821
0.230829
0.230834
0.230839
0.230844
0.230848
0.230852
0.230856
0.23086
0.230864
0.230867
0.230876
0.231099
0.0820238
0.111827
0.130241
0.137541
0.144949
0.157695
0.160811
0.15572
0.14953
0.184554
0.214124
0.226972
0.230189
0.229969
0.229562
0.214505
0.0796112
0.0459721
0.0354939
0.0215129
0.00734042
0.0122243
0.0170971
0.0226475
0.0178224
0.00750376
0.0034872
0.00488323
0.0121982
0.0160767
0.0277233
0.0597921
0.091477
0.0884678
0.0818702
0.0906216
0.185599
0.224796
0.230311
0.230623
0.23046
0.229407
0.227392
0.226279
0.229472
0.229433
0.227912
0.226313
0.225456
0.225531
0.226701
0.227909
0.228334
0.228022
0.223153
0.215265
0.192794
0.191
0.200354
0.210081
0.221354
0.224518
0.223137
0.221039
0.220452
0.221477
0.225452
0.228155
0.230024
0.230516
0.230815
0.230327
0.228764
0.227321
0.230577
0.229565
0.227751
0.226019
0.224871
0.224418
0.224212
0.223789
0.223233
0.222846
0.22277
0.223746
0.225753
0.227526
0.228742
0.22945
0.229892
0.230175
0.230399
0.230548
0.230676
0.230774
0.230848
0.230893
0.230929
0.23094
0.230925
0.230844
0.230708
0.230633
0.230271
0.229895
0.229956
0.230088
0.230215
0.230349
0.230449
0.230556
0.230625
0.230705
0.230744
0.230798
0.230813
0.230854
0.230855
0.230885
0.230882
0.230904
0.230901
0.230917
0.230916
0.230926
0.230928
0.230936
0.230937
0.230941
0.230941
0.230942
0.230948
0.230977
0.230924
0.230907
0.230911
0.230916
0.230916
0.230922
0.230922
0.230927
0.230927
0.23093
0.23093
0.230931
0.230931
0.230932
0.230932
0.230933
0.230933
0.230934
0.230934
0.230934
0.230934
0.230934
0.230935
0.230934
0.230935
0.230934
0.230935
0.230934
0.230936
0.230972
0.230973
0.230935
0.230933
0.230932
0.230933
0.230932
0.230932
0.230931
0.230932
0.230931
0.230931
0.230931
0.230931
0.23093
0.23093
0.23093
0.23093
0.23093
0.230931
0.230931
0.230932
0.230931
0.230932
0.230932
0.230932
0.230932
0.230933
0.230932
0.230935
0.230973
0.230973
0.230935
0.230933
0.230932
0.230932
0.230932
0.230932
0.230931
0.230932
0.230931
0.230931
0.230931
0.230931
0.23093
0.23093
0.23093
0.23093
0.23093
0.230931
0.230931
0.230932
0.230931
0.230932
0.230932
0.230932
0.230932
0.230933
0.230933
0.230935
0.230972
0.230973
0.230935
0.230933
0.230932
0.230932
0.230932
0.230932
0.230931
0.230932
0.230931
0.230931
0.230931
0.230931
0.23093
0.23093
0.23093
0.23093
0.23093
0.230931
0.230931
0.230932
0.230931
0.230932
0.230932
0.230932
0.230932
0.230933
0.230933
0.230935
0.230972
0.230972
0.230935
0.230932
0.230933
0.230932
0.230932
0.230931
0.230932
0.230931
0.230932
0.230931
0.230931
0.23093
0.230931
0.23093
0.23093
0.23093
0.230931
0.230931
0.230931
0.230932
0.230931
0.230932
0.230932
0.230932
0.230932
0.230933
0.230932
0.230935
0.230973
0.230972
0.230935
0.230933
0.230932
0.230932
0.230932
0.230932
0.230931
0.230932
0.230931
0.230931
0.230931
0.230931
0.23093
0.23093
0.23093
0.23093
0.23093
0.230931
0.230931
0.230932
0.230931
0.230932
0.230932
0.230932
0.230932
0.230933
0.230933
0.230935
0.230972
0.230973
0.230935
0.230932
0.230932
0.230932
0.230932
0.230932
0.230931
0.230932
0.230931
0.230931
0.230931
0.230931
0.23093
0.23093
0.23093
0.23093
0.230931
0.230931
0.230931
0.230931
0.230932
0.230931
0.230932
0.230932
0.230932
0.230932
0.230933
0.230935
0.230973
0.230973
0.230935
0.230933
0.230932
0.230932
0.230932
0.230932
0.230931
0.230932
0.230931
0.230931
0.230931
0.230931
0.23093
0.23093
0.23093
0.23093
0.23093
0.230931
0.230931
0.230931
0.230931
0.230932
0.230931
0.230932
0.230932
0.230933
0.230933
0.230935
0.230972
0.114726
0.121673
0.126977
0.131308
0.126036
0.106884
0.0853431
0.0935269
0.0994574
0.107288
0.134163
0.19852
0.224214
0.230562
0.228428
0.194288
0.0081602
0.0147697
0.0044072
0.000347366
0.000353581
0.000277297
0.000416718
0.000531062
4.24778e-05
2.59382e-05
2.68932e-05
2.79856e-05
5.33341e-05
9.11463e-05
0.000296481
0.0068495
0.0266343
0.033605
0.0401748
0.052274
0.0719367
0.198601
0.227472
0.23024
0.23065
0.230309
0.228702
0.226656
0.230102
0.229017
0.226931
0.225603
0.225564
0.226395
0.227513
0.22793
0.226319
0.215622
0.178803
0.137942
0.0320672
0.0254748
0.0213646
0.0283611
0.1606
0.20105
0.214851
0.222772
0.221031
0.219183
0.220547
0.223543
0.2275
0.229454
0.230406
0.230727
0.230208
0.228701
0.229965
0.227749
0.225547
0.224842
0.225368
0.2261
0.226437
0.225966
0.224953
0.223411
0.221867
0.221025
0.221453
0.223562
0.225772
0.227369
0.228318
0.228899
0.229282
0.22959
0.229819
0.230004
0.230172
0.230321
0.230454
0.23059
0.230706
0.23079
0.230828
0.23085
0.229125
0.228041
0.228013
0.22825
0.228667
0.22904
0.229351
0.229562
0.229746
0.229863
0.229983
0.230049
0.230126
0.230171
0.230215
0.230249
0.230275
0.230303
0.230317
0.230339
0.23035
0.230363
0.230375
0.230387
0.230398
0.230415
0.23043
0.230446
0.230464
0.230477
0.23033
0.230328
0.230339
0.230344
0.23036
0.230363
0.230375
0.230376
0.230385
0.230386
0.230392
0.230393
0.230396
0.230398
0.230398
0.230401
0.2304
0.230403
0.230401
0.230404
0.230402
0.230405
0.230403
0.230406
0.230404
0.230406
0.230405
0.230406
0.230406
0.230409
0.23041
0.230406
0.230406
0.230405
0.230405
0.230406
0.230405
0.230407
0.230405
0.230407
0.230405
0.230407
0.230405
0.230406
0.230405
0.230406
0.230405
0.230407
0.230405
0.230407
0.230405
0.230407
0.230405
0.230407
0.230405
0.230407
0.230405
0.230407
0.230406
0.230411
0.23041
0.230406
0.230406
0.230407
0.230405
0.230407
0.230405
0.230407
0.230405
0.230407
0.230405
0.230407
0.230405
0.230406
0.230405
0.230406
0.230405
0.230406
0.230405
0.230407
0.230405
0.230407
0.230405
0.230407
0.230405
0.230407
0.230405
0.230406
0.230407
0.230409
0.230409
0.230407
0.230405
0.230407
0.230405
0.230407
0.230405
0.230407
0.230405
0.230407
0.230405
0.230407
0.230405
0.230406
0.230405
0.230406
0.230405
0.230406
0.230405
0.230407
0.230405
0.230407
0.230405
0.230407
0.230405
0.230407
0.230405
0.230406
0.230407
0.230409
0.23041
0.230407
0.230406
0.230405
0.230407
0.230405
0.230407
0.230405
0.230407
0.230405
0.230407
0.230405
0.230407
0.230405
0.230406
0.230405
0.230406
0.230405
0.230406
0.230406
0.230405
0.230407
0.230405
0.230407
0.230405
0.230407
0.230405
0.230407
0.230406
0.230411
0.230409
0.230407
0.230405
0.230407
0.230405
0.230407
0.230405
0.230407
0.230405
0.230407
0.230405
0.230407
0.230405
0.230406
0.230405
0.230406
0.230405
0.230406
0.230405
0.230407
0.230405
0.230407
0.230405
0.230407
0.230405
0.230406
0.230405
0.230406
0.230407
0.230409
0.230411
0.230406
0.230406
0.230407
0.230405
0.230407
0.230405
0.230407
0.230405
0.230407
0.230405
0.230407
0.230405
0.230406
0.230405
0.230405
0.230406
0.230405
0.230407
0.230405
0.230407
0.230405
0.230407
0.230405
0.230407
0.230405
0.230407
0.230406
0.230406
0.230411
0.230409
0.230407
0.230405
0.230407
0.230405
0.230407
0.230405
0.230407
0.230405
0.230407
0.230405
0.230407
0.230405
0.230407
0.230405
0.230406
0.230405
0.230406
0.230405
0.230407
0.230405
0.230407
0.230405
0.230407
0.230405
0.230407
0.230405
0.230406
0.230407
0.230409
0.115204
0.102327
0.0947721
0.0891021
0.0629866
0.026544
0.0253547
0.036612
0.0529216
0.0632567
0.0819355
0.112673
0.194805
0.22906
0.223688
0.0935588
0.00811401
0.000205716
0.000296453
0.000138598
5.19059e-05
0.00011996
5.39346e-05
3.67341e-05
2.79306e-06
-2.00072e-07
1.4245e-06
1.26546e-06
2.40935e-06
3.33008e-06
7.66732e-06
4.82304e-05
0.000406735
0.00265779
0.00602972
0.0172388
0.0324591
0.0519526
0.201454
0.227646
0.230129
0.230558
0.229771
0.227332
0.230181
0.22837
0.226101
0.225294
0.22592
0.226867
0.227405
0.22443
0.206293
0.157788
0.0560713
0.0466015
0.0360342
0.0258462
0.0118863
0.00408768
0.00287058
0.00330914
0.00324406
0.172432
0.214455
0.220921
0.218959
0.219224
0.223083
0.226894
0.229185
0.230388
0.230694
0.229967
0.229243
0.226526
0.225162
0.22593
0.227255
0.228412
0.228638
0.228348
0.227389
0.225672
0.223454
0.22115
0.219791
0.220047
0.221956
0.224262
0.226006
0.227081
0.227758
0.228237
0.228627
0.228946
0.229213
0.229474
0.229703
0.229935
0.230155
0.230385
0.230583
0.230741
0.227644
0.226105
0.225665
0.225624
0.226191
0.227039
0.227708
0.228214
0.228516
0.228767
0.228936
0.229083
0.229198
0.229282
0.229368
0.229423
0.229486
0.229521
0.229577
0.229589
0.229649
0.229646
0.229702
0.229703
0.229751
0.229762
0.229802
0.229817
0.229854
0.229908
0.229572
0.229561
0.229594
0.229626
0.229646
0.229672
0.229683
0.229705
0.22971
0.229726
0.229728
0.22974
0.22974
0.22975
0.229747
0.229756
0.229753
0.229761
0.229757
0.229764
0.22976
0.229765
0.229762
0.229766
0.229764
0.229767
0.229765
0.229767
0.229769
0.229807
0.229805
0.229767
0.229766
0.229765
0.229766
0.229766
0.229766
0.229766
0.229766
0.229766
0.229766
0.229766
0.229766
0.229766
0.229766
0.229766
0.229766
0.229766
0.229766
0.229766
0.229766
0.229766
0.229766
0.229766
0.229766
0.229766
0.229766
0.229766
0.229768
0.229807
0.229807
0.229768
0.229766
0.229766
0.229766
0.229766
0.229766
0.229766
0.229766
0.229766
0.229766
0.229766
0.229766
0.229766
0.229766
0.229766
0.229766
0.229766
0.229766
0.229766
0.229766
0.229766
0.229766
0.229766
0.229766
0.229766
0.229766
0.229766
0.229769
0.229807
0.229807
0.229768
0.229766
0.229766
0.229766
0.229766
0.229766
0.229766
0.229766
0.229766
0.229766
0.229766
0.229766
0.229766
0.229766
0.229766
0.229766
0.229766
0.229766
0.229766
0.229766
0.229766
0.229766
0.229766
0.229766
0.229766
0.229766
0.229766
0.229769
0.229807
0.229808
0.229769
0.229766
0.229766
0.229766
0.229766
0.229766
0.229766
0.229766
0.229766
0.229766
0.229766
0.229766
0.229766
0.229766
0.229766
0.229766
0.229766
0.229766
0.229766
0.229766
0.229766
0.229766
0.229766
0.229766
0.229766
0.229766
0.229766
0.229768
0.229807
0.229808
0.229768
0.229766
0.229766
0.229766
0.229766
0.229766
0.229766
0.229766
0.229766
0.229766
0.229766
0.229766
0.229766
0.229766
0.229766
0.229766
0.229766
0.229766
0.229766
0.229766
0.229766
0.229766
0.229766
0.229766
0.229766
0.229766
0.229766
0.229769
0.229807
0.229807
0.229769
0.229766
0.229766
0.229766
0.229766
0.229766
0.229766
0.229766
0.229766
0.229766
0.229766
0.229766
0.229766
0.229766
0.229766
0.229766
0.229766
0.229766
0.229766
0.229766
0.229766
0.229766
0.229766
0.229766
0.229766
0.229766
0.229766
0.229769
0.229807
0.229808
0.229769
0.229766
0.229766
0.229766
0.229766
0.229766
0.229766
0.229766
0.229766
0.229766
0.229766
0.229766
0.229766
0.229765
0.229766
0.229765
0.229766
0.229766
0.229766
0.229766
0.229766
0.229766
0.229766
0.229766
0.229766
0.229766
0.229766
0.229769
0.229807
0.0785396
0.04893
0.0390401
0.0280388
0.0137566
0.0092064
0.0110582
0.0188396
0.0253913
0.03623
0.0600216
0.074139
0.119097
0.224972
0.217771
0.0527323
0.00406587
0.000174758
8.83091e-05
0.000366473
0.000378704
0.000316529
0.000101641
1.98947e-05
7.3835e-06
2.04018e-06
5.7893e-07
3.17376e-07
3.25696e-07
3.73317e-07
7.76472e-07
3.1146e-06
1.63148e-05
8.65797e-05
0.000392651
0.00238966
0.00597228
0.020263
0.0437787
0.197771
0.227472
0.230141
0.230182
0.228247
0.230141
0.227653
0.22546
0.22501
0.225667
0.226541
0.224206
0.205866
0.154586
0.070612
0.0442945
0.029341
0.0174419
0.0106754
0.00666126
0.00353266
0.000784406
0.000299362
0.000378314
0.000216762
2.4508e-05
0.178758
0.216765
0.21841
0.219079
0.222571
0.226529
0.229068
0.230352
0.23051
0.228452
0.226076
0.225479
0.226506
0.22797
0.228919
0.229302
0.229223
0.228491
0.226823
0.224679
0.222119
0.219865
0.218721
0.21907
0.220837
0.222963
0.224635
0.225714
0.22644
0.226971
0.227431
0.227803
0.228145
0.228488
0.228826
0.229171
0.229546
0.229946
0.230401
0.226439
0.225745
0.224852
0.223884
0.223606
0.224407
0.225545
0.226377
0.226926
0.227245
0.227524
0.227698
0.22787
0.227976
0.228092
0.228161
0.228238
0.228288
0.228346
0.228376
0.228429
0.228446
0.228493
0.22851
0.228556
0.228583
0.228638
0.22869
0.228763
0.228839
0.228229
0.228292
0.228359
0.228406
0.228445
0.228471
0.228496
0.22851
0.228527
0.228535
0.228546
0.228553
0.228559
0.228565
0.228567
0.228573
0.228573
0.228579
0.228577
0.228583
0.22858
0.228586
0.228583
0.228588
0.228585
0.22859
0.228587
0.228591
0.22859
0.22858
0.228574
0.228589
0.228589
0.22859
0.22859
0.228591
0.22859
0.228592
0.228591
0.228592
0.228591
0.228592
0.228591
0.228592
0.228591
0.228592
0.228591
0.228592
0.228591
0.228592
0.228591
0.228592
0.228591
0.228592
0.228591
0.228592
0.228591
0.228592
0.228591
0.228579
0.228578
0.228592
0.228592
0.228592
0.228591
0.228592
0.228591
0.228592
0.228591
0.228592
0.228591
0.228592
0.228591
0.228592
0.228592
0.228592
0.228592
0.228592
0.228591
0.228592
0.228591
0.228592
0.228591
0.228592
0.228591
0.228592
0.228591
0.228592
0.228591
0.228579
0.228579
0.228591
0.228591
0.228592
0.228591
0.228592
0.228591
0.228592
0.228591
0.228592
0.228591
0.228592
0.228592
0.228592
0.228592
0.228592
0.228592
0.228592
0.228591
0.228592
0.228591
0.228592
0.228591
0.228592
0.228591
0.228592
0.228591
0.228592
0.228591
0.228579
0.228579
0.228592
0.228592
0.228591
0.228592
0.228591
0.228592
0.228591
0.228592
0.228591
0.228592
0.228592
0.228592
0.228592
0.228592
0.228592
0.228592
0.228591
0.228592
0.228592
0.228592
0.228592
0.228591
0.228592
0.228591
0.228592
0.228591
0.228592
0.228591
0.228579
0.228579
0.228591
0.228591
0.228592
0.228591
0.228592
0.228591
0.228592
0.228591
0.228592
0.228591
0.228592
0.228592
0.228592
0.228592
0.228592
0.228592
0.228592
0.228591
0.228592
0.228591
0.228592
0.228591
0.228592
0.228591
0.228592
0.228591
0.228591
0.228591
0.228579
0.228579
0.228591
0.228592
0.228592
0.228591
0.228592
0.228591
0.228592
0.228591
0.228592
0.228591
0.228592
0.228591
0.228592
0.228592
0.228592
0.228592
0.228591
0.228592
0.228591
0.228592
0.228591
0.228592
0.228591
0.228592
0.228591
0.228592
0.228592
0.228592
0.228579
0.228579
0.228591
0.228591
0.228592
0.228591
0.228592
0.228591
0.228592
0.228591
0.228592
0.228591
0.228592
0.228592
0.228592
0.228592
0.228592
0.228592
0.228592
0.228592
0.228592
0.228591
0.228592
0.228591
0.228592
0.228591
0.228592
0.228591
0.228592
0.228592
0.228579
0.024208
0.0137324
0.00985797
0.00672032
0.00593312
0.00515991
0.00525443
0.0069357
0.00987467
0.026091
0.0541467
0.0814993
0.165035
0.226178
0.200088
0.0585287
0.00449853
0.000256557
0.000405424
0.00422142
0.0140475
0.00805775
0.000655015
0.000120588
1.4113e-05
3.98647e-06
1.04852e-06
2.89134e-07
1.06925e-07
1.04526e-07
1.24768e-07
3.14191e-07
7.28287e-07
7.28162e-06
2.54895e-05
9.76914e-05
0.000575673
0.00282052
0.0132917
0.0405684
0.190115
0.22665
0.230007
0.228892
0.229944
0.227114
0.225232
0.22514
0.226082
0.221424
0.210415
0.173549
0.0813653
0.0312851
0.00545426
0.000644495
0.000199395
0.000129984
0.000153186
0.000233581
0.000154253
0.000147957
7.48743e-05
1.99463e-05
1.13218e-05
4.33526e-06
0.14197
0.208839
0.217698
0.218746
0.222108
0.226149
0.229299
0.230584
0.227375
0.226349
0.226081
0.226713
0.227982
0.229024
0.229469
0.229297
0.228504
0.226818
0.224749
0.222232
0.22004
0.218402
0.217815
0.218359
0.219914
0.221731
0.223221
0.224246
0.22498
0.225584
0.226107
0.226582
0.227034
0.227479
0.227987
0.228563
0.229312
0.230121
0.227088
0.226868
0.225629
0.223728
0.22223
0.222144
0.223191
0.22432
0.225038
0.225514
0.22581
0.226105
0.226275
0.226496
0.226588
0.226765
0.226805
0.22696
0.22697
0.227101
0.227108
0.227212
0.227222
0.227318
0.227342
0.227432
0.227482
0.227588
0.227689
0.227808
0.226741
0.226836
0.226979
0.227089
0.227159
0.227224
0.227254
0.227299
0.22731
0.227343
0.227346
0.227371
0.227371
0.22739
0.227387
0.227402
0.2274
0.22741
0.227408
0.227417
0.227413
0.227421
0.227417
0.227425
0.22742
0.227428
0.227425
0.227432
0.227431
0.227423
0.22741
0.227424
0.227427
0.227426
0.227428
0.227427
0.227427
0.227427
0.227427
0.227427
0.227427
0.227427
0.227427
0.227427
0.227427
0.227427
0.227427
0.227427
0.227427
0.227427
0.227427
0.227427
0.227427
0.227427
0.227427
0.227428
0.227428
0.227429
0.227429
0.227415
0.227415
0.227429
0.227429
0.227428
0.227428
0.227427
0.227427
0.227427
0.227427
0.227427
0.227427
0.227427
0.227427
0.227427
0.227427
0.227427
0.227427
0.227427
0.227427
0.227427
0.227427
0.227427
0.227427
0.227427
0.227427
0.227428
0.227428
0.227429
0.227429
0.227416
0.227416
0.227429
0.227429
0.227428
0.227428
0.227427
0.227427
0.227427
0.227427
0.227427
0.227427
0.227427
0.227427
0.227427
0.227427
0.227427
0.227427
0.227427
0.227427
0.227427
0.227427
0.227427
0.227427
0.227427
0.227427
0.227428
0.227428
0.227429
0.227429
0.227416
0.227416
0.227429
0.227429
0.227428
0.227428
0.227427
0.227427
0.227427
0.227427
0.227427
0.227427
0.227427
0.227427
0.227427
0.227427
0.227427
0.227427
0.227427
0.227427
0.227427
0.227427
0.227427
0.227427
0.227427
0.227427
0.227428
0.227428
0.227429
0.227429
0.227415
0.227416
0.227429
0.227429
0.227428
0.227428
0.227427
0.227427
0.227427
0.227427
0.227427
0.227427
0.227427
0.227427
0.227427
0.227427
0.227427
0.227427
0.227427
0.227427
0.227427
0.227427
0.227427
0.227427
0.227427
0.227427
0.227428
0.227428
0.227429
0.227429
0.227416
0.227415
0.227429
0.227429
0.227428
0.227428
0.227427
0.227427
0.227427
0.227427
0.227427
0.227427
0.227427
0.227427
0.227427
0.227427
0.227427
0.227427
0.227427
0.227427
0.227427
0.227427
0.227427
0.227427
0.227427
0.227427
0.227428
0.227428
0.227429
0.227429
0.227415
0.227416
0.227429
0.227429
0.227428
0.227428
0.227427
0.227427
0.227427
0.227427
0.227427
0.227427
0.227427
0.227427
0.227427
0.227427
0.227427
0.227427
0.227427
0.227427
0.227427
0.227427
0.227427
0.227427
0.227427
0.227427
0.227428
0.227429
0.227431
0.227434
0.22742
0.00498265
0.00292977
0.00213532
0.00190715
0.00175169
0.00139764
0.000299466
0.000205579
0.000192776
0.00558586
0.063395
0.107174
0.136602
0.208123
0.131421
0.0930789
0.0621581
0.0488028
0.0219459
0.00175698
0.00319741
0.0300959
0.0493421
0.0424979
0.0244543
0.00456453
0.00043303
1.47661e-05
5.81194e-06
8.70173e-07
2.0639e-07
7.34093e-08
3.7686e-08
5.99434e-08
1.35137e-07
7.33155e-07
2.8456e-06
1.24838e-05
5.43816e-05
0.000332626
0.000580084
0.00924039
0.0302443
0.189192
0.226235
0.22914
0.229552
0.22993
0.229232
0.227176
0.226042
0.226339
0.226359
0.199444
0.171264
0.0935562
0.0378555
0.00283415
7.48451e-05
9.6983e-06
5.0122e-06
2.08977e-06
1.293e-06
2.52351e-06
8.70463e-06
1.5372e-05
2.22658e-05
8.70175e-06
2.52816e-06
1.11109e-06
2.86137e-07
0.151375
0.211054
0.217339
0.218402
0.221784
0.226382
0.229825
0.230779
0.230856
0.229983
0.229623
0.229355
0.229736
0.229636
0.229563
0.229147
0.228478
0.227316
0.225689
0.223744
0.221541
0.219597
0.218169
0.217347
0.217171
0.217763
0.219013
0.220491
0.22172
0.222657
0.223355
0.223944
0.224488
0.225044
0.2256
0.226254
0.227
0.227913
0.229206
0.229306
0.228947
0.228277
0.227315
0.225627
0.223481
0.221487
0.220688
0.221229
0.222226
0.222994
0.223478
0.223818
0.224094
0.224322
0.224512
0.22466
0.224797
0.22489
0.225002
0.225058
0.225155
0.225188
0.225275
0.2253
0.225384
0.225414
0.225517
0.225574
0.225742
0.225875
0.226106
0.225605
0.2254
0.224937
0.224923
0.225062
0.225187
0.225256
0.225312
0.225349
0.22538
0.225404
0.225423
0.225438
0.225452
0.225462
0.225471
0.225478
0.225484
0.225489
0.225493
0.225497
0.225501
0.225503
0.225506
0.225508
0.225511
0.225512
0.225516
0.225517
0.225521
0.225518
0.225455
0.225384
0.225385
0.225435
0.225513
0.225517
0.225521
0.22552
0.225522
0.22552
0.225522
0.225521
0.225522
0.225522
0.225522
0.225522
0.225522
0.225522
0.225522
0.225522
0.225522
0.225522
0.225522
0.225522
0.225523
0.225522
0.225523
0.225523
0.225524
0.225524
0.225524
0.225518
0.225446
0.225381
0.225381
0.225446
0.225519
0.225524
0.225524
0.225523
0.225523
0.225523
0.225523
0.225523