/*--------------------------------*- C++ -*----------------------------------*\
| =========                 |                                                 |
| \\      /  F ield         | OpenFOAM: The Open Source CFD Toolbox           |
|  \\    /   O peration     | Version:  2.1.1                                 |
|   \\  /    A nd           | Web:      www.OpenFOAM.org                      |
|    \\/     M anipulation  |                                                 |
\*---------------------------------------------------------------------------*/
FoamFile
{
    version     2.0;
    format      ascii;
    class       volScalarField;
    location    "0.002000000";
    object      rho;
}
// * * * * * * * * * * * * * * * * * * * * * * * * * * * * * * * * * * * * * //

dimensions      [1 -3 0 0 0 0 0];

internalField   nonuniform List<scalar> 
12384
(
0.249793
0.245845
0.248474
0.249755
0.291811
0.588752
1.37247
1.50537
1.63192
1.60334
1.66769
1.6101
1.62795
1.62942
1.38794
1.43298
1.46707
1.47466
1.47157
1.36763
1.43203
1.15844
1.1793
1.17516
1.17746
1.34362
1.33745
1.36836
1.35661
1.43134
1.44781
1.46705
1.49188
1.53258
1.53248
1.52779
1.45274
1.39129
1.33174
1.32629
1.31567
1.41001
1.41632
1.48406
1.55119
1.55765
1.57031
1.59049
1.5318
1.53132
1.48691
1.55332
1.50089
1.56275
1.5672
1.57503
1.56383
1.58559
1.63572
1.60812
1.65802
1.66673
1.75294
1.72128
1.80877
1.9025
1.90098
1.92687
1.87106
1.86657
1.79621
1.79966
1.78917
1.79363
1.22714
1.24432
1.25947
1.28173
1.30033
1.34664
1.36868
1.40349
1.4323
1.45464
1.4544
1.44909
1.41974
1.37712
1.32983
1.29014
1.25211
1.2388
1.2346
1.22402
1.22648
1.22017
1.22069
1.21634
1.2202
1.21783
1.22706
1.23203
1.23715
1.24049
1.02428
1.028
1.02667
1.02591
1.02358
1.02106
1.01781
1.01492
1.00842
1.00383
1.00374
0.988918
0.987396
0.979925
0.975688
0.96209
0.96713
0.954468
0.9556
0.947415
0.947825
0.939979
0.941182
0.933074
0.935879
0.928209
0.931115
0.925981
0.927025
0.926546
0.880071
0.879153
0.879259
0.878781
0.878269
0.878158
0.876913
0.877083
0.875307
0.875763
0.873829
0.874411
0.872497
0.87314
0.87134
0.871972
0.870301
0.870901
0.869382
0.869951
0.868663
0.869126
0.868134
0.868421
0.867729
0.8679
0.86741
0.867601
0.867265
0.867113
0.865321
0.865619
0.865629
0.865623
0.865623
0.86561
0.865627
0.865611
0.865626
0.865617
0.865618
0.865629
0.865626
0.865649
0.865639
0.86565
0.86562
0.865608
0.865564
0.865556
0.865532
0.865526
0.865503
0.865503
0.865481
0.865479
0.865464
0.865463
0.865444
0.865147
0.865149
0.865443
0.865459
0.865476
0.865475
0.865494
0.865503
0.865518
0.86552
0.865538
0.86554
0.865558
0.865573
0.865598
0.865608
0.865612
0.865595
0.865581
0.865551
0.865546
0.865533
0.865527
0.865509
0.865506
0.865491
0.865481
0.865469
0.865461
0.865448
0.865148
0.865145
0.865445
0.865454
0.865475
0.865473
0.865495
0.865499
0.865514
0.865516
0.865535
0.865536
0.865555
0.865574
0.865599
0.865608
0.865611
0.865595
0.865581
0.865554
0.865546
0.865532
0.865527
0.865509
0.865506
0.86549
0.86548
0.865471
0.865461
0.865447
0.865148
0.865146
0.86544
0.865461
0.865472
0.865484
0.86549
0.86551
0.865511
0.86553
0.865534
0.865546
0.865553
0.865578
0.865591
0.865608
0.865608
0.865602
0.865577
0.865556
0.86554
0.865531
0.865517
0.865502
0.865499
0.865485
0.865475
0.865463
0.86546
0.865441
0.865147
0.865149
0.865447
0.865456
0.865473
0.865474
0.865496
0.865501
0.865516
0.865517
0.865536
0.865538
0.865556
0.865571
0.865596
0.865607
0.865612
0.865596
0.865581
0.865552
0.865545
0.865531
0.865525
0.865507
0.865504
0.865489
0.865479
0.865471
0.865461
0.865448
0.865149
0.865149
0.865444
0.865462
0.865473
0.865471
0.86549
0.865498
0.865511
0.86552
0.865537
0.86554
0.865558
0.865573
0.865596
0.865606
0.865606
0.865594
0.865575
0.865554
0.865536
0.865535
0.865517
0.865514
0.865495
0.865493
0.865475
0.865474
0.865458
0.865445
0.865145
0.865141
0.865445
0.865453
0.865475
0.865473
0.865494
0.865494
0.865512
0.865513
0.865528
0.865533
0.86555
0.865566
0.865589
0.865594
0.865604
0.865586
0.865578
0.865552
0.865546
0.865527
0.865522
0.865503
0.865501
0.865482
0.865476
0.865465
0.865462
0.865441
0.865141
0.250947
0.259431
0.269197
0.276447
0.292098
0.762106
1.3322
1.5038
1.62935
1.75124
1.75863
1.75712
1.66589
1.62972
1.44576
1.50493
1.45806
1.38045
1.04864
0.905998
0.591797
0.325883
0.286962
0.295188
0.290828
0.507023
0.632053
0.648069
0.750164
0.897527
1.05771
1.17389
1.38597
1.53439
1.59443
1.58969
1.58303
1.51025
1.47349
1.3856
1.41909
1.36138
1.45901
1.47717
1.57751
1.64395
1.64101
1.60936
1.50773
1.45239
1.37038
1.35872
1.38257
1.3816
1.433
1.44469
1.5203
1.50914
1.4585
1.41537
1.39801
1.42164
1.62748
1.67596
1.93384
2.0787
2.14676
2.16771
2.08396
2.03658
1.93142
1.84206
1.79755
1.7954
1.32163
1.36399
1.39473
1.40023
1.40079
1.39887
1.42036
1.43273
1.46021
1.50335
1.54806
1.56705
1.58006
1.57864
1.54871
1.51114
1.46871
1.41334
1.38516
1.36426
1.33558
1.31295
1.28189
1.25817
1.24048
1.234
1.2337
1.23695
1.24237
1.24456
1.15821
1.16727
1.16425
1.16
1.15493
1.14563
1.13541
1.12259
1.10777
1.09317
1.07864
1.0642
1.04499
1.03414
1.02553
1.00425
1.00651
0.985262
0.9888
0.970403
0.974313
0.95794
0.962323
0.948258
0.951934
0.94247
0.942375
0.940582
0.938072
0.932238
0.898254
0.905179
0.904885
0.903353
0.901779
0.900009
0.898378
0.897033
0.895026
0.894642
0.892604
0.892739
0.890973
0.891472
0.889843
0.890135
0.888147
0.888229
0.886299
0.886548
0.885
0.885198
0.883948
0.884136
0.883113
0.883277
0.882547
0.882789
0.882196
0.873408
0.871542
0.88104
0.881311
0.881596
0.881659
0.881835
0.882133
0.882266
0.882567
0.882707
0.883
0.883139
0.883514
0.883794
0.884058
0.884071
0.883945
0.883479
0.883091
0.88271
0.882488
0.882158
0.882037
0.881779
0.88166
0.88142
0.881343
0.881151
0.880831
0.871238
0.871218
0.880919
0.881322
0.881464
0.881712
0.881832
0.882119
0.882243
0.882508
0.882633
0.882908
0.883056
0.883467
0.883789
0.884078
0.884037
0.883858
0.883426
0.883136
0.882842
0.882698
0.882406
0.88228
0.882
0.881849
0.881588
0.881451
0.881272
0.880805
0.871507
0.871481
0.88073
0.881217
0.881351
0.881598
0.881722
0.881997
0.882116
0.882385
0.882516
0.882801
0.882987
0.883422
0.883779
0.884072
0.884027
0.883851
0.883434
0.883145
0.882852
0.882703
0.882407
0.882278
0.881994
0.881842
0.881585
0.881445
0.881268
0.8808
0.87151
0.871536
0.880805
0.881269
0.881516
0.881642
0.881903
0.882038
0.882309
0.882418
0.882684
0.882808
0.883082
0.883335
0.883761
0.883957
0.884085
0.883866
0.883508
0.883006
0.882706
0.882522
0.882211
0.882068
0.881796
0.881684
0.881437
0.881357
0.881147
0.880835
0.871234
0.871527
0.880768
0.881254
0.881392
0.881635
0.881755
0.88203
0.882153
0.88242
0.882546
0.882823
0.882995
0.883407
0.883751
0.884058
0.884041
0.883878
0.883459
0.883155
0.882853
0.882701
0.882398
0.882265
0.881979
0.881825
0.881563
0.88143
0.881267
0.880794
0.871503
0.871224
0.880894
0.88128
0.881369
0.881602
0.881734
0.882036
0.882175
0.882469
0.882616
0.882918
0.883077
0.883482
0.883791
0.884051
0.884052
0.883813
0.883475
0.88306
0.882892
0.882598
0.882462
0.882182
0.88205
0.881761
0.881647
0.881399
0.881287
0.880905
0.871218
0.871485
0.880781
0.881295
0.881434
0.881701
0.881814
0.8821
0.882204
0.882472
0.882567
0.882849
0.882992
0.88337
0.883693
0.884017
0.884037
0.883881
0.883477
0.883165
0.88287
0.88272
0.882414
0.882282
0.881988
0.881843
0.881572
0.881424
0.881263
0.880787
0.871495
0.263988
0.298685
0.333377
0.347067
0.376969
0.803371
1.08695
1.07956
1.11429
1.45197
1.78135
1.86239
1.82765
1.70639
1.54463
1.39134
0.968281
0.750468
0.362657
0.284954
0.31125
0.268527
0.279451
0.28433
0.289859
0.293235
0.28098
0.288392
0.300374
0.317916
0.303518
0.330345
0.6152
1.08379
1.33039
1.37258
1.53474
1.59911
1.57842
1.52743
1.5177
1.44367
1.47547
1.51024
1.64109
1.69988
1.63848
1.54487
1.41044
1.3773
1.31143
1.36788
1.42423
1.50257
1.4933
1.54843
1.48322
1.45898
1.48456
1.55135
1.4424
1.3028
1.31225
1.32285
1.58053
1.8371
2.11208
2.20283
2.20611
2.22157
2.14835
2.02255
1.87516
1.82765
1.40362
1.40816
1.37185
1.31515
1.24503
1.19811
1.17882
1.18417
1.20637
1.25126
1.32099
1.42553
1.50689
1.56143
1.59695
1.5998
1.58851
1.56813
1.53457
1.53013
1.53304
1.52622
1.52586
1.50925
1.48489
1.45741
1.42363
1.39739
1.37917
1.36964
1.2652
1.26347
1.26241
1.26438
1.26314
1.26372
1.25962
1.26024
1.25094
1.25231
1.23836
1.24172
1.22521
1.22018
1.21551
1.20016
1.20056
1.18768
1.18736
1.17698
1.17842
1.16714
1.16917
1.15783
1.15957
1.15121
1.14761
1.14612
1.14132
1.15054
1.10597
1.09492
1.09283
1.09319
1.09132
1.09134
1.08907
1.08901
1.08636
1.08647
1.08373
1.08385
1.08092
1.08094
1.07846
1.07888
1.07735
1.07807
1.07702
1.07739
1.07651
1.0767
1.07612
1.07627
1.07575
1.07608
1.07546
1.07579
1.07543
1.08761
1.08538
1.07328
1.07278
1.07245
1.07239
1.07209
1.07179
1.07151
1.07125
1.07098
1.07072
1.07044
1.07005
1.06961
1.06933
1.06922
1.06943
1.06988
1.07041
1.07074
1.07106
1.07134
1.07155
1.07173
1.07193
1.07208
1.07223
1.07244
1.073
1.08516
1.08514
1.07282
1.07232
1.07205
1.07185
1.07166
1.07144
1.07124
1.07105
1.07083
1.07062
1.07036
1.06995
1.06948
1.0692
1.06918
1.06947
1.06991
1.07035
1.0706
1.07085
1.07107
1.07129
1.07149
1.07173
1.07192
1.07214
1.07233
1.07281
1.08516
1.08516
1.07294
1.0724
1.07214
1.07198
1.07178
1.07159
1.07138
1.07119
1.07096
1.07073
1.07042
1.06999
1.06948
1.0692
1.06918
1.06948
1.0699
1.07034
1.07059
1.07084
1.07107
1.07129
1.07149
1.07174
1.07192
1.07215
1.07233
1.07281
1.08516
1.08516
1.07284
1.07229
1.07204
1.07184
1.07166
1.07144
1.07126
1.07106
1.07087
1.07065
1.07041
1.07002
1.06958
1.06927
1.06918
1.06936
1.06986
1.07042
1.07079
1.07096
1.07126
1.0715
1.07169
1.0719
1.07207
1.07223
1.07243
1.07297
1.08515
1.08515
1.07286
1.07235
1.0721
1.07195
1.07174
1.07155
1.07134
1.07115
1.07093
1.07071
1.07042
1.07001
1.06951
1.06922
1.06917
1.06944
1.06986
1.07032
1.07058
1.07084
1.07107
1.0713
1.07151
1.07175
1.07195
1.07217
1.07234
1.07283
1.08516
1.08515
1.07284
1.07233
1.0722
1.07198
1.07177
1.07152
1.0713
1.07108
1.07084
1.0706
1.07032
1.06993
1.06948
1.06918
1.06918
1.06946
1.06993
1.07034
1.07062
1.07085
1.07109
1.07129
1.0715
1.07173
1.07192
1.07213
1.07234
1.07281
1.08514
1.08514
1.07283
1.07229
1.07203
1.07187
1.07167
1.07148
1.07128
1.07111
1.0709
1.07069
1.07042
1.07005
1.06957
1.06925
1.06914
1.06941
1.06982
1.07029
1.07054
1.0708
1.07104
1.07128
1.07149
1.07174
1.07193
1.07216
1.07233
1.07281
1.08515
0.305654
0.355484
0.403883
0.431527
0.462373
0.518451
0.531327
0.505918
0.483093
0.688306
1.14934
1.65118
1.84011
1.8136
1.54999
1.013
0.295916
0.25844
0.246588
0.245892
0.222394
0.241876
0.242601
0.245082
0.247617
0.232874
0.229591
0.222917
0.231867
0.229186
0.240403
0.270714
0.308346
0.306138
0.297557
0.306163
0.627099
1.34808
1.62998
1.58189
1.64112
1.5596
1.53899
1.53904
1.68551
1.69221
1.58275
1.46804
1.37622
1.35877
1.37093
1.44421
1.49869
1.48314
1.33791
1.25963
0.800412
0.772502
0.921402
1.13767
1.42934
1.51956
1.45406
1.28897
1.36332
1.42907
1.75366
1.95585
2.1263
2.16188
2.22834
2.185
2.02823
1.90599
1.37182
1.28716
1.1942
1.09236
1.05141
1.05366
1.06527
1.04153
1.05493
1.05943
1.08571
1.14305
1.25807
1.37455
1.46558
1.52463
1.54471
1.54471
1.5342
1.51066
1.51563
1.52016
1.51951
1.52337
1.5155
1.51464
1.5144
1.51011
1.50702
1.50706
1.2183
1.19646
1.20442
1.21209
1.22184
1.2257
1.23154
1.23103
1.23507
1.22978
1.23289
1.22393
1.22693
1.21269
1.21713
1.19989
1.2009
1.18743
1.18937
1.17552
1.17857
1.16957
1.16687
1.16332
1.15807
1.15997
1.15088
1.15537
1.14966
1.1531
1.09405
1.09416
1.09518
1.09302
1.09346
1.09153
1.09179
1.08991
1.08998
1.08811
1.08806
1.08637
1.0862
1.08477
1.08449
1.08325
1.08313
1.08193
1.082
1.08079
1.08102
1.0798
1.08018
1.07916
1.07938
1.07892
1.07857
1.07861
1.07841
1.08041
1.07854
1.07631
1.07615
1.07618
1.07611
1.07612
1.07605
1.07604
1.076
1.07598
1.07595
1.07593
1.0759
1.07588
1.07584
1.07584
1.07583
1.07585
1.07586
1.07587
1.07588
1.07589
1.07589
1.0759
1.0759
1.07591
1.07591
1.07593
1.07605
1.07818
1.07816
1.07606
1.07592
1.07591
1.07589
1.07589
1.07588
1.07588
1.07586
1.07586
1.07585
1.07584
1.07582
1.0758
1.07578
1.07579
1.07579
1.07582
1.07584
1.07585
1.07586
1.07587
1.07587
1.07589
1.07589
1.0759
1.07591
1.07593
1.07607
1.07812
1.07813
1.07607
1.07592
1.07591
1.0759
1.0759
1.07588
1.07588
1.07587
1.07587
1.07585
1.07585
1.07582
1.0758
1.07578
1.07579
1.0758
1.07582
1.07584
1.07585
1.07586
1.07587
1.07587
1.07589
1.07589
1.0759
1.07591
1.07593
1.07607
1.07812
1.07812
1.07606
1.07592
1.07591
1.0759
1.07589
1.07589
1.07587
1.07587
1.07586
1.07586
1.07584
1.07583
1.07581
1.07579
1.07578
1.0758
1.07582
1.07584
1.07586
1.07587
1.07587
1.07588
1.07589
1.0759
1.07591
1.07591
1.07593
1.07605
1.07817
1.07812
1.07607
1.07592
1.07591
1.07589
1.0759
1.07588
1.07588
1.07586
1.07586
1.07585
1.07585
1.07582
1.07581
1.07578
1.07579
1.07579
1.07582
1.07583
1.07585
1.07585
1.07587
1.07587
1.07588
1.07589
1.07591
1.07591
1.07594
1.07607
1.07812
1.07818
1.07606
1.07592
1.07591
1.0759
1.0759
1.07588
1.07588
1.07587
1.07586
1.07585
1.07584
1.07582
1.0758
1.07578
1.07578
1.0758
1.07582
1.07584
1.07585
1.07586
1.07586
1.07587
1.07588
1.07589
1.07589
1.07591
1.07592
1.07605
1.07817
1.07812
1.07606
1.07591
1.0759
1.07589
1.07589
1.07587
1.07587
1.07586
1.07586
1.07585
1.07584
1.07582
1.0758
1.07578
1.07579
1.07579
1.07582
1.07583
1.07585
1.07584
1.07586
1.07586
1.07588
1.07588
1.0759
1.0759
1.07593
1.07607
1.07812
0.360333
0.374559
0.390376
0.403606
0.391243
0.346334
0.304766
0.323967
0.334986
0.360949
0.445864
0.859881
1.49478
1.8293
1.49675
0.710382
0.226301
0.230498
0.224344
0.215448
0.224266
0.221229
0.223891
0.226373
0.220898
0.219063
0.210896
0.212354
0.211032
0.210776
0.212484
0.221419
0.240024
0.250333
0.25344
0.273738
0.262598
0.815173
1.53789
1.70258
1.67667
1.67987
1.63855
1.56453
1.72679
1.65529
1.51918
1.42308
1.37266
1.39507
1.43904
1.50131
1.40724
1.1138
0.705691
0.47551
0.313612
0.263495
0.255649
0.25047
0.606104
1.0089
1.25636
1.43233
1.39602
1.34422
1.44833
1.61482
1.89638
2.03968
2.17284
2.22145
2.17588
2.02238
1.28919
1.17499
1.05654
1.04149
1.03421
1.052
1.10141
1.11101
1.10364
1.07692
1.0475
1.03054
1.06295
1.15993
1.28036
1.38241
1.44896
1.47734
1.48359
1.47937
1.46103
1.47187
1.47526
1.47618
1.48791
1.48414
1.49674
1.50215
1.50601
1.51324
1.14506
1.09868
1.09647
1.11432
1.13532
1.15438
1.16559
1.17802
1.17931
1.18599
1.18355
1.18627
1.18274
1.17829
1.17794
1.16676
1.16711
1.15296
1.15815
1.14428
1.142
1.14221
1.13044
1.13597
1.12379
1.13056
1.12115
1.12584
1.12134
1.1233
1.06628
1.06461
1.06405
1.06335
1.06269
1.06331
1.06156
1.06198
1.05985
1.06031
1.05807
1.05862
1.05644
1.05704
1.05493
1.05555
1.05367
1.0542
1.05262
1.053
1.05197
1.05146
1.05148
1.05082
1.05061
1.05057
1.05004
1.05017
1.04986
1.05016
1.0481
1.04804
1.04799
1.04789
1.04793
1.04789
1.04785
1.04785
1.0478
1.04781
1.04775
1.04778
1.04772
1.04776
1.0477
1.04773
1.04768
1.04772
1.04767
1.04771
1.04765
1.0477
1.04764
1.0477
1.04764
1.04769
1.04764
1.04769
1.04766
1.0479
1.04788
1.04767
1.04765
1.04768
1.04763
1.04769
1.04763
1.04769
1.04764
1.04769
1.04764
1.04769
1.04764
1.04768
1.04763
1.04768
1.04763
1.04768
1.04764
1.04769
1.04764
1.04769
1.04764
1.04768
1.04763
1.04768
1.04763
1.04765
1.04769
1.04784
1.04785
1.04769
1.04763
1.04768
1.04763
1.04769
1.04763
1.04769
1.04764
1.04769
1.04764
1.04769
1.04764
1.04768
1.04763
1.04768
1.04764
1.04768
1.04764
1.04769
1.04764
1.04769
1.04764
1.04769
1.04763
1.04768
1.04763
1.04765
1.04769
1.04784
1.04786
1.0477
1.04768
1.04763
1.04769
1.04764
1.04769
1.04764
1.04769
1.04764
1.04769
1.04764
1.04769
1.04764
1.04768
1.04764
1.04768
1.04763
1.04767
1.04765
1.04764
1.04768
1.04763
1.04769
1.04763
1.04769
1.04763
1.04769
1.04766
1.0479
1.04785
1.04769
1.04763
1.04768
1.04763
1.04769
1.04764
1.04769
1.04764
1.04769
1.04764
1.04769
1.04764
1.04768
1.04763
1.04768
1.04763
1.04768
1.04764
1.04769
1.04764
1.04768
1.04763
1.04768
1.04763
1.04767
1.04763
1.04765
1.04769
1.04784
1.0479
1.04767
1.04768
1.04768
1.04764
1.04769
1.04764
1.0477
1.04764
1.0477
1.04764
1.04769
1.04763
1.04768
1.04764
1.04764
1.04768
1.04763
1.04769
1.04763
1.04769
1.04764
1.04769
1.04763
1.04769
1.04763
1.04768
1.04767
1.04767
1.04789
1.04784
1.04769
1.04763
1.04768
1.04763
1.04768
1.04763
1.04769
1.04763
1.04769
1.04763
1.04769
1.04763
1.04768
1.04763
1.04768
1.04762
1.04767
1.04763
1.04769
1.04763
1.04768
1.04763
1.04768
1.04762
1.04767
1.04763
1.04765
1.0477
1.04784
0.360722
0.335882
0.323748
0.31615
0.280914
0.246304
0.241044
0.250522
0.268924
0.284613
0.317038
0.38222
0.786706
1.74343
1.28326
0.324811
0.227622
0.218678
0.214667
0.214963
0.212574
0.218001
0.217299
0.215566
0.214659
0.207282
0.205542
0.202955
0.203464
0.204515
0.206445
0.212343
0.217769
0.222275
0.237893
0.241341
0.263029
0.27356
0.897002
1.56422
1.72833
1.76134
1.73693
1.60129
1.74984
1.61296
1.46583
1.40099
1.38561
1.43533
1.49016
1.35678
1.0032
0.507869
0.289427
0.327298
0.278111
0.26907
0.265431
0.273118
0.289632
0.289625
0.2558
0.671904
1.22407
1.39116
1.35641
1.394
1.59554
1.83031
2.0271
2.17266
2.22946
2.1446
1.2195
1.07498
1.0185
1.01907
1.09842
1.14306
1.17094
1.1883
1.17929
1.16735
1.09557
1.04364
0.999951
1.02394
1.09937
1.21043
1.3097
1.37439
1.40438
1.41366
1.41272
1.40091
1.41831
1.42046
1.43059
1.44253
1.45425
1.46283
1.48018
1.48401
1.07082
1.00168
0.992212
0.994288
1.0196
1.05595
1.08914
1.1036
1.12046
1.12222
1.13318
1.12801
1.13736
1.12732
1.13649
1.11987
1.13133
1.10901
1.11971
1.10633
1.10107
1.10484
1.09428
1.09698
1.09077
1.09162
1.08783
1.08963
1.0873
1.09051
1.02493
1.02693
1.02729
1.02899
1.02812
1.02744
1.02841
1.02675
1.02748
1.0256
1.02607
1.02432
1.02455
1.02311
1.02308
1.02206
1.02155
1.02101
1.0205
1.01991
1.01976
1.01898
1.01901
1.01833
1.01837
1.01786
1.01788
1.0175
1.01771
1.01937
1.0177
1.01561
1.01558
1.01554
1.0155
1.01553
1.01544
1.01546
1.01539
1.01541
1.01534
1.01537
1.01532
1.01534
1.01529
1.01532
1.01527
1.0153
1.01526
1.01529
1.01524
1.01528
1.01524
1.01528
1.01524
1.01527
1.01524
1.01527
1.01536
1.01728
1.01726
1.01537
1.01525
1.01526
1.01523
1.01526
1.01524
1.01526
1.01524
1.01526
1.01524
1.01526
1.01524
1.01526
1.01523
1.01525
1.01524
1.01526
1.01524
1.01527
1.01524
1.01526
1.01523
1.01526
1.01523
1.01525
1.01523
1.01525
1.01537
1.01727
1.01728
1.01537
1.01523
1.01525
1.01523
1.01526
1.01524
1.01526
1.01524
1.01526
1.01524
1.01526
1.01524
1.01525
1.01523
1.01526
1.01524
1.01526
1.01524
1.01527
1.01524
1.01526
1.01523
1.01526
1.01523
1.01525
1.01523
1.01525
1.01537
1.01727
1.01729
1.01539
1.01526
1.01523
1.01526
1.01524
1.01527
1.01524
1.01527
1.01525
1.01527
1.01525
1.01526
1.01524
1.01526
1.01524
1.01526
1.01523
1.01525
1.01525
1.01525
1.01526
1.01523
1.01526
1.01524
1.01526
1.01523
1.01526
1.01536
1.01727
1.01728
1.01537
1.01523
1.01525
1.01523
1.01526
1.01524
1.01526
1.01524
1.01526
1.01525
1.01526
1.01524
1.01526
1.01524
1.01525
1.01524
1.01526
1.01524
1.01526
1.01524
1.01526
1.01523
1.01526
1.01523
1.01525
1.01523
1.01525
1.01537
1.01727
1.01727
1.01537
1.01526
1.01526
1.01525
1.01526
1.01524
1.01526
1.01524
1.01526
1.01524
1.01526
1.01524
1.01525
1.01524
1.01524
1.01525
1.01523
1.01526
1.01524
1.01526
1.01524
1.01526
1.01524
1.01526
1.01523
1.01525
1.01526
1.01537
1.01727
1.01728
1.01537
1.01523
1.01525
1.01523
1.01526
1.01523
1.01526
1.01524
1.01526
1.01524
1.01526
1.01523
1.01525
1.01522
1.01525
1.01523
1.01524
1.01523
1.01525
1.01523
1.01526
1.01523
1.01525
1.01523
1.01526
1.01523
1.01525
1.01538
1.01728
0.300694
0.270929
0.262728
0.2527
0.238171
0.230971
0.228904
0.234777
0.243936
0.255393
0.284114
0.307018
0.393723
1.50942
1.12823
0.272819
0.225145
0.214292
0.21318
0.212504
0.215386
0.213963
0.214571
0.213089
0.207383
0.205388
0.200034
0.198694
0.197641
0.198882
0.202424
0.205991
0.211744
0.223646
0.222885
0.24028
0.242654
0.256331
0.253793
0.814034
1.56459
1.77528
1.778
1.65995
1.75224
1.57644
1.43101
1.38398
1.39567
1.46014
1.35388
0.995732
0.534418
0.338604
0.28457
0.276459
0.270294
0.266419
0.264723
0.282522
0.289584
0.284549
0.272796
0.265655
0.259847
0.679796
1.24126
1.33661
1.38646
1.56185
1.79413
2.00312
2.15979
2.17476
1.1937
1.04416
1.03488
1.05399
1.08715
1.115
1.162
1.20503
1.2147
1.21407
1.13799
1.08179
1.0034
0.982727
0.994219
1.06502
1.15663
1.24161
1.29553
1.32037
1.3395
1.32531
1.32263
1.34938
1.34552
1.36971
1.38095
1.39528
1.41275
1.43246
0.995513
0.974153
0.953769
0.925101
0.928232
0.957832
0.99426
1.02812
1.04124
1.05694
1.05861
1.0676
1.06503
1.07013
1.06455
1.06589
1.06309
1.05364
1.05346
1.04916
1.04033
1.04431
1.03467
1.03791
1.03096
1.03127
1.03107
1.02958
1.03315
1.0325
0.968911
0.969376
0.972989
0.97216
0.973568
0.973126
0.97214
0.973207
0.971049
0.971951
0.969828
0.970507
0.968545
0.969169
0.967188
0.967946
0.965907
0.966845
0.964873
0.965772
0.96408
0.964847
0.963454
0.964059
0.963085
0.963194
0.963039
0.962709
0.962828
0.962172
0.960309
0.961076
0.961011
0.960973
0.961013
0.960929
0.96094
0.960882
0.960882
0.960844
0.960835
0.960805
0.9608
0.960787
0.96077
0.960777
0.960745
0.960758
0.960728
0.960734
0.960711
0.960725
0.960708
0.960718
0.960699
0.960706
0.960691
0.960703
0.960673
0.960129
0.960114
0.960692
0.960701
0.960695
0.960678
0.960705
0.960691
0.960714
0.960697
0.960722
0.960701
0.96072
0.960703
0.96072
0.960705
0.960718
0.960704
0.960719
0.960703
0.96072
0.960697
0.960714
0.960692
0.960709
0.960682
0.960696
0.960682
0.960695
0.960684
0.960141
0.960145
0.96068
0.960677
0.960693
0.960681
0.960707
0.960692
0.960716
0.960698
0.960721
0.960701
0.96072
0.960705
0.960717
0.960702
0.960716
0.960706
0.960719
0.960703
0.960721
0.960698
0.960714
0.960692
0.960709
0.960681
0.960697
0.960683
0.960693
0.960684
0.960141
0.960162
0.960702
0.960693
0.960677
0.960698
0.960688
0.960712
0.960698
0.960718
0.960701
0.960724
0.960705
0.960721
0.960707
0.96072
0.960706
0.960718
0.960703
0.960709
0.960714
0.960703
0.96071
0.960693
0.96071
0.960687
0.960701
0.960682
0.960705
0.960677
0.960118
0.960152
0.960683
0.960677
0.960693
0.960681
0.960707
0.960694
0.960718
0.960699
0.960721
0.960702
0.96072
0.960704
0.96072
0.960706
0.960717
0.960705
0.960721
0.960702
0.960718
0.960695
0.960712
0.960691
0.960705
0.960682
0.960697
0.960688
0.96069
0.960684
0.960141
0.960119
0.960687
0.960703
0.960705
0.960688
0.960708
0.960691
0.960715
0.960695
0.960717
0.960699
0.960722
0.960701
0.960718
0.960709
0.960711
0.960713
0.960701
0.960721
0.960699
0.96072
0.960693
0.960712
0.960691
0.960705
0.960681
0.960695
0.960711
0.960689
0.960115
0.960152
0.960682
0.960676
0.960695
0.960678
0.960707
0.960687
0.960717
0.960692
0.960721
0.960701
0.960726
0.960703
0.960718
0.960705
0.960719
0.960709
0.960723
0.960702
0.960721
0.960701
0.960719
0.960695
0.960714
0.960687
0.960706
0.960694
0.960699
0.960695
0.960158
0.252457
0.243213
0.23795
0.231566
0.227445
0.224032
0.224155
0.225931
0.230836
0.247645
0.276239
0.320078
0.547642
1.55076
0.792977
0.280652
0.225493
0.216422
0.213001
0.217553
0.22474
0.222371
0.217185
0.213037
0.210018
0.204876
0.200551
0.198419
0.196119
0.196919
0.198575
0.203121
0.209491
0.215118
0.225493
0.228099
0.241724
0.240513
0.246607
0.267378
0.722488
1.52435
1.77718
1.68962
1.78418
1.559
1.43032
1.396
1.44429
1.29805
1.02075
0.59404
0.350566
0.259006
0.244954
0.248705
0.254774
0.252359
0.260933
0.264353
0.273409
0.275022
0.268845
0.262453
0.247473
0.256415
0.490605
1.04193
1.27949
1.3613
1.52724
1.7497
2.03213
2.16573
1.13715
1.10548
1.04261
1.08298
1.06829
1.13242
1.17654
1.19641
1.21954
1.22509
1.1391
1.08529
1.01098
0.97404
0.955797
0.979564
1.03572
1.10905
1.17436
1.21733
1.2443
1.23988
1.24843
1.26247
1.26282
1.29178
1.29814
1.33801
1.36089
1.40797
0.985619
0.999768
0.965695
0.92255
0.879088
0.883066
0.915499
0.947107
0.972471
0.978876
0.993476
0.992426
1.00225
0.998574
1.00484
0.998774
1.00344
0.993454
0.998317
0.987944
0.988976
0.983994
0.984265
0.978115
0.982711
0.975498
0.982018
0.977875
0.984975
0.984705
0.901378
0.913104
0.914325
0.920175
0.920377
0.92215
0.921237
0.9217
0.921944
0.920931
0.921155
0.91982
0.920265
0.918781
0.919192
0.918026
0.917319
0.917621
0.916096
0.916757
0.91544
0.915816
0.914978
0.915067
0.914623
0.914559
0.914293
0.914416
0.914114
0.913931
0.912144
0.912457
0.912549
0.912427
0.912434
0.912422
0.912327
0.91235
0.912276
0.912278
0.912229
0.912222
0.912189
0.912181
0.912172
0.91216
0.912161
0.912142
0.91214
0.912122
0.912117
0.912122
0.912113
0.912123
0.912119
0.912136
0.912146
0.912181
0.91218
0.911641
0.911632
0.912189
0.912182
0.912147
0.912118
0.912117
0.912102
0.912113
0.912108
0.912115
0.912107
0.91211
0.912107
0.91211
0.912107
0.91211
0.912107
0.91211
0.912106
0.912112
0.912107
0.912115
0.912101
0.912109
0.912102
0.912125
0.912137
0.912177
0.91218
0.911653
0.911653
0.912178
0.912167
0.912143
0.912119
0.912118
0.912103
0.912117
0.912108
0.912114
0.912106
0.912111
0.912109
0.912111
0.912108
0.912111
0.912108
0.912111
0.912107
0.912112
0.912107
0.912115
0.912101
0.912112
0.912102
0.912126
0.912138
0.912177
0.91218
0.911653
0.91167
0.912194
0.912175
0.912138
0.912127
0.912113
0.912115
0.912107
0.912119
0.912112
0.912115
0.912109
0.912113
0.912111
0.912113
0.912107
0.912112
0.912101
0.912101
0.912106
0.912108
0.91211
0.912099
0.91211
0.912108
0.912127
0.912141
0.912183
0.912185
0.911634
0.911661
0.912183
0.912165
0.912142
0.912119
0.912119
0.912104
0.912115
0.912109
0.912115
0.912106
0.912111
0.912108
0.91211
0.912108
0.912109
0.912107
0.91211
0.912105
0.91211
0.912104
0.912111
0.912099
0.912108
0.912102
0.912126
0.912144
0.912175
0.912179
0.911654
0.911634
0.912185
0.912176
0.912153
0.912127
0.912121
0.912104
0.912112
0.912104
0.912114
0.912105
0.912112
0.912107
0.912109
0.912109
0.912109
0.912108
0.912105
0.91211
0.912104
0.912111
0.912106
0.91211
0.912101
0.912117
0.912117
0.912139
0.912182
0.912189
0.911633
0.911654
0.912182
0.912168
0.912146
0.912119
0.912117
0.912102
0.912113
0.912104
0.912111
0.912108
0.91211
0.912102
0.912108
0.912099
0.912106
0.912105
0.91211
0.912104
0.912108
0.912102
0.912108
0.912103
0.912114
0.912112
0.91214
0.912172
0.912247
0.912364
0.911833
0.232914
0.227394
0.223174
0.220209
0.219844
0.219065
0.217123
0.216826
0.216794
0.23175
0.290827
0.366252
0.44924
0.979874
0.429525
0.327234
0.287415
0.270427
0.244247
0.220112
0.218582
0.237313
0.25246
0.24891
0.235824
0.220352
0.213795
0.208964
0.204076
0.19924
0.196604
0.194215
0.195798
0.199779
0.205919
0.210276
0.217232
0.227926
0.230278
0.239715
0.236113
0.239734
0.259988
0.727345
1.52064
1.70292
1.66985
1.70778
1.73074
1.56014
1.47159
1.46294
1.47723
0.874734
0.583747
0.350238
0.260538
0.242622
0.239319
0.231241
0.240312
0.242767
0.238115
0.250047
0.252116
0.259458
0.265626
0.249234
0.248258
0.251335
0.26345
0.553822
1.08974
1.2854
1.33402
1.4574
1.63641
1.63865
0.95474
1.08066
1.20382
1.14177
1.24006
1.12993
1.21959
1.13627
1.18346
1.17395
1.19235
1.17056
1.10299
1.05343
0.997307
0.96446
0.94527
0.942341
0.965165
1.00774
1.06282
1.10883
1.14482
1.13567
1.16723
1.15781
1.16497
1.1942
1.19302
1.22958
1.22288
1.21457
1.03531
1.09696
1.08111
1.03315
0.995804
0.924013
0.869635
0.843394
0.858284
0.881613
0.900773
0.909477
0.916754
0.921324
0.923192
0.927847
0.924249
0.929776
0.921986
0.925481
0.919442
0.9154
0.9159
0.90651
0.911662
0.901705
0.906625
0.899853
0.903113
0.903413
0.90186
0.908826
0.881331
0.873728
0.851388
0.847105
0.852484
0.851899
0.85353
0.853142
0.853057
0.852751
0.850969
0.852571
0.850022
0.850572
0.849358
0.849275
0.847935
0.848518
0.84689
0.847501
0.846129
0.846522
0.84546
0.845825
0.844824
0.845209
0.844418
0.844767
0.84407
0.844451
0.843747
0.841684
0.838842
0.838952
0.840141
0.842814
0.842785
0.842833
0.842738
0.842691
0.842662
0.842598
0.842617
0.842565
0.842557
0.842527
0.842511
0.842486
0.84247
0.842478
0.842453
0.842459
0.842441
0.842448
0.842435
0.842437
0.842432
0.842438
0.842442
0.842458
0.842465
0.842466
0.842275
0.83983
0.83766
0.837661
0.839831
0.842288
0.842472
0.842465
0.842449
0.842438
0.842426
0.842423
0.842424
0.842429
0.842421
0.842422
0.842417
0.842418
0.842418
0.842418
0.842417
0.84242
0.842419
0.842426
0.842423
0.842425
0.842421
0.842426
0.842432
0.842448
0.842464
0.842463
0.84228
0.839839
0.83766
0.837659
0.839839
0.842272
0.842457
0.842464
0.84245
0.842438
0.842426
0.842427
0.842425
0.842429
0.842423
0.842423
0.842419
0.842418
0.842419
0.842419
0.842418
0.842421
0.842419
0.842426
0.842423
0.842425
0.842421
0.842426
0.842432
0.842448
0.842464
0.842462
0.84228
0.839842
0.83766
0.83766
0.83985
0.842289
0.842459
0.842458
0.842451
0.842438
0.842429
0.842425
0.842427
0.842426
0.842428
0.84242
0.84242
0.842418
0.842418
0.842414
0.842417
0.842413
0.842414
0.842423
0.842425
0.84242
0.842421
0.842427
0.842436
0.842451
0.842463
0.842463
0.842277
0.839827
0.83766
0.83766
0.839845
0.842276
0.842453
0.842464
0.842451
0.842442
0.842427
0.842428
0.842425
0.84243
0.842423
0.842423
0.842419
0.842419
0.842419
0.842417
0.842417
0.842419
0.842418
0.842424
0.842421
0.842423
0.842417
0.842424
0.842433
0.842447
0.842468
0.84246
0.842279
0.839841
0.837661
0.83766
0.839828
0.842286
0.842465
0.842472
0.842455
0.842439
0.842426
0.842423
0.842425
0.842425
0.842421
0.842422
0.842418
0.842417
0.84242
0.842417
0.842417
0.842417
0.842421
0.842421
0.842428
0.842424
0.842424
0.842426
0.842438
0.84245
0.842461
0.84247
0.842285
0.839828
0.837664
0.837664
0.839843
0.842276
0.842457
0.842467
0.842452
0.842442
0.842424
0.842429
0.842428
0.842433
0.842433
0.842434
0.842431
0.842426
0.842422
0.842421
0.842418
0.842419
0.84242
0.842425
0.842424
0.842432
0.842428
0.842443
0.842445
0.84246
0.842479
0.84247
0.842285
0.839856
0.837797
0.839621
0.219745
0.215511
0.213068
0.212836
0.214992
0.214767
0.210256
0.208602
0.208257
0.212419
0.23319
0.31835
0.430307
0.462901
0.380715
0.316083
0.295338
0.274433
0.236686
0.226865
0.240059
0.261101
0.261511
0.257615
0.248711
0.238382
0.224745
0.213491
0.208197
0.202174
0.198118
0.196243
0.19606
0.198304
0.20171
0.206539
0.213764
0.216961
0.227599
0.228631
0.229891
0.231204
0.232017
0.255714
0.616141
1.21197
1.50556
1.5543
1.59328
1.53212
1.47129
1.43676
1.29028
0.440205
0.334726
0.297911
0.256692
0.236372
0.228039
0.229275
0.224301
0.222662
0.229396
0.224445
0.23499
0.235415
0.241064
0.24422
0.246543
0.261162
0.26082
0.284649
0.87166
1.21902
1.26948
1.2615