/*--------------------------------*- C++ -*----------------------------------*\
| =========                 |                                                 |
| \\      /  F ield         | OpenFOAM: The Open Source CFD Toolbox           |
|  \\    /   O peration     | Version:  2.1.1                                 |
|   \\  /    A nd           | Web:      www.OpenFOAM.org                      |
|    \\/     M anipulation  |                                                 |
\*---------------------------------------------------------------------------*/
FoamFile
{
    version     2.0;
    format      ascii;
    class       volScalarField;
    location    "0.002000000";
    object      rhoUnburned;
}
// * * * * * * * * * * * * * * * * * * * * * * * * * * * * * * * * * * * * * //

dimensions      [1 -3 0 0 0 0 0];

internalField   nonuniform List<scalar> 
12384
(
1.91297
1.92017
1.93281
1.93067
1.76076
2.12133
1.68826
1.51131
1.63484
1.6043
1.66219
1.60906
1.62805
1.63153
1.38532
1.43121
1.46888
1.47804
1.51333
1.51899
1.77735
1.78488
1.76467
1.78526
1.776
1.69846
1.62099
1.6037
1.52031
1.51225
1.47431
1.48036
1.4921
1.53128
1.53262
1.53006
1.45584
1.39198
1.33289
1.32883
1.31543
1.41013
1.4141
1.48393
1.55151
1.55766
1.57013
1.59137
1.52882
1.53109
1.48588
1.55479
1.50265
1.56324
1.56535
1.5739
1.56132
1.58456
1.63432
1.60931
1.65834
1.66925
1.75899
1.7098
1.82032
1.89598
1.91027
1.91625
1.88514
1.85583
1.79647
1.8047
1.79037
1.79344
1.22829
1.24284
1.26096
1.27967
1.30297
1.34511
1.37024
1.40217
1.43303
1.45442
1.45466
1.44924
1.42057
1.37817
1.33018
1.29078
1.25185
1.23914
1.23472
1.22395
1.22628
1.22047
1.22052
1.21664
1.22012
1.21768
1.22725
1.2321
1.23721
1.24055
1.02438
1.028
1.02668
1.02597
1.02366
1.02105
1.01789
1.01491
1.00844
1.00393
1.00359
0.98911
0.987301
0.980076
0.975508
0.962305
0.966972
0.954617
0.955474
0.947522
0.947716
0.940064
0.941103
0.933133
0.935848
0.928239
0.931117
0.925992
0.927031
0.926543
0.880078
0.879155
0.879242
0.878759
0.878273
0.878136
0.876932
0.877052
0.875326
0.875728
0.873849
0.874378
0.872515
0.873103
0.871359
0.87194
0.870313
0.870877
0.869386
0.869932
0.868663
0.869107
0.868132
0.868409
0.867724
0.867889
0.867402
0.867593
0.867256
0.867109
0.865317
0.865612
0.865621
0.865616
0.865616
0.8656
0.865617
0.8656
0.865619
0.865606
0.865611
0.865618
0.86562
0.865642
0.865632
0.865642
0.865613
0.865597
0.865557
0.865548
0.865524
0.865513
0.865498
0.865493
0.865477
0.865469
0.865459
0.865453
0.865437
0.86514
0.865141
0.865436
0.865452
0.865466
0.865471
0.865487
0.865496
0.865508
0.865515
0.865525
0.865533
0.865548
0.865569
0.865588
0.865601
0.865601
0.865587
0.865571
0.865544
0.865536
0.865525
0.865514
0.865505
0.865496
0.865483
0.865474
0.865465
0.865454
0.86544
0.865144
0.865141
0.865438
0.865449
0.865462
0.865468
0.865484
0.865492
0.865504
0.865509
0.865522
0.865529
0.865545
0.865569
0.865589
0.865601
0.865601
0.865588
0.865571
0.865546
0.865536
0.865525
0.865514
0.865504
0.865495
0.865483
0.86547
0.865464
0.865454
0.86544
0.865144
0.865141
0.865433
0.865453
0.865465
0.865471
0.865485
0.865499
0.865504
0.865516
0.865526
0.865536
0.865546
0.865568
0.865586
0.865598
0.865601
0.865592
0.865573
0.865546
0.86553
0.865523
0.86551
0.865497
0.865489
0.865478
0.865464
0.865458
0.865449
0.865433
0.86514
0.865145
0.86544
0.865452
0.865466
0.86547
0.865486
0.865493
0.865506
0.86551
0.865523
0.86553
0.865545
0.865567
0.865586
0.8656
0.865602
0.865589
0.865571
0.865545
0.865535
0.865524
0.865512
0.865503
0.865493
0.865481
0.865469
0.865464
0.865454
0.865441
0.865141
0.865142
0.865437
0.865455
0.865466
0.865463
0.865483
0.865491
0.865501
0.865513
0.865524
0.865533
0.865548
0.865566
0.865586
0.865598
0.865595
0.865587
0.865568
0.865544
0.865529
0.865525
0.865509
0.865501
0.865488
0.865483
0.865468
0.865464
0.86545
0.865438
0.865141
0.865137
0.865438
0.865446
0.865464
0.865469
0.865484
0.86549
0.865502
0.865509
0.865518
0.865526
0.86554
0.865559
0.865579
0.865587
0.865593
0.865579
0.865565
0.865548
0.865536
0.865523
0.865512
0.865496
0.86549
0.865478
0.865466
0.865458
0.865454
0.865434
0.865136
1.92257
1.96424
2.00319
2.00992
2.05661
2.33179
1.72179
1.68289
1.75557
1.78821
1.76181
1.75357
1.66402
1.62744
1.44912
1.52095
1.52524
1.57207
1.77275
2.12596
2.21199
2.23066
1.90431
1.97147
1.92713
2.06633
2.07014
2.01743
1.97966
1.92392
1.78762
1.67747
1.57782
1.54623
1.59188
1.58702
1.57984
1.51086
1.47473
1.38702
1.41833
1.36156
1.46011
1.48081
1.57729
1.64578
1.64293
1.61119
1.50917
1.45349
1.37309
1.3594
1.38142
1.37931
1.42581
1.4362
1.51349
1.50425
1.45018
1.41055
1.39668
1.41853
1.62285
1.682
1.93038
2.07542
2.15109
2.16369
2.08564
2.03712
1.92976
1.84232
1.79947
1.79599
1.32153
1.36437
1.39588
1.4006
1.40069
1.39843
1.42042
1.43367
1.45999
1.5039
1.54772
1.56658
1.57898
1.57762
1.54825
1.51011
1.46847
1.41319
1.38607
1.36444
1.33608
1.31279
1.28191
1.25842
1.24033
1.23405
1.23382
1.23694
1.24226
1.24443
1.15767
1.16731
1.16424
1.15997
1.15512
1.14595
1.13557
1.12293
1.1077
1.09383
1.07814
1.06493
1.04442
1.03513
1.0244
1.00552
1.00536
0.98639
0.98786
0.971323
0.973504
0.95865
0.961744
0.948684
0.951641
0.942576
0.942369
0.940457
0.938067
0.932074
0.898123
0.905048
0.904929
0.903379
0.901705
0.899897
0.898409
0.896863
0.895143
0.894395
0.892781
0.892462
0.891163
0.891177
0.890039
0.88988
0.888285
0.888028
0.886382
0.886401
0.88503
0.885099
0.883941
0.884071
0.883077
0.883235
0.882493
0.882784
0.882113
0.873396
0.871485
0.880991
0.881246
0.881568
0.881631
0.881761
0.882124
0.882187
0.882561
0.882622
0.882991
0.883057
0.883505
0.883714
0.884046
0.883998
0.883932
0.883404
0.88308
0.882632
0.882476
0.882078
0.882025
0.881696
0.881649
0.881337
0.881332
0.881065
0.880799
0.871164
0.87116
0.880872
0.881305
0.881387
0.881703
0.881752
0.88211
0.882164
0.882499
0.882554
0.882896
0.882979
0.883456
0.883714
0.884066
0.883966
0.883847
0.883352
0.883122
0.882762
0.882686
0.882326
0.882272
0.88192
0.88184
0.881514
0.881437
0.881226
0.880755
0.871475
0.871449
0.880668
0.881211
0.881272
0.88159
0.88164
0.881988
0.882037
0.882373
0.882437
0.88279
0.88291
0.88341
0.883708
0.884061
0.883956
0.883837
0.88336
0.883131
0.882772
0.882691
0.882327
0.882269
0.881915
0.881834
0.881508
0.881431
0.881224
0.88075
0.871477
0.871482
0.880761
0.881195
0.881501
0.881562
0.881891
0.881958
0.882298
0.882338
0.882672
0.882728
0.88307
0.883261
0.883747
0.883883
0.884071
0.883795
0.883493
0.882938
0.88267
0.882504
0.882135
0.882059
0.881719
0.881672
0.881354
0.881346
0.881061
0.880803
0.871157
0.871494
0.880706
0.881249
0.881312
0.881626
0.881675
0.882022
0.882074
0.882408
0.882466
0.882811
0.882918
0.883396
0.88368
0.884044
0.88397
0.883866
0.883385
0.883141
0.882773
0.882689
0.882319
0.882256
0.881899
0.881816
0.881489
0.881413
0.881226
0.880744
0.871471
0.871142
0.88085
0.881216
0.881292
0.881588
0.881648
0.882025
0.882095
0.882457
0.882536
0.882907
0.883003
0.883473
0.883717
0.884028
0.884029
0.883742
0.883464
0.882983
0.88288
0.882521
0.882453
0.882103
0.882041
0.881681
0.881636
0.881322
0.881247
0.880858
0.871142
0.871453
0.880722
0.881292
0.881351
0.881695
0.881731
0.882094
0.882122
0.882466
0.882481
0.88284
0.882913
0.883361
0.883616
0.884006
0.883963
0.883866
0.883398
0.883151
0.88279
0.882711
0.882334
0.882276
0.881908
0.881834
0.881495
0.881409
0.881223
0.880737
0.871462
1.96645
2.05914
2.08722
2.17943
2.22425
2.2835
2.10224
2.16832
2.17462
1.97521
1.91194
1.86607
1.82877
1.69932
1.55396
1.57765
1.88813
1.92252
2.08895
1.91071
1.89489
1.86723
1.95676
1.99161
1.9991
2.00538
1.93251
1.95569
1.9501
1.95502
1.9142
1.96469
1.98443
1.82382
1.61671
1.60893
1.6189
1.60199
1.57764
1.52802
1.5188
1.44473
1.47492
1.51448
1.64049
1.70192
1.6387
1.54636
1.41189
1.37724
1.31351
1.37028
1.41988
1.4961
1.48923
1.59693
1.6993
1.69259
1.65342
1.60265
1.43832
1.29748
1.30541
1.32769
1.5754
1.84198
2.10733
2.20258
2.20806
2.21627
2.14699
2.02354
1.87477
1.82721
1.40438
1.40925
1.37208
1.31598
1.2478
1.19767
1.18248
1.18579
1.20721
1.25129
1.32205
1.42518
1.5068
1.56132
1.59697
1.59971
1.58851
1.56774
1.53414
1.52994
1.53267
1.52571
1.52575
1.50933
1.48468
1.45737
1.42398
1.39726
1.37916
1.36961
1.26534
1.26383
1.26256
1.26457
1.26326
1.26376
1.25962
1.26017
1.25086
1.25217
1.2381
1.24152
1.2248
1.22006
1.21498
1.2002
1.20009
1.18787
1.18699
1.17722
1.17814
1.16735
1.16905
1.15799
1.15958
1.15129
1.14766
1.14619
1.14134
1.15057
1.10606
1.09503
1.09284
1.0932
1.0914
1.09136
1.08914
1.08903
1.08642
1.0865
1.08378
1.08389
1.08097
1.08098
1.07851
1.07891
1.07741
1.07811
1.07707
1.07744
1.07655
1.07677
1.07615
1.07634
1.07578
1.07614
1.0755
1.07586
1.07547
1.08768
1.08545
1.07333
1.07283
1.0725
1.07244
1.07214
1.07184
1.07157
1.0713
1.07103
1.07076
1.07049
1.07009
1.06966
1.06938
1.06927
1.06947
1.06993
1.07045
1.07079
1.07111
1.07139
1.0716
1.07178
1.07197
1.07213
1.07228
1.07249
1.07304
1.08522
1.0852
1.07288
1.07237
1.0721
1.0719
1.07171
1.07149
1.07129
1.07109
1.07088
1.07066
1.0704
1.06999
1.06952
1.06925
1.06922
1.06952
1.06996
1.0704
1.07065
1.07089
1.07112
1.07134
1.07154
1.07178
1.07196
1.07219
1.07238
1.07286
1.08522
1.08521
1.07299
1.07245
1.07219
1.07203
1.07183
1.07164
1.07143
1.07124
1.071
1.07078
1.07047
1.07003
1.06952
1.06925
1.06923
1.06952
1.06994
1.07038
1.07064
1.07088
1.07112
1.07134
1.07155
1.07179
1.07197
1.07219
1.07238
1.07287
1.08522
1.08522
1.07289
1.07234
1.07209
1.07189
1.07171
1.07149
1.07131
1.07111
1.07092
1.07069
1.07046
1.07006
1.06963
1.06931
1.06922
1.0694
1.06991
1.07046
1.07084
1.07101
1.07131
1.07155
1.07175
1.07195
1.07212
1.07227
1.07248
1.07302
1.08522
1.08521
1.07292
1.0724
1.07215
1.07199
1.0718
1.0716
1.07139
1.0712
1.07098
1.07076
1.07047
1.07005
1.06956
1.06927
1.06921
1.06949
1.06991
1.07037
1.07063
1.07088
1.07112
1.07135
1.07156
1.0718
1.07199
1.07222
1.07239
1.07288
1.08522
1.08521
1.07289
1.07238
1.07224
1.07203
1.07181
1.07157
1.07135
1.07112
1.07088
1.07064
1.07037
1.06997
1.06952
1.06923
1.06923
1.0695
1.06998
1.07039
1.07067
1.0709
1.07113
1.07134
1.07155
1.07178
1.07197
1.07217
1.07239
1.07286
1.0852
1.0852
1.07289
1.07234
1.07209
1.07192
1.07172
1.07154
1.07133
1.07116
1.07095
1.07074
1.07047
1.0701
1.06962
1.0693
1.06919
1.06946
1.06987
1.07033
1.07059
1.07085
1.07109
1.07132
1.07154
1.07179
1.07198
1.07221
1.07238
1.07286
1.08521
2.07454
2.16487
2.24342
2.29021
2.33133
2.40646
2.41845
2.41711
2.36918
2.44262
2.20495
1.94992
1.87256
1.81275
1.5755
1.84894
1.92622
1.871
1.82571
1.64
1.63012
1.55925
1.56191
1.67836
1.58431
1.53547
1.65308
1.62077
1.79351
1.70872
1.80789
1.87392
1.93558
1.95942
1.94403
1.91387
1.97282
1.68497
1.62103
1.58047
1.64352
1.55996
1.54025
1.54169
1.68398
1.69064
1.58145
1.46834
1.37771
1.36029
1.37235
1.44234
1.4919
1.51166
1.6653
1.98416
2.30556
2.26232
2.29771
2.12125
1.8014
1.58442
1.45025
1.28096
1.3588
1.43378
1.74939
1.95489
2.12565
2.15991
2.2272
2.18656
2.02782
1.90548
1.37065
1.28594
1.19322
1.09341
1.04969
1.05158
1.06318
1.03894
1.05256
1.05931
1.08558
1.1433
1.25772
1.37413
1.4653
1.52415
1.54453
1.5444
1.53392
1.51077
1.51602
1.52063
1.51968
1.52348
1.51577
1.51508
1.51486
1.51082
1.50768
1.50769
1.21847
1.19669
1.20425
1.21209
1.22165
1.22564
1.23143
1.23102
1.23467
1.23014
1.23251
1.22458
1.22677
1.21332
1.21717
1.20027
1.20096
1.18766
1.1894
1.1757
1.17858
1.16968
1.16686
1.16339
1.15806
1.15998
1.15088
1.15535
1.1497
1.15307
1.09404
1.09414
1.09519
1.09309
1.09343
1.09158
1.09177
1.08995
1.08997
1.08813
1.08805
1.08639
1.0862
1.08478
1.08449
1.08326
1.08313
1.08194
1.082
1.08079
1.08102
1.0798
1.08019
1.07916
1.07939
1.07891
1.07858
1.07861
1.07841
1.08042
1.07854
1.07631
1.07616
1.07618
1.07611
1.07612
1.07606
1.07604
1.07601
1.07598
1.07596
1.07593
1.07591
1.07588
1.07585
1.07584
1.07584
1.07585
1.07587
1.07587
1.07588
1.07589
1.0759
1.0759
1.07591
1.07591
1.07592
1.07593
1.07605
1.07817
1.07817
1.07606
1.07593
1.07591
1.0759
1.07589
1.07589
1.07588
1.07587
1.07586
1.07585
1.07584
1.07583
1.0758
1.07579
1.07579
1.07581
1.07582
1.07584
1.07585
1.07586
1.07587
1.07589
1.07589
1.0759
1.0759
1.07592
1.07594
1.07607
1.07813
1.07813
1.07607
1.07593
1.07591
1.07591
1.0759
1.0759
1.07588
1.07587
1.07586
1.07586
1.07584
1.07583
1.0758
1.07579
1.07579
1.07581
1.07582
1.07584
1.07585
1.07586
1.07587
1.07589
1.07589
1.0759
1.0759
1.07592
1.07594
1.07607
1.07813
1.07812
1.07607
1.07592
1.07592
1.0759
1.0759
1.07588
1.07589
1.07587
1.07587
1.07585
1.07585
1.07583
1.07581
1.07579
1.07579
1.0758
1.07583
1.07584
1.07586
1.07587
1.07587
1.07589
1.07589
1.07591
1.0759
1.07592
1.07592
1.07606
1.07817
1.07813
1.07607
1.07593
1.07591
1.07591
1.07589
1.07589
1.07588
1.07587
1.07586
1.07586
1.07584
1.07583
1.0758
1.07579
1.07579
1.07581
1.07582
1.07584
1.07585
1.07586
1.07587
1.07588
1.07589
1.0759
1.0759
1.07592
1.07594
1.07607
1.07813
1.07817
1.07606
1.07592
1.07591
1.07591
1.0759
1.0759
1.07588
1.07588
1.07586
1.07586
1.07584
1.07583
1.0758
1.07579
1.07579
1.0758
1.07583
1.07584
1.07586
1.07586
1.07587
1.07588
1.07589
1.07589
1.0759
1.07591
1.07592
1.07605
1.07817
1.07813
1.07606
1.07592
1.0759
1.0759
1.07589
1.07589
1.07587
1.07587
1.07586
1.07586
1.07584
1.07583
1.0758
1.07579
1.07578
1.0758
1.07581
1.07584
1.07584
1.07585
1.07586
1.07587
1.07588
1.0759
1.0759
1.07591
1.07593
1.07607
1.07813
2.17517
2.16255
2.20837
2.26768
2.26472
1.97605
2.05869
2.21282
2.2018
2.20465
2.4067
2.46043
1.97757
1.85197
1.57277
1.93991
1.77065
1.74474
1.70135
1.70851
1.54597
1.54736
1.51451
1.51568
1.54609
1.50612
1.51512
1.55957
1.62446
1.62949
1.65773
1.73231
1.8088
1.85397
1.83821
1.94705
1.70068
2.1292
1.68184
1.69286
1.67421
1.68217
1.63931
1.56462
1.72897
1.65381
1.51681
1.42374
1.3741
1.39929
1.44531
1.50903
1.5457
1.77554
2.40559
2.27072
2.41158
1.97214
1.89911
1.79286
2.3983
2.16771
1.85809
1.50145
1.39368
1.33661
1.44725
1.62076
1.89472
2.03918
2.17123
2.22009
2.17762
2.02233
1.28803
1.17459
1.05653
1.04152
1.03428
1.05193
1.10387
1.11192
1.10366
1.07561
1.04592
1.03034
1.06356
1.16007
1.27997
1.38211
1.44863
1.47717
1.48317
1.47902
1.46124
1.47207
1.47573
1.47639
1.48785
1.48419
1.49686
1.50207
1.50613
1.51367
1.14576
1.0984
1.09723
1.11417
1.13578
1.15403
1.16587
1.17768
1.17942
1.18564
1.18386
1.18608
1.18278
1.17839
1.17785
1.16695
1.16699
1.1532
1.15799
1.1445
1.14191
1.14232
1.13039
1.1361
1.12371
1.13068
1.12116
1.12586
1.12143
1.12322
1.06631
1.06466
1.06411
1.06323
1.06278
1.06321
1.06165
1.0619
1.05991
1.06025
1.05811
1.05859
1.05645
1.05704
1.05491
1.05556
1.05365
1.05422
1.05259
1.05303
1.05192
1.0515
1.05144
1.05085
1.05057
1.0506
1.05001
1.05018
1.04984
1.05016
1.04808
1.04804
1.04799
1.04789
1.04791
1.04789
1.04783
1.04786
1.04778
1.04782
1.04774
1.04779
1.04771
1.04776
1.04768
1.04774
1.04766
1.04772
1.04765
1.04771
1.04763
1.04771
1.04763
1.04771
1.04763
1.0477
1.04763
1.0477
1.04765
1.04791
1.04788
1.04767
1.04763
1.04769
1.04762
1.04769
1.04762
1.0477
1.04763
1.0477
1.04763
1.04769
1.04762
1.04769
1.04762
1.04768
1.04762
1.04769
1.04763
1.04769
1.04763
1.04769
1.04762
1.04769
1.04761
1.04768
1.04762
1.04765
1.04769
1.04782
1.04783
1.0477
1.04761
1.04769
1.04761
1.04769
1.04762
1.0477
1.04762
1.0477
1.04762
1.04769
1.04762
1.04769
1.04762
1.04768
1.04762
1.04769
1.04763
1.04769
1.04762
1.04769
1.04762
1.04769
1.04761
1.04768
1.04762
1.04765
1.04769
1.04782
1.04785
1.0477
1.04768
1.04762
1.04769
1.04762
1.0477
1.04763
1.0477
1.04763
1.0477
1.04763
1.04769
1.04763
1.04769
1.04762
1.04768
1.04762
1.04767
1.04764
1.04764
1.04769
1.04762
1.0477
1.04762
1.0477
1.04762
1.0477
1.04765
1.0479
1.04783
1.0477
1.04761
1.04769
1.04762
1.04769
1.04762
1.0477
1.04763
1.0477
1.04763
1.04769
1.04762
1.04769
1.04762
1.04768
1.04762
1.04768
1.04762
1.04769
1.04762
1.04769
1.04762
1.04768
1.04761
1.04768
1.04762
1.04764
1.04769
1.04782
1.04791
1.04767
1.04767
1.04769
1.04763
1.0477
1.04762
1.0477
1.04762
1.0477
1.04763
1.0477
1.04762
1.04769
1.04763
1.04763
1.04768
1.04762
1.04769
1.04762
1.0477
1.04762
1.0477
1.04762
1.04769
1.04762
1.04768
1.04767
1.04767
1.04789
1.04783
1.04769
1.04761
1.04769
1.04761
1.04769
1.04761
1.0477
1.04762
1.0477
1.04762
1.04769
1.04762
1.04768
1.04761
1.04768
1.04761
1.04768
1.04762
1.04769
1.04761
1.04769
1.04761
1.04769
1.04761
1.04768
1.04762
1.04764
1.04769
1.04783
1.60723
1.18832
1.11798
1.14403
1.03154
0.898021
1.14151
1.85721
2.0924
2.12684
2.16244
2.29839
2.37146
1.89118
1.63584
2.00683
1.77649
1.72548
1.69042
1.64392
1.66622
1.56165
1.55167
1.50046
1.46714
1.44988
1.45667
1.47676
1.50591
1.5148
1.54267
1.63218
1.69875
1.72491
1.86248
1.85168
1.98018
1.92238
2.08904
1.68002
1.7177
1.75617
1.73819
1.60105
1.75011
1.61174
1.46463
1.40068
1.38786
1.43909
1.49852
1.5855
2.03688
2.08593
2.05192
2.48171
2.11193
2.07456
2.09191
2.18556
2.34098
2.356
1.98745
2.26296
1.64916
1.40304
1.35017
1.39377
1.59798
1.83027
2.02617
2.17115
2.22827
2.1438
1.21961
1.07494
1.0185
1.01922
1.10099
1.14717
1.17365
1.19188
1.1827
1.16806
1.09454
1.04273
0.999964
1.02441
1.09962
1.21016
1.30928
1.37393
1.40428
1.41346
1.41259
1.40111
1.4184
1.42074
1.43067
1.44248
1.45416
1.46296
1.47961
1.48334
1.0698
1.00174
0.992676
0.994597
1.01917
1.05625
1.08843
1.10399
1.11992
1.1225
1.13283
1.12814
1.13728
1.12734
1.13649
1.11986
1.13148
1.10887
1.12004
1.10596
1.1016
1.10443
1.0947
1.09671
1.09105
1.09145
1.08806
1.08948
1.08746
1.09052
1.02515
1.02687
1.02725
1.02908
1.02802
1.02752
1.02827
1.02688
1.02738
1.0257
1.02598
1.02441
1.02448
1.02318
1.023
1.02213
1.02148
1.02108
1.02043
1.01997
1.01971
1.01903
1.01897
1.01836
1.01834
1.01788
1.01786
1.01752
1.01769
1.01939
1.01771
1.01559
1.0156
1.01552
1.01552
1.01553
1.01545
1.01546
1.0154
1.0154
1.01535
1.01536
1.01532
1.01533
1.0153
1.01531
1.01528
1.0153
1.01527
1.01528
1.01525
1.01528
1.01525
1.01527
1.01525
1.01527
1.01524
1.01527
1.01536
1.01728
1.01726
1.01537
1.01525
1.01526
1.01523
1.01526
1.01524
1.01526
1.01525
1.01526
1.01524
1.01526
1.01524
1.01525
1.01524
1.01525
1.01523
1.01526
1.01524
1.01526
1.01524
1.01526
1.01524
1.01526
1.01523
1.01525
1.01523
1.01525
1.01537
1.01728
1.01728
1.01537
1.01524
1.01525
1.01523
1.01526
1.01524
1.01527
1.01525
1.01526
1.01524
1.01526
1.01524
1.01525
1.01523
1.01525
1.01524
1.01526
1.01524
1.01526
1.01524
1.01526
1.01524
1.01526
1.01523
1.01525
1.01523
1.01525
1.01537
1.01728
1.01729
1.01539
1.01526
1.01523
1.01526
1.01524
1.01526
1.01525
1.01527
1.01525
1.01526
1.01525
1.01526
1.01524
1.01526
1.01524
1.01526
1.01523
1.01525
1.01525
1.01525
1.01526
1.01524
1.01526
1.01524
1.01526
1.01524
1.01527
1.01536
1.01727
1.01729
1.01537
1.01523
1.01525
1.01523
1.01526
1.01524
1.01527
1.01525
1.01526
1.01524
1.01526
1.01524
1.01525
1.01524
1.01525
1.01523
1.01526
1.01524
1.01526
1.01524
1.01526
1.01524
1.01526
1.01523
1.01525
1.01523
1.01525
1.01537
1.01728
1.01727
1.01537
1.01526
1.01526
1.01525
1.01526
1.01524
1.01527
1.01525
1.01526
1.01524
1.01526
1.01524
1.01525
1.01524
1.01524
1.01525
1.01524
1.01526
1.01524
1.01527
1.01525
1.01526
1.01524
1.01526
1.01523
1.01525
1.01527
1.01537
1.01726
1.01729
1.01537
1.01523
1.01525
1.01523
1.01526
1.01524
1.01526
1.01525
1.01526
1.01524
1.01526
1.01524
1.01525
1.01523
1.01525
1.01523
1.01524
1.01523
1.01525
1.01524
1.01525
1.01523
1.01525
1.01523
1.01525
1.01523
1.01525
1.01538
1.01729
0.907342
0.745778
0.720018
0.700298
0.698013
0.796703
1.27015
1.97818
2.02501
2.05179
2.11652
2.15318
2.23815
1.9207
1.77729
1.92658
1.77401
1.68071
1.68696
1.70475
1.67583
1.67468
1.58368
1.52691
1.49908
1.44798
1.45667
1.42043
1.41975
1.42296
1.45922
1.51545
1.59432
1.72066
1.72215
1.80042
1.61436
1.99242
1.793
2.0971
1.69296
1.75882
1.77322
1.65792
1.75287
1.57645
1.43183
1.38302
1.39744
1.47703
1.5764
2.05483
2.37315
2.38564
2.1354
2.13963
1.84056
1.94196
2.04198
1.65135
1.68748
2.31592
2.22255
2.10923
1.97819
1.9375
1.38622
1.33185
1.38534
1.5626
1.793
2.00183
2.15785
2.17552
1.19371
1.04685
1.03314
1.05574
1.08996
1.11219
1.16175
1.20672
1.22147
1.21889
1.13774
1.08069
1.00358
0.983064
0.994921
1.06497
1.15626
1.24118
1.29506
1.32036
1.33937
1.3255
1.32238
1.3498
1.34592
1.37049
1.38131
1.39548
1.41272
1.43167
0.997202
0.973085
0.953428
0.924767
0.928515
0.957406
0.994562
1.02746
1.04161
1.05627
1.05927
1.06701
1.06574
1.06957
1.06525
1.06539
1.06356
1.05322
1.05401
1.04862
1.04095
1.04379
1.03517
1.03754
1.03133
1.03101
1.03139
1.02933
1.03336
1.03241
0.969078
0.969373
0.9731
0.972098
0.97371
0.973
0.972308
0.973039
0.97119
0.97183
0.969918
0.970443
0.968583
0.969149
0.967184
0.967959
0.965872
0.966879
0.964826
0.96582
0.964016
0.964908
0.963384
0.964125
0.963009
0.963258
0.962971
0.962746
0.962778
0.962187
0.960293
0.961088
0.960986
0.960983
0.96099
0.960939
0.960922
0.960892
0.960867
0.960851
0.960823
0.96081
0.960787
0.960787
0.96076
0.960781
0.960732
0.960762
0.960716
0.960737
0.960702
0.960728
0.960696
0.96072
0.960687
0.960708
0.960679
0.960702
0.960665
0.960124
0.960109
0.960687
0.960694
0.960693
0.96067
0.960707
0.96068
0.960719
0.960689
0.960724
0.96069
0.960722
0.960695
0.960719
0.960697
0.960717
0.960697
0.960721
0.960695
0.960722
0.960686
0.960716
0.960681
0.960708
0.960671
0.960695
0.960671
0.960691
0.960679
0.960133
0.960137
0.960675
0.960669
0.960691
0.96067
0.960709
0.960681
0.960721
0.96069
0.960723
0.96069
0.960722
0.960697
0.960719
0.960697
0.960718
0.960698
0.960721
0.960692
0.960722
0.960687
0.960716
0.960681
0.960708
0.96067
0.960696
0.960672
0.960689
0.960679
0.960133
0.960157
0.960698
0.960691
0.960669
0.9607
0.960677
0.960714
0.960687
0.96072
0.96069
0.960726
0.960697
0.960723
0.960699
0.960719
0.960698
0.960717
0.960695
0.960704
0.960712
0.960696
0.960712
0.960682
0.960712
0.960676
0.960703
0.960668
0.960704
0.960669
0.960117
0.960144
0.960682
0.960669
0.960691
0.96067
0.960709
0.960683
0.96072
0.960691
0.960723
0.960691
0.960722
0.960696
0.960719
0.960698
0.960716
0.960697
0.96072
0.960694
0.96072
0.960684
0.960714
0.96068
0.960707
0.960671
0.960696
0.960677
0.960685
0.960679
0.960133
0.960121
0.96068
0.960698
0.960701
0.96068
0.960709
0.96068
0.960717
0.960687
0.960722
0.960688
0.960724
0.960693
0.960717
0.960701
0.960706
0.960715
0.960694
0.960722
0.960691
0.960719
0.960685
0.960717
0.96068
0.960707
0.960673
0.96069
0.960706
0.960688
0.960114
0.960141
0.960681
0.960668
0.960694
0.960667
0.960709
0.960676
0.960719
0.960681
0.960722
0.960687
0.960728
0.960695
0.96072
0.960694
0.960718
0.960698
0.960722
0.960694
0.960723
0.96069
0.960724
0.960684
0.960715
0.960673
0.960708
0.960687
0.960694
0.960691
0.960147
0.646826
0.626018
0.623488
0.649859
0.78823
1.34985
1.92851
1.93403
1.96029
2.02636
2.09258
2.19433
2.27431
1.85645
1.97869
1.96411
1.77884
1.7177
1.71123
1.77795
1.80825
1.75636
1.70633
1.60373
1.53973
1.50894
1.47528
1.44593
1.40412
1.39054
1.39442
1.44239
1.52216
1.6038
1.71622
1.76265
1.59662
1.48267
1.93722
1.95213
2.07376
1.67982
1.76459
1.69343
1.78573
1.5594
1.43312
1.39678
1.45109
1.71511
2.01845
2.24049
2.3997
1.99997
1.84359
1.73131
1.6821
1.67782
1.67952
1.73018
1.69017
1.64705
1.77361
2.05744
1.8784
1.91928
1.8933
1.3957
1.28173
1.36019
1.52588
1.74818
2.0314
2.1752
1.13687
1.10322
1.04335
1.08277
1.06564
1.12265
1.17612
1.19923
1.22336
1.22977
1.14048
1.08556
1.01128
0.974292
0.956695
0.979856
1.03541
1.10886
1.17374
1.21725
1.24387
1.24021
1.24878
1.26237
1.26263
1.29109
1.29849
1.33876
1.36144
1.41326
0.985377
0.999333
0.965227
0.922288
0.878651
0.883403
0.915348
0.947369
0.971788
0.979246
0.992808
0.993115
1.00152
0.999283
1.00406
0.999656
1.00264
0.994378
0.997628
0.98866
0.988509
0.984489
0.983887
0.978535
0.982476
0.975749
0.981997
0.977868
0.985102
0.984629
0.902027
0.912829
0.914423
0.920203
0.920323
0.922216
0.921087
0.921848
0.921792
0.921088
0.921019
0.919966
0.92013
0.918922
0.919071
0.918142
0.917231
0.917713
0.91601
0.916853
0.915347
0.915916
0.914894
0.915151
0.914552
0.914636
0.914236
0.914466
0.914074
0.913961
0.912224
0.912395
0.912598
0.912392
0.912468
0.912408
0.912351
0.91234
0.912292
0.912271
0.912237
0.912219
0.912195
0.912182
0.912181
0.912161
0.912167
0.912143
0.912146
0.912123
0.912123
0.912126
0.912121
0.912125
0.912127
0.912141
0.912152
0.912186
0.912185
0.911646
0.911634
0.912191
0.912187
0.912149
0.912126
0.912122
0.912107
0.912118
0.912113
0.912114
0.912112
0.91211
0.912112
0.912112
0.912112
0.912115
0.912112
0.912112
0.912111
0.912111
0.912112
0.912117
0.912109
0.912111
0.91211
0.91213
0.912142
0.912179
0.912186
0.911658
0.911656
0.91218
0.912172
0.912146
0.912127
0.912123
0.912108
0.912119
0.912113
0.912113
0.912111
0.91211
0.912114
0.912113
0.912113
0.912116
0.912113
0.912114
0.912112
0.912111
0.912112
0.912117
0.912109
0.912111
0.91211
0.912132
0.912143
0.912179
0.912185
0.911658
0.911675
0.912196
0.912177
0.912143
0.912132
0.912121
0.912117
0.912115
0.912121
0.912116
0.912114
0.912113
0.912115
0.912116
0.912118
0.912113
0.912117
0.912104
0.912109
0.912108
0.912112
0.912112
0.912107
0.912112
0.912116
0.912133
0.912146
0.912185
0.912187
0.911636
0.911666
0.912185
0.91217
0.912145
0.912127
0.912124
0.912109
0.91212
0.912114
0.912115
0.912111
0.912111
0.912113
0.912115
0.912113
0.912114
0.912113
0.912112
0.91211
0.91211
0.912109
0.912113
0.912108
0.91211
0.91211
0.912131
0.912147
0.912177
0.912185
0.911659
0.911639
0.91219
0.912182
0.912158
0.912132
0.912126
0.912109
0.912118
0.912112
0.912113
0.91211
0.912114
0.912112
0.912115
0.912114
0.912114
0.912113
0.91211
0.912113
0.912109
0.912111
0.912111
0.912116
0.912108
0.912122
0.912126
0.912144
0.912187
0.912194
0.911638
0.911659
0.912184
0.912173
0.912148
0.91213
0.912119
0.91211
0.912115
0.912112
0.91211
0.912116
0.912112
0.91211
0.912113
0.912107
0.912111
0.91211
0.912112
0.912106
0.91211
0.91211
0.91211
0.912108
0.912113
0.912114
0.912142
0.912174
0.912252
0.912373
0.911838
0.606863
0.611543
0.640352
0.75713
1.11486
1.88707
1.85381
1.84603
1.83387
1.92279
2.06562
2.18309
2.33222
2.18326
2.33008
2.0911
2.00847
1.9401
1.87203
1.76377
1.78019
1.85826
1.9049
1.87332
1.77829
1.78408
1.65686
1.60203
1.53567
1.48907
1.43041
1.37393
1.36579
1.39031
1.45432
1.51867
1.60373
1.72227
1.74072
1.61774
1.72344
1.90016
1.96115
2.14988
1.74941
1.71782
1.66538
1.71373
1.73071
1.56057
1.47388
1.48208
1.61171
2.35966
2.26728
2.26527
1.97658
1.94731
1.70207
1.61053
1.44605
1.39006
1.4526
1.48231
1.55052
1.52314
1.38456
1.48644
1.87342
1.85867
1.8953
1.9361
1.31566
1.28567
1.3329
1.45517
1.6299
1.63536
0.973818
1.0276
1.20118
1.12889
1.25462
1.12057
1.22306
1.13155
1.18521
1.17658
1.19294
1.1712
1.10512
1.05599
0.999054
0.965313
0.945744
0.942348
0.964771
1.00729
1.06216
1.1089
1.1443
1.136
1.16642
1.15872
1.16525
1.19491
1.194
1.22963
1.22243
1.20558
1.03884
1.09447
1.08253
1.03511
0.996855
0.92448
0.869973
0.843666
0.858732
0.881292
0.901081
0.909044
0.917131
0.92098
0.923666
0.927482
0.924668
0.929563
0.922154
0.925567
0.919266
0.915681
0.9156
0.90688
0.911408
0.901956
0.906519
0.89994
0.903175
0.903524
0.901863
0.908821
0.881098
0.873704
0.850995
0.847035
0.852545
0.851888
0.853612
0.853104
0.853081
0.852696
0.851021
0.852518
0.850046
0.850551
0.84938
0.849235
0.847971
0.848478
0.846909
0.847477
0.846128
0.846518
0.845443
0.845837
0.844799
0.84523
0.844382
0.84479
0.844037
0.844469
0.843724
0.841679
0.838846
0.83898
0.840087
0.842849
0.842743
0.842858
0.842706
0.842706
0.842641
0.842604
0.842607
0.842564
0.842551
0.842518
0.842506
0.842478
0.842467
0.842471
0.842448
0.842453
0.842435
0.842443
0.842429
0.842435
0.842425
0.842437
0.842438
0.842454
0.842458
0.842459
0.842271
0.839821
0.837674
0.837675
0.839821
0.842284
0.842462
0.842461
0.842439
0.842437
0.842419
0.842424
0.842414
0.842425
0.842412
0.842418
0.84241
0.842414
0.842411
0.842414
0.84241
0.842416
0.842412
0.842422
0.842414
0.842424
0.842414
0.842425
0.842426
0.842446
0.842457
0.842456
0.842273
0.839832
0.837673
0.837673
0.839832
0.842268
0.842447
0.842458
0.842443
0.842437
0.842419
0.842425
0.842415
0.842425
0.842413
0.842419
0.842412
0.842414
0.842412
0.842415
0.842411
0.842417
0.842412
0.842422
0.842414
0.842424
0.842414
0.842425
0.842425
0.842447
0.842457
0.842455
0.842273
0.839832
0.837673
0.837674
0.839843
0.842285
0.842452
0.842454
0.842449
0.842431
0.842428
0.842418
0.842426
0.842416
0.842424
0.842413
0.842416
0.842411
0.842414
0.84241
0.842413
0.842408
0.842408
0.842421
0.842416
0.842419
0.842411
0.842423
0.842426
0.84245
0.842453
0.842456
0.842272
0.839817
0.837673
0.837674
0.839838
0.842273
0.842446
0.842458
0.842444
0.842438
0.84242
0.842427
0.842415
0.842426
0.842413
0.842419
0.842412
0.842415
0.842412
0.842413
0.84241
0.842415
0.842411
0.84242
0.842412
0.842422
0.84241
0.842422
0.842426
0.842446
0.842458
0.842453
0.842272
0.839834
0.837674
0.837674
0.839821
0.842281
0.842456
0.842466
0.842446
0.842438
0.842419
0.842424
0.842416
0.842424
0.842412
0.842418
0.842411
0.842413
0.842413
0.842413
0.842413
0.84241
0.842417
0.842414
0.842425
0.842414
0.842425
0.842419
0.842437
0.842443
0.842457
0.842461
0.842281
0.839821
0.837678
0.837675
0.839833
0.842272
0.842447
0.842466
0.842442
0.84244
0.842414
0.842427
0.842419
0.842431
0.84242
0.84243
0.842421
0.842422
0.842415
0.842417
0.842411
0.842415
0.842413
0.842424
0.842415
0.84243
0.842418
0.842439
0.842436
0.842456
0.84247
0.842466
0.842278
0.839852
0.837813
0.839634
0.614032
0.628499
0.672484
0.784004
0.95644
1.1473
1.25837
1.47507
1.66251
1.73176
1.97009
2.04493
2.22925
2.37799
2.26769
2.08962
2.02636
1.97453
1.8424
1.82908
1.86959
1.92632
1.94086
1.9054
1.86866
1.79283
1.79139
1.74406
1.64565
1.56388
1.47078
1.40781
1.3751
1.37386
1.39444
1.44649
1.5322
1.58194
1.66841
1.76268
1.67268
1.77066
1.86141
2.00198
2.08623
1.74047
1.74935
1.79334
1.82272
1.76023
1.71172
1.74982
1.8973
2.46844
2.15425
2.15886
2.06441
1.84376
1.61753
1.45156
1.38869
1.36623
1.32042
1.35648
1.38441
1.43526
1.37608
1.30814
1.33786
1.90788
1.85407
2.00416
1.56745
1.23339
1.2697
1.26173
1.34357
1.42346
1.34959
1.33234
1.27167
1.29556
1.22058
1.25754
1.14517
1.18067
1.12862
1.11179
1.11179
1.07471
1.04017
1.00494
0.973787
0.948759
0.93811
0.929217
0.933883
0.950292
0.983026
1.01993
1.04953
1.05254
1.07393
1.0791
1.06521
1.1056
1.08605
1.12993
1.09393
1.16912
1.05334
1.06094
1.02335
1.00063
0.938227
0.885426
0.83437
0.81506
0.814231
0.827634
0.840841
0.84369
0.855341