/*--------------------------------*- C++ -*----------------------------------*\
| =========                 |                                                 |
| \\      /  F ield         | OpenFOAM: The Open Source CFD Toolbox           |
|  \\    /   O peration     | Version:  2.1.1                                 |
|   \\  /    A nd           | Web:      www.OpenFOAM.org                      |
|    \\/     M anipulation  |                                                 |
\*---------------------------------------------------------------------------*/
FoamFile
{
    version     2.0;
    format      ascii;
    class       volScalarField;
    location    "0.001850000";
    object      H2O2;
}
// * * * * * * * * * * * * * * * * * * * * * * * * * * * * * * * * * * * * * //

dimensions      [0 0 0 0 0 0 0];

internalField   nonuniform List<scalar> 
12384
(
3.63117e-07
3.56418e-07
3.52738e-07
3.41257e-07
6.99687e-08
5.67711e-09
2.07828e-10
1.16579e-10
4.7294e-11
4.63457e-12
1.7402e-13
3.62458e-15
7.30415e-17
1.48537e-18
9.77521e-15
1.2317e-12
1.41687e-11
6.39128e-11
5.02233e-10
2.14977e-09
3.70592e-09
4.62869e-09
4.15932e-09
3.75656e-09
3.37467e-09
2.24519e-09
2.53676e-09
1.66092e-09
5.04033e-10
1.27605e-10
2.84816e-11
9.38087e-12
3.17915e-12
2.23447e-13
1.75598e-15
1.11031e-17
6.04951e-20
2.50222e-22
8.11236e-25
2.15656e-27
5.61793e-30
1.73616e-32
1.59147e-32
1.01333e-30
3.49251e-33
3.79457e-31
1.02744e-29
2.78917e-29
3.61324e-29
3.0264e-29
1.60569e-29
1.83367e-29
3.25439e-29
4.98042e-29
7.84636e-29
1.04403e-28
1.63865e-28
2.45911e-28
1.06777e-28
1.19141e-29
1.18259e-32
4.7214e-36
1.94539e-39
8.47926e-43
3.94541e-46
1.57974e-49
5.62559e-53
2.37192e-56
1.05785e-59
4.93214e-63
2.24922e-66
9.97758e-70
4.07825e-73
1.64835e-76
2.60973e-94
2.03978e-95
3.25488e-98
3.62538e-101
3.63497e-103
2.38473e-105
4.49515e-108
4.32736e-111
2.70457e-114
8.48794e-118
2.58158e-121
7.95311e-125
2.40026e-128
7.39164e-132
2.29815e-135
7.20748e-139
2.22174e-142
7.01561e-146
2.11556e-149
6.62056e-153
1.98297e-156
5.96002e-160
2.32911e-163
9.15578e-167
3.43321e-170
1.09726e-173
1.55678e-179
3.24467e-185
1.04402e-190
3.37091e-196
3.48861e-210
1.34833e-212
2.07514e-217
1.59422e-222
9.29645e-228
4.5768e-233
1.97134e-238
7.74003e-244
2.73821e-249
8.92472e-255
2.65059e-260
6.73635e-266
1.53652e-271
3.22164e-277
6.26429e-283
1.15392e-288
1.98306e-294
3.25865e-300
5.01273e-306
7.47308e-312
1.0637e-317
1.4822e-323
0
0
0
0
0
0
0
0
0
0
0
0
0
0
0
0
0
0
0
0
0
0
0
0
0
0
0
0
0
0
0
0
0
0
0
0
0
0
0
0
0
0
0
0
0
0
0
0
0
0
0
0
0
0
0
0
0
0
0
0
0
0
0
0
0
0
0
0
0
0
0
0
0
0
0
0
0
0
0
0
0
0
0
0
0
0
0
0
0
0
0
0
0
0
0
0
0
0
0
0
0
0
0
0
0
0
0
0
0
0
0
0
0
0
0
0
0
0
0
0
0
0
0
0
0
0
0
0
0
0
0
0
0
0
0
0
0
0
0
0
0
0
0
0
0
0
0
0
0
0
0
0
0
0
0
0
0
0
0
0
0
0
0
0
0
0
0
0
0
0
0
0
0
0
0
0
0
0
0
0
0
0
0
0
0
0
0
0
0
0
0
0
0
0
0
0
0
0
0
0
0
0
0
0
0
0
0
0
0
0
0
0
0
0
0
0
0
0
0
0
0
0
0
0
0
0
0
0
0
0
0
0
0
0
0
0
0
0
0
0
0
0
0
0
0
0
0
0
3.56124e-07
3.4678e-07
3.28969e-07
3.44412e-07
6.15861e-08
8.42337e-09
1.73415e-09
1.05556e-09
3.7899e-10
5.43212e-11
5.15205e-12
1.83911e-13
5.89319e-15
8.85687e-17
5.8213e-13
5.63453e-11
9.35424e-10
3.67543e-09
1.5315e-08
2.75099e-08
4.23486e-08
5.10317e-08
5.08005e-08
4.84456e-08
4.57706e-08
3.21551e-08
3.25853e-08
2.08408e-08
9.71306e-09
5.17413e-09
1.67221e-09
3.14793e-10
6.71035e-11
4.49285e-12
2.65126e-14
3.3834e-17
2.06893e-19
3.97273e-22
1.76274e-24
1.1056e-26
6.05075e-29
2.10571e-30
3.07338e-30
1.89419e-28
7.05504e-31
3.41148e-29
7.81876e-28
2.92497e-27
1.35407e-26
3.90681e-26
4.10966e-26
4.60401e-26
7.50551e-26
1.01528e-25
1.63516e-25
1.60375e-25
4.59495e-25
1.4616e-24
7.81954e-25
4.55408e-26
1.506e-29
5.31882e-34
4.05441e-38
3.76506e-42
7.64987e-46
2.37518e-48
8.63248e-52
4.48346e-55
2.0112e-58
8.1005e-62
2.59921e-65
9.63741e-69
3.78712e-72
1.28451e-75
1.72575e-91
5.55989e-93
6.19258e-96
6.40763e-99
5.5526e-101
3.89086e-103
6.77287e-106
6.98537e-109
4.47384e-112
4.55319e-116
7.83729e-120
2.70098e-123
1.14419e-126
4.6181e-130
2.01434e-133
7.79318e-137
3.23895e-140
1.24621e-143
4.80215e-147
1.21424e-150
5.48581e-154
1.99995e-157
7.51741e-160
2.88546e-163
1.00186e-166
3.16133e-170
8.35494e-174
2.13512e-179
8.44468e-185
2.41869e-190
4.45373e-204
1.4519e-206
2.09267e-211
1.49565e-216
8.63633e-222
4.37893e-227
1.96537e-232
7.95893e-238
2.94627e-243
9.78432e-249
2.87793e-254
7.32586e-260
1.6717e-265
3.55019e-271
6.94518e-277
1.28364e-282
2.1563e-288
3.46e-294
5.1082e-300
7.24801e-306
9.79e-312
1.287e-317
1.4822e-323
0
0
0
0
0
0
0
0
0
0
0
0
0
0
0
0
0
0
0
0
0
0
0
0
0
0
0
0
0
0
0
0
0
0
0
0
0
0
0
0
0
0
0
0
0
0
0
0
0
0
0
0
0
0
0
0
0
0
0
0
0
0
0
0
0
0
0
0
0
0
0
0
0
0
0
0
0
0
0
0
0
0
0
0
0
0
0
0
0
0
0
0
0
0
0
0
0
0
0
0
0
0
0
0
0
0
0
0
0
0
0
0
0
0
0
0
0
0
0
0
0
0
0
0
0
0
0
0
0
0
0
0
0
0
0
0
0
0
0
0
0
0
0
0
0
0
0
0
0
0
0
0
0
0
0
0
0
0
0
0
0
0
0
0
0
0
0
0
0
0
0
0
0
0
0
0
0
0
0
0
0
0
0
0
0
0
0
0
0
0
0
0
0
0
0
0
0
0
0
0
0
0
0
0
0
0
0
0
0
0
0
0
0
0
0
0
0
0
0
0
0
0
0
0
0
0
0
0
0
0
0
0
0
0
0
0
0
0
0
0
0
0
0
0
0
0
0
2.75412e-07
1.61794e-07
1.0621e-07
1.15064e-07
5.67175e-09
1.81206e-09
1.45924e-09
1.05396e-09
6.39581e-10
2.44937e-10
4.34311e-11
1.19186e-12
1.01336e-13
3.83526e-15
8.90537e-12
3.70398e-09
4.62967e-08
7.81767e-08
2.03153e-07
3.28956e-07
3.67015e-07
3.65928e-07
3.5873e-07
3.47709e-07
3.52539e-07
3.51285e-07
3.28986e-07
2.46394e-07
1.81063e-07
1.74488e-07
3.86861e-08
1.22236e-08
4.25678e-09
1.65203e-09
2.89558e-10
8.73339e-14
2.19924e-17
3.42512e-21
3.54387e-24
1.90839e-25
3.88444e-27
6.67024e-28
7.1178e-28
3.68536e-26
2.49494e-29
3.75996e-27
9.47619e-25
2.57988e-23
1.0256e-22
3.17102e-23
5.41214e-24
3.96134e-24
4.8035e-24
1.41436e-23
2.8308e-23
2.35483e-23
2.2391e-23
3.19792e-23
1.43575e-23
4.14885e-24
5.29546e-26
5.22831e-28
1.01367e-31
1.77802e-36
2.58039e-41
2.17073e-45
8.00212e-50
1.51758e-54
2.21516e-58
2.76336e-61
2.40295e-64
1.42837e-67
5.10228e-71
3.76918e-74
3.41751e-89
6.23628e-90
2.27592e-92
5.50737e-95
5.87527e-97
5.54484e-99
8.24971e-102
4.46154e-105
1.55558e-108
1.96753e-113
4.33465e-117
1.05452e-120
2.39329e-124
5.66325e-128
1.23556e-131
3.2969e-135
9.53418e-139
2.65776e-142
8.13082e-146
1.41031e-150
6.95373e-153
2.02494e-156
1.36448e-158
4.89346e-162
2.41993e-165
1.08142e-168
6.05619e-172
2.19087e-175
2.67725e-180
1.17736e-185
1.95784e-200
6.74867e-203
7.33225e-208
4.27598e-213
1.98106e-218
9.24459e-224
3.37367e-229
1.502e-234
4.60812e-240
1.92573e-245
4.89355e-251
1.5252e-256
3.20887e-262
8.76313e-268
1.63641e-273
3.67422e-279
5.89687e-285
1.05248e-290
1.44834e-296
2.17934e-302
2.75319e-308
3.67329e-314
4.32159e-320
0
0
0
0
0
0
0
0
0
0
0
0
0
0
0
0
0
0
0
0
0
0
0
0
0
0
0
0
0
0
0
0
0
0
0
0
0
0
0
0
0
0
0
0
0
0
0
0
0
0
0
0
0
0
0
0
0
0
0
0
0
0
0
0
0
0
0
0
0
0
0
0
0
0
0
0
0
0
0
0
0
0
0
0
0
0
0
0
0
0
0
0
0
0
0
0
0
0
0
0
0
0
0
0
0
0
0
0
0
0
0
0
0
0
0
0
0
0
0
0
0
0
0
0
0
0
0
0
0
0
0
0
0
0
0
0
0
0
0
0
0
0
0
0
0
0
0
0
0
0
0
0
0
0
0
0
0
0
0
0
0
0
0
0
0
0
0
0
0
0
0
0
0
0
0
0
0
0
0
0
0
0
0
0
0
0
0
0
0
0
0
0
0
0
0
0
0
0
0
0
0
0
0
0
0
0
0
0
0
0
0
0
0
0
0
0
0
0
0
0
0
0
0
0
0
0
0
0
0
0
0
0
0
0
0
0
0
0
0
0
0
0
0
0
0
0
0
8.31047e-08
3.51097e-08
1.59116e-08
9.78044e-09
1.67073e-09
1.13979e-09
1.03833e-09
1.801e-09
1.27119e-09
9.55887e-10
4.22465e-10
7.02247e-11
1.21666e-12
5.15645e-14
1.27996e-10
2.7944e-08
3.67586e-07
2.53182e-07
1.79508e-07
6.45998e-08
6.78046e-08
6.61431e-08
6.71533e-08
5.55836e-08
2.66999e-08
2.41244e-08
4.39597e-08
8.82474e-08
1.24158e-07
1.82675e-07
3.469e-07
2.98107e-07
2.71567e-07
1.86203e-07
3.12591e-08
3.14323e-09
3.03646e-12
1.38734e-16
6.15267e-20
1.83086e-23
1.14364e-25
5.75098e-26
1.33133e-25
9.11871e-24
9.3125e-27
1.9191e-23
5.06017e-21
8.96616e-21
6.14763e-21
8.27802e-21
1.80239e-20
2.10606e-20
3.79332e-20
1.01996e-19
2.68776e-19
4.12544e-19
5.3321e-19
1.89229e-19
1.42757e-20
5.27949e-22
1.28761e-24
5.61908e-27
7.95304e-29
8.74106e-31
1.8155e-34
1.41125e-38
3.39438e-43
2.01929e-48
9.34831e-53
6.2642e-58
1.70349e-62
2.07933e-65
1.52878e-68
6.71074e-71
5.63542e-84
3.78934e-84
1.8087e-86
2.47638e-89
1.22826e-91
1.0987e-93
3.17085e-96
3.25599e-99
1.26578e-102
2.73129e-106
5.13058e-110
8.39508e-114
1.41502e-117
2.44467e-121
4.85786e-125
9.70256e-129
2.25484e-132
5.26183e-136
1.28e-139
1.61128e-144
9.28209e-147
1.95178e-150
6.49482e-154
1.662e-157
4.17016e-161
1.06284e-164
2.39937e-168
5.15372e-172
8.12709e-176
4.44778e-181
1.44462e-193
2.27898e-196
1.18077e-201
4.23077e-207
1.36703e-212
4.58074e-218
1.5593e-223
5.20465e-229
1.78171e-234
5.81612e-240
1.78392e-245
4.9673e-251
1.22232e-256
3.16676e-262
7.20161e-268
1.61749e-273
3.06979e-279
5.70181e-285
8.93953e-291
1.3819e-296
1.82798e-302
2.41041e-308
2.82582e-314
3.37941e-320
0
0
0
0
0
0
0
0
0
0
0
0
0
0
0
0
0
0
0
0
0
0
0
0
0
0
0
0
0
0
0
0
0
0
0
0
0
0
0
0
0
0
0
0
0
0
0
0
0
0
0
0
0
0
0
0
0
0
0
0
0
0
0
0
0
0
0
0
0
0
0
0
0
0
0
0
0
0
0
0
0
0
0
0
0
0
0
0
0
0
0
0
0
0
0
0
0
0
0
0
0
0
0
0
0
0
0
0
0
0
0
0
0
0
0
0
0
0
0
0
0
0
0
0
0
0
0
0
0
0
0
0
0
0
0
0
0
0
0
0
0
0
0
0
0
0
0
0
0
0
0
0
0
0
0
0
0
0
0
0
0
0
0
0
0
0
0
0
0
0
0
0
0
0
0
0
0
0
0
0
0
0
0
0
0
0
0
0
0
0
0
0
0
0
0
0
0
0
0
0
0
0
0
0
0
0
0
0
0
0
0
0
0
0
0
0
0
0
0
0
0
0
0
0
0
0
0
0
0
0
0
0
0
0
0
0
0
0
0
0
0
0
0
0
0
0
2.87741e-08
3.25109e-08
2.14171e-08
1.71377e-08
1.48743e-07
1.81516e-07
8.40359e-08
6.69343e-08
4.04458e-08
2.76848e-08
6.00176e-09
2.01767e-09
3.36048e-10
1.43232e-12
1.22692e-09
8.08896e-08
5.73402e-08
6.53062e-08
5.32136e-08
3.69146e-08
2.69213e-08
2.07671e-08
1.28413e-08
7.98761e-09
4.31943e-09
3.44644e-09
4.39245e-09
8.05501e-09
9.62969e-09
1.63781e-08
4.18848e-08
1.54488e-07
2.84354e-07
3.1076e-07
3.01301e-07
5.80062e-08
4.55545e-09
9.33626e-12
4.61306e-15
7.70673e-19
3.05096e-22
4.73534e-24
1.30887e-23
2.58292e-21
1.19079e-23
5.28174e-20
1.37058e-18
8.51011e-19
6.54267e-18
3.94765e-17
1.49822e-17
1.15158e-17
1.01414e-17
7.40472e-17
1.45951e-16
1.78009e-16
3.01756e-16
1.7312e-15
2.61208e-16
1.93303e-18
1.21629e-21
9.29534e-25
1.91534e-27
1.66247e-29
2.50269e-31
6.15765e-34
9.41891e-38
7.77018e-42
3.48807e-46
1.18873e-51
9.24413e-57
4.37743e-62
8.19781e-66
4.7339e-68
7.73386e-79
1.39248e-79
4.1874e-83
9.95377e-87
2.4218e-89
1.57124e-91
3.13499e-94
5.64325e-97
2.32537e-99
8.00692e-102
3.68919e-105
8.58315e-109
1.86428e-112
3.83244e-116
8.3126e-120
1.85354e-123
4.83219e-127
1.1465e-130
3.20926e-134
7.61286e-138
2.2217e-141
5.71267e-145
1.62563e-148
3.76684e-152
9.54423e-156
2.03331e-159
3.71426e-163
6.20565e-167
8.76901e-171
7.60513e-175
1.5594e-186
1.42191e-189
4.48928e-195
1.00171e-200
2.24363e-206
5.19949e-212
1.25084e-217
3.33195e-223
9.15132e-229
2.62593e-234
7.69754e-240
2.3946e-245
7.60086e-251
2.44276e-256
7.63281e-262
2.123e-267
5.04123e-273
1.09144e-278
2.01007e-284
3.49275e-290
5.11374e-296
7.24568e-302
8.88259e-308
1.07219e-313
1.16244e-319
0
0
0
0
0
0
0
0
0
0
0
0
0
0
0
0
0
0
0
0
0
0
0
0
0
0
0
0
0
0
0
0
0
0
0
0
0
0
0
0
0
0
0
0
0
0
0
0
0
0
0
0
0
0
0
0
0
0
0
0
0
0
0
0
0
0
0
0
0
0
0
0
0
0
0
0
0
0
0
0
0
0
0
0
0
0
0
0
0
0
0
0
0
0
0
0
0
0
0
0
0
0
0
0
0
0
0
0
0
0
0
0
0
0
0
0
0
0
0
0
0
0
0
0
0
0
0
0
0
0
0
0
0
0
0
0
0
0
0
0
0
0
0
0
0
0
0
0
0
0
0
0
0
0
0
0
0
0
0
0
0
0
0
0
0
0
0
0
0
0
0
0
0
0
0
0
0
0
0
0
0
0
0
0
0
0
0
0
0
0
0
0
0
0
0
0
0
0
0
0
0
0
0
0
0
0
0
0
0
0
0
0
0
0
0
0
0
0
0
0
0
0
0
0
0
0
0
0
0
0
0
0
0
0
0
0
0
0
0
0
0
0
0
0
0
1.05422e-07
2.2007e-07
2.56367e-07
2.97208e-07
6.46215e-07
5.72165e-07
4.04202e-07
2.93166e-07
2.2464e-07
1.98656e-07
9.82885e-08
5.17955e-08
3.5922e-09
5.93336e-11
6.14755e-09
3.009e-07
6.80208e-08
2.67858e-08
4.4661e-08
6.40728e-08
4.93156e-08
2.27956e-08
1.03891e-08
4.71458e-09
2.21962e-09
1.22851e-09
1.02373e-09
1.21422e-09
1.37951e-09
2.19329e-09
3.96041e-09
1.25706e-08
3.69522e-08
6.42783e-08
6.73721e-08
6.8879e-08
4.62325e-08
4.16661e-09
2.93444e-11
7.768e-14
1.11798e-17
7.35738e-21
1.05586e-21
5.84952e-19
5.53302e-20
2.28883e-17
1.34382e-16
2.2188e-16
5.71195e-15
2.44742e-14
1.65866e-14
1.52855e-14
1.36053e-13
6.222e-13
1.31724e-12
1.88722e-12
1.67146e-12
1.92241e-12
7.70344e-13
6.0957e-15
6.4145e-18
1.37529e-21
6.60408e-25
8.99313e-28
5.27114e-30
4.95408e-32
4.51549e-34
2.3351e-37
2.96784e-41
1.76093e-45
2.11897e-50
3.93634e-56
7.61977e-62
9.72584e-65
1.94286e-74
1.92224e-76
6.27708e-80
5.9527e-83
1.91799e-85
6.49409e-88
4.14994e-91
2.26808e-94
1.84832e-97
4.48263e-100
1.65658e-102
5.70459e-105
3.41556e-108
1.13658e-111
3.44953e-115
9.81174e-119
2.86472e-122
8.152e-126
2.34415e-129
7.00943e-133
1.92237e-136
5.64369e-140
1.52135e-143
3.86442e-147
9.91987e-151
2.21571e-154
4.62549e-158
7.80543e-162
1.048e-165
9.04336e-170
1.05916e-179
5.73127e-183
1.27225e-188
1.99818e-194
3.04042e-200
5.0995e-206
9.25089e-212
1.92805e-217
4.32175e-223
9.98957e-229
2.59133e-234
6.63619e-240
1.96686e-245
5.72836e-251
1.8755e-256
6.51469e-262
2.10896e-267
6.28293e-273
1.52319e-278
3.35797e-284
5.96327e-290
1.0012e-295
1.38036e-301
1.82583e-307
1.98578e-313
2.00566e-319
0
0
0
0
0
0
0
0
0
0
0
0
0
0
0
0
0
0
0
0
0
0
0
0
0
0
0
0
0
0
0
0
0
0
0
0
0
0
0
0
0
0
0
0
0
0
0
0
0
0
0
0
0
0
0
0
0
0
0
0
0
0
0
0
0
0
0
0
0
0
0
0
0
0
0
0
0
0
0
0
0
0
0
0
0
0
0
0
0
0
0
0
0
0
0
0
0
0
0
0
0
0
0
0
0
0
0
0
0
0
0
0
0
0
0
0
0
0
0
0
0
0
0
0
0
0
0
0
0
0
0
0
0
0
0
0
0
0
0
0
0
0
0
0
0
0
0
0
0
0
0
0
0
0
0
0
0
0
0
0
0
0
0
0
0
0
0
0
0
0
0
0
0
0
0
0
0
0
0
0
0
0
0
0
0
0
0
0
0
0
0
0
0
0
0
0
0
0
0
0
0
0
0
0
0
0
0
0
0
0
0
0
0
0
0
0
0
0
0
0
0
0
0
0
0
0
0
0
0
0
0
0
0
0
0
0
0
0
0
0
0
0
0
0
6.35168e-07
7.37126e-07
7.37117e-07
6.9189e-07
5.14632e-07
4.51211e-07
3.96049e-07
3.57014e-07
3.57674e-07
3.34409e-07
2.48445e-07
1.71084e-07
1.77989e-08
2.50621e-10
1.34325e-08
2.8761e-07
7.14891e-08
3.80263e-08
9.90686e-08
2.60422e-07
2.36583e-07
8.33116e-08
2.49334e-08
8.54295e-09
2.83208e-09
1.15712e-09
5.63394e-10
4.20969e-10
4.65593e-10
6.22865e-10
1.0628e-09
2.53606e-09
5.72119e-09
1.21157e-08
1.74969e-08
2.44009e-08
4.59456e-08
4.36936e-08
9.176e-09
2.78119e-10
1.01442e-12
2.56144e-16
3.62641e-19
9.87602e-17
7.26922e-17
5.22188e-15
2.64469e-14
7.0615e-14
2.03531e-12
1.43368e-11
1.89434e-11
9.80476e-11
4.72641e-10
1.62478e-09
2.85183e-09
4.8983e-09
4.57549e-09
1.44494e-09
1.77403e-10
1.77845e-12
1.35806e-14
4.15831e-18
8.31691e-22
3.73926e-25
4.39202e-28
1.62698e-30
1.12779e-32
8.20449e-35
2.35458e-37
5.67324e-41
4.76873e-45
1.01398e-49
5.36104e-56
3.11045e-60
1.4799e-70
5.38567e-73
4.30583e-76
9.09497e-80
5.96278e-82
9.46543e-84
3.05379e-87
5.67237e-91
1.21601e-94
8.35146e-98
1.48514e-100
5.1247e-103
1.29651e-105
2.04782e-108
1.59775e-111
8.69547e-115
3.6967e-118
1.41798e-121
5.24277e-125
1.84693e-128
6.16887e-132
2.10274e-135
6.63167e-139
2.03855e-142
6.00824e-146
1.57583e-149
3.654e-153
6.80413e-157
9.09555e-161
7.48927e-165
2.16193e-173
5.2111e-177
8.7001e-183
1.44121e-188
2.0786e-194
3.02134e-200
4.80544e-206
8.28421e-212
1.60858e-217
3.24063e-223
7.25913e-229
1.67454e-234
4.19713e-240
1.105e-245
3.21755e-251
9.63662e-257
3.29183e-262
1.2104e-267
4.42412e-273
1.37328e-278
3.52475e-284
7.50861e-290
1.34964e-295
2.03784e-301
2.44789e-307
2.36535e-313
2.04039e-319
0
0
0
0
0
0
0
0
0
0
0
0
0
0
0
0
0
0
0
0
0
0
0
0
0
0
0
0
0
0
0
0
0
0
0
0
0
0
0
0
0
0
0
0
0
0
0
0
0
0
0
0
0
0
0
0
0
0
0
0
0
0
0
0
0
0
0
0
0
0
0
0
0
0
0
0
0
0
0
0
0
0
0
0
0
0
0
0
0
0
0
0
0
0
0
0
0
0
0
0
0
0
0
0
0
0
0
0
0
0
0
0
0
0
0
0
0
0
0
0
0
0
0
0
0
0
0
0
0
0
0
0
0
0
0
0
0
0
0
0
0
0
0
0
0
0
0
0
0
0
0
0
0
0
0
0
0
0
0
0
0
0
0
0
0
0
0
0
0
0
0
0
0
0
0
0
0
0
0
0
0
0
0
0
0
0
0
0
0
0
0
0
0
0
0
0
0
0
0
0
0
0
0
0
0
0
0
0
0
0
0
0
0
0
0
0
0
0
0
0
0
0
0
0
0
0
0
0
0
0
0
0
0
0
0
0
0
0
0
0
0
0
0
6.64252e-07
5.97906e-07
4.98611e-07
4.0142e-07
3.3959e-07
2.72354e-07
2.86351e-07
2.88109e-07
3.2567e-07
3.60875e-07
2.76445e-07
1.33632e-07
1.10294e-08
4.30767e-10
3.18896e-08
2.93077e-07
1.01422e-07
9.52866e-08
3.61953e-07
3.40294e-07
3.53848e-07
3.59832e-07
1.65242e-07
3.66318e-08
8.92944e-09
2.53977e-09
6.99947e-10
3.15961e-10
2.3944e-10
2.47792e-10
3.29558e-10
6.70251e-10
1.40454e-09
2.82116e-09
4.51747e-09
7.88653e-09
1.22761e-08
1.68384e-08
2.97447e-08
1.45096e-08
1.42579e-09
1.27737e-11
8.85329e-15
2.45427e-14
1.25731e-13
6.80576e-13
1.04939e-11
2.59135e-11
5.72307e-10
3.21774e-09
6.27571e-09
1.05605e-08
1.58159e-08
2.00783e-08
1.75541e-08
7.21928e-09
3.21493e-09
1.25171e-09
4.29157e-10
1.01838e-10
6.32669e-12
4.94841e-15
1.50525e-18
3.53089e-22
1.84029e-25
1.71026e-28
4.65175e-31
2.1276e-33
1.16664e-35
5.96842e-38
5.31764e-41
5.13663e-45
4.57083e-50
1.18352e-55
5.72053e-67
3.05849e-69
4.00011e-73
2.8004e-77
9.62858e-79
2.35518e-80
8.6089e-84
1.22468e-87
2.01229e-91
5.28353e-95
3.79346e-98
6.97664e-101
1.39943e-103
2.42026e-106
2.77711e-109
2.2183e-112
2.03362e-115
1.58924e-118
9.82882e-122
5.19506e-125
2.68809e-128
1.23394e-131
5.12986e-135
1.94212e-138
6.90013e-142
2.19014e-145
6.37939e-149
1.45042e-152
2.35371e-156
2.28946e-160
4.02507e-170
5.81058e-173
6.62625e-179
1.6105e-184
6.27491e-190
2.09518e-195
4.61535e-201
9.1855e-207
1.6551e-212
3.15217e-218
6.04443e-224
1.26123e-229
2.79243e-235
6.67081e-241
1.72053e-246
4.75641e-252
1.4569e-257
4.80417e-263
1.78148e-268
7.14401e-274
2.71347e-279
8.12771e-285
1.99358e-290
3.62854e-296
4.82863e-302
4.91865e-308
4.40405e-314
3.81567e-320
0
0
0
0
0
0
0
0
0
0
0
0
0
0
0
0
0
0
0
0
0
0
0
0
0
0
0
0
0
0
0
0
0
0
0
0
0
0
0
0
0
0
0
0
0
0
0
0
0
0
0
0
0
0
0
0
0
0
0
0
0
0
0
0
0
0
0
0
0
0
0
0
0
0
0
0
0
0
0
0
0
0
0
0
0
0
0
0
0
0
0
0
0
0
0
0
0
0
0
0
0
0
0
0
0
0
0
0
0
0
0
0
0
0
0
0
0
0
0
0
0
0
0
0
0
0
0
0
0
0
0
0
0
0
0
0
0
0
0
0
0
0
0
0
0
0
0
0
0
0
0
0
0
0
0
0
0
0
0
0
0
0
0
0
0
0
0
0
0
0
0
0
0
0
0
0
0
0
0
0
0
0
0
0
0
0
0
0
0
0
0
0
0
0
0
0
0
0
0
0
0
0
0
0
0
0
0
0
0
0
0
0
0
0
0
0
0
0
0
0
0
0
0
0
0
0
0
0
0
0
0
0
0
0
0
0
0
0
0
0
0
0
3.58655e-07
2.83353e-07
1.95909e-07
1.82366e-07
1.68994e-07
1.38862e-07
9.43786e-08
5.90472e-08
6.63966e-08
2.06149e-07
2.83867e-07
6.60704e-08
7.29924e-09
2.7834e-09
3.15613e-08
8.66601e-08
2.97048e-07
3.24398e-07
2.04472e-07
2.62759e-07
3.00895e-07
2.3608e-07
2.6341e-07
3.21444e-07
3.65055e-07
2.25494e-07
4.35756e-08
6.07221e-09
1.32715e-09
4.37146e-10
2.02143e-10
1.35507e-10
1.40123e-10
2.3885e-10
4.34659e-10
7.07903e-10
1.24725e-09
2.5996e-09
4.59319e-09
4.48447e-09
1.27912e-09
3.81534e-08
7.23364e-08
1.22283e-08
4.14222e-10
1.044e-11
3.28823e-12
2.58351e-12
4.46501e-12
1.12283e-11
1.74109e-10
1.29771e-09
4.74086e-09
2.14122e-08
4.64119e-08
8.34703e-08
7.59195e-08
1.63693e-08
6.24872e-09
2.17414e-09
6.52229e-10
4.38174e-10
1.53255e-10
6.73875e-11
2.73463e-11
2.02771e-12
1.03234e-15
3.53162e-19
1.15159e-22
5.81646e-26
4.94754e-29
9.11118e-32
3.20161e-34
1.41449e-36
5.20855e-39
1.76249e-41
2.97649e-45
4.58355e-51
1.45715e-56
8.37481e-61
2.94937e-64
3.59246e-68
2.06659e-71
3.77855e-74
4.71546e-75
4.18016e-77
5.38342e-81
9.01512e-85
1.84411e-88
4.64177e-92
1.89876e-95
1.68302e-98
2.35882e-101
3.30866e-104
3.73348e-107
3.42029e-110
2.63747e-113
2.00492e-116
1.3195e-119
7.57015e-123
5.14178e-126
2.82538e-129
1.44267e-132
8.97766e-136
4.59647e-139
2.72942e-142
1.49624e-145
7.61999e-149
2.78443e-152
4.96199e-156
1.65262e-159
7.31631e-163
1.50597e-166
1.17076e-170
1.68159e-174
3.93204e-180
1.35956e-185
3.13211e-191
6.28854e-197
1.03956e-202
1.44731e-208
2.17772e-214
3.24342e-220
5.51245e-226
9.96705e-232
2.26727e-237
5.48354e-243
1.56348e-248
4.64103e-254
1.57085e-259
5.54e-265
2.2272e-270
9.54618e-276
3.9837e-281
1.30019e-286
3.21632e-292
5.44896e-298
7.02892e-304
7.26184e-310
7.81162e-316
7.26276e-322
0
0
0
0
0
0
0
0
0
0
0
0
0
0
0
0
0
0
0
0
0
0
0
0
0
0
0
0
0
0
0
0
0
0
0
0
0
0
0
0
0
0
0
0
0
0
0
0
0
0
0
0
0
0
0
0
0
0
0
0
0
0
0
0
0
0
0
0
0
0
0
0
0
0
0
0
0
0
0
0
0
0
0
0
0
0
0
0
0
0
0
0
0
0
0
0
0
0
0
0
0
0
0
0
0
0
0
0
0
0
0
0
0
0
0
0
0
0
0
0
0
0
0
0
0
0
0
0
0
0
0
0
0
0
0
0
0
0
0
0
0
0
0
0
0
0
0
0
0
0
0
0
0
0
0
0
0
0
0
0
0
0
0
0
0
0
0
0
0
0
0
0
0
0
0
0
0
0
0
0
0
0
0
0
0
0
0
0
0
0
0
0
0
0
0
0
0
0
0
0
0
0
0
0
0
0
0
0
0
0
0
0
0
0
0
0
0
0
0
0
0
0
0
0
0
0
0
0
0
0
0
0
0
0
0
0
0
0
0
0
0
0
0
0
0
0
0
0
0
0
0
0
0
0
0
0
0
0
0
8.02758e-08
6.2502e-08
4.57409e-08
5.06289e-08
6.81937e-08
5.05501e-08
2.15636e-08
7.22107e-09
4.20826e-09
5.67556e-09
7.09715e-08
1.9936e-07
2.37145e-08
9.43505e-09
6.77676e-08
9.5498e-08
2.01923e-07
3.59419e-07
3.22301e-07
3.39289e-07
2.21407e-07
2.59228e-07
3.31865e-07
3.52231e-07
3.63907e-07
3.46082e-07
1.1952e-07
1.23716e-08
1.90187e-09
4.65368e-10
1.92225e-10
1.15661e-10
9.39634e-11
9.60014e-11
1.26298e-10
2.09841e-10
3.18577e-10
6.65957e-10
1.37632e-09
2.386e-09
4.62114e-09
1.11018e-08
2.65878e-09
5.04183e-08
6.8299e-08
7.22682e-09
2.22958e-09
1.35224e-09
1.83189e-09
5.14524e-09
1.65404e-08
4.66055e-08
9.56375e-08
3.22878e-07
1.40453e-07
6.33469e-08
2.2202e-08
4.99029e-09
1.11482e-09
2.19733e-10
1.1594e-10
5.53041e-11
4.84704e-11
3.28636e-11
1.17897e-11
4.49882e-12
4.47882e-14
1.64361e-17
8.91296e-21
5.16442e-24
4.14894e-27
4.30474e-30
5.90948e-33
1.47637e-35
4.53795e-38
1.8361e-40
6.1552e-43
6.52165e-46
5.03637e-51
1.092e-55
3.52499e-60
5.15532e-64
9.39356e-67
3.19885e-69
5.57155e-71
1.09911e-74
1.68119e-78
3.54297e-82
1.00129e-85
3.09817e-89
1.07797e-92
5.98961e-96
5.40475e-99
5.50444e-102
4.86016e-105
4.56639e-108
3.64606e-111
2.53869e-114
1.766e-117
1.14547e-120
6.81579e-124
4.19693e-127
2.35815e-130
1.28434e-133
6.99593e-137
3.98401e-140
2.00197e-143
1.26642e-146
6.38292e-150
6.37702e-153
2.39973e-156
4.93179e-160
5.33088e-164
6.6163e-168
9.88013e-172
3.68871e-175
2.01119e-180
2.22057e-186
2.77191e-192
3.90457e-198
5.08366e-204
6.49545e-210
7.98674e-216
1.07137e-221
1.5639e-227
2.77564e-233
6.10407e-239
1.52294e-244
3.92171e-250
1.17871e-255
3.57984e-261
1.27927e-266
4.64587e-272
1.8196e-277
5.63584e-283
1.50643e-288
2.95486e-294
4.61731e-300
5.38062e-306
5.6405e-312
5.29007e-318
4.94066e-324
0
0
0
0
0
0
0
0
0
0
0
0
0
0
0
0
0
0
0
0
0
0
0
0
0
0
0
0
0
0
0
0
0
0
0
0
0
0
0
0
0
0
0
0
0
0
0
0
0
0
0
0
0
0
0
0
0
0
0
0
0
0
0
0
0
0
0
0
0
0
0
0
0
0
0
0
0
0
0
0
0
0
0
0
0
0
0
0
0
0
0
0
0
0
0
0
0
0
0
0
0
0
0
0
0
0
0
0
0
0
0
0
0
0
0
0
0
0
0
0
0
0
0
0
0
0
0
0
0
0
0
0
0
0
0
0
0
0
0
0
0
0
0
0
0
0
0
0
0
0
0
0
0
0
0
0
0
0
0
0
0
0
0
0
0
0
0
0
0
0
0
0
0
0
0
0
0
0
0
0
0
0
0
0
0
0
0
0
0
0
0
0
0
0
0
0
0
0
0
0
0
0
0
0
0
0
0
0
0
0
0
0
0
0
0
0
0
0
0
0
0
0
0
0
0
0
0
0
0
0
0
0
0
0
0
0
0
0
0
0
0
0
0
0
0
0
0
0
0
0
0
0
0
0
0
0
0
0
6.26488e-09
7.4491e-09
6.41996e-09
6.58334e-09
9.81534e-09
8.21904e-09
3.64535e-09
8.13653e-10
4.88805e-10
4.98424e-10
2.41561e-09
4.07465e-08
3.48492e-07
2.66228e-07
1.61286e-07
3.61772e-07
2.1703e-07
3.49758e-07
3.35735e-07
2.3992e-07
3.00047e-07
2.10835e-07
9.17084e-08
1.65029e-07
2.6252e-07
2.11649e-07
5.73736e-08
5.63249e-09
9.68533e-10
2.47125e-10
1.24131e-10
8.97131e-11
6.14266e-11
5.51436e-11
5.41718e-11
6.12414e-11
9.51113e-11
1.52179e-10
3.2679e-10
8.64793e-10
2.71694e-09
4.28036e-09
5.66345e-09
1.91927e-08
1.04947e-08
1.54543e-07
2.79213e-07
1.72251e-07
1.78073e-07
2.37622e-07
3.03446e-07
3.09697e-07
1.82142e-07
1.01328e-07
2.25512e-08
5.01281e-09
1.41618e-09
4.9285e-10
1.27511e-10
4.75427e-11
2.1753e-11
1.67702e-11
1.71104e-11
1.97665e-11
1.02666e-11
3.33663e-12
4.22695e-13
4.77682e-16
2.14781e-19
7.88667e-23
4.77985e-26
3.60238e-29
3.71291e-32
5.12632e-35
9.92476e-38
2.68298e-40
6.16007e-43
2.20939e-45
5.13785e-48
3.19743e-51
4.68182e-55
8.29755e-59
7.42777e-62
2.45715e-65
6.44235e-69
1.52466e-72
3.96312e-76
1.22415e-79
4.39645e-83
1.61417e-86
7.17405e-90
3.35162e-93
1.88196e-96
1.20823e-99
9.39515e-103
6.51136e-106
4.52581e-109
2.90713e-112
1.6998e-115
9.25436e-119
5.67834e-122
3.13395e-125
1.58043e-128
8.16685e-132
4.32279e-135
2.3683e-138
1.17645e-141
6.49125e-145
3.19351e-148
1.84444e-151
8.40392e-155
2.56595e-158
5.31449e-162
9.55994e-166
1.92121e-169
6.27837e-173
2.15058e-176
4.04385e-182
5.64633e-188
7.10584e-194
7.92855e-200
8.64751e-206
9.07517e-212
1.01463e-217
1.33404e-223
2.01126e-229
3.48165e-235
7.13551e-241
1.61231e-246
4.03987e-252
1.08049e-257
3.20264e-263
1.01092e-268
3.50686e-274
1.09005e-279
2.83111e-285
6.02742e-291
1.10318e-296
1.64617e-302
2.02389e-308
2.17052e-314
2.19711e-320
0
0
0
0
0
0
0
0
0
0
0
0
0
0
0
0
0
0
0
0
0
0
0
0
0
0
0
0
0
0
0
0
0
0
0
0
0
0
0
0
0
0
0
0
0
0
0
0
0
0
0
0
0
0
0
0
0
0
0
0
0
0
0
0
0
0
0
0
0
0
0
0
0
0
0
0
0
0
0
0
0
0
0
0
0
0
0
0
0
0
0
0
0
0
0
0
0
0
0
0
0
0
0
0
0
0
0
0
0
0
0
0
0
0
0
0
0
0
0
0
0
0
0
0
0
0
0
0
0
0
0
0
0
0
0
0
0
0
0
0
0
0
0
0
0
0
0
0
0
0
0
0
0
0
0
0
0
0
0
0
0
0
0
0
0
0
0
0
0
0
0
0
0
0
0
0
0
0
0
0
0
0
0
0
0
0
0
0
0
0
0
0
0
0
0
0
0
0
0
0
0
0
0
0
0
0
0
0
0
0
0
0
0
0
0
0
0
0
0
0
0
0
0
0
0
0
0
0
0
0
0
0
0
0
0
0
0
0
0
0
0
0
0
0
0
0
0
0
0
0
0
0
0
0
0
0
0
0
3.23838e-10
6.1792e-10
7.42138e-10
6.7022e-10
6.65885e-10
3.06968e-10
1.54418e-10
1.12785e-10
9.0213e-11
6.73448e-11
1.32068e-10
4.31184e-10
9.38929e-10
9.3034e-10
2.20276e-09
1.23878e-07
2.70975e-07
2.81709e-07
2.59105e-07
3.45668e-07
2.86529e-08
4.67803e-09
5.29718e-09
1.31594e-08
2.20059e-08
1.90954e-08
4.19357e-09
9.97776e-10
2.50881e-10
1.05813e-10
6.29998e-11
5.48627e-11
4.95367e-11
4.39783e-11
4.02827e-11
3.79962e-11
4.12143e-11
4.82379e-11
9.30247e-11
1.40176e-10
5.90865e-10
9.29421e-10
2.57333e-09
5.43262e-09
1.02594e-08
2.59102e-08
6.56706e-08
1.15795e-07
9.8715e-08
5.37219e-08
2.80009e-08
1.12226e-08
2.80506e-09
9.92774e-10
3.1331e-10
1.49385e-10
1.00271e-10
5.71192e-11
3.65707e-11
2.08963e-11
1.57245e-11
1.14104e-11
1.16206e-11
1.72947e-11
1.95583e-11
4.19497e-12
1.13162e-12
2.0814e-15
1.78587e-18
9.54776e-22
5.94054e-25
3.4465e-28
2.07827e-31
1.44005e-34
1.31942e-37
1.41342e-40
2.13825e-43
3.25823e-46
5.85636e-49
6.14032e-52
5.16209e-55
2.27702e-58
9.94595e-62
3.2173e-65
9.88649e-69
2.9802e-72
9.7609e-76
3.25938e-79
1.46155e-82
6.45034e-86
2.52483e-89
1.2219e-92
6.10295e-96
3.15281e-99
2.0863e-102
1.20143e-105
6.65213e-109
3.58977e-112
2.17892e-115
1.19842e-118
6.10933e-122
3.17057e-125
1.53249e-128
8.09824e-132
4.08106e-135
2.04361e-138
9.63737e-142
4.66887e-145
2.0145e-148
9.29539e-152
3.95591e-155
1.4047e-158
4.16991e-162
9.78795e-166
2.82724e-169
8.82479e-173
3.05491e-176
5.58868e-182
9.38685e-188
1.4471e-193
2.03928e-199
2.76815e-205
3.83413e-211
5.12415e-217
6.41582e-223
8.8588e-229
1.26288e-234
2.15355e-240
4.06776e-246
9.31007e-252
2.34013e-257
6.78726e-263
2.10411e-268
7.15007e-274
2.14366e-279
5.50536e-285
1.14536e-290
2.13425e-296
3.43e-302
5.09748e-308
6.71572e-314
8.12936e-320
0
0
0
0
0
0
0
0
0
0
0
0
0
0
0
0
0
0
0
0
0
0
0
0
0
0
0
0
0
0
0
0
0
0
0
0
0
0
0
0
0
0
0
0
0
0
0
0
0
0
0
0
0
0
0
0
0
0
0
0
0
0
0
0
0
0
0
0
0
0
0
0
0
0
0
0
0
0
0
0
0
0
0
0
0
0
0
0
0
0
0
0
0
0
0
0
0
0
0
0
0
0
0
0
0
0
0
0
0
0
0
0
0
0
0
0
0
0
0
0
0
0
0
0
0
0
0
0
0
0
0
0
0
0
0
0
0
0
0
0
0
0
0
0
0
0
0
0
0
0
0
0
0
0
0
0
0
0
0
0
0
0
0
0
0
0
0
0
0
0
0
0
0
0
0
0
0
0
0
0
0
0
0
0
0
0
0
0
0
0
0
0
0
0
0
0
0
0
0
0
0
0
0
0
0
0
0
0
0
0
0
0
0
0
0
0
0
0
0
0
0
0
0
0
0
0
0
0
0
0
0
0
0
0
0
0
0
0
0
0
0
0
0
0
0
0
0
0
0
0
0
0
0
0
0
0
0
0
2.14229e-11
4.89811e-11
5.89058e-11
4.04478e-11
3.94809e-11
3.92493e-11
4.047e-11
2.80571e-11
2.69229e-11
2.7073e-11
3.80469e-11
5.50769e-11
6.82775e-11
1.0818e-10
5.27762e-10
2.26129e-08
3.49496e-07
3.30769e-07
3.3531e-07
1.07992e-08
8.26881e-10
5.79597e-10
1.05332e-09
1.4613e-09
2.11188e-09
1.26428e-09
5.29569e-10
2.19155e-10
1.02293e-10
5.73496e-11
4.72843e-11
4.14475e-11
3.83316e-11
3.63038e-11
2.81833e-11
2.74657e-11
2.67704e-11
2.65379e-11
2.8402e-11
4.25978e-11
6.27025e-11
1.27073e-10
2.63456e-10
7.10672e-10
1.12437e-09
2.3151e-09
2.71354e-09
3.61191e-09
2.42066e-09
1.83208e-09
1.13151e-09
5.60574e-10
2.19143e-10
8.71105e-11
4.49089e-11
2.68462e-11
2.46305e-11
2.33753e-11
2.11272e-11
1.77754e-11
1.5365e-11
1.17174e-11
1.63773e-11
1.84558e-11
2.0871e-11
7.91357e-12
1.98702e-12
8.92391e-14
2.22592e-17
5.39418e-21
2.01869e-24
9.66125e-28
5.67034e-31
3.11601e-34
1.87119e-37
1.1093e-40
8.58578e-44
5.22524e-47
3.92069e-50
2.05635e-53
1.3762e-56
4.78335e-60
1.90474e-63
7.46876e-67
2.51574e-70
1.27897e-73
6.56598e-77
3.49135e-80
1.63531e-83
9.34544e-87
5.19817e-90
2.91405e-93
1.60216e-96
8.69568e-100
4.68334e-103
2.48534e-106
1.30617e-109
6.72088e-113
3.89417e-116
2.0128e-119
9.77693e-123
4.88419e-126
2.27874e-129
1.06537e-132
4.98221e-136
2.2435e-139
1.0109e-142
4.52364e-146
1.88079e-149
8.10091e-153
3.12452e-156
1.16861e-159
4.08313e-163
1.29386e-166
4.24209e-170
1.35391e-173
4.33552e-177
7.31897e-183
1.07928e-188
1.48921e-194
1.80573e-200
2.16597e-206
2.42559e-212
2.81213e-218
3.46067e-224
4.81662e-230
7.97575e-236
1.52325e-241
3.25269e-247
7.70837e-253
1.92825e-258
5.2043e-264
1.51401e-269
4.36823e-275
1.13023e-280
2.43437e-286
4.61322e-292
7.6466e-298
1.17098e-303
1.63703e-309
2.20539e-315
2.81123e-321
0
0
0
0
0
0
0
0
0
0
0
0
0
0
0
0
0
0
0
0
0
0
0
0
0
0
0
0
0
0
0
0
0
0
0
0
0
0
0
0
0
0
0
0
0
0
0
0
0
0
0
0
0
0
0
0
0
0
0
0
0
0
0
0
0
0
0
0
0
0
0
0
0
0
0
0
0
0
0
0
0
0
0
0
0
0
0
0
0
0
0
0
0
0
0
0
0
0
0
0
0
0
0
0
0
0
0
0
0
0
0
0
0
0
0
0
0
0
0
0
0
0
0
0
0
0
0
0
0
0
0
0
0
0
0
0
0
0
0
0
0
0
0
0
0
0
0
0
0
0
0
0
0
0
0
0
0
0
0
0
0
0
0
0
0
0
0
0
0
0
0
0
0
0
0
0
0
0
0
0
0
0
0
0
0
0
0
0
0
0
0
0
0
0
0
0
0
0
0
0
0
0
0
0
0
0
0
0
0
0
0
0
0
0
0
0
0
0
0
0
0
0
0
0
0
0
0
0
0
0
0
0
0
0
0
0
0
0
0
0
0
0
0
0
0
0
0
0
0
0
0
0
0
0
0
0
0
0
2.08337e-11
2.12484e-11
2.2495e-11
2.34291e-11
2.36813e-11
2.35248e-11
2.34532e-11
2.32228e-11
2.32685e-11
2.35223e-11
2.44251e-11
2.61584e-11
2.84248e-11
3.84785e-11
5.9321e-11
6.47896e-10
2.6615e-08
4.28406e-08
3.86038e-09
4.55309e-10
1.16694e-10
1.10828e-10
1.27097e-10
1.53224e-10
2.29929e-10
2.05001e-10
1.2733e-10
9.9622e-11
5.96483e-11
4.77894e-11
3.95293e-11
2.85984e-11
2.76162e-11
2.70065e-11
2.66236e-11
2.62102e-11
2.57805e-11
2.5201e-11
2.47415e-11
2.46876e-11
2.48072e-11
2.70484e-11
4.07306e-11
5.74823e-11
9.55394e-11
1.18256e-10
1.34517e-10
1.29981e-10
1.16983e-10
1.01661e-10
6.66691e-11
5.331e-11
3.93719e-11
2.59192e-11
2.33331e-11
2.25963e-11
2.19534e-11
2.13016e-11
2.05901e-11
1.92265e-11
1.83427e-11
1.8125e-11
1.93166e-11
2.10224e-11
2.24814e-11
1.08469e-11
2.53509e-12
3.12462e-13
1.03417e-16
2.7204e-20
7.10905e-24
1.81545e-27
6.71439e-31
2.73241e-34
1.32901e-37
5.94294e-41
2.93271e-44
1.03848e-47
4.75996e-51
8.3853e-55
4.47315e-58
6.98235e-62
3.28698e-65
8.55066e-69
4.68791e-72
2.57918e-75
1.83838e-78
1.26985e-81
8.99301e-85
5.91897e-88
3.91015e-91
2.43896e-94
1.5253e-97
9.08435e-101
5.33117e-104
3.06214e-107
1.71293e-110
9.43533e-114
4.96522e-117
2.63176e-120
1.29494e-123
6.4954e-127
3.092e-130
1.42356e-133
6.68131e-137
2.88958e-140
1.30188e-143
5.40069e-147
2.26803e-150
9.27059e-154
3.57358e-157