/*--------------------------------*- C++ -*----------------------------------*\
| =========                 |                                                 |
| \\      /  F ield         | OpenFOAM: The Open Source CFD Toolbox           |
|  \\    /   O peration     | Version:  2.1.1                                 |
|   \\  /    A nd           | Web:      www.OpenFOAM.org                      |
|    \\/     M anipulation  |                                                 |
\*---------------------------------------------------------------------------*/
FoamFile
{
    version     2.0;
    format      ascii;
    class       volScalarField;
    location    "0.001850000";
    object      mut;
}
// * * * * * * * * * * * * * * * * * * * * * * * * * * * * * * * * * * * * * //

dimensions      [1 -1 -1 0 0 0 0];

internalField   nonuniform List<scalar> 
12384
(
7.18288e-07
7.8032e-07
7.19156e-07
6.58529e-07
3.18985e-06
7.91671e-06
5.34972e-06
5.37993e-06
5.42285e-06
6.15096e-06
5.92603e-06
6.09159e-06
5.27452e-06
5.6315e-06
2.45003e-05
1.08628e-05
1.13538e-05
1.25853e-05
1.34596e-05
1.16823e-05
8.42457e-06
7.72459e-06
7.80364e-06
8.39809e-06
8.96122e-06
8.80703e-06
9.12421e-06
8.90847e-06
8.42547e-06
8.99016e-06
9.116e-06
1.27981e-05
1.78026e-05
4.12696e-05
3.68643e-05
1.60493e-05
1.51856e-05
1.43626e-05
1.43881e-05
5.48228e-06
3.24327e-06
2.96588e-06
2.97669e-06
2.57225e-06
3.11462e-06
1.94268e-06
1.36574e-06
1.08481e-06
9.34616e-07
8.74927e-07
9.42971e-07
1.05686e-06
1.2665e-06
1.5542e-06
2.03158e-06
3.12088e-06
5.83209e-06
1.87135e-05
1.00715e-05
5.18135e-06
3.59292e-06
2.60438e-06
2.03779e-06
1.51597e-06
1.18809e-06
8.60324e-07
6.9612e-07
6.15981e-07
6.21381e-07
6.62735e-07
7.56737e-07
9.48643e-07
1.38718e-06
3.49397e-06
8.65131e-06
4.96886e-06
4.25044e-06
4.99769e-06
7.69087e-06
5.57294e-06
2.83244e-06
1.78023e-06
1.28636e-06
1.01445e-06
8.46306e-07
7.34602e-07
6.57926e-07
6.08585e-07
5.70579e-07
5.54365e-07
5.46731e-07
5.57218e-07
5.58372e-07
5.73691e-07
5.80531e-07
5.9946e-07
6.19972e-07
6.58639e-07
7.20361e-07
8.24633e-07
1.01347e-06
1.38589e-06
2.24238e-06
5.57847e-06
9.01119e-06
5.42254e-06
3.77171e-06
2.92625e-06
2.41295e-06
2.10087e-06
1.91509e-06
1.80521e-06
1.72959e-06
1.69788e-06
1.67912e-06
1.68087e-06
1.70735e-06
1.75298e-06
1.80869e-06
1.89402e-06
1.97918e-06
2.10517e-06
2.22945e-06
2.41713e-06
2.61259e-06
2.88096e-06
3.2342e-06
3.6405e-06
4.23493e-06
5.07966e-06
6.48239e-06
9.02813e-06
1.45232e-05
3.69524e-05
0.000111392
8.09262e-05
5.90049e-05
4.69168e-05
4.03859e-05
3.71637e-05
3.56995e-05
3.55053e-05
3.60507e-05
3.7415e-05
3.95243e-05
4.19379e-05
4.50606e-05
4.93221e-05
5.41715e-05
5.98354e-05
6.75789e-05
7.73791e-05
8.76402e-05
9.93547e-05
0.000114172
0.000131837
0.000137247
0.000137212
0.000137219
0.0001372
0.000137193
0.000137192
0.000137179
0.000137125
0.000137072
0.000137139
0.000137144
0.000137145
0.000137146
0.000137147
0.000137148
0.000137152
0.000137151
0.000137155
0.000137154
0.000137158
0.00013716
0.000137165
0.000137165
0.000137168
0.000137164
0.000137163
0.000137156
0.000137155
0.000137152
0.000137151
0.000137148
0.000137149
0.000137146
0.000137146
0.000137143
0.000137144
0.000137139
0.000137071
0.00013707
0.000137138
0.000137141
0.000137144
0.000137144
0.000137149
0.000137149
0.000137152
0.000137152
0.000137155
0.000137155
0.000137158
0.000137161
0.000137165
0.000137165
0.000137168
0.000137163
0.000137162
0.000137157
0.000137156
0.000137153
0.000137153
0.000137149
0.000137149
0.000137145
0.000137144
0.000137141
0.00013714
0.000137134
0.000137081
0.000137081
0.000137136
0.000137137
0.000137143
0.000137142
0.000137147
0.000137147
0.00013715
0.00013715
0.000137154
0.000137153
0.000137157
0.00013716
0.000137165
0.000137165
0.000137168
0.000137163
0.000137162
0.000137157
0.000137156
0.000137153
0.000137152
0.000137149
0.000137149
0.000137145
0.000137144
0.000137142
0.00013714
0.000137134
0.000137081
0.000137083
0.000137133
0.000137138
0.000137142
0.000137146
0.000137147
0.00013715
0.00013715
0.000137154
0.000137154
0.000137156
0.000137156
0.000137162
0.000137162
0.000137167
0.000137165
0.000137166
0.00013716
0.000137156
0.000137155
0.000137152
0.000137151
0.000137149
0.000137149
0.000137146
0.000137145
0.000137142
0.000137143
0.000137138
0.000137072
0.000137082
0.000137136
0.000137138
0.000137143
0.000137142
0.000137147
0.000137148
0.000137151
0.000137151
0.000137154
0.000137154
0.000137158
0.00013716
0.000137165
0.000137165
0.000137168
0.000137164
0.000137162
0.000137156
0.000137156
0.000137153
0.000137152
0.000137149
0.000137148
0.000137145
0.000137143
0.000137141
0.00013714
0.000137135
0.000137081
0.000137072
0.000137138
0.000137141
0.000137144
0.000137145
0.000137149
0.000137149
0.000137152
0.000137152
0.000137155
0.000137155
0.000137159
0.000137161
0.000137166
0.000137168
0.000137168
0.000137166
0.000137161
0.000137159
0.000137154
0.000137155
0.000137152
0.000137153
0.00013715
0.00013715
0.000137145
0.000137144
0.00013714
0.000137137
0.000137072
0.000137084
0.000137138
0.000137141
0.000137145
0.000137146
0.00013715
0.000137151
0.000137153
0.000137154
0.000137155
0.000137156
0.000137158
0.000137161
0.000137165
0.000137165
0.000137167
0.000137162
0.000137162
0.000137157
0.000137156
0.000137153
0.000137152
0.000137149
0.000137149
0.000137145
0.000137144
0.000137141
0.00013714
0.000137135
0.00013708
1.05503e-06
1.95299e-06
2.71434e-06
2.97128e-06
1.1185e-05
2.54242e-05
3.38029e-05
3.72143e-05
3.85597e-05
3.64676e-05
2.98353e-05
2.76298e-05
2.86835e-05
3.08067e-06
1.96706e-05
3.4719e-05
3.28155e-05
2.95534e-05
2.26842e-05
1.93594e-05
1.79513e-05
1.75487e-05
1.89562e-05
2.09206e-05
2.34876e-05
2.97791e-05
3.29118e-05
4.20566e-05
5.80553e-05
6.61622e-05
7.77518e-05
8.36166e-05
8.48696e-05
8.39509e-05
8.31429e-05
7.82648e-05
7.51944e-05
6.87775e-05
6.22696e-05
5.19615e-05
4.05149e-05
3.23804e-05
2.76127e-05
1.39561e-06
1.47472e-06
1.96931e-05
1.76594e-05
1.85576e-05
2.22124e-05
2.71812e-05
3.36879e-05
4.03012e-05
4.41619e-05
4.93048e-05
5.08769e-05
4.76733e-05
4.52666e-05
4.34592e-05
4.5741e-05
5.02385e-05
5.4689e-05
5.77947e-05
5.80918e-05
5.63239e-05
5.04624e-05
4.4946e-05
3.7338e-05
3.1347e-05
2.57051e-05
2.17069e-05
1.7471e-05
1.52199e-05
1.57156e-05
3.25204e-06
4.70354e-06
4.0251e-05
3.0769e-05
2.35994e-05
1.85477e-05
1.51353e-05
1.30209e-05
1.15677e-05
1.059e-05
9.87155e-06
9.32186e-06
8.85165e-06
8.43799e-06
8.0461e-06
7.67331e-06
7.31304e-06
6.97133e-06
6.65869e-06
6.37793e-06
6.19317e-06
6.07508e-06
6.12833e-06
6.36839e-06
6.91682e-06
7.92268e-06
9.83354e-06
1.35594e-05
2.21522e-05
1.37991e-05
4.17629e-06
4.0241e-06
4.11542e-06
4.34634e-06
5.10504e-06
6.25469e-06
7.46617e-06
8.4993e-06
9.22889e-06
9.56243e-06
9.51087e-06
9.12549e-06
8.50509e-06
7.65114e-06
6.82156e-06
5.93206e-06
5.19621e-06
4.46746e-06
3.91233e-06
3.43562e-06
3.15855e-06
3.06067e-06
3.15773e-06
3.44286e-06
3.91516e-06
4.53588e-06
5.41966e-06
6.78947e-06
9.279e-06
1.46032e-05
3.18045e-05
4.34132e-05
4.18649e-05
3.88292e-05
3.63396e-05
3.42903e-05
3.31669e-05
3.28849e-05
3.34503e-05
3.44006e-05
3.58405e-05
3.77037e-05
4.05183e-05
4.45257e-05
4.96412e-05
5.56183e-05
6.26004e-05
7.11692e-05
8.16721e-05
9.42958e-05
0.00010959
0.000128158
0.00015056
0.000177739
0.000213822
0.000265342
0.000341906
0.000456069
0.000725751
0.000706298
0.000138161
0.000138075
0.000707342
0.000733493
0.000733634
0.000733792
0.000733778
0.000733909
0.000733636
0.000733684
0.000733337
0.000733371
0.000732957
0.000732825
0.000732502
0.000732453
0.000732288
0.00073261
0.000732687
0.000733199
0.000733213
0.0007335
0.00073346
0.000733699
0.000733576
0.000733752
0.000733564
0.000733748
0.000733545
0.000707358
0.000138077
0.000138069
0.000707574
0.000733867
0.000733742
0.000733813
0.000733613
0.000733732
0.000733477
0.000733557
0.000733235
0.000733305
0.000732914
0.000732806
0.000732467
0.000732396
0.000732263
0.000732622
0.000732659
0.000733135
0.000733167
0.00073349
0.000733417
0.0007337
0.000733549
0.000733757
0.000733519
0.000733694
0.00073371
0.000706045
0.000138117
0.000138115
0.000706379
0.000733834
0.000733634
0.000733745
0.000733541
0.000733722
0.000733468
0.000733584
0.000733251
0.000733333
0.000732971
0.000732823
0.000732473
0.000732395
0.000732258
0.000732606
0.000732646
0.000733111
0.00073316
0.000733496
0.00073343
0.00073372
0.000733577
0.000733787
0.00073354
0.000733694
0.000733693
0.000706021
0.000138118
0.000138122
0.000706341
0.000733823
0.000733848
0.000733578
0.000733731
0.000733493
0.000733623
0.000733325
0.000733399
0.00073309
0.000733075
0.000732619
0.000732641
0.000732293
0.000732419
0.000732482
0.000732902
0.000733017
0.000733225
0.000733335
0.000733365
0.000733617
0.000733499
0.000733703
0.000733557
0.000733823
0.000733692
0.00070754
0.000138072
0.000138123
0.000706306
0.000733821
0.000733625
0.000733733
0.000733521
0.000733698
0.00073343
0.000733531
0.000733199
0.00073329
0.000732929
0.000732807
0.000732481
0.000732408
0.000732262
0.000732608
0.000732664
0.000733129
0.000733172
0.000733501
0.000733445
0.000733732
0.000733599
0.00073381
0.000733563
0.000733702
0.000733679
0.000705996
0.000138116
0.00013807
0.000707105
0.000733526
0.000733709
0.000733852
0.00073375
0.000733874
0.000733606
0.000733664
0.000733315
0.000733357
0.000732925
0.000732807
0.000732464
0.000732344
0.000732345
0.000732452
0.000732785
0.00073292
0.000733328
0.000733277
0.000733595
0.000733516
0.000733754
0.000733609
0.000733729
0.000733627
0.000733659
0.000707198
0.000138069
0.00013812
0.000706291
0.000733804
0.000733602
0.000733719
0.000733528
0.000733775
0.000733554
0.000733728
0.000733415
0.0007335
0.000733088
0.000732933
0.000732497
0.000732451
0.000732273
0.000732595
0.000732665
0.000733069
0.000733129
0.000733513
0.00073347
0.000733789
0.000733667
0.000733876
0.000733621
0.000733713
0.000733632
0.000705904
0.000138116
1.37326e-06
2.55379e-06
3.59014e-06
4.62011e-06
1.51528e-05
2.55093e-05
2.96258e-05
2.77452e-05
3.13022e-05
3.66442e-05
3.66002e-05
3.33913e-05
3.42227e-05
2.60583e-06
2.73595e-05
3.55949e-05
1.75969e-05
1.26386e-05
6.81704e-06
7.99043e-06
9.1977e-06
1.03329e-05
1.11598e-05
1.17775e-05
1.32066e-05
1.51735e-05
1.79813e-05
1.84911e-05
1.82939e-05
1.7863e-05
3.84754e-05
6.0902e-05
6.95573e-05
6.86316e-05
6.74069e-05
6.47139e-05
6.27833e-05
5.88656e-05
5.56609e-05
4.93116e-05
4.29911e-05
3.77693e-05
2.9191e-05
1.05378e-06
1.47852e-06
2.38956e-05
2.60397e-05
3.29218e-05
4.46167e-05
6.18526e-05
7.90964e-05
9.76171e-05
0.000104265
0.000111477
0.000114788
0.00010533
9.07594e-05
7.45977e-05
6.27532e-05
5.7245e-05
5.65794e-05
5.72368e-05
5.64363e-05
5.26911e-05
4.91279e-05
4.27162e-05
3.6305e-05
3.14824e-05
2.69411e-05
2.31848e-05
1.89155e-05
1.50557e-05
1.40791e-05
3.18341e-06
2.85867e-06
2.38487e-05
1.9327e-05
1.61762e-05
1.41268e-05
1.26181e-05
1.15939e-05
1.08113e-05
1.01717e-05
9.67162e-06
9.23454e-06
8.8638e-06
8.55839e-06
8.28842e-06
8.06951e-06
7.92589e-06
7.80367e-06
7.73948e-06
7.79696e-06
7.89499e-06
8.21575e-06
8.67164e-06
9.4566e-06
1.06278e-05
1.25113e-05
1.5674e-05
2.12759e-05
3.30573e-05
1.50939e-05
4.05108e-06
3.08771e-06
8.56167e-06
2.29339e-05
2.38599e-05
2.51603e-05
2.55989e-05
2.57757e-05
2.52613e-05
2.40813e-05
2.24985e-05
2.0632e-05
1.86296e-05
1.66463e-05
1.46634e-05
1.26588e-05
1.08957e-05
9.2876e-06
7.93091e-06
6.72709e-06
5.82481e-06
5.24589e-06
5.05378e-06
5.21814e-06
5.7794e-06
6.65866e-06
7.96749e-06
9.93943e-06
1.34205e-05
2.07425e-05
3.90667e-05
3.24469e-05
3.41964e-05
3.48833e-05
3.65335e-05
3.79719e-05
3.95907e-05
4.16023e-05
4.45585e-05
4.82264e-05
5.17264e-05
5.4964e-05
5.90438e-05
6.40113e-05
7.08972e-05
8.01096e-05
9.1112e-05
0.000103609
0.000116366
0.000130947
0.000149197
0.000171176
0.000193937
0.000219881
0.000251715
0.000291016
0.000340548
0.000401702
0.000498158
0.000658549
0.000178352
0.000178338
0.000897562
0.000922872
0.000922914
0.000922864
0.000922598
0.000922489
0.000922093
0.000922021
0.000921595
0.000921486
0.00092102
0.000920744
0.000920113
0.000919925
0.000919687
0.000920116
0.000920512
0.000921229
0.000921464
0.000921948
0.000922085
0.00092244
0.000922469
0.000922792
0.000922777
0.000923047
0.000922932
0.000898121
0.000178327
0.000178329
0.000897135
0.000922891
0.000922744
0.000922717
0.000922389
0.000922354
0.000921992
0.000921965
0.000921573
0.000921491
0.000921017
0.000920722
0.00092006
0.00091986
0.000919698
0.000920199
0.000920544
0.000921186
0.00092133
0.000921764
0.000921839
0.000922221
0.000922258
0.000922635
0.000922662
0.000922955
0.00092297
0.000897475
0.000178299
0.000178299
0.000897901
0.000923101
0.00092285
0.000922864
0.000922528
0.000922513
0.000922149
0.00092212
0.000921713
0.000921626
0.000921123
0.000920778
0.000920076
0.000919862
0.000919696
0.000920185
0.000920518
0.000921158
0.000921303
0.00092175
0.000921832
0.000922219
0.000922262
0.000922643
0.000922672
0.000922959
0.000922971
0.000897487
0.000178299
0.000178297
0.000897335
0.000922863
0.000922863
0.000922551
0.000922552
0.00092219
0.000922176
0.000921807
0.000921773
0.000921355
0.000921234
0.00092064
0.000920309
0.000919784
0.000919825
0.00091994
0.000920661
0.000921145
0.000921601
0.000921822
0.000922029
0.000922409
0.000922439
0.000922776
0.000922765
0.000923045
0.000922915
0.000897793
0.000178333
0.000178295
0.000897606
0.000923068
0.000922819
0.000922841
0.000922495
0.00092248
0.000922112
0.00092209
0.000921685
0.000921604
0.000921115
0.000920802
0.000920114
0.000919883
0.000919681
0.000920151
0.00092049
0.000921139
0.000921294
0.000921746
0.000921836
0.000922228
0.000922275
0.000922663
0.000922697
0.000922981
0.000922987
0.000897566
0.0001783
0.000178331
0.000897434
0.000922847
0.000922919
0.000922802
0.000922487
0.000922432
0.000922056
0.000922002
0.000921588
0.000921491
0.000921003
0.000920721
0.000920071
0.000919784
0.000919786
0.000920063
0.000920731
0.000921025
0.000921513
0.000921604
0.00092201
0.000922048
0.000922411
0.000922453
0.000922769
0.00092285
0.000922871
0.000897247
0.00017833
0.000178295
0.000897574
0.000923019
0.000922763
0.000922773
0.000922433
0.000922427
0.000922062
0.000922062
0.000921673
0.000921607
0.000921126
0.000920865
0.000920182
0.000919932
0.000919654
0.000920098
0.000920438
0.000921094
0.000921251
0.000921706
0.000921805
0.000922214
0.000922267
0.00092265
0.00092269
0.000922971
0.000922984
0.000897566
0.000178298
2.82825e-06
5.21809e-06
6.33404e-06
1.00867e-05
1.26485e-05
1.62666e-05
1.64135e-05
1.44428e-05
1.44045e-05
2.48653e-05
3.38376e-05
3.7653e-05
4.08147e-05
3.29217e-06
1.8309e-05
3.37996e-05
8.77572e-06
8.12726e-06
1.07252e-05
1.31501e-05
1.2998e-05
1.29672e-05
1.2297e-05
1.1841e-05
1.36924e-05
1.74467e-05
2.03989e-05
2.07374e-05
2.30093e-05
2.55201e-05
2.6954e-05
2.41127e-05
2.00554e-05
2.2073e-05
4.93274e-05
7.55109e-05
7.36596e-05
6.59204e-05
5.72437e-05
5.22226e-05
4.93825e-05
4.5324e-05
3.37882e-05
1.12022e-06
1.91046e-06
3.00044e-05
3.98717e-05
5.43455e-05
7.67799e-05
9.47475e-05
0.000111861
0.000128651
0.00016429
0.00022025
0.000257503
0.000249803
0.000212153
0.000159879
0.000119003
8.94139e-05
7.22932e-05
6.45024e-05
6.05342e-05
5.83964e-05
5.39158e-05
4.76234e-05
4.03123e-05
3.41404e-05
2.99748e-05
2.68356e-05
2.12919e-05
1.68398e-05
1.40879e-05
2.76787e-06
1.69394e-06
1.55146e-05
1.24887e-05
1.12687e-05
1.05966e-05
1.01374e-05
9.66229e-06
9.38971e-06
9.17374e-06
8.96358e-06
8.71198e-06
8.44969e-06
8.18803e-06
7.92022e-06
7.74893e-06
7.55926e-06
7.51293e-06
7.47251e-06
7.56965e-06
7.67971e-06
8.00727e-06
8.41691e-06
9.23334e-06
1.03754e-05
1.22667e-05
1.52306e-05
2.05378e-05
3.03975e-05
2.30414e-05
3.33636e-06
2.29377e-06
2.11698e-05
4.19583e-05
4.33716e-05
4.45026e-05
4.63302e-05
4.82768e-05
5.1052e-05
5.42438e-05
5.56439e-05
4.92066e-05
4.30523e-05
3.69432e-05
3.16153e-05
2.6619e-05
2.23568e-05
1.85063e-05
1.53347e-05
1.2604e-05
1.04494e-05
8.66594e-06
7.40726e-06
6.55966e-06
6.32158e-06
6.63494e-06
7.68237e-06
9.46472e-06
1.26703e-05
1.915e-05
3.29791e-05
2.2515e-05
2.38579e-05
2.53116e-05
2.72737e-05
2.92675e-05
3.14347e-05
3.38324e-05
3.66774e-05
4.00144e-05
4.3856e-05
4.84471e-05
5.31559e-05
5.84552e-05
6.48749e-05
7.26683e-05
8.18961e-05
9.33891e-05
0.000107232
0.000123415
0.000142348
0.000164087
0.000189595
0.000220635
0.000260566
0.000310696
0.000380295
0.000491922
0.000704923
0.000890751
0.000176884
0.000176826
0.000890324
0.000924462
0.000924796
0.000924769
0.00092469
0.00092471
0.00092468
0.00092467
0.000924645
0.000924635
0.000924609
0.000924591
0.00092456
0.000924547
0.000924539
0.000924553
0.000924571
0.000924602
0.000924613
0.000924634
0.000924648
0.00092467
0.000924681
0.000924707
0.000924715
0.000924747
0.000924474
0.000890302
0.000176825
0.000176822
0.000890335
0.000924531
0.000924743
0.000924741
0.0009247
0.000924686
0.000924659
0.000924653
0.000924631
0.00092462
0.000924596
0.000924575
0.000924546
0.000924531
0.000924528
0.000924547
0.000924567
0.000924598
0.000924611
0.000924632
0.000924637
0.000924656
0.000924669
0.000924698
0.000924696
0.000924782
0.000924528
0.000890454
0.000176836
0.000176839
0.000890389
0.000924485
0.00092471
0.000924697
0.000924678
0.000924665
0.00092465
0.000924644
0.000924628
0.000924617
0.000924595
0.000924574
0.000924545
0.000924531
0.00092453
0.000924549
0.00092457
0.000924599
0.000924613
0.000924634
0.000924639
0.000924657
0.000924669
0.0009247
0.000924696
0.000924779
0.00092453
0.000890464
0.000176836
0.000176838
0.00089041
0.000924452
0.000924767
0.000924712
0.000924706
0.000924678
0.000924668
0.000924647
0.00092464
0.000924619
0.000924607
0.000924576
0.000924559
0.000924535
0.000924534
0.000924543
0.000924575
0.000924576
0.000924682
0.000924699
0.000924643
0.000924664
0.000924674
0.0009247
0.000924709
0.000924738
0.000924464
0.000890294
0.000176823
0.00017684
0.00089044
0.000924485
0.000924709
0.000924697
0.000924677
0.000924664
0.00092465
0.000924643
0.000924627
0.000924617
0.000924596
0.000924575
0.000924548
0.000924531
0.000924528
0.000924546
0.000924566
0.000924596
0.000924611
0.00092463
0.000924638
0.000924656
0.00092467
0.0009247
0.000924695
0.000924775
0.000924533
0.000890451
0.000176836
0.000176824
0.000890348
0.000924426
0.000924699
0.000924763
0.000924707
0.000924695
0.000924665
0.000924657
0.000924633
0.000924623
0.000924599
0.000924579
0.000924543
0.000924597
0.000924594
0.000924536
0.000924575
0.000924595
0.000924617
0.000924627
0.000924649
0.000924655
0.000924683
0.000924696
0.00092474
0.000924697
0.000924453
0.000890318
0.000176822
0.000176841
0.000890403
0.000924486
0.000924712
0.000924699
0.000924683
0.000924669
0.000924658
0.000924648
0.000924636
0.000924625
0.000924603
0.000924583
0.000924553
0.000924533
0.000924526
0.000924538
0.00092456
0.000924586
0.000924605
0.000924624
0.000924637
0.000924654
0.000924671
0.000924704
0.000924698
0.000924772
0.000924533
0.000890465
0.000176837
4.17292e-06
7.04555e-06
8.42307e-06
1.24567e-05
1.07867e-05
1.19752e-05
1.24113e-05
1.14008e-05
1.11787e-05
1.07272e-05
1.1707e-05
2.59524e-05
4.25784e-05
5.74111e-06
1.14268e-05
2.42473e-05
1.28582e-05
1.97833e-05
2.11309e-05
2.13549e-05
2.00632e-05
1.89124e-05
1.80631e-05
1.74785e-05
1.96443e-05
2.21297e-05
2.22333e-05
2.31088e-05
2.48357e-05
2.65786e-05
2.66657e-05
2.73914e-05
2.7566e-05
2.18737e-05
1.98971e-05
5.19456e-05
8.28573e-05
7.97171e-05
6.95455e-05
6.05049e-05
5.89321e-05
5.58458e-05
4.52125e-05
1.41928e-06
2.44519e-06
3.59569e-05
5.10214e-05
6.30222e-05
6.64578e-05
7.93505e-05
0.000114372
0.000217748
0.000407658
0.000597856
0.000698288
0.000646568
0.000509207
0.000364664
0.000251635
0.000170424
0.000118069
8.90565e-05
7.51945e-05
6.76722e-05
6.25173e-05
5.68059e-05
4.86542e-05
4.01538e-05
3.41873e-05
3.21892e-05
2.64208e-05
1.96061e-05
1.55409e-05
2.15806e-06
1.11026e-06
1.25783e-05
1.22278e-05
1.18923e-05
1.20512e-05
1.16771e-05
1.0487e-05
9.56585e-06
9.15076e-06
8.94595e-06
8.70241e-06
8.39845e-06
8.07017e-06
7.74688e-06
7.47523e-06
7.23461e-06
7.11059e-06
7.01755e-06
7.04513e-06
7.14537e-06
7.33414e-06
7.66872e-06
8.23552e-06
9.08322e-06
1.04305e-05
1.25822e-05
1.61799e-05
2.24853e-05
3.34454e-05
2.40036e-06
1.84767e-06
2.25119e-05
2.44922e-05
2.64207e-05
2.84526e-05
3.05418e-05
3.33177e-05
3.62477e-05
3.99152e-05
4.39303e-05
4.84959e-05
5.3804e-05
5.97843e-05
6.57652e-05
5.44182e-05
4.40679e-05
3.59366e-05
2.88629e-05
2.33377e-05
1.88056e-05
1.49372e-05
1.20091e-05
9.74083e-06
8.26249e-06
7.47874e-06
7.55687e-06
8.51071e-06
1.10287e-05
1.57463e-05
2.43052e-05
1.58999e-05
1.69383e-05
1.86608e-05
2.03321e-05
2.21991e-05
2.42456e-05
2.6551e-05
2.91726e-05
3.23191e-05
3.59163e-05
4.04345e-05
4.52417e-05
5.00581e-05
5.58924e-05
6.295e-05
7.17955e-05
8.25142e-05
9.53345e-05
0.000110241
0.000127804
0.000148513
0.000173255
0.000203377
0.000240977
0.000290874
0.00036048
0.000468754
0.000652957
0.000866988
0.000171266
0.000171253
0.00086636
0.000900319
0.000900415
0.00090048
0.000900578
0.000900396
0.000900574
0.000900387
0.000900573
0.00090038
0.000900565
0.000900368
0.000900545
0.00090036
0.000900535
0.000900359
0.000900539
0.000900367
0.000900542
0.000900374
0.000900554
0.00090038
0.000900569
0.00090039
0.000900579
0.000900404
0.0009003
0.000866321
0.000171248
0.000171244
0.0008665
0.000900182
0.000900566
0.000900384
0.000900568
0.000900379
0.000900568
0.000900375
0.000900566
0.000900369
0.000900551
0.000900356
0.000900531
0.000900348
0.000900524
0.000900352
0.000900538
0.000900366
0.000900556
0.000900373
0.00090056
0.000900375
0.000900555
0.000900371
0.000900551
0.000900406
0.000900164
0.000866735
0.000171216
0.000171221
0.0008667
0.000900104
0.000900561
0.000900378
0.000900566
0.000900381
0.000900569
0.000900377
0.000900564
0.000900368
0.000900547
0.000900356
0.000900529
0.000900349
0.000900525
0.000900354
0.000900539
0.000900366
0.000900558
0.000900374
0.000900562
0.000900376
0.000900556
0.000900373
0.00090055
0.000900408
0.00090016
0.000866744
0.000171216
0.000171223
0.000866721
0.000900259
0.00090039
0.000900571
0.000900384
0.000900574
0.000900383
0.000900574
0.000900377
0.000900564
0.000900369
0.000900544
0.000900357
0.000900529
0.000900351
0.000900526
0.00090035
0.000900519
0.000900413
0.000900395
0.00090055
0.000900373
0.000900564
0.000900387
0.000900576
0.0009004
0.000900319
0.000866353
0.00017125
0.000171218
0.000866723
0.0009001
0.00090056
0.000900378
0.000900567
0.00090038
0.00090057
0.000900376
0.000900566
0.000900369
0.000900549
0.000900357
0.000900529
0.000900349
0.000900523
0.000900352
0.000900536
0.000900365
0.000900553
0.000900372
0.000900557
0.000900373
0.000900551
0.000900369
0.000900545
0.000900416
0.000900149
0.000866725
0.000171216
0.000171252
0.000866432
0.000900284
0.000900533
0.000900403
0.000900579
0.000900386
0.000900571
0.000900378
0.000900568
0.000900368
0.000900553
0.000900353
0.000900528
0.000900353
0.000900365
0.000900522
0.000900349
0.000900548
0.000900366
0.000900564
0.000900375
0.000900567
0.00090038
0.000900568
0.000900386
0.000900542
0.000900259
0.000866447
0.000171249
0.00017122
0.000866709
0.000900101
0.000900565
0.00090038
0.00090057
0.000900382
0.000900577
0.000900382
0.000900576
0.000900375
0.00090056
0.000900356
0.00090053
0.000900341
0.000900515
0.000900341
0.000900521
0.000900353
0.000900554
0.00090037
0.00090056
0.000900374
0.000900558
0.000900375
0.000900551
0.000900422
0.000900154
0.000866759
0.000171218
5.37858e-06
7.38823e-06
9.38005e-06
1.25886e-05
1.05681e-05
1.04276e-05
9.53247e-06
8.67885e-06
8.44365e-06
8.03608e-06
9.09266e-06
1.0201e-05
2.91793e-05
8.22065e-06
5.14646e-06
1.23898e-05
2.16471e-05
3.25131e-05
3.32594e-05
3.17519e-05
2.88703e-05
2.57595e-05
2.45306e-05
2.28747e-05
2.28995e-05
2.34593e-05
2.28382e-05
2.41571e-05
2.5383e-05
2.70974e-05
2.69383e-05
2.77663e-05
3.00391e-05
2.86351e-05
2.42768e-05
2.12366e-05
6.32792e-05
9.45392e-05
8.83165e-05
7.78922e-05
7.21531e-05
7.07152e-05
6.38793e-05
2.81651e-06
2.2515e-06
4.22849e-05
5.6066e-05
5.0865e-05
5.77116e-05
0.000125503
0.000458941
0.000979227
0.00161264
0.00193771
0.00201873
0.00164456
0.00125443
0.000821836
0.000531917
0.00033371
0.000214128
0.000144835
0.000107164
8.72459e-05
7.65883e-05
6.84917e-05
6.07428e-05
5.17062e-05
4.29467e-05
3.74941e-05
3.29328e-05
2.4925e-05
1.9086e-05
1.74549e-06
8.52789e-07
1.28194e-05
1.22034e-05
1.63681e-05
1.93719e-05
1.89817e-05
1.60336e-05
1.29805e-05
1.08475e-05
9.85677e-06
9.37866e-06
8.91429e-06
8.3683e-06
7.85093e-06
7.41384e-06
7.06475e-06
6.79908e-06
6.64494e-06
6.56564e-06
6.60321e-06
6.64219e-06
6.92054e-06
7.24654e-06
7.8216e-06
8.75624e-06
1.01623e-05
1.23415e-05
1.58367e-05
2.10024e-05
1.61812e-06
1.57027e-06
1.32066e-05
1.44295e-05
1.6228e-05
1.83358e-05
2.06307e-05
2.31544e-05
2.61946e-05
2.94308e-05
3.33872e-05
3.78497e-05
4.26961e-05
4.86567e-05
5.48747e-05
6.29478e-05
7.16178e-05
6.37512e-05
5.05779e-05
4.04321e-05
3.209e-05
2.52973e-05
1.99824e-05
1.57339e-05
1.24818e-05
1.01766e-05
7.09969e-06
7.31793e-06
9.23599e-06
1.25786e-05
1.65416e-05
1.13948e-05
1.22864e-05
1.39384e-05
1.55192e-05
1.72524e-05
1.92572e-05
2.14569e-05
2.40242e-05
2.70379e-05
3.04303e-05
3.39943e-05
3.81326e-05
4.28477e-05
4.7981e-05
5.38054e-05
6.05897e-05
6.9042e-05
8.06248e-05
9.41193e-05
0.000109701
0.000128183
0.000150376
0.000177801
0.00021185
0.000256175
0.000315018
0.000400852
0.000561583
0.00084075
0.000165616
0.000165572
0.000840475
0.000872573
0.000872754
0.000872811
0.000872835
0.000872739
0.000872831
0.000872732
0.000872832
0.000872727
0.000872828
0.000872714
0.000872809
0.000872708
0.000872801
0.000872704
0.000872802
0.000872709
0.000872801
0.000872706
0.000872812
0.000872719
0.000872824
0.000872728
0.000872826
0.000872735
0.000872576
0.000840508
0.000165568
0.000165563
0.000840491
0.000872521
0.000872814
0.00087272
0.000872819
0.00087272
0.000872823
0.000872722
0.000872825
0.000872715
0.00087281
0.000872699
0.00087279
0.000872689
0.000872784
0.000872693
0.000872797
0.000872708
0.000872814
0.000872714
0.000872815
0.000872709
0.000872805
0.000872706
0.000872793
0.00087273
0.000872516
0.000840505
0.000165564
0.000165565
0.000840536
0.000872472
0.000872813
0.000872713
0.00087282
0.000872719
0.000872821
0.000872721
0.000872821
0.000872713
0.000872806
0.000872698
0.000872787
0.000872689
0.000872786
0.000872695
0.000872798
0.000872708
0.000872815
0.000872714
0.000872817
0.000872711
0.000872806
0.000872708
0.000872793
0.000872731
0.000872511
0.000840505
0.000165564
0.000165567
0.000840524
0.000872551
0.000872725
0.000872814
0.000872718
0.000872825
0.000872722
0.000872831
0.000872722
0.000872823
0.000872713
0.000872804
0.000872701
0.000872792
0.000872696
0.000872788
0.000872697
0.000872771
0.000872754
0.000872732
0.000872807
0.000872715
0.000872821
0.000872727
0.000872825
0.00087273
0.000872585
0.000840504
0.000165565
0.000165567
0.000840504
0.000872464
0.000872808
0.000872709
0.000872819
0.000872717
0.000872822
0.00087272
0.000872822
0.000872714
0.000872807
0.000872698
0.000872787
0.00087269
0.000872784
0.000872693
0.000872795
0.000872706
0.00087281
0.000872711
0.000872809
0.000872706
0.0008728
0.000872708
0.000872791
0.000872741
0.0008725
0.000840505
0.000165564
0.000165566
0.000840486
0.000872558
0.000872813
0.000872748
0.000872825
0.000872726
0.000872824
0.000872721
0.000872823
0.000872712
0.000872812
0.000872698
0.000872781
0.000872714
0.000872717
0.000872774
0.000872692
0.000872806
0.000872709
0.00087282
0.000872718
0.000872818
0.00087272
0.000872815
0.000872726
0.000872798
0.000872566
0.000840485
0.000165565
0.000165569
0.000840509
0.000872464
0.000872808
0.000872708
0.000872818
0.000872715
0.000872822
0.00087272
0.000872826
0.000872716
0.000872812
0.000872694
0.000872782
0.000872674
0.000872772
0.000872678
0.000872778
0.000872694
0.000872806
0.000872713
0.000872815
0.000872713
0.000872807
0.000872714
0.000872804
0.000872751
0.000872508
0.000840531
0.000165565
9.18814e-06
7.52866e-06
9.22597e-06
1.13559e-05
1.0104e-05
8.68462e-06
7.42669e-06
6.45359e-06
6.63899e-06
7.3026e-06
8.9632e-06
8.4114e-06
1.62235e-05
9.13729e-06
4.3428e-06
1.93504e-05
3.89665e-05
4.72825e-05
4.32352e-05
4.06165e-05
3.61451e-05
3.16763e-05
2.85103e-05
2.57444e-05
2.41871e-05
2.39273e-05
2.39093e-05
2.5678e-05
2.68571e-05
2.85863e-05
2.84218e-05
3.01276e-05
3.27775e-05
3.44161e-05
3.43851e-05
3.34755e-05
2.60509e-05
7.66572e-05
0.0001145
0.000115782
0.000110365
0.000111573
0.00011455
7.73535e-06
3.06127e-06
5.9224e-05
8.11557e-05
0.00016619
0.000487746
0.00130506
0.00248201
0.00377298
0.00472026
0.00485064
0.00433361
0.00351937
0.00246886
0.00162482
0.00101481
0.000624458
0.000380885
0.000242868
0.000166308
0.000124411
9.95941e-05
8.56757e-05
7.60991e-05
6.80561e-05
5.96911e-05
5.15457e-05
4.4506e-05
3.78328e-05
2.92167e-05
2.00436e-06
6.85579e-07
1.42354e-05
1.95502e-05
3.40313e-05
4.00247e-05
3.70072e-05
2.90496e-05
2.111e-05
1.54262e-05
1.23128e-05
1.08634e-05
1.01069e-05
9.39851e-06
8.60756e-06
7.82449e-06
7.21967e-06
6.73955e-06
6.41062e-06
6.18099e-06
6.07656e-06
5.99533e-06
6.11102e-06
6.22687e-06
6.5069e-06
7.02304e-06
7.72613e-06
8.84719e-06
1.06369e-05
1.27493e-05
1.05317e-06
1.42475e-06
8.11603e-06
8.43072e-06
9.89537e-06
1.17429e-05
1.38572e-05
1.61403e-05
1.86023e-05
2.15096e-05
2.46161e-05
2.83478e-05
3.23137e-05
3.70715e-05
4.24682e-05
4.91199e-05
5.65412e-05
6.57174e-05
7.60186e-05
6.8187e-05
5.35426e-05
4.21632e-05
3.27938e-05
2.54988e-05
1.96451e-05
1.1285e-05
6.87346e-06
5.96071e-06
7.19195e-06
9.34019e-06
1.07022e-05
7.93769e-06
8.98556e-06
1.03643e-05
1.1708e-05
1.3202e-05
1.49445e-05
1.69977e-05
1.9134e-05
2.15322e-05
2.42727e-05
2.75743e-05
3.12639e-05
3.54147e-05
3.99869e-05
4.52341e-05
5.15492e-05
5.90071e-05
6.8033e-05
7.88287e-05
9.17978e-05
0.00010746
0.000126043
0.000148745
0.00017642
0.000211461
0.000259855
0.000331222
0.000440588
0.000698241
0.000154918
0.000154874
0.000794539
0.000825614
0.000825822
0.000825895
0.000825873
0.000825838
0.000825872
0.000825836
0.000825876
0.000825836
0.000825874
0.000825833
0.000825862
0.000825832
0.000825856
0.000825824
0.000825855
0.00082582
0.00082585
0.000825809
0.000825855
0.000825818
0.000825861
0.000825819
0.000825852
0.000825814
0.000825601
0.000794531
0.000154873
0.00015487
0.000794599
0.000825596
0.000825842
0.000825801
0.000825853
0.000825816
0.000825865
0.000825822
0.00082587
0.000825823
0.000825859