/*--------------------------------*- C++ -*----------------------------------*\
| =========                 |                                                 |
| \\      /  F ield         | OpenFOAM: The Open Source CFD Toolbox           |
|  \\    /   O peration     | Version:  2.1.1                                 |
|   \\  /    A nd           | Web:      www.OpenFOAM.org                      |
|    \\/     M anipulation  |                                                 |
\*---------------------------------------------------------------------------*/
FoamFile
{
    version     2.0;
    format      ascii;
    class       volScalarField;
    location    "0.001850000";
    object      omegaC_burn;
}
// * * * * * * * * * * * * * * * * * * * * * * * * * * * * * * * * * * * * * //

dimensions      [1 -3 -1 0 0 0 0];

internalField   nonuniform List<scalar> 
12384
(
5279.16
5523.41
5518.62
5300.25
835.83
82.5646
5.21999
2.73208
1.22889
0.145071
0.0092472
0.000261479
6.68954e-06
1.34691e-07
0.00156958
0.158695
1.60376
4.91494
19.7123
40.5591
60.5934
69.7327
65.9944
61.0738
56.6931
45.3573
45.5305
32.8021
15.508
9.05244
2.86953
0.681181
0.202128
0.0200053
0.000303149
1.83277e-06
9.81979e-09
4.75439e-11
2.15482e-13
8.73466e-16
2.92186e-18
8.38327e-21
4.57019e-21
2.63836e-19
8.05614e-22
8.28485e-20
3.68932e-18
1.51415e-17
3.22288e-17
3.90795e-17
2.21666e-17
2.2017e-17
4.20121e-17
8.12612e-17
1.65533e-16
2.37097e-16
4.21625e-16
7.63271e-16
3.48287e-16
4.06688e-17
4.54484e-20
1.51363e-23
4.9556e-27
1.73237e-30
6.73785e-34
2.719e-37
1.15668e-40
5.35238e-44
2.60705e-47
1.26775e-50
5.95815e-54
2.71359e-57
1.16596e-60
4.86329e-64
5.33819e-82
3.78359e-83
6.09236e-86
6.78368e-89
5.97742e-91
4.37035e-93
8.54718e-96
8.3158e-99
5.30479e-102
1.693e-105
5.37858e-109
1.73987e-112
5.6958e-116
1.88e-119
6.20145e-123
2.04142e-126
6.61482e-130
2.12516e-133
6.65338e-137
2.08669e-140
6.37058e-144
1.93765e-147
7.64425e-151
3.03883e-154
1.15631e-157
4.14606e-161
0
0
0
0
0
0
0
0
0
0
0
0
0
0
0
0
0
0
0
0
0
0
0
0
0
0
0
0
0
0
0
0
0
0
0
0
0
0
0
0
0
0
0
0
0
0
0
0
0
0
0
0
0
0
0
0
0
0
0
0
0
0
0
0
0
0
0
0
0
0
0
0
0
0
0
0
0
0
0
0
0
0
0
0
0
0
0
0
0
0
0
0
0
0
0
0
0
0
0
0
0
0
0
0
0
0
0
0
0
0
0
0
0
0
0
0
0
0
0
0
0
0
0
0
0
0
0
0
0
0
0
0
0
0
0
0
0
0
0
0
0
0
0
0
0
0
0
0
0
0
0
0
0
0
0
0
0
0
0
0
0
0
0
0
0
0
0
0
0
0
0
0
0
0
0
0
0
0
0
0
0
0
0
0
0
0
0
0
0
0
0
0
0
0
0
0
0
0
0
0
0
0
0
0
0
0
0
0
0
0
0
0
0
0
0
0
0
0
0
0
0
0
0
0
0
0
0
0
0
0
0
0
0
0
0
0
0
0
0
0
0
0
0
0
0
0
0
0
0
0
0
0
0
0
0
0
0
0
0
0
0
0
0
0
0
0
0
0
0
0
0
0
0
0
5523.86
4870.11
5143.81
5346.71
737.855
104.259
31.2179
24.1437
11.726
3.71707
0.505176
0.013006
0.000360226
6.78596e-06
0.138067
5.33242
35.0888
80.1311
288.861
474.723
707.426
842.847
844.102
817.874
774.09
656.81
615.811
419.584
253.55
187.946
56.3642
13.1244
3.89319
1.34156
0.0225829
8.23267e-05
4.13441e-07
5.29231e-10
9.6805e-13
2.79329e-15
1.31654e-17
5.86789e-19
8.44409e-19
5.09655e-17
2.17193e-19
3.75216e-17
1.91572e-15
1.06398e-14
3.5497e-14
5.47121e-14
3.32532e-14
2.6947e-14
5.25751e-14
1.48399e-13
3.49331e-13
5.04363e-13
9.40802e-13
2.01842e-12
9.1047e-13
1.06236e-13
1.44245e-16
1.79532e-20
3.67773e-25
7.55053e-29
1.52609e-32
5.0472e-35
7.99146e-39
1.58944e-42
4.2215e-46
1.48971e-49
5.87281e-53
2.39579e-56
9.80502e-60
3.88604e-63
1.70494e-78
1.25772e-79
2.08315e-82
2.3727e-85
1.83342e-87
1.54392e-89
3.12231e-92
2.94871e-95
1.74372e-98
1.40851e-102
1.75145e-106
4.36833e-110
1.31387e-113
3.93777e-117
1.22441e-120
3.77266e-124
1.22179e-127
3.92829e-131
1.30602e-134
2.94767e-138
1.23599e-141
4.39698e-145
1.71464e-147
7.00271e-151
2.5738e-154
8.73686e-158
2.80011e-161
0
0
0
0
0
0
0
0
0
0
0
0
0
0
0
0
0
0
0
0
0
0
0
0
0
0
0
0
0
0
0
0
0
0
0
0
0
0
0
0
0
0
0
0
0
0
0
0
0
0
0
0
0
0
0
0
0
0
0
0
0
0
0
0
0
0
0
0
0
0
0
0
0
0
0
0
0
0
0
0
0
0
0
0
0
0
0
0
0
0
0
0
0
0
0
0
0
0
0
0
0
0
0
0
0
0
0
0
0
0
0
0
0
0
0
0
0
0
0
0
0
0
0
0
0
0
0
0
0
0
0
0
0
0
0
0
0
0
0
0
0
0
0
0
0
0
0
0
0
0
0
0
0
0
0
0
0
0
0
0
0
0
0
0
0
0
0
0
0
0
0
0
0
0
0
0
0
0
0
0
0
0
0
0
0
0
0
0
0
0
0
0
0
0
0
0
0
0
0
0
0
0
0
0
0
0
0
0
0
0
0
0
0
0
0
0
0
0
0
0
0
0
0
0
0
0
0
0
0
0
0
0
0
0
0
0
0
0
0
0
0
0
0
0
0
0
0
0
0
0
0
0
0
0
0
0
0
0
0
0
0
0
0
0
0
0
0
0
0
0
0
0
0
5088.14
3988.87
3808.42
4043.09
447.992
175.391
143.098
126.488
84.7693
23.3549
6.3431
0.920905
0.0242623
0.000429969
3.34155
95.3956
629.399
1231.56
6008.08
7850
8981.29
9452.36
9604.39
9692.31
10399.1
11062.3
11370.3
10172.9
9175.97
8891.63
1484.69
290.237
169.049
127.987
25.6213
0.0515625
3.04492e-10
1.4303e-14
7.14888e-14
4.61892e-13
2.06601e-15
1.58464e-16
1.28823e-16
9.90184e-15
8.55134e-17
3.0262e-14
1.74686e-12
1.37133e-11
5.26269e-11
7.12285e-11
3.36446e-11
2.21977e-11
3.72881e-11
1.41153e-10
3.3234e-10
4.54614e-10
7.8866e-10
2.21648e-09
1.18662e-09
1.71148e-10
5.49286e-13
7.42514e-16
4.93358e-19
5.65581e-23
3.31715e-30
8.37207e-40
5.34273e-48
5.04306e-51
2.40991e-47
1.50284e-47
1.91617e-51
4.20116e-55
1.14263e-58
8.385e-62
1.39295e-74
1.41222e-75
2.72572e-78
3.23898e-81
2.02938e-83
2.02611e-85
4.37748e-88
4.21434e-91
2.45613e-94
0
0
0
0
0
0
0
0
0
0
0
0
0
7.50756e-144
2.22252e-147
7.14545e-151
2.12223e-154
6.31219e-158
1.53092e-161
0
0
0
0
0
0
0
0
0
0
0
0
0
0
0
0
0
0
0
0
0
0
0
0
0
0
0
0
0
0
0
0
0
0
0
0
0
0
0
0
0
0
0
0
0
0
0
0
0
0
0
0
0
0
0
0
0
0
0
0
0
0
0
0
0
0
0
0
0
0
0
0
0
0
0
0
0
0
0
0
0
0
0
0
0
0
0
0
0
0
0
0
0
0
0
0
0
0
0
0
0
0
0
0
0
0
0
0
0
0
0
0
0
0
0
0
0
0
0
0
0
0
0
0
0
0
0
0
0
0
0
0
0
0
0
0
0
0
0
0
0
0
0
0
0
0
0
0
0
0
0
0
0
0
0
0
0
0
0
0
0
0
0
0
0
0
0
0
0
0
0
0
0
0
0
0
0
0
0
0
0
0
0
0
0
0
0
0
0
0
0
0
0
0
0
0
0
0
0
0
0
0
0
0
0
0
0
0
0
0
0
0
0
0
0
0
0
0
0
0
0
0
0
0
0
0
0
0
0
0
0
0
0
0
0
0
0
0
0
0
0
0
0
0
0
0
0
0
0
0
0
0
0
0
0
0
0
0
0
0
0
0
0
0
0
0
0
0
0
0
0
0
4487.7
3339.66
2869.27
2972.56
0
0
0
0
0
264.126
81.224
12.0121
1.96535
0.0412784
16.0587
517.02
8391.28
9708.19
11418.8
12936.3
12700.7
12568.2
12343.2
12247.5
13243.3
14488
15351.1
15082.6
15844.1
16203.1
15287.8
12517.1
11045.2
10299.6
917.437
64.982
1.9725
1.13517e-05
1.63252e-11
6.21395e-17
3.08579e-13
4.81263e-14
2.38469e-14
2.24783e-12
8.25835e-14
2.96439e-11
1.4952e-09
6.78026e-09
2.76291e-08
3.99702e-08
2.08876e-08
1.40671e-08
2.58154e-08
1.16528e-07
2.53186e-07
3.34013e-07
5.08965e-07
1.80601e-06
1.06676e-06
1.03962e-07
4.88238e-10
9.561e-13
1.42923e-15
1.34043e-18
6.62892e-22
1.92183e-25
1.56822e-29
3.08709e-36
2.74193e-44
3.8551e-52
1.34219e-49
9.79045e-52
1.58532e-55
2.90366e-58
4.51664e-70
3.621e-71
5.30025e-74
4.63775e-77
1.91965e-79
2.17396e-81
5.58297e-84
7.02882e-87
5.19324e-90
2.54224e-93
9.37768e-97
2.86635e-100
7.9473e-104
2.13824e-107
5.76666e-111
1.60323e-114
4.63231e-118
1.3343e-121
4.08145e-125
0
3.65113e-132
0
3.18555e-139
8.8082e-143
2.43744e-146
6.17581e-150
1.45379e-153
2.95398e-157
4.89672e-161
0
0
0
0
0
0
0
0
0
0
0
0
0
0
0
0
0
0
0
0
0
0
0
0
0
0
0
0
0
0
0
0
0
0
0
0
0
0
0
0
0
0
0
0
0
0
0
0
0
0
0
0
0
0
0
0
0
0
0
0
0
0
0
0
0
0
0
0
0
0
0
0
0
0
0
0
0
0
0
0
0
0
0
0
0
0
0
0
0
0
0
0
0
0
0
0
0
0
0
0
0
0
0
0
0
0
0
0
0
0
0
0
0
0
0
0
0
0
0
0
0
0
0
0
0
0
0
0
0
0
0
0
0
0
0
0
0
0
0
0
0
0
0
0
0
0
0
0
0
0
0
0
0
0
0
0
0
0
0
0
0
0
0
0
0
0
0
0
0
0
0
0
0
0
0
0
0
0
0
0
0
0
0
0
0
0
0
0
0
0
0
0
0
0
0
0
0
0
0
0
0
0
0
0
0
0
0
0
0
0
0
0
0
0
0
0
0
0
0
0
0
0
0
0
0
0
0
0
0
0
0
0
0
0
0
0
0
0
0
0
0
0
0
0
0
0
0
0
0
0
0
0
0
0
0
0
0
0
0
0
0
0
0
0
0
0
0
0
0
0
0
3875.13
3439.2
3500.59
3876.13
5419.21
6493.66
5780.42
5312.73
4446.52
3813.35
2508.44
230.866
28.1073
1.49826
43.1403
1087.63
11889.9
14632.8
15434.9
15809.9
15339.5
14922.6
14715.8
14255.3
14814.9
15434.2
15461
16041.6
16477.2
17115.9
17152.5
16554.3
15897.3
14237.2
13511.4
900.973
62.4794
2.89486
0.0030162
4.71917e-09
3.15429e-15
1.22716e-11
5.68273e-12
5.42486e-10
1.03589e-10
1.14539e-08
5.10911e-07
1.44761e-06
1.02037e-05
2.08563e-05
1.25443e-05
1.37788e-05
7.28549e-06
1.95519e-05
1.57611e-05
2.69457e-05
0.000172016
0.00123896
0.000987105
6.83359e-05
5.9163e-07
9.3608e-10
1.22565e-12
1.59495e-15
1.67377e-18
1.05269e-21
3.95925e-25
9.57657e-29
1.35006e-32
7.08631e-38
1.76026e-46
3.97582e-55
1.16268e-51
1.87841e-54
7.8478e-66
2.61517e-67
2.16649e-70
1.30673e-73
3.70208e-76
4.7345e-78
1.32226e-80
2.06138e-83
2.1954e-86
1.61638e-89
8.50074e-93
3.44339e-96
1.198e-99
3.88167e-103
1.22888e-106
3.85579e-110
1.24865e-113
3.96846e-117
1.29427e-120
4.10173e-124
1.30924e-127
4.0521e-131
1.27089e-134
3.65635e-138
1.05477e-141
2.69879e-145
6.48935e-149
1.30315e-152
2.17222e-156
2.57014e-160
0
0
0
0
0
0
0
0
0
0
0
0
0
0
0
0
0
0
0
0
0
0
0
0
0
0
0
0
0
0
0
0
0
0
0
0
0
0
0
0
0
0
0
0
0
0
0
0
0
0
0
0
0
0
0
0
0
0
0
0
0
0
0
0
0
0
0
0
0
0
0
0
0
0
0
0
0
0
0
0
0
0
0
0
0
0
0
0
0
0
0
0
0
0
0
0
0
0
0
0
0
0
0
0
0
0
0
0
0
0
0
0
0
0
0
0
0
0
0
0
0
0
0
0
0
0
0
0
0
0
0
0
0
0
0
0
0
0
0
0
0
0
0
0
0
0
0
0
0
0
0
0
0
0
0
0
0
0
0
0
0
0
0
0
0
0
0
0
0
0
0
0
0
0
0
0
0
0
0
0
0
0
0
0
0
0
0
0
0
0
0
0
0
0
0
0
0
0
0
0
0
0
0
0
0
0
0
0
0
0
0
0
0
0
0
0
0
0
0
0
0
0
0
0
0
0
0
0
0
0
0
0
0
0
0
0
0
0
0
0
0
0
0
0
0
0
0
0
0
0
0
0
0
0
0
0
0
0
0
0
0
0
0
0
0
0
0
0
0
0
4275.52
4953.86
5730.95
6706.41
9785.45
9688.6
8241.89
7348.48
6593.75
6109.17
5134.41
4306.7
307.347
11.9889
198.956
7917.92
15230
18235.8
18664.4
18388.2
17886.4
16927.6
16715.5
15687.9
15177.5
14996.1
14449
15028.8
15338.9
16117.6
16434.2
17045.3
17933.1
17387.2
16274
15111.4
782.203
61.6681
4.80252
0.0670296
7.58712e-08
1.09774e-14
2.46929e-09
1.70665e-07
1.2975e-07
3.42427e-06
9.51783e-05
0.000262881
0.00318653
0.009665
0.00749257
0.00488144
0.00674197
0.00501584
0.0109527
0.0275745
0.151262
0.743871
0.790033
0.0292217
0.000839073
1.25528e-06
1.25381e-09
1.23298e-12
1.34788e-15
1.40217e-18
1.05394e-21
4.93343e-25
1.47288e-28
2.67326e-32
1.31961e-36
1.27325e-45
4.79848e-61
3.10003e-50
6.21333e-62
8.23544e-64
4.5516e-67
1.98757e-70
5.4373e-73
8.26033e-75
2.25109e-77
3.3033e-80
3.48717e-83
3.17489e-86
2.42126e-89
1.41479e-92
6.62663e-96
2.7269e-99
1.0543e-102
3.9042e-106
1.43524e-109
5.1688e-113
1.84204e-116
6.53015e-120
2.20287e-123
7.57549e-127
2.47699e-130
7.69044e-134
2.39571e-137
6.69548e-141
1.76381e-144
3.89852e-148
7.01829e-152
8.95396e-156
0
0
0
0
0
0
0
0
0
0
0
0
0
0
0
0
0
0
0
0
0
0
0
0
0
0
0
0
0
0
0
0
0
0
0
0
0
0
0
0
0
0
0
0
0
0
0
0
0
0
0
0
0
0
0
0
0
0
0
0
0
0
0
0
0
0
0
0
0
0
0
0
0
0
0
0
0
0
0
0
0
0
0
0
0
0
0
0
0
0
0
0
0
0
0
0
0
0
0
0
0
0
0
0
0
0
0
0
0
0
0
0
0
0
0
0
0
0
0
0
0
0
0
0
0
0
0
0
0
0
0
0
0
0
0
0
0
0
0
0
0
0
0
0
0
0
0
0
0
0
0
0
0
0
0
0
0
0
0
0
0
0
0
0
0
0
0
0
0
0
0
0
0
0
0
0
0
0
0
0
0
0
0
0
0
0
0
0
0
0
0
0
0
0
0
0
0
0
0
0
0
0
0
0
0
0
0
0
0
0
0
0
0
0
0
0
0
0
0
0
0
0
0
0
0
0
0
0
0
0
0
0
0
0
0
0
0
0
0
0
0
0
0
0
0
0
0
0
0
0
0
0
0
0
0
0
0
0
0
0
0
0
0
0
0
0
0
0
0
0
7406.71
8627.11
9471.58
10660.4
11223.3
10081.1
8588.24
7780.75
7536.34
7297.36
6966.03
5819.49
833.256
28.3191
260.308
9804.54
19480.3
21544.2
20357.3
19247.7
18425.8
18130.6
17716.3
16623.3
15616.2
14866.7
14076.6
14267.4
14447.9
15307.9
15477.5
16738.7
18172.7
18810.7
19068.4
18976
16884
1039.63
112.252
10.1608
0.462229
8.36077e-07
3.91628e-12
7.10728e-05
9.04098e-05
0.000675246
0.0117389
0.0350174
0.789822
3.1302
1.26892
0.217484
0.062815
0.0608961
0.223694
1.40872
9.72755
24.5727
21.4301
8.93892
0.932229
0.00163196
1.52707e-06
1.17718e-09
9.39309e-13
8.74138e-16
8.58973e-19
7.17704e-22
4.13906e-25
1.48137e-28
3.21779e-32
3.003e-36
2.19561e-46
1.09691e-45
3.04684e-58
2.11518e-60
7.62662e-64
2.02152e-67
8.55231e-70
1.53037e-71
3.9235e-74
5.33524e-77
5.02104e-80
4.08954e-83
3.20311e-86
2.33481e-89
1.46537e-92
7.87365e-96
3.80332e-99
1.71446e-102
7.36704e-106
3.03765e-109
1.22296e-112
4.79962e-116
1.8056e-119
6.78922e-123
2.42575e-126
8.38361e-130
2.85258e-133
8.8917e-137
2.58305e-140
6.50112e-144
1.30929e-147
1.90633e-151
5.32993e-161
0
0
0
0
0
0
0
0
0
0
0
0
0
0
0
0
0
0
0
0
0
0
0
0
0
0
0
0
0
0
0
0
0
0
0
0
0
0
0
0
0
0
0
0
0
0
0
0
0
0
0
0
0
0
0
0
0
0
0
0
0
0
0
0
0
0
0
0
0
0
0
0
0
0
0
0
0
0
0
0
0
0
0
0
0
0
0
0
0
0
0
0
0
0
0
0
0
0
0
0
0
0
0
0
0
0
0
0
0
0
0
0
0
0
0
0
0
0
0
0
0
0
0
0
0
0
0
0
0
0
0
0
0
0
0
0
0
0
0
0
0
0
0
0
0
0
0
0
0
0
0
0
0
0
0
0
0
0
0
0
0
0
0
0
0
0
0
0
0
0
0
0
0
0
0
0
0
0
0
0
0
0
0
0
0
0
0
0
0
0
0
0
0
0
0
0
0
0
0
0
0
0
0
0
0
0
0
0
0
0
0
0
0
0
0
0
0
0
0
0
0
0
0
0
0
0
0
0
0
0
0
0
0
0
0
0
0
0
0
0
0
0
0
0
0
0
0
0
0
0
0
0
0
0
0
0
0
0
0
0
0
0
0
0
0
0
0
0
0
10319.9
10902.1
11629.3
11937.5
10670.8
9388.55
9102.62
9192.03
9388.12
9225.57
8125.75
5951.85
581.819
31.6305
614.115
16296.1
26190.2
25279.4
22416.6
20092.9
19244
18886.4
18782.3
18191.9
16934
15771.1
14784.4
14270.9
14148.4
14355.8
15095.2
16171.8
17352.6
18510.8
19280.4
20692.3
20455.4
20177.6
1991.56
346.888
55.081
3.99806
1.02282e-07
0.0229937
0.0305709
0.0667651
0.4394
0.25604
0.0619069
0.0439635
0.0191522
0.026569
0.0517786
0.138137
3.85299
41.396
157.75
228.102
223.838
106.935
21.4887
1.5211
0.00161847
1.18406e-06
7.69343e-10
5.31509e-13
4.33766e-16
3.91674e-19
3.32361e-22
2.21887e-25
9.74805e-29
2.31553e-32
1.22046e-36
3.77597e-41
1.19173e-54
3.38886e-58
1.19281e-60
1.10221e-64
1.82966e-66
3.43331e-68
6.95559e-71
8.26884e-74
7.14206e-77
5.17685e-80
3.59792e-83
2.52089e-86
1.70869e-89
1.07115e-92
6.17729e-96
3.33221e-99
1.68331e-102
8.01765e-106
3.67875e-109
1.6001e-112
6.74099e-116
2.767e-119
1.08961e-122
4.12092e-126
1.52719e-129
5.30627e-133
1.74852e-136
5.05126e-140
1.23515e-143
2.24113e-147
2.14197e-157
1.36338e-160
0
0
0
0
0
0
0
0
0
0
0
0
0
0
0
0
0
0
0
0
0
0
0
0
0
0
0
0
0
0
0
0
0
0
0
0
0
0
0
0
0
0
0
0
0
0
0
0
0
0
0
0
0
0
0
0
0
0
0
0
0
0
0
0
0
0
0
0
0
0
0
0
0
0
0
0
0
0
0
0
0
0
0
0
0
0
0
0
0
0
0
0
0
0
0
0
0
0
0
0
0
0
0
0
0
0
0
0
0
0
0
0
0
0
0
0
0
0
0
0
0
0
0
0
0
0
0
0
0
0
0
0
0
0
0
0
0
0
0
0
0
0
0
0
0
0
0
0
0
0
0
0
0
0
0
0
0
0
0
0
0
0
0
0
0
0
0
0
0
0
0
0
0
0
0
0
0
0
0
0
0
0
0
0
0
0
0
0
0
0
0
0
0
0
0
0
0
0
0
0
0
0
0
0
0
0
0
0
0
0
0
0
0
0
0
0
0
0
0
0
0
0
0
0
0
0
0
0
0
0
0
0
0
0
0
0
0
0
0
0
0
0
0
0
0
0
0
0
0
0
0
0
0
0
0
0
0
0
0
0
0
0
0
0
0
0
0
0
11408.4
12032.2
12358.8
11937.6
10648.4
10684.1
11357
12037.8
12457
12391.5
10479.9
7269.45
4005.96
195.243
9795.78
11772.1
18658.8
26768.5
31537.7
28601.2
22756.5
20209.2
19452.4
19159.7
19160.1
19248.4
18418
17591.2
16033.2
15068.6
14300.1
14269.9
14661.7
15729.3
17126.3
18072.8
19602.8
21823.2
23531.7
24418.8
23609.8
24010.8
2055.78
201.067
0.231943
9.62102e-07
0.000389726
0.000575629
1.1288e-07
7.16804e-09
1.22988e-08
2.00548e-07
5.90807e-06
5.201e-05
0.00262601
0.196138
7.8925
144.467
16935.4
15296.2
11958.2
21618.5
2836.13
265.563
142.52
20.7316
1.08974
0.000885818
5.43114e-07
3.09108e-10
1.90264e-13
1.4041e-16
1.19325e-19
1.01761e-22
7.35788e-26
3.65426e-29
9.64757e-33
4.99976e-43
1.0366e-43
8.61284e-47
2.60939e-51
5.75643e-56
4.09967e-61
2.56981e-63
6.33343e-63
8.13026e-65
1.17548e-67
1.15892e-70
9.10266e-74
6.17113e-77
3.8869e-80
2.44058e-83
1.55022e-86
9.70222e-90
5.84381e-93
3.36686e-96
1.85811e-99
9.82554e-103
5.04935e-106
2.46018e-109
1.17664e-112
5.38316e-116
2.37452e-119
1.00531e-122
4.12211e-126
1.62577e-129
5.98136e-133
2.03974e-136
6.19943e-140
1.4613e-143
4.14905e-147
1.62769e-150
7.47964e-154
3.74419e-157
1.66277e-160
0
0
0
0
0
0
0
0
0
0
0
0
0
0
0
0
0
0
0
0
0
0
0
0
0
0
0
0
0
0
0
0
0
0
0
0
0
0
0
0
0
0
0
0
0
0
0
0
0
0
0
0
0
0
0
0
0
0
0
0
0
0
0
0
0
0
0
0
0
0
0
0
0
0
0
0
0
0
0
0
0
0
0
0
0
0
0
0
0
0
0
0
0
0
0
0
0
0
0
0
0
0
0
0
0
0
0
0
0
0
0
0
0
0
0
0
0
0
0
0
0
0
0
0
0
0
0
0
0
0
0
0
0
0
0
0
0
0
0
0
0
0
0
0
0
0
0
0
0
0
0
0
0
0
0
0
0
0
0
0
0
0
0
0
0
0
0
0
0
0
0
0
0
0
0
0
0
0
0
0
0
0
0
0
0
0
0
0
0
0
0
0
0
0
0
0
0
0
0
0
0
0
0
0
0
0
0
0
0
0
0
0
0
0
0
0
0
0
0
0
0
0
0
0
0
0
0
0
0
0
0
0
0
0
0
0
0
0
0
0
0
0
0
0
0
0
0
0
0
0
0
0
0
0
0
0
0
0
0
0
0
0
0
0
0
0
0
0
0
0
0
0
0
0
0
0
0
0
0
0
0
0
0
0
0
11444.3
11728
11697
11368.7
10675.6
10479.1
10745.6
10871
11092.3
11705
12460.3
9616.85
6470.19
0
11023.2
13728.4
23970.4
33976
33176.4
26554.8
20842.3
19773.4
20041.6
19728.4
19705.8
19239.9
19597.5
18946.4
17545.2
15827.5
15149.3
14546.4
14592.3
14995.8
16025.4
17200.4
18804.1
21739.6
24549.6
27647.6
33373.2
35985.7
35251.2
37350.3
82.5185
6.67863e-05
4.71563e-07
3.48178e-08
1.84545e-07
8.65147e-07
1.27845e-05
0.00160942
0.259851
55.0068
301.992
654.418
1509.28
2545.05
3669.04
1873.54
3953.38
4605.26
8447.46
4163.16
163.163
66.314
7.25339
0.0475238
2.36741e-05
2.18188e-08
2.0249e-11
1.69472e-14
1.35016e-17
1.08944e-20
8.83288e-24
6.86604e-27
4.17899e-30
1.16553e-33
7.82069e-42
5.57835e-49
2.19478e-56
2.85504e-59
3.63922e-59
4.44202e-58
7.918e-59
1.57821e-61
1.66076e-64
1.38665e-67
9.99731e-71
6.44028e-74
3.83001e-77
2.20399e-80
1.26915e-83
7.35031e-87
4.21675e-90
2.37196e-93
1.30165e-96
6.94487e-100
3.63563e-103
1.85041e-106
9.31887e-110
4.57025e-113
2.13962e-116
9.80362e-120
4.23892e-123
1.83976e-126
7.59016e-130
3.08052e-133
1.17862e-136
4.13827e-140
1.39453e-143
4.76334e-147
1.80663e-150
7.15911e-154
2.87367e-157
1.10081e-160
0
0
0
0
0
0
0
0
0
0
0
0
0
0
0
0
0
0
0
0
0
0
0
0
0
0
0
0
0
0
0
0
0
0
0
0
0
0
0
0
0
0
0
0
0
0
0
0
0
0
0
0
0
0
0
0
0
0
0
0
0
0
0
0
0
0
0
0
0
0
0
0
0
0
0
0
0
0
0
0
0
0
0
0
0
0
0
0
0
0
0
0
0
0
0
0
0
0
0
0
0
0
0
0
0
0
0
0
0
0
0
0
0
0
0
0
0
0
0
0
0
0
0
0
0
0
0
0
0
0
0
0
0
0
0
0
0
0
0
0
0
0
0
0
0
0
0
0
0
0
0
0
0
0
0
0
0
0
0
0
0
0
0
0
0
0
0
0
0
0
0
0
0
0
0
0
0
0
0
0
0
0
0
0
0
0
0
0
0
0
0
0
0
0
0
0
0
0
0
0
0
0
0
0
0
0
0
0
0
0
0
0
0
0
0
0
0
0
0
0
0
0
0
0
0
0
0
0
0
0
0
0
0
0
0
0
0
0
0
0
0
0
0
0
0
0
0
0
0
0
0
0
0
0
0
0
0
0
0
0
0
0
0
0
0
0
0
0
0
0
0
0
0
0
0
0
0
0
0
0
0
0
0
0
9428.71
9969.75
9882.28
9717.06
9845.34
9838.5
9716.31
9550.09
9704.29
10437.4
12363
14032.7
13408
14448.4
16137.5
16319.7
22605.2
30747.1
26886.9
20454.9
18418.6
20116.1
20483.4
20715.3
20367.6
20574.9
20511.5
19875.4
17726.3
16130.7
15420.2
15022.1
14785.4
14760.7
15287.5
16172.6
17940.9
20452.7
24525.6
28508.5
36517.9
42099.4
48451.7
58014.8
56878.1
48240.2
18.0316
0.00135952
0.000197995
0.00256691
0.124583
4.50434
63.9788
293.104
835.139
1537.03
1608.7
1247.37
877.839
976.849
904.987
1828.69
4810.19
8482.11
867.677
69.1167
12.5429
1.03598
0.000729123
4.33213e-07
2.61078e-10
1.83974e-13
1.53206e-16
1.39019e-19
1.29932e-22
1.17495e-25
9.55654e-29
7.36372e-32
3.44576e-35
5.68344e-39
3.94841e-43
5.45167e-47
2.31489e-50
7.34317e-53
1.2426e-55
1.53942e-58
1.40397e-61
1.15164e-64
8.1646e-68
5.21963e-71
3.05154e-74
1.68371e-77
9.01563e-81
4.77523e-84
2.51518e-87
1.31402e-90
6.7771e-94
3.43444e-97
1.72221e-100
8.38575e-104
4.0387e-107
1.92794e-110
8.84976e-114
4.10732e-117
1.81833e-120
8.17213e-124
3.51728e-127
1.51646e-130
6.33869e-134
2.62919e-137
1.04906e-140
4.00807e-144
1.54787e-147
5.71643e-151
2.07723e-154
7.58446e-158
2.7213e-161
0
0
0
0
0
0
0
0
0
0
0
0
0
0
0
0
0
0
0
0
0
0
0
0
0
0
0
0
0
0
0
0
0
0
0
0
0
0
0
0
0
0
0
0
0
0
0
0
0
0
0
0
0
0
0
0
0
0
0
0
0
0
0
0
0
0
0
0
0
0
0
0
0
0
0
0
0
0
0
0
0
0
0
0
0
0
0
0
0
0
0
0
0
0
0
0
0
0
0
0
0
0
0
0
0
0
0
0
0
0
0
0
0
0
0
0
0
0
0
0
0
0
0
0
0
0
0
0
0
0
0
0
0
0
0
0
0
0
0
0
0
0
0
0
0
0
0
0
0
0
0
0
0
0
0
0
0
0
0
0
0
0
0
0
0
0
0
0
0
0
0
0
0
0
0
0
0
0
0
0
0
0
0
0
0
0
0
0
0
0
0
0
0
0
0
0
0
0
0
0
0
0
0
0
0
0
0
0
0
0
0
0
0
0
0
0
0
0
0
0
0
0
0
0
0
0
0
0
0
0
0
0
0
0
0
0
0
0
0
0
0
0
0
0
0
0
0
0
0
0
0
0
0
0
0
0
0
0
0
0
0
0
0
0
0
0
0
0
0
0
0
0
0
0
0
0
0
0
0
0
0
0
0
6927.91
7559.54
7761.75
7667.44
7903.21
8003.29
8321
8377.76
8547.9
8846.75
10123.4
11815.1
13432.3
13812
15254.3
17147.5
19578.1
22756.6
19768.1
18056.6
19079.4
18368.8
19122.4
20335.5
21260.1
21678.2
20937.9
19184
17528.2
16289.2
15883.9
15425.5
15463.5
15179.8
15557.9
16097.6
17528.4
19667.2
23598.8
28370.1
36874.6
45685.3
56936.5
70501.2
70041.6
33637.2
6486.84
2130.51
1577.74
1537.36
1359.02
1484.12
1185.63
585.206
233.697
127.312
100.16
100.169
120.564
186.303
501.907
1307.99
3043.73
5868.13
15356.2
72.3308
17.9505
2.5903
0.003463
3.36731e-06
2.77549e-09
1.98821e-12
1.30089e-15
8.36368e-19
5.42934e-22
3.85381e-25
2.86606e-28
2.11945e-31
1.55305e-34
7.4987e-38
4.83635e-41
2.06428e-44
1.1487e-47
6.68161e-51
4.18952e-54
2.67452e-57
1.70432e-60
1.03194e-63
5.97327e-67
3.30795e-70
1.77196e-73
9.17978e-77
4.66307e-80
2.33835e-83
1.16273e-86
5.75137e-90
2.81752e-93
1.36748e-96
6.55968e-100
3.11705e-103
1.44841e-106
6.78994e-110
3.08154e-113
1.397e-116
6.19698e-120
2.74899e-123
1.18458e-126
5.18528e-130
2.16763e-133
9.21422e-137
3.74024e-140
1.48333e-143
5.80383e-147
2.13255e-150
7.73048e-154
2.71918e-157
9.63148e-161
0
0
0
0
0
0
0
0
0
0
0
0
0
0
0
0
0
0
0
0
0
0
0
0
0
0
0
0
0
0
0
0
0
0
0
0
0
0
0
0
0
0
0
0
0
0
0
0
0
0
0
0
0
0
0
0
0
0
0
0
0
0
0
0
0
0
0
0
0
0
0
0
0
0
0
0
0
0
0
0
0
0
0
0
0
0
0
0
0
0
0
0
0
0
0
0
0
0
0
0
0
0
0
0
0
0
0
0
0
0
0
0
0
0
0
0
0
0
0
0
0
0
0
0
0
0
0
0
0
0
0
0
0
0
0
0
0
0
0
0
0
0
0
0
0
0
0
0
0
0
0
0
0
0
0
0
0
0
0
0
0
0
0
0
0
0
0
0
0
0
0
0
0
0
0
0
0
0
0
0
0
0
0
0
0
0
0
0
0
0
0
0
0
0
0
0
0
0
0
0
0
0
0
0
0
0
0
0
0
0
0
0
0
0
0
0
0
0
0
0
0
0
0
0
0
0
0
0
0
0
0
0
0
0
0
0
0
0
0
0
0
0
0
0
0
0
0
0
0
0
0
0
0
0
0
0
0
0
0
0
0
0
0
0
0
0
0
0
0
0
0
0
0
0
0
0
0
0
0
0
0
0
0
5432.78
5751.82
6083.94
6214.09
6682.51
7237.69
7883.95
8177.56
8370.89
8466.65
9112.77
10309.5
11374.5
12383.1
14627.1
18375.4
18333.6
19345.8
19240
19089.5
16830.7
17094.6
18385.3
19659.2
20574.5
20813.2
19970.1
18890.4
17902.2
17502.5
16997.2
16727.7
16578.5
16550.3
16754.1
17652.8
18906.4
21117.5
24363
29285.6
37262.3
47457.7
57054.6
57425.9
42882.8
22374.5
7891.58
3068.52
1340.7
648.788
333.985
150.112
48.4164
15.0614
5.62283
3.86172
4.517
8.46684
17.7365
50.5047
175.799
686.041
2289.27
4541.59
6100.18
220.669
19.7024
3.27684
0.124882
3.57979e-05
1.12973e-08
4.99072e-12
3.04449e-15
1.82355e-18
1.07732e-21
6.23353e-25
3.40524e-28
1.65992e-31
9.2395e-35
3.09666e-38
1.68699e-41
5.65949e-45
2.50152e-48
1.1602e-51
6.12e-55
3.78439e-58
2.48466e-61
1.64106e-64
1.03651e-67
6.31381e-71
3.7131e-74
2.1329e-77
1.19852e-80
6.57577e-84
3.54509e-87
1.87642e-90
9.75732e-94
4.97121e-97
2.47947e-100
1.22298e-103
5.84536e-107
2.78611e-110
1.28235e-113
5.79958e-117
2.60781e-120
1.13799e-123
4.92663e-127
2.10867e-130
8.71621e-134
3.65254e-137
1.44955e-140
5.74377e-144
2.17347e-147
7.90064e-151
2.87259e-154
9.95895e-158
3.46095e-161
0
0
0
0
0
0
0
0
0
0
0
0
0
0
0
0
0
0
0
0
0
0
0
0
0
0
0
0
0
0
0
0
0
0
0
0
0
0
0
0
0
0
0
0
0
0
0
0
0
0
0
0
0
0
0
0
0
0
0
0
0
0
0
0
0
0
0
0
0
0
0
0
0
0
0
0
0
0
0
0
0
0
0
0
0
0
0
0
0
0
0
0
0
0
0
0
0
0
0
0
0
0
0
0
0
0
0
0
0
0
0
0
0
0
0
0
0
0
0
0
0
0
0
0
0
0
0
0
0
0
0
0
0
0
0
0
0
0
0
0
0
0
0
0
0
0
0
0
0
0
0
0
0
0
0
0
0
0
0
0
0
0
0
0
0
0
0
0
0
0
0
0
0
0
0
0
0
0
0
0
0
0
0
0
0
0
0
0
0
0
0
0
0
0
0
0
0
0
0
0
0
0
0
0
0
0
0
0
0
0
0
0
0
0
0
0
0
0
0
0
0
0
0
0
0
0
0
0
0
0
0
0
0
0
0
0
0
0
0
0
0
0
0
0
0
0
0
0
0
0
0
0
0
0
0
0
0
0
0
0
0
0
0
0
0
0
0
0
0
0
0
0
0
0
0
0
0
0
0
0
0
0
0
5075.07
5106.33
5564.87
6013.38
6522.84
7177.45
7758.89
8501.41
8838.8
8915
9341.1
9956.06
10929.6
11457.5
12812.2
15838.6
20065.4
20127.9
19636.3
17211.8
16162.9
16808.5
17958
19047.4
20086.7
20636.3
20737.6
20962.1
20718.4
20592.7
20754.4
20350.6
20399.3
20045.7
20645.7
21235.8
22959.5
25108.7
28632.2
33831.4
39576.3
38787.5
25840.3
12359.4
5226.46
1693.62
459.04
121.06
39.7219
15.9775
6.9638
3.36669
1.88426
1.21339
1.10676
1.33048
2.04547
3.62762
9.62043
29.9709
127.978
461.285
1290.34
3047.09
4196.77
279.025
11.5318
3.39746
0.325095
0.000147231
5.09191e-08
1.39325e-11
4.52877e-15
1.68972e-18
7.78387e-22
3.55568e-25
1.6228e-28
6.12892e-32
2.36685e-35
4.44907e-39
1.68731e-42
2.93118e-46
1.22511e-49
3.7917e-53
2.09669e-56
1.2798e-59
9.52225e-63
7.2285e-66
5.35355e-69
3.75108e-72
2.54556e-75
1.65348e-78
1.05218e-81
6.44461e-85
3.85428e-88
2.25542e-91
1.28759e-94
7.17374e-98
3.87671e-101
2.0609e-104
1.05099e-107
5.2922e-111
2.57959e-114
1.21088e-117
5.70122e-121
2.53983e-124
1.14343e-127
4.8784e-131
2.06993e-134
8.60259e-138
3.42161e-141
1.3714e-144
5.19816e-148
1.96999e-151
7.18871e-155
2.53845e-158
9.30147e-162
0
0
0
0
0
0
0
0
0
0
0
0
0
0
0
0
0
0
0
0
0
0
0
0
0
0
0
0
0
0
0
0
0
0
0
0
0
0
0
0
0
0
0
0
0
0
0
0
0
0
0
0
0
0
0
0
0
0
0
0
0
0
0
0
0
0
0
0
0
0
0
0
0
0
0
0
0
0
0
0
0
0
0
0
0
0
0
0
0
0
0
0
0
0
0
0
0
0
0
0
0
0
0
0
0
0
0
0
0
0
0
0
0
0
0
0
0
0
0
0
0
0
0
0
0
0
0
0
0
0
0
0
0
0
0
0
0
0
0
0
0
0
0
0
0
0
0
0
0
0
0
0
0
0
0
0
0
0
0
0
0
0
0
0
0
0
0
0
0
0
0
0
0
0
0
0
0
0
0
0
0
0
0
0
0
0
0
0
0
0
0
0
0
0
0
0
0
0
0
0
0
0
0
0
0
0
0
0
0
0
0
0
0
0
0
0
0
0
0
0
0
0
0
0
0
0
0
0
0
0
0
0
0
0
0
0
0
0
0
0
0
0
0
0
0
0
0
0
0
0
0
0
0
0
0
0
0
0
0
0
0
0
0
0
0
0
0
0
0
0
0
0
0
0
0
0
0
0
0
0
0
0
0
4869.61
4869.17
5506.07
6139.49
6757.54
7445.63
7991.67
8395.46
8623.57
8663.36
8899.38
9700.32
10639.2
11370.7
12596.6
13838.9
16210.4
18255.1
18589.8
18762.3
19008.5
19697.1
20635.9
21296.2
22373.2
23354.8
24401.9
25448.2
26064.8
26120.3
26756.4
26148.9
26446.6
26396.6
27047.7
28204.2
30437.7
33031.6
37757.2
41423.4
39715.3
25309.3
10543.9
2914.27
631.256
145.805
29.3963
8.83
3.26361
1.85272
1.39057
1.23105
1.33911
1.76822
2.77449
5.27873
9.60253
18.8404
38.022
87.1471
196.987
480.776
1094.55
1749.55
2117.64
81.6449
10.2551
2.30508
0.215585
0.000111196
3.89174e-08
1.16214e-11
2.77371e-15
6.95844e-19
1.95014e-22
5.97301e-26
2.0425e-29
5.70329e-33
1.87034e-36
3.13775e-40
1.08337e-43
1.71658e-47
7.23731e-51
2.22944e-54
1.19883e-57
7.50223e-61
5.4637e-64
4.23353e-67
3.16687e-70
2.28162e-73
1.56851e-76
1.04281e-79
6.7025e-83
4.15129e-86
2.52259e-89
1.49259e-92
8.58838e-96
4.81433e-99
2.62364e-102
1.39562e-105
7.1858e-109
3.57317e-112
1.7665e-115
8.25653e-119
3.88614e-122
1.72202e-125
7.70195e-129
3.26217e-132
1.38014e-135
5.66313e-139
2.25905e-142
9.00881e-146
3.41234e-149
1.30466e-152
4.74502e-156
1.69677e-159
0
0
0
0
0
0
0
0
0
0
0
0
0
0
0
0
0
0
0
0
0
0
0
0
0
0
0
0
0
0
0
0
0
0
0
0
0
0
0
0
0
0
0
0
0
0
0
0
0
0
0
0
0
0
0
0
0
0
0
0
0
0
0
0
0
0
0
0
0
0
0
0
0
0
0
0
0
0
0
0
0
0
0
0
0
0
0
0
0
0
0
0
0
0
0
0
0
0
0
0
0
0
0
0
0
0
0
0
0
0
0
0
0
0
0
0
0
0
0
0
0
0
0
0
0
0
0
0
0
0
0
0
0
0
0
0
0
0
0
0
0
0
0
0
0
0
0
0
0
0
0
0
0
0
0
0
0
0
0
0
0
0
0
0
0
0
0
0
0
0
0
0
0
0
0
0
0
0
0
0
0
0
0
0
0
0
0
0
0
0
0
0
0
0
0
0
0
0
0
0
0
0
0
0
0
0
0
0
0
0
0
0
0
0
0
0
0
0
0
0
0
0
0
0
0
0
0
0
0
0
0
0
0
0
0
0
0
0
0
0
0
0
0
0
0
0
0
0
0
0
0
0
0
0
0
0
0
0
0
0
0
0
0
0
0
0
0
0
0
0
0
0
0
0
0
0
0
0
0
0
0
0
0
0
4185.94
4621.45
4798.41
4993.3
5260.51
5167.08
5395.11
5259.15
5310.12
5656.09
5643.34
6504.89
7181.15
7799.26
9036.4
9919.15
12180.3
14089.3
14501.1
14488.4
13763.7
14516.7
14887.5
15346.1
16603.7
16293.1
17473.6
18461.3
17553.9
17774.8
17407.7
16382.3
17583
16601.5
16829.7
17574.2
19580.1
21492.3
24876.9
28449
34129.5
39318.4
47375.2
54853.3
63766.6
71463.7
75302.1
73098.6
63782.5
59684.4
59229.6
61119.1
58811.6
60833.5
58899.9
65041.8
72352.8
75156.1
79156.9
73876.5
61812.6
52503.5
29124.4
6209.33
494.012
97.8893
18.6157
1.00099
0.000974657
5.90103e-07
2.7117e-10
1.30177e-13
5.47267e-17
2.60005e-20
1.22989e-23
6.06955e-27
2.98322e-30
1.45163e-33
7.66965e-37
3.45793e-40
1.9236e-43
8.22892e-47
4.521e-50
2.06595e-53
1.07606e-56
5.22157e-60
2.60544e-63
1.26039e-66
6.10124e-70
2.86927e-73
1.35106e-76
6.15777e-80
2.84096e-83
1.27496e-86
5.79411e-90
2.61539e-93
1.17881e-96
5.28589e-100
2.34668e-103
1.0359e-106
4.49172e-110
1.90794e-113
8.16336e-117
3.35121e-120
1.38752e-123
5.51766e-127
2.22401e-130
8.56709e-134
3.35062e-137
1.25255e-140
4.71636e-144
1.73942e-147
6.21455e-151
2.24268e-154
7.72219e-158
2.69663e-161
0
0
0
0
0
0
0
0
0
0
0
0
0
0
0
0
0
0
0
0
0
0
0
0
0
0
0
0
0
0
0
0
0
0
0
0
0
0
0
0
0
0
0
0
0
0
0
0
0
0
0
0
0
0
0
0
0
0
0
0
0
0
0
0
0
0
0
0
0
0
0
0
0
0
0
0
0
0
0
0
0
0
0
0
0
0
0
0
0
0
0
0
0
0
0
0
0
0
0
0
0
0
0
0
0
0
0
0
0
0
0
0
0
0
0
0
0
0
0
0
0
0
0
0
0
0
0
0
0
0
0
0
0
0
0
0
0
0
0
0
0
0
0
0
0
0
0
0
0
0
0
0
0
0
0
0
0
0
0
0
0
0
0
0
0
0
0
0
0
0
0
0
0
0
0
0
0
0
0
0
0
0
0
0
0
0
0
0
0
0
0
0
0
0
0
0
0
0
0
0
0
0
0
0
0
0
0
0
0
0
0
0
0
0
0
0
0
0
0
0
0
0
0
0
0
0
0
0
0
0
0
0
0
0
0
0
0
0
0
0
0
0
0
0
0
0
0
0
0
0
0
0
0
0
0
0
0
0
0
0
0
0
0
0
0
0
0
0
0
0
0
0
0
0
0
0
0
0
0
0
0
0
0
0
5238.24
5419.41
5394.84
5550.43
893.629
101.791
7.93771
2.32845
1.02048
0.161944
0.0172025
0.000363463
7.72965e-06
1.49026e-07
0.0106233
0.848502
3.477
5.86735
22.2027
47.1776
71.9112
78.9033
73.0612
64.6086
52.7047
54.3749
40.0793
25.7942
16.4936
9.43924
2.76836
0.484863
0.116391
0.011073
0.000508773
2.41653e-06
1.07376e-08
4.70917e-11
1.94232e-13
7.15347e-16
2.20079e-18
6.97341e-21
3.49792e-21
2.15064e-19
9.04982e-22
1.07533e-19
4.21405e-18
1.77199e-17
4.12137e-17
4.68345e-17
2.64147e-17
1.94389e-17
4.03655e-17
1.08821e-16
2.08535e-16
2.69161e-16
4.57759e-16
1.05596e-15
4.7686e-16
6.04455e-17
7.58503e-20
2.62627e-23
9.27101e-27
3.52861e-30
1.44664e-33
6.72124e-37
3.22065e-40
1.597e-43
8.28543e-47
4.33159e-50
2.16044e-53
1.01665e-56
4.59653e-60
1.90759e-63
2.46226e-81
1.84871e-82
2.87415e-85
2.77866e-88
1.38765e-90
8.2352e-93
1.66923e-95
1.62039e-98
1.0347e-101
3.30051e-105
1.05277e-108
3.4113e-112
1.12255e-115
3.71873e-119
1.23801e-122
4.08311e-126
1.33968e-129
4.30087e-133
1.37971e-136
4.29497e-140
1.34224e-143
4.10317e-147
1.6133e-150
6.53074e-154
2.49971e-157
9.09698e-161
0
0
0
0
0
0
0
0
0
0
0
0
0
0
0
0
0
0
0
0
0
0
0
0
0
0
0
0
0
0
0
0
0
0
0
0
0
0
0
0
0
0
0
0
0
0
0
0
0
0
0
0
0
0
0
0
0
0
0
0
0
0
0
0
0
0
0
0
0
0
0
0
0
0
0
0
0
0
0
0
0
0
0
0
0
0
0
0
0
0
0
0
0
0
0
0
0
0
0
0
0
0
0
0
0
0
0
0
0
0
0
0
0
0
0
0
0
0
0
0
0
0
0
0
0
0
0
0
0
0
0
0
0
0
0
0
0
0
0
0
0
0
0
0
0
0
0
0
0
0
0
0
0
0
0
0
0
0
0
0
0
0
0
0
0
0
0
0
0
0
0
0
0
0
0
0
0
0
0
0
0
0
0
0
0
0
0
0
0
0
0
0
0
0
0
0
0
0
0
0
0
0
0
0
0
0
0
0
0
0
0
0
0
0
0
0
0
0
0
0
0
0
0
0
0
0
0
0
0
0
0
0
0
0
0
0
0
0
0
0
0
0
0
0
0
0
0
0
0
0
0
0
0
0
0
0
0
0
0
0
0
0
0
0
0
0
0
0
0
0
0
0
0
0
5360.41
4861.58
5168.88
5261.27
800.042
109.915
32.168
22.8083
12.6435
4.61105
1.01507
0.0189815
0.00032644
5.19765e-06
0.90528
11.2292
47.2872
92.6173
312.626
564.199
850.869
994.294
957.372
896.659
765.531
763.066
575.276
382.643
255.258
195.205
58.1677
11.5151
2.93082
0.373432
0.10864
6.78262e-05
2.85103e-07
6.02913e-10
1.22944e-12
3.76053e-15
1.55154e-17
8.09779e-19
6.80836e-19
4.04575e-17
2.45518e-19
4.88891e-17
1.98049e-15
1.20884e-14
4.47174e-14
6.70142e-14
3.92911e-14
2.29421e-14
5.54987e-14
1.86696e-13
4.26089e-13
5.8259e-13
9.94937e-13
2.74242e-12
1.22929e-12
1.50047e-13
2.3307e-16
2.86275e-20
1.24201e-24
4.99737e-29
6.32925e-32
1.09107e-34
1.93858e-38
4.02415e-42
1.22888e-45
4.58884e-49
1.99293e-52
8.695e-56
3.74458e-59
1.57821e-62
7.8609e-78
6.55842e-79
1.05011e-81
1.03965e-84
4.3634e-87
2.90637e-89
6.0881e-92
5.76885e-95
3.38899e-98
2.71896e-102
3.4102e-106
8.59877e-110
2.58199e-113
7.9199e-117
2.39535e-120
7.65157e-124
2.43653e-127
8.08418e-131
1.72307e-134
7.73257e-138
1.92636e-141
8.47449e-145
3.48585e-147
1.49589e-150