/*--------------------------------*- C++ -*----------------------------------*\
| =========                 |                                                 |
| \\      /  F ield         | OpenFOAM: The Open Source CFD Toolbox           |
|  \\    /   O peration     | Version:  2.1.1                                 |
|   \\  /    A nd           | Web:      www.OpenFOAM.org                      |
|    \\/     M anipulation  |                                                 |
\*---------------------------------------------------------------------------*/
FoamFile
{
    version     2.0;
    format      ascii;
    class       volScalarField;
    location    "0.001850000";
    object      p;
}
// * * * * * * * * * * * * * * * * * * * * * * * * * * * * * * * * * * * * * //

dimensions      [1 -1 -2 0 0 0 0];

internalField   nonuniform List<scalar> 
12384
(
205754
204630
202536
199264
200292
190897
190373
179407
182818
182698
190273
194297
203128
206915
227195
222829
214143
216342
207394
207105
204815
204553
203549
203060
202239
202231
202150
202179
197832
194906
183826
184047
174691
175311
174629
172632
183767
186635
195229
204797
207125
204319
198213
194782
206184
205790
204461
202801
199957
199755
199278
198753
211129
212906
222047
230404
238456
247889
255402
261516
267130
271800
273426
266572
259568
231694
210256
201519
197479
194509
193754
193926
190429
193033
136715
136889
137862
138866
139794
141322
142226
143496
144087
144885
145177
145860
146010
146225
145901
145872
144160
143806
141017
142044
140399
141088
141049
141249
141411
140919
140276
139096
137302
137745
112915
112796
112956
112510
112555
112025
111535
111606
110498
110775
109927
109469
109313
108879
108197
108259
107273
107696
106564
107000
106043
106097
105925
105349
105518
105044
104901
104984
104673
104797
101957
101923
101929
101862
101880
101803
101821
101726
101748
101678
101635
101645
101567
101585
101510
101530
101480
101451
101463
101415
101432
101393
101407
101377
101387
101372
101367
101369
101361
101363
101326
101326
101326
101325
101325
101324
101324
101324
101322
101323
101321
101322
101321
101322
101321
101322
101321
101322
101321
101322
101322
101323
101322
101323
101323
101324
101324
101324
101324
101324
101324
101324
101324
101324
101323
101324
101323
101323
101322
101322
101321
101322
101321
101322
101321
101322
101321
101322
101321
101322
101322
101323
101322
101323
101323
101324
101324
101324
101324
101325
101324
101324
101324
101324
101323
101324
101323
101323
101322
101322
101321
101322
101321
101322
101321
101322
101321
101322
101321
101322
101322
101323
101322
101323
101323
101324
101324
101324
101324
101325
101324
101324
101324
101324
101324
101323
101323
101322
101323
101322
101322
101321
101322
101321
101321
101321
101322
101321
101322
101322
101322
101323
101322
101323
101323
101324
101324
101324
101324
101324
101324
101324
101324
101324
101323
101324
101323
101323
101322
101322
101321
101322
101321
101322
101321
101322
101321
101322
101321
101322
101322
101323
101322
101323
101323
101324
101323
101325
101324
101324
101325
101324
101324
101324
101324
101324
101323
101323
101322
101323
101322
101322
101321
101322
101321
101321
101322
101321
101322
101322
101323
101322
101323
101323
101324
101323
101324
101324
101324
101324
101326
101326
101325
101326
101325
101325
101324
101324
101323
101323
101322
101322
101321
101322
101321
101322
101321
101322
101321
101322
101321
101323
101322
101323
101323
101324
101323
101325
101324
101324
206171
204668
202763
199740
198132
192457
187934
184449
185098
184474
191186
198973
205127
210918
228214
224699
218875
216483
214532
211812
210779
208373
209407
208030
207218
205091
203490
200470
198759
193599
189905
183243
179355
178418
180371
178519
186211
185477
195443
203254
207393
205115
201532
196167
201136
199910
198243
195394
196368
192278
196067
196109
202853
209330
220619
227495
237520
241191
244911
246947
248286
249746
249771
253020
240368
239943
223939
212544
197847
198413
192866
192518
192782
190037
137001
136141
138029
138242
140158
141146
142948
143969
144872
145395
145665
145783
145867
145609
145758
144718
144265
143068
142026
141594
140904
140956
141058
141166
140997
140819
139561
138296
138522
136782
113040
113346
112874
112991
112328
112396
111815
111423
111132
110435
110217
109813
108935
109250
108020
108516
107242
107728
106681
106778
106354
105850
105857
105566
105155
105299
104798
105005
104663
104801
101928
101938
101902
101923
101864
101863
101791
101787
101718
101711
101651
101639
101594
101553
101552
101487
101507
101443
101461
101420
101420
101403
101394
101387
101377
101375
101367
101364
101361
101356
101322
101322
101322
101321
101322
101320
101320
101320
101319
101320
101318
101319
101318
101318
101318
101318
101318
101318
101318
101319
101318
101319
101318
101320
101319
101320
101319
101320
101320
101320
101320
101320
101320
101320
101319
101320
101319
101320
101318
101319
101318
101319
101317
101318
101317
101318
101317
101318
101318
101319
101318
101319
101318
101320
101319
101320
101320
101320
101320
101321
101320
101320
101320
101320
101319
101320
101319
101320
101318
101319
101318
101319
101318
101318
101317
101318
101317
101318
101318
101319
101318
101319
101318
101320
101319
101320
101320
101320
101320
101321
101320
101320
101320
101320
101320
101319
101320
101318
101319
101318
101319
101318
101318
101317
101318
101317
101318
101318
101318
101319
101318
101319
101318
101320
101319
101320
101319
101320
101320
101320
101320
101320
101320
101320
101319
101320
101319
101320
101318
101319
101318
101319
101318
101318
101317
101318
101318
101318
101318
101319
101318
101319
101318
101320
101319
101320
101320
101320
101320
101320
101321
101320
101320
101320
101320
101320
101319
101320
101318
101319
101318
101319
101318
101318
101318
101318
101318
101318
101319
101318
101319
101318
101320
101319
101320
101319
101320
101320
101320
101320
101322
101321
101321
101322
101320
101321
101320
101321
101319
101320
101318
101319
101318
101319
101317
101318
101317
101318
101317
101319
101318
101319
101318
101320
101319
101320
101320
101320
101320
101320
206060
205131
202305
201237
196496
193602
190856
187520
190021
188800
193873
201306
209483
214597
226995
225511
218420
219513
214957
213195
211375
208179
205501
205908
204507
203858
201923
200329
198410
193996
194184
186928
185215
183052
183593
181844
187142
185303
193935
200376
206639
206757
205142
198936
191903
191127
189673
191240
189058
192947
188326
195461
196577
202326
213480
223501
231103
236801
238418
238510
236787
235021
235038
230003
239479
239372
234167
226943
210391
198512
195385
191336
190265
190928
136035
136117
137297
137588
139520
140742
142663
144078
145188
145903
146141
145992
145761
145535
144716
144766
143913
142927
143042
141462
141673
140882
141140
140828
140605
139984
138712
138457
137848
136932
113519
113248
113433
112959
113025
112316
112141
111806
110986
111006
110138
109914
109069
109192
108165
108330
107402
107547
106683
106836
106161
106132
105585
105671
105082
105261
104773
104927
104643
104752
102044
101980
102001
101906
101919
101844
101848
101777
101725
101730
101651
101660
101589
101583
101549
101496
101509
101446
101463
101426
101410
101414
101386
101396
101373
101382
101367
101372
101365
101366
101332
101332
101331
101332
101331
101329
101330
101328
101329
101327
101328
101326
101327
101326
101327
101325
101327
101326
101327
101326
101328
101327
101329
101327
101329
101328
101330
101329
101330
101330
101330
101330
101330
101329
101330
101328
101329
101327
101328
101326
101327
101326
101327
101326
101327
101326
101327
101326
101327
101326
101328
101327
101329
101328
101329
101328
101330
101329
101330
101330
101330
101330
101330
101329
101330
101328
101329
101327
101328
101326
101327
101326
101327
101326
101327
101325
101327
101326
101327
101326
101328
101327
101329
101328
101329
101328
101330
101329
101330
101330
101330
101330
101329
101330
101328
101329
101327
101329
101327
101328
101326
101327
101326
101327
101325
101327
101326
101327
101326
101327
101328
101327
101329
101328
101329
101328
101330
101329
101330
101330
101330
101330
101330
101329
101330
101328
101329
101327
101328
101326
101327
101326
101327
101326
101327
101326
101327
101326
101327
101326
101328
101327
101329
101328
101329
101328
101330
101329
101330
101330
101330
101330
101330
101329
101330
101328
101329
101327
101328
101327
101328
101326
101327
101326
101327
101327
101326
101327
101326
101328
101327
101328
101327
101329
101328
101330
101329
101330
101330
101330
101331
101331
101332
101330
101331
101329
101330
101328
101329
101327
101328
101326
101327
101326
101327
101325
101327
101325
101327
101326
101328
101326
101328
101327
101329
101328
101330
101329
101330
101330
206816
205680
203252
202307
198220
197060
194072
193233
193059
195479
195640
202781
211278
217438
225487
215673
217099
213166
215466
215308
212591
210234
207410
204079
205031
202750
203226
199778
200046
192524
194647
186883
188263
187130
188149
186768
188890
189746
189063
196968
201450
205906
204316
202989
189846
185587
182740
176948
179297
173015
179472
172722
182140
187644
194595
205154
216254
222469
227419
228535
227483
226643
222133
227357
229102
235123
238732
234681
224468
210219
194361
193381
189126
191209
135608
135839
135125
137583
138194
140681
142512
144186
145424
146205
146427
146216
145779
144873
144786
143945
143967
143374
143328
141666
142125
140514
141232
140117
139872
138857
138612
137965
137391
136951
113258
113718
113229
113321
112765
112994
112065
111992
111529
110655
110456
110028
109098
109260
108254
108370
107500
107627
106729
106932
106018
106331
105425
105795
104995
105338
104713
104994
104592
104765
101958
101996
101932
102006
101894
101920
101818
101837
101727
101733
101685
101626
101634
101559
101574
101498
101517
101458
101459
101432
101418
101409
101392
101390
101375
101376
101367
101361
101365
101359
101327
101327
101328
101326
101326
101326
101323
101326
101322
101325
101321
101324
101321
101323
101320
101323
101320
101323
101321
101324
101321
101324
101322
101325
101322
101326
101323
101326
101324
101325
101324
101324
101323
101326
101322
101325
101322
101324
101321
101324
101321
101323
101320
101323
101320
101323
101320
101323
101320
101324
101321
101324
101321
101325
101322
101325
101323
101325
101325
101325
101325
101325
101323
101326
101322
101325
101322
101324
101321
101324
101321
101323
101320
101323
101320
101323
101320
101323
101320
101324
101321
101324
101321
101325
101322
101326
101323
101325
101325
101325
101325
101325
101325
101323
101325
101322
101325
101321
101324
101321
101324
101320
101323
101320
101323
101320
101323
101321
101323
101322
101321
101324
101321
101325
101322
101326
101323
101326
101324
101325
101324
101325
101323
101326
101322
101325
101321
101324
101321
101324
101321
101323
101320
101323
101320
101323
101320
101323
101320
101324
101321
101324
101321
101325
101322
101325
101323
101325
101325
101325
101325
101324
101325
101326
101323
101325
101322
101325
101321
101324
101321
101324
101321
101323
101321
101321
101323
101321
101323
101321
101324
101321
101324
101322
101325
101322
101325
101323
101324
101324
101326
101326
101324
101327
101323
101326
101322
101325
101321
101324
101321
101324
101320
101323
101320
101323
101320
101323
101320
101323
101320
101324
101321
101325
101322
101326
101323
101325
101325
101325
206924
206323
204716
203182
201306
199238
198983
198366
197927
199067
201717
203360
210762
217034
217962
210251
210706
212769
213156
214227
212743
211420
209104
202878
203944
202845
200784
201184
196564
194908
194190
188582
187658
186082
186546
186345
186875
187542
189138
188533
197693
200819
200027
193509
167711
171018
172240
176120
173007
176171
168069
174902
165634
175275
184053
195627
201802
210227
216308
221629
223183
221722
223506
221616
222817
226762
231927
235319
230391
226698
202547
190436
193311
190294
135518
134244
134501
135930
136455
139681
141347
143642
145050
145910
146305
146235
145855
145187
144704
144056
144145
143736
143483
142850
141716
140700
140500
139309
138498
138168
137833
137467
137100
137281
113980
114039
114032
113939
113624
112842
112958
111858
111936
111143
110474
110122
109599
108865
108966
107786
108212
107121
107027
106911
106095
106313
105560
105670
105130
105172
104826
104842
104658
104528
102197
102102
102143
101978
102018
101896
101911
101810
101817
101722
101692
101682
101603
101616
101543
101553
101486
101503
101438
101462
101407
101427
101386
101401
101372
101382
101364
101369
101362
101361
101327
101329
101329
101328
101327
101326
101326
101324
101324
101323
101323
101322
101323
101322
101322
101322
101322
101322
101322
101322
101323
101323
101323
101323
101324
101324
101324
101325
101325
101325
101325
101325
101325
101324
101324
101324
101324
101323
101323
101322
101323
101322
101322
101322
101322
101322
101322
101322
101322
101322
101323
101323
101323
101323
101324
101324
101324
101325
101325
101325
101325
101325
101325
101324
101324
101324
101324
101323
101323
101322
101323
101322
101322
101322
101322
101322
101322
101322
101322
101322
101323
101323
101323
101323
101324
101324
101324
101325
101325
101325
101325
101325
101324
101324
101324
101324
101323
101323
101323
101323
101322
101322
101322
101322
101322
101322
101322
101322
101322
101322
101323
101323
101323
101323
101324
101324
101325
101325
101325
101325
101325
101325
101325
101324
101324
101324
101324
101323
101323
101322
101323
101322
101322
101322
101322
101322
101322
101322
101322
101322
101323
101323
101323
101323
101324
101324
101324
101325
101325
101325
101325
101325
101325
101324
101324
101324
101324
101323
101323
101323
101323
101322
101322
101322
101322
101322
101322
101322
101322
101323
101322
101323
101323
101324
101324
101324
101324
101324
101325
101325
101326
101326
101326
101325
101325
101324
101325
101323
101324
101323
101323
101322
101322
101322
101322
101322
101322
101322
101322
101322
101323
101322
101323
101323
101324
101324
101324
101325
101325
101325
207396
207014
206177
205345
203044
202609
200298
200375
199843
201470
201160
205258
207262
214560
212541
213012
212031
209142
212125
213349
214437
209247
210918
203104
202280
203120
200035
200466
196220
195900
193826
189685
189747
186668
186810
189176
187881
185553
186771
186684
184548
188797
189931
195159
172828
167385
162590
157565
158190
157516
165376
165801
172179
168792
185274
184391
202798
205291
213876
216013
219505
222415
221858
221408
220861
220293
223721
227698
232279
229777
216537
196841
196594
191471
133310
132754
130448
132417
134077
138269
140583
143142
144556
145429
145910
146088
145981
145650
145178
144605
144138
144156
143229
143590
140817
141727
139320
137978
137711
137335
136981
136747
137100
136334
113647
114265
114408
113722
113792
113617
112764
112821
111647
111402
111105
109780
110250
108672
109237
107811
108233
107224
107029
106887
106232
106135
105731
105548
105251
105081
104888
104746
104598
104587
102108
102215
102059
102165
101994
102030
101887
101911
101781
101809
101689
101687
101644
101595
101590
101531
101533
101491
101461
101456
101422
101423
101399
101395
101383
101378
101369
101370
101361
101365
101333
101330
101330
101330
101328
101328
101326
101327
101325
101325
101324
101324
101323
101324
101323
101323
101323
101323
101323
101324
101323
101324
101324
101325
101324
101326
101325
101326
101325
101326
101326
101326
101325
101326
101325
101325
101324
101325
101323
101324
101323
101324
101323
101323
101322
101323
101323
101323
101323
101324
101323
101324
101324
101325
101324
101325
101325
101326
101326
101326
101326
101326
101325
101326
101325
101325
101324
101325
101323
101324
101323
101324
101323
101323
101323
101323
101323
101323
101323
101324
101323
101324
101324
101325
101324
101325
101325
101326
101326
101326
101326
101326
101326
101325
101325
101324
101325
101324
101324
101323
101324
101323
101323
101322
101323
101322
101323
101323
101323
101324
101323
101324
101324
101325
101324
101326
101325
101326
101326
101326
101326
101326
101325
101326
101325
101325
101324
101325
101323
101324
101323
101324
101323
101323
101323
101323
101323
101323
101323
101324
101323
101324
101324
101325
101324
101325
101325
101326
101326
101326
101326
101326
101326
101325
101325
101325
101324
101325
101323
101324
101323
101324
101323
101323
101323
101323
101323
101323
101324
101323
101324
101323
101325
101324
101325
101325
101326
101325
101326
101326
101327
101326
101326
101326
101325
101326
101324
101325
101324
101324
101323
101324
101322
101323
101322
101323
101322
101323
101322
101324
101323
101324
101323
101325
101324
101325
101325
101326
101326
101326
207285
207132
207157
206754
204661
203794
201971
201798
201866
201295
202946
202227
205744
207886
211077
209060
211238
211944
212000
214098
212789
211314
209178
203873
202369
202186
199651
200195
196217
197280
192333
191964
191487
187610
188351
186658
189611
184880
181765
181640
183625
184228
186740
181262
157157
157087
157806
162630
160772
166090
167748
166589
170958
167380
176758
188355
199586
204665
205864
210783
214500
217046
219345
219027
216013
215457
215967
221633
225766
226160
223353
213358
198453
193448
132238
131205
129756
130679
131802
137186
139715
142717
144301
145081
145547
145842
145964
145929
145628
145274
144663
144041
143518
143296
140697
141480
138459
137105
137499
136256
135727
136321
135372
135069
114684
115025
114578
115256
114117
113816
113565
112487
112613
111258
111411
110170
110018
108993
109107
108036
108179
107273
107291
106585
106597
105846
106055
105292
105530
104787
105082
104496
104701
104378
102434
102282
102346
102134
102165
102005
102014
101880
101884
101779
101748
101711
101628
101650
101560
101579
101507
101521
101460
101474
101423
101437
101395
101409
101377
101388
101366
101373
101362
101363
101330
101333
101332
101329
101330
101327
101328
101326
101326
101324
101324
101323
101323
101323
101323
101323
101323
101323
101323
101323
101323
101323
101324
101324
101324
101325
101325
101325
101325
101325
101325
101325
101325
101325
101325
101324
101324
101324
101324
101323
101323
101323
101323
101323
101323
101323
101323
101323
101323
101323
101323
101323
101324
101324
101324
101325
101325
101325
101325
101325
101325
101325
101325
101325
101325
101324
101324
101324
101324
101323
101323
101323
101323
101323
101323
101323
101323
101323
101323
101323
101323
101323
101324
101324
101324
101325
101325
101325
101325
101325
101325
101325
101325
101325
101324
101324
101324
101324
101323
101323
101323
101323
101323
101323
101323
101323
101323
101322
101323
101323
101324
101323
101324
101324
101325
101325
101325
101325
101325
101325
101325
101325
101325
101325
101325
101324
101324
101324
101324
101323
101323
101323
101323
101323
101323
101323
101323
101323
101323
101323
101323
101323
101324
101324
101324
101325
101325
101325
101325
101325
101325
101325
101325
101325
101325
101324
101324
101324
101324
101323
101323
101323
101323
101323
101323
101323
101323
101323
101323
101323
101323
101324
101324
101324
101324
101325
101325
101325
101325
101325
101326
101326
101326
101325
101325
101325
101324
101324
101324
101323
101323
101323
101323
101322
101322
101322
101322
101322
101323
101323
101323
101323
101324
101324
101324
101325
101325
101325
101325
101326
207269
207916
207863
207445
206238
204410
203222
201757
201790
201425
200550
202445
201561
203812
212214
211838
212055
212087
214641
214917
213853
210566
207344
205052
201926
200662
200682
198975
197964
195941
195346
192676
191073
190988
187542
186431
185808
187433
182245
178452
172572
173044
173814
184260
161290
157025
157536
156790
163786
167930
160481
164620
161650
166727
193579
196207
209933
218460
206433
207583
209048
210998
212115
214429
215873
212827
212300
211511
214834
223119
225616
220993
214938
193945
131702
129651
125471
127064
130017
136289
139729
142901
144260
145036
145454
145628
145846
145924
145869
145727
144986
143912
144171
142265
140972
140496
138431
136570
136703
135485
135917
134989
135402
135613
113118
115267
115863
115001
115544
114049
113759
113354
112134
112293
110841
111184
109526
109734
108919
108196
108337
107223
107541
106458
106789
105819
106131
105224
105610
104779
105129
104491
104713
104294
102282
102451
102160
102353
102102
102168
101977
101998
101851
101869
101730
101767
101654
101649
101596
101571
101538
101503
101500
101452
101459
101419
101416
101404
101387
101385
101373
101373
101362
101366
101339
101334
101333
101333
101331
101331
101329
101329
101327
101327
101325
101326
101324
101325
101324
101324
101324
101324
101324
101325
101324
101325
101325
101326
101325
101326
101326
101327
101327
101327
101327
101327
101326
101326
101326
101326
101325
101325
101325
101325
101324
101325
101324
101324
101324
101324
101324
101324
101324
101325
101324
101325
101325
101326
101325
101326
101326
101327
101327
101327
101327
101327
101326
101327
101326
101326
101325
101325
101325
101325
101324
101325
101324
101324
101324
101324
101324
101324
101324
101325
101324
101325
101325
101326
101326
101326
101326
101327
101327
101327
101327
101327
101327
101326
101326
101325
101326
101325
101325
101324
101325
101324
101324
101324
101324
101324
101324
101324
101324
101325
101325
101325
101325
101326
101326
101326
101326
101327
101327
101327
101327
101327
101326
101326
101326
101326
101325
101325
101325
101325
101324
101325
101324
101324
101324
101324
101324
101324
101324
101325
101324
101325
101325
101326
101325
101326
101326
101326
101327
101327
101327
101327
101327
101326
101326
101326
101325
101325
101325
101325
101324
101325
101324
101324
101324
101324
101324
101324
101325
101324
101325
101325
101325
101325
101326
101326
101326
101326
101327
101327
101327
101327
101327
101327
101326
101326
101325
101326
101325
101325
101324
101324
101324
101324
101324
101324
101324
101324
101324
101324
101324
101325
101325
101326
101325
101326
101326
101327
101327
101327
207570
208182
208455
208335
206897
205551
203463
203642
201861
201074
200937
198970
200182
199591
202879
204484
212288
211470
212078
215198
215504
215036
212816
210233
206937
206291
200985
202333
199696
200147
197403
197960
195955
194233
194137
190679
191352
187156
186542
183596
185376
184944
178076
171339
166937
161664
140913
150523
149883
146559
148849
158452
165174
170005
158605
157957
160355
176914
261777
217148
190913
213712
210939
196160
200020
205919
208837
208510
209141
209047
205598
206549
210810
215929
220030
215406
213120
186208
117757
131611
135439
132260
127591
131977
132378
139519
141266
143781
144741
145255
145422
145517
145578
145715
145852
145610
145028
143958
144069
141242
141628
139181
138170
136279
135560
135381
133437
132576
130809
125559
119585
122147
115518
117036
117073
117013
115572
115675
113794
113737
112832
111856
111926
110570
110413
109905
108841
108715
108080
107523
107396
106559
106792
105785
106181
105188
105572
104741
104983
104384
104304
104012
103618
103292
103063
102620
102706
102281
102423
102075
102186
101920
102007
101803
101816
101754
101671
101684
101591
101612
101527
101534
101492
101470
101450
101435
101411
101414
101383
101395
101368
101378
101358
101362
101349
101352
101338
101340
101336
101332
101333
101329
101330
101327
101328
101326
101326
101325
101325
101324
101324
101324
101324
101324
101324
101324
101324
101324
101325
101325
101325
101325
101326
101326
101326
101326
101327
101327
101326
101326
101326
101326
101325
101325
101325
101324
101324
101324
101324
101324
101324
101324
101324
101324
101324
101324
101324
101324
101324
101324
101325
101325
101325
101325
101326
101326
101326
101326
101327
101327
101326
101326
101326
101326
101325
101325
101325
101324
101325
101324
101324
101324
101324
101324
101324
101324
101324
101324
101324
101324
101324
101324
101325
101325
101325
101325
101326
101326
101326
101326
101327
101327
101326
101326
101326
101326
101325
101325
101325
101325
101324
101324
101324
101324
101324
101324
101324
101323
101324
101323
101324
101324
101324
101324
101325
101325
101325
101325
101326
101326
101326
101326
101327
101327
101326
101326
101326
101326
101325
101325
101325
101324
101324
101324
101324
101324
101324
101324
101324
101324
101324
101324
101324
101324
101324
101324
101325
101325
101325
101325
101326
101326
101326
101326
101327
101327
101326
101326
101326
101325
101325
101325
101325
101324
101324
101324
101324
101324
101324
101324
101324
101324
101324
101324
101324
101324
101324
101324
101324
101325
101325
101325
101325
101326
101326
101326
101327
101327
101327
101326
101326
101326
101325
101325
101325
101324
101324
101324
101324
101323
101323
101323
101323
101323
101323
101323
101324
101324
101324
101324
101325
101325
101325
101326
101326
101326
101326
101327
101327
101327
207899
208028
208840
208577
207502
205920
204385
202891
202575
199820
200272
198822
198193
198336
202366
201987
208146
210647
212926
215217
215876
213293
212008
209619
208624
204253
203798
200365
201577
199005
199995
197313
197655
195604
194866
193275
191245
190715
186583
184167
181689
177705
178837
176240
166693
164880
159066
152791
157083
155734
160028
167446
168119
176610
161303
164116
162643
162618
184245
171414
201807
196001
192005
178828
190412
198372
202715
204509
204403
203036
205716
205151
205897
208449
212256
216390
201841
204047
136720
154238
134751
133764
132241
131983
139892
140120
143388
144461
145396
145366
145382
145301
145288
145368
145390
145297
144892
143804
143678
140953
140823
139356
136710
137592
133986
135277
132081
132680
129807
127976
126552
120411
120455
118951
117912
117011
116688
115036
114930
113712
112720
112574
111430
111136
110042
110173
108908
109023
107929
108143
106978
107153
106460
106070
106001
105259
105529
104689
105015
104220
104482
103802
103902
103106
103212
102651
102763
102347
102420
102139
102182
101965
102004
101840
101846
101734
101750
101622
101668
101557
101573
101532
101482
101497
101438
101458
101407
101425
101386
101395
101372
101377
101361
101366
101349
101355
101339
101345
101336
101338
101333
101334
101330
101331
101328
101328
101327
101327
101326
101326
101325
101325
101325
101325
101325
101325
101326
101326
101326
101326
101327
101327
101327
101327
101328
101328
101328
101328
101328
101327
101327
101327
101327
101327
101326
101326
101326
101326
101325
101325
101325
101325
101325
101325
101325
101325
101325
101326
101325
101326
101326
101326
101326
101327
101327
101327
101327
101328
101328
101328
101328
101327
101327
101327
101327
101327
101326
101326
101326
101326
101325
101325
101325
101325
101325
101325
101325
101325
101325
101326
101326
101326
101326
101326
101326
101327
101327
101327
101327
101328
101328
101328
101328
101328
101327
101327
101327
101326
101326
101326
101326
101326
101326
101325
101325
101325
101325
101325
101325
101325
101325
101326
101326
101326
101326
101327
101326
101327
101327
101327
101327
101328
101328
101328
101328
101327
101327
101327
101327
101327
101326
101326
101326
101326
101325
101325
101325
101325
101325
101325
101325
101325
101325
101326
101325
101326
101326
101326
101326
101327
101327
101327
101327
101327
101328
101328
101327
101327
101327
101327
101327
101327
101326
101326
101326
101326
101325
101325
101325
101325
101325
101325
101325
101325
101325
101325
101326
101326
101326
101326
101327
101327
101327
101327
101327
101327
101328
101328
101328
101327
101327
101327
101327
101326
101326
101326
101325
101325
101325
101325
101325
101325
101324
101325
101324
101325
101325
101325
101325
101326
101326
101326
101326
101327
101327
101327
101328
101328
101328
101328
207550
208410
208676
208546
207885
206651
204591
203898
201608
201486
198480
198682
197156
197784
199159
202260
204718
210945
213269
214148
213467
213020
210548
210776
207764
207405
202184
203268
200188
200395
199272
198815
197111
195699
195878
192997
193395
189762
190485
184778
185363
180149
175444
171495
170998
176554
173801
162496
154576
156814
163281
167512
166466
170058
163873
165091
165805
164026
166899
198561
183005
183811
180820
184262
180600
196683
197523
198619
201874
204540
202061
198795
200214
203488
210275
207713
200411
198765
172308
152023
150209
145094
139527
140391
139800
144557
143867
145806
145233
145681
145291
145093
144918
144805
144838
144729
144468
143431
143183
140754
139873
139561
136271
137513
133439
134955
131423
131375
129450
128058
125697
121062
122557
119569
118523
118347
116298
116464
114264
114673
112724
112796
111568
111476
110196
110137
109469
108457
108720
107567
107349
107056
106315
106489
105665
105485
105429
104713
104994
104183
104441
103780
103861
103152
103269
102712
102826
102421
102482
102171
102251
101961
102059
101836
101905
101725
101784
101638
101666
101580
101571
101533
101501
101492
101448
101455
101414
101422
101390
101396
101373
101379
101360
101367
101350
101356
101343
101344
101339
101337
101334
101331
101332
101329
101329
101327
101327
101325
101326
101325
101325
101325
101325
101325
101325
101325
101325
101325
101325
101326
101326
101326
101326
101326
101327
101327
101327
101327
101327
101327
101326
101326
101326
101326
101325
101325
101325
101325
101325
101325
101324
101324
101324
101324
101324
101324
101324
101325
101325
101325
101325
101325
101326
101326
101326
101326
101327
101327
101327
101327
101327
101327
101326
101326
101326
101326
101325
101325
101325
101325
101325
101325
101324
101324
101324
101324
101324
101325
101325
101325
101325
101325
101325
101325
101326
101326
101326
101326
101327
101327
101327
101327
101327
101327
101326
101326
101326
101326
101325
101325
101325
101325
101325
101325
101324
101324
101324
101324
101324
101325
101325
101325
101325
101325
101325
101326
101326
101326
101326
101326
101327
101327
101327
101327
101327
101327
101326
101326
101326
101326
101325
101325
101325
101325
101325
101325
101324
101324
101324
101324
101324
101325
101324
101325
101325
101325
101325
101325
101326
101326
101326
101326
101326
101327
101327
101327
101327
101326
101326
101326
101326
101326
101325
101325
101325
101325
101325
101325
101324
101324
101324
101324
101324
101324
101325
101325
101325
101325
101325
101325
101326
101326
101326
101326
101326
101327
101326
101327
101327
101326