/*--------------------------------*- C++ -*----------------------------------*\
| =========                 |                                                 |
| \\      /  F ield         | OpenFOAM: The Open Source CFD Toolbox           |
|  \\    /   O peration     | Version:  2.1.1                                 |
|   \\  /    A nd           | Web:      www.OpenFOAM.org                      |
|    \\/     M anipulation  |                                                 |
\*---------------------------------------------------------------------------*/
FoamFile
{
    version     2.0;
    format      ascii;
    class       volScalarField;
    location    "0.001850000";
    object      rho;
}
// * * * * * * * * * * * * * * * * * * * * * * * * * * * * * * * * * * * * * //

dimensions      [1 -3 0 0 0 0 0];

internalField   nonuniform List<scalar> 
12384
(
0.254972
0.248819
0.246675
0.245135
0.654238
1.28626
1.40551
1.36672
1.3816
1.36095
1.38175
1.38228
1.41836
1.43697
1.63335
1.65289
1.62959
1.63852
1.57129
1.51247
1.44522
1.41571
1.42499
1.43587
1.44472
1.48222
1.47398
1.50745
1.52788
1.53107
1.46803
1.47631
1.417
1.40845
1.39646
1.35229
1.38414
1.37095
1.39518
1.42886
1.43594
1.42414
1.39526
1.37602
1.47016
1.49275
1.51671
1.53736
1.54515
1.55297
1.55168
1.54451
1.61667
1.62141
1.67502
1.7211
1.7751
1.83821
1.88427
1.91495
1.93236
1.93271
1.91549
1.84406
1.77145
1.60122
1.46779
1.41891
1.39259
1.37762
1.37309
1.37497
1.35751
1.37055
1.08847
1.1004
1.11308
1.1248
1.1341
1.14547
1.14956
1.15266
1.15023
1.14849
1.14333
1.1415
1.13702
1.13326
1.1287
1.12591
1.11416
1.11222
1.09515
1.1016
1.09212
1.09593
1.09571
1.09688
1.09743
1.09516
1.09107
1.08492
1.07468
1.07719
0.934911
0.934608
0.93536
0.932752
0.932715
0.929704
0.926476
0.927246
0.92035
0.922266
0.917035
0.914471
0.913381
0.911047
0.906729
0.907361
0.901215
0.903955
0.896975
0.899721
0.893867
0.894258
0.89317
0.889743
0.890702
0.887902
0.886972
0.887538
0.88561
0.886194
0.868986
0.868983
0.869031
0.868637
0.868742
0.868296
0.868403
0.867842
0.867978
0.867572
0.867307
0.867399
0.866939
0.86708
0.866623
0.866758
0.866441
0.866252
0.866311
0.866015
0.866105
0.865868
0.865939
0.865759
0.865803
0.865713
0.865673
0.865679
0.86562
0.865367
0.86514
0.865399
0.865416
0.86542
0.86542
0.865428
0.86543
0.865444
0.86544
0.865459
0.865454
0.865474
0.865487
0.865505
0.865513
0.865519
0.865507
0.865494
0.865464
0.865458
0.865443
0.865441
0.865425
0.865429
0.865414
0.865414
0.865404
0.865405
0.865391
0.865131
0.865129
0.865387
0.865401
0.865415
0.865412
0.86543
0.865431
0.865445
0.865442
0.865459
0.865455
0.865474
0.865488
0.865508
0.865516
0.86552
0.865504
0.865493
0.865468
0.865464
0.865451
0.865451
0.865435
0.865437
0.865423
0.86542
0.865409
0.865405
0.865391
0.865133
0.865129
0.865394
0.865398
0.865416
0.86541
0.865429
0.865427
0.865441
0.865438
0.865456
0.865452
0.865471
0.865486
0.865508
0.865516
0.865519
0.865504
0.865494
0.865469
0.865464
0.865451
0.865451
0.865434
0.865437
0.865423
0.86542
0.865412
0.865405
0.865392
0.865133
0.865129
0.865387
0.865402
0.865411
0.86542
0.865423
0.865439
0.865436
0.865452
0.865451
0.865463
0.865466
0.86549
0.8655
0.865516
0.865514
0.865511
0.865489
0.865469
0.865457
0.865449
0.865444
0.865428
0.865431
0.865418
0.865413
0.865404
0.865402
0.865386
0.865131
0.865131
0.865395
0.8654
0.865416
0.865411
0.86543
0.865428
0.865443
0.86544
0.865457
0.865453
0.865472
0.865486
0.865507
0.865515
0.865521
0.865506
0.865495
0.865467
0.865465
0.865452
0.865451
0.865434
0.865436
0.865422
0.86542
0.865408
0.865407
0.865395
0.865131
0.865133
0.865392
0.865405
0.865412
0.86541
0.865426
0.865427
0.865442
0.865443
0.86546
0.865458
0.865476
0.865487
0.86551
0.865518
0.865517
0.86551
0.86549
0.865475
0.865455
0.865459
0.865444
0.865444
0.86543
0.865429
0.865411
0.865415
0.865401
0.865389
0.86513
0.865141
0.865404
0.86541
0.865428
0.865422
0.86544
0.865434
0.86545
0.865444
0.86546
0.865455
0.865472
0.865483
0.865506
0.865508
0.865518
0.865501
0.865493
0.865471
0.865467
0.865451
0.865449
0.865432
0.865435
0.865418
0.865419
0.865407
0.865408
0.865394
0.86513
0.259766
0.262348
0.266202
0.258143
0.638463
1.21417
1.41867
1.44062
1.49096
1.49775
1.50435
1.51051
1.49415
1.48627
1.71574
1.7475
1.64187
1.50147
1.14068
0.900029
0.769466
0.706064
0.71114
0.715601
0.713952
0.808206
0.779717
0.885919
1.13769
1.26089
1.43245
1.49243
1.50532
1.5176
1.55642
1.53247
1.55844
1.52556
1.52924
1.51653
1.47776
1.43508
1.40739
1.3806
1.52768
1.58886
1.62327
1.6151
1.58997
1.51693
1.47837
1.44756
1.43881
1.44542
1.48944
1.50093
1.57004
1.62152
1.71449
1.81605
1.90531
1.97205
1.99305
2.00791
1.92739
1.88628
1.74444
1.61609
1.47762
1.43272
1.38088
1.3703
1.36889
1.35355
1.23029
1.25646
1.27941
1.28449
1.29818
1.308
1.32082
1.32627
1.32838
1.32359
1.3147
1.30307
1.28937
1.27424
1.25825
1.23831
1.22021
1.19877
1.17926
1.16442
1.1468
1.13626
1.12536
1.11793
1.11125
1.10665
1.09829
1.08956
1.0907
1.0764
1.01493
1.01822
1.01232
1.00815
0.998963
0.992822
0.983253
0.975234
0.967554
0.959726
0.95301
0.948986
0.939117
0.941207
0.930018
0.933247
0.922141
0.924987
0.916053
0.91632
0.912295
0.908726
0.907695
0.905769
0.901908
0.903124
0.899041
0.900711
0.897971
0.891732
0.877533
0.885003
0.884967
0.884828
0.8844
0.884241
0.883825
0.883802
0.883443
0.883548
0.883333
0.883501
0.883642
0.883683
0.884031
0.883486
0.883464
0.88263
0.882508
0.881974
0.881869
0.881481
0.88134
0.881042
0.880878
0.880636
0.880506
0.880372
0.880026
0.871232
0.870786
0.879897
0.880167
0.880388
0.880479
0.880655
0.880955
0.881115
0.881408
0.881574
0.881865
0.882022
0.882409
0.882714
0.88299
0.883015
0.882896
0.882426
0.882036
0.881657
0.881434
0.881105
0.880983
0.880727
0.880605
0.880366
0.880285
0.880088
0.879819
0.870778
0.870757
0.879916
0.880264
0.880415
0.880662
0.880787
0.881073
0.881202
0.881467
0.881599
0.881872
0.882027
0.882439
0.882772
0.883062
0.883027
0.882838
0.882404
0.882102
0.881811
0.881658
0.881366
0.881234
0.880956
0.880798
0.880539
0.880391
0.880219
0.879814
0.871007
0.87098
0.879727
0.880157
0.880301
0.880545
0.880675
0.880948
0.881074
0.881339
0.88148
0.881764
0.881957
0.882394
0.882766
0.883058
0.883016
0.882831
0.882412
0.882111
0.88182
0.881664
0.881369
0.881232
0.88095
0.880792
0.880535
0.880386
0.880216
0.879808
0.87101
0.871039
0.87981
0.88021
0.880464
0.880595
0.880855
0.880998
0.881264
0.88138
0.881641
0.881773
0.882045
0.882311
0.882739
0.882943
0.883071
0.882853
0.882483
0.881969
0.881672
0.881481
0.881174
0.881018
0.880752
0.88063
0.880384
0.8803
0.880086
0.879827
0.870771
0.871026
0.879767
0.880195
0.880341
0.880582
0.880709
0.88098
0.881113
0.881375
0.881509
0.881786
0.881966
0.882379
0.882738
0.883044
0.883032
0.882859
0.88244
0.882122
0.881824
0.881662
0.88136
0.881219
0.880936
0.880776
0.880515
0.880367
0.880213
0.879801
0.871001
0.870772
0.879893
0.880217
0.880316
0.880555
0.880689
0.88099
0.881137
0.881427
0.881584
0.881884
0.882054
0.882458
0.882781
0.883042
0.883045
0.882802
0.88245
0.882036
0.881859
0.881569
0.881424
0.881146
0.881007
0.88072
0.880597
0.880351
0.880229
0.879905
0.870768
0.871012
0.879799
0.880257
0.880404
0.880665
0.880786
0.881066
0.881179
0.881437
0.881543
0.881818
0.881973
0.882349
0.882686
0.88301
0.883039
0.882871
0.882465
0.882139
0.881848
0.881687
0.881385
0.88124
0.88095
0.880794
0.880529
0.880367
0.880214
0.879801
0.871
0.279384
0.307317
0.327418
0.324211
0.74712
1.03537
1.14468
1.09347
1.29467
1.50025
1.63121
1.67804
1.66143
1.61541
1.81212
1.53364
0.834691
0.618081
0.318176
0.279345
0.263202
0.25933
0.260628
0.266378
0.261693
0.261745
0.267629
0.286512
0.300857
0.297895
0.608266
1.00874
1.25125
1.3762
1.50651
1.58038
1.64645
1.63739
1.67885
1.66755
1.61585
1.51451
1.44184
1.3944
1.61649
1.63259
1.57539
1.4896
1.3783
1.33648
1.26841
1.3055
1.2894
1.32164
1.36409
1.38533
1.38246
1.38146
1.36989
1.40277
1.50113
1.64491
1.78132
1.84555
1.94907
1.97888
1.95925
1.91577
1.79617
1.66851
1.56453
1.46652
1.41377
1.39646
1.32586
1.31512
1.3092
1.29284
1.29608
1.30179
1.32417
1.34778
1.36692
1.38125
1.38964
1.39285
1.39463
1.39506
1.39081
1.39185
1.38534
1.37892
1.37905
1.3684
1.37006
1.36384
1.3634
1.35757
1.3469
1.33309
1.30896
1.29593
1.27864
1.27017
1.17671
1.17026
1.16922
1.1646
1.16509
1.15936
1.15852
1.15478
1.14974
1.14808
1.14301
1.13934
1.1343
1.13285
1.12639
1.12597
1.12034
1.12077
1.11551
1.1162
1.11172
1.11111
1.10756
1.10766
1.1039
1.10442
1.10107
1.10154
1.09943
1.10945
1.09108
1.08068
1.08022
1.07916
1.07915
1.07823
1.07811
1.07715
1.07664
1.07615
1.07539
1.07488
1.07387
1.0732
1.07271
1.07219
1.07261
1.07246
1.07301
1.07289
1.073
1.0732
1.07318
1.0734
1.07344
1.07364
1.07368
1.07385
1.07413
1.08574
1.08548
1.07388
1.07344
1.07318
1.07313
1.07289
1.07261
1.07235
1.07212
1.07186
1.07161
1.07135
1.07096
1.07052
1.07025
1.07014
1.07036
1.07084
1.07138
1.07173
1.07206
1.07235
1.07257
1.07276
1.07297
1.07313
1.07328
1.0735
1.07399
1.08547
1.08545
1.07381
1.07338
1.0731
1.0729
1.0727
1.07247
1.07226
1.07206
1.07184
1.07162
1.07135
1.07093
1.07045
1.07017
1.07014
1.07045
1.0709
1.07135
1.0716
1.07186
1.07209
1.07232
1.07252
1.07277
1.07296
1.07319
1.07339
1.07381
1.08546
1.08546
1.07393
1.07346
1.0732
1.07303
1.07282
1.07262
1.0724
1.07221
1.07197
1.07173
1.07142
1.07097
1.07045
1.07017
1.07015
1.07045
1.07088
1.07133
1.07159
1.07185
1.07209
1.07232
1.07253
1.07278
1.07297
1.0732
1.07339
1.07381
1.08547
1.08547
1.07384
1.07334
1.07308
1.07289
1.0727
1.07247
1.07228
1.07207
1.07188
1.07165
1.07141
1.071
1.07056
1.07023
1.07014
1.07033
1.07084
1.07141
1.07179
1.07197
1.07228
1.07253
1.07273
1.07294
1.07312
1.07328
1.07349
1.07396
1.08546
1.08546
1.07386
1.07341
1.07315
1.07299
1.07279
1.07258
1.07236
1.07217
1.07194
1.07171
1.07142
1.07099
1.07049
1.07019
1.07013
1.07042
1.07085
1.07132
1.07158
1.07184
1.07209
1.07233
1.07254
1.0728
1.073
1.07322
1.0734
1.07382
1.08547
1.08546
1.07383
1.07339
1.07325
1.07303
1.07281
1.07256
1.07232
1.0721
1.07185
1.0716
1.07131
1.07091
1.07045
1.07015
1.07016
1.07043
1.07092
1.07134
1.07163
1.07187
1.07211
1.07232
1.07254
1.07277
1.07297
1.07318
1.07339
1.0738
1.08545
1.08547
1.07385
1.07336
1.0731
1.07293
1.07272
1.07253
1.07231
1.07214
1.07192
1.0717
1.07142
1.07105
1.07055
1.07023
1.07011
1.07039
1.07081
1.07129
1.07154
1.07181
1.07206
1.07231
1.07253
1.07278
1.07298
1.07322
1.07339
1.07381
1.08546
0.338497
0.373786
0.407387
0.431119
0.481987
0.504584
0.505919
0.473202
0.505652
0.946712
1.36027
1.67784
1.77998
1.76362
1.77761
1.00045
0.272947
0.244103
0.243914
0.237976
0.236624
0.234956
0.232651
0.228027
0.225884
0.223154
0.226209
0.226885
0.228984
0.224188
0.24222
0.253231
0.260465
0.281219
0.685029
1.35255
1.58977
1.64568
1.65543
1.71791
1.70964
1.6377
1.50398
1.43617
1.63874
1.5589
1.41361
1.2521
1.22026
1.20087
1.27988
1.28253
1.33925
1.42378
1.43889
1.47765
1.47058
1.41177
1.33155
1.26091
1.23883
1.29017
1.40686
1.58614
1.71809
1.83601
1.91127
1.92531
1.88743
1.81205
1.69658
1.63605
1.54192
1.49942
1.28735
1.2217
1.15566
1.12157
1.09908
1.10588
1.13611
1.18585
1.23967
1.28391
1.31327
1.33152
1.34323
1.34831
1.35672
1.35762
1.36348
1.3638
1.36687
1.35904
1.36366
1.35534
1.3619
1.3556
1.35547
1.3484
1.34733
1.34214
1.33855
1.33685
1.14915
1.15199
1.15074
1.15379
1.1515
1.15514
1.14976
1.15069
1.14817
1.14273
1.14187
1.13913
1.13286
1.13409
1.12723
1.12795
1.12204
1.12281
1.11661
1.11791
1.11151
1.11366
1.10721
1.10985
1.10411
1.1066
1.10206
1.10407
1.1013
1.1043
1.08236
1.08108
1.08055
1.08119
1.08033
1.08062
1.07981
1.08002
1.07913
1.07925
1.0788
1.07843
1.07841
1.07788
1.07793
1.07739
1.07751
1.0771
1.0771
1.07691
1.0768
1.07673
1.0766
1.07659
1.07648
1.07647
1.07641
1.07637
1.07652
1.07841
1.07822
1.07622
1.0761
1.07608
1.07608
1.07607
1.07604
1.07604
1.07602
1.07601
1.07599
1.07599
1.07597
1.07595
1.07593
1.07594
1.07594
1.07597
1.07598
1.076
1.076
1.07603
1.07603
1.07605
1.07605
1.07607
1.07607
1.07609
1.0762
1.0782
1.07819
1.0762
1.07608
1.07607
1.07605
1.07605
1.07603
1.07603
1.07601
1.07601
1.07599
1.07599
1.07596
1.07595
1.07593
1.07593
1.07594
1.07597
1.07598
1.076
1.076
1.07602
1.07602
1.07604
1.07604
1.07606
1.07607
1.07609
1.07622
1.07816
1.07816
1.07622
1.07608
1.07607
1.07605
1.07605
1.07603
1.07603
1.07601
1.07601
1.07599
1.07599
1.07596
1.07595
1.07593
1.07594
1.07594
1.07597
1.07598
1.076
1.076
1.07602
1.07602
1.07604
1.07604
1.07606
1.07607
1.07609
1.07622
1.07816
1.07816
1.07622
1.07608
1.07606
1.07606
1.07604
1.07604
1.07602
1.07602
1.076
1.076
1.07598
1.07597
1.07594
1.07594
1.07593
1.07594
1.07596
1.07599
1.076
1.07601
1.07602
1.07602
1.07605
1.07605
1.07607
1.07607
1.07609
1.0762
1.0782
1.07815
1.07622
1.07608
1.07607
1.07605
1.07605
1.07603
1.07603
1.07601
1.07601
1.07599
1.07599
1.07596
1.07595
1.07593
1.07593
1.07594
1.07597
1.07598
1.076
1.076
1.07602
1.07602
1.07604
1.07604
1.07606
1.07607
1.07609
1.07622
1.07816
1.0782
1.0762
1.07608
1.07607
1.07606
1.07606
1.07603
1.07603
1.07601
1.07601
1.07599
1.07599
1.07596
1.07595
1.07593
1.07593
1.07595
1.07596
1.07599
1.07599
1.07601
1.07601
1.07603
1.07603
1.07605
1.07605
1.07607
1.07608
1.0762
1.0782
1.07817
1.07622
1.07608
1.07608
1.07605
1.07606
1.07603
1.07603
1.07601
1.07601
1.07599
1.07599
1.07596
1.07596
1.07593
1.07594
1.07594
1.07597
1.07597
1.07599
1.07599
1.07601
1.07601
1.07603
1.07604
1.07606
1.07606
1.07609
1.07622
1.07816
0.382786
0.382537
0.392715
0.398014
0.313185
0.286282
0.312843
0.32258
0.350911
0.372495
0.463663
1.03157
1.58594
1.8381
1.61353
0.640237
0.23449
0.236468
0.234524
0.233786
0.232239
0.23048
0.227079
0.218537
0.216627
0.215088
0.214913
0.218501
0.215884
0.216308
0.219439
0.220974
0.229478
0.230576
0.226276
0.682727
1.33038
1.54556
1.61057
1.6448
1.7191
1.69785
1.56812
1.41843
1.50307
1.3894
1.25223
1.21423
1.22086
1.29195
1.32769
1.37034
1.35388
1.40295
1.45041
1.51738
1.52647
1.51073
1.43558
1.32651
1.21726
1.16696
1.20113
1.30937
1.46471
1.6187
1.741
1.82766
1.85168
1.87151
1.75112
1.68066
1.6721
1.6085
1.22237
1.09872
1.03309
1.01175
0.998402
0.996104
0.989186
1.00875
1.06894
1.14078
1.20057
1.24054
1.26488
1.27982
1.29158
1.29928
1.30874
1.31383
1.31791
1.31965
1.31612
1.31402
1.31567
1.31177
1.30982
1.31259
1.31509
1.31772
1.31948
1.32456
1.10722
1.10232
1.10723
1.11188
1.11439
1.11272
1.11703
1.11198
1.11481
1.11098
1.10762
1.10626
1.10344
1.09883
1.1003
1.0921
1.09588
1.08803
1.08805
1.08705
1.08179
1.08316
1.07827
1.07889
1.07545
1.07569
1.07359
1.07373
1.07279
1.07201
1.05338
1.05256
1.053
1.05183
1.0523
1.05142
1.0517
1.05093
1.05113
1.05038
1.05029
1.05015
1.04967
1.04974
1.04922
1.04932
1.04882
1.04897
1.04848
1.04868
1.04825
1.04844
1.0481
1.04825
1.048
1.04811
1.04794
1.04798
1.04797
1.0481
1.04791
1.04771
1.04772
1.04767
1.04769
1.04771
1.04766
1.04771
1.04765
1.0477
1.04764
1.0477
1.04763
1.04768
1.04763
1.04768
1.04763
1.04768
1.04763
1.04768
1.04763
1.04769
1.04764
1.0477
1.04765
1.04771
1.04765
1.04771
1.04767
1.0479
1.04788
1.04769
1.04766
1.0477
1.04764
1.0477
1.04764
1.0477
1.04764
1.04769
1.04763
1.04769
1.04763
1.04768
1.04762
1.04767
1.04762
1.04768
1.04763
1.04769
1.04764
1.04769
1.04764
1.04769
1.04764
1.04769
1.04764
1.04767
1.04771
1.04784
1.04785
1.04771
1.04765
1.0477
1.04764
1.0477
1.04764
1.0477
1.04764
1.04769
1.04763
1.04768
1.04763
1.04767
1.04762
1.04767
1.04762
1.04768
1.04763
1.04769
1.04764
1.04769
1.04764
1.04769
1.04764
1.04769
1.04764
1.04767
1.04771
1.04784
1.04786
1.04772
1.04769
1.04765
1.0477
1.04765
1.0477
1.04764
1.0477
1.04764
1.04769
1.04763
1.04768
1.04763
1.04768
1.04762
1.04767
1.04762
1.04767
1.04765
1.04764
1.04769
1.04764
1.0477
1.04764
1.04771
1.04765
1.04771
1.04768
1.0479
1.04785
1.04771
1.04764
1.0477
1.04764
1.0477
1.04764
1.0477
1.04764
1.04769
1.04763
1.04768
1.04763
1.04767
1.04762
1.04767
1.04762
1.04768
1.04763
1.04769
1.04763
1.04769
1.04764
1.04769
1.04764
1.04769
1.04765
1.04766
1.04771
1.04784
1.0479
1.04769
1.04769
1.0477
1.04765
1.04771
1.04764
1.0477
1.04764
1.0477
1.04763
1.04769
1.04763
1.04768
1.04763
1.04763
1.04767
1.04762
1.04769
1.04763
1.0477
1.04764
1.0477
1.04764
1.0477
1.04764
1.0477
1.04769
1.04769
1.04789
1.04786
1.04772
1.04765
1.04771
1.04765
1.0477
1.04765
1.0477
1.04764
1.0477
1.04764
1.04769
1.04763
1.04768
1.04762
1.04767
1.04762
1.04767
1.04762
1.04769
1.04763
1.04769
1.04763
1.04769
1.04764
1.04769
1.04765
1.04767
1.04772
1.04785
0.358458
0.327692
0.315544
0.303526
0.243346
0.235894
0.239476
0.254179
0.270415
0.283364
0.323536
0.363266
0.959624
1.75408
1.3796
0.293072
0.236856
0.228825
0.230834
0.232414
0.232999
0.226399
0.224795
0.214497
0.211026
0.210327
0.208055
0.210325
0.208894
0.210675
0.211794
0.213199
0.217718
0.218248
0.218765
0.2173
0.734603
1.33507
1.51093
1.56985
1.61105
1.65924
1.59757
1.48434
1.49776
1.31257
1.17087
1.1265
1.16985
1.22527
1.31144
1.3217
1.3532
1.33606
1.43685
1.42385
1.53119
1.51008
1.48758
1.3962
1.28615
1.18343
1.13261
1.15033
1.24409
1.37763
1.52468
1.64989
1.75163
1.805
1.78995
1.706
1.71659
1.67921
1.1468
1.02945
1.00048
1.03232
1.03404
1.01875
0.976959
0.945836
0.94235
0.990974
1.06374
1.12833
1.17145
1.19812
1.21597
1.22956
1.23966
1.25108
1.25455
1.26497
1.25487
1.26738
1.25831
1.25694
1.2612
1.26628
1.2704
1.27702
1.28736
1.29063
1.03971
1.02998
1.04059
1.04814
1.05912
1.06591
1.06677
1.07239
1.0681
1.0702
1.07028
1.06384
1.06841
1.05932
1.06427
1.05544
1.05939
1.05282
1.05259
1.05156
1.04816
1.04723
1.04552
1.04397
1.04292
1.04159
1.04108
1.0401
1.03984
1.04146
1.02006
1.01959
1.01877
1.0199
1.01896
1.01949
1.01863
1.019
1.01816
1.01851
1.01767
1.01779
1.01746
1.01723
1.01714
1.01683
1.01679
1.01656
1.01631
1.01634
1.01605
1.0161
1.01588
1.0159
1.01577
1.01576
1.01567
1.01568
1.01572
1.01759
1.01735
1.0155
1.0154
1.01538
1.0154
1.0154
1.01537
1.01539
1.01536
1.01538
1.01535
1.01537
1.01534
1.01536
1.01534
1.01536
1.01534
1.01536
1.01534
1.01536
1.01534
1.01537
1.01535
1.01538
1.01536
1.01538
1.01536
1.01539
1.01548
1.01732
1.0173
1.01548
1.01537
1.01538
1.01535
1.01538
1.01535
1.01537
1.01535
1.01537
1.01534
1.01536
1.01533
1.01535
1.01533
1.01535
1.01533
1.01536
1.01534
1.01537
1.01534
1.01537
1.01534
1.01537
1.01535
1.01537
1.01535
1.01537
1.01548
1.01731
1.01732
1.01548
1.01536
1.01537
1.01535
1.01538
1.01535
1.01537
1.01535
1.01537
1.01534
1.01536
1.01533
1.01535
1.01533
1.01535
1.01533
1.01536
1.01534
1.01537
1.01534
1.01537
1.01534
1.01537
1.01535
1.01537
1.01535
1.01537
1.01548
1.01731
1.01733
1.0155
1.01538
1.01535
1.01538
1.01535
1.01538
1.01535
1.01538
1.01535
1.01537
1.01534
1.01536
1.01534
1.01535
1.01533
1.01535
1.01533
1.01535
1.01535
1.01535
1.01537
1.01535
1.01538
1.01536
1.01538
1.01536
1.01539
1.01548
1.01731
1.01732
1.01548
1.01535
1.01537
1.01535
1.01538
1.01535
1.01537
1.01535
1.01537
1.01534
1.01536
1.01534
1.01535
1.01533
1.01535
1.01533
1.01536
1.01534
1.01537
1.01534
1.01537
1.01534
1.01537
1.01535
1.01537
1.01536
1.01536
1.01548
1.01731
1.01731
1.01548
1.01538
1.01538
1.01536
1.01538
1.01535
1.01537
1.01535
1.01537
1.01534
1.01537
1.01534
1.01535
1.01534
1.01534
1.01535
1.01533
1.01536
1.01534
1.01537
1.01535
1.01537
1.01535
1.01538
1.01535
1.01537
1.01539
1.01548
1.01731
1.01733
1.01549
1.01536
1.01538
1.01535
1.01538
1.01535
1.01538
1.01535
1.01537
1.01534
1.01536
1.01533
1.01534
1.01532
1.01534
1.01532
1.01534
1.01533
1.01536
1.01534
1.01536
1.01534
1.01537
1.01534
1.01537
1.01536
1.01537
1.01549
1.01732
0.27881
0.264433
0.25883
0.247702
0.231556
0.226729
0.22699
0.231941
0.239085
0.249338
0.275279
0.298347
0.642283
1.60013
1.21476
0.289263
0.235768
0.231106
0.231839
0.239556
0.237446
0.23081
0.224403
0.215557
0.210629
0.207664
0.204177
0.204889
0.203893
0.207421
0.205965
0.208888
0.212425
0.212736
0.215145
0.214854
0.215287
0.650442
1.19163
1.43361
1.52329
1.59545
1.62715
1.46758
1.37769
1.23012
1.14967
1.17037
1.18136
1.23628
1.26915
1.27802
1.29795
1.25573
1.25673
1.27001
1.27755
1.3191
1.34983
1.35859
1.29996
1.21298
1.13355
1.09968
1.10513
1.17981
1.29967
1.44665
1.56928
1.66132
1.71969
1.74142
1.70606
1.69424
1.09709
1.02292
1.05839
1.09934
1.10358
1.08632
1.02727
0.961502
0.910022
0.904203
0.946193
1.01208
1.06862
1.10654
1.13024
1.14793
1.16046
1.17037
1.17819
1.18667
1.17966
1.19227
1.18127
1.18041
1.19033
1.19219
1.19941
1.2166
1.22677
1.24324
0.970659
0.951322
0.955794
0.978103
0.988902
1.00037
1.00772
1.00812
1.01335
1.00911
1.01255
1.00749
1.00786
1.00333
1.00488
0.999382
1.00087
0.99596
0.996538
0.992579
0.993111
0.988603
0.990473
0.985736
0.987869
0.983273
0.985886
0.98258
0.984928
0.983208
0.9643
0.96421
0.965351
0.964275
0.964937
0.964044
0.964423
0.963595
0.963863
0.963165
0.963143
0.96288
0.962469
0.962599
0.96208
0.962205
0.961778
0.961876
0.961499
0.961601
0.961274
0.961376
0.9611
0.961208
0.960986
0.961074
0.960925
0.960975
0.960901
0.960379
0.960129
0.960699
0.960711
0.960681
0.960717
0.960699
0.960685
0.960694
0.960677
0.960689
0.960674
0.960686
0.960672
0.960681
0.96067
0.960678
0.960666
0.960677
0.960664
0.960674
0.960658
0.960677
0.960663
0.960682
0.960664
0.960678
0.960664
0.960682
0.960654
0.960126
0.960111
0.960671
0.960679
0.960673
0.960656
0.960679
0.960663
0.960683
0.960663
0.960682
0.960664
0.960679
0.960663
0.960675
0.960663
0.960673
0.960663
0.960677
0.960664
0.96068
0.960663
0.960679
0.960661
0.960677
0.960656
0.96067
0.960658
0.960672
0.960663
0.960136
0.960139
0.960661
0.960658
0.96067
0.960657
0.96068
0.960664
0.960684
0.960664
0.960682
0.960664
0.960678
0.960664
0.960674
0.960661
0.960673
0.960665
0.960677
0.960665
0.96068
0.960664
0.960679
0.960661
0.960678
0.960656
0.960672
0.960659
0.96067
0.960663
0.960136
0.960154
0.960679
0.960672
0.960655
0.960673
0.960663
0.960683
0.960666
0.960683
0.960667
0.960683
0.960666
0.960678
0.960666
0.960675
0.960663
0.960677
0.96066
0.96067
0.960673
0.960671
0.960676
0.960662
0.960681
0.960663
0.960678
0.96066
0.960684
0.96066
0.960118
0.960145
0.960665
0.960657
0.96067
0.960658
0.96068
0.960665
0.960685
0.960665
0.960682
0.960665
0.960678
0.960664
0.960675
0.960663
0.960674
0.960666
0.960678
0.960664
0.96068
0.960662
0.960677
0.96066
0.960676
0.960656
0.960671
0.960663
0.960667
0.960662
0.960136
0.960117
0.960667
0.960678
0.96068
0.960666
0.960681
0.960663
0.960683
0.960662
0.960681
0.960663
0.960681
0.960662
0.960674
0.960667
0.960669
0.960672
0.960663
0.960679
0.960663
0.960681
0.960662
0.960683
0.960663
0.96068
0.96066
0.960671
0.960686
0.96067
0.960115
0.960146
0.960666
0.960659
0.960674
0.960656
0.960681
0.96066
0.960683
0.96066
0.960683
0.960661
0.960679
0.96066
0.960674
0.96066
0.960672
0.960663
0.960678
0.960663
0.96068
0.960665
0.960683
0.960666
0.960684
0.96066
0.96068
0.960671
0.960676
0.960677
0.960152
0.245724
0.242148
0.236091
0.228919
0.224089
0.22165
0.223396
0.223049
0.227666
0.24016
0.265914
0.31182
0.741216
1.5751
0.94521
0.287987
0.236423
0.232924
0.249251
0.266879
0.26344
0.246285
0.22914
0.220361
0.212914
0.207934
0.204719
0.201741
0.201476
0.201597
0.204227
0.204956
0.206503
0.209361
0.208805
0.210332
0.211432
0.210728
0.501535
1.06102
1.32825
1.44384
1.52703
1.54241
1.3514
1.27057
1.25326
1.25782
1.28947
1.23439
1.11787
1.06131
0.958267
0.855746
0.774837
0.653366
0.651207
0.729293
0.903214
1.08671
1.20431
1.19382
1.13401
1.08633
1.07206
1.07767
1.13652
1.23127
1.35585
1.49617
1.60408
1.679
1.74215
1.69268
1.068
1.05589
1.08019
1.10919
1.11686
1.09619
1.03871
0.975498
0.911552
0.873494
0.878497
0.919967
0.972093
1.01433
1.0429
1.06354
1.07741
1.08669
1.10091
1.10178
1.10501
1.11242
1.11044
1.11019
1.12111
1.12598
1.1414
1.15377
1.18128
1.21211
0.916851
0.899598
0.888494
0.897138
0.92274
0.933277
0.94313
0.950059
0.948495
0.955403
0.949915
0.956309
0.947988
0.952571
0.948431
0.946597
0.94784
0.943006
0.945181
0.940049
0.942291
0.937496
0.939707
0.935104
0.937913
0.933781
0.936632
0.933921
0.936504
0.934788
0.911326
0.91398
0.913843
0.915783
0.91511
0.915836
0.915142
0.915437
0.914811
0.915019
0.914332
0.914633
0.914041
0.914047
0.913788
0.91366
0.9135
0.913287
0.913305
0.913
0.913072
0.912811
0.912808
0.912726
0.912633
0.912621
0.91258
0.912595
0.912555
0.91208
0.911866
0.912355
0.91234
0.912305
0.912291
0.912273
0.912244
0.912251
0.912234
0.912242
0.912227
0.912234
0.912225
0.91223
0.912224
0.912226
0.912221
0.912224
0.912215
0.912217
0.912212
0.912224
0.91222
0.912234
0.912236
0.912255
0.912272
0.91231
0.912317
0.911812
0.911801
0.912323
0.912314
0.912274
0.912245
0.912242
0.912226
0.912232
0.912224
0.912229
0.912218
0.912222
0.912217
0.912221
0.912217
0.91222
0.912217
0.912223
0.912217
0.912225
0.91222
0.91223
0.912221
0.91223
0.91223
0.91225
0.912268
0.912304
0.912317
0.911822
0.91182
0.912314
0.912299
0.912271
0.912246
0.912243
0.912228
0.912235
0.912225
0.912229
0.912218
0.912222
0.912218
0.912221
0.912218
0.912221
0.912218
0.912223
0.912218
0.912225
0.912221
0.91223
0.912222
0.912232
0.91223
0.912251
0.912269
0.912304
0.912317
0.911822
0.911835
0.912326
0.912304
0.912267
0.912253
0.912237
0.912236
0.912227
0.912234
0.912225
0.912228
0.912219
0.912225
0.91222
0.912223
0.912218
0.912221
0.912215
0.912212
0.912221
0.91222
0.912226
0.912221
0.912233
0.912235
0.912254
0.912269
0.912313
0.912322
0.911806
0.911827
0.912317
0.912297
0.912271
0.912246
0.912244
0.912227
0.912234
0.912225
0.91223
0.912219
0.912223
0.912218
0.912221
0.912218
0.912221
0.912218
0.912223
0.912217
0.912224
0.912219
0.912228
0.91222
0.912229
0.912229
0.91225
0.912273
0.912301
0.912315
0.911822
0.911801
0.91232
0.912304
0.912279
0.912253
0.912242
0.912224
0.91223
0.91222
0.912227
0.912218
0.912224
0.912217
0.912221
0.912219
0.912219
0.912221
0.912216
0.912222
0.912217
0.912227
0.912221
0.91223
0.912224
0.91224
0.912244
0.912267
0.91231
0.912325
0.911802
0.911822
0.912318
0.9123
0.912275
0.912246
0.912242
0.912223
0.91223
0.912217
0.912226
0.912217
0.91222
0.91221
0.912213
0.912207
0.912211
0.912213
0.912219
0.912212
0.91222
0.912214
0.912225
0.912219
0.912234
0.912235
0.912264
0.9123
0.912378
0.912504
0.912002
0.230933
0.227355
0.221497
0.219278
0.218827
0.218281
0.215271
0.213698
0.213413
0.220356
0.264662
0.336544
0.451108
1.04889
0.384021
0.340769
0.289727
0.279552
0.240024
0.242354
0.277918
0.290681
0.280696
0.266012
0.246983
0.229209
0.21624
0.211738
0.205066
0.202401
0.199023
0.199911
0.200349
0.201742
0.204487
0.203843
0.206846
0.206874
0.208679
0.204939
0.200944
0.211039
0.546805
1.09011
1.39271
1.4089
1.24341
1.3238
1.30991
1.28156
1.26552
1.22542
1.10287
0.772787
0.589319
0.480428
0.394809
0.350259
0.27478
0.2319
0.205182
0.22343
0.350873
0.593921
0.895508
1.09955
1.1194
1.07852
1.04824
1.03843
1.03973
1.08946
1.18502
1.30433
1.42254
1.49865
1.61364
1.56323
1.11478
1.21561
1.19365
1.15623
1.13566
1.1552
1.12085
1.08678
1.01296
0.951487
0.898231
0.860002
0.845433
0.860245
0.893793
0.930118
0.958913
0.978954
0.993201
1.00228
1.01528
1.01145
1.0231
1.01974
1.02293
1.02206
1.02746
1.03881
1.0426
1.05823
1.07257
1.08001
1.02897
1.01908
0.935011
0.887297
0.848679
0.845058
0.854779
0.873747
0.873941
0.881219
0.881354
0.880685
0.88445
0.880063
0.881319
0.880711
0.875977
0.876913
0.874154
0.872236
0.872059
0.868311
0.870017
0.865116
0.867733
0.862798
0.865427
0.861562
0.863565
0.861572
0.862584
0.861457
0.852178
0.849457
0.844926
0.844895
0.847202
0.84524
0.846857
0.844983
0.846138
0.844626
0.845491
0.844304
0.844627
0.844256
0.843943
0.844018
0.843592
0.843715
0.843302
0.843342
0.843158
0.843033
0.842965
0.842881
0.842768
0.842797
0.842646
0.842738
0.842621
0.842684
0.842429
0.84013
0.837982
0.837993
0.839936
0.842292
0.842438
0.842421
0.842435
0.842384
0.84238
0.842363
0.842365
0.842357
0.842354
0.842347
0.842345
0.842341
0.842341
0.842339
0.842337
0.842337
0.842335
0.842338
0.842338
0.842343
0.842344
0.842354
0.842365
0.842383
0.842393
0.842398
0.842226
0.839896
0.837838
0.837839
0.839894
0.842238
0.842404
0.842395
0.842379
0.842366
0.842353
0.842349
0.842347
0.842348
0.842343
0.842339
0.842337
0.842336
0.842336
0.842335
0.842336
0.842337
0.842339
0.842343
0.842346
0.842346
0.842346
0.842352
0.842362
0.842378
0.842396
0.842394
0.842229
0.839904
0.837838
0.837838
0.839902
0.842226
0.84239
0.842394
0.842379
0.842366
0.842353
0.842351
0.842348
0.842347
0.842344
0.842339
0.842339
0.842335
0.842336
0.842336
0.842337
0.842338
0.84234
0.842344
0.842347
0.842347
0.842347
0.842352
0.842362
0.842379
0.842396
0.842394
0.842229
0.839905
0.837839
0.837838
0.839913
0.842237
0.842392
0.842391
0.842382
0.842366
0.842355
0.842349
0.842349
0.842349
0.842345
0.84234
0.842338
0.842336
0.842336
0.842333
0.842337
0.84233
0.842333
0.842341
0.842346
0.842342
0.842345
0.842352
0.842364
0.842381
0.842394
0.842396
0.84223
0.839891
0.837838
0.837839
0.839908
0.842229
0.842388
0.842394
0.842381
0.842367
0.842353
0.84235
0.842348
0.842349
0.842344
0.84234
0.842338
0.842337
0.842337
0.842336
0.842337
0.842338
0.842339
0.842342
0.842345
0.842345
0.842345
0.842351
0.842361
0.842377
0.842398
0.842391
0.842227
0.839904
0.837837
0.837838
0.839892
0.842234
0.842393
0.842401
0.842382
0.842365
0.842351
0.842347
0.842345
0.842346
0.842342
0.842339
0.842338
0.842335
0.842336
0.842336
0.842335
0.842336
0.84234
0.842342
0.842347
0.842346
0.842348
0.842351
0.842364
0.842378
0.842389
0.842397
0.842232
0.83989
0.837838
0.837838
0.839901
0.842223
0.842387
0.842395
0.842378
0.842366
0.842348
0.842347
0.842347
0.842347
0.842348
0.842344
0.842341
0.842338
0.842337
0.842334
0.842334
0.842333
0.842335
0.84234
0.842343
0.842349
0.842352
0.842363
0.842369
0.842386
0.842405
0.842397
0.842232
0.839917
0.837963
0.83971
0.216082
0.213545
0.210525
0.211125
0.213561
0.212491
0.209237
0.205101
0.203904
0.20365
0.214814
0.280899
0.386295
0.430002
0.34223
0.325676
0.30565
0.265196
0.246769
0.27081
0.296385
0.281397
0.262537
0.254052
0.248312
0.235206
0.221627
0.211793
0.207217
0.201208
0.200051
0.197519
0.198514
0.198585
0.200406
0.201244
0.201705
0.204762
0.20479
0.204103
0.203297
0.202152
0.196882
0.202966
0.530564
1.01553
1.18418
1.20769
1.22033
1.07212
0.863299
0.650055
0.469427
0.224084
0.192677
0.193213
0.188868
0.184846
0.199112
0.184449
0.207188
0.200457
0.19727
0.24502
0.538621
0.891206
1.06205
1.06664
1.03829
1.01483
1.0214
1.03231
1.06733
1.13935
1.23163
1.3451
1.36695
1.50423
1.19877
1.33005
1.21863
1.20811
1.17498
1.12815
1.10306