/*--------------------------------*- C++ -*----------------------------------*\
| =========                 |                                                 |
| \\      /  F ield         | OpenFOAM: The Open Source CFD Toolbox           |
|  \\    /   O peration     | Version:  2.1.1                                 |
|   \\  /    A nd           | Web:      www.OpenFOAM.org                      |
|    \\/     M anipulation  |                                                 |
\*---------------------------------------------------------------------------*/
FoamFile
{
    version     2.0;
    format      ascii;
    class       volScalarField;
    location    "0.005000000";
    object      N2;
}
// * * * * * * * * * * * * * * * * * * * * * * * * * * * * * * * * * * * * * //

dimensions      [0 0 0 0 0 0 0];

internalField   nonuniform List<scalar> 
12384
(
0.740477
0.741784
0.742912
0.743586
0.743905
0.743967
0.743809
0.743414
0.74274
0.741711
0.740202
0.739061
0.740765
0.74697
0.749826
0.74944
0.74931
0.749243
0.749129
0.74893
0.74871
0.748523
0.748413
0.74837
0.748374
0.748419
0.74848
0.748555
0.748622
0.748691
0.748738
0.748778
0.748816
0.748838
0.748871
0.748887
0.748915
0.748928
0.74895
0.748956
0.749167
0.749843
0.74904
0.748868
0.743954
0.743675
0.743599
0.743657
0.743928
0.744452
0.744518
0.743756
0.742777
0.742479
0.742615
0.742902
0.743081
0.743151
0.743101
0.743098
0.743078
0.74309
0.743111
0.743152
0.74312
0.74315
0.743131
0.743158
0.743186
0.743226
0.743297
0.743925
0.746465
0.74807
0.743234
0.744068
0.745061
0.745549
0.745649
0.745639
0.745201
0.744688
0.744103
0.743679
0.743341
0.743165
0.742973
0.742871
0.742889
0.742967
0.743119
0.743313
0.743519
0.743738
0.743929
0.74408
0.74428
0.744408
0.744566
0.744715
0.74493
0.745147
0.745536
0.745664
0.741627
0.741145
0.741342
0.741551
0.741664
0.741722
0.741777
0.741832
0.741884
0.741935
0.742008
0.74212
0.742185
0.742279
0.742339
0.742518
0.742475
0.742752
0.742668
0.742897
0.74284
0.742988
0.743024
0.743196
0.743313
0.743416
0.744718
0.746195
0.746102
0.745969
0.743203
0.742014
0.740573
0.739505
0.739169
0.73908
0.739089
0.73895
0.739009
0.738972
0.738959
0.738953
0.738924
0.738914
0.738901
0.738884
0.738873
0.738868
0.738862
0.73887
0.738836
0.738813
0.738798
0.738795
0.738782
0.73883
0.738854
0.739606
0.743302
0.744515
0.743857
0.741834
0.741982
0.743769
0.744394
0.744878
0.74522
0.745453
0.745741
0.746091
0.746441
0.746736
0.747015
0.747242
0.74746
0.747638
0.747769
0.747881
0.747935
0.747958
0.747941
0.747855
0.747681
0.747419
0.747108
0.746775
0.746399
0.745928
0.74565
0.745736
0.747895
0.74736
0.744854
0.741903
0.740547
0.740521
0.740677
0.740804
0.740765
0.740654
0.740532
0.740404
0.740393
0.740205
0.740311
0.740069
0.740369
0.740335
0.740292
0.740446
0.740729
0.741116
0.741614
0.742114
0.742379
0.742168
0.74138
0.74074
0.740765
0.741247
0.745547
0.744912
0.744158
0.743308
0.742302
0.741049
0.739812
0.738691
0.738064
0.73789
0.737728
0.737804
0.737796
0.737823
0.737885
0.73795
0.738075
0.738211
0.738554
0.738764
0.738887
0.738723
0.737678
0.735694
0.733412
0.731953
0.731235
0.731071
0.731816
0.732875
0.746574
0.746522
0.74615
0.745452
0.744554
0.743788
0.743189
0.742685
0.742426
0.742218
0.742
0.741909
0.741771
0.741563
0.741404
0.741628
0.741019
0.741165
0.740392
0.740215
0.739482
0.738875
0.738145
0.738123
0.738317
0.738378
0.738478
0.738585
0.738688
0.738743
0.741528
0.7404
0.738874
0.737516
0.736428
0.735737
0.735236
0.734955
0.734665
0.734707
0.734476
0.73451
0.734249
0.734479
0.734177
0.734368
0.734095
0.734056
0.733922
0.733784
0.733721
0.733832
0.734327
0.736012
0.737274
0.737088
0.73651
0.736423
0.736516
0.736583
0.746776
0.740347
0.734162
0.735087
0.738084
0.740182
0.741488
0.741993
0.742068
0.741868
0.741627
0.741372
0.741142
0.740955
0.740689
0.740398
0.740002
0.739748
0.739496
0.739671
0.739781
0.740233
0.740569
0.740885
0.741065
0.741117
0.740769
0.739019
0.742306
0.752359
0.754082
0.754137
0.75409
0.753856
0.753214
0.751102
0.737611
0.722888
0.72405
0.725105
0.725484
0.725714
0.72586
0.72597
0.725914
0.726209
0.726411
0.727121
0.728098
0.729624
0.731266
0.733065
0.733845
0.733735
0.734755
0.737076
0.741744
0.748197
0.752828
0.753546
0.745887
0.74673
0.747135
0.747122
0.746925
0.746663
0.746585
0.746554
0.746405
0.745481
0.743349
0.74044
0.74022
0.745311
0.749818
0.749335
0.74919
0.748908
0.748427
0.74796
0.747655
0.747507
0.747518
0.747664
0.74787
0.7481
0.748281
0.748424
0.748532
0.748618
0.748685
0.748738
0.748786
0.748831
0.748872
0.748907
0.748938
0.748954
0.748959
0.748953
0.749037
0.749496
0.749775
0.749983
0.744043
0.743802
0.743879
0.744033
0.744345
0.744486
0.743569
0.742308
0.742107
0.743189
0.744764
0.745553
0.74562
0.745252
0.744861
0.744668
0.744694
0.744832
0.744989
0.745095
0.745142
0.745081
0.744917
0.744675
0.744357
0.744018
0.743721
0.743762
0.744967
0.746552
0.743438
0.74471
0.745632
0.745827
0.745376
0.744171
0.742576
0.741525
0.741067
0.740915
0.740864
0.740834
0.7409
0.7411
0.741466
0.741782
0.74211
0.742312
0.74261
0.742855
0.743199
0.743558
0.743853
0.744172
0.744389
0.744587
0.744782
0.744999
0.745301
0.74544
0.741553
0.741062
0.741294
0.741397
0.741377
0.741501
0.741645
0.741745
0.741838
0.741937
0.742075
0.742252
0.742474
0.742691
0.742909
0.743107
0.743274
0.743391
0.743437
0.743434
0.743413
0.743343
0.743356
0.74334
0.743397
0.7434
0.743807
0.74503
0.745924
0.745781
0.74301
0.74153
0.739987
0.739074
0.738831
0.738769
0.738732
0.738667
0.738583
0.738492
0.73847
0.73845
0.738468
0.738529
0.738654
0.738796
0.738956
0.739101
0.7392
0.739247
0.739237
0.739148
0.739082
0.738929
0.738823
0.73873
0.738741
0.739121
0.741162
0.743163
0.74282
0.741698
0.743064
0.744487
0.744641
0.744029
0.743904
0.744634
0.745511
0.746165
0.7464
0.746326
0.746068
0.74595
0.746105
0.746575
0.747262
0.747882
0.748388
0.748706
0.748849
0.748796
0.748582
0.748157
0.747567
0.746957
0.74643
0.745947
0.745615
0.745659
0.744158
0.742303
0.740346
0.740066
0.740394
0.740515
0.740197
0.739755
0.739362
0.739155
0.739069
0.739026
0.738948
0.738836
0.7386
0.738341
0.73813
0.737915
0.737925
0.738101
0.738589
0.739295
0.740177
0.741126
0.741905
0.74228
0.742111
0.741396
0.740776
0.740978
0.738941
0.738111
0.737701
0.737896
0.738423
0.739174
0.739978
0.740757
0.741428
0.741866
0.742278
0.74243
0.742576
0.742518
0.742322
0.741911
0.741388
0.740668
0.740068
0.739656
0.739342
0.739091
0.738544
0.737589
0.736297
0.735491
0.734268
0.73277
0.731457
0.731821
0.745601
0.745139
0.743529
0.742299
0.741639
0.741671
0.741979
0.742393
0.742769
0.743048
0.743306
0.743491
0.743593
0.743606
0.743464
0.743307
0.742955
0.742623
0.741968
0.741409
0.740303
0.739431
0.738479
0.738065
0.7382
0.738354
0.738496
0.73867
0.738827
0.73899
0.740434
0.739331
0.737559
0.735955
0.735157
0.735189
0.735465
0.735954
0.736374
0.736743
0.736958
0.737019
0.736933
0.73682
0.736509
0.736115
0.735664
0.735149
0.734671
0.734259
0.733962
0.733887
0.734059
0.734847
0.73649
0.737406
0.737337
0.737156
0.737455
0.737431
0.7414
0.736282
0.735088
0.73893
0.741836
0.742445
0.7421
0.740784
0.739506
0.7385
0.737738
0.737107
0.736491
0.735869
0.735204
0.734607
0.734215
0.734082
0.734149
0.73424
0.734474
0.734759
0.735449
0.736645
0.738157
0.739625
0.740331
0.73927
0.740378
0.747664
0.754266
0.753371
0.750475
0.747043
0.741665
0.738302
0.727367
0.723049
0.723939
0.724043
0.72372
0.723421
0.723176
0.723178
0.723155
0.723077
0.723041
0.723051
0.723219
0.723969
0.726153
0.730655
0.735466
0.736938
0.734592
0.733037
0.734372
0.741188
0.750016
0.753434
0.747405
0.747554
0.74718
0.746094
0.744848
0.744139
0.744086
0.744844
0.74599
0.746463
0.745658
0.742649
0.74046
0.744079
0.749735
0.749075
0.748666
0.748104
0.74745
0.746885
0.746589
0.746674
0.747005
0.747433
0.747872
0.748176
0.748335
0.748403
0.748419
0.748404
0.748375
0.748352
0.74835
0.748369
0.748436
0.748504
0.748641
0.748735
0.748835
0.7489
0.74895
0.74921
0.749873
0.750414
0.744127
0.744301
0.744707
0.744766
0.744676
0.743959
0.742332
0.741825
0.743654
0.745777
0.747456
0.747942
0.747316
0.746268
0.74558
0.74545
0.745659
0.745942
0.746174
0.746298
0.74636
0.746355
0.74629
0.746094
0.745778
0.745275
0.74464
0.744102
0.744342
0.74563
0.743681
0.745225
0.74591
0.745422
0.743789
0.741641
0.740348
0.740282
0.740912
0.741442
0.74155
0.741559
0.741869
0.742521
0.743102
0.743496
0.743707
0.743881
0.743949
0.744001
0.744073
0.744179
0.744314
0.744452
0.74454
0.744607
0.744687
0.744841
0.745078
0.745287
0.74145
0.740908
0.741055
0.74109
0.741499
0.742022
0.742236
0.742289
0.742347
0.742492
0.742733
0.743017
0.743307
0.743586
0.743841
0.744006
0.744231
0.744285
0.744478
0.744413
0.744335
0.744072
0.743859
0.743652
0.7436
0.743535
0.743578
0.744202
0.745283
0.74559
0.742819
0.741002
0.739412
0.738728
0.738598
0.738555
0.738505
0.738429
0.738231
0.73802
0.737818
0.737698
0.737717
0.737924
0.738392
0.738933
0.739406
0.739738
0.739889
0.739897
0.739804
0.739672
0.73951
0.739336
0.739124
0.738838
0.73869
0.738871
0.740033
0.74213
0.742382
0.742347
0.743625
0.743277
0.741673
0.741535
0.743606
0.74543
0.74606
0.745512
0.743915
0.741827
0.740334
0.739583
0.739544
0.740246
0.741656
0.743594
0.745511
0.747025
0.748058
0.748593
0.748668
0.748328
0.747614
0.746778
0.746193
0.745778
0.745505
0.745591
0.742133
0.740007
0.739377
0.739962
0.740102
0.739351
0.738938
0.738865
0.739063
0.739447
0.739784
0.739924
0.739851
0.73959
0.739238
0.738896
0.738434
0.738017
0.737583
0.737138
0.737028
0.737367
0.738167
0.739366
0.740725
0.741822
0.742278
0.741965
0.741112
0.740924
0.737556
0.737639
0.738873
0.740612
0.74221
0.743394
0.744293
0.744697
0.745161
0.745151
0.745372
0.745251
0.74532
0.74528
0.745141
0.744889
0.744343
0.743666
0.742666
0.741622
0.740655
0.739932
0.739314
0.738732
0.738133
0.737559
0.736743
0.73516
0.732824
0.731901
0.745168
0.74293
0.741315
0.741636
0.742634
0.743694
0.744468
0.744948
0.745268
0.745295
0.745452
0.74534
0.745553
0.745522
0.745452
0.745319
0.745253
0.744936
0.744434
0.743455
0.742064
0.740665
0.73937
0.738434
0.738143
0.738251
0.738397
0.738492
0.73872
0.739036
0.739988
0.738193
0.735602
0.734924
0.735802
0.737225
0.73864
0.739663
0.740574
0.741023
0.741481
0.741492
0.741553
0.741249
0.740749
0.740094
0.739143
0.738077
0.736896
0.735808
0.734899
0.734273
0.734048
0.734281
0.735162
0.736448
0.737258
0.73768
0.737897
0.737836
0.737372
0.735501
0.738641
0.741818
0.742112
0.740414
0.738421
0.736861
0.736048
0.73543
0.734792
0.73417
0.733613
0.733173
0.732878
0.732802
0.733285
0.734255
0.735203
0.735773
0.735604
0.734923
0.734256
0.734246
0.735011
0.736963
0.738955
0.739081
0.73931
0.744654
0.753705
0.748984
0.739937
0.734655
0.731219
0.727479
0.72315
0.72315
0.723592
0.72368
0.723967
0.724486
0.725047
0.725335
0.725254
0.724994
0.724559
0.723999
0.723208
0.722396
0.722023
0.72409
0.731011
0.739257
0.740534
0.73752
0.734653
0.738299
0.747949
0.753294
0.747704
0.74733
0.745571
0.743197
0.742106
0.741964
0.742126
0.742624
0.744043
0.745897
0.746265
0.744284
0.741075
0.743484
0.749567
0.748638
0.747993
0.747271
0.746457
0.7458
0.745644
0.746066
0.746757
0.747455
0.747967
0.748209
0.748227
0.748199
0.748118
0.748001
0.74787
0.747775
0.747753
0.747795
0.747892
0.748019
0.748175
0.748356
0.748549
0.74873
0.74887
0.749043
0.749715
0.750477
0.744276
0.745061
0.745596
0.745341
0.744522
0.742984
0.741573
0.742208
0.744863
0.747
0.748611
0.748683
0.747708
0.74639
0.745805
0.745903
0.746179
0.746359
0.746422
0.746432
0.74646
0.746516
0.746559
0.746583
0.746525
0.746239
0.745616
0.744758
0.744376
0.745156
0.743911
0.745511
0.745731
0.744418
0.741839
0.7399
0.739594
0.74096
0.742352
0.742975
0.742834
0.742765
0.743371
0.744136
0.744626
0.74481
0.745011
0.745022
0.745116
0.745114
0.745079
0.745132
0.745098
0.745081
0.745014
0.744873
0.744758
0.744751
0.744927
0.74518
0.741369
0.740742
0.74085
0.74126
0.742385
0.742885
0.74286
0.742776
0.742901
0.743185
0.743533
0.743835
0.744061
0.744216
0.744324
0.744387
0.74446
0.744512
0.744638
0.744749
0.744822
0.744743
0.744479
0.744091
0.743874
0.743744
0.743669
0.743896
0.744743
0.745331
0.742581
0.740509
0.739018
0.738489
0.738447
0.738501
0.738597
0.738735
0.738635
0.738234
0.737624
0.737143
0.737123
0.737566
0.738611
0.739571
0.740174
0.740404
0.740358
0.740131
0.739866
0.73964
0.739462
0.73933
0.739222
0.739006
0.738716
0.738726
0.739519
0.741496
0.742311
0.742635
0.742571
0.740463
0.739871
0.743027
0.745524
0.745874
0.744345
0.741318
0.738533
0.736992
0.736293
0.735926
0.735844
0.735861
0.736301
0.737799
0.740221
0.742997
0.745461
0.747254
0.74813
0.74808
0.747369
0.746527
0.745956
0.745609
0.745373
0.745534
0.740819
0.739117
0.73945
0.739766
0.73868
0.738446
0.738572
0.738915
0.739483
0.740064
0.740344
0.740238
0.739882
0.739404
0.738927
0.738444
0.738094
0.737754
0.737406
0.736974
0.736567
0.736238
0.736664
0.737661
0.73923
0.740968
0.742099
0.742252
0.741472
0.740986
0.737659
0.739767
0.742121
0.743938
0.744955
0.745516
0.745802
0.745803
0.745887
0.745614
0.745725
0.745525
0.745529
0.74552
0.745572
0.745639
0.745647
0.745321
0.744675
0.743639
0.742379
0.741227
0.740247
0.739613
0.739155
0.738832
0.738229
0.736851
0.734043
0.732195
0.744103
0.740927
0.742134
0.743827
0.744712
0.744993
0.745128
0.744988
0.745048
0.744905
0.745031
0.745045
0.745114
0.745192
0.745292
0.745294
0.745364
0.745323
0.7453
0.744917
0.743835
0.7423
0.740617
0.739213
0.738352
0.738198
0.738354
0.738506
0.738714
0.739103
0.739678
0.735573
0.734819
0.736728
0.738805
0.740437
0.741723
0.742639
0.743427
0.743949
0.744278
0.744535
0.744475
0.744409
0.744188
0.743532
0.742662
0.74142
0.739906
0.738244
0.736663
0.735377
0.734574
0.73431
0.73458
0.735378
0.736374
0.737198
0.737882
0.737989
0.735375
0.737209
0.741177
0.74195
0.739997
0.737586
0.736403
0.736035
0.735845
0.735533
0.735016
0.734276
0.73346
0.732876
0.732793
0.73368
0.736021
0.738668
0.740983
0.74229
0.742589
0.741266
0.738694
0.735956
0.734455
0.735162
0.737341
0.738402
0.738619
0.743083
0.752195
0.740909
0.729977
0.726565
0.724324
0.722677
0.722751
0.723238
0.723871
0.724829
0.726244
0.72763
0.728511
0.728697
0.728496
0.727879
0.727162
0.726333
0.725406
0.724184
0.722633
0.721609
0.723915
0.733654
0.741087
0.739269
0.736233
0.738208
0.747233
0.753206
0.747776
0.746553
0.743333
0.741601
0.741789
0.742543
0.743159
0.743307
0.743863
0.745438
0.746435
0.745124
0.741688
0.74325
0.74933
0.748107
0.747324
0.746475
0.745486
0.744781
0.744773
0.745433
0.746554
0.747495
0.747939
0.748047
0.74802
0.747975
0.747817
0.74757
0.74729
0.747089
0.74703
0.74714
0.747366
0.747615
0.747831
0.748013
0.748251
0.748504
0.748729
0.748966
0.749593
0.750433
0.744485
0.745592
0.746062
0.745459
0.743989
0.742121
0.741104
0.742203
0.744301
0.746813
0.748852
0.748822
0.74762
0.746323
0.745992
0.74614
0.746205
0.74607
0.745861
0.745723
0.745729
0.745898
0.746171
0.74641
0.746619
0.74666
0.746292
0.745435
0.744609
0.744952
0.744033
0.745532
0.745292
0.743009
0.740104
0.738846
0.739614
0.741702
0.743351
0.743689
0.743271
0.743387
0.744256
0.744791
0.744966
0.744991
0.74506
0.745093
0.745195
0.745251
0.745401
0.745482
0.7456
0.745599
0.745505
0.745271
0.744962
0.744772
0.744839
0.745101
0.741315
0.74057
0.740811
0.742106
0.743235
0.743277
0.743013
0.743097
0.74351
0.743937
0.74423
0.74436
0.744381
0.744359
0.74433
0.744284
0.744242
0.744267
0.744355
0.744559
0.744763
0.744902
0.744785
0.744442
0.744137
0.743964
0.743801
0.743875
0.74445
0.745163
0.742408
0.740125
0.738717
0.7383
0.738336
0.738604
0.739013
0.739408
0.739579
0.739223
0.738174
0.737067
0.737003
0.737825
0.739478
0.740569
0.740893
0.740704
0.740252
0.739813
0.739488
0.73929
0.739202
0.73916
0.739174
0.739061
0.73876
0.738683
0.739284
0.741154
0.742308
0.742319
0.740708
0.738796
0.74093
0.744574
0.74522
0.743848
0.741044
0.738427
0.73686
0.736668
0.737075
0.737397
0.73735
0.736695
0.735918
0.735892
0.737091
0.739709
0.742766
0.745532
0.74722
0.747636
0.747183
0.746552
0.74602
0.745545
0.745265
0.745481
0.739976
0.738846
0.739198
0.738587
0.738143
0.73805
0.737695
0.737823
0.738597
0.739387
0.739748
0.739566
0.739085
0.738468
0.737831
0.737263
0.736815
0.736555
0.736445
0.736393
0.736224
0.735898
0.73582
0.736416
0.737945
0.740112
0.741891
0.742311
0.74161
0.741036
0.739922
0.742767
0.744509
0.745252
0.745586
0.745689
0.745708
0.74542
0.745089
0.744824
0.744592
0.744733
0.744679
0.7448
0.744956
0.74523
0.745531
0.74576
0.745622
0.744938
0.743895
0.742529
0.741358
0.74046
0.739951
0.739536
0.738925
0.737374
0.734399
0.732499
0.742617
0.74108
0.744132
0.744511
0.744183
0.743917
0.743838
0.74391
0.744033
0.744311
0.744389
0.744817
0.744777
0.744992
0.745001
0.745135
0.745094
0.74516
0.745311
0.745324
0.744854
0.743726
0.741964
0.740259
0.738952
0.738378
0.738404
0.738638
0.738859
0.739187
0.738124
0.734536
0.736835
0.739083
0.740743
0.742051
0.743195
0.744053
0.744838
0.745401
0.745707
0.745935
0.746033
0.746022
0.745897
0.745595
0.745017
0.744055
0.742668
0.740825
0.738843
0.736992
0.735634
0.734865
0.734686
0.734998
0.735725
0.736627
0.737608
0.738067
0.735725
0.73959
0.742083
0.740491
0.737762
0.736591
0.736535
0.736828
0.736932
0.736783
0.736287
0.73539
0.734208
0.733267
0.733356
0.735183
0.738854
0.742235
0.744598
0.745999
0.746512
0.74599
0.743433
0.739036
0.735082
0.734513
0.736162
0.737582
0.738074
0.742447
0.749278
0.733435
0.724673
0.722536
0.721754
0.7222
0.722882
0.723805
0.725229
0.727207
0.72935
0.730885
0.731798
0.73191
0.731342
0.730238
0.728905
0.727765
0.726835
0.725921
0.724388
0.722408
0.721361
0.72679
0.739094
0.740011
0.737579
0.739071
0.747493
0.753311
0.747767
0.745502
0.741982
0.741567
0.743095
0.744641
0.745519
0.745706
0.745521
0.746029
0.74663
0.745527
0.742084
0.743204
0.749054
0.747584
0.746714
0.745736
0.744649
0.744099
0.744172
0.744957
0.746449
0.747526
0.747853
0.747897
0.747905
0.747861
0.747593
0.74716
0.746653
0.746321
0.746231
0.746435
0.746829
0.7473
0.747642
0.747838
0.748005
0.748288
0.748595
0.748885
0.7495
0.75036
0.74462
0.745755
0.746088
0.745227
0.743401
0.74145
0.740641
0.741269
0.742916
0.74601
0.748722
0.748705
0.747344
0.746229
0.746082
0.7461
0.74587
0.745473
0.745109
0.74492
0.744936
0.745155
0.745567
0.746037
0.746439
0.746715
0.746645
0.745954
0.744893
0.744899
0.744085
0.745394
0.74461
0.741648
0.738951
0.738197
0.739556
0.742355
0.743886
0.743874
0.743436
0.743911
0.744712
0.744835
0.744757
0.744763
0.744848
0.744948
0.745048
0.745225
0.745444
0.745662
0.745821
0.745948
0.745912
0.74564
0.745215
0.744819
0.744785
0.745068
0.741288
0.740464
0.74105
0.743318
0.743639
0.743143
0.743143
0.743654
0.744212
0.744489
0.744537
0.744399
0.744234
0.744086
0.744014
0.743941
0.743927
0.743959
0.7441
0.74433
0.744605
0.744812
0.744834
0.744625
0.744345
0.744123
0.743933
0.743917
0.744356
0.745091
0.742254
0.739823
0.738506
0.738108
0.738131
0.738356
0.738714
0.739267
0.739976
0.740218
0.739178
0.737351
0.737116
0.738467
0.740374
0.74121
0.741038
0.740325
0.739693
0.73932
0.739134
0.739069
0.739042
0.739068
0.739108
0.739039
0.738764
0.738659
0.739253
0.741027
0.74228
0.741581
0.738995
0.738301
0.741696
0.743635
0.743382
0.741882
0.739912
0.738297
0.737984
0.738866
0.739673
0.739911
0.739706
0.738976
0.737629
0.73651
0.73667
0.738391
0.741338
0.744335
0.746469
0.747281
0.747145
0.746806
0.746223
0.745521
0.745191
0.745459
0.73944
0.738623
0.738629
0.738169
0.737742
0.736468
0.73563
0.736485
0.738086
0.739176
0.739464
0.73922
0.73863
0.737858
0.737097
0.736413
0.735915
0.735536
0.735527
0.735745
0.735826
0.735678
0.735324
0.735615
0.737062
0.739682
0.741781
0.742364
0.741679
0.741085
0.743141
0.74449
0.744945
0.745131
0.745307
0.745301
0.744999
0.744521
0.743971
0.744001
0.744059
0.744581
0.744691
0.745031
0.745106
0.745221
0.745427
0.745728
0.745915
0.745616
0.744845
0.743611
0.742325
0.741305
0.740614
0.740094
0.739317
0.737668
0.734309
0.732633
0.741916
0.743168
0.743981
0.743037
0.742674
0.742742
0.743034
0.743368
0.743791
0.744254
0.744677
0.74502
0.745268
0.745419
0.745474
0.745438
0.745284
0.74513
0.745146
0.745286
0.745253
0.744599
0.743067
0.741326
0.739707
0.7388
0.738623
0.738862
0.739066
0.739203
0.736714
0.735373
0.738517
0.740043
0.741511
0.742882
0.744131
0.745049
0.74597
0.746412
0.746786
0.747036
0.747063
0.747042
0.746898
0.746656
0.746354
0.745693
0.744637
0.742925
0.740873
0.738702
0.736945
0.735769
0.735195
0.735202
0.735628
0.736376
0.73753
0.738094
0.736627
0.740915
0.741495
0.7387
0.736894
0.736803
0.73737
0.737772
0.737901
0.737803
0.737455
0.736628
0.73525
0.733833
0.7337
0.736015
0.740212
0.743149
0.745115
0.746655
0.747419
0.7472
0.745396
0.740489
0.73536
0.734071
0.735496
0.736929
0.737617
0.742486
0.747012
0.728261
0.722167
0.721327
0.721501
0.722269
0.723366
0.724905
0.727165
0.729941
0.732492
0.734468
0.735452
0.735424
0.734501
0.732645
0.730562
0.728652
0.727515
0.726848
0.725753
0.723611
0.721481
0.72236
0.734953
0.741283
0.739724
0.741357
0.748859
0.753524
0.747722
0.744683
0.741795
0.742412
0.744317
0.745571
0.746372
0.746885
0.746922
0.746944
0.746859
0.745654
0.742258
0.743257
0.74874
0.74707
0.746143
0.745059
0.744127
0.743835
0.743947
0.744743
0.746493
0.747562
0.747727
0.747797
0.747878
0.747811
0.747443
0.746799
0.74616
0.745829
0.745817
0.746113
0.746625
0.747198
0.747619
0.747726
0.747841
0.748086
0.748464
0.748855
0.749468
0.750279
0.744611
0.745581
0.745867
0.744893
0.74291
0.741104
0.740186
0.740292
0.741666
0.745282
0.748528
0.748516
0.747044
0.746154
0.746098
0.745922
0.745455
0.74493
0.7446
0.74445
0.744448
0.744632
0.745078
0.745675
0.746239
0.746679
0.746796
0.746269
0.745134
0.744904
0.744035
0.74511
0.743975
0.740644
0.738214
0.737717
0.739813
0.742816
0.744267
0.74392
0.743592
0.744309
0.744744
0.744568
0.7446
0.744807
0.745032
0.745238
0.745392
0.745537
0.745715
0.745912
0.746038
0.746197
0.746212
0.745902
0.745354
0.744837
0.744755
0.745071
0.741228
0.740525
0.742091
0.743937
0.74343
0.743053
0.743644
0.744358
0.744669
0.744661
0.744364
0.744063
0.743861
0.743746
0.743705
0.743697
0.743714
0.743789
0.743939
0.74421
0.744513
0.744722
0.744789
0.74469
0.744454
0.744224
0.744034
0.743999
0.744382
0.745097
0.742072
0.739597
0.738312
0.737857
0.737654
0.737435
0.737287
0.737828
0.739311
0.740608
0.7402
0.737841
0.737266
0.739063
0.740852
0.741363
0.740656
0.739746
0.73926
0.739068
0.738974
0.738973
0.738992
0.739034
0.739072
0.738995
0.738715
0.738682
0.739336
0.741118
0.742147
0.740431
0.737643
0.737928
0.740471
0.741497
0.741371
0.740549
0.739294
0.738602
0.739355
0.740656
0.74093
0.740551
0.740255
0.739828
0.73887
0.737579
0.7373
0.738715
0.741265
0.743952
0.746083
0.747081
0.747163
0.746965
0.746308
0.745456
0.74515
0.745465
0.739029
0.738365
0.738343
0.737613
0.735902
0.734226
0.734467
0.736528
0.738712
0.739646
0.73971
0.739258
0.738434
0.737378
0.736216
0.735373
0.734805
0.7347
0.734977
0.735403
0.735547
0.735285
0.734835
0.735335
0.736907
0.739882
0.742068
0.742391
0.741558
0.741126
0.744364
0.744492
0.744559
0.744866
0.745029
0.744818
0.74424
0.743678
0.743399
0.743759
0.744599
0.745217
0.746012
0.746261
0.746162
0.745962
0.745915
0.746025
0.746192
0.745999
0.745384
0.744258
0.743025
0.741921
0.741107
0.740354
0.739392
0.736813
0.733997
0.733244
0.742212
0.743476
0.742452
0.741742
0.741722
0.742051
0.742575
0.74319
0.743964
0.744556
0.745214
0.745337
0.745556
0.745437
0.745506
0.745432
0.745338
0.745131
0.745055
0.745127
0.745299
0.745037
0.743776
0.742151
0.740426
0.739327
0.739001
0.739205
0.739304
0.739011
0.736017
0.73665
0.738969
0.740369
0.741986
0.743448
0.744777
0.745728
0.746672
0.747059
0.747604
0.747895
0.74799
0.747919
0.747722
0.747391
0.747118
0.74658
0.745809
0.74428
0.742361
0.740099
0.738133
0.736769
0.735991
0.735749
0.73597
0.73654
0.737691
0.738131
0.737597
0.741454
0.740514
0.737653
0.736814
0.737386
0.738005
0.738272
0.738294
0.738241
0.738061
0.737595
0.7364
0.734599
0.733792
0.736098
0.740199
0.742604
0.743815
0.745381
0.74676
0.746898
0.744288
0.739084
0.734622
0.733822
0.735265
0.7365
0.738073
0.742785
0.744031
0.725918
0.721267
0.720899
0.721546
0.72257
0.72406
0.72623
0.72917
0.732428
0.735309
0.737336
0.738562
0.73853
0.737249
0.734928
0.731947
0.729367
0.727715
0.727312
0.726662
0.72463
0.721803
0.720682
0.729702
0.742155
0.742738
0.744411
0.75062
0.754004
0.7477
0.744499
0.741884
0.742898
0.744556
0.745386
0.74605
0.7467
0.747194
0.747288
0.747035
0.74548
0.742216
0.743281
0.748482
0.746614
0.745652
0.744647
0.744053
0.744088
0.744035
0.744709
0.746622
0.747599
0.747618
0.747718
0.747889
0.747817
0.747393
0.746683
0.746043
0.745751
0.745843
0.74631
0.746949
0.747422
0.747666
0.747703
0.74771
0.747945
0.748387
0.74883
0.749449
0.750187
0.744785
0.745257
0.7453
0.744476
0.742782
0.741027
0.739986
0.740023
0.741185
0.744918
0.748414
0.748317
0.746755
0.746118
0.746087
0.745711
0.745081
0.74461
0.7444
0.744305
0.744266
0.744405
0.744866
0.745521
0.746164
0.74667
0.74685
0.746425
0.745232
0.744931
0.743962
0.744843
0.743227
0.739918
0.737825
0.737754
0.740273
0.743594
0.744522
0.743863
0.743696
0.744533
0.744582
0.744446
0.744703
0.745175
0.745574
0.745911
0.746089
0.746169
0.746217
0.746274
0.746336
0.746408
0.746324
0.745937
0.745307
0.744802
0.744781
0.745067
0.741248
0.740688
0.743022
0.743873
0.743101
0.743331
0.744296
0.744783
0.744741
0.744458
0.744088
0.743836
0.743658
0.743632
0.743629
0.74364
0.743671
0.74376
0.743959
0.744262
0.744545
0.744744
0.744754
0.744652
0.744444
0.744266
0.744112
0.744108
0.74454
0.745151
0.741928
0.73941
0.738138
0.737538
0.737024
0.736328
0.735824
0.736258
0.738149
0.740455
0.740958
0.738396
0.737389
0.739339
0.740954
0.741144
0.740257
0.73944
0.739137
0.738972
0.738892
0.738921
0.738989
0.739033
0.739016
0.738868
0.738648
0.738793
0.739625
0.741211
0.742041
0.73958
0.736664
0.737031
0.73847
0.739028
0.7392
0.73898
0.738591
0.738887
0.740454
0.741548
0.740993
0.74025
0.740137
0.740063
0.739477
0.738682
0.738678
0.740123
0.74207
0.74412
0.74606
0.746963
0.747059
0.746867
0.746104
0.745305
0.7452
0.745563
0.738734
0.738262
0.737971
0.736277
0.734226
0.733423
0.734466
0.737202
0.739368
0.74012
0.739981
0.739419
0.738397
0.737007
0.735557
0.734752
0.734485
0.734773
0.73509
0.735316
0.73526
0.734736
0.734618
0.735513
0.737865
0.740886
0.742334
0.742198
0.741435
0.741393
0.744371
0.744027
0.744315
0.744728
0.744806
0.744398
0.743724
0.743215
0.743241
0.743921
0.745113
0.745948
0.746882
0.747164
0.747239
0.746918
0.746691
0.746584
0.746557
0.746194
0.745574
0.744488
0.743323
0.742208
0.741268
0.740408
0.738807
0.735748
0.735007
0.736628
0.742484
0.742697
0.741166
0.740763
0.740899
0.741446
0.742266
0.743223
0.744235
0.74495
0.745438
0.745396
0.74528
0.745058
0.744979
0.745188
0.74515
0.744971
0.744878
0.744946
0.745238
0.745211
0.744007
0.742626
0.74089
0.739801
0.739495
0.739721
0.739228
0.73816
0.735767
0.737286
0.738967
0.740455
0.74214
0.743691
0.745032
0.7461
0.747
0.747584
0.748249
0.748497
0.748609
0.748502
0.74826
0.747809
0.747657
0.747023
0.746457
0.744872
0.743133
0.740883
0.739033
0.73768
0.736911
0.736557
0.736586
0.737015
0.738051
0.738135
0.738306
0.741556
0.739649
0.737215
0.737038
0.73792
0.738491
0.738712
0.73877
0.738506
0.738233
0.73808
0.737435
0.735539
0.733868
0.735587
0.739733
0.741525
0.741846
0.742608
0.743352
0.74287
0.740194
0.736373
0.734103
0.73399
0.735262
0.7367
0.739189
0.742718
0.744065
0.724973
0.720969
0.720953
0.72169
0.722944
0.724741
0.727352
0.730665
0.734217
0.737153
0.739412
0.740375
0.740247
0.738803
0.736203
0.732804
0.729685
0.727654
0.727463
0.727355
0.725248
0.721927
0.720155
0.726135
0.742105
0.745823
0.748122
0.7519
0.753658
0.747847
0.744765
0.742206
0.743064
0.744492
0.745203
0.745779
0.746298
0.746763
0.74703
0.746839
0.745499
0.742709
0.742794
0.744227
0.74693
0.748228
0.74665
0.745408
0.744746
0.744598
0.744836
0.744286
0.744816
0.746819
0.747699
0.747552
0.747631
0.747908
0.747895
0.747525
0.746874
0.746286
0.746006
0.746198
0.746695
0.747215
0.74751
0.747574
0.74754
0.747585
0.747845
0.748381
0.748869
0.749511
0.750052
0.749064
0.747139
0.745506
0.745667
0.745055
0.744261
0.742927
0.741529
0.740371
0.740106
0.741181
0.744896
0.748351
0.748154
0.746521
0.746114
0.746087
0.745521
0.744849
0.744554
0.744521
0.744583
0.744598
0.744722
0.745145
0.745743
0.746312
0.746775
0.746911
0.74635
0.745193
0.744936
0.744547
0.743761
0.743999
0.744535
0.742741
0.739588
0.737768
0.737992
0.741313
0.744112
0.744629
0.743773
0.743899
0.744588
0.744409
0.744438
0.744957
0.745523
0.746011
0.746288
0.746448
0.746477
0.746478
0.746439
0.746439
0.746364
0.74612
0.74564
0.745061
0.744757
0.744861
0.745076
0.744262
0.741662
0.741256
0.742003
0.743923
0.743295
0.743139
0.74391
0.744702
0.74485
0.744662
0.744355
0.744062
0.743841
0.743755
0.743772
0.743845
0.7439
0.743983
0.744086
0.744275
0.744464
0.74466
0.744744
0.744675
0.74453
0.744385
0.74427
0.744196
0.74435
0.744764
0.745021
0.744501
0.743441
0.741959
0.7393
0.737983
0.737259
0.736536
0.7358
0.735425
0.735783
0.737485
0.740285
0.74146
0.738936
0.737418
0.739309
0.740833
0.740928
0.740047
0.739371
0.739099
0.738893
0.738818
0.738868
0.738933
0.738938
0.738853
0.738697
0.738681
0.739122
0.740263
0.741688
0.742222
0.742261
0.741144
0.738209
0.735952
0.736001
0.736702
0.737046
0.737354
0.737569
0.737868
0.739183
0.741414
0.742028
0.740895
0.740056
0.740265
0.74064
0.740557
0.740252
0.740703
0.741725
0.74296
0.744575
0.746145
0.746767
0.746812
0.746513
0.745732
0.745258
0.745321
0.744575
0.740223
0.73845
0.738518
0.737997
0.736873
0.734975
0.733711
0.733259
0.734534
0.737413
0.739734
0.740465
0.740331
0.739809
0.738818
0.73749
0.736207
0.735424
0.735193
0.735094
0.735157
0.735072
0.734775
0.734673
0.735182
0.737033
0.739781
0.741852
0.742431
0.741883
0.741358
0.741506
0.742729
0.744138
0.743864
0.743827
0.744189
0.744608
0.744703
0.744241
0.743554
0.743028
0.743081
0.743823
0.744967
0.746
0.746842
0.747257
0.747379
0.747272
0.747163
0.7468
0.746647
0.746068
0.745339
0.744273
0.743169
0.742092
0.741119
0.739702
0.736719
0.735587
0.740047
0.742404
0.742644
0.742369
0.7417
0.740774
0.740089
0.739869
0.740118
0.74086
0.741949
0.743173
0.744321
0.74514
0.745435
0.74524
0.744829
0.744644
0.744543
0.744671
0.744789
0.744736
0.744805
0.744932