/*--------------------------------*- C++ -*----------------------------------*\
| =========                 |                                                 |
| \\      /  F ield         | OpenFOAM: The Open Source CFD Toolbox           |
|  \\    /   O peration     | Version:  2.1.1                                 |
|   \\  /    A nd           | Web:      www.OpenFOAM.org                      |
|    \\/     M anipulation  |                                                 |
\*---------------------------------------------------------------------------*/
FoamFile
{
    version     2.0;
    format      ascii;
    class       volScalarField;
    location    "0.005000000";
    object      O2;
}
// * * * * * * * * * * * * * * * * * * * * * * * * * * * * * * * * * * * * * //

dimensions      [0 0 0 0 0 0 0];

internalField   nonuniform List<scalar> 
12384
(
0.00164091
0.00291544
0.00393813
0.00553823
0.00625681
0.00634255
0.005976
0.00498758
0.00337348
0.00265798
0.00169761
0.00154893
0.00296529
0.0209585
0.0481932
0.0441011
0.0427993
0.0421207
0.0409286
0.0388155
0.0364797
0.0345336
0.0333991
0.0329638
0.0330027
0.0334561
0.0340834
0.03486
0.0355527
0.0362713
0.0367708
0.0372015
0.0376006
0.0378341
0.0381753
0.0383454
0.0386492
0.0387793
0.0390221
0.0390982
0.041319
0.0484422
0.0399469
0.0381377
0.0018904
0.00145768
0.00126785
0.00140914
0.00182536
0.00282591
0.00294614
0.00187233
0.000299662
0.000393858
0.000430437
0.000467463
0.000843011
0.000995405
0.000942058
0.000941597
0.000877254
0.000866792
0.000888315
0.00093178
0.000836877
0.000906055
0.000888599
0.000981963
0.0010856
0.00108414
0.00126628
0.00247468
0.0151246
0.0299199
0.00213751
0.00381291
0.00615497
0.0082852
0.00848863
0.0083049
0.00578243
0.00332294
0.00236487
0.00169745
0.00107799
0.000825537
0.000518317
0.000317359
0.000407395
0.000488837
0.000604746
0.000928658
0.00102596
0.0013205
0.00152725
0.00174286
0.00195758
0.0021252
0.00230438
0.00247739
0.00342281
0.00465845
0.00687413
0.00760671
0.000120268
8.18825e-05
9.78258e-05
0.000107469
0.000135083
0.000143632
0.000135984
0.000152429
0.000163785
0.000180591
0.000179231
0.00019562
0.000224192
0.000221809
0.000263956
0.000270516
0.000326085
0.000230474
-1.89524e-05
0.00046079
0.000358193
0.000607522
0.000652659
0.00104727
0.00128501
0.00146755
0.00376399
0.0132193
0.0126205
0.011613
0.000578483
0.00023684
2.12598e-05
6.50852e-05
5.69454e-05
5.58127e-05
4.57606e-05
3.95679e-05
4.4139e-05
3.95467e-05
4.06716e-05
3.8617e-05
3.78181e-05
4.13149e-05
4.17124e-05
4.45055e-05
4.75218e-05
4.92208e-05
3.90301e-05
5.32857e-05
5.21137e-05
4.69833e-05
5.62441e-05
5.30607e-05
4.87275e-05
6.91969e-05
7.93034e-05
0.00014374
0.00138437
0.0037532
0.00256897
0.000434833
0.000421697
0.00216127
0.00287089
0.00364623
0.00541076
0.00659387
0.00819998
0.0111887
0.0140698
0.0165183
0.0193139
0.021501
0.0236312
0.0253944
0.0267287
0.0279011
0.0284646
0.0287129
0.0285305
0.0276291
0.0258169
0.0232254
0.0201584
0.0167785
0.0135088
0.00941661
0.00735073
0.00812133
0.0281776
0.0229784
0.00435851
0.000362087
-8.96788e-05
-1.759e-05
1.87029e-05
4.15289e-05
6.99303e-06
2.55953e-05
-4.90989e-05
0.000102961
9.5873e-05
8.12017e-05
7.69884e-05
6.92712e-05
6.92907e-05
7.60954e-05
7.55242e-05
-3.77279e-05
8.7468e-06
0.000101296
0.000232691
0.000370132
0.000445178
0.000364865
0.000190985
3.96401e-05
6.159e-05
0.000280032
0.00760051
0.00406189
0.00218335
0.000793638
0.000260077
7.01797e-05
4.69848e-05
1.99535e-05
1.56005e-05
1.79288e-05
1.20824e-05
1.3645e-05
1.38697e-05
1.28869e-05
1.35546e-05
1.37365e-05
8.6531e-06
9.93775e-06
1.33765e-05
1.92731e-05
2.08983e-05
2.35095e-05
1.58327e-05
3.04691e-06
1.39486e-06
1.76816e-06
1.38248e-06
1.06078e-06
1.37632e-06
2.21386e-06
0.0158804
0.0154812
0.0125503
0.00760654
0.00337209
0.00197234
0.000886977
8.50501e-05
0.000319737
0.000266347
0.000211149
0.000174641
0.000175177
0.000142035
0.000114464
0.000127612
9.05919e-05
8.28675e-05
7.45295e-05
7.08608e-05
5.49714e-05
2.92359e-05
-3.45209e-06
5.96452e-06
1.11539e-05
7.97851e-06
2.83652e-05
2.13569e-05
3.37779e-05
3.40162e-05
8.58702e-05
3.46713e-05
1.32277e-05
1.11162e-05
6.6564e-06
2.84199e-06
4.48728e-06
3.37021e-06
2.75891e-06
2.9655e-06
2.12275e-06
2.24875e-06
1.77034e-06
2.11614e-06
2.10522e-06
2.28244e-06
2.02963e-06
2.16353e-06
1.91995e-06
2.00891e-06
2.03011e-06
2.14959e-06
2.91474e-06
4.44242e-06
1.00746e-05
8.37901e-06
6.32148e-06
7.29083e-06
6.49852e-06
7.29808e-06
0.0167848
2.93197e-05
2.11721e-06
3.90247e-06
-4.48411e-06
3.05791e-05
7.29571e-05
0.000119913
0.000131261
0.00010007
8.39342e-05
5.94519e-05
3.5313e-05
1.15536e-05
-2.17048e-05
3.474e-05
2.93689e-05
2.17415e-05
1.95677e-05
2.25117e-05
2.36253e-05
2.94288e-05
6.28631e-06
3.14608e-05
4.37266e-05
4.63185e-05
6.2324e-06
1.1806e-05
0.00014932
0.0756597
0.0943434
0.0949304
0.0944263
0.0918879
0.0849122
0.0622244
7.35903e-06
1.27774e-07
3.87974e-08
1.50386e-07
2.62722e-07
2.7424e-07
3.22984e-07
3.19544e-07
3.35489e-07
3.27547e-07
3.81611e-07
5.14885e-07
5.25124e-07
9.79848e-07
1.33501e-06
1.34365e-06
2.46907e-06
1.61487e-06
4.44109e-06
8.55344e-06
0.000106697
0.0312077
0.080695
0.0884585
0.0137253
0.0190539
0.0223098
0.0221756
0.0205747
0.018501
0.0179926
0.0177677
0.0167754
0.0112567
0.00478422
0.00156213
0.00240059
0.0113189
0.0481222
0.0430571
0.0415854
0.038598
0.033557
0.0287636
0.0256639
0.0243092
0.0244296
0.0257991
0.0278675
0.0302035
0.0320436
0.033497
0.034592
0.0354651
0.0361338
0.0367128
0.0372063
0.0376779
0.0381076
0.0384891
0.0388217
0.039
0.0390765
0.0390386
0.0399316
0.0447665
0.0477011
0.0499009
0.00204607
0.00159893
0.00166907
0.00192698
0.00253783
0.00289328
0.00153387
0.000341642
0.00030373
0.000956845
0.00345776
0.00787429
0.00831579
0.00635416
0.00424869
0.0035837
0.00362883
0.00410019
0.00492976
0.00549658
0.00574681
0.00540443
0.00449147
0.00350263
0.00298012
0.00245499
0.00201558
0.00214666
0.00517839
0.0158967
0.0025887
0.0048417
0.00890328
0.00965025
0.00697004
0.00266111
0.000489904
0.000298966
0.00019765
0.000126159
9.56605e-05
0.000118164
0.000151486
0.000138647
0.000207726
0.000246695
0.000274573
0.000243868
0.00028724
0.000246385
0.000738696
0.00113148
0.00148243
0.00184464
0.00210764
0.00232848
0.00257833
0.00381207
0.00553325
0.00632015
0.000114754
7.5697e-05
8.65461e-05
9.62632e-05
0.000107919
0.000117447
0.000125945
0.000144957
0.000151059
0.000175651
0.000187648
0.000215726
0.00025424
6.33347e-05
0.00034118
0.000618277
0.00097657
0.0011719
0.00128468
0.00135826
0.00135101
0.00126066
0.00133439
0.00126567
0.00138417
0.00139134
0.00215918
0.00540858
0.010993
0.00983454
0.000368408
0.000178902
8.06389e-05
5.11686e-05
4.43749e-05
4.1369e-05
3.71658e-05
3.0395e-05
2.23904e-05
1.63794e-05
2.63187e-05
2.44388e-05
2.64433e-05
2.79159e-05
3.36336e-05
2.67734e-05
3.62659e-05
4.43314e-05
5.06271e-05
5.94934e-05
5.25559e-05
6.48012e-05
6.24196e-05
6.20214e-05
6.54108e-05
5.15029e-05
6.12962e-05
8.12029e-05
0.00019725
0.00116665
0.000830504
0.000373882
0.00108973
0.00284431
0.00284567
0.00215299
0.0020699
0.00298621
0.00727811
0.0121329
0.0139923
0.0133625
0.0111893
0.0101733
0.0112918
0.0151851
0.0217326
0.0279169
0.0332031
0.0365503
0.0380756
0.0375143
0.0352332
0.0307949
0.0246896
0.0186719
0.013789
0.00958619
0.00706546
0.00757494
0.00279959
0.000499775
0.0001228
0.000106105
0.000126624
-9.66194e-05
0.000122399
9.47555e-05
6.88155e-05
5.14803e-05
5.33808e-05
4.04423e-05
3.52526e-05
3.58543e-05
2.30724e-05
1.40226e-05
-1.13244e-06
2.12364e-05
2.36317e-05
-4.09779e-06
2.40876e-05
5.69702e-05
8.99005e-05
0.000124207
0.000317959
0.000423988
0.000351921
0.000200176
6.53798e-05
0.000153112
1.91111e-05
-9.97239e-06
2.12888e-05
2.39408e-05
1.90772e-05
5.05231e-05
7.47694e-05
6.21154e-05
0.000177934
0.000233433
0.000274698
0.000298899
0.000302341
0.000295954
0.000268149
0.00021522
0.000141828
1.34345e-05
5.14438e-05
4.06329e-05
3.81614e-05
3.09124e-05
1.79134e-05
1.69757e-05
7.35154e-06
7.11928e-06
4.25677e-06
2.7873e-06
1.52162e-06
1.84647e-06
0.0085862
0.0059217
0.00148551
0.000312493
0.000181769
0.000178222
0.000180007
0.00020324
4.64293e-05
0.000362151
0.000668094
0.000969357
0.00109524
0.00110276
0.000943043
0.000756394
0.000220581
0.000244399
0.000208489
0.000149899
7.28882e-05
4.67337e-05
1.84013e-05
2.39939e-05
1.08504e-05
1.86351e-05
1.57421e-05
1.60195e-05
2.69786e-05
3.46736e-05
-6.11163e-06
2.88853e-05
1.22339e-05
1.75848e-06
4.48311e-06
4.45394e-06
4.42816e-06
4.08665e-06
5.14811e-06
5.65209e-06
5.20352e-06
5.50496e-06
5.90367e-06
4.73545e-06
4.71597e-06
2.95938e-06
2.0294e-06
3.16918e-06
2.73155e-06
2.63861e-06
1.92507e-06
2.13958e-06
2.53334e-06
3.87172e-06
6.94381e-06
1.11828e-05
1.12465e-05
9.94418e-06
1.27906e-05
1.31547e-05
6.63691e-05
2.94242e-06
3.56127e-06
1.34128e-05
9.35486e-05
0.000146788
0.000126315
-1.05198e-05
2.58758e-05
8.83686e-06
1.18945e-05
8.03824e-06
4.08613e-06
3.12059e-06
4.1746e-06
3.1242e-06
2.60055e-06
1.84689e-06
1.88075e-06
2.18756e-06
2.46178e-06
2.47688e-06
3.32383e-06
5.10252e-06
-9.58072e-07
2.33167e-05
3.24145e-05
2.10697e-05
3.8013e-05
0.0256436
0.0963012
0.0866209
0.0554914
0.019523
9.62208e-05
5.07996e-06
7.24409e-08
1.54383e-07
1.8586e-07
1.13295e-07
1.90598e-07
1.89556e-07
1.66382e-07
1.84957e-07
1.91658e-07
2.01882e-07
2.03129e-07
2.2727e-07
2.34349e-07
2.71347e-07
4.69596e-07
4.67276e-07
6.17189e-06
9.61717e-06
4.61111e-06
3.52067e-07
3.1506e-06
4.44165e-05
0.0504782
0.0872416
0.0245378
0.0256989
0.0226508
0.0148464
0.00849551
0.00675398
0.00670715
0.00862614
0.0142591
0.0171584
0.0120285
0.00330173
0.00201941
0.00758659
0.0472787
0.0403575
0.036022
0.0302324
0.0237057
0.0184315
0.0160093
0.0167567
0.0197796
0.0236928
0.0279166
0.0309843
0.0326059
0.0332802
0.0334424
0.0333034
0.0330224
0.032795
0.0327908
0.0329833
0.0336354
0.0343014
0.0356603
0.0366612
0.0377072
0.038434
0.0389937
0.0417534
0.0487522
0.054458
0.00215942
0.00230298
0.00288481
0.00308958
0.00304821
0.00208677
0.000314033
0.000230397
0.00158453
0.00898415
0.0238045
0.028596
0.0225275
0.0133644
0.00826987
0.0076339
0.00884412
0.0109685
0.0127923
0.0137725
0.014252
0.0141443
0.0135997
0.0120222
0.00930534
0.0065089
0.00349039
0.0026391
0.00326518
0.00907991
0.00299509
0.0070859
0.010484
0.00740803
0.00209951
0.000291251
0.000147498
0.000172147
0.000155191
0.000387524
0.000378864
0.000344583
0.00037146
0.000417409
0.000785791
0.00132492
0.00157174
0.00159832
0.00172226
0.00160358
0.00166791
0.00184098
0.00201764
0.00216837
0.00228025
0.00235739
0.00244849
0.00290864
0.00425804
0.00545378
0.000104482
4.44658e-05
6.02296e-05
8.20354e-05
0.000105003
0.000148637
0.000156945
0.000177887
0.000195148
0.000230567
1.26733e-05
0.000418004
0.000845653
0.00121294
0.00165976
0.00188279
0.00233208
0.00239292
0.00292968
0.00291815
0.003018
0.00255292
0.00230409
0.00193614
0.00182438
0.00171315
0.00169521
0.00287465
0.00676768
0.00860796
9.20675e-05
0.000122392
5.60531e-05
3.89246e-05
3.19367e-05
2.50434e-05
1.8994e-05
2.26419e-05
1.43444e-05
2.32732e-05
2.09831e-05
1.93831e-05
2.02601e-05
2.13029e-05
1.59528e-05
3.04338e-05
4.26204e-05
5.54831e-05
5.92458e-05
6.9651e-05
7.74361e-05
7.79002e-05
7.94124e-05
8.69737e-05
7.94867e-05
7.53498e-05
5.00001e-05
6.32677e-05
0.00016566
0.000541658
0.000492408
0.000429959
0.00180748
0.00129194
0.000324996
0.000307812
0.00150266
0.00712474
0.0114784
0.00753742
0.00205085
0.000295795
0.000119586
7.46835e-05
7.38439e-05
8.96759e-05
0.000212117
0.00129425
0.00687927
0.0194196
0.0297575
0.0353514
0.0361354
0.032577
0.0251516
0.0168114
0.011729
0.00801269
0.00646136
0.0070706
0.000406171
0.000104777
7.60505e-05
0.000100812
0.000118005
6.78334e-05
4.79007e-05
4.95683e-05
6.12542e-05
7.76715e-05
8.99914e-05
9.60056e-05
8.54202e-05
7.12923e-05
4.25215e-05
3.5573e-05
1.2589e-05
2.30966e-05
2.05291e-05
1.63447e-05
1.66924e-05
1.94782e-05
-4.12956e-06
5.49048e-05
2.64394e-05
0.00029617
0.000412461
0.0003413
0.000144052
0.000108935
1.68835e-05
2.15904e-05
3.50406e-05
-3.45877e-05
0.000402954
0.00134864
0.00284571
0.00348323
0.00557988
0.00553443
0.0065503
0.00594985
0.00618089
0.00593673
0.00512202
0.00371401
0.00244083
0.00144015
-2.94003e-05
0.000174193
9.2037e-06
5.82024e-05
4.21757e-05
2.58715e-05
7.17694e-06
1.92646e-05
1.25337e-05
7.51036e-06
2.91411e-06
1.95298e-06
0.00593818
0.000386771
0.00013853
0.000155575
0.00026341
0.00127316
0.00214454
0.00342673
0.00521491
0.00537451
0.00628451
0.00565201
0.00689707
0.0067009
0.00630766
0.00556037
0.00513608
0.00334818
0.00220889
0.00100486
0.000230447
-5.84079e-06
4.58519e-05
1.71708e-05
7.64362e-07
7.05794e-06
1.61731e-05
6.49887e-06
1.90572e-05
3.06616e-05
3.57835e-05
-2.7581e-06
-3.12831e-07
4.03881e-06
1.04662e-06
9.57294e-06
1.13504e-05
2.85513e-05
-2.62101e-06
5.73198e-05
9.94853e-05
9.85056e-05
0.000106413
8.17848e-05
3.87211e-05
3.0523e-05
1.74429e-05
5.7643e-06
6.81205e-06
1.34292e-06
3.17052e-06
2.08733e-06
2.0219e-06
2.56584e-06
4.07659e-06
6.47248e-06
1.13851e-05
1.31109e-05
1.50524e-05
1.45998e-05
5.90658e-06
3.69314e-06
1.01746e-05
9.51451e-05
0.000135376
4.23372e-05
3.91925e-06
9.85399e-06
1.86141e-06
6.26574e-06
4.57176e-06
2.57306e-06
2.15811e-06
6.23083e-07
1.81694e-06
1.78294e-06
9.04077e-07
2.57331e-06
3.75974e-06
2.27789e-06
2.10158e-06
3.30586e-06
2.05372e-06
2.02959e-06
3.39778e-06
5.46472e-06
1.23953e-05
1.62554e-05
1.82337e-05
0.00209682
0.0902585
0.039517
2.62534e-05
2.05792e-06
5.72544e-07
1.51021e-07
1.26944e-07
1.70101e-07
1.77014e-07
2.0817e-07
2.24857e-07
1.49562e-07
2.95884e-07
2.97524e-07
2.64657e-07
2.10051e-07
1.65565e-07
8.32913e-08
2.4763e-07
1.94656e-07
1.10916e-07
6.0365e-08
1.11185e-06
3.13387e-05
-1.78177e-05
1.67772e-05
5.11425e-06
1.50171e-06
0.0286185
0.0857192
0.026954
0.0238838
0.0117573
0.00446323
0.00301055
0.00298948
0.00312284
0.00357847
0.00672801
0.013661
0.0158345
0.00682545
0.0024642
0.00628188
0.0455212
0.0357393
0.0290671
0.0219972
0.014754
0.00967399
0.00898397
0.0120463
0.0174219
0.0238889
0.0288756
0.0313343
0.0315242
0.0312809
0.0305051
0.0294283
0.0281548
0.0272838
0.0269806
0.027476
0.0284135
0.029605
0.0311192
0.0328626
0.0347474
0.0366136
0.0381272
0.0399843
0.0470667
0.0551186
0.0023519
0.00456293
0.00767729
0.00635861
0.00286061
0.000587024
0.000190402
0.000289561
0.00379309
0.0194873
0.0354057
0.0361179
0.0261998
0.0143648
0.00979565
0.0107179
0.0129746
0.0143935
0.0149045
0.0149504
0.0151386
0.0155523
0.0158756
0.0160277
0.0155042
0.0131634
0.00838931
0.00372135
0.00328164
0.00647125
0.00337182
0.00842905
0.00918154
0.00324806
0.000354151
0.000116554
0.000105384
0.000192084
0.000716315
0.00106561
0.000636754
0.000368262
0.00125395
0.00239575
0.00297652
0.00338513
0.00422981
0.00425116
0.00461008
0.00464295
0.00426394
0.00458682
0.00437055
0.00428175
0.00389272
0.00308979
0.00253035
0.00252211
0.00339635
0.00482831
9.95272e-05
3.30478e-05
6.2534e-05
8.98677e-05
0.000178083
0.000296883
0.000152137
5.62881e-05
0.000315884
0.000741632
0.00111848
0.00155631
0.00189094
0.00209768
0.00234132
0.00240301
0.00256705
0.00275827
0.00301943
0.0033784
0.00392482
0.00376601
0.00341892
0.00277699
0.00240872
0.00220767
0.00199752
0.00227203
0.00381202
0.00709958
0.000258213
3.17578e-05
4.93543e-05
2.87703e-05
2.52763e-05
1.99352e-05
3.18964e-05
3.37542e-05
2.70465e-05
1.01758e-05
1.98637e-05
1.36398e-05
1.41664e-05
1.48292e-05
1.7138e-05
3.62646e-05
5.34981e-05
6.55931e-05
7.6371e-05
8.28153e-05
8.93811e-05
9.19808e-05
0.000104427
0.000103336
9.98435e-05
8.92997e-05
7.56839e-05
7.46426e-05
0.000135424
0.000357721
0.000440099
0.000429622
0.000394159
-0.000114084
9.00115e-05
0.000504297
0.00762371
0.0100018
0.00281186
0.000160315
1.58248e-05
3.18091e-05
1.41684e-05
1.21591e-05
1.04714e-05
8.28036e-06
1.33617e-05
3.01336e-05
7.82133e-05
0.00042296
0.00657414
0.0216057
0.0305094
0.0299813
0.0227402
0.0146444
0.00968267
0.00706116
0.00571438
0.00664125
3.62819e-05
4.62367e-05
8.0938e-05
8.53225e-05
1.65455e-05
1.55478e-05
2.71519e-05
4.82615e-05
8.05511e-05
0.000107978
0.000121077
0.000100988
7.6841e-05
5.52217e-05
3.61495e-05
2.06348e-05
8.26169e-06
2.05523e-05
1.80064e-05
1.69074e-05
1.12846e-05
9.75665e-06
1.16865e-05
2.25002e-05
4.78863e-05
8.71597e-05
0.000354911
0.000398408
0.000247298
0.000145611
1.94714e-05
7.24388e-05
0.000385106
0.00238132
0.00488549
0.00784801
0.00953249
0.00940411
0.0100698
0.00806074
0.00854813
0.00747329
0.00734634
0.0073501
0.00760671
0.00794735
0.00794754
0.00617412
0.0030161
0.0014716
0.000315699
0.000121231
7.47772e-05
5.66248e-05
4.4761e-05
3.07707e-05
1.02567e-05
1.69984e-05
4.26152e-06
2.23082e-06
0.00232336
4.68172e-05
0.000248013
0.00152952
0.00251716
0.00371526
0.00439007
0.00359562
0.00396927
0.00314563
0.00390672
0.00397143
0.00440389
0.00483535
0.00541523
0.00541109
0.00580306
0.00554651
0.00542359
0.00345121
0.00164944
0.00027447
-1.25453e-05
4.18366e-05
9.10689e-06
2.64737e-07
1.2097e-05
6.34562e-06
1.59341e-05
2.88013e-05
3.50166e-05
5.03371e-06
4.51164e-06
6.82248e-06
1.98082e-05
-3.00884e-05
0.000121144
0.000178618
0.000851262
0.00144926
0.00186466
0.00216924
0.00209724
0.00201344
0.00175914
0.000980995
-2.43358e-05
8.9274e-05
2.66123e-05
3.34804e-06
6.58416e-06
3.61161e-06
2.86776e-06
2.73333e-06
2.69029e-06
4.23296e-06
6.11612e-06
1.11133e-05
1.44803e-05
1.60006e-05
3.37859e-06
7.141e-06
4.71321e-05
0.000105054
3.68535e-05
1.43567e-05
8.12922e-06
3.1979e-06
2.33341e-06
7.72608e-06
5.82842e-06
4.20131e-06
1.05197e-06
2.10958e-06
1.72607e-06
1.66385e-06
2.96965e-06
1.26235e-05
4.89565e-05
0.000154894
0.000194189
5.73952e-05
6.81335e-06
1.326e-06
2.57298e-06
3.29308e-06
7.61502e-06
6.74886e-06
7.61012e-06
0.000217019
0.0739834
3.78556e-05
5.3564e-07
2.31256e-07
7.63038e-08
1.12345e-07
1.48305e-07
1.57644e-07
2.22122e-07
2.50946e-07
5.1716e-07
5.56328e-07
9.18869e-07
9.23737e-07
9.36e-07
6.37887e-07
1.83561e-07
4.99977e-07
3.1293e-07
1.12095e-07
1.82684e-07
8.09336e-08
2.29244e-07
2.23866e-06
5.82212e-05
3.04687e-05
4.42073e-06
4.30067e-06
0.0214156
0.0847553
0.0276962
0.0178193
0.00467697
0.00255725
0.00281663
0.00360273
0.00478344
0.00509814
0.00642792
0.0113517
0.0169794
0.00952221
0.0029503
0.00571707
0.0430379
0.0302533
0.0224678
0.0147937
0.00779947
0.00423662
0.00422086
0.00782838
0.0158195
0.0242563
0.0285945
0.0297219
0.0295004
0.0291343
0.0276907
0.0254351
0.0230665
0.0214154
0.0208745
0.0218133
0.0237419
0.0258388
0.0278328
0.0295888
0.0318585
0.034303
0.036626
0.0391552
0.0457629
0.0546352
0.00263166
0.00758251
0.0112232
0.00703924
0.00207163
0.00027626
0.000141786
0.000286707
0.00250295
0.0176514
0.0379318
0.0376018
0.0253885
0.0138654
0.0114105
0.012714
0.0132943
0.0122762
0.0105749
0.00942127
0.00943501
0.0107945
0.0128546
0.0147254
0.0163186
0.0165727
0.0135722
0.00743845
0.0035788
0.00545247
0.00348436
0.00839859
0.00676712
0.000735465
0.000128686
4.02004e-05
0.000111532
0.000427595
0.0017344
0.00245604
0.00129582
0.0012861
0.00258991
0.00341567
0.00427971
0.00437446
0.0045417
0.00481194
0.00515795
0.00548306
0.00618259
0.006677
0.00723592
0.00722646
0.00669229
0.00536135
0.00358948
0.00253439
0.0028861
0.00438154
9.19815e-05
3.38101e-05
4.93215e-05
0.000148406
0.000689815
0.000734504
0.000436765
0.000582894
0.00111649
0.00177862
0.00226104
0.00256707
0.00272444
0.00268707
0.00272393
0.00261169
0.00252626
0.00250507
0.00276683
0.00307359
0.00364321
0.00452483
0.00411392
0.00349103
0.00293157
0.00265497
0.00226361
0.00230308
0.00330185
0.00614243
0.000239007
7.89649e-05
3.77718e-05
2.4204e-05
1.96162e-05
2.55214e-05
4.00944e-05
5.91908e-05
5.61542e-05
4.77559e-05
9.38449e-06
1.40119e-05
1.17895e-05
1.58568e-05
3.58928e-05
4.40231e-06
7.03768e-05
4.28517e-05
9.67098e-05
0.000102227
0.000101382
9.77163e-05
0.000108514
0.000119088
0.000107916
0.00011199
6.57968e-05
4.62735e-05
0.000115381
0.000240955
0.000370639
0.000346797
2.33491e-06
3.02638e-05
2.34647e-05
0.00315915
0.00596149
0.00198656
8.20574e-05
6.30017e-06
2.86267e-05
2.58259e-05
2.65691e-05
3.0636e-05
2.83483e-05
2.02982e-05
1.0277e-05
5.96509e-06
2.35007e-05
6.59064e-05
-6.27556e-06
0.00691885
0.0212695
0.025379
0.0209018
0.0148646
0.0102451
0.00671703
0.00512134
0.00635512
9.52539e-05
3.05521e-05
5.96421e-05
2.2748e-05
8.55953e-06
3.78584e-05
3.24347e-05
3.35832e-05
2.51392e-05
5.82995e-05
8.10213e-05
6.11983e-05
4.43646e-05
2.48189e-05
2.08778e-05
1.6434e-05
1.19116e-05
1.02795e-05
1.09584e-05
1.07464e-05
6.95907e-06
5.9039e-06
5.47576e-06
8.61037e-06
2.73033e-05
8.51705e-05
0.000300694
0.000403792
0.000270353
0.000174688
7.56193e-05
0.000164375
0.00338676
0.00644705
0.00816063
0.00864937
0.00872051
0.00713063
0.00525206
0.00382296
0.00308834
0.0033538
0.0030805
0.00339968
0.00416052
0.00571046
0.00738896
0.0086268
0.00785697
0.00423066
0.00194706
0.000372013
0.00017524
3.77343e-06
7.43881e-05
6.38646e-05
3.34315e-05
2.11303e-05
5.07739e-06
2.20625e-06
0.000356252
9.37375e-05
0.00193848
0.00223339
0.00176568
0.00137014
0.00129709
0.00138032
0.00155905
0.00186929
0.0020111
0.00267984
0.00248836
0.00369933
0.00375897
0.00452493
0.00427117
0.00465423
0.0054586
0.00560828
0.00323994
0.00150683
0.000235467
7.31767e-05
3.16025e-05
8.67132e-06
1.59312e-05
1.33148e-05
1.9149e-05
2.76768e-05
-4.40538e-07
3.56513e-06
8.43456e-06
2.24756e-05
1.20147e-05
0.000140573
0.000429851
0.00153136
0.00278319
0.005974
0.00776875
0.0095552
0.0104197
0.0103151
0.00922602
0.00710937
0.00380185
0.00157011
-2.80916e-05
1.40764e-05
1.13163e-05
7.74273e-06
9.69533e-07
3.00074e-06
3.03786e-06
3.30242e-06
8.61312e-07
7.46088e-06
1.33863e-05
1.62574e-05
1.79934e-06
2.33362e-05
0.000132999
-1.26694e-05
1.6852e-05
9.98064e-06
1.20605e-05
1.23616e-05
1.40213e-05
1.50583e-05
7.52587e-06
7.4314e-06
3.37302e-06
1.15691e-06
1.53538e-06
4.09615e-06
1.65844e-05
0.000172756
0.00225627
0.0102328
0.0146062
0.0100856
0.000706811
1.57556e-05
3.50032e-06
3.02931e-06
3.5322e-06
8.74826e-06
-1.26136e-06
0.000161029
0.0426456
1.18644e-06
7.03255e-08
8.11306e-08
8.97129e-08
1.06425e-07
1.67574e-07
2.09359e-07
3.1112e-07
4.52735e-07
1.46972e-06
1.52123e-06
3.31751e-06
3.63943e-06
2.97688e-06
7.5578e-07
1.35079e-06
6.4207e-07
5.67677e-07
4.50896e-07
5.54511e-08
1.58586e-07
1.22096e-07
4.89039e-07
2.4773e-05
4.66741e-05
1.46104e-05
2.03452e-05
0.0239761
0.0858885
0.0276172
0.0113723
0.00274356
0.00255842
0.00468441
0.00882575
0.0124201
0.0129333
0.0118719
0.0145263
0.0182206
0.0113726
0.00326549
0.0056098
0.0401202
0.0249374
0.0166644
0.00889304
0.00372077
0.00290769
0.00305627
0.0053215
0.0150079
0.0245374
0.0277193
0.0282483
0.0284439
0.0281102
0.0256349
0.0219815
0.0178166
0.0156336
0.0150369
0.0164437
0.0192709
0.02322
0.0261009
0.0279454
0.0295168
0.0322019
0.0352092
0.0382851
0.0447718
0.0538474
0.00279601
0.00850657
0.0114344
0.00574829
0.00120136
0.000187156
6.3064e-05
0.00014958
0.000483911
0.0109136
0.036562
0.0363729
0.0228333
0.0131967
0.012224
0.0124991
0.0107675
0.00817346
0.00604784
0.00493055
0.00499115
0.00614655
0.00843256
0.011756
0.0149061
0.017022
0.0164417
0.0108077
0.00461173
0.00503723
0.00345237
0.00753552
0.00367927
0.00028144
5.63448e-05
3.5969e-06
9.23622e-05
0.0006373
0.00290066
0.00260056
0.00145798
0.00208212
0.00328682
0.0035794
0.00337099
0.00305852
0.00366297
0.00403842
0.00454605
0.00543551
0.00664677
0.00775583
0.0087343
0.00980615
0.0094763
0.00745706
0.00503637
0.00276702
0.00257043
0.00417578
9.10325e-05
-1.83002e-06
5.70793e-05
0.000790752
0.00106833
0.000561642
0.000668218
0.00142687
0.00226056
0.00291364
0.00331558
0.00333985
0.00321961
0.00305763
0.00292421
0.00276044
0.00263542
0.00251259
0.00271961
0.00295644
0.00365569
0.00413436
0.00453049
0.00390819
0.00349245
0.00307635
0.00265739
0.0024717
0.00313483
0.00574811
0.000245492
7.62976e-05
2.20528e-05
4.50721e-07
1.80008e-05
2.55454e-05
4.02459e-05
5.73618e-05
7.90036e-05
8.16331e-05
4.69418e-05
1.70924e-05
1.20842e-05
1.62869e-05
5.26015e-05
8.88546e-05
7.61329e-05
9.82833e-05
0.00011029
0.00011269
0.000102509
0.000116797
0.000119988
0.000109258
0.000117084
0.000124801
7.75793e-05
7.02654e-05
0.000110495
0.000179132
0.00036184
0.000170843
3.45036e-05
-1.94703e-06
0.000233606
0.00158675
0.00115809
0.000318033
0.00010248
6.51679e-06
4.25061e-05
3.82722e-05
8.22946e-05
8.44528e-05
6.42223e-05
4.09199e-05
2.99588e-05
1.67024e-05
1.9479e-05
1.35122e-05
0.000163734
0.00218642
0.0141373
0.021872
0.0205297
0.0171854
0.0120112
0.0065803
0.0046957
0.00622117
6.12711e-05
2.17723e-05
2.77061e-05
5.75868e-06
3.19632e-05
1.07267e-05
3.94186e-06
1.23168e-05
2.34815e-06
4.65136e-05
5.87013e-05
5.19722e-05
2.23801e-05
2.31364e-05
1.59002e-05
1.1173e-05
6.39518e-06
7.36729e-06
7.31589e-06
2.85873e-06
6.19623e-06
2.69581e-06
8.30907e-06
1.78279e-06
1.90952e-05
6.73806e-05
0.000277251
0.000405901
0.000249071
0.000172951
0.000900852
0.00331585
0.00469382
0.00557604
0.00653469
0.00646963
0.00486199
0.00327547
0.00233126
0.00232582
0.00235762
0.00297475
0.0029399
0.00448948
0.00477562
0.00548294
0.00666819
0.00848619
0.0099241
0.00799472
0.0037155
0.0015633
0.000354061
0.000177011
2.72715e-05
9.19659e-05
5.86864e-05
2.40063e-05
5.02447e-06
2.10186e-06
0.000248913
0.000666143
0.00156757
0.000349055
-0.000205492
-7.08814e-05
0.000370314
0.000756326
0.00128402
0.00180411
0.00234695
0.00383928
0.00529303
0.00614113
0.00646747
0.00625317
0.00535459
0.00449882
0.00454229
0.00533591
0.00536194
0.00268623
0.000530768
0.000148228
5.74373e-05
2.62307e-05
1.40494e-05
2.50399e-05
2.60544e-05
2.98754e-05
7.73574e-06
5.7723e-06
5.51337e-06
4.15449e-05
8.78357e-05
0.000121489
0.00162352
0.00394316
0.00985661
0.0136948
0.0169581
0.0194669
0.0197324
0.0195269
0.0181048
0.0158179
0.0131973
0.00764369
0.0022471
0.000251476
2.09817e-05
1.27395e-05
7.24537e-06
1.36077e-06
3.56713e-06
3.50949e-06
4.67646e-08
5.27651e-06
1.17966e-05
4.59907e-08
4.77829e-06
2.63199e-05
8.10501e-05
1.90285e-05
1.32894e-05
1.42062e-05
2.45812e-05
2.96742e-05
3.14207e-05
2.75813e-05
2.14655e-05
1.21793e-05
5.95876e-06
2.4637e-06
1.69502e-06
2.49068e-06
3.84079e-05
0.000450231
0.00445174
0.0158632
0.0232753
0.0211356
0.00593779
-7.25815e-06
4.32389e-06
2.43819e-06
3.81754e-06
6.77016e-06
9.50263e-06
0.000162558
0.0192125
3.41852e-07
1.05284e-07
5.37577e-08
8.22064e-08
1.33174e-07
1.92653e-07
2.16738e-07
3.51855e-07
1.73677e-06
4.25379e-06
8.97962e-06
1.43173e-05
1.41293e-05
1.10024e-05
5.45033e-06
1.39685e-06
1.01226e-06
3.22955e-07
5.71566e-07
3.29556e-07
2.3315e-07
9.56413e-08
1.47711e-07
4.59532e-06
5.24526e-05
3.75432e-05
6.0285e-05
0.0381384
0.0882046
0.0270811
0.00767229
0.00257798
0.00336372
0.0079796
0.0130055
0.017577
0.0207042
0.020682
0.0207009
0.0199744
0.0119306
0.00340301
0.00578911
0.0367975
0.0200312
0.0120342
0.0052211
0.00278693
0.00225309
0.00264016
0.00438313
0.0153726
0.0248679
0.0264084
0.0272551
0.0281833
0.0276364
0.0243626
0.0189482
0.0144749
0.0124861
0.0124339
0.0143809
0.0178195
0.022398
0.0259348
0.0268331
0.0279755
0.0302492
0.0339026
0.0379634
0.0444246
0.0529578
0.00282491
0.00755797
0.0096229
0.00387823
0.000489552
0.00013476
6.84713e-05
6.87658e-05
0.000192308
0.00612245
0.0345566
0.0344229
0.0200494
0.01264
0.0124031
0.0111831
0.00810993
0.00504115
0.0037389
0.00342219
0.00330361
0.00362176
0.00555956
0.00890252
0.0133064
0.0167807
0.0177473
0.0134326
0.00587206
0.00534129
0.00294814
0.00599312
0.00245215
-1.79092e-05
-2.14037e-06
3.85587e-05
0.000110299
0.00058473
0.00349937
0.00263016
0.00165836
0.00272255
0.0032507
0.00311331
0.00305769
0.00342488
0.00482311
0.00569671
0.00667232
0.00724336
0.0083206
0.00966687
0.0107294
0.0120614
0.0121642
0.00941444
0.00584934
0.00286004
0.0024886
0.00425152
6.66925e-05
1.46304e-05
0.000171571
0.00145907
0.000935154
0.00043927
0.0014083
0.00256075
0.00346053
0.00385191
0.00371387
0.00341651
0.00317369
0.00302268
0.00289856
0.00290569
0.00279548
0.00277575
0.0029426
0.00312694
0.00385298
0.0040211
0.00448403
0.00417499
0.00381026
0.00335668
0.00287997
0.00260398
0.00319562
0.00579592
0.000236146
7.24167e-05
1.51476e-05
2.96247e-05
2.77782e-05
2.88312e-05
2.5331e-05
3.21388e-05
6.3786e-05
1.3687e-05
8.39116e-05
2.23106e-05
1.27564e-05
2.76666e-05
3.49887e-05
0.000122603
3.00954e-05
0.000108772
0.000100622
9.56143e-05
0.000105276
0.000103939
0.000112343
0.000121007
0.000121872
0.000117978
7.20213e-05
6.78342e-05
0.000108584
0.000193412
0.000326272
-9.84148e-05
3.16144e-05
3.60515e-05
-7.10042e-05
0.000208038
0.000187697
-4.66803e-05
6.30763e-05
3.48248e-05
6.48736e-05
4.04682e-06
0.000100542
3.95279e-05
9.42103e-05
7.88169e-05
4.35601e-05
2.61221e-05
2.3718e-05
3.97865e-05
0.00012724
0.00177316
0.0108445
0.0198957
0.020702
0.0187554
0.0127495
0.00621762
0.00446702
0.00626245
3.85235e-05
3.97962e-06
1.47682e-05
2.54179e-05
2.56009e-06
5.25856e-06
5.15745e-06
1.06701e-05
2.46696e-05
6.53707e-05
6.79262e-05
5.13943e-05
2.48958e-05
2.00272e-05
8.61204e-06
6.82582e-06
5.83959e-06
4.85413e-06
5.93105e-06
6.97102e-06
8.36418e-06
7.27408e-06
6.34777e-06
7.91797e-06
1.66601e-05
8.02624e-05
0.00036203
0.000430007
0.000277086
0.000148292
0.0032714
0.00328261
0.00321302
0.00406271
0.00494727
0.00387859
0.00273632
0.00182055
0.00133995
0.00182279
0.00309087
0.00562808
0.0105873
0.0126995
0.011824
0.010156
0.00975858
0.0108166
0.0122414
0.0108235
0.00670297
0.00263048
0.000604853
0.000303479
0.000149197
0.000107873
5.98374e-05
1.4558e-05
3.2419e-06
1.15359e-06
0.000291296
0.00100554
0.000218353
0.000117369
0.000105618
0.000128587
0.000178457
0.000551354
0.00148228
0.00215259
0.00496335
0.00564132
0.00693366
0.00624864
0.00665336
0.00623849
0.00567823
0.00450301
0.00403852
0.00445062
0.00559762
0.00434042
0.00167192
0.000289473
8.05999e-05
4.64558e-05
3.19488e-05
3.77159e-05
3.22178e-05
2.66762e-05
2.34924e-06
8.35234e-06
2.10595e-05
4.82701e-05
0.000150905
0.000781729
0.00237107
0.00781164
0.0159551
0.0196916
0.025076
0.0280401
0.0290401
0.0282903
0.0262374
0.0229726
0.0202734
0.0151439
0.00845236
0.00181168
0.000162113
3.24996e-05
5.55519e-06
5.71986e-06
2.16634e-06
2.50021e-06
3.75121e-06
6.67447e-06
1.33635e-05
8.66341e-08
8.03677e-06
7.19764e-05
-9.32767e-06
1.8749e-05
1.62374e-05
2.31819e-05
3.3524e-05
1.78802e-05
1.40489e-05
-1.86217e-08
2.96232e-05
2.0423e-05
7.05027e-06
3.72864e-06
1.84917e-06
2.08106e-06
3.77956e-05
0.000209647
0.0012754
0.00595075
0.016749
0.0181828
0.00180719
1.9267e-05