/*--------------------------------*- C++ -*----------------------------------*\
| =========                 |                                                 |
| \\      /  F ield         | OpenFOAM: The Open Source CFD Toolbox           |
|  \\    /   O peration     | Version:  2.1.1                                 |
|   \\  /    A nd           | Web:      www.OpenFOAM.org                      |
|    \\/     M anipulation  |                                                 |
\*---------------------------------------------------------------------------*/
FoamFile
{
    version     2.0;
    format      ascii;
    class       volScalarField;
    location    "0.005000000";
    object      sL;
}
// * * * * * * * * * * * * * * * * * * * * * * * * * * * * * * * * * * * * * //

dimensions      [0 1 -1 0 0 0 0];

internalField   nonuniform List<scalar> 
12384
(
13.9612
12.132
10.5505
9.61528
9.1645
9.01468
9.18619
9.58831
10.4017
11.6947
13.8014
16.3591
16.7177
5.82945
1.89803
1.90388
1.6362
1.47409
1.4171
1.46026
1.5141
1.58715
1.64729
1.68857
1.69742
1.68759
1.65518
1.60394
1.59503
1.51527
1.55905
1.49156
1.52816
1.49443
1.51297
1.52521
1.51223
1.53748
1.49921
1.45139
1.45049
1.61486
1.67555
1.7042
1.86491
1.76883
1.69162
1.74615
1.84625
2.12294
2.0942
2.35045
2.41583
2.60187
2.62881
2.72576
2.79064
2.82772
2.87181
2.8776
2.84125
2.80074
2.77807
2.74089
2.69128
2.70938
2.72876
2.78147
2.84318
2.89335
2.94469
3.03972
2.75322
2.19226
5.08016
4.87658
3.8966
3.15214
2.61237
2.42397
2.29201
2.46561
2.47373
2.66234
2.62508
2.69991
2.55163
2.52925
2.22529
2.18798
1.73323
1.79407
1.35896
1.27597
1.26062
1.26144
1.24447
1.24129
1.22991
1.22042
1.20751
1.19241
1.16545
1.15728
1.38934
1.4123
1.40358
1.45875
1.54441
1.5581
1.58686
1.63848
1.66375
1.71876
1.75535
1.76031
1.8528
1.77859
2.00522
1.85585
2.24486
2.06136
2.50984
2.42144
2.7984
2.76716
2.93747
3.01603
3.04288
3.02636
2.85057
3.1797
3.35757
3.383
1.27833
2.2262
2.77417
3.14736
3.23216
3.2743
3.30158
3.31205
3.33415
3.29761
3.32213
3.29842
3.30741
3.36183
3.37527
3.42441
3.47288
3.4987
3.57494
3.54931
3.75651
3.70447
4.04746
4.01165
4.45037
4.61938
4.92609
4.89497
3.62177
3.41356
3.4526
3.83894
3.64598
2.98463
2.56465
2.16636
1.95836
1.78029
1.68176
1.5416
1.43708
1.32121
1.18624
1.09181
0.963575
0.954109
0.946137
0.936453
0.934341
0.931305
0.931337
0.938575
0.949361
0.968533
0.991148
1.01486
1.0422
1.07594
1.20406
1.51339
2.50059
2.51535
2.97278
3.61272
3.86836
3.8377
3.79274
3.73005
3.65399
3.55992
3.41764
3.26618
3.08184
2.98896
2.67545
2.78348
2.51005
2.65001
2.66489
2.97179
2.89466
3.11602
3.10989
3.12347
3.13732
3.18454
3.3792
3.73552
4.25988
4.53045
2.21265
2.24183
2.20384
2.2234
2.31143
2.49678
2.37751
2.66428
2.25483
2.56004
2.13765
2.21528
2.23274
2.069
2.09706
2.08459
2.11376
2.07591
2.18197
2.19297
2.34271
2.47408
2.60711
2.78509
2.96951
3.05753
3.15117
3.08446
2.97526
2.8633
2.6088
2.64209
2.66616
2.68597
2.65473
2.65952
2.51414
2.41104
2.26283
2.1918
2.01026
1.80228
1.89561
1.74787
1.8407
1.6373
2.15083
2.00496
2.59373
2.71128
2.92411
3.08213
2.81888
2.97947
3.41431
3.83765
3.75321
3.59552
3.46133
3.42781
1.34792
1.5876
1.89278
2.19768
2.32835
2.33796
2.37253
2.22783
2.0635
2.10171
1.72151
1.86224
1.68035
1.71797
1.92997
1.91645
2.08034
2.12414
2.27466
2.3418
2.36997
2.35866
2.3526
2.33531
2.21518
2.17536
2.26516
2.36916
2.44666
2.46902
1.01343
1.38444
2.28475
2.3429
1.91584
1.6276
1.46182
1.44466
1.4632
1.52316
1.57695
1.59826
1.60701
1.59198
1.57394
1.55374
1.57729
1.47783
1.52532
1.42219
1.41632
1.40147
1.38463
1.37156
1.36059
1.35593
1.47643
1.83642
1.42077
0.840087
0.453482
0.449089
0.452838
0.572731
0.620938
0.713433
1.69028
3.45933
3.45884
3.41968
3.36873
3.33847
3.41542
3.37844
3.58176
3.49092
3.71087
3.63741
3.61652
3.52239
3.33628
3.14334
3.00675
2.9229
2.79517
2.38334
1.60855
1.04635
0.838915
0.79412
7.11756
6.18649
5.74962
5.6901
5.83608
6.0515
6.11496
6.10529
6.20719
7.09083
9.50259
13.6806
16.4673
8.45527
1.83027
1.65307
1.38749
1.41532
1.52835
1.68486
1.89105
2.09667
2.20964
2.1977
2.14917
2.06453
2.04041
2.01985
2.06848
2.07135
2.15113
2.15653
2.19952
2.18914
2.17939
2.12361
2.05647
1.93309
1.78659
1.60057
1.50174
1.5476
1.66492
1.74603
1.88651
1.72936
1.68814
1.78645
1.92396
2.09322
2.20857
2.46257
2.46947
2.39539
2.27695
2.28284
2.37426
2.49604
2.58917
2.63124
2.62632
2.59801
2.53057
2.49784
2.48332
2.48223
2.48524
2.51385
2.58004
2.68026
2.79242
2.94323
2.95263
2.91543
5.08667
4.38504
3.35499
2.82458
2.61123
2.85355
3.1715
3.72199
3.85061
3.99963
3.95123
3.80965
3.62894
3.17474
2.91317
2.51415
2.286
1.85422
1.87798
1.40584
1.466
1.29145
1.27629
1.25445
1.24343
1.22862
1.21721
1.20203
1.18132
1.17067
1.39381
1.41677
1.48219
1.60349
1.55158
1.54109
1.51017
1.56008
1.6328
1.69464
1.75444
1.77162
1.81144
1.79118
1.92011
1.88883
2.15152
2.15434
2.45909
2.54594
2.72304
2.90065
2.98122
3.076
3.09506
3.09838
2.96771
2.90491
3.05898
3.22745
1.44062
2.46404
2.96882
3.21053
3.26647
3.26439
3.22578
3.17226
3.11011
3.0846
3.03117
3.01484
3.03824
3.0248
3.04109
3.04804
3.0844
3.10851
3.1337
3.23221
3.30249
3.52671
3.71239
4.01529
4.35045
4.51753
4.85705
4.94106
4.41371
3.71781
3.56402
3.71587
3.07085
2.35607
2.1041
2.30397
2.40623
2.30047
2.12256
1.98703
1.88342
1.83886
1.8042
1.70367
1.50078
1.30824
1.15908
0.939939
0.901129
0.87477
0.861995
0.865063
0.882742
0.91379
0.958507
1.00396
1.04215
1.07651
1.0996
1.39976
3.2059
3.61866
3.89363
3.93711
3.89179
3.86918
3.87568
3.88972
3.87997
3.81499
3.6841
3.54722
3.3105
3.18832
2.91906
2.93748
2.81511
2.88313
3.00346
3.06784
3.17863
3.22401
3.24129
3.18753
3.13876
3.15553
3.19212
3.38304
3.76634
4.26566
2.95791
3.05229
3.16824
3.29886
3.24189
3.21249
3.04744
2.8417
2.55962
2.44905
2.19388
2.19318
2.0371
2.11107
2.05549
2.09676
2.1171
2.23615
2.26447
2.29195
2.42487
2.41206
2.67234
2.70982
2.96567
2.99306
3.24522
3.30059
3.31942
3.16079
2.86761
2.76202
2.54326
2.42587
2.28142
2.12477
1.93079
1.68357
1.57168
1.36118
1.33655
1.27466
1.27059
1.26814
1.27757
1.28552
1.47836
1.66739
2.06045
2.31418
2.71122
2.99107
2.9603
2.98457
3.0083
3.25277
3.12337
2.80499
2.69674
2.73232
1.74421
2.02317
2.25506
2.39356
2.40048
2.38236
2.27631
2.14523
1.8961
1.81007
1.55355
1.56327
1.52501
1.55638
1.66347
1.80108
1.88378
2.00837
2.06061
2.17545
2.26648
2.33891
2.36413
2.3752
2.3151
2.23532
2.2668
2.38417
2.43233
2.46716
1.33953
1.81314
2.27341
1.75421
1.38662
1.34636
1.51298
1.77346
2.06345
2.21012
2.31642
2.34683
2.36138
2.35131
2.35779
2.33747
2.35919
2.23936
2.22371
2.10036
2.09159
2.00345
1.98417
1.84139
1.73143
1.57239
1.52293
1.78904
1.70393
0.987887
0.476563
0.600368
0.744243
1.00409
1.34062
1.61546
2.946
3.55258
3.52207
3.59968
3.70088
3.75835
3.71246
3.79057
3.97416
3.8843
4.04332
4.12949
4.11914
4.08634
3.92846
3.48516
2.91204
2.82989
3.18526
3.25686
2.89628
1.61565
1.02837
0.804557
5.66109
5.41121
5.6592
6.61562
7.93671
8.8435
9.00714
8.13885
6.85714
6.16127
6.85586
10.3289
15.2333
10.466
1.68141
1.43391
1.38432
1.55491
1.79091
2.15954
2.54074
2.66947
2.60098
2.44523
2.27598
2.21159
2.28059
2.43557
2.62473
2.7957
2.92548
3.04782
3.08676
3.09427
3.09016
2.97466
2.88312
2.62701
2.33907
1.94823
1.64674
1.5608
1.65863
1.83681
1.87374
1.7116
1.70412
1.82849
1.94418
2.13148
2.33639
2.39157
2.23394
2.07675
2.03868
2.08135
2.23982
2.44772
2.59856
2.69414
2.75731
2.75062
2.70778
2.70967
2.67605
2.58508
2.53497
2.51366
2.47921
2.50353
2.56964
2.77957
2.95402
3.23061
4.92088
3.93208
3.03699
2.87335
3.14976
3.77783
4.0667
4.45698
4.30716
4.36591
4.21259
3.76458
3.40628
2.75902
2.41038
2.16114
1.95727
1.53404
1.64173
1.30113
1.26707
1.25091
1.24759
1.23653
1.2332
1.22861
1.22291
1.2118
1.19615
1.18302
1.39471
1.46886
1.62101
1.56851
1.48147
1.36369
1.37163
1.44768
1.56043
1.64712
1.68514
1.68282
1.69617
1.65519
1.74942
1.72266
1.92457
1.94032
2.23723
2.37205
2.70139
2.78664
2.98465
3.12951
3.12815
3.15352
3.04084
2.92326
2.85847
3.0216
1.5548
2.63547
3.07596
3.2547
3.23536
3.16507
3.11275
2.99919
2.98891
2.9203
2.90486
2.88401
2.82813
2.79249
2.71321
2.65739
2.60473
2.63277
2.72052
2.86868
3.14727
3.35413
3.79246
3.99705
4.45407
4.65296
4.78391
5.008
4.7289
4.08541
3.52623
3.26145
2.65619
2.6518
3.35193
3.48378
2.95173
2.48325
2.31514
2.39673
2.75184
3.31881
3.61959
3.58596
3.44088
3.18623
2.54828
1.95003
1.52114
1.16408
0.926662
0.882983
0.875881
0.904054
0.957206
1.01897
1.0621
1.092
1.11111
1.2546
3.37521
3.8148
3.95607
3.95202
3.89461
3.8844
3.9454
4.01152
3.9886
3.89263
3.77381
3.59361
3.37145
3.21871
3.0035
2.934
2.84247
2.91749
3.00237
3.16195
3.23924
3.3534
3.31092
3.32192
3.21432
3.13568
3.10962
3.1533
3.45809
3.95958
3.04425
3.20943
3.39822
3.37435
3.24558
2.96651
2.71959
2.55241
2.22573
2.2484
1.93794
2.0516
1.84626
1.82122
1.79139
1.81024
1.91883
1.99694
2.12675
2.23395
2.45794
2.46908
2.65391
2.69588
2.96377
2.96535
3.20163
3.3068
3.33108
3.1733
2.59693
2.33104
2.33709
2.18476
1.87448
1.56108
1.38418
1.21365
1.14965
1.14962
1.14309
1.15193
1.14458
1.14257
1.14782
1.16062
1.15307
1.17804
1.4775
1.83197
2.30794
2.65671
2.85932
2.964
2.88265
2.91585
2.75632
2.54414
2.43717
2.47911
1.87417
2.08324
2.4135
2.49789
2.4108
2.20258
1.94132
1.73764
1.45307
1.39015
1.3793
1.37545
1.37807
1.3916
1.40785
1.43236
1.54821
1.67919
1.85618
1.98152
2.0942
2.19612
2.25917
2.29399
2.30852
2.29789
2.30897
2.35549
2.38258
2.38129
1.68125
2.1634
1.80216
1.40257
1.45189
1.85263
2.3561
2.70761
2.85645
2.94226
2.94748
2.89867
2.847
2.75225
2.68668
2.58886
2.52615
2.32872
2.25464
2.09448
2.14833
2.13937
2.21712
2.21783
2.14451
1.91004
1.7134
1.74989
1.84888
1.15926
0.527185
0.856411
1.41685
1.80861
2.24713
2.76576
3.40026
3.60603
3.6722
3.77858
3.78292
3.7869
3.89264
3.819
4.00741
3.99672
4.05143
4.08101
4.16842
4.15819
4.16939
4.03342
3.33936
2.41293
2.31076
2.90596
3.06996
2.15115
1.02167
0.803871
5.40952
5.59304
7.13342
9.80682
11.3161
11.6632
11.4801
10.9736
9.26593
6.93965
6.27667
8.24962
13.7603
11.4689
1.55057
1.38737
1.50277
1.7757
2.1929
2.72596
2.94699
2.8767
2.67777
2.40213
2.24029
2.31338
2.62323
2.99693
3.29384
3.57103
3.70406
3.896
3.87168
3.90413
3.83483
3.70727
3.61493
3.37522
2.98423
2.44613
1.90924
1.62977
1.6539
1.86269
1.83883
1.64859
1.7246
1.86332
2.0039
2.18751
2.4261
2.25315
2.03803
1.96918
1.92586
2.04815
2.22625
2.49276
2.70737
2.8711
2.93589
2.94086
2.95741
2.8939
2.82081
2.77957
2.76407
2.68858
2.58908
2.48627
2.46851
2.58315
2.91032
3.23701
4.68618
3.61823
2.99897
3.13285
3.77372
4.26231
4.37722
4.37027
4.35324
4.13104
3.81251
3.31667
2.71307
2.30192
2.0051
1.9487
1.60102
1.54788
1.34212
1.39656
1.19488
1.21515
1.1931
1.19674
1.20054
1.21025
1.21838
1.21889
1.20633
1.18575
1.40148
1.49254
1.59147
1.52514
1.34563
1.31613
1.35509
1.52017
1.60901
1.6448
1.64582
1.64658
1.65264
1.63364
1.72355
1.73739
1.7963
1.9503
2.01285
2.223
2.4694
2.70683
2.93769
3.08383
3.16652
3.23519
3.17486
2.98471
2.81948
2.92604
1.82368
2.8779
3.22342
3.25892
3.23789
3.12885
3.04308
2.99433
2.94753
2.9246
2.94443
2.86206
2.76255
2.60086
2.42453
2.27801
2.27104
2.35968
2.62699
3.0161
3.36971
3.82214
4.08427
4.50911
4.74232
4.84285
4.98789
4.98445
4.89195
4.28133
3.36523
3.01206
2.89469
3.62684
3.94054
3.0901
2.43012
2.34494
2.70034
3.56779
4.39904
4.70355
4.61422
4.51072
4.50439
4.14016
3.83117
3.54026
2.82095
2.12943
1.4922
0.989153
0.920473
0.9228
0.979415
1.04126
1.08171
1.10572
1.12154
1.1311
3.68811
4.01336
3.94869
3.76812
3.77662
3.9296
3.95948
3.93987
3.89347
3.76728
3.59883
3.42462
3.23483
3.09782
2.92191
2.74768
2.73419
2.82111
2.95206
3.11733
3.21123
3.31765
3.39784
3.32701
3.3056
3.19461
3.07207
3.07514
3.26871
3.77242
2.971
3.29975
3.27686
3.05981
2.8234
2.61697
2.4508
2.27656
2.21855
2.15009
1.93408
2.01547
1.8131
1.8747
1.83283
1.77786
1.71971
1.82009
1.95754
2.07638
2.35919
2.46847
2.66633
2.72409
2.93655
3.11098
3.19683
3.35951
3.34556
3.1834
2.30857
2.42504
2.21548
1.72465
1.42955
1.26282
1.15396
1.16286
1.1668
1.17451
1.17663
1.17145
1.17771
1.16795
1.16408
1.16015
1.15406
1.15162
1.18091
1.40571
1.92365
2.29661
2.6748
2.87927
2.88628
2.83991
2.71267
2.53358
2.38569
2.41296
1.99567
2.45199
2.62425
2.38163
2.05819
1.82701
1.5155
1.33662
1.26851
1.23599
1.22329
1.20885
1.21208
1.21464
1.22887
1.26413
1.31312
1.37284
1.48091
1.7429
1.92559
2.04314
2.13072
2.18577
2.21901
2.26836
2.30546
2.31546
2.3557
2.40517
2.14364
1.95739
1.48446
1.49073
2.02821
2.62602
2.9963
3.15514
3.20916
3.20267
3.17348
3.09133
2.94451
2.81684
2.6711
2.53102
2.26137
1.99345
1.72087
1.50285
1.46409
1.59891
1.84665
2.16624
2.2622
2.18072
1.9349
1.81741
1.92719
1.31699
0.600344
1.37774
2.44494
2.75695
2.99008
3.27101
3.57985
3.66575
3.79356
3.86944
3.95512
3.95959
3.93558
4.08022
3.95529
4.17936
4.13649
4.0682
4.04847
4.08208
4.06526
4.1698
3.94937
3.04103
2.06327
2.55141
2.88839
2.24708
1.0898
0.826554
5.31616
6.20437
9.40976
11.7917
11.9068
11.2808
10.6291
10.3983
9.639
7.5491
6.19074
7.32586
12.5877
11.8497
1.49163
1.45151
1.65891
2.02171
2.57792
2.99769
3.0538
2.96906
2.68597
2.35702
2.2333
2.55368
3.07485
3.54903
3.84156
4.15577
4.35056
4.57434
4.57826
4.54262
4.39138
4.15454
4.04966
3.86172
3.56248
2.9155
2.22413
1.7317
1.67846
1.93366
1.80561
1.65326
1.75209
1.88001
2.07014
2.25638
2.42589
2.24968
2.01533
1.93176
1.93617
2.07429
2.28868
2.56444
2.84593
3.01806
3.08963
3.15045
3.09484
2.98669
2.9406
2.93897
2.84518
2.8056
2.69878
2.56176
2.45647
2.5504
2.74892
3.38248
4.4339
3.42676
3.06661
3.5214
4.0972
4.35588
4.25547
4.19324
4.08744
3.93816
3.37065
2.85514
2.29848
2.11459
1.94961
1.89604
1.62333
1.7179
1.44017
1.44526
1.25997
1.29696
1.16086
1.15906
1.16569
1.18289
1.20198
1.21441
1.20893
1.1924
1.39767
1.59489
1.71385
1.39608
1.29347
1.29025
1.44005
1.60713
1.68111
1.72324
1.82891
1.92672
2.09381
2.13008
2.22256
2.19159
2.12338
2.12709
2.25523
2.21786
2.50614
2.64069
2.9307
3.09117
3.22236
3.32151
3.26477
3.06186
2.87241
2.9016
1.90508
2.96131
3.24452
3.31565
3.22481
3.14452
3.09912
2.99393
2.98944
2.9236
2.95114
2.91979
2.68663
2.44912
2.19621
2.09223
2.16626
2.56341
3.12965
3.67521
4.17566
4.45657
4.80901
4.94128
5.03496
5.19197
5.08609
5.01094
4.90608
4.33213
3.14986
2.95707
3.49031
4.11966
3.56516
2.58242
2.45767
2.81413
3.59503
4.38865
4.69599
4.51405
4.27548
4.20364
3.82601
3.69754
3.91639
3.75728
3.63317
3.06052
2.23221
1.43401
0.992287
0.960586
0.992421
1.04111
1.08043
1.11426
1.13391
1.11899
3.57708
3.79619
3.67779
3.65949
3.78827
3.95362
3.97421
3.81452
3.6563
3.5159
3.38996
3.24481
3.13478
3.02243
2.79528
2.80737
2.74936
2.7787
2.87312
3.07256
3.17335
3.30045
3.32571
3.4005
3.27304
3.21208
3.06863
3.03302
3.21397
3.59483
3.24068
3.15695
2.92181
2.70821
2.53412
2.41157
2.35056
2.37098
2.2945
2.37176
2.18008
2.22181
1.9817
1.99754
1.86002
1.85677
1.83773
1.77328
1.77911
2.08308
2.1472
2.46548
2.58527
2.83193
2.91985
3.14642
3.29488
3.27713
3.30404
3.06849
2.36864
2.49865
1.70014
1.42841
1.35027
1.30133
1.23757
1.2332
1.23383
1.21406
1.22031
1.18873
1.20193
1.18326
1.18496
1.17591
1.17313
1.17073
1.14752
1.21615
1.57438
2.03079
2.40072
2.74262
2.87704
2.86235
2.74817
2.57741
2.36814
2.34906
2.16698
2.69874
2.43897
2.14408
1.84077
1.54356
1.29221
1.22173
1.18326
1.14212
1.13326
1.11246
1.11214
1.10948
1.11479
1.13598
1.17202
1.22907
1.31039
1.41612
1.67352
1.90691
2.02342
2.06827
2.13786
2.20898
2.20217
2.30063
2.30994
2.31558
2.10932
1.70908
1.45433
1.92591
2.68063
3.18606
3.30419
3.35872
3.37632
3.32287
3.226
3.11702
2.99086
2.79933
2.62213
2.33845
1.9969
1.62128
1.38713
1.22963
1.21706
1.18596
1.41991
1.88472
2.24014
2.34433
2.06458
1.931
1.98206
1.40627
0.833241
1.94242
2.89642
3.12328
3.32145
3.48893
3.6449
3.75467
3.8682
4.02058
4.05551
4.12631
4.21173
4.24695
4.31273
4.19124
4.28017
4.22319
4.03309
3.94711
3.94913
4.02914
4.12458
3.66931
2.21836
2.29702
2.63984
2.14375
1.10717
0.838002
5.34542
7.09114
11.0201
12.0193
10.8715
9.57693
8.44521
7.76167
7.64762
6.8373
5.95227
6.91339
11.9653
11.9188
1.4876
1.54847
1.81651
2.22318
2.761
3.01603
3.08367
3.12246
2.735
2.32991
2.27168
2.79724
3.41675
3.849
4.15043
4.52219
4.86469
5.2795
5.36494
5.24107
4.89523
4.51459
4.27043
4.13156
3.9044
3.35244
2.4752
1.84324
1.71231
1.97905
1.76346
1.65107
1.75461
1.90787
2.14167
2.36703
2.42121
2.34436
2.21722
1.92791
1.99067
2.12997
2.35596
2.6665
2.9433
3.12463
3.23157
3.1635
3.02547
2.93785
2.90516
2.82649
2.82757
2.77491
2.70581
2.5863
2.54836
2.44796
2.79338
3.21856
4.19533
3.30813
3.17635
3.76974
4.21637
4.21738
4.09996
4.03696
3.95784
3.54011
3.06252
2.46187
2.22854
2.00028
2.20253
1.80325
1.96951
1.74545
1.67838
1.53177
1.49349
1.33693
1.26175
1.20202
1.15758
1.155
1.18538
1.20928
1.21068
1.18993
1.40126
1.65395
1.61468
1.28988
1.28522
1.53793
1.77587
1.79278
1.86264
2.1574
2.50373
2.86178
3.11582
3.33017
3.34247
3.25543
3.1556
2.80121
2.84107
2.52259
2.84518
2.74053
3.0927
3.16368
3.36539
3.41696
3.39894
3.15331
2.8864
2.90891
2.12258
3.11787
3.38261
3.35227
3.33273
3.2985
3.28392
3.19242
3.05964
2.95017
2.94047
2.94123
2.65547
2.30189
2.0835
2.04643
2.45068
3.18865
3.9799
4.41626
4.80313
4.98675
5.03123
5.11454
5.36926
5.30677
5.17318
4.98631
4.86874
4.29427
3.02221
3.01012
3.76865
4.14469
3.26733
2.70647
2.7263
3.19123
3.84967
4.19266
4.12895
3.83369
3.59339
3.18545
3.00976
3.31626
3.60232
3.83512
3.68208
3.35582
2.57474
1.71514
1.04676
0.988069
0.998879
1.02296
1.06703
1.11609
1.13802
1.11888
3.73119
3.86119
3.68935
3.73417
3.8003
3.69312
3.62917
3.52917
3.44982
3.30537
3.27951
3.16245
3.09613
2.98815
2.98073
2.88766
2.83955
2.89925
2.89259
2.96532
3.10284
3.25561
3.32313
3.25412
3.34286
3.25831
3.08269
2.88784
3.06334
3.53021
2.99061
2.83216
2.6561
2.46906
2.43726
2.39385
2.46259
2.65206
2.67552
2.53168
2.34259
2.0894
1.79432
1.75087
1.58242
1.64573
1.66265
1.81953
1.73068
2.01193
2.08208
2.33967
2.6292
2.79714
3.02722
3.18429
3.37251
3.37594
3.16809
2.98033
2.48288
2.0918
1.56366
1.55247
1.4846
1.36581
1.28489
1.26575
1.24946
1.21763
1.20267
1.17585
1.16986
1.15548
1.15573
1.1563
1.16171
1.17706
1.16334
1.15375
1.4063
1.77028
2.26405
2.53245
2.83375
2.88287
2.80485
2.64905
2.38701
2.38504
2.45302
2.74958
2.29711
2.05621
1.7336
1.39696
1.21734
1.15889
1.1062
1.07323
1.05516
1.03541
1.03376
1.03788
1.04714
1.05748
1.08254
1.12316
1.1934
1.29259
1.42589
1.77348
1.88053
2.00537
2.09935
2.08353
2.19166
2.25558
2.23455
2.41252
1.99812
1.51167
1.61996
2.47489
3.18318
3.44406
3.5757
3.56955
3.57491
3.47151
3.27158
3.0864
2.95234
2.80378
2.52495
2.23433
1.8427
1.55287
1.34548
1.28276
1.21891
1.21337
1.21327
1.71946
2.31823
2.36733
2.18002
2.0257
2.0848
1.3923
1.00649
2.78087
3.32791
3.41185
3.51206
3.60217
3.66423
3.79081
3.96015
4.04893
4.16022
4.16564
4.20178
4.19744
4.35651
4.51862
4.22373
4.36606
4.11087
3.9069
3.78739
3.91079
4.00591
3.99976
2.73812
1.91366
2.16495
1.74236
1.0832
0.854207
5.2881
7.73231
11.1716
11.1
9.8716
8.89357
7.87758
6.69151
6.04303
5.72372
5.66375
6.73965
11.7432
11.9221
1.50982
1.65903
1.96094
2.37221
2.76664
2.85212
3.11359
3.30573
2.7511
2.31953
2.31456
2.94343
3.56419
3.96393
4.27077
4.68877
5.2959
5.85569
5.90955
5.66573
5.23815
4.68074
4.37201
4.26348
4.14932
3.59193
2.67574
1.92205
1.78981
2.07409
1.8103
1.69666
1.80202
1.92406
2.21865
2.39341
2.47008
2.42177
2.37935
1.99781
2.02131
2.19251
2.43056
2.73011
3.0509
3.24989
3.20701
3.00701
2.94123
2.87464
2.7408
2.67676
2.63973
2.6507
2.67193
2.66707
2.45863
2.56014
2.68691
3.58354
3.89983
3.24291
3.22172
3.94068
4.15343
4.14877
3.94182
3.99126
3.66861
3.39103
2.71366
2.40746
2.11172
2.29917
2.1253
1.94777
2.09245
1.74138
1.85978
1.55219
1.64363
1.43697
1.41192
1.36207
1.29523
1.2406
1.21005
1.20489
1.20913
1.25397
1.43789
1.70823
1.5268
1.29964
1.41402
1.66719
1.78387
1.98774
2.42892
2.87945
3.47535
3.92459
4.23506
4.35622
4.40957
4.3562
4.17935
3.79213
3.64404
3.08938
3.30518
2.99579
3.32978
3.30099
3.50072
3.55757
3.48677
3.19939
2.90073
2.93003
2.20683
3.20797
3.41737
3.47092
3.49742
3.65971
3.72296
3.58343
3.25936
2.96874
2.90677
2.97025
2.62576
2.23584
2.04841
2.24112
2.98813
3.92674
4.4992
4.79642
4.95877
4.93602
5.20356
5.23814
5.43439
5.2763
5.16712
4.94283
4.79398
4.23259
3.02065
3.40303
4.14936
3.97229
3.42717
3.18041
3.22148
3.42041
3.655
3.76002
3.60976
3.17411
2.81426
2.86768
3.08919
3.13691
3.21882
3.45961
3.3885
3.29042
2.65921
1.87509
1.09247
1.00287
0.997054
1.01234
1.06071
1.12164
1.14166
1.12035
3.52113
3.56122
3.459
3.61897
3.69667
3.5898
3.46723
3.43671
3.3271
3.24924
3.23128
3.12583
3.02794
3.18925
3.01951
2.86058
2.91446
2.79049
2.8692
2.89108
3.12951
3.08273
3.26498
3.27034
3.30067
3.16466
2.98434
3.0327
3.26946
3.61784
3.09897
2.79687
2.55006
2.43102
2.39543
2.51608
2.62124
2.84026
2.85943
2.43464
2.16452
1.87534
1.49535
1.53024
1.42986
1.48483
1.47234
1.67123
1.70477
1.94725
2.02272
2.37979
2.51343
2.88764
3.03431
3.31461
3.33284
3.25522
3.02597
2.78227
2.42915
1.83586
1.74776
1.71641
1.55019
1.38286
1.30998
1.27632
1.23853
1.19836
1.16702
1.15423
1.15027
1.15596
1.15486
1.16111
1.16134
1.1772
1.17305
1.16904
1.37945
1.61957
2.12363
2.46192
2.75541
2.89164
2.85796
2.66968
2.38368
2.42673
2.63579
2.68863
2.34767
2.02993
1.63628
1.33469
1.17657
1.11259
1.05688
1.02464
0.996206
0.968089
0.967777
0.969256
0.98799
1.0065
1.0265
1.05858
1.11687
1.21144
1.32258
1.5588
1.85178
1.96234
1.98707
2.11302
2.12633
2.13337
2.28501
2.39505
1.88011
1.46748
1.92685
2.93187
3.52389
3.64609
3.68183
3.76613
3.70212
3.57063
3.40965
3.1499
2.9312
2.71784
2.5197
2.17001
1.83728
1.58938
1.46542
1.32712
1.26651
1.18462
1.30684
1.94175
2.361
2.40727
2.2179
2.11218
2.02618
1.346
1.21207
2.9061
3.4148
3.5001
3.58835
3.66508
3.76943
3.88814
4.05624
4.17389
4.21711
4.33876
4.33442
4.32365
4.24565
4.60788
4.31626
4.34173
4.18299
3.98249
3.69501
3.74322
3.95351
4.04829
3.30805
1.6642
1.59235
1.34633
1.07611
0.853603
5.32995
7.92107
11.0484
10.6748
9.4774
8.76847
8.08329
7.09897
5.84562
5.34171
5.47336
6.87201
12.0359
11.9028
1.52646
1.74836
2.01248
2.32287
2.51916
2.48456
3.14565
3.49223
2.76267
2.32789
2.33576
2.97075
3.5926
3.9527
4.2058
4.67444
5.4122
5.94369
6.00465
5.67673
5.05823
4.62976
4.35833
4.43321
4.20666
3.75437
2.72337
1.94221
1.813
2.15863
1.86037
1.78734
1.82802
2.01367
2.23935
2.45468
2.56383
2.46893
2.41656
2.09165
2.08994
2.23975
2.50257
2.78158
3.16226
3.24854
3.09837
2.92925
2.83486
2.66626
2.67322
2.66892
2.60121
2.57381
2.71165
2.51831
2.59489
2.4521
2.89701
3.47576
3.76759
3.19357
3.32213
3.96704
4.09748
3.97673
3.98618
3.772
3.64715
3.07553
2.65717
2.22727
2.27566
2.14186
2.24673
2.01586
2.08624
1.78394
1.88417
1.62747
1.67254
1.54739
1.46184
1.37478
1.32445
1.29947
1.24302
1.20345
1.20278
1.38225
1.43
1.76561
1.48442
1.40568
1.74711
2.00629
2.12713
2.47406
3.09633
3.73574
4.16525
4.43584
4.68339
4.77216
4.77989
4.82911
4.78235
4.40046
4.36496
3.57063
3.74431
3.24499
3.56519
3.43144
3.68879
3.68116
3.56608
3.20073
2.91362
3.01291
2.33967
3.28364
3.51113
3.56224
3.77709
4.02062
4.2146
3.98797
3.46859
2.99878
2.88821
2.95068
2.63184
2.21287
2.10791
2.5376
3.49532
4.32119
4.66486
4.81867
4.96391
5.08741
5.29177
5.29065
5.45556
5.17113
5.06742
4.81519
4.66485
4.14077
2.81857
3.45773
4.31094
4.2302
3.72491
3.59529
3.45924
3.38433
3.57872
3.72994
3.21787
2.58077
2.86851
3.16303
2.9551
2.84615
2.97947
3.1237
3.06914
3.02403
2.40605
1.89634
1.07845
1.01114
1.00405
1.01975
1.07537
1.13102
1.13733
1.11334
3.68297
3.6431
3.60924
3.62076
3.45651
3.35869
3.30722
3.31624
3.30437
3.20256
3.23513
3.09685
3.09216
3.15857
3.06712
2.78477
2.88783
2.8424
2.84954
2.79619
3.03099
3.10896
3.14899
3.23976
3.24953
3.14302
3.03638
2.98273
3.28478
3.58091
3.09268
2.82633
2.57735
2.37063
2.41865
2.54367
2.72296
2.80338
2.91087
2.42887
2.02535
1.81768
1.41494
1.43769
1.30239
1.43684
1.41405
1.60311
1.62859
1.93854
2.01673
2.33016
2.56107
2.86642
3.14482
3.30638
3.33648
3.0794
2.89007
2.76216
2.43393
1.9821
1.95398
1.7977
1.62357
1.44256
1.32588
1.27475
1.22081
1.17226
1.15004
1.15029
1.17262
1.18328
1.18997
1.17747
1.17458
1.19227
1.18311
1.18425
1.33962
1.67648
2.03516
2.42684
2.75316
2.88094
2.85995
2.62214
2.35475
2.65973
2.93169
2.81739
2.47582
2.06545
1.61667
1.32137
1.15764
1.09508
1.0312
1.0146
0.987888
0.947023
0.939041
0.943947
0.945719
0.973998
0.988423
1.02644
1.06918
1.17485
1.28026
1.54607
1.73268
1.89487
2.0523
2.0149
2.03299
2.18366
2.23274
2.38352
1.79267
1.47627
2.23602
3.29546
3.66186
3.74944
3.76533
3.82661
3.828
3.77803
3.55395
3.25894
2.9373
2.75801
2.51176
2.19554
1.84067
1.7626
1.71314
1.52573
1.47272
1.49575
1.77639
2.22712
2.41865
2.43079
2.26862
2.16097
1.89542
1.30992
1.2069
3.19551
3.61321
3.64733
3.68109
3.70319
3.81777
3.93628
4.09425
4.21632
4.25379
4.18171
4.16799
4.3578
4.11769
4.54721
4.3677
4.33294
4.18372
3.96704
3.64865
3.65072
3.86254
4.06182
3.63266
1.57932
1.18359
1.1559
0.969063
0.846125
5.12234
7.43945
10.4566
10.0163
8.59779
7.58623
7.02151
7.03991
6.6178
5.77653
5.61764
6.81288
10.8979
12.0959
9.52403
4.16281
1.72443
1.74684
1.99424
2.173
2.24852
2.33429
3.28933
3.6767
2.76865
2.31249
2.30908
2.89358
3.53048
3.83078
4.01752
4.42567
5.03557
5.56876
5.71219
5.30321
4.90326
4.58049
4.54112
4.49353
4.30003
3.68792
2.67567
1.96597
1.96074
2.40689
2.91175
2.44567
2.06228
2.02314
1.99072
2.0416
2.23101
2.40813
2.56262
2.51674
2.47463
2.14995
2.18099
2.30505
2.53444
2.84084
3.21006
3.2594
3.0859
2.81167
2.58939
2.50267
2.51927
2.45815
2.48379
2.45278
2.57025
2.58067
2.4459
2.72037
2.96205
4.29126
5.28711
4.05954
3.2511
3.08159
3.23646
3.83727
3.95197
3.9593
3.83278
3.76913
3.38365
3.04788
2.4734
2.33237
2.21184
2.30494
2.17785
2.00873
1.98048
1.7598
1.7577
1.61111
1.55141
1.50396
1.46364
1.4583
1.42359
1.36358
1.302
1.24664
1.30606
1.67626
1.83845
1.73103
1.57096
1.71992
1.45788
1.70074
1.94648
2.07424
2.36098
2.93851
3.5355
3.9689
4.30564
4.4475
4.56603
4.65723
4.65328
4.70244
4.57312
4.51546
4.28832
3.9498
3.75311
3.69322
3.66304
3.74178
3.82283
3.75938
3.50322
3.11221
2.94378
2.98678
2.755
2.75366
2.47263
3.38667
3.57104
3.68731
3.95704
4.29703
4.43048
4.13296
3.52801
3.03086
2.8919
2.97129
2.64874
2.23555
2.25215
2.78309
3.74669
4.41566
4.68971
4.82314
4.87475
4.956
5.32706
5.1571
5.29238
5.06027
4.88677
4.75864
4.47541
3.96802
3.38022
2.60345
3.05667
3.67306
4.17633
4.29678
4.13404
3.84187
3.59696
3.67175
3.77775
3.41245
2.71554
2.60219
2.80539
2.98598
3.07103
2.93964
2.80748
2.90768
2.71512
2.67621
2.24459
1.67205
1.09923
1.02498
1.02302
1.04476
1.10117
1.13353
1.129
1.56968
3.05443
3.37084
3.25072
3.36422
3.47901
3.57541
3.4176
3.24334
3.24613
3.29987
3.27195
3.23143
3.15354
3.18811
3.04625
3.17144
3.04825
2.76617
2.86436
2.77259
2.87672
2.77316
2.94728
3.07488
3.21372
3.20003
3.27118
3.02112
2.98529
3.24078
3.50649
3.51827
3.23403
3.28735
3.16434
2.90482
2.5717
2.36279
2.31123
2.4926
2.71754
2.78042
2.75597
2.63036
1.99695
1.94287
1.48683
1.49248
1.34543
1.41558
1.41004
1.62264
1.62503
1.9409
2.04194
2.35524
2.60948
2.9512
3.2211
3.34592
3.11809
2.88421
2.76085
2.5155
2.18661
1.92873
2.03868
1.91837
1.88748
1.79767
1.675
1.51801
1.34068
1.27849
1.21364
1.1666
1.17555
1.3451
1.29675
1.20723
1.22121
1.20899
1.20184
1.20555
1.1899
1.18362
1.42029
1.71711
2.11106
2.37687
2.77895
2.84208
2.72604
2.49271
2.78692
2.99587
3.01694
2.80349
2.84099
2.69194
2.47285
2.0692
1.64825
1.3897
1.16531
1.13471
1.05382
1.09055
1.00389
0.97495
0.940657
0.954766
0.950338
0.96819
0.987768
1.0255
1.07342
1.17855
1.30881
1.44702
1.73621
1.94827
1.9195
1.97643
2.13291
2.15289
2.18532
2.52073
2.70406
2.32395
1.70132
1.49233
2.47795
3.52972
3.79076
3.78327
4.09523
4.10887
4.14102
3.9452
3.72422
3.31076
2.9387
2.76746
2.58511
2.29673
1.9189
1.78329
1.97672
1.98573
1.92513
2.09758
2.25519
2.3661
2.47008
2.40693
2.27525
2.03264
1.43182
0.907773
0.668373
0.719134
1.43343
3.34908
3.64053
3.6523
3.6784
3.77461
3.84829
3.98173
4.11255
4.18911
4.30207
4.21879
4.12082
4.31623
4.16131
4.44041
4.41373
4.32695
4.21325
3.88558
3.5826
3.58322
3.85719
4.02129
3.83138
1.92372
1.17664
1.13367
1.18362
1.64121
4.52669
4.63707
5.0756
6.80935
9.74233
9.33544
7.72354
6.16901
5.09143
5.21871
6.55394
6.99671
7.09055
8.25136
10.3946
10.8037
5.78202
2.63555
1.67651
1.84902
2.1909
2.4588
2.57868
2.65272
3.59913
3.87639
2.78875
2.31696
2.28178
2.7497
3.37439
3.67396
3.81828
3.97632
4.36619
4.87305
5.09983
5.16884
4.85544
4.80467
4.59161
4.59543
4.14649
3.45262
2.48914
2.0099
2.06
2.58036
2.92012
2.9027
2.71693
2.75505
2.54299
2.29309
2.15594
2.27166
2.42447
2.51837
2.50049
2.17534
2.27554
2.37435
2.55822
2.8534
3.27293
3.32357
3.06808
2.74181
2.44886
2.34038
2.37164
2.34534
2.34409
2.39906
2.33865
2.51202
2.39987
2.67953
3.16711
4.36524
5.12623
4.86615
3.70385
3.14275
3.23097
3.69342
3.899
3.79611
3.84624
3.51944
3.39349
2.87245
2.52013
2.20529
2.32014
2.20843
2.17078
1.89335
1.91461
1.68274
1.64072
1.50815
1.5187
1.44892
1.44307
1.3994
1.36553
1.33664
1.32375
1.33657
1.55432
1.89997
1.98011
1.75292
1.63083
1.58162
1.66372
1.90393
2.08553
2.29059
2.65281
3.16641
3.59645
3.88877
4.06325
4.22572
4.26409
4.29836
4.27801
4.27289
4.22503
4.24899
4.03807
3.96481
3.86962
3.9136
3.88839
3.98466
3.88005
3.66994
3.36819
3.21527
3.12303
2.92615
2.61315
2.70952
2.6524
3.45626
3.64176
3.74662
4.05469
4.28521
4.39058
4.09794
3.50576
3.06982
2.9162
2.96336
2.75219
2.31739
2.30704
2.86926
3.86385
4.44653
4.53667
4.60013
4.77304
5.04124
4.94681
4.99534
5.0215
4.91407
4.69766
4.62989
4.24636
3.81164
3.38757
2.97088
3.11114
3.95518
4.41849
4.21411
4.02633
3.82322
3.80148
3.68813
3.6309
3.41631
2.5435
2.2963
2.85873
2.97511
2.90645
2.71952
2.58284
2.61529
2.60204
2.46595
2.05981
1.47529
1.14691
1.1076
1.04486
1.07246
1.11219
1.12716
1.30514
2.422
3.34312
3.14505
3.35151
3.54662
3.82321
3.64999
3.32821
3.1393
3.21307
3.24402
3.33257
3.23523
3.19305
3.20702
3.07051
3.07242
3.01574
3.01302
2.82752
2.88368
2.80915
2.8661
3.03137
3.12701
3.1846
3.17763
3.04784
3.00293
3.20671
3.39763
3.44261
3.24647
3.07812
3.27676
3.21714
2.95945
2.63056
2.35709
2.28936
2.3674
2.56441
2.69768
2.69474
2.69311
2.21849
2.03743
1.71351
1.5398
1.42294
1.45969
1.4405
1.62604
1.6758
1.97178
2.13114
2.45061
2.73928
3.03919
3.21991
3.12406
2.83325
2.82187
2.71271
2.39263
2.21701
2.07417
2.1586
2.07856
1.99604
1.8661
1.75628
1.61026
1.44098
1.29942
1.22669
1.20047
1.31013
1.35609
1.45928
1.21954
1.21711
1.22443
1.20957
1.20982
1.18269
1.28872