/*--------------------------------*- C++ -*----------------------------------*\
| =========                 |                                                 |
| \\      /  F ield         | OpenFOAM: The Open Source CFD Toolbox           |
|  \\    /   O peration     | Version:  2.1.1                                 |
|   \\  /    A nd           | Web:      www.OpenFOAM.org                      |
|    \\/     M anipulation  |                                                 |
\*---------------------------------------------------------------------------*/
FoamFile
{
    version     2.0;
    format      ascii;
    class       volScalarField;
    location    "0.002650000";
    object      H2O2;
}
// * * * * * * * * * * * * * * * * * * * * * * * * * * * * * * * * * * * * * //

dimensions      [0 0 0 0 0 0 0];

internalField   nonuniform List<scalar> 
12384
(
8.14019e-07
7.98293e-07
7.32704e-07
5.34662e-07
4.39974e-07
4.15663e-07
4.40287e-07
4.29902e-07
4.19569e-07
3.76406e-07
3.71306e-07
6.5297e-08
2.83259e-09
3.51261e-11
3.87169e-09
3.33753e-08
4.56604e-08
7.61779e-08
2.10579e-07
2.10552e-07
2.08524e-07
2.0261e-07
2.02018e-07
1.97816e-07
2.00523e-07
1.95337e-07
1.93587e-07
1.87553e-07
1.82767e-07
1.77406e-07
1.73498e-07
1.71391e-07
1.72182e-07
1.59949e-07
1.57333e-07
1.64387e-07
1.58727e-07
3.75942e-08
2.07868e-08
1.71962e-08
4.46162e-09
2.51947e-11
4.71662e-14
2.861e-16
5.05671e-07
5.16104e-07
5.45985e-07
5.49368e-07
5.37494e-07
4.96119e-07
4.97664e-07
4.8193e-07
4.78808e-07
4.92663e-07
5.05827e-07
5.2797e-07
5.47757e-07
5.33089e-07
5.09035e-07
4.98261e-07
3.9853e-07
4.35824e-07
4.23942e-07
4.30269e-07
4.03679e-07
3.97838e-07
3.46714e-07
2.57699e-07
4.3832e-08
9.28765e-09
1.41424e-09
9.37423e-11
3.30112e-12
4.11771e-14
3.59587e-08
4.54199e-07
5.20978e-07
3.88746e-07
2.45014e-07
1.86188e-07
1.36617e-07
1.18562e-07
7.60496e-08
7.60278e-08
1.22258e-07
1.37568e-07
1.7938e-07
2.39564e-07
3.9603e-07
4.44408e-07
5.06744e-07
5.19601e-07
5.08618e-07
6.01487e-07
1.16066e-07
6.61452e-08
5.03515e-08
3.17777e-08
1.49728e-08
1.0854e-09
9.80076e-11
6.19833e-11
6.7925e-12
1.04408e-13
8.64538e-26
1.23007e-23
7.5081e-22
6.30052e-18
7.17666e-14
2.69928e-10
1.1213e-08
3.92432e-08
4.82766e-08
3.84689e-08
4.03514e-08
3.27975e-08
1.44859e-08
1.42747e-08
1.18815e-08
9.84225e-09
8.63179e-09
1.03197e-08
6.5394e-09
1.29886e-09
1.14991e-09
4.71975e-10
4.5601e-11
3.70215e-13
1.48564e-15
3.05366e-18
6.76522e-21
6.04432e-24
3.3351e-27
3.06045e-30
3.51655e-39
2.04326e-38
1.7937e-38
3.17972e-39
1.11979e-40
1.04771e-42
4.13651e-45
7.90136e-48
2.7718e-51
1.84055e-54
9.84082e-58
3.88399e-61
8.31396e-65
1.27092e-68
1.57489e-72
9.12307e-77
5.95642e-81
4.37124e-85
3.07854e-89
2.12577e-93
1.43546e-97
1.05881e-101
7.90804e-106
6.32475e-110
5.28421e-114
4.58543e-118
4.09102e-122
3.6892e-126
3.38876e-130
3.07997e-134
2.82605e-149
5.99768e-151
1.37355e-154
2.56073e-158
4.6452e-162
1.00103e-165
2.69283e-169
8.27545e-173
1.54063e-178
4.13706e-184
5.14638e-189
1.68804e-193
4.35669e-198
1.00529e-202
1.51161e-207
1.52562e-212
1.31362e-217
8.68664e-223
5.22843e-228
2.58413e-233
1.10228e-238
4.10538e-244
1.38469e-249
4.20818e-255
1.19101e-260
3.18417e-266
8.30784e-272
2.26404e-277
7.45679e-283
4.5631e-288
2.2424e-310
8.43751e-314
8.42925e-319
4.94066e-324
0
0
0
0
0
0
0
0
0
0
0
0
0
0
0
0
0
0
0
0
0
0
0
0
0
0
0
0
0
0
0
0
0
0
0
0
0
0
0
0
0
0
0
0
0
0
0
0
0
0
0
0
0
0
0
0
0
0
0
0
0
0
0
0
0
0
0
0
0
0
0
0
0
0
0
0
0
0
0
0
0
0
0
0
0
0
0
0
0
0
0
0
0
0
0
0
0
0
0
0
0
0
0
0
0
0
0
0
0
0
0
0
0
0
0
0
0
0
0
0
0
0
0
0
0
0
0
0
0
0
0
0
0
0
0
0
0
0
0
0
0
0
0
0
0
0
0
0
0
0
0
0
0
0
0
0
0
0
0
0
0
0
0
0
0
0
0
0
0
0
0
0
0
0
0
0
8.14372e-07
6.87725e-07
3.71515e-07
1.91701e-07
1.11199e-07
9.20269e-08
1.24145e-07
1.58395e-07
2.02519e-07
2.01479e-07
1.84913e-07
2.23913e-08
7.04539e-10
1.02656e-11
3.39711e-08
1.7287e-07
1.56242e-07
1.69292e-07
1.95077e-07
2.02423e-07
2.11063e-07
2.09444e-07
2.13593e-07
2.00588e-07
1.95631e-07
1.92333e-07
1.85081e-07
1.85366e-07
1.84968e-07
1.83311e-07
1.76031e-07
1.57499e-07
1.52374e-07
1.51598e-07
1.54768e-07
1.56824e-07
1.68883e-07
1.60013e-07
1.30091e-07
1.19286e-07
4.31736e-08
3.00436e-09
4.67844e-12
1.04495e-14
5.04203e-07
5.13733e-07
5.46828e-07
5.4806e-07
5.33992e-07
5.00845e-07
5.1601e-07
5.11035e-07
4.96974e-07
5.04786e-07
4.75221e-07
4.03028e-07
2.08971e-07
1.90703e-07
1.61676e-07
2.0547e-07
1.70772e-07
2.09003e-07
2.22225e-07
2.79202e-07
3.58636e-07
4.469e-07
4.0212e-07
2.3532e-07
1.16597e-07
6.67583e-08
1.27022e-08
2.46121e-09
1.44994e-10
2.21122e-12
8.59931e-08
4.71917e-07
3.95787e-07
4.89855e-07
4.47129e-07
3.24841e-07
1.97243e-07
1.65051e-07
1.47009e-07
1.52285e-07
1.49978e-07
1.66613e-07
1.89146e-07
2.1691e-07
3.45041e-07
3.97611e-07
4.78626e-07
4.25273e-07
3.8688e-07
3.50234e-07
5.17226e-07
5.11551e-07
3.58952e-07
2.3173e-07
5.89308e-07
6.20584e-09
4.17123e-09
1.06983e-08
4.66181e-09
1.23192e-11
1.14322e-23
4.76951e-21
2.92794e-20
5.79865e-17
2.21633e-13
1.40125e-09
1.19982e-07
6.89699e-07
5.85697e-07
4.05844e-07
1.53289e-07
7.71057e-08
6.38746e-08
7.6162e-08
5.91507e-08
5.8433e-08
5.17091e-08
3.13588e-08
3.22273e-08
2.72831e-09
1.09975e-09
7.30556e-10
3.69953e-10
8.64769e-11
4.04776e-12
1.34735e-15
8.50935e-19
1.85587e-21
3.28246e-24
1.86368e-27
4.90662e-36
1.6769e-35
1.25246e-35
3.50186e-36
5.17076e-37
1.19414e-38
1.16385e-40
2.96338e-43
1.24717e-46
8.7895e-50
5.40719e-53
2.14002e-56
3.62966e-60
2.25432e-64
7.06552e-69
1.63765e-74
4.5243e-79
4.01772e-84
1.08606e-87
1.00952e-91
9.30117e-96
6.43354e-100
5.18028e-104
3.91453e-108
3.30573e-112
2.08167e-115
2.03779e-119
1.61524e-123
1.33929e-127
1.15326e-131
1.414e-145
2.90345e-147
5.51202e-151
1.04277e-154
1.45875e-158
2.22011e-162
4.58182e-166
1.02575e-169
3.09595e-173
1.49139e-178
3.26045e-183
1.08861e-187
3.46621e-192
9.28979e-197
1.52168e-201
1.47899e-206
1.16118e-211
7.77262e-217
4.38915e-222
2.16876e-227
9.03105e-233
3.39529e-238
1.0792e-243
3.25654e-249
8.58433e-255
2.19378e-260
5.24743e-266
1.31618e-271
3.87217e-277
1.54516e-282
6.45866e-305
2.94339e-308
2.42567e-313
1.37356e-318
4.94066e-324
0
0
0
0
0
0
0
0
0
0
0
0
0
0
0
0
0
0
0
0
0
0
0
0
0
0
0
0
0
0
0
0
0
0
0
0
0
0
0
0
0
0
0
0
0
0
0
0
0
0
0
0
0
0
0
0
0
0
0
0
0
0
0
0
0
0
0
0
0
0
0
0
0
0
0
0
0
0
0
0
0
0
0
0
0
0
0
0
0
0
0
0
0
0
0
0
0
0
0
0
0
0
0
0
0
0
0
0
0
0
0
0
0
0
0
0
0
0
0
0
0
0
0
0
0
0
0
0
0
0
0
0
0
0
0
0
0
0
0
0
0
0
0
0
0
0
0
0
0
0
0
0
0
0
0
0
0
0
0
0
0
0
0
0
0
0
0
0
0
0
0
0
0
0
0
6.66669e-07
3.58898e-07
1.83153e-07
1.36583e-07
9.57337e-08
4.79476e-08
3.50316e-08
3.62271e-08
5.47876e-08
7.00846e-08
1.3482e-07
1.71668e-08
2.49364e-09
6.79536e-11
3.42446e-08
9.5692e-08
1.28086e-07
1.92681e-07
2.12599e-07
2.9647e-07
4.85048e-07
5.37081e-07
5.74751e-07
5.04577e-07
4.39385e-07
4.24196e-07
4.06393e-07
4.38377e-07
4.75389e-07
4.94508e-07
4.40286e-07
3.10887e-07
1.85658e-07
1.58686e-07
1.50079e-07
1.49516e-07
1.48586e-07
1.21279e-07
9.837e-08
8.45544e-08
1.77378e-08
8.61964e-10
7.71685e-12
2.37855e-13
4.96719e-07
5.11549e-07
5.40223e-07
5.50903e-07
5.35091e-07
5.20362e-07
5.07949e-07
4.99609e-07
4.90816e-07
5.19175e-07
5.35433e-07
4.1473e-07
1.16018e-07
5.38567e-08
2.70251e-08
2.39534e-08
2.36069e-08
2.30938e-08
2.53636e-08
2.41391e-08
2.60732e-08
5.9311e-08
4.00333e-07
3.12626e-07
1.4403e-07
4.7148e-08
1.40955e-08
8.71701e-09
7.26089e-10
1.41851e-11
4.20176e-07
4.44223e-07
3.63629e-07
3.96165e-07
4.80388e-07
4.44827e-07
3.11273e-07
2.18622e-07
2.14425e-07
2.27748e-07
2.38786e-07
2.24456e-07
2.08848e-07
2.12371e-07
2.48786e-07
3.60454e-07
4.12974e-07
2.87246e-07
1.92838e-07
8.0641e-08
2.34436e-07
5.0317e-07
4.21097e-07
1.9257e-07
1.04025e-07
2.13025e-07
2.03117e-08
2.55968e-07
2.43258e-08
1.37215e-10
4.02897e-21
1.26495e-18
8.20501e-18
9.78611e-18
1.54652e-14
3.00916e-11
2.14979e-08
2.07283e-07
5.72671e-07
6.3979e-07
5.2449e-07
2.0994e-07
6.46326e-08
4.41049e-08
2.84242e-08
2.50038e-08
2.12285e-08
9.44686e-09
1.3751e-09
1.93688e-09
1.17006e-09
5.55549e-10
2.94555e-10
1.26791e-10
5.12355e-11
9.52657e-12
6.24461e-15
2.21541e-19
6.08077e-22
1.67574e-24
2.36482e-33
2.89147e-32
2.98432e-31
3.81798e-31
4.5555e-32
3.45483e-34
4.91277e-37
5.5474e-40
1.42529e-43
6.38607e-47
2.56302e-50
9.9211e-54
2.9146e-57
1.36485e-60
1.73363e-63
2.19674e-67
3.51509e-72
2.02195e-77
3.05932e-83
6.8178e-88
1.83995e-92
6.03035e-97
1.90966e-101
8.13247e-106
2.90508e-110
2.7253e-113
1.51048e-117
1.76017e-121
2.06262e-125
1.07673e-129
2.60818e-143
6.95341e-145
1.31828e-148
2.57533e-152
1.56159e-156
2.51033e-160
1.7765e-164
3.98584e-168
4.51985e-172
1.84444e-175
3.70247e-180
2.09055e-184
6.44469e-189
3.18864e-193
4.49857e-198
5.51354e-203
3.78122e-208
2.4888e-213
1.35274e-218
6.70292e-224
3.01002e-229
1.06182e-234
3.78201e-240
9.85343e-246
2.8926e-251
5.93302e-257
1.5323e-262
2.97979e-268
8.89626e-274
1.23591e-279
6.22873e-302
6.18729e-305
4.04921e-310
1.93376e-315
7.52956e-321
0
0
0
0
0
0
0
0
0
0
0
0
0
0
0
0
0
0
0
0
0
0
0
0
0
0
0
0
0
0
0
0
0
0
0
0
0
0
0
0
0
0
0
0
0
0
0
0
0
0
0
0
0
0
0
0
0
0
0
0
0
0
0
0
0
0
0
0
0
0
0
0
0
0
0
0
0
0
0
0
0
0
0
0
0
0
0
0
0
0
0
0
0
0
0
0
0
0
0
0
0
0
0
0
0
0
0
0
0
0
0
0
0
0
0
0
0
0
0
0
0
0
0
0
0
0
0
0
0
0
0
0
0
0
0
0
0
0
0
0
0
0
0
0
0
0
0
0
0
0
0
0
0
0
0
0
0
0
0
0
0
0
0
0
0
0
0
0
0
0
0
0
0
0
0
3.34414e-07
3.6568e-07
4.87324e-07
5.96266e-07
5.41913e-07
2.60197e-07
1.23491e-07
7.29422e-08
4.57232e-08
3.12524e-08
5.00549e-08
6.44586e-09
2.28926e-09
1.92504e-10
5.543e-08
5.4643e-08
1.2442e-07
3.04363e-07
6.69388e-07
7.99763e-07
8.76214e-07
6.71898e-07
3.24722e-07
2.79024e-07
2.02582e-07
2.0682e-07
1.57649e-07
1.79233e-07
1.69978e-07
2.12663e-07
3.48478e-07
5.72332e-07
7.35205e-07
5.99769e-07
4.1055e-07
2.51179e-07
1.79062e-07
1.17359e-07
6.26023e-08
2.39664e-08
1.30614e-08
2.44763e-09
5.45934e-11
1.73714e-12
4.91057e-07
5.01009e-07
5.31606e-07
5.2606e-07
5.23263e-07
4.90682e-07
4.54686e-07
4.1133e-07
4.05754e-07
4.74436e-07
5.43866e-07
6.24543e-07
4.05877e-07
2.22518e-07
1.51446e-07
6.19006e-08
6.5016e-08
5.53698e-08
5.32855e-08
4.02227e-08
2.54329e-08
2.01162e-08
5.259e-08
4.47014e-07
2.36364e-07
6.93407e-08
2.24769e-08
7.37082e-09
1.16598e-09
5.34848e-11
3.73659e-07
3.94433e-07
3.35061e-07
3.82941e-07
4.7655e-07
4.60816e-07
3.50647e-07
3.06498e-07
3.27894e-07
3.80463e-07
4.19135e-07
3.63703e-07
3.05484e-07
2.40059e-07
2.39987e-07
3.42578e-07
4.1763e-07
3.78556e-07
7.2785e-08
2.4942e-08
2.53074e-08
2.09135e-07
5.78433e-07
2.88911e-07
1.19656e-07
6.12813e-08
1.27752e-07
8.83601e-08
6.4045e-09
2.3891e-10
1.64645e-19
1.91856e-16
5.54694e-16
1.00564e-15
8.87978e-16
1.36108e-13
9.7543e-10
5.82861e-08
2.35073e-07
4.94826e-07
5.12848e-07
2.60373e-07
6.73675e-08
2.34103e-08
1.36493e-08
1.11551e-08
6.17509e-09
5.59121e-09
4.44076e-09
4.12065e-09
2.78886e-09
1.37157e-09
4.22531e-10
2.82378e-10
9.37312e-11
2.24409e-11
8.44136e-12
9.96089e-15
1.92301e-19
4.39328e-22
1.27714e-29
2.54916e-27
2.40974e-26
4.48775e-27
9.04592e-29
1.22054e-30
1.27529e-32
4.30882e-35
1.14591e-38
6.72717e-42
1.06426e-45
1.22098e-49
9.90764e-54
1.01427e-57
1.78262e-61
9.43484e-65
1.30214e-67
5.06985e-71
1.41256e-75
2.74764e-80
5.37502e-85
1.08222e-89
2.47492e-94
6.12792e-99
1.54708e-103
4.41428e-108
1.27743e-112
4.07263e-117
1.09859e-121
2.39374e-126
3.67022e-137
5.62965e-139
1.00331e-142
5.86834e-147
7.10105e-151
3.52941e-155
3.57753e-159
2.33995e-163
3.80188e-167
5.33809e-171
1.54724e-174
3.73862e-179
3.87755e-183
9.03767e-188
1.8145e-192
1.51621e-197
1.43135e-202
7.46882e-208
4.81038e-213
2.19818e-218
1.09891e-223
4.03758e-229
1.44818e-234
3.93855e-240
1.04233e-245
2.10909e-251
4.39661e-257
8.14485e-263
1.85441e-268
3.89752e-274
5.50988e-296
2.20549e-299
1.10059e-304
3.83849e-310
1.21892e-315
3.56221e-321
0
0
0
0
0
0
0
0
0
0
0
0
0
0
0
0
0
0
0
0
0
0
0
0
0
0
0
0
0
0
0
0
0
0
0
0
0
0
0
0
0
0
0
0
0
0
0
0
0
0
0
0
0
0
0
0
0
0
0
0
0
0
0
0
0
0
0
0
0
0
0
0
0
0
0
0
0
0
0
0
0
0
0
0
0
0
0
0
0
0
0
0
0
0
0
0
0
0
0
0
0
0
0
0
0
0
0
0
0
0
0
0
0
0
0
0
0
0
0
0
0
0
0
0
0
0
0
0
0
0
0
0
0
0
0
0
0
0
0
0
0
0
0
0
0
0
0
0
0
0
0
0
0
0
0
0
0
0
0
0
0
0
0
0
0
0
0
0
0
0
0
0
0
0
4.7259e-07
9.77755e-07
1.24728e-06
1.20836e-06
1.1e-06
1.03893e-06
8.41274e-07
6.18778e-07
3.90234e-07
1.21254e-07
2.03157e-08
9.25382e-10
2.08656e-09
8.56746e-10
4.00915e-08
5.58422e-08
2.06478e-07
8.27054e-07
7.89933e-07
5.76914e-07
1.87127e-07
6.25035e-08
3.10712e-08
2.04868e-08
1.58441e-08
1.17319e-08
9.96753e-09
8.19538e-09
8.71635e-09
9.97073e-09
1.62254e-08
4.23247e-08
1.2376e-07
4.05934e-07
8.64543e-07
9.2678e-07
5.79718e-07
1.91916e-07
5.58954e-08
9.66603e-09
3.45931e-09
2.19884e-09
1.69558e-09
3.73608e-11
4.79327e-07
4.90268e-07
4.94278e-07
4.9357e-07
4.6726e-07
4.43974e-07
3.88246e-07
3.47488e-07
4.00678e-07
6.40441e-07
7.33302e-07
5.25337e-07
4.13491e-07
3.91956e-07
2.11432e-07
1.38906e-07
1.76183e-07
2.09017e-07
3.08583e-07
2.8204e-07
1.71169e-07
3.85125e-08
2.35383e-08
1.99741e-07
2.97898e-07
6.87769e-08
1.93229e-08
1.072e-08
1.16462e-08
4.37178e-10
3.32987e-07
3.55019e-07
3.53487e-07
3.92019e-07
4.77894e-07
4.61055e-07
3.69191e-07
3.67703e-07
4.26369e-07
4.58016e-07
4.69183e-07
4.4006e-07
4.25607e-07
3.48125e-07
3.60618e-07
4.01482e-07
4.76826e-07
4.13652e-07
1.70347e-07
2.10197e-08
1.03354e-08
2.41361e-08
3.70705e-07
4.86091e-07
2.73289e-07
1.85558e-07
3.11635e-07
1.71514e-07
4.95369e-07
1.62082e-08
4.35784e-17
1.87851e-14
7.80317e-14
7.03625e-14
2.3527e-13
8.69191e-13
2.44205e-11
1.40732e-08
1.45986e-07
4.69798e-07
3.74559e-07
7.53418e-08
2.83032e-08
1.27758e-08
6.4231e-09
4.37783e-09
2.71529e-09
2.61536e-09
2.79931e-09
2.68604e-09
1.80346e-09
1.01649e-09
4.89681e-10
2.68759e-10
9.63833e-11
4.39005e-11
2.95597e-11
8.68595e-12
6.28885e-15
1.55777e-19
1.04891e-24
1.069e-22
8.74846e-23
1.07287e-23
1.31832e-24
3.48236e-26
1.44977e-28
4.04758e-31
8.89744e-35
1.19965e-37
5.82733e-41
6.47165e-45
2.64232e-49
1.17605e-53
6.18379e-58
6.65046e-62
1.78822e-65
1.43545e-68
2.30375e-71
4.92144e-75
1.9996e-79
6.08268e-84
1.82936e-88
4.94137e-93
1.31055e-97
3.8293e-102
1.07178e-106
2.40971e-111
4.54141e-116
6.87953e-121
2.28315e-131
6.13695e-133
7.53486e-137
7.67449e-141
4.27139e-145
3.37037e-149
1.76992e-153
1.5925e-157
1.23767e-161
1.95132e-165
2.75198e-169
8.22887e-173
1.03155e-176
2.57927e-181
2.6357e-186
3.24682e-191
1.94795e-196
1.54495e-201
7.01432e-207
4.33977e-212
1.80411e-217
9.00206e-223
2.8968e-228
1.00228e-233
2.25507e-239
4.98084e-245
7.92751e-251
1.4458e-256
2.51152e-262
5.6658e-268
2.30491e-289
7.70205e-293
2.50663e-298
6.74824e-304
1.63176e-309
3.90522e-315
9.26373e-321
0
0
0
0
0
0
0
0
0
0
0
0
0
0
0
0
0
0
0
0
0
0
0
0
0
0
0
0
0
0
0
0
0
0
0
0
0
0
0
0
0
0
0
0
0
0
0
0
0
0
0
0
0
0
0
0
0
0
0
0
0
0
0
0
0
0
0
0
0
0
0
0
0
0
0
0
0
0
0
0
0
0
0
0
0
0
0
0
0
0
0
0
0
0
0
0
0
0
0
0
0
0
0
0
0
0
0
0
0
0
0
0
0
0
0
0
0
0
0
0
0
0
0
0
0
0
0
0
0
0
0
0
0
0
0
0
0
0
0
0
0
0
0
0
0
0
0
0
0
0
0
0
0
0
0
0
0
0
0
0
0
0
0
0
0
0
0
0
0
0
0
0
0
1.19191e-06
1.16452e-06
9.04098e-07
5.46666e-07
1.89867e-07
9.65207e-08
9.78812e-08
1.63456e-07
4.47022e-07
7.5111e-07
3.9745e-08
6.52978e-09
2.71561e-10
2.30274e-09
5.74456e-08
1.86177e-07
7.84917e-07
3.80928e-07
1.87832e-07
7.27688e-08
2.31544e-08
1.08842e-08
5.36856e-09
3.78938e-09
2.22879e-09
1.70665e-09
1.75646e-09
1.47768e-09
2.23049e-09
2.65736e-09
5.42539e-09
1.19013e-08
3.25142e-08
8.70148e-08
2.42339e-07
6.5157e-07
9.00731e-07
2.23564e-07
3.54457e-08
8.3864e-09
2.93207e-09
9.57556e-09
6.33758e-09
1.54892e-09
4.73692e-07
4.72873e-07
4.80883e-07
4.592e-07
4.14801e-07
3.589e-07
3.33327e-07
3.65983e-07
6.11701e-07
5.37138e-07
2.9438e-07
1.72415e-07
1.75612e-07
1.46247e-07
6.36355e-08
5.35627e-08
3.27791e-07
4.16293e-07
3.72511e-07
4.03278e-07
4.52745e-07
1.5726e-07
2.59054e-08
5.85174e-08
3.48713e-07
7.54774e-08
2.44774e-08
2.40932e-08
1.10077e-08
1.24946e-09
3.27643e-07
3.27106e-07
3.61477e-07
4.24155e-07
4.82566e-07
4.46893e-07
4.28399e-07
4.38306e-07
4.61899e-07
4.67772e-07
4.73216e-07
4.66035e-07
4.61711e-07
4.39165e-07
4.77693e-07
4.64227e-07
5.25186e-07
5.11134e-07
3.77011e-07
1.04601e-07
1.16711e-08
5.98239e-09
2.27939e-08
5.93878e-07
3.42571e-07
2.03911e-07
1.63972e-07
1.58369e-07
3.38597e-07
1.8376e-08
1.33285e-14
2.61767e-12
6.48764e-12
8.93305e-12
2.91155e-11
2.21859e-10
3.52076e-09
1.44687e-08
9.1923e-08
5.14006e-07
2.91232e-07
2.96756e-08
1.02738e-08
5.19063e-09
2.40387e-09
1.11782e-09
6.63119e-10
8.65611e-10
7.28527e-10
5.68968e-10
2.70493e-10
1.64422e-10
1.29028e-10
1.22744e-10
1.03177e-10
2.9388e-11
2.58323e-11
3.87377e-11
2.62903e-11
1.09192e-15
2.4541e-20
7.09988e-19
2.48196e-19
1.65341e-19
1.81681e-20
1.73779e-22
2.47313e-24
6.72391e-27
5.56803e-30
2.12432e-33
7.96983e-37
6.04775e-41
2.38198e-45
1.13252e-49
5.66685e-54
2.55216e-58
2.0676e-62
4.28342e-66
2.54912e-69
2.06407e-72
1.93026e-75
3.34e-79
2.09873e-83
8.6715e-88
2.99793e-92
1.15204e-96
3.42417e-101
8.75206e-106
1.70709e-110
2.04767e-115
3.69825e-126
3.82055e-128
7.29681e-132
9.51345e-136
8.85764e-140
5.69259e-144
4.24534e-148
2.66528e-152
2.46374e-156
2.19686e-160
3.60512e-164
5.81295e-168
1.80425e-171
3.74204e-175
4.89333e-180
3.41717e-185
2.51472e-190
1.17877e-195
7.61269e-201
3.57106e-206
1.96735e-211
8.78963e-217
3.81395e-222
1.23831e-227
3.29233e-233
6.20042e-239
9.9274e-245
1.4824e-250
2.4046e-256
3.86689e-262
7.40646e-283
1.83461e-286
4.70635e-292
9.30307e-298
1.77293e-303
3.29185e-309
6.48105e-315
1.30878e-320
0
0
0
0
0
0
0
0
0
0
0
0
0
0
0
0
0
0
0
0
0
0
0
0
0
0
0
0
0
0
0
0
0
0
0
0
0
0
0
0
0
0
0
0
0
0
0
0
0
0
0
0
0
0
0
0
0
0
0
0
0
0
0
0
0
0
0
0
0
0
0
0
0
0
0
0
0
0
0
0
0
0
0
0
0
0
0
0
0
0
0
0
0
0
0
0
0
0
0
0
0
0
0
0
0
0
0
0
0
0
0
0
0
0
0
0
0
0
0
0
0
0
0
0
0
0
0
0
0
0
0
0
0
0
0
0
0
0
0
0
0
0
0
0
0
0
0
0
0
0
0
0
0
0
0
0
0
0
0
0
0
0
0
0
0
0
0
0
0
0
0
0
1.02823e-06
6.79414e-07
3.30892e-07
7.28358e-08
9.8059e-09
6.62131e-09
1.06175e-08
2.59719e-08
7.77893e-08
2.75683e-07
4.50731e-07
7.65089e-08
4.12192e-09
1.58571e-09
9.92825e-08
5.24149e-07
5.11761e-07
1.28758e-07
5.21727e-08
1.93644e-08
8.78902e-09
3.96063e-09
2.1831e-09
1.20904e-09
1.04155e-09
1.11867e-09
1.75335e-09
3.19857e-09
6.7517e-09
1.58303e-08
3.11227e-08
5.81963e-08
7.04838e-08
9.19031e-08
2.06223e-07
4.61948e-07
8.15704e-07
1.48553e-07
2.32451e-08
1.17596e-08
8.69956e-09
5.54275e-08
1.11777e-08
3.24973e-09
4.50785e-07
4.62534e-07
4.57105e-07
4.23578e-07
4.05867e-07
3.47018e-07
3.51569e-07
5.22226e-07
5.08249e-07
1.64565e-07
1.24209e-07
1.05274e-07
1.08988e-07
7.40033e-08
3.1964e-08
3.7054e-07
3.05309e-07
1.8839e-07
2.07951e-07
3.28122e-07
4.62735e-07
2.17087e-07
2.6669e-08
4.11118e-08
4.09683e-07
1.07885e-07
4.3858e-08
4.58093e-08
1.37273e-08
1.98365e-09
3.15221e-07
3.3966e-07
3.77719e-07
4.52115e-07
4.74224e-07
4.56159e-07
4.53763e-07
4.61056e-07
4.70128e-07
4.58589e-07
4.76965e-07
4.71152e-07
4.79114e-07
4.68698e-07
4.93098e-07
4.9601e-07
5.28385e-07
5.50541e-07
5.56904e-07
4.88632e-07
7.70591e-08
1.06878e-08
5.53568e-09
2.7826e-08
5.56168e-07
2.14176e-07
1.19687e-07
1.25671e-07
1.8669e-07
1.69905e-08
6.71534e-12
2.9519e-10
1.21336e-09
1.70527e-09
4.95098e-09
3.18735e-08
6.91613e-08
1.03831e-07
1.60531e-07
5.75515e-07
3.86729e-07
2.2709e-08
4.28997e-09
1.03808e-09
2.95287e-10
1.34822e-10
1.31032e-10
1.30973e-10
1.08337e-10
7.0878e-11
8.33307e-11
6.09076e-11
6.56044e-11
2.71555e-11
4.15655e-11
4.01958e-11
2.11038e-11
2.93886e-11
6.71613e-11
2.10927e-11
9.66955e-16
2.40404e-15
1.56677e-15
9.68076e-16
1.71437e-16
5.87573e-18
1.07402e-19
3.54428e-22
2.70662e-25
4.85432e-29
1.70694e-33
8.6486e-38
4.85169e-42
3.13826e-46
2.09239e-50
1.27636e-54
7.17876e-59
6.13768e-63
1.04077e-66
4.46962e-70
2.82952e-73
1.47348e-76
6.50794e-80
1.26111e-83
1.19159e-87
7.6571e-92
3.82044e-96
1.5209e-100
3.62783e-105
3.7818e-110
6.28912e-122
1.72277e-124
1.2776e-128
1.70675e-132
6.66631e-136
1.49719e-139
1.67879e-143
1.62045e-147
1.37313e-151
1.48018e-155
1.61734e-159
2.93661e-163
5.76793e-167
1.91943e-170
5.16383e-174
4.253e-179
2.20799e-184
1.1545e-189
4.5218e-195
2.26398e-200
1.08898e-205
6.1806e-211
2.79914e-216
1.11368e-221
2.9236e-227
5.85841e-233
8.61307e-239
1.27185e-244
1.7696e-250
2.79207e-256
3.11302e-276
7.32301e-280
9.05688e-286
1.20247e-291
1.62564e-297
2.39192e-303
3.72191e-309
6.45252e-315
1.18675e-320
0
0
0
0
0
0
0
0
0
0
0
0
0
0
0
0
0
0
0
0
0
0
0
0
0
0
0
0
0
0
0
0
0
0
0
0
0
0
0
0
0
0
0
0
0
0
0
0
0
0
0
0
0
0
0
0
0
0
0
0
0
0
0
0
0
0
0
0
0
0
0
0
0
0
0
0
0
0
0
0
0
0
0
0
0
0
0
0
0
0
0
0
0
0
0
0
0
0
0
0
0
0
0
0
0
0
0
0
0
0
0
0
0
0
0
0
0
0
0
0
0
0
0
0
0
0
0
0
0
0
0
0
0
0
0
0
0
0
0
0
0
0
0
0
0
0
0
0
0
0
0
0
0
0
0
0
0
0
0
0
0
0
0
0
0
0
0
0
0
0
0
4.10804e-07
2.1278e-07
5.18251e-08
4.95474e-09
1.85119e-09
4.15033e-09
3.24866e-08
2.01842e-07
6.12614e-07
6.53368e-07
6.26337e-07
3.86139e-07
3.6595e-08
4.12403e-10
1.00661e-07
2.93093e-07
5.42412e-07
1.16778e-07
3.70656e-08
1.69234e-08
6.32941e-09
2.41956e-09
1.00075e-09
8.98022e-10
1.69931e-09
4.60377e-09
1.83746e-08
2.24152e-07
3.94588e-07
2.56833e-07
2.4533e-07
3.44605e-07
6.76034e-07
4.89808e-07
5.45881e-07
7.21854e-07
4.79327e-07
6.17594e-08
2.23954e-08
2.74116e-08
5.49494e-08
9.71741e-08
7.55207e-09
2.58109e-08
4.46984e-07
4.49139e-07
4.57665e-07
4.54016e-07
4.0628e-07
3.90457e-07
4.91366e-07
6.23666e-07
2.35015e-07
1.12816e-07
1.27017e-07
1.34314e-07
8.56807e-08
5.54155e-08
3.32504e-08
4.87729e-07
2.08349e-07
1.61128e-07
2.07847e-07
3.88351e-07
4.1749e-07
7.37466e-08
2.62435e-08
3.81533e-08
4.51806e-07
1.85076e-07
8.07295e-08
4.74307e-08
1.50389e-08
7.31106e-09
2.99964e-07
3.46944e-07
4.12882e-07
4.53624e-07
4.63775e-07
4.65764e-07
4.65526e-07
4.57417e-07
4.43767e-07
4.50025e-07
4.66842e-07
4.71245e-07
4.82333e-07
4.69664e-07
5.00166e-07
4.80884e-07
5.10571e-07
4.92815e-07
5.48453e-07
5.70529e-07
4.99559e-07
1.11323e-07
1.03476e-08
5.70697e-09
2.94868e-08
5.75756e-07
2.82193e-07
1.9854e-07
1.33121e-07
2.11445e-08
1.20006e-09
8.41924e-09
3.1115e-08
5.66873e-08
8.4323e-08
2.80152e-07
3.09134e-07
3.62712e-07
3.64812e-07
4.89375e-07
5.48982e-07
3.85827e-08
2.76774e-09
3.26106e-10
9.16917e-11
4.50141e-11
3.62168e-11
2.93145e-11
3.90726e-11
2.83299e-11
4.19216e-11
6.6366e-11
7.3358e-11
7.24841e-11
2.88989e-11
2.17438e-11
2.28758e-11
1.11184e-11
5.27625e-11
2.50559e-09
2.00689e-12
2.30524e-12
1.293e-12
3.04041e-13
7.25344e-14
2.1745e-15
6.62399e-17
2.83629e-19
1.55891e-22
2.5505e-26
1.46682e-30
5.60691e-35
4.60463e-39
3.54961e-43
3.49624e-47
3.15086e-51
2.22621e-55
1.3779e-59
1.37476e-63
2.3032e-67
7.19989e-71
3.12218e-74
1.30868e-77
3.56266e-81
8.46371e-85
1.86603e-88
3.28392e-92
3.47844e-96
1.36243e-100
1.61159e-105
7.38962e-118
2.53901e-120
5.12736e-125
2.02458e-129
2.79711e-133
8.39913e-137
2.39014e-140
5.42783e-144
8.17109e-148
1.18661e-151
1.58913e-155
2.45114e-159
4.74548e-163
1.28368e-166
4.45525e-170
1.6214e-173
8.84888e-179
3.50955e-184
1.27245e-189
4.47586e-195
1.79046e-200
8.75998e-206
4.71878e-211
1.96681e-216
5.62181e-222
1.12381e-227
1.78127e-233
2.53519e-239
3.57182e-245
5.0601e-251
5.27694e-270
1.42166e-275
2.538e-281
4.44189e-287
7.33945e-293
1.25485e-298
2.19554e-304
4.18783e-310
8.48175e-316
1.8231e-321
0
0
0
0
0
0
0
0
0
0
0
0
0
0
0
0
0
0
0
0
0
0
0
0
0
0
0
0
0
0
0
0
0
0
0
0
0
0
0
0
0
0
0
0
0
0
0
0
0
0
0
0
0
0
0
0
0
0
0
0
0
0
0
0
0
0
0
0
0
0
0
0
0
0
0
0
0
0
0
0
0
0
0
0
0
0
0
0
0
0
0
0
0
0
0
0
0
0
0
0
0
0
0
0
0
0
0
0
0
0
0
0
0
0
0
0
0
0
0
0
0
0
0
0
0
0
0
0
0
0
0
0
0
0
0
0
0
0
0
0
0
0
0
0
0
0
0
0
0
0
0
0
0
0
0
0
0
0
0
0
0
0
0
0
0
0
0
0
0
0
1.38329e-07
6.02582e-08
7.33708e-09
1.24382e-09
1.83756e-09
2.11787e-08
4.79039e-07
7.49585e-07
6.73898e-07
5.90442e-07
5.05507e-07
4.74281e-07
2.01894e-07
2.93293e-09
2.10655e-09
2.25768e-08
2.48658e-08
7.42404e-08
4.45661e-07
2.22028e-07
6.4083e-08
2.20152e-08
5.04834e-09
1.18035e-09
6.91415e-10
1.99774e-09
1.36623e-08
2.3683e-07
3.08486e-07
1.1787e-07
7.96331e-08
8.26296e-08
1.18027e-07
1.98365e-07
4.55345e-07
7.47997e-07
7.51267e-07
5.74639e-07
1.47149e-07
4.36977e-08
5.28447e-08
1.12869e-07
1.47639e-07
1.33873e-07
2.3548e-08
1.93469e-07
2.74471e-07
3.38562e-07
4.03547e-07
4.4162e-07
4.71965e-07
4.70177e-07
4.24871e-07
4.70945e-07
7.40418e-07
4.43196e-07
1.84884e-07
1.38402e-07
2.05632e-07
1.3423e-07
5.63924e-08
4.09217e-08
2.43581e-08
3.32462e-07
3.6879e-07
2.14327e-07
1.99308e-07
2.97288e-07
4.65703e-07
2.02018e-07
6.26879e-08
6.49041e-08
4.69327e-07
2.12964e-07
7.99852e-08
5.93372e-08
1.45189e-07
1.87149e-07
1.7058e-07
1.55032e-07
2.22925e-07
3.32671e-07
4.21153e-07
4.5124e-07
4.5842e-07
4.51127e-07
4.43303e-07
4.16893e-07
4.06592e-07
4.22574e-07
4.55191e-07
4.65329e-07
4.81556e-07
4.74413e-07
4.86844e-07
4.44777e-07
1.97358e-07
4.96375e-08
6.28304e-08
2.21255e-07
4.88852e-07
4.98765e-07
8.448e-08
1.0903e-08
5.35122e-09
1.39401e-08
2.01343e-07
5.78625e-07
2.04514e-07
2.27891e-07
1.5681e-07
1.40084e-07
9.44743e-08
1.05252e-07
1.56053e-07
2.39188e-07
3.46617e-07
4.19615e-07
4.5823e-07
4.5814e-07
5.15839e-07
4.42112e-07
4.99922e-07
3.94423e-07
1.23209e-08
9.22669e-10
1.55061e-10
6.70721e-11
4.44302e-11
3.83453e-11
3.08606e-11
4.99983e-11
4.33669e-11
8.32012e-11
1.41116e-10
1.47568e-10
1.15631e-10
1.04567e-10
2.06791e-11
1.88059e-11
1.01266e-11
2.4418e-09
2.10558e-09
2.55289e-10
2.75296e-11
2.69272e-11
2.82095e-11
1.25264e-11
2.67657e-12
1.38125e-13
2.77902e-15
1.7428e-17
4.26278e-20
2.48977e-23
1.70916e-27
9.33354e-32
5.43941e-36
3.84618e-40
3.74138e-44
3.82536e-48
3.61902e-52
2.73399e-56
2.37796e-60
2.4878e-64
3.31089e-68
8.03701e-72
2.78433e-75
7.82815e-79
1.74377e-82
3.67334e-86
6.65581e-90
1.52699e-93
4.85743e-97
6.47492e-101
2.34442e-105
1.57618e-109
1.46922e-113
8.04583e-118
1.4682e-122
3.82231e-127
3.35367e-131
7.17847e-135
1.95493e-138
4.41962e-142
8.58907e-146
1.56388e-149
3.07578e-153
5.14965e-157
1.27664e-160
3.35688e-164
1.47887e-167
6.43097e-171
2.98043e-174
8.64863e-180
2.70032e-185
7.40325e-191
2.36023e-196
8.10074e-202
3.84007e-207
1.75293e-212
6.12508e-218
1.4418e-223
3.03971e-229
4.5731e-235
6.96018e-241
8.3825e-247
7.50188e-253
8.88127e-259
1.03166e-264
1.29447e-270
1.77105e-276
2.1963e-282
3.05754e-288
4.11691e-294
6.25443e-300
9.60117e-306
1.64415e-311
2.83602e-317
5.43472e-323
0
0
0
0
0
0
0
0
0
0
0
0
0
0
0
0
0
0
0
0
0
0
0
0
0
0
0
0
0
0
0
0
0
0
0
0
0
0
0
0
0
0
0
0
0
0
0
0
0
0
0
0
0
0
0
0
0
0
0
0
0
0
0
0
0
0
0
0
0
0
0
0
0
0
0
0
0
0
0
0
0
0
0
0
0
0
0
0
0
0
0
0
0
0
0
0
0
0
0
0
0
0
0
0
0
0
0
0
0
0
0
0
0
0
0
0
0
0
0
0
0
0
0
0
0
0
0
0
0
0
0
0
0
0
0
0
0
0
0
0
0
0
0
0
0
0
0
0
0
0
0
0
0
0
0
0
0
0
0
0
0
0
0
0
0
0
0
0
0
0
0
0
0
0
0
0
0
0
0
0
0
3.75333e-08
1.5756e-08
1.88696e-09
7.32667e-10
3.92913e-09
1.18398e-07
7.8907e-07
8.51189e-07
8.16679e-07
7.96228e-07
5.93056e-07
4.65304e-07
3.28718e-07
6.09881e-08
1.22717e-08
7.24767e-09
8.31456e-09
3.48757e-08
3.44534e-07
4.25306e-07
1.04455e-07
2.36138e-08
2.99905e-09
7.1909e-10
1.01513e-09
1.36808e-08
4.53683e-07
1.78795e-07
7.75915e-08
5.69573e-08
7.3651e-08
1.02903e-07
1.50633e-07
2.18425e-07
3.53364e-07
4.30604e-07
3.30859e-07
1.58415e-07
8.13921e-08
8.89976e-08
1.67083e-07
2.29165e-07
2.31878e-07
1.6968e-07
8.28996e-08
3.35595e-07
3.68386e-07
3.81897e-07
4.38308e-07
4.71773e-07
5.1208e-07
5.12151e-07
4.72114e-07
7.25497e-07
7.26649e-07
4.26512e-07
3.78067e-07
3.00594e-07
1.76811e-07
4.29426e-08
2.72528e-08
2.4726e-08
1.49552e-08
2.17499e-08
7.67599e-08
4.8245e-07
3.5238e-07
2.47808e-07
2.48957e-07
3.75849e-07
4.78492e-07
4.71262e-07
4.29488e-07
2.06494e-07
8.66653e-08
6.95916e-08
1.36567e-07
1.63753e-07
1.91804e-07
2.04474e-07
2.78187e-07
3.58959e-07
4.39119e-07
4.52209e-07
4.47213e-07
4.19123e-07
4.19177e-07
4.10262e-07
4.17323e-07
4.14718e-07
4.30403e-07
4.56902e-07
4.7646e-07
4.80289e-07
4.88941e-07
3.4634e-07
4.05301e-08
4.22125e-09
1.94622e-09
4.83506e-09
3.10697e-08
2.48418e-07
3.91985e-07
8.25126e-08
1.25854e-08
5.32222e-09
5.5469e-09
1.27983e-08
5.20944e-07
2.7559e-07
2.40902e-07
1.70318e-07
1.73049e-07
1.99864e-07
2.86643e-07
3.80955e-07
4.1232e-07
3.65402e-07
2.08024e-07
6.95549e-08
4.12473e-08
7.47272e-08
4.99873e-07
5.74299e-07
3.16255e-07
2.09921e-08
2.52924e-09
6.01749e-10
3.48521e-10
2.93278e-10
3.7065e-10
4.63193e-10
5.18136e-10
4.30854e-10
3.68548e-10
3.32643e-10
3.11413e-10
2.69888e-10
2.04246e-10
3.74366e-11
3.99533e-12
2.50392e-10
1.26234e-09
4.08782e-10
7.15681e-11
3.04592e-11
1.21268e-11
1.14837e-11
8.81718e-12
4.16032e-12
1.41346e-12
4.12849e-15
3.25321e-17
2.05703e-20
3.81473e-24
2.94373e-28
1.61775e-32
7.93267e-37
5.25902e-41
4.3351e-45
3.95224e-49
3.78971e-53
3.29106e-57
3.18028e-61
3.29197e-65
4.37201e-69
8.46567e-73
1.84439e-76
3.72029e-80
7.74035e-84
1.17549e-87
2.42016e-91
4.20343e-95
1.44016e-98
2.71938e-102
3.02365e-106
1.90102e-110
5.82823e-115
1.60305e-119
5.9038e-124
4.53065e-128
6.12163e-132
1.23848e-135
2.10837e-139
4.013e-143
6.70225e-147
1.11007e-150
2.0507e-154
3.57465e-158
6.27661e-162
1.23983e-165
2.98772e-169
9.17522e-173
2.57717e-178
8.29156e-184
3.13954e-189
1.3055e-194
6.0854e-200
3.11642e-205
1.58797e-210
6.2353e-216
1.63593e-221
2.97646e-227
4.18111e-233
5.05969e-239
5.52377e-245
5.01534e-251
5.30473e-257
5.37048e-263
6.09553e-269
7.99402e-275
1.03167e-280
1.49067e-286
2.15795e-292
3.43375e-298
5.43554e-304
9.14403e-310
1.53847e-315
2.76183e-321
0
0
0
0
0
0
0
0
0
0
0
0
0
0
0
0
0
0
0
0
0
0
0
0
0
0
0
0
0
0
0
0
0
0
0
0
0
0
0
0
0
0
0
0
0
0
0
0
0
0
0
0
0
0
0
0
0
0
0
0
0
0
0
0
0
0
0
0
0
0
0
0
0
0
0
0
0
0
0
0
0
0
0
0
0
0
0
0
0
0
0
0
0
0
0
0
0
0
0
0
0
0
0
0
0
0
0
0
0
0
0
0
0
0
0
0
0
0
0
0
0
0
0
0
0
0
0
0
0
0
0
0
0
0
0
0
0
0
0
0
0
0
0
0
0
0
0
0
0
0
0
0
0
0
0
0
0
0
0
0
0
0
0
0
0
0
0
0
0
0
0
0
0
0
0
0
0
0
0
0
0
9.68285e-09
5.0056e-09
9.38149e-10
7.43957e-10
6.51592e-09
2.5978e-07
8.17128e-07
8.47219e-07
8.08509e-07
8.03495e-07
7.19575e-07
5.58079e-07
3.96275e-07
2.17889e-07
6.39588e-08
1.9152e-08
1.46226e-08
7.25076e-08
5.79449e-07
4.72018e-07
1.30362e-07
1.44891e-08
1.46318e-09
5.79518e-10
2.9368e-09
4.23621e-07
1.55931e-07
7.45974e-08
5.57855e-08
6.20153e-08
8.28153e-08
1.06943e-07
1.15972e-07
1.26543e-07
1.49863e-07
1.48557e-07
1.22376e-07
1.14637e-07
1.52382e-07
2.22878e-07
2.83773e-07
3.02131e-07
3.51067e-07
3.98937e-07
4.22433e-07
4.17443e-07
4.4919e-07
4.76022e-07
5.22917e-07
5.4488e-07
5.50746e-07
5.32756e-07
6.45673e-07
8.26482e-07
8.86605e-07
7.47708e-07
5.6033e-07
2.41709e-07
4.08022e-08
1.70938e-08
1.09243e-08
1.16833e-08
1.08264e-08
1.54286e-08
1.5071e-08
2.68068e-08
3.22796e-07
3.78796e-07
2.07277e-07
1.80759e-07
2.00996e-07
2.41833e-07
2.11982e-07
1.54092e-07
1.12002e-07
1.22053e-07