/*--------------------------------*- C++ -*----------------------------------*\
| =========                 |                                                 |
| \\      /  F ield         | OpenFOAM: The Open Source CFD Toolbox           |
|  \\    /   O peration     | Version:  2.1.1                                 |
|   \\  /    A nd           | Web:      www.OpenFOAM.org                      |
|    \\/     M anipulation  |                                                 |
\*---------------------------------------------------------------------------*/
FoamFile
{
    version     2.0;
    format      ascii;
    class       volScalarField;
    location    "0.002650000";
    object      HO2;
}
// * * * * * * * * * * * * * * * * * * * * * * * * * * * * * * * * * * * * * //

dimensions      [0 0 0 0 0 0 0];

internalField   nonuniform List<scalar> 
12384
(
8.74576e-06
8.84806e-06
8.56109e-06
6.3266e-06
4.88992e-06
4.64303e-06
4.80802e-06
4.73836e-06
4.67222e-06
4.37945e-06
4.33411e-06
6.97394e-07
2.60721e-08
2.75526e-10
4.81021e-08
4.17139e-07
5.79966e-07
9.29193e-07
2.59713e-06
2.61453e-06
2.58965e-06
2.53159e-06
2.52016e-06
2.49833e-06
2.5265e-06
2.49971e-06
2.47507e-06
2.39884e-06
2.33405e-06
2.24985e-06
2.19852e-06
2.17191e-06
2.1747e-06
2.0745e-06
2.0432e-06
2.03966e-06
2.00885e-06
4.77272e-07
2.72609e-07
2.25591e-07
5.43629e-08
2.39517e-10
3.36952e-13
1.85154e-15
5.188e-06
5.26125e-06
5.28143e-06
4.994e-06
4.72313e-06
4.2053e-06
4.15446e-06
4.01727e-06
4.01932e-06
4.07017e-06
4.13135e-06
4.21723e-06
4.29759e-06
4.12806e-06
4.69178e-06
4.54723e-06
4.29721e-06
4.60201e-06
4.60839e-06
4.72238e-06
4.58116e-06
4.53548e-06
4.1037e-06
3.19658e-06
5.5158e-07
1.25047e-07
1.92347e-08
1.10647e-09
3.48469e-11
3.15408e-13
4.10576e-07
4.87651e-06
5.13944e-06
2.89313e-06
1.45571e-06
9.7285e-07
5.46086e-07
4.10652e-07
2.70022e-07
2.72699e-07
4.37574e-07
5.54421e-07
8.92618e-07
1.38188e-06
2.65802e-06
3.44935e-06
3.85419e-06
4.04522e-06
4.28172e-06
5.27452e-06
1.07839e-06
7.10326e-07
5.74726e-07
3.89603e-07
1.81302e-07
1.33397e-08
1.13506e-09
7.24303e-10
4.8384e-11
9.62038e-13
8.40854e-25
1.4447e-22
8.52796e-21
6.71837e-17
6.28058e-13
1.74376e-09
6.84878e-08
2.26134e-07
2.53679e-07
2.0219e-07
1.40475e-07
1.34812e-07
4.59688e-08
4.73254e-08
3.98223e-08
3.5834e-08
3.32001e-08
5.08102e-08
3.80651e-08
9.48871e-09
8.95164e-09
3.97631e-09
4.52674e-10
4.07782e-12
1.72717e-14
3.51378e-17
6.86126e-20
5.02723e-23
2.01963e-26
1.83563e-29
3.85561e-38
2.547e-37
2.41796e-37
4.49558e-38
1.67817e-39
1.54555e-41
6.23541e-44
1.15109e-46
4.00587e-50
2.61997e-53
1.38885e-56
5.48332e-60
1.16349e-63
1.77143e-67
2.15181e-71
1.22052e-75
7.78283e-80
5.37213e-84
3.51245e-88
2.20671e-92
1.37546e-96
9.48482e-101
6.6688e-105
5.02117e-109
4.07249e-113
3.45008e-117
3.09133e-121
2.79642e-125
2.60978e-129
2.3792e-133
2.65924e-148
5.72311e-150
1.31419e-153
2.43244e-157
4.32628e-161
9.25962e-165
2.43691e-168
7.51905e-172
1.37865e-177
3.74166e-183
4.62862e-188
1.52593e-192
3.94905e-197
9.10198e-202
1.37692e-206
1.38505e-211
1.20457e-216
7.90055e-222
4.80396e-227
2.36198e-232
1.01385e-237
3.76349e-243
1.27437e-248
3.86161e-254
1.09752e-259
2.92483e-265
7.65995e-271
2.08215e-276
6.87416e-282
4.16678e-287
2.06031e-309
7.8215e-313
7.81583e-318
4.94066e-323
0
0
0
0
0
0
0
0
0
0
0
0
0
0
0
0
0
0
0
0
0
0
0
0
0
0
0
0
0
0
0
0
0
0
0
0
0
0
0
0
0
0
0
0
0
0
0
0
0
0
0
0
0
0
0
0
0
0
0
0
0
0
0
0
0
0
0
0
0
0
0
0
0
0
0
0
0
0
0
0
0
0
0
0
0
0
0
0
0
0
0
0
0
0
0
0
0
0
0
0
0
0
0
0
0
0
0
0
0
0
0
0
0
0
0
0
0
0
0
0
0
0
0
0
0
0
0
0
0
0
0
0
0
0
0
0
0
0
0
0
0
0
0
0
0
0
0
0
0
0
0
0
0
0
0
0
0
0
0
0
0
0
0
0
0
0
0
0
0
0
0
0
0
0
0
0
9.20838e-06
9.08753e-06
5.45197e-06
2.80855e-06
1.54871e-06
1.16664e-06
1.57279e-06
1.99119e-06
2.53023e-06
2.53156e-06
2.32515e-06
2.92006e-07
7.87322e-09
9.05889e-11
4.177e-07
2.14352e-06
1.89645e-06
2.10202e-06
2.38429e-06
2.49628e-06
2.61578e-06
2.62225e-06
2.67314e-06
2.52455e-06
2.47612e-06
2.43168e-06
2.36589e-06
2.35669e-06
2.35658e-06
2.33052e-06
2.22989e-06
2.03729e-06
1.96938e-06
1.95906e-06
1.98996e-06
1.99834e-06
2.0766e-06
1.91473e-06
1.61645e-06
1.42319e-06
5.40275e-07
3.57801e-08
4.38705e-11
7.01583e-14
5.17822e-06
5.2482e-06
5.27311e-06
4.91921e-06
4.67194e-06
4.27127e-06
4.55424e-06
4.53478e-06
4.47031e-06
4.174e-06
3.63298e-06
2.51383e-06
1.01913e-06
9.10745e-07
5.54927e-07
1.08383e-06
1.03986e-06
1.25637e-06
1.36469e-06
1.82076e-06
2.75858e-06
4.25585e-06
4.56699e-06
2.93751e-06
1.50387e-06
8.4123e-07
1.72147e-07
3.28565e-08
1.62902e-09
1.92769e-11
9.76665e-07
4.98525e-06
4.52438e-06
4.80825e-06
3.77472e-06
2.14757e-06
1.07102e-06
7.97525e-07
6.45493e-07
6.75359e-07
6.53115e-07
8.0196e-07
9.23949e-07
1.20569e-06
2.10867e-06
2.75835e-06
3.55445e-06
2.81538e-06
2.30962e-06
2.0641e-06
3.91058e-06
5.23335e-06
3.97748e-06
2.75619e-06
4.95015e-06
7.58164e-08
5.21042e-08
1.31412e-07
5.22794e-08
1.03076e-10
1.41864e-22
5.65266e-20
3.2559e-19
5.35268e-16
1.74644e-12
1.10931e-08
9.0768e-07
5.41076e-06
4.90575e-06
2.456e-06
6.31621e-07
2.09687e-07
1.71315e-07
2.25971e-07
1.38107e-07
1.27086e-07
9.35924e-08
6.16588e-08
4.13764e-08
4.12534e-09
1.1717e-09
7.36104e-10
5.18235e-10
2.56495e-10
4.16405e-11
1.59598e-14
1.01739e-17
2.19423e-20
2.89725e-23
1.2102e-26
7.44134e-35
2.58009e-34
1.92307e-34
5.36512e-35
8.06706e-36
1.85952e-37
1.68269e-39
4.05026e-42
1.52476e-45
9.96609e-49
6.01351e-52
2.62957e-55
4.8517e-59
3.20852e-63
9.84586e-68
2.19501e-73
5.98361e-78
5.362e-83
1.47104e-86
1.42621e-90
1.35203e-94
9.4755e-99
7.55759e-103
5.62421e-107
4.52113e-111
2.61811e-114
2.24836e-118
1.56355e-122
1.2111e-126
1.02312e-130
2.32422e-144
4.77764e-146
9.06821e-150
1.70327e-153
2.37302e-157
3.5793e-161
7.22245e-165
1.61023e-168
4.66546e-172
2.25431e-177
4.61905e-182
1.57902e-186
4.64984e-191
1.29771e-195
1.97543e-200
2.0102e-205
1.47264e-210
1.02593e-215
5.47553e-221
2.78457e-226
1.09969e-231
4.26105e-237
1.29796e-242
3.9887e-248
1.02396e-253
2.64063e-259
6.22928e-265
1.56169e-270
4.57861e-276
1.59778e-281
7.15504e-304
3.63413e-307
3.01822e-312
1.69624e-317
7.90505e-323
0
0
0
0
0
0
0
0
0
0
0
0
0
0
0
0
0
0
0
0
0
0
0
0
0
0
0
0
0
0
0
0
0
0
0
0
0
0
0
0
0
0
0
0
0
0
0
0
0
0
0
0
0
0
0
0
0
0
0
0
0
0
0
0
0
0
0
0
0
0
0
0
0
0
0
0
0
0
0
0
0
0
0
0
0
0
0
0
0
0
0
0
0
0
0
0
0
0
0
0
0
0
0
0
0
0
0
0
0
0
0
0
0
0
0
0
0
0
0
0
0
0
0
0
0
0
0
0
0
0
0
0
0
0
0
0
0
0
0
0
0
0
0
0
0
0
0
0
0
0
0
0
0
0
0
0
0
0
0
0
0
0
0
0
0
0
0
0
0
0
0
0
0
0
0
9.05646e-06
5.30888e-06
2.82751e-06
2.11193e-06
1.38475e-06
6.41812e-07
4.14744e-07
4.3627e-07
6.78924e-07
8.64238e-07
1.70452e-06
2.2988e-07
3.32368e-08
7.56045e-10
4.37331e-07
1.16238e-06
1.592e-06
2.32149e-06
2.60707e-06
3.68548e-06
6.23028e-06
6.95174e-06
7.27741e-06
6.25591e-06
5.43529e-06
5.21463e-06
5.02371e-06
5.44638e-06
5.96491e-06
6.27531e-06
5.71443e-06
4.07825e-06
2.36754e-06
2.03545e-06
1.88787e-06
1.82802e-06
1.77305e-06
1.46304e-06
1.18095e-06
8.86096e-07
2.26081e-07
1.12525e-08
9.07255e-11
1.7662e-12
5.13204e-06
5.23547e-06
5.24774e-06
5.04966e-06
4.89687e-06
4.87289e-06
5.04083e-06
5.04327e-06
5.02608e-06
5.12393e-06
4.7711e-06
2.63896e-06
4.5308e-07
1.38157e-07
4.98226e-08
5.44157e-08
5.50588e-08
5.2507e-08
5.87636e-08
5.45302e-08
6.06787e-08
1.92722e-07
3.34406e-06
3.8305e-06
1.8633e-06
5.93991e-07
1.67818e-07
1.20029e-07
9.05071e-09
1.37802e-10
4.66884e-06
4.82678e-06
4.19213e-06
4.50942e-06
4.86927e-06
3.68774e-06
1.95778e-06
1.23543e-06
1.20228e-06
1.32702e-06
1.41679e-06
1.25585e-06
1.14054e-06
1.12295e-06
1.33861e-06
2.33043e-06
2.69018e-06
1.49952e-06
7.19198e-07
2.24444e-07
1.10418e-06
3.83709e-06
4.65046e-06
2.3048e-06
1.27565e-06
2.39313e-06
2.21374e-07
2.97698e-06
3.05927e-07
1.37399e-09
5.18693e-20
1.61429e-17
7.7914e-17
7.13461e-17
1.19965e-13
2.75933e-10
2.20786e-07
2.03736e-06
5.52239e-06
5.41058e-06
3.67333e-06
9.92955e-07
1.71818e-07
5.18739e-08
5.61922e-08
4.20785e-08
3.51973e-08
1.10736e-08
6.92977e-10
1.06131e-09
5.1237e-10
1.79908e-10
1.16509e-10
5.42912e-11
5.8561e-11
4.19355e-11
7.50303e-14
2.53209e-18
7.28212e-21
1.70689e-23
3.42265e-32
4.0675e-31
4.63667e-30
5.91359e-30
5.59913e-31
2.53145e-33
2.16426e-36
1.87879e-39
3.75449e-43
1.55198e-46
5.31186e-50
1.79544e-53
5.41386e-57
3.55241e-60
1.21027e-62
2.90654e-66
4.99075e-71
2.76691e-76
3.88278e-82
8.25345e-87
2.19801e-91
7.12397e-96
2.21874e-100
9.5817e-105
3.41207e-109
3.24e-112
1.82282e-116
2.2939e-120
2.86724e-124
1.54225e-128
3.05188e-142
8.31716e-144
1.58643e-147
3.29034e-151
1.87742e-155
3.17415e-159
2.16041e-163
5.06281e-167
5.49843e-171
2.35568e-174
4.53658e-179
2.68323e-183
8.00879e-188
4.10845e-192
5.69848e-197
7.11832e-202
4.84216e-207
3.27763e-212
1.77456e-217
8.77999e-223
3.95993e-228
1.38646e-233
4.99048e-239
1.2848e-244
3.82746e-250
7.73313e-256
2.03149e-261
3.88785e-267
1.17797e-272
1.47318e-278
7.31808e-301
8.08007e-304
5.31089e-309
2.54825e-314
9.90898e-320
0
0
0
0
0
0
0
0
0
0
0
0
0
0
0
0
0
0
0
0
0
0
0
0
0
0
0
0
0
0
0
0
0
0
0
0
0
0
0
0
0
0
0
0
0
0
0
0
0
0
0
0
0
0
0
0
0
0
0
0
0
0
0
0
0
0
0
0
0
0
0
0
0
0
0
0
0
0
0
0
0
0
0
0
0
0
0
0
0
0
0
0
0
0
0
0
0
0
0
0
0
0
0
0
0
0
0
0
0
0
0
0
0
0
0
0
0
0
0
0
0
0
0
0
0
0
0
0
0
0
0
0
0
0
0
0
0
0
0
0
0
0
0
0
0
0
0
0
0
0
0
0
0
0
0
0
0
0
0
0
0
0
0
0
0
0
0
0
0
0
0
0
0
0
0
5.1032e-06
5.74466e-06
7.9216e-06
9.53665e-06
8.51987e-06
3.97769e-06
1.74633e-06
9.98182e-07
5.78541e-07
3.71216e-07
6.18755e-07
8.07082e-08
3.17572e-08
2.51533e-09
6.43714e-07
6.55578e-07
1.5065e-06
3.76841e-06
8.40169e-06
9.89725e-06
9.53707e-06
5.58262e-06
1.96292e-06
1.52024e-06
9.44267e-07
9.34401e-07
6.1568e-07
7.66645e-07
7.30984e-07
1.06824e-06
2.13489e-06
4.96471e-06
8.29489e-06
7.52202e-06
5.22347e-06
3.08902e-06
2.14951e-06
1.37686e-06
7.45923e-07
2.61405e-07
1.51794e-07
3.08439e-08
6.79525e-10
1.68887e-11
5.09787e-06
5.16987e-06
5.25044e-06
5.16072e-06
5.16189e-06
5.05479e-06
4.88095e-06
4.57229e-06
4.55471e-06
4.99753e-06
5.3367e-06
5.17553e-06
2.50586e-06
1.10442e-06
4.79443e-07
2.22e-07
2.2697e-07
1.79547e-07
1.68707e-07
9.96101e-08
5.84377e-08
4.09047e-08
1.60505e-07
4.55692e-06
2.99614e-06
8.95591e-07
2.76826e-07
1.01215e-07
1.54706e-08
5.67776e-10
4.29569e-06
4.51121e-06
3.9679e-06
4.38014e-06
4.92177e-06
3.92315e-06
2.42773e-06
1.9058e-06
2.22262e-06
2.8997e-06
3.33951e-06
2.68773e-06
1.88433e-06
1.32188e-06
1.32192e-06
2.06902e-06
2.6676e-06
2.22395e-06
1.98797e-07
4.30221e-08
4.35523e-08
1.02013e-06
5.41313e-06
3.2973e-06
1.43317e-06
7.48871e-07
1.58527e-06
1.12067e-06
8.11114e-08
2.74415e-09
2.25278e-18
2.29371e-15
3.84708e-15
6.06011e-15
5.15416e-15
1.1673e-12
1.00581e-08
6.0436e-07
2.17714e-06
4.29906e-06
3.77454e-06
1.23886e-06
1.77205e-07
3.94195e-08
1.75788e-08
1.3405e-08
5.72945e-09
4.93366e-09
3.68775e-09
2.99377e-09
1.76424e-09
6.2382e-10
1.19852e-10
7.40541e-11
3.07236e-11
1.41309e-11
2.48297e-11
1.15934e-13
2.17006e-18
5.34224e-21
1.75446e-28
4.03464e-26
3.37998e-25
3.51904e-26
4.55325e-28
6.77074e-30
1.01706e-31
4.3722e-34
1.0425e-37
5.23748e-41
4.64239e-45
2.81767e-49
1.3557e-53
1.04892e-57
1.83873e-61
1.57108e-64
5.95387e-67
5.98377e-70
1.96126e-74
3.93493e-79
7.55636e-84
1.47454e-88
3.27285e-93
7.89142e-98
1.9163e-102
5.3057e-107
1.50013e-111
4.72314e-116
1.25859e-120
2.74567e-125
5.32264e-136
8.22608e-138
1.46329e-141
8.12669e-146
9.81197e-150
4.68528e-154
4.78754e-158
2.98963e-162
4.89749e-166
6.72948e-170
1.97633e-173
4.66737e-178
4.91924e-182
1.12146e-186
2.28969e-191
1.87578e-196
1.79792e-201
9.30443e-207
6.09543e-212
2.73701e-217
1.38641e-222
5.02557e-228
1.82237e-233
4.89378e-239
1.30926e-244
2.61676e-250
5.51296e-256
1.01013e-261
2.31296e-267
4.75844e-273
6.71082e-295
2.76654e-298
1.38448e-303
4.81159e-309
1.53162e-314
4.46537e-320
0
0
0
0
0
0
0
0
0
0
0
0
0
0
0
0
0
0
0
0
0
0
0
0
0
0
0
0
0
0
0
0
0
0
0
0
0
0
0
0
0
0
0
0
0
0
0
0
0
0
0
0
0
0
0
0
0
0
0
0
0
0
0
0
0
0
0
0
0
0
0
0
0
0
0
0
0
0
0
0
0
0
0
0
0
0
0
0
0
0
0
0
0
0
0
0
0
0
0
0
0
0
0
0
0
0
0
0
0
0
0
0
0
0
0
0
0
0
0
0
0
0
0
0
0
0
0
0
0
0
0
0
0
0
0
0
0
0
0
0
0
0
0
0
0
0
0
0
0
0
0
0
0
0
0
0
0
0
0
0
0
0
0
0
0
0
0
0
0
0
0
0
0
0
7.66546e-06
1.51009e-05
1.64589e-05
1.43621e-05
1.23569e-05
1.2454e-05
1.10877e-05
8.67545e-06
5.49572e-06
1.64458e-06
2.37695e-07
8.19058e-09
2.76277e-08
1.18944e-08
4.88294e-07
6.60585e-07
2.55015e-06
9.22407e-06
7.33693e-06
4.21018e-06
7.86033e-07
1.75436e-07
6.5747e-08
3.07564e-08
2.686e-08
1.80039e-08
1.35002e-08
1.0172e-08
1.14109e-08
1.442e-08
2.581e-08
9.63981e-08
4.49417e-07
2.2407e-06
7.72166e-06
1.04058e-05
7.20424e-06
2.34525e-06
6.46708e-07
1.04634e-07
3.7479e-08
2.67108e-08
2.21408e-08
4.07161e-10
5.02734e-06
5.10104e-06
5.13242e-06
5.12759e-06
4.96093e-06
4.80844e-06
4.35985e-06
4.00826e-06
4.46688e-06
6.66364e-06
6.1929e-06
3.40178e-06
2.42535e-06
2.12754e-06
9.5853e-07
6.82884e-07
9.29309e-07
1.26086e-06
2.19539e-06
1.86093e-06
9.19498e-07
9.28907e-08
5.25632e-08
1.16672e-06
3.70346e-06
8.86727e-07
2.34343e-07
1.21536e-07
1.57911e-07
5.18761e-09
3.98796e-06
4.13003e-06
4.11782e-06
4.48526e-06
4.88294e-06
3.90799e-06
2.65459e-06
2.66943e-06
3.52783e-06
4.11867e-06
4.313e-06
3.84645e-06
3.28984e-06
2.41964e-06
2.47689e-06
2.66465e-06
3.62957e-06
2.62607e-06
7.87195e-07
3.43364e-08
1.22859e-08
4.09588e-08
2.22333e-06
5.04067e-06
3.04514e-06
2.07196e-06
3.40075e-06
2.01646e-06
4.24002e-06
1.95249e-07
5.85982e-16
2.38399e-13
5.33066e-13
3.44546e-13
1.2818e-12
6.71838e-12
2.41279e-10
1.38645e-07
1.28871e-06
3.96034e-06
2.32402e-06
1.97599e-07
4.85789e-08
1.58793e-08
5.9868e-09
3.70675e-09
1.84738e-09
1.70763e-09
1.82862e-09
1.69171e-09
9.13488e-10
4.292e-10
1.51035e-10
6.69071e-11
1.56725e-11
1.04525e-11
1.86942e-11
2.1712e-11
7.39802e-14
1.77792e-18
1.57759e-23
1.58964e-21
6.70617e-22
5.83808e-23
1.07995e-23
4.37296e-25
2.25455e-27
6.18558e-30
1.40615e-33
1.63578e-36
6.93648e-40
3.16109e-44
6.07063e-49
1.46896e-53
4.93882e-58
4.71492e-62
1.48537e-65
2.56705e-68
1.25051e-70
5.65228e-74
2.71551e-78
8.66462e-83
2.65014e-87
7.16419e-92
1.88613e-96
5.37929e-101
1.46747e-105
3.1906e-110
5.77477e-115
8.50784e-120
3.73714e-130
1.00497e-131
1.24065e-135
1.25928e-139
6.89434e-144
5.41961e-148
2.77583e-152
2.48773e-156
1.88819e-160
2.98821e-164
4.12542e-168
1.24408e-171
1.52447e-175
3.87074e-180
3.84994e-185
4.845e-190
2.83785e-195
2.29425e-200
1.03716e-205
6.5092e-211
2.66516e-216
1.3471e-221
4.27811e-227
1.49667e-232
3.3296e-238
7.4216e-244
1.16965e-249
2.14917e-255
3.70348e-261
8.38322e-267
3.44228e-288
1.15158e-291
3.74353e-297
1.00844e-302
2.43499e-308
5.83068e-314
1.38156e-319
0
0
0
0
0
0
0
0
0
0
0
0
0
0
0
0
0
0
0
0
0
0
0
0
0
0
0
0
0
0
0
0
0
0
0
0
0
0
0
0
0
0
0
0
0
0
0
0
0
0
0
0
0
0
0
0
0
0
0
0
0
0
0
0
0
0
0
0
0
0
0
0
0
0
0
0
0
0
0
0
0
0
0
0
0
0
0
0
0
0
0
0
0
0
0
0
0
0
0
0
0
0
0
0
0
0
0
0
0
0
0
0
0
0
0
0
0
0
0
0
0
0
0
0
0
0
0
0
0
0
0
0
0
0
0
0
0
0
0
0
0
0
0
0
0
0
0
0
0
0
0
0
0
0
0
0
0
0
0
0
0
0
0
0
0
0
0
0
0
0
0
0
0
1.74612e-05
1.29625e-05
8.04695e-06
3.72749e-06
8.68137e-07
2.84871e-07
3.08687e-07
6.39325e-07
2.88291e-06
8.8168e-06
4.94077e-07
7.00269e-08
2.04959e-09
3.09229e-08
6.79976e-07
2.29922e-06
8.14766e-06
2.35943e-06
7.79327e-07
2.1201e-07
4.51228e-08
1.53579e-08
6.00043e-09
3.19008e-09
1.805e-09
1.244e-09
1.20649e-09
1.0264e-09
1.71475e-09
2.38905e-09
5.5753e-09
1.71577e-08
6.63656e-08
2.29808e-07
9.68416e-07
4.49813e-06
9.47701e-06
2.85444e-06
4.07585e-07
8.74477e-08
3.42575e-08
1.09949e-07
8.20625e-08
1.8514e-08
4.9924e-06
4.9921e-06
5.04169e-06
4.90479e-06
4.611e-06
4.14404e-06
3.86667e-06
4.18625e-06
6.3877e-06
3.60665e-06
1.19855e-06
6.27217e-07
6.52754e-07
4.05247e-07
1.909e-07
1.49466e-07
2.34304e-06
4.65819e-06
4.36493e-06
4.57268e-06
4.47672e-06
7.83248e-07
6.0356e-08
1.95849e-07
4.19311e-06
9.86503e-07
3.06035e-07
2.99652e-07
1.52396e-07
1.57055e-08
3.94682e-06
3.93897e-06
4.21209e-06
4.70263e-06
4.72563e-06
3.71728e-06
3.43755e-06
3.68001e-06
4.25221e-06
4.56256e-06
4.60004e-06
4.40637e-06
4.00857e-06
3.77184e-06
3.92974e-06
3.87842e-06
4.29575e-06
4.07988e-06
2.32446e-06
3.82514e-07
1.42797e-08
5.44188e-09
3.78231e-08
5.04412e-06
3.73448e-06
2.27384e-06
1.82882e-06
1.77031e-06
3.90738e-06
2.33479e-07
1.827e-13
3.36093e-11
4.48724e-11
3.98456e-11
1.28547e-10
1.36531e-09
2.5998e-08
1.18263e-07
7.94902e-07
4.54805e-06
1.49329e-06
5.18468e-08
1.16472e-08
4.61409e-09
1.56824e-09
5.47462e-10
2.49709e-10
3.79649e-10
2.74327e-10
1.95965e-10
6.95871e-11
3.21098e-11
2.41499e-11
2.21204e-11
1.83489e-11
3.0418e-12
5.57685e-12
2.60891e-11
1.32988e-10
1.26568e-14
3.87991e-19
8.04289e-18
1.45748e-18
1.48092e-18
2.20546e-19
2.72667e-21
3.84753e-23
1.06646e-25
8.56429e-29
2.88755e-32
8.50071e-36
2.90023e-40
5.6528e-45
1.53329e-49
5.28691e-54
1.54957e-58
9.25935e-63
2.56299e-66
2.4788e-69
4.82753e-72
1.20926e-74
3.53119e-78
2.62935e-82
1.19788e-86
4.36252e-91
1.69189e-95
5.04819e-100
1.26831e-104
2.40805e-109
2.76752e-114
5.54356e-125
4.50785e-127
8.7273e-131
1.34427e-134
1.3497e-138
9.15608e-143
6.90009e-147
4.40532e-151
4.06742e-155
3.62419e-159
5.9588e-163
9.55661e-167
2.97147e-170
6.13118e-174
8.04131e-179
5.58572e-184
4.1247e-189
1.94979e-194
1.25211e-199
5.89583e-205
3.25974e-210
1.44994e-215
6.30356e-221
2.04117e-226
5.42923e-232
1.02068e-237
1.63327e-243
2.4357e-249
3.94572e-255
6.29629e-261
1.22749e-281
3.04893e-285
7.82481e-291
1.54313e-296
2.94223e-302
5.45314e-308
1.07431e-313
2.16653e-319
0
0
0
0
0
0
0
0
0
0
0
0
0
0
0
0
0
0
0
0
0
0
0
0
0
0
0
0
0
0
0
0
0
0
0
0
0
0
0
0
0
0
0
0
0
0
0
0
0
0
0
0
0
0
0
0
0
0
0
0
0
0
0
0
0
0
0
0
0
0
0
0
0
0
0
0
0
0
0
0
0
0
0
0
0
0
0
0
0
0
0
0
0
0
0
0
0
0
0
0
0
0
0
0
0
0
0
0
0
0
0
0
0
0
0
0
0
0
0
0
0
0
0
0
0
0
0
0
0
0
0
0
0
0
0
0
0
0
0
0
0
0
0
0
0
0
0
0
0
0
0
0
0
0
0
0
0
0
0
0
0
0
0
0
0
0
0
0
0
0
0
0
1.01412e-05
5.09254e-06
1.72318e-06
2.06294e-07
1.28037e-08
6.90161e-09
1.18275e-08
5.24451e-08
2.48154e-07
1.55398e-06
5.84855e-06
1.01939e-06
4.30689e-08
1.9811e-08
1.24841e-06
6.30811e-06
3.62463e-06
5.07912e-07
1.10016e-07
3.53367e-08
1.12812e-08
3.50875e-09
1.6516e-09
7.76311e-10
6.09701e-10
6.77769e-10
1.33461e-09
2.94236e-09
7.71184e-09
2.2952e-08
7.00386e-08
1.54551e-07
1.70884e-07
2.51235e-07
8.0044e-07
2.89467e-06
8.49566e-06
1.86848e-06
2.64543e-07
1.23063e-07
9.76317e-08
6.37079e-07
1.44185e-07
4.08605e-08
4.85335e-06
4.92458e-06
4.89237e-06
4.69501e-06
4.51334e-06
4.01449e-06
4.03715e-06
5.6148e-06
3.28154e-06
6.10852e-07
3.87162e-07
3.01195e-07
3.19121e-07
1.59636e-07
5.06225e-08
2.68816e-06
3.65441e-06
2.35398e-06
2.60441e-06
3.94641e-06
4.76089e-06
1.2513e-06
6.07364e-08
9.95106e-08
4.6244e-06
1.40776e-06
5.52546e-07
5.69255e-07
1.84699e-07
2.61322e-08
3.86239e-06
4.04989e-06
4.41171e-06
4.82269e-06
4.56142e-06
3.99965e-06
3.97839e-06
4.3599e-06
4.6856e-06
4.74716e-06
4.75715e-06
4.56333e-06
4.47478e-06
4.39263e-06
4.55092e-06
4.65943e-06
4.81375e-06
4.95805e-06
4.79046e-06
3.39788e-06
2.11746e-07
1.27116e-08
4.93599e-09
4.86946e-08
5.45577e-06
2.38128e-06
1.32213e-06
1.39128e-06
2.09437e-06
2.11822e-07
9.27699e-11
3.87966e-09
1.19076e-08
1.21509e-08
3.47533e-08
2.49642e-07
6.19262e-07
9.75114e-07
1.55896e-06
5.22991e-06
2.42311e-06
3.68891e-08
3.55003e-09
4.87683e-10
8.26696e-11
2.78377e-11
2.69903e-11
2.63829e-11
2.07253e-11
1.10848e-11
1.3379e-11
8.6783e-12
9.23055e-12
2.78392e-12
5.18848e-12
5.12025e-12
2.04281e-12
5.93701e-12
3.4592e-11
2.08993e-10
1.3169e-14
2.25703e-14
1.21493e-14
7.54702e-15
2.17784e-15
7.33638e-17
1.56002e-18
4.59606e-21
3.28608e-24
3.68787e-28
5.87937e-33
1.83467e-37
6.72909e-42
3.27255e-46
1.6822e-50
7.8279e-55
3.32363e-59
2.37032e-63
4.82406e-67
3.38158e-70
3.7695e-73
3.79379e-76
3.26244e-79
1.00421e-82
1.32001e-86
9.66112e-91
5.22005e-95
2.17607e-99
5.3473e-104
5.44909e-109
6.35421e-121
1.05432e-123
5.63886e-128
6.76487e-132
4.94046e-135
1.57773e-138
2.23684e-142
2.29607e-146
2.07556e-150
2.26097e-154
2.55422e-158
4.64691e-162
9.33359e-166
3.09554e-169
8.46185e-173
6.92541e-178
3.64672e-183
1.89596e-188
7.56548e-194
3.78521e-199
1.82629e-204
1.03614e-209
4.69886e-215
1.87247e-220
4.91487e-226
9.86386e-232
1.45033e-237
2.14411e-243
2.9844e-249
4.71155e-255
5.26042e-275
1.23825e-278
1.53188e-284
2.03464e-290
2.75158e-296
4.04955e-302
6.30319e-308
1.09291e-313
2.0107e-319
0
0
0
0
0
0
0
0
0
0
0
0
0
0
0
0
0
0
0
0
0
0
0
0
0
0
0
0
0
0
0
0
0
0
0
0
0
0
0
0
0
0
0
0
0
0
0
0
0
0
0
0
0
0
0
0
0
0
0
0
0
0
0
0
0
0
0
0
0
0
0
0
0
0
0
0
0
0
0
0
0
0
0
0
0
0
0
0
0
0
0
0
0
0
0
0
0
0
0
0
0
0
0
0
0
0
0
0
0
0
0
0
0
0
0
0
0
0
0
0
0
0
0
0
0
0
0
0
0
0
0
0
0
0
0
0
0
0
0
0
0
0
0
0
0
0
0
0
0
0
0
0
0
0
0
0
0
0
0
0
0
0
0
0
0
0
0
0
0
0
0
2.54502e-06
1.00571e-06
1.28164e-07
4.70476e-09
1.21176e-09
4.12157e-09
7.03401e-08
1.00051e-06
5.63559e-06
6.92057e-06
7.50749e-06
5.2401e-06
4.54157e-07
3.62848e-09
1.24592e-06
3.69828e-06
4.51269e-06
4.40232e-07
8.71645e-08
2.77972e-08
6.40126e-09
1.96434e-09
5.70718e-10
4.7203e-10
1.20837e-09
4.89094e-09
3.32139e-08
1.34326e-06
4.51772e-06
3.18429e-06
2.93213e-06
4.01369e-06
6.72278e-06
3.33884e-06
3.66326e-06
6.044e-06
5.81821e-06
7.45882e-07
2.52393e-07
3.17219e-07
6.3946e-07
1.18296e-06
9.85749e-08
3.31314e-07
4.82823e-06
4.84113e-06
4.89627e-06
4.87021e-06
4.51974e-06
4.34614e-06
5.23386e-06
4.81722e-06
8.63576e-07
3.49924e-07
4.20731e-07
4.63665e-07
2.32902e-07
1.08857e-07
7.54673e-08
4.95076e-06
2.59612e-06
2.01832e-06
2.59229e-06
4.46453e-06
3.27861e-06
2.53518e-07
5.81363e-08
8.19634e-08
4.39627e-06
2.36346e-06
1.04885e-06
5.97281e-07
2.01457e-07
9.71882e-08
3.6867e-06
4.13183e-06
4.63684e-06
4.74561e-06
4.57359e-06
4.51434e-06
4.6313e-06
4.77071e-06
4.73411e-06
4.77872e-06
4.80319e-06
4.6711e-06
4.59145e-06
4.49213e-06
4.65002e-06
4.5046e-06
4.24721e-06
4.07313e-06
4.56934e-06
4.96921e-06
3.58266e-06
4.07428e-07
1.21562e-08
5.13036e-09
5.22547e-08
5.52161e-06
3.11695e-06
2.21959e-06
1.4816e-06
2.56223e-07
1.6882e-08
1.164e-07
4.04261e-07
7.12088e-07
1.06461e-06
3.56672e-06
3.79993e-06
4.19133e-06
4.16333e-06
5.0845e-06
4.40548e-06
8.53742e-08
1.8508e-09
9.42938e-11
1.64491e-11
6.0371e-12
4.42834e-12
3.37535e-12
4.95203e-12
3.34656e-12
5.44241e-12
1.00223e-11
1.14731e-11
1.00573e-11
2.68855e-12
2.14686e-12
2.22454e-12
7.88717e-13
1.08345e-11
1.3073e-08
2.04939e-11
1.82926e-11
6.11381e-12
8.79429e-13
1.82612e-13
5.00662e-15
1.61488e-16
7.01358e-19
3.28907e-22
4.6002e-26
1.57912e-30
4.53292e-35
3.35698e-39
2.2114e-43
2.07751e-47
1.71044e-51
1.00966e-55
4.92446e-60
4.66803e-64
8.86174e-68
4.2297e-71
3.04288e-74
2.19707e-77
8.46933e-81
3.01576e-84
9.0639e-88
2.74684e-91
3.955e-95
1.88706e-99
2.36997e-104
7.5266e-117
2.03486e-119
1.74061e-124
4.11317e-129
6.07322e-133
2.82904e-136
1.20134e-139
3.94284e-143
6.81214e-147
1.1724e-150
1.68645e-154
2.85606e-158
5.71844e-162
1.6337e-165
5.74218e-169
2.17983e-172
1.18996e-177
4.84634e-183
1.755e-188
6.31812e-194
2.52678e-199
1.25326e-204
6.75882e-210
2.84625e-215
8.16314e-221
1.65244e-226
2.63085e-232
3.76578e-238
5.34327e-244
7.57794e-250
7.45491e-269
2.02821e-274
3.66606e-280
6.44573e-286
1.07166e-291
1.83664e-297
3.23782e-303
6.1828e-309
1.254e-314
2.69859e-320
0
0
0
0
0
0
0
0
0
0
0
0
0
0
0
0
0
0
0
0
0
0
0
0
0
0
0
0
0
0
0
0
0
0
0
0
0
0
0
0
0
0
0
0
0
0
0
0
0
0
0
0
0
0
0
0
0
0
0
0
0
0
0
0
0
0
0
0
0
0
0
0
0
0
0
0
0
0
0
0
0
0
0
0
0
0
0
0
0
0
0
0
0
0
0
0
0
0
0
0
0
0
0
0
0
0
0
0
0
0
0
0
0
0
0
0
0
0
0
0
0
0
0
0
0
0
0
0
0
0
0
0
0
0
0
0
0
0
0
0
0
0
0
0
0
0
0
0
0
0
0
0
0
0
0
0
0
0
0
0
0
0
0
0
0
0
0
0
0
0
5.10014e-07
1.6601e-07
8.35923e-09
7.14901e-10
1.15052e-09
3.9767e-08
3.5419e-06
9.04967e-06
8.56696e-06
7.5033e-06
6.56357e-06
6.24562e-06
2.76061e-06
2.86197e-08
2.07821e-08
2.75682e-07
3.02824e-07
9.38061e-07
5.33497e-06
1.08919e-06
1.88163e-07
3.74843e-08
5.40939e-09
7.4219e-10
3.5998e-10
1.23738e-09
2.22668e-08
1.41907e-06
3.76227e-06
1.52086e-06
9.96262e-07
1.03509e-06
1.44121e-06
2.35213e-06
5.46144e-06
7.84652e-06
7.29805e-06
6.48139e-06
1.75637e-06
5.24999e-07
6.06579e-07
1.33478e-06
1.76592e-06
1.6061e-06
3.02931e-07
2.42552e-06
3.27366e-06
4.09082e-06
4.5754e-06
4.79962e-06
4.99361e-06
4.97928e-06
4.68852e-06
5.00395e-06
6.59294e-06
2.28535e-06
7.48531e-07
4.75115e-07
9.5623e-07
4.58978e-07
1.27697e-07
7.77355e-08
4.65215e-08
2.06428e-06
4.25984e-06
2.66371e-06
2.46631e-06
3.56528e-06
4.84737e-06
1.07431e-06
1.96252e-07
2.0749e-07
4.40952e-06
2.67441e-06
1.0132e-06
7.478e-07
1.82418e-06
2.33457e-06
2.18712e-06
2.02772e-06
2.82221e-06
3.99908e-06
4.69252e-06
4.72628e-06
4.76049e-06
4.77833e-06
4.7942e-06
4.66569e-06
4.59639e-06
4.7015e-06
4.81868e-06
4.75664e-06
4.60808e-06
4.47746e-06
4.46887e-06
3.57223e-06
9.1441e-07
1.03265e-07
1.57459e-07
9.89333e-07
3.44584e-06
3.59087e-06
2.34845e-07
1.30128e-08
4.73418e-09
1.77061e-08
9.40805e-07
5.48062e-06
2.27592e-06
2.52529e-06
2.10129e-06
1.81061e-06
1.21042e-06
1.38563e-06
2.08822e-06
3.12162e-06
4.21028e-06
4.59733e-06
4.44492e-06
4.08219e-06
5.07805e-06
4.79044e-06
5.1548e-06
2.49451e-06
1.52946e-08
3.92391e-10
3.47429e-11
1.12242e-11
6.05225e-12
4.79752e-12
3.58579e-12
6.88525e-12
5.50013e-12
1.3467e-11
2.80748e-11
2.6606e-11
2.06379e-11
1.63643e-11
1.84982e-12
1.69767e-12
7.17446e-13
3.19405e-09
7.08315e-09
5.96962e-10
4.68235e-11
3.95014e-11
3.15223e-11
1.02906e-11
1.66084e-12
7.00624e-14
1.25682e-15
8.88164e-18
2.69529e-20
1.87221e-23
8.04874e-28
3.87674e-32
2.26464e-36
1.61466e-40
1.59546e-44
1.61971e-48
1.45524e-52
9.55914e-57
7.89294e-61
7.73842e-65
1.1751e-68
3.75689e-72
2.09361e-75
8.1604e-79
2.37336e-82
6.58217e-86
1.60652e-89
5.13705e-93
3.28366e-96
8.5008e-100
3.49135e-104
2.26579e-108
1.83614e-112
5.9047e-117
4.09467e-122
5.63942e-127
4.05269e-131
1.07405e-134
3.92097e-138
1.08262e-141
2.25825e-145
4.90234e-149
1.151e-152
1.95427e-156
5.8533e-160
1.55159e-163
7.61757e-167
3.29852e-170
1.61523e-173
4.64993e-179
1.48288e-184
4.03315e-190
1.32497e-195
4.53957e-201
2.19458e-206
1.00084e-211
3.55373e-217
8.3822e-223
1.81404e-228
2.80522e-234
4.7733e-240
5.52671e-246
4.27612e-252
4.98775e-258
5.6683e-264
7.22542e-270
1.02441e-275
1.26328e-281
1.78983e-287
2.395e-293
3.68242e-299
5.62264e-305
9.71414e-311
1.66825e-316
3.16202e-322
0
0
0
0
0
0
0
0
0
0
0
0
0
0
0
0
0
0
0
0
0
0
0
0
0
0
0
0
0
0
0
0
0
0
0
0
0
0
0
0
0
0
0
0
0
0
0
0
0
0
0
0
0
0
0
0
0
0
0
0
0
0
0
0
0
0
0
0
0
0
0
0
0
0
0
0
0
0
0
0
0
0
0
0
0
0
0
0
0
0
0
0
0
0
0
0
0
0
0
0
0
0
0
0
0
0
0
0
0
0
0
0
0
0
0
0
0
0
0
0
0
0
0
0
0
0
0
0
0
0
0
0
0
0
0
0
0
0
0
0
0
0
0
0
0
0
0
0
0
0
0
0
0
0
0
0
0
0
0
0
0
0
0
0
0
0
0
0
0
0
0
0
0
0
0
0
0
0
0
0
0
8.40726e-08
2.53081e-08
1.43386e-09
3.7686e-10
3.6234e-09
4.21401e-07
7.90056e-06
9.77316e-06
9.16748e-06
9.07764e-06
7.47142e-06
6.10869e-06
4.52935e-06
7.87351e-07
1.41159e-07
7.97996e-08
9.34698e-08
4.28326e-07
4.31333e-06
2.85812e-06
3.82715e-07
4.26871e-08
2.51709e-09
2.93849e-10
6.03796e-10
2.23145e-08
4.75934e-06
2.25362e-06
9.81322e-07
7.17104e-07
9.00747e-07
1.24122e-06
1.81353e-06
2.64311e-06
4.17912e-06
4.97356e-06
3.86793e-06
1.92253e-06
9.80534e-07
1.0708e-06
2.00109e-06
2.70563e-06
2.80248e-06
2.03228e-06
9.89553e-07
3.86305e-06
4.26631e-06
4.40157e-06
4.77597e-06
4.99357e-06
5.10794e-06
5.18088e-06
4.98361e-06
7.54141e-06
5.80701e-06
2.55662e-06
2.16321e-06
1.54865e-06
7.33831e-07
9.30444e-08
4.31219e-08
3.37768e-08
2.37563e-08
3.35405e-08
2.67702e-07
4.56133e-06
4.11821e-06
3.03631e-06
3.04418e-06
4.34889e-06
4.65828e-06
4.35352e-06
4.73538e-06
2.57791e-06
1.08897e-06
8.51191e-07
1.69111e-06
2.07908e-06
2.40137e-06
2.60816e-06
3.41392e-06
4.24841e-06
4.73304e-06
4.74502e-06
4.78443e-06
4.67832e-06
4.67378e-06
4.62278e-06
4.66642e-06
4.65073e-06
4.74622e-06
4.8026e-06
4.69453e-06
4.51551e-06
4.27156e-06
2.32116e-06
5.79131e-08
3.48214e-09
9.42421e-10
4.04617e-09
5.67261e-08
1.24801e-06
2.4456e-06
2.27449e-07
1.55424e-08
4.7094e-09
5.00051e-09
1.7103e-08
5.1155e-06
3.45671e-06
3.0416e-06
2.22442e-06
2.26787e-06
2.63842e-06
3.67477e-06
4.37212e-06
4.05862e-06
3.0082e-06
1.21298e-06
2.30957e-07
6.68652e-08
2.17363e-07
3.69835e-06
4.73472e-06
1.70205e-06
3.38573e-08
1.65337e-09
2.23641e-10
1.04034e-10
8.25185e-11
1.06656e-10
1.58245e-10
1.74027e-10
1.30203e-10
1.08897e-10
8.7351e-11
7.40429e-11
6.14741e-11
4.49438e-11
4.31792e-12
1.95064e-13
6.05999e-11
5.73628e-10
1.867e-10
2.4923e-11
9.39785e-12
2.64406e-12
2.47393e-12
1.57521e-12
7.46843e-13
2.88651e-13
1.0353e-15
9.16518e-18
7.31961e-21
1.32917e-24
9.36045e-29
5.13401e-33
2.58735e-37
1.75209e-41
1.45008e-45
1.30995e-49
1.24221e-53
1.02419e-57
9.75422e-62
9.05348e-66
1.48375e-69
3.6427e-73
1.03801e-76
2.69858e-80
6.96316e-84
1.342e-87
3.3401e-91
7.35786e-95
3.65046e-98
1.18863e-101
1.4108e-105
7.94375e-110
1.50949e-114
2.32402e-119
5.38412e-124
3.67729e-128
5.32487e-132
1.29821e-135
2.49725e-139
5.48135e-143
1.02859e-146
1.64838e-150
3.84094e-154
6.97668e-158
1.2627e-161
2.55154e-165
6.218e-169
2.08368e-172
6.07421e-178
2.0056e-183
7.3097e-189
3.10271e-194
1.48854e-199
7.70923e-205
4.02054e-210
1.59247e-215
4.25733e-221
7.81867e-227
1.1136e-232
1.36391e-238
1.50277e-244
1.28083e-250
1.36271e-256
1.32798e-262
1.50425e-268
2.04247e-274
2.62749e-280
3.87396e-286
5.5848e-292
9.01552e-298
1.42175e-303
2.41622e-309
4.05297e-315
7.32699e-321
0
0
0
0
0
0
0
0
0
0
0
0
0
0
0
0
0
0
0
0
0
0
0
0
0
0
0
0
0
0
0
0
0
0
0
0
0
0
0
0
0
0
0
0
0
0
0
0
0
0
0
0
0
0
0
0
0
0
0
0
0
0
0
0
0
0
0
0
0
0
0
0
0
0
0
0
0
0
0
0
0
0
0
0
0
0
0
0
0
0
0
0
0
0
0
0
0
0
0
0
0
0
0
0
0
0
0
0
0
0
0
0
0
0
0
0
0
0
0
0
0
0
0
0
0
0
0
0
0
0
0
0
0
0
0
0
0
0
0
0
0
0
0
0
0
0
0
0
0
0
0
0
0
0
0
0
0
0
0
0
0
0
0
0
0
0
0
0
0
0
0
0
0
0
0
0
0
0
0
0
0
1.31743e-08
4.65037e-09
5.42557e-10
3.86823e-10
6.37209e-09
1.27757e-06
8.33516e-06
9.33981e-06
8.57376e-06
8.49809e-06
8.04782e-06
7.00396e-06
5.30408e-06
2.96858e-06
8.2987e-07
2.25301e-07
1.71749e-07
9.14262e-07
6.92676e-06
3.36468e-06
4.4618e-07
2.32957e-08
8.60961e-10
2.73926e-10
2.16062e-09
3.57751e-06
1.99927e-06
9.41717e-07
7.06425e-07
7.77476e-07
1.02557e-06
1.28256e-06
1.40521e-06
1.55906e-06
1.80695e-06
1.79227e-06
1.5004e-06
1.39258e-06
1.82832e-06
2.66907e-06
3.28412e-06
3.5137e-06
3.96067e-06
4.39747e-06
4.63631e-06
4.63261e-06
4.84467e-06
5.01537e-06
5.21709e-06
5.0822e-06
5.03934e-06
5.24683e-06
6.88132e-06
8.67301e-06
8.28388e-06
6.38581e-06
4.10644e-06
1.16195e-06
8.30572e-08
2.50405e-08
1.31764e-08
1.50811e-08
1.47004e-08
2.1772e-08
2.15036e-08
5.77982e-08
2.15192e-06
4.38613e-06
2.5978e-06
2.23383e-06
2.50631e-06
2.95216e-06
2.64889e-06
1.91652e-06
1.39278e-06
1.52167e-06
2.4519e-06
2.98756e-06