/*--------------------------------*- C++ -*----------------------------------*\
| =========                 |                                                 |
| \\      /  F ield         | OpenFOAM: The Open Source CFD Toolbox           |
|  \\    /   O peration     | Version:  2.1.1                                 |
|   \\  /    A nd           | Web:      www.OpenFOAM.org                      |
|    \\/     M anipulation  |                                                 |
\*---------------------------------------------------------------------------*/
FoamFile
{
    version     2.0;
    format      ascii;
    class       volScalarField;
    location    "0.000450000";
    object      H2O2;
}
// * * * * * * * * * * * * * * * * * * * * * * * * * * * * * * * * * * * * * //

dimensions      [0 0 0 0 0 0 0];

internalField   nonuniform List<scalar> 
12384
(
5.69819e-11
2.86862e-11
2.99417e-12
5.64765e-14
1.21599e-15
1.86521e-17
2.48002e-19
3.22822e-21
3.20299e-23
2.72725e-25
2.1746e-27
1.53715e-29
9.50258e-32
5.60576e-34
1.54847e-49
4.71514e-51
2.37292e-53
9.98387e-56
3.85716e-58
1.42667e-60
5.24482e-63
1.96662e-65
7.75534e-68
3.28777e-70
1.52507e-72
7.6021e-75
3.9946e-77
2.14114e-79
1.15797e-81
6.28843e-84
3.48427e-86
1.97639e-88
1.1511e-90
6.74624e-93
3.86907e-95
2.10689e-97
1.10244e-99
5.30609e-102
2.40264e-104
9.97843e-107
3.83681e-109
1.34038e-111
4.2559e-114
1.12121e-116
8.91795e-128
3.48969e-128
2.34466e-130
1.02152e-132
3.62089e-135
1.13407e-137
3.27641e-140
8.95333e-143
2.33768e-145
5.91552e-148
1.45248e-150
3.45479e-153
8.00445e-156
1.80719e-158
3.98755e-161
8.58491e-164
1.8033e-166
3.70141e-169
7.3863e-172
1.44257e-175
5.30015e-179
4.2171e-182
5.35833e-185
7.08712e-188
8.4938e-191
8.90944e-194
8.11547e-197
6.38562e-200
4.28838e-203
3.25172e-207
5.15727e-226
1.54406e-223
3.25229e-226
3.67119e-229
3.08113e-232
2.16295e-235
1.36804e-238
7.93399e-242
4.31661e-245
2.23947e-248
1.07884e-251
4.83738e-255
2.06787e-258
8.45103e-262
3.25233e-265
1.16715e-268
3.94335e-272
1.26523e-275
3.84003e-279
1.11876e-282
3.10212e-286
8.18491e-290
2.09079e-293
5.2365e-297
1.2993e-300
3.25472e-304
8.30002e-308
2.09771e-311
5.24211e-315
2.62714e-319
0
0
0
0
0
0
0
0
0
0
0
0
0
0
0
0
0
0
0
0
0
0
0
0
0
0
0
0
0
0
0
0
0
0
0
0
0
0
0
0
0
0
0
0
0
0
0
0
0
0
0
0
0
0
0
0
0
0
0
0
0
0
0
0
0
0
0
0
0
0
0
0
0
0
0
0
0
0
0
0
0
0
0
0
0
0
0
0
0
0
0
0
0
0
0
0
0
0
0
0
0
0
0
0
0
0
0
0
0
0
0
0
0
0
0
0
0
0
0
0
0
0
0
0
0
0
0
0
0
0
0
0
0
0
0
0
0
0
0
0
0
0
0
0
0
0
0
0
0
0
0
0
0
0
0
0
0
0
0
0
0
0
0
0
0
0
0
0
0
0
0
0
0
0
0
0
0
0
0
0
0
0
0
0
0
0
0
0
0
0
0
0
0
0
0
0
0
0
0
0
0
0
0
0
0
0
0
0
0
0
0
0
0
0
0
0
0
0
0
0
0
0
0
0
0
0
0
0
0
0
0
0
0
0
0
0
0
0
0
0
0
0
0
0
0
0
0
0
0
0
0
0
0
0
0
0
0
0
0
0
0
0
0
0
0
0
0
0
0
0
3.43789e-09
1.825e-09
1.46871e-10
2.10086e-12
2.89104e-14
3.28103e-16
4.92664e-18
5.22611e-20
4.98798e-22
4.11467e-24
3.1686e-26
2.18948e-28
1.44391e-30
8.61145e-33
5.72619e-47
1.72151e-48
6.83081e-51
2.47617e-53
8.51467e-56
2.89543e-58
9.95218e-61
3.55189e-63
1.2713e-65
4.73108e-68
1.84506e-70
7.5532e-73
3.45288e-75
1.66118e-77
8.96524e-80
4.96252e-82
2.90657e-84
1.81822e-86
1.13173e-88
7.23584e-91
4.50591e-93
2.59881e-95
1.49029e-97
7.74979e-100
3.93732e-102
1.86799e-104
8.33096e-107
3.36879e-109
1.18721e-111
2.7664e-114
4.92714e-125
1.94348e-125
1.28351e-127
5.4208e-130
1.87265e-132
5.76745e-135
1.65239e-137
4.49953e-140
1.17567e-142
2.99279e-145
7.39564e-148
1.77151e-150
4.14521e-153
9.47316e-156
2.11753e-158
4.60948e-161
9.78097e-164
2.02623e-166
4.11045e-169
8.12179e-172
3.64944e-175
3.22128e-178
4.3637e-181
6.06002e-184
7.59888e-187
8.20423e-190
7.58452e-193
6.03693e-196
4.06124e-199
4.89778e-203
1.59616e-221
1.71904e-219
3.66605e-222
4.17798e-225
3.53104e-228
2.485e-231
1.55628e-234
8.86093e-238
4.71369e-241
2.36695e-244
1.11427e-247
4.90182e-251
2.06447e-254
8.32149e-258
3.20246e-261
1.15873e-264
3.97668e-268
1.29793e-271
4.05199e-275
1.21077e-278
3.47749e-282
9.50091e-286
2.50984e-289
6.46427e-293
1.64199e-296
4.16333e-300
1.06533e-303
2.71449e-307
6.78395e-311
5.39015e-315
0
0
0
0
0
0
0
0
0
0
0
0
0
0
0
0
0
0
0
0
0
0
0
0
0
0
0
0
0
0
0
0
0
0
0
0
0
0
0
0
0
0
0
0
0
0
0
0
0
0
0
0
0
0
0
0
0
0
0
0
0
0
0
0
0
0
0
0
0
0
0
0
0
0
0
0
0
0
0
0
0
0
0
0
0
0
0
0
0
0
0
0
0
0
0
0
0
0
0
0
0
0
0
0
0
0
0
0
0
0
0
0
0
0
0
0
0
0
0
0
0
0
0
0
0
0
0
0
0
0
0
0
0
0
0
0
0
0
0
0
0
0
0
0
0
0
0
0
0
0
0
0
0
0
0
0
0
0
0
0
0
0
0
0
0
0
0
0
0
0
0
0
0
0
0
0
0
0
0
0
0
0
0
0
0
0
0
0
0
0
0
0
0
0
0
0
0
0
0
0
0
0
0
0
0
0
0
0
0
0
0
0
0
0
0
0
0
0
0
0
0
0
0
0
0
0
0
0
0
0
0
0
0
0
0
0
0
0
0
0
0
0
0
0
0
0
0
0
0
0
0
0
0
0
0
0
0
0
0
0
0
0
0
0
0
0
0
0
0
0
1.21907e-10
1.22564e-10
1.54889e-11
9.49393e-14
3.71787e-16
9.0526e-18
1.41373e-20
2.90245e-23
6.48116e-26
1.97659e-28
4.62841e-31
3.81566e-33
3.29906e-35
2.25003e-37
2.31696e-47
8.85211e-49
2.47187e-51
8.28315e-54
2.75022e-56
9.38086e-59
3.49337e-61
1.35927e-63
5.16012e-66
1.97956e-68
7.18182e-71
2.53066e-73
9.22962e-76
3.13593e-78
1.15503e-80
4.69677e-83
2.10598e-85
1.28409e-87
8.31248e-90
5.69447e-92
4.02285e-94
2.44988e-96
1.67762e-98
1.00255e-100
6.64401e-103
4.08886e-105
2.3801e-107
1.28004e-109
5.72879e-112
1.99244e-115
5.71553e-125
2.63233e-125
1.63538e-127
6.46873e-130
2.11888e-132
6.29955e-135
1.76776e-137
4.73034e-140
1.21688e-142
3.06943e-145
7.46881e-148
1.76476e-150
4.10991e-153
9.38837e-156
2.10737e-158
4.59717e-161
9.81826e-164
2.05508e-166
4.24212e-169
8.61025e-172
1.71764e-174
2.73342e-177
4.56725e-180
6.8339e-183
8.95144e-186
9.87932e-189
9.07544e-192
7.07831e-195
4.60718e-198
3.88362e-202
9.26313e-220
2.96785e-218
5.84557e-221
6.36415e-224
5.15417e-227
3.48097e-230
2.07685e-233
1.1182e-236
5.56769e-240
2.59449e-243
1.13311e-246
4.65446e-250
1.83993e-253
7.00075e-257
2.56967e-260
8.99967e-264
3.03076e-267
9.85349e-271
3.115e-274
9.57193e-278
2.86042e-281
8.2186e-285
2.29747e-288
6.2669e-292
1.67679e-295
4.43044e-299
1.1619e-302
3.00293e-306
7.46747e-310
4.15894e-314
0
0
0
0
0
0
0
0
0
0
0
0
0
0
0
0
0
0
0
0
0
0
0
0
0
0
0
0
0
0
0
0
0
0
0
0
0
0
0
0
0
0
0
0
0
0
0
0
0
0
0
0
0
0
0
0
0
0
0
0
0
0
0
0
0
0
0
0
0
0
0
0
0
0
0
0
0
0
0
0
0
0
0
0
0
0
0
0
0
0
0
0
0
0
0
0
0
0
0
0
0
0
0
0
0
0
0
0
0
0
0
0
0
0
0
0
0
0
0
0
0
0
0
0
0
0
0
0
0
0
0
0
0
0
0
0
0
0
0
0
0
0
0
0
0
0
0
0
0
0
0
0
0
0
0
0
0
0
0
0
0
0
0
0
0
0
0
0
0
0
0
0
0
0
0
0
0
0
0
0
0
0
0
0
0
0
0
0
0
0
0
0
0
0
0
0
0
0
0
0
0
0
0
0
0
0
0
0
0
0
0
0
0
0
0
0
0
0
0
0
0
0
0
0
0
0
0
0
0
0
0
0
0
0
0
0
0
0
0
0
0
0
0
0
0
0
0
0
0
0
0
0
0
0
0
0
0
0
0
0
0
0
0
0
0
0
0
0
0
0
2.84727e-07
1.84511e-07
2.05745e-09
9.29518e-11
3.02431e-12
5.74338e-14
5.3559e-17
6.43491e-20
1.29597e-22
2.01709e-25
4.90562e-28
9.52791e-31
2.50842e-33
7.47271e-36
2.91109e-43
9.07237e-45
2.70517e-47
9.69062e-50
3.09151e-52
1.01232e-54
3.46756e-57
1.31021e-59
5.07752e-62
1.84672e-64
6.85491e-67
2.461e-69
8.19116e-72
2.78361e-74
1.03884e-76
3.236e-79
1.17314e-81
4.41295e-84
1.93337e-86
9.82483e-89
5.51649e-91
3.18882e-93
2.00096e-95
1.22892e-97
8.21434e-100
5.22834e-102
3.23259e-104
1.96498e-106
1.05975e-108
8.5148e-112
6.96043e-121
8.01702e-122
4.68501e-124
1.82353e-126
5.94855e-129
1.7585e-131
4.87946e-134
1.29497e-136
3.32151e-139
8.28556e-142
2.01851e-144
4.81352e-147
1.12575e-149
2.58492e-152
5.8326e-155
1.2942e-157
2.82495e-160
6.06939e-163
1.2835e-165
2.67329e-168
5.48243e-171
1.10776e-173
2.07787e-176
3.26675e-179
4.47617e-182
5.13888e-185
4.79436e-188
3.75405e-191
2.4858e-194
4.37262e-198
5.56939e-215
2.27265e-214
4.02954e-217
4.07871e-220
3.1182e-223
1.99437e-226
1.12102e-229
5.70104e-233
2.67195e-236
1.17058e-239
4.8436e-243
1.90994e-246
7.22377e-250
2.63607e-253
9.31835e-257
3.20238e-260
1.07238e-263
3.50705e-267
1.12135e-270
3.51122e-274
1.07714e-277
3.24201e-281
9.57271e-285
2.77642e-288
7.90784e-292
2.21364e-295
6.08958e-299
1.64671e-302
4.3134e-306
5.09683e-310
0
0
0
0
0
0
0
0
0
0
0
0
0
0
0
0
0
0
0
0
0
0
0
0
0
0
0
0
0
0
0
0
0
0
0
0
0
0
0
0
0
0
0
0
0
0
0
0
0
0
0
0
0
0
0
0
0
0
0
0
0
0
0
0
0
0
0
0
0
0
0
0
0
0
0
0
0
0
0
0
0
0
0
0
0
0
0
0
0
0
0
0
0
0
0
0
0
0
0
0
0
0
0
0
0
0
0
0
0
0
0
0
0
0
0
0
0
0
0
0
0
0
0
0
0
0
0
0
0
0
0
0
0
0
0
0
0
0
0
0
0
0
0
0
0
0
0
0
0
0
0
0
0
0
0
0
0
0
0
0
0
0
0
0
0
0
0
0
0
0
0
0
0
0
0
0
0
0
0
0
0
0
0
0
0
0
0
0
0
0
0
0
0
0
0
0
0
0
0
0
0
0
0
0
0
0
0
0
0
0
0
0
0
0
0
0
0
0
0
0
0
0
0
0
0
0
0
0
0
0
0
0
0
0
0
0
0
0
0
0
0
0
0
0
0
0
0
0
0
0
0
0
0
0
0
0
0
0
0
0
0
0
0
0
0
0
0
0
0
0
2.54519e-07
2.49072e-07
3.09434e-07
1.27517e-08
8.07923e-10
3.15332e-10
5.47252e-13
5.82748e-16
8.97814e-19
1.83927e-21
3.95415e-24
8.87226e-27
2.21764e-29
5.88295e-32
5.18087e-39
1.68797e-40
5.79298e-43
2.10539e-45
7.26146e-48
2.35479e-50
8.09015e-53
3.1043e-55
1.22519e-57
4.71219e-60
1.8093e-62
6.63283e-65
2.41223e-67
8.46605e-70
2.94685e-72
9.90147e-75
3.38887e-77
1.13227e-79
4.00103e-82
1.48855e-84
6.08212e-87
2.74428e-89
1.37559e-91
7.32889e-94
4.28052e-96
2.48728e-98
1.46622e-100
8.76892e-103
5.11142e-105
6.78283e-108
2.23301e-116
7.47734e-118
4.0064e-120
1.52106e-122
4.96316e-125
1.48454e-127
4.19095e-130
1.13391e-132
2.96623e-135
7.54712e-138
1.8738e-140
4.55139e-143
1.08344e-145
2.53071e-148
5.80582e-151
1.30905e-153
2.90315e-156
6.33387e-159
1.3602e-161
2.8757e-164
5.98744e-167
1.22749e-169
2.47903e-172
4.77095e-175
6.52691e-178
7.44097e-181
6.66752e-184
4.87622e-187
2.96673e-190
5.2645e-194
1.059e-209
5.30148e-210
7.87944e-213
6.94569e-216
4.73788e-219
2.7528e-222
1.42536e-225
6.74361e-229
2.96235e-232
1.22253e-235
4.78487e-239
1.78936e-242
6.43761e-246
2.23915e-249
7.56391e-253
2.48934e-256
8.00436e-260
2.51866e-263
7.76896e-267
2.3511e-270
6.98827e-274
2.04056e-277
5.85932e-281
1.65437e-284
4.59633e-288
1.25668e-291
3.38179e-295
8.95939e-299
2.3037e-302
2.83116e-306
0
0
0
0
0
0
0
0
0
0
0
0
0
0
0
0
0
0
0
0
0
0
0
0
0
0
0
0
0
0
0
0
0
0
0
0
0
0
0
0
0
0
0
0
0
0
0
0
0
0
0
0
0
0
0
0
0
0
0
0
0
0
0
0
0
0
0
0
0
0
0
0
0
0
0
0
0
0
0
0
0
0
0
0
0
0
0
0
0
0
0
0
0
0
0
0
0
0
0
0
0
0
0
0
0
0
0
0
0
0
0
0
0
0
0
0
0
0
0
0
0
0
0
0
0
0
0
0
0
0
0
0
0
0
0
0
0
0
0
0
0
0
0
0
0
0
0
0
0
0
0
0
0
0
0
0
0
0
0
0
0
0
0
0
0
0
0
0
0
0
0
0
0
0
0
0
0
0
0
0
0
0
0
0
0
0
0
0
0
0
0
0
0
0
0
0
0
0
0
0
0
0
0
0
0
0
0
0
0
0
0
0
0
0
0
0
0
0
0
0
0
0
0
0
0
0
0
0
0
0
0
0
0
0
0
0
0
0
0
0
0
0
0
0
0
0
0
0
0
0
0
0
0
0
0
0
0
0
0
0
0
0
0
0
0
0
0
0
0
0
2.3264e-07
2.24165e-07
2.31923e-07
3.01151e-07
3.08744e-08
1.45501e-08
8.12133e-10
1.14359e-12
2.3876e-15
4.91924e-18
1.14309e-20
3.00879e-23
7.74285e-26
2.07582e-28
3.36621e-35
1.1593e-36
4.65393e-39
1.94992e-41
6.87657e-44
2.25304e-46
7.00091e-49
2.63517e-51
1.05752e-53
4.11854e-56
1.62723e-58
6.1252e-61
2.28585e-63
8.15447e-66
2.94996e-68
9.91543e-71
3.47276e-73
1.1247e-75
3.88298e-78
1.28069e-80
4.56785e-83
1.69291e-85
6.81882e-88
3.01456e-90
1.46193e-92
7.56966e-95
4.07787e-97
2.27026e-99
1.29744e-101
2.85973e-104
2.4306e-112
3.47051e-114
1.69972e-116
6.31281e-119
2.06748e-121
6.27904e-124
1.808e-126
4.9975e-129
1.33581e-131
3.47067e-134
8.79454e-137
2.1778e-139
5.28145e-142
1.25569e-144
2.93015e-147
6.7178e-150
1.51381e-152
3.35572e-155
7.31786e-158
1.57114e-160
3.32038e-163
6.90983e-166
1.41595e-168
2.85819e-171
5.5694e-174
6.39484e-177
5.55411e-180
3.82183e-183
2.11485e-186
3.54548e-190
1.13511e-204
7.40182e-206
8.88012e-209
6.67187e-212
3.99852e-215
2.08711e-218
9.87242e-222
4.32131e-225
1.77195e-228
6.87074e-232
2.5376e-235
8.98687e-239
3.06951e-242
1.01615e-245
3.27369e-249
1.03006e-252
3.17292e-256
9.58996e-260
2.84702e-263
8.314e-267
2.38901e-270
6.75987e-274
1.8839e-277
5.17374e-281
1.40005e-284
3.73496e-288
9.82156e-292
2.5451e-295
6.41422e-299
7.75301e-303
3.61014e-320
1.59089e-321
0
0
0
0
0
0
0
0
0
0
0
0
0
0
0
0
0
0
0
0
0
0
0
0
0
0
0
0
0
0
0
0
0
0
0
0
0
0
0
0
0
0
0
0
0
0
0
0
0
0
0
0
0
0
0
0
0
0
0
0
0
0
0
0
0
0
0
0
0
0
0
0
0
0
0
0
0
0
0
0
0
0
0
0
0
0
0
0
0
0
0
0
0
0
0
0
0
0
0
0
0
0
0
0
0
0
0
0
0
0
0
0
0
0
0
0
0
0
0
0
0
0
0
0
0
0
0
0
0
0
0
0
0
0
0
0
0
0
0
0
0
0
0
0
0
0
0
0
0
0
0
0
0
0
0
0
0
0
0
0
0
0
0
0
0
0
0
0
0
0
0
0
0
0
0
0
0
0
0
0
0
0
0
0
0
0
0
0
0
0
0
0
0
0
0
0
0
0
0
0
0
0
0
0
0
0
0
0
0
0
0
0
0
0
0
0
0
0
0
0
0
0
0
0
0
0
0
0
0
0
0
0
0
0
0
0
0
0
0
0
0
0
0
0
0
0
0
0
0
0
0
0
0
0
0
0
0
0
0
0
0
0
0
0
0
0
0
0
2.35134e-07
2.29758e-07
2.25909e-07
2.44317e-07
2.51638e-07
2.50511e-07
1.96094e-08
4.59568e-10
9.97958e-13
3.45663e-15
1.47572e-17
5.53426e-20
1.794e-22
5.07898e-25
1.09952e-31
3.73872e-33
1.84251e-35
8.60351e-38
3.51944e-40
1.19158e-42
3.9381e-45
1.40267e-47
5.85928e-50
2.39273e-52
9.86682e-55
3.83546e-57
1.49271e-59
5.48868e-62
2.03983e-64
7.15384e-67
2.53009e-69
8.64567e-72
2.93417e-74
9.84408e-77
3.32149e-79
1.15166e-81
4.0934e-84
1.587e-86
6.50347e-89
2.96302e-91
1.41866e-93
7.14941e-96
3.70943e-98
1.3387e-100
2.29896e-108
1.67282e-110
7.46963e-113
2.72253e-115
8.98165e-118
2.778e-120
8.18294e-123
2.31646e-125
6.33803e-128
1.68456e-130
4.36222e-133
1.10271e-135
2.72668e-138
6.604e-141
1.56874e-143
3.65811e-146
8.38048e-149
1.88782e-151
4.1821e-154
9.11823e-157
1.95632e-159
4.13188e-162
8.59143e-165
1.75936e-167
3.54609e-170
6.90019e-173
5.77835e-176
3.79167e-179
1.91093e-182
3.25489e-186
1.68885e-199
1.35591e-201
1.23449e-204
7.65885e-208
3.95491e-211
1.8301e-214
7.83995e-218
3.15727e-221
1.20448e-224
4.37852e-228
1.52389e-231
5.10453e-235
1.65326e-238
5.2021e-242
1.59634e-245
4.79378e-249
1.41236e-252
4.09175e-256
1.16711e-259
3.2819e-263
9.1014e-267
2.49075e-270
6.72709e-274
1.79382e-277
4.72157e-281
1.22698e-284
3.1467e-288
7.96062e-292
1.96209e-295
2.46579e-299
7.11755e-315
3.81422e-317
2.54296e-320
9.88131e-324
0
0
0
0
0
0
0
0
0
0
0
0
0
0
0
0
0
0
0
0
0
0
0
0
0
0
0
0
0
0
0
0
0
0
0
0
0
0
0
0
0
0
0
0
0
0
0
0
0
0
0
0
0
0
0
0
0
0
0
0
0
0
0
0
0
0
0
0
0
0
0
0
0
0
0
0
0
0
0
0
0
0
0
0
0
0
0
0
0
0
0
0
0
0
0
0
0
0
0
0
0
0
0
0
0
0
0
0
0
0
0
0
0
0
0
0
0
0
0
0
0
0
0
0
0
0
0
0
0
0
0
0
0
0
0
0
0
0
0
0
0
0
0
0
0
0
0
0
0
0
0
0
0
0
0
0
0
0
0
0
0
0
0
0
0
0
0
0
0
0
0
0
0
0
0
0
0
0
0
0
0
0
0
0
0
0
0
0
0
0
0
0
0
0
0
0
0
0
0
0
0
0
0
0
0
0
0
0
0
0
0
0
0
0
0
0
0
0
0
0
0
0
0
0
0
0
0
0
0
0
0
0
0
0
0
0
0
0
0
0
0
0
0
0
0
0
0
0
0
0
0
0
0
0
0
0
0
0
0
0
0
0
0
0
0
0
2.37401e-07
2.32319e-07
2.32209e-07
2.29253e-07
1.7123e-07
2.27082e-07
5.18745e-08
4.15882e-09
2.31959e-11
1.02764e-13
4.66639e-16
2.35509e-18
1.08474e-20
4.56907e-23
5.06254e-29
1.4856e-30
1.17578e-32
6.29886e-35
3.09307e-37
1.11285e-39
3.74315e-42
1.32743e-44
5.60201e-47
2.43762e-49
1.03634e-51
4.21739e-54
1.70436e-56
6.38204e-59
2.45219e-61
8.88261e-64
3.21973e-66
1.13429e-68
3.93606e-71
1.34827e-73
4.55691e-76
1.55565e-78
5.25619e-81
1.88404e-83
6.85318e-86
2.77897e-88
1.16689e-90
5.4151e-93
2.59495e-95
1.15899e-97
3.85149e-105
1.88804e-107
7.64711e-110
2.7168e-112
8.99385e-115
2.8297e-117
8.53376e-120
2.47823e-122
6.95246e-125
1.89363e-127
5.02179e-130
1.29777e-132
3.27618e-135
8.09125e-138
1.95785e-140
4.64666e-143
1.08281e-145
2.47943e-148
5.57973e-151
1.23498e-153
2.68887e-156
5.75926e-159
1.21446e-161
2.52138e-164
5.1501e-167
1.03449e-169
1.9944e-172
1.24565e-175
5.60039e-179
1.13385e-182
9.05757e-195
8.98169e-198
5.58802e-201
2.7357e-204
1.18695e-207
4.79015e-211
1.84014e-214
6.78279e-218
2.40324e-221
8.19313e-225
2.69142e-228
8.53556e-232
2.62241e-235
7.83898e-239
2.28925e-242
6.55334e-246
1.84403e-249
5.11164e-253
1.39753e-256
3.77361e-260
1.00695e-263
2.656e-267
6.92813e-271
1.78752e-274
4.56003e-278
1.14957e-281
2.85952e-285
6.99927e-289
1.66761e-292
2.17423e-296
5.07634e-310
3.34762e-313
1.48096e-316
5.29391e-320
1.4822e-323
0
0
0
0
0
0
0
0
0
0
0
0
0
0
0
0
0
0
0
0
0
0
0
0
0
0
0
0
0
0
0
0
0
0
0
0
0
0
0
0
0
0
0
0
0
0
0
0
0
0
0
0
0
0
0
0
0
0
0
0
0
0
0
0
0
0
0
0
0
0
0
0
0
0
0
0
0
0
0
0
0
0
0
0
0
0
0
0
0
0
0
0
0
0
0
0
0
0
0
0
0
0
0
0
0
0
0
0
0
0
0
0
0
0
0
0
0
0
0
0
0
0
0
0
0
0
0
0
0
0
0
0
0
0
0
0
0
0
0
0
0
0
0
0
0
0
0
0
0
0
0
0
0
0
0
0
0
0
0
0
0
0
0
0
0
0
0
0
0
0
0
0
0
0
0
0
0
0
0
0
0
0
0
0
0
0
0
0
0
0
0
0
0
0
0
0
0
0
0
0
0
0
0
0
0
0
0
0
0
0
0
0
0
0
0
0
0
0
0
0
0
0
0
0
0
0
0
0
0
0
0
0
0
0
0
0
0
0
0
0
0
0
0
0
0
0
0
0
0
0
0
0
0
0
0
0
0
0
0
0
0
0
0
0
0
2.3855e-07
2.35742e-07
2.2745e-07
1.27252e-07
5.11793e-08
7.36561e-08
2.15637e-08
2.49202e-09
4.32701e-11
2.67026e-13
2.49403e-15
2.58824e-17
2.63092e-19
2.58369e-21
1.48958e-23
9.04222e-26
6.96759e-28
4.89777e-30
5.1279e-32
4.29768e-34
3.16201e-36
2.05352e-38
1.1741e-40
6.5534e-43
3.29114e-45
1.57912e-47
7.28727e-50
3.12808e-52
1.32096e-54
5.2977e-57
2.07829e-59
7.90696e-62
2.97424e-64
1.07936e-66
3.92789e-69
1.39454e-71
4.8476e-74
1.71495e-76
5.75097e-79
2.0277e-81
7.02262e-84
2.59854e-86
9.72598e-89
4.14765e-91
1.75386e-93
8.15637e-96
3.42943e-98
1.3358e-100
5.12788e-103
1.97213e-105
7.07254e-108
2.42267e-110
7.99491e-113
2.55041e-115
7.86435e-118
2.34356e-120
6.75053e-123
1.88577e-125
5.12731e-128
1.35717e-130
3.50326e-133
8.83481e-136
2.17985e-138
5.26922e-141
1.24943e-143
2.90866e-146
6.64942e-149
1.49392e-151
3.30047e-154
7.16931e-157
1.5328e-159
3.22674e-162
6.68204e-165
1.36001e-167
2.71517e-170
5.13227e-173
1.81975e-176
5.11843e-180
7.75136e-184
5.62573e-188
1.91018e-191
7.79533e-195
2.84462e-198
1.01119e-201
3.52257e-205
1.20253e-208
4.05335e-212
1.35041e-215
4.42132e-219
1.41657e-222
4.42602e-226
1.34077e-229
3.93019e-233
1.1189e-236
3.11125e-240
8.48525e-244
2.27667e-247
6.02327e-251
1.56896e-254
4.02671e-258
1.02011e-261
2.54602e-265
6.27683e-269
1.53301e-272
3.70326e-276
8.81508e-280
2.04511e-283
4.50631e-287
9.33514e-291
1.84612e-294
2.11582e-298
7.81244e-303
1.38815e-306
3.75276e-310
9.48397e-314
2.40214e-317
6.13135e-321
0
0
0
0
0
0
0
0
0
0
0
0
0
0
0
0
0
0
0
0
0
0
0
0
0
0
0
0
0
0
0
0
0
0
0
0
0
0
0
0
0
0
0
0
0
0
0
0
0
0
0
0
0
0
0
0
0
0
0
0
0
0
0
0
0
0
0
0
0
0
0
0
0
0
0
0
0
0
0
0
0
0
0
0
0
0
0
0
0
0
0
0
0
0
0
0
0
0
0
0
0
0
0
0
0
0
0
0
0
0
0
0
0
0
0
0
0
0
0
0
0
0
0
0
0
0
0
0
0
0
0
0
0
0
0
0
0
0
0
0
0
0
0
0
0
0
0
0
0
0
0
0
0
0
0
0
0
0
0
0
0
0
0
0
0
0
0
0
0
0
0
0
0
0
0
0
0
0
0
0
0
0
0
0
0
0
0
0
0
0
0
0
0
0
0
0
0
0
0
0
0
0
0
0
0
0
0
0
0
0
0
0
0
0
0
0
0
0
0
0
0
0
0
0
0
0
0
0
0
0
0
0
0
0
0
0
0
0
0
0
0
0
0
0
0
0
0
0
0
0
0
0
0
0
0
0
0
0
0
0
0
0
0
0
0
0
0
0
0
0
0
0
0
0
0
0
0
0
0
0
0
0
0
2.384e-07
2.35131e-07
1.05508e-07
1.11317e-08
9.74265e-09
2.19363e-08
9.81042e-09
8.19881e-10
1.3062e-11
8.79063e-14
8.73633e-16
9.22772e-18
1.13571e-19
1.51755e-21
1.01895e-23
8.9137e-26
4.62764e-28
3.31337e-30
2.7686e-32
2.11992e-34
1.59798e-36
1.15978e-38
7.29393e-41
4.63413e-43
2.68589e-45
1.50611e-47
7.84105e-50
4.10619e-52
1.88325e-54
9.20779e-57
4.01219e-59
1.74685e-61
7.4094e-64
3.00344e-66
1.20113e-68
4.73485e-71
1.82223e-73
7.00957e-76
2.73257e-78
1.06413e-80
4.3509e-83
1.80963e-85
7.96189e-88
3.59116e-90
1.68494e-92
8.02221e-95
3.77755e-97
1.79414e-99
8.37008e-102
3.53209e-104
1.34692e-106
4.7121e-109
1.56166e-111
5.00042e-114
1.55619e-116
4.70086e-119
1.37625e-121
3.91108e-124
1.08227e-126
2.92053e-129
7.69266e-132
1.98015e-134
4.98283e-137
1.22664e-139
2.9581e-142
6.99529e-145
1.62295e-147
3.70001e-150
8.30074e-153
1.83376e-155
3.9911e-158
8.55931e-161
1.80603e-163
3.74264e-166
7.61618e-169
1.52244e-171
2.71451e-174
6.49696e-178
1.48077e-181
3.68345e-185
8.82976e-189
2.06916e-192
5.33867e-196
1.42286e-199
3.84537e-203
1.05144e-206
2.92283e-210
8.20478e-214
2.30265e-217
6.44294e-221
1.79187e-224
4.93118e-228
1.34056e-231
3.59872e-235
9.49179e-239
2.44862e-242
6.17683e-246
1.52338e-249
3.67459e-253
8.73857e-257
2.06458e-260
4.87459e-264
1.15664e-267
2.76077e-271
6.56062e-275
1.53229e-278
3.51007e-282
7.87562e-286
1.73768e-289
3.69549e-293
8.30565e-297
2.07918e-300
4.69118e-304
9.29462e-308
1.87303e-311
3.78136e-315
7.71073e-319
1.58101e-322
0
0
0
0
0
0
0
0
0
0
0
0
0
0
0
0
0
0
0
0
0
0
0
0
0
0
0
0
0
0
0
0
0
0
0
0
0
0
0
0
0
0
0
0
0
0
0
0
0
0
0
0
0
0
0
0
0
0
0
0
0
0
0
0
0
0
0
0
0
0
0
0
0
0
0
0
0
0
0
0
0
0
0
0
0
0
0
0
0
0
0
0
0
0
0
0
0
0
0
0
0
0
0
0
0
0
0
0
0
0
0
0
0
0
0
0
0
0
0
0
0
0
0
0
0
0
0
0
0
0
0
0
0
0
0
0
0
0
0
0
0
0
0
0
0
0
0
0
0
0
0
0
0
0
0
0
0
0
0
0
0
0
0
0
0
0
0
0
0
0
0
0
0
0
0
0
0
0
0
0
0
0
0
0
0
0
0
0
0
0
0
0
0
0
0
0
0
0
0
0
0
0
0
0
0
0
0
0
0
0
0
0
0
0
0
0
0
0
0
0
0
0
0
0
0
0
0
0
0
0
0
0
0
0
0
0
0
0
0
0
0
0
0
0
0
0
0
0
0
0
0
0
0
0
0
0
0
0
0
0
0
0
0
0
0
0
0
0
0
0
0
0
0
0
0
0
0
0
0
0
0
0
2.2439e-07
1.39853e-07
3.4342e-09
5.99446e-10
9.61523e-10
3.87554e-09
1.3927e-09
7.88148e-11
4.28829e-13
3.59936e-15
3.21491e-17
3.35549e-19
3.65314e-21
4.69071e-23
3.3722e-25
2.45296e-27
1.4261e-29
8.31367e-32
6.05851e-34
3.96782e-36
2.48782e-38
1.49288e-40
8.68077e-43
4.76056e-45
2.55202e-47
1.32291e-49
6.43259e-52
3.18897e-54
1.45547e-56
6.59984e-59
2.94454e-61
1.22893e-63
5.18681e-66
2.10224e-68
8.30668e-71
3.25711e-73
1.25583e-75
4.79109e-78
1.86257e-80
7.22344e-83
2.93383e-85
1.21759e-87
5.35004e-90
2.41907e-92
1.14243e-94
5.46519e-97
2.66546e-99
1.28624e-101
6.07873e-104
2.74571e-106
1.14263e-108
4.32621e-111
1.51769e-113
5.04977e-116
1.61666e-118
5.00576e-121
1.5025e-123
4.38199e-126
1.24397e-128
3.43928e-131
9.26526e-134
2.43593e-136
6.25663e-139
1.57181e-141
3.8684e-144
9.33566e-147
2.2107e-149
5.14493e-152
1.17821e-154
2.65674e-157
5.89856e-160
1.28902e-162
2.76885e-165
5.83852e-168
1.20906e-170
2.45795e-173
1.60377e-176
2.52069e-180
7.43002e-184
2.60157e-187
7.6172e-191
1.89778e-194
4.7277e-198
1.16881e-201
2.92926e-205
7.5863e-209
2.04512e-212
5.66386e-216
1.58309e-219
4.41899e-223
1.22614e-226
3.36422e-230
9.07027e-234
2.39782e-237
6.19387e-241
1.56387e-244
3.87838e-248
9.4664e-252
2.27624e-255
5.42706e-259
1.29076e-262
3.08286e-266
7.41491e-270
1.79245e-273
4.31018e-277
1.01666e-280
2.34642e-284
5.29669e-288
1.16786e-291
2.45146e-295
5.74315e-299
1.49729e-302
3.33867e-306
6.51597e-310
1.29863e-313
2.59178e-317
5.20745e-321
0
0
0
0
0
0
0
0
0
0
0
0
0
0
0
0
0
0
0
0
0
0
0
0
0
0
0
0
0
0
0
0
0
0
0
0
0
0
0
0
0
0
0
0
0
0
0
0
0
0
0
0
0
0
0
0
0
0
0
0
0
0
0
0
0
0
0
0
0
0
0
0
0
0
0
0
0
0
0
0
0
0
0
0
0
0
0
0
0
0
0
0
0
0
0
0
0
0
0
0
0
0
0
0
0
0
0
0
0
0
0
0
0
0
0
0
0
0
0
0
0
0
0
0
0
0
0
0
0
0
0
0
0
0
0
0
0
0
0
0
0
0
0
0
0
0
0
0
0
0
0
0
0
0
0
0
0
0
0
0
0
0
0
0
0
0
0
0
0
0
0
0
0
0
0
0
0
0
0
0
0
0
0
0
0
0
0
0
0
0
0
0
0
0
0
0
0
0
0
0
0
0
0
0
0
0
0
0
0
0
0
0
0
0
0
0
0
0
0
0
0
0
0
0
0
0
0
0
0
0
0
0
0
0
0
0
0
0
0
0
0
0
0
0
0
0
0
0
0
0
0
0
0
0
0
0
0
0
0
0
0
0
0
0
0
0
0
0
0
0
0
0
0
0
0
0
0
0
0
0
0
0
0
5.88496e-08
6.00703e-09
1.42671e-10
1.1521e-10
8.84901e-11
1.8482e-10
6.27373e-11
2.40521e-12
6.58796e-15
3.22196e-17
1.83204e-19
1.43345e-21
1.45952e-23
1.63226e-25
1.26928e-27
1.02165e-29
6.77867e-32
4.52981e-34
2.97131e-36
1.85525e-38
1.1388e-40
6.49521e-43
3.72423e-45
2.01183e-47
1.03571e-49
5.39893e-52
2.53368e-54
1.22859e-56
5.58433e-59
2.41362e-61
1.06507e-63
4.33298e-66
1.77164e-68
7.09558e-71
2.7414e-73
1.05817e-75
4.07268e-78
1.5452e-80
6.05215e-83
2.39072e-85
9.90821e-88
4.24497e-90
1.91217e-92
8.90431e-95
4.29323e-97
2.10103e-99
1.03981e-101
5.11219e-104
2.47236e-106
1.14959e-108
4.97015e-111
1.95673e-113
7.03724e-116
2.35782e-118
7.52766e-121
2.31506e-123
6.89164e-126
1.99177e-128
5.59732e-131
1.53128e-133
4.08669e-136
1.06604e-138
2.71974e-141
6.7896e-144
1.6598e-146
3.9754e-149
9.33709e-152
2.15431e-154
4.89016e-157
1.0925e-159
2.40205e-162
5.20008e-165
1.10771e-167
2.31813e-170
4.76909e-173
8.83665e-176
2.46721e-179
6.04186e-183
1.57864e-186
4.71016e-190
1.32883e-193
3.61166e-197
1.0294e-200
2.9453e-204
8.4093e-208
2.41777e-211
6.97334e-215
1.98866e-218
5.58862e-222
1.54936e-225
4.23852e-229
1.14494e-232
3.06094e-236
8.12003e-240
2.13483e-243
5.5605e-247
1.43414e-250
3.65081e-254
9.16584e-258
2.2777e-261
5.63213e-265
1.38973e-268
3.42205e-272
8.42533e-276
2.06585e-279
4.98347e-283
1.18145e-286
2.7727e-290
6.40282e-294
1.40649e-297
3.27436e-301
8.17632e-305
1.81429e-308
3.71046e-312
7.84454e-316
1.66836e-319
3.45846e-323
0
0
0
0
0
0
0
0
0
0
0
0
0
0
0
0
0
0
0
0
0
0
0
0
0
0
0
0
0
0
0
0
0
0
0
0
0
0
0
0
0
0
0
0
0
0
0
0
0
0
0
0
0
0
0
0
0
0
0
0
0
0
0
0
0
0
0
0
0
0
0
0
0
0
0
0
0
0
0
0
0
0
0
0
0
0
0
0
0
0
0
0
0
0
0
0
0
0
0
0
0
0
0
0
0
0
0
0
0
0
0
0
0
0
0
0
0
0
0
0
0
0
0
0
0
0
0
0
0
0
0
0
0
0
0
0
0
0
0
0
0
0
0
0
0
0
0
0
0
0
0
0
0
0
0
0
0
0
0
0
0
0
0
0
0
0
0
0
0
0
0
0
0
0
0
0
0
0
0
0
0
0
0
0
0
0
0
0
0
0
0
0
0
0
0
0
0
0
0
0
0
0
0
0
0
0
0
0
0
0
0
0
0
0
0
0
0
0
0
0
0
0
0
0
0
0
0
0
0
0
0
0
0
0
0
0
0
0
0
0
0
0
0
0
0
0
0
0
0
0
0
0
0
0
0
0
0
0
0
0
0
0
0
0
0
0
0
0
0
0
0
0
0
0
0
0
0
0
0
0
0
0
0
1.69295e-09
8.27357e-11
3.97196e-11
1.66606e-11
4.55768e-12
1.99439e-12
2.53852e-13
1.99152e-15
8.70454e-18
5.21664e-20
3.96818e-22
3.54704e-24
3.41686e-26
3.4842e-28
2.94732e-30
2.40396e-32
1.75303e-34
1.16378e-36
7.6088e-39
4.52077e-41
2.71533e-43
1.48547e-45
8.15338e-48
4.26682e-50
2.12029e-52
1.05346e-54
4.92978e-57
2.21936e-59
1.00812e-61
4.17169e-64
1.76519e-66
7.14832e-69
2.79536e-71
1.10221e-73
4.20302e-76
1.60011e-78
6.14951e-81
2.35665e-83
9.33784e-86
3.8079e-88
1.61803e-90
7.19638e-93
3.32211e-95
1.58881e-97
7.75837e-100
3.83745e-102
1.90873e-104
9.36588e-107
4.53793e-109
2.14237e-111
9.48315e-114
3.80018e-116
1.36878e-118
4.55739e-121
1.4381e-123
4.35562e-126
1.27502e-128
3.62154e-131
1.00046e-133
2.69273e-136
7.07377e-139
1.81617e-141
4.56178e-144
1.12185e-146
2.70331e-149
6.38857e-152
1.48182e-154
3.37697e-157
7.56677e-160
1.66785e-162
3.61755e-165
7.72437e-168
1.62371e-170
3.35948e-173
6.68304e-176
2.84052e-179
1.00908e-182
3.11803e-186
9.44104e-190
2.9442e-193
9.03421e-197
2.81807e-200
8.88347e-204
2.73913e-207
8.27863e-211
2.46268e-214
7.22979e-218
2.09778e-221
6.02186e-225
1.71064e-228
4.80872e-232
1.33718e-235
3.67855e-239
1.00142e-242
2.69924e-246
7.20675e-250
1.90651e-253
4.99817e-257
1.29869e-260
3.34571e-264
8.55017e-268
2.1683e-271
5.45742e-275
1.36327e-278
3.37852e-282
8.29908e-286
2.01989e-289
4.87014e-293
1.16284e-296
2.6911e-300
6.25333e-304
1.47433e-307
3.3417e-311
7.53909e-315
1.71732e-318
3.85371e-322
0
0
0
0
0
0
0
0
0
0
0
0
0
0
0
0
0
0
0
0
0
0
0
0
0
0
0
0
0
0
0
0
0
0
0
0
0
0
0
0
0
0
0
0
0
0
0
0
0
0
0
0
0
0
0
0
0
0
0
0
0
0
0
0
0
0
0
0
0
0
0
0
0
0
0
0
0
0
0
0
0
0
0
0
0
0
0
0
0
0
0
0
0
0
0
0
0
0
0
0
0
0
0
0
0
0
0
0
0
0
0
0
0
0
0
0
0
0
0
0
0
0
0
0
0
0
0
0
0
0
0
0
0
0
0
0
0
0
0
0
0
0
0
0
0
0
0
0
0
0
0
0
0
0
0
0
0
0
0
0
0
0
0
0
0
0
0
0
0
0
0
0
0
0
0
0
0
0
0
0
0
0
0
0
0
0
0
0
0
0
0
0
0
0
0
0
0
0
0
0
0
0
0
0
0
0
0
0
0
0
0
0
0
0
0
0
0
0
0
0
0
0
0
0
0
0
0
0
0
0
0
0
0
0
0
0
0
0
0
0
0
0
0
0
0
0
0
0
0
0
0
0
0
0
0
0
0
0
0
0
0
0
0
0
0
0
0
0
0
0
0
0
0
0
0
0
0
0
0
0
0
0
0
0
1.28065e-11
9.66177e-12
4.64916e-12
1.38618e-12
1.00095e-13
5.92649e-15
3.03302e-16
2.7769e-18
2.1704e-20
1.7755e-22
1.70922e-24
1.77579e-26
1.71699e-28
1.69516e-30
1.44255e-32
1.21312e-34
8.92319e-37
6.06733e-39
3.81545e-41
2.30206e-43
1.30525e-45
7.05923e-48
3.73919e-50
1.88181e-52
9.16207e-55
4.32935e-57
1.98064e-59
8.64676e-62
3.72675e-64
1.52986e-66
6.18354e-69
2.44048e-71
9.42041e-74
3.60107e-76
1.36534e-78
5.17135e-81
1.98371e-83
7.75488e-86
3.12552e-88
1.31395e-90
5.74218e-93
2.628e-95
1.2357e-97
6.0103e-100
2.94549e-102
1.46148e-104
7.22751e-107
3.51637e-109
1.68945e-111
7.86979e-114
3.49526e-116
1.43039e-118
5.2513e-121
1.74697e-123
5.44751e-126
1.62449e-128
4.67624e-131
1.30564e-133
3.54615e-136
9.38761e-139
2.42603e-141
6.12843e-144
1.51498e-146
3.66843e-149
8.70861e-152
2.02851e-154
4.63954e-157
1.04266e-159
2.30392e-162
5.00808e-165
1.07142e-167
2.25679e-170
4.6817e-173
9.48856e-176
4.6059e-179
1.98565e-182
7.5297e-186
2.5878e-189
8.55965e-193
2.813e-196
9.2479e-200
3.05019e-203
9.94817e-207
3.1842e-210
9.98648e-214
3.07469e-217
9.32074e-221
2.78878e-224
8.24776e-228
2.41248e-231
6.97879e-235
1.99607e-238
5.6443e-242
1.5782e-245
4.3653e-249
1.195e-252
3.23905e-256
8.69612e-260
2.31307e-263
6.09658e-267
1.59252e-270
4.12307e-274
1.05806e-277
2.69109e-281
6.78322e-285
1.69428e-288
4.19269e-292
1.02775e-295
2.49514e-299
5.98743e-303
1.42512e-306
3.35894e-310
7.82109e-314
1.8044e-317
4.12051e-321
0
0
0
0
0
0
0
0
0
0
0
0
0
0
0
0
0
0
0
0
0
0
0
0
0
0
0
0
0
0
0
0
0
0
0
0
0
0
0
0
0
0
0
0
0
0
0
0
0
0
0
0
0
0
0
0
0
0
0
0
0
0
0
0
0
0
0
0
0
0
0
0
0
0
0
0
0
0
0
0
0
0
0
0
0
0
0
0
0
0
0
0
0
0
0
0
0
0
0
0
0
0
0
0
0
0
0
0
0
0
0
0
0
0
0
0
0
0
0
0
0
0
0
0
0
0
0
0
0
0
0
0
0
0
0
0
0
0
0
0
0
0
0
0
0
0
0
0
0
0
0
0
0
0
0
0
0
0
0
0
0
0
0
0
0
0
0
0
0
0
0
0
0
0
0
0
0
0
0
0
0
0
0
0
0
0
0
0
0
0
0
0
0
0
0
0
0
0
0
0
0
0
0
0
0
0
0
0
0
0
0
0
0
0
0
0
0
0
0
0
0
0
0
0
0
0
0
0
0
0
0
0
0
0
0
0
0
0
0
0
0
0
0
0
0
0
0
0
0
0
0
0
0
0
0
0
0
0
0
0
0
0
0
0
0
0
0
0
0
0
0
0
0
0
0
0
0
0
0
0
0
0
0
0
0
9.43932e-13
7.2068e-13
2.9853e-13
3.14621e-14
6.69328e-16
2.94471e-17
9.81936e-19
1.25393e-20
1.30085e-22
1.3941e-24
1.50791e-26
1.62429e-28
1.56511e-30
1.46865e-32
1.2702e-34
1.0129e-36
7.31267e-39
4.87377e-41
3.0192e-43
1.75411e-45
9.89928e-48
5.18227e-50
2.69861e-52
1.31572e-54
6.30119e-57
2.88167e-59
1.28215e-61
5.47905e-64
2.2788e-66
9.15252e-69
3.60911e-71
1.38299e-73
5.28747e-76
1.97921e-78
7.50842e-81
2.84022e-83
1.10363e-85
4.39845e-88
1.82523e-90
7.87911e-93
3.54872e-95
1.65568e-97
7.91868e-100
3.86241e-102
1.90966e-104
9.39304e-107
4.63502e-109
2.24076e-111
1.07134e-113
4.97286e-116
2.216e-118
9.18331e-121
3.37161e-123
1.11021e-125
3.41714e-128
1.00462e-130
2.84877e-133
7.83304e-136
2.09492e-138
5.46144e-141
1.39005e-143
3.4588e-146
8.42339e-149
2.00974e-151
4.70184e-154
1.07954e-156
2.4343e-159
5.39443e-162
1.17551e-164
2.52028e-167
5.31889e-170
1.10538e-172
2.25572e-175
1.12134e-178
5.22555e-182
2.21064e-185
8.48149e-189
3.02689e-192
1.04149e-195
3.5481e-199
1.20769e-202
4.09245e-206
1.36918e-209
4.49734e-213
1.44836e-216
4.58004e-220
1.4256e-223
4.37703e-227
1.32713e-230
3.97558e-234
1.17658e-237
3.43983e-241
9.93451e-245
2.83515e-248
7.99845e-252
2.23169e-255
6.16095e-259
1.68351e-262
4.55457e-266
1.22012e-269
3.23696e-273
8.50507e-277
2.21329e-280
5.7043e-284
1.45605e-287
3.68061e-291
9.21268e-295
2.2831e-298
5.60117e-302
1.36003e-305
3.26812e-309
7.77031e-313
1.82753e-316
4.25143e-320
9.88131e-324
0
0
0
0
0
0
0
0
0
0
0
0
0
0
0
0
0
0
0
0
0
0
0
0
0
0
0
0
0
0
0
0
0
0
0
0
0
0
0
0
0
0
0
0
0
0
0
0
0
0
0
0
0
0
0
0
0
0
0
0
0
0
0
0
0
0
0
0
0
0
0
0
0
0
0
0
0
0
0
0
0
0
0
0
0
0
0
0
0
0
0
0
0
0
0
0
0
0
0
0
0
0
0
0
0
0
0
0
0
0
0
0
0
0
0
0
0
0
0
0
0
0
0
0
0
0
0
0
0
0
0
0
0
0
0
0
0
0
0
0
0
0
0
0
0
0
0
0
0
0
0
0
0
0
0
0
0
0
0
0
0
0
0
0
0
0
0
0
0
0
0
0
0
0
0
0
0
0
0
0
0
0
0
0
0
0
0
0
0
0
0
0
0
0
0
0
0
0
0
0
0
0
0
0
0
0
0
0
0
0
0
0
0
0
0
0
0
0
0
0
0
0
0
0
0
0
0
0
0
0
0
0
0
0
0
0
0
0
0
0
0
0
0
0
0
0
0
0
0
0
0
0
0
0
0
0
0
0
0
0
0
0
0
0
0
0
0
0
0
0
0
0
0
0
0
0
0
0
0
0
0
0
0
0
0
3.04438e-14
2.204e-14
7.43668e-15
4.53047e-16
7.47462e-18
2.35314e-19
6.16213e-21
8.90159e-23
1.11862e-24
1.32963e-26
1.50209e-28