/*--------------------------------*- C++ -*----------------------------------*\
| =========                 |                                                 |
| \\      /  F ield         | OpenFOAM: The Open Source CFD Toolbox           |
|  \\    /   O peration     | Version:  2.1.1                                 |
|   \\  /    A nd           | Web:      www.OpenFOAM.org                      |
|    \\/     M anipulation  |                                                 |
\*---------------------------------------------------------------------------*/
FoamFile
{
    version     2.0;
    format      ascii;
    class       volScalarField;
    location    "0.000450000";
    object      O;
}
// * * * * * * * * * * * * * * * * * * * * * * * * * * * * * * * * * * * * * //

dimensions      [0 0 0 0 0 0 0];

internalField   nonuniform List<scalar> 
12384
(
1.09292e-07
5.53438e-08
5.83239e-09
1.10423e-10
2.38674e-12
3.6499e-14
4.8545e-16
6.30087e-18
6.26558e-20
5.35353e-22
4.26845e-24
3.04983e-26
1.8882e-28
1.10865e-30
3.20242e-46
9.42382e-48
4.73376e-50
1.99441e-52
7.70459e-55
2.85236e-57
1.04817e-59
3.93125e-62
1.55037e-64
6.57943e-67
3.05145e-69
1.52359e-71
7.99985e-74
4.29036e-76
2.32011e-78
1.2597e-80
6.98538e-83
3.96216e-85
2.3219e-87
1.35817e-89
7.86133e-92
4.30008e-94
2.24719e-96
1.08872e-98
4.91434e-101
2.04648e-103
7.86058e-106
2.74793e-108
8.72344e-111
2.2986e-113
1.82821e-124
7.15347e-125
4.80626e-127
2.09398e-129
7.42237e-132
2.32469e-134
6.71619e-137
1.83529e-139
4.79189e-142
1.21259e-144
2.97736e-147
7.08181e-150
1.64079e-152
3.70447e-155
8.17387e-158
1.75977e-160
3.69649e-163
7.58732e-166
1.51409e-168
2.95705e-172
1.08645e-175
8.64439e-179
1.09838e-181
1.45276e-184
1.74111e-187
1.82632e-190
1.66356e-193
1.30897e-196
8.79069e-200
6.66616e-204
1.05726e-222
3.16516e-220
6.66678e-223
7.52545e-226
6.31591e-229
4.43376e-232
2.8043e-235
1.62635e-238
8.84839e-242
4.59055e-245
2.21147e-248
9.91589e-252
4.23882e-255
1.73233e-258
6.66678e-262
2.39247e-265
8.08328e-269
2.59352e-272
7.87151e-276
2.29328e-279
6.35888e-283
1.67778e-286
4.28581e-290
1.07341e-293
2.66338e-297
6.67178e-301
1.70139e-304
4.30005e-308
1.07457e-311
5.38573e-316
0
0
0
0
0
0
0
0
0
0
0
0
0
0
0
0
0
0
0
0
0
0
0
0
0
0
0
0
0
0
0
0
0
0
0
0
0
0
0
0
0
0
0
0
0
0
0
0
0
0
0
0
0
0
0
0
0
0
0
0
0
0
0
0
0
0
0
0
0
0
0
0
0
0
0
0
0
0
0
0
0
0
0
0
0
0
0
0
0
0
0
0
0
0
0
0
0
0
0
0
0
0
0
0
0
0
0
0
0
0
0
0
0
0
0
0
0
0
0
0
0
0
0
0
0
0
0
0
0
0
0
0
0
0
0
0
0
0
0
0
0
0
0
0
0
0
0
0
0
0
0
0
0
0
0
0
0
0
0
0
0
0
0
0
0
0
0
0
0
0
0
0
0
0
0
0
0
0
0
0
0
0
0
0
0
0
0
0
0
0
0
0
0
0
0
0
0
0
0
0
0
0
0
0
0
0
0
0
0
0
0
0
0
0
0
0
0
0
0
0
0
0
0
0
0
0
0
0
0
0
0
0
0
0
0
0
0
0
0
0
0
0
0
0
0
0
0
0
0
0
0
0
0
0
0
0
0
0
0
0
0
0
0
0
0
0
0
0
0
0
3.29084e-06
2.22192e-06
1.71136e-07
2.53768e-09
3.47849e-11
3.42579e-13
7.22941e-15
7.73067e-17
8.14894e-19
7.14261e-21
5.55375e-23
3.96438e-25
2.59382e-27
1.52657e-29
1.02515e-43
3.07839e-45
1.23158e-47
4.52371e-50
1.56991e-52
5.39703e-55
1.88319e-57
6.77603e-60
2.47355e-62
9.22711e-65
3.60251e-67
1.4797e-69
6.75606e-72
3.26393e-74
1.75726e-76
9.75095e-79
5.71787e-81
3.57535e-83
2.23934e-85
1.4346e-87
8.95578e-90
5.21965e-92
2.98304e-94
1.56492e-96
7.92906e-99
3.77149e-101
1.68161e-103
6.80495e-106
2.39986e-108
5.64158e-111
1.00484e-121
3.92836e-122
2.5928e-124
1.09454e-126
3.77967e-129
1.16358e-131
3.33204e-134
9.06933e-137
2.36893e-139
6.02849e-142
1.48955e-144
3.56795e-147
8.34821e-150
1.90771e-152
4.26399e-155
9.28202e-158
1.9697e-160
4.08075e-163
8.27872e-166
1.63586e-168
7.35134e-172
6.49092e-175
8.79564e-178
1.22202e-180
1.53304e-183
1.65589e-186
1.53142e-189
1.21952e-192
8.20902e-196
9.98853e-200
3.25521e-218
3.47469e-216
7.40575e-219
8.43594e-222
7.12685e-225
5.01346e-228
3.13823e-231
1.78606e-234
9.49787e-238
4.76796e-241
2.24427e-244
9.87274e-248
4.15767e-251
1.67579e-254
6.44865e-258
2.33333e-261
8.0083e-265
2.614e-268
8.16096e-272
2.43872e-275
7.00501e-279
1.91446e-282
5.05892e-286
1.30354e-289
3.31264e-293
8.40298e-297
2.15104e-300
5.48354e-304
1.37125e-307
1.09926e-311
0
0
0
0
0
0
0
0
0
0
0
0
0
0
0
0
0
0
0
0
0
0
0
0
0
0
0
0
0
0
0
0
0
0
0
0
0
0
0
0
0
0
0
0
0
0
0
0
0
0
0
0
0
0
0
0
0
0
0
0
0
0
0
0
0
0
0
0
0
0
0
0
0
0
0
0
0
0
0
0
0
0
0
0
0
0
0
0
0
0
0
0
0
0
0
0
0
0
0
0
0
0
0
0
0
0
0
0
0
0
0
0
0
0
0
0
0
0
0
0
0
0
0
0
0
0
0
0
0
0
0
0
0
0
0
0
0
0
0
0
0
0
0
0
0
0
0
0
0
0
0
0
0
0
0
0
0
0
0
0
0
0
0
0
0
0
0
0
0
0
0
0
0
0
0
0
0
0
0
0
0
0
0
0
0
0
0
0
0
0
0
0
0
0
0
0
0
0
0
0
0
0
0
0
0
0
0
0
0
0
0
0
0
0
0
0
0
0
0
0
0
0
0
0
0
0
0
0
0
0
0
0
0
0
0
0
0
0
0
0
0
0
0
0
0
0
0
0
0
0
0
0
0
0
0
0
0
0
0
0
0
0
0
0
0
0
0
0
0
0
4.30839e-10
5.68095e-10
3.68774e-11
2.48783e-13
8.57886e-16
2.1702e-17
3.25816e-20
7.06511e-23
1.6078e-25
6.72095e-28
1.33123e-30
1.62422e-32
1.83877e-34
1.48849e-36
2.79408e-47
1.48611e-48
4.35943e-51
1.44281e-53
4.9767e-56
1.71046e-58
6.59986e-61
2.63294e-63
9.94786e-66
4.03048e-68
1.44859e-70
5.13274e-73
1.93357e-75
6.50262e-78
2.41724e-80
1.03072e-82
4.41457e-85
2.87205e-87
1.83615e-89
1.25322e-91
9.33558e-94
5.38656e-96
3.8786e-98
2.24037e-100
1.49792e-102
9.09208e-105
5.28637e-107
2.80158e-109
1.23261e-111
2.43093e-115
6.97863e-125
5.66445e-125
3.58831e-127
1.43786e-129
4.7577e-132
1.43059e-134
4.06853e-137
1.10107e-139
2.85494e-142
7.25557e-145
1.76905e-147
4.17595e-150
9.74067e-153
2.22837e-155
5.0116e-158
1.093e-160
2.33023e-163
4.87003e-166
1.00393e-168
2.0378e-171
4.05768e-174
6.40978e-177
1.06258e-179
1.57225e-182
2.03338e-185
2.21873e-188
2.01828e-191
1.5535e-194
9.91732e-198
4.74197e-202
1.13099e-219
6.38813e-218
1.28264e-220
1.41496e-223
1.15759e-226
7.905e-230
4.77942e-233
2.6011e-236
1.3062e-239
6.12953e-243
2.68293e-246
1.10142e-249
4.36153e-253
1.66195e-256
6.11118e-260
2.13919e-263
7.19234e-267
2.33467e-270
7.37163e-274
2.26494e-277
6.75535e-281
1.92695e-284
5.34559e-288
1.44189e-291
3.80937e-295
9.95221e-299
2.58434e-302
6.58977e-306
1.60749e-309
5.07828e-314
0
0
0
0
0
0
0
0
0
0
0
0
0
0
0
0
0
0
0
0
0
0
0
0
0
0
0
0
0
0
0
0
0
0
0
0
0
0
0
0
0
0
0
0
0
0
0
0
0
0
0
0
0
0
0
0
0
0
0
0
0
0
0
0
0
0
0
0
0
0
0
0
0
0
0
0
0
0
0
0
0
0
0
0
0
0
0
0
0
0
0
0
0
0
0
0
0
0
0
0
0
0
0
0
0
0
0
0
0
0
0
0
0
0
0
0
0
0
0
0
0
0
0
0
0
0
0
0
0
0
0
0
0
0
0
0
0
0
0
0
0
0
0
0
0
0
0
0
0
0
0
0
0
0
0
0
0
0
0
0
0
0
0
0
0
0
0
0
0
0
0
0
0
0
0
0
0
0
0
0
0
0
0
0
0
0
0
0
0
0
0
0
0
0
0
0
0
0
0
0
0
0
0
0
0
0
0
0
0
0
0
0
0
0
0
0
0
0
0
0
0
0
0
0
0
0
0
0
0
0
0
0
0
0
0
0
0
0
0
0
0
0
0
0
0
0
0
0
0
0
0
0
0
0
0
0
0
0
0
0
0
0
0
0
0
0
0
0
0
0
0.00036998
0.000136487
6.47144e-08
6.98755e-10
2.64247e-11
6.23841e-13
2.86984e-16
2.65099e-19
5.2064e-22
5.32242e-25
1.70616e-27
2.89614e-30
7.68228e-33
2.3378e-35
1.32276e-42
4.14293e-44
1.19841e-46
4.14815e-49
1.2514e-51
3.93759e-54
1.25796e-56
4.54663e-59
1.73682e-61
5.88202e-64
2.13814e-66
7.61365e-69
2.54155e-71
8.59013e-74
3.1739e-76
9.96073e-79
3.63076e-81
1.36116e-83
5.94582e-86
3.02259e-88
1.696e-90
9.75777e-93
6.15544e-95
3.76103e-97
2.52284e-99
1.60515e-101
9.92284e-104
6.03717e-106
3.25464e-108
2.57169e-111
2.1022e-120
2.46258e-121
1.43955e-123
5.60293e-126
1.82763e-128
5.40256e-131
1.49893e-133
3.97783e-136
1.02023e-138
2.54481e-141
6.19963e-144
1.4784e-146
3.4576e-149
7.93925e-152
1.7914e-154
3.97502e-157
8.67633e-160
1.86415e-162
3.94198e-165
8.21085e-168
1.68383e-170
3.4027e-173
6.38248e-176
1.00356e-178
1.37514e-181
1.57892e-184
1.47308e-187
1.15348e-190
7.6357e-194
1.32061e-197
1.68209e-214
6.98084e-214
1.23816e-216
1.25321e-219
9.5803e-223
6.1273e-226
3.44366e-229
1.75127e-232
8.20691e-236
3.59543e-239
1.4876e-242
5.86621e-246
2.21863e-249
8.09643e-253
2.86198e-256
9.83585e-260
3.29362e-263
1.07716e-266
3.44397e-270
1.07846e-273
3.30822e-277
9.95853e-281
2.94036e-284
8.52936e-288
2.42939e-291
6.80137e-295
1.87107e-298
5.0597e-302
1.32498e-305
1.53931e-309
0
0
0
0
0
0
0
0
0
0
0
0
0
0
0
0
0
0
0
0
0
0
0
0
0
0
0
0
0
0
0
0
0
0
0
0
0
0
0
0
0
0
0
0
0
0
0
0
0
0
0
0
0
0
0
0
0
0
0
0
0
0
0
0
0
0
0
0
0
0
0
0
0
0
0
0
0
0
0
0
0
0
0
0
0
0
0
0
0
0
0
0
0
0
0
0
0
0
0
0
0
0
0
0
0
0
0
0
0
0
0
0
0
0
0
0
0
0
0
0
0
0
0
0
0
0
0
0
0
0
0
0
0
0
0
0
0
0
0
0
0
0
0
0
0
0
0
0
0
0
0
0
0
0
0
0
0
0
0
0
0
0
0
0
0
0
0
0
0
0
0
0
0
0
0
0
0
0
0
0
0
0
0
0
0
0
0
0
0
0
0
0
0
0
0
0
0
0
0
0
0
0
0
0
0
0
0
0
0
0
0
0
0
0
0
0
0
0
0
0
0
0
0
0
0
0
0
0
0
0
0
0
0
0
0
0
0
0
0
0
0
0
0
0
0
0
0
0
0
0
0
0
0
0
0
0
0
0
0
0
0
0
0
0
0
0
0
0
0
0
0.000591452
0.000578091
0.000588519
1.80179e-06
3.42503e-08
2.36109e-08
2.11962e-11
1.79616e-14
2.03036e-17
3.9324e-20
9.01977e-23
1.81195e-25
4.1432e-28
1.02535e-30
1.54922e-37
4.98456e-39
1.58425e-41
5.57317e-44
1.89127e-46
6.06071e-49
2.04644e-51
7.82121e-54
3.04523e-56
1.16396e-58
4.44787e-61
1.61907e-63
5.86805e-66
2.0544e-68
7.12426e-71
2.38522e-73
8.18441e-76
2.71357e-78
9.57432e-81
3.5556e-83
1.44111e-85
6.50624e-88
3.25411e-90
1.72534e-92
1.01163e-94
5.85519e-97
3.4605e-99
2.06692e-101
1.20533e-103
1.59882e-106
5.26336e-115
1.76352e-116
9.45127e-119
3.588e-121
1.1707e-123
3.50154e-126
9.88517e-129
2.67464e-131
6.99608e-134
1.7801e-136
4.41943e-139
1.07343e-141
2.55533e-144
5.96886e-147
1.36936e-149
3.08741e-152
6.84738e-155
1.49383e-157
3.20802e-160
6.78225e-163
1.41224e-165
2.89508e-168
5.84748e-171
1.12528e-173
1.5395e-176
1.75513e-179
1.57277e-182
1.15035e-185
6.99697e-189
1.24088e-192
2.49612e-208
1.25037e-208
1.85872e-211
1.63844e-214
1.11755e-217
6.49296e-221
3.36195e-224
1.59063e-227
6.9871e-231
2.8834e-234
1.12857e-237
4.21998e-241
1.51837e-244
5.28107e-248
1.78402e-251
5.87108e-255
1.88792e-258
5.94015e-262
1.83232e-265
5.54491e-269
1.64831e-272
4.81266e-276
1.38209e-279
3.90201e-283
1.08413e-286
2.96422e-290
7.97702e-294
2.11362e-297
5.43319e-301
6.67333e-305
4.94066e-324
0
0
0
0
0
0
0
0
0
0
0
0
0
0
0
0
0
0
0
0
0
0
0
0
0
0
0
0
0
0
0
0
0
0
0
0
0
0
0
0
0
0
0
0
0
0
0
0
0
0
0
0
0
0
0
0
0
0
0
0
0
0
0
0
0
0
0
0
0
0
0
0
0
0
0
0
0
0
0
0
0
0
0
0
0
0
0
0
0
0
0
0
0
0
0
0
0
0
0
0
0
0
0
0
0
0
0
0
0
0
0
0
0
0
0
0
0
0
0
0
0
0
0
0
0
0
0
0
0
0
0
0
0
0
0
0
0
0
0
0
0
0
0
0
0
0
0
0
0
0
0
0
0
0
0
0
0
0
0
0
0
0
0
0
0
0
0
0
0
0
0
0
0
0
0
0
0
0
0
0
0
0
0
0
0
0
0
0
0
0
0
0
0
0
0
0
0
0
0
0
0
0
0
0
0
0
0
0
0
0
0
0
0
0
0
0
0
0
0
0
0
0
0
0
0
0
0
0
0
0
0
0
0
0
0
0
0
0
0
0
0
0
0
0
0
0
0
0
0
0
0
0
0
0
0
0
0
0
0
0
0
0
0
0
0
0
0
0
0
0.000550137
0.000527893
0.000545209
0.000567225
7.91884e-06
5.46047e-06
1.77344e-07
1.56065e-10
2.86734e-13
4.89018e-16
1.01343e-18
2.53291e-21
5.76445e-24
1.47125e-26
5.24132e-33
1.85274e-34
6.79703e-37
2.67894e-39
8.53534e-42
2.67404e-44
8.07243e-47
2.98522e-49
1.17885e-51
4.4575e-54
1.75491e-56
6.48919e-59
2.4148e-61
8.47172e-64
3.0897e-66
1.01124e-68
3.59577e-71
1.12804e-73
3.95296e-76
1.26807e-78
4.5442e-81
1.665e-83
6.65152e-86
2.93169e-88
1.41704e-90
7.30536e-93
3.94497e-95
2.19116e-97
1.25467e-99
2.68174e-102
2.28015e-110
3.35515e-112
1.64452e-114
6.10755e-117
1.99976e-119
6.07322e-122
1.74863e-124
4.8335e-127
1.29195e-129
3.35675e-132
8.50618e-135
2.1062e-137
5.1083e-140
1.21453e-142
2.83399e-145
6.49778e-148
1.46414e-150
3.24577e-153
7.0772e-156
1.51961e-158
3.21135e-161
6.68301e-164
1.3694e-166
2.76445e-169
5.38641e-172
6.18578e-175
5.37337e-178
3.69757e-181
2.04467e-184
3.32585e-188
1.06486e-202
7.15566e-204
8.59204e-207
6.45469e-210
3.86757e-213
2.01869e-216
9.54803e-220
4.17953e-223
1.71369e-226
6.64538e-230
2.4543e-233
8.69171e-237
2.96882e-240
9.82859e-244
3.1663e-247
9.96336e-251
3.06876e-254
9.27587e-258
2.75335e-261
8.04129e-265
2.31052e-268
6.53798e-272
1.82195e-275
5.00406e-279
1.35405e-282
3.61285e-286
9.50231e-290
2.46231e-293
6.20161e-297
7.27264e-301
3.38685e-318
1.53684e-319
1.38338e-322
0
0
0
0
0
0
0
0
0
0
0
0
0
0
0
0
0
0
0
0
0
0
0
0
0
0
0
0
0
0
0
0
0
0
0
0
0
0
0
0
0
0
0
0
0
0
0
0
0
0
0
0
0
0
0
0
0
0
0
0
0
0
0
0
0
0
0
0
0
0
0
0
0
0
0
0
0
0
0
0
0
0
0
0
0
0
0
0
0
0
0
0
0
0
0
0
0
0
0
0
0
0
0
0
0
0
0
0
0
0
0
0
0
0
0
0
0
0
0
0
0
0
0
0
0
0
0
0
0
0
0
0
0
0
0
0
0
0
0
0
0
0
0
0
0
0
0
0
0
0
0
0
0
0
0
0
0
0
0
0
0
0
0
0
0
0
0
0
0
0
0
0
0
0
0
0
0
0
0
0
0
0
0
0
0
0
0
0
0
0
0
0
0
0
0
0
0
0
0
0
0
0
0
0
0
0
0
0
0
0
0
0
0
0
0
0
0
0
0
0
0
0
0
0
0
0
0
0
0
0
0
0
0
0
0
0
0
0
0
0
0
0
0
0
0
0
0
0
0
0
0
0
0
0
0
0
0
0
0
0
0
0
0
0
0
0
0
0.000555274
0.000540521
0.000533573
0.000567161
0.000397349
0.000298855
1.71492e-05
2.9494e-07
5.5952e-10
1.78427e-12
6.95674e-15
2.4416e-17
7.18203e-20
1.77709e-22
8.22319e-29
2.86884e-30
1.29895e-32
5.80785e-35
2.21141e-37
7.25762e-40
2.31021e-42
8.289e-45
3.44135e-47
1.37909e-49
5.67055e-52
2.18002e-54
8.4379e-57
3.08591e-59
1.14575e-61
3.97706e-64
1.40988e-66
4.78921e-69
1.61601e-71
5.40944e-74
1.81221e-76
6.26965e-79
2.21548e-81
8.5944e-84
3.50351e-86
1.60054e-88
7.64485e-91
3.85833e-93
1.99947e-95
7.26855e-98
1.24805e-105
9.02467e-108
4.02939e-110
1.46863e-112
4.84428e-115
1.49825e-117
4.41282e-120
1.24921e-122
3.41782e-125
9.08464e-128
2.35247e-130
5.9464e-133
1.47043e-135
3.56132e-138
8.46003e-141
1.97282e-143
4.51923e-146
1.01807e-148
2.25514e-151
4.91738e-154
1.05497e-156
2.22824e-159
4.63282e-162
9.48817e-165
1.91236e-167
3.7218e-170
3.11697e-173
2.04539e-176
1.03093e-179
1.76698e-183
9.16821e-197
7.31498e-199
6.65928e-202
4.13147e-205
2.13306e-208
9.87025e-212
4.22776e-215
1.70265e-218
6.49501e-222
2.36136e-225
8.21762e-229
2.75279e-232
8.91516e-236
2.80543e-239
8.60876e-243
2.5853e-246
7.6162e-250
2.20661e-253
6.29347e-257
1.76989e-260
4.90799e-264
1.34321e-267
3.62748e-271
9.67402e-275
2.54628e-278
6.61807e-282
1.69741e-285
4.29425e-289
1.05855e-292
1.3386e-296
3.86388e-312
2.05773e-314
1.37168e-317
6.3438e-321
0
0
0
0
0
0
0
0
0
0
0
0
0
0
0
0
0
0
0
0
0
0
0
0
0
0
0
0
0
0
0
0
0
0
0
0
0
0
0
0
0
0
0
0
0
0
0
0
0
0
0
0
0
0
0
0
0
0
0
0
0
0
0
0
0
0
0
0
0
0
0
0
0
0
0
0
0
0
0
0
0
0
0
0
0
0
0
0
0
0
0
0
0
0
0
0
0
0
0
0
0
0
0
0
0
0
0
0
0
0
0
0
0
0
0
0
0
0
0
0
0
0
0
0
0
0
0
0
0
0
0
0
0
0
0
0
0
0
0
0
0
0
0
0
0
0
0
0
0
0
0
0
0
0
0
0
0
0
0
0
0
0
0
0
0
0
0
0
0
0
0
0
0
0
0
0
0
0
0
0
0
0
0
0
0
0
0
0
0
0
0
0
0
0
0
0
0
0
0
0
0
0
0
0
0
0
0
0
0
0
0
0
0
0
0
0
0
0
0
0
0
0
0
0
0
0
0
0
0
0
0
0
0
0
0
0
0
0
0
0
0
0
0
0
0
0
0
0
0
0
0
0
0
0
0
0
0
0
0
0
0
0
0
0
0
0
0.000556916
0.000547793
0.000547069
0.000530419
0.000315337
0.00038855
7.99639e-05
5.75033e-06
3.08562e-08
1.25986e-10
5.27546e-13
2.51467e-15
1.05562e-17
4.11973e-20
9.1335e-26
2.69747e-27
1.98488e-29
1.01577e-31
4.74771e-34
1.65585e-36
5.42936e-39
1.87006e-41
7.81472e-44
3.33635e-46
1.40377e-48
5.66152e-51
2.27947e-53
8.5531e-56
3.31268e-58
1.18183e-60
4.29775e-63
1.50422e-65
5.19321e-68
1.77553e-70
5.97591e-73
2.02498e-75
6.8528e-78
2.43806e-80
8.88108e-83
3.59127e-85
1.51018e-87
6.99916e-90
3.35834e-92
1.50266e-94
4.99629e-102
2.44411e-104
9.90186e-107
3.51862e-109
1.16489e-111
3.66507e-114
1.10533e-116
3.20979e-119
9.00483e-122
2.45264e-124
6.50434e-127
1.68085e-129
4.24321e-132
1.04794e-134
2.53577e-137
6.01823e-140
1.40242e-142
3.21125e-145
7.22683e-148
1.59956e-150
3.48264e-153
7.45932e-156
1.57296e-158
3.26577e-161
6.67044e-164
1.33987e-166
2.58303e-169
1.61293e-172
7.25024e-176
1.47104e-179
1.17511e-191
1.16276e-194
7.23571e-198
3.54312e-201
1.53735e-204
6.20428e-208
2.38341e-211
8.785e-215
3.11268e-218
1.06117e-221
3.48598e-225
1.10552e-228
3.39645e-232
1.01527e-235
2.96499e-239
8.4877e-243
2.38831e-246
6.62036e-250
1.81007e-253
4.88759e-257
1.30421e-260
3.44002e-264
8.97325e-268
2.31526e-271
5.90616e-275
1.48894e-278
3.70348e-282
9.06303e-286
2.1589e-289
2.8208e-293
6.58594e-307
4.33381e-310
1.91764e-313
6.85631e-317
2.21292e-320
4.94066e-324
0
0
0
0
0
0
0
0
0
0
0
0
0
0
0
0
0
0
0
0
0
0
0
0
0
0
0
0
0
0
0
0
0
0
0
0
0
0
0
0
0
0
0
0
0
0
0
0
0
0
0
0
0
0
0
0
0
0
0
0
0
0
0
0
0
0
0
0
0
0
0
0
0
0
0
0
0
0
0
0
0
0
0
0
0
0
0
0
0
0
0
0
0
0
0
0
0
0
0
0
0
0
0
0
0
0
0
0
0
0
0
0
0
0
0
0
0
0
0
0
0
0
0
0
0
0
0
0
0
0
0
0
0
0
0
0
0
0
0
0
0
0
0
0
0
0
0
0
0
0
0
0
0
0
0
0
0
0
0
0
0
0
0
0
0
0
0
0
0
0
0
0
0
0
0
0
0
0
0
0
0
0
0
0
0
0
0
0
0
0
0
0
0
0
0
0
0
0
0
0
0
0
0
0
0
0
0
0
0
0
0
0
0
0
0
0
0
0
0
0
0
0
0
0
0
0
0
0
0
0
0
0
0
0
0
0
0
0
0
0
0
0
0
0
0
0
0
0
0
0
0
0
0
0
0
0
0
0
0
0
0
0
0
0
0.000561299
0.000552688
0.00054046
0.000280276
9.31299e-05
0.00014089
3.90968e-05
4.48702e-06
8.4078e-08
5.33044e-10
4.95656e-12
4.81019e-14
5.1173e-16
4.93949e-18
2.78341e-20
1.84039e-22
1.18269e-24
8.98298e-27
8.25074e-29
7.56556e-31
5.85419e-33
3.93389e-35
2.25863e-37
1.29018e-39
6.48748e-42
3.1514e-44
1.45676e-46
6.32942e-49
2.66262e-51
1.08233e-53
4.22985e-56
1.62255e-58
6.10574e-61
2.22075e-63
8.09151e-66
2.87585e-68
1.00013e-70
3.54174e-73
1.18898e-75
4.19498e-78
1.45887e-80
5.39523e-83
2.03088e-85
8.64661e-88
3.66933e-90
1.69949e-92
7.12703e-95
2.77743e-97
1.0693e-99
4.12809e-102
1.4805e-104
5.07155e-107
1.67359e-109
5.33865e-112
1.64619e-114
4.90558e-117
1.41304e-119
3.94738e-122
1.07328e-124
2.84089e-127
7.33328e-130
1.84937e-132
4.56308e-135
1.103e-137
2.61541e-140
6.08858e-143
1.3919e-145
3.12715e-148
6.90877e-151
1.50069e-153
3.20849e-156
6.75427e-159
1.39873e-161
2.84694e-164
5.68392e-167
1.0744e-169
3.80919e-173
1.06754e-176
1.61162e-180
1.16967e-184
3.98404e-188
1.63175e-191
5.95499e-195
2.11681e-198
7.3739e-202
2.51719e-205
8.48458e-209
2.8267e-212
9.25489e-216
2.96523e-219
9.26481e-223
2.80656e-226
8.22696e-230
2.34217e-233
6.51279e-237
1.77621e-240
4.76572e-244
1.26083e-247
3.28426e-251
8.42889e-255
2.13536e-258
5.32939e-262
1.31389e-265
3.20892e-269
7.75191e-273
1.84528e-276
4.28123e-280
9.43359e-284
1.95408e-287
3.85041e-291
4.39909e-295
1.62431e-299
2.89524e-303
7.85547e-307
1.98539e-310
5.02862e-314
1.28389e-317
3.27566e-321
0
0
0
0
0
0
0
0
0
0
0
0
0
0
0
0
0
0
0
0
0
0
0
0
0
0
0
0
0
0
0
0
0
0
0
0
0
0
0
0
0
0
0
0
0
0
0
0
0
0
0
0
0
0
0
0
0
0
0
0
0
0
0
0
0
0
0
0
0
0
0
0
0
0
0
0
0
0
0
0
0
0
0
0
0
0
0
0
0
0
0
0
0
0
0
0
0
0
0
0
0
0
0
0
0
0
0
0
0
0
0
0
0
0
0
0
0
0
0
0
0
0
0
0
0
0
0
0
0
0
0
0
0
0
0
0
0
0
0
0
0
0
0
0
0
0
0
0
0
0
0
0
0
0
0
0
0
0
0
0
0
0
0
0
0
0
0
0
0
0
0
0
0
0
0
0
0
0
0
0
0
0
0
0
0
0
0
0
0
0
0
0
0
0
0
0
0
0
0
0
0
0
0
0
0
0
0
0
0
0
0
0
0
0
0
0
0
0
0
0
0
0
0
0
0
0
0
0
0
0
0
0
0
0
0
0
0
0
0
0
0
0
0
0
0
0
0
0
0
0
0
0
0
0
0
0
0
0
0
0
0
0
0
0
0
0
0
0
0
0
0
0
0
0
0
0
0
0
0
0
0
0
0.000557573
0.00055228
0.000234644
1.63715e-05
1.4159e-05
3.62121e-05
1.59772e-05
1.2734e-06
2.03228e-08
1.39141e-10
1.38881e-12
1.47473e-14
1.91441e-16
2.43999e-18
1.68094e-20
1.4078e-22
6.76903e-25
4.61548e-27
3.97813e-29
3.09814e-31
2.08184e-33
1.59165e-35
1.02732e-37
6.71832e-40
3.96701e-42
2.25848e-44
1.18476e-46
6.36416e-49
2.87562e-51
1.45065e-53
6.27596e-56
2.76313e-58
1.17866e-60
4.78337e-63
1.91761e-65
7.58614e-68
2.91899e-70
1.12447e-72
4.40391e-75
1.71319e-77
7.04888e-80
2.93264e-82
1.29732e-84
5.85013e-87
2.75754e-89
1.31116e-91
6.15283e-94
2.91907e-96
1.37075e-98
5.78208e-101
2.20517e-103
7.71497e-106
2.55679e-108
8.1864e-111
2.54763e-113
7.69568e-116
2.25303e-118
6.40273e-121
1.77179e-123
4.78123e-126
1.25939e-128
3.24176e-131
8.15768e-134
2.0082e-136
4.8428e-139
1.14522e-141
2.65696e-144
6.05727e-147
1.3589e-149
3.00202e-152
6.53375e-155
1.40124e-157
2.95674e-160
6.12763e-163
1.24701e-165
2.49276e-168
4.44444e-171
1.06403e-174
2.41041e-178
5.99597e-182
1.44609e-185
3.3878e-189
8.74122e-193
2.32967e-196
6.29583e-200
1.72137e-203
4.78496e-207
1.34319e-210
3.76963e-214
1.05476e-217
2.93346e-221
8.07291e-225
2.19468e-228
5.89158e-232
1.55395e-235
4.00878e-239
1.01123e-242
2.49398e-246
6.01574e-250
1.43059e-253
3.37989e-257
7.98011e-261
1.89351e-264
4.51966e-268
1.07407e-271
2.50874e-275
5.74709e-279
1.28951e-282
2.84509e-286
6.05227e-290
1.352e-293
3.38451e-297
7.68292e-301
1.5218e-304
3.06679e-308
6.19126e-312
1.26244e-315
2.6146e-319
5.43472e-323
0
0
0
0
0
0
0
0
0
0
0
0
0
0
0
0
0
0
0
0
0
0
0
0
0
0
0
0
0
0
0
0
0
0
0
0
0
0
0
0
0
0
0
0
0
0
0
0
0
0
0
0
0
0
0
0
0
0
0
0
0
0
0
0
0
0
0
0
0
0
0
0
0
0
0
0
0
0
0
0
0
0
0
0
0
0
0
0
0
0
0
0
0
0
0
0
0
0
0
0
0
0
0
0
0
0
0
0
0
0
0
0
0
0
0
0
0
0
0
0
0
0
0
0
0
0
0
0
0
0
0
0
0
0
0
0
0
0
0
0
0
0
0
0
0
0
0
0
0
0
0
0
0
0
0
0
0
0
0
0
0
0
0
0
0
0
0
0
0
0
0
0
0
0
0
0
0
0
0
0
0
0
0
0
0
0
0
0
0
0
0
0
0
0
0
0
0
0
0
0
0
0
0
0
0
0
0
0
0
0
0
0
0
0
0
0
0
0
0
0
0
0
0
0
0
0
0
0
0
0
0
0
0
0
0
0
0
0
0
0
0
0
0
0
0
0
0
0
0
0
0
0
0
0
0
0
0
0
0
0
0
0
0
0
0
0
0
0
0
0
0
0
0
0
0
0
0
0
0
0
0
0.000531882
0.00031853
4.17314e-06
4.78098e-07
8.80555e-07
4.80208e-06
1.72298e-06
8.74251e-08
4.4006e-10
3.71069e-12
3.35434e-14
3.50716e-16
3.82829e-18
4.34353e-20
3.51815e-22
2.41455e-24
1.23379e-26
7.7762e-29
4.95435e-31
3.32519e-33
2.17101e-35
1.31371e-37
7.9401e-40
4.38172e-42
2.39061e-44
1.26167e-46
6.12414e-49
3.10328e-51
1.41526e-53
6.46695e-56
2.92638e-58
1.21536e-60
5.19539e-63
2.10946e-65
8.34244e-68
3.28375e-70
1.26781e-72
4.83899e-75
1.8887e-77
7.32197e-80
2.98592e-82
1.24293e-84
5.46904e-87
2.48461e-89
1.17318e-91
5.62929e-94
2.74988e-96
1.3283e-98
6.26899e-101
2.83179e-103
1.17869e-105
4.46274e-108
1.56574e-110
5.20991e-113
1.668e-115
5.16473e-118
1.55023e-120
4.52123e-123
1.28352e-125
3.54863e-128
9.55966e-131
2.51329e-133
6.45522e-136
1.6217e-138
3.99127e-141
9.63231e-144
2.28098e-146
5.30847e-149
1.21565e-151
2.74115e-154
6.08589e-157
1.32996e-159
2.85667e-162
6.02341e-165
1.24728e-167
2.53542e-170
1.65414e-173
2.59941e-177
7.6756e-181
2.68755e-184
7.85508e-188
1.9574e-191
4.87669e-195
1.20575e-198
3.02202e-202
7.82691e-206
2.11007e-209
5.84374e-213
1.63338e-216
4.55942e-220
1.26512e-223
3.4712e-227
9.3585e-231
2.47399e-234
6.39049e-238
1.61351e-241
4.00156e-245
9.7672e-249
2.3486e-252
5.59956e-256
1.33177e-259
3.18081e-263
7.65042e-267
1.84938e-270
4.44689e-274
1.04885e-277
2.4206e-281
5.46364e-285
1.20455e-288
2.52802e-292
5.93298e-296
1.54678e-299
3.44294e-303
6.72065e-307
1.33956e-310
2.67371e-314
5.3702e-318
1.09189e-321
0
0
0
0
0
0
0
0
0
0
0
0
0
0
0
0
0
0
0
0
0
0
0
0
0
0
0
0
0
0
0
0
0
0
0
0
0
0
0
0
0
0
0
0
0
0
0
0
0
0
0
0
0
0
0
0
0
0
0
0
0
0
0
0
0
0
0
0
0
0
0
0
0
0
0
0
0
0
0
0
0
0
0
0
0
0
0
0
0
0
0
0
0
0
0
0
0
0
0
0
0
0
0
0
0
0
0
0
0
0
0
0
0
0
0
0
0
0
0
0
0
0
0
0
0
0
0
0
0
0
0
0
0
0
0
0
0
0
0
0
0
0
0
0
0
0
0
0
0
0
0
0
0
0
0
0
0
0
0
0
0
0
0
0
0
0
0
0
0
0
0
0
0
0
0
0
0
0
0
0
0
0
0
0
0
0
0
0
0
0
0
0
0
0
0
0
0
0
0
0
0
0
0
0
0
0
0
0
0
0
0
0
0
0
0
0
0
0
0
0
0
0
0
0
0
0
0
0
0
0
0
0
0
0
0
0
0
0
0
0
0
0
0
0
0
0
0
0
0
0
0
0
0
0
0
0
0
0
0
0
0
0
0
0
0
0
0
0
0
0
0
0
0
0
0
0
0
0
0
0
0
0
0.00011139
7.93783e-06
7.81979e-08
6.17492e-08
5.7284e-08
1.65996e-07
5.7077e-08
2.01448e-09
4.85258e-12
2.38416e-14
1.35478e-16
1.05497e-18
1.07248e-20
1.19888e-22
9.15657e-25
7.21794e-27
4.60407e-29
2.94853e-31
1.94012e-33
1.20753e-35
7.60144e-38
4.3284e-40
2.54642e-42
1.38438e-44
7.17002e-47
3.81311e-49
1.77608e-51
8.75822e-54
4.00378e-56
1.72151e-58
7.75523e-61
3.12709e-63
1.29319e-65
5.18784e-68
2.00753e-70
7.75621e-73
2.99617e-75
1.1339e-77
4.46202e-80
1.76039e-82
7.31766e-85
3.14322e-87
1.41603e-89
6.62706e-92
3.18999e-94
1.56756e-96
7.75121e-99
3.81669e-101
1.84472e-103
8.5801e-106
3.70913e-108
1.46044e-110
5.25243e-113
1.75991e-115
5.61888e-118
1.72806e-120
5.14426e-123
1.48676e-125
4.17806e-128
1.14301e-130
3.05044e-133
7.95714e-136
2.03005e-138
5.06786e-141
1.23891e-143
2.96738e-146
6.96957e-149
1.60806e-151
3.65027e-154
8.15499e-157
1.793e-159
3.88151e-162
8.26808e-165
1.73023e-167
3.5595e-170
6.59503e-173
1.84125e-176
4.50884e-180
1.17858e-183
3.5165e-187
9.91665e-191
2.69533e-194
7.68271e-198
2.19828e-201
6.27662e-205
1.80466e-208
5.20513e-212
1.48443e-215
4.17162e-219
1.15652e-222
3.1638e-226
8.54631e-230
2.28479e-233
6.06096e-237
1.59347e-240
4.15044e-244
1.07047e-247
2.72509e-251
6.84175e-255
1.70017e-258
4.20411e-262
1.03736e-265
2.55437e-269
6.28894e-273
1.54198e-276
3.71962e-280
8.81801e-284
2.06934e-287
4.77833e-291
1.04962e-294
2.44456e-298
6.10425e-302
1.35394e-305
2.76906e-309
5.85459e-313
1.24521e-316
2.66252e-320
4.94066e-324
0
0
0
0
0
0
0
0
0
0
0
0
0
0
0
0
0
0
0
0
0
0
0
0
0
0
0
0
0
0
0
0
0
0
0
0
0
0
0
0
0
0
0
0
0
0
0
0
0
0
0
0
0
0
0
0
0
0
0
0
0
0
0
0
0
0
0
0
0
0
0
0
0
0
0
0
0
0
0
0
0
0
0
0
0
0
0
0
0
0
0
0
0
0
0
0
0
0
0
0
0
0
0
0
0
0
0
0
0
0
0
0
0
0
0
0
0
0
0
0
0
0
0
0
0
0
0
0
0
0
0
0
0
0
0
0
0
0
0
0
0
0
0
0
0
0
0
0
0
0
0
0
0
0
0
0
0
0
0
0
0
0
0
0
0
0
0
0
0
0
0
0
0
0
0
0
0
0
0
0
0
0
0
0
0
0
0
0
0
0
0
0
0
0
0
0
0
0
0
0
0
0
0
0
0
0
0
0
0
0
0
0
0
0
0
0
0
0
0
0
0
0
0
0
0
0
0
0
0
0
0
0
0
0
0
0
0
0
0
0
0
0
0
0
0
0
0
0
0
0
0
0
0
0
0
0
0
0
0
0
0
0
0
0
0
0
0
0
0
0
0
0
0
0
0
0
0
0
0
0
0
0
1.79887e-06
3.87608e-08
1.56325e-08
7.25848e-09
2.36665e-09
1.19239e-09
1.54059e-10
1.13387e-12
4.42338e-15
2.58587e-17
1.9634e-19
1.7418e-21
1.67212e-23
1.68591e-25
1.39727e-27
1.13935e-29
8.17374e-32
5.3353e-34
3.48302e-36
2.07336e-38
1.25176e-40
6.89294e-43
3.79692e-45
2.00819e-47
9.93819e-50
5.00173e-52
2.3381e-54
1.05252e-56
4.84137e-59
1.98889e-61
8.49184e-64
3.45417e-66
1.34761e-68
5.34908e-71
2.04056e-73
7.76502e-76
2.99489e-78
1.14586e-80
4.55026e-83
1.85619e-85
7.89252e-88
3.51988e-90
1.62498e-92
7.7927e-95
3.80975e-97
1.88744e-99
9.3896e-102
4.61469e-104
2.23413e-106
1.05576e-108
4.67274e-111
1.87267e-113
6.7452e-116
2.24589e-118
7.087e-121
2.14648e-123
6.28333e-126
1.78469e-128
4.93028e-131
1.32699e-133
3.48604e-136
8.95042e-139
2.24819e-141
5.52884e-144
1.33224e-146
3.14837e-149
7.3025e-152
1.66418e-154
3.72891e-157
8.21922e-160
1.78276e-162
3.80662e-165
8.00173e-168
1.65553e-170
3.29332e-173
1.39976e-176
4.97289e-180
1.53622e-183
4.65347e-187
1.45119e-190
4.45107e-194
1.38878e-197
4.37764e-201
1.34981e-204
4.07966e-208
1.21362e-211
3.56288e-215
1.0338e-218
2.96759e-222
8.43005e-226
2.36975e-229
6.58968e-233
1.81284e-236
4.93519e-240
1.33027e-243
3.55172e-247
9.39563e-251
2.46317e-254
6.4e-258
1.64877e-261
4.21353e-265
1.06855e-268
2.68946e-272
6.71827e-276
1.66495e-279
4.08974e-283
9.95374e-287
2.39993e-290
5.73064e-294
1.32588e-297
3.08225e-301
7.26697e-305
1.64642e-308
3.71536e-312
8.46269e-316
1.89479e-319
3.95253e-323
0
0
0
0
0
0
0
0
0
0
0
0
0
0
0
0
0
0
0
0
0
0
0
0
0
0
0
0
0
0
0
0
0
0
0
0
0
0
0
0
0
0
0
0
0
0
0
0
0
0
0
0
0
0
0
0
0
0
0
0
0
0
0
0
0
0
0
0
0
0
0
0
0
0
0
0
0
0
0
0
0
0
0
0
0
0
0
0
0
0
0
0
0
0
0
0
0
0
0
0
0
0
0
0
0
0
0
0
0
0
0
0
0
0
0
0
0
0
0
0
0
0
0
0
0
0
0
0
0
0
0
0
0
0
0
0
0
0
0
0
0
0
0
0
0
0
0
0
0
0
0
0
0
0
0
0
0
0
0
0
0
0
0
0
0
0
0
0
0
0
0
0
0
0
0
0
0
0
0
0
0
0
0
0
0
0
0
0
0
0
0
0
0
0
0
0
0
0
0
0
0
0
0
0
0
0
0
0
0
0
0
0
0
0
0
0
0
0
0
0
0
0
0
0
0
0
0
0
0
0
0
0
0
0
0
0
0
0
0
0
0
0
0
0
0
0
0
0
0
0
0
0
0
0
0
0
0
0
0
0
0
0
0
0
0
0
0
0
0
0
0
0
0
0
0
0
0
0
0
0
0
0
0
4.5531e-09
3.52589e-09
1.70826e-09
3.78069e-10
3.49424e-11
2.74597e-12
1.38703e-13
1.10594e-15
8.61547e-18
7.02389e-20
6.74657e-22
7.01291e-24
6.76859e-26
6.77274e-28
5.79395e-30
4.8645e-32
3.58857e-34
2.44089e-36
1.53863e-38
9.2946e-41
5.29896e-43
2.87782e-45
1.52245e-47
7.69535e-50
3.7405e-52
1.76911e-54
8.10413e-57
3.53242e-59
1.52535e-61
6.26731e-64
2.53176e-66
1.00362e-68
3.86853e-71
1.48293e-73
5.62435e-76
2.13069e-78
8.17453e-81
3.19616e-83
1.28797e-85
5.41526e-88
2.3669e-90
1.08402e-92
5.10172e-95
2.48176e-97
1.21886e-99
6.04717e-102
2.99312e-104
1.45711e-106
6.99991e-109
3.26207e-111
1.44867e-113
5.92925e-116
2.17668e-118
7.24143e-121
2.25805e-123
6.73373e-126
1.93834e-128
5.41198e-131
1.46991e-133
3.89129e-136
1.00562e-138
2.54029e-141
6.27977e-144
1.52061e-146
3.6098e-149
8.40843e-152
1.92315e-154
4.32195e-157
9.54995e-160
2.07589e-162
4.44116e-165
9.35469e-168
1.94062e-170
3.93316e-173
1.90923e-176
8.23098e-180
3.12127e-183
1.07268e-186
3.5483e-190
1.1661e-193
3.83339e-197
1.26439e-200
4.12374e-204
1.31991e-207
4.13956e-211
1.27449e-214
3.86358e-218
1.15598e-221
3.41877e-225
9.99996e-229
2.89278e-232
8.27399e-236
2.33964e-239
6.54178e-243
1.80947e-246
4.95343e-250
1.34262e-253
3.60466e-257
9.58799e-261
2.52709e-264
6.60112e-268
1.70905e-271
4.3858e-275
1.11549e-278
2.81172e-282
7.02309e-286
1.73795e-289
4.26027e-293
1.0343e-296
2.48188e-300
5.90768e-304
1.39241e-307
3.24196e-311
7.47976e-315
1.70722e-318
3.85371e-322
0
0
0
0
0
0
0
0
0
0
0
0
0
0
0
0
0
0
0
0
0
0
0
0
0
0
0
0
0
0
0
0
0
0
0
0
0
0
0
0
0
0
0
0
0
0
0
0
0
0
0
0
0
0
0
0
0
0
0
0
0
0
0
0
0
0
0
0
0
0
0
0
0
0
0
0
0
0
0
0
0
0
0
0
0
0
0
0
0
0
0
0
0
0
0
0
0
0
0
0
0
0
0
0
0
0
0
0
0
0
0
0
0
0
0
0
0
0
0
0
0
0
0
0
0
0
0
0
0
0
0
0
0
0
0
0
0
0
0
0
0
0
0
0
0
0
0
0
0
0
0
0
0
0
0
0
0
0
0
0
0
0
0
0
0
0
0
0
0
0
0
0
0
0
0
0
0
0
0
0
0
0
0
0
0
0
0
0
0
0
0
0
0
0
0
0
0
0
0
0
0
0
0
0
0
0
0
0
0
0
0
0
0
0
0
0
0
0
0
0
0
0
0
0
0
0
0
0
0
0
0
0
0
0
0
0
0
0
0
0
0
0
0
0
0
0
0
0
0
0
0
0
0
0
0
0
0
0
0
0
0
0
0
0
0
0
0
0
0
0
0
0
0
0
0
0
0
0
0
0
0
0
0
0
3.17915e-10
2.66427e-10
1.10157e-10
1.22761e-11
2.62153e-13
1.15597e-14
3.8209e-16
4.85531e-18
5.08156e-20
5.43894e-22
5.87369e-24
6.33976e-26
6.11455e-28
5.72745e-30
4.95015e-32
3.95006e-34
2.85828e-36
1.904e-38
1.18756e-40
6.91573e-43
3.91506e-45
2.06131e-47
1.07147e-49
5.24142e-52
2.50817e-54
1.14777e-56
5.10342e-59
2.18172e-61
9.06881e-64
3.64818e-66
1.43822e-68
5.52788e-71
2.11215e-73
7.9298e-76
3.00546e-78
1.13874e-80
4.4217e-83
1.76259e-85
7.3121e-88
3.15626e-90
1.42185e-92
6.63456e-95
3.17733e-97
1.55033e-99
7.67096e-102
3.77909e-104
1.86399e-106
9.02306e-109
4.31216e-111
2.00263e-113
8.9227e-116
3.69831e-118
1.35775e-120
4.47096e-123
1.37611e-125
4.04571e-128
1.14723e-130
3.15444e-133
8.43645e-136
2.19939e-138
5.59784e-141
1.39289e-143
3.3922e-146
8.09344e-149
1.89347e-151
4.34741e-154
9.80323e-157
2.17239e-159
4.73389e-162
1.01494e-164
2.14198e-167
4.45145e-170
9.08406e-173
4.5158e-176
2.10441e-179
8.90253e-183
3.4156e-186
1.21898e-189
4.19428e-193
1.42889e-196
4.86354e-200
1.64808e-203
5.51384e-207
1.81114e-210
5.83274e-214
1.84444e-217
5.74104e-221
1.76268e-224
5.34449e-228
1.601e-231
4.73821e-235
1.38526e-238
4.00071e-242
1.14174e-245
3.22107e-249
8.98727e-253
2.48107e-256
6.77963e-260
1.83418e-263
4.91352e-267
1.30355e-270
3.42507e-274
8.91318e-278
2.29717e-281
5.86369e-285
1.48224e-288
3.71008e-292
9.19432e-296
2.25566e-299
5.47706e-303
1.31613e-306
3.12924e-310
7.35975e-314
1.71215e-317
3.9377e-321
0
0
0
0
0
0
0
0
0
0
0
0
0
0
0
0
0
0
0
0
0
0
0
0
0
0
0
0
0
0
0
0
0
0
0
0
0
0
0
0
0
0
0
0
0
0
0
0
0
0
0
0
0
0
0
0
0
0
0
0
0
0
0
0
0
0
0
0
0
0
0
0
0
0
0
0
0
0
0
0
0
0
0
0
0
0
0
0
0
0
0
0
0
0
0
0
0
0
0
0
0
0
0
0
0
0
0
0
0
0
0
0
0
0
0
0
0
0
0
0
0
0
0
0
0
0
0
0
0
0
0
0
0
0
0
0
0
0
0
0
0
0
0
0
0
0
0
0
0
0
0
0
0
0
0
0
0
0
0
0
0
0
0
0
0
0
0
0
0
0
0
0
0
0
0
0
0
0
0
0
0
0
0
0
0
0
0
0
0
0
0
0
0
0
0
0
0
0
0
0
0
0
0
0
0
0
0
0
0
0
0
0
0
0
0
0
0
0
0
0
0
0
0
0
0
0
0
0
0
0
0
0
0
0
0
0
0
0
0
0
0
0
0
0
0
0
0
0
0
0
0
0
0
0
0
0
0
0
0
0
0
0
0
0
0
0
0
0
0
0
0
0
0
0
0
0
0
0
0
0
0
0
0
0
0
1.17177e-11
8.49208e-12
2.87906e-12
1.75418e-13