/*--------------------------------*- C++ -*----------------------------------*\
| =========                 |                                                 |
| \\      /  F ield         | OpenFOAM: The Open Source CFD Toolbox           |
|  \\    /   O peration     | Version:  2.1.1                                 |
|   \\  /    A nd           | Web:      www.OpenFOAM.org                      |
|    \\/     M anipulation  |                                                 |
\*---------------------------------------------------------------------------*/
FoamFile
{
    version     2.0;
    format      ascii;
    class       volScalarField;
    location    "0.005250000";
    object      O;
}
// * * * * * * * * * * * * * * * * * * * * * * * * * * * * * * * * * * * * * //

dimensions      [0 0 0 0 0 0 0];

internalField   nonuniform List<scalar> 
12384
(
0.000583596
0.000628257
0.000712153
0.000740656
0.000750447
0.000746808
0.000737576
0.000725158
0.000702504
0.000666504
0.000573451
0.000469305
0.000648732
0.000840641
0.000246517
0.000235395
0.00021414
0.00021802
0.000238339
0.000267357
0.000303222
0.000318199
0.000338461
0.000339292
0.0003457
0.0003471
0.000356788
0.000364499
0.000369605
0.000373816
0.000377455
0.000372601
0.000367115
0.0003612
0.000354774
0.000339719
0.00034709
0.000331897
0.000338733
0.000335176
0.000318633
0.000292759
0.000314895
0.000315433
0.000126131
0.000105769
0.000120635
0.000112157
0.000118259
0.000173226
0.000247377
0.000272088
0.000280465
0.000286069
0.000289016
0.000290307
0.000289126
0.000289921
0.000286573
0.000285391
0.000273592
0.000263676
0.000248658
0.000243346
0.000223016
0.000217159
0.000199629
0.000185527
0.000163406
0.000132571
0.00012597
0.000245595
0.000371962
0.000367439
0.000213696
0.00024845
0.000167258
0.000106794
0.000113251
0.000124415
0.000116609
0.000152735
0.000173336
0.000174123
0.000178935
0.000158655
0.000152127
0.000144821
0.000133352
0.000122234
0.00011786
9.78251e-05
8.28441e-05
7.37111e-05
5.80597e-05
6.38484e-05
5.20259e-05
4.87193e-05
4.17993e-05
6.03179e-05
0.000105543
0.000140295
0.000170028
0.00017555
2.85469e-05
3.16391e-05
3.47022e-05
3.4102e-05
3.89606e-05
4.42883e-05
5.03216e-05
5.74684e-05
6.3062e-05
6.6356e-05
6.8115e-05
6.66171e-05
6.20718e-05
6.44259e-05
5.81143e-05
5.37443e-05
5.26257e-05
4.95606e-05
4.68965e-05
4.57554e-05
4.8248e-05
5.26066e-05
5.49294e-05
4.33954e-05
0.000118877
0.000252149
0.000323579
0.000313495
0.000302286
0.00028152
3.39522e-05
2.15663e-05
1.66282e-05
1.33037e-05
1.2682e-05
1.12315e-05
7.82542e-06
6.04873e-06
1.00327e-05
9.97326e-06
9.26023e-06
8.65658e-06
8.76286e-06
4.96966e-06
4.75791e-06
7.11854e-06
8.03275e-06
6.87869e-06
8.19972e-06
8.73432e-06
8.90902e-06
9.01294e-06
9.95575e-06
1.06476e-05
1.13252e-05
1.33293e-05
1.57474e-05
2.11527e-05
4.45442e-05
0.000137119
5.96452e-05
4.20457e-05
6.73797e-05
9.98079e-05
0.000107275
0.0001211
0.000136278
0.000133555
0.000118083
8.17758e-05
5.92193e-05
4.10906e-05
3.37007e-05
3.66883e-05
4.04213e-05
3.26266e-05
4.40229e-05
5.30639e-05
6.80878e-05
7.78348e-05
9.96988e-05
0.000135408
0.000173906
0.000181042
0.000165955
0.000160751
0.000161984
0.000176579
0.000175903
0.000169195
0.000233782
0.000233696
0.000209712
0.000138957
7.04787e-05
4.17297e-05
2.49717e-05
2.07552e-05
1.63842e-05
1.31926e-05
1.05659e-05
9.69363e-06
9.92681e-06
7.83661e-06
9.35555e-06
8.82121e-06
1.23942e-05
9.3288e-06
1.72678e-05
1.49109e-05
1.94531e-05
2.32399e-05
2.51732e-05
2.59932e-05
3.85159e-05
3.60979e-05
2.65884e-05
3.87994e-05
4.2715e-05
4.84025e-05
4.79432e-05
4.1268e-05
4.55992e-05
4.64799e-05
4.9333e-05
4.63714e-05
4.15926e-05
3.60055e-05
3.71641e-05
2.73811e-05
3.19434e-05
2.47485e-05
2.65094e-05
2.10918e-05
2.19583e-05
2.17114e-05
2.10113e-05
2.16497e-05
2.31732e-05
1.26892e-05
1.24949e-05
6.20979e-06
1.8326e-06
1.19972e-06
1.05779e-06
1.26558e-06
1.43741e-06
1.44381e-06
1.43366e-06
1.3517e-06
0.000352877
0.000305442
0.000233292
0.000177621
0.000127117
9.06098e-05
7.30708e-05
5.78443e-05
4.38778e-05
4.77868e-05
4.75823e-05
4.33844e-05
4.97154e-05
4.99691e-05
6.5151e-05
6.0124e-05
8.07863e-05
7.70202e-05
9.43601e-05
9.13156e-05
7.37045e-05
4.65311e-05
1.62524e-05
1.33555e-05
1.03082e-05
1.19838e-05
1.13836e-05
1.16676e-05
1.02363e-05
1.13762e-05
8.11704e-06
8.43349e-06
7.29887e-06
4.1617e-06
3.71486e-06
3.47466e-06
4.08198e-06
4.85017e-06
3.31004e-06
5.07627e-06
4.85735e-06
4.92042e-06
4.84692e-06
4.9413e-06
5.29411e-06
4.56037e-06
3.31172e-06
5.46783e-06
5.08161e-06
3.84581e-06
3.2804e-06
2.68132e-06
3.01321e-06
4.64701e-06
5.53367e-06
6.23846e-06
6.06896e-06
6.38428e-06
6.80741e-06
6.86138e-06
0.000118524
7.00104e-06
1.93577e-06
6.13067e-06
1.30622e-05
9.6943e-06
8.90909e-06
4.95035e-06
4.38184e-06
3.05453e-06
2.93443e-06
1.84347e-06
1.5418e-06
1.59007e-06
1.14444e-06
1.781e-06
1.69356e-06
1.997e-06
1.92649e-06
2.07861e-06
2.09046e-06
2.13007e-06
2.22731e-06
2.27188e-06
2.41121e-06
2.73562e-06
3.59735e-06
7.81045e-06
1.60372e-05
6.55773e-05
7.14715e-06
7.63946e-06
8.94463e-06
9.36124e-06
1.07614e-05
1.63429e-05
6.65127e-06
2.83916e-07
2.816e-07
2.68451e-07
2.51244e-07
3.18498e-07
3.17343e-07
3.15287e-07
3.27494e-07
2.50645e-07
2.54124e-07
2.50965e-07
2.45803e-07
2.41573e-07
3.47943e-07
2.48508e-07
5.87246e-07
4.47759e-07
1.53954e-06
1.66374e-06
2.33803e-06
5.9893e-06
9.45713e-05
1.94311e-05
0.000784584
0.000744728
0.000725616
0.000745096
0.000753409
0.000759963
0.000757919
0.00076342
0.000761112
0.000759252
0.000732024
0.000567655
0.000581497
0.00081162
0.000235605
0.000219095
0.000220206
0.000256196
0.000318102
0.000368812
0.000400096
0.000397448
0.000395252
0.000385972
0.000400576
0.000413237
0.00044826
0.000484263
0.000519901
0.000542274
0.000559163
0.000568613
0.00057167
0.000558228
0.000532309
0.00050331
0.000475357
0.000425394
0.000389919
0.000369018
0.000340959
0.000310232
0.00029433
0.000284202
0.000122697
0.00010865
0.000113008
0.000118587
0.000187823
0.000282307
0.000267956
0.000259359
0.000264457
0.00027827
0.000291958
0.00030591
0.000324535
0.000338768
0.000338863
0.000336857
0.000334649
0.000332714
0.000331813
0.000334452
0.000331194
0.000326944
0.00030203
0.000270334
0.000226611
0.000179085
0.000137804
0.000153232
0.000253762
0.000341214
0.000224319
0.000225926
9.56888e-05
9.65426e-05
0.000113663
0.000132485
0.0001996
0.000244657
0.000246018
0.000235122
0.000218984
0.000206635
0.000193885
0.000181115
0.000176064
0.000162739
0.000156402
0.000160719
0.000147548
0.000131108
0.000113733
8.2788e-05
5.16265e-05
5.05533e-05
4.54701e-05
3.3725e-05
7.03064e-05
0.000103265
0.000130803
0.000149342
2.50237e-05
2.60601e-05
2.44524e-05
2.99992e-05
4.49554e-05
6.56662e-05
7.93221e-05
0.000128388
0.000154206
0.000176902
0.000178185
0.000187249
0.000177499
0.000170625
0.000155713
0.000137107
0.000112137
8.53107e-05
5.58854e-05
5.56458e-05
5.20811e-05
5.0257e-05
5.17813e-05
5.84165e-05
6.41755e-05
0.000140216
0.000222592
0.000252533
0.000235701
0.000227164
3.14057e-05
1.90015e-05
1.34795e-05
8.45466e-06
7.24328e-06
9.47412e-06
8.68396e-06
8.15967e-06
8.45007e-06
8.11545e-06
3.66913e-06
7.18375e-06
8.94726e-06
1.13224e-05
1.38146e-05
1.50189e-05
1.48487e-05
1.62051e-05
1.63048e-05
1.54828e-05
1.43488e-05
1.48262e-05
1.34639e-05
1.4491e-05
1.4744e-05
1.32994e-05
1.53793e-05
2.01638e-05
3.14109e-05
7.2547e-05
4.02257e-05
2.93951e-05
8.33738e-05
9.24216e-05
0.000101916
0.000129085
0.000107572
4.5693e-05
2.22301e-05
1.88755e-05
1.6527e-05
2.94896e-05
3.07233e-05
3.27994e-05
2.76373e-05
2.71138e-05
1.97689e-05
2.07793e-05
2.21766e-05
2.47605e-05
2.82999e-05
4.53408e-05
9.5391e-05
0.000165206
0.000181193
0.000161711
0.000155985
0.000164748
0.000181581
0.000171731
5.40101e-05
3.16914e-05
1.11505e-05
1.71339e-05
8.92159e-06
7.60618e-06
5.48258e-06
4.20048e-06
4.84927e-06
4.55965e-06
4.83009e-06
4.32706e-06
5.18728e-06
5.42705e-06
5.25411e-06
5.18174e-06
5.29028e-06
6.23284e-06
7.81805e-06
9.82146e-06
9.51586e-06
1.30706e-05
1.98459e-05
2.40557e-05
1.43003e-05
3.9461e-05
4.97461e-05
4.03955e-05
3.28735e-05
3.44183e-05
5.65046e-05
5.41238e-05
0.000114765
0.000137796
0.000141756
0.000140437
0.000126047
0.000128087
0.00010837
0.000108608
9.55212e-05
9.81266e-05
8.76069e-05
8.13126e-05
6.93493e-05
6.25172e-05
3.89646e-05
3.03534e-05
3.76092e-05
3.0203e-05
1.94668e-05
8.50533e-06
4.07919e-06
1.48304e-06
2.053e-06
3.5446e-06
4.24351e-06
3.19134e-06
1.28035e-06
1.45244e-06
0.000184901
9.48764e-05
4.91609e-05
2.35624e-05
1.47047e-05
1.21822e-05
1.26388e-05
1.42502e-05
1.23372e-05
1.66576e-05
1.71391e-05
1.84699e-05
2.00218e-05
2.14605e-05
2.32215e-05
2.88852e-05
1.48658e-05
4.43278e-05
6.00326e-05
7.59867e-05
8.35241e-05
6.90434e-05
1.3552e-05
1.35165e-05
1.07511e-05
9.47452e-06
9.30614e-06
1.07171e-05
1.0221e-05
1.1026e-05
8.96758e-06
1.85504e-06
2.48295e-06
5.9564e-06
7.18148e-06
9.33288e-06
5.80996e-06
1.12932e-05
1.57732e-05
1.86891e-05
2.13177e-05
2.3262e-05
2.32428e-05
2.36791e-05
2.06377e-05
1.69671e-05
9.35489e-06
8.29103e-06
6.0871e-06
5.45094e-06
3.02937e-06
2.86e-06
2.96996e-06
4.55662e-06
5.89775e-06
6.21716e-06
6.07418e-06
5.45769e-06
5.77325e-06
6.69929e-06
5.68965e-06
2.47399e-06
2.56226e-06
8.69362e-06
7.1091e-06
3.62318e-06
2.5583e-06
2.082e-06
1.81783e-06
1.51777e-06
1.55047e-06
1.75131e-06
1.88863e-06
1.06037e-06
2.44711e-06
2.86445e-06
3.63437e-06
3.95311e-06
3.64921e-06
2.81386e-06
4.42931e-06
3.69143e-06
3.52648e-06
3.03127e-06
2.28996e-06
2.12711e-06
2.49713e-06
4.70261e-06
6.69261e-06
0.000167825
1.12153e-05
3.87205e-05
9.35372e-05
0.00011563
0.000109088
0.000143138
7.01073e-07
2.83009e-07
2.84813e-07
3.16279e-07
3.44572e-07
3.78137e-07
3.92029e-07
4.05297e-07
4.0034e-07
4.13398e-07
4.46852e-07
4.16237e-07
3.48413e-07
1.68936e-07
2.14697e-07
2.10087e-07
3.27681e-07
1.39541e-06
1.49905e-06
2.91411e-06
2.40967e-06
4.02862e-06
0.000169679
2.4337e-05
0.000708796
0.000713436
0.000754986
0.000726795
0.000653856
0.000609429
0.000614231
0.000623764
0.0006832
0.000747157
0.000759011
0.000704589
0.000594534
0.000762979
0.000213391
0.000213813
0.000244005
0.000319759
0.000384355
0.000401467
0.000411386
0.000412432
0.000396616
0.000384522
0.000409085
0.000455645
0.000525238
0.000576062
0.000617395
0.000647113
0.000666584
0.000687058
0.000701249
0.000718977
0.000704813
0.000685819
0.000654851
0.000568966
0.000503374
0.000443678
0.000380586
0.000332488
0.000298451
0.000272877
0.000123127
0.000113432
0.000111844
0.000130155
0.000257877
0.000270849
0.000258849
0.000262899
0.000276069
0.000300417
0.00030936
0.000340024
0.000347338
0.000347513
0.000344005
0.000329461
0.000316791
0.000308097
0.000312663
0.000312031
0.000329049
0.000340356
0.000351445
0.000343619
0.000306158
0.000254471
0.000187546
0.000155735
0.000182854
0.000268603
0.000230964
0.000201076
9.17858e-05
6.76161e-05
9.31144e-05
0.000112752
0.000206331
0.000235542
0.00021784
0.000197833
0.000181715
0.000165152
0.000153173
0.000150425
0.000149055
0.000157926
0.000159781
0.000164123
0.000165388
0.000161973
0.000142008
0.000122115
8.78966e-05
5.6383e-05
4.61814e-05
4.3965e-05
4.14057e-05
7.12306e-05
0.000102356
0.000131297
2.54144e-05
2.31588e-05
2.93784e-05
4.84705e-05
7.29832e-05
0.000159337
0.000221276
0.000253749
0.000282003
0.000288897
0.000295348
0.000299996
0.00028885
0.000279285
0.000273135
0.000249704
0.000214166
0.000184028
0.000135545
9.84102e-05
5.98391e-05
5.46886e-05
5.30482e-05
5.55724e-05
6.0277e-05
6.69263e-05
0.000120925
0.000155799
0.000176212
0.000200196
2.48258e-05
1.55305e-05
9.79048e-06
8.41879e-06
7.92254e-06
9.62517e-06
1.09485e-05
1.02012e-05
1.11453e-05
9.48512e-06
9.2297e-06
1.21794e-05
1.77819e-05
2.23488e-05
2.55051e-05
2.74233e-05
2.85454e-05
2.8166e-05
2.73143e-05
2.68528e-05
2.49516e-05
2.36249e-05
2.18436e-05
1.8702e-05
1.72125e-05
1.62796e-05
1.50183e-05
1.9165e-05
2.49786e-05
3.73612e-05
2.50244e-05
3.76956e-05
6.70723e-05
7.80619e-05
0.000115809
7.26202e-05
2.67139e-05
1.89942e-05
2.57917e-05
4.01996e-05
3.63427e-05
6.29312e-05
6.84587e-05
5.63388e-05
5.52239e-05
3.28254e-05
3.63796e-05
3.40139e-05
2.47791e-05
2.35581e-05
1.76173e-05
2.25101e-05
2.772e-05
7.03862e-05
0.000164589
0.000170949
0.000149244
0.000153597
0.000174918
0.000171818
1.94161e-05
1.85072e-05
1.281e-05
7.34519e-06
2.80817e-06
3.72565e-06
3.92807e-06
3.39625e-06
5.34384e-06
7.81516e-06
9.13502e-06
8.51122e-06
1.04822e-05
1.05109e-05
8.44856e-06
9.82648e-06
7.48532e-06
4.92702e-06
9.28154e-06
9.26e-06
1.00543e-05
9.3111e-06
1.27872e-05
1.94185e-05
2.43832e-05
2.52593e-05
4.16345e-05
5.01434e-05
4.42657e-05
4.01276e-05
0.000180498
0.000176325
0.000163251
0.000139203
0.000119457
0.000110004
9.50184e-05
8.82357e-05
8.7935e-05
7.7245e-05
7.91734e-05
8.18848e-05
8.88334e-05
9.82368e-05
0.000101737
9.95454e-05
0.000114158
9.53644e-05
7.18599e-05
5.10859e-05
3.11963e-05
1.80776e-05
8.04048e-06
3.59229e-06
4.48869e-06
8.65341e-06
1.1638e-05
8.48758e-06
3.92915e-06
1.88443e-06
4.17724e-05
3.58401e-05
8.56501e-06
1.49713e-05
5.0307e-06
1.43252e-05
1.79855e-05
2.64246e-05
2.80148e-05
2.82439e-05
2.08473e-05
2.29964e-05
2.10197e-05
2.19117e-05
1.83666e-05
2.74251e-05
2.74056e-05
2.04548e-05
3.70482e-05
6.42134e-05
7.10236e-05
7.47076e-05
4.8972e-05
1.85315e-05
1.07101e-05
8.31775e-06
5.52842e-06
7.61549e-06
1.11554e-05
9.43419e-06
5.30199e-06
2.87088e-06
8.33092e-06
1.06992e-05
1.08217e-05
1.27789e-05
2.13454e-05
2.60785e-05
3.95946e-05
5.51297e-05
7.66638e-05
8.87433e-05
9.80172e-05
0.000101895
9.86544e-05
8.3333e-05
4.82695e-05
2.33894e-05
6.76709e-06
7.71397e-06
5.72785e-06
2.80696e-06
2.82961e-06
3.00721e-06
5.61537e-06
5.74616e-06
4.48522e-06
3.21097e-06
3.6753e-06
5.74266e-06
2.95702e-06
2.77432e-06
7.58669e-06
5.34146e-06
3.15934e-06
2.31336e-06
2.12897e-06
1.96408e-06
2.4709e-06
2.41507e-06
1.9335e-06
2.90811e-06
3.8671e-06
2.07905e-06
3.70026e-06
3.86693e-06
4.32421e-06
4.30052e-06
5.59948e-06
7.47578e-06
9.84187e-06
1.52858e-05
1.49443e-05
9.12424e-06
3.46458e-06
2.87323e-06
2.42343e-06
3.32489e-06
6.71511e-06
6.0359e-05
6.53659e-05
7.49817e-05
5.70777e-06
1.17001e-05
2.07619e-05
1.51468e-06
3.52507e-07
2.77167e-07
3.39177e-07
4.50899e-07
5.52915e-07
4.68095e-07
5.16435e-07
4.89412e-07
4.58342e-07
3.91336e-07
3.67475e-07
4.88154e-07
3.80629e-07
1.67723e-07
2.35929e-07
1.78849e-07
1.87527e-07
6.99029e-07
5.0863e-06
6.01451e-06
3.05125e-06
2.84145e-06
8.216e-05
2.9708e-05
0.000700626
0.000767249
0.000679808
0.000585254
0.000589659
0.000640644
0.000655918
0.000637903
0.000619477
0.000653005
0.000748947
0.000733342
0.0006103
0.000744894
0.000203486
0.000220653
0.000284425
0.000358864
0.000366838
0.000364975
0.000391245
0.000412867
0.000385975
0.000388361
0.000420743
0.000484272
0.000559935
0.000596617
0.000626363
0.000648547
0.000684479
0.000729563
0.000768043
0.000786592
0.000812282
0.000809023
0.0007669
0.000713799
0.000613415
0.000511945
0.00043002
0.000352613
0.000299799
0.000268894
0.000132777
0.000118992
0.000114609
0.000135262
0.00025864
0.000275319
0.00027596
0.000288862
0.000295741
0.000310193
0.000333154
0.000349943
0.000350719
0.000332335
0.000314016
0.000297799
0.000286911
0.000271448
0.000265775
0.000259121
0.000276959
0.000298572
0.000332718
0.00035303
0.000357421
0.000322962
0.000249447
0.000189114
0.000175949
0.000239207
0.000225875
0.000172129
5.94546e-05
5.48188e-05
5.16586e-05
0.00011941
0.000215242
0.000224837
0.000189702
0.000164638
0.000138434
0.000122625
0.000123517
0.000134124
0.000143596
0.000168981
0.000180565
0.000192919
0.000196567
0.000186818
0.000175049
0.000149056
0.0001234
8.6401e-05
5.47951e-05
3.8277e-05
3.435e-05
4.86811e-05
8.02536e-05
0.000125638
2.66442e-05
2.19298e-05
5.07055e-05
0.000116439
0.000210148
0.000263316
0.000297613
0.000317761
0.000324558
0.000333663
0.000333823
0.000334448
0.000329004
0.000332016
0.000314298
0.000300841
0.000292724
0.000253348
0.000215254
0.000158352
0.000112665
7.47838e-05
4.27252e-05
3.57308e-05
4.08005e-05
5.8607e-05
8.01572e-05
0.000108504
0.000133231
0.000183582
1.37825e-05
1.41831e-05
1.13278e-05
1.19001e-05
1.68625e-05
1.9098e-05
2.16187e-05
1.87203e-05
1.48656e-05
1.3227e-05
1.1763e-05
1.82216e-05
2.76451e-05
3.3053e-05
3.09123e-05
3.09707e-05
2.84618e-05
2.46336e-05
2.7069e-05
2.47575e-05
2.8688e-05
2.75352e-05
2.89996e-05
2.54373e-05
2.12566e-05
1.87497e-05
1.79893e-05
1.78314e-05
2.0813e-05
2.37076e-05
4.48837e-05
3.50757e-05
5.48815e-05
8.91616e-05
5.63715e-05
2.01106e-05
1.29525e-05
1.31449e-05
5.28917e-05
0.000123147
0.000134661
0.000115119
8.87024e-05
5.95305e-05
4.44428e-05
2.85222e-05
4.22913e-05
3.69041e-05
3.36954e-05
2.71556e-05
2.02459e-05
1.51348e-05
1.89489e-05
3.00174e-05
9.00682e-05
0.000179134
0.000151052
0.000146113
0.000166857
0.000173935
2.21353e-05
1.29689e-05
5.26562e-06
3.39472e-06
3.1828e-06
2.92889e-06
7.77217e-06
8.22411e-06
1.85439e-05
2.56295e-05
2.12587e-05
2.06964e-05
1.7058e-05
1.06147e-05
2.1263e-05
2.00177e-05
1.99e-05
1.7074e-05
1.44596e-05
1.28834e-05
7.86163e-06
7.41349e-06
8.76846e-06
1.5428e-05
2.11375e-05
2.71683e-05
2.2802e-05
3.95628e-05
5.26002e-05
4.87205e-05
0.000181025
0.00014359
8.86774e-05
4.89463e-05
5.61357e-05
5.11073e-05
4.57896e-05
4.73548e-05
4.24151e-05
5.12743e-05
4.19941e-05
4.47535e-05
4.60854e-05
6.12423e-05
7.67641e-05
9.12494e-05
0.000115237
0.000119376
0.000121859
9.66611e-05
5.64399e-05
2.20246e-05
1.22478e-05
5.86881e-06
5.15977e-06
1.03395e-05
1.42546e-05
9.94894e-06
6.24294e-06
1.34314e-06
4.37532e-05
1.57492e-05
1.28601e-05
8.19402e-06
2.39382e-05
3.88589e-05
5.98687e-05
8.73059e-05
0.000101159
0.000112191
0.000110635
0.000104991
0.000100727
8.55118e-05
7.79135e-05
5.37472e-05
3.96709e-05
2.78413e-05
3.41648e-05
4.66421e-05
7.41848e-05
8.12754e-05
4.05474e-05
2.65507e-05
1.19721e-05
8.2746e-06
5.96542e-06
6.00547e-06
8.46777e-06
6.52895e-06
4.30423e-06
8.32331e-06
9.42452e-06
1.01987e-05
9.85597e-06
1.7725e-05
2.65341e-05
4.63038e-05
8.31356e-05
0.000110391
0.000144313
0.000169364
0.000175961
0.000179385
0.000178349
0.000174787
0.000140074
9.05079e-05
2.37913e-05
1.33313e-05
7.0411e-06
4.6728e-06
2.89377e-06
2.78556e-06
3.8247e-06
5.02715e-06
3.64552e-06
1.43335e-06
2.87951e-06
5.67182e-06
3.31317e-06
5.46977e-06
5.66991e-06
3.7762e-06
2.93671e-06
2.99492e-06
1.37809e-06
2.22815e-06
3.75102e-06
3.57645e-06
4.04496e-06
4.5063e-06
2.92485e-06
3.57252e-06
2.64108e-06
3.87996e-06
2.55893e-06
2.45169e-06
3.35376e-06
5.89912e-06
1.8325e-05
3.90856e-05
6.90658e-05
4.61395e-05
1.49459e-05
3.79775e-06
2.6082e-06
2.741e-06
4.74447e-06
2.4831e-05
0.000146885
1.37631e-06
6.01787e-07
1.59965e-06
1.34142e-06
4.00839e-07
2.21405e-07
3.23492e-07
4.75767e-07
3.04312e-07
6.47656e-07
7.89267e-07
7.52786e-07
6.99769e-07
4.97522e-07
3.70712e-07
4.55905e-07
4.00287e-07
4.77121e-07
5.36598e-07
3.39279e-07
1.84547e-07
1.51133e-07
3.43166e-07
3.48786e-06
9.64427e-06
4.27463e-06
2.18743e-06
5.66332e-05
3.2629e-05
0.000715734
0.000762752
0.000557419
0.00059376
0.000689788
0.000833652
0.000918029
0.000867681
0.00073682
0.000674381
0.000732521
0.000747845
0.000654552
0.000733848
0.000193829
0.000228325
0.000316152
0.000337936
0.000296738
0.000288844
0.000364793
0.000415233
0.000395803
0.000380101
0.000423858
0.000489023
0.000558412
0.00058132
0.000599453
0.000631006
0.000692857
0.00075648
0.000802974
0.000843
0.000843839
0.000848209
0.000854313
0.000783627
0.000704334
0.000572012
0.000468064
0.000367046
0.00029869
0.000261361
0.000143887
0.000135231
0.000115249
0.000129605
0.000210564
0.000255478
0.000220946
0.000221877
0.00028535
0.000323863
0.000348417
0.000354845
0.000343935
0.00031407
0.000302406
0.000288509
0.000281525
0.000265818
0.000253751
0.000239249
0.000244566
0.00025972
0.000295872
0.000336788
0.000371313
0.000361453
0.00030336
0.000232239
0.000193417
0.000233274
0.000212729
0.000152666
3.82038e-05
3.76638e-05
4.95445e-05
9.68528e-05
0.000228896
0.000199693
0.00016369
0.000133479
0.000107211
0.000110863
0.000127829
0.000150718
0.000172073
0.00019756
0.000220119
0.000234446
0.000240189
0.000238569
0.000212095
0.00017921
0.000141813
0.000112324
7.45639e-05
5.27091e-05
3.48749e-05
4.37223e-05
7.8696e-05
0.000117051
1.98852e-05
4.69218e-05
0.000124319
0.00022916
0.000274228
0.000292817
0.000310515
0.000318079
0.00033388
0.000339576
0.000338823
0.000341519
0.000337981
0.000329137
0.00031422
0.000323681
0.000299545
0.000297171
0.000262238
0.00021321
0.000161498
0.000110746
7.62303e-05
5.1242e-05
5.18122e-05
5.79729e-05
7.36583e-05
8.74474e-05
0.000117555
0.000174083
2.34049e-05
1.27687e-05
1.0969e-05
1.84491e-05
2.29354e-05
2.52245e-05
2.50743e-05
2.27218e-05
1.84063e-05
1.44499e-05
1.55023e-05
2.60434e-05
3.26573e-05
3.46259e-05
2.91438e-05
2.60101e-05
2.71387e-05
2.70336e-05
2.73167e-05
2.39225e-05
2.56834e-05
2.84815e-05
3.05294e-05
3.19779e-05
2.54839e-05
2.29292e-05
2.11171e-05
1.97669e-05
2.07232e-05
3.78302e-05
4.7126e-05
3.77845e-05
5.91179e-05
4.7689e-05
2.26963e-05
1.29775e-05
8.2588e-06
7.63659e-05
0.000149714
0.000148592
0.000128597
7.39959e-05
4.78639e-05
3.28954e-05
2.20896e-05
2.91081e-05
2.5846e-05
3.49866e-05
3.52152e-05
2.98979e-05
2.41109e-05
1.42935e-05
1.79016e-05
1.8306e-05
4.16057e-05
0.000171569
0.000154087
0.000139531
0.000162426
0.000172797
1.7513e-05
9.70903e-06
2.82539e-06
3.00802e-06
3.98951e-06
9.55738e-06
1.90011e-05
2.34116e-05
3.56968e-05
3.54737e-05
2.41014e-05
2.64291e-05
1.92126e-05
1.57221e-05
1.30686e-05
1.29484e-05
1.40766e-05
1.40359e-05
1.75035e-05
1.5861e-05
1.58185e-05
1.17793e-05
9.35446e-06
1.36535e-05
2.07042e-05
2.53974e-05
1.21367e-05
2.89241e-05
4.96947e-05
5.35936e-05
0.000129905
6.20526e-05
5.89861e-05
3.78812e-05
2.81309e-05
3.46731e-05
3.55843e-05
4.50515e-05
4.95136e-05
5.14911e-05
7.16569e-05
0.000106853
9.76535e-05
0.000110386
0.00010201
9.84047e-05
0.000108243
0.000116173
0.000141325
0.00013285
8.73677e-05
4.70136e-05
2.16967e-05
4.61936e-06
8.51533e-06
1.05234e-05
1.49232e-05
1.93978e-05
1.03189e-05
2.2988e-06
1.85603e-05
1.03355e-05
1.40855e-05
2.65255e-05
3.54444e-05
9.39154e-05
0.000134093
0.000152896
0.000158771
0.000165112
0.000152568
0.000156361
0.000151834
0.000143865
0.000130908
0.000110037
8.57749e-05
6.39714e-05
4.75549e-05
5.29699e-05
7.04162e-05
8.99249e-05
7.35865e-05
3.26586e-05
1.36442e-05
7.84331e-06
5.04208e-06
7.31302e-06
9.23801e-06
5.113e-06
5.30889e-06
9.37977e-06
8.47021e-06
9.17948e-06
9.63855e-06
1.78278e-05
3.78134e-05
7.80072e-05
0.000130189
0.000171612
0.000182513
0.000187642
0.000183825
0.000177863
0.000178521
0.000184591
0.00018138
0.000166959
9.1271e-05
2.68223e-05
4.25636e-06
4.18679e-06
3.08991e-06
2.4794e-06
1.70219e-06
3.42043e-06
2.61174e-06
2.46861e-06
1.67898e-06
5.40266e-06
3.38727e-06
5.39833e-06
4.65858e-06
1.78442e-06
2.40939e-06
4.03971e-06
5.61713e-06
6.52017e-06
6.70381e-06
5.93054e-06
5.67988e-06
4.96461e-06
3.37334e-06
3.23049e-06
3.68462e-06
3.23837e-06
1.61883e-06
1.52777e-06
3.06023e-06
9.04138e-06
6.08542e-05
0.000152857
0.000171496
0.000148893
4.91112e-05
7.61369e-06
2.43864e-06
2.58229e-06
3.55098e-06
1.91431e-05
6.55079e-06
2.2503e-07
3.12927e-07
7.36236e-07
4.69703e-07
2.36753e-07
2.59446e-07
4.33237e-07
3.67431e-07
9.58106e-07
1.37738e-06
1.28512e-06
1.64883e-06
8.61577e-07
1.22148e-06
8.71362e-07
3.62873e-07
4.52698e-07
5.11487e-07
5.64425e-07
3.75718e-07
1.72976e-07
1.25911e-07
2.22197e-07
2.15669e-06
9.64432e-06
5.61599e-06
4.40396e-06
9.58706e-05
2.95373e-05
0.000716637
0.000702959
0.000560375
0.000660694
0.000819106
0.000925138
0.000999527
0.0009789
0.00089737
0.000767587
0.000753999
0.000752812
0.000681181
0.000738534
0.000200331
0.000252004
0.00031701
0.000289644
0.000229719
0.000241541
0.000325049
0.000436687
0.000400285
0.000392208
0.000409819
0.00049847
0.000537382
0.000547689
0.000575389
0.000623129
0.000712616
0.000798153
0.000846825
0.000875572
0.000884707
0.00088117
0.00086054
0.00081715
0.000716895
0.000595971
0.000456785
0.000362105
0.000289692
0.000252125
0.000151415
0.000150451
0.000111256
0.000109156
0.000143765
0.00013618
8.61342e-05
0.000129962
0.000268318
0.000329526
0.000350065
0.000360499
0.000330982
0.00031627
0.000304373
0.000303731
0.000285163
0.000283377
0.000267862
0.000247091
0.000241846
0.000233536
0.000270523
0.000316105
0.000370541
0.000377233
0.000343955
0.000269134
0.000213326
0.000238501
0.000206729
0.000126369
2.03025e-05
2.82962e-05
4.41269e-05
0.000127865
0.000221122
0.000181673
0.000136076
0.000115939
0.000110366
0.000126425
0.000164062
0.000188298
0.00021916
0.000245596
0.000250933
0.000256635
0.000258861
0.000247873
0.000245807
0.000204529
0.00016633
0.000130783
0.000101138
7.21372e-05
4.56916e-05
4.88823e-05
7.00587e-05
0.000126191
2.31226e-05
9.4317e-05
0.000232714
0.000261754
0.000278473
0.000291179
0.000317065
0.000327128
0.000336192
0.000334347
0.000346437
0.000341066
0.000335597
0.000324117
0.000333915
0.00031259
0.000317165
0.000300105
0.000288115
0.000246995
0.000194458
0.000144409
0.00010402
7.67279e-05
6.69767e-05
7.20585e-05
7.67763e-05
8.81237e-05
0.000114352
0.000171665
2.27139e-05
1.37815e-05
1.46407e-05
2.12812e-05
2.38221e-05
2.34664e-05
2.76211e-05
1.1554e-05
2.11801e-05
1.69776e-05
2.02497e-05
3.09337e-05
3.56971e-05
3.17409e-05
2.95996e-05
2.4526e-05
2.70528e-05
2.77329e-05
3.16996e-05
3.0328e-05
3.11364e-05
2.84554e-05
3.43347e-05
3.31676e-05
3.0243e-05
2.64086e-05
2.2724e-05
1.98414e-05
2.34034e-05
3.72282e-05
4.56764e-05
2.74461e-05
3.18734e-05
1.54322e-05
1.1804e-05
1.15194e-05
4.76201e-05
0.000150542
0.000168765
0.000142576
9.98881e-05
5.28404e-05
1.91738e-05
2.18187e-05
1.72526e-05
2.13841e-05
2.11866e-05
2.42103e-05
3.05711e-05
2.84324e-05
2.23409e-05
1.90894e-05
1.66293e-05
1.97729e-05
3.54838e-05
0.000160836
0.000154633
0.000139978
0.000163174
0.000168397
1.44225e-05
2.91882e-06
1.95499e-06
4.12427e-06
8.24229e-06
1.66334e-05
2.81864e-05
3.13533e-05
2.97546e-05
1.8354e-05
1.76028e-05
7.32738e-06
7.73947e-06
6.24476e-06
4.49916e-06
4.34047e-06
6.04762e-06
7.89701e-06
6.4666e-06
1.14428e-05
1.77342e-05
1.63209e-05
1.2344e-05
1.63146e-05
2.13482e-05
2.50738e-05
2.57197e-05
2.14054e-05
4.14552e-05
5.25569e-05
8.72038e-05
6.13245e-05
3.00247e-05
1.49387e-05
2.11629e-05
2.7526e-05
4.5563e-05
7.06693e-05
0.000111355
0.000172524
0.000193157
0.000223117
0.000219092
0.000222394
0.00018656
0.000158244
0.00014119
0.000129141
0.000148102
0.000154356
0.000135288
5.96745e-05
2.99378e-05
1.45907e-05
7.27793e-06
5.5949e-06
1.64286e-05
2.30647e-05
6.02207e-06
3.49392e-06
1.32587e-05
1.10366e-05
1.7179e-05
4.49732e-05
8.15119e-05
0.000129285
0.000152096
0.000164651
0.000159811
0.000146772
0.000135348
0.000135052
0.000132083
0.00013501
0.000146636
0.000144223
0.00012032
9.96802e-05
7.27736e-05
6.72296e-05
7.4046e-05
9.06833e-05
8.90522e-05
4.65744e-05
2.21777e-05
8.68373e-06
8.55449e-06
6.10165e-06
9.03141e-06
5.94566e-06
4.33117e-06
7.49444e-06
6.29514e-06
8.81474e-06
1.13816e-05
2.23254e-05
5.39907e-05
0.000100202
0.000173654
0.000179803
0.000181913
0.000171069
0.000167616
0.000163852
0.00016282
0.000167842
0.000177619
0.000182812
0.000141209
6.55681e-05
1.71251e-05
7.84095e-06
3.76898e-06
2.50897e-06
2.40309e-06
1.30575e-06
2.69118e-06
2.09115e-06
2.48975e-06
5.2121e-06
2.43784e-06
5.61032e-06
4.03291e-06
3.39659e-06
4.03022e-06
7.01027e-06
8.46754e-06
9.8243e-06
9.50629e-06
9.49551e-06
8.02457e-06
6.38305e-06
3.55584e-06
3.58979e-06
4.40603e-06
3.552e-06
1.462e-06
1.84742e-06
2.63671e-06
8.37325e-06
7.63699e-05
0.000176385
0.000177366
0.000170554
6.70966e-05
8.15546e-06
2.31776e-06
2.45813e-06
3.10521e-06
1.70164e-05
2.49541e-06
1.51137e-07
2.21771e-07
3.55652e-07
2.75387e-07
2.43285e-07
3.16608e-07
5.63614e-07
8.8652e-07
1.37732e-06
2.78097e-06
3.99762e-06
4.91594e-06
3.92113e-06
3.24263e-06
1.06057e-06
7.60077e-07
6.32297e-07
2.86978e-07
4.14215e-07
4.56903e-07
1.86563e-07
1.06492e-07
1.76937e-07
1.30169e-06
7.97302e-06
4.51868e-06
5.47937e-06
0.000168509
2.69632e-05
0.000745865
0.000688266
0.000579817
0.000676615
0.000751501
0.000792294
0.000907325
0.000943527
0.000886776
0.000833954
0.0007807
0.000757315
0.000683628
0.000741741
0.000194359
0.000248089
0.000310656
0.0002492
0.000195735
0.000208978
0.000314101
0.000443011
0.000432716
0.000381736
0.000413469
0.000482843
0.000521037
0.000515904
0.000544307
0.00061493
0.000720883
0.000820166
0.000871555
0.000894205
0.000890203
0.000878151
0.000861995
0.00079661
0.000705362
0.000562085
0.000443347
0.000335924
0.000273137
0.000252057
0.000168009
0.000164438
0.000108789
7.98344e-05
6.69182e-05
5.30529e-05
3.90412e-05
6.62964e-05
0.000237716
0.000330171
0.000358921
0.00036002
0.000337158
0.000321042
0.00031411
0.000309503
0.000302131
0.000291826
0.000257907
0.000231143
0.000221647
0.000224421
0.00025275
0.000306619
0.000371872
0.000383547
0.000362118
0.000293746
0.000228725
0.000250018
0.000201366
0.000102423
3.32546e-05
2.19505e-05
2.30039e-05
0.00014695
0.000207912
0.000168432
0.000129391
0.000113187
0.000125818
0.000160173
0.000197979
0.000232286
0.000264231
0.00026007
0.000254682
0.000266617
0.00026036
0.000261369
0.000248263
0.000218109
0.000179115
0.000146825
0.000117534
8.30226e-05
5.93579e-05
5.59251e-05
7.8757e-05
0.000136877
3.52551e-05
0.000193427
0.000256441
0.000250282
0.000274381
0.00029729
0.000316664
0.000317789
0.000326281
0.000328808
0.000329033
0.000307198
0.000323385
0.000328389
0.00031657
0.00032025
0.000310105
0.000305069
0.000294873
0.000256547
0.000209388
0.000161115
0.000120333
9.65874e-05
9.04153e-05
8.73398e-05
8.97277e-05
9.5709e-05
0.000117485
0.000175849
2.04449e-05
1.40574e-05
1.7869e-05
1.75489e-05
1.73012e-05
1.99668e-05
2.69208e-05
2.178e-05
2.34169e-05
1.88651e-05
2.30059e-05
3.45208e-05
3.53804e-05
3.22552e-05
2.77064e-05
3.09044e-05
3.02996e-05
3.78844e-05
3.55165e-05
3.67679e-05
3.12809e-05
3.28381e-05
3.45866e-05
3.60693e-05
3.25129e-05
2.73247e-05
2.50407e-05
2.09619e-05
2.53034e-05
4.09005e-05
4.46192e-05
4.66749e-05
3.08077e-05
7.82448e-06
1.08757e-05
2.37521e-05
0.000120793
0.00016142
0.000153476
0.000130557
9.09393e-05
3.93391e-05
2.296e-05
1.15129e-05
1.43343e-05
1.8411e-05
2.18995e-05
1.56797e-05
2.50804e-05
2.76619e-05
1.96487e-05
1.96997e-05
1.67075e-05
1.67392e-05
3.46268e-05
0.000165695
0.000150167
0.000143242
0.000169389
0.000165364
1.15468e-05
2.83688e-06
2.75175e-06
3.78516e-06
1.05953e-05
1.89493e-05
1.95955e-05
2.68494e-05
1.26153e-05
1.80452e-05
1.01137e-05
5.67871e-06