/*--------------------------------*- C++ -*----------------------------------*\
| =========                 |                                                 |
| \\      /  F ield         | OpenFOAM: The Open Source CFD Toolbox           |
|  \\    /   O peration     | Version:  2.1.1                                 |
|   \\  /    A nd           | Web:      www.OpenFOAM.org                      |
|    \\/     M anipulation  |                                                 |
\*---------------------------------------------------------------------------*/
FoamFile
{
    version     2.0;
    format      ascii;
    class       volScalarField;
    location    "0.005250000";
    object      O2;
}
// * * * * * * * * * * * * * * * * * * * * * * * * * * * * * * * * * * * * * //

dimensions      [0 0 0 0 0 0 0];

internalField   nonuniform List<scalar> 
12384
(
0.0026238
0.00375239
0.00627658
0.00750625
0.00824274
0.00854782
0.00810193
0.0075545
0.00687988
0.00574271
0.00334312
0.00164659
0.00197826
0.0116605
0.047075
0.0436792
0.0416603
0.0388546
0.0351656
0.0320382
0.0301723
0.0291342
0.0288794
0.0292842
0.0298779
0.0304409
0.0307777
0.0310904
0.0314265
0.031796
0.0321609
0.0326218
0.0330423
0.0336388
0.0341235
0.0347464
0.0353793
0.0361472
0.0370643
0.0378633
0.0387498
0.0423142
0.0411041
0.0421015
0.00201067
0.0016616
0.00184518
0.00153358
0.00168541
0.0030831
0.008005
0.0127104
0.0151781
0.0159965
0.0153991
0.0143776
0.0132759
0.0120306
0.0109232
0.00931009
0.00836141
0.00741649
0.00674868
0.00584515
0.00497606
0.00375377
0.00334355
0.00293599
0.00237864
0.00166463
0.00142772
0.00388522
0.0185746
0.0215996
0.00294902
0.00469679
0.00239061
0.000663291
0.000673941
0.000765945
0.000622969
0.00132547
0.00173848
0.00191851
0.00203841
0.00191375
0.00187733
0.00181467
0.00166563
0.00156399
0.00138751
0.00115461
0.000843754
0.000667618
0.000362411
0.000416886
0.000334342
0.000310081
0.000275851
0.00097398
0.00223491
0.00485762
0.00665751
0.00688615
0.000151175
0.000161047
0.000175983
0.000167494
0.000201118
0.000243812
0.000292243
0.000350166
0.000395835
0.000423671
0.000439713
0.000432845
0.000404131
0.000416521
0.000374446
0.000346052
0.000337396
0.000315665
0.000294227
0.0002806
0.000296358
0.000324894
0.000348944
6.38199e-05
0.00174718
0.00686985
0.0111638
0.0108762
0.0093316
0.00866773
0.000212876
7.26736e-05
4.92052e-05
3.43961e-05
3.2836e-05
2.5708e-05
1.21377e-05
4.29268e-06
2.44075e-05
2.41991e-05
2.24686e-05
2.10926e-05
2.15048e-05
5.83596e-06
5.92185e-06
1.67195e-05
2.06827e-05
1.68565e-05
2.19213e-05
2.41318e-05
2.49921e-05
2.34697e-05
2.77872e-05
2.84671e-05
2.99119e-05
3.49456e-05
4.1537e-05
6.006e-05
0.000195486
0.00190709
0.000763979
0.000271128
0.00106379
0.00215735
0.00280972
0.00380558
0.00486425
0.00407755
0.00237555
0.00141334
0.000758922
0.000323579
0.000237295
0.000201105
0.000420195
0.000357535
0.000723958
0.000895661
0.00128102
0.00154993
0.0021291
0.00497726
0.0109853
0.0185593
0.0247716
0.027664
0.0264786
0.0204173
0.0116479
0.0080367
0.0113052
0.0116959
0.00768647
0.00263629
0.000864326
0.000254384
0.000111474
7.50571e-05
5.59405e-05
4.17956e-05
3.07815e-05
2.61929e-05
2.88398e-05
1.93188e-05
2.64815e-05
2.49694e-05
3.77836e-05
2.62396e-05
5.64544e-05
4.58179e-05
6.3884e-05
7.90192e-05
8.78702e-05
9.29484e-05
0.000192631
0.000173767
7.92665e-05
0.000148477
0.000167503
0.00020528
0.000287417
0.000218028
0.000244469
0.000258788
0.000288359
0.00027892
0.000250872
0.000219741
0.000230451
0.00016796
0.000200082
0.000153156
0.000163265
0.000128229
0.000128892
0.000132123
0.00011574
0.00012163
0.000121201
3.30035e-05
3.91151e-05
1.38897e-05
2.6158e-06
1.58651e-06
1.39752e-06
1.72154e-06
1.9964e-06
2.00139e-06
1.98487e-06
1.86454e-06
0.0113339
0.00770141
0.00411979
0.00285056
0.0019248
0.00119232
0.000867185
0.000560366
0.000452112
0.000428764
0.000496481
0.000505822
0.000589086
0.000628835
0.000902725
0.000832773
0.00109666
0.000992758
0.00123676
0.00111072
0.000621688
0.000259741
4.83878e-05
3.20264e-05
2.27805e-05
3.3185e-05
3.15105e-05
3.29798e-05
2.68717e-05
3.11653e-05
2.6422e-05
2.99983e-05
2.30545e-05
8.80192e-06
6.711e-06
6.01667e-06
9.20049e-06
1.26699e-05
7.60649e-06
1.48015e-05
1.42214e-05
1.46215e-05
1.41215e-05
1.46858e-05
1.61374e-05
1.20884e-05
6.55782e-06
1.3436e-05
1.18137e-05
7.66919e-06
5.91411e-06
4.71223e-06
5.522e-06
1.0139e-05
1.26095e-05
1.47119e-05
1.44208e-05
1.53086e-05
1.63558e-05
1.65455e-05
0.00427728
2.46407e-05
3.69995e-06
1.99346e-05
6.95825e-05
4.21098e-05
3.23037e-05
1.34351e-05
1.06307e-05
6.75956e-06
6.13911e-06
3.2085e-06
2.35111e-06
2.64623e-06
1.33502e-06
3.43442e-06
3.21487e-06
4.14622e-06
4.05936e-06
4.52326e-06
4.52593e-06
4.65647e-06
4.94152e-06
5.07616e-06
5.49492e-06
6.45038e-06
9.22192e-06
2.79376e-05
9.22157e-05
0.0560843
0.0956681
0.0947018
0.0919245
0.0914272
0.0906748
0.0848124
2.29817e-05
2.56741e-07
2.50588e-07
2.36956e-07
2.20502e-07
2.90405e-07
2.89541e-07
2.87868e-07
3.00306e-07
2.21263e-07
2.24151e-07
2.19682e-07
2.137e-07
2.10831e-07
3.24745e-07
1.88089e-07
6.09347e-07
1.66919e-08
2.40003e-06
2.68996e-06
4.22116e-06
1.05847e-05
0.0488406
0.0868974
0.0185264
0.0217984
0.0225387
0.0199078
0.0162596
0.013208
0.0122101
0.0126132
0.0132431
0.0124269
0.00928928
0.00326299
0.00183403
0.00695391
0.0466978
0.0424992
0.0387149
0.0324124
0.0258003
0.0219536
0.0204656
0.0219132
0.0239046
0.026059
0.0274428
0.0281984
0.028479
0.0289144
0.0291422
0.0293571
0.0293829
0.0294578
0.0295466
0.0301259
0.0308551
0.0320021
0.0332949
0.0347215
0.0360401
0.0373633
0.0382004
0.040305
0.0428151
0.0494903
0.00199418
0.00172288
0.00167552
0.00170736
0.00358968
0.0164287
0.0285006
0.0315469
0.0314918
0.0300604
0.027793
0.024213
0.0206599
0.0173524
0.0151679
0.0135817
0.0124171
0.0115855
0.011168
0.0108184
0.0104688
0.00937147
0.0079878
0.00600063
0.00374586
0.00267218
0.00173915
0.0020381
0.00409133
0.00832937
0.00329293
0.00371336
0.00060955
0.000509139
0.000636526
0.00072657
0.00221617
0.00319894
0.00347766
0.00344045
0.00334275
0.00321971
0.00309278
0.00296277
0.00295269
0.00276591
0.0027203
0.00274346
0.0024989
0.00214772
0.00170326
0.00105863
0.000366586
0.000329251
0.000296214
0.000230557
0.00126011
0.00217161
0.00402234
0.00541249
0.000122571
0.000113817
9.21786e-05
0.000136252
0.000257403
0.000421196
0.000794836
0.00170723
0.00222037
0.00257717
0.00265941
0.00275955
0.00263553
0.00252784
0.00230069
0.00197585
0.00152038
0.00102572
0.000429662
0.000364822
0.000332391
0.000317275
0.000327192
0.000376392
0.000529785
0.00229267
0.00528267
0.00736631
0.00668445
0.00629715
0.0001756
6.05984e-05
3.59649e-05
1.56375e-05
1.10987e-05
2.2938e-05
2.08543e-05
1.95781e-05
2.04286e-05
1.97597e-05
4.83894e-07
1.62409e-05
2.48403e-05
3.53834e-05
4.59411e-05
5.14639e-05
5.08471e-05
5.67782e-05
5.73167e-05
5.44888e-05
5.03977e-05
5.16605e-05
4.6054e-05
4.89451e-05
4.78732e-05
3.89905e-05
4.34759e-05
5.81251e-05
0.000106493
0.000426244
0.000268064
0.000112202
0.00164844
0.00189983
0.00204576
0.00259137
0.00183762
0.000270225
6.14637e-05
2.92192e-05
2.48171e-05
0.00013267
0.0001579
0.000180633
0.00015197
0.000144548
0.000100983
0.000105612
0.000122272
0.000148094
0.000185058
0.000682098
0.00202076
0.00777811
0.0182113
0.0265067
0.0290184
0.0254211
0.0160341
0.00887916
0.000349653
0.000161744
-1.37321e-05
5.66175e-05
2.0093e-05
1.7746e-05
1.16103e-05
7.99379e-06
9.80775e-06
9.09846e-06
9.87414e-06
8.82767e-06
1.13562e-05
1.20677e-05
1.17226e-05
1.15912e-05
1.17721e-05
1.42233e-05
1.81747e-05
2.37377e-05
1.89067e-05
3.48799e-05
6.44959e-05
8.33315e-05
-3.8897e-06
0.000197054
0.000282208
0.000202399
0.000124152
0.00011688
0.000300338
-1.32318e-05
0.00126804
0.00187992
0.00211743
0.00220853
0.00210286
0.00214812
0.00190875
0.00192903
0.00171483
0.00179509
0.00158389
0.00146104
0.00114987
0.000926359
0.000290417
2.95633e-05
0.000233249
0.00016942
7.05616e-05
1.98292e-05
7.29915e-06
1.77408e-06
2.98287e-06
6.08409e-06
7.41252e-06
5.2052e-06
1.21508e-06
1.98659e-06
0.0029466
0.0010857
0.000306374
0.000115507
5.04248e-05
3.74879e-05
4.56509e-05
6.46554e-05
5.48938e-05
9.14697e-05
9.83181e-05
0.000109848
0.000122263
0.000134482
0.000148996
0.000189955
-0.000139027
0.000417909
0.000742065
0.0009844
0.000986987
0.000448097
-1.64496e-05
3.35584e-05
2.59466e-05
2.53314e-05
2.51209e-05
3.08919e-05
2.88357e-05
3.18679e-05
3.07138e-05
-2.27487e-06
-2.68814e-07
1.55538e-05
2.25667e-05
3.28712e-05
3.29292e-06
5.11901e-05
8.72179e-05
0.00011119
0.000132031
0.000148104
0.000147751
0.000150942
0.000126746
9.644e-05
3.44807e-05
2.84759e-05
1.64838e-05
1.30503e-05
5.36673e-06
5.04945e-06
5.3568e-06
9.9966e-06
1.38005e-05
1.48209e-05
1.44976e-05
1.27869e-05
1.36724e-05
1.62896e-05
8.23567e-06
5.76397e-06
4.13639e-06
3.16231e-05
2.36947e-05
8.30205e-06
4.61855e-06
3.50837e-06
2.92657e-06
2.37578e-06
2.49939e-06
2.97183e-06
3.36864e-06
9.08571e-07
5.01919e-06
6.56226e-06
8.84807e-06
9.77081e-06
9.24872e-06
5.81419e-06
1.26516e-05
9.44335e-06
8.72305e-06
7.28201e-06
5.14766e-06
4.63681e-06
5.86075e-06
1.41765e-05
1.50295e-05
0.0119048
0.089247
0.0679953
0.0457204
0.0397901
0.0414533
0.00635751
8.52548e-07
2.49781e-07
2.51266e-07
2.83134e-07
3.14363e-07
3.51818e-07
3.69498e-07
3.84878e-07
3.82855e-07
3.97225e-07
4.30575e-07
3.9818e-07
3.23548e-07
1.29034e-07
1.75968e-07
1.7115e-07
3.05158e-07
1.95841e-06
1.20351e-06
5.29953e-06
4.20773e-06
9.705e-06
0.014929
0.0823596
0.0260645
0.0245917
0.0167951
0.00845705
0.00536953
0.00396441
0.00363484
0.00404359
0.00577544
0.00885604
0.01192
0.00741064
0.00265402
0.00488693
0.0458824
0.0399718
0.033043
0.023663
0.0165441
0.0140295
0.0151759
0.0189861
0.0235519
0.025893
0.0265154
0.0268221
0.0275964
0.0285648
0.0287179
0.0280086
0.026778
0.0258154
0.0250782
0.0251154
0.0255421
0.0269573
0.0291707
0.0317632
0.0341408
0.0362789
0.0377239
0.0391295
0.0419701
0.0497052
0.00206601
0.0018194
0.00164353
0.00207893
0.00879939
0.0249592
0.0308148
0.0309358
0.0294908
0.0274956
0.024434
0.0197617
0.0153632
0.0120733
0.00979982
0.00887662
0.00828262
0.00793846
0.00779787
0.0079795
0.00851352
0.00907321
0.00947446
0.00909746
0.00740403
0.00451449
0.00282389
0.00207232
0.0026004
0.00429374
0.00354318
0.00307392
0.000529828
0.000267306
0.000482861
0.000499926
0.00257196
0.00342245
0.00334442
0.00312185
0.00289321
0.00265702
0.00251992
0.0025403
0.00262536
0.00283896
0.00297606
0.00310121
0.00312068
0.00298652
0.00260395
0.002083
0.00133941
0.000566391
0.000305608
0.000290772
0.000424604
0.0012498
0.00214005
0.00407419
0.000121475
8.46733e-05
0.000130857
0.000285707
0.000625531
0.00226165
0.00331256
0.00383232
0.00414598
0.0042359
0.00428393
0.00429482
0.00417458
0.00402629
0.00393876
0.00365269
0.00323372
0.00276088
0.00200257
0.00126794
0.000518435
0.000359236
0.000342462
0.000358821
0.000395331
0.000677735
0.00187452
0.00269994
0.00316499
0.0046508
0.000108216
4.55801e-05
2.10952e-05
1.6996e-05
1.52526e-05
2.30759e-05
2.92196e-05
2.71075e-05
3.15658e-05
2.52101e-05
2.46689e-05
3.73653e-05
6.0315e-05
7.82609e-05
8.95375e-05
9.57278e-05
9.86888e-05
9.69217e-05
9.35212e-05
9.27022e-05
8.7635e-05
8.44366e-05
7.8906e-05
6.72659e-05
6.02855e-05
5.43539e-05
4.64056e-05
5.76178e-05
7.73585e-05
0.000133945
-0.00011052
0.000393996
0.0011807
0.00134251
0.00212253
0.000868539
9.65636e-05
6.0008e-05
9.23944e-05
0.000224521
0.000104973
0.000802358
0.000986434
0.000682857
0.000722409
0.000157663
0.000242391
0.00021524
0.000144267
0.00012757
7.79939e-05
0.000122055
0.00018057
0.00135979
0.00775768
0.0224075
0.0305749
0.0294736
0.020731
0.0101901
6.15309e-05
6.23554e-05
3.68617e-05
1.68037e-05
3.63532e-06
6.70275e-06
7.14795e-06
5.50367e-06
1.13162e-05
1.83198e-05
2.24187e-05
2.00861e-05
2.86891e-05
2.92815e-05
2.18549e-05
2.77588e-05
1.57834e-05
5.17169e-06
2.23362e-05
2.2067e-05
2.41077e-05
1.75789e-05
3.3656e-05
6.30009e-05
8.57676e-05
7.94734e-05
0.000216761
0.000290934
0.000241074
0.000174192
0.00245257
0.00256925
0.00245922
0.00211931
0.00182851
0.00163174
0.00147881
0.00124985
0.00141316
0.0011213
0.00137304
0.00134439
0.00161341
0.00183857
0.00191181
0.00189272
0.00208788
0.00163193
0.000915334
0.000335722
0.000165757
6.33523e-05
1.87086e-05
6.29094e-06
8.0788e-06
1.96503e-05
2.78952e-05
1.86807e-05
6.8174e-06
2.67933e-06
4.91319e-05
0.000202073
-3.63001e-06
5.43644e-05
-2.20381e-05
5.66318e-05
9.45646e-05
0.000162632
0.000182186
0.000188135
2.59502e-05
8.92416e-05
2.74519e-05
5.00395e-05
-2.81829e-05
0.000184053
0.000183286
2.02743e-05
0.000384416
0.000860757
0.000994591
0.00084227
0.000281193
5.76095e-05
2.47327e-05
2.01998e-05
8.35422e-06
1.67025e-05
3.13299e-05
2.4843e-05
1.29109e-05
1.49237e-06
2.66278e-05
3.85515e-05
4.18217e-05
6.55343e-05
0.000134626
0.000173368
0.000520379
0.000947189
0.00149007
0.00182072
0.00205422
0.00216841
0.00208012
0.00167889
0.00076241
0.000150877
9.55656e-06
2.44226e-05
1.37561e-05
4.69954e-06
5.02384e-06
5.48735e-06
1.30942e-05
1.35111e-05
9.9873e-06
6.36874e-06
7.80477e-06
1.38117e-05
6.72209e-06
4.93513e-06
2.61759e-05
1.48037e-05
6.32621e-06
4.00142e-06
3.53796e-06
3.2771e-06
4.3551e-06
4.37751e-06
3.02237e-06
6.15625e-06
9.17969e-06
9.36856e-07
8.75233e-06
9.40863e-06
1.19484e-05
1.13265e-05
1.78979e-05
2.62824e-05
3.89731e-05
8.43514e-05
8.16733e-05
3.3529e-05
8.77217e-06
6.7272e-06
5.39101e-06
8.18896e-06
2.31306e-05
0.00114652
0.0562987
0.00152209
1.86099e-05
5.61508e-05
0.000131444
2.63579e-06
3.3598e-07
2.4142e-07
3.07766e-07
4.25552e-07
5.33849e-07
4.11559e-07
4.72671e-07
4.41426e-07
4.07393e-07
3.39609e-07
3.25563e-07
4.94156e-07
3.66611e-07
8.33432e-08
2.03448e-07
1.42781e-07
1.50759e-07
7.88223e-07
1.20695e-05
1.47938e-05
5.55312e-06
5.46094e-06
0.0017475
0.0785427
0.0270471
0.018798
0.00657651
0.00309139
0.00291028
0.00323099
0.00337158
0.00324658
0.00319877
0.00478017
0.00912212
0.0100315
0.00353387
0.00403354
0.0445247
0.0359433
0.025762
0.0152717
0.00912577
0.008182
0.0107034
0.0171031
0.023535
0.0254652
0.0256795
0.0262374
0.0282875
0.0296685
0.0289142
0.0269186
0.0247267
0.0225141
0.0206651
0.0197462
0.01991
0.0214803
0.0240001
0.0272401
0.0311653
0.0345695
0.0370595
0.0385952
0.0414452
0.049414
0.00228472
0.00198465
0.0016918
0.00222252
0.00947056
0.0210257
0.0216751
0.0186417
0.0208226
0.0225953
0.0204622
0.0156564
0.0113681
0.00886068
0.00792711
0.00748247
0.00727023
0.00689116
0.00643474
0.0060811
0.00612441
0.00686367
0.00805276
0.00917093
0.00949626
0.00795672
0.00422401
0.00282753
0.00251344
0.00368424
0.00358567
0.00254857
0.000270399
0.000194161
0.000173193
0.000745432
0.00293896
0.00343807
0.00298809
0.00258642
0.00212931
0.00190064
0.00199086
0.00228971
0.00262767
0.00316545
0.0045393
0.00552411
0.00568925
0.00539926
0.00407631
0.00284861
0.0021968
0.00136235
0.000576237
0.000161609
0.000128949
0.000621291
0.00155161
0.00312758
0.000124378
7.71677e-05
0.000302391
0.00140743
0.00313607
0.00401531
0.00443761
0.00459422
0.00464237
0.00465875
0.00462942
0.00458295
0.00449504
0.00448415
0.00429616
0.00416487
0.0040572
0.00365951
0.00317658
0.00237936
0.00158201
0.000835841
0.000209404
-7.20991e-06
7.03385e-05
0.000402557
0.000934096
0.00156961
0.002225
0.00338751
1.30454e-05
3.91212e-05
2.86324e-05
3.24925e-05
5.42826e-05
6.47955e-05
7.54203e-05
6.40819e-05
4.78886e-05
4.07511e-05
3.43073e-05
5.99907e-05
9.68215e-05
0.000114443
0.000102807
9.94878e-05
8.81705e-05
7.07283e-05
8.09548e-05
7.10758e-05
8.92882e-05
8.95846e-05
0.000100597
9.12028e-05
7.66183e-05
6.6118e-05
6.05973e-05
5.47597e-05
6.1096e-05
9.41201e-06
0.000297484
0.000342203
0.000778703
0.00144447
0.000541753
6.63372e-05
3.23346e-05
-5.69206e-07
0.000479058
0.00225468
0.00258434
0.00209413
0.00141717
0.000654614
0.000313811
-2.35329e-06
0.000280707
0.000241823
0.000213174
0.000155056
9.34354e-05
4.74133e-05
7.86279e-05
0.000189928
0.00188554
0.0161699
0.030211
0.0315658
0.0240983
0.0110396
7.81282e-05
3.63343e-05
1.06302e-05
5.90767e-06
5.5075e-06
3.81498e-06
1.78058e-05
1.63026e-05
6.18149e-05
9.24029e-05
5.69809e-05
5.65014e-05
2.81524e-05
-1.60747e-05
7.67139e-05
7.12638e-05
6.98881e-05
5.74358e-05
4.41069e-05
3.58562e-05
1.1908e-05
9.82609e-06
1.59697e-05
4.52574e-05
7.07401e-05
9.72942e-05
6.23763e-05
0.000202115
0.000298355
0.000241743
0.00251555
0.00195293
0.000952181
0.000121136
0.000358028
0.000314444
0.00028204
0.000290886
0.000267114
0.000333648
0.000276697
0.000359872
0.000457966
0.000804847
0.00118204
0.00153971
0.00203044
0.00216067
0.00213547
0.00146205
0.000366377
8.75812e-05
3.47205e-05
1.22028e-05
9.76713e-06
2.46038e-05
3.6555e-05
1.78675e-05
1.1952e-05
1.45105e-06
0.000264614
5.63249e-05
4.46666e-05
-2.75869e-06
0.000129696
0.000254096
0.000846639
0.00152119
0.00200669
0.00227472
0.00231172
0.0022548
0.00215645
0.00177255
0.00154298
0.000959959
0.000540806
0.000260341
0.000381614
0.000664109
0.00113446
0.00121223
1.33467e-05
9.51512e-05
2.98416e-05
1.70051e-05
8.36595e-06
7.18186e-06
1.8628e-05
1.06066e-05
9.64551e-06
2.59506e-05
3.30954e-05
3.74216e-05
3.79978e-05
0.000105151
0.000177142
0.000724861
0.00168246
0.00262841
0.0055255
0.0078614
0.00943514
0.0107159
0.0108439
0.00906855
0.00533951
0.00188708
0.000127212
6.16354e-05
2.13218e-05
1.06972e-05
5.23841e-06
5.02093e-06
8.02901e-06
1.15234e-05
7.5254e-06
1.24651e-06
5.42962e-06
1.35888e-05
8.04431e-06
1.67853e-05
1.6739e-05
8.1776e-06
5.26532e-06
5.31571e-06
3.77095e-07
3.09914e-06
7.64654e-06
7.58012e-06
9.25047e-06
1.08344e-05
4.15741e-06
7.70275e-06
4.31096e-06
9.47863e-06
5.65148e-06
5.28893e-06
8.17434e-06
1.97228e-05
0.000109184
0.000537457
0.0013428
0.000732042
8.20875e-05
9.59834e-06
5.82646e-06
6.40583e-06
1.44025e-05
0.000165309
0.00653623
2.4628e-06
7.90821e-07
3.00959e-06
2.29682e-06
4.2034e-07
1.86626e-07
2.9148e-07
4.5257e-07
2.0008e-07
6.32124e-07
8.06022e-07
7.59757e-07
6.8483e-07
4.31941e-07
2.70938e-07
4.04376e-07
3.62303e-07
4.92668e-07
5.73711e-07
3.25966e-07
1.50459e-07
1.15904e-07
3.22369e-07
7.41814e-06
3.11711e-05
8.96793e-06
3.58549e-06
0.00106721
0.0773823
0.0258106
0.0115967
0.00313183
0.00294618
0.00401347
0.00653756
0.00817716
0.00766744
0.00522382
0.00453708
0.00718885
0.0105824
0.00500592
0.00390045
0.0430911
0.0323517
0.0202498
0.00921897
0.00457512
0.00433894
0.00747853
0.0151965
0.0237831
0.0257354
0.0253538
0.0266889
0.0295413
0.030656
0.0290606
0.025747
0.0224631
0.0195684
0.0174628
0.0161698
0.0158485
0.0169169
0.019736
0.0237432
0.0284789
0.0329826
0.0364304
0.0383074
0.0412478
0.0496312
0.00255886
0.00232991
0.00170734
0.00205834
0.00582777
0.0100193
0.00671597
0.0063806
0.0136254
0.0191662
0.0174866
0.0129223
0.00908151
0.00781093
0.00787752
0.00822509
0.00847648
0.00813527
0.00724596
0.00623603
0.0055399
0.00554671
0.00639591
0.00816125
0.00971552
0.00969729
0.00721238
0.00377196
0.00290774
0.00362279
0.0035519
0.00216579
0.000101391
0.000121841
0.000176762
0.000518011
0.00331791
0.00316649
0.00253213
0.00198637
0.00153253
0.00168121
0.00214329
0.00274826
0.00362822
0.00595049
0.00755989
0.00859629
0.0096121
0.00855914
0.00712343
0.00478926
0.00275773
0.00202305
0.00114423
0.000536745
0.00015951
0.000385106
0.00134191
0.00251508
7.02976e-05
0.00027266
0.00161242
0.00348325
0.0041456
0.00436553
0.00450997
0.0045549
0.00461274
0.00460367
0.00453332
0.00447978
0.00437375
0.00420864
0.00401821
0.00405707
0.00391647
0.00395046
0.00367648
0.00317374
0.00244315
0.0016035
0.000908258
0.000413054
0.000351892
0.000467395
0.000769592
0.00112351
0.00183601
0.00317831
8.45058e-05
3.35842e-05
2.76861e-05
6.07466e-05
8.01321e-05
9.02801e-05
9.08312e-05
8.12765e-05
6.25699e-05
4.51769e-05
4.84182e-05
9.00885e-05
0.000113736
0.000115832
8.95532e-05
7.40646e-05
7.54669e-05
7.42078e-05
7.52246e-05
6.07463e-05
6.7747e-05
8.33889e-05
9.61859e-05
0.000110296
9.13715e-05
8.25378e-05
7.35975e-05
6.43861e-05
6.07748e-05
0.000133387
0.000308984
0.000240308
0.000687551
0.000279765
7.83154e-05
3.16593e-05
-4.31757e-05
0.0011509
0.00362034
0.00381179
0.00242171
0.00104178
0.000302828
0.000167739
8.8804e-05
0.000135359
0.000133749
0.000205212
0.000213142
0.000173916
0.000121616
2.6962e-05
6.3914e-05
7.53281e-05
0.000519505
0.0107138
0.0290841
0.0328276
0.0251981
0.0110593
5.72073e-05
2.34138e-05
4.63743e-06
5.02697e-06
6.57491e-06
2.2958e-05
6.18383e-05
5.88938e-05
0.000159664
0.000161175
7.76285e-05
9.5387e-05
6.64532e-05
5.02867e-05
4.02239e-05
3.98425e-05
4.32105e-05
4.39261e-05
5.67038e-05
4.93695e-05
4.67652e-05
2.90571e-05
1.81841e-05
3.73479e-05
6.72012e-05
8.79993e-05
-3.26462e-05
0.000107744
0.000272143
0.000277574
0.00161592
0.000268263
0.000350113
0.000188184
0.000113386
0.000159519
0.000180923
0.000256408
0.000309689
0.000313567
0.000917517
0.00166954
0.00166082
0.00186698
0.00173134
0.00171306
0.00178034
0.00206283
0.00252206
0.00235952
0.001205
0.000292154
7.66832e-05
1.70627e-07
1.96165e-05
2.55047e-05
4.06503e-05
5.84671e-05
2.37597e-05
3.42298e-06
6.836e-05
3.32906e-05
5.07127e-05
0.000145314
0.000184723
0.00155227
0.00256422
0.00324834
0.00470665
0.00515349
0.00544218
0.00537001
0.00516521
0.00489183
0.00388488
0.00237134
0.00172464
0.00113352
0.000791977
0.000871685
0.00118423
0.00149795
0.000868044
0.000148626
3.82052e-05
1.27388e-05
1.82119e-06
1.13894e-05
1.99332e-05
3.31126e-06
1.24795e-05
3.15404e-05
2.8612e-05
3.26672e-05
3.60999e-05
0.000108642
0.000494801
0.00157158
0.00435627
0.00826181
0.0132603
0.0171793
0.019811
0.0216954
0.0215261
0.0192469
0.0144749
0.007769
0.00191797
0.000179457
-1.31403e-05
8.17195e-06
6.03578e-06
4.42108e-06
1.86552e-06
6.88311e-06
4.50205e-06
4.44257e-06
2.0498e-06
1.29026e-05
8.2782e-06
1.6629e-05
1.13271e-05
1.84032e-06
2.90705e-06
7.7025e-06
1.22928e-05
1.49146e-05
1.55877e-05
1.38592e-05
1.35232e-05
1.20644e-05
5.85019e-06
6.40513e-06
8.64274e-06
7.55741e-06
2.70429e-06
2.40574e-06
7.27925e-06
3.32359e-05
0.00112334
0.00692997
0.0117447
0.0065791
0.000820317
2.67157e-05
5.40114e-06
5.82077e-06
9.11383e-06
0.000118245
1.32613e-05
2.20795e-07
3.35014e-07
1.01114e-06
5.2867e-07
2.10901e-07
2.23927e-07
4.08394e-07
2.82538e-07
1.03509e-06
1.57381e-06
1.35319e-06
1.91717e-06
6.61741e-07
1.36516e-06
8.98535e-07
2.59679e-07
3.9213e-07
5.11488e-07
6.10883e-07
3.66528e-07
1.3542e-07
9.33388e-08
1.83387e-07
3.75936e-06
3.15342e-05
1.31042e-05
9.9208e-06
0.00211844
0.0792647
0.0256346
0.00717052
0.00281682
0.00400461
0.00731024
0.0104833
0.0134053
0.015254
0.0107474
0.00662788
0.00734528
0.0107637
0.00578703
0.0039961
0.0411685
0.0286841
0.0154453
0.00582881
0.00335895
0.00335597
0.00507906
0.0130907
0.0236575
0.0269684
0.0260693
0.0274247
0.0306519
0.0316058
0.0290261
0.0248782
0.0214111
0.0187735
0.017146
0.0154229
0.014406
0.0149759
0.0175914
0.0221681
0.0271533
0.0324474
0.0360883
0.0382266
0.0417187
0.0504606
0.00282841
0.00270831
0.00167624
0.00158564
0.00249679
0.00236098
0.0011384
0.00213461
0.00883586
0.0171963
0.0156289
0.0105781
0.00800641
0.00787017
0.00883333
0.010421
0.0108785
0.0095152
0.00812691
0.00679327
0.00551649
0.0046329
0.0051951
0.00711155
0.00945032
0.0109768
0.00923015
0.00554372
0.00337304
0.00376327
0.00352307
0.00177707
-2.63724e-05
8.41599e-05
0.000156058
0.00121578
0.00335156
0.00287135
0.00207146
0.00161821
0.00157133
0.00208918
0.00295518
0.00481942
0.00701983
0.00913552
0.0106005
0.0118969
0.0121032
0.011298
0.00892028
0.00663504
0.00381655
0.00248903
0.00173367
0.000973888
0.000355512
0.000463388
0.001136
0.0025832
9.07502e-05
0.000996557
0.00356773
0.00398404
0.00413683
0.00432837
0.00455358
0.00459467
0.00460243
0.00451999
0.00450594
0.00435948
0.00418437
0.0039479
0.00391241
0.00372761
0.00376727
0.00378578
0.00383466
0.00353299
0.00294673
0.00219552
0.00148399
0.000956375
0.000746526
0.000785621
0.000884969
0.00111653
0.00175049
0.00313132
8.07564e-05
3.74069e-05
4.37067e-05
7.1443e-05
8.14533e-05
8.11193e-05
9.97395e-05
-1.88585e-05
7.40468e-05
5.54414e-05
6.75223e-05
0.000108999
0.000123121
0.000101256
8.73282e-05
6.29357e-05
7.09288e-05
7.10203e-05
8.92833e-05
8.15893e-05
8.71684e-05
7.80908e-05
0.000102409
0.000109538
0.000106484
9.49711e-05
8.02269e-05
6.42899e-05
7.02079e-05
0.000130472
0.00029817
-1.40666e-05
-3.98417e-05
1.78115e-05
2.81661e-05
2.92309e-05
0.000354544
0.0038992
0.00524621
0.0031172
0.00172193
0.000341244
5.21731e-05
7.36414e-05
5.61574e-05
7.38304e-05
7.68954e-05
0.000102111
0.000164251
0.000153608
9.66814e-05
6.90533e-05
5.64975e-05
7.07887e-05
0.000230969
0.00760728
0.0285595
0.0327005
0.024696
0.0105572
4.10165e-05
3.05493e-06
2.7123e-06
7.36503e-06
1.87501e-05
4.98088e-05
0.000101943
0.000119868
0.000111303
1.99278e-05
5.71641e-05
1.1542e-05
1.82841e-05
1.374e-05
9.13402e-06
8.70339e-06
1.32802e-05
1.85929e-05
7.83817e-06
2.97705e-05
5.44507e-05
4.83806e-05
3.15021e-05
4.73975e-05
6.88347e-05
8.50685e-05
8.97403e-05
3.55158e-05
0.000205134
0.000263929
0.000585994
0.000347098
0.000103816
-1.37682e-05
3.5215e-05
9.31362e-05
0.000252745
0.000451019
0.00162919
0.00293818
0.00500314
0.0068292
0.0078398
0.00743788
0.00545144
0.00319836
0.00252295
0.00230189
0.00256096
0.00279633
0.00224414
0.00053069
0.000133991
4.48073e-05
9.97402e-06
2.33189e-06
4.77339e-05
7.43412e-05
-1.56262e-06
5.89416e-06
4.52617e-05
3.60428e-05
6.61804e-05
0.000289056
0.00116894
0.00229631
0.00318035
0.00421017
0.00491429
0.00479825
0.00460399
0.00441359
0.00437834
0.00460912
0.00511783
0.00496141
0.00299014
0.00204015
0.00142434
0.00123971
0.00136054
0.00164126
0.00135442
0.000273194
7.5808e-05
1.58485e-05
1.49557e-05
4.92338e-06
1.76095e-05
4.04435e-06
6.58052e-06
2.29466e-05
1.85872e-05
3.08995e-05
4.82296e-05
0.000143074
0.000928087
0.00216117
0.00851763
0.0141872
0.0202241
0.024522
0.027242
0.0284125
0.0284068
0.0266033
0.0214164
0.0146713
0.00552408
0.00122317
9.75518e-05
2.58652e-05
8.54789e-06
4.55233e-06
4.27206e-06
7.26264e-07
4.87562e-06
3.63614e-06
4.53298e-06
1.24976e-05
3.25524e-06
1.65612e-05
8.95903e-06
5.80646e-06
7.64429e-06
1.60362e-05
2.00003e-05
2.3524e-05
2.27975e-05
2.2865e-05
1.94253e-05
1.56251e-05
5.5053e-06
8.09511e-06
1.24746e-05
8.62933e-06
2.27512e-06
3.35267e-06
5.86866e-06
3.02539e-05
0.00153759
0.0151915
0.0165801
0.0117153
0.00130531
2.8847e-05
4.98335e-06
5.3896e-06
7.13975e-06
0.000100635
5.75832e-06
1.29542e-07
2.10878e-07
3.85644e-07
2.6029e-07
2.09286e-07
2.85754e-07
5.47713e-07
9.59216e-07
1.53574e-06
3.82223e-06
5.84419e-06
8.02336e-06
5.85615e-06
4.54363e-06
9.42191e-07
7.70165e-07
6.11643e-07
1.99649e-07
4.1163e-07
4.76111e-07
1.55355e-07
7.5698e-08
1.39494e-07
1.85231e-06
2.50263e-05
7.41547e-06
1.38872e-05
0.0143468
0.0816672
0.0232775
0.00653548
0.00304995
0.00546232
0.00828443
0.0112477
0.0147978
0.0186037
0.0171977
0.0101656
0.00922723
0.0114778
0.00597832
0.00409123
0.0399514
0.0257845
0.0126322
0.00407705
0.00281665
0.00299795
0.00461164
0.0103099
0.0225629
0.0286379
0.0272582
0.028148
0.0317805
0.032347
0.0293379
0.0249379
0.0218788
0.0203074
0.0190762
0.0171252
0.0150839
0.0154401
0.0181542
0.0230076
0.0283486
0.0331158
0.03637
0.0390237
0.0437278
0.050389
0.00318935
0.00304176
0.00161992
0.000892612
0.000675886
0.000338142
0.000223394
0.000605962
0.00659005
0.0162094
0.0143651
0.00925882
0.00779501
0.00827845
0.0102682
0.012574
0.0121596
0.00934748
0.00713672
0.0053818
0.00415498
0.00379003
0.00425146
0.00648221
0.00933927
0.0117976
0.0110614
0.00713137
0.00372912
0.00401131
0.00354713
0.00128957
0.00011652
6.13786e-05
-1.15279e-06
0.00176812
0.00324091
0.00265303
0.00193909
0.00161234
0.00195431
0.00280161
0.00483816
0.00772584
0.0100509
0.0111131
0.0116811
0.0122285
0.0123246
0.0114628
0.00940819
0.0072596
0.0046818
0.00281364
0.00211247
0.00131109
0.00068638
0.000574074
0.00125392
0.0027395
0.000182285
0.00287911
0.00388759
0.00376923
0.00410881
0.00442057
0.00455455
0.00450873
0.00450992
0.00444849
0.00431402
0.0039755
0.00391949
0.00380814
0.00360995
0.00356495
0.0035455
0.00366732
0.00380501
0.00361588
0.00314535
0.00249862
0.0018478
0.00141743
0.00125774
0.00116487
0.00115883
0.00127229
0.00182765
0.0032019
7.06938e-05
3.88606e-05
5.5991e-05
5.34576e-05
4.91441e-05
6.21825e-05
9.61058e-05
5.15604e-05
8.30789e-05
6.25415e-05
7.8187e-05
0.000122682
0.000120491
0.00010117
7.59137e-05
8.47378e-05
8.09159e-05
0.000109336
0.000101715
0.000105752
8.53865e-05
9.33356e-05
0.000101444
0.000116164
0.00011259
9.76879e-05
8.78812e-05
6.64835e-05
7.69125e-05
0.000144059
0.000289557
0.000299283
0.000145087
9.84033e-06
2.5352e-05
8.98695e-05
0.00221204
0.00481915
0.00419349
0.00259804
0.001522
0.000238575
7.98208e-05
2.85446e-05
3.89603e-05
6.07136e-05
7.80718e-05
2.37619e-05
0.000108773
0.000131923
7.09948e-05
6.95201e-05
5.33371e-05
5.68649e-05
0.000218281
0.00879702
0.0295543
0.0314945
0.0211135
0.00873989
2.8084e-05
4.46064e-06
4.25756e-06
5.48359e-06
2.52419e-05
5.97076e-05
2.02289e-05
8.11921e-05
-2.92996e-05
5.72374e-05
2.45769e-05
1.18554e-05
5.40231e-06
6.92165e-06
5.7331e-06
6.02811e-06
6.46731e-06
7.19254e-06
1.64206e-05
2.5969e-05
3.83796e-05
4.30755e-05
5.24792e-05
6.22385e-05
6.39892e-05
7.66982e-05
8.38814e-05
0.000105859
0.000226082
0.000231935
0.000459309
0.000130389
-7.02668e-05
0.000114334
-4.08863e-05
0.000186686
0.000450382
0.00184417
0.00516037
0.00828304
0.0123979
0.0136631
0.0157313
0.0156811
0.0137198
0.00965181
0.00484589
0.00290032
0.00276134
0.00298528
0.00284367
0.00155982
0.00026054
8.35565e-05
4.33786e-05
2.73731e-05
6.54779e-05
8.74805e-05
1.60186e-05
8.72299e-06
2.8308e-05
5.58143e-05
0.000142919
0.000306347
0.00119012
0.00236749
0.00333844
0.00410672
0.00434274
0.0041415
0.00370031
0.00341286
0.00323513
0.00331178
0.00405693
0.00509631
0.00484469
0.0028603
0.00193266
0.00159498
0.00163286
0.00186424
0.00162907
0.000353815
-5.9855e-05
3.88418e-05
1.72162e-05
3.30917e-06
1.37929e-05
2.48357e-05
1.78456e-05
6.11085e-06
1.49079e-05
3.02608e-05
3.79497e-05
0.000132034
0.00109445
0.00243176
0.0114788
0.0168765
0.0241196
0.0268956
0.0305518
0.0316508
0.031752
0.0302035
0.0250448
0.018596
0.0084781
0.00207409
0.000163538
3.6196e-05
1.21813e-05
3.71226e-06
3.86031e-06
4.08924e-06
3.67238e-06
3.12326e-06
4.56674e-06
1.32812e-05
4.66087e-06
7.37276e-06
1.02615e-05
6.84995e-06
1.7356e-05
2.52253e-05
3.00013e-05
3.31396e-05
3.18555e-05
2.9463e-05
2.51406e-05
2.03261e-05
9.44305e-06
1.26104e-05
1.67709e-05
1.36904e-05
5.14651e-06
3.0294e-06
3.3377e-06