/*--------------------------------*- C++ -*----------------------------------*\
| =========                 |                                                 |
| \\      /  F ield         | OpenFOAM: The Open Source CFD Toolbox           |
|  \\    /   O peration     | Version:  2.1.1                                 |
|   \\  /    A nd           | Web:      www.OpenFOAM.org                      |
|    \\/     M anipulation  |                                                 |
\*---------------------------------------------------------------------------*/
FoamFile
{
    version     2.0;
    format      ascii;
    class       volScalarField;
    location    "0.005250000";
    object      omega;
}
// * * * * * * * * * * * * * * * * * * * * * * * * * * * * * * * * * * * * * //

dimensions      [0 0 -1 0 0 0 0];

internalField   nonuniform List<scalar> 
12384
(
11052.3
25518.1
30818
34937.3
37775.7
39516.7
39045.3
36782.3
33105.4
29081
24445.1
18718.1
11976
5989.82
25127
36707.4
44439.4
49317.6
52916.2
55276.2
56721
57708
58635.6
60333.1
62953.5
66867.9
71813.5
77632
84087.9
89977.8
95422
98815.7
100417
98547.9
95752.2
92042.4
88827.7
84590.2
78333.6
67845.4
50990.6
30717.3
18213.2
14232.2
45392.5
53012.5
58313.5
62970.5
67723.2
72334.4
76312.1
81376.2
82948
83514.2
82185.7
81885.7
83061.4
86310.6
91088.2
97568.9
103920
110364
114244
117190
118801
118529
115485
110850
103591
92901.4
75363.5
49208.1
26517.7
19933.9
44342.9
59309.9
71766.4
81466.3
89120.1
95835.4
100480
102880
103680
105330
110022
118144
128313
139295
149527
157428
161426
159841
155321
150335
147529
146644
145486
141689
134174
122528
105637
78650.6
45051.8
34650.3
56253.2
68460.2
75594.7
79939.3
84308.1
91518.8
101600
113571
125960
137068
146666
152457
155820
154303
152647
153330
154261
154662
153203
150426
146417
141781
135429
125509
110185
86685.5
54942.9
32114.5
29963
33178.2
28307
41182.4
51256.4
58174.2
63658.7
68976.2
74361.3
78928.4
80295
80260.5
79866.5
81002.8
85440
92157.8
100466
109818
119455
127708
134389
136992
140306
142204
143189
141272
136236
127753
114388
94212.2
66062.5
46494.6
27581
34223.1
41320.2
46413.4
50674.1
54171
57127.4
59409.1
61727.6
68021.6
77912.1
90412
101181
109604
112346
108509
104057
99432.6
94434.8
89920.2
86089.9
83052.7
80759.2
79128.8
77589.1
75560.4
72310.7
66807
56575.9
40579.4
29463.8
30795.9
41131.9
53435.5
64063.7
74366.5
86242.1
99817.8
114021
127511
140228
149837
158206
161601
162725
158753
153426
149168
143484
137278
129194
118827
105624
90471.5
76312
67339.9
62720.8
58331.4
52505.4
47779.6
34385.4
51600.9
68024.3
83810.2
98669.1
112492
124994
136521
145834
153979
158698
160445
158226
155931
152486
149508
145178
140367
133207
123323
109985
94207.2
79935.6
70434.3
62830.1
54672
46919.5
38965.9
32024.4
26634
40499.5
43565.6
54915.5
69369.1
85543.3
102540
118944
133582
146319
155099
161666
162125
161005
161161
160595
160989
159345
156455
151739
145508
136763
124583
107919
92573
83072.7
76812.5
72017.3
69117.2
69523.2
70760
39914
48362.1
63009.6
85006.9
110070
135272
158335
177329
196125
205699
215634
213577
204908
199241
191174
184526
178073
171204
162838
152719
141836
129932
117598
104588
90776.8
78642.1
71275.5
69415.7
72597.6
75393
23569.9
36855.6
55112.9
66895.3
73451.2
76591.6
77816.9
77983.4
79148.5
79138.4
78265.5
75259.1
72500.7
71035
72693.4
77168.7
83583.3
90737.6
97781.4
102819
104235
103762
102940
101728
99747.4
95524.2
86731.4
68962.4
39358
11269.4
4598.25
7727.34
10065.4
10138
11931.7
18522.4
39923.2
71507.6
91565.2
105049
114960
123448
131305
138762
139766
135720
126351
114047
99163.1
82363.6
63271.9
41935.3
22567.4
10895
5088.8
2847.09
2116.9
1825.32
1436.79
1123.99
20651.6
106207
132257
154112
175308
194974
210986
219636
219301
209063
189014
159136
119239
22263.6
26314.1
99519.5
125149
149976
171304
184155
189230
189585
189887
195031
207712
230554
263192
303327
349970
398210
446037
489061
523912
546465
554630
544157
519132
480748
434466
379173
314193
236948
146791
27671
43371.2
131522
193498
280352
358708
408638
429949
420586
392998
367968
353542
357040
379226
421580
482645
556132
633184
703219
755474
783357
779833
751014
698228
630514
548803
463118
374772
294055
214634
46606.7
54409.5
260973
362920
439355
481461
478197
447720
419245
405836
419106
463958
530199
614270
710088
812001
911388
999956
1.0687e+06
1.09759e+06
1.08633e+06
1.04239e+06
970725
879651
772379
656604
541624
434721
338878
253837
68738.3
56476.1
187226
213403
259388
342490
459355
593625
733342
869889
997361
1.10915e+06
1.20117e+06
1.26711e+06
1.30467e+06
1.30633e+06
1.27593e+06
1.21741e+06
1.13524e+06
1.03367e+06
919369
798713
680222
571336
477041
396474
323002
257305
200861
149399
47452.3
47366.4
240412
322155
382649
421650
440303
435725
411247
376481
342565
319635
318484
347427
399394
471133
557925
653066
746569
828048
888586
916368
907763
876643
821707
750006
665257
568127
458421
331527
78358
35642.5
133310
170420
194838
209443
213648
214801
231113
282206
383474
508248
640705
766315
878990
969053
1.02877e+06
1.04494e+06
1.02102e+06
963206
879615
780790
679682
586142
508476
446004
395265
348427
301397
247071
67303.6
50070
139203
164856
202579
270161
370853
494333
627196
759972
888035
1.00949e+06
1.12289e+06
1.22546e+06
1.31372e+06
1.38207e+06
1.42319e+06
1.42418e+06
1.39486e+06
1.32598e+06
1.22847e+06
1.1053e+06
964885
810048
640536
469295
326802
234378
186456
158311
60833.6
61213.7
301185
407272
499262
593477
691848
792556
894265
993764
1.09079e+06
1.17973e+06
1.25767e+06
1.31441e+06
1.34263e+06
1.33335e+06
1.29711e+06
1.224e+06
1.12719e+06
1.00217e+06
857114
687752
509031
349411
253395
227199
221717
208778
189467
160986
46897.9
60237.7
185603
278157
396991
533999
680837
831983
981436
1.12407e+06
1.25217e+06
1.35846e+06
1.43853e+06
1.48166e+06
1.48647e+06
1.44821e+06
1.38587e+06
1.29007e+06
1.18065e+06
1.04973e+06
909066
752578
587000
430744
312959
266502
260274
255207
248056
240947
78607.2
58422.1
186560
321838
491760
664711
834615
1.0011e+06
1.1653e+06
1.32258e+06
1.46872e+06
1.59342e+06
1.69291e+06
1.75255e+06
1.76504e+06
1.72532e+06
1.6382e+06
1.51163e+06
1.35397e+06
1.17518e+06
978388
770215
572319
407100
312291
290212
292102
289264
276201
268716
86748.7
46985.7
131612
192798
263952
329853
381843
416415
429845
427521
404688
371668
330214
294813
272682
282774
323664
383745
455155
533093
608672
672215
709435
712526
684342
630963
557028
465978
361959
253277
49592.4
11142.8
71839.5
93789.9
110406
138438
238524
386998
535814
670080
781937
868164
924837
946430
924733
867448
786390
690942
590051
490665
396435
309407
228580
144175
104199
90856.9
83223.1
73438.2
60919
47669.1
1326.6
28649.1
130130
153473
169593
183528
195757
206585
215123
219632
219079
211495
193964
161511
30779.3
31433.5
126292
154833
178571
193997
201870
206700
213431
224183
238337
256841
283342
316432
352738
389078
424548
457334
487764
512633
530509
538081
532947
515440
489406
457710
419372
370664
304624
216967
41623.8
45520
164747
238242
318751
370423
386622
381197
367610
360476
369237
389776
420743
462641
514364
573640
633408
689919
739104
777215
798635
796991
774716
736251
685221
623277
551067
469101
383020
291200
68404.3
61681.8
327355
405765
440531
440671
429162
429262
455537
496969
550289
603154
650379
699630
753622
814198
879532
944693
1.007e+06
1.05513e+06
1.08022e+06
1.08046e+06
1.05653e+06
1.00862e+06
933725
832669
712484
583673
459116
343205
91465.1
57169.3
210478
251628
339256
464438
596476
717196
824795
920855
1.00743e+06
1.08435e+06
1.1511e+06
1.20525e+06
1.24318e+06
1.2595e+06
1.25314e+06
1.22489e+06
1.17508e+06
1.10563e+06
1.01843e+06
917046
807399
697979
597415
507584
423577
342762
269228
210588
61659
60279.1
333258
403881
443515
459657
458055
444632
424485
404677
393215
397424
420263
453688
491340
536658
591279
653441
719699
781013
830871
860838
866956
851235
818732
774215
719356
650322
560103
437110
98796.7
42422.8
178599
210553
227568
235637
240901
261328
322447
430861
561438
676504
775318
861166
939486
1.01056e+06
1.0654e+06
1.09066e+06
1.08429e+06
1.0457e+06
977824
885886
778476
668271
569997
492543
436537
392843
351916
304390
77320.3
64682.6
165758
196350
256622
353650
468072
582338
689537
790343
887033
980865
1.072e+06
1.15883e+06
1.23767e+06
1.30468e+06
1.35413e+06
1.37795e+06
1.37324e+06
1.33857e+06
1.27787e+06
1.1971e+06
1.10071e+06
987044
845731
677349
501786
348303
245801
188023
66704
79970.2
424613
508565
560495
610252
667111
733494
809083
892299
978008
1.06284e+06
1.13981e+06
1.20525e+06
1.25123e+06
1.27309e+06
1.26961e+06
1.24029e+06
1.18789e+06
1.11674e+06
1.02121e+06
890687
725784
546693
385861
273372
220102
205280
201045
186770
53473.3
67987.6
260967
382814
507887
630030
748120
864111
979451
1.09208e+06
1.19813e+06
1.29002e+06
1.36305e+06
1.40984e+06
1.42758e+06
1.41298e+06
1.36931e+06
1.30368e+06
1.2229e+06
1.13083e+06
1.02898e+06
908722
764925
605535
455508
339736
268018
232550
242872
277314
83446.1
65939.9
275009
463051
636556
778683
901605
1.01553e+06
1.12794e+06
1.23942e+06
1.34897e+06
1.44947e+06
1.53755e+06
1.60297e+06
1.64162e+06
1.64039e+06
1.60334e+06
1.53819e+06
1.4482e+06
1.33605e+06
1.19448e+06
1.01622e+06
810774
608381
444090
341547
284624
250264
257567
300472
93909.1
57666.4
202557
293947
383680
459671
515284
549435
562588
560040
539826
508530
467069
427923
396873
389667
404937
428559
452801
483905
521740
564566
605002
629463
635145
621690
587810
528522
442824
335959
65029.1
17899
94321.6
113024
156371
269902
425297
585938
720109
824541
897149
944779
970162
973040
950146
904996
843952
772957
694240
608378
513577
412213
306667
196364
112142
85829.5
78807.1
74893.6
68696.5
58517.3
1453.47
34580.9
151912
171232
181720
186809
188568
191128
196614
204161
211875
217052
214250
195346
37426.4
37671.6
155680
181426
197261
202786
205584
214579
233938
256915
278992
303894
336711
372980
406070
430535
448030
458809
467926
476122
484367
489342
487385
476694
461060
441648
419216
388291
338389
261352
51845.4
48649.1
204575
279230
342564
364860
354185
335518
328789
347912
390387
436724
486981
540118
592097
639361
676084
703496
723773
740353
750231
747940
732302
706910
673561
633327
582211
517315
438827
347739
81161.2
68645.2
380488
423954
419011
396855
399339
447317
526225
601846
667543
710613
734086
748815
760282
774379
795947
826656
866598
913946
960078
996618
1.01676e+06
1.01521e+06
984365
917889
816868
691349
557057
423728
104743
59731.6
248253
314815
433439
566358
678439
762234
824089
872018
912906
950427
986323
1.02103e+06
1.05268e+06
1.07686e+06
1.09107e+06
1.09089e+06
1.07438e+06
1.04066e+06
988694
919629
837515
748372
660916
578321
496342
410066
326122
252701
73164.8
72476
420521
464612
475607
468937
455479
442381
433243
432340
443935
471998
510801
544212
570305
594779
620964
647709
677635
710286
743791
769294
780053
775589
757982
733615
705169
668824
611491
510769
110371
49815
224968
245832
252915
256579
271910
329606
439552
574294
686286
758213
803695
838453
871447
910613
956435
994269
1.01211e+06
1.00479e+06
967531
900731
808417
700546
592854
502790
440388
402239
375979
347857
83319.5
73885.9
188856
235931
327238
441922
545443
629215
696590
755383
813475
875791
943990
1.0159e+06
1.08731e+06
1.15244e+06
1.20602e+06
1.24226e+06
1.25321e+06
1.24308e+06
1.21319e+06
1.16967e+06
1.1148e+06
1.04554e+06
947286
808827
636230
456263
312757
221770
70797
93794.5
513054
567974
588240
605533
631004
669370
721840
787018
858886
936661
1.0108e+06
1.07872e+06
1.13037e+06
1.16301e+06
1.17436e+06
1.16668e+06
1.14785e+06
1.11839e+06
1.07342e+06
996347
873973
711929
534926
375532
267013
221018
213557
205197
57376.4
72542.5
338415
480663
603854
704645
787321
859568
930252
1.00142e+06
1.07672e+06
1.1496e+06
1.21521e+06
1.26344e+06
1.28928e+06
1.29083e+06
1.26782e+06
1.22591e+06
1.17157e+06
1.11058e+06
1.04514e+06
969598
870683
741374
593230
447589
326016
256000
259064
304644
85737.9
70545.6
369868
581274
737101
838826
910036
965624
1.01933e+06
1.0793e+06
1.14741e+06
1.21994e+06
1.29055e+06
1.35205e+06
1.40044e+06
1.4288e+06
1.43029e+06
1.41294e+06
1.38179e+06
1.33427e+06
1.2604e+06
1.14515e+06
979939
786786
602747
453888
341068
269795
264993
323675
97543.4
68074
292647
403428
502748
581121
634930
667926
683185
683363
667955
639430
600354
557940
520765
502993
498865
491623
471021
447311
430892
432448
457461
490942
522411
545575
552982
533772
480426
392294
72397.7
25057.6
116107
152285
255493
405743
576193
725141
827358
890677
923479
939532
944508
938609
918219
891163
860062
823038
773515
705763
615028
503722
378933
251832
131342
85611.6
75044.9
73255.7
71526.9
65209.5
1594.87
38179.9
166267
183301
189146
185890
176768
168678
169119
180071
197969
217581
230901
227305
43167.1
43678.7
185469
203073
206928
200515
199268
216948
250572
282726
310730
342543
384276
426087
456194
469396
466780
451856
432905
418325
413051
415160
419754
420645
419005
414021
407182
392574
357996
292413
58451.5
52019.1
251473
320694
365854
362745
329352
299137
300512
347893
414298
478691
542519
601658
648238
676534
682527
671652
654534
641846
637689
637873
637286
633960
624467
608320
580655
536581
473196
391611
88811.2
75299.4
433943
440871
399938
363289
388371
483844
597368
689531
759510
796264
804847
794999
770296
740560
713329
695788
698520
728094
781239
846546
909082
954328
968485
941790
871377
763559
635893
501394
113520
63693.6
299332
383541
510708
629344
710720
755792
775536
780763
778651
775140
773974
780486
795420
818939
848215
875323
894692
899100
885749
853382
803854
742393
676514
609485
537663
454457
366189
282654
80742.6
84910.3
514681
524032
500670
468981
445208
435636
441304
459581
490739
536927
586465
620228
641289
652809
654353
641976
623022
609297
611676
629158
650053
666310
673015
673647
672529
668661
645947
570410
115836
58011.1
275871
281008
275226
276318
312956
413496
551104
675256
750695
779054
779478
765333
748077
741102
758715
798311
843041
875577
882323
855127
791936
700069
595287
500091
433392
401948
394352
389851
86656.3
80271.6
213198
283130
401621
516626
596852
646883
676019
697200
721725
755178
798327
849031
904659
962642
1.01615e+06
1.06093e+06
1.08892e+06
1.10153e+06
1.10058e+06
1.0904e+06
1.07209e+06
1.04166e+06
983277
879095
723188
536594
368616
253622
74457.6
106578
571451
605809
613107
615572
623406
641370
670556
710046
755639
809150
865309
925156
979340
1.02031e+06
1.05107e+06
1.06716e+06
1.07384e+06
1.07461e+06
1.06875e+06
1.04037e+06
965100
833022
660579
480230
334310
251028
225814
214394
59697.8
76392.5
406785
563223
684596
764478
812553
839196
861081
884131
915721
955403
1.00159e+06
1.04785e+06
1.08634e+06
1.10692e+06
1.11194e+06
1.10153e+06
1.07812e+06
1.04987e+06
1.01855e+06
983818
929827
837515
704397
547954
402199
310740
297008
317460
86647.8
74359.9
453278
669355
808386
878704
909958
915939
914875
918593
931451
958195
997326
1.04635e+06
1.10271e+06
1.15188e+06
1.19447e+06
1.22745e+06
1.24981e+06
1.25976e+06
1.247e+06
1.19485e+06
1.08258e+06
921012
740232
572345
429264
326796
292343
335492
98709.7
80571.9
395143
516306
617222
689581
735741
763812
779133
781905
773304
751671
717854
673174
629713
602261
587696
563183
512399
444543
369884
313122
305045
343822
402611
461223
506477
524130
502949
436616
73765.7
32239.1
142285
213007
350063
519356
690024
816413
883221
905691
899239
881611
860875
842164
828227
826490
834858
840026
826982
781942
698850
581162
441857
298966
158178
89987.1
74744.8
73414.7
74072.7
70510.7
1738.89
40614.2
177189
190826
193257
184464
166632
147300
140014
153283
182108
216912
246209
257763
48400.8
49637
215006
220576
209813
190381
186338
214072
259899
298721
331508
370594
421506
469488
497700
502592
483486
444393
394856
351065
327462
327513
342532
361325
378064
390354
398288
396113
371518
314605
62006.4
55766.7
302843
356888
383739
360398
308204
267043
277812
348971
431402
508634
582216
644234
683918
694508
672037
624740
568516
520119
494403
494795
511623
534923
553729
564033
560571
538390
493426
426220
91758.4
81744.3
488390
459680
386602
338583
386065
517483
649002
752221
830311
871550
877666
854833
803199
735537
661184
590397
539667
528848
576580
666168
768357
857513
912944
924493
886725
805975
695863
571930
118033
69794.1
350986
438666
566727
670212
727296
745569
736694
711491
675169
633040
588842
552163
530875
536433
572784
626727
680881
723810
746628
748789
730815
698614
657151
608925
550799
475628
388813
301829
84532.7
98278.3
615958
584664
521821
460871
425990
422821
445936
480970
526646
586345
645183
684138
707112
714677
699460
651064
579502
506432
458818
454022
484223
531306
576248
612106
642420
668920
674461
615400
113225
67153.2
334435
318916
297848
300572
364076
498239
641382
741565
786657
786881
758896
707605
640513
571113
531206
554940
624168
701690
756748
772738
744328
675051
580126
486475
421635
400418
413682
431654
88319.9
85518.9
242715
335199
470145
578505
638088
663113
664227
658526
658429
667804
683273
701706
721293
747096
782704
829418
875348
916709
952060
978137
997334
1.00131e+06
977239
903186
766668
583585
405590
278852
77098.6
119482
604908
636454
649085
651394
651080
653623
659177
667592
674570
682209
694634
722478
769882
823479
879123
928262
970293
1.00435e+06
1.03231e+06
1.04068e+06
1.00402e+06
902032
743202
557493
390783
283442
238759
217932
61172.9
82416.2
465062
635398
759838
824733
846161
834259
810229
782295
760518
751820
759108
785076
827386
872079
910626
939595
956126
964649
968130
968991
951824
891100
773961
614855
458240
362843
338060
324387
87445.3
81281.3
521094
740925
876128
931029
938689
910872
868291
821860
773075
731170
703564
711783
761763
841707
931131
1.01751e+06
1.0937e+06
1.15338e+06
1.18776e+06
1.1858e+06
1.12395e+06
1.00096e+06
836493
664592
505749
383584
323923
333046
98000.2
94120.3
504201
626426
718811
774475
802262
815357
824249
831072
834979
830075
807372
762987
710780
672422
653148
624133
567460
481902
374077
265199
203973
240600
323155
405845
475665
516869
517016
467993
68092.9
38581.2
170168
267679
426943
604878
766476
867420
900619
885186
839861
783348
729479
693438
688329
720791
775946
827042
853906
835005
762461
641776
491680
335148
186385
95964.8
75819.6
74718.9
76175.9
72953.4
1957.42
41769.9
179056
192921
195583
186225
165898
139830
123668
134980
171149
218250
260488
284262
53133.1
55472.9
242161
234162
208703
177100
171472
207724
260860
304286
340848
385868
444451
498163
526787
528232
500445
445254
371095
298201
253018
251775
281818
321833
358169
386573
404989
406522
383065
328476
63952.6
60481.4
353998
384135
390712
352468
288257
240122
259501
344589
436467
521750
602410
668104
705645
706577
666715
595461
509279
426808
369790
361907
392275
441766
488954
523150
539613
535429
506611
451222
89019.8
88275.5
541819
478981
378221
319531
384266
536365
675481
790128
884501
941561
956751
931455
865857
776026
669473
555564
447706
373927
396673
505151
639229
762593
849161
889405
879700
827151
741003
632512
118010
79133.8
391327
482375
617291
716520
763008
769294
745639
704166
648079
581025
504119
426557
358436
323870
350181
419930
500654
572471
623068
649894
653273
642756
621360
590109
544796
478368
396045
312183
85823.3
113159
722808
646489
541117
447096
396853
401631
443035
491587
546404
616415
686002
736115
768677
781614
762358
696207
591639
470003
364228
313506
338296
421274
510972
581151
637729
682490
697260
633734
105928
79594
401852
359256
322169
330075
419272
571149
709050
790104
817690
807278
769348
703954
608132
487360
373416
350752
441646
558923
650910
695436
690019
637867
553087
466504
410800
405300
438712
468178
85328.3
90744.9
279629
395348
534418
633820
684116
696699
681944
661243
646636
637626
624926
603680
569587
532326
505775
529983
606883
698280
785787
856174
911939
945695
948876
897987
777953
601216
423723
296723
78109.4
133311
617669
669420
699373
709470
706675
699021
686639
668454
636639
591192
537894
497578
500546
565124
663733
762641
847710
917257
973842
1.00939e+06
1.00099e+06
923741
780071
595209
418318
300160
246968
217081
62403.3
97002
523005
706890
838410
898256
905219
866728
807999
738949
666943
598112
544686
521657
546842
610113
686299
761526
822318
870298
906649
937155
946701
908039
801291
637852
475381
382854
351222
313194
87876.5
100254
593918
814156
955533
1.01005e+06
1.00844e+06
963645
899271
822975
726806
617090
500019
423861
453103
567107
703335
835896
953941
1.04817e+06
1.11359e+06
1.14215e+06
1.11636e+06
1.02806e+06
884010
717013
553230
420843
343223
322333
95217.4
107522
614942
729237
803089
831066
827416
811766
803723
810875
834388
859341
859431
821790
758615
706091
683526
661748
614534
539690
440566
332619
251060
256670
324685
401927
471318
515881
521215
477013
57449.8
44367.1
195381
308635
481066
661813
811112
888759
893717
845764
763374
663340
566425
506740
520167
601779
707421
800499
860643
865417
804442
683240
526189
360407
210043
103924
77584.8
76773.5
78332.5
74599.8
3145.15
42251.2
175589
190827
195870
190515
174813
149843
126481
128094
165138
220878
273083
305542
58728.9
61541.2
265398
243966
205082
164263
160116
199512
253197
299199
338343
387536
451565
511007
543084
547194
520502
463176
381311
293604
232247
227330
268692
323133
372220
409265
428765
424053
395021
337204
69754
65580.3
405836
400823
383536
334923
267032
221145
245929
333033
427898
517260
603498
675622
718173
720417
680076
604874
511872
415245
332463
304957
336779
400780
462778
508793
534695
538231
516243
457083
84063.2
92650.3
597748
496753
369754
301349
375803
533897
675021
802928
920103
1.00214e+06
1.03723e+06
1.0219e+06
956519
862492
749766
625014
496892
386715
363872
449942
581428
711888
808790
860625
867151
836829
770623
669691
113556
98688.5
423432
529815
674873
780056
829265
834585
807954
764790
707080
639432
559260
476211
393420
334065
329714
378293
448972
517546
570118
600866
611089
609296
597110
573174
531900
467955
389423
314873
87538.6
129091
835414
701585
551570
422441
355211
368840
428567
486704
546996
625137
706442
772453
822530
851924
844030
786438
686204
562447
443488
369017
379848
455974
543315
614239
669835
706648
704656
613941
98684.4
91981.2
474159
391661
336202
354281
466038
624401
752758
825592
848185
840467
807694
753860
667110
551052
426367
365423
423426
524490
610266
653623
650183
602099
522233
446794
409236
425398
470669
487898
82223.8
100500
333875
461845
596948
691057
738762
747704
729461
703786
682729
664006
635679
590829
520267
431488
328003
282358
382323
522496
652846
759724
842931
898110
917709
879712
769175
598377
428549
307080
78152.7
146752
631356
712736
763243
782828
781622
769292
748576
716545
662463
583393
483064
378388
298705
336402
474323
621277
742418
837678
912556
962223
967635
905918
773327
591155
414261
301645
249556
216381
67147.6
127311
599904
788478
923994
984875
988550
941305
867792
779507
677970
565826
459387
367451
335231
391329
492187
611880
714249
792628
854139
903446
928272
898555
791214
617631
451887
357814
324943
300634
95917.7
137733
694581
907248
1.05321e+06
1.10971e+06
1.1052e+06
1.05452e+06
988264
908317
802059
676490
524656
375607
324016
438226
589259
733753
864591
968040
1.04484e+06
1.08312e+06
1.07509e+06
1.00973e+06
883932
726177
565214
430927
344377
303163
88180.6
119595
720438
818375
867023
858568
808121
741982
698135
704301
761914
833584
869487
847147
773780
701522
674270
664477
641263
595659
531302
459567
400814
377985
398354
440757
485726
515056
511734
456467
47012
48234.3
211373
332617
511527
692918
831606
891111
877464
807424
697368
559163
411811
311931
368160
512091
658230
777972
858216
878058
825212
704458
543207
371567
222437
112672
79622
79533.2
81640.1
76630.2
8417.01
41439
165228
184813
195464
197126
188804
169061
145494
138294
168950
226004
281919
317565
247626
84923.9
83968.4
235085
283482
251648
203023
161119
158313
192051
240683
286085
325457
375190
441906
506807
547174
560462
545109
501396
433706
357569
299461
286199
319966
373607
426892
468104
488157
481342
452911
401813
304224
82756.7
93222.8
432153
460750
408236
364089
310921
251026
215371
239243
316482
406917
495599
585524
667018
722062
738119
713628
655254
579531
498653
425888
390532
404001
447948
495229
532056
553103
553904
528456
461691
305671
85990.3
108820
552158
646774
513316
365219
286571
359594
510095
648042
787102
928494
1.04222e+06
1.1059e+06
1.11193e+06
1.06305e+06
983913
887991
782638
678822
587717
546514
575116
653195
743212
815409
855608
860198
834338
773477
672540
402647
111003
125122
420409
466127
587970
740756
858846
919949
931383
909321
873657
829917
780625
724410
670533
617317
575525
556524
562128
584345
609646
629348
637864
634821
623895
603716
570401
518176
446254
372716
326724
306719
103456
155257
807802
935458
745068
550998
390179
307369
331457
404602
465628
525883
610283
704488
788286
860364
914923
936987
917517
859671
778188
695906
636651
623267
643494
675178
703440
721230
718789
676169
560569
290023
91927.9
126110
536254
548147
428584
354858
374975
495253
651741
776699
850254
877783
877718
858605
830972
782356
716502
640632
587041
580510
612565
645810
655335
630690
574134
499775
442712
427919
457802
501043
500894
313371
122347
132676
457011
467665
549712
658868
745349
794332
806603
792493
769917
750436
732934
707182
665321
597761
512123
419402
363794
401955
503252
621207
728674
815455
874794
894988
857277
747613
584132
431935
339562
287981
132213
143879
546481
672532
767803
832546
861269
864915
853916
833904
802997
749014
673147
575348
472773
388450
377764
459513
581975
696941
792945
867022
916410
920430
862001
730872
549488
376197
267000
247730
322470
360811
142680
157710
626824
731470
879604
1.00859e+06
1.07455e+06
1.08485e+06
1.04466e+06
976292
893470
793011
680559
565493
458965
393419
398792
465962
573682
677069
761206
829469
882974
908576
875769
759332
576139
399539
338418
447332
575723
528631
180204
208849
835146
886048
1.02008e+06
1.14987e+06
1.2092e+06
1.20887e+06
1.16014e+06
1.10244e+06
1.03709e+06
954953
862070
752130
645402
568356
580966
658666
754274
851304
931995
993794
1.02317e+06
1.01618e+06
960190
845666
698433
546800
419204
331935
279685
258818
94202.8
118054
571118
806309
886699
910222
865026
761841
626708
521265
522847
633709
763617
843266
843409
762330
663424
625564
628163
631242
622056
597632
563192
527878
498572
486176
490758
500621
501501
477943
413169
180654
51761.6
55383.5
157327
214951
336199
519591
700561
832922
883767
864166
786546
667104
517277
352292
238571
338217
501999
652832
773792
856277
879225
826263
704381
541232
367866
222879
120255
83863.8
87294
93317.2
92535.7
65675
8320.76
2771.75
39941
151139
174567
192114
202432
201977
188587
167666
155409
175702
226946
282084
317575
298806
240608
236588
286868
290181
252767
203673
167879
163756
187029
225793
266204
302947
349154
415706
485779
538126
568026
573345
553416
512356
461414
418301
400733
418055
458958
507549
548895
573215
578810
575296
571608
573743
578185
575023
577774
460745
386479
333871
288579
246661
223525
239193
298289
377484
460429
551599
642146
713813
753180
756478
729280
685582
636739
591554
559670
551331
560487
574652
584363
582328
562339
519044
451445
375989
356588
462432
681889
640123
504338
353585
272628
337230
467118
594002
738203
899233
1.04521e+06
1.14507e+06
1.18248e+06
1.16333e+06
1.11228e+06
1.04698e+06
976290
908413
849344
809187
799857
817600
846921
870053
875081
856744
812994
739498
637821
494656
415658
457227
473117
510841
640585
796400
929645
1.01047e+06
1.03492e+06
1.02276e+06
999559
976216
952707
928906
906919
886239
867549
850401
833452
818147
799710
778303
752052
721524
685189
639820
581004
506217
422720
352631
326179
358092
483473
769898
1.09825e+06
972371
746754
527953
353358
272132
304520
376821
431269
487047
574501
680278
779693
871294
953195
1.01232e+06
1.04165e+06
1.04048e+06
1.0148e+06
975010
930361
889112
856590
825968
792705
750660
692161
605047
478847
342721
395061
571627
712894
588541
447817
361860
378271
497537
650983
779151
861555
900909
909913
903448
896351
883496
865334
836180
801651
767370
742667
717871
681423
626691
559465
495767
459032
458866
489799
523229
518592
435463
424584
501629
532748
510857
585268
687712
773651
830286
854941
853248
840870
829881
822545
812858
792137
753151
700502
644241
601803
596605
634204
699977
771789
834633
875988
880755
832589
724354
583939
470747
416722
413580
437885
497104
596083
706419
808087
885719
928212
943304
941074
932347
916128
882945
833852
766574
698770
638757
607787
624445
676024
741266
803841
854504
883873
871131
803726
667485
495854
356748
325092
407246
515678
595748
627547
649532
669564
770459
919666
1.05802e+06
1.14269e+06
1.17125e+06
1.15218e+06
1.10491e+06
1.04673e+06
973580
891525
803931
720905
658378
627933
638296
681363
738094
793569
844603
883350
893512
846659
724737
555183
432159
467374
630119
778586
847061
859527
844163
813856
892356
1.04896e+06
1.19546e+06
1.2768e+06
1.29424e+06
1.25988e+06
1.21839e+06
1.17707e+06
1.13185e+06
1.08506e+06
1.03017e+06
976788
923018
884907
877652
893542
923271
952591
974651
976559
952774
891217
784410
647716
507822
393562
311868
254024
228905
208011
344855
718814
846940
918010
931151
864237
726292
534987
345939
328461
509427
686010
799098
820439
735361
605413
548070
558199
582929
603001
610196
603540
586779
562886
536215
512651
489173
458538
409843
333216
196433
147179
150452
181963
229732
342455
516281
690992
817642
868044
853488
786153
682724
559937
445337
400746
467734
582322
698764
795036
859972
871540
809606
683632
519806
348375
212406
124928
86681.1
88536.2
94401.6
93911.9
79206.6
45247.8
2411.52
37886.1
134592
160810
184710
203299
210821
204249
186903
171348
179609
219113
270322
305022
301176
240364
239446
291507
283825
245567
201130
172303
168608
184902
213222
244994
274572
313358
376252
450487
515965
566222
596387
604342
592271
567322
541014
525266
529331
552826
585520
614483
629432
630392
626092
622081
622055
616906
594069
533755
401601
338497
296315
267395
243784
228631
237443
280569
344913
416510
503057
600058
689294
754658
789193
795909
785132
766213
744155
720515
700621
684012
665320
639819
602240
549622
481850
405412
347484
356836
505573
680115
603739
475835
332144
257622
308219
409275
516518
655506
825680
997868
1.13679e+06
1.21553e+06
1.2351e+06
1.21864e+06
1.18895e+06
1.15532e+06
1.11944e+06
1.0837e+06
1.0463e+06
1.01563e+06
989849
966958
940246