/*--------------------------------*- C++ -*----------------------------------*\
| =========                 |                                                 |
| \\      /  F ield         | OpenFOAM: The Open Source CFD Toolbox           |
|  \\    /   O peration     | Version:  2.1.1                                 |
|   \\  /    A nd           | Web:      www.OpenFOAM.org                      |
|    \\/     M anipulation  |                                                 |
\*---------------------------------------------------------------------------*/
FoamFile
{
    version     2.0;
    format      ascii;
    class       volScalarField;
    location    "0.005250000";
    object      rho;
}
// * * * * * * * * * * * * * * * * * * * * * * * * * * * * * * * * * * * * * //

dimensions      [1 -3 0 0 0 0 0];

internalField   nonuniform List<scalar> 
12384
(
0.686191
0.697351
0.708478
0.714671
0.718546
0.719612
0.717091
0.71539
0.710424
0.705242
0.692985
0.674968
0.668282
0.749079
0.902326
0.892497
0.895552
0.892526
0.893341
0.883997
0.88688
0.880517
0.888416
0.889556
0.897579
0.902762
0.907712
0.908695
0.909423
0.90864
0.908475
0.90735
0.907251
0.913556
0.919762
0.918302
0.93957
0.942778
0.952162
0.966212
0.96944
0.986523
1.02162
1.02365
0.777525
0.776256
0.774829
0.774251
0.77911
0.781074
0.797879
0.808248
0.812424
0.814629
0.815658
0.814442
0.812278
0.809214
0.805335
0.799651
0.795217
0.794778
0.789344
0.797806
0.793999
0.805162
0.807234
0.816023
0.818434
0.818567
0.816356
0.823086
0.865193
0.872111
0.973547
0.980965
0.956757
0.922584
0.901274
0.893439
0.890536
0.881489
0.885046
0.871262
0.876318
0.852946
0.852133
0.838968
0.82447
0.810516
0.812285
0.791421
0.787611
0.786679
0.773324
0.774844
0.757451
0.761838
0.747923
0.764601
0.755475
0.765868
0.759413
0.762246
0.833052
0.837507
0.842396
0.848141
0.854532
0.860239
0.864738
0.868938
0.870589
0.869908
0.868108
0.862611
0.855512
0.855521
0.845939
0.836371
0.838591
0.833816
0.828996
0.830299
0.821021
0.826384
0.819034
0.820228
0.835174
0.862273
0.884903
0.87337
0.871262
0.858936
0.829373
0.814667
0.803212
0.81344
0.810078
0.817501
0.814763
0.818167
0.81784
0.819363
0.82043
0.821316
0.820994
0.819694
0.817992
0.812923
0.815721
0.806417
0.811453
0.811482
0.807178
0.818426
0.815123
0.827032
0.828495
0.833517
0.835289
0.836455
0.844028
0.867211
0.906349
0.897038
0.915765
0.92715
0.932918
0.940836
0.947935
0.946285
0.93742
0.924085
0.912972
0.899679
0.873444
0.884036
0.847783
0.841816
0.829261
0.836729
0.825558
0.83761
0.839333
0.855305
0.883006
0.908588
0.929265
0.943146
0.934182
0.915624
0.880846
0.864751
0.941873
0.943835
0.929269
0.904613
0.88619
0.87232
0.860656
0.853646
0.843421
0.837931
0.82926
0.827405
0.813212
0.816285
0.809502
0.801988
0.829005
0.812527
0.855581
0.852893
0.871658
0.874904
0.877028
0.874633
0.880451
0.886634
0.882013
0.878192
0.877095
0.873891
0.92657
0.919917
0.911572
0.899806
0.885775
0.865998
0.856225
0.824063
0.829209
0.78921
0.803518
0.770155
0.785814
0.763081
0.783733
0.767173
0.808044
0.797111
0.834049
0.823377
0.843558
0.831312
0.831642
0.828851
0.829688
0.83456
0.840434
0.842982
0.845866
0.847254
0.920532
0.906976
0.891815
0.880101
0.864862
0.857112
0.846429
0.834762
0.808329
0.821208
0.804009
0.795143
0.802281
0.797555
0.817892
0.8075
0.836094
0.826127
0.855328
0.850215
0.861973
0.854352
0.848774
0.848575
0.855591
0.857753
0.867215
0.872095
0.879179
0.88234
0.838328
0.831965
0.825078
0.818988
0.812388
0.806069
0.793322
0.794187
0.767838
0.777994
0.748794
0.76165
0.743334
0.759411
0.747947
0.782139
0.774208
0.800132
0.802119
0.807512
0.806101
0.812512
0.822676
0.824083
0.821344
0.820429
0.8245
0.826094
0.830788
0.831719
0.933354
0.87283
0.84195
0.856436
0.869589
0.869239
0.862558
0.853835
0.845933
0.838169
0.836907
0.82828
0.820445
0.814955
0.816766
0.799735
0.797117
0.799548
0.77888
0.789698
0.774999
0.782553
0.783593
0.786855
0.794028
0.80127
0.812416
0.825928
0.837159
1.03714
1.23744
1.22644
1.21678
1.20724
1.20565
1.17496
0.83699
0.766066
0.766453
0.766526
0.765004
0.761874
0.760396
0.75858
0.760078
0.762046
0.764352
0.766396
0.767727
0.767701
0.769429
0.773418
0.785506
0.800184
0.803873
0.808599
0.815258
0.850629
1.03068
1.19378
0.748865
0.758352
0.760295
0.753543
0.743077
0.735386
0.731347
0.731971
0.733562
0.730317
0.720316
0.693105
0.672344
0.722924
0.89921
0.89323
0.89031
0.881702
0.862988
0.848323
0.844145
0.850014
0.863986
0.874562
0.887271
0.88804
0.888652
0.886811
0.882261
0.878475
0.874135
0.873607
0.874021
0.879495
0.880745
0.894201
0.913229
0.924753
0.941363
0.955646
0.964295
0.971263
0.99039
1.01767
0.775171
0.774537
0.773856
0.776457
0.786547
0.821516
0.846826
0.854401
0.852901
0.849558
0.845294
0.835427
0.824056
0.814465
0.806054
0.800144
0.794737
0.791208
0.792152
0.796587
0.79975
0.808071
0.812905
0.819683
0.821137
0.822775
0.818978
0.817507
0.822875
0.831931
0.975397
0.971535
0.93387
0.902957
0.889846
0.886411
0.889334
0.891818
0.887807
0.888212
0.878467
0.870635
0.85827
0.850087
0.835479
0.826535
0.811134
0.813597
0.797712
0.787294
0.785709
0.770758
0.76603
0.75442
0.753016
0.750523
0.753643
0.752909
0.755657
0.759948
0.836937
0.838088
0.841135
0.846348
0.854881
0.865216
0.875017
0.883266
0.887817
0.888563
0.884596
0.878996
0.877869
0.867789
0.855957
0.854503
0.844732
0.835286
0.835839
0.82617
0.82806
0.82225
0.822707
0.820958
0.823186
0.833384
0.853031
0.855959
0.850421
0.847387
0.828216
0.811835
0.804996
0.807872
0.806012
0.809193
0.810498
0.813622
0.818503
0.823683
0.828641
0.833508
0.835431
0.834011
0.832232
0.824624
0.824314
0.816535
0.818929
0.81897
0.819191
0.831464
0.825988
0.835419
0.83809
0.841222
0.841401
0.839059
0.84082
0.857307
0.898113
0.898935
0.916516
0.920026
0.919887
0.925809
0.91998
0.89904
0.888817
0.884706
0.877319
0.879759
0.859419
0.861701
0.824406
0.838344
0.795998
0.812894
0.802957
0.804579
0.811924
0.827503
0.844801
0.869235
0.912471
0.935169
0.943598
0.927898
0.896151
0.873648
0.887542
0.875414
0.859965
0.849353
0.841652
0.835482
0.832415
0.82784
0.822738
0.818703
0.816438
0.806246
0.79999
0.799678
0.795639
0.793414
0.804531
0.805519
0.83216
0.837642
0.857118
0.865218
0.870973
0.873276
0.874717
0.879778
0.885152
0.888305
0.886162
0.882006
0.919044
0.918361
0.915499
0.907763
0.894864
0.881279
0.856629
0.850746
0.82157
0.818384
0.794688
0.789926
0.779986
0.772922
0.784033
0.772725
0.805044
0.792242
0.831185
0.823461
0.846468
0.837096
0.84019
0.831641
0.84166
0.841337
0.849005
0.850112
0.850322
0.849058
0.889038
0.875326
0.863895
0.854301
0.848292
0.83903
0.828463
0.820728
0.808513
0.808302
0.786624
0.797219
0.789516
0.795875
0.800483
0.807675
0.820095
0.827296
0.846
0.851964
0.864791
0.860419
0.856357
0.849002
0.858232
0.857891
0.866102
0.870091
0.87816
0.882374
0.828961
0.816537
0.811692
0.81263
0.809598
0.809706
0.798604
0.797615
0.7812
0.78078
0.76603
0.766293
0.76325
0.755748
0.771326
0.770973
0.78393
0.799568
0.805888
0.812828
0.810581
0.809461
0.816039
0.822941
0.820005
0.817986
0.820307
0.822528
0.826925
0.829675
0.87968
0.8499
0.850711
0.860333
0.855809
0.842245
0.830694
0.825499
0.822751
0.821631
0.821166
0.820433
0.814277
0.814132
0.815022
0.807509
0.798514
0.805043
0.785418
0.794624
0.780873
0.786471
0.786824
0.785254
0.790883
0.796661
0.807156
0.820808
0.833544
0.900585
1.17959
1.07235
0.994463
0.974502
0.987181
0.885827
0.788694
0.761954
0.762651
0.761359
0.759355
0.758487
0.756111
0.757228
0.757353
0.762687
0.766041
0.768171
0.767728
0.764211
0.758685
0.756189
0.766642
0.79516
0.810866
0.81101
0.810046
0.830063
0.924289
1.17572
0.77149
0.766986
0.747524
0.721745
0.70644
0.697335
0.695442
0.695994
0.70377
0.718178
0.727839
0.713088
0.682009
0.70769
0.896967
0.887128
0.878589
0.851084
0.826411
0.810112
0.82048
0.834
0.86047
0.872271
0.880189
0.87788
0.872714
0.868047
0.863907
0.858242
0.852737
0.847643
0.84508
0.850733
0.850399
0.862792
0.881894
0.895762
0.918927
0.937542
0.951882
0.96049
0.972874
0.996502
0.77274
0.773081
0.771766
0.775855
0.803659
0.840833
0.85388
0.854509
0.84901
0.844843
0.834056
0.820822
0.807078
0.79426
0.787555
0.782344
0.779524
0.776922
0.783156
0.779977
0.792119
0.798954
0.810351
0.820005
0.825831
0.826865
0.823639
0.818892
0.815783
0.82252
0.968388
0.957106
0.916211
0.89191
0.885654
0.886215
0.892974
0.894389
0.896479
0.888242
0.880674
0.867167
0.857789
0.843517
0.827738
0.824601
0.814537
0.803862
0.798307
0.798619
0.78094
0.77848
0.762709
0.759503
0.745646
0.751127
0.745544
0.756583
0.762209
0.755735
0.837385
0.838802
0.841352
0.853212
0.867802
0.885692
0.896556
0.901915
0.90238
0.898299
0.893277
0.891037
0.878081
0.868142
0.867144
0.856921
0.845573
0.848606
0.833618
0.835418
0.825918
0.822842
0.821345
0.817789
0.819108
0.818424
0.827592
0.828474
0.833795
0.837629
0.827707
0.807418
0.806134
0.80436
0.806126
0.811221
0.817575
0.822981
0.82844
0.834467
0.839025
0.840155
0.841094
0.831508
0.823491
0.810477
0.804686
0.796237
0.795792
0.801606
0.799473
0.82017
0.824082
0.836246
0.841824
0.851979
0.845354
0.843407
0.843977
0.849312
0.907674
0.912763
0.916184
0.913554
0.917237
0.910248
0.883177
0.877084
0.884867
0.898182
0.893822
0.900386
0.876074
0.873935
0.83648
0.844127
0.807837
0.817184
0.79699
0.800379
0.803616
0.808999
0.81616
0.842706
0.873365
0.924617
0.961184
0.954663
0.924247
0.893615
0.863827
0.849544
0.840365
0.836445
0.833288
0.831352
0.827802
0.82474
0.81778
0.819409
0.809246
0.800582
0.798376
0.795885
0.787001
0.781034
0.802472
0.791869
0.822964
0.827027
0.841983
0.851777
0.860146
0.86585
0.869514
0.872144
0.879045
0.880009
0.881505
0.880646
0.928259
0.926949
0.920656
0.910995
0.893068
0.882586
0.849831
0.85324
0.814014
0.821188
0.781615
0.795032
0.77161
0.771715
0.785582
0.770593
0.80795
0.793731
0.829987
0.821263
0.844664
0.839362
0.844439
0.836864
0.845463
0.844958
0.854087
0.854065
0.853763
0.851368
0.870101
0.863679
0.854191
0.852935
0.847218
0.841252
0.827952
0.829248
0.807799
0.807023
0.792949
0.797503
0.790222
0.788811
0.804113
0.804401
0.81525
0.826644
0.836272
0.853586
0.857925
0.864736
0.860176
0.85046
0.857407
0.856483
0.864401
0.864455
0.876305
0.876206
0.814718
0.812599
0.818916
0.81971
0.817946
0.813988
0.808409
0.803306
0.781106
0.794972
0.765739
0.776051
0.762994
0.773524
0.771259
0.776992
0.790755
0.795463
0.807196
0.810394
0.811434
0.80744
0.807259
0.816922
0.820647
0.817422
0.815713
0.817201
0.82196
0.827473
0.8586
0.848614
0.854701
0.847715
0.832357
0.823
0.821125
0.822525
0.825855
0.827296
0.827814
0.829448
0.829312
0.825782
0.818851
0.821336
0.801367
0.807132
0.788743
0.799069
0.789417
0.79813
0.800815
0.795465
0.796672
0.797216
0.803315
0.814902
0.828553
0.85935
1.03016
0.85097
0.823755
0.83132
0.841549
0.80232
0.762695
0.756669
0.757178
0.756242
0.755614
0.753452
0.752597
0.751681
0.754348
0.756439
0.765901
0.771017
0.774608
0.772757
0.764309
0.754586
0.754494
0.781924
0.819612
0.824134
0.811681
0.822713
0.879394
1.15402
0.772724
0.75213
0.713096
0.693945
0.688303
0.689676
0.689366
0.688881
0.688151
0.697638
0.718554
0.722218
0.692904
0.701726
0.893965
0.881994
0.85286
0.819263
0.790082
0.791239
0.797629
0.827415
0.851109
0.869697
0.869762
0.866397
0.862834
0.86023
0.854921
0.849909
0.842009
0.837042
0.831329
0.825794
0.831929
0.842387
0.849903
0.872008
0.89036
0.916065
0.936135
0.948615
0.958545
0.98277
0.770302
0.769953
0.766486
0.777845
0.802402
0.831934
0.832581
0.823996
0.831244
0.830273
0.822874
0.805894
0.79114
0.784247
0.780463
0.780116
0.781327
0.779675
0.783464
0.778656
0.791145
0.792109
0.805835
0.81577
0.826706
0.831524
0.827578
0.822945
0.816953
0.819526
0.95496
0.941647
0.901621
0.88177
0.876899
0.883394
0.89211
0.898448
0.891481
0.883806
0.867153
0.857362
0.843117
0.828821
0.820889
0.813607
0.808984
0.801533
0.800018
0.787341
0.791296
0.774116
0.771137
0.756952
0.754286
0.749106
0.753389
0.749983
0.754221
0.773766
0.84108
0.840726
0.853431
0.872943
0.892456
0.902033
0.906781
0.905143
0.900429
0.895031
0.889488
0.875846
0.866758
0.864611
0.851729
0.84153
0.850256
0.834642
0.840991
0.831841
0.827945
0.826274
0.819493
0.818943
0.814714
0.81775
0.815172
0.821397
0.820988
0.832388
0.8248
0.809645
0.803899
0.807848
0.811912
0.821854
0.826524
0.830088
0.835282
0.836161
0.837895
0.839963
0.830304
0.819739
0.803658
0.794796
0.783235
0.778403
0.771818
0.774731
0.778729
0.791587
0.804984
0.828601
0.839654
0.852255
0.851691
0.852194
0.843431
0.84899
0.902815
0.906328
0.902496
0.910562
0.903248
0.876133
0.872945
0.891599
0.913271
0.927087
0.918237
0.903046
0.875159
0.864402
0.832068
0.823386
0.811118
0.803196
0.803619
0.80562
0.802508
0.799655
0.813668
0.824108
0.846883
0.912696
0.952639
0.957165
0.933219
0.889025
0.868615
0.851905
0.844548
0.837474
0.833117
0.831636
0.828853
0.824103
0.819518
0.817927
0.805262
0.799577
0.795946
0.786592
0.780125
0.781016
0.788327
0.790163
0.813249
0.814412
0.833645
0.83882
0.850218
0.858341
0.86433
0.872847
0.878966
0.884573
0.891524
0.893531
0.927528
0.92269
0.913366
0.899551
0.88074
0.875747
0.83781
0.846648
0.79887
0.816414
0.767268
0.789552
0.754616
0.770966
0.769064
0.765962
0.799036
0.788212
0.831344
0.817853
0.848572
0.838191
0.847662
0.84232
0.846258
0.84613
0.855635
0.853796
0.855546
0.851168
0.864645
0.854646
0.853124
0.855292
0.850267
0.846756
0.829286
0.83988
0.804641
0.818217
0.79983
0.789236
0.791276
0.799231
0.792995
0.811079
0.807358
0.821382
0.83536
0.843422
0.86092
0.862696
0.860557
0.85683
0.851391
0.860669
0.859227
0.866517
0.871256
0.87716
0.809219
0.820493
0.824513
0.822496
0.81723
0.815423
0.802912
0.805508
0.784527
0.7921
0.772771
0.779361
0.780834
0.769974
0.781133
0.785858
0.794962
0.792349
0.803369
0.807762
0.809155
0.80655
0.803982
0.807431
0.815649
0.816286
0.814383
0.811063
0.816365
0.823849
0.850086
0.850925
0.846379
0.831085
0.819847
0.818885
0.82143
0.825125
0.826631
0.828496
0.829338
0.834034
0.827976
0.832168
0.817005
0.818001
0.793803
0.797695
0.784068
0.796801
0.793885
0.804561
0.813585
0.811802
0.807276
0.802784
0.802695
0.811548
0.824968
0.848653
0.872327
0.794796
0.782213
0.804454
0.797974
0.767361
0.751541
0.750681
0.750309
0.749691
0.747676
0.745302
0.740833
0.743167
0.741476
0.748452
0.752644
0.764966
0.772859
0.776782
0.772311
0.758261
0.751731
0.76744
0.818895
0.831983
0.81738
0.819883
0.875304
1.15623
0.772852
0.733798
0.69849
0.689909
0.695779
0.703267
0.709661
0.706609
0.69783
0.695001
0.709206
0.723283
0.699163
0.698755
0.883625
0.863494
0.836273
0.79007
0.772708
0.769391
0.78716
0.80935
0.848594
0.860065
0.866599
0.85892
0.857778
0.856609
0.851816
0.842131
0.833638
0.822001
0.816364
0.816666
0.814145
0.819613
0.834707
0.847276
0.8714
0.893823
0.921141
0.936607
0.946677
0.967473
0.772325
0.768904
0.767823
0.772761
0.792227
0.805196
0.795865
0.796462
0.812266
0.824651
0.81755
0.799518
0.787785
0.78151
0.785494
0.78534
0.790388
0.788449
0.787727
0.784749
0.794555
0.790643
0.803872
0.811519
0.82529
0.832188
0.832809
0.825513
0.820495
0.817282
0.941296
0.9273
0.889279
0.870668
0.868546
0.87856
0.895742
0.892419
0.886669
0.871461
0.859188
0.844577
0.832456
0.823688
0.81701
0.802996
0.802765
0.796351
0.790112
0.792794
0.777583
0.781062
0.766248
0.765137
0.755379
0.750086
0.74787
0.760817
0.768084
0.763988
0.842155
0.851278
0.875351
0.89653
0.902839
0.904651
0.900655
0.896322
0.891837
0.885799
0.871412
0.86356
0.858095
0.842584
0.831856
0.840589
0.825162
0.836701
0.831734
0.829695
0.831169
0.823308
0.822587
0.817028
0.817866
0.814816
0.816858
0.815092
0.819199
0.828592
0.826907
0.807845
0.809432
0.811203
0.818991
0.824075
0.828031
0.836448
0.837374
0.839955
0.841343
0.836267
0.825442
0.810857
0.799382
0.784578
0.779061
0.768054
0.762518
0.764968
0.768381
0.771455
0.790198
0.81852
0.828069
0.850384
0.858955
0.852115
0.846948
0.854172
0.918361
0.913089
0.909897
0.905523
0.880029
0.869116
0.890721
0.922707
0.939696
0.93416
0.910861
0.889063
0.850048
0.841423
0.803126
0.814141
0.785181
0.802702
0.802069
0.801032
0.800194
0.810286
0.806874
0.813675
0.847696
0.895425
0.958829
0.985917
0.955047
0.895268
0.8604
0.84757
0.838906
0.83825
0.837222
0.833418
0.82974
0.827087
0.819275
0.813229
0.800638
0.801592
0.780908
0.784746
0.770735
0.767844
0.78624
0.775662
0.804858
0.804369
0.825872
0.829699
0.843801
0.850804
0.864118
0.87221
0.87752
0.884326
0.891142
0.895546
0.920776
0.913307
0.902716
0.889814
0.876004
0.866701
0.833724
0.841574
0.79576
0.81476
0.767159
0.790901
0.753496
0.769849
0.771311
0.757268
0.792594
0.780227
0.827188
0.815517
0.850923
0.838019
0.853271
0.844436
0.849116
0.849706
0.855156
0.856198
0.858047
0.852605
0.858397
0.853158
0.855414
0.860455
0.852832
0.850476
0.831387
0.835584
0.805943
0.819313
0.785654
0.795763
0.794494
0.78639
0.80135
0.79582
0.806552
0.828408
0.823029
0.844633
0.856134
0.862137
0.863889
0.8596
0.853923
0.858933
0.861867
0.865774
0.871874
0.872265
0.815948
0.8266
0.822688
0.823122
0.814885
0.816301
0.799239
0.808527
0.782461
0.799216
0.775257
0.797978
0.778763
0.795324
0.794044
0.784362
0.802852
0.792471
0.801753
0.799695
0.806587
0.803282
0.801165
0.80118
0.80751
0.813135
0.811687
0.809304
0.811785
0.822497
0.84744
0.847668
0.835518
0.818735
0.815489
0.816437
0.817363
0.81743
0.819354
0.821538
0.826354
0.82706
0.826648
0.831696
0.817634
0.816331
0.792543
0.795846
0.784877
0.802782
0.81274
0.838041
0.848327
0.839144
0.819644
0.810212
0.803571
0.809962
0.82258
0.84466
0.825766
0.761366
0.765326
0.782341
0.768321
0.751128
0.746361
0.747228
0.748101
0.745949
0.742271
0.73876
0.741099
0.740266
0.743982
0.742559
0.744002
0.753752
0.766684
0.774694
0.77493
0.761625
0.749717
0.758825
0.810701
0.833376
0.821544
0.827604
0.884879
1.16146
0.770589
0.718354
0.691186
0.69787
0.710355
0.721589
0.727587
0.731813
0.71802
0.704298
0.709558
0.723898
0.704299
0.698953
0.88502
0.858052
0.812791
0.777693
0.760987
0.764914
0.770329
0.800951
0.833807
0.860583
0.85711
0.857217
0.851631
0.854927
0.850413
0.839072
0.826728
0.817243
0.80701
0.801582
0.804949
0.808936
0.817194
0.836265
0.854418
0.882512
0.904835
0.924019
0.934171
0.955107
0.768337
0.768923
0.762781
0.769512
0.780111
0.780724
0.777816
0.781349
0.804531
0.82064
0.808174
0.790597
0.782115
0.785399
0.790749
0.79764
0.795222
0.792992
0.792272
0.785596
0.796471
0.790492
0.802036
0.810142
0.823019
0.83302
0.835316
0.829157
0.821382
0.816068
0.929219
0.913067
0.873695
0.860354
0.865297
0.882992
0.889091
0.888553
0.876568
0.866408
0.849626
0.838336
0.834042
0.81775
0.819358
0.803275
0.80866
0.795471
0.797799
0.780877
0.784582
0.771678
0.773736
0.767278
0.768215
0.769639
0.765618
0.760657
0.769049
0.78584
0.844015
0.869584
0.897012
0.903037
0.904356
0.899858
0.897136
0.89259
0.883207
0.869227
0.861663
0.852232
0.832239
0.824612
0.829152
0.814047
0.823476
0.822508
0.823668
0.831692
0.826727
0.828499
0.821243
0.821353
0.817376
0.818652
0.814763
0.816541
0.817756
0.826389
0.825232
0.811545
0.809555
0.815163
0.813214
0.820842
0.83065
0.835362
0.837908
0.837897
0.837939
0.83591
0.822547
0.810521
0.796849
0.782269
0.769653
0.766037
0.754569
0.762108
0.760196
0.763232
0.787403
0.80133
0.822491
0.851546
0.854068
0.855702
0.853463
0.85182
0.915319
0.909074
0.902824
0.886565
0.867492
0.880826
0.915842
0.943533
0.94325
0.926313
0.89678
0.874662
0.829922
0.82498
0.791799
0.79765
0.780459
0.790054
0.793718
0.797963
0.814266
0.808999
0.80744
0.82577
0.842006
0.88768
0.973406
0.985762
0.955389
0.925279
0.866286
0.851133
0.843551
0.843179
0.841697
0.836523
0.829579
0.827597
0.817968
0.809222
0.795905
0.796634
0.774047
0.778783
0.765784
0.765139
0.773361
0.773175
0.795263
0.792008
0.821079
0.824144
0.837065
0.850089
0.863336
0.872497
0.881871
0.888039
0.89495
0.905082
0.913826
0.90547
0.892605
0.884773
0.870497
0.861538
0.832238
0.846795
0.800797
0.823398
0.780589
0.799409
0.769241
0.782866
0.776045
0.761363
0.791318
0.772924
0.823969
0.811064
0.852696
0.839195
0.856584
0.848439
0.852793
0.852821
0.856836
0.858698
0.858077
0.853663
0.854653
0.855461
0.860194
0.861665
0.852108
0.848212
0.825415
0.830229
0.799581
0.801289
0.782056
0.789262
0.773487
0.785279
0.782285
0.795922
0.79951
0.823347
0.824813
0.841973
0.851879
0.867528
0.863544
0.86686
0.856077
0.8605
0.861295
0.869248
0.867153
0.871924
0.825137
0.828728
0.826525
0.821263
0.819044
0.814074
0.801737
0.807036
0.784866
0.811315
0.786889
0.79986
0.787737
0.783574
0.796228
0.787492
0.804361
0.792553
0.803016
0.789583
0.808438
0.799833
0.800765
0.800129
0.803766
0.806644
0.808117
0.806835
0.811477
0.819545
0.843648
0.842891
0.825829
0.814795
0.810064
0.808919
0.807511
0.806147
0.805835
0.810729
0.813107
0.818542
0.825281
0.828211
0.821651
0.817049
0.794066
0.792446
0.788555
0.798293
0.814409
0.856633
0.867047
0.856064
0.826404
0.812011
0.80324
0.809781
0.82181
0.842877
0.804963
0.745467
0.754318
0.764979
0.752499
0.742146
0.741024
0.741104
0.739051
0.737343
0.738915
0.742784
0.735917
0.739161
0.737873
0.744843
0.738596
0.748117
0.757559
0.771243
0.776717
0.764103
0.749807
0.754995
0.801127
0.835461
0.830382
0.836626
0.924482
1.1789
0.769194
0.717826
0.697269
0.707725
0.723934
0.731507
0.7366
0.743353
0.738834
0.718242
0.716302
0.726741
0.704277
0.700946
0.869153
0.839153
0.803898
0.765189
0.762278
0.764379
0.771383
0.783069
0.827087
0.851104
0.859758
0.848684
0.853742
0.849969
0.845511
0.835197
0.822013
0.814739
0.811066
0.804235
0.79664
0.800024
0.812291
0.827127
0.851169
0.875375
0.902215
0.915346
0.928513
0.942028
0.773363
0.769509
0.763332
0.766952
0.76947
0.770915
0.767598
0.777109
0.801038
0.818208
0.810305
0.7918
0.789856
0.794063
0.800555
0.803797
0.80344
0.789339
0.788674
0.782469
0.793225
0.790473
0.799116
0.808972
0.822717
0.833196
0.837488
0.830249
0.820885
0.813627
0.910897
0.888155
0.856115
0.844877
0.848944
0.869838
0.884859
0.878953
0.872547
0.857464
0.845468
0.842996
0.830142
0.820774
0.826171
0.804072
0.797518
0.793273
0.782743
0.783957
0.773829
0.77442
0.772015
0.774557
0.774294
0.767261
0.768091
0.775096
0.783608
0.79837
0.846599
0.887014
0.901073
0.900393
0.896558
0.893595
0.887831
0.878236
0.866317
0.860245
0.848382
0.829096
0.823786
0.822941
0.809006
0.814694
0.814977
0.815592
0.82499
0.824228
0.829159
0.824497
0.825197
0.820337
0.82133
0.81826
0.817847
0.817779
0.817038
0.828716
0.825821
0.810156
0.81239
0.806127
0.804258
0.81369
0.832155
0.843778
0.846499
0.847926
0.847005
0.837609
0.828443
0.809734
0.797358
0.781394
0.76664
0.762929
0.752915
0.757706
0.758375
0.763648
0.777188
0.802266
0.822694
0.840314
0.856456
0.859883
0.850492
0.855883
0.91983
0.907818
0.890888
0.870352
0.868694
0.897951
0.932577
0.945141
0.938607
0.915439
0.9008
0.85459
0.838129
0.796601
0.797314
0.785912
0.782129
0.789941
0.793401
0.808425
0.808534
0.809876
0.8201
0.823497
0.844247
0.912602
0.988687
0.993102
0.966006
0.926676
0.864106
0.849408
0.846723
0.847201
0.843868
0.83828
0.831934
0.825332
0.816744
0.808224
0.792754
0.792332
0.771288
0.775641
0.759072
0.762377
0.766975
0.765152
0.790136
0.787994
0.811154
0.8212
0.83902
0.850265
0.863608
0.87589
0.885466
0.891521
0.901688
0.910069
0.905669
0.896851
0.887533
0.880956
0.866372
0.860125
0.837216
0.850868
0.812705
0.838664
0.793417
0.81754
0.786741
0.800095
0.796316
0.77425
0.796127
0.773591
0.821558
0.808275
0.854772
0.841725
0.858792
0.854605
0.858148
0.857363
0.860344
0.860763
0.858506
0.855703
0.85284
0.859281
0.862171
0.859034
0.847778
0.84502
0.819399
0.825413
0.786739
0.805069
0.77353
0.770745
0.765949
0.761652
0.781606
0.785342
0.791528
0.826915
0.816028
0.849339
0.8447
0.869292
0.869703
0.865302
0.866003
0.86399
0.866459
0.866584
0.864752
0.867009
0.830874
0.831574
0.825693
0.825916
0.815669
0.818186
0.796797
0.811072
0.787987
0.815899
0.784465
0.807518
0.78209
0.795901
0.794137
0.789998
0.801946
0.782618
0.810843
0.78158
0.804312
0.80234
0.799969
0.801143
0.801019
0.805317
0.804445
0.806315
0.811977
0.821147
0.84006
0.83513
0.816735
0.805385
0.803391
0.799597
0.792763
0.789212
0.793727
0.79567
0.801885
0.811479
0.817692
0.825431
0.825378
0.825931
0.807449
0.800372
0.793222
0.805678
0.813582
0.826051
0.838824
0.83206
0.818035
0.807646
0.802661
0.8104
0.822739
0.841828
0.799556
0.739085
0.744958
0.752811
0.743667
0.74027
0.742242
0.740859
0.737327
0.739498
0.740615
0.739404
0.746681
0.744999
0.748373
0.741745
0.740577
0.743985
0.753487
0.767158
0.775708
0.765401
0.749867
0.749639
0.794011
0.840861
0.841252
0.852741
0.9809
1.19788
0.769952
0.716663
0.701414
0.71674
0.731035
0.741755
0.742832
0.744258
0.75225
0.738312
0.730741
0.731572
0.706177
0.700627
0.870384
0.837433
0.797155
0.767479
0.760031
0.77356
0.769978
0.779915
0.811141
0.850486
0.853925
0.852115
0.848529
0.856356
0.847625
0.837473
0.826495
0.812501
0.809987
0.806877
0.802543
0.803979
0.811486
0.828721
0.850354
0.875463
0.895036
0.905519
0.895354
0.886703
0.7749
0.773911
0.765145
0.763025
0.767287
0.763647
0.766147
0.775935
0.795556
0.822813
0.80808
0.789063
0.786407
0.796045
0.805814
0.807468
0.802724
0.795483
0.785255
0.782159
0.789303
0.794764
0.796815
0.809831
0.821603
0.834473
0.835968
0.828343
0.815785
0.805232
0.87467
0.867876
0.841549
0.832469
0.839083
0.860271
0.86566
0.87311
0.862774
0.850364
0.848665
0.834844
0.831636
0.825874
0.82469
0.797006
0.807813
0.784995
0.786115
0.778304
0.782479
0.78022
0.784851
0.786672
0.789334
0.788288
0.787146
0.788253
0.797326
0.803233
0.857842
0.896121
0.89904
0.896637
0.895108
0.889867
0.882159
0.873546
0.865883
0.850537
0.837349
0.826932
0.821695
0.813416
0.808856
0.814842
0.810906
0.821448
0.819587
0.826798
0.824156
0.82604
0.82338
0.824946
0.823575
0.823676
0.821961
0.820722
0.823332
0.829451
0.823966
0.814049
0.807168
0.797065
0.791127
0.807766
0.828862
0.842453
0.845587
0.844892
0.847376
0.845539
0.827512
0.817256
0.79543
0.787096
0.765389
0.766183
0.751885
0.760506
0.758026
0.768134
0.781089
0.80786
0.81703
0.842306
0.857026
0.85275
0.851502
0.859904
0.916749
0.900399
0.879872
0.864975
0.875915
0.907118
0.933846
0.9366
0.927674
0.910422
0.899252
0.851753
0.836206
0.790796
0.798664
0.781655
0.792492
0.789162
0.800708
0.80502
0.81019
0.819093
0.816366
0.826505
0.868272
0.941505
0.990716
0.991853
0.957809
0.929702
0.868775
0.854316
0.852238
0.851734
0.845862
0.839172
0.83375
0.825494
0.816674
0.80702
0.792113
0.791656
0.769581
0.773694
0.755915
0.760487
0.76467
0.757483
0.783961
0.789073
0.798904
0.825548
0.841314
0.850544
0.867551
0.879158
0.88772
0.895414
0.905838
0.912559
0.904235
0.890621
0.884926
0.877635
0.860447
0.859854
0.84534
0.852155
0.820183
0.846778
0.795389
0.822543
0.788702
0.807958
0.807247
0.78606
0.805656
0.77795
0.823414
0.811817
0.854376
0.850012
0.861324
0.860656
0.86216
0.861948
0.861451
0.859436
0.856906
0.853827
0.865342
0.865883
0.862405
0.855333
0.845645
0.842067
0.815303
0.822141
0.788438
0.80188
0.762636
0.777568
0.75598
0.754287
0.77162
0.769806
0.799665
0.808647
0.824945
0.838047
0.850921
0.867718
0.872833
0.870159
0.868446
0.868752
0.863396
0.856793
0.852079
0.859547
0.849236
0.838804
0.833828
0.825247
0.819017
0.813944
0.799621
0.807333
0.789871
0.813848
0.7899
0.802609
0.784681
0.791737
0.7954
0.777606
0.80807
0.777498
0.810008
0.778138
0.806893
0.793251
0.807825
0.800562
0.802078
0.804326
0.804327
0.806388
0.814335
0.822154
0.840088
0.82764
0.808274
0.802822
0.799437
0.790448
0.783061
0.781985
0.77865
0.780631
0.790099
0.799097
0.810695
0.819674
0.827068
0.832107
0.816542
0.80121
0.79175
0.788571
0.797591
0.808078
0.808673
0.81302
0.808847
0.804613
0.804612
0.814806
0.826455
0.840748
0.82106
0.738943
0.737913
0.744353
0.738655
0.735424
0.735111
0.733199
0.735168
0.735565
0.736272
0.741904
0.743188
0.748883
0.746467
0.744518
0.741428
0.746608
0.750226
0.761841
0.776969
0.770357
0.748361
0.74739
0.790695
0.847459
0.863383
0.884599
1.07867
1.21691
0.775505
0.725921
0.712665
0.726215
0.739902
0.747826
0.751873
0.748588
0.753201
0.754002
0.741503
0.733226
0.702853
0.705566
0.722522
0.78847
0.846847
0.828308
0.794952
0.764903
0.766231
0.780616
0.778589
0.771918
0.803436
0.841079
0.857024
0.849593
0.853828
0.856157
0.852987
0.838071
0.824853
0.819192
0.811064
0.808624
0.805367
0.807485
0.822531
0.838574
0.866568
0.891028
0.892971
0.861328
0.827352
0.810699
0.776414
0.769889
0.782337
0.775514
0.763032
0.76403
0.762806
0.763174
0.767956
0.773028
0.797829
0.823504
0.811859
0.793767
0.793448
0.799796
0.811143
0.817045
0.81236
0.796815
0.795235
0.786689
0.792646
0.79803
0.803051
0.812129
0.827432
0.83523
0.834616
0.822764
0.809737
0.802509
0.810901
0.784789
0.861097
0.8609
0.838865
0.833698
0.843622
0.857043
0.867077
0.857993
0.850739
0.851648
0.840739
0.83356
0.836263
0.826856
0.810462
0.808917
0.795016
0.779951
0.778255
0.77958
0.776474
0.780949
0.785684
0.790973
0.790632
0.794808
0.795177
0.801609
0.812422
0.836669
0.823897
0.829248
0.865199
0.887488
0.889734
0.889815
0.885637
0.884165
0.878602
0.87059
0.857476
0.853755
0.839974
0.827127
0.826472
0.817314
0.823706
0.818107
0.822121
0.818551
0.826741
0.823311
0.826709
0.82573
0.826797
0.826837
0.827143
0.824651
0.824377
0.819258
0.823366
0.824088
0.826607
0.783103
0.818728
0.803355
0.798583
0.778444
0.78119
0.804412
0.837083
0.857348
0.857622
0.854955
0.856103
0.848061
0.83747
0.817787
0.805134
0.788911
0.779159
0.765905
0.763411
0.760158
0.762953
0.781925
0.795459
0.805785
0.824582
0.847365
0.847136
0.847374
0.853323
0.860893
0.883696
0.876055
0.903602
0.879902
0.863405
0.859254
0.878154
0.905749
0.925893
0.924126
0.911908
0.900626
0.902707
0.864795
0.842717
0.798763
0.803962
0.78298
0.792891
0.792833
0.799135
0.804564
0.815013
0.811869
0.819667
0.852436
0.899011
0.968309
0.993377
0.978447
0.947434
0.906214
0.859948
0.837381
0.850828
0.841828
0.844356
0.845806
0.844215
0.840237
0.833151
0.825392
0.819044
0.806689
0.792442
0.790653
0.770125
0.773251
0.756626
0.75942
0.759125
0.757541
0.788434
0.787907
0.801223
0.83057
0.842959
0.856288
0.87034
0.881795
0.892014
0.900553
0.912917
0.908535
0.897588
0.902988
0.88772
0.884098
0.877513
0.871993
0.85815
0.854991
0.846415
0.852391
0.822038
0.84522
0.795493
0.813321
0.787005
0.804631
0.808059
0.797074
0.798382
0.792696
0.824426
0.817461
0.859255
0.855231
0.865122
0.866173
0.868445
0.870067
0.867671
0.863458
0.861715
0.855855
0.84863
0.849926
0.851739
0.852819
0.852235
0.848972
0.841081
0.836824
0.813672
0.824317
0.786715
0.799736
0.764775
0.774577
0.751171
0.747581
0.769072