/*--------------------------------*- C++ -*----------------------------------*\
| =========                 |                                                 |
| \\      /  F ield         | OpenFOAM: The Open Source CFD Toolbox           |
|  \\    /   O peration     | Version:  2.1.1                                 |
|   \\  /    A nd           | Web:      www.OpenFOAM.org                      |
|    \\/     M anipulation  |                                                 |
\*---------------------------------------------------------------------------*/
FoamFile
{
    version     2.0;
    format      ascii;
    class       volScalarField;
    location    "0.004500000";
    object      H2;
}
// * * * * * * * * * * * * * * * * * * * * * * * * * * * * * * * * * * * * * //

dimensions      [0 0 0 0 0 0 0];

internalField   nonuniform List<scalar> 
12384
(
0.00963064
0.0098854
0.00968008
0.00936941
0.00929337
0.00938239
0.00941651
0.00925837
0.00879898
0.00805817
0.00752974
0.00635857
0.0014738
0.000223358
9.30539e-05
0.000155579
0.000138758
0.000121799
0.000103206
9.77938e-05
8.94901e-05
8.87084e-05
8.72381e-05
8.87564e-05
9.1867e-05
9.29684e-05
9.50378e-05
9.41881e-05
9.65071e-05
9.16566e-05
9.57438e-05
9.28474e-05
9.78103e-05
0.000100199
0.000105918
0.000110008
0.00012212
0.00014379
0.00023094
0.000132475
3.27935e-05
3.63209e-05
9.78775e-05
0.000223817
0.00130113
0.00245262
0.00265448
0.00262789
0.00247436
0.00223452
0.00200103
0.00175699
0.0015496
0.00130425
0.00109711
0.00102269
0.000832074
0.000858118
0.000803294
0.000816692
0.000894398
0.00084701
0.000885704
0.000851378
0.000862646
0.000886544
0.000987893
0.00117609
0.00136343
0.00216103
0.0028048
0.00168526
0.000543053
0.000181297
0.00216184
0.00314265
0.00379014
0.00347065
0.00316899
0.00293612
0.00275321
0.00264669
0.00235811
0.00242899
0.001892
0.00233968
0.00163039
0.00215326
0.00167036
0.00191396
0.00190322
0.00191478
0.00168248
0.00167699
0.00182831
0.00182981
0.0019966
0.00250695
0.00245547
0.000591513
0.000492835
0.000521289
0.000530858
0.000528798
0.000644902
0.000922938
0.00266449
0.00377962
0.00434122
0.00428558
0.00410239
0.0038619
0.00360897
0.00337228
0.00319066
0.00325929
0.00311024
0.00319154
0.00332633
0.0033109
0.0037756
0.00367294
0.00397428
0.00381487
0.00379065
0.00296407
0.00158854
0.000638014
0.000756968
0.000795229
0.000444471
0.000453535
0.000539604
0.000621944
0.000540176
0.00539781
0.00578082
0.00358283
0.00257904
0.00253567
0.00294967
0.00357286
0.00416203
0.00465052
0.00512971
0.00538128
0.00590913
0.00565498
0.00611604
0.00586957
0.00619786
0.00599518
0.00623294
0.00607159
0.00605937
0.00599488
0.00578698
0.00554071
0.00510139
0.00422463
0.00315611
0.0025405
0.00130062
0.000382656
0.00113235
0.00121585
0.00390491
0.00845504
0.0093959
0.00804044
0.00543418
0.00310441
0.00195524
0.00152995
0.00148761
0.00154435
0.00159436
0.00143854
0.00112641
0.000934924
0.000781231
0.000656978
0.000566574
0.000502321
0.000484884
0.000475864
0.000479469
0.000475361
0.000469797
0.000459118
0.000443165
0.000504994
0.00136606
0.000351146
6.10245e-05
0.000117033
0.00495095
0.00927756
0.00815444
0.00751887
0.00704466
0.00672828
0.00645108
0.00620295
0.00601776
0.00588144
0.0057872
0.00577936
0.00582522
0.00590101
0.00605428
0.00613131
0.00646838
0.00651776
0.00686921
0.00692779
0.00697479
0.00707363
0.0068092
0.00638655
0.00566976
0.00467057
0.00383408
0.00522542
1.64928e-05
4.65958e-05
0.0148852
0.017664
0.0153737
0.014036
0.012989
0.012278
0.011942
0.0119003
0.0121149
0.0125028
0.0130105
0.0136226
0.0141606
0.0148272
0.0155267
0.0162152
0.0168881
0.0174134
0.0182727
0.0184873
0.0191925
0.0192638
0.0197946
0.0199553
0.0205275
0.0206981
0.0208063
0.0108091
0.000161379
0.00142645
0.00254379
0.002069
0.00189963
0.00221645
0.00304973
0.00430849
0.00617783
0.00796848
0.0089165
0.0093786
0.00938961
0.00922888
0.00908751
0.00903392
0.008881
0.00902582
0.00895063
0.00921683
0.00918711
0.00957043
0.00967574
0.0098576
0.00976771
0.00929175
0.00820269
0.00819991
0.00959633
0.00981008
0.00119082
0.0127803
0.0128841
0.0132906
0.0143961
0.0154454
0.0157415
0.0146923
0.0127674
0.0111088
0.010146
0.00941175
0.00882735
0.00846227
0.00810571
0.00761612
0.00752188
0.0070256
0.00712058
0.00614412
0.00720998
0.00695246
0.00727405
0.00840759
0.010524
0.0149942
0.0161358
0.0127511
0.00889376
0.00702989
1.62003e-05
0.00451912
0.0190898
0.0212099
0.0196923
0.0168922
0.0143909
0.0124907
0.0115306
0.0109519
0.010694
0.0106885
0.0106337
0.0106733
0.0106943
0.0106723
0.0106148
0.0104214
0.0101928
0.00972886
0.00952907
0.00934636
0.00943025
0.00945754
0.00961404
0.0134151
0.0162887
0.000319742
4.54575e-06
5.55077e-06
1.38568e-06
1.46798e-06
2.10106e-06
8.20504e-06
0.000196082
0.00927327
0.0182931
0.0225373
0.0249944
0.0265706
0.0275885
0.0283042
0.0288342
0.0292772
0.0296194
0.0296038
0.0291919
0.028142
0.0263848
0.0234721
0.0194822
0.0153156
0.0119013
0.00852781
0.00507878
0.000521079
4.1548e-05
5.71978e-06
3.00642e-06
5.28003e-06
0.00808909
0.00618938
0.00451518
0.00350045
0.00332898
0.00378875
0.0053142
0.00705354
0.00810855
0.00798787
0.00736671
0.00647957
0.0028001
0.000381119
9.0709e-05
0.000144719
0.000103375
9.1821e-05
8.83184e-05
9.44932e-05
0.000102788
0.000123354
0.000134579
0.000140346
0.000146018
0.000143631
0.000144612
0.000140813
0.000134545
0.000133375
0.00013095
0.000136515
0.000139847
0.000139191
0.00014478
0.000136389
0.000137409
0.00014073
0.000190295
0.000205981
0.000107003
6.33295e-05
4.91857e-05
9.88026e-05
0.0013932
0.00267662
0.00246679
0.00220166
0.00154424
0.00098983
0.000602759
0.000490025
0.000373375
0.000341251
0.000343208
0.000428836
0.000634253
0.000949154
0.00127785
0.00152327
0.00165539
0.00161597
0.00152326
0.00131304
0.00102068
0.000767213
0.000707625
0.000816677
0.00103745
0.00157517
0.00233346
0.00293476
0.00199093
0.000341363
0.00257577
0.00430687
0.0037702
0.00279252
0.00248822
0.00229042
0.00201309
0.00154821
0.00127566
0.00096711
0.000933383
0.000624657
0.000758758
0.000477303
0.000548907
0.000510018
0.000505758
0.000538828
0.000571099
0.000648768
0.000826652
0.00101337
0.00130107
0.00190373
0.00239541
0.00143963
0.000589827
0.000576156
0.000746783
0.000713933
0.000506463
0.000828255
0.00284315
0.00433228
0.0042025
0.00330432
0.00226268
0.00118948
0.000657462
0.000437518
0.000338179
0.000279316
0.000261455
0.000247349
0.000258961
0.000322252
0.000449948
0.000857954
0.00188845
0.00290028
0.0045284
0.00414095
0.00297603
0.00130465
0.000737728
0.000803681
0.00081288
0.000681589
0.000807901
0.000873964
0.0010551
0.00503127
0.00318123
0.00219499
0.00308983
0.00475764
0.00572784
0.00632454
0.00684184
0.00735336
0.00765405
0.0078851
0.00773343
0.00789622
0.00758563
0.00784754
0.00778342
0.00789897
0.00795084
0.00800161
0.00801003
0.00792874
0.00766766
0.00730057
0.00666581
0.00560144
0.00418937
0.00305595
0.00217666
0.00098966
0.00139169
0.00206122
0.00634193
0.00933911
0.00742216
0.00318085
0.00102268
0.000776484
0.00158597
0.00332512
0.00412475
0.00349585
0.00221815
0.000965102
0.000506197
0.000408668
0.000398947
0.000406359
0.0004049
0.00039142
0.000363387
0.000328166
0.000307167
0.000309182
0.000320726
0.000328266
0.000327367
0.000350832
0.000846571
0.000468863
0.000109742
0.00139387
0.00747283
0.00870866
0.00758369
0.00719886
0.0068704
0.00644998
0.00591231
0.00530648
0.00469206
0.00418636
0.00385195
0.00364752
0.00357658
0.00363071
0.0038313
0.00415764
0.00443835
0.00476664
0.00496048
0.00513151
0.00520043
0.00530682
0.00524287
0.00493427
0.00433062
0.0035091
0.0029496
0.00445653
0.000116852
0.00678015
0.0157852
0.0144685
0.011128
0.00941748
0.0086402
0.00847101
0.00851302
0.0088566
0.00948125
0.010431
0.0111943
0.0118211
0.01232
0.0126466
0.0129019
0.013192
0.0135641
0.0141913
0.0147721
0.015263
0.0151202
0.0151681
0.0148489
0.0156289
0.017242
0.0193117
0.0203458
0.0131086
0.000615596
0.00191083
0.00144493
0.000936563
0.00129811
0.00219228
0.00518841
0.00879578
0.0112371
0.0112905
0.0099664
0.00887295
0.0079878
0.00718531
0.00645157
0.00567131
0.00485285
0.00434622
0.00393111
0.00383057
0.00400883
0.00459976
0.00563916
0.00692103
0.00817581
0.00869982
0.00837586
0.00790664
0.00861455
0.00955292
0.00371496
0.0114246
0.0103146
0.0113241
0.013774
0.0151505
0.0142347
0.0112841
0.00912942
0.00845808
0.00785046
0.00709242
0.00623277
0.00527492
0.00434402
0.00362384
0.00280028
0.00236721
0.00206549
0.00179641
0.00186308
0.00211476
0.0028855
0.0042014
0.00649817
0.0107265
0.0151227
0.0156899
0.0130164
0.00980518
0.00271805
0.0146585
0.0201797
0.0172744
0.0127759
0.00911258
0.00826677
0.00722129
0.00752198
0.00746519
0.00812544
0.00878581
0.0097493
0.0106271
0.0111031
0.0112364
0.010921
0.0100657
0.00860401
0.00676481
0.00510325
0.00402687
0.00413007
0.0052663
0.00673922
0.0101649
0.0151895
0.0113927
0.000140599
5.48536e-06
1.25606e-06
1.79274e-06
5.06911e-06
6.86276e-05
0.00626247
0.0182392
0.0255197
0.029189
0.0312627
0.0322333
0.0327262
0.0329986
0.033199
0.0334229
0.0338582
0.0346359
0.0356955
0.0368496
0.0377289
0.0381026
0.0378219
0.0353837
0.0317158
0.0261573
0.0219258
0.0171482
0.00584277
8.6008e-05
5.25491e-06
4.82171e-06
0.00236321
0.00137425
0.000801761
0.000643954
0.000611666
0.000669072
0.000999564
0.0021248
0.00470012
0.00643915
0.00661185
0.00608885
0.00373957
0.000605353
8.81299e-05
0.000120719
0.000102229
0.000119943
0.000161701
0.000226453
0.00027095
0.000295206
0.000271835
0.000233193
0.000193001
0.000153737
0.000142291
0.000134436
0.000138046
0.000148178
0.000165715
0.000174158
0.000200597
0.000224057
0.000238523
0.000220527
0.000186364
0.000166488
0.000175767
0.000221917
0.000220195
0.000164218
7.94631e-05
7.83125e-05
0.00151192
0.00256261
0.00195
0.00141482
0.000681136
0.000382979
0.000265399
0.000227432
0.000257694
0.000518053
0.00149858
0.00289489
0.00392259
0.00416774
0.00395629
0.00345302
0.00302557
0.00286859
0.0027334
0.0027001
0.00244665
0.00159607
0.000858092
0.00069505
0.000815895
0.00116646
0.0017738
0.00256074
0.00259552
0.000705781
0.00333863
0.00448827
0.00283135
0.00244858
0.00235643
0.00201368
0.00142089
0.000942705
0.000767736
0.000537701
0.000607319
0.000442465
0.000574238
0.000409641
0.00048607
0.000400069
0.000399198
0.000374307
0.000392548
0.000389291
0.000408846
0.0004769
0.000718344
0.00107557
0.00192032
0.00202603
0.00103689
0.000686482
0.000828286
0.000883985
0.000269017
0.00112541
0.00415849
0.00497283
0.00419659
0.00258309
0.00100484
0.000437835
0.000284669
0.000227385
0.000208018
0.000191578
0.000203875
0.000195518
0.000215668
0.000207767
0.000234958
0.000246924
0.0004326
0.000980294
0.00286137
0.00470625
0.00455885
0.00287626
0.00110049
0.000773987
0.000970384
0.00109846
0.0010431
0.000929575
0.00180382
0.0037424
0.00251569
0.00388319
0.0055629
0.0062963
0.00691506
0.00748017
0.0079254
0.00803859
0.00772089
0.00720855
0.00691927
0.00679361
0.00675693
0.00689159
0.00697994
0.0070589
0.00731438
0.00752516
0.0078122
0.00811937
0.00833006
0.00842747
0.00806666
0.00717983
0.00565262
0.00399877
0.00292885
0.00178808
0.00191044
0.00350588
0.008099
0.00791903
0.00316649
0.000924678
0.00100381
0.00424344
0.00744756
0.00798744
0.00577761
0.00242975
0.000480278
0.000202945
0.000154957
0.000208877
0.000410331
0.000832603
0.00116565
0.00112986
0.000882948
0.000545157
0.000377744
0.000289538
0.000253567
0.000259012
0.000241507
0.000236872
0.000463211
0.000564008
0.000341375
0.00530112
0.00863124
0.00874416
0.00871575
0.00928866
0.00955256
0.00927362
0.00844941
0.007235
0.00588617
0.00474296
0.00399771
0.00372165
0.00381385
0.00413146
0.00455078
0.00489499
0.00494814
0.0048069
0.00469113
0.00462999
0.00461671
0.00460243
0.00464451
0.00427169
0.00314934
0.00213134
0.00162794
0.00341853
0.00207005
0.0125096
0.014575
0.0116181
0.00977591
0.00921347
0.00879191
0.00865648
0.00898575
0.009867
0.0107548
0.0115297
0.0117821
0.0113486
0.0107469
0.0102289
0.0099627
0.00983847
0.00969869
0.00975334
0.00953783
0.0094224
0.00818851
0.00724707
0.00628129
0.0071054
0.0102959
0.0154106
0.0194432
0.0137494
0.00110594
0.00123318
0.000628712
0.000536367
0.0015892
0.00530486
0.0106121
0.0125102
0.0114672
0.00922972
0.00905142
0.00878994
0.00796546
0.00700882
0.0062415
0.00571416
0.00512524
0.00418657
0.00294615
0.00167864
0.000955811
0.000598061
0.000799716
0.00169076
0.00386551
0.00634109
0.00768499
0.00770655
0.00778115
0.00890473
0.00523499
0.00862826
0.00680339
0.00985733
0.0138689
0.0146424
0.0125602
0.0105661
0.0108693
0.0103866
0.00893908
0.00690685
0.00485729
0.00307361
0.00181468
0.00102721
0.000691255
0.00051141
0.000425717
0.000398965
0.000327995
0.000381803
0.000543317
0.00103433
0.00255852
0.00625294
0.0117928
0.0158006
0.0153485
0.0118263
0.0106728
0.0186671
0.01652
0.0109203
0.00766037
0.00640582
0.00578616
0.0050525
0.00465116
0.00413096
0.00471946
0.00542515
0.00738249
0.00945858
0.0112466
0.0118534
0.0115968
0.0101163
0.00736743
0.00399829
0.00130379
0.000492491
0.000379091
0.000744669
0.00270775
0.00669993
0.0130535
0.0156387
0.00416215
7.6357e-06
1.4167e-06
2.78358e-06
2.02985e-05
0.00232343
0.0159995
0.0264284
0.0305943
0.0316994
0.0314045
0.0305275
0.0293837
0.0284171
0.0278501
0.027824
0.0283137
0.0292583
0.0306416
0.0325268
0.0347061
0.0366019
0.0374507
0.036533
0.0307846
0.0228697
0.0163924
0.0152291
0.0128279
0.00419208
1.89527e-05
4.35591e-06
0.0012053
0.000626173
0.000464213
0.000450547
0.000452436
0.000451758
0.000489208
0.000725042
0.00194347
0.00419071
0.00537345
0.00541769
0.00394776
0.000810673
8.67129e-05
0.000125457
0.000162923
0.000292191
0.000435471
0.000516466
0.000442064
0.000335436
0.000223464
0.000150124
0.000113971
9.48095e-05
9.65006e-05
0.000121353
0.000163512
0.000227474
0.000288485
0.000352975
0.000390931
0.000419907
0.000452522
0.000420485
0.000358225
0.00024332
0.000197402
0.000218222
0.000265237
0.000254757
0.000128767
8.07603e-05
0.00161215
0.00231377
0.00174257
0.00107113
0.000489139
0.000318273
0.00040806
0.00092031
0.00271029
0.00433599
0.00548735
0.00603678
0.00595433
0.0054555
0.00440014
0.00312552
0.00234523
0.00207212
0.00235507
0.00266708
0.00282637
0.00245344
0.00133909
0.000741307
0.000712943
0.000947824
0.00145885
0.00189061
0.00227399
0.0010572
0.00466354
0.00393259
0.00260043
0.00249541
0.00228636
0.00165772
0.00108283
0.000706471
0.000594392
0.000563849
0.000715273
0.000837508
0.000972132
0.000990714
0.00096438
0.000885854
0.000788837
0.000597098
0.000456028
0.00039304
0.000345942
0.000349968
0.000420987
0.000641423
0.00120944
0.00197257
0.00168606
0.000949191
0.000841485
0.000993902
0.000318875
0.00316317
0.00578728
0.00557144
0.00425497
0.00226082
0.0007914
0.000378225
0.000316158
0.000329491
0.000387824
0.000493955
0.000645779
0.00073289
0.000815583
0.000738773
0.000576616
0.000456125
0.000433096
0.000650513
0.00175524
0.00386943
0.00516793
0.00398293
0.00192416
0.000836684
0.000943423
0.00146652
0.00152268
0.00105595
0.00216203
0.00308715
0.00339081
0.00535196
0.0062479
0.00700467
0.00769524
0.00804113
0.00794066
0.00733096
0.00674626
0.00640532
0.00651145
0.0066312
0.00691197
0.00719255
0.00730637
0.0074784
0.00743265
0.0074129
0.00745184
0.00766631
0.00816395
0.00869772
0.00889244
0.0083791
0.00709165
0.00523538
0.00374606
0.00235041
0.00259256
0.00512564
0.00830041
0.00471382
0.00116803
0.00101227
0.00464701
0.0091994
0.0105165
0.00863091
0.00471864
0.00127688
0.000243609
0.000112589
0.000102141
0.000196085
0.0007614
0.0022766
0.0029101
0.00291706
0.00233142
0.00116179
0.000508979
0.000313277
0.00023245
0.000208015
0.000167782
0.000144392
0.000273857
0.000555269
0.00112679
0.00757453
0.00935244
0.00998642
0.0114185
0.0128501
0.0133353
0.0129311
0.0116855
0.00978339
0.00756885
0.00558875
0.00435945
0.00400358
0.00427633
0.00476436
0.004819
0.00435537
0.00378595
0.00359107
0.00377041
0.00405182
0.00429418
0.00423055
0.00423121
0.00418899
0.00299852
0.00128315
0.000774537
0.00261546
0.00674612
0.0143432
0.0134565
0.0118931
0.0118712
0.0117365
0.0109332
0.0102429
0.0101227
0.0104299
0.0105943
0.00989717
0.00842716
0.00663296
0.00524449
0.00446666
0.0041076
0.00431834
0.00459831
0.00501403
0.00470761
0.0041317
0.00236283
0.000801538
0.000313473
0.000388318
0.00266261
0.010239
0.0176655
0.0142792
0.00111883
0.000687009
0.000424974
0.000610513
0.00419885
0.00998281
0.0121983
0.0113207
0.00995347
0.0114286
0.0113285
0.00902193
0.00589927
0.00374752
0.0028983
0.00321937
0.00439464
0.00495396
0.00487398
0.00362038
0.00187437
0.000620194
0.000216346
0.000195514
0.00043796
0.00269161
0.00580803
0.00704519
0.00692549
0.0081347
0.00573843
0.00585896
0.00488639
0.0106364
0.0143716
0.0141809
0.0127125
0.0134147
0.0127704
0.0100871
0.00667941
0.00324871
0.00112158
0.000400358
0.000325178
0.000215008
0.000232706
0.000183315
0.000161588
0.000164372
0.000147938
0.000149116
0.000176896
0.000279595
0.000560261
0.00276984
0.00820016
0.0141814
0.0159804
0.0130592
0.0140216
0.0174002
0.0118662
0.00753428
0.00603974
0.00520598
0.00408092
0.0027196
0.00145107
0.000705362
0.000470504
0.000697028
0.00203786
0.00489016
0.00842616
0.0112669
0.0124509
0.0116172
0.00816391
0.00340223
0.000539663
0.000161097
0.000115753
0.000178624
0.000609503
0.00425327
0.011407
0.0166549
0.00837782
1.11865e-05
1.68624e-06
5.23284e-06
0.000121435
0.00983023
0.0236794
0.0304999
0.0318412
0.0307996
0.0288645
0.0267594
0.0252164
0.0242637
0.0238301
0.0238116
0.0243615
0.0254162
0.0269409
0.0289568
0.0314758
0.0342142
0.0359528
0.0346722
0.0276984
0.0169791
0.00964943
0.00957567
0.0131063
0.00886408
9.49517e-05
3.72452e-06
0.000903161
0.000444397
0.000445038
0.000641654
0.00078572
0.000668413
0.000503897
0.000539711
0.00108043
0.00277989
0.00407646
0.00458509
0.00383739
0.000936753
8.67121e-05
0.000164492
0.000321816
0.000576591
0.000679276
0.000601442
0.000415446
0.000290341
0.000188928
0.000120269
9.20948e-05
9.03142e-05
0.00013205
0.000239758
0.000437334
0.00066624
0.000811048
0.000892317
0.000959892
0.00100916
0.00105716
0.000930948
0.000731482
0.000410487
0.000265235
0.000221136
0.000262244
0.000282674
0.000170749
8.4725e-05
0.00162665
0.00208197
0.0017363
0.00125658
0.00092544
0.00123925
0.002579
0.00424395
0.00548961
0.00633456
0.0069771
0.00706179
0.00688962
0.00595948
0.00424058
0.00240732
0.00136318
0.00131594
0.00179081
0.00238148
0.00263704
0.00250007
0.00167505
0.000795409
0.000675592
0.00086553
0.00123992
0.00130839
0.00165867
0.00116963
0.0056208
0.00337661
0.0025808
0.00252632
0.00222494
0.00159373
0.00103818
0.00061335
0.000532067
0.000640469
0.000952755
0.00153276
0.00183968
0.00205734
0.00190085
0.00173151
0.0012417
0.00102663
0.000823898
0.000485959
0.000355014
0.000307035
0.000315613
0.000415786
0.000795074
0.00164104
0.00201223
0.00137228
0.00091687
0.00100783
0.00251674
0.00581055
0.00648629
0.00595203
0.00428999
0.00217366
0.000789255
0.000490504
0.00048602
0.000651867
0.0010466
0.00169598
0.00235641
0.00275383
0.00285589
0.00281077
0.00238282
0.00165479
0.000949144
0.000753401
0.000980248
0.00238285
0.00428202
0.00426764
0.00242305
0.000866933
0.00085773
0.00173405
0.00223438
0.00128032
0.00234162
0.00315503
0.00449696
0.00604697
0.00703277
0.00783848
0.00813573
0.00798177
0.00745915
0.00691787
0.00666763
0.00670174
0.00688253
0.00714632
0.00744619
0.00775558
0.00806972
0.00814525
0.00811908
0.00794503
0.00775647
0.00767284
0.00795951
0.00857855
0.00922978
0.00924185
0.00828209
0.0064775
0.00465324
0.00278005
0.0033361
0.00626385
0.00732728
0.00258539
0.000896672
0.00319638
0.00872082
0.0117204
0.0115452
0.00932945
0.00623483
0.00263429
0.000369247
0.000102373
7.05967e-05
0.000116835
0.000427896
0.001845
0.00279445
0.00265772
0.00151776
0.000654246
0.000329363
0.000209119
0.000150512
0.000121297
0.000103658
0.000102484
0.000196427
0.000478379
0.00265736
0.00874938
0.0103887
0.0122612
0.0148066
0.0164866
0.0169663
0.0164908
0.0149754
0.0125388
0.00948401
0.00650528
0.00445656
0.00374181
0.00381552
0.00364477
0.0029466
0.00238808
0.00267879
0.0039948
0.0058083
0.00754585
0.00822524
0.00726638
0.00554063
0.00456805
0.00330765
0.00106849
0.000452065
0.00186846
0.00950358
0.0145822
0.013833
0.0142958
0.0154675
0.0147435
0.0130578
0.0111741
0.0097776
0.00898704
0.00819202
0.0068776
0.00503237
0.00320815
0.00217803
0.0015851
0.00135739
0.00127909
0.00147358
0.0017438
0.00169938
0.00114348
0.000433004
0.000141733
6.10713e-05
4.82919e-05
0.000176636
0.00492091
0.0153316
0.0142176
0.000954213
0.000481178
0.000460811
0.00189947
0.00811785
0.0117881
0.0118051
0.0115124
0.0135
0.0142681
0.00934161
0.00343593
0.000524762
0.000211163
0.000192749
0.000337648
0.00092889
0.00273401
0.00431137
0.00472545
0.00375859
0.00173024
0.000388915
0.000134372
0.000129579
0.000429252
0.00331125
0.00586741
0.0062491
0.00748886
0.00551383
0.00432
0.00546
0.0122234
0.0148771
0.0146941
0.0155682
0.0155568
0.0119976
0.00695177
0.00278748
0.000495478
0.00025454
0.000206532
0.000298936
0.000290237
0.000287561
0.000243467
0.000191937
0.000133403
0.000106806
9.87384e-05
0.000107662
0.000141567
0.000250103
0.000928185
0.00545536
0.0122388
0.015928
0.0135935
0.0153579
0.0149819
0.00890699
0.00648763
0.00595942
0.00540768
0.00431905
0.00275166
0.00101432
0.000336424
0.000165373
0.000129369
0.000199847
0.000724585
0.00392973
0.00863659
0.0128613
0.0142108
0.0111259
0.00491785
0.000596096
0.000151823
0.000106619
0.000123803
0.000374298
0.00331547
0.0111395
0.0173898
0.00961095
1.12587e-05
1.98888e-06
1.06476e-05
0.00169567
0.0165248
0.0283383
0.0318722
0.0310516
0.0284792
0.0256526
0.0231764
0.0214411
0.0201944
0.0194743
0.0193662
0.0200001
0.0214929
0.0234658
0.0257179
0.0282549
0.0313089
0.0344316
0.0353205
0.0267226
0.011431
0.00543748
0.00648771
0.0110314
0.009075
0.000133349
3.91997e-06
0.000783712
0.00038065
0.000591506
0.00129881
0.00182886
0.00121499
0.000626148
0.000509481
0.00080666
0.00200543
0.0032058
0.00390818
0.00359938
0.000979046
9.30738e-05
0.000242253
0.000547264
0.000713834
0.000718416
0.000650327
0.000571259
0.000437734
0.000270312
0.000148189
0.000101885
0.000106242
0.000216475
0.000465081
0.000867091
0.00103774
0.00107052
0.00100996
0.00107057
0.00128068
0.0015219
0.00158444
0.00127141
0.000716989
0.000373104
0.000259722
0.000276412
0.000306367
0.00017355
8.56924e-05
0.00162215
0.00190125
0.00209235
0.00223668
0.00252277
0.00334817
0.00467769
0.00573732
0.00661095
0.00727405
0.00760489
0.00761491
0.00723362
0.00617809
0.00399614
0.00157685
0.000925516
0.00106771
0.00152309
0.00220861
0.00262287
0.00242104
0.00159849
0.000813748
0.000660149
0.000859981
0.00107652
0.000867719
0.0010668
0.00116525
0.00585143
0.00318612
0.00270727
0.00276159
0.00263663
0.00203257
0.00113415
0.000585251
0.000471003
0.000573335
0.00106439
0.00204603
0.00244636
0.00261746
0.00229518
0.00182635
0.0012831
0.00104378
0.000810929
0.000535617
0.000395581
0.000296337
0.000253093
0.000315367
0.000512292
0.00123731
0.00205403
0.00177037
0.00104856
0.00103748
0.00606482
0.00640259
0.00672978
0.00634925
0.00452448
0.00219818
0.000803826
0.00058596
0.000686638
0.0011515
0.0020754
0.00290125
0.00335018
0.00355906
0.00353259
0.00352843
0.00347239
0.00327243
0.00249709
0.00157637
0.001097
0.00140244
0.00264294
0.00314914
0.00209245
0.000774899
0.0007563
0.00190175
0.00264906
0.00152919
0.00250032
0.00353969
0.00519071
0.00678004
0.0079687
0.00845087
0.00820408
0.00790174
0.00749288
0.00723587
0.00714029
0.00719668
0.00728732
0.00749097
0.00784562
0.00817314
0.00836632
0.00854277
0.00859368
0.00848619
0.00816592
0.00791106
0.0079116
0.00841214
0.00934604
0.0098309
0.00916191
0.00756284
0.00549521
0.00305524
0.00424979
0.00690444
0.00576523
0.0013776
0.00144746
0.00600802
0.0111419
0.0126539
0.0122899
0.0111322
0.00926009
0.00579959
0.00122115
0.000131424
5.63399e-05
5.80173e-05
0.000148978
0.000660281
0.00127801
0.000906439
0.000360632
0.000188628
0.000125211
0.00010055
8.8308e-05
8.00564e-05
7.59034e-05
8.54689e-05
0.000167734
0.000499949
0.00380231
0.00969032
0.0118604
0.014927
0.0178377
0.0192545
0.0195933
0.0191278
0.0176937
0.0150905
0.0115011
0.00757584
0.00449696
0.00320133
0.00287739
0.0022306
0.00159174
0.00208963
0.00502945
0.00926582
0.0127138
0.0150306
0.0160629
0.0153973
0.0111184
0.00659523
0.00391147
0.00100568
0.000312253
0.00133052
0.0111205
0.01502
0.0155182
0.017939
0.019015
0.0175966
0.0148754
0.0116256
0.0089303
0.00751146
0.00674331
0.00576789
0.00367897
0.0023373
0.00166388
0.00136384
0.00121257
0.00110309
0.000954245
0.000928964
0.000791304
0.000518666
0.000258462
0.00010567
4.68916e-05
3.00627e-05
5.2925e-05
0.00174857
0.013533
0.0132702
0.000834311
0.000421423
0.000728
0.0050345
0.0102899
0.0120883
0.0128423
0.0145048
0.0155494
0.0119709
0.00399887
0.000342702
9.5504e-05
6.89994e-05
0.000115988
0.00026079
0.000669145
0.00176088
0.00318143
0.00445763
0.00454169
0.00316365
0.000982843
0.000207433
0.000107924
0.000174051
0.00124214
0.00443292
0.0051793
0.00711802
0.00498282
0.00355455
0.00738748
0.0139105
0.0158936
0.01722
0.0183205
0.0151537
0.00907465
0.00369521
0.000665508
0.000204101
0.000230442
0.000490624
0.000809733
0.000667291
0.000335962
0.000215346
0.000128844
0.000104874
8.43078e-05
7.10354e-05
7.16798e-05
8.63343e-05
0.00015781
0.000455302
0.00386305
0.0109848
0.0157525
0.0136803
0.015545
0.0126981
0.00776659
0.00712407
0.00761762
0.00766843
0.0070143
0.0057699
0.00385454
0.00148703
0.000271984
0.000112563
9.27156e-05
0.000144431
0.000585486
0.00442477
0.0108184
0.0157781
0.015099
0.00852338
0.00212242
0.000262696
0.000140649
0.000169824
0.000519211
0.00439403
0.0125579
0.0183116
0.0098065
1.03007e-05
2.24246e-06
1.87089e-05
0.00509462
0.0208389
0.0302142
0.0317703
0.0295227
0.0261029
0.0227254
0.019919
0.0175994
0.0156989
0.0141541
0.0136099
0.0145223
0.0168458
0.0198074
0.0229167
0.0256914
0.0283483
0.0320688
0.0354555
0.0310098
0.0118042
0.00340933
0.00527837
0.00907001
0.00799649
0.000155426
3.5349e-06
0.000701043
0.000354109
0.000808148
0.0026464
0.00372396
0.00204861
0.000749544
0.00049558
0.000777375
0.00165766
0.00259822
0.00349993
0.00321447
0.00107893
0.000112022
0.000364899
0.000676616
0.000843298
0.000901064
0.00101332
0.00113583
0.00100226
0.000560393
0.000235391
0.000128771
0.000123739
0.000232681
0.000526753
0.000789331
0.000809882
0.000649189
0.000538184
0.000577591
0.000842618
0.00136121
0.00181251
0.00170091
0.00100467
0.000467409
0.000296255
0.00029638
0.000309241
0.000167493
8.43118e-05
0.00151534
0.00183134
0.00244905
0.00316631
0.0038458
0.00488558
0.00579052
0.00655697
0.00711182
0.00764474
0.00765179
0.00760018
0.00703964
0.00600493
0.00338739
0.00104516
0.00062579
0.00082452
0.00121595
0.0019534
0.00214832
0.00189173
0.00119901
0.00075743
0.000658735
0.000869352
0.000936169
0.000581769
0.00065686
0.00107607
0.00582245
0.00322175
0.00311135
0.00365007
0.00397203
0.00310772
0.0015905
0.000604148
0.000412059
0.000480309
0.00100514
0.00217268
0.00270054
0.00287268
0.00244509
0.00132928
0.000939341
0.000535132
0.00051894
0.00043453
0.000359957
0.000259251
0.00023243
0.000250473
0.000432097
0.00100355
0.00203538
0.00204528
0.00118455
0.00104184
0.00562207
0.00609195
0.00695108
0.00678759
0.00489023
0.00229182
0.000816703
0.00064771
0.000931845
0.00175812
0.00280061
0.00342422
0.00352591
0.00335593
0.00313976
0.00310604
0.00324265
0.00327017
0.00317646
0.00258265
0.0016659
0.00118585
0.00141249
0.00171664
0.00118682
0.000606095
0.000744918
0.00198327
0.00296698
0.00180727
0.00266382
0.00389495
0.0058138
0.00772327
0.00901209
0.0090514
0.00861739
0.0082735
0.00792688
0.00774443
0.0076915
0.00768255
0.0075686
0.00765131
0.00803747
0.00831735
0.00849359
0.00863756
0.00880706
0.00869173
0.00834869
0.00801698
0.00792283
0.00835305
0.0094372
0.0102525
0.00984917
0.00841546
0.00608253
0.00320632
0.00508021
0.00702214
0.00426301
0.00122332
0.00277025
0.00827053
0.0120511
0.0127956
0.0126469
0.0125871
0.0120676
0.00944869
0.00438051
0.00035247
6.19666e-05
4.00572e-05
7.28999e-05
0.000289569
0.000703026
0.000452811
0.000222248
0.000156524
0.000140958
0.000143235
0.000152042
0.000153599
0.000130611
0.000114896
0.000175526
0.000467945
0.00469706
0.0106468
0.0135482
0.0173661
0.0201178
0.0213063
0.021519
0.0208424
0.0193439
0.0168296
0.0132595
0.0087026
0.0046136
0.00273303
0.00207555
0.00134134
0.00124436
0.0043453
0.0101933
0.0148115
0.0171816
0.0186773
0.019807
0.020253
0.0170435
0.0100421
0.00467133
0.000931854
0.000234936
0.00108152
0.0121344
0.0159487
0.0181284
0.0212406
0.0220068
0.019797
0.016371
0.011892
0.00825833
0.00665075
0.00623063
0.00528052
0.0029794
0.00208239
0.0018134
0.0016489
0.00144625
0.00118285
0.00102113
0.000838778
0.000686953
0.000504318
0.000274891
0.000125526
5.48054e-05
3.26179e-05
4.001e-05
0.000488812
0.0125112
0.0124155
0.000709637
0.000477628
0.00217655
0.00765981
0.011358
0.0128587
0.0143416
0.0154682
0.0142816
0.00807969
0.00120341
0.000146764
5.86225e-05
8.22976e-05
0.000218952
0.000655935
0.00108123
0.00184843
0.0029092
0.0040328
0.00437594
0.00367907
0.00172217
0.000318031
0.000114477
0.000139156
0.000611776
0.00293827
0.00398747
0.00644396
0.00451668
0.00403825
0.0103384
0.0158227
0.0181732
0.0198672
0.0188792
0.0129767
0.00648003
0.00162158
0.000276852
0.000196215
0.000453675
0.00166336
0.00148144
0.000440783
0.000192853
7.1007e-05
5.98348e-05
5.28243e-05
5.09783e-05
5.40229e-05
5.68986e-05
7.23391e-05
0.000122434
0.000336854
0.00332801
0.0107656
0.0156953
0.0135016
0.0153175
0.0111251
0.00792844
0.00868242
0.00982141
0.0102077
0.0100118
0.00952188
0.00857213
0.00657408
0.00300944
0.000367714
0.000112445
0.000115955
0.000216409
0.00093567
0.00633958
0.0147863
0.0183899
0.0140722
0.00694136
0.00187158
0.000505253
0.000502375
0.00217381
0.00740034
0.015432
0.018944
0.00782538
6.38261e-06
2.377e-06
3.00467e-05
0.00743076
0.023216
0.0308336
0.0313457
0.0281341
0.0241235
0.0204042
0.0170813
0.0140413
0.0110181
0.00890511
0.00788842
0.00859413
0.0113299
0.0155664
0.0201306
0.0240778
0.0265246
0.0290394
0.0337038
0.0361507
0.0180858
0.00283479
0.00322336
0.00623441
0.0035573
4.21565e-05
3.29573e-06
0.00062606
0.000353295
0.00122111
0.00444069
0.00577671
0.00315145
0.00100357
0.000599533
0.000729825
0.0013447
0.00225246
0.00321955
0.00295844
0.00121641
0.000128294
0.000507667
0.000851733
0.00100126
0.00119035
0.00163702
0.00204218
0.00200086
0.00118115
0.000442585
0.00017286