/*--------------------------------*- C++ -*----------------------------------*\
| =========                 |                                                 |
| \\      /  F ield         | OpenFOAM: The Open Source CFD Toolbox           |
|  \\    /   O peration     | Version:  2.1.1                                 |
|   \\  /    A nd           | Web:      www.OpenFOAM.org                      |
|    \\/     M anipulation  |                                                 |
\*---------------------------------------------------------------------------*/
FoamFile
{
    version     2.0;
    format      ascii;
    class       volScalarField;
    location    "0.004500000";
    object      O;
}
// * * * * * * * * * * * * * * * * * * * * * * * * * * * * * * * * * * * * * //

dimensions      [0 0 0 0 0 0 0];

internalField   nonuniform List<scalar> 
12384
(
0.000509878
0.000476648
0.00044989
0.000422804
0.000418322
0.000443379
0.00044273
0.000503907
0.000554384
0.000645236
0.000764032
0.0011769
0.00171599
0.000331946
0.000250929
0.000350142
0.000294552
0.000256575
0.000217825
0.000209619
0.000193046
0.000191347
0.000186801
0.00018868
0.000193854
0.00019548
0.000198774
0.000199147
0.000200833
0.000194932
0.000201089
0.000197337
0.000203438
0.000209696
0.000219369
0.000229302
0.000253719
0.000293841
0.000441519
0.000363823
0.000138964
0.000132641
0.00021393
0.00028979
0.000204577
8.8168e-05
7.02263e-05
6.99631e-05
8.43053e-05
9.1916e-05
0.000117414
0.000130403
0.000150419
0.000177393
0.00019846
0.000236054
0.000256545
0.000290107
0.000287411
0.000329825
0.000310626
0.000345424
0.000340211
0.0003602
0.000355822
0.000372686
0.000380768
0.000387582
0.000448701
0.000555878
0.000496107
0.000499565
0.000480841
0.000319498
0.000130679
6.11008e-05
8.83546e-05
7.28117e-05
0.0001061
0.000130326
0.000138236
0.000147621
0.000158127
0.000126906
0.000164648
9.49175e-05
0.000148183
8.41233e-05
0.000122736
8.72487e-05
9.97913e-05
8.78759e-05
0.000105492
0.000110258
0.000107595
0.000110907
0.000108333
9.02233e-05
7.41954e-05
0.000187076
0.000215879
0.000213292
0.000218532
0.000218192
0.00021563
0.000127387
4.65741e-05
2.80496e-05
2.24639e-05
2.33427e-05
2.60814e-05
2.54777e-05
2.81243e-05
2.62584e-05
3.41397e-05
3.32469e-05
3.96806e-05
3.87819e-05
3.20549e-05
3.39296e-05
2.84559e-05
2.99656e-05
2.60853e-05
2.8214e-05
2.85769e-05
4.10473e-05
0.000124769
0.000257623
0.00033512
0.000384089
0.000399839
0.000414373
0.000427444
0.000428636
0.000166901
2.07614e-05
2.20944e-05
6.79662e-05
0.000106957
0.000110747
8.22612e-05
6.48581e-05
4.63006e-05
4.20288e-05
3.09065e-05
2.57618e-05
1.75591e-05
1.74114e-05
1.44483e-05
1.38318e-05
1.02278e-05
1.39329e-05
1.13935e-05
1.36747e-05
1.3223e-05
1.37895e-05
1.50717e-05
1.6771e-05
1.98305e-05
2.61609e-05
4.0513e-05
6.36144e-05
0.00011057
0.00018692
0.00014902
0.000124252
3.38388e-05
6.28851e-06
3.50584e-06
6.49809e-06
1.47177e-05
3.53565e-05
7.78279e-05
9.15999e-05
9.32232e-05
9.08582e-05
9.19254e-05
0.000100913
0.000110279
0.000123788
0.00014023
0.000153262
0.000164265
0.000171681
0.000177187
0.000178424
0.000179148
0.000181816
0.000187889
0.00019126
0.000194642
0.000191452
0.000110635
0.000170348
0.000170253
0.000219125
3.74906e-05
1.02522e-05
1.04861e-05
1.20737e-05
1.15719e-05
1.28556e-05
1.34459e-05
1.03081e-05
1.27597e-05
1.45829e-05
1.5746e-05
1.55776e-05
1.31216e-05
1.25638e-05
1.20476e-05
1.15422e-05
2.13871e-05
2.16647e-05
2.44431e-05
2.44445e-05
3.1101e-05
3.20044e-05
3.81641e-05
2.70219e-05
4.21092e-05
7.92389e-05
0.000114462
7.02699e-05
8.40047e-05
0.000153205
3.06997e-06
1.97263e-06
1.78728e-06
3.61137e-06
4.79064e-06
2.6936e-06
3.68897e-06
4.40883e-06
4.86193e-06
2.56619e-06
5.8187e-06
4.85319e-06
3.94928e-06
2.64066e-06
1.40496e-06
9.98079e-07
1.0282e-06
8.56755e-07
6.20117e-07
5.6913e-07
3.21494e-07
3.16442e-07
3.04851e-07
2.71694e-07
2.51877e-07
2.47553e-07
2.4593e-07
2.99028e-06
0.000304092
0.000328046
0.000247687
0.000295058
0.000290202
0.000261191
0.000149067
0.000107872
5.39491e-05
2.92059e-05
1.83284e-05
1.50178e-05
1.33411e-05
5.94895e-06
3.61924e-06
4.06904e-06
4.76655e-06
4.7382e-06
5.65107e-06
3.89584e-06
2.61959e-06
4.59492e-06
5.11089e-06
4.56501e-06
5.23051e-06
5.36339e-06
1.06263e-05
1.15667e-05
1.4498e-05
1.64417e-05
0.000178728
1.27428e-05
1.01077e-05
7.86037e-06
5.72192e-06
3.56469e-06
3.5942e-06
3.6169e-06
5.86713e-06
6.9238e-06
9.55818e-06
4.2322e-06
6.4483e-06
7.70674e-06
6.88161e-06
6.51717e-06
7.40966e-06
8.26079e-06
8.22517e-06
1.0531e-05
9.87178e-06
8.99908e-06
1.46167e-05
9.17293e-06
9.32479e-06
2.41489e-06
8.98556e-07
5.43744e-07
4.885e-06
1.99219e-05
5.18724e-05
1.5057e-05
9.36638e-07
8.17101e-07
1.29832e-06
1.96593e-06
3.14707e-06
4.7101e-06
5.06009e-06
6.19761e-06
5.44162e-06
4.9964e-06
4.84439e-06
6.13371e-06
6.16911e-06
6.63379e-06
6.72496e-06
7.22062e-06
7.56421e-06
8.0654e-06
9.11917e-06
2.64377e-06
6.90374e-07
1.31751e-06
8.04249e-06
3.51424e-06
5.87871e-07
0.000186376
2.56246e-05
2.95384e-05
8.38788e-06
9.237e-06
1.39122e-05
3.77833e-05
0.000163796
2.43715e-06
1.02607e-06
5.81413e-07
5.14923e-07
3.05304e-07
2.17333e-07
1.70121e-07
3.28014e-07
2.68317e-07
2.49619e-07
2.46878e-07
3.05523e-07
1.33335e-07
3.66594e-07
4.03412e-07
4.93018e-07
1.31848e-06
2.52096e-06
4.10292e-06
1.60562e-05
0.000169609
0.000104272
3.01914e-05
1.85727e-05
2.81944e-05
0.00032855
0.000385728
0.00050035
0.000546494
0.000563395
0.000536042
0.000475858
0.000436812
0.000458899
0.000541853
0.000667248
0.000989043
0.00165089
0.000552933
0.000246013
0.000309352
0.000212098
0.000189194
0.0001819
0.000190666
0.000200256
0.000227383
0.000241752
0.000247461
0.000255479
0.000255742
0.000260454
0.000258525
0.00025435
0.000255922
0.000255408
0.000265257
0.000272881
0.000271353
0.000279463
0.000269739
0.000272245
0.000285633
0.000373545
0.000440786
0.00032182
0.000221342
0.000172981
0.000221728
0.00018658
6.39138e-05
7.05631e-05
9.71356e-05
0.000135705
0.000184892
0.000236133
0.000255091
0.000266886
0.000275866
0.000280441
0.000284335
0.000280423
0.000255575
0.00022158
0.000220703
0.000231734
0.00024405
0.000260993
0.000286575
0.000320655
0.000358645
0.000383156
0.000403539
0.000435616
0.000504467
0.000552501
0.000555268
0.00056537
0.000430402
0.000105595
7.94233e-05
0.000125423
0.000177505
0.000211384
0.000217209
0.000221062
0.000206912
0.000205676
0.000209867
0.000194216
0.000189577
0.000182825
0.000180726
0.000174901
0.000178571
0.000175127
0.000173334
0.000168969
0.000161239
0.000151875
0.000133026
0.000127602
0.000108351
8.61599e-05
0.000115569
0.000188189
0.000206966
0.00019631
0.000198698
0.000224538
0.000130376
3.32221e-05
2.38717e-05
2.59486e-05
2.56121e-05
7.60932e-05
0.000125424
0.00018147
0.000206927
0.00021402
0.000219487
0.000209121
0.000198402
0.000198913
0.000188458
0.000183242
0.000138905
8.43255e-05
4.73622e-05
2.09994e-05
2.6267e-05
4.40496e-05
0.000143731
0.000260673
0.00034516
0.000394237
0.000429976
0.000438032
0.000440754
0.000111103
2.52063e-05
5.46528e-05
0.000135657
6.76661e-05
4.60692e-05
2.5981e-05
1.30695e-05
2.48845e-05
2.00599e-05
1.68655e-05
1.79013e-05
1.87381e-05
1.4981e-05
1.75942e-05
1.16584e-05
1.15626e-05
8.80419e-06
8.58208e-06
7.61756e-06
7.58853e-06
7.66986e-06
8.19619e-06
8.89202e-06
1.01784e-05
1.62007e-05
2.64053e-05
4.42475e-05
7.73754e-05
0.000126854
0.00013811
8.67658e-05
1.03125e-05
3.74196e-06
7.85411e-06
3.27913e-05
0.000113214
0.000140439
9.07126e-05
2.50803e-05
2.42127e-05
3.00529e-05
6.45829e-05
0.000113735
0.000161815
0.000170791
0.000170972
0.000170487
0.000170776
0.000171569
0.000173143
0.000174735
0.000175786
0.000183964
0.000193276
0.000198659
0.000201875
0.000198726
0.000146866
0.000162185
0.000219715
0.00016943
2.12899e-05
9.67732e-06
1.0627e-05
1.11908e-05
1.02336e-05
1.09868e-05
9.38951e-06
1.51666e-05
2.08249e-05
2.49876e-05
2.82424e-05
3.09518e-05
3.39989e-05
3.43588e-05
3.71457e-05
3.7245e-05
4.05685e-05
4.15146e-05
4.3342e-05
4.57518e-05
4.38351e-05
5.05447e-05
5.54379e-05
5.7732e-05
7.9809e-05
7.5354e-05
0.00014605
0.000100441
0.00022765
1.9915e-05
2.27257e-06
3.421e-06
6.98972e-06
3.47538e-06
9.68015e-06
1.13303e-05
8.7132e-06
9.03868e-06
3.15301e-06
1.01659e-05
6.95002e-06
4.69504e-06
3.67053e-06
2.25864e-06
3.87105e-06
2.91179e-06
2.14239e-06
1.70414e-06
1.45803e-06
1.00938e-06
1.03932e-06
9.89003e-07
9.33308e-07
6.80489e-07
5.66568e-07
3.44747e-07
2.62877e-07
1.5157e-06
0.000404529
0.000296229
0.000346147
0.000375022
0.000313465
0.000191045
4.02455e-05
9.82438e-06
6.82325e-06
5.83843e-06
6.75926e-06
9.62062e-06
8.37441e-06
1.42168e-05
1.59515e-05
1.06986e-05
2.19802e-05
2.31647e-05
2.35513e-05
2.34582e-05
2.2493e-05
1.84768e-05
1.14351e-05
7.97141e-06
5.58841e-06
4.18948e-06
7.54972e-06
1.23534e-05
1.47491e-05
1.62142e-05
6.97515e-05
1.59475e-05
1.74995e-05
1.20376e-05
5.85157e-06
3.60147e-06
4.49379e-06
6.42057e-06
1.31186e-05
1.05179e-05
1.3275e-05
1.76659e-05
7.72732e-06
1.75384e-05
2.41696e-05
2.79239e-05
4.24371e-05
6.40168e-05
7.32794e-05
8.50467e-05
7.66303e-05
6.75042e-05
4.86973e-05
3.92315e-05
2.13195e-05
7.45463e-06
2.66486e-06
1.601e-06
4.61786e-06
8.92207e-06
2.94089e-05
1.77722e-06
1.05458e-06
1.5457e-06
4.19685e-06
9.29051e-06
9.30521e-06
1.23574e-05
1.06299e-05
1.1011e-05
6.59635e-06
5.14169e-06
6.3743e-06
5.59934e-06
4.91671e-06
3.8649e-06
6.68614e-06
7.87252e-06
1.22401e-05
1.86331e-05
2.30064e-05
3.93802e-05
3.67271e-05
1.6727e-05
1.52482e-05
6.31503e-06
1.40906e-06
3.08959e-06
0.000177541
2.94684e-05
7.72974e-06
1.1773e-05
2.72855e-05
0.000127952
1.64807e-06
8.46204e-07
4.06709e-07
2.7174e-07
1.65985e-07
1.61014e-07
1.55766e-07
2.38505e-07
2.29419e-07
2.22702e-07
1.77724e-07
1.49294e-07
1.12792e-07
6.95487e-08
2.8668e-08
9.08132e-08
3.64597e-08
1.13528e-07
1.30264e-07
4.0025e-07
9.3508e-07
1.7911e-06
6.19951e-06
0.000155292
2.84049e-05
2.64172e-05
0.000742703
0.000774401
0.000718208
0.000668516
0.000648778
0.000668569
0.000719113
0.000718262
0.000572708
0.000529095
0.00062404
0.000891078
0.00143268
0.000762681
0.000235571
0.000243176
0.000196127
0.000216104
0.000256218
0.000301331
0.000317822
0.000324375
0.000320792
0.000306897
0.000283694
0.000261472
0.000259435
0.000253983
0.000261646
0.000274802
0.000299634
0.000314146
0.000345521
0.000375618
0.000392042
0.000376711
0.000342411
0.000316223
0.000340434
0.000431778
0.000469889
0.000412411
0.000255672
0.000208574
0.000157915
6.13964e-05
0.000107185
0.00014613
0.00021784
0.000236185
0.000236254
0.000229221
0.000236953
0.000238349
0.000153336
8.86398e-05
6.18391e-05
6.47725e-05
7.46691e-05
8.15896e-05
0.000113304
0.000144207
0.000171074
0.00017222
0.000199571
0.000256458
0.000347064
0.000385859
0.000423418
0.000476106
0.000554185
0.000594727
0.000598457
0.000541973
6.04567e-05
9.01206e-05
0.000194302
0.000230288
0.000214989
0.000213455
0.000209561
0.000211597
0.000229123
0.000217378
0.000208191
0.00019212
0.000189377
0.000183478
0.000176312
0.000186868
0.000183541
0.00018755
0.000185899
0.000184993
0.000184423
0.000180021
0.000162195
0.00013297
0.000101896
9.46476e-05
0.000123349
0.000174703
0.000178956
0.000172003
0.00020328
0.000107075
2.25623e-05
1.79241e-05
2.77297e-05
6.56298e-05
0.000153771
0.000241294
0.000264967
0.00027223
0.000273833
0.000263146
0.00026653
0.000253396
0.000253931
0.000230741
0.000219985
0.000194647
0.000180095
0.000125318
3.52999e-05
2.1043e-05
2.57519e-05
4.66574e-05
0.000161527
0.000284709
0.000348258
0.000384493
0.000420763
0.00044738
9.08693e-05
5.69184e-05
0.000112179
6.54427e-05
3.13644e-05
9.57842e-06
2.32755e-05
2.17206e-05
2.04804e-05
2.03987e-05
2.54242e-05
2.86985e-05
3.47621e-05
2.86195e-05
2.93278e-05
2.09473e-05
2.19838e-05
1.53142e-05
1.46901e-05
1.13001e-05
9.38289e-06
7.14618e-06
6.86375e-06
6.5886e-06
7.2877e-06
9.11271e-06
1.58753e-05
2.7841e-05
4.92046e-05
9.21938e-05
0.000107449
3.7458e-05
7.75263e-06
7.2638e-06
3.06898e-05
0.000123787
0.000115255
2.36987e-05
9.51187e-06
7.73628e-06
1.30155e-05
5.72077e-05
0.000166418
0.00017574
0.000165381
0.00017576
0.000170899
0.000126965
0.0001027
0.000104305
0.00012168
0.000158162
0.000172461
0.0001764
0.000189293
0.000204105
0.000202311
0.000200228
0.000187783
0.00015225
0.000282905
3.42666e-05
1.09136e-05
8.10863e-06
6.80238e-06
5.71774e-06
5.84503e-06
5.37204e-06
7.85909e-06
1.13316e-05
1.14568e-05
2.25884e-05
3.16649e-05
3.76252e-05
4.17218e-05
4.57146e-05
4.43766e-05
4.58099e-05
5.1562e-05
5.65084e-05
6.54782e-05
6.84741e-05
7.53165e-05
8.14282e-05
8.43437e-05
8.95376e-05
0.000103763
0.000193911
0.000242519
9.87118e-05
0.000101353
3.57935e-06
2.94192e-06
5.01971e-06
8.55512e-06
4.24401e-06
5.87709e-06
7.26011e-06
7.24361e-06
8.70238e-06
8.05916e-06
5.78132e-06
5.7364e-06
7.02384e-06
7.35332e-06
8.60437e-06
7.18944e-06
6.14203e-06
4.92839e-06
4.57628e-06
3.54497e-06
2.46051e-06
6.15516e-06
8.05986e-06
8.99154e-06
8.42457e-06
3.30551e-06
8.89021e-07
3.36609e-07
1.35161e-06
0.000370483
0.000363441
0.000418228
0.000364508
0.000204432
2.41616e-05
5.93339e-06
1.86795e-06
4.10791e-06
7.61237e-06
1.07711e-05
1.26226e-05
1.45107e-05
1.77819e-05
7.62747e-06
1.95955e-05
2.53676e-05
3.91712e-05
4.302e-05
8.82717e-05
0.000108931
0.000150373
0.00012777
8.1795e-05
2.41158e-05
6.1982e-06
8.44745e-06
9.17776e-06
1.18838e-05
1.27191e-05
5.50847e-05
2.93604e-05
3.67365e-05
1.33889e-05
5.50096e-06
3.84482e-06
6.66895e-06
7.83647e-06
8.53408e-06
7.71251e-06
5.99723e-06
1.60684e-05
2.35533e-05
2.57721e-05
7.53675e-05
0.000112203
0.00014423
0.000173132
0.000175599
0.000181267
0.000175221
0.000175396
0.000190248
0.000150863
6.88794e-05
7.61376e-06
3.52424e-06
1.35104e-06
1.72451e-06
3.35671e-06
3.26504e-06
1.02066e-06
1.88527e-06
4.9962e-06
9.38979e-06
1.33027e-05
1.81709e-05
2.23167e-05
2.30612e-05
2.29221e-05
1.64212e-05
1.02761e-05
8.38818e-06
2.51921e-06
4.3528e-06
3.88417e-06
3.42925e-06
7.18058e-06
1.48384e-05
4.13842e-05
0.000147911
0.000241502
0.000235503
0.000183537
4.84963e-05
1.54067e-05
3.32401e-06
9.88369e-07
2.28496e-05
3.66429e-05
8.88456e-06
1.72215e-05
6.78128e-05
4.72527e-05
4.23472e-07
2.76762e-07
2.38683e-07
2.07057e-07
1.70506e-07
2.63947e-07
4.3826e-07
2.4512e-07
2.99292e-07
2.92517e-07
2.26829e-07
4.33457e-07
3.30099e-07
5.8543e-08
1.53096e-07
7.5465e-08
1.39951e-08
5.19042e-08
2.14374e-07
7.31828e-07
7.51816e-07
2.56402e-06
7.11226e-07
2.912e-05
7.02848e-05
2.50667e-05
0.000793941
0.00068341
0.000620303
0.000602988
0.000604932
0.00059858
0.000613062
0.00069278
0.000746122
0.000668649
0.000706375
0.000893067
0.00132966
0.000881893
0.0002268
0.000230866
0.000238412
0.000310148
0.00034543
0.000337827
0.000333277
0.000313534
0.00028859
0.000247614
0.000222461
0.000207337
0.000215136
0.000249946
0.000303825
0.000362271
0.000411064
0.00045957
0.000488598
0.000505491
0.000530539
0.000527318
0.000488504
0.000391223
0.000365498
0.00041017
0.000494774
0.000503333
0.000350016
0.000220435
0.000140933
7.21322e-05
0.000120437
0.000154516
0.000203853
0.000207493
0.000208041
0.000166023
7.86079e-05
4.60093e-05
2.67965e-05
2.12227e-05
2.13423e-05
3.45457e-05
6.17132e-05
9.01523e-05
0.00016205
0.000195927
0.000190022
0.00017259
0.000170037
0.000201802
0.000276253
0.00037028
0.000408674
0.000462047
0.000542565
0.000641888
0.000641674
0.000596011
5.88348e-05
0.00012124
0.00021413
0.000219726
0.000215065
0.000213233
0.000217042
0.000234758
0.000231753
0.000207947
0.000204237
0.000163713
0.000161156
0.000126696
0.000146295
0.00013908
0.000148083
0.000169524
0.000182989
0.000187604
0.000188571
0.000188394
0.000183488
0.000171597
0.000128327
9.76227e-05
0.000100241
0.000130639
0.000165332
0.000163393
0.000179142
3.04736e-05
1.33547e-05
1.21726e-05
2.58624e-05
8.1295e-05
0.000191694
0.000271413
0.000301253
0.0003263
0.000342584
0.000339297
0.000331268
0.000307021
0.000291407
0.00028341
0.000273117
0.000247809
0.000210663
0.000161804
8.80407e-05
2.63901e-05
1.73842e-05
2.96448e-05
9.82354e-05
0.000235217
0.000325061
0.000321617
0.000347009
0.000430904
7.72022e-05
6.4781e-05
5.49207e-05
3.4674e-05
9.85995e-06
2.2304e-05
2.11629e-05
1.74032e-05
2.21564e-05
3.44142e-05
3.8528e-05
2.87371e-05
4.13733e-05
2.92681e-05
3.06563e-05
2.28455e-05
2.1538e-05
1.76686e-05
1.72943e-05
1.5237e-05
1.34224e-05
1.10342e-05
8.47799e-06
5.11568e-06
5.64144e-06
6.64315e-06
9.29978e-06
1.89253e-05
2.97179e-05
7.12498e-05
6.85368e-05
2.17565e-05
7.48714e-06
1.72291e-05
0.000106603
0.00011333
2.08138e-05
5.17468e-06
4.72054e-06
6.83425e-06
2.11955e-05
0.000101826
0.000181083
0.000152533
0.000146441
0.000173928
0.000134876
6.13496e-05
3.7255e-05
3.66758e-05
5.89749e-05
0.00010334
0.000162223
0.000175572
0.000179188
0.000189489
0.000186942
0.000182371
0.000196757
0.000153927
0.000186772
2.08906e-05
7.16803e-06
6.98102e-06
4.58431e-06
2.13463e-06
3.0534e-06
3.25831e-06
3.67049e-06
6.43421e-06
1.05483e-05
1.85958e-05
3.32284e-05
4.23773e-05
4.75151e-05
4.66862e-05
5.32983e-05
6.7887e-05
7.9607e-05
8.10563e-05
6.96134e-05
6.19794e-05
5.91858e-05
7.29857e-05
8.39391e-05
9.92349e-05
0.000127689
0.000262264
0.000343063
0.000174361
1.72864e-05
3.38616e-06
3.8506e-06
3.30203e-06
4.07483e-06
3.98441e-06
5.3141e-06
6.63936e-06
6.76905e-06
7.31541e-06
7.24117e-06
1.01394e-05
1.59341e-05
3.11057e-05
4.01212e-05
5.23117e-05
5.03458e-05
3.78817e-05
2.57228e-05
1.91704e-05
2.00751e-05
2.40882e-05
6.34667e-05
0.000137078
0.000182662
0.000178452
5.24979e-05
3.30242e-06
5.15159e-07
1.17318e-06
0.000384637
0.000422684
0.000396425
0.000318136
5.09209e-05
6.38458e-06
1.47782e-06
3.33247e-06
5.49852e-06
5.69345e-06
5.00026e-06
6.39527e-06
1.37035e-05
4.15565e-05
3.69203e-05
2.69554e-05
2.96884e-05
2.41755e-05
2.46558e-05
4.17564e-05
9.24466e-05
0.000164732
0.000175416
0.000171538
0.000168311
4.2319e-05
6.89501e-06
1.15374e-05
1.56827e-05
1.93985e-05
5.07815e-05
5.45104e-05
6.2369e-05
1.11372e-05
4.62757e-06
4.51521e-06
5.58223e-06
4.11979e-06
1.1258e-06
8.15472e-06
1.76011e-05
3.32373e-05
0.000116446
0.000171165
0.000171592
0.00018188
0.000183608
0.000178394
0.000172659
0.000172983
0.000167672
0.000165896
0.000187682
0.00022099
0.000213996
5.88758e-05
1.17245e-05
3.42741e-06
8.46661e-07
4.56293e-06
2.0535e-06
1.39e-06
3.16925e-06
8.86349e-06
6.35693e-06
1.55607e-05
2.55896e-05
3.41633e-05
8.26483e-05
0.000129111
0.000147255
0.000118727
5.49627e-05
1.56246e-05
6.6337e-06
3.47311e-06
1.97436e-06
3.92628e-06
8.52989e-06
1.10454e-05
0.000225951
0.000219736
0.000198792
0.000223514
0.000195905
3.10204e-05
3.42324e-06
1.42419e-06
6.06777e-06
4.79992e-05
1.06279e-05
2.8242e-05
0.000157481
4.46425e-06
1.27989e-07
2.19419e-07
1.96303e-07
2.25337e-07
4.25536e-07
6.12661e-07
8.54927e-07
9.81109e-07
5.42787e-07
4.82663e-07
9.06905e-07
7.27073e-07
4.76309e-07
4.33892e-07
2.53485e-07
1.64597e-07
8.78982e-08
1.34856e-07
1.87303e-07
2.06228e-06
1.05199e-05
1.09975e-05
5.05756e-06
3.318e-06
0.000174173
2.2681e-05
0.000768626
0.000613935
0.000607663
0.000685767
0.000735483
0.000690473
0.000621491
0.000631984
0.000743538
0.00076326
0.000796192
0.000961015
0.001293
0.000945559
0.000217033
0.000244561
0.000290502
0.000324684
0.000315462
0.000304729
0.000309729
0.000287108
0.000263618
0.000226129
0.000207004
0.000218834
0.0002858
0.000409348
0.000550305
0.00062541
0.000670062
0.000672758
0.000675994
0.000681021
0.000690878
0.000670637
0.000651267
0.000517352
0.000417826
0.00040719
0.000478106
0.000522478
0.000412787
0.000232879
0.000126007
8.28732e-05
0.000109713
0.00012651
0.0001423
0.000127046
7.61069e-05
3.87262e-05
2.48984e-05
1.58836e-05
1.60742e-05
1.72723e-05
1.85633e-05
2.57207e-05
5.70042e-05
0.000141557
0.000220817
0.000235238
0.000206487
0.000173237
0.000174443
0.000195743
0.000262128
0.000353894
0.000401894
0.000457445
0.000547316
0.000661866
0.000688405
0.000623694
3.55548e-05
0.000124507
0.000217186
0.000214121
0.000215738
0.000219569
0.000230973
0.000236506
0.000216508
0.000200136
0.000175246
0.00012702
0.000119401
9.57636e-05
0.000113337
9.99914e-05
0.000131634
0.00012577
0.000153281
0.000182174
0.000189876
0.000190831
0.000189757
0.000184895
0.000158391
0.00010991
8.7639e-05
0.000102302
0.000141095
0.000141703
5.57742e-05
1.13462e-05
9.97563e-06
7.58615e-06
2.42934e-05
8.35574e-05
0.000200117
0.000279286
0.000317318
0.00033269
0.000301957
0.00024265
0.000196232
0.000158483
0.000158125
0.000146679
0.000180196
0.000202238
0.000239805
0.000187684
0.000138695
6.32736e-05
2.35543e-05
2.34619e-05
6.70755e-05
0.000198426
0.000316943
0.000296139
0.000276009
0.000385498
6.91295e-05
6.37057e-05
5.30605e-05
2.07709e-05
2.20592e-05
1.85731e-05
1.58127e-05
2.18451e-05
3.1264e-05
3.71388e-05
3.9894e-05
3.74327e-05
2.97164e-05
2.75811e-05
2.7054e-05
1.77434e-05
2.03468e-05
1.58999e-05
1.40724e-05
1.42798e-05
1.49525e-05
1.27565e-05
1.05084e-05
6.44583e-06
5.0064e-06
4.93057e-06
6.87143e-06
1.06009e-05
2.32535e-05
5.48422e-05
2.52599e-05
8.93246e-06
9.41649e-06
5.01536e-05
0.00012594
2.96058e-05
4.80712e-06
3.21528e-06
4.47953e-06
5.99782e-06
8.48895e-06
5.00124e-05
0.000176299
0.000146945
0.000128144
0.000155213
0.0001709
7.74689e-05
4.17959e-05
4.71121e-05
8.99993e-05
0.000146668
0.000175113
0.00017618
0.000164104
0.000159945
0.000153879
0.000154787
0.000181298
0.000162661
9.08955e-05
1.14412e-05
7.20653e-06
3.66849e-06
2.66711e-06
1.90949e-06
1.71303e-06
1.83282e-06
2.29556e-06
3.03089e-06
5.22909e-06
1.44527e-05
3.00259e-05
4.83436e-05
5.97586e-05
7.54763e-05
9.57629e-05
0.000127251
8.83685e-05
3.9714e-05
1.50569e-05
1.05979e-05
8.84105e-06
1.5346e-05
2.52165e-05
6.43647e-05
8.91847e-05
0.000286975
0.000365871
0.000223823
1.8847e-06
2.66104e-06
2.89816e-06
2.49114e-06
1.33885e-06
1.75864e-06
2.90647e-06
4.51041e-06
7.43595e-06
5.33153e-06
1.24175e-05
2.6074e-05
6.1148e-05
0.000113189
0.000203982
0.000236216
0.000227624
0.00019335
0.000148932
0.000109615
9.38774e-05
0.000108104
0.000176602
0.000165755
0.000123609
0.000111287
0.000174139
1.88704e-05
8.85418e-07
1.19828e-06
0.000412277
0.000422318
0.000375997
0.000147238
7.85216e-06
2.99239e-06
2.12934e-06
2.4795e-06
3.07901e-06
3.63429e-06
5.82883e-06
2.22726e-05
0.000192861
0.000180731
0.000168734
0.000170901
0.000114049
3.98096e-05
3.37374e-05
2.78849e-05
4.56343e-05
0.0001086
0.000201151
0.000174418
0.000165255
0.000167059
1.71341e-05
7.11154e-06
6.23718e-06
2.1196e-05
5.36731e-05
8.01359e-05
5.0151e-05
7.1385e-06
4.02484e-06
3.65059e-06
2.51244e-06
1.67556e-06
3.83572e-06
1.75336e-05
5.46457e-05
0.000184767
0.000186771
0.000175457
0.000174389
0.000184152
0.000181966
0.000191879
0.000179687
0.000170333
0.000151948
0.000147248
0.000155807
0.000186693
0.000226716
0.000172972
2.03324e-05
2.42294e-06
1.59347e-06
3.818e-06
1.16735e-06
1.7956e-06
4.09332e-06
1.3976e-05
5.30682e-06
1.62346e-05
2.69836e-05
4.21684e-05
0.00010226
0.000161337
0.00015653
0.000150032
0.000163978
0.000122871
2.15378e-05
5.29579e-06
8.90483e-07
2.37895e-06
4.86904e-06
2.30097e-05
0.000201304
0.000216874
0.000190395
0.000192361
0.000211371
9.63842e-06
4.34326e-06
1.24715e-06
4.88836e-06
4.67917e-05
1.25228e-05
4.6556e-05
7.09656e-05
1.36006e-06
3.05874e-08
1.53563e-07
2.91452e-07
5.15352e-07
8.28081e-07
9.58223e-07
1.68455e-06
2.17603e-06
1.46671e-06
1.81418e-06
1.14432e-06
1.4602e-06
5.84593e-07
6.84185e-07
2.21257e-07
2.6686e-07
1.88895e-07
1.40586e-07
3.55568e-07
5.02122e-06
1.92251e-05
2.41555e-05
7.15724e-06
2.68786e-06
0.000185254
2.42424e-05
0.000767434
0.000578648
0.00068019
0.000813171
0.000819769
0.000813272
0.000685885
0.000634462
0.000726696
0.000836146
0.000912564
0.00101832
0.00130419
0.0009557
0.00022087
0.00026382
0.000298477
0.000294678
0.00029043
0.000284396
0.000280214
0.000286528
0.000275026
0.000240455
0.000217507
0.000251885
0.000400285
0.000592544
0.000712523
0.000729232
0.000750654
0.000751198
0.000772759
0.000776028
0.000771994
0.000754396
0.000727372
0.00064288
0.000502394
0.000437784
0.000481237
0.000531947
0.000410211
0.000234527
0.000119318
8.98901e-05
9.37392e-05
7.81483e-05
6.80409e-05
2.73534e-05
2.70642e-05
1.6959e-05
1.446e-05
1.24141e-05
1.20896e-05
1.33221e-05
1.64656e-05
1.41961e-05
6.23786e-05
0.000187668
0.000270346
0.00023458
0.000203923
0.000168754
0.000156723
0.000184348
0.000258967
0.000350656
0.000390463
0.000463946
0.000562039
0.000626664
0.000679875
0.000633951
4.10619e-05
0.000148514
0.00020331
0.00018709
0.000174997
0.000200247
0.000231526
0.000230079
0.000219218
0.000198131
0.000156408
0.000103528
9.20565e-05
7.11401e-05
9.69815e-05
9.92561e-05
0.000137779
0.000132988
0.000170879
0.000182371
0.000191492
0.000193074
0.000193739
0.000189848
0.000188206
0.000122218
8.56037e-05
8.88671e-05
0.000120045
0.000136333
1.03978e-05
7.1012e-06
9.35775e-06
8.18352e-06
2.03004e-05
7.84446e-05
0.000197201
0.000270038
0.000300301
0.000272857
0.000213485
0.000155003
0.000116777
0.000101074
0.000106526
0.000113556
0.000113408
0.000134861
0.000186692
0.000199536
0.000183443
0.000120043
5.7447e-05
2.7228e-05
8.18836e-05
0.000212057
0.000306281
0.00027933
0.000220475
0.000346449
6.30521e-05
6.21382e-05
3.29792e-05
2.20632e-05
1.42965e-05
1.28935e-05
1.55084e-05
2.18996e-05
2.61572e-05
3.1798e-05
3.10143e-05
2.58655e-05
2.51998e-05
2.36388e-05
1.84676e-05
1.95645e-05
1.58441e-05
1.23462e-05
1.32577e-05
1.37956e-05
1.27453e-05
1.28512e-05
1.04829e-05
7.1966e-06
4.84072e-06
4.01648e-06
5.02735e-06
8.35138e-06
1.70294e-05
4.47028e-05
3.15902e-05
1.16602e-05
1.27499e-05
9.63272e-05
9.58268e-05
1.13228e-05
3.56903e-06
2.49064e-06
3.13448e-06
5.02467e-06
5.50409e-06
1.24755e-05
0.000103377
0.000164646
0.000113016
0.000114741
0.000165328
0.00014777
9.98883e-05
0.000120757
0.000174716
0.000172821
0.000160052
0.000145401
0.000137984
0.000132964
0.000130924
0.00013884
0.00017083
0.000161405
5.06629e-05
9.86013e-06
4.82025e-06
2.71241e-06
1.57295e-06
1.09073e-06
9.99016e-07
1.15445e-06
1.5435e-06
2.43444e-06
4.04835e-06
1.16793e-05
3.08613e-05
5.1977e-05
8.8895e-05
0.000139943
0.000169274
0.000106475
2.24693e-05
4.18802e-06
1.71915e-06
1.06655e-06
7.7446e-07
1.1481e-06
3.95978e-06
2.3592e-05
8.67256e-05
0.000293181
0.00034153
0.000259802
4.77221e-06
1.99565e-06
1.50189e-06
9.14023e-07
5.33808e-07
9.53292e-07
1.85761e-06
3.49265e-06
7.0631e-06
1.3314e-05
2.55685e-05
3.75387e-05
0.000120677
0.000223277
0.000269051
0.000269607
0.000245483
0.000236681
0.000216063
0.000201355
0.000178231
0.000188763
0.000201223
0.000158146
0.000114402
9.10994e-05
0.000119221
8.54586e-05
1.29497e-06
1.41896e-06
0.000424465
0.00040348
0.000303329
2.50253e-05
5.33244e-06
2.27471e-06
9.46803e-08
1.66013e-06
1.81409e-06
3.90514e-06
5.46429e-05
0.00022962
0.000149463
0.000124812
0.000153368
0.000178397
0.000145928
8.58334e-05
3.10029e-05
3.73002e-05
3.70959e-05
4.30062e-05
0.000168451
0.000217311
0.000170425
0.000185141
0.000100699
2.27205e-05
1.96608e-05
2.60143e-05
6.4383e-05
8.9784e-05
2.40583e-05
4.93067e-06
2.66128e-06
1.74329e-06
1.16272e-06
3.05331e-06
7.27664e-06
5.13116e-05
0.000179892
0.000175143
0.000171546
0.00016467
0.000127133
0.000154724
0.000179054
0.000187742
0.00016638
0.000153141
0.000140095
0.00013095
0.000131075
0.000151653
0.000209419
0.00022157
4.24305e-05
5.62914e-06
1.20434e-06
3.37718e-06
1.03657e-06
1.18324e-06
7.70719e-06
1.304e-05
1.23247e-05
1.50163e-05
1.68739e-05
1.14054e-05
3.32619e-05
8.72908e-05
0.000165096
0.000146663
0.000133047
0.0001513
0.000139519
1.78901e-05
4.01188e-06
1.23613e-06
1.90328e-06
5.32275e-06
7.85402e-05
0.000214894
0.000195892
0.000210708
0.000190699
2.68374e-05
1.94426e-06
8.98003e-07
4.56691e-06
4.57564e-05
1.39533e-05
6.8036e-05
1.37614e-05
6.82848e-07
2.11645e-07
1.94911e-07
4.21337e-07
7.40419e-07
1.19147e-06
1.43816e-06
3.66309e-06
4.86309e-06
8.44268e-06
7.81317e-06
6.39222e-06
4.43886e-06
1.2885e-06
9.06198e-07
7.22085e-07
2.10232e-07
2.07603e-07
1.03469e-07
2.20399e-07
3.38953e-06
1.64816e-05
2.75192e-05
6.42138e-06
9.07544e-06
0.000205372
2.26411e-05
0.000743965
0.000566028
0.000754529
0.000775461
0.000700406
0.000827811
0.000758604
0.000647939
0.000751612
0.000914873
0.00103365
0.00113584
0.00125081
0.000972327
0.000227963
0.000273299
0.000274578
0.000257315
0.000242606
0.000222351
0.000213816
0.000232737
0.000282696
0.00027288
0.000242838
0.000269829
0.00042947
0.00063027
0.00072456
0.000749077
0.000710701
0.000678484
0.000703676
0.00079147
0.000804783
0.000779
0.000742652
0.000682157
0.000552864
0.000466918
0.00049631
0.000527288
0.000392689
0.000229092
0.000112108
9.08684e-05
6.83277e-05
3.88492e-05
2.93509e-05
2.16865e-05
1.42063e-05
1.25704e-05
1.06382e-05
9.515e-06
1.03401e-05
1.27054e-05
1.57891e-05
1.69663e-05
6.02547e-05
0.000235893
0.000274116
0.000250088
0.000205238
0.000174326
0.000169153
0.00021377
0.000270674
0.000363261
0.000396932
0.00048184
0.000553348
0.000570807
0.000603743
0.000638064
4.61653e-05
0.000142382
0.000162231
0.000130678
0.000110665
0.000115991
0.000198729
0.000235264
0.000217289
0.000194444
0.000155696
9.15887e-05
7.82463e-05
6.61146e-05
8.93026e-05
0.000124596
0.000171236
0.000196131
0.000213523
0.000201328
0.000204464
0.000195408
0.000192094
0.000193916
0.00019452
0.000133775
8.42639e-05
7.84732e-05
0.00011146
0.000119502
1.27371e-05
7.11794e-06
8.91565e-06
9.22274e-06
1.93744e-05
7.38822e-05
0.000193701
0.000262584
0.000266713
0.000217511
0.00014467
0.000107681
9.57771e-05
0.000112415
0.000135923
0.000141366
0.000152803
0.00014389
0.000163616
0.000186822
0.000216285
0.000173895
0.000139327
0.000104064
0.00013907
0.000238772
0.000317704
0.000256322
0.000192091
0.000307327
6.51766e-05
5.14022e-05
2.03964e-05
1.50276e-05
6.63061e-06
6.89324e-06
1.22413e-05
1.37449e-05
1.98979e-05
2.22132e-05
1.85736e-05
2.00428e-05
2.09586e-05
1.88477e-05
1.92773e-05
1.59382e-05
1.13252e-05
1.25456e-05
1.20212e-05
1.20964e-05
1.31491e-05
1.19399e-05
1.1468e-05
7.83345e-06
4.70359e-06
3.68335e-06
3.98581e-06
6.55209e-06
1.23472e-05
3.6707e-05
2.32624e-05
1.02261e-05
2.26096e-05
0.000101899
4.56533e-05
6.49413e-06
2.99278e-06
2.38389e-06
2.17378e-06
2.81221e-06
3.10014e-06
4.81808e-06
2.18134e-05
0.000176854
0.00011929
9.601e-05
0.000130799
0.000178413
0.000142891
0.000170132
0.000179713
0.000166448
0.000163043
0.000163096
0.000164853
0.000165038
0.000162987
0.000153457
0.000169707
0.000168935
3.2001e-05
6.67317e-06
3.14931e-06
1.62639e-06
6.58829e-07
8.27521e-07
8.22903e-07
8.99262e-07
1.14485e-06
1.81939e-06
3.30448e-06
6.95044e-06
2.9191e-05
7.6384e-05
0.000136809