/*--------------------------------*- C++ -*----------------------------------*\
| =========                 |                                                 |
| \\      /  F ield         | OpenFOAM: The Open Source CFD Toolbox           |
|  \\    /   O peration     | Version:  2.1.1                                 |
|   \\  /    A nd           | Web:      www.OpenFOAM.org                      |
|    \\/     M anipulation  |                                                 |
\*---------------------------------------------------------------------------*/
FoamFile
{
    version     2.0;
    format      ascii;
    class       volScalarField;
    location    "0.004500000";
    object      rho;
}
// * * * * * * * * * * * * * * * * * * * * * * * * * * * * * * * * * * * * * //

dimensions      [1 -3 0 0 0 0 0];

internalField   nonuniform List<scalar> 
12384
(
0.65017
0.650229
0.650396
0.654989
0.653757
0.657897
0.65592
0.661694
0.663182
0.671186
0.674226
0.686989
0.762273
0.859905
0.966904
0.928388
0.915758
0.922418
0.908969
0.915159
0.904905
0.905645
0.897874
0.894874
0.894544
0.888607
0.887585
0.881896
0.877775
0.869567
0.870445
0.864366
0.864301
0.868716
0.865171
0.87337
0.874199
0.871985
0.857538
0.892224
0.963091
0.972618
0.941304
0.917291
0.756198
0.753385
0.752996
0.747234
0.744019
0.737667
0.738479
0.740398
0.734861
0.752717
0.749191
0.776311
0.774625
0.801262
0.798427
0.820527
0.819023
0.829312
0.83548
0.838315
0.836
0.841455
0.844557
0.846673
0.848223
0.831935
0.826644
0.850142
0.912332
0.977639
0.941207
0.928268
0.924342
0.916576
0.916501
0.897804
0.895732
0.878863
0.87372
0.823848
0.850106
0.767837
0.808306
0.72347
0.769909
0.710881
0.74466
0.72029
0.734975
0.744288
0.744504
0.748784
0.75038
0.747659
0.74826
0.776906
0.787263
0.782125
0.78565
0.785411
0.856821
0.82919
0.808319
0.799978
0.798063
0.795051
0.789601
0.780428
0.769209
0.754004
0.747215
0.731116
0.724984
0.705584
0.717995
0.707707
0.725632
0.704423
0.751324
0.725339
0.789578
0.824616
0.864781
0.906634
0.916075
0.943472
0.991805
1.00686
1.0066
1.00822
0.980466
0.891067
0.883328
0.895935
0.899863
0.900515
0.899631
0.884168
0.865836
0.866954
0.8469
0.81362
0.819522
0.766484
0.78336
0.722439
0.745891
0.693901
0.718001
0.68657
0.703738
0.701259
0.708264
0.710414
0.714273
0.715383
0.7131
0.710354
0.717694
0.754719
0.911527
0.888547
0.848666
0.787312
0.789382
0.763672
0.798385
0.807381
0.829769
0.857419
0.859896
0.859341
0.872715
0.88185
0.883705
0.89375
0.901386
0.905078
0.907872
0.907927
0.909091
0.906871
0.910334
0.911833
0.919474
0.925117
0.931107
0.92563
0.89117
0.934162
1.14499
1.06414
0.875386
0.82828
0.799377
0.810687
0.786056
0.795705
0.798383
0.805303
0.809529
0.812648
0.814326
0.81271
0.82
0.814333
0.829054
0.822129
0.843525
0.835826
0.868765
0.859038
0.891682
0.88895
0.898713
0.899363
0.896746
0.890175
0.880406
0.869362
1.19311
1.10757
0.888859
0.888225
0.891193
0.881824
0.885421
0.880239
0.882622
0.88195
0.88813
0.891424
0.893069
0.886341
0.870657
0.847252
0.821131
0.793168
0.772646
0.762446
0.743078
0.749257
0.729701
0.738605
0.726651
0.730181
0.719555
0.717066
0.701027
0.720147
1.02699
0.908709
0.921557
0.91694
0.955041
0.943271
0.96024
0.95633
0.958771
0.955584
0.954508
0.948819
0.942295
0.926722
0.919841
0.899441
0.903336
0.869653
0.877681
0.834279
0.846458
0.811723
0.825768
0.807276
0.813827
0.813732
0.814397
0.805068
0.792951
0.78718
1.10545
0.989935
0.98143
0.961564
0.948478
0.918313
0.929345
0.907086
0.920817
0.909139
0.911762
0.877492
0.859577
0.833041
0.81526
0.771857
0.752051
0.764878
0.754012
0.72687
0.817289
0.787879
0.86355
0.861791
0.876398
0.875936
0.881911
0.895559
0.912886
0.921225
1.2295
0.957795
0.873252
0.873241
0.881101
0.897657
0.909289
0.91794
0.918299
0.923752
0.915004
0.917715
0.914912
0.917877
0.916108
0.922015
0.923197
0.926578
0.925803
0.925424
0.919779
0.915006
0.90915
0.910984
0.908629
0.891205
0.879205
1.00002
1.30402
1.28027
1.30572
1.28341
1.27484
1.19757
1.00496
0.901397
0.868105
0.854454
0.844435
0.835731
0.827722
0.822423
0.817987
0.816215
0.815164
0.817153
0.820405
0.824999
0.831641
0.841556
0.853884
0.868838
0.876486
0.89166
0.905887
0.958756
1.09743
1.26008
1.31054
1.27045
0.659303
0.671321
0.683455
0.694546
0.695588
0.694508
0.682342
0.674102
0.667218
0.67059
0.674305
0.683857
0.72716
0.83391
0.964692
0.932297
0.93272
0.942068
0.927766
0.925567
0.907867
0.901829
0.88859
0.884117
0.88199
0.880188
0.879035
0.874179
0.873683
0.865847
0.859598
0.858104
0.853044
0.848917
0.854551
0.858384
0.864566
0.868329
0.860742
0.863976
0.897582
0.927408
0.949235
0.939408
0.752721
0.753066
0.754264
0.749399
0.746839
0.750975
0.75678
0.766227
0.776
0.790359
0.792985
0.803246
0.793039
0.801234
0.796544
0.805741
0.812666
0.817017
0.820649
0.82915
0.836792
0.843913
0.854011
0.856529
0.85371
0.843736
0.831903
0.824711
0.846235
0.939607
0.937572
0.923899
0.926594
0.925739
0.919799
0.913962
0.912137
0.879043
0.886411
0.847057
0.851523
0.793224
0.820528
0.745689
0.785919
0.731095
0.759014
0.745016
0.749643
0.741794
0.748525
0.745001
0.747204
0.748074
0.746945
0.756897
0.77767
0.776977
0.77206
0.774214
0.860563
0.824768
0.800034
0.791349
0.792817
0.795299
0.79943
0.79969
0.802392
0.801345
0.801259
0.791822
0.786209
0.766347
0.771412
0.765789
0.744832
0.739818
0.749569
0.728575
0.778039
0.80372
0.83366
0.871977
0.901023
0.928938
0.950814
0.985448
0.984442
0.988707
0.949367
0.891977
0.901915
0.917039
0.918393
0.910415
0.889935
0.881073
0.874284
0.838787
0.827229
0.798079
0.786245
0.736773
0.75107
0.692913
0.708741
0.671512
0.681952
0.668603
0.673246
0.685337
0.691566
0.701697
0.70742
0.712476
0.713946
0.710682
0.711281
0.722661
0.908775
0.875208
0.829787
0.793249
0.804937
0.80392
0.844239
0.850778
0.853319
0.830986
0.829429
0.846857
0.854715
0.874386
0.901761
0.909457
0.911424
0.910962
0.908775
0.908699
0.91014
0.915623
0.918828
0.924641
0.931059
0.935475
0.942076
0.941519
0.90528
0.919667
1.08792
0.927992
0.856271
0.826792
0.798957
0.799258
0.785239
0.789126
0.797031
0.804858
0.812018
0.815624
0.817499
0.818946
0.821637
0.822351
0.821761
0.82913
0.827187
0.829002
0.842361
0.853189
0.857283
0.878184
0.883928
0.886935
0.889507
0.887707
0.88417
0.871507
1.04222
0.906365
0.890611
0.891768
0.896319
0.893804
0.887376
0.885206
0.882332
0.883032
0.885458
0.887118
0.886899
0.88062
0.865945
0.844527
0.820196
0.795596
0.772293
0.763097
0.748998
0.749052
0.735349
0.74423
0.734367
0.738356
0.725599
0.724192
0.708786
0.723626
0.957355
0.903665
0.940772
0.940428
0.966826
0.945514
0.949051
0.942243
0.944136
0.948955
0.952138
0.946983
0.936717
0.922986
0.914204
0.900633
0.89695
0.888543
0.876959
0.857827
0.850827
0.84078
0.823417
0.82665
0.819248
0.818856
0.816319
0.82531
0.819097
0.812536
1.0653
0.993626
0.989781
0.96884
0.954631
0.919457
0.931262
0.912724
0.925907
0.913918
0.895296
0.885547
0.854858
0.819762
0.835369
0.75946
0.795137
0.751708
0.774303
0.760196
0.811511
0.808664
0.86339
0.872932
0.893275
0.88496
0.879999
0.887059
0.894766
0.902193
0.965421
0.894035
0.868766
0.885228
0.909168
0.928625
0.937018
0.938827
0.93992
0.934313
0.92802
0.924219
0.919377
0.910209
0.911074
0.907947
0.912911
0.915352
0.920376
0.921681
0.925378
0.918008
0.918771
0.910375
0.908668
0.89774
0.878772
0.895994
1.03258
1.28138
1.30408
1.27802
1.22289
1.04995
0.908626
0.86152
0.83828
0.824561
0.815603
0.807865
0.802048
0.796873
0.793781
0.792552
0.79322
0.792126
0.791405
0.789762
0.788232
0.787145
0.789409
0.795902
0.805203
0.820768
0.833162
0.850222
0.90472
1.05061
1.27797
1.27702
0.70321
0.722611
0.742751
0.756758
0.75818
0.757219
0.7422
0.716958
0.69089
0.67876
0.678397
0.684465
0.712628
0.808384
0.968653
0.940434
0.953153
0.932056
0.915725
0.886205
0.875494
0.866932
0.87235
0.8765
0.88593
0.890186
0.89393
0.888397
0.879828
0.866182
0.857584
0.842686
0.834245
0.832871
0.829186
0.83488
0.842658
0.855489
0.857474
0.853945
0.859385
0.876545
0.917159
0.940191
0.745645
0.748962
0.750952
0.748625
0.7615
0.777805
0.79044
0.801855
0.792494
0.783367
0.753161
0.762437
0.753576
0.772645
0.771166
0.789455
0.79021
0.803413
0.802302
0.804594
0.806272
0.820412
0.841002
0.861602
0.860102
0.851142
0.838744
0.827712
0.832425
0.901288
0.929279
0.924276
0.935548
0.929618
0.925193
0.921921
0.908351
0.886085
0.904071
0.853935
0.86085
0.804702
0.81896
0.755579
0.785205
0.734333
0.762558
0.741418
0.744179
0.753074
0.747484
0.750594
0.748073
0.746379
0.745852
0.748359
0.760495
0.773248
0.769047
0.764232
0.864318
0.809771
0.784181
0.783544
0.78937
0.798386
0.811222
0.831038
0.843914
0.84441
0.840038
0.827574
0.822751
0.797713
0.801251
0.784415
0.788029
0.756945
0.780286
0.738321
0.779476
0.783083
0.812467
0.837675
0.873515
0.912447
0.933363
0.958849
0.972477
0.984014
0.931986
0.897246
0.916942
0.921483
0.914338
0.894673
0.879428
0.868354
0.844294
0.812686
0.80932
0.764237
0.773264
0.722269
0.727369
0.676064
0.693913
0.644411
0.660677
0.64824
0.655066
0.658387
0.672824
0.686998
0.699295
0.705362
0.709645
0.709864
0.706717
0.712838
0.897427
0.855527
0.816862
0.809745
0.831596
0.853471
0.852393
0.813423
0.799558
0.795418
0.803956
0.838942
0.887449
0.927882
0.947274
0.938012
0.902798
0.878587
0.868737
0.866158
0.873321
0.886422
0.903181
0.918134
0.92967
0.942816
0.951074
0.96016
0.923076
0.912602
1.00049
0.886112
0.841156
0.81966
0.791158
0.780199
0.77209
0.776012
0.784913
0.796573
0.804931
0.81094
0.814008
0.811936
0.810174
0.806717
0.801879
0.797626
0.804336
0.797809
0.810419
0.81907
0.838482
0.841362
0.857434
0.864735
0.87279
0.884157
0.886395
0.869512
0.92569
0.892711
0.889639
0.896748
0.895363
0.892569
0.887154
0.880251
0.876608
0.873545
0.875693
0.877228
0.878608
0.874654
0.863265
0.845808
0.823523
0.80046
0.778128
0.771911
0.759151
0.757981
0.751308
0.76008
0.755474
0.755494
0.742523
0.726476
0.711485
0.716757
0.929864
0.918863
0.975553
0.963179
0.959838
0.927112
0.934863
0.93058
0.942134
0.947916
0.941201
0.930755
0.919533
0.905975
0.895056
0.884829
0.875388
0.867243
0.86385
0.852057
0.869478
0.857443
0.862441
0.842998
0.837463
0.823777
0.829639
0.816497
0.814497
0.802743
1.0442
0.997186
1.0032
0.970743
0.957018
0.920898
0.93088
0.91556
0.92009
0.890506
0.894381
0.868935
0.859414
0.827796
0.839982
0.779971
0.819637
0.759462
0.802945
0.768604
0.848882
0.819484
0.874777
0.892123
0.894554
0.892844
0.88565
0.879215
0.8889
0.901808
0.910589
0.869367
0.880908
0.910111
0.930535
0.941205
0.94538
0.949134
0.950422
0.945191
0.945778
0.932442
0.921679
0.914507
0.899934
0.899547
0.897487
0.904311
0.91139
0.922027
0.934026
0.963166
0.961514
0.937163
0.914573
0.900088
0.879555
0.87046
0.92528
1.23488
1.30183
1.25359
1.12609
0.923961
0.866698
0.827288
0.814212
0.809959
0.80705
0.805682
0.80414
0.8029
0.801074
0.799736
0.799031
0.799909
0.798005
0.795328
0.79178
0.788228
0.786908
0.792455
0.809093
0.83175
0.849012
0.853677
0.86849
0.920017
1.17178
1.30488
0.733485
0.758998
0.771129
0.770997
0.770754
0.771226
0.771636
0.756024
0.722034
0.696186
0.687087
0.688838
0.709878
0.792145
0.973785
0.945444
0.932568
0.895243
0.866582
0.857132
0.859608
0.873238
0.888905
0.905757
0.915819
0.918462
0.910943
0.888067
0.86677
0.840348
0.824571
0.815103
0.808173
0.802248
0.798248
0.802968
0.814968
0.83226
0.848094
0.849008
0.845748
0.850979
0.88914
0.930752
0.740349
0.74504
0.745207
0.749244
0.767273
0.777037
0.773146
0.748088
0.739295
0.728022
0.737264
0.7359
0.753762
0.754872
0.773924
0.77693
0.796326
0.795235
0.8036
0.796078
0.801339
0.803628
0.823047
0.853735
0.862699
0.855007
0.844538
0.835992
0.83449
0.879925
0.923284
0.926747
0.935411
0.930755
0.931303
0.915044
0.908746
0.903599
0.89969
0.850274
0.863125
0.789435
0.812162
0.736689
0.773023
0.715908
0.741396
0.729048
0.741152
0.731038
0.744763
0.742769
0.74815
0.747351
0.742871
0.743284
0.752072
0.761393
0.765941
0.76356
0.845215
0.785892
0.774284
0.775531
0.782301
0.792742
0.810477
0.835293
0.845472
0.83844
0.82023
0.798979
0.787088
0.759219
0.754935
0.749744
0.74785
0.757935
0.769639
0.742862
0.784577
0.762871
0.799485
0.816566
0.848366
0.899976
0.924079
0.941605
0.954479
0.977143
0.916713
0.898765
0.918097
0.914456
0.892977
0.878283
0.871044
0.845737
0.831956
0.817838
0.787707
0.767279
0.771208
0.714895
0.721545
0.675655
0.664635
0.642869
0.640768
0.633202
0.630726
0.643211
0.652764
0.66777
0.684369
0.698912
0.704373
0.707616
0.704642
0.706133
0.885576
0.841152
0.816616
0.837649
0.860835
0.863511
0.810695
0.780315
0.762631
0.773943
0.811276
0.841294
0.90687
0.964137
0.967933
0.932728
0.880853
0.85073
0.84224
0.843865
0.848444
0.86038
0.884599
0.909432
0.928389
0.946996
0.96304
0.974055
0.941234
0.907632
0.937086
0.8627
0.829449
0.803292
0.778332
0.757509
0.75635
0.758914
0.768246
0.782594
0.797201
0.80681
0.809412
0.806557
0.800322
0.791518
0.789129
0.787015
0.789452
0.799312
0.79937
0.806362
0.821365
0.838298
0.835922
0.844829
0.854685
0.87613
0.893752
0.871869
0.902271
0.883959
0.88979
0.889399
0.890134
0.883767
0.877399
0.869411
0.867032
0.866885
0.86827
0.873503
0.874962
0.874777
0.867207
0.852303
0.830633
0.811963
0.786667
0.784306
0.767074
0.776282
0.770548
0.79421
0.808587
0.807918
0.767257
0.750652
0.725997
0.732051
0.93643
0.94744
0.991286
0.959951
0.939373
0.914629
0.924914
0.93385
0.937697
0.928063
0.920938
0.918862
0.91703
0.912604
0.896333
0.878432
0.862132
0.849146
0.83047
0.840247
0.835166
0.862869
0.887166
0.902278
0.866609
0.852236
0.837071
0.854
0.856839
0.852772
1.02375
1.00804
1.00365
0.97015
0.945385
0.929302
0.920334
0.918923
0.904058
0.88645
0.889107
0.870892
0.887695
0.845992
0.880791
0.816165
0.835991
0.791133
0.810084
0.812155
0.835272
0.85452
0.897321
0.903062
0.905807
0.89968
0.88826
0.878664
0.883569
0.899024
0.886978
0.870116
0.895469
0.921477
0.932758
0.937982
0.946402
0.952622
0.960701
0.977909
0.976934
0.966899
0.941664
0.918955
0.907273
0.886512
0.883156
0.882445
0.895268
0.908559
0.948066
0.986371
1.00225
0.98524
0.93264
0.898777
0.871964
0.859248
0.894823
1.20209
1.30308
1.2298
1.01326
0.886711
0.835109
0.809546
0.803967
0.804834
0.806024
0.806969
0.805397
0.802707
0.800973
0.799186
0.797391
0.79763
0.79966
0.797648
0.795427
0.791673
0.789543
0.795399
0.820637
0.855011
0.883037
0.880667
0.872432
0.896513
1.06631
1.30438
0.742039
0.772286
0.773394
0.761262
0.752605
0.759719
0.771224
0.768212
0.7451
0.711281
0.69772
0.696507
0.708867
0.786382
0.972682
0.937164
0.896052
0.863126
0.853405
0.848122
0.866476
0.874994
0.899735
0.915854
0.926696
0.919299
0.889777
0.842347
0.812414
0.779846
0.774554
0.761335
0.758342
0.761118
0.763544
0.766918
0.782821
0.80402
0.829329
0.84062
0.838893
0.839097
0.869722
0.921164
0.726661
0.731281
0.733866
0.742255
0.747357
0.744957
0.727677
0.723371
0.714055
0.726419
0.721548
0.741047
0.737307
0.758357
0.758021
0.782871
0.788184
0.802436
0.790785
0.795995
0.786589
0.796553
0.820619
0.838631
0.863094
0.854983
0.847244
0.847843
0.845088
0.870274
0.916739
0.926001
0.934275
0.933578
0.924717
0.906458
0.920465
0.904155
0.891877
0.856896
0.851984
0.781768
0.806922
0.7295
0.768212
0.702067
0.736927
0.701974
0.717782
0.728125
0.731586
0.744145
0.746834
0.747773
0.744824
0.742353
0.744685
0.75416
0.759391
0.75396
0.783326
0.758681
0.753521
0.758056
0.768107
0.781951
0.803355
0.823036
0.823706
0.807642
0.787015
0.762841
0.747288
0.727355
0.728599
0.713213
0.725225
0.713631
0.762681
0.736613
0.782866
0.765303
0.792668
0.798977
0.840666
0.878917
0.926791
0.92838
0.945121
0.964587
0.897456
0.900283
0.909789
0.88888
0.87219
0.867182
0.852889
0.843161
0.834258
0.802233
0.796127
0.78316
0.746397
0.726179
0.711462
0.656877
0.66344
0.638781
0.616071
0.624121
0.627844
0.630563
0.643351
0.656819
0.671001
0.686365
0.69805
0.7026
0.700898
0.705333
0.870968
0.834252
0.82136
0.868592
0.867326
0.847796
0.774469
0.754557
0.753702
0.760757
0.789895
0.829211
0.882211
0.960194
0.992501
0.957749
0.8922
0.8555
0.841158
0.838918
0.851409
0.873945
0.900952
0.92536
0.946168
0.967448
0.9843
0.989987
0.951196
0.907857
0.900548
0.84283
0.811253
0.7827
0.755656
0.738271
0.729355
0.735397
0.750437
0.766088
0.786054
0.80287
0.805974
0.806815
0.796335
0.789824
0.789288
0.794256
0.791758
0.788148
0.79023
0.793743
0.799573
0.819603
0.836427
0.828417
0.834678
0.8621
0.899921
0.860825
0.881061
0.878425
0.881065
0.883581
0.876676
0.870083
0.867288
0.869629
0.866549
0.86506
0.866851
0.869085
0.872763
0.87065
0.866256
0.853173
0.837627
0.815836
0.799976
0.78912
0.777903
0.788939
0.798675
0.845477
0.879232
0.891118
0.83405
0.759858
0.734427
0.727928
0.94456
0.963487
0.986016
0.929808
0.921214
0.91221
0.925405
0.922283
0.918178
0.911767
0.921593
0.937423
0.956288
0.960948
0.94378
0.902496
0.861611
0.832492
0.836833
0.810808
0.823743
0.830294
0.875121
0.912447
0.936446
0.880845
0.863018
0.852492
0.854504
0.843426
1.0168
1.00449
0.996815
0.955685
0.941753
0.928634
0.922619
0.902679
0.905445
0.89159
0.900227
0.896753
0.931655
0.871544
0.873118
0.796986
0.816496
0.760379
0.791135
0.778545
0.837682
0.835957
0.894401
0.90091
0.919106
0.904912
0.886537
0.877994
0.879983
0.894556
0.873881
0.872973
0.902635
0.915642
0.919775
0.922756
0.927044
0.933871
0.9529
0.980577
1.00851
1.00951
0.995593
0.946811
0.909549
0.895033
0.868531
0.86196
0.869407
0.889104
0.924545
0.989596
0.996985
0.981369
0.936298
0.891298
0.866682
0.846968
0.880809
1.17314
1.31246
1.17641
0.927737
0.85976
0.81585
0.801354
0.800963
0.804025
0.807229
0.805297
0.803238
0.797697
0.791852
0.793934
0.793813
0.791197
0.793715
0.7975
0.797582
0.796286
0.791183
0.792769
0.822679
0.880502
0.903774
0.899158
0.879393
0.898859
1.04587
1.33278
0.756239
0.785366
0.765874
0.733011
0.721285
0.736604
0.763719
0.772627
0.753756
0.722542
0.710677
0.701816
0.715936
0.78313
0.969191
0.912567
0.872238
0.845185
0.843991
0.842266
0.841984
0.851487
0.868861
0.899307
0.916844
0.907838
0.858515
0.808533
0.774017
0.75762
0.755847
0.751985
0.753876
0.744621
0.74224
0.746594
0.753425
0.7807
0.809645
0.831287
0.832562
0.83019
0.860435
0.912531
0.727405
0.732149
0.730761
0.729323
0.728408
0.714901
0.714234
0.706941
0.717855
0.713211
0.726609
0.72269
0.741647
0.738907
0.760111
0.77079
0.800785
0.792741
0.798617
0.783549
0.792507
0.787277
0.817031
0.836802
0.853626
0.856042
0.847612
0.865961
0.859784
0.869551
0.911439
0.923522
0.932877
0.924776
0.908083
0.906964
0.915886
0.895519
0.909311
0.859328
0.849206
0.784226
0.803611
0.728805
0.764359
0.700145
0.734305
0.695897
0.720234
0.708413
0.72884
0.73184
0.743329
0.750514
0.746198
0.740324
0.741499
0.7448
0.753699
0.755819
0.747627
0.751881
0.756067
0.753066
0.754785
0.767753
0.791987
0.806814
0.802168
0.785693
0.766456
0.740887
0.729935
0.715613
0.70908
0.697239
0.697624
0.698339
0.732958
0.72746
0.781517
0.765676
0.797174
0.797295
0.833376
0.882632
0.91225
0.929716
0.929438
0.956806
0.889435
0.898971
0.889487
0.869097
0.858059
0.845448
0.844908
0.843993
0.81802
0.809784
0.802469
0.761738
0.755662
0.725271
0.676206
0.676081
0.643432
0.617938
0.621768
0.617672
0.614751
0.61798
0.626618
0.641183
0.660114
0.676919
0.696862
0.700058
0.702171
0.702132
0.862781
0.826039
0.839317
0.883601
0.869176
0.823966
0.758684
0.744422
0.738323
0.756827
0.76296
0.79887
0.846055
0.936318
0.998234
0.999172
0.932104
0.864558
0.846603
0.851818
0.881216
0.913384
0.939274
0.954808
0.965264
0.973252
0.981832
0.980193
0.942176
0.898041
0.872486
0.818815
0.790547
0.757852
0.73286
0.715327
0.711325
0.716741
0.731231
0.755163
0.771074
0.799334
0.807675
0.807874
0.797046
0.793535
0.796787
0.795013
0.785387
0.774112
0.769382
0.770008
0.775599
0.790234
0.808927
0.826635
0.823117
0.851778
0.898552
0.863168
0.870053
0.863969
0.872643
0.867228
0.861742
0.861879
0.861096
0.858884
0.863159
0.865574
0.86298
0.859478
0.856329
0.855441
0.847274
0.840435
0.819913
0.814773
0.792165
0.79881
0.782486
0.794286
0.817007
0.855793
0.895058
0.925892
0.888351
0.786688
0.739876
0.748138
0.949167
0.969065
0.958922
0.915539
0.91168
0.908842
0.917328
0.908245
0.900099
0.910433
0.934022
0.981028
1.00939
0.987662
0.934218
0.876219
0.839464
0.839301
0.803748
0.815684
0.805988
0.821632
0.844135
0.918696
0.943568
0.950924
0.897787
0.900458
0.906136
0.899209
0.999168
1.00083
0.976377
0.951532
0.929261
0.932528
0.911443
0.909592
0.893287
0.908986
0.934479
0.924286
0.935081
0.834387
0.844917
0.759144
0.80947
0.740727
0.796581
0.788089
0.813875
0.83103
0.883527
0.890284
0.923969
0.905718
0.882692
0.875061
0.873962
0.890189
0.861731
0.871027
0.894835
0.898998
0.891538
0.887212
0.887597
0.892693
0.90081
0.915343
0.962468
1.01817
1.01617
0.992703
0.938377
0.8907
0.868646
0.84241
0.844419
0.86851
0.896163
0.937571
0.968186
0.962156
0.913851
0.880895
0.853098
0.83708
0.872882
1.19191
1.31039
1.14703
0.907401
0.844924
0.806443
0.797943
0.80172
0.806449
0.804357
0.801847
0.795794
0.796737
0.792582
0.775723
0.782058
0.788712
0.790726
0.79167
0.799384
0.797433
0.796624
0.790532
0.810877
0.88005
0.922838
0.909517
0.895251
0.906136
1.04788
1.33667
0.760601
0.790424
0.754062
0.711641
0.697742
0.718688
0.75825
0.772266
0.75831
0.733586
0.716253
0.712861
0.72379
0.777661
0.95449
0.884054
0.852567
0.83663
0.825396
0.814728
0.807327
0.805551
0.827248
0.864987
0.901739
0.898609
0.854346
0.802779
0.772268
0.768007
0.771923
0.774322
0.773243
0.760773
0.73945
0.739232
0.741075
0.762907
0.796662
0.818705
0.822658
0.822888
0.852955
0.89916
0.710244
0.716824
0.713341
0.7129
0.709218
0.711084
0.701725
0.708922
0.704167
0.715768
0.710775
0.727862
0.723111
0.743904
0.743249
0.781267
0.793288
0.804741
0.787072
0.792398
0.783631
0.801426
0.810476
0.84873
0.847012
0.853067
0.84999
0.883686
0.87994
0.87226
0.905399
0.9209
0.923044
0.902049
0.895145
0.895849
0.893491
0.899558
0.913374
0.864777
0.856381
0.78639
0.805335
0.731153
0.763515
0.701994
0.736106
0.699785
0.721606
0.713079
0.726825
0.729952
0.742089
0.750253
0.749379
0.739199
0.737429
0.74325
0.745275
0.744206
0.738261
0.733794
0.728364
0.732893
0.745903
0.764628
0.786789
0.794991
0.788129
0.76889
0.745893
0.729675
0.723287
0.703844
0.700382
0.694993
0.699949
0.682721
0.721988
0.710317
0.775516
0.760305
0.811721
0.798292
0.843053
0.880684
0.918174
0.913374
0.927949
0.935567
0.888638
0.87207
0.863556
0.848693
0.821874
0.823192
0.835903
0.817269
0.815887
0.811281
0.776073
0.772672
0.743308
0.697077
0.688124
0.657664
0.621172
0.634969
0.610823
0.604254
0.608949
0.612737
0.625974
0.638432
0.652127
0.680924
0.688657
0.69923
0.713468
0.71006
0.847194
0.824552
0.851725
0.892578
0.858095
0.812523
0.750115
0.745345
0.734104
0.746501
0.748544
0.767678
0.812004
0.885755
0.98717
1.02118
0.981141
0.897826
0.861597
0.874536
0.905301
0.92373
0.931045
0.935046
0.932393
0.933097
0.941165
0.956122
0.929253
0.881885
0.838219
0.791294
0.762062
0.733397
0.70827
0.688221
0.684243
0.692417
0.711997
0.741201
0.763132
0.789025
0.810167
0.809791
0.799639
0.800763
0.799082
0.789523
0.774085
0.759967
0.744224
0.749028
0.757212
0.772168
0.78415
0.802751
0.813
0.838277
0.904445
0.850595
0.845817
0.85601
0.859319
0.85583
0.850714
0.846832
0.849574
0.855428
0.859729
0.859115
0.860389
0.855893
0.850465
0.84329
0.834593
0.815835
0.811029
0.800242
0.788781
0.783099
0.779509
0.790414
0.809743
0.844244
0.891463
0.920358
0.91937
0.799317
0.747177
0.744461
0.93913
0.962483
0.921143
0.903286
0.908173
0.902253
0.902433
0.900784
0.894568
0.905821
0.937434
0.990648
1.00458
0.945012
0.883641
0.826265
0.814217
0.787669
0.803072
0.789236
0.805669
0.807148
0.846698
0.899603
0.981039
0.982868
0.942921
0.923046
0.926984
0.914379
0.994485
0.985536
0.962454
0.933726
0.934066
0.917205
0.913827
0.904183
0.899975
0.922737
0.960529
0.933399
0.900902
0.816693
0.826256
0.766357
0.817814
0.773593
0.810808
0.782095
0.835749
0.808454
0.885102
0.879596
0.91801
0.903804
0.875698
0.868422
0.86732
0.883632
0.861212
0.87072
0.880652
0.868055
0.855785
0.847617
0.84458
0.841662
0.84197
0.861512
0.891096
0.930489
0.994286
0.989015
0.955627
0.91493
0.876865
0.847975
0.830761
0.8373
0.860767
0.88617
0.909493
0.904037
0.883029
0.861379
0.838957
0.830004
0.875276
1.19065
1.316
1.11941
0.900216
0.834948
0.802574
0.79597
0.800939
0.799878
0.798202
0.795541
0.788375
0.779895
0.781486
0.794841
0.788819
0.783664
0.785803
0.786368
0.796099
0.796612
0.802685
0.794652
0.793892
0.858643
0.93122
0.928602
0.913492
0.936205
1.13707
1.36368
0.770474
0.793894
0.741402
0.692306
0.682323
0.705093
0.746053
0.767549
0.76501
0.740157
0.727577
0.718877
0.727526
0.776967
0.935309
0.86694
0.837545
0.821257
0.806337
0.790447
0.777309
0.775279
0.789475
0.831099
0.878825
0.898601
0.863223
0.8143
0.782235
0.785962
0.787416
0.793275
0.783143
0.766714
0.742813
0.733775
0.740348
0.756185
0.787888
0.811805
0.813435
0.815411
0.849474
0.888012
0.716634
0.71812
0.711377
0.706226
0.712028
0.706648
0.70524
0.70205
0.707885
0.705069
0.713057
0.717012
0.725416
0.73264
0.747029
0.778696
0.80991
0.801921
0.802047
0.798705
0.794333
0.82395
0.819301
0.854056
0.841482
0.849316
0.85791
0.898173
0.897228
0.878735
0.903833
0.913353
0.900399
0.883018
0.87742
0.866611
0.887748
0.895496
0.907278
0.888037
0.859906
0.795515
0.804108
0.73688
0.764858
0.703175
0.739316
0.705125
0.730018
0.714403
0.732316
0.728061
0.750386
0.744528
0.752401
0.737631
0.734721
0.735868
0.746155
0.746215
0.746597
0.739555
0.737177
0.730323
0.729006
0.741973
0.769042
0.784964
0.777437
0.753628
0.737502
0.725649
0.712489
0.702048
0.703898
0.692812
0.69175
0.681291
0.717188
0.698938
0.76977
0.755257
0.816018
0.815643
0.853422
0.894361
0.91094
0.915784
0.907683
0.937669
0.859838
0.868311
0.861578
0.811181
0.792538
0.807177
0.79377
0.79932
0.805901
0.779907
0.781023
0.760897
0.717338
0.710995
0.671295
0.635197
0.643595
0.618392
0.606903
0.611459
0.607463
0.617458
0.623904
0.635322
0.662053
0.674611
0.689184
0.713992
0.713165
0.714872
0.838323
0.825767
0.865843
0.894534
0.856654
0.80273
0.755997
0.741728
0.739003
0.741719
0.738254
0.7536
0.784156
0.837965
0.94987
1.01425
0.995851
0.911456
0.855073
0.850782
0.871584
0.892376
0.905954
0.911092
0.899212
0.872092
0.863044
0.877658
0.895541
0.85952
0.811251
0.767345
0.741644
0.712485
0.686694
0.681681
0.682931
0.686784
0.695892
0.718477
0.755012
0.7857
0.809729
0.809295
0.803591
0.803973
0.800712
0.781508
0.763187
0.741454
0.740648
0.723358
0.733438
0.751501
0.770575
0.789922
0.803208
0.841063
0.899915
0.852787
0.834012
0.841587
0.84377
0.839768
0.837904
0.842023
0.84107
0.852814
0.862451
0.862115
0.850149
0.841871
0.847901
0.833161
0.818117
0.807838
0.80742
0.810277
0.785225
0.787728
0.787283
0.786628
0.797059
0.835008
0.87031
0.92052
0.919339
0.802732
0.757396
0.768554
0.937617
0.938465
0.909474
0.893937
0.900013
0.905757
0.896861
0.890519
0.892601
0.895672
0.914464
0.960099
0.967765
0.911382
0.854638
0.799129
0.779399
0.789629
0.776013
0.79471
0.793193
0.829772
0.848228
0.932922
0.989399
1.01413
0.973808
0.958786
0.957594
0.939324
0.973136
0.974223
0.941141
0.934556
0.921369
0.918885
0.8983
0.899572
0.905463
0.92918
0.961239
0.917867
0.889072
0.810149
0.829203
0.77171
0.833292
0.785524
0.830456
0.79632
0.829756
0.815965
0.888483
0.875643
0.909506
0.884617
0.867055
0.859708
0.863847
0.880507
0.845874
0.861402
0.858926
0.838787
0.822495
0.81497
0.805522
0.802534
0.812837
0.817162
0.824872
0.871665
0.919029
0.955359
0.933331
0.934345
0.902131
0.854399
0.820357
0.819866
0.836419
0.855398
0.864371
0.867945
0.858454
0.844351
0.823054
0.8217
0.879546
1.23522
1.31465
1.13528
0.900795
0.833942
0.800443
0.795496
0.795014
0.802472
0.793685
0.792426
0.779256
0.788363
0.776725
0.773587
0.78374
0.788789
0.792518
0.780706
0.795472
0.791877
0.80516
0.799621
0.790936
0.821724
0.928967
0.956391
0.955921
1.00835
1.20256
1.29526
0.771935
0.798448
0.738449
0.685304
0.67237
0.692103
0.728073
0.755167
0.757114
0.750046
0.730351
0.723922
0.74985
0.78381
0.812007
0.842545
0.872858
0.824144
0.809644
0.799004
0.786097
0.773816
0.762408
0.758949
0.769125
0.802374
0.856957
0.893207
0.878821
0.823806
0.794501
0.791448
0.793866
0.797071
0.77849
0.760908
0.744465
0.73691
0.741186
0.762328
0.786263
0.800158
0.806068
0.818395
0.850713
0.841045
0.780237
0.723924
0.714142
0.71709
0.707712
0.70454
0.697126
0.697007
0.697453
0.703312
0.697903
0.71124
0.704718
0.72489
0.716637
0.738489
0.736379
0.792362
0.810358
0.818076
0.810534
0.823822
0.816722
0.839913
0.833867
0.841351
0.847528
0.843501
0.866801
0.900257
0.910146
0.889846
0.852548
0.864777
0.893331
0.89406
0.879219
0.865545
0.846492
0.855097
0.866474
0.879402
0.91339
0.89945
0.872639
0.818628
0.796728
0.757884
0.75572
0.703626
0.738871
0.70506
0.729128
0.718295
0.731835
0.737871
0.747555
0.752988
0.749093
0.739794
0.731889
0.736886
0.740961
0.738293
0.731375
0.746399
0.721446
0.712306
0.71152
0.71135
0.720393
0.744342
0.769002
0.776847
0.764157
0.74761
0.737119
0.71876
0.712399
0.707025
0.699825
0.690372
0.699788
0.677707
0.719748
0.695449
0.768743
0.748714
0.828796
0.81756
0.880557
0.89234
0.914705
0.902768
0.906429
0.898749
0.895363
0.840168
0.844448
0.852754
0.818466
0.780476
0.775146
0.753231
0.754483
0.771425
0.757635
0.774695
0.766324
0.735681
0.732295
0.696269
0.656368
0.659935
0.632124
0.618284
0.616423
0.612289
0.621683
0.623048
0.628047
0.650976
0.66215
0.676476
0.708204
0.718133
0.723146
0.74681
0.758023
0.786072
0.806019
0.820203
0.873007
0.892506
0.856351
0.804229
0.76434
0.752803
0.747364
0.735861
0.743406
0.755492
0.762345
0.808201
0.890895
1.00273
1.02275
0.96132
0.884652
0.860824
0.871141
0.902084
0.931392
0.925728
0.870735
0.831095
0.814972
0.822188
0.837785
0.843191
0.746532
0.740865
0.770983
0.737489
0.712111
0.682439
0.672672
0.660314
0.659323
0.670636
0.695528
0.708895
0.749833
0.775671
0.81362
0.810594
0.807159
0.81696
0.794084
0.776208
0.747191
0.731397
0.709082
0.707562
0.715211
0.740056
0.760281
0.78369
0.802788
0.859409
0.899634
0.849363
0.774423
0.728983
0.808693
0.82765
0.841591
0.841413
0.839044
0.836754
0.839377
0.847144
0.856302
0.860398
0.849977
0.842217
0.847121
0.820552
0.81424
0.818921
0.821752
0.837733
0.824575
0.831027
0.798565
0.789495
0.803205
0.819242
0.868952
0.907246
0.905347
0.784924
0.76433
0.76525
0.799868
0.807203
0.883056
0.891134
0.889755
0.895173
0.890415
0.893584
0.89116
0.877799
0.869324
0.869213
0.877833
0.904104
0.92594
0.890828
0.855565
0.806123
0.802882
0.785963
0.802661
0.793011
0.829499
0.838985
0.89618
0.946683
1.008
1.01778
0.99711