/*--------------------------------*- C++ -*----------------------------------*\
| =========                 |                                                 |
| \\      /  F ield         | OpenFOAM: The Open Source CFD Toolbox           |
|  \\    /   O peration     | Version:  2.1.1                                 |
|   \\  /    A nd           | Web:      www.OpenFOAM.org                      |
|    \\/     M anipulation  |                                                 |
\*---------------------------------------------------------------------------*/
FoamFile
{
    version     2.0;
    format      ascii;
    class       volScalarField;
    location    "0.004500000";
    object      sL;
}
// * * * * * * * * * * * * * * * * * * * * * * * * * * * * * * * * * * * * * //

dimensions      [0 1 -1 0 0 0 0];

internalField   nonuniform List<scalar> 
12384
(
17.3538
16.8312
16.2111
15.8741
15.7408
16.0745
16.3133
16.6418
16.4878
16.3577
16.8275
18.1879
10.9563
2.51801
2.496
3.01507
2.56738
2.2577
1.9286
1.85921
1.71275
1.69951
1.65543
1.6625
1.69622
1.70319
1.72355
1.73358
1.73127
1.70074
1.73872
1.71715
1.76724
1.82091
1.88243
1.98596
2.17991
2.48498
3.45723
3.28648
2.09448
1.81874
1.91347
2.0913
2.47981
2.01548
1.76868
1.74368
1.80456
1.80878
1.92629
1.95798
2.01217
2.16032
2.14237
2.39495
2.30898
2.66345
2.57264
2.9307
2.89702
3.11201
3.16838
3.25526
3.24059
3.4211
3.64837
3.99227
4.75929
6.69078
7.33733
5.66442
3.71923
2.61669
2.68583
3.07671
3.57119
3.7423
3.87177
3.69161
3.57772
3.42909
3.16117
2.69708
2.6498
1.99431
2.0892
1.42644
1.7241
1.26971
1.53965
1.33654
1.4682
1.52589
1.58418
1.6766
1.81485
1.95431
1.66436
1.37003
1.51165
1.51294
1.56619
1.5617
1.77193
1.26545
1.35382
1.446
1.52485
1.52928
1.47552
1.37389
1.32837
1.32579
1.32038
1.33017
1.32561
1.33823
1.33869
1.34297
1.3542
1.35971
1.351
1.35642
1.45522
1.69069
1.88719
2.15126
2.96605
3.37638
3.09596
3.20666
3.4304
3.539
1.31825
2.30524
2.81175
2.82971
2.71463
2.70671
2.76224
2.72936
2.52654
2.65914
2.49007
2.18341
2.32821
1.76024
1.98498
1.44312
1.56041
1.46214
1.45836
1.46926
1.46074
1.45997
1.44936
1.43924
1.42105
1.38576
1.33797
1.30473
1.23456
1.11487
1.80336
1.54383
1.7889
1.92283
1.97855
1.47703
1.39803
1.3087
1.24448
1.21334
1.21101
1.21355
1.30913
1.33342
1.27555
1.26725
1.24403
1.22104
1.21608
1.20768
1.21506
1.21606
1.2513
1.26987
1.3183
1.34064
1.3598
1.41155
1.4642
1.06491
1.86464
1.81977
2.8257
3.28489
2.38949
2.30348
1.91513
1.92761
1.89402
1.91553
1.92225
1.92725
1.92695
1.91712
2.02003
2.02849
2.2549
2.26652
2.62238
2.6498
3.20508
3.22014
3.77411
3.84981
4.07905
4.17984
4.17746
4.10149
4.08434
4.45461
1.79384
1.92411
3.62609
3.85189
3.70396
3.4941
3.45485
3.38542
3.37953
3.43795
3.56031
3.69583
3.79364
3.78333
3.59299
3.29676
2.95721
2.58735
2.32356
2.1786
1.98587
1.97038
1.8106
1.82269
1.74234
1.72939
1.64044
1.59789
1.60222
1.54291
2.53281
3.9497
4.67408
4.50214
4.34522
4.3749
4.42256
4.51937
4.48089
4.32694
4.00992
3.72687
3.4825
3.18773
3.01319
2.77956
2.76709
2.39291
2.43441
2.00718
2.09255
1.82255
2.01844
1.9487
2.12831
2.28715
2.4496
2.7825
3.60618
4.02357
2.45394
5.32744
5.05911
4.65201
4.39886
3.98932
4.08206
3.69584
3.74553
3.48771
3.43459
2.92109
2.6222
2.2361
2.05366
1.50412
1.46199
1.44154
1.4502
1.43476
1.89536
1.64427
2.7014
2.98846
3.50134
3.72922
3.51127
3.35681
3.225
3.05392
0.684264
1.29924
3.39125
3.74979
3.67516
3.59139
3.30538
3.1994
2.89729
2.98205
2.74262
2.83238
2.79627
2.88722
2.90069
2.99686
3.0404
3.07911
3.07712
3.03441
2.92765
2.85617
2.77489
2.81973
2.86875
3.20186
3.25047
1.33571
0.95134
0.950692
0.463212
0.551315
0.813042
0.91811
1.02141
1.98972
3.08188
3.61946
3.88534
4.01191
4.05794
4.10969
4.15347
4.20211
4.20666
4.19889
4.1421
4.0336
3.87241
3.62885
3.24282
2.95606
2.85293
2.2395
1.81296
1.37659
1.05714
0.932325
0.847451
0.913573
12.4708
11.0765
9.57996
8.60031
8.36392
8.97238
10.5397
12.5342
14.2494
15.1344
15.6471
17.1257
13.5678
4.05282
2.44086
2.67389
1.84635
1.6572
1.5718
1.64351
1.67483
1.83617
1.90079
1.97253
2.02589
2.05613
2.05196
2.05895
2.06331
2.08806
2.10005
2.18675
2.24303
2.23064
2.3033
2.23981
2.28536
2.39955
3.00223
3.56421
3.09053
2.56303
2.15175
1.99021
2.34597
1.71064
1.56741
1.77713
1.82464
1.84473
1.82077
1.85197
1.83857
1.88497
1.92361
2.07619
2.24026
2.49334
2.69338
2.9244
3.13939
3.25941
3.32161
3.36074
3.2111
3.11591
3.21854
3.5491
4.13859
5.47589
6.96003
7.94332
6.53217
3.29978
2.88459
3.8331
4.36106
4.31573
4.14629
3.8971
3.5868
2.89359
2.65562
2.14349
1.99339
1.46398
1.58219
1.13932
1.22073
1.1512
1.14122
1.14967
1.15165
1.16305
1.29756
1.36962
1.50396
1.69398
1.75608
1.46201
1.37834
1.52868
1.63372
1.64096
1.6563
1.15889
1.29204
1.48066
1.57539
1.57102
1.53749
1.4625
1.41476
1.38294
1.3724
1.32525
1.24092
1.12613
1.14199
1.09275
1.13423
1.18972
1.25418
1.31377
1.36063
1.5717
1.74207
1.89333
2.34176
3.10254
3.469
3.59411
3.8347
3.93958
1.40984
2.54248
2.71329
2.6857
2.88275
3.08036
2.99902
3.01519
3.12549
2.94962
3.00619
3.00138
2.98363
2.56922
2.7351
2.1013
2.17643
1.69505
1.69274
1.52007
1.51977
1.51852
1.51085
1.49762
1.47721
1.43959
1.38414
1.33258
1.28473
1.21144
1.83615
1.6499
1.99905
1.98369
1.65746
1.31371
1.19058
1.16244
1.22035
1.31303
1.41851
1.42126
1.24822
1.17119
1.11278
1.08827
1.08482
1.08674
1.08675
1.08308
1.07525
1.06455
1.05834
1.14458
1.24862
1.29758
1.32649
1.34878
1.41162
1.10115
1.92682
2.29253
3.17262
2.86354
2.113
1.94599
1.69377
1.64467
1.63035
1.6088
1.57869
1.53651
1.52232
1.53433
1.60099
1.68297
1.83081
2.11008
2.30399
2.56772
2.94445
3.22429
3.37878
3.7369
3.78833
3.79809
3.7833
3.73088
3.80011
4.26382
1.99589
2.9394
3.69943
3.58119
3.29748
3.09223
2.92133
2.94875
3.00465
3.15156
3.33183
3.54407
3.65289
3.65519
3.49069
3.2005
2.87274
2.54407
2.24908
2.1014
1.99826
1.87721
1.73543
1.72272
1.62794
1.63753
1.59685
1.59729
1.60004
1.5698
3.38934
4.25755
4.23896
3.62202
3.76416
3.56239
3.7765
3.63288
3.31442
3.00097
2.82246
2.75444
2.68752
2.57834
2.41988
2.18504
1.99627
1.72257
1.49179
1.30455
1.31509
1.34106
1.38425
1.42085
1.57497
1.86748
2.16306
2.60674
3.27471
3.93055
3.21316
5.10371
4.74733
4.36319
4.24869
3.81614
3.93037
3.49894
3.49244
3.3208
3.02658
2.82263
2.30448
1.84162
1.71029
1.32793
1.27836
1.27291
1.24931
1.23962
1.22469
1.31379
1.90545
2.25866
2.89731
3.38874
3.61527
3.54557
3.34207
3.11672
1.22821
2.76051
3.59347
3.45509
3.05863
2.69857
2.43029
2.37975
2.28082
2.30453
2.30112
2.41681
2.60106
2.73956
2.94025
3.03516
3.12253
3.09718
2.99531
2.79568
2.59282
2.33538
2.32141
2.35039
2.48485
2.81699
3.16095
2.60709
1.26343
0.962607
0.449431
0.715214
0.903597
1.00806
1.64772
2.96478
3.79589
4.20194
4.46948
4.59754
4.65558
4.66
4.64438
4.6428
4.66475
4.65927
4.65889
4.64393
4.60342
4.5213
4.37799
4.2307
4.21677
4.06277
3.95947
3.5038
1.98063
1.27741
0.951191
0.915589
8.04922
6.57737
5.36269
4.8997
4.76707
4.92147
5.67828
7.50713
10.5879
13.0944
14.2909
15.6689
14.4788
5.43664
2.35762
2.1056
1.62098
1.7132
2.00464
2.23494
2.38152
2.3924
2.36779
2.25312
2.1613
2.07492
2.05889
2.05933
2.11487
2.19876
2.35881
2.49027
2.70355
2.91472
3.03788
2.93392
2.74263
2.5562
2.75638
3.38862
3.72441
3.46884
2.69301
2.08982
2.11318
1.51395
1.72976
1.84802
1.75105
1.5993
1.54256
1.51441
1.5554
1.73944
2.01367
2.43388
2.67315
3.02807
3.10232
3.35495
3.38595
3.64087
3.73726
3.8195
3.70905
3.39399
3.14098
3.26187
3.67302
4.59191
6.14514
7.64316
7.71454
4.38433
3.24179
4.34881
4.49978
4.35703
4.04483
3.53755
2.84855
2.20533
2.10862
1.64373
1.6714
1.28296
1.40809
1.11762
1.15306
1.12227
1.11335
1.11289
1.11649
1.11278
1.11969
1.13732
1.26634
1.43861
1.63369
1.56024
1.29788
1.37435
1.58472
1.5882
1.26135
1.19067
1.3794
1.5865
1.62071
1.60443
1.61306
1.70287
1.82558
1.92258
1.93164
1.87682
1.86376
1.72892
1.71953
1.50621
1.38048
1.07205
1.11889
1.20371
1.30091
1.49798
1.70479
1.71332
1.92008
2.59052
3.40984
3.90688
4.10693
4.08503
1.62135
2.61555
2.72075
3.00196
3.21834
3.15866
3.19073
3.34248
3.44932
3.45457
3.83565
3.47068
3.70985
3.18558
3.20996
2.63878
2.81634
2.12805
2.22511
1.9504
1.79459
1.58071
1.52549
1.52466
1.51295
1.49281
1.44209
1.37687
1.32654
1.26321
1.84674
1.7479
2.08573
1.7473
1.30383
1.17889
1.18835
1.35679
1.78826
1.89292
1.56545
1.26149
1.11315
1.01408
0.981814
1.01478
1.08914
1.15324
1.18456
1.18323
1.15954
1.11869
1.07952
1.05257
1.14708
1.26994
1.2743
1.29108
1.32302
1.11346
2.0902
2.94793
3.08655
2.61584
2.18212
2.11216
2.07155
2.07493
2.03571
1.96454
1.8375
1.74717
1.73538
1.79939
1.99921
2.29121
2.61995
2.92867
3.20329
3.21953
3.45389
3.60078
3.84866
3.94182
4.15668
4.00319
3.63413
3.3591
3.36409
3.96444
2.15775
3.35145
3.50729
3.23069
2.93287
2.83543
2.77082
2.79304
2.90807
3.07512
3.28818
3.4599
3.53959
3.52311
3.34715
3.04243
2.66359
2.28909
1.95569
1.83136
1.68456
1.55051
1.4795
1.45744
1.43225
1.4561
1.52783
1.58954
1.60103
1.5792
3.80427
3.97071
3.51021
2.99675
3.07687
3.01409
3.06739
2.76635
2.5839
2.56346
2.92287
3.20101
3.13516
2.92626
2.72912
2.56724
2.43459
2.24054
1.88144
1.40874
1.20309
1.12108
1.14376
1.21116
1.31534
1.40582
1.81376
2.0801
2.52688
3.45095
3.74365
4.73165
4.21089
3.98929
4.13267
3.76066
3.80998
3.40621
3.50148
3.16842
3.06866
2.54808
2.01207
1.49124
1.21294
1.18992
1.14034
1.13871
1.10547
1.10768
1.06546
1.0873
1.47597
1.81284
2.15438
2.74142
3.34551
3.51749
3.48093
3.34847
2.00915
3.33668
3.29517
2.74331
2.3398
2.17312
2.04037
1.96004
1.80312
1.70191
1.73268
1.79947
2.04736
2.45438
2.73843
3.02652
3.08798
3.04417
2.80359
2.47296
2.08547
1.96008
1.81173
1.78013
1.97164
2.37712
2.9246
2.94873
1.59698
0.974619
0.534333
0.809739
0.984905
1.21577
2.65533
3.73257
4.32238
4.61609
4.7369
4.76888
4.75108
4.72146
4.67529
4.6626
4.68131
4.71927
4.71034
4.70042
4.68162
4.63453
4.51854
4.29374
4.10318
3.98744
3.79506
3.81752
3.13873
1.96169
1.10599
0.961838
6.4046
4.99185
4.4361
4.33499
4.38504
4.35125
4.45892
5.10188
7.39728
10.6261
12.7803
14.3968
14.4325
6.27732
2.24861
1.87607
1.81767
2.31012
2.5694
2.64414
2.50636
2.30721
2.0913
1.94464
1.85358
1.84282
1.9357
2.13788
2.41973
2.7831
3.06722
3.37492
3.60757
3.74618
3.93825
3.90629
3.61165
3.03063
2.86637
3.20241
3.75905
3.87986
3.17048
2.22409
1.91966
1.48663
1.73885
1.65778
1.39288
1.28863
1.36361
1.5765
1.96752
2.3353
2.48061
2.59069
2.74006
2.80155
2.99831
3.00012
3.11237
3.1705
3.45654
3.67777
3.921
3.7294
3.31608
3.1689
3.42566
4.13695
5.56002
6.94429
7.50789
5.19973
3.73053
4.51178
4.50734
4.32317
3.89834
3.14186
2.47747
2.07583
1.86978
1.59067
1.76403
1.46517
1.63986
1.25379
1.44283
1.2014
1.21567
1.16323
1.13617
1.12117
1.10324
1.10453
1.12248
1.26102
1.45738
1.55788
1.38512
1.26585
1.4632
1.64317
1.06994
1.30251
1.58687
1.60616
1.57893
1.58581
1.69418
1.90436
2.14389
2.34631
2.44861
2.50699
2.60321
2.49736
2.4861
2.31245
2.03308
1.70931
1.38282
1.16512
1.31148
1.34117
1.64868
1.62851
1.69719
2.24915
3.14547
4.01021
4.31324
4.1923
1.76492
2.58828
2.86714
3.17321
3.14187
3.18964
3.41332
3.51093
3.82466
4.14109
3.88562
3.6843
3.8714
3.14662
3.39957
2.92998
2.81698
2.54582
2.50476
2.27979
2.08692
1.96733
1.71842
1.54093
1.537
1.52134
1.49039
1.42707
1.36666
1.29607
1.87325
1.88916
1.99312
1.38957
1.19663
1.18705
1.37331
1.88115
2.18285
2
1.50613
1.2009
1.04357
0.941661
0.929389
1.00864
1.14516
1.24816
1.28066
1.28001
1.25014
1.18577
1.11452
1.06033
1.03914
1.18823
1.20794
1.19408
1.25053
1.11379
2.24498
3.20112
2.96719
2.61144
2.53628
2.53135
2.59006
2.56518
2.45823
2.29446
2.10208
1.93717
1.90678
2.08761
2.4694
2.8778
3.15769
3.19345
3.11943
3.05483
2.86541
2.861
3.03959
3.37255
3.65511
3.98401
3.68591
3.15269
3.01434
3.70601
2.68116
3.37825
3.2536
2.91711
2.83163
2.77759
2.72841
2.70619
2.80586
2.96488
3.14079
3.35342
3.48852
3.54353
3.37574
3.03162
2.5873
2.20036
1.78437
1.63472
1.37205
1.34728
1.27022
1.16402
1.07541
1.0967
1.28743
1.52219
1.59354
1.5749
3.96375
3.57574
3.12355
2.71044
2.85124
2.76399
2.62266
2.4719
2.51053
3.07959
3.57237
3.3459
2.72232
2.15122
1.80762
1.75387
1.9806
2.16843
2.13276
2.04819
1.61206
1.31968
1.03233
1.00258
1.09463
1.25967
1.42421
1.98738
2.49405
3.49473
3.91249
4.31702
3.71795
3.9375
4.01047
3.86367
3.55017
3.47918
3.44321
3.11857
2.67446
1.98995
1.43819
1.08577
1.05721
1.03185
1.03787
1.01991
1.00182
1.00296
0.986784
0.982303
1.21467
1.48042
1.75584
2.21363
2.89692
3.36328
3.46195
3.34505
2.54459
3.23951
2.75086
2.25903
2.08872
2.01685
1.85792
1.63077
1.33781
1.20372
1.10693
1.10756
1.26188
1.62154
2.22086
2.61373
2.95231
2.94503
2.73011
2.20891
1.87966
1.66243
1.62824
1.63511
1.67753
2.01488
2.63361
2.94632
2.00614
1.03869
0.622837
0.927078
1.06126
2.00679
3.41697
4.25904
4.61129
4.74117
4.79996
4.81185
4.781
4.73297
4.73705
4.69894
4.66904
4.6778
4.69594
4.67218
4.6725
4.66153
4.60083
4.42112
4.0306
3.58747
3.24012
3.36539
3.5703
2.49674
1.44049
0.981166
5.78407
4.40838
4.36918
5.01987
5.43351
5.06765
4.5162
4.60018
5.95171
8.90182
11.4632
13.3793
13.9879
6.75024
2.10123
1.87527
2.12986
2.59923
2.66731
2.47264
2.30049
2.06265
1.94735
1.82072
1.86447
2.0165
2.47231
3.15821
4.04774
4.66536
5.13222
5.24831
5.38512
5.48401
5.60669
5.32839
4.8992
3.82004
3.21547
3.1993
3.66918
3.97774
3.42033
2.31862
1.71599
1.39533
1.60867
1.47414
1.36102
1.47202
1.7517
2.0366
2.14826
2.24517
2.26592
2.45409
2.47789
2.68581
2.72349
2.87846
2.72879
2.84447
2.95611
3.32349
3.55756
3.7137
3.50892
3.09966
3.33903
3.96935
5.21631
6.04664
6.81459
5.5688
4.119
4.52228
4.502
4.3167
3.83671
3.06773
2.57626
1.98299
1.66126
1.64393
1.80131
1.69769
1.94061
1.5664
1.75555
1.35393
1.49511
1.22382
1.27402
1.15061
1.11058
1.09213
1.09314
1.14414
1.33919
1.50206
1.41163
1.24509
1.31612
1.44404
1.27214
1.51463
1.5098
1.4322
1.45838
1.54886
1.74632
2.05471
2.35161
2.63413
2.92523
3.14551
3.30574
3.29978
3.39374
3.23156
3.09747
2.63383
2.26732
1.52854
1.40729
1.27323
1.53027
1.5283
1.65951
1.96706
2.99096
4.0028
4.52429
4.22165
1.77415
2.62007
2.96305
3.05419
3.07429
3.21515
3.32272
3.66889
4.10254
3.92114
3.90411
3.8157
3.36452
3.27328
3.45036
2.74027
3.1022
2.74719
2.40373
2.46395
2.36585
2.17974
2.01288
1.74554
1.54793
1.54584
1.52005
1.47262
1.40598
1.31871
1.8852
1.93147
1.77488
1.26595
1.17357
1.30548
1.71236
2.23489
2.40956
2.1314
1.70676
1.27399
1.0842
0.930972
0.884582
0.947365
1.09607
1.22416
1.27531
1.26873
1.20641
1.13263
1.06578
1.01589
0.978033
1.00565
1.05739
1.07587
1.13267
1.10517
2.37063
3.15972
2.87308
2.7969
2.92602
3.00556
2.97356
2.95385
2.84807
2.59054
2.29871
2.05083
1.93854
2.19379
2.60697
2.9081
2.91399
2.65543
2.3063
2.09799
2.0754
2.11776
2.20089
2.46906
2.88339
3.39731
3.63013
3.03405
2.77293
3.33897
2.81136
3.26113
2.97262
2.83713
2.76789
2.71911
2.65641
2.684
2.67964
2.79657
3.05412
3.43689
3.77963
3.7844
3.56318
3.20471
2.83333
2.37275
1.995
1.65789
1.34728
1.19698
1.11074
0.992375
0.955597
0.963165
1.00723
1.38437
1.58236
1.57656
3.916
3.32109
2.95634
2.60411
2.67983
2.52341
2.41303
2.38933
2.99515
3.61043
3.44688
2.5045
1.55956
1.12128
0.995485
1.06073
1.15949
1.44117
2.03233
2.13157
2.17935
1.75053
1.39818
1.13438
1.03861
1.08871
1.28518
1.61172
2.06035
3.19547
3.96916
3.87258
3.63323
3.89898
3.97079
3.70908
3.43119
3.33262
3.46778
2.89272
2.06661
1.35443
1.15791
1.01374
1.05234
1.06912
1.06324
1.06296
1.02419
0.989009
0.945292
0.935691
1.05446
1.26141
1.58934
1.86943
2.48031
3.14535
3.38407
3.3088
2.7298
3.0028
2.36925
2.15087
2.20371
2.25084
2.07535
1.71581
1.33778
1.08604
0.964082
0.943203
0.986264
1.11108
1.4722
2.18027
2.69327
2.9536
2.74713
2.18206
1.69395
1.66831
1.53301
1.49769
1.54813
1.80777
2.53016
2.86436
2.02526
0.963867
0.694047
1.03098
1.24615
2.76789
3.91936
4.52541
4.69173
4.77464
4.83566
4.82012
4.82168
4.79669
4.73897
4.8091
4.79156
4.70285
4.67421
4.68854
4.66397
4.67631
4.62102
4.52286
4.09915
3.19634
2.64087
3.0434
3.46589
2.74705
1.38781
1.01254
5.60201
4.23228
4.92451
6.64288
7.61437
6.51901
5.00943
4.59233
5.42294
8.03138
10.6072
12.6269
13.5291
6.84818
2.0265
1.92872
2.37108
2.54761
2.52171
2.3473
2.20961
2.12884
1.97078
1.86068
1.92263
2.28699
3.12085
4.35378
5.48523
5.79959
5.98299
5.86456
6.08977
6.44095
6.82555
6.8421
6.18389
4.81202
3.68878
3.35895
3.67539
3.99099
3.41685
2.32358
1.64202
1.43467
1.58348
1.48933
1.45795
1.54366
1.79324
1.88295
1.97945
2.01267
2.18177
2.27027
2.45966
2.48688
2.72636
2.54558
2.5668
2.47532
2.71827
2.95438
3.39344
3.44225
3.40868
3.09791
3.24182
4.03826
4.98311
5.1413
5.71723
5.65798
4.33889
4.50241
4.53198
4.34701
3.88809
3.34981
2.69415
1.84141
1.64091
1.53223
1.7788
1.828
2.07014
1.70099
1.89184
1.44277
1.60796
1.3238
1.42518
1.19885
1.16277
1.09323
1.07597
1.11036
1.25837
1.40677
1.40783
1.24778
1.27868
1.43478
1.42302
1.55524
1.51783
1.43046
1.39304
1.49123
1.72799
2.0633
2.41622
2.82449
3.22732
3.4154
3.58019
3.62267
3.64395
3.56588
3.63724
3.53337
3.34216
2.5294
1.98268
1.4919
1.54572
1.49964
1.61087
1.92899
2.74479
4.04765
4.54037
4.3245
1.79954
2.67655
2.88132
2.97151
3.04074
2.98252
3.17109
3.65261
3.63273
3.74996
3.78267
3.23396
3.32798
3.32208
2.9312
3.22413
2.82746
2.52494
2.6059
2.60408
2.42184
2.25342
1.98635
1.75642
1.55414
1.56117
1.54081
1.50518
1.43655
1.33426
1.93252
1.91977
1.57844
1.20154
1.21209
1.58096
2.0238
2.34892
2.36393
2.39861
2.07458
1.55766
1.19599
0.967829
0.855106
0.858305
0.980845
1.13696
1.19524
1.16572
1.0774
1.00493
0.956967
0.927118
0.91168
0.901175
0.920725
0.958967
1.03885
1.10989
2.37057
2.98452
2.84756
2.97306
3.1722
3.19236
3.21074
3.20318
3.12221
2.92158
2.46652
2.18529
1.97717
2.18199
2.56351
2.6491
2.3747
1.99462
1.85424
1.83723
1.91979
2.01288
2.10227
2.29014
2.39915
2.96265
3.42684
2.98885
2.5942
3.16674
2.86412
3.01888
2.82388
2.73781
2.71004
2.69439
2.62246
2.49951
2.50654
2.70675
3.14835
3.7866
4.08217
3.93942
3.63719
3.27606
2.80253
2.55661
2.13178
1.9649
1.55639
1.32946
1.18183
1.06304
1.02845
1.03348
1.01939
1.23237
1.58909
1.55788
3.80622
3.14926
2.74042
2.56456
2.46767
2.31696
2.37695
2.6888
3.35224
3.67198
2.82105
1.69208
1.08718
0.872872
0.941584
1.04509
1.13622
1.34542
1.57419
2.25316
2.38073
2.24167
1.79537
1.50194
1.256
1.21858
1.29078
1.74139
2.19549
3.55802
3.81807
3.59679
3.64295
3.97104
3.69591
3.4871
3.17388
3.53006
3.18506
2.51929
1.6201
1.06923
1.01416
1.11317
1.14584
1.15466
1.07668
1.0498
0.977911
0.952488
0.923304
0.899073
0.926655
1.11263
1.50034
1.69241
2.20586
2.9489
3.241
3.22428
2.72485
2.69159
2.23611
2.36747
2.74283
2.89953
2.76072
2.42584
1.92256
1.30521
1.02535
0.957759
0.905781
0.957281
1.09739
1.41213
2.26499
2.82318
2.86264
2.29241
1.77176
1.46931
1.43171
1.46007
1.46728
1.84462
2.53737
2.82253
2.00808
0.981748
0.720811
1.09328
1.62247
3.21872
4.19674
4.59448
4.7348
4.82584
4.84548
4.85818
4.84269
4.93716
4.9314
4.64477
4.75378
4.84335
4.77765
4.72436
4.72502
4.66907
4.66475
4.59613
4.33659
3.13209
2.28558
2.75257
3.3646
2.71215
1.57579
1.02455
5.40266
4.17176
5.58647
8.71148
10.1849
8.06072
5.52543
4.67557
5.51541
7.83121
10.1534
12.4551
12.5223
7.14069
1.98483
2.00181
2.34355
2.40867
2.33022
2.30889
2.39024
2.36478
2.20833
1.96347
1.9624
2.34995
3.29543
4.63059
5.43213
5.57701
5.1678
4.9009
5.06549
5.84933
6.7273
7.40386
7.00152
5.491
4.08093
3.53323
3.74982
3.95657
3.30659
2.27268
1.44431
1.33755
1.48904
1.45417
1.43937
1.61101
1.68123
1.76209
1.748
1.89811
1.96023
2.22591
2.26695
2.48162
2.48862
2.44914
2.18196
2.26743
2.39718
2.73753
2.90685
3.16847
2.99111
3.13338
3.2726
4.15067
4.75211
4.37049
4.67879
5.48301
4.38866
4.48715
4.52305
4.31496
4.14946
3.72622
2.81962
1.9535
1.57932
1.3754
1.71336
1.78803
2.10438
1.80776
1.90714
1.44129
1.6098
1.30407
1.44819
1.26164
1.23828
1.08294
1.06394
1.09369
1.23572
1.3322
1.37864
1.26323
1.21536
1.25929
1.48334
1.44172
1.45821
1.45207
1.38669
1.49097
1.70959
2.05471
2.47781
2.94124
3.23231
3.44027
3.55289
3.40379
3.42515
3.54677
3.78997
3.71426
3.9522
3.40113
2.87856
1.99621
1.81325
1.52891
1.67303
1.90613
2.7811
3.93534
4.66969
4.22124
1.9261
2.44076
2.72843
2.98325
2.83305
2.85566
3.16514
3.08793
3.2671
3.43012
3.07223
3.13672
3.12068
2.79779
3.16393
2.82604
2.44051
2.70929
2.58746
2.43365
2.40372
2.20924
2.06838
1.7938
1.55868
1.56609
1.55941
1.52157
1.45132
1.43086
1.90769
1.84333
1.42587
1.19192
1.28362
1.8819
2.13634
2.37038
2.28962
2.39474
2.30924
2.08084
1.35181
1.07863
0.86841
0.814865
0.890464
1.05662
1.14163
1.10428
1.02645
0.984688
0.974012
0.974481
0.980092
0.980774
0.962449
0.942856
0.995399
1.10768
2.19597
2.74636
2.76742
3.1005
3.335
3.34237
3.37675
3.33073
3.24195
3.09557
2.66029
2.18255
1.98052
2.11631
2.42563
2.35456
1.91176
1.74878
1.80949
1.89785
1.93735
2.11684
2.25459
2.33621
2.3074
2.51052
3.17982
2.85415
2.48353
2.9194
2.65511
2.84192
2.68987
2.68956
2.65475
2.59393
2.52288
2.42526
2.36568
2.61721
3.41991
4.23809
4.2321
3.85659
3.41711
2.77164
2.40428
2.10282
1.96569
1.82746
1.67463
1.52859
1.33363
1.19057
1.14124
1.11129
1.10469
1.12559
1.55208
1.55055
3.57824
3.00422
2.48986
2.3948
2.33687
2.25394
2.45018
3.03949
3.56396
3.38041
2.18556
1.29012
0.85064
0.901613
1.0226
1.23362
1.43034
1.54343
1.95367
2.28996
2.60815
2.44548
2.19325
1.77938
1.58744
1.4581
1.47848
1.7049
2.13184
3.65569
3.7127
3.47352
3.77274
3.7033
3.4345
3.01682
3.24911
3.54109
3.03678
2.0268
1.34029
0.994999
1.09179
1.2126
1.19929
1.11666
1.02258
0.909442
0.878551
0.869842
0.856193
0.867533
0.911464
1.07199
1.42675
1.61192
2.05949
2.79238
3.07728
3.09072
2.74464
2.51943
2.31515
2.82405
3.41239
3.62039
3.58976
3.35972
2.89597
2.39639
1.59962
1.05767
0.947467
0.97948
1.00242
1.14161
1.55785
2.63433
2.96909
2.62658
2.01359
1.60214
1.43012
1.40337
1.55849
2.01752
2.64861
2.77832
1.66176
0.870359
0.745601
1.14177
1.96929
3.45114
4.33679
4.61233
4.73671
4.74195
4.7644
4.83731
4.79684
4.70803
4.69862
4.94904
4.80083
4.83828
4.82245
4.81816
4.7785
4.68718
4.73381
4.63564
4.5347
3.61843
2.08901
2.333
2.76479
2.19794
1.40098
1.06865
5.29116
4.21634
6.39879
10.8492
12.4158
9.49142
6.3331
5.23796
5.76426
7.67442
10.1591
12.17
11.7417
7.47469
1.94755
2.04482
2.2637
2.22245
2.22996
2.39222
2.69997
2.94016
2.77244
2.32378
1.98373
2.2296
3.06132
4.34304
4.98573
4.93758
4.39818
4.32475
4.5202
5.47102
6.57479
7.25778
6.96324
5.57951
4.1674
3.72376
3.82925
3.87489
3.09532
2.23681
1.47972
1.36596
1.47393
1.49296
1.4952
1.50552
1.54903
1.55614
1.65731
1.703
1.86237
2.0743
2.20716
2.34538
2.51264
2.2401
2.01308
2.04751
2.27489
2.38016
2.49752
2.78995
2.66318
3.12529
3.40157
4.28312
4.51026
3.77261
4.06734
5.35514
4.42749
4.44909
4.40648
4.35148
4.32135
3.88082
3.33125
2.25188
1.52694
1.33801
1.51205
1.64748
2.01099
1.82526
1.90026
1.42315
1.5581
1.25252
1.39176
1.2079
1.25756
1.06472
1.10366
1.06096
1.23677
1.29243
1.3331
1.27258
1.22009
1.23256
1.38285
1.50525
1.45939
1.46164
1.40921
1.30751
1.55079
2.01536
2.49328
2.91791
3.18886
3.37934
3.23926
3.18366
3.3178
3.48206
3.7285
3.83003
4.30791
3.88712
3.7228
2.6824
2.25102
1.84209
1.79814
2.04799
2.7985
4.02699
4.53308
4.34104
1.65696
2.38736
2.80647
2.69995
2.73845
3.09931
2.94577
3.00358
3.0394
2.70837
2.82464
2.81191
2.53325
2.99578
2.79601
2.41996
2.54456
2.52686
2.31088
2.55967
2.32682
2.18233
1.93136
1.71872
1.65892
1.57905
1.56821
1.52494
1.50083
1.56903
1.90147
1.82559
1.3757
1.20795
1.5078
2.02537
2.25139
2.27269
2.27056
2.28381
2.32564
2.3754
1.9725
1.23611
0.941398
0.809462
0.835741
0.995292
1.11715
1.12878
1.08164
1.03578
1.00347
0.990355
1.01787
1.08985
1.15491
1.04591
1.01883
1.10686
2.03136
2.56086
2.77772
3.17093
3.31529
3.48959
3.5327
3.38287
3.09594
2.93521
2.82272
2.31807
1.95553
2.03806
2.29602
2.03722
1.71963
1.77163
1.99365
2.13768
2.42935
2.31394
2.42639
2.42869
2.35719
2.35266
2.98925
2.76733
2.37789
2.93592
2.57613
2.65397
2.59112
2.63151
2.64159
2.61387
2.46727
2.38986
2.32081
2.66428
3.60192
4.35018
4.32571
3.63836
2.84491
2.17393
1.87893
1.71383
1.48808
1.58343
1.65279
1.59325
1.45368
1.36329
1.25683
1.24176
1.16142
1.1725
1.70069
1.52424
3.58107
2.80195
2.34518
2.16169
2.25434
2.40657
2.72172
3.25026
3.67405
3.19369
1.9249
1.18206
0.88376
0.943106
1.06505
1.1947
1.36911
1.76689
2.08127
2.3027
2.37412
2.43318
2.1579
2.00678
1.78957
1.6981
1.70659
1.8156
2.25974
3.90934
3.50447
3.53485
3.636
3.43144
2.93882
2.97019
3.2611
3.46298
2.81115
1.72282
1.13367
1.03148
1.14072
1.23415
1.20322
1.08935
1.08237
0.869922
0.890082
0.837829
0.836658
0.836549
0.982282
1.11381
1.39265
1.57833
2.0792
2.71177
2.95216
2.96647
2.6019
2.41519
2.53332
3.30497
3.84189
3.98115
3.87006
3.76624
3.73951
3.37489
2.58903
1.70712
1.07651
1.09301
1.15251
1.06158
1.1833
1.91187
2.88353
2.98989
2.56743
2.13075
1.83342
1.79544
1.96665
2.39405
2.76072
2.70863
1.43382
0.885156
0.737436
1.11633
1.94235
3.46728
4.34834
4.59208
4.63613
4.78377
4.7386
4.82501
4.67797
4.79701
4.50292
4.39951
4.58151
4.79638
4.89566
4.77892
4.88364
4.69101
4.77563
4.69421
4.6262
4.16771
2.18861
1.82782
1.98091
1.67802
1.32284
1.15058
5.29702
4.15348
6.54744
12.0173
13.7939
11.0701
7.73395
6.35922
6.48313
8.03507
10.2819
11.6225
9.54057
5.50971
3.79764
1.73164
1.73598
2.12025
2.35659
2.28366
2.25703
2.41329
2.88285
3.41466
3.43334
2.75239
2.15646
2.09524
2.79682
4.0222
4.74172
4.6766
4.27185
4.24318
4.50852
5.56496
6.47598
6.85594
6.26144
5.1275
4.09128
3.79244
3.84942
3.48803
2.61812
2.16892
2.23297
2.11586
1.54059
1.40644
1.47815
1.56123
1.46487
1.42777
1.44707
1.53085
1.53306
1.70985
1.72934
2.02617
2.04769
2.29856
2.39731
2.23134
1.81226
1.96223
2.11757
2.22187
2.27123
2.5088
2.6532
3.09131
3.72727
4.29639
4.2749
3.44551
3.6095
4.84459
5.36769
4.99992
4.47329
4.27395
4.22067
4.2546
4.02336
3.99122
3.69573
2.65959
1.78287
1.29126
1.36231
1.50087
1.78677
1.92203
1.78137
1.40526
1.49151
1.18012
1.26028
1.13181
1.13985
1.08138
1.07409
1.12884
1.21594
1.30823
1.30348
1.27278
1.21824
1.21543
1.21622
1.22248
1.35065
1.44146
1.46471
1.47516
1.43713
1.34312
1.53957
1.93014
2.34272
2.81128
3.07882
3.11561
3.00554
3.10243
3.05573
3.2982
3.84704
3.88071
4.55818
4.1617
4.19315
3.29245
2.80933
2.12336
2.09426
2.2082
3.04466
4.03081
4.55233
3.87638
3.08921
1.87892
1.77559
2.42737
2.54697
2.66223
3.24468
3.32978
3.35014
3.30567
2.70028
2.57861
2.49191
2.23411
2.56408
2.62008
2.45447
2.60319
2.35488
2.17128
2.34296
2.2548
2.21514
2.05507
1.77592
1.8135
1.57897
1.5857
1.60976
1.61446
1.76391
2.03014
2.10842
1.75172
1.63315
1.64613
1.34975
1.28868
1.69474
2.15023
2.31424
2.34857
2.29182
2.15309
2.37356
2.54255
2.33007
1.59652
1.06748
0.839212
0.794848
0.905503
1.06953
1.12789
1.09603
1.01807
0.960274
0.970348
1.15058
1.74001
2.00954
1.62621
1.10427
1.10136
1.14143
1.8115
1.80094
2.3304
2.67079
3.0385
3.3848
3.44779
3.44018
3.34814
3.22368
2.89274
2.84652
2.32567
1.94108
1.96336
2.12705
1.89422
1.71598
2.02634
2.3006
2.52356
2.44335
2.43422
2.53696
2.50877
2.31723
2.3809
2.87871
2.61796
2.27856
2.76095
2.94208
3.59847
2.26363
2.44576
2.58513
2.701
2.67446
2.60511
2.50454
2.324
2.15929
2.61324
3.86869
4.55321
4.34944
3.22829
2.34124
1.89168
1.65922
1.53124
1.4663
1.63439
1.60267
1.60253
1.6415
1.50754
1.45139
1.33363
1.20786
1.26844
1.61473
1.48637
1.95835
2.91515
2.7478
2.21291
2.18342
2.3585
2.56622
3.02045
3.32302
3.41852
3.52296
3.14573
2.03549
1.23362
0.938043
0.958569
1.04762
1.16136
1.41649
1.44536
1.68609
1.73581
2.00894
2.02966
2.17617
2.15482
2.01015
1.90038
1.82728
1.89186
2.65303
4.68859
5.24199
3.29714
3.3837
3.35953
3.32179
2.87335
2.87378
2.97903
3.31115
3.32043
2.68381
1.5922
1.03968
1.04319
1.15858
1.24277
1.23629
1.16334
1.04525
0.9255
0.878239
0.83566
0.928476
0.86608
1.08686
1.21196
1.43806
1.58798
2.2467
2.71449
2.80337
2.82149
2.83611
3.08721
2.60534
2.38569
2.80649
3.6007
3.94558
3.89718
3.86508
3.85144
3.7328
3.45038
3.44238
2.78
1.68468
1.19238
1.44526
1.16517
1.08416
1.24978
2.33032
3.09852
3.07956
2.72768
2.49982
2.39697
2.50325
2.73728
2.90582
2.61714
1.26879
0.881568
0.967089
0.954442
0.725439
1.08545
1.91592
3.36567
4.30537
4.53221
4.68569
4.63542
4.72287
4.75882
4.7081
4.64184
4.53194
4.5659
4.3381
4.7348
4.94854
4.84636
4.74875
4.82926
4.7231
4.79295
4.63694
4.50447
2.89969
1.76007
1.66324
1.72433
1.94001
3.90897
5.33251
5.43183
5.334
4.04284
6.36881
12.2937
14.4335
12.3467
9.10774
7.77011
8.15237
9.57716
10.9039
9.11965
4.874
2.77152
2.23691
1.81289
2.30705
3.50514
4.13039
3.92772
3.32493
2.78479
2.7967
3.42727
3.71087
3.18884
2.34737
2.04332
2.53609
3.68763
4.55477
4.67882
4.34184
4.26724
4.49482
5.24455
5.84563
5.8962
5.26965
4.53951
4.0453
3.84399
3.60325
2.93281
2.31855
2.22305
2.21136
1.86263
1.48658
1.34905
1.37615
1.43711
1.5195
1.53639
1.49247
1.53594
1.53903
1.67078
1.66608
1.91516
1.95104
2.18879
2.39679
2.24268
1.74579
1.87989
2.13631
2.27845
2.38464
2.63
2.93122
3.26115
3.96344
4.29669
4.10335
3.37373
3.30608
4.01053
4.71919
5.29973
5.16638
4.51278
4.26366
4.08856
3.98655
3.95442
3.70008
3.3068
2.11662
1.3925
1.25941
1.23087
1.67772
1.6735
1.75417
1.40556
1.42813
1.14856
1.22481
1.11115
1.11788
1.10341
1.10816
1.19833
1.23986
1.3001
1.28817
1.27097
1.21763
1.21698
1.2199
1.22068
1.34411
1.43183
1.4744
1.46684
1.4588
1.34195
1.40017
1.79189
2.1831
2.57294
2.74164
2.94196
2.75252
2.9303
2.83416
3.03339
3.33463
3.59485
4.33236
4.03083
4.16116
3.47642
2.93487
2.5212
2.24787
2.5947
3.26589
4.14654
4.44286
4.0801
3.46593
2.64219
2.17582
2.25834
2.46421
2.87267
3.2687
3.91364
4.25149
3.50952
3.01151
2.51561
2.00754
2.20851
2.18832
2.2667
2.64211
2.42607
2.06886
2.22673
2.12502
2.04934
1.91915
1.82123
1.75444
1.65047
1.58846
1.73435
1.64488
1.80346
2.13026
2.08762
2.00729
1.83985
1.72451
1.65989
1.39474
1.39461
1.83851
2.19882
2.40712
2.42253
2.28855
2.41444
2.50465
2.46954
2.65196
2.20988
1.21715
0.906006
0.787088
0.822234
0.962992
1.05514
1.0345
0.945669
0.912072
1.04825
1.65687
2.25295
2.5081
2.43458
1.48806
1.12045
1.25199
2.63793
2.20939
2.34687
2.89597
3.2232
3.43999
3.48987
3.48785
3.22509
3.11153
3.00829
2.73278
2.55173
1.77796
1.92393
2.03758
1.67624
1.81105
2.38363
2.55177
2.69889
2.46965
2.34926
2.49695
2.27198
2.3741
2.49299
2.64457
2.50012
2.48859
3.1062
4.21954
3.72097
2.41909
2.45954
2.52036
2.60213
2.63441
2.66819
2.50571
2.37629
2.12271
2.49577
3.96443
4.74437
4.31449
3.116
2.16681
1.77984
1.71007
1.74143
1.77758
1.80852
1.81687
1.84997
1.81816
1.71029
1.5298
1.46936
1.34126
1.47309
1.65039
1.93575
2.91783
2.74519
2.30374
2.08268
2.39728
3.16647
3.99689
4.29619
4.10331
3.67066
3.45219
3.221
2.39355
1.46711
1.02646