/*--------------------------------*- C++ -*----------------------------------*\
| =========                 |                                                 |
| \\      /  F ield         | OpenFOAM: The Open Source CFD Toolbox           |
|  \\    /   O peration     | Version:  2.1.1                                 |
|   \\  /    A nd           | Web:      www.OpenFOAM.org                      |
|    \\/     M anipulation  |                                                 |
\*---------------------------------------------------------------------------*/
FoamFile
{
    version     2.0;
    format      ascii;
    class       volScalarField;
    location    "0.004500000";
    object      T;
}
// * * * * * * * * * * * * * * * * * * * * * * * * * * * * * * * * * * * * * //

dimensions      [0 0 0 1 0 0 0];

internalField   nonuniform List<scalar> 
12384
(
2997.85
2996.34
2998.96
3006.11
3006.55
3009.35
3008.88
3013.27
3015.83
3024.57
3025.1
3016.08
2924.07
2657.13
2715.49
2798.97
2794.52
2784.5
2762.07
2756.68
2743.21
2742.53
2738.6
2740.14
2743.69
2743.82
2746.78
2744.7
2748.51
2741.47
2749.78
2745.24
2752.47
2758.84
2764.93
2770.35
2780.99
2796
2833.62
2744.73
2565.57
2527.91
2565.63
2603
2981.37
2946.4
2926.72
2926.07
2931.46
2935.13
2943.26
2948.77
2952.07
2964.71
2954.43
2965.92
2949.53
2967.67
2957.13
2972.2
2971.84
2977.57
2980.35
2984.44
2986.27
2995.89
3009.71
3031.1
3057.55
3092.21
3092.4
3046.19
2907.86
2749.79
2973.31
2960.46
2941.21
2939.98
2934.03
2919.66
2915.29
2907.4
2896.97
2876.72
2881.74
2842.25
2857.68
2810.29
2835.87
2799.21
2820.33
2805.65
2819.45
2823.55
2823.98
2830.76
2836.6
2838.71
2839.11
2798.46
2784.52
2795.44
2802.63
2803.34
2776.26
2838.95
2860.99
2859.41
2852.63
2850.76
2845.98
2839.62
2830.7
2819.93
2813.07
2800.54
2797.67
2781.69
2795.15
2782.61
2793.67
2777.03
2809.04
2790.27
2848.38
2861.24
2861.53
2815.53
2801.72
2742.6
2664.7
2672.4
2708.2
2725.17
2794.14
2883.24
2882.83
2891.22
2871.3
2849.15
2828.51
2802.95
2773.29
2765.83
2742.84
2719.69
2718.97
2689.47
2695.39
2656.65
2664.97
2625.76
2634.98
2610.53
2619.72
2617.48
2629.36
2641.22
2658.63
2689.84
2735.46
2775
2786.08
2699.94
2695.05
2736.1
2773.61
2723.32
2707.95
2679.64
2690.9
2687.06
2679.55
2689.25
2689.82
2691.03
2702.29
2709.85
2712.72
2708.32
2700.78
2692.79
2686.51
2680.98
2673.96
2669.73
2668.97
2668.61
2671.26
2673.64
2678.11
2704.81
2777.26
2702.51
2368.7
2470.57
2711.47
2676.37
2674.81
2691.36
2681.38
2691.26
2695.41
2702.36
2705
2705.91
2705.42
2701.68
2704.52
2698.74
2705.46
2700.48
2706.69
2705.16
2721.28
2721.55
2744.43
2747.79
2761.66
2780
2799.74
2825.73
2854.77
2824.76
2520.65
2662.27
2717.24
2646.48
2684.72
2703.05
2725.39
2738.34
2745.87
2749.54
2750.47
2749.21
2741.47
2727.39
2706.46
2677.18
2644.59
2609.73
2581.07
2560.95
2535.2
2533.06
2512.75
2517.23
2506.48
2508.42
2498.16
2504.1
2524.33
2696.3
2692.97
2921.69
2935.95
2936.85
2943.78
2947.22
2951.1
2939.27
2907.94
2874.08
2854.91
2841.71
2837.33
2831.85
2830.25
2819.23
2822.64
2795.13
2798.05
2764.99
2769.87
2741.95
2748.53
2736.64
2745.45
2757.64
2778.07
2781.74
2778.49
2792.89
2974.59
2902.13
2891.65
2864.94
2832.76
2795.2
2796.46
2800.53
2842.82
2865.32
2884.59
2874.33
2872.7
2857.27
2854.65
2825.99
2810.43
2824.43
2812.39
2804.28
2861.57
2847.19
2902.54
2894.97
2873.72
2791.73
2744.51
2797.85
2876.39
2910.75
2433.7
2887.8
2740.72
2724.22
2744.99
2790.32
2823
2854.66
2859.53
2874.88
2868.45
2873.75
2873.13
2876.36
2876.77
2882.13
2886.02
2891.25
2896.57
2902.92
2901.62
2902.7
2896.33
2897.51
2894.31
2834.45
2787.16
2906.43
2348.57
2369.53
2175.25
2219.93
2254.52
2427.5
2843.02
2859.55
2747.89
2705.2
2680.29
2663.55
2651.37
2644.02
2637.96
2634.61
2630.35
2630.28
2633.25
2643.48
2660
2690.81
2735.65
2793.18
2850.6
2888.32
2936.75
2948.89
2644.83
2372.82
2297.76
2365.04
3020
3033.46
3038.05
3037.12
3033.89
3040.55
3036.92
3032.36
3026.16
3030.61
3033.48
3028.24
2991.49
2732.37
2712.22
2792.33
2748.34
2724.32
2716.71
2724.97
2731.09
2750.63
2755.86
2761.81
2758.83
2754.1
2746.05
2742.14
2740.86
2744.6
2748.14
2760.43
2771.98
2779.41
2791.5
2790.95
2793.75
2795.54
2820.84
2811.2
2722.52
2645.61
2582.63
2571.86
2972.31
2916.48
2904.83
2918.57
2927.29
2922.98
2903.19
2883.72
2865.56
2857.24
2852.9
2876.31
2905.4
2933.31
2950.23
2958.81
2964.21
2968.52
2970.45
2970.01
2959.39
2946.39
2955.47
2987.87
3028.94
3071
3094.31
3097.91
3058.96
2843.47
2968.54
2934.77
2934.27
2930.8
2919.24
2914.27
2911.91
2899.9
2900.26
2871.15
2868.86
2827.68
2842.6
2785.14
2809.98
2772.61
2792.31
2785.23
2793.08
2798.28
2811.94
2822.08
2829.83
2832.55
2836.54
2836.35
2802.83
2810.71
2833.26
2833.77
2753.86
2836.56
2867.97
2853.59
2850.36
2855.17
2846.65
2836.93
2795.61
2752.69
2722.21
2699.19
2686.02
2679.36
2696.06
2713.25
2744.56
2785.54
2811.77
2803.86
2821.79
2850.84
2872.54
2872.12
2825.9
2789.31
2749.38
2723.41
2748.55
2766.57
2842.25
2886.68
2893.11
2848.18
2812.41
2765.14
2737.51
2732.36
2729.11
2716.94
2725.99
2735.25
2744.98
2731.07
2747.15
2709.69
2713.48
2677.65
2669.68
2640.24
2626.09
2616.45
2606.42
2606.71
2618.02
2649
2698.26
2750.88
2783.94
2778.47
2703.53
2755.93
2759.56
2709.69
2698.08
2680.26
2660
2629.35
2659.66
2671.2
2680.85
2708.97
2715.25
2717.01
2695.41
2675.33
2676.79
2681.7
2682.09
2678.58
2670.15
2660.42
2651.99
2645.71
2642.31
2642.9
2647.97
2664.9
2753.86
2741.05
2470.17
2732.77
2702.67
2699.04
2703.24
2713.2
2706.17
2710.83
2719.57
2728.1
2737.11
2743.49
2747.72
2751.05
2755.26
2758.17
2762.18
2773.52
2779.38
2787.55
2805.6
2817.54
2824.78
2835.86
2838.12
2841.25
2846.41
2860.1
2868.68
2841.13
2793.18
2892.16
2687.08
2697.32
2759.49
2793.77
2806.38
2815.43
2820.07
2820.62
2816.43
2804.14
2792.82
2778.65
2758.89
2736.35
2710.66
2684.02
2657.57
2634.96
2615.36
2599.9
2595
2596.47
2598.44
2587.22
2555.54
2528.71
2531.79
2663.54
2861.72
2929.61
2936.7
2913.29
2939.18
2940.79
2910.29
2844.56
2798.88
2799.79
2830.45
2856.61
2877.07
2886.79
2894.07
2899.49
2906
2900.69
2891.65
2869.18
2855.99
2831.94
2803.85
2786.7
2764.08
2760.11
2769.56
2789.88
2793.98
2795.93
2982.86
2920.65
2931.54
2892.97
2841.07
2797.27
2823.77
2864.08
2912.32
2920.82
2921.22
2927.05
2917.36
2910.52
2923.54
2880.54
2906.63
2874.34
2888.64
2888.07
2924.33
2930.78
2959.7
2950.78
2933.79
2864.41
2778.03
2753.81
2790.18
2848.07
2893.58
2784.63
2733.37
2777.25
2842.81
2898.5
2905.98
2922.8
2913.52
2913.41
2901.19
2892.72
2881.28
2870.13
2871.1
2873.5
2883.81
2900.3
2925.82
2955.35
2983.19
2991.09
2987.13
2962.57
2935.27
2879.41
2800.42
2846.06
2821.2
2368.51
2200.26
2236.92
2363.58
2714.26
2900.75
2742.65
2668.71
2636.5
2621.56
2614.71
2610.79
2606.75
2603.4
2600.31
2596.36
2586.94
2574.67
2561.02
2549.62
2541.59
2538.43
2559.14
2604.33
2671.39
2729.97
2786.75
2930.92
2758.26
2362.32
2352.25
3023.65
2995.02
2950.05
2925.46
2920.72
2931.74
2970.73
3026.11
3043.75
3043.05
3044.2
3038.48
3012.82
2800.81
2711.27
2755.51
2712.16
2725.85
2767.63
2802.05
2823.37
2816.72
2796.5
2761.74
2731.19
2705.49
2693.31
2690.19
2700.17
2716.66
2739.89
2761.46
2787.2
2813.69
2834.77
2839.3
2833.17
2814.72
2817
2829.08
2814.39
2769.61
2664.05
2584.63
2956.37
2897.76
2908.76
2919.2
2888.34
2838.4
2801.39
2786.78
2798.19
2863.97
2910.03
2911.23
2900.36
2912.94
2921.22
2947.9
2954.92
2965.25
2965.38
2966.23
2965.62
2966.68
2947.83
2951.1
2990.65
3040.94
3082.93
3099.88
3086.17
2937.8
2960.41
2929.06
2936.53
2919.42
2913.03
2914.79
2911.41
2887.94
2886.98
2845.07
2858.73
2809.38
2830.85
2773.05
2797.01
2746.81
2761.01
2741.88
2757.23
2761.88
2766.85
2789.49
2806.61
2829.15
2833.56
2834.87
2833.84
2816.24
2833.94
2837.87
2732.83
2857.17
2850.43
2838.32
2840.45
2843.4
2824.58
2746.43
2677.95
2636.57
2607.45
2588.74
2595.13
2590.93
2614.11
2619.85
2651.78
2682.53
2758.26
2800.82
2841.51
2832.44
2852.57
2872.62
2865.13
2821.59
2792.24
2775.59
2779.42
2776.25
2856.91
2886.17
2841.66
2785.72
2747.65
2741.99
2751.88
2758.42
2764.88
2779.93
2816.81
2818.24
2836.96
2814.61
2816.32
2785.81
2792.12
2753.53
2754.47
2728.41
2703.15
2669.71
2640.38
2612.07
2598.21
2609.69
2652.09
2713.61
2764.56
2786.62
2708.6
2765.83
2743.39
2702.13
2693.41
2635.31
2634.05
2637.86
2643.05
2666.25
2697.07
2729.9
2694.33
2602.84
2577.8
2619.04
2689.39
2739.42
2760.46
2762.09
2750.8
2724.36
2688.97
2662.07
2641
2624.65
2614.55
2619.03
2709.31
2748.22
2631.27
2727.01
2707.23
2714.52
2705.75
2691.26
2676.58
2677.63
2687.78
2705.44
2725.55
2743.8
2760.89
2774.3
2789.25
2805.31
2821.29
2835.54
2858.36
2868.77
2886.15
2896.85
2911.6
2914.48
2921.21
2919.4
2914.69
2895.59
2888.04
2864.88
2976.06
2751.18
2694.08
2741.03
2770.17
2783.37
2797.25
2808.88
2812.97
2804.09
2796.33
2788.37
2785.08
2790.9
2793.24
2787.5
2772.79
2753.58
2735.77
2725.86
2719.25
2713.69
2729.83
2745.12
2758.95
2742.37
2680.35
2590.87
2540.63
2648.35
2910.94
2923.96
2889.57
2878.67
2945.38
2896.05
2801.78
2767.43
2790.8
2848.5
2874.18
2882.11
2891.47
2896
2903.59
2907.25
2915.86
2929.9
2939.96
2930.59
2922.97
2874.19
2875.72
2867.05
2839.79
2794.35
2779.66
2778.09
2785.97
2794.2
2980.01
2965.06
2985.66
2909.31
2837.61
2807.24
2852.85
2875.35
2876.67
2873.68
2903.3
2915.46
2932.52
2937.65
2935.49
2895.79
2887.42
2834.44
2844.07
2820.62
2859.77
2871.22
2934.18
2971.32
2979.05
2933.05
2838.57
2758.9
2755.63
2817.16
2816.44
2745.52
2782.71
2863.75
2911.83
2930.75
2936.97
2948.57
2948.32
2953.67
2943.69
2931.05
2901.23
2880.09
2856.61
2859.41
2867.74
2895.52
2941.1
2999.6
3020.09
2968.2
2945.25
2990.92
2996.54
2929.89
2827.4
2781.32
2938.78
2415.86
2217.13
2288.01
2551.82
2944.96
2764.28
2652.16
2623.07
2622.4
2631.37
2643.43
2656.76
2668.9
2674.61
2674.21
2668.17
2656.81
2638.62
2615.03
2587.45
2563.83
2549.49
2549.25
2610.63
2717.78
2814.26
2835.4
2849.14
2962.87
2536.71
2343.13
2982.61
2921.26
2890.71
2886.67
2894.15
2894.86
2903.16
2942.3
3022.82
3049.68
3049.59
3045.66
3020.41
2843.12
2708.58
2740.49
2756.66
2828.18
2867.87
2875.51
2847.11
2797.35
2742.93
2690.85
2647.48
2630.4
2642.03
2676.7
2722.09
2770.23
2803.95
2835.17
2858.41
2873.46
2892.75
2900.27
2892.36
2857.96
2833.89
2834.47
2843.7
2828.97
2732.3
2607.67
2941.83
2894.01
2904.31
2896.27
2842.31
2805.24
2826.48
2876.8
2885.21
2871.49
2850.64
2842.14
2851.36
2868.88
2907.68
2939.28
2955.3
2956.1
2961.14
2961.81
2966.42
2962.02
2958.55
2938.72
2964.31
3015.04
3066.5
3092.47
3090.72
2989.07
2936.12
2936.15
2928.1
2911.98
2913.01
2910.27
2899.41
2881.86
2866.16
2847.49
2861.75
2835.93
2842.84
2809.74
2810.24
2775.75
2781.31
2762.56
2756.41
2741.69
2742.94
2748.26
2775.55
2803.8
2833.31
2832.9
2835.63
2832.76
2831.66
2845.54
2760.78
2854.66
2831.39
2826.65
2833.82
2835.1
2795.18
2708.89
2650.05
2626.53
2627.76
2646.82
2669.22
2682.15
2693.8
2696.26
2688.86
2693.27
2722.3
2769.41
2838.39
2828.84
2839.91
2859.17
2870.51
2841.79
2808.56
2801.02
2802.38
2791.55
2860.84
2861.2
2800.38
2752.29
2755.83
2774.27
2776.99
2777.37
2806.32
2843.48
2848.42
2849.25
2849.22
2812.37
2821.71
2791.02
2785.35
2770.24
2767.3
2755.58
2743.12
2726.28
2686
2640.44
2600.6
2587.88
2615.04
2671.58
2737.39
2778.98
2716.92
2764.48
2727.87
2700.61
2652.31
2630.76
2628.21
2625.94
2652.06
2681.43
2731.29
2730.09
2624.01
2531.63
2517.65
2602.91
2730.89
2759.34
2768.5
2774.51
2774.17
2770.61
2728
2676.53
2639.28
2606.97
2580.45
2573.39
2664.94
2745.05
2736.13
2712.77
2712.54
2707.64
2680.18
2648.36
2638.43
2641.62
2654.87
2675.51
2704.81
2736
2763.13
2789.76
2818.7
2844.36
2871.89
2894.32
2908.42
2917
2912
2910.65
2915.83
2931.79
2935.6
2947.1
2954.69
2928.88
2877.31
2872.43
2880.96
2699.06
2697.67
2712.02
2707.15
2714.93
2743.38
2770.25
2786.84
2791.61
2796.35
2817.13
2849.34
2886.5
2908.5
2908.28
2894.3
2869.85
2839.85
2822.72
2810.25
2818.89
2833.7
2835.05
2778
2793.73
2822.03
2692.58
2577.93
2652.64
2920.36
2890.97
2859.54
2894.57
2915.5
2803.04
2767.7
2787.07
2831.71
2829.58
2837.61
2863.67
2893.32
2905.2
2901.11
2891.88
2879.35
2885.91
2896.65
2927.86
2936.17
2912.33
2814.11
2791.74
2840.19
2863
2812.89
2804.06
2817.89
2818.44
2980.65
3010.67
3006.16
2892.7
2823.74
2821.01
2836.49
2821.74
2838.44
2879.96
2931.25
2967.96
2967.87
2878.09
2870
2784.01
2799.79
2742.88
2736.92
2745.83
2758.63
2789.89
2822.21
2873.03
2947.25
2978.58
2894.53
2787.43
2747.85
2791.67
2784.74
2763.37
2844.72
2909.98
2934.94
2948.69
2964.93
2978.56
2977.55
2957.86
2939.38
2951.09
2964.07
2929.77
2887.46
2848.72
2843.15
2858.58
2919.54
3001.41
2968.79
2844.18
2813.94
2858.83
2976.17
2965.93
2844.69
2762
2872.83
2475.43
2230.62
2368.9
2786.9
2844.29
2676.54
2621.3
2619.78
2638.35
2666.02
2695.13
2715.38
2726.85
2733.93
2733.06
2722.95
2707.64
2687.4
2658.61
2626.03
2591.95
2570.03
2577.26
2648.73
2793.68
2914.8
2922.48
2862.83
2894.9
2757.04
2331.18
2957.91
2883.64
2884.37
2925.91
2948.77
2933.29
2907.96
2913.75
2980.83
3036.93
3052.69
3051.78
3021.74
2868.36
2705.47
2767.3
2832.3
2892.91
2900.32
2872.44
2832.81
2779.16
2721.99
2657.66
2625.64
2626.03
2692.53
2783.34
2869.36
2916.66
2944.69
2951.03
2958.55
2965.05
2974.92
2970.05
2961.25
2913.5
2866.5
2845.51
2853.06
2852.52
2769.69
2623.67
2926.62
2884.23
2890.67
2881.97
2867.32
2880.08
2877.34
2861.07
2836.14
2815.02
2794.86
2801.52
2808.08
2848.06
2897.87
2943.68
2945.78
2945.77
2939.61
2944.58
2947.33
2954.85
2960.6
2938.59
2950.27
3000.83
3054.11
3069.12
3076.42
3011.38
2919.8
2940.68
2919.39
2912.16
2908.51
2902.34
2897.79
2870.72
2850.44
2856.65
2866.33
2842.98
2842.55
2794.41
2801.17
2765.44
2780.45
2760.45
2760.65
2749.31
2728.45
2735.59
2747.8
2776.33
2815.51
2833.73
2831.51
2836.66
2831.13
2837.81
2851.87
2827.84
2810.91
2811.07
2823.64
2825.03
2779.8
2705.92
2668.59
2667.64
2689.37
2702.49
2705.48
2709
2719.27
2719.06
2727.69
2729.84
2742.51
2749.99
2812.33
2832.7
2843.14
2845.24
2871.53
2845.81
2818.62
2809.33
2806.87
2799.71
2852.57
2832.02
2765.35
2753.09
2782.61
2787.54
2775.29
2792.01
2831.05
2839.36
2846.43
2831.91
2807.93
2804.68
2808.37
2772.43
2788.92
2764.44
2748.86
2755.31
2753.6
2744.33
2722.39
2674.44
2617.29
2577.89
2585.18
2632.68
2703.49
2774.58
2725.88
2750.82
2711.67
2680.83
2619.02
2635.65
2616.18
2637.38
2668.9
2687.6
2718.55
2742
2653.88
2511.22
2472.5
2538.16
2691.27
2763.94
2771.69
2776.12
2782
2751.22
2691.39
2638.98
2598.01
2558.3
2529.29
2529.17
2621.61
2737.72
2741.45
2707.48
2705.68
2684.75
2645.85
2621.09
2614.09
2618.56
2630.41
2648.13
2680.52
2724.47
2764.69
2810.13
2857.31
2902.03
2932.04
2938.6
2928.15
2894.87
2852.1
2812.93
2801.91
2837.94
2895.49
2927.58
2963.73
2943.63
2852.2
2876.02
2811.63
2678.19
2665.71
2641.13
2615.4
2640.62
2689.14
2747.52
2789.2
2817.29
2842.5
2878.46
2925.39
2958.94
2958.44
2949.65
2936.74
2918.15
2899.01
2879.36
2863.38
2863.45
2812.03
2720.47
2614.88
2590.95
2731.03
2789.44
2617.9
2651.24
2919.72
2862.7
2877.11
2939.28
2836.59
2766.37
2772.65
2788.63
2780.06
2777.42
2852.77
2927.56
2876.68
2775.22
2756.9
2800.15
2859.8
2873.39
2886.52
2894.45
2930.83
2944.69
2879.56
2761.33
2757.24
2848.24
2868.65
2821.34
2822.75
2825.49
2992.67
3026.96
2989.8
2859
2812.67
2803.81
2774.42
2775.51
2859.18
2936.18
2983.03
2925.6
2867.73
2812.36
2849.68
2805.12
2818.48
2772.51
2762.4
2720.37
2714.28
2716.1
2759.24
2792.8
2860.16
2968.71
2935.29
2818.89
2748.62
2780.47
2771.68
2796.39
2886.6
2926.23
2943.44
2957.33
2970.67
2980.89
2979.16
2906.09
2838.11
2813
2851.53
2948.15
2940.61
2880.15
2822.61
2808.61
2856.82
2960.2
2972.66
2835.52
2793.85
2815.34
2931.44
2978.76
2844.14
2744.89
2847.59
2471.47
2248.48
2474.09
2958.5
2759.19
2634.03
2615.32
2632.32
2669.48
2711.52
2747.47
2773.73
2792.32
2801.89
2805.73
2795.46
2767.83
2736.59
2703.92
2667.93
2628.25
2587.51
2574.09
2664.94
2876.94
2975.23
2971.53
2897.94
2903.93
2803.58
2322.01
2944.21
2865.73
2916.57
2994.57
3021.79
2991.43
2928.65
2909.84
2958.79
3025.61
3046.84
3048.4
3021.51
2879.19
2710.88
2812.65
2887.83
2914.17
2907.44
2883.25
2865.25
2838.98
2777.82
2699.72
2644.58
2661.16
2765.39
2882.87
2960.64
2977.84
2982.23
2975.57
2981.92
2994.79
3006.49
3011.71
3005.82
2963.75
2900.87
2859.6
2858.06
2858.5
2775.98
2627.11
2920.38
2884.8
2879.23
2865.81
2858.04
2853.84
2837.15
2814.88
2791.8
2771.62
2772.06
2775.49
2798.81
2833.72
2906.24
2938.59
2923.48
2917.72
2927.23
2923.86
2936.02
2939.3
2953.44
2935.85
2942.01
2999.42
3040.46
3030.19
3042.48
3017.92
2912.86
2936.52
2918.63
2911.96
2904.32
2903.12
2894.09
2853.31
2842.88
2849.39
2870.31
2842.25
2832.71
2786.45
2797.63
2762.69
2782.58
2758.3
2754.02
2735.34
2724.75
2718.36
2728.73
2757.33
2799.59
2833.97
2829.11
2829.35
2838.17
2841.87
2811.87
2816.25
2807.99
2803.71
2815.22
2814.55
2765.53
2703.24
2681.92
2695.52
2703.53
2706.21
2721.57
2730.83
2737.02
2732.99
2736.87
2733.27
2745.89
2753.77
2788.87
2817.13
2845.73
2850.54
2865.81
2843
2814.69
2815.42
2802.58
2809.93
2846.28
2808.66
2754.33
2773.8
2801.2
2781.89
2779.14
2796.04
2803.55
2816.31
2813.22
2786.69
2797.01
2796.47
2779.21
2794.27
2765.65
2747.14
2746.73
2745.62
2744.13
2742.19
2726.39
2689.18
2628.36
2573.75
2570.53
2606.04
2681.14
2770.56
2719.79
2739.79
2701.01
2657.75
2621.98
2622.51
2619.94
2648.69
2666.25
2685.51
2694.78
2725.23
2737.52
2543.6
2433.29
2441.9
2576.73
2732.85
2778.28
2776.83
2715.15
2644.04
2592.64
2557.6
2541.75
2530.23
2521.15
2525.75
2611.34
2734.65
2730.9
2695.5
2689.49
2654.05
2620.03
2606.02
2606.47
2609.18
2614.66
2630.84
2654.89
2710.91
2768.29
2832.6
2897.44
2942.65
2959.11
2940.92
2867.8
2759.09
2681.32
2638.21
2625.16
2652.85
2749.57
2873.18
2947.3
2955.75
2831.05
2881.78
2768.77
2647.34
2609.86
2547.98
2532.08
2573.91
2642.89
2722.96
2797.89
2844.82
2874.89
2911.06
2957.77
2967.62
2964.66
2953.48
2932.48
2920.11
2895.33
2888.17
2863.13
2841.39
2779.55
2677.35
2581.27
2526.48
2598.78
2844.67
2658.83
2684.77
2908.87
2857.26
2917.98
2893.71
2789.97
2754.76
2753.63
2741.45
2740.88
2804.45
2918.15
2835.26
2691.46
2643.26
2685.98
2776.53
2847.53
2879.2
2875.46
2899.3
2918.63
2951.05
2945.38
2819.38
2735.48
2789.29
2908.49
2871.62
2866.36
2856.17
2999.33
3033.1
2948.44
2829.3
2780.08
2746.09
2712.45
2797.09
2906.5
2991.29
2957.65
2838.11
2852.04
2881.9
2916.95
2873.27
2855.29
2772.94
2748.29
2709.94
2690.23
2681.19
2705.92
2735.35
2805.85
2918.54
2954.87
2834.8
2747.61
2775.7
2768.63
2825
2902.79
2924.23
2933.37
2939.26
2945.92
2956.69
2967.38
2969.81
2887.53
2790.85
2764.32
2818.89
2937.42
2923.92
2839.07
2773.07
2786.01
2887.07
2989.83
2891.9
2826.15
2850.67
2953.18
2951.3
2815.46
2727.23
2842.87
2454.72
2263.28
2550.27
2918.67
2709.53
2621.3
2618.68
2653.86
2704.7
2754.8
2799.91
2836.92
2874.15
2901.65
2899.81
2887.37
2849.71
2798.3
2746.52
2705.75
2666.79
2618.34
2575.33
2618.72
2866.92
3002.62
2983.9
2934.88
2926.22
2824.53
2309.6
2930.87
2856.62
2954.1
3037.37
3050.62
3031.93
2948.2
2908.64
2950.12
3015.61
3040.66
3043.43
3017.84
2895.96
2730.48
2860.67
2913.19
2920.08
2917.83
2924.51
2937.56
2929.41
2878.69
2776.94
2681.89
2678.48
2778.98
2901.15
2957.87
2963.69
2940.06
2923.8
2930.72
2970.67
3003.79
3021.49
3018.46
2988.51
2922.74
2869.41
2861.36
2856.62
2767.28
2625.06
2906.17
2873.9
2864.79
2847.85
2833.14
2822.52
2803.02
2784.54
2763.07
2758.35
2760.09
2778.65
2795.83
2839.13
2909.94
2928.83
2884.92
2894
2910.61
2916.27
2918.65
2934.93
2931.92
2928.63
2941.92
3001.63
3026.7
2985.57
2995.66
3010.63
2908.88
2935.44
2920.32
2909.81
2906.93
2908.36
2893.69
2857.64
2829.39
2831.63
2870.88
2841.84
2832.48
2788.86
2796.23
2774.43
2781.3
2742.02
2740.85
2719.48
2716.01
2708.47
2718.84
2744.23
2782.41
2827.6
2826.11
2825.88
2830.1
2835.09
2823.33
2807.8
2783.74
2784.78
2805.39
2808.75
2755.54
2700.28
2689.86
2701.3
2704.14
2720.8
2739.2
2742.02
2748.86
2752.34
2755.15
2747
2757.07
2750.17
2782.61
2794.21
2836.55
2840.82
2863.97
2824.19
2810.65
2813.86
2803.38
2803.35
2841.2
2779.05
2750.42
2795.16
2800.96
2786.72
2788.99
2778.77
2787.83
2787.43
2765.32
2771.25
2774.38
2770.31
2791.42
2768.85
2742.74
2745.65
2727.11
2723.34
2732.99
2734.6
2731.23
2697.32
2631.18
2577
2553.9
2588.43
2680.83
2777.04
2715.25
2726.29
2688.4
2644.76
2619.22
2616.88
2630.92
2660.82
2667.81
2679.22
2681.63
2698.61
2739.19
2651.89
2442.8
2392.2
2483.41
2664.13
2747.29
2732.38
2661.38
2615.89
2605.65
2611.61
2619.44
2622.54
2601.97
2578.37
2621.29
2719.36
2709.69
2677.81
2664.13
2628.72
2604.63
2596.23
2597.61
2601.52
2607.35
2619.89
2637.35
2689.46
2767.21
2845.98
2924.56
2962.76
2962.11
2879.64
2733.03
2630.96
2579.66
2561.49
2553.49
2555.65
2621.22
2775.78
2922.4
2954.3
2807.07
2871.28
2727.59
2609.42
2536.63
2470.4
2464.06
2516.98
2600.65
2710.65
2805.66
2859.73
2897.59
2933.06
2970.72
2969.29
2963.35
2943.28
2932.82
2919.28
2902.51
2883.38
2866.31
2839.41
2784.74
2694.74
2599.01
2528.9
2559.83
2828.16
2682.05
2698.92
2892.85
2879.2
2933.51
2834.77
2767.1
2737.34
2722.34
2726.1
2756.74
2857.16
2922.66
2733.59
2626.17
2650.08
2759.81
2859.17
2898.14
2894.82
2908.7
2911.87
2937.09
2946.81
2966.77
2861.91
2747.69
2761.53
2901.85
2908.03
2896.4
2881.05
3007.79
3016.87
2891.88
2781.37
2726.22
2675.27
2711.69
2842
2954.61
2995.14
2888.9
2832.05
2909.2
2921.28
2936.25
2873.89
2821.5
2677.63
2667.17
2630.96
2640.26
2638.86
2674.68
2702.49
2776.41
2893.54
2961.43
2831.41
2741.69
2772.72
2775.08
2847.27
2903.62
2914.87
2918.62
2920.29
2922.31
2921.43
2916.88
2930.14
2963.96
2899.1
2780.33
2780.53
2855.64
2952.13
2893.85
2782.65
2733.78
2791.38
2903.79
2982.42
2947.12
2953.7
2976.47
2893.51
2767.04
2714.09
2862.45
2394.01
2272.21
2601.11
2886.63
2683.77
2619.16
2624.55
2672.27
2729.78
2787.51
2845.43
2898.12
2952.19
2995.56
3026.98
3008.21
2951.88
2872.23
2793.73
2732.07
2691.96
2660.27
2597.26
2564.56
2776.11
2998.16
3007.09
2965.17
2994.24
2655.84
2304.57
2920.68
2857.59
2988.78
3051.29
3048.83
3044.88
2977.99
2925.08
2944.32
2997.29
3034.6
3038.78
3011.05
2922.49
2744.37
2882.58
2922.65
2930.85
2942.27
2956.25
2972.05
2981.23
2958.84
2860.03
2729.98
2678.21
2752.28
2877.71
2928.71
2929.85
2895.43
2887.73
2900.21
2950.58
2997.48
3018.29
3017.11
2991.89
2921.37
2874.64
2861.82
2848.71
2747.06
2629.05
2907.82
2876.99
2863.61
2840.57
2816.49
2796.8
2782.67
2765.67
2757.42
2759.02
2770.28
2796.89
2810.62
2840.98
2917.62
2903.83
2852.92
2862.48
2889.96
2900.93
2906.74
2916.02
2900.9
2922
2950.4
3004.32
3012.68
2946.69
2960.86
3006.98
2912.06
2937.12
2914.04
2901.23
2891.31
2889.97
2903.5
2868.36
2819.31
2815.33
2859.55
2847.32
2835.08
2795.51
2799.75
2783.99
2782.21
2728.66
2726.31
2703.93
2707.86
2697.01
2718.42
2730.55
2774
2820.77
2822.4
2818.7
2829.92
2838.27
2831.76
2806.28
2785.05
2782.28
2792.94
2794.32
2742.2
2696.31
2692.42
2696.39
2706.36
2727.45
2733.86
2743.02
2750.71
2752.24
2755.56
2752.67
2767.02
2753.53
2778.97
2782.68
2809.81
2825.28
2828.87
2803.29
2804.99
2813.35
2794.13
2805.34
2821.31
2776.31
2760.54
2794.95
2809.83
2813.72
2792.3
2787.32
2779.75
2752.14
2747.27
2741.57
2742.41
2778.27
2764.85
2747.74
2747.8
2731.49
2711.92
2725.84
2726.86
2734.33
2725.85
2686.13
2625.94
2560.58
2545.09
2597.06
2687.4
2789.83
2709.2
2718.6
2679.43
2635.66
2612.17
2614.08
2641.5
2664.65
2674.74
2677.31
2674.11
2686.34
2714.41
2739.16
2518.75
2380.1
2411.41
2591.7
2718.61
2733.13
2695.65
2655.14
2626.85
2619.84
2653.17
2713.27
2723.04
2675.64
2639.45
2691.44
2692.52
2660.18
2643.58
2609.3
2590.3
2591.5
2592.54
2594.36
2596.55
2604.98
2625.75
2677.33
2767.33
2857.69
2943.77
2952.46
2927.38
2770.37
2646.8
2597.21
2606.69
2594.99
2571.42
2544.87
2572.25
2717.13
2906.19
2936.89
2788.21
2868.86
2706.51
2564.35
2471.8
2421.31
2431.01
2481.05
2569.83
2700.6
2817.59
2879.86
2904.48
2946.32
2978.83
2968.31
2949.22
2928.65
2924.38
2899.68
2871.6
2862.5
2852.89
2835.03
2797.01
2726.91
2636.72
2556.32
2556.19
2861.08
2712.74
2737.62
2896.5
2909.52
2903.7
2804.34
2769.18
2755.35
2744.72
2751.02
2799.23
2881.83
2898.04
2737.39
2648.74
2680.7
2794.39
2863.14
2898.2
2923.12
2933.85
2947.56
2954.93
2969.03
2957.72
2851.59
2748.96
2764.51
2895.1
2932.08
2929.4
2900.26
3007.77
2992.31
2831.36
2728.39
2665.74
2657.43
2735.01
2876.11
2976.95
2969.83
2858.89
2856.58
2933.67
2917.47
2939.68
2858.61
2796.91
2648.67
2645.28
2600.53
2615.35
2621.4
2665.82
2688.01
2774.54
2904.31
2937.67
2806.23
2735.28
2777.77
2770.58
2856.91
2900.79
2909.6
2913.47
2919.42
2917.67
2913.48
2910.32
2894.97
2890.62
2941.52
2911.92
2853.6
2903.74
2903.66
2952.57
2840.19
2716.6
2706.15
2784.17
2871.49
2929.68
2938.23
2893.16
2809.57
2716.4
2705.97
2901.27
2346.03
2271.7
2579.99
2886.36
2680.72
2619.53
2626.48
2679.31
2748.4
2811.05
2878.76
2942.61
3016.62
3060.38
3069.94
3069.13
3033.77
2947.43
2841.11
2754.81
2696.96
2681.95
2636.25
2552
2649.46
2984.43
2996.9
3008.62
2917.49
2557.4
2403.44
2917.85
2848.41
2997.47
3045.7
3037.11
3050.51
3017.85
2962.41
2953.89
2993.31
3029.11
3031.13
2999.09
2913.32
2871.44
2706.42
2784.83
2911.82
2940.42
2949.47
2952.07
2967.44
2989.52
3006.1
3002.2
2922.46
2785.21
2685.04
2721.01
2851.15
2914.47
2915.04
2889.73
2885.61
2906.52
2962.18
2997.38
3011.65
3004.86
2972.74
2908.36
2871.18
2857.36
2804.23
2691.92
2674.4
2786.75
2898.54
2910.09
2878.08
2863.26
2847.3
2815.63
2789.31
2776.59
2773.2
2774.95
2795.15
2810.38
2834.16
2830.55
2849.41
2913.93
2884.76
2815.93
2835.36
2847.5
2855.92
2857.51
2872.21
2886.77
2921.81
2969.16
3003.56
2998.24
2924.19
2927.2
2987.24
3011.09
2996.68
2918.61
2920.04
2903.6
2879.42
2861.31
2871.23
2889.23
2885.29
2835.23
2802.01
2840.34
2859.98
2837.23
2811.88
2796.39
2787.32
2788.91
2734.77
2727.33
2704.4
2701.1
2701.46
2712.24
2730.79
2770.33
2821.62
2817.96
2816.72
2823.41
2830.9
2831.58
2833.01
2821.23
2784.19
2762.23
2763.99
2780.03
2798.58
2747.54
2693.19
2689.88
2693.94
2704.83
2717.67
2726.24
2740.65
2740.29
2745.68
2755.07
2749.52
2767.22
2757.41
2777.98
2776.25
2795.64
2793.91
2798.04
2785.07
2809.65
2806.48
2793.14
2787.62
2807.43
2800.35
2794.54
2760.82
2754.92
2803.41
2837.93
2828
2825.7
2816.31
2773.97
2750
2722.55
2702.46
2741.03
2752.93
2746.05
2752.72
2735.02
2722.51
2728.12
2725.49
2734.1
2732.7
2704.6
2667.56
2591.64
2543.45
2561.48
2611.38
2718.5
2817.49
2748.3
2674.26
2693.84
2696.15
2660.05
2626.98
2606.29
2617.6
2649.69
2670.96
2680.83
2672.22
2679.71
2689.59
2696.77
2736.39
2640.7
2413.34
2366.05
2492.86
2667.39
2725.43
2700.04
2633.42
2589.69
2606.8
2729.6
2762.49
2752.06
2764.92
2699
2676.61
2690.18
2751.45
2664.35
2637.2
2617.04
2586.43
2583.12
2578.25
2576.64
2583.43
2601.46
2605.08
2618.2
2663.79
2765.64
2869.05
2938.06
2946.53
2861.67
2700.04
2632.28
2655.48
2672.56
2662.81
2635.2
2562.25
2567.1
2724.03
2938.61
2893.39
2767.7
2851.37
2850.31
2793.12
2648.34
2507.39
2426.38
2402.05
2408.54
2446.71
2537.4
2686.48
2826.77
2893.96
2917.06
2960.53
2982.19
2958.08
2934.94
2925.26
2891
2810.2
2764.73
2779.18
2791.03
2804.59
2800.81
2751.25
2675.31
2577.42
2603.87
2864.04
2736.49
2778.44
2929.3
2865.28
2869.4
2927.81
2872.85
2839.58
2838.21
2848.07
2834.39
2804.1
2811.15
2868.47
2901.96
2793.67
2686.02
2684.72
2770.67
2836.52
2877.97
2896.11
2923.24
2933.59
2950.41
2931.2
2896.13
2822.48
2760.55
2794.52
2892.48
2941.04
2938.31
2918.85
2961.62
2992.43
2993.64
2903.96
2744.7
2667.19
2653.54
2675.79
2755.86
2883.51
2979.01
2961.35
2856.55
2864.81
2931.84
2912.37
2925.7
2896.21
2841.5
2707.9
2649.88
2609.58
2636
2625.28
2686.91
2712.73
2827.36
2957.21
2888.21
2771.36
2731.99
2784.61
2848.13
2804.93
2783.27
2859.77
2898.84
2906.91
2926.22
2955.44
2977.05
2970.18
2936.03
2892.97
2878.75
2878.02
2936.36
2947.82
2957.66
2944.81
2917.87
2944.36
2777.9
2669.22
2680.82
2737.76
2788.11
2800.17
2775.14
2721.99
2683.8
2724.93
2932.88
2364.62
2465.43
2453.21
2292.37
2577.26
2904.11
2692.57
2619.5
2621.66
2680.46
2743.56
2817.78
2886.35
2957.04
3023.41
3062.36
3087.23
3069.22
3057.31
2977.99
2873.32
2763.2
2700.48
2677.08
2664.71
2571.96
2551.75
2880.04
2988.6
2954.31
2911.52
2986.37
2845.51
2552.51
2526.81
2914.03
2834.2
2988.76
3042.32
3029.84
3043.37
3040.85
3004.23
2997.22
3019.49
3029.48
3004.38
2904.8
2794.54
2766.44
2778.75
2894.72
2973.92
2994.68
2993.2
2985.83
2978.82
2990.26
3013.44
3019.67
2950.8
2829.16
2704.06
2695.14
2818.86
2902
2916.74
2895.1
2891.19
2911.99
2955.9
2982.48
2988.85
2971.5
2933.27
2890.76
2863.79
2820.7
2732.24
2669.09
2748.76
2874.6
2909.82
2902.42
2870.79
2864.34
2855.77
2851.87
2842.49
2829.25
2829.26
2835.98
2851.95
2853.77
2869.05
2848.98
2850.56
2913.83
2873.84
2796.68
2807.12
2828.89
2847.16
2856.76
2881.3
2908.02
2937.84
2982.84
3003.09
2984.06
2924.44
2901.84
2939.82
2981.64
3027.71
2996.2
2927.18
2892.53
2859.67
2849.39
2853.4
2864.21
2899.22
2858.54
2805.01
2811.93
2847.06
2857.51
2814.21
2802.66
2783.36
2804.6
2756.81
2742.46
2716.35
2707.86
2706.44
2714.14
2742.51
2784.33
2824.86
2814.74
2812.76
2823.1
2828.42
2829.32
2825.79
2824.12
2791.14
2777.56
2768.46
2772.02
2791.43
2759.19
2698.75
2690.2
2693.4
2695.78
2709.67
2709.68
2730.99
2731.44
2742.39
2744.13
2741.18
2761.4
2752.95
2774.48
2777.26
2781.24
2784.34
2774.47
2784.66
2807.64
2803.44
2785.24
2790.82
2785.63
2806.85
2804.94
2753.7
2752.77
2814.5
2835.02
2853.57
2864.13
2830.32
2807.73
2755.51
2696.7
2694.94
2710.98
2735.61
2754
2728.61
2713.59
2730.51
2727.71
2724.32
2716.84
2697.89
2663.76
2611.45
2558.68
2566.44
2582.49
2651.56
2762.93
2812.33
2726.72
2676.68
2690.28
2687.55
2647.25
2622.56
2604.66
2617.4
2653.01
2675.96
2676.14
2681.98
2691.2
2688.14
2704.01
2721.73
2739.42
2483.99
2356.42
2395.86
2548.13
2648.07
2632.06
2558.91
2536.76
2657.04
2768.05
2720.65
2706.07
2729.66
2758.68
2714.3
2764.59
2777.63
2670.86
2623.73
2612.06
2586.88
2583.15
2581.9
2580.9
2577.4
2598.44
2616.58
2612.26
2668.24
2763.54
2875.36
2930.16
2936.2
2797.38
2681.74
2672.63
2727.36
2705.98
2653.57
2601.98
2562.29
2637.1
2839.51
2951.23
2827.83
2782.78
2858.61
2866.22
2762.85
2601.58
2459.74
2390.12
2377.9
2386.51
2415.72
2490.97
2654.26
2839.26
2911.37
2922.87
2967.36
2981.99
2956.41
2929.57
2926.79
2826.01
2729.24
2696.14
2712.8
2753.54
2790.15
2797.99
2756.24
2670.06
2616.24
2732.9
2845.23
2787.31
2908.99
2911.62
2873.43
2896.52
2909.4
2893.95
2918.72
2952.16
2946.36
2910.9
2850.82
2813.91
2848.76
2901.96
2870.69
2763.47
2702.58
2736.32
2799.92
2838.18
2867.13
2879.06
2890.57
2903.29
2893.23
2864.82
2823.53
2788.63
2820.47
2867.68
2924.38
2945.13
2944.31
3007.97
2997.37
2930.04
2782.47
2690.8
2696.17
2719.06
2712.5