/*--------------------------------*- C++ -*----------------------------------*\
| =========                 |                                                 |
| \\      /  F ield         | OpenFOAM: The Open Source CFD Toolbox           |
|  \\    /   O peration     | Version:  2.1.1                                 |
|   \\  /    A nd           | Web:      www.OpenFOAM.org                      |
|    \\/     M anipulation  |                                                 |
\*---------------------------------------------------------------------------*/
FoamFile
{
    version     2.0;
    format      ascii;
    class       volScalarField;
    location    "0.001450000";
    object      c;
}
// * * * * * * * * * * * * * * * * * * * * * * * * * * * * * * * * * * * * * //

dimensions      [0 0 0 0 0 0 0];

internalField   nonuniform List<scalar> 
12384
(
0.257398
0.14541
0.0463826
0.00803315
0.000485637
6.89217e-05
1.3847e-05
3.43261e-06
3.85314e-07
9.1799e-09
1.87251e-10
4.46458e-12
4.5629e-14
3.60759e-16
1.08466e-14
1.78943e-12
3.91716e-10
3.79606e-08
7.79633e-07
2.89298e-06
3.93897e-06
3.58915e-06
2.34827e-06
6.24989e-07
8.93354e-08
1.48973e-08
1.87009e-10
7.87371e-13
3.33219e-15
4.17831e-18
5.40444e-21
8.37253e-24
1.20128e-26
1.72538e-29
2.45677e-32
3.60411e-35
5.45585e-38
8.53429e-41
1.38613e-43
2.32824e-46
4.06573e-49
7.36717e-52
1.37219e-54
2.52808e-57
1.49802e-71
3.14053e-72
6.47523e-74
2.51588e-75
2.91892e-77
1.93109e-79
7.75509e-82
2.00107e-84
2.7292e-87
2.40686e-90
2.25034e-93
2.21691e-96
2.25506e-99
2.24129e-102
2.24462e-105
2.17763e-108
2.07764e-111
1.97089e-114
1.83811e-117
1.70542e-120
1.5741e-123
2.63878e-126
5.13853e-129
6.77943e-132
7.543e-135
7.72373e-138
7.39502e-141
6.80868e-144
5.97066e-147
5.0969e-150
2.3933e-159
4.24606e-161
4.97344e-164
3.37194e-167
1.00598e-172
6.36104e-178
4.79235e-182
4.60333e-186
3.07494e-190
1.86657e-194
7.35965e-199
1.84348e-203
3.40572e-208
5.18632e-213
6.94974e-218
2.01833e-222
2.13293e-225
3.61587e-228
5.80924e-231
9.27807e-234
1.431e-236
2.19641e-239
3.31218e-242
5.17324e-245
7.93118e-248
1.25178e-250
2.02642e-253
3.69363e-256
8.20531e-259
1.55209e-261
4.0982e-279
1.18756e-278
1.5853e-280
4.92764e-283
1.59999e-285
4.43836e-288
1.07279e-290
2.39032e-293
5.05043e-296
1.02754e-298
2.04544e-301
3.986e-304
7.50578e-307
1.3403e-309
2.2752e-312
3.73823e-315
6.00771e-318
0
0
0
0
0
0
0
0
0
0
0
0
0
0
0
0
0
0
0
0
0
0
0
0
0
0
0
0
0
0
0
0
0
0
0
0
0
0
0
0
0
0
0
0
0
0
0
0
0
0
0
0
0
0
0
0
0
0
0
0
0
0
0
0
0
0
0
0
0
0
0
0
0
0
0
0
0
0
0
0
0
0
0
0
0
0
0
0
0
0
0
0
0
0
0
0
0
0
0
0
0
0
0
0
0
0
0
0
0
0
0
0
0
0
0
0
0
0
0
0
0
0
0
0
0
0
0
0
0
0
0
0
0
0
0
0
0
0
0
0
0
0
0
0
0
0
0
0
0
0
0
0
0
0
0
0
0
0
0
0
0
0
0
0
0
0
0
0
0
0
0
0
0
0
0
0
0
0
0
0
0
0
0
0
0
0
0
0
0
0
0
0
0
0
0
0
0
0
0
0
0
0
0
0
0
0
0
0
0
0
0
0
0
0
0
0
0
0
0
0
0
0
0
0
0
0
0
0
0
0
0
0
0
0
0
0
0
0
0
0
0
0
0
0
0
0
0
0
0
0
0
0
0
1
1
0.282575
0.068467
0.0160928
0.00265301
0.000490369
0.000181779
3.12266e-05
6.82703e-07
1.70985e-08
4.93237e-10
4.18303e-12
2.87123e-14
5.32763e-13
2.79072e-10
1.69081e-07
1.79872e-05
0.000811935
0.00236991
0.00251599
0.0025993
0.00205227
0.00083054
4.23181e-05
7.81963e-06
2.18935e-07
5.25802e-10
2.60663e-12
3.76028e-16
4.63054e-19
2.59129e-21
1.75613e-24
9.55156e-28
6.98935e-31
5.62164e-34
5.26957e-37
5.52902e-40
7.01775e-43
9.2059e-46
1.27012e-48
1.79506e-51
2.58859e-54
3.97813e-57
1.51874e-68
2.62806e-69
5.38693e-71
2.87582e-72
3.35174e-74
2.05565e-76
7.87305e-79
1.97573e-81
2.683e-84
6.20867e-88
2.89264e-91
2.77597e-94
2.70259e-97
2.77173e-100
2.64323e-103
2.65951e-106
2.68186e-109
2.90106e-112
3.22224e-115
3.68488e-118
4.07932e-121
1.48572e-123
4.63542e-126
5.72287e-129
5.85156e-132
5.63594e-135
5.01271e-138
4.24762e-141
3.38055e-144
2.61646e-147
3.22344e-156
5.38192e-158
5.22904e-161
4.54052e-164
2.46646e-167
1.92762e-172
1.47633e-176
1.39555e-180
9.57034e-185
7.53604e-189
3.10742e-193
7.7108e-198
1.37032e-202
1.97554e-207
2.56039e-212
2.90854e-217
4.68634e-222
3.02674e-225
4.75385e-228
7.45462e-231
1.15464e-233
1.77475e-236
2.724e-239
4.19681e-242
6.53896e-245
1.01912e-247
1.65853e-250
2.91604e-253
6.13764e-256
1.06858e-258
7.73759e-276
1.03006e-275
1.41367e-277
4.66631e-280
1.63305e-282
4.85103e-285
1.24539e-287
2.9261e-290
6.45656e-293
1.36236e-295
2.77812e-298
5.47747e-301
1.02977e-303
1.8188e-306
3.02701e-309
4.82191e-312
7.43396e-315
1.10392e-317
0
0
0
0
0
0
0
0
0
0
0
0
0
0
0
0
0
0
0
0
0
0
0
0
0
0
0
0
0
0
0
0
0
0
0
0
0
0
0
0
0
0
0
0
0
0
0
0
0
0
0
0
0
0
0
0
0
0
0
0
0
0
0
0
0
0
0
0
0
0
0
0
0
0
0
0
0
0
0
0
0
0
0
0
0
0
0
0
0
0
0
0
0
0
0
0
0
0
0
0
0
0
0
0
0
0
0
0
0
0
0
0
0
0
0
0
0
0
0
0
0
0
0
0
0
0
0
0
0
0
0
0
0
0
0
0
0
0
0
0
0
0
0
0
0
0
0
0
0
0
0
0
0
0
0
0
0
0
0
0
0
0
0
0
0
0
0
0
0
0
0
0
0
0
0
0
0
0
0
0
0
0
0
0
0
0
0
0
0
0
0
0
0
0
0
0
0
0
0
0
0
0
0
0
0
0
0
0
0
0
0
0
0
0
0
0
0
0
0
0
0
0
0
0
0
0
0
0
0
0
0
0
0
0
0
0
0
0
0
0
0
0
0
0
0
0
0
0
0
0
0
0
1
1
0.475922
0.234152
0.13448
0.0835544
0.0466875
0.0204788
0.00345686
8.89959e-05
2.42227e-06
5.93899e-08
3.59462e-10
1.39984e-12
1.44759e-10
3.39707e-07
0.000265126
0.0119667
0.0592785
0.0861521
0.0958139
0.0982537
0.0856477
0.0624684
0.0291335
0.010361
0.00159392
2.45969e-05
2.05026e-07
2.70245e-11
2.96789e-14
2.35177e-17
3.29808e-21
7.21034e-25
6.52924e-28
4.00716e-31
1.65383e-34
1.14265e-38
2.28196e-40
1.55831e-43
2.37507e-46
2.39144e-49
2.83909e-52
8.11232e-55
5.33683e-65
1.05998e-65
1.96546e-67
1.45156e-68
1.74274e-70
1.03374e-72
3.70765e-75
8.92295e-78
1.33478e-80
8.44034e-85
8.00072e-88
7.26368e-91
6.24545e-94
5.39456e-97
4.48509e-100
3.95933e-103
3.52377e-106
3.4303e-109
3.45934e-112
3.67219e-115
3.68609e-118
7.58982e-121
5.17911e-123
4.99311e-126
4.35815e-129
3.90142e-132
2.93554e-135
2.11241e-138
1.05869e-141
3.94381e-145
6.80961e-153
1.10818e-154
9.8381e-158
7.63561e-161
5.30837e-164
3.43301e-167
3.2049e-171
3.0281e-175
2.58174e-179
2.62803e-183
1.11205e-187
2.75454e-192
4.83602e-197
6.5906e-202
8.25599e-207
9.31604e-212
9.34384e-217
9.66277e-222
2.24349e-225
3.24719e-228
4.86854e-231
7.43132e-234
1.13895e-236
1.74939e-239
2.69254e-242
4.21184e-245
6.88659e-248
1.21531e-250
2.50994e-253
4.25658e-256
1.50279e-272
6.63136e-273
7.16175e-275
2.72865e-277
9.78348e-280
2.94313e-282
7.74728e-285
1.84908e-287
4.14038e-290
8.77058e-293
1.78814e-295
3.47941e-298
6.45973e-301
1.12156e-303
1.83191e-306
2.81441e-309
4.09298e-312
5.62418e-315
7.43626e-318
0
0
0
0
0
0
0
0
0
0
0
0
0
0
0
0
0
0
0
0
0
0
0
0
0
0
0
0
0
0
0
0
0
0
0
0
0
0
0
0
0
0
0
0
0
0
0
0
0
0
0
0
0
0
0
0
0
0
0
0
0
0
0
0
0
0
0
0
0
0
0
0
0
0
0
0
0
0
0
0
0
0
0
0
0
0
0
0
0
0
0
0
0
0
0
0
0
0
0
0
0
0
0
0
0
0
0
0
0
0
0
0
0
0
0
0
0
0
0
0
0
0
0
0
0
0
0
0
0
0
0
0
0
0
0
0
0
0
0
0
0
0
0
0
0
0
0
0
0
0
0
0
0
0
0
0
0
0
0
0
0
0
0
0
0
0
0
0
0
0
0
0
0
0
0
0
0
0
0
0
0
0
0
0
0
0
0
0
0
0
0
0
0
0
0
0
0
0
0
0
0
0
0
0
0
0
0
0
0
0
0
0
0
0
0
0
0
0
0
0
0
0
0
0
0
0
0
0
0
0
0
0
0
0
0
0
0
0
0
0
0
0
0
0
0
0
0
0
0
0
0
1
1
1
1
0.999907
0.999734
0.562229
0.314762
0.141621
0.0388355
0.0017134
2.79191e-05
8.21303e-08
1.59571e-10
2.30536e-07
0.00061834
0.0372428
0.239212
1
1
1
1
1
1
0.457024
0.216505
0.0969216
0.0183729
0.000412549
2.50697e-06
3.48315e-09
2.92029e-12
4.52684e-16
9.08593e-20
9.4509e-23
6.87593e-26
3.00017e-29
1.93183e-33
8.53653e-37
3.7583e-40
3.10372e-43
1.00069e-46
5.9882e-50
6.02915e-52
7.53216e-61
1.05557e-61
1.19337e-63
1.02532e-64
1.30249e-66
7.92064e-69
3.04269e-71
8.62975e-74
1.58095e-76
2.07381e-79
2.16005e-82
2.02188e-85
1.75191e-88
1.52152e-91
1.2655e-94
1.10366e-97
9.69788e-101
9.05175e-104
9.07193e-107
9.26636e-110
9.37325e-113
8.98864e-116
7.84135e-119
6.66467e-122
5.01208e-125
3.68358e-128
2.34543e-131
1.38828e-134
6.30206e-138
2.09679e-141
1.51105e-148
2.22395e-150
1.91359e-153
1.42209e-156
9.69147e-160
6.43632e-163
4.33956e-166
4.27107e-170
7.02823e-174
7.1722e-178
3.1184e-182
8.1518e-187
1.52649e-191
2.07744e-196
2.56569e-201
2.92707e-206
3.05084e-211
2.83687e-216
2.3841e-221
1.61409e-225
2.29278e-228
3.56418e-231
5.56726e-234
8.55853e-237
1.32831e-239
2.0657e-242
3.33809e-245
5.63849e-248
1.06769e-250
1.67635e-253
3.42487e-269
4.50874e-270
3.31209e-272
1.42003e-274
4.67286e-277
1.29708e-279
3.16704e-282
7.09008e-285
1.48215e-287
2.96722e-290
5.67887e-293
1.05382e-295
1.87869e-298
3.26359e-301
5.49638e-304
9.04516e-307
1.4339e-309
2.20281e-312
3.27585e-315
4.734e-318
0
0
0
0
0
0
0
0
0
0
0
0
0
0
0
0
0
0
0
0
0
0
0
0
0
0
0
0
0
0
0
0
0
0
0
0
0
0
0
0
0
0
0
0
0
0
0
0
0
0
0
0
0
0
0
0
0
0
0
0
0
0
0
0
0
0
0
0
0
0
0
0
0
0
0
0
0
0
0
0
0
0
0
0
0
0
0
0
0
0
0
0
0
0
0
0
0
0
0
0
0
0
0
0
0
0
0
0
0
0
0
0
0
0
0
0
0
0
0
0
0
0
0
0
0
0
0
0
0
0
0
0
0
0
0
0
0
0
0
0
0
0
0
0
0
0
0
0
0
0
0
0
0
0
0
0
0
0
0
0
0
0
0
0
0
0
0
0
0
0
0
0
0
0
0
0
0
0
0
0
0
0
0
0
0
0
0
0
0
0
0
0
0
0
0
0
0
0
0
0
0
0
0
0
0
0
0
0
0
0
0
0
0
0
0
0
0
0
0
0
0
0
0
0
0
0
0
0
0
0
0
0
0
0
0
0
0
0
0
0
0
0
0
0
0
0
0
0
0
0
1
1
1
1
1
1
1
1
1
0.528885
0.110237
0.0178842
5.94068e-05
6.74669e-08
3.49163e-05
0.0201598
0.306335
1
1
1
1
1
1
1
1
1
1
0.364133
0.0587725
0.00227228
5.34709e-06
7.53177e-09
8.38089e-12
1.01986e-14
1.28458e-17
1.13576e-20
5.31476e-24
3.27728e-28
1.64187e-31
6.86602e-35
1.89729e-39
1.23367e-43
6.10377e-47
8.49529e-49
4.62675e-57
3.04308e-58
1.70278e-60
1.47514e-61
1.89306e-63
1.21e-65
5.23908e-68
2.03724e-70
5.16747e-73
8.84443e-76
1.17689e-78
1.33167e-81
1.37457e-84
1.36357e-87
1.29496e-90
1.21773e-93
1.15681e-96
1.1069e-99
1.1643e-102
1.18676e-105
1.29754e-108
1.26055e-111
1.17888e-114
1.01308e-117
7.80607e-121
5.74775e-124
3.66615e-127
2.09813e-130
9.75916e-134
3.43154e-137
1.95215e-144
2.80373e-146
2.58317e-149
1.91169e-152
1.32006e-155
8.92886e-159
6.24773e-162
4.54386e-165
1.8809e-168
1.35157e-172
5.45754e-177
1.40766e-181
2.69878e-186
3.94302e-191
5.10905e-196
6.10461e-201
6.7821e-206
6.94407e-211
6.20443e-216
4.73994e-221
8.46298e-226
8.32677e-229
1.26309e-231
1.91467e-234
2.91881e-237
4.45956e-240
6.97243e-243
1.12561e-245
1.98668e-248
2.94149e-251
7.88398e-266
3.29235e-267
1.73422e-269
6.53585e-272
1.93485e-274
4.88857e-277
1.10916e-279
2.32692e-282
4.65003e-285
8.88478e-288
1.64855e-290
2.94818e-293
5.14828e-296
8.71082e-299
1.45061e-301
2.34529e-304
3.70835e-307
5.67312e-310
8.44207e-313
1.21552e-315
1.70474e-318
0
0
0
0
0
0
0
0
0
0
0
0
0
0
0
0
0
0
0
0
0
0
0
0
0
0
0
0
0
0
0
0
0
0
0
0
0
0
0
0
0
0
0
0
0
0
0
0
0
0
0
0
0
0
0
0
0
0
0
0
0
0
0
0
0
0
0
0
0
0
0
0
0
0
0
0
0
0
0
0
0
0
0
0
0
0
0
0
0
0
0
0
0
0
0
0
0
0
0
0
0
0
0
0
0
0
0
0
0
0
0
0
0
0
0
0
0
0
0
0
0
0
0
0
0
0
0
0
0
0
0
0
0
0
0
0
0
0
0
0
0
0
0
0
0
0
0
0
0
0
0
0
0
0
0
0
0
0
0
0
0
0
0
0
0
0
0
0
0
0
0
0
0
0
0
0
0
0
0
0
0
0
0
0
0
0
0
0
0
0
0
0
0
0
0
0
0
0
0
0
0
0
0
0
0
0
0
0
0
0
0
0
0
0
0
0
0
0
0
0
0
0
0
0
0
0
0
0
0
0
0
0
0
0
0
0
0
0
0
0
0
0
0
0
0
0
0
0
0
1
1
1
1
1
1
1
1
1
1
1
0.355404
0.0228318
3.46448e-05
0.000476235
0.0696454
1
1
1
1
1
1
1
1
1
1
1
1
0.487632
0.0739725
0.00264199
5.58925e-06
1.00626e-08
1.85721e-11
3.13596e-14
4.49411e-17
4.97508e-20
4.58668e-23
2.9304e-26
1.14227e-29
2.99688e-34
1.55363e-38
2.74e-43
2.98284e-45
1.29415e-53
4.01326e-55
1.25153e-57
1.20119e-58
1.64225e-60
1.01147e-62
3.98571e-65
1.79115e-67
5.76931e-70
1.36571e-72
2.41771e-75
3.49175e-78
4.44101e-81
5.24424e-84
5.82214e-87
6.19174e-90
6.43522e-93
6.67256e-96
7.1593e-99
7.66448e-102
8.80445e-105
8.99453e-108
9.10601e-111
8.19369e-114
6.92852e-117
5.41875e-120
3.72871e-123
2.26353e-126
1.10043e-129
4.19836e-133
1.15743e-140
1.62273e-142
1.63569e-145
1.27423e-148
9.05279e-152
6.39479e-155
4.62772e-158
3.54713e-161
2.88149e-164
2.15648e-167
7.51265e-172
1.72957e-176
3.03635e-181
4.32508e-186
5.61225e-191
6.95961e-196
8.51113e-201
1.00567e-205
1.04694e-210
9.18651e-216
6.65129e-221
5.53965e-226
2.37184e-229
3.42681e-232
5.0336e-235
7.35869e-238
1.09695e-240
1.68207e-243
2.78734e-246
3.84435e-249
1.83428e-262
3.57417e-264
9.58604e-267
3.00581e-269
7.83319e-272
1.80474e-274
3.78024e-277
7.47501e-280
1.40876e-282
2.5716e-285
4.52516e-288
7.78405e-291
1.29974e-293
2.13729e-296
3.4253e-299
5.3852e-302
8.20989e-305
1.22526e-307
1.77233e-310
2.50488e-313
3.44294e-316
4.64115e-319
0
0
0
0
0
0
0
0
0
0
0
0
0
0
0
0
0
0
0
0
0
0
0
0
0
0
0
0
0
0
0
0
0
0
0
0
0
0
0
0
0
0
0
0
0
0
0
0
0
0
0
0
0
0
0
0
0
0
0
0
0
0
0
0
0
0
0
0
0
0
0
0
0
0
0
0
0
0
0
0
0
0
0
0
0
0
0
0
0
0
0
0
0
0
0
0
0
0
0
0
0
0
0
0
0
0
0
0
0
0
0
0
0
0
0
0
0
0
0
0
0
0
0
0
0
0
0
0
0
0
0
0
0
0
0
0
0
0
0
0
0
0
0
0
0
0
0
0
0
0
0
0
0
0
0
0
0
0
0
0
0
0
0
0
0
0
0
0
0
0
0
0
0
0
0
0
0
0
0
0
0
0
0
0
0
0
0
0
0
0
0
0
0
0
0
0
0
0
0
0
0
0
0
0
0
0
0
0
0
0
0
0
0
0
0
0
0
0
0
0
0
0
0
0
0
0
0
0
0
0
0
0
0
0
0
0
0
0
0
0
0
0
0
0
0
0
0
0
1
1
1
1
1
1
1
1
1
1
1
1
0.116385
0.00242531
0.00467389
0.172357
1
1
1
1
1
1
1
1
1
1
1
1
1
0.508017
0.0684296
0.0015718
4.42315e-06
1.47749e-08
3.39752e-11
6.42843e-14
9.86832e-17
1.21194e-19
1.1243e-22
8.02375e-26
4.16628e-29
1.5868e-33
2.24082e-38
2.28003e-41
2.18334e-50
4.16927e-52
8.42975e-55
9.48983e-56
1.37049e-57
7.98635e-60
2.82696e-62
1.2767e-64
3.9821e-67
1.02204e-69
2.22476e-72
4.04557e-75
6.35338e-78
8.99762e-81
1.18724e-83
1.44958e-86
1.71736e-89
1.9494e-92
2.1939e-95
2.56106e-98
3.01917e-101
3.39064e-104
3.71818e-107
3.634e-110
3.37544e-113
2.83841e-116
2.16658e-119
1.42175e-122
7.62488e-126
3.19169e-129
3.18589e-137
4.25471e-139
4.52237e-142
3.87565e-145
2.98667e-148
2.24466e-151
1.7459e-154
1.41892e-157
1.23399e-160
1.11621e-163
9.84084e-167
2.03131e-171
3.25087e-176
4.00773e-181
4.30179e-186
4.59489e-191
5.50361e-196
7.27568e-201
9.27413e-206
1.00577e-210
8.78158e-216
6.08704e-221
3.70791e-226
5.33545e-230
7.34686e-233
1.05047e-235
1.51945e-238
2.24684e-241
3.51101e-244
4.46626e-247
4.74105e-259
7.47254e-261
5.94769e-264
1.32421e-266
2.93317e-269
5.94381e-272
1.13423e-274
2.06199e-277
3.64723e-280
6.21542e-283
1.03785e-285
1.68056e-288
2.69173e-291
4.20538e-294
6.51468e-297
9.8419e-300
1.46543e-302
2.12289e-305
3.01529e-308
4.16728e-311
5.66839e-314
7.57025e-317
9.25434e-320
0
0
0
0
0
0
0
0
0
0
0
0
0
0
0
0
0
0
0
0
0
0
0
0
0
0
0
0
0
0
0
0
0
0
0
0
0
0
0
0
0
0
0
0
0
0
0
0
0
0
0
0
0
0
0
0
0
0
0
0
0
0
0
0
0
0
0
0
0
0
0
0
0
0
0
0
0
0
0
0
0
0
0
0
0
0
0
0
0
0
0
0
0
0
0
0
0
0
0
0
0
0
0
0
0
0
0
0
0
0
0
0
0
0
0
0
0
0
0
0
0
0
0
0
0
0
0
0
0
0
0
0
0
0
0
0
0
0
0
0
0
0
0
0
0
0
0
0
0
0
0
0
0
0
0
0
0
0
0
0
0
0
0
0
0
0
0
0
0
0
0
0
0
0
0
0
0
0
0
0
0
0
0
0
0
0
0
0
0
0
0
0
0
0
0
0
0
0
0
0
0
0
0
0
0
0
0
0
0
0
0
0
0
0
0
0
0
0
0
0
0
0
0
0
0
0
0
0
0
0
0
0
0
0
0
0
0
0
0
0
0
0
0
0
0
0
0
1
1
1
1
1
1
1
1
1
1
1
1
0.0915761
0.00237321
0.033605
1
1
1
1
1
1
1
1
1
1
1
1
1
1
1
0.376868
0.0551007
0.00158786
8.23323e-06
2.14004e-08
4.53056e-11
8.47834e-14
1.37785e-16
1.76389e-19
1.78547e-22
1.33936e-25
6.77952e-29
9.32423e-34
1.94712e-37
2.55818e-47
4.50455e-49
6.96796e-52
9.84265e-53
1.42967e-54
6.858e-57
2.03017e-59
9.76414e-62
2.77492e-64
6.3975e-67
1.34473e-69
2.61705e-72
4.6234e-75
7.53665e-78
1.13717e-80
1.601e-83
2.12774e-86
2.66991e-89
3.26713e-92
4.02506e-95
4.84691e-98
5.94898e-101
6.80137e-104
7.31031e-107
7.33497e-110
6.83221e-113
5.78028e-116
4.3392e-119
2.68039e-122
1.34527e-125
4.69341e-134
5.23611e-136
5.28033e-139
4.8673e-142
4.19123e-145
3.51451e-148
3.01966e-151
2.69078e-154
2.51705e-157
2.46566e-160
2.42545e-163
2.22558e-166
3.2368e-171
3.432e-176
3.05911e-181
2.59793e-186
2.37646e-191
2.59857e-196
3.44988e-201
4.71428e-206
5.3463e-211
4.62853e-216
3.03593e-221
1.45764e-226
8.60814e-231
1.10417e-233
1.53837e-236
2.19235e-239
3.29664e-242
4.03792e-245
1.78142e-255
1.69984e-257
5.24651e-261
6.69966e-264
1.12358e-266
1.90125e-269
3.17523e-272
5.2186e-275
8.40642e-278
1.32679e-280
2.04537e-283
3.1214e-286
4.69181e-289
7.00982e-292
1.03138e-294
1.50392e-297
2.1424e-300
3.0041e-303
4.10321e-306
5.51059e-309
7.2506e-312
9.3894e-315
1.19184e-317
8.7499e-321
0
0
0
0
0
0
0
0
0
0
0
0
0
0
0
0
0
0
0
0
0
0
0
0
0
0
0
0
0
0
0
0
0
0
0
0
0
0
0
0
0
0
0
0
0
0
0
0
0
0
0
0
0
0
0
0
0
0
0
0
0
0
0
0
0
0
0
0
0
0
0
0
0
0
0
0
0
0
0
0
0
0
0
0
0
0
0
0
0
0
0
0
0
0
0
0
0
0
0
0
0
0
0
0
0
0
0
0
0
0
0
0
0
0
0
0
0
0
0
0
0
0
0
0
0
0
0
0
0
0
0
0
0
0
0
0
0
0
0
0
0
0
0
0
0
0
0
0
0
0
0
0
0
0
0
0
0
0
0
0
0
0
0
0
0
0
0
0
0
0
0
0
0
0
0
0
0
0
0
0
0
0
0
0
0
0
0
0
0
0
0
0
0
0
0
0
0
0
0
0
0
0
0
0
0
0
0
0
0
0
0
0
0
0
0
0
0
0
0
0
0
0
0
0
0
0
0
0
0
0
0
0
0
0
0
0
0
0
0
0
0
0
0
0
0
0
1
1
1
1
1
1
1
1
1
1
1
1
1
0.111044
0.227751
0.278098
0.0937307
1
1
1
1
1
1
1
1
1
1
1
1
1
1
1
1
0.460729
0.0794676
0.00409808
1.08307e-05
2.04337e-08
3.77759e-11
6.92028e-14
1.1612e-16
1.60768e-19
1.76401e-22
1.39703e-25
3.14939e-29
1.25208e-33
1.35278e-37
1.18651e-40
2.86173e-44
1.26647e-46
1.01685e-48
1.35775e-49
1.81052e-51
6.15459e-54
1.46123e-56
7.75429e-59
2.09496e-61
4.2071e-64
7.70262e-67
1.35589e-69
2.30132e-72
3.75149e-75
5.90587e-78
8.90622e-81
1.29966e-83
1.78878e-86
2.4402e-89
3.14447e-92
4.07345e-95
5.26938e-98
6.47538e-101
7.6008e-104
8.33632e-107
8.5304e-110
8.15112e-113
7.06116e-116
5.46131e-119
3.48195e-122
2.90164e-125
3.43239e-128
5.3883e-131
8.31606e-134
1.19971e-136
1.58169e-139
1.90284e-142
2.1635e-145
2.33641e-148
2.51362e-151
2.69975e-154
3.01477e-157
3.10169e-160
3.14547e-163
2.9137e-166
2.42391e-171
1.74018e-176
1.15411e-181
7.85158e-187
6.20404e-192
6.20634e-197
7.91357e-202
1.07644e-206
1.22149e-211
1.00426e-216
5.65341e-222
2.17641e-227
1.53167e-231
1.66046e-234
2.10608e-237
2.70911e-240
3.67086e-243
5.05156e-246
4.30464e-249
1.35078e-251
1.22007e-254
1.29215e-257
1.33437e-260
1.51713e-263
1.72835e-266
2.04138e-269
2.43321e-272
2.94403e-275
3.64121e-278
4.57795e-281
5.8273e-284
7.59595e-287
9.92655e-290
1.32002e-292
1.75363e-295
2.33395e-298
3.05983e-301
3.99866e-304
5.10275e-307
6.53758e-310
8.14883e-313
1.02155e-315
1.26299e-318
0
0
0
0
0
0
0
0
0
0
0
0
0
0
0
0
0
0
0
0
0
0
0
0
0
0
0
0
0
0
0
0
0
0
0
0
0
0
0
0
0
0
0
0
0
0
0
0
0
0
0
0
0
0
0
0
0
0
0
0
0
0
0
0
0
0
0
0
0
0
0
0
0
0
0
0
0
0
0
0
0
0
0
0
0
0
0
0
0
0
0
0
0
0
0
0
0
0
0
0
0
0
0
0
0
0
0
0
0
0
0
0
0
0
0
0
0
0
0
0
0
0
0
0
0
0
0
0
0
0
0
0
0
0
0
0
0
0
0
0
0
0
0
0
0
0
0
0
0
0
0
0
0
0
0
0
0
0
0
0
0
0
0
0
0
0
0
0
0
0
0
0
0
0
0
0
0
0
0
0
0
0
0
0
0
0
0
0
0
0
0
0
0
0
0
0
0
0
0
0
0
0
0
0
0
0
0
0
0
0
0
0
0
0
0
0
0
0
0
0
0
0
0
0
0
0
0
0
0
0
0
0
0
0
0
0
0
0
0
0
0
0
0
0
0
0
0
0
0
0
0
0
0
0
0
0
0
0
0
0
0
0
0
0
1
1
1
1
1
1
1
1
1
1
1
1
1
1
1
1
1
1
1
1
1
1
1
1
1
1
1
1
1
1
1
1
1
1
0.574139
0.0999012
0.00483302
7.57775e-06
1.10428e-08
1.77329e-11
3.04783e-14
5.05529e-17
7.41977e-20
9.20494e-23
8.61121e-26
6.96256e-30
1.31739e-33
6.53352e-37
5.29635e-40
3.70972e-42
2.12157e-44
4.83547e-46
1.91965e-48
4.78154e-51
9.20182e-54
6.38585e-56
1.6501e-58
2.9357e-61
4.58507e-64
6.80923e-67
1.00722e-69
1.48954e-72
2.18541e-75
3.15869e-78
4.47076e-81
6.15599e-84
8.3244e-87
1.0777e-89
1.34499e-92
1.66824e-95
1.98067e-98
2.33393e-101
2.69704e-104
3.02219e-107
3.35249e-110
3.56027e-113
3.67014e-116
3.43228e-119
3.18294e-122
3.39246e-125
4.1826e-128
5.60328e-131
7.09929e-134
8.39788e-137
9.60495e-140
1.05885e-142
1.14209e-145
1.21045e-148
1.25055e-151
1.28489e-154
1.28343e-157
1.28085e-160
1.24682e-163
1.05945e-166
6.0163e-172
3.10596e-177
1.50349e-182
7.20776e-188
3.72805e-193
2.31146e-198
1.86098e-203
1.59916e-208
1.18912e-213
7.28448e-219
3.48046e-224
1.50521e-229
3.54547e-233
4.69167e-236
6.3108e-239
8.68463e-242
1.18245e-244
1.45725e-247
1.61124e-250
1.91029e-253
2.45784e-256
3.27266e-259
4.39988e-262
5.91093e-265
7.82457e-268
1.03182e-270
1.35046e-273
1.77595e-276
2.33922e-279
3.08879e-282
4.06073e-285
5.31279e-288
6.92171e-291
8.9759e-294
1.1537e-296
1.46977e-299
1.84595e-302
2.28629e-305
2.78915e-308
3.35409e-311
3.96649e-314
4.6123e-317
4.16448e-320
0
0
0
0
0
0
0
0
0
0
0
0
0
0
0
0
0
0
0
0
0
0
0
0
0
0
0
0
0
0
0
0
0
0
0
0
0
0
0
0
0
0
0
0
0
0
0
0
0
0
0
0
0
0
0
0
0
0
0
0
0
0
0
0
0
0
0
0
0
0
0
0
0
0
0
0
0
0
0
0
0
0
0
0
0
0
0
0
0
0
0
0
0
0
0
0
0
0
0
0
0
0
0
0
0
0
0
0
0
0
0
0
0
0
0
0
0
0
0
0
0
0
0
0
0
0
0
0
0
0
0
0
0
0
0
0
0
0
0
0
0
0
0
0
0
0
0
0
0
0
0
0
0
0
0
0
0
0
0
0
0
0
0
0
0
0
0
0
0
0
0
0
0
0
0
0
0
0
0
0
0
0
0
0
0
0
0
0
0
0
0
0
0
0
0
0
0
0
0
0
0
0
0
0
0
0
0
0
0
0
0
0
0
0
0
0
0
0
0
0
0
0
0
0
0
0
0
0
0
0
0
0
0
0
0
0
0
0
0
0
0
0
0
0
0
0
0
0
0
0
0
0
0
0
0
0
0
0
0
0
0
0
0
1
1
1
1
1
1
1
1
1
1
1
1
1
1
1
1
1
1
1
1
1
1
1
1
1
1
1
1
1
1
1
1
1
1
1
0.491583
0.0702846
0.00135273
1.22561e-06
1.59804e-09
2.61937e-12
4.30129e-15
6.53483e-18
9.18692e-21
1.24723e-23
1.56484e-26
1.36245e-29
8.03079e-33
6.66593e-36
7.79254e-38
2.44817e-40
6.41369e-43
1.47217e-45
2.89834e-48
4.86521e-51
6.95926e-54
8.91961e-57
1.05598e-59
1.20233e-62
1.36506e-65
1.57052e-68
1.84231e-71
2.18919e-74
2.61586e-77
3.13916e-80
3.7357e-83
4.46976e-86
5.34127e-89
6.21229e-92
7.43131e-95
8.60898e-98
1.0139e-100
1.18598e-103
1.37585e-106
1.62729e-109
1.87943e-112
2.22023e-115
2.53435e-118
2.9381e-121
3.37861e-124
3.78269e-127
4.20249e-130
4.44099e-133
4.6332e-136
4.83738e-139
4.98119e-142
5.1445e-145
5.21326e-148
5.27914e-151
5.29382e-154
5.26904e-157
5.23734e-160
5.12576e-163
4.86925e-166
3.15879e-171
1.99884e-176
1.21632e-181
7.22907e-187
4.29258e-192
2.62114e-197
1.72708e-202
1.13671e-207
6.71843e-213
3.51354e-218
1.66482e-223
7.06074e-229
4.99711e-234
3.14822e-237
4.66771e-240
7.02299e-243
6.77534e-246
8.28892e-249
1.00094e-251
1.3546e-254
1.87474e-257
2.56677e-260
3.45667e-263
4.57903e-266
5.99066e-269
7.76737e-272
1.00277e-274
1.29275e-277
1.67963e-280
2.1912e-283
2.8981e-286
3.83606e-289
5.10236e-292
6.71844e-295
8.79462e-298
1.13628e-300
1.45342e-303
1.82671e-306
2.25626e-309
2.72556e-312
3.23513e-315
3.77737e-318
0
0
0
0
0
0
0
0
0
0
0
0
0
0
0
0
0
0
0
0
0
0
0
0
0
0
0
0
0
0
0
0
0
0
0
0
0
0
0
0
0
0
0
0
0
0
0
0
0
0
0
0
0
0
0
0
0
0
0
0
0
0
0
0
0
0
0
0
0
0
0
0
0
0
0
0
0
0
0
0
0
0
0
0
0
0
0
0
0
0
0
0
0
0
0
0
0
0
0
0
0
0
0
0
0
0
0
0
0
0
0
0
0
0
0
0
0
0
0
0
0
0
0
0
0
0
0
0
0
0
0
0
0
0
0
0
0
0
0
0
0
0
0
0
0
0
0
0
0
0
0
0
0
0
0
0
0
0
0
0
0
0
0
0
0
0
0
0
0
0
0
0
0
0
0
0
0
0
0
0
0
0
0
0
0
0
0
0
0
0
0
0
0
0
0
0
0
0
0
0
0
0
0
0
0
0
0
0
0
0
0
0
0
0
0
0
0
0
0
0
0
0
0
0
0
0
0
0
0
0
0
0
0
0
0
0
0
0
0
0
0
0
0
0
0
0
0
0
0
0
0
0
0
0
0
0
0
0
0
0
0
0
0
0
1
1
1
1
1
1
1
1
1
1
1
1
1
1
1
1
1
1
1
1
1
1
1
1
1
1
1
1
1
1
1
1
1
1
1
1
0.228825
0.0214644
4.40628e-05
7.26191e-08
1.04642e-10
1.39225e-13
1.86692e-16
2.54624e-19
3.62221e-22
5.59853e-25
8.41668e-28
1.35836e-30
2.17215e-33
3.60012e-36
5.66408e-39
8.78156e-42
1.25304e-44
1.67092e-47
2.06233e-50
2.4004e-53
2.65701e-56
2.86343e-59
2.9925e-62
3.14954e-65
3.29862e-68
3.51995e-71
3.78489e-74
4.11123e-77
4.46786e-80
4.85273e-83
5.32611e-86
5.84135e-89
6.27297e-92
7.02328e-95
7.52014e-98
8.32572e-101
9.11007e-104
1.01072e-106
1.13672e-109
1.27529e-112
1.45366e-115
1.63401e-118
1.86279e-121
2.01671e-124
2.14629e-127
2.18995e-130
2.16915e-133
2.13629e-136
2.0617e-139
1.98669e-142
1.91137e-145
1.82162e-148
1.74364e-151
1.63858e-154
1.5464e-157
1.43337e-160
1.33074e-163
1.07425e-166
5.33319e-172
2.36676e-177
9.63964e-183
3.81759e-188
1.5717e-193
7.68728e-199
4.94453e-204
3.72106e-209
2.55263e-214
1.47581e-219
7.1486e-225
2.9472e-230
1.38385e-235
4.31954e-239
5.63336e-242
7.55597e-245
9.88244e-248
1.32692e-250
1.74995e-253
2.44646e-256
3.39731e-259
4.63804e-262
6.25315e-265
8.33214e-268
1.10304e-270
1.44798e-273
1.8959e-276
2.47207e-279
3.22973e-282
4.22725e-285
5.57129e-288
7.40141e-291
9.90286e-294
1.32819e-296
1.77575e-299
2.35654e-302
3.08577e-305
3.97623e-308
5.0302e-311
6.25242e-314
7.62582e-317
7.95297e-320
0
0
0
0
0
0
0
0
0
0
0
0
0
0
0
0
0
0
0
0
0
0
0
0
0
0
0
0
0
0
0
0
0
0
0
0
0
0
0
0
0
0
0
0
0
0
0
0
0
0
0
0
0
0
0
0
0
0
0
0
0
0
0
0
0
0
0
0
0
0
0
0
0
0
0
0
0
0
0
0
0
0
0
0
0
0
0
0
0
0
0
0
0
0
0
0
0
0
0
0
0
0
0
0
0
0
0
0
0
0
0
0
0
0
0
0
0
0
0
0
0
0
0
0
0
0
0
0
0
0
0
0
0
0
0
0
0
0
0
0
0
0
0
0
0
0
0
0
0
0
0
0
0
0
0
0
0
0
0
0
0
0
0
0
0
0
0
0
0
0
0
0
0
0
0
0
0
0
0
0
0
0
0
0
0
0
0
0
0
0
0
0
0
0
0
0
0
0
0
0
0
0
0
0
0
0
0
0
0
0
0
0
0
0
0
0
0
0
0
0
0
0
0
0
0
0
0
0
0
0
0
0
0
0
0
0
0
0
0
0
0
0
0
0
0
0
0
0
0
0
0
0
0
0
0
0
0
0
0
0
0
0
0
0
1
1
1
1
1
1
1
1
1
1
1
1
1
1
1
1
1
1
1
1
1
1
1
1
1
1
1
1
1
1
1
1
1
1
1
1
0.28938
0.0328495
6.78033e-05
1.05893e-07
1.40895e-10
1.64126e-13
1.86848e-16
2.07632e-19
2.50355e-22
3.31653e-25
4.56948e-28
6.71726e-31
9.15768e-34
1.23268e-36
1.70927e-39
2.27636e-42
3.0102e-45
3.76574e-48
4.47218e-51
5.02337e-54
5.39797e-57
5.68935e-60
5.8226e-63
5.90367e-66
5.96492e-69
6.02068e-72
6.08097e-75
6.12327e-78
6.11654e-81
6.11696e-84
6.01881e-87
5.91016e-90
5.77234e-93
5.72375e-96
5.61489e-99
5.65752e-102
5.74754e-105
5.96906e-108
6.30116e-111
6.73969e-114
7.14294e-117
7.62822e-120
7.79198e-123
7.54209e-126
7.2947e-129
6.73195e-132
6.13438e-135
5.54699e-138
4.93146e-141
4.39944e-144
3.84031e-147
3.36019e-150
2.90221e-153
2.50571e-156
2.15283e-159
1.83608e-162
1.55369e-165
9.90074e-171
6.12251e-176
3.63533e-181
2.09962e-186
1.19637e-191
6.86804e-197
4.07331e-202
2.48829e-207
1.40139e-212
6.6762e-218
2.82636e-223
1.08796e-228
4.07626e-234
2.49254e-238
3.14773e-241
4.24485e-244
5.74746e-247
7.69361e-250
1.0554e-252
1.45729e-255
2.0717e-258
2.91229e-261
4.00812e-264
5.45824e-267
7.3063e-270
9.73166e-273
1.28236e-275
1.69281e-278
2.22864e-281
2.95262e-284
3.93503e-287
5.31235e-290
7.24702e-293
9.92853e-296
1.35969e-298
1.85489e-301
2.50616e-304
3.33124e-307
4.35242e-310
5.59492e-313
7.08023e-316
8.76497e-319
0
0
0
0
0
0
0
0
0
0
0
0
0
0
0
0
0
0
0
0
0
0
0
0
0
0
0
0
0
0
0
0
0
0
0
0
0
0
0
0
0
0
0
0
0
0
0
0
0
0
0
0
0
0
0
0
0
0
0
0
0
0
0
0
0
0
0
0
0
0
0
0
0
0
0
0
0
0
0
0
0
0
0
0
0
0
0
0
0
0
0
0
0
0
0
0
0
0
0
0
0
0
0
0
0
0
0
0
0
0
0
0
0
0
0
0
0
0
0
0
0
0
0
0
0
0
0
0
0
0
0
0
0
0
0
0
0
0
0
0
0
0
0
0
0
0
0
0
0
0
0
0
0
0
0
0
0
0
0
0
0
0
0
0
0
0
0
0
0
0
0
0
0
0
0
0
0
0
0
0
0
0
0
0
0
0
0
0
0
0
0
0
0
0
0
0
0
0
0
0
0
0
0
0
0
0
0
0
0
0
0
0
0
0
0
0
0
0
0
0
0
0
0
0
0
0
0
0
0
0
0
0
0
0
0
0
0
0
0
0
0
0
0
0
0
0
0
0
0
0
0
0
0
0
0
0
0
0
0
0
0
0
0
0
0
1
1
1
1
1
1
1
1
1
1
1
1
1
1
1
1
1
1
1
1
1
1
1
1
1
1
1
1
1
1
1
1
1
1
1
1
0.587286
0.0930274
0.00370627
3.41932e-06
2.755e-09
2.33652e-12
2.25003e-15
2.22659e-18
2.26032e-21
2.09191e-24
1.88101e-27
1.77348e-30
1.59571e-33
1.61537e-36
1.69762e-39
1.99987e-42
2.43644e-45
3.00657e-48
3.50155e-51
3.90857e-54
4.09623e-57
4.18795e-60
4.11898e-63
3.97271e-66
3.78453e-69
3.53955e-72
3.27736e-75
2.97953e-78
2.65591e-81
2.32528e-84
1.98953e-87
1.66857e-90
1.39147e-93
1.13034e-96
9.17644e-100
7.44464e-103
5.96756e-106
4.88908e-109
3.94232e-112
3.26224e-115
2.67881e-118
2.25134e-121
1.88995e-124
1.59694e-127
1.35414e-130
1.13171e-133
9.52295e-137
7.91119e-140
6.6013e-143
5.48312e-146
4.53338e-149
3.75388e-152
3.069e-155
2.51267e-158
2.03376e-161
1.64165e-164
8.01612e-169
8.4205e-175
4.5685e-180
2.99453e-185
1.96819e-190
1.29726e-195
8.66327e-201
5.6272e-206
3.18874e-211
1.49146e-216
5.95712e-222
2.10319e-227
6.85499e-233
1.12068e-237
1.24757e-240
1.71933e-243
2.37379e-246
3.30103e-249
4.56156e-252
6.42622e-255
9.13045e-258
1.3154e-260
1.86374e-263
2.60278e-266
3.57947e-269
4.88321e-272
6.58615e-275
8.8632e-278
1.18534e-280
1.5897e-283
2.12987e-286
2.87718e-289
3.90732e-292
5.36012e-295
7.38073e-298
1.02058e-300
1.40758e-303
1.93471e-306
2.62461e-309
3.51198e-312
4.60793e-315
5.94783e-318
0
0
0
0
0
0
0
0
0
0
0
0
0
0
0
0
0
0
0
0
0
0
0
0
0
0
0
0
0
0
0
0
0
0
0
0
0
0
0
0
0
0
0
0
0
0
0
0
0
0
0
0
0
0
0
0
0
0
0
0
0
0
0
0
0
0
0
0
0
0
0
0
0
0
0
0
0
0
0
0
0
0
0
0
0
0
0
0
0
0
0
0
0
0
0
0
0
0
0
0
0
0
0
0
0
0
0
0
0
0
0
0
0
0
0
0
0
0
0
0
0
0
0
0
0
0
0
0
0
0
0
0
0
0
0
0
0
0
0
0
0
0
0
0
0
0
0
0
0
0
0
0
0
0
0
0
0
0
0
0
0
0
0
0
0
0
0
0
0
0
0
0
0
0
0
0
0
0
0
0
0
0
0
0
0
0
0
0
0
0
0
0
0
0
0
0
0
0
0
0
0
0
0
0
0
0
0
0
0
0
0
0
0
0
0
0
0
0
0
0
0
0
0
0
0
0
0
0
0
0
0
0
0
0
0
0
0
0
0
0
0
0
0
0
0
0
0
0
0
0
0
0
0
0
0
0
0
0
0
0
0
0
0
0
0
0
1
1
1
1
1
1
1
1
1
1
1
1
1
1
1
1
1
1
1
1
1
1
1
1
1
1
1
1
1
1
1
1
1
1
1
0.34359
0.0760095
0.00728179
2.29731e-05
3.85109e-08
6.31811e-11
9.11301e-14
1.25467e-16
1.58078e-19
1.88459e-22
2.0234e-25
1.96248e-28
1.89233e-31
1.71404e-34
1.70564e-37
1.80546e-40
2.06635e-43
2.50633e-46
2.96153e-49
3.38048e-52
3.62445e-55
3.73195e-58
3.68729e-61
3.54182e-64
3.33018e-67
3.07327e-70
2.8057e-73
2.52368e-76
2.2388e-79
1.94238e-82
1.65455e-85
1.37044e-88
1.10838e-91
8.85042e-95
6.79981e-98
5.21949e-101
3.89655e-104
2.89501e-107
2.14032e-110
1.56399e-113
1.1523e-116
8.39624e-120
6.19636e-123
4.5591e-126
3.37623e-129
2.52358e-132
1.88446e-135
1.43194e-138
1.0862e-141
8.36812e-145
6.47268e-148
5.03881e-151
3.95677e-154
3.09505e-157
2.43763e-160
1.90201e-163
1.36473e-166
6.07297e-172
2.38867e-177
8.53262e-183
2.86588e-188
9.59271e-194
3.25733e-199
1.11673e-204
3.9948e-210
1.46221e-215
5.22903e-221
1.76269e-226
5.59651e-232
4.10646e-237
3.447e-240
4.85012e-243
6.88929e-246
9.82235e-249
1.40227e-251
2.00368e-254
2.89064e-257
4.21346e-260
6.13705e-263
8.81267e-266
1.2444e-268
1.7348e-271
2.3933e-274
3.26514e-277
4.44231e-280
6.00045e-283
8.14362e-286
1.10172e-288
1.50805e-291
2.06842e-294
2.87391e-297
4.00501e-300
5.61321e-303
7.83432e-306
1.0874e-308
1.48753e-311
2.00377e-314
2.64421e-317
2.39078e-320
0
0
0
0
0
0
0
0
0
0
0
0
0
0
0
0
0
0
0
0
0
0
0
0
0
0
0
0
0
0
0
0
0
0
0
0
0
0
0
0
0
0
0
0
0
0
0
0
0
0
0
0
0
0
0
0
0
0
0
0
0
0
0
0
0
0
0
0
0
0
0
0
0
0
0
0
0
0
0
0
0
0
0
0
0
0
0
0
0
0
0
0
0
0
0
0
0
0
0
0
0
0
0
0
0
0
0
0
0
0
0
0
0
0
0
0
0
0
0
0
0
0
0
0
0
0
0
0
0
0
0
0
0
0
0
0
0
0
0
0
0
0
0
0
0
0
0
0
0
0
0
0
0
0
0
0
0
0
0
0
0
0
0
0
0
0
0
0
0
0
0
0
0
0
0
0
0
0
0
0
0
0
0
0
0
0
0
0
0
0
0
0
0
0
0
0
0
0
0
0
0
0
0
0
0
0
0
0
0
0
0
0
0
0
0
0
0
0
0
0
0
0
0
0
0
0
0
0
0
0
0
0
0
0
0
0
0
0
0
0
0
0
0
0
0
0
0
0
0
0
0
0
0
0
0
0
0
0
0
0
0
0
0
0
0
0
1
1
1
1
1
1
0.495713
0.356091
0.300215
0.280244
0.276756
0.306989
0.335749
0.399054
0.513474
1
1
1
1
1
1
1
1
1
1
0.417694
0.278143
0.210881
0.164224
0.127396
0.0994783
0.0760879
0.0577105
0.0423808
0.0305038
0.0101079
0.000719665
1.47712e-05
3.80811e-08
6.87717e-11
1.10983e-13
1.67079e-16
2.28883e-19
3.18441e-22
3.87204e-25
4.99484e-28
5.9368e-31
7.25775e-34
8.73154e-37
1.03896e-39
1.2034e-42
1.38432e-45
1.52414e-48
1.6516e-51
1.71054e-54
1.73678e-57
1.70673e-60
1.63328e-63
1.5391e-66
1.42325e-69
1.3035e-72
1.18278e-75
1.06714e-78
9.49261e-82
8.30974e-85
7.13809e-88
5.95114e-91
4.89658e-94
3.89125e-97
3.04612e-100
2.3629e-103
1.77757e-106
1.3504e-109
1.00276e-112
7.52611e-116
5.60879e-119
4.18995e-122
3.16506e-125
2.3739e-128
1.81284e-131
1.37921e-134
1.06444e-137
8.23379e-141
6.40893e-144
5.04104e-147
3.94827e-150
3.12172e-153
2.454e-156
1.93608e-159
1.52092e-162
1.17594e-165
5.03011e-171
1.96978e-176
6.86769e-182
2.15855e-187
6.20533e-193
1.71103e-198
4.71862e-204
1.38253e-209