/*--------------------------------*- C++ -*----------------------------------*\
| =========                 |                                                 |
| \\      /  F ield         | OpenFOAM: The Open Source CFD Toolbox           |
|  \\    /   O peration     | Version:  2.1.1                                 |
|   \\  /    A nd           | Web:      www.OpenFOAM.org                      |
|    \\/     M anipulation  |                                                 |
\*---------------------------------------------------------------------------*/
FoamFile
{
    version     2.0;
    format      ascii;
    class       volScalarField;
    location    "0.001450000";
    object      fH;
}
// * * * * * * * * * * * * * * * * * * * * * * * * * * * * * * * * * * * * * //

dimensions      [0 0 0 0 0 0 0];

internalField   nonuniform List<scalar> 
12384
(
0.0251212
0.02546
0.0261205
0.0261408
0.0263686
0.0263593
0.0259732
0.0260475
0.0269096
0.0280732
0.0286932
0.0291378
0.0291758
0.0288944
0.0251594
0.0231723
0.0210576
0.0202953
0.0198331
0.0196842
0.0194967
0.019499
0.0194244
0.0194165
0.0196479
0.0200087
0.020704
0.0214143
0.0222782
0.0235486
0.0247928
0.0259931
0.0269923
0.0278454
0.0283757
0.0287921
0.0291794
0.0290507
0.0292619
0.0290501
0.0291671
0.0291292
0.0290984
0.0290859
0.0272799
0.0262458
0.025743
0.0255272
0.0254055
0.025452
0.0256804
0.0260998
0.0265667
0.0271023
0.0276518
0.0280784
0.0284894
0.0287541
0.0289412
0.0289899
0.0290792
0.0290633
0.0290703
0.0290676
0.0290756
0.0290704
0.0290748
0.0290731
0.0290793
0.0290714
0.0290797
0.0290754
0.0290778
0.0290793
0.029051
0.0290383
0.0290403
0.0290598
0.0290641
0.029069
0.0290666
0.0290656
0.0290692
0.0290601
0.029072
0.029055
0.029073
0.0290533
0.0290685
0.0290531
0.0290654
0.0290574
0.0290637
0.0290594
0.0290648
0.0290592
0.0290658
0.0290599
0.0290661
0.0290609
0.0290654
0.0290618
0.0290647
0.0290767
0.0290771
0.0290611
0.0290602
0.02906
0.0290593
0.0290592
0.0290579
0.0290574
0.029056
0.0290556
0.0290539
0.0290532
0.02905
0.0290487
0.0290468
0.0290473
0.0290468
0.0290491
0.0290494
0.0290513
0.029051
0.0290524
0.0290523
0.0290536
0.0290538
0.0290548
0.0290546
0.0290557
0.0290566
0.0290771
0.0290771
0.0290569
0.0290559
0.029055
0.0290543
0.0290535
0.0290528
0.0290519
0.0290511
0.0290502
0.0290493
0.0290482
0.0290461
0.0290446
0.0290434
0.0290436
0.0290448
0.0290463
0.0290479
0.0290491
0.0290501
0.0290509
0.0290517
0.0290526
0.0290534
0.0290541
0.0290547
0.0290555
0.0290565
0.029077
0.0290771
0.0290567
0.0290556
0.0290545
0.0290546
0.0290539
0.029053
0.0290521
0.0290512
0.0290502
0.0290493
0.0290481
0.0290463
0.029045
0.0290437
0.0290435
0.0290443
0.0290461
0.0290483
0.0290497
0.0290508
0.0290517
0.0290524
0.0290532
0.0290539
0.0290545
0.0290551
0.0290559
0.0290567
0.0290771
0.0290771
0.0290569
0.029056
0.029055
0.0290542
0.0290534
0.0290525
0.0290516
0.0290509
0.02905
0.0290492
0.029048
0.0290462
0.0290447
0.0290434
0.0290434
0.0290446
0.0290462
0.029048
0.0290491
0.0290501
0.0290509
0.0290517
0.0290526
0.0290533
0.0290541
0.0290547
0.0290556
0.0290566
0.029077
0.0290771
0.0290568
0.029056
0.0290549
0.0290542
0.0290534
0.0290527
0.0290518
0.0290511
0.0290503
0.0290494
0.0290483
0.0290463
0.0290447
0.0290434
0.0290435
0.0290446
0.0290462
0.0290479
0.0290491
0.0290501
0.0290509
0.0290518
0.0290526
0.0290534
0.0290541
0.0290548
0.0290555
0.0290566
0.029077
0.0290771
0.0290572
0.029056
0.0290549
0.0290541
0.0290532
0.0290524
0.0290516
0.0290508
0.02905
0.0290491
0.0290481
0.0290465
0.029045
0.0290438
0.0290434
0.0290443
0.0290461
0.0290483
0.0290495
0.0290503
0.0290513
0.0290521
0.0290529
0.0290536
0.0290545
0.0290552
0.0290562
0.0290571
0.0290771
0.0290771
0.0290568
0.0290558
0.0290548
0.0290541
0.0290533
0.0290525
0.0290517
0.029051
0.0290501
0.0290493
0.0290482
0.0290464
0.0290448
0.0290435
0.0290434
0.0290444
0.0290461
0.0290479
0.0290491
0.0290501
0.029051
0.0290518
0.0290527
0.0290535
0.0290542
0.0290548
0.0290555
0.0290565
0.029077
0.0290771
0.0290566
0.0290556
0.0290551
0.0290545
0.0290539
0.0290529
0.029052
0.0290511
0.0290501
0.0290492
0.0290479
0.0290461
0.0290446
0.0290434
0.0290434
0.0290445
0.0290461
0.0290479
0.0290492
0.0290501
0.029051
0.0290518
0.0290527
0.0290535
0.0290542
0.0290548
0.0290557
0.0290567
0.0290771
0.0290771
0.0290567
0.0290558
0.0290546
0.0290539
0.0290531
0.0290525
0.0290517
0.0290511
0.0290503
0.0290496
0.0290484
0.0290468
0.029045
0.0290436
0.0290433
0.0290444
0.0290461
0.0290478
0.029049
0.0290501
0.029051
0.0290519
0.0290527
0.0290536
0.0290542
0.0290549
0.0290554
0.0290564
0.029077
0.0180887
0.0199828
0.0202578
0.0182398
0.0175984
0.0167244
0.0150254
0.0153283
0.0160142
0.0180202
0.0217959
0.0240129
0.026554
0.0272808
0.0167356
0.0132872
0.0137184
0.0150804
0.0165463
0.0168833
0.0170707
0.0171073
0.0169491
0.0161818
0.0149669
0.0137198
0.0124181
0.0115781
0.0112938
0.0116269
0.011866
0.0128286
0.0143896
0.015629
0.0176287
0.0194511
0.0225209
0.024551
0.0263262
0.0277202
0.0286307
0.029052
0.0292587
0.0292197
0.0148313
0.0130848
0.0125855
0.012481
0.0125056
0.012415
0.0125107
0.0128725
0.0133934
0.0142574
0.0150407
0.0162668
0.0172998
0.0187259
0.019874
0.0211097
0.0222304
0.0232294
0.0242683
0.025103
0.0260792
0.0268128
0.0274542
0.0278246
0.0280865
0.0282082
0.0283271
0.02841
0.0284266
0.0287426
0.0216153
0.021493
0.0217238
0.0221793
0.0226345
0.0232541
0.0237747
0.0243804
0.0247891
0.0253531
0.0255884
0.0260823
0.0261935
0.0265562
0.0265975
0.0268843
0.0269293
0.0272139
0.0272263
0.0274597
0.0274308
0.0276053
0.0275984
0.0277137
0.0277578
0.0278146
0.0278648
0.0278822
0.0279136
0.0285582
0.0282277
0.0275359
0.0275292
0.0275251
0.027559
0.0275659
0.0275618
0.0275594
0.0275463
0.0275375
0.0275185
0.027495
0.0274428
0.0273818
0.02737
0.0273504
0.0273971
0.0274271
0.0274876
0.027493
0.0275284
0.0275293
0.0275642
0.0275705
0.0276074
0.0276159
0.0276216
0.0276502
0.0276668
0.0285463
0.028546
0.0276682
0.027651
0.0276159
0.0276108
0.0275739
0.0275649
0.027526
0.0275176
0.0274755
0.0274609
0.0274137
0.0273686
0.0273225
0.0272875
0.0273014
0.0273214
0.0273793
0.0274087
0.0274502
0.0274626
0.0275039
0.0275122
0.027552
0.0275647
0.0276012
0.0276143
0.0276336
0.0276721
0.0285252
0.0285467
0.0276636
0.027646
0.0276124
0.0276045
0.0275862
0.0275447
0.0275319
0.0274914
0.0274799
0.027437
0.0274235
0.0273687
0.0273363
0.0272967
0.0272984
0.0273084
0.0273723
0.0274155
0.0274686
0.0274883
0.027532
0.0275393
0.0275761
0.0275845
0.0276196
0.0276233
0.0276542
0.0276709
0.0285449
0.0285466
0.0276608
0.0276316
0.027617
0.0275821
0.0275731
0.027532
0.0275231
0.0274852
0.0274771
0.0274367
0.0274232
0.0273658
0.0273296
0.0272883
0.0272977
0.0273162
0.0273758
0.027408
0.0274506
0.0274626
0.0275035
0.0275117
0.0275514
0.0275637
0.0276
0.0276128
0.0276335
0.0276717
0.0285252
0.0285283
0.0276825
0.0276386
0.0276273
0.0275917
0.0275829
0.0275435
0.0275353
0.027498
0.0274899
0.0274496
0.0274316
0.0273711
0.0273299
0.0272886
0.0272988
0.0273168
0.0273745
0.0274066
0.0274492
0.027462
0.0275034
0.027512
0.027552
0.0275645
0.0276006
0.0276135
0.0276339
0.0276721
0.0285248
0.0285237
0.0276716
0.0276402
0.0276049
0.0275951
0.0275577
0.0275471
0.0275088
0.0275025
0.0274645
0.0274553
0.0274147
0.0273871
0.027328
0.0273076
0.0272864
0.0273185
0.02736
0.0274297
0.0274624
0.0274821
0.0275228
0.0275345
0.0275726
0.0275813
0.0276173
0.0276214
0.0276553
0.0276696
0.0285465
0.0285233
0.0276778
0.0276342
0.0276225
0.0275872
0.0275787
0.0275395
0.0275309
0.0274937
0.0274863
0.0274468
0.0274305
0.0273729
0.0273335
0.0272904
0.0272968
0.0273134
0.0273712
0.0274053
0.0274485
0.0274621
0.0275041
0.027513
0.027553
0.0275657
0.0276022
0.0276157
0.0276341
0.0276723
0.0285251
0.0285465
0.0276613
0.0276399
0.0276246
0.0275932
0.0275824
0.0275402
0.0275289
0.0274884
0.0274777
0.0274349
0.0274197
0.027363
0.0273283
0.0272901
0.0272903
0.0273255
0.0273641
0.027422
0.027438
0.0274798
0.0274899
0.0275291
0.027539
0.0275799
0.0275887
0.0276219
0.0276368
0.0276618
0.0285455
0.028525
0.0276763
0.0276299
0.0276185
0.02758
0.0275723
0.0275312
0.0275246
0.0274862
0.0274824
0.027443
0.0274308
0.0273768
0.0273406
0.0272943
0.0272956
0.0273112
0.0273675
0.0274025
0.0274451
0.0274587
0.0275015
0.0275103
0.0275517
0.0275638
0.0276012
0.0276165
0.0276336
0.0276728
0.0285247
0.0123498
0.0133232
0.0123396
0.0110636
0.0102034
0.00945566
0.00991214
0.00972331
0.0101381
0.0100479
0.0108993
0.0116536
0.0163577
0.0185531
0.0101683
0.0138644
0.0198439
0.0239358
0.0262644
0.028648
0.0305413
0.031181
0.030185
0.0286742
0.027493
0.0251367
0.0223556
0.0183316
0.0145425
0.011511
0.00984721
0.00905787
0.00865495
0.00832428
0.00849664
0.00832573
0.00934108
0.00976932
0.0132567
0.0145569
0.0197008
0.0228173
0.0252252
0.0263051
0.00855098
0.00955231
0.0104249
0.0109909
0.0110486
0.0107948
0.0102427
0.00967259
0.00923992
0.00888831
0.00868167
0.0084928
0.00835565
0.00831845
0.00823514
0.0082668
0.00821593
0.00826852
0.00821843
0.0082852
0.00825999
0.00837134
0.0086287
0.00902532
0.00960851
0.0103708
0.011127
0.0119473
0.0124805
0.0128006
0.00790604
0.00814077
0.00827623
0.00828814
0.00831033
0.00831457
0.00833495
0.00836583
0.00837244
0.00840793
0.00842148
0.00843823
0.0084683
0.00849787
0.00854684
0.00854677
0.00854384
0.00852379
0.00848943
0.00852172
0.00847973
0.00853568
0.0084734
0.00854836
0.00846205
0.00854477
0.00848929
0.00855391
0.00852374
0.00800842
0.00784993
0.00846388
0.00850214
0.00851421
0.00853462
0.00854244
0.0085736
0.00858864
0.00861986
0.00863122
0.00866412
0.0086807
0.00874
0.00877958
0.00880615
0.00880856
0.00879779
0.00875341
0.00872774
0.00870607
0.00869923
0.00868496
0.00867545
0.00865974
0.00864319
0.00863415
0.00863041
0.00861391
0.00859213
0.00786053
0.00786045
0.00858735
0.00861537
0.00863423
0.008645
0.0086612
0.00867567
0.00869325
0.00870792
0.00872825
0.00874747
0.00877367
0.0088176
0.00885182
0.00887398
0.00887181
0.00884697
0.00880976
0.00877656
0.00875488
0.0087366
0.00871681
0.00870217
0.00868442
0.00866686
0.00864965
0.00863504
0.00862071
0.00859633
0.00786099
0.00786083
0.00859411
0.00861853
0.0086387
0.00864097
0.0086591
0.00868147
0.00869846
0.00871716
0.00873437
0.00875533
0.00877506
0.00880863
0.00884351
0.008867
0.00887426
0.00885816
0.00881676
0.00877385
0.00874355
0.00872039
0.00869778
0.0086839
0.00866773
0.00865377
0.00863866
0.00862921
0.00861192
0.00858419
0.00786039
0.00786178
0.00859691
0.00862008
0.00863976
0.00865675
0.00867059
0.00868999
0.0087042
0.00872049
0.00873542
0.00875463
0.00877493
0.0088112
0.00884911
0.00887378
0.00887448
0.00885084
0.00881234
0.00877651
0.00875414
0.00873612
0.00871681
0.00870219
0.00868455
0.00866734
0.0086508
0.00863593
0.00862065
0.00859637
0.00786096
0.00786111
0.00858653
0.00861592
0.00863428
0.00864892
0.00866326
0.00868057
0.00869506
0.00871082
0.00872621
0.00874519
0.00876904
0.00880777
0.00884941
0.00887382
0.00887386
0.00885055
0.00881344
0.00877788
0.00875542
0.00873671
0.00871695
0.0087021
0.00868415
0.0086667
0.00865011
0.00863539
0.0086204
0.00859642
0.00786097
0.00786057
0.00859405
0.0086213
0.00864243
0.00865566
0.0086722
0.00868794
0.00870425
0.00871755
0.00873427
0.00875058
0.00877162
0.00880355
0.00884159
0.00886684
0.00887585
0.00885945
0.00881833
0.00876968
0.00874
0.00872684
0.00870367
0.00868765
0.00867048
0.00865614
0.0086403
0.00862986
0.00861209
0.00858595
0.0078605
0.00786129
0.00859227
0.00861959
0.00863752
0.00865177
0.00866595
0.00868326
0.0086982
0.00871373
0.00872847
0.00874693
0.00876942
0.00880583
0.00884619
0.00887218
0.0088753
0.00885326
0.00881609
0.00877905
0.00875612
0.00873692
0.00871658
0.00870156
0.00868362
0.00866604
0.00864871
0.00863365
0.00862009
0.00859603
0.00786096
0.00786109
0.00859694
0.00862048
0.00862999
0.00864819
0.00866379
0.00868458
0.00870054
0.00871884
0.00873556
0.0087561
0.0087777
0.00881261
0.00884914
0.00887518
0.00887465
0.00885093
0.00881206
0.00877585
0.00875387
0.00873376
0.00871751
0.00869992
0.0086849
0.00866545
0.00865187
0.00863516
0.00862127
0.0085969
0.00786137
0.00786141
0.00859293
0.00862228
0.00864056
0.00865636
0.00867061
0.00868801
0.00870264
0.00871791
0.00873127
0.0087482
0.0087691
0.00880123
0.00884057
0.00886846
0.00887694
0.00885547
0.00881883
0.00878115
0.00875901
0.00873911
0.00871874
0.00870305
0.00868451
0.00866708
0.00864917
0.00863312
0.00862069
0.00859686
0.00786102
0.011422
0.0125072
0.0114471
0.010479
0.00911917
0.00969989
0.010863
0.0120359
0.0121568
0.0111265
0.0100489
0.00928029
0.00965865
0.0113102
0.0125991
0.0225429
0.0308201
0.0334715
0.0355249
0.0368559
0.0384379
0.0403097
0.0405137
0.0411149
0.0422799
0.0418607
0.039784
0.0352537
0.0297383
0.0236378
0.0179984
0.0143411
0.0124184
0.0113075
0.0105353
0.00975482
0.00923991
0.00887804
0.00889387
0.00888939
0.0106451
0.0134104
0.0166901
0.0190879
0.0118121
0.016508
0.0201162
0.0227759
0.0237686
0.0227634
0.0203231
0.0174956
0.0151897
0.0135989
0.0124102
0.011562
0.0108713
0.0103768
0.00992827
0.0096741
0.00939075
0.00924366
0.00904296
0.00895678
0.00880456
0.00875146
0.00863281
0.00860611
0.00856134
0.00855832
0.00853988
0.00855946
0.00855927
0.0084506
0.00965478
0.0097223
0.009581
0.00945016
0.00932407
0.00920505
0.00909196
0.00899357
0.00892575
0.00884554
0.00881627
0.00875689
0.00874159
0.00870366
0.00868691
0.0086675
0.008653
0.00864459
0.00862925
0.00862763
0.008616
0.0086108
0.00860687
0.0085986
0.00859732
0.00858977
0.00858969
0.00858463
0.00857927
0.0084686
0.00852366
0.00861881
0.00861974
0.00861856
0.00861403
0.00861381
0.00860845
0.00861103
0.00860552
0.00861021
0.00860485
0.00861047
0.00860586
0.00861232
0.00860832
0.00861215
0.00861051
0.00861066
0.00861107
0.00861021
0.00861207
0.00861048
0.00861281
0.00861102
0.00861303
0.00861274
0.0086119
0.00861368
0.00860492
0.00847773
0.00847764
0.00860529
0.00861347
0.00861187
0.00861448
0.00861254
0.00861516
0.00861327
0.00861594
0.00861417
0.00861691
0.00861518
0.00861758
0.00861848
0.00861752
0.00861963
0.00861671
0.00861797
0.00861504
0.00861676
0.00861415
0.00861596
0.00861347
0.00861516
0.00861274
0.00861419
0.00861211
0.00861147
0.0086049
0.00847911
0.00847744
0.00860496
0.0086135
0.0086122
0.00861275
0.00861456
0.00861291
0.00861558
0.00861372
0.00861638
0.00861455
0.0086172
0.00861571
0.00861873
0.00861722
0.00861957
0.00861701
0.00861814
0.00861514
0.00861672
0.00861411
0.00861576
0.00861319
0.00861497
0.00861241
0.00861432
0.00861175
0.00861333
0.00860542
0.00847756
0.00847752
0.00860558
0.00861152
0.00861378
0.00861234
0.00861491
0.00861305
0.00861568
0.00861375
0.00861642
0.00861459
0.00861725
0.00861582
0.0086189
0.00861749
0.00861962
0.00861682
0.00861797
0.00861508
0.00861676
0.00861419
0.00861596
0.00861348
0.00861517
0.00861276
0.00861424
0.00861208
0.00861166
0.00860485
0.00847918
0.00847893
0.00860544
0.00861103
0.00861391
0.00861233
0.00861479
0.00861303
0.00861555
0.00861372
0.00861628
0.00861451
0.00861712
0.00861579
0.00861889
0.00861752
0.00861958
0.0086168
0.00861799
0.0086151
0.00861676
0.00861418
0.00861596
0.00861347
0.00861516
0.00861275
0.00861422
0.00861211
0.00861165
0.0086048
0.0084792
0.00847955
0.00860494
0.00861304
0.00861188
0.00861454
0.00861272
0.00861527
0.00861341
0.00861597
0.00861411
0.00861672
0.00861497
0.00861782
0.00861655
0.00861937
0.00861754
0.00861907
0.00861602
0.00861693
0.00861481
0.00861418
0.00861578
0.00861325
0.008615
0.00861244
0.00861432
0.00861172
0.00861334
0.00860529
0.00847762
0.00847934
0.00860518
0.00861106
0.00861401
0.0086124
0.00861486
0.0086131
0.0086156
0.00861377
0.00861631
0.00861453
0.00861712
0.00861574
0.0086188
0.00861747
0.00861962
0.00861688
0.00861804
0.00861512
0.00861677
0.00861421
0.00861594
0.00861348
0.00861514
0.00861275
0.00861415
0.00861214
0.00861146
0.00860493
0.0084791
0.00847761
0.0086051
0.00861339
0.00861352
0.00861233
0.00861488
0.008613
0.00861564
0.00861374
0.00861639
0.00861456
0.0086172
0.0086158
0.0086188
0.00861767
0.00861769
0.00861884
0.0086158
0.00861716
0.00861455
0.00861639
0.00861375
0.00861569
0.00861305
0.00861496
0.00861237
0.00861388
0.00861283
0.00860533
0.00847768
0.00847924
0.00860537
0.00861111
0.00861403
0.00861236
0.00861494
0.00861308
0.00861569
0.00861374
0.00861641
0.00861443
0.00861716
0.00861562
0.00861873
0.00861733
0.00861969
0.00861703
0.00861821
0.00861531
0.00861703
0.00861448
0.00861627
0.00861374
0.00861548
0.00861299
0.00861436
0.00861235
0.00861163
0.00860489
0.00847915
0.016008
0.0175835
0.0200003
0.02176
0.0191138
0.0180931
0.0171952
0.0174012
0.0165643
0.014616
0.0134538
0.0121545
0.0100361
0.00871624
0.0166163
0.0290117
0.032984
0.0349436
0.0322891
0.0319801
0.0326431
0.0343056
0.0378701
0.0409188
0.0447238
0.0483886
0.0494644
0.0495796
0.0455618
0.0371691
0.029856
0.0231013
0.0184717
0.016037
0.0145621
0.0130448
0.012011
0.010794
0.00991289
0.00938151
0.0091218
0.00917287
0.0104355
0.0124518
0.0166171
0.0254151
0.0306921
0.0336938
0.0356919
0.0370008
0.0357626
0.0307121
0.0254136
0.0212029
0.0184494
0.0166274
0.0153127
0.0143547
0.0135541
0.0130068
0.0125461
0.0121995
0.0119249
0.0116605
0.011475
0.0112894
0.0110681
0.0109136
0.0106104
0.0103767
0.010092
0.00983247
0.00961544
0.00941265
0.013098
0.0134419
0.0131162
0.0127349
0.0124489
0.0121678
0.0119558
0.0117472
0.011615
0.0114746
0.0113877
0.0113036
0.0112413
0.011194
0.011144
0.011114
0.0110735
0.0110576
0.0110243
0.0110158
0.0109916
0.0109817
0.0109681
0.0109526
0.0109454
0.010926
0.0109151
0.0108966
0.0108827
0.0108652
0.0109724
0.0109788
0.0109703
0.0109629
0.0109534
0.0109439
0.010943
0.0109323
0.010935
0.0109237
0.0109298
0.0109185
0.0109265
0.010917
0.0109223
0.0109188
0.0109178
0.0109181
0.0109156
0.0109175
0.0109145
0.0109171
0.0109143
0.0109168
0.0109143
0.0109137
0.010918
0.010913
0.0109161
0.0109015
0.0109018
0.0109157
0.0109123
0.0109177
0.0109122
0.0109177
0.0109121
0.0109178
0.0109121
0.0109178
0.0109124
0.0109177
0.0109139
0.0109139
0.010918
0.0109129
0.0109181
0.0109127
0.0109178
0.0109123
0.0109179
0.0109125
0.0109183
0.0109131
0.0109184
0.010914
0.0109176
0.0109175
0.0109133
0.0109066
0.0109017
0.0109157
0.0109132
0.0109175
0.0109156
0.0109131
0.0109177
0.0109124
0.0109177
0.010912
0.0109177
0.0109121
0.0109178
0.0109127
0.010918
0.0109131
0.0109181
0.0109129
0.010918
0.0109128
0.0109182
0.0109126
0.010918
0.0109124
0.0109177
0.0109123
0.0109176
0.0109126
0.0109159
0.0109018
0.0109029
0.0109149
0.0109162
0.0109131
0.0109179
0.0109125
0.0109179
0.0109123
0.0109178
0.010912
0.0109179
0.0109124
0.0109182
0.0109132
0.0109184
0.0109134
0.0109184
0.0109129
0.010918
0.0109125
0.010918
0.0109126
0.0109183
0.0109131
0.0109184
0.0109138
0.0109179
0.0109172
0.0109134
0.0109066
0.0109059
0.0109129
0.0109183
0.0109132
0.0109184
0.0109128
0.0109181
0.0109125
0.0109179
0.0109123
0.010918
0.0109127
0.0109183
0.0109133
0.0109184
0.0109134
0.0109183
0.0109129
0.010918
0.0109125
0.010918
0.0109126
0.0109183
0.0109131
0.0109184
0.0109139
0.0109179
0.0109174
0.0109133
0.0109066
0.0109051
0.0109134
0.0109142
0.0109178
0.0109127
0.0109179
0.0109123
0.0109179
0.0109121
0.0109177
0.0109122
0.0109179
0.0109127
0.0109182
0.0109132
0.0109183
0.0109134
0.0109183
0.0109142
0.0109167
0.0109172
0.010913
0.0109182
0.0109125
0.0109178
0.0109124
0.0109177
0.0109122
0.0109158
0.0109019
0.0109063
0.0109127
0.0109185
0.0109131
0.0109184
0.0109127
0.0109181
0.0109125
0.0109179
0.0109122
0.010918
0.0109127
0.0109182
0.0109133
0.0109184
0.0109134
0.0109184
0.0109131
0.0109181
0.0109126
0.010918
0.0109127
0.0109183
0.0109132
0.0109185
0.010914
0.0109176
0.0109176
0.0109133
0.0109066
0.0109013
0.0109151
0.0109138
0.0109141
0.0109169
0.0109123
0.0109178
0.0109122
0.0109177
0.0109121
0.0109179
0.0109125
0.0109183
0.0109135
0.0109179
0.0109177
0.0109138
0.0109184
0.0109126
0.0109179
0.0109121
0.0109177
0.0109121
0.0109178
0.0109122
0.0109174
0.0109135
0.0109141
0.0109148
0.0109015
0.0109062
0.0109128
0.0109185
0.0109131
0.0109185
0.0109127
0.0109184
0.0109124
0.0109181
0.010912
0.0109181
0.0109123
0.0109185
0.0109131
0.0109187
0.0109136
0.0109189
0.0109135
0.0109185
0.0109127
0.0109183
0.0109127
0.0109186
0.0109133
0.0109187
0.0109139
0.0109176
0.0109177
0.0109131
0.0109065
0.0263861
0.0262084
0.0282387
0.0279376
0.0268044
0.0249269
0.0245602
0.0228771
0.0212934
0.019934
0.0169932
0.0163382
0.0123751
0.00957183
0.0191883
0.028227
0.0300358
0.0285525
0.0267261
0.0259071
0.0262453
0.0284413
0.0322758
0.0365844
0.0418161
0.0469898
0.0515643
0.0556617
0.0560019
0.0506797
0.0416461
0.0345578
0.0283698
0.0234805
0.0203067
0.0181991
0.0161938
0.0147417
0.0128563
0.011612
0.0100888
0.0094289
0.00915409
0.00912205
0.0215859
0.0313596
0.0324105
0.0325767
0.0353755
0.0403413
0.0446192
0.0452433
0.0396574
0.0326448
0.027166
0.0237192
0.0214591
0.0199037
0.0186314
0.0176815
0.0168958
0.0162873
0.0157862
0.0152832
0.0149458
0.0145058
0.0141412
0.0138035
0.0133641
0.0130708
0.01255
0.0121848
0.0116505
0.0112462
0.0183314
0.0193328
0.0185856
0.017657
0.016884
0.0163014
0.0158037
0.0154328
0.0151252
0.0148671
0.0146834
0.0144958
0.0143913
0.0142371
0.0141889
0.0140532
0.0140374
0.0139273
0.0139209
0.0138402
0.0138282
0.0137736
0.013755
0.0137098
0.0136922
0.013649
0.0136205
0.0135932
0.0135497
0.0134173
0.0137047
0.0138009
0.0137616
0.0137482
0.0137155
0.0137013
0.0136806
0.0136709
0.0136568
0.0136529
0.0136417
0.0136427
0.0136327
0.0136376
0.0136261
0.0136348
0.0136238
0.0136316
0.0136224
0.0136295
0.0136224
0.0136281
0.0136233
0.0136275
0.013624
0.0136263
0.0136267
0.0136277
0.0136196
0.0134824
0.0134814
0.0136191
0.0136265
0.0136275
0.0136267
0.0136269
0.0136264
0.013627
0.0136265
0.0136273
0.0136269
0.0136276
0.0136272
0.0136277
0.0136281
0.0136273
0.013628
0.0136271
0.0136273
0.0136266
0.0136272
0.0136265
0.0136273
0.0136269
0.0136276
0.0136274
0.0136278
0.013628
0.01362
0.0134805
0.013482
0.0136196
0.0136272
0.0136279
0.0136264
0.0136265
0.0136271
0.0136265
0.013627
0.0136264
0.0136272
0.0136264
0.0136276
0.013627
0.0136278
0.0136272
0.0136279
0.0136272
0.0136277
0.0136273
0.0136279
0.0136268
0.0136272
0.0136265
0.013627
0.0136266
0.0136273
0.0136266
0.0136194
0.0134808
0.013482
0.0136198
0.0136267
0.0136268
0.0136274
0.0136266
0.0136271
0.0136264
0.013627
0.0136264
0.0136274
0.0136269
0.013628
0.0136276
0.0136284
0.0136277
0.0136283
0.0136273
0.0136276
0.0136268
0.0136274
0.0136266
0.0136273
0.013627
0.0136277
0.0136275
0.0136281
0.0136281
0.0136201
0.0134806
0.0134807
0.01362
0.0136277
0.0136275
0.0136278
0.0136267
0.0136272
0.0136265
0.0136271
0.0136266
0.0136275
0.013627
0.0136281
0.0136277
0.0136284
0.0136277
0.0136282
0.0136273
0.0136276
0.0136267
0.0136273
0.0136266
0.0136273
0.0136269
0.0136277
0.0136275
0.0136281
0.0136282
0.01362
0.0134806
0.0134802
0.0136193
0.0136274
0.0136277
0.013627
0.0136273
0.0136264
0.013627
0.0136263
0.0136271
0.0136266
0.0136274
0.0136271
0.0136279
0.0136274
0.0136281
0.0136275
0.0136283
0.0136277
0.0136275
0.0136275
0.0136269
0.0136274
0.0136265
0.013627
0.0136267
0.0136275
0.0136263
0.0136191
0.0134819
0.01348
0.0136201
0.013628
0.0136275
0.0136278
0.0136267
0.0136272
0.0136264
0.0136271
0.0136265
0.0136274
0.013627
0.0136281
0.0136277
0.0136284
0.0136277
0.0136282
0.0136273
0.0136276
0.0136268
0.0136274
0.0136267
0.0136274
0.013627
0.0136277
0.0136275
0.0136279
0.0136281
0.0136201
0.0134806
0.0134817
0.0136194
0.0136272
0.013627
0.0136266
0.0136265
0.0136271
0.0136265
0.0136271
0.0136266
0.0136275
0.0136269
0.0136281
0.0136277
0.0136283
0.0136283
0.0136279
0.0136282
0.0136269
0.0136275
0.0136265
0.0136271
0.0136264
0.0136271
0.0136266
0.0136272
0.0136273
0.0136267
0.0136194
0.0134816
0.0134801
0.01362
0.013628
0.0136275
0.0136279
0.0136268
0.0136273
0.0136266
0.0136272
0.0136266
0.0136275
0.0136271
0.0136284
0.0136281
0.0136292
0.0136285
0.0136292
0.0136282
0.0136285
0.0136276
0.0136279
0.0136272
0.0136279
0.0136274
0.013628
0.0136272
0.0136277
0.0136279
0.0136195
0.0134801
0.0288574
0.0287532
0.0291937
0.0297396
0.0297578
0.0287704
0.0274158
0.0262854
0.0255114
0.0242697
0.0217349
0.019801
0.0150765
0.0108113
0.0220857
0.0256215
0.0277549
0.0235815
0.0221938
0.022269
0.023016
0.0248518
0.0273822
0.0322991
0.0388528
0.0455975
0.0519246
0.0560746
0.0595226
0.0601324
0.0548473
0.0455433
0.0392098
0.0334798
0.0284641
0.0250694
0.0224638
0.020215
0.0178835
0.0156663
0.0134972
0.0114469
0.00993258
0.00910748
0.0257931
0.0291281
0.0245789
0.0236074
0.0271366
0.034025
0.0432886
0.0506024
0.0513479
0.0457097
0.0383306
0.0327995
0.0293736
0.0271068
0.0254704
0.0240571
0.0230665
0.0221819
0.021501
0.0208865
0.0204348
0.0198574
0.0195017
0.0189352
0.0184424
0.0177696
0.0170438
0.0161287
0.0150932
0.0139755
0.0256008
0.0273517
0.0265792
0.0248913
0.0233917
0.0222877
0.0215387
0.0209574
0.0205669
0.0202216
0.019986
0.0197756
0.0196177
0.0194853
0.0193727
0.0192771
0.0192012
0.0191329
0.0190774
0.0190256
0.0189834
0.0189447
0.0189031
0.0188725
0.0188315
0.018795
0.0187413
0.0186896
0.0186044
0.0185659
0.019079
0.0189752
0.0189241
0.0188828
0.0188535
0.0188242
0.0188108
0.0187857
0.0187841
0.0187611
0.0187666
0.018746
0.0187539
0.0187374
0.0187437
0.0187328
0.018737
0.0187295
0.0187315
0.0187273
0.0187281
0.0187254
0.0187256
0.0187239
0.0187246
0.0187217
0.0187252
0.0187221
0.0187246
0.0187724
0.0187718
0.0187242
0.0187218
0.0187238
0.0187213
0.0187229
0.0187205
0.0187224
0.0187202
0.0187223
0.0187204
0.0187215
0.0187207
0.018721
0.0187213
0.0187202
0.0187214
0.0187201
0.0187217
0.01872
0.0187222
0.0187202
0.0187225
0.0187209
0.0187232
0.0187221
0.0187231
0.0187234
0.0187235
0.018771
0.0187721
0.0187234
0.0187222
0.0187232
0.0187214
0.0187211
0.0187224
0.0187203
0.018722
0.01872
0.0187218
0.0187198
0.0187215
0.0187201
0.0187213
0.0187204
0.0187215
0.0187203
0.0187219
0.0187207
0.0187226
0.0187206
0.0187225
0.0187207
0.0187228
0.0187214
0.0187234
0.0187217
0.0187241
0.0187714
0.0187723
0.0187227
0.018722
0.0187221
0.0187233
0.018721
0.0187225
0.0187202
0.0187221
0.01872
0.018722
0.0187201
0.0187218
0.0187204
0.0187217
0.0187206
0.0187217
0.0187202
0.0187218
0.0187201
0.0187222
0.0187202
0.0187225
0.018721
0.0187233
0.0187222
0.0187235
0.0187234
0.0187236
0.0187711
0.0187711
0.0187237
0.018724
0.0187224
0.0187236
0.018721
0.0187227
0.0187203
0.0187221
0.0187201
0.018722
0.0187202
0.0187218
0.0187204
0.0187217
0.0187205
0.0187216
0.0187202
0.0187218
0.0187201
0.0187222
0.0187202
0.0187225
0.0187209
0.0187232
0.0187221
0.0187234
0.0187235
0.0187236
0.0187711
0.0187702
0.0187232
0.0187227
0.0187237
0.0187216
0.0187229
0.0187205
0.0187222
0.01872
0.018722
0.01872
0.0187217
0.0187202
0.0187215
0.0187204
0.0187216
0.0187205
0.0187218
0.0187213
0.0187211
0.0187217
0.0187208
0.0187226
0.0187207
0.0187229
0.0187214
0.0187236
0.0187215
0.0187235
0.018772
0.0187705
0.0187233
0.0187241
0.0187224
0.0187237
0.018721
0.0187226
0.0187202
0.018722
0.0187201
0.018722
0.0187202
0.0187218
0.0187204
0.0187217
0.0187206
0.0187216
0.0187203
0.0187218
0.0187202
0.0187223
0.0187204
0.0187226
0.018721
0.0187232
0.0187222
0.0187231
0.0187234
0.0187236
0.0187711
0.0187718
0.018723
0.0187226
0.0187218
0.0187224
0.018721
0.0187226
0.0187203
0.0187222
0.0187202
0.0187221
0.01872
0.018722
0.0187206
0.0187215
0.0187212
0.0187207
0.0187219
0.0187201
0.0187221
0.0187202
0.0187222
0.0187202
0.0187225
0.0187209
0.0187229
0.0187224
0.0187222
0.0187227
0.0187719
0.0187708
0.0187235
0.0187244
0.0187223
0.0187241
0.018721
0.0187232
0.0187202
0.0187227
0.0187199
0.0187223
0.0187198
0.018722
0.0187202
0.018722
0.0187205
0.0187216
0.01872
0.0187217
0.0187198
0.018722
0.0187198
0.0187223
0.0187202
0.0187229
0.0187213
0.0187224
0.0187226
0.0187225
0.0187704
0.0292134
0.0301064
0.0319381
0.0332416
0.0322928
0.0303341
0.0286607
0.0275051
0.0268321
0.0263421
0.0240005
0.0197864
0.0160047
0.0125538
0.0236147
0.0252042
0.0202227
0.0194475
0.0206788
0.0218135
0.0226726
0.023816
0.0259833
0.0293435
0.0363732
0.0443113
0.0513695
0.0568979
0.0599332
0.0631974
0.0634007
0.059215
0.0502874
0.0443002
0.0390275
0.0341624
0.0302976
0.0274054
0.0243563
0.021577
0.0185274
0.0153523
0.0118951
0.00942376
0.0252171
0.0215556
0.0182187
0.0192508
0.0237796
0.0310538
0.0403897
0.0503717
0.0565506
0.0555664
0.049512
0.0430742
0.0385207
0.03556
0.0334585
0.031748
0.0303422
0.0291584
0.0281411
0.0273322
0.0264429
0.0257455
0.0249943
0.0242621
0.0235307
0.0227091
0.0216749
0.0203808
0.018532
0.016787
0.0310391
0.0342653
0.0352577
0.0334763
0.0310684
0.0293171
0.0281123
0.0273027
0.0266419
0.0261705
0.0257429
0.0254546
0.0251487
0.0249765
0.0247401
0.0246343
0.0244493
0.0243823
0.0242438
0.0241831
0.0240897
0.0240226
0.0239513
0.0238843
0.0238154
0.0237318
0.0236541
0.023541
0.0234125
0.0233047
0.0243709
0.0241951
0.0240349
0.0239493
0.0238758
0.0238238
0.0237884
0.023756
0.0237365
0.0237173
0.0237037
0.0236944
0.0236827
0.0236809
0.0236688
0.0236728
0.0236619
0.023667
0.023658
0.0236633
0.0236561
0.0236605
0.0236557
0.0236594
0.0236554
0.0236561
0.0236541
0.0236514
0.0236489
0.0236954
0.0236949
0.0236483
0.0236513
0.0236545
0.0236565
0.0236574
0.0236584
0.0236582
0.0236586
0.0236587
0.0236589
0.0236585
0.0236588
0.0236588
0.0236585
0.0236584
0.0236583
0.0236585
0.0236584
0.0236585
0.0236583
0.0236582
0.0236583
0.0236583
0.0236577
0.0236564
0.0236541
0.023651
0.0236487
0.0236932
0.0236951
0.0236483
0.023651
0.0236546
0.0236553
0.0236571
0.0236584
0.0236581
0.0236582
0.0236582
0.0236584
0.0236582
0.0236582
0.0236583
0.0236581
0.0236585
0.0236584
0.0236587
0.0236589
0.0236594
0.0236593
0.0236588
0.0236586
0.0236582
0.0236573
0.0236564
0.023654
0.0236505
0.0236482
0.0236938
0.0236949
0.0236482
0.0236498
0.0236543
0.0236564
0.0236575
0.0236581
0.0236581
0.0236582
0.0236584
0.0236586
0.0236588
0.0236587
0.0236588
0.0236586
0.0236588
0.0236586
0.0236587
0.0236586
0.0236586
0.0236585
0.0236583
0.0236583
0.0236584
0.0236579
0.0236567
0.0236547
0.0236512
0.0236487
0.0236935
0.023694
0.023649
0.0236511
0.0236548
0.0236565
0.0236575
0.0236581
0.0236581
0.0236582
0.0236584
0.0236587
0.0236588
0.0236587
0.0236588
0.0236586
0.0236587
0.0236586
0.0236587
0.0236585
0.0236586
0.0236584
0.0236583
0.0236583
0.0236584
0.0236579
0.0236565
0.0236545
0.0236511
0.0236487
0.0236934
0.0236926
0.0236486
0.023651
0.0236543
0.0236565
0.0236572
0.0236579