/*--------------------------------*- C++ -*----------------------------------*\
| =========                 |                                                 |
| \\      /  F ield         | OpenFOAM: The Open Source CFD Toolbox           |
|  \\    /   O peration     | Version:  2.1.1                                 |
|   \\  /    A nd           | Web:      www.OpenFOAM.org                      |
|    \\/     M anipulation  |                                                 |
\*---------------------------------------------------------------------------*/
FoamFile
{
    version     2.0;
    format      ascii;
    class       volScalarField;
    location    "0.001450000";
    object      H2O2;
}
// * * * * * * * * * * * * * * * * * * * * * * * * * * * * * * * * * * * * * //

dimensions      [0 0 0 0 0 0 0];

internalField   nonuniform List<scalar> 
12384
(
8.02819e-08
4.56927e-08
1.50353e-08
2.68672e-09
1.63639e-10
2.33987e-11
4.85576e-12
1.23742e-12
1.32531e-13
2.67357e-15
4.97809e-17
9.65895e-19
9.94192e-21
8.66986e-23
3.9824e-21
5.97218e-19
1.02157e-16
8.97998e-15
1.80543e-13
6.51007e-13
8.72264e-13
7.63868e-13
4.93529e-13
1.26265e-13
1.81202e-14
3.14367e-15
4.48453e-17
2.06459e-19
9.79795e-22
1.38231e-24
1.91274e-27
2.98813e-30
4.02124e-33
5.23866e-36
6.97715e-39
9.77868e-42
1.26139e-44
2.216e-47
3.10641e-50
5.83408e-53
8.93046e-56
1.62706e-58
3.08792e-61
5.75532e-64
4.27411e-78
9.75733e-79
2.04243e-80
8.02236e-82
9.38392e-84
6.24283e-86
2.50768e-88
6.42671e-91
8.57051e-94
7.20746e-97
6.36512e-100
5.7231e-103
5.3959e-106
4.95937e-109
4.81487e-112
4.5502e-115
4.20427e-118
4.023e-121
3.7272e-124
3.46127e-127
3.18986e-130
5.35836e-133
1.04164e-135
1.3687e-138
1.51796e-141
1.54901e-144
1.46377e-147
1.35317e-150
1.17652e-153
1.00296e-156
4.287e-166
7.62431e-168
8.91268e-171
6.00774e-174
1.78984e-179
1.1264e-184
8.49718e-189
8.11905e-193
5.42813e-197
3.41641e-201
1.3462e-205
3.36878e-210
6.17377e-215
9.44835e-220
1.2531e-224
3.65947e-229
3.82557e-232
6.50211e-235
1.04119e-237
1.65382e-240
2.55531e-243
3.90093e-246
5.89069e-249
9.16267e-252
1.40606e-254
2.21311e-257
3.58401e-260
6.52471e-263
1.44928e-265
2.73295e-268
7.04696e-286
2.04825e-285
2.73502e-287
8.50285e-290
2.75964e-292
7.65641e-295
1.84984e-297
4.12277e-300
8.70695e-303
1.77195e-305
3.52581e-308
6.87364e-311
1.29422e-313
2.31233e-316
3.92461e-319
6.42285e-322
0
0
0
0
0
0
0
0
0
0
0
0
0
0
0
0
0
0
0
0
0
0
0
0
0
0
0
0
0
0
0
0
0
0
0
0
0
0
0
0
0
0
0
0
0
0
0
0
0
0
0
0
0
0
0
0
0
0
0
0
0
0
0
0
0
0
0
0
0
0
0
0
0
0
0
0
0
0
0
0
0
0
0
0
0
0
0
0
0
0
0
0
0
0
0
0
0
0
0
0
0
0
0
0
0
0
0
0
0
0
0
0
0
0
0
0
0
0
0
0
0
0
0
0
0
0
0
0
0
0
0
0
0
0
0
0
0
0
0
0
0
0
0
0
0
0
0
0
0
0
0
0
0
0
0
0
0
0
0
0
0
0
0
0
0
0
0
0
0
0
0
0
0
0
0
0
0
0
0
0
0
0
0
0
0
0
0
0
0
0
0
0
0
0
0
0
0
0
0
0
0
0
0
0
0
0
0
0
0
0
0
0
0
0
0
0
0
0
0
0
0
0
0
0
0
0
0
0
0
0
0
0
0
0
0
0
0
0
0
0
0
0
0
0
0
0
0
0
0
0
0
0
0
0
1.12038e-07
1.73191e-07
5.11294e-08
8.61511e-09
1.93342e-09
2.57291e-10
2.79095e-11
1.23073e-11
2.54664e-12
9.65039e-14
4.86239e-15
1.69926e-16
1.39347e-18
9.03007e-21
5.47035e-20
8.9356e-18
6.75091e-15
1.16557e-12
8.65141e-11
2.60139e-10
2.78933e-10
2.89826e-10
2.22095e-10
7.77626e-11
2.511e-12
2.90689e-13
4.51134e-15
6.84342e-18
2.9393e-20
5.05886e-24
6.91618e-27
6.22441e-29
8.32473e-32
7.00085e-35
9.20875e-38
1.139e-40
1.65825e-43
2.00935e-46
2.52392e-49
2.91194e-52
3.34681e-55
4.40938e-58
5.68545e-61
8.85867e-64
7.0801e-76
5.91695e-77
9.98845e-79
5.11407e-80
6.07537e-82
3.59725e-84
1.44696e-86
4.22773e-89
7.47237e-92
2.46527e-95
1.47651e-98
2.18216e-101
2.82214e-104
4.02818e-107
4.76828e-110
5.8647e-113
6.77781e-116
8.08459e-119
9.59044e-122
1.12442e-124
1.22516e-127
4.2654e-130
1.25054e-132
1.45671e-135
1.41363e-138
1.33548e-141
1.15264e-144
9.57723e-148
7.60698e-151
5.51496e-154
6.81219e-163
1.11483e-164
1.11923e-167
1.02565e-170
5.85697e-174
4.83332e-179
3.84657e-183
3.73642e-187
2.5931e-191
2.05225e-195
8.39906e-200
2.05896e-204
3.63494e-209
5.14567e-214
6.60235e-219
7.32379e-224
1.17052e-228
7.33945e-232
1.15299e-234
1.75905e-237
2.73259e-240
4.11957e-243
6.31701e-246
9.6183e-249
1.46496e-251
2.26311e-254
3.64667e-257
6.39591e-260
1.33799e-262
2.08096e-265
1.56773e-282
2.34342e-282
3.21735e-284
1.06197e-286
3.70399e-289
1.09903e-291
2.82236e-294
6.63003e-297
1.46473e-299
3.0918e-302
6.31632e-305
1.24781e-307
2.35745e-310
4.18799e-313
6.97725e-316
1.11324e-318
1.70947e-321
4.94066e-324
0
0
0
0
0
0
0
0
0
0
0
0
0
0
0
0
0
0
0
0
0
0
0
0
0
0
0
0
0
0
0
0
0
0
0
0
0
0
0
0
0
0
0
0
0
0
0
0
0
0
0
0
0
0
0
0
0
0
0
0
0
0
0
0
0
0
0
0
0
0
0
0
0
0
0
0
0
0
0
0
0
0
0
0
0
0
0
0
0
0
0
0
0
0
0
0
0
0
0
0
0
0
0
0
0
0
0
0
0
0
0
0
0
0
0
0
0
0
0
0
0
0
0
0
0
0
0
0
0
0
0
0
0
0
0
0
0
0
0
0
0
0
0
0
0
0
0
0
0
0
0
0
0
0
0
0
0
0
0
0
0
0
0
0
0
0
0
0
0
0
0
0
0
0
0
0
0
0
0
0
0
0
0
0
0
0
0
0
0
0
0
0
0
0
0
0
0
0
0
0
0
0
0
0
0
0
0
0
0
0
0
0
0
0
0
0
0
0
0
0
0
0
0
0
0
0
0
0
0
0
0
0
0
0
0
0
0
0
0
0
0
0
0
0
0
0
0
0
0
0
0
0
1.34688e-08
2.19261e-08
6.40964e-09
1.53895e-09
5.6641e-10
2.46218e-10
1.95412e-10
8.42677e-11
1.84559e-11
4.57294e-13
2.11725e-14
8.1227e-16
3.2211e-17
2.20051e-19
8.15193e-19
1.42373e-14
6.15418e-11
4.34879e-09
1.99872e-08
1.99188e-08
1.37164e-08
1.19009e-08
1.33468e-08
1.55605e-08
1.01212e-08
3.97997e-09
4.95216e-10
3.83082e-12
1.02429e-14
3.44865e-19
1.33297e-22
5.76544e-26
6.03651e-30
9.28764e-34
9.41729e-37
5.2988e-40
4.89328e-43
5.01405e-47
6.99365e-48
7.8064e-51
4.81952e-53
7.59233e-56
1.02595e-58
2.87847e-61
6.34202e-74
3.11863e-74
1.07137e-75
1.10081e-76
1.36485e-78
7.17215e-81
1.72894e-83
2.98353e-86
3.05243e-89
1.5368e-93
1.22771e-96
8.54648e-100
6.69402e-103
5.62706e-106
4.33221e-109
3.90289e-112
3.28539e-115
3.33255e-118
3.20072e-121
3.5802e-124
3.51729e-127
7.84979e-130
6.93902e-132
9.32344e-135
1.28385e-137
1.94807e-140
2.27519e-143
2.62989e-146
1.75377e-149
7.55995e-153
3.92964e-162
8.03623e-164
7.96062e-167
6.22723e-170
4.40263e-173
2.84888e-176
2.69787e-180
2.60247e-184
2.10765e-188
2.32163e-192
9.34638e-197
2.34392e-201
4.17494e-206
5.80875e-211
7.47351e-216
8.41494e-221
8.42873e-226
8.56445e-231
1.94516e-234
2.86774e-237
4.17549e-240
6.60514e-243
9.69735e-246
1.56468e-248
2.2703e-251
3.75136e-254
5.90947e-257
1.08697e-259
2.20157e-262
2.48759e-265
7.22714e-282
5.49627e-282
6.09135e-284
2.33988e-286
8.49889e-289
2.56991e-291
7.28736e-294
1.76941e-296
4.09764e-299
8.78781e-302
1.85383e-304
3.6683e-307
7.22286e-310
1.30112e-312
2.17819e-315
3.35169e-318
4.82702e-321
4.94066e-324
0
0
0
0
0
0
0
0
0
0
0
0
0
0
0
0
0
0
0
0
0
0
0
0
0
0
0
0
0
0
0
0
0
0
0
0
0
0
0
0
0
0
0
0
0
0
0
0
0
0
0
0
0
0
0
0
0
0
0
0
0
0
0
0
0
0
0
0
0
0
0
0
0
0
0
0
0
0
0
0
0
0
0
0
0
0
0
0
0
0
0
0
0
0
0
0
0
0
0
0
0
0
0
0
0
0
0
0
0
0
0
0
0
0
0
0
0
0
0
0
0
0
0
0
0
0
0
0
0
0
0
0
0
0
0
0
0
0
0
0
0
0
0
0
0
0
0
0
0
0
0
0
0
0
0
0
0
0
0
0
0
0
0
0
0
0
0
0
0
0
0
0
0
0
0
0
0
0
0
0
0
0
0
0
0
0
0
0
0
0
0
0
0
0
0
0
0
0
0
0
0
0
0
0
0
0
0
0
0
0
0
0
0
0
0
0
0
0
0
0
0
0
0
0
0
0
0
0
0
0
0
0
0
0
0
0
0
0
0
0
0
0
0
0
0
0
0
0
0
0
0
0
8.5124e-09
1.45346e-08
8.0727e-09
4.36092e-09
1.4308e-09
2.45255e-09
3.08918e-09
3.4162e-09
1.9009e-09
3.69688e-10
8.77147e-12
7.87906e-14
3.23816e-16
1.79051e-18
5.87614e-15
2.12591e-10
6.22946e-09
1.20475e-08
2.50462e-08
1.9245e-08
1.18573e-08
8.46078e-09
8.07714e-09
6.13661e-09
2.38307e-09
1.20816e-09
9.71015e-10
6.81856e-10
8.49641e-11
8.55428e-13
4.90298e-16
1.36843e-19
9.23018e-24
1.03388e-27
6.91818e-31
2.99164e-34
8.40368e-38
4.27679e-42
1.89477e-45
8.24033e-49
2.37416e-51
3.2156e-54
5.99252e-57
1.06911e-58
9.04371e-69
8.48123e-69
2.2185e-70
2.79518e-71
3.83338e-73
2.18625e-75
5.96857e-78
9.38695e-81
8.68497e-84
6.14218e-87
3.75108e-90
2.24924e-93
1.27693e-96
8.28102e-100
4.92236e-103
3.60644e-106
2.34843e-109
1.99339e-112
1.74276e-115
1.6586e-118
1.47961e-121
1.35267e-124
1.0474e-127
8.641e-131
6.18698e-134
4.26238e-137
2.6765e-140
1.6041e-143
7.2357e-147
2.24724e-150
3.97473e-157
6.16171e-159
4.73336e-162
3.12457e-165
1.88683e-168
1.16224e-171
7.22108e-175
6.60822e-179
1.0253e-182
9.45981e-187
4.00858e-191
9.89493e-196
1.82787e-200
2.38605e-205
2.90435e-210
3.22089e-215
3.32012e-220
3.03844e-225
2.50409e-230
1.69479e-234
2.35831e-237
3.65867e-240
5.64372e-243
8.63072e-246
1.32885e-248
2.05282e-251
3.30957e-254
5.54918e-257
1.04534e-259
1.41692e-262
2.95512e-278
4.47561e-279
3.28896e-281
1.40681e-283
4.60811e-286
1.2771e-288
3.10087e-291
6.95357e-294
1.44509e-296
2.90471e-299
5.5281e-302
1.03104e-304
1.82942e-307
3.19781e-310
5.3621e-313
8.85799e-316
1.40149e-318
2.15413e-321
4.94066e-324
0
0
0
0
0
0
0
0
0
0
0
0
0
0
0
0
0
0
0
0
0
0
0
0
0
0
0
0
0
0
0
0
0
0
0
0
0
0
0
0
0
0
0
0
0
0
0
0
0
0
0
0
0
0
0
0
0
0
0
0
0
0
0
0
0
0
0
0
0
0
0
0
0
0
0
0
0
0
0
0
0
0
0
0
0
0
0
0
0
0
0
0
0
0
0
0
0
0
0
0
0
0
0
0
0
0
0
0
0
0
0
0
0
0
0
0
0
0
0
0
0
0
0
0
0
0
0
0
0
0
0
0
0
0
0
0
0
0
0
0
0
0
0
0
0
0
0
0
0
0
0
0
0
0
0
0
0
0
0
0
0
0
0
0
0
0
0
0
0
0
0
0
0
0
0
0
0
0
0
0
0
0
0
0
0
0
0
0
0
0
0
0
0
0
0
0
0
0
0
0
0
0
0
0
0
0
0
0
0
0
0
0
0
0
0
0
0
0
0
0
0
0
0
0
0
0
0
0
0
0
0
0
0
0
0
0
0
0
0
0
0
0
0
0
0
0
0
0
0
0
0
1.2077e-07
1.6654e-07
2.8914e-07
3.66684e-07
1.78153e-07
1.13195e-07
9.42635e-08
9.92647e-08
7.73128e-08
2.05665e-08
3.06664e-09
2.98601e-10
3.00612e-13
1.29534e-16
4.13181e-12
5.5582e-09
1.75087e-08
2.7812e-08
6.47407e-08
6.91296e-08
6.10182e-08
4.05502e-08
1.28763e-08
7.32869e-09
2.94005e-09
1.43612e-09
1.25661e-09
4.50624e-10
1.92361e-10
5.94089e-11
1.08383e-12
2.48626e-15
1.33247e-18
8.08766e-22
6.4508e-25
2.98764e-28
8.56707e-32
2.75775e-36
7.70978e-40
2.02535e-43
4.84894e-48
3.254e-52
4.1693e-55
1.77211e-56
3.79292e-64
9.27794e-65
2.30772e-67
8.0511e-69
5.72352e-71
2.75029e-73
1.58198e-75
2.84707e-77
1.63673e-79
2.0163e-82
1.63323e-85
1.14925e-88
7.92182e-92
5.54036e-95
3.77301e-98
2.68173e-101
2.0962e-104
1.66159e-107
1.47918e-110
1.31085e-113
1.29825e-116
1.11094e-119
8.97653e-123
7.10284e-126
4.57217e-129
2.86861e-132
1.48405e-135
7.18438e-139
2.84599e-142
8.07517e-146
3.81159e-152
6.56368e-154
5.08084e-157
3.21084e-160
1.93354e-163
1.09311e-166
6.95946e-170
4.54922e-173
1.75412e-176
1.13409e-180
4.34713e-185
1.06234e-189
1.84127e-194
2.63409e-199
3.31936e-204
3.91012e-209
4.243e-214
4.31383e-219
3.77281e-224
2.87216e-229
5.0454e-234
4.9379e-237
7.42084e-240
1.11436e-242
1.6915e-245
2.55259e-248
3.96746e-251
6.33755e-254
1.1088e-256
1.62688e-259
4.54404e-274
1.90168e-275
9.97318e-278
3.74325e-280
1.10193e-282
2.77045e-285
6.27732e-288
1.30942e-290
2.61874e-293
4.97275e-296
9.25257e-299
1.64442e-301
2.88316e-304
4.85128e-307
8.10292e-310
1.30687e-312
2.06572e-315
3.15932e-318
4.69362e-321
4.94066e-324
0
0
0
0
0
0
0
0
0
0
0
0
0
0
0
0
0
0
0
0
0
0
0
0
0
0
0
0
0
0
0
0
0
0
0
0
0
0
0
0
0
0
0
0
0
0
0
0
0
0
0
0
0
0
0
0
0
0
0
0
0
0
0
0
0
0
0
0
0
0
0
0
0
0
0
0
0
0
0
0
0
0
0
0
0
0
0
0
0
0
0
0
0
0
0
0
0
0
0
0
0
0
0
0
0
0
0
0
0
0
0
0
0
0
0
0
0
0
0
0
0
0
0
0
0
0
0
0
0
0
0
0
0
0
0
0
0
0
0
0
0
0
0
0
0
0
0
0
0
0
0
0
0
0
0
0
0
0
0
0
0
0
0
0
0
0
0
0
0
0
0
0
0
0
0
0
0
0
0
0
0
0
0
0
0
0
0
0
0
0
0
0
0
0
0
0
0
0
0
0
0
0
0
0
0
0
0
0
0
0
0
0
0
0
0
0
0
0
0
0
0
0
0
0
0
0
0
0
0
0
0
0
0
0
0
0
0
0
0
0
0
0
0
0
0
0
0
0
0
0
5.36538e-07
5.36447e-07
4.80841e-07
4.72691e-07
4.90078e-07
4.29861e-07
3.35489e-07
2.82839e-07
2.25956e-07
1.79861e-07
8.56974e-08
2.59935e-08
4.53266e-10
1.32573e-13
9.45586e-11
1.92092e-08
1.63895e-07
2.38816e-07
3.04551e-07
3.20632e-07
3.22324e-07
2.45737e-07
6.54119e-08
2.05156e-08
5.60423e-09
2.12187e-09
9.04006e-10
4.32469e-10
1.98092e-10
8.70833e-11
2.32008e-11
2.92056e-13
2.8207e-15
6.14666e-18
6.92972e-21
6.48049e-24
4.46236e-27
2.46658e-30
7.20863e-34
1.53342e-37
1.53902e-42
4.70137e-47
7.14494e-52
7.62242e-54
2.94073e-60
4.30747e-62
9.10414e-65
8.48892e-66
5.23314e-68
1.05645e-70
1.62455e-73
6.75083e-76
7.18416e-78
9.92074e-80
7.01872e-82
1.04981e-84
1.0568e-87
9.79562e-91
8.41093e-94
7.0879e-97
5.85435e-100
5.13576e-103
4.5846e-106
4.12777e-109
4.15683e-112
3.61052e-115
3.19319e-118
2.45944e-121
1.7506e-124
1.16195e-127
6.42391e-131
3.20718e-134
1.1803e-137
3.41761e-141
1.33566e-147
2.33678e-149
2.00819e-152
1.24782e-155
7.15187e-159
4.26786e-162
2.6212e-165
1.78251e-168
1.28791e-171
8.77576e-175
2.78473e-179
6.02586e-184
1.01027e-188
1.36034e-193
1.72043e-198
1.94982e-203
2.36542e-208
2.68609e-213
2.78935e-218
2.36819e-223
1.70847e-228
1.38881e-233
5.91007e-237
8.36159e-240
1.22113e-242
1.75107e-245
2.57876e-248
3.91277e-251
6.36067e-254
8.2994e-257
4.37818e-270
8.86042e-272
2.33925e-274
7.29774e-277
1.87737e-279
4.29823e-282
8.93202e-285
1.75777e-287
3.29482e-290
5.99965e-293
1.05121e-295
1.80755e-298
3.00674e-301
4.9506e-304
7.89839e-307
1.24563e-309
1.89033e-312
2.82986e-315
4.07734e-318
5.78057e-321
9.88131e-324
0
0
0
0
0
0
0
0
0
0
0
0
0
0
0
0
0
0
0
0
0
0
0
0
0
0
0
0
0
0
0
0
0
0
0
0
0
0
0
0
0
0
0
0
0
0
0
0
0
0
0
0
0
0
0
0
0
0
0
0
0
0
0
0
0
0
0
0
0
0
0
0
0
0
0
0
0
0
0
0
0
0
0
0
0
0
0
0
0
0
0
0
0
0
0
0
0
0
0
0
0
0
0
0
0
0
0
0
0
0
0
0
0
0
0
0
0
0
0
0
0
0
0
0
0
0
0
0
0
0
0
0
0
0
0
0
0
0
0
0
0
0
0
0
0
0
0
0
0
0
0
0
0
0
0
0
0
0
0
0
0
0
0
0
0
0
0
0
0
0
0
0
0
0
0
0
0
0
0
0
0
0
0
0
0
0
0
0
0
0
0
0
0
0
0
0
0
0
0
0
0
0
0
0
0
0
0
0
0
0
0
0
0
0
0
0
0
0
0
0
0
0
0
0
0
0
0
0
0
0
0
0
0
0
0
0
0
0
0
0
0
0
0
0
0
0
0
0
0
4.54816e-07
4.54254e-07
4.18312e-07
3.96378e-07
3.6629e-07
3.86967e-07
3.55728e-07
3.21655e-07
3.2754e-07
3.16884e-07
2.47516e-07
1.74777e-07
5.50553e-09
2.05016e-11
1.41363e-09
5.6002e-08
2.78403e-07
3.03007e-07
2.59101e-07
2.61203e-07
2.87797e-07
3.21651e-07
2.93319e-07
6.55527e-08
1.11641e-08
2.6289e-09
8.39961e-10
4.00233e-10
2.19959e-10
1.00951e-10
3.81159e-11
6.50763e-12
6.95777e-14
1.01887e-15
9.21404e-18
2.27676e-20
2.999e-23
2.69451e-26
1.54816e-29
5.9085e-33
1.38572e-36
1.95396e-41
1.04986e-46
5.76033e-50
6.51283e-57
7.87399e-59
2.48314e-61
2.67122e-62
3.8204e-64
3.96763e-67
1.63111e-70
1.86964e-73
5.13973e-76
3.63352e-78
3.53576e-80
2.87238e-82
1.22664e-84
2.65718e-87
3.81325e-90
4.4923e-93
4.92608e-96
5.01892e-99
5.0737e-102
5.43638e-105
5.85176e-108
5.90643e-111
6.10702e-114
5.22215e-117
4.38571e-120
3.11303e-123
1.94453e-126
9.65936e-130
3.66604e-133
1.00802e-136
8.759e-144
1.04731e-145
1.20112e-148
1.06765e-151
7.62119e-155
5.14818e-158
3.63983e-161
2.71281e-164
2.21985e-167
1.87942e-170
1.5888e-173
3.10176e-178
4.82158e-183
5.79078e-188
6.06107e-193
6.21943e-198
7.31525e-203
9.55019e-208
1.2006e-212
1.2858e-217
1.11433e-222
7.6262e-228
4.61735e-233
6.56799e-237
8.9907e-240
1.27046e-242
1.81894e-245
2.65575e-248
4.0772e-251
5.1388e-254
5.98497e-266
9.23031e-268
7.27453e-271
1.60429e-273
3.53205e-276
7.11182e-279
1.3523e-281
2.44577e-284
4.32072e-287
7.32768e-290
1.22429e-292
1.97333e-295
3.16495e-298
4.92636e-301
7.64025e-304
1.15118e-306
1.71575e-309
2.48048e-312
3.52519e-315
4.86602e-318
6.62048e-321
9.88131e-324
0
0
0
0
0
0
0
0
0
0
0
0
0
0
0
0
0
0
0
0
0
0
0
0
0
0
0
0
0
0
0
0
0
0
0
0
0
0
0
0
0
0
0
0
0
0
0
0
0
0
0
0
0
0
0
0
0
0
0
0
0
0
0
0
0
0
0
0
0
0
0
0
0
0
0
0
0
0
0
0
0
0
0
0
0
0
0
0
0
0
0
0
0
0
0
0
0
0
0
0
0
0
0
0
0
0
0
0
0
0
0
0
0
0
0
0
0
0
0
0
0
0
0
0
0
0
0
0
0
0
0
0
0
0
0
0
0
0
0
0
0
0
0
0
0
0
0
0
0
0
0
0
0
0
0
0
0
0
0
0
0
0
0
0
0
0
0
0
0
0
0
0
0
0
0
0
0
0
0
0
0
0
0
0
0
0
0
0
0
0
0
0
0
0
0
0
0
0
0
0
0
0
0
0
0
0
0
0
0
0
0
0
0
0
0
0
0
0
0
0
0
0
0
0
0
0
0
0
0
0
0
0
0
0
0
0
0
0
0
0
0
0
0
0
0
0
0
0
4.18267e-07
3.84038e-07
2.56352e-07
1.8857e-07
1.93512e-07
2.67152e-07
2.34518e-07
2.91834e-07
3.08618e-07
3.22005e-07
3.12442e-07
1.74169e-07
6.30054e-09
5.15645e-11
1.08133e-08
3.26206e-07
1.88216e-07
1.67514e-07
2.11109e-07
2.50153e-07
2.73007e-07
3.05133e-07
3.2819e-07
1.87174e-07
2.16275e-08
3.61361e-09
9.33343e-10
3.11147e-10
2.05531e-10
1.14748e-10
4.20762e-11
1.56801e-11
2.84494e-12
4.56158e-14
3.40931e-16
2.5643e-18
1.52944e-20
4.51774e-23
6.29813e-26
4.85517e-29
2.1593e-32
4.53457e-36
1.39603e-41
5.73769e-46
7.75046e-54
1.012e-55
8.44149e-59
1.51848e-59
4.12413e-61
8.52158e-64
2.12811e-67
1.49414e-70
1.34738e-73
3.99884e-76
2.37905e-78
1.62235e-80
7.19808e-83
2.43513e-85
6.98633e-88
1.68691e-90
3.32821e-93
5.2657e-96
8.08531e-99
1.11922e-101
1.43312e-104
1.79539e-107
2.03963e-110
2.13744e-113
2.0452e-116
1.77262e-119
1.33563e-122
8.17906e-126
3.51441e-129
1.12405e-132
5.22719e-141
2.14865e-143
1.5816e-146
2.56201e-149
4.45007e-152
5.94392e-155
6.61069e-158
6.60236e-161
6.6003e-164
6.61421e-167
6.57726e-170
6.03389e-173
8.76736e-178
9.22054e-183
8.12988e-188
6.88658e-193
6.22682e-198
6.808e-203
8.9475e-208
1.22116e-212
1.37629e-217
1.18687e-222
7.68797e-228
3.66635e-233
2.15388e-237
2.73865e-240
3.79788e-243
5.35516e-246
7.98148e-249
9.68534e-252
4.50978e-262
4.28634e-264
1.31393e-267
1.66262e-270
2.77054e-273
4.66924e-276
7.77746e-279
1.27425e-281
2.04958e-284
3.22785e-287
4.9714e-290
7.57596e-293
1.13785e-295
1.69874e-298
2.49753e-301
3.64069e-304
5.18285e-307
7.26758e-310
9.91981e-313
1.3325e-315
1.75224e-318
2.26776e-321
4.94066e-324
0
0
0
0
0
0
0
0
0
0
0
0
0
0
0
0
0
0
0
0
0
0
0
0
0
0
0
0
0
0
0
0
0
0
0
0
0
0
0
0
0
0
0
0
0
0
0
0
0
0
0
0
0
0
0
0
0
0
0
0
0
0
0
0
0
0
0
0
0
0
0
0
0
0
0
0
0
0
0
0
0
0
0
0
0
0
0
0
0
0
0
0
0
0
0
0
0
0
0
0
0
0
0
0
0
0
0
0
0
0
0
0
0
0
0
0
0
0
0
0
0
0
0
0
0
0
0
0
0
0
0
0
0
0
0
0
0
0
0
0
0
0
0
0
0
0
0
0
0
0
0
0
0
0
0
0
0
0
0
0
0
0
0
0
0
0
0
0
0
0
0
0
0
0
0
0
0
0
0
0
0
0
0
0
0
0
0
0
0
0
0
0
0
0
0
0
0
0
0
0
0
0
0
0
0
0
0
0
0
0
0
0
0
0
0
0
0
0
0
0
0
0
0
0
0
0
0
0
0
0
0
0
0
0
0
0
0
0
0
0
0
0
0
0
0
0
0
1.88637e-07
1.07416e-07
4.19343e-08
4.47956e-08
8.40593e-08
1.18595e-07
1.40649e-07
1.72131e-07
1.46698e-07
1.49786e-07
2.90086e-07
2.99409e-07
1.39126e-07
2.97296e-09
6.35091e-09
1.07639e-08
1.7802e-08
2.55046e-07
1.4907e-07
1.29277e-07
2.14542e-07
3.20687e-07
3.25506e-07
3.23835e-07
2.92149e-07
1.31929e-07
1.96691e-08
3.54634e-09
8.62628e-10
3.17938e-10
1.46825e-10
1.10241e-10
5.92149e-11
2.53011e-11
8.78777e-12
3.15647e-12
2.38364e-14
9.37892e-17
4.54898e-19
2.04829e-21
8.80557e-24
3.47991e-26
6.29322e-29
3.6387e-32
2.85522e-36
1.24231e-41
5.0761e-46
4.94663e-49
7.36403e-52
4.3966e-54
6.52292e-56
2.40628e-56
5.39051e-58
2.60097e-61
8.52552e-65
8.84386e-68
7.39933e-71
9.33962e-74
2.94587e-76
1.24533e-78
4.74843e-81
1.49119e-83
3.95944e-86
8.84901e-89
1.78314e-91
3.00618e-94
5.93139e-97
9.20673e-100
1.38704e-102
2.40429e-105
3.6489e-108
5.21121e-111
7.6702e-114
1.1375e-116
1.4987e-119
1.85214e-122
1.60909e-125
8.07669e-129
7.51923e-132
9.25899e-135
4.13265e-138
1.17204e-141
7.47845e-145
1.04412e-147
2.16987e-150
3.75474e-153
5.54024e-156
7.01822e-159
8.404e-162
1.13704e-164
1.34236e-167
1.54125e-170
1.53231e-173
1.33256e-178
1.00464e-183
6.81815e-189
4.81152e-194
3.8476e-199
3.96072e-204
5.08549e-209
7.07074e-214
8.07606e-219
6.75331e-224
3.82816e-229
1.49861e-234
1.0649e-238
1.18029e-241
1.52989e-244
2.37276e-247
3.27623e-250
3.32535e-253
2.78462e-256
7.95216e-259
7.70009e-262
8.4217e-265
8.87988e-268
1.02038e-270
1.1755e-273
1.39357e-276
1.67534e-279
2.02769e-282
2.52482e-285
3.17201e-288
4.05818e-291
5.28323e-294
6.93293e-297
9.20757e-300
1.22684e-302
1.63126e-305
2.14317e-308
2.79912e-311
3.57767e-314
4.58239e-317
5.71782e-320
7.41098e-323
0
0
0
0
0
0
0
0
0
0
0
0
0
0
0
0
0
0
0
0
0
0
0
0
0
0
0
0
0
0
0
0
0
0
0
0
0
0
0
0
0
0
0
0
0
0
0
0
0
0
0
0
0
0
0
0
0
0
0
0
0
0
0
0
0
0
0
0
0
0
0
0
0
0
0
0
0
0
0
0
0
0
0
0
0
0
0
0
0
0
0
0
0
0
0
0
0
0
0
0
0
0
0
0
0
0
0
0
0
0
0
0
0
0
0
0
0
0
0
0
0
0
0
0
0
0
0
0
0
0
0
0
0
0
0
0
0
0
0
0
0
0
0
0
0
0
0
0
0
0
0
0
0
0
0
0
0
0
0
0
0
0
0
0
0
0
0
0
0
0
0
0
0
0
0
0
0
0
0
0
0
0
0
0
0
0
0
0
0
0
0
0
0
0
0
0
0
0
0
0
0
0
0
0
0
0
0
0
0
0
0
0
0
0
0
0
0
0
0
0
0
0
0
0
0
0
0
0
0
0
0
0
0
0
0
0
0
0
0
0
0
0
0
0
0
0
0
0
0
0
0
0
0
0
0
0
0
0
0
0
0
0
0
0
0
8.74979e-09
8.11189e-09
4.27175e-09
5.47995e-09
1.24947e-08
3.02041e-08
5.25241e-08
3.77149e-08
2.01584e-08
1.56227e-08
1.74321e-08
3.70791e-08
3.19847e-07
6.18666e-08
1.81269e-07
2.81471e-07
1.66965e-07
1.30021e-07
1.1516e-07
2.47554e-07
1.79552e-07
4.38275e-08
4.48657e-08
6.04575e-08
5.27656e-08
1.66213e-08
4.92517e-09
1.26407e-09
5.21243e-10
2.29365e-10
1.30527e-10
8.91619e-11
5.44085e-11
3.73614e-11
1.63834e-11
5.58216e-12
1.8449e-12
7.3945e-15
1.76343e-17
5.47678e-20
2.06002e-22
7.66906e-25
2.85566e-27
1.5605e-29
2.90446e-32
1.11936e-36
6.94898e-41
3.04854e-44
2.94474e-47
3.93624e-49
4.38954e-51
1.46943e-52
1.00564e-55
3.3378e-59
1.49226e-62
3.03421e-65
3.31611e-68
3.70764e-71
6.25101e-74
1.46138e-76
4.22277e-79
1.12618e-81
2.31513e-84
5.22243e-87
9.35678e-90
1.81261e-92
3.0484e-95
4.83446e-98
7.57265e-101
1.11388e-103
1.51606e-106
2.27141e-109
3.24058e-112
4.31318e-115
6.40601e-118
9.52091e-121
1.41927e-123
3.48781e-126
3.54451e-129
1.79717e-132
5.46154e-136
1.92764e-139
1.19556e-142
1.39529e-145
2.35247e-148
3.33298e-151
4.17929e-154
5.58164e-157
6.69537e-160
7.53821e-163
8.22404e-166
8.66145e-169
8.86155e-172
8.47936e-175
5.1436e-180
2.77018e-185
1.40573e-190
6.89887e-196
3.71086e-201
2.32149e-206
1.93852e-211
1.66871e-216
1.28311e-221
7.86546e-227
3.87554e-232
1.68213e-237
4.07385e-241
5.43234e-244
7.49307e-247
1.05326e-249
1.30519e-252
1.57292e-255
1.61598e-258
1.96725e-261
2.5831e-264
3.50018e-267
4.76262e-270
6.45459e-273
8.62208e-276
1.142e-278
1.50485e-281
1.98414e-284
2.62488e-287
3.47192e-290
4.57597e-293
5.99273e-296
7.82121e-299
1.01482e-301
1.3056e-304
1.66416e-307
2.09099e-310
2.59138e-313
3.16124e-316
3.80431e-319
4.496e-322
0
0
0
0
0
0
0
0
0
0
0
0
0
0
0
0
0
0
0
0
0
0
0
0
0
0
0
0
0
0
0
0
0
0
0
0
0
0
0
0
0
0
0
0
0
0
0
0
0
0
0
0
0
0
0
0
0
0
0
0
0
0
0
0
0
0
0
0
0
0
0
0
0
0
0
0
0
0
0
0
0
0
0
0
0
0
0
0
0
0
0
0
0
0
0
0
0
0
0
0
0
0
0
0
0
0
0
0
0
0
0
0
0
0
0
0
0
0
0
0
0
0
0
0
0
0
0
0
0
0
0
0
0
0
0
0
0
0
0
0
0
0
0
0
0
0
0
0
0
0
0
0
0
0
0
0
0
0
0
0
0
0
0
0
0
0
0
0
0
0
0
0
0
0
0
0
0
0
0
0
0
0
0
0
0
0
0
0
0
0
0
0
0
0
0
0
0
0
0
0
0
0
0
0
0
0
0
0
0
0
0
0
0
0
0
0
0
0
0
0
0
0
0
0
0
0
0
0
0
0
0
0
0
0
0
0
0
0
0
0
0
0
0
0
0
0
0
0
0
0
0
0
0
0
0
0
0
0
0
0
0
0
0
0
0
3.66917e-10
6.46137e-10
5.84117e-10
7.29153e-10
1.13326e-09
1.88645e-09
3.34176e-09
5.32014e-09
3.90355e-09
2.61314e-09
2.18093e-09
1.36524e-09
1.84182e-09
5.96985e-09
2.90346e-09
3.56169e-09
2.34791e-08
2.47556e-07
3.15651e-07
2.00706e-08
4.11039e-09
3.9396e-09
5.39227e-09
6.09915e-09
4.68241e-09
2.45595e-09
9.59246e-10
4.55594e-10
2.29244e-10
1.25327e-10
9.05458e-11
6.13483e-11
4.93142e-11
3.78998e-11
2.57933e-11
1.147e-11
2.83666e-12
3.18785e-13
4.89936e-16
7.77764e-19
2.17564e-21
7.09135e-24
2.24347e-26
7.19027e-29
2.17129e-31
1.20439e-33
3.33647e-36
2.37711e-39
1.8217e-42
1.40149e-44
1.51313e-47
9.05802e-51
5.06636e-54
2.8617e-57
1.99661e-60
1.38478e-63
9.50229e-67
8.49709e-70
8.78129e-73
1.16415e-75
1.72646e-78
3.34076e-81
5.12445e-84
8.9889e-87
1.33383e-89
1.82232e-92
2.83395e-95
3.97291e-98
5.05978e-101
6.84217e-104
8.43905e-107
1.23365e-109
1.68964e-112
2.25512e-115
3.11991e-118
4.93554e-121
6.42719e-124
1.14984e-126
1.43812e-129
1.06453e-132
5.78676e-136
3.11026e-139
1.93429e-142
1.93238e-145
2.4929e-148
2.97135e-151
3.44326e-154
3.73476e-157
4.09947e-160
4.31024e-163
4.52642e-166
4.63714e-169
5.20952e-172
5.14405e-175
3.46504e-180
2.25413e-185
1.40522e-190
8.50762e-196
5.15095e-201
3.18301e-206
2.13227e-211
1.41335e-216
8.48708e-222
4.45597e-227
2.14584e-232
9.12982e-238
6.57346e-243
4.15484e-246
6.26294e-249
9.55798e-252
8.86133e-255
1.07472e-257
1.23405e-260
1.68368e-263
2.34234e-266
3.2324e-269
4.37732e-272
5.82931e-275
7.6726e-278
9.97501e-281
1.29485e-283
1.67131e-286
2.1799e-289
2.84603e-292
3.77445e-295
4.9986e-298
6.65978e-301
8.77438e-304
1.1499e-306
1.48664e-309
1.9029e-312
2.39353e-315
2.95711e-318
3.57704e-321
4.94066e-324
0
0
0
0
0
0
0
0
0
0
0
0
0
0
0
0
0
0
0
0
0
0
0
0
0
0
0
0
0
0
0
0
0
0
0
0
0
0
0
0
0
0
0
0
0
0
0
0
0
0
0
0
0
0
0
0
0
0
0
0
0
0
0
0
0
0
0
0
0
0
0
0
0
0
0
0
0
0
0
0
0
0
0
0
0
0
0
0
0
0
0
0
0
0
0
0
0
0
0
0
0
0
0
0
0
0
0
0
0
0
0
0
0
0
0
0
0
0
0
0
0
0
0
0
0
0
0
0
0
0
0
0
0
0
0
0
0
0
0
0
0
0
0
0
0
0
0
0
0
0
0
0
0
0
0
0
0
0
0
0
0
0
0
0
0
0
0
0
0
0
0
0
0
0
0
0
0
0
0
0
0
0
0
0
0
0
0
0
0
0
0
0
0
0
0
0
0
0
0
0
0
0
0
0
0
0
0
0
0
0
0
0
0
0
0
0
0
0
0
0
0
0
0
0
0
0
0
0
0
0
0
0
0
0
0
0
0
0
0
0
0
0
0
0
0
0
0
0
0
0
0
0
0
0
0
0
0
0
0
0
0
0
0
0
0
2.73207e-11
5.2913e-11
5.56934e-11
7.27275e-11
5.1976e-11
6.65959e-11
1.23217e-10
1.50327e-10
2.36087e-10
2.49499e-10
2.59057e-10
2.45163e-10
2.69355e-10
4.97417e-10
4.55146e-10
5.90021e-10
1.83701e-09
1.60176e-08
2.84394e-09
9.98513e-10
8.5621e-10
1.06113e-09
1.0545e-09
1.06968e-09
9.49521e-10
5.19218e-10
2.9253e-10
1.5321e-10
1.12002e-10
6.67016e-11
5.48877e-11
4.68847e-11
4.15875e-11
3.63003e-11
2.72649e-11
2.33272e-11
4.67667e-12
1.10856e-12
5.91693e-15
1.10922e-17
1.83594e-20
3.40725e-23
8.10234e-26
1.8795e-28
4.68716e-31
1.18006e-33
3.08709e-36
6.53264e-39
8.95982e-42
1.15014e-44
1.01295e-47
7.78776e-51
5.27671e-54
3.576e-57
2.76604e-60
2.14733e-63
1.8374e-66
1.61031e-69
1.40748e-72
1.52277e-75
2.03023e-78
2.63816e-81
3.36518e-84
4.22902e-87
5.83801e-90
7.50164e-93
9.44673e-96
1.14659e-98
1.3087e-101
1.61689e-104
1.97075e-107
2.52545e-110
3.01651e-113
3.68196e-116
4.5112e-119
5.52612e-122
6.5044e-125
9.14175e-128
1.068e-130
8.574e-134
7.09678e-137
4.34975e-140
3.51285e-143
3.23849e-146
3.23638e-149
3.31805e-152
3.36844e-155
3.35248e-158
3.38761e-161
3.28964e-164
3.67522e-167
3.54422e-170
3.50692e-173
2.88104e-176
1.48923e-181
6.69954e-187
2.79955e-192
1.12371e-197
4.69145e-203
2.32573e-208
1.50755e-213
1.14607e-218
7.92835e-224
4.60972e-229
2.25794e-234
9.32104e-240
4.42988e-245
1.37976e-248
1.81545e-251
2.43277e-254
3.14456e-257
4.18105e-260
5.40014e-263
7.52161e-266
1.04859e-268
1.43205e-271
1.93803e-274
2.59089e-277
3.44303e-280
4.52547e-283
5.95537e-286
7.75601e-289
1.019e-291
1.32988e-294
1.76093e-297
2.33397e-300
3.13259e-303
4.19585e-306
5.61974e-309
7.45436e-312
9.76868e-315
1.25877e-317
1.59287e-320
1.97626e-323
0
0
0
0
0
0
0
0
0
0
0
0
0
0
0
0
0
0
0
0
0
0
0
0
0
0
0
0
0
0
0
0
0
0
0
0
0
0
0
0
0
0
0
0
0
0
0
0
0
0
0
0
0
0
0
0
0
0
0
0
0
0
0
0
0
0
0
0
0
0
0
0
0
0
0
0
0
0
0
0
0
0
0
0
0
0
0
0
0
0
0
0
0
0
0
0
0
0
0
0
0
0
0
0
0
0
0
0
0
0
0
0
0
0
0
0
0
0
0
0
0
0
0
0
0
0
0
0
0
0
0
0
0
0
0
0
0
0
0
0
0
0
0
0
0
0
0
0
0
0
0
0
0
0
0
0
0
0
0
0
0
0
0
0
0
0
0
0
0
0
0
0
0
0
0
0
0
0
0
0
0
0
0
0
0
0
0
0
0
0
0
0
0
0
0
0
0
0
0
0
0
0
0
0
0
0
0
0
0
0
0
0
0
0
0
0
0
0
0
0
0
0
0
0
0
0
0
0
0
0
0
0
0
0
0
0
0
0
0
0
0
0
0
0
0
0
0
0
0
0
0
0
0
0
0
0
0
0
0
0
0
0
0
0
0
0
1.89311e-11
2.0927e-11
2.32333e-11
2.45631e-11
2.49345e-11
2.55462e-11
2.63437e-11
2.7068e-11
2.7607e-11
2.85158e-11
4.027e-11
4.8602e-11
5.76888e-11
1.06504e-10
1.20807e-10
1.45794e-10
2.49033e-10
4.92661e-10
2.96674e-10
2.47139e-10
2.37137e-10
2.33698e-10
2.30281e-10
2.47038e-10
2.24236e-10
1.8517e-10
1.19176e-10
8.29736e-11
5.79066e-11
4.84318e-11
4.06886e-11
3.59757e-11
2.79692e-11
2.74424e-11
2.60595e-11
2.42869e-11
6.34077e-12
1.30228e-12
4.96663e-15
8.19533e-18
1.01217e-20
1.26554e-23
1.80473e-26
2.3948e-29
4.0015e-32
7.15853e-35
1.08323e-37
1.98827e-40
2.53251e-43
2.71802e-46
3.14589e-49
3.04419e-52
2.86857e-55
2.86319e-58
2.76412e-61
2.39892e-64
2.40839e-67
2.46743e-70
2.48418e-73
2.52356e-76
2.59529e-79
2.69607e-82
2.82342e-85
2.9477e-88
3.01878e-91
3.6473e-94
3.71203e-97
3.75382e-100
3.75795e-103
3.91622e-106
3.83034e-109
4.18183e-112
4.29223e-115
4.78774e-118
5.22594e-121
5.86827e-124
6.42147e-127
6.94698e-130
7.02744e-133
6.23935e-136
5.48246e-139
4.3332e-142
3.59155e-145
3.10857e-148
2.72876e-151
2.50636e-154
2.19074e-157
1.97909e-160
1.73422e-163
1.5344e-166
1.34445e-169
1.16044e-172
1.00505e-175
6.40041e-181
4.04151e-186
2.39189e-191
1.39872e-196
7.99013e-202
4.60404e-207
2.74901e-212
1.67634e-217
9.52796e-223
4.52149e-228
1.92851e-233
7.41363e-239
2.78524e-244
1.70777e-248
2.15155e-251
2.91592e-254
3.92299e-257
5.24094e-260
7.13439e-263
9.80041e-266
1.3869e-268
1.95468e-271
2.68179e-274
3.65953e-277
4.90114e-280
6.53497e-283
8.62683e-286
1.13894e-288
1.5015e-291
1.99113e-294
2.65327e-297
3.58834e-300
4.89208e-303
6.7122e-306
9.19082e-309
1.25424e-311
1.69563e-314
2.25359e-317
2.94661e-320
3.95253e-323
0
0
0
0
0
0
0
0
0
0
0
0
0
0
0
0
0
0
0
0
0
0
0
0
0
0
0
0
0
0
0
0
0
0
0
0
0
0
0
0
0
0
0
0
0
0
0
0
0
0
0
0
0
0
0
0
0
0
0
0
0
0
0
0
0
0
0
0
0
0
0
0
0
0
0
0
0
0
0
0
0
0
0
0
0
0
0
0
0
0
0
0
0
0
0
0
0
0
0
0
0
0
0
0
0
0
0
0
0
0
0
0
0
0
0
0
0
0
0
0
0
0
0
0
0
0
0
0
0
0
0
0
0
0
0
0
0
0
0
0
0
0
0
0
0
0
0
0
0
0
0
0
0
0
0
0
0
0
0
0
0
0
0
0
0
0
0
0
0
0
0
0
0
0
0
0
0
0
0
0
0
0
0
0
0
0
0
0
0
0
0
0
0
0
0
0
0
0
0
0
0
0
0
0
0
0
0
0
0
0
0
0
0
0
0
0
0
0
0
0
0
0
0
0
0
0
0
0
0
0
0
0
0
0
0
0
0
0
0
0
0
0
0
0
0
0
0
0
0
0
0
0
0
0
0
0
0
0
0
0
0
0
0
0
0
0
0
2.18598e-11
2.30014e-11
2.39205e-11
2.40562e-11
2.39619e-11
2.37657e-11
2.28743e-11
2.2547e-11
2.19478e-11
2.18181e-11
2.29658e-11
2.52667e-11
2.8684e-11
4.37767e-11
4.82119e-11
4.86799e-11
4.60481e-11
5.88085e-11
6.01724e-11
5.3318e-11
5.34054e-11
5.66866e-11
4.89529e-11
5.29699e-11
8.31978e-11
5.86567e-11
5.37431e-11
4.84128e-11
4.07579e-11
3.69827e-11
2.82369e-11
2.70897e-11
2.61091e-11
2.55867e-11
2.50314e-11
2.44382e-11
1.30534e-11
2.53922e-12
1.87443e-13
1.80706e-16
1.42097e-19
1.19829e-22
1.13631e-25
1.0877e-28
1.18642e-31
1.08977e-34
1.16988e-37
1.17279e-40
9.57766e-44
9.6007e-47
8.23595e-50
9.51977e-53
1.11339e-55
1.35095e-58
1.50212e-61
1.65938e-64
1.67019e-67
1.72635e-70
1.67583e-73
1.6274e-76
1.56512e-79
1.47443e-82
1.38464e-85
1.27349e-88
1.13771e-91
1.00083e-94
8.46505e-98
6.99899e-101
5.89439e-104
4.64329e-107
3.76242e-110
3.03895e-113
2.37836e-116
1.99061e-119
1.59147e-122
1.31683e-125
1.07428e-128
9.10065e-132
7.46995e-135
6.22671e-138
5.23512e-141
4.22302e-144
3.55431e-147
2.88079e-150
2.40815e-153
1.98194e-156
1.62759e-159
1.35802e-162
1.09681e-165
9.06128e-169
7.25747e-172
5.8907e-175
2.85446e-179
2.99917e-185
1.62511e-190
1.058e-195
6.98664e-201
4.56239e-206
3.06009e-211
1.97431e-216
1.11822e-221
5.21976e-227
2.07603e-232
7.34749e-238
2.3755e-243
3.90201e-248
4.30863e-251
5.95457e-254
8.17618e-257
1.135e-259
1.56874e-262
2.19728e-265
3.12662e-268
4.48102e-271
6.36125e-274
8.84665e-277
1.21829e-279
1.65822e-282
2.23518e-285
3.00837e-288
4.01636e-291
5.39304e-294
7.21018e-297
9.7546e-300
1.32216e-302
1.81463e-305
2.49798e-308
3.45242e-311
4.76264e-314
6.54457e-317
8.8749e-320
1.18576e-322
0
0
0
0
0
0
0
0
0
0
0
0
0
0
0
0
0
0
0
0
0
0
0
0
0
0
0
0
0
0
0
0
0
0
0
0
0
0
0
0
0
0
0
0
0
0
0
0
0
0
0
0
0
0
0
0
0
0
0
0
0
0
0
0
0
0
0
0
0
0
0
0
0
0
0
0
0
0
0
0
0
0
0
0
0
0
0
0
0
0
0
0
0
0
0
0
0
0
0
0
0
0
0
0
0
0
0
0
0
0
0
0
0
0
0
0
0
0
0
0