/*--------------------------------*- C++ -*----------------------------------*\
| =========                 |                                                 |
| \\      /  F ield         | OpenFOAM: The Open Source CFD Toolbox           |
|  \\    /   O peration     | Version:  2.1.1                                 |
|   \\  /    A nd           | Web:      www.OpenFOAM.org                      |
|    \\/     M anipulation  |                                                 |
\*---------------------------------------------------------------------------*/
FoamFile
{
    version     2.0;
    format      ascii;
    class       volScalarField;
    location    "0.001450000";
    object      OH;
}
// * * * * * * * * * * * * * * * * * * * * * * * * * * * * * * * * * * * * * //

dimensions      [0 0 0 0 0 0 0];

internalField   nonuniform List<scalar> 
12384
(
0.00103856
0.000605499
0.000219758
4.05704e-05
2.52696e-06
3.58731e-07
6.99133e-08
1.74575e-08
2.03899e-09
4.84753e-11
9.5617e-13
2.19878e-14
2.23679e-16
1.8205e-18
5.13937e-17
6.38698e-15
9.14572e-13
7.40324e-11
1.34572e-09
4.76535e-09
6.10973e-09
5.57981e-09
3.56044e-09
9.39151e-10
1.43686e-10
2.65764e-11
3.96344e-13
1.98969e-15
1.00856e-17
1.58821e-20
2.4414e-23
4.23627e-26
6.36351e-29
9.22028e-32
1.27618e-34
1.83046e-37
2.66912e-40
4.27268e-43
6.71371e-46
1.16558e-48
1.99428e-51
3.63166e-54
6.78902e-57
1.25241e-59
7.95219e-74
1.61269e-74
3.19076e-76
1.21774e-77
1.3986e-79
9.29444e-82
3.80737e-84
1.01744e-86
1.4288e-89
1.27503e-92
1.20607e-95
1.16755e-98
1.16061e-101
1.13492e-104
1.1248e-107
1.08736e-110
1.03136e-113
9.79545e-117
9.1294e-120
8.4719e-123
7.81592e-126
1.3107e-128
2.55156e-131
3.36592e-134
3.74329e-137
3.83371e-140
3.66655e-143
3.37726e-146
2.95987e-149
2.52633e-152
1.17965e-161
2.09436e-163
2.45261e-166
1.66074e-169
4.95331e-175
3.1303e-180
2.35881e-184
2.26497e-188
1.51282e-192
9.22964e-197
3.63649e-201
9.11845e-206
1.68289e-210
2.56567e-215
3.43523e-220
9.98527e-225
1.05455e-227
1.78856e-230
2.87251e-233
4.58913e-236
7.07561e-239
1.08644e-241
1.63768e-244
2.55884e-247
3.92152e-250
6.19139e-253
1.00201e-255
1.82681e-258
4.05752e-261
7.66994e-264
2.02532e-281
5.87415e-281
7.84195e-283
2.43757e-285
7.91504e-288
2.19564e-290
5.30745e-293
1.1826e-295
2.49886e-298
5.0842e-301
1.01217e-303
1.97252e-306
3.71498e-309
6.63428e-312
1.12631e-314
1.85052e-317
2.97428e-320
0
0
0
0
0
0
0
0
0
0
0
0
0
0
0
0
0
0
0
0
0
0
0
0
0
0
0
0
0
0
0
0
0
0
0
0
0
0
0
0
0
0
0
0
0
0
0
0
0
0
0
0
0
0
0
0
0
0
0
0
0
0
0
0
0
0
0
0
0
0
0
0
0
0
0
0
0
0
0
0
0
0
0
0
0
0
0
0
0
0
0
0
0
0
0
0
0
0
0
0
0
0
0
0
0
0
0
0
0
0
0
0
0
0
0
0
0
0
0
0
0
0
0
0
0
0
0
0
0
0
0
0
0
0
0
0
0
0
0
0
0
0
0
0
0
0
0
0
0
0
0
0
0
0
0
0
0
0
0
0
0
0
0
0
0
0
0
0
0
0
0
0
0
0
0
0
0
0
0
0
0
0
0
0
0
0
0
0
0
0
0
0
0
0
0
0
0
0
0
0
0
0
0
0
0
0
0
0
0
0
0
0
0
0
0
0
0
0
0
0
0
0
0
0
0
0
0
0
0
0
0
0
0
0
0
0
0
0
0
0
0
0
0
0
0
0
0
0
0
0
0
0
0
0.00074081
0.00139383
0.000425249
6.06603e-05
1.28581e-05
1.57909e-06
1.39046e-07
5.99004e-08
1.40949e-08
6.67115e-10
4.66304e-11
2.00414e-12
2.19293e-14
1.52864e-16
3.25474e-16
3.16155e-14
2.59841e-11
5.54205e-09
4.69141e-07
1.54788e-06
1.74207e-06
1.8233e-06
1.36466e-06
4.01054e-07
1.19668e-08
1.1572e-09
1.42038e-11
1.87547e-14
7.13497e-17
1.40231e-20
2.05103e-23
2.20303e-25
3.631e-28
3.64641e-31
5.95419e-34
8.52765e-37
1.68314e-39
2.42435e-42
3.64979e-45
4.95607e-48
6.50352e-51
8.97925e-54
1.25542e-56
1.93811e-59
3.66877e-72
2.31806e-73
3.56508e-75
1.7743e-76
2.11365e-78
1.2177e-80
5.01266e-83
1.57823e-85
2.99761e-88
1.12352e-91
7.73692e-95
1.31426e-97
1.93361e-100
3.28045e-103
4.40555e-106
6.10608e-109
7.87437e-112
1.02743e-114
1.34153e-117
1.71037e-120
2.06064e-123
7.78834e-126
2.46431e-128
3.04682e-131
3.06968e-134
2.93731e-137
2.59401e-140
2.18737e-143
1.73941e-146
1.32211e-149
8.09855e-159
1.30908e-160
1.3469e-163
1.29117e-166
7.67166e-170
6.74147e-175
5.62847e-179
5.82131e-183
4.21052e-187
3.54397e-191
1.49163e-195
3.86186e-200
6.92493e-205
1.02112e-209
1.32439e-214
1.51509e-219
2.44336e-224
1.58886e-227
2.49602e-230
3.93579e-233
6.09145e-236
9.40194e-239
1.44269e-241
2.22888e-244
3.47002e-247
5.39247e-250
8.75235e-253
1.53749e-255
3.23067e-258
5.43422e-261
4.00597e-278
5.44688e-278
7.47409e-280
2.46689e-282
8.63995e-285
2.56698e-287
6.58933e-290
1.54813e-292
3.41493e-295
7.20414e-298
1.46842e-300
2.89359e-303
5.43338e-306
9.58273e-309
1.59443e-311
2.53864e-314
3.91822e-317
5.82207e-320
0
0
0
0
0
0
0
0
0
0
0
0
0
0
0
0
0
0
0
0
0
0
0
0
0
0
0
0
0
0
0
0
0
0
0
0
0
0
0
0
0
0
0
0
0
0
0
0
0
0
0
0
0
0
0
0
0
0
0
0
0
0
0
0
0
0
0
0
0
0
0
0
0
0
0
0
0
0
0
0
0
0
0
0
0
0
0
0
0
0
0
0
0
0
0
0
0
0
0
0
0
0
0
0
0
0
0
0
0
0
0
0
0
0
0
0
0
0
0
0
0
0
0
0
0
0
0
0
0
0
0
0
0
0
0
0
0
0
0
0
0
0
0
0
0
0
0
0
0
0
0
0
0
0
0
0
0
0
0
0
0
0
0
0
0
0
0
0
0
0
0
0
0
0
0
0
0
0
0
0
0
0
0
0
0
0
0
0
0
0
0
0
0
0
0
0
0
0
0
0
0
0
0
0
0
0
0
0
0
0
0
0
0
0
0
0
0
0
0
0
0
0
0
0
0
0
0
0
0
0
0
0
0
0
0
0
0
0
0
0
0
0
0
0
0
0
0
0
0
0
0
0
3.70704e-05
7.25801e-05
1.74562e-05
3.41549e-06
1.06367e-06
3.53559e-07
3.57895e-07
1.46329e-07
3.71953e-08
9.00149e-10
5.12222e-11
2.26749e-12
1.83666e-13
1.60592e-15
1.63257e-15
5.66753e-11
4.59974e-07
4.80366e-05
0.000278843
0.000377204
0.000318375
0.000288843
0.000303318
0.000285567
0.000149999
4.84833e-05
4.92666e-06
2.6214e-08
4.62874e-11
9.17216e-16
2.47923e-19
8.70477e-23
7.39803e-27
1.11268e-30
1.17764e-33
6.29726e-37
7.93013e-40
8.96785e-44
2.48768e-44
3.54334e-47
3.87427e-49
7.96893e-52
1.34508e-54
4.20925e-57
7.95922e-71
5.38601e-71
2.33544e-72
2.84477e-73
3.56015e-75
1.7637e-77
3.65691e-80
5.38988e-83
4.88338e-86
2.21518e-90
1.60373e-93
1.05156e-96
8.01308e-100
6.67906e-103
5.05578e-106
4.59992e-109
3.83681e-112
3.94903e-115
3.75157e-118
4.27323e-121
4.17325e-124
9.57705e-127
8.91234e-129
1.44213e-131
2.30837e-134
4.19973e-137
6.14511e-140
8.53609e-143
6.29117e-146
2.90448e-149
4.03998e-159
8.9968e-161
9.21648e-164
7.23089e-167
5.13602e-170
3.329e-173
3.16629e-177
3.07425e-181
2.72111e-185
2.76563e-189
1.22211e-193
3.07425e-198
5.52166e-203
7.72179e-208
1.00425e-212
1.13172e-217
1.13277e-222
1.14922e-227
2.5933e-231
3.85032e-234
5.56666e-237
8.89979e-240
1.29287e-242
2.11451e-245
3.02275e-248
5.07044e-251
7.91147e-254
1.47248e-256
2.96684e-259
2.88939e-262
7.71397e-279
7.37546e-279
8.23287e-281
3.16916e-283
1.15547e-285
3.49854e-288
9.7067e-291
2.38782e-293
5.67306e-296
1.22716e-298
2.65092e-301
5.30422e-304
1.08253e-306
1.99199e-309
3.37851e-312
5.20562e-315
7.4591e-318
9.60958e-321
9.88131e-324
0
0
0
0
0
0
0
0
0
0
0
0
0
0
0
0
0
0
0
0
0
0
0
0
0
0
0
0
0
0
0
0
0
0
0
0
0
0
0
0
0
0
0
0
0
0
0
0
0
0
0
0
0
0
0
0
0
0
0
0
0
0
0
0
0
0
0
0
0
0
0
0
0
0
0
0
0
0
0
0
0
0
0
0
0
0
0
0
0
0
0
0
0
0
0
0
0
0
0
0
0
0
0
0
0
0
0
0
0
0
0
0
0
0
0
0
0
0
0
0
0
0
0
0
0
0
0
0
0
0
0
0
0
0
0
0
0
0
0
0
0
0
0
0
0
0
0
0
0
0
0
0
0
0
0
0
0
0
0
0
0
0
0
0
0
0
0
0
0
0
0
0
0
0
0
0
0
0
0
0
0
0
0
0
0
0
0
0
0
0
0
0
0
0
0
0
0
0
0
0
0
0
0
0
0
0
0
0
0
0
0
0
0
0
0
0
0
0
0
0
0
0
0
0
0
0
0
0
0
0
0
0
0
0
0
0
0
0
0
0
0
0
0
0
0
0
0
0
0
0
0
1.93867e-05
4.18216e-05
1.82701e-05
7.65075e-06
1.71888e-06
3.46233e-06
6.08946e-06
8.80079e-06
5.34016e-06
9.14776e-07
1.72773e-08
1.26682e-10
5.57356e-13
4.42108e-15
1.83143e-11
2.00011e-06
0.000134543
0.000469739
0.00139634
0.00110847
0.000858677
0.00064646
0.000628617
0.000586991
0.00023001
0.000110573
6.65158e-05
3.22907e-05
1.88163e-06
9.6953e-09
3.37685e-12
5.87609e-16
2.91758e-20
2.52589e-24
1.46369e-27
5.31633e-31
1.32819e-34
5.96843e-39
2.67013e-42
1.16264e-45
5.29444e-48
1.20773e-50
3.57146e-53
8.27295e-55
2.82445e-65
5.49288e-65
2.12232e-66
3.34541e-67
5.0627e-69
2.58323e-71
5.73601e-74
6.673e-77
4.54919e-80
2.60277e-83
1.27131e-86
6.46946e-90
3.18714e-93
1.74623e-96
9.74159e-100
6.56901e-103
3.91358e-106
3.23853e-109
2.69616e-112
2.50291e-115
2.10291e-118
1.87329e-121
1.35092e-124
1.09322e-127
7.54741e-131
5.4151e-134
3.39237e-137
2.03984e-140
9.22103e-144
2.80554e-147
7.45907e-154
1.18234e-155
8.64238e-159
5.36709e-162
3.07068e-165
1.85378e-168
1.12754e-171
1.00791e-175
1.53726e-179
1.45781e-183
6.09964e-188
1.46473e-192
2.68343e-197
3.43426e-202
4.13548e-207
4.54189e-212
4.63167e-217
4.22299e-222
3.44558e-227
2.32839e-231
3.21893e-234
4.96923e-237
7.65845e-240
1.16235e-242
1.79082e-245
2.74821e-248
4.43292e-251
7.40454e-254
1.38822e-256
1.89051e-259
4.0093e-275
6.18474e-276
4.54886e-278
1.94453e-280
6.34629e-283
1.75911e-285
4.2528e-288
9.5592e-291
1.97777e-293
3.99153e-296
7.56334e-299
1.41743e-301
2.50546e-304
4.40326e-307
7.35986e-310
1.21967e-312
1.92725e-315
2.96096e-318
4.40707e-321
4.94066e-324
0
0
0
0
0
0
0
0
0
0
0
0
0
0
0
0
0
0
0
0
0
0
0
0
0
0
0
0
0
0
0
0
0
0
0
0
0
0
0
0
0
0
0
0
0
0
0
0
0
0
0
0
0
0
0
0
0
0
0
0
0
0
0
0
0
0
0
0
0
0
0
0
0
0
0
0
0
0
0
0
0
0
0
0
0
0
0
0
0
0
0
0
0
0
0
0
0
0
0
0
0
0
0
0
0
0
0
0
0
0
0
0
0
0
0
0
0
0
0
0
0
0
0
0
0
0
0
0
0
0
0
0
0
0
0
0
0
0
0
0
0
0
0
0
0
0
0
0
0
0
0
0
0
0
0
0
0
0
0
0
0
0
0
0
0
0
0
0
0
0
0
0
0
0
0
0
0
0
0
0
0
0
0
0
0
0
0
0
0
0
0
0
0
0
0
0
0
0
0
0
0
0
0
0
0
0
0
0
0
0
0
0
0
0
0
0
0
0
0
0
0
0
0
0
0
0
0
0
0
0
0
0
0
0
0
0
0
0
0
0
0
0
0
0
0
0
0
0
0
0
0.000857018
0.00128513
0.0028827
0.00407258
0.00142809
0.000739027
0.000516174
0.000565531
0.000400297
8.15248e-05
1.04377e-05
9.25383e-07
5.92099e-10
1.66487e-13
2.04033e-08
9.82913e-05
0.000640647
0.00147366
0.00243624
0.00251063
0.0022496
0.00160486
0.000927535
0.00058793
0.000348654
0.000211345
0.000183522
6.56552e-05
2.14927e-05
3.07685e-06
2.39901e-08
2.65163e-11
9.38563e-15
4.59317e-18
2.9282e-21
1.09533e-24
2.60153e-28
6.42878e-33
1.46375e-36
3.3451e-40
7.47195e-45
5.08998e-49
8.42351e-52
5.63938e-53
2.51657e-60
1.45376e-60
6.76071e-63
3.60962e-64
3.3539e-66
1.74633e-68
9.19636e-71
8.0741e-73
2.4754e-75
2.08356e-78
1.27022e-81
7.38547e-85
4.24175e-88
2.60053e-91
1.58388e-94
1.03517e-97
7.43325e-101
5.34967e-104
4.71416e-107
3.97042e-110
3.72781e-113
2.99294e-116
2.38852e-119
1.83612e-122
1.09064e-125
6.21204e-129
3.12202e-132
1.41537e-135
5.15725e-139
1.37179e-142
1.55232e-148
2.90482e-150
2.07298e-153
1.24716e-156
7.12783e-160
3.69733e-163
2.29148e-166
1.45143e-169
5.45386e-173
3.52988e-177
1.31264e-181
3.1032e-186
5.47689e-191
7.77553e-196
9.74047e-201
1.14153e-205
1.23216e-210
1.24866e-215
1.08774e-220
8.26424e-226
1.44766e-230
1.41416e-233
2.12165e-236
3.17784e-239
4.81749e-242
7.2474e-245
1.12375e-247
1.78823e-250
3.12046e-253
4.55864e-256
1.31448e-270
5.51166e-272
2.88538e-274
1.08142e-276
3.17819e-279
7.97379e-282
1.80714e-284
3.7609e-287
7.52855e-290
1.42613e-292
2.65777e-295
4.71216e-298
8.27787e-301
1.39016e-303
2.3246e-306
3.74718e-309
5.92148e-312
9.05863e-315
1.34547e-317
1.9397e-320
2.47033e-323
0
0
0
0
0
0
0
0
0
0
0
0
0
0
0
0
0
0
0
0
0
0
0
0
0
0
0
0
0
0
0
0
0
0
0
0
0
0
0
0
0
0
0
0
0
0
0
0
0
0
0
0
0
0
0
0
0
0
0
0
0
0
0
0
0
0
0
0
0
0
0
0
0
0
0
0
0
0
0
0
0
0
0
0
0
0
0
0
0
0
0
0
0
0
0
0
0
0
0
0
0
0
0
0
0
0
0
0
0
0
0
0
0
0
0
0
0
0
0
0
0
0
0
0
0
0
0
0
0
0
0
0
0
0
0
0
0
0
0
0
0
0
0
0
0
0
0
0
0
0
0
0
0
0
0
0
0
0
0
0
0
0
0
0
0
0
0
0
0
0
0
0
0
0
0
0
0
0
0
0
0
0
0
0
0
0
0
0
0
0
0
0
0
0
0
0
0
0
0
0
0
0
0
0
0
0
0
0
0
0
0
0
0
0
0
0
0
0
0
0
0
0
0
0
0
0
0
0
0
0
0
0
0
0
0
0
0
0
0
0
0
0
0
0
0
0
0
0
0
0.00949228
0.0092474
0.00988255
0.00955362
0.00863006
0.00598538
0.003996
0.00276172
0.00194905
0.0013473
0.000476747
0.000127739
1.35881e-06
2.15836e-10
6.90483e-07
0.000325985
0.00358201
0.0043833
0.00455743
0.00430322
0.00442331
0.00440206
0.00240194
0.00114895
0.000521507
0.000249829
0.000133037
8.20647e-05
3.78044e-05
1.25735e-05
1.9692e-06
1.11771e-08
5.2283e-11
6.98009e-14
6.06339e-17
4.63344e-20
2.37421e-23
1.15208e-26
2.5478e-30
4.21952e-34
3.08711e-39
7.83894e-44
1.1113e-48
1.17396e-50
3.29096e-56
1.42887e-57
3.77756e-60
3.54179e-61
3.04461e-63
9.00036e-66
1.98637e-68
8.34304e-71
5.71863e-73
3.98084e-75
1.28091e-77
1.35013e-80
1.11048e-83
8.87156e-87
6.69864e-90
5.14627e-93
3.94352e-96
3.16059e-99
2.72468e-102
2.2753e-105
2.21835e-108
1.81526e-111
1.47478e-114
1.11815e-117
7.28539e-121
4.64936e-124
2.3377e-127
1.04821e-130
3.60343e-134
9.43383e-138
1.14375e-143
2.21803e-145
1.7697e-148
9.94144e-152
5.18972e-155
2.88403e-158
1.66006e-161
1.07712e-164
7.41487e-168
4.86504e-171
1.57773e-175
3.29276e-180
5.43143e-185
7.03921e-190
8.8297e-195
1.00826e-199
1.22292e-204
1.36895e-209
1.42065e-214
1.19445e-219
8.59738e-225
6.9449e-230
2.94465e-233
4.14352e-236
6.02886e-239
8.59037e-242
1.25899e-244
1.89974e-247
3.06422e-250
3.88222e-253
2.19537e-266
4.51218e-268
1.18428e-270
3.68645e-273
9.43228e-276
2.1553e-278
4.46179e-281
8.77072e-284
1.63961e-286
2.98524e-289
5.21901e-292
8.98031e-295
1.49083e-297
2.45806e-300
3.91281e-303
6.18238e-306
9.36368e-309
1.40392e-311
2.0195e-314
2.86617e-317
3.92288e-320
5.43472e-323
0
0
0
0
0
0
0
0
0
0
0
0
0
0
0
0
0
0
0
0
0
0
0
0
0
0
0
0
0
0
0
0
0
0
0
0
0
0
0
0
0
0
0
0
0
0
0
0
0
0
0
0
0
0
0
0
0
0
0
0
0
0
0
0
0
0
0
0
0
0
0
0
0
0
0
0
0
0
0
0
0
0
0
0
0
0
0
0
0
0
0
0
0
0
0
0
0
0
0
0
0
0
0
0
0
0
0
0
0
0
0
0
0
0
0
0
0
0
0
0
0
0
0
0
0
0
0
0
0
0
0
0
0
0
0
0
0
0
0
0
0
0
0
0
0
0
0
0
0
0
0
0
0
0
0
0
0
0
0
0
0
0
0
0
0
0
0
0
0
0
0
0
0
0
0
0
0
0
0
0
0
0
0
0
0
0
0
0
0
0
0
0
0
0
0
0
0
0
0
0
0
0
0
0
0
0
0
0
0
0
0
0
0
0
0
0
0
0
0
0
0
0
0
0
0
0
0
0
0
0
0
0
0
0
0
0
0
0
0
0
0
0
0
0
0
0
0
0
0.00973302
0.00972515
0.00949157
0.0090234
0.00831119
0.00778201
0.00590319
0.00444169
0.00412072
0.0035155
0.00215
0.00129806
2.47362e-05
4.81162e-08
1.35768e-05
0.000719551
0.00458534
0.00313992
0.0024008
0.00244111
0.00283218
0.0038342
0.00460635
0.00235965
0.000788161
0.000305903
0.000130571
7.7653e-05
5.27434e-05
2.44798e-05
7.11156e-06
7.10355e-07
4.62601e-09
3.68871e-11
1.75579e-13
3.00652e-16
3.10718e-19
2.29462e-22
1.04856e-25
3.11039e-29
5.32526e-33
5.07569e-38
2.01675e-43
8.86432e-47
1.0755e-52
2.05466e-54
3.67043e-57
3.59541e-58
7.2571e-60
1.84144e-62
1.70519e-65
3.0469e-68
8.5765e-71
4.5163e-73
2.63938e-75
1.15177e-77
3.03798e-80
4.76367e-83
5.7212e-86
5.88825e-89
5.93721e-92
5.68647e-95
5.50451e-98
5.55761e-101
5.81663e-104
5.58452e-107
5.50181e-110
4.53578e-113
3.57176e-116
2.39071e-119
1.37876e-122
6.12497e-126
2.02439e-129
4.72764e-133
1.53163e-139
2.24101e-141
2.3403e-144
1.73054e-147
1.0707e-150
6.52932e-154
4.28886e-157
3.05058e-160
2.40009e-163
1.96882e-166
1.63111e-169
3.1933e-174
4.86807e-179
5.74967e-184
5.94e-189
6.1856e-194
7.24542e-199
9.38932e-204
1.17668e-208
1.25568e-213
1.08242e-218
7.40687e-224
4.45472e-229
6.34236e-233
8.62199e-236
1.21735e-238
1.72997e-241
2.51311e-244
3.81328e-247
4.78446e-250
5.99405e-262
9.14994e-264
7.16768e-267
1.5747e-269
3.45527e-272
6.93498e-275
1.31743e-277
2.3753e-280
4.19863e-283
7.10049e-286
1.18774e-288
1.90989e-291
3.06712e-294
4.76516e-297
7.39735e-300
1.11337e-302
1.66016e-305
2.39869e-308
3.40948e-311
4.70511e-314
6.40191e-317
8.54141e-320
1.03754e-322
0
0
0
0
0
0
0
0
0
0
0
0
0
0
0
0
0
0
0
0
0
0
0
0
0
0
0
0
0
0
0
0
0
0
0
0
0
0
0
0
0
0
0
0
0
0
0
0
0
0
0
0
0
0
0
0
0
0
0
0
0
0
0
0
0
0
0
0
0
0
0
0
0
0
0
0
0
0
0
0
0
0
0
0
0
0
0
0
0
0
0
0
0
0
0
0
0
0
0
0
0
0
0
0
0
0
0
0
0
0
0
0
0
0
0
0
0
0
0
0
0
0
0
0
0
0
0
0
0
0
0
0
0
0
0
0
0
0
0
0
0
0
0
0
0
0
0
0
0
0
0
0
0
0
0
0
0
0
0
0
0
0
0
0
0
0
0
0
0
0
0
0
0
0
0
0
0
0
0
0
0
0
0
0
0
0
0
0
0
0
0
0
0
0
0
0
0
0
0
0
0
0
0
0
0
0
0
0
0
0
0
0
0
0
0
0
0
0
0
0
0
0
0
0
0
0
0
0
0
0
0
0
0
0
0
0
0
0
0
0
0
0
0
0
0
0
0
0.00947107
0.00895084
0.00736654
0.00579068
0.00582202
0.00603797
0.00434864
0.00461229
0.0045347
0.00446151
0.0033781
0.00129282
3.27148e-05
1.69566e-07
0.000121925
0.00401062
0.00146319
0.00114628
0.00164695
0.00219039
0.00265534
0.00328503
0.0042964
0.00400399
0.00115466
0.000352326
0.000143613
7.34925e-05
5.02651e-05
3.48562e-05
1.28226e-05
3.69851e-06
3.94455e-07
4.10494e-09
2.29196e-11
9.88074e-14
3.57241e-16
7.36638e-19
7.52861e-22
4.6879e-25
1.53187e-28
2.24393e-32
4.19084e-38
9.60952e-43
1.20577e-49
1.14777e-51
6.90357e-55
1.3641e-55
5.57525e-57
2.57891e-59
1.79344e-62
2.40391e-65
3.18201e-68
8.2709e-71
3.69014e-73
1.63361e-75
5.36276e-78
1.36394e-80
2.90508e-83
5.33843e-86
8.91618e-89
1.3108e-91
1.71208e-94
2.13669e-97
2.52006e-100
2.92197e-103
3.11007e-106
3.03521e-109
2.72851e-112
2.19802e-115
1.49398e-118
8.21441e-122
2.92149e-125
7.75923e-129
1.75985e-136
1.16349e-138
9.87322e-142
1.24379e-144
1.55928e-147
1.68009e-150
1.57143e-153
1.41436e-156
1.30336e-159
1.24187e-162
1.17886e-165
1.056e-168
1.4952e-173
1.55137e-178
1.34104e-183
1.12314e-188
1.00194e-193
1.08564e-198
1.4136e-203
1.91529e-208
2.14319e-213
1.83744e-218
1.19573e-223
5.6792e-229
3.3168e-233
4.19589e-236
5.77157e-239
8.06862e-242
1.18683e-244
1.42628e-247
7.42311e-258
6.91227e-260
2.08486e-263
2.63548e-266
4.3678e-269
7.32902e-272
1.21693e-274
1.98944e-277
3.19438e-280
5.02563e-283
7.72999e-286
1.17781e-288
1.7669e-291
2.63901e-294
3.87502e-297
5.6541e-300
8.03983e-303
1.12832e-305
1.53878e-308
2.06842e-311
2.71826e-314
3.52269e-317
4.46784e-320
3.45846e-323
0
0
0
0
0
0
0
0
0
0
0
0
0
0
0
0
0
0
0
0
0
0
0
0
0
0
0
0
0
0
0
0
0
0
0
0
0
0
0
0
0
0
0
0
0
0
0
0
0
0
0
0
0
0
0
0
0
0
0
0
0
0
0
0
0
0
0
0
0
0
0
0
0
0
0
0
0
0
0
0
0
0
0
0
0
0
0
0
0
0
0
0
0
0
0
0
0
0
0
0
0
0
0
0
0
0
0
0
0
0
0
0
0
0
0
0
0
0
0
0
0
0
0
0
0
0
0
0
0
0
0
0
0
0
0
0
0
0
0
0
0
0
0
0
0
0
0
0
0
0
0
0
0
0
0
0
0
0
0
0
0
0
0
0
0
0
0
0
0
0
0
0
0
0
0
0
0
0
0
0
0
0
0
0
0
0
0
0
0
0
0
0
0
0
0
0
0
0
0
0
0
0
0
0
0
0
0
0
0
0
0
0
0
0
0
0
0
0
0
0
0
0
0
0
0
0
0
0
0
0
0
0
0
0
0
0
0
0
0
0
0
0
0
0
0
0
0.00587594
0.00430742
0.00229616
0.0024121
0.00343872
0.00377368
0.00323766
0.00379667
0.00337577
0.00345589
0.00462179
0.00329093
0.000943691
1.03098e-05
2.36019e-05
4.5038e-05
0.000148356
0.00239931
0.00109199
0.000837559
0.00177259
0.00362165
0.00438222
0.00446246
0.00460977
0.00302902
0.00107773
0.000352438
0.000136524
7.66575e-05
4.40358e-05
3.35476e-05
2.25679e-05
9.71746e-06
2.63694e-06
5.42198e-07
3.19138e-09
1.01098e-11
3.2158e-14
1.06134e-16
3.11996e-19
7.64432e-22
8.72625e-25
3.54795e-28
1.70315e-32
3.24504e-38
1.24344e-42
1.07497e-45
3.14169e-48
2.12511e-50
4.07824e-52
2.29988e-52
9.46995e-54
1.27051e-56
8.80528e-60
1.52076e-62
1.83913e-65
2.75499e-68
7.19263e-71
2.37698e-73
7.1254e-76
1.79399e-78
3.89277e-81
7.36128e-84
1.36881e-86
2.23123e-89
3.63018e-92
5.44605e-95
7.92798e-98
1.15891e-100
1.6448e-103
2.19636e-106
2.75752e-109
3.41879e-112
3.94808e-115
3.74069e-118
2.54975e-121
9.59181e-125
1.07792e-127
1.77713e-130
1.74965e-133
9.70814e-137
8.21595e-140
1.12927e-142
1.9214e-145
2.84654e-148
3.74011e-151
4.49105e-154
5.21865e-157
6.41692e-160
7.12466e-163
7.55138e-166
7.33314e-169
6.33588e-174
4.70048e-179
3.18401e-184
2.22595e-189
1.7773e-194
1.81855e-199
2.33193e-204
3.23314e-209
3.68309e-214
3.07755e-219
1.73941e-224
6.80042e-230
4.81704e-234
5.32194e-237
6.85556e-240
9.20504e-243
1.25812e-245
1.54075e-248
1.29466e-251
3.81823e-254
3.62024e-257
3.92253e-260
4.11729e-263
4.71752e-266
5.42103e-269
6.4239e-272
7.70259e-275
9.3306e-278
1.15954e-280
1.45784e-283
1.86259e-286
2.42712e-289
3.18074e-292
4.2279e-295
5.6291e-298
7.48724e-301
9.8335e-304
1.28446e-306
1.64134e-309
2.10236e-312
2.62291e-315
3.28778e-318
4.06616e-321
0
0
0
0
0
0
0
0
0
0
0
0
0
0
0
0
0
0
0
0
0
0
0
0
0
0
0
0
0
0
0
0
0
0
0
0
0
0
0
0
0
0
0
0
0
0
0
0
0
0
0
0
0
0
0
0
0
0
0
0
0
0
0
0
0
0
0
0
0
0
0
0
0
0
0
0
0
0
0
0
0
0
0
0
0
0
0
0
0
0
0
0
0
0
0
0
0
0
0
0
0
0
0
0
0
0
0
0
0
0
0
0
0
0
0
0
0
0
0
0
0
0
0
0
0
0
0
0
0
0
0
0
0
0
0
0
0
0
0
0
0
0
0
0
0
0
0
0
0
0
0
0
0
0
0
0
0
0
0
0
0
0
0
0
0
0
0
0
0
0
0
0
0
0
0
0
0
0
0
0
0
0
0
0
0
0
0
0
0
0
0
0
0
0
0
0
0
0
0
0
0
0
0
0
0
0
0
0
0
0
0
0
0
0
0
0
0
0
0
0
0
0
0
0
0
0
0
0
0
0
0
0
0
0
0
0
0
0
0
0
0
0
0
0
0
0
0
0
0
0
0
0
0
0
0
0
0
0
0
0
0
0
0
0
0.00087665
0.00081113
0.000525563
0.000577028
0.00104862
0.00170326
0.00235821
0.00182305
0.00111037
0.000912466
0.000999057
0.00154505
0.0042119
0.000310918
0.00144237
0.00293652
0.0012449
0.000885544
0.000758412
0.00222583
0.0039665
0.00171211
0.00172022
0.00218166
0.00194612
0.000945009
0.000465898
0.000191168
0.000102785
5.60829e-05
3.97291e-05
2.80953e-05
2.08216e-05
1.43447e-05
7.7808e-06
1.99275e-06
3.8555e-07
1.2496e-09
2.46877e-12
6.15515e-15
1.82095e-17
5.22678e-20
1.42798e-22
3.76782e-25
4.1457e-28
9.18984e-33
3.858e-37
1.64101e-40
1.66415e-43
2.82834e-45
4.38509e-47
2.49672e-48
4.49247e-51
3.29518e-54
2.35603e-57
7.15357e-60
9.92405e-63
1.20883e-65
2.00217e-68
4.31699e-71
1.00987e-73
2.21104e-76
4.29483e-79
8.12491e-82
1.4003e-84
2.34879e-87
3.76248e-90
5.44567e-93
8.07442e-96
1.13547e-98
1.51666e-101
2.0181e-104
2.69695e-107
3.44984e-110
4.47049e-113
5.96805e-116
7.58021e-119
1.21234e-121
1.19893e-124
8.53403e-128
4.62373e-131
2.59773e-134
2.02539e-137
2.37801e-140
3.49205e-143
4.61885e-146
5.59188e-149
6.76373e-152
7.75592e-155
8.48622e-158
9.02253e-161
9.40212e-164
9.57157e-167
8.26626e-170
4.92566e-175
2.63231e-180
1.31673e-185
6.4601e-191
3.4309e-196
2.15362e-201
1.77961e-206
1.53635e-211
1.17245e-216
7.19414e-222
3.52642e-227
1.52829e-232
3.68882e-236
4.90431e-239
6.74502e-242
9.42092e-245
1.20278e-247
1.45489e-250
1.53439e-253
1.85183e-256
2.41965e-259
3.26841e-262
4.42918e-265
5.99986e-268
7.99264e-271
1.0579e-273
1.39259e-276
1.83436e-279
2.42654e-282
3.20681e-285
4.22737e-288
5.53452e-291
7.22316e-294
9.37091e-297
1.20572e-299
1.53665e-302
1.93107e-305
2.39267e-308
2.91964e-311
3.51258e-314
4.15388e-317
4.83295e-320
4.44659e-323
0
0
0
0
0
0
0
0
0
0
0
0
0
0
0
0
0
0
0
0
0
0
0
0
0
0
0
0
0
0
0
0
0
0
0
0
0
0
0
0
0
0
0
0
0
0
0
0
0
0
0
0
0
0
0
0
0
0
0
0
0
0
0
0
0
0
0
0
0
0
0
0
0
0
0
0
0
0
0
0
0
0
0
0
0
0
0
0
0
0
0
0
0
0
0
0
0
0
0
0
0
0
0
0
0
0
0
0
0
0
0
0
0
0
0
0
0
0
0
0
0
0
0
0
0
0
0
0
0
0
0
0
0
0
0
0
0
0
0
0
0
0
0
0
0
0
0
0
0
0
0
0
0
0
0
0
0
0
0
0
0
0
0
0
0
0
0
0
0
0
0
0
0
0
0
0
0
0
0
0
0
0
0
0
0
0
0
0
0
0
0
0
0
0
0
0
0
0
0
0
0
0
0
0
0
0
0
0
0
0
0
0
0
0
0
0
0
0
0
0
0
0
0
0
0
0
0
0
0
0
0
0
0
0
0
0
0
0
0
0
0
0
0
0
0
0
0
0
0
0
0
0
0
0
0
0
0
0
0
0
0
0
0
9.20951e-05
0.000130164
0.000117983
0.000145427
0.000191529
0.00027389
0.000403319
0.000539051
0.000426399
0.000314104
0.000267305
0.000207225
0.000231396
0.000561848
0.000348122
0.00036359
0.00131573
0.00238955
0.00412838
0.00114883
0.000401919
0.000379577
0.000507095
0.000565344
0.000447234
0.000290718
0.000147414
8.93959e-05
5.59032e-05
3.86242e-05
2.88019e-05
2.37788e-05
1.88188e-05
1.45934e-05
1.23727e-05
5.43719e-06
1.21769e-06
8.1791e-08
1.03683e-10
1.6352e-13
3.76299e-16
9.90666e-19
2.52745e-21
6.41384e-24
1.50363e-26
4.55795e-29
7.10302e-32
4.22081e-35
3.56863e-38
3.6495e-40
6.38182e-43
6.98364e-46
6.32276e-49
5.40378e-52
4.80724e-55
4.14026e-58
3.47894e-61
3.24257e-64
3.40519e-67
4.39339e-70
6.28456e-73
1.00681e-75
1.48631e-78
2.21519e-81
3.17187e-84
4.29039e-87
5.86116e-90
7.97877e-93
1.01582e-95
1.33512e-98
1.65315e-101
2.17376e-104
2.86441e-107
3.72609e-110
4.96593e-113
6.94596e-116
8.81132e-119
1.35653e-121
1.66086e-124
1.45166e-127
1.0018e-130
6.69744e-134
5.00214e-137
5.04056e-140
5.97767e-143
6.85343e-146
7.68893e-149
8.23345e-152
8.85772e-155
9.23613e-158
9.59677e-161
9.77562e-164
9.93452e-167
9.70431e-170
6.54121e-175
4.21723e-180
2.63373e-185
1.58921e-190
9.60277e-196
5.93819e-201
3.96231e-206
2.63539e-211
1.57459e-216
8.30396e-222
3.97991e-227
1.69899e-232
1.21847e-237
7.71753e-241
1.16025e-243
1.76801e-246
1.65772e-249
2.01473e-252
2.34962e-255
3.19481e-258
4.45231e-261
6.13183e-264
8.29959e-267
1.10526e-269
1.45232e-272
1.88965e-275
2.44915e-278
3.16275e-281
4.12422e-284
5.38279e-287
7.1408e-290
9.45243e-293
1.26001e-295
1.65947e-298
2.17543e-301
2.81188e-304
3.59999e-307
4.52691e-310
5.59419e-313
6.76147e-316
8.02792e-319
9.38725e-322
0
0
0
0
0
0
0
0
0
0
0
0
0
0
0
0
0
0
0
0
0
0
0
0
0
0
0
0
0
0
0
0
0
0
0
0
0
0
0
0
0
0
0
0
0
0
0
0
0
0
0
0
0
0
0
0
0
0
0
0
0
0
0
0
0
0
0
0
0
0
0
0
0
0
0
0
0
0
0
0
0
0
0
0
0
0
0
0
0
0
0
0
0
0
0
0
0
0
0
0
0
0
0
0
0
0
0
0
0
0
0
0
0
0
0
0
0
0
0
0
0
0
0
0
0
0
0
0
0
0
0
0
0
0
0
0
0
0
0
0
0
0
0
0
0
0
0
0
0
0
0
0
0
0
0
0
0
0
0
0
0
0
0
0
0
0
0
0
0
0
0
0
0
0
0
0
0
0
0
0
0
0
0
0
0
0
0
0
0
0
0
0
0
0
0
0
0
0
0
0
0
0
0
0
0
0
0
0
0
0
0
0
0
0
0
0
0
0
0
0
0
0
0
0
0
0
0
0
0
0
0
0
0
0
0
0
0
0
0
0
0
0
0
0
0
0
0
0
0
0
0
0
0
0
0
0
0
0
0
0
0
0
0
0
1.15974e-05
2.06148e-05
2.18913e-05
2.37171e-05
1.90872e-05
2.44898e-05
3.6349e-05
4.41809e-05
5.65315e-05
5.97e-05
6.22278e-05
5.91494e-05
6.46557e-05
9.61952e-05
8.8891e-05
0.000113208
0.000233434
0.000951533
0.000343829
0.000155973
0.000135804
0.000165472
0.000161657
0.000165634
0.000147142
9.93046e-05
6.90775e-05
4.53564e-05
3.41532e-05
2.55135e-05
2.13887e-05
1.80693e-05
1.61968e-05
1.39064e-05
1.30151e-05
1.1742e-05
2.22262e-06
4.36673e-07
1.88297e-09
2.9804e-12
4.90931e-15
8.97165e-18
1.73665e-20
3.42877e-23
7.30129e-26
1.6724e-28
3.76189e-31
6.92198e-34
1.07696e-36
1.44972e-39
1.57243e-42
1.4924e-45
1.26343e-48
1.05208e-51
8.8207e-55
8.02561e-58
7.18288e-61
6.54659e-64
6.50982e-67
7.00211e-70
8.10708e-73
1.01041e-75
1.25315e-78
1.54277e-81
1.86453e-84
2.34427e-87
2.88258e-90
3.46861e-93
3.98447e-96
4.81377e-99
5.49821e-102
6.73531e-105
7.96693e-108
9.54562e-111
1.15005e-113
1.39601e-116
1.63361e-119
2.08247e-122
2.41002e-125
2.20978e-128
1.92537e-131
1.4052e-134
1.18717e-137
1.10832e-140
1.10582e-143
1.1183e-146
1.12524e-149
1.11273e-152
1.11202e-155
1.07691e-158
1.11808e-161
1.02719e-164
1.00075e-167
8.25791e-171
4.24781e-176
1.90876e-181
7.98073e-187
3.19093e-192
1.33755e-197
6.60095e-203
4.29757e-208
3.26139e-213
2.25839e-218
1.31506e-223
6.42631e-229
2.66442e-234
1.26137e-239
3.94985e-243
5.18035e-246
6.97259e-249
9.02377e-252
1.20683e-254
1.5647e-257
2.18534e-260
3.04814e-263
4.16182e-266
5.63977e-269
7.5292e-272
1.00147e-274
1.31647e-277
1.73106e-280
2.25726e-283
2.96131e-286
3.87127e-289
5.12154e-292
6.79333e-295
9.11696e-298
1.22128e-300
1.63622e-303
2.16999e-306
2.84495e-309
3.66507e-312
4.63917e-315
5.76695e-318
7.03549e-321
4.94066e-324
0
0
0
0
0
0
0
0
0
0
0
0
0
0
0
0
0
0
0
0
0
0
0
0
0
0
0
0
0
0
0
0
0
0
0
0
0
0
0
0
0
0
0
0
0
0
0
0
0
0
0
0
0
0
0
0
0
0
0
0
0
0
0
0
0
0
0
0
0
0
0
0
0
0
0
0
0
0
0
0
0
0
0
0
0
0
0
0
0
0
0
0
0
0
0
0
0
0
0
0
0
0
0
0
0
0
0
0
0
0
0
0
0
0
0
0
0
0
0
0
0
0
0
0
0
0
0
0
0
0
0
0
0
0
0
0
0
0
0
0
0
0
0
0
0
0
0
0
0
0
0
0
0
0
0
0
0
0
0
0
0
0
0
0
0
0
0
0
0
0
0
0
0
0
0
0
0
0
0
0
0
0
0
0
0
0
0
0
0
0
0
0
0
0
0
0
0
0
0
0
0
0
0
0
0
0
0
0
0
0
0
0
0
0
0
0
0
0
0
0
0
0
0
0
0
0
0
0
0
0
0
0
0
0
0
0
0
0
0
0
0
0
0
0
0
0
0
0
0
0
0
0
0
0
0
0
0
0
0
0
0
0
0
0
8.57387e-06
9.60603e-06
1.07222e-05
1.14652e-05
1.16114e-05
1.1961e-05
1.24274e-05
1.2879e-05
1.31432e-05
1.36078e-05
1.54806e-05
1.84496e-05
2.19131e-05
3.23007e-05
3.63489e-05
4.32297e-05
6.01602e-05
9.61094e-05
7.08064e-05
5.94165e-05
5.73781e-05
5.66441e-05
5.72598e-05
6.01747e-05
5.47507e-05
4.56846e-05
3.55578e-05
2.53178e-05
2.1921e-05
1.86894e-05
1.60366e-05
1.4247e-05
1.3388e-05
1.3054e-05
1.23946e-05
1.19753e-05
3.02042e-06
5.35602e-07
1.61338e-09
2.69217e-12
3.36189e-15
4.29012e-18
5.98106e-21
8.08894e-24
1.15447e-26
2.02161e-29
3.10473e-32
4.89636e-35
6.48792e-38
7.9741e-41
9.41594e-44
9.68137e-47
1.05575e-49
1.09155e-52
1.09189e-55
1.0999e-58
1.11939e-61
1.14937e-64
1.16239e-67
1.18074e-70
1.2097e-73
1.24842e-76
1.29703e-79
1.34765e-82
1.37832e-85
1.45586e-88
1.48194e-91
1.51574e-94
1.52028e-97
1.57674e-100
1.57392e-103
1.67673e-106
1.74907e-109
1.91357e-112
2.09496e-115
2.33205e-118
2.55461e-121
2.76609e-124
2.80692e-127
2.55243e-130
2.27352e-133
1.87691e-136
1.59036e-139
1.39609e-142
1.23719e-145
1.12548e-148
9.90846e-152
8.86025e-155
7.77793e-158
6.84175e-161
5.98246e-164
5.0361e-167
4.34352e-170
2.79133e-175
1.75126e-180
1.04643e-185
6.09914e-191
3.50008e-196
2.01905e-201
1.20607e-206
7.38759e-212
4.18757e-217
1.99966e-222
8.50606e-228
3.28574e-233
1.23437e-238
7.58189e-243
9.58087e-246
1.29657e-248
1.75397e-251
2.34004e-254
3.20332e-257
4.39915e-260
6.25119e-263
8.80212e-266
1.21047e-268
1.65235e-271
2.21342e-274
2.95497e-277
3.89784e-280
5.15447e-283
6.79196e-286
9.01178e-289
1.20165e-291
1.62442e-294
2.21687e-297
3.04032e-300
4.16547e-303
5.68534e-306
7.68582e-309
1.02192e-311
1.33588e-314
1.71769e-317
2.17488e-320
2.47033e-323
0
0
0
0
0
0
0
0
0
0
0
0
0
0
0
0
0
0
0
0
0
0
0
0
0
0
0
0
0
0
0
0
0
0
0
0
0
0
0
0
0
0
0
0
0
0
0
0
0
0
0
0
0
0
0
0
0
0
0
0
0
0
0
0
0
0
0
0
0
0
0
0
0
0
0
0
0
0
0
0
0
0
0
0
0
0
0
0
0
0
0
0
0
0
0
0
0
0
0
0
0
0
0
0
0
0
0
0
0
0
0
0
0
0
0
0
0
0
0
0
0
0
0
0
0
0
0
0
0
0
0
0
0
0
0
0
0
0
0
0
0
0
0
0
0
0
0
0
0
0
0
0
0
0
0
0
0
0
0
0
0
0
0
0
0
0
0
0
0
0
0
0
0
0
0
0
0
0
0
0
0
0
0
0
0
0
0
0
0
0
0
0
0
0
0
0
0
0
0
0
0
0
0
0
0
0
0
0
0
0
0
0
0
0
0
0
0
0
0
0
0
0
0
0
0
0
0
0
0
0
0
0
0
0
0
0
0
0
0
0
0
0
0
0
0
0
0
0
0
0
0
0
0
0
0
0
0
0
0
0
0
0
0
0
0
9.9302e-06
1.05799e-05
1.10873e-05
1.11563e-05
1.1163e-05
1.1113e-05
1.08149e-05
1.08049e-05
1.06066e-05
1.05819e-05
1.10451e-05
1.21811e-05
1.37922e-05
1.67385e-05
1.8357e-05
1.8576e-05
1.76582e-05
2.20844e-05
2.26398e-05
2.01699e-05
2.04741e-05
2.18765e-05
1.88801e-05
2.04931e-05
2.66253e-05
2.24819e-05
2.05428e-05
1.84997e-05
1.57435e-05
1.45573e-05
1.37197e-05
1.30244e-05
1.25722e-05
1.21878e-05
1.19994e-05
1.14322e-05
5.97667e-06
1.14641e-06
7.49954e-08
7.28059e-11
5.75363e-14
4.88397e-17
4.73675e-20
4.66384e-23
5.02065e-26
4.82259e-29
4.46906e-32
4.41571e-35
3.77544e-38
3.74644e-41
3.75009e-44
4.33278e-47
5.10553e-50
6.21192e-53
6.96827e-56
7.70951e-59
7.85162e-62
8.0895e-65
7.91091e-68
7.66729e-71
7.34705e-74
6.90103e-77
6.43735e-80
5.90456e-83
5.27568e-86
4.63884e-89
3.9649e-92
3.31554e-95
2.77984e-98
2.24112e-101
1.81701e-104
1.47961e-107
1.17266e-110
9.75043e-114
7.92032e-117
6.50668e-120
5.38316e-123
4.54173e-126
3.77152e-129
3.15622e-132
2.65902e-135
2.17598e-138
1.82518e-141
1.49759e-144
1.24987e-147
1.03482e-150
8.53214e-154
7.10078e-157
5.77776e-160
4.75772e-163
3.83567e-166
3.10811e-169
1.51451e-173
1.59362e-179
8.65365e-185
5.66761e-190
3.7333e-195
2.45704e-200
1.6433e-205
1.06689e-210
6.04289e-216
2.82939e-221
1.12815e-226
3.99193e-232
1.29748e-237
2.12675e-242
2.36158e-245
3.2598e-248
4.49356e-251
6.24677e-254
8.63295e-257
1.21416e-259
1.72527e-262
2.48252e-265
3.51905e-268
4.9104e-271
6.75455e-274
9.21468e-277
1.24226e-279
1.67308e-282
2.23578e-285
3.00159e-288
4.01812e-291
5.43342e-294
7.37359e-297
1.01208e-299
1.39342e-302
1.92714e-305
2.65789e-308
3.65422e-311
4.95625e-314
6.63497e-317
8.70297e-320
1.13635e-322
0
0
0
0
0
0
0
0
0
0
0
0
0
0
0
0
0
0
0
0
0
0
0
0
0
0
0
0
0
0
0
0
0
0
0
0
0
0
0
0
0
0
0
0
0
0
0
0
0
0
0
0
0
0
0
0
0
0
0
0
0
0
0
0
0
0
0
0
0
0
0
0
0
0
0
0
0
0