/*--------------------------------*- C++ -*----------------------------------*\
| =========                 |                                                 |
| \\      /  F ield         | OpenFOAM: The Open Source CFD Toolbox           |
|  \\    /   O peration     | Version:  2.1.1                                 |
|   \\  /    A nd           | Web:      www.OpenFOAM.org                      |
|    \\/     M anipulation  |                                                 |
\*---------------------------------------------------------------------------*/
FoamFile
{
    version     2.0;
    format      ascii;
    class       volScalarField;
    location    "0.001450000";
    object      p;
}
// * * * * * * * * * * * * * * * * * * * * * * * * * * * * * * * * * * * * * //

dimensions      [1 -1 -2 0 0 0 0];

internalField   nonuniform List<scalar> 
12384
(
160939
161228
159265
156659
156614
158251
163643
170591
171950
168789
169105
157362
160803
154870
173182
172849
174404
184873
192470
190248
192907
185759
185537
176203
168704
164945
164163
165219
164847
165034
166141
168017
167098
171207
173271
177100
176488
176300
171778
168749
162412
162174
165632
168150
138770
139144
139900
141186
142373
143812
144989
145539
145871
145479
143965
142981
141518
135830
136771
133711
131433
132339
131439
131507
131529
131696
131559
130842
130539
129666
127828
128341
127013
126870
111794
111717
111483
111314
111248
110727
110833
110030
110284
109315
109553
108960
108404
108529
107597
107907
106831
106972
106689
105892
106257
105425
105769
105096
105375
104893
105061
104809
104873
104791
101875
101836
101847
101862
101791
101806
101722
101741
101653
101673
101580
101610
101520
101553
101483
101482
101477
101431
101447
101402
101417
101379
101391
101360
101369
101347
101353
101340
101342
101339
101324
101323
101324
101323
101323
101322
101323
101322
101322
101321
101322
101321
101322
101322
101321
101322
101321
101322
101321
101322
101321
101322
101322
101323
101322
101323
101323
101323
101323
101324
101323
101323
101323
101323
101322
101323
101322
101323
101322
101322
101321
101322
101321
101322
101321
101322
101321
101322
101321
101322
101321
101322
101322
101323
101322
101323
101323
101323
101323
101323
101323
101323
101323
101323
101322
101323
101322
101323
101322
101322
101321
101322
101321
101322
101321
101322
101321
101322
101321
101322
101321
101322
101322
101323
101322
101323
101323
101323
101323
101324
101323
101323
101323
101323
101322
101323
101322
101323
101322
101322
101321
101322
101321
101322
101321
101322
101321
101322
101321
101322
101321
101322
101322
101323
101322
101323
101323
101323
101323
101324
101323
101324
101323
101323
101323
101322
101323
101322
101322
101321
101322
101321
101322
101321
101322
101321
101322
101321
101322
101322
101322
101322
101322
101323
101322
101323
101323
101323
101323
101323
101323
101323
101323
101323
101322
101323
101322
101322
101322
101322
101321
101322
101321
101322
101321
101322
101321
101322
101321
101322
101322
101322
101322
101323
101322
101323
101323
101323
101323
101324
101323
101323
101323
101323
101323
101323
101322
101323
101322
101322
101322
101322
101322
101322
101322
101322
101322
101321
101322
101322
101322
101322
101323
101322
101323
101323
101323
101323
101323
101323
101324
101324
101324
101324
101323
101324
101323
101323
101322
101323
101322
101322
101322
101322
101321
101322
101321
101322
101321
101322
101321
101322
101322
101322
101322
101323
101323
101323
101323
101323
160994
158894
159136
158843
160246
159963
166231
171351
173802
171448
167652
164099
157899
158301
172300
176958
188861
190568
187617
181322
173583
173017
173513
181114
181373
177421
169461
165746
165920
167912
168055
167802
167350
171091
173124
175539
176843
174099
171552
167597
165059
164810
166359
168229
137191
137677
138548
139489
140942
142078
143147
143997
144211
143714
143927
142131
140230
138942
135681
134977
132541
132001
131506
131653
131412
131433
131108
131125
129514
129908
128200
127422
127596
126768
111724
111614
111610
111499
111190
111044
110649
110392
110064
109698
109346
109112
108497
108610
107617
107829
107208
106665
106867
106044
106089
105691
105479
105385
105083
105128
104864
104924
104780
104764
101895
101952
101915
101853
101850
101786
101775
101714
101704
101637
101630
101581
101552
101530
101512
101473
101479
101433
101447
101404
101417
101380
101390
101361
101366
101348
101347
101341
101335
101336
101319
101319
101320
101319
101319
101318
101319
101318
101318
101317
101318
101317
101318
101317
101317
101318
101317
101318
101317
101318
101317
101318
101317
101318
101318
101319
101318
101319
101319
101319
101319
101319
101319
101319
101319
101319
101318
101318
101317
101318
101317
101318
101317
101318
101317
101318
101317
101318
101317
101318
101317
101318
101318
101319
101318
101319
101318
101319
101319
101319
101319
101319
101319
101319
101318
101319
101318
101318
101317
101318
101317
101318
101317
101318
101317
101318
101317
101318
101317
101318
101317
101318
101317
101318
101318
101319
101318
101319
101319
101319
101319
101319
101319
101319
101318
101319
101318
101318
101317
101318
101317
101318
101317
101318
101317
101318
101317
101318
101317
101318
101317
101318
101317
101318
101318
101319
101318
101319
101319
101319
101319
101319
101319
101318
101319
101318
101318
101317
101318
101317
101318
101317
101318
101317
101318
101317
101318
101317
101318
101318
101317
101318
101318
101319
101318
101319
101318
101319
101319
101319
101319
101319
101319
101319
101318
101319
101318
101318
101317
101318
101317
101318
101317
101318
101317
101318
101317
101318
101317
101318
101317
101318
101317
101318
101318
101319
101319
101319
101319
101319
101319
101319
101319
101319
101319
101319
101318
101318
101318
101318
101317
101318
101317
101318
101318
101318
101318
101317
101318
101317
101318
101317
101318
101318
101319
101318
101319
101319
101319
101319
101321
101320
101319
101320
101319
101320
101318
101319
101318
101319
101318
101318
101317
101318
101317
101318
101317
101318
101317
101318
101317
101318
101317
101318
101318
101319
101318
101318
101319
101319
157652
159011
159393
158369
161437
162930
166293
170371
173357
174120
169001
168828
161733
161499
182776
189833
192205
185737
171892
168458
172002
172216
169758
174639
192243
186906
177289
168768
168298
168215
168757
168419
168038
169670
171431
175672
174924
173461
170250
167857
166661
165884
167057
168252
135644
135850
136308
137069
137993
139363
140688
141675
142096
143087
142443
141687
140695
140340
137058
136430
133245
133406
131494
131731
131250
131092
130970
130092
129724
129394
127954
127911
127073
127103
111828
112005
111787
111565
111539
111080
110907
110530
109920
110022
109145
109340
108373
108643
107819
107451
107524
106638
106691
106223
105903
105767
105370
105441
105000
105102
104888
104807
104783
104727
102003
101895
101892
101921
101837
101850
101759
101766
101678
101685
101614
101587
101571
101507
101528
101464
101483
101432
101448
101404
101419
101380
101394
101361
101372
101349
101357
101344
101348
101343
101330
101330
101329
101330
101328
101329
101328
101329
101327
101328
101327
101328
101327
101327
101327
101326
101328
101326
101328
101327
101328
101327
101329
101328
101329
101328
101330
101330
101330
101330
101330
101330
101329
101330
101329
101328
101329
101327
101329
101327
101328
101326
101328
101326
101327
101326
101327
101326
101328
101327
101328
101327
101329
101328
101329
101328
101330
101328
101330
101330
101330
101330
101330
101329
101330
101328
101329
101327
101329
101327
101328
101327
101328
101326
101327
101326
101328
101326
101328
101327
101328
101327
101329
101328
101329
101328
101330
101330
101330
101330
101330
101329
101330
101328
101330
101328
101329
101327
101329
101327
101328
101327
101328
101326
101327
101326
101328
101326
101328
101327
101328
101327
101329
101328
101329
101328
101330
101330
101330
101330
101330
101330
101329
101330
101328
101329
101328
101329
101327
101328
101327
101328
101326
101328
101326
101327
101326
101328
101327
101328
101328
101327
101329
101328
101329
101328
101330
101328
101330
101330
101330
101329
101330
101328
101329
101328
101329
101327
101329
101327
101328
101327
101328
101326
101328
101326
101328
101326
101328
101327
101328
101327
101329
101328
101329
101328
101330
101330
101330
101330
101329
101330
101329
101328
101329
101328
101329
101327
101329
101327
101328
101327
101328
101327
101328
101328
101327
101328
101327
101328
101327
101329
101328
101329
101328
101330
101328
101329
101330
101330
101330
101330
101331
101329
101330
101329
101330
101328
101329
101327
101329
101327
101328
101327
101328
101326
101328
101326
101328
101327
101328
101327
101329
101328
101329
101328
101329
101330
101330
101330
159061
159142
158338
159829
160430
164315
166550
168655
172114
175608
173473
170758
166065
163117
195174
197867
187452
166331
160486
164139
168918
167125
165067
164968
164891
178756
183532
180127
171228
171459
171519
168336
167449
166315
170957
173603
174739
171729
170107
168154
167682
168140
168672
168042
133136
133285
133488
134192
135693
136892
138215
138927
140230
140776
141093
141858
141228
141035
139011
137814
135557
133697
132836
131487
131042
130857
130095
129839
129678
128610
128138
128139
126782
127284
111886
111785
111802
111727
111417
111494
110820
110879
110126
109791
109585
108874
108880
108125
108265
107252
107593
106802
106429
106547
105714
106045
105241
105585
104953
105104
104882
104716
104779
104657
101908
102058
102000
101901
101934
101812
101839
101733
101750
101646
101673
101568
101603
101518
101523
101485
101474
101446
101441
101412
101413
101386
101388
101366
101364
101352
101347
101347
101339
101341
101324
101323
101326
101322
101325
101322
101325
101321
101324
101321
101324
101321
101323
101323
101321
101323
101320
101323
101320
101323
101320
101324
101321
101324
101321
101324
101322
101322
101324
101323
101324
101323
101325
101322
101323
101324
101321
101324
101321
101324
101320
101323
101320
101323
101320
101323
101320
101323
101320
101324
101321
101324
101321
101324
101322
101325
101322
101325
101323
101324
101323
101323
101323
101325
101322
101324
101321
101324
101321
101324
101320
101323
101320
101323
101320
101323
101320
101323
101320
101323
101320
101324
101321
101324
101321
101324
101322
101323
101324
101324
101324
101324
101322
101325
101321
101324
101321
101324
101321
101324
101320
101323
101320
101323
101320
101323
101320
101323
101320
101323
101320
101324
101321
101324
101321
101324
101322
101322
101324
101323
101324
101324
101325
101322
101325
101321
101324
101321
101324
101321
101324
101320
101323
101320
101323
101320
101323
101320
101323
101321
101321
101324
101321
101324
101321
101325
101322
101325
101323
101324
101324
101324
101322
101325
101321
101324
101321
101324
101321
101324
101320
101323
101320
101323
101320
101323
101320
101323
101320
101323
101320
101324
101321
101324
101321
101324
101322
101323
101324
101323
101324
101323
101324
101325
101322
101325
101322
101324
101321
101324
101321
101324
101321
101323
101321
101321
101323
101321
101324
101321
101324
101321
101324
101321
101325
101322
101325
101323
101323
101323
101325
101325
101323
101325
101322
101325
101322
101325
101321
101324
101321
101324
101320
101323
101320
101323
101320
101323
101320
101323
101320
101323
101320
101324
101321
101324
101322
101322
101324
101323
156624
158761
160400
162129
162414
164700
169316
170583
173540
175344
175492
172580
171913
167190
200645
192399
175993
170652
163338
170457
171665
172572
167640
162665
173724
174701
178736
179812
174011
172723
172625
171177
167776
165139
168197
171843
172754
171884
170325
168508
168861
169227
168810
169219
131203
131231
131776
132488
133507
134465
136111
137543
139170
139608
140864
141457
141776
141449
140908
139142
137496
134463
134066
131447
131630
129377
130185
129359
128684
128757
128079
127447
127512
126586
111876
112324
111946
111913
111942
111395
111382
110695
110723
109855
109604
109220
108535
108574
107763
107742
107076
107180
106403
106517
105879
105843
105489
105285
105202
104878
104878
104775
104604
104680
102198
102012
102032
102003
101918
101949
101821
101833
101729
101727
101646
101638
101581
101539
101544
101475
101496
101437
101455
101408
101423
101384
101397
101365
101375
101351
101357
101342
101346
101341
101325
101325
101324
101325
101324
101324
101323
101323
101322
101323
101322
101322
101322
101322
101322
101322
101322
101322
101322
101322
101322
101322
101323
101323
101323
101323
101323
101324
101324
101324
101324
101324
101324
101324
101323
101323
101323
101323
101323
101322
101322
101322
101322
101322
101322
101322
101322
101322
101322
101322
101322
101322
101323
101323
101323
101323
101324
101324
101324
101324
101324
101324
101324
101324
101324
101323
101323
101323
101323
101322
101322
101322
101322
101322
101322
101322
101322
101322
101322
101322
101322
101322
101323
101323
101323
101323
101323
101324
101324
101324
101324
101324
101324
101324
101324
101323
101323
101323
101323
101322
101322
101322
101322
101322
101322
101322
101322
101322
101322
101322
101322
101322
101323
101323
101323
101323
101324
101324
101324
101324
101324
101324
101324
101324
101323
101323
101323
101323
101322
101322
101322
101322
101322
101322
101322
101322
101322
101322
101322
101322
101322
101322
101323
101323
101323
101323
101324
101324
101324
101324
101324
101324
101324
101323
101324
101323
101323
101323
101323
101322
101322
101322
101322
101322
101322
101322
101322
101322
101322
101322
101323
101323
101323
101323
101323
101324
101324
101324
101324
101324
101324
101323
101324
101324
101323
101323
101323
101323
101323
101322
101322
101322
101322
101322
101322
101322
101322
101322
101322
101322
101322
101323
101323
101323
101323
101323
101324
101324
101323
101324
101324
101325
101325
101324
101324
101324
101324
101323
101323
101323
101323
101322
101322
101322
101322
101322
101322
101322
101322
101322
101322
101322
101323
101323
101323
101323
101323
101324
101324
101324
162161
163655
163614
162644
166318
167309
170580
171720
173928
175146
174414
174329
172092
171035
190093
182793
178396
172702
166083
169472
172778
175334
169529
167569
171968
178222
180566
173853
173504
172382
169006
171222
169988
166298
165853
168009
171328
171945
171184
168943
169290
168915
169194
169043
127783
127646
127740
128865
131444
132785
135082
136481
137493
138645
140163
141195
142045
142183
141660
140770
138386
136981
134332
131004
132308
128960
129846
128263
128837
127888
128074
127105
127250
126510
112000
112221
112529
112228
111816
111841
111248
111278
110452
110540
109378
109713
108462
108803
107876
107837
107304
106962
106880
106183
106284
105606
105726
105121
105257
104860
104726
104760
104525
104516
102063
102227
102092
102093
102043
101924
101955
101809
101835
101699
101727
101610
101641
101535
101559
101500
101480
101466
101440
101431
101412
101402
101391
101377
101372
101362
101355
101351
101344
101346
101327
101326
101327
101325
101326
101324
101325
101324
101324
101323
101324
101323
101323
101323
101323
101323
101322
101323
101323
101324
101323
101324
101323
101324
101324
101325
101325
101325
101325
101325
101325
101325
101325
101324
101325
101324
101324
101324
101323
101324
101323
101323
101323
101323
101322
101323
101322
101323
101323
101324
101323
101324
101323
101325
101324
101325
101324
101325
101325
101325
101325
101325
101325
101325
101324
101325
101324
101324
101323
101324
101323
101323
101323
101323
101322
101323
101322
101323
101323
101324
101323
101324
101323
101324
101324
101325
101324
101325
101325
101325
101325
101325
101324
101325
101324
101325
101324
101324
101323
101324
101323
101323
101323
101323
101322
101323
101322
101323
101323
101324
101323
101324
101323
101324
101324
101325
101324
101325
101325
101325
101325
101325
101325
101324
101325
101324
101325
101323
101324
101323
101324
101323
101323
101322
101323
101323
101323
101323
101323
101323
101323
101324
101323
101324
101324
101325
101324
101325
101325
101325
101325
101325
101324
101325
101324
101325
101324
101324
101323
101324
101323
101323
101323
101323
101323
101323
101323
101323
101323
101324
101323
101324
101323
101324
101324
101325
101325
101325
101325
101325
101325
101325
101325
101325
101324
101325
101324
101324
101323
101324
101323
101324
101323
101323
101323
101323
101323
101323
101324
101323
101324
101323
101324
101324
101325
101324
101325
101325
101325
101325
101326
101326
101325
101326
101325
101325
101324
101325
101324
101324
101323
101324
101323
101323
101322
101323
101322
101323
101322
101323
101323
101324
101323
101324
101324
101325
101324
101325
101325
101325
164349
162457
162922
166627
168327
169935
171785
172466
173898
174146
174261
172369
172448
171065
177005
172315
179878
178541
173618
174047
174061
173167
171335
175038
177881
177702
170989
170733
169641
168639
165360
165804
171274
169060
165760
164792
168994
170829
171499
169825
168833
167431
167403
167606
128764
126214
126827
127742
131141
132475
135218
136015
137426
138266
139599
140852
142079
142626
142492
141280
140591
137626
134233
133370
131450
128921
129801
127810
128176
127583
127346
126698
126498
126101
112252
112771
112354
112536
112305
112032
111616
111138
111102
110166
110150
109234
109003
108640
107975
107972
107227
107278
106694
106276
106384
105538
105888
105012
105390
104687
104823
104510
104561
104408
102415
102232
102294
102117
102107
102051
101929
101940
101798
101800
101707
101670
101618
101583
101551
101501
101513
101448
101467
101417
101430
101393
101403
101375
101383
101360
101366
101348
101353
101344
101329
101328
101325
101327
101325
101325
101324
101324
101323
101323
101323
101323
101322
101323
101322
101322
101322
101322
101323
101323
101323
101323
101323
101323
101324
101324
101324
101324
101324
101325
101325
101325
101324
101324
101324
101324
101323
101323
101323
101323
101323
101323
101323
101322
101322
101322
101322
101322
101323
101323
101323
101323
101323
101324
101324
101324
101324
101325
101325
101325
101325
101325
101324
101324
101324
101324
101324
101323
101323
101323
101323
101323
101323
101322
101322
101322
101322
101322
101323
101323
101323
101323
101323
101324
101324
101324
101324
101324
101324
101325
101325
101325
101324
101324
101324
101324
101324
101323
101323
101323
101323
101323
101323
101322
101322
101322
101322
101322
101323
101323
101323
101323
101323
101324
101324
101324
101324
101324
101324
101325
101325
101325
101324
101324
101324
101324
101324
101323
101323
101323
101323
101323
101322
101322
101322
101322
101322
101322
101323
101323
101323
101323
101323
101323
101324
101324
101324
101325
101325
101325
101325
101324
101324
101324
101324
101324
101324
101323
101323
101323
101323
101323
101323
101322
101322
101322
101323
101322
101323
101323
101323
101323
101323
101324
101324
101324
101324
101324
101324
101325
101325
101325
101324
101324
101324
101324
101324
101323
101323
101323
101323
101323
101323
101323
101323
101323
101323
101323
101323
101323
101323
101323
101323
101324
101324
101324
101324
101324
101324
101325
101325
101325
101325
101325
101324
101324
101324
101324
101324
101323
101323
101323
101323
101322
101322
101322
101322
101322
101322
101322
101323
101323
101323
101323
101324
101324
101324
101324
101325
101325
163626
166025
170094
170777
171314
172653
173169
173054
172740
173146
172375
171934
170522
168958
167062
171351
175914
177361
177287
174868
176094
175803
177048
177244
177408
172833
171284
168644
166397
164773
164424
160091
165662
170241
167821
165428
166194
169950
170879
170050
168554
167420
165638
164098
128354
124356
124922
128434
130533
133869
135202
136865
137402
138428
139032
140572
141683
142606
142464
142146
141093
137674
136297
134629
130062
130842
128682
127938
127678
127496
126722
127107
126165
126154
108683
111465
113328
112712
112752
112163
112072
111357
111154
110339
110398
109343
109198
108668
108062
108138
107186
107482
106551
106659
106120
105844
105595
105258
105176
104720
104848
104446
104504
104276
102236
102449
102183
102302
102112
102060
102043
101914
101901
101775
101784
101664
101675
101576
101597
101500
101522
101463
101461
101431
101424
101407
101394
101391
101374
101375
101362
101358
101354
101346
101328
101329
101330
101328
101328
101326
101327
101325
101326
101325
101325
101324
101325
101324
101324
101324
101324
101324
101324
101325
101324
101325
101325
101326
101325
101326
101326
101326
101326
101326
101327
101326
101326
101326
101326
101326
101325
101325
101325
101325
101324
101325
101324
101324
101324
101324
101324
101324
101324
101325
101325
101325
101325
101326
101325
101326
101326
101326
101326
101327
101327
101326
101326
101326
101326
101326
101325
101325
101325
101325
101324
101325
101324
101324
101324
101324
101324
101324
101324
101325
101325
101325
101325
101326
101326
101326
101326
101326
101326
101326
101327
101327
101326
101326
101326
101326
101325
101325
101325
101325
101324
101325
101324
101324
101324
101324
101324
101324
101324
101325
101325
101325
101325
101326
101325
101326
101326
101326
101326
101326
101327
101326
101326
101326
101326
101325
101326
101325
101325
101324
101325
101324
101324
101324
101324
101324
101324
101324
101324
101325
101325
101325
101325
101326
101325
101326
101326
101326
101326
101326
101326
101326
101326
101326
101326
101326
101325
101325
101325
101325
101324
101325
101324
101324
101324
101324
101324
101324
101324
101325
101325
101325
101325
101326
101326
101326
101326
101326
101326
101326
101326
101326
101326
101326
101326
101326
101325
101325
101325
101325
101324
101325
101324
101324
101324
101324
101324
101324
101325
101324
101325
101325
101325
101325
101326
101326
101326
101326
101326
101326
101327
101327
101326
101326
101326
101326
101325
101326
101325
101325
101324
101325
101324
101324
101324
101324
101324
101324
101324
101324
101324
101325
101325
101325
101325
101326
101326
101326
101327
101327
170752
169792
170249
171166
174537
175370
174859
173698
172564
170708
170759
169946
170596
167522
166447
164217
162867
169517
166787
167710
172161
175778
175667
175066
175031
178895
174606
169731
166527
161986
165002
165028
163534
162256
162848
169313
169548
166268
166957
167108
169552
169428
166545
162670
156508
141448
104311
121103
126233
122474
124628
128841
133603
135280
137677
137719
138106
138291
138926
139870
141222
142065
142463
142166
141074
137624
138665
133200
131714
131070
127831
128425
127514
126149
125999
124838
123390
120918
111905
114198
115389
114619
113770
113853
112998
112949
112051
112012
111071
110799
110375
109497
109668
108425
108693
107779
107559
107190
106788
106653
105994
106163
105351
105573
104878
105004
104403
104513
103884
103976
103135
103466
102683
102668
102646
102331
102302
102157
102029
102068
101864
101878
101764
101748
101623
101660
101553
101537
101522
101464
101477
101429
101438
101403
101409
101383
101387
101368
101371
101356
101359
101344
101348
101337
101336
101333
101328
101330
101327
101328
101325
101326
101324
101325
101324
101324
101323
101324
101323
101323
101323
101323
101324
101324
101324
101324
101325
101325
101325
101325
101325
101325
101326
101326
101327
101327
101326
101326
101326
101325
101325
101325
101325
101324
101324
101324
101324
101324
101324
101323
101323
101323
101323
101323
101324
101324
101324
101324
101325
101325
101325
101325
101325
101326
101326
101326
101327
101327
101326
101326
101326
101325
101325
101325
101325
101324
101324
101324
101324
101323
101324
101323
101323
101323
101324
101323
101324
101324
101324
101324
101325
101325
101325
101325
101325
101325
101326
101326
101327
101327
101326
101326
101326
101325
101325
101325
101325
101324
101324
101324
101324
101323
101324
101323
101323
101323
101323
101323
101324
101324
101324
101324
101325
101325
101325
101325
101325
101325
101326
101326
101327
101327
101326
101326
101326
101325
101325
101325
101325
101325
101324
101324
101324
101324
101323
101323
101323
101323
101323
101323
101324
101324
101324
101324
101325
101325
101325
101325
101325
101326
101326
101326
101327
101327
101326
101326
101325
101325
101325
101325
101325
101324
101324
101324
101324
101324
101324
101323
101323
101323
101323
101323
101324
101324
101324
101324
101325
101325
101325
101325
101325
101325
101326
101326
101327
101327
101326
101326
101326
101325
101325
101325
101325
101324
101324
101324
101324
101324
101324
101323
101323
101323
101323
101323
101324
101324
101324
101324
101324
101325
101325
101325
101325
101326
101326
101326
101327
101327
101326
101326
101326
101326
101325
101325
101325
101324
101324
101324
101324
101323
101323
101323
101323
101323
101323
101323
101323
101323
101324
101324
101324
101325
101325
101325
101325
101326
101326
101326
101327
101327
168731
172144
173715
176034
176121
175892
175258
174212
172466
169847
169286
167166
167535
168845
166762
164420
165381
160992
165198
170401
171097
172324
174986
177809
177424
173007
171713
168882
161417
164534
162093
160523
163217
166692
168401
173075
172433
168049
166743
167877
167348
166117
164345
162175
153086
148263
127950
129346
129994
134847
133367
134706
137275
138679
138781
139002
138308
138308
138577
139286
140409
141514
142142
141843
141400
137992
138715
134471
131733
132005
127806
128009
127703
125268
126195
123615
123581
121793
116089
118681
114385
114894
114763
113732
113537
112819
112162
112147
111063
111365
109924
110291
109140
108825
108499
107822
107926
106969
107252
106317
106411
105849
105614
105411
104910
105007
104325
104505
103867
104059
103091
103511
102594
102773
102614
102311
102433
102090
102136
102041
101893
101938
101738
101810
101649
101657
101572
101569
101503
101502
101453
101462
101413
101428
101399
101389
101388
101373
101368
101368
101352
101355
101347
101339
101341
101333
101335
101330
101331
101328
101328
101327
101327
101326
101326
101326
101326
101325
101325
101325
101325
101325
101325
101326
101326
101326
101326
101327
101327
101327
101327
101328
101328
101328
101328
101328
101328
101328
101327
101327
101327
101327
101327
101326
101326
101326
101326
101325
101325
101325
101325
101325
101325
101325
101325
101326
101326
101326
101326
101327
101327
101327
101327
101327
101328
101328
101328
101328
101328
101328
101327
101327
101327
101327
101326
101326
101326
101326
101325
101326
101325
101325
101325
101325
101325
101326
101325
101326
101326
101326
101326
101327
101327
101327
101327
101328
101327
101328
101328
101328
101328
101328
101327
101327
101327
101327
101326
101326
101326
101326
101325
101326
101325
101325
101325
101325
101325
101326
101325
101326
101326
101326
101326
101327
101327
101327
101327
101327
101328
101328
101328
101328
101328
101328
101328
101327
101327
101327
101327
101326
101326
101326
101326
101325
101325
101325
101325
101325
101325
101325
101325
101326
101326
101326
101326
101327
101327
101327
101327
101327
101328
101328
101328
101328
101328
101327
101327
101327
101327
101327
101326
101326
101326
101326
101326
101326
101325
101325
101325
101325
101325
101325
101325
101326
101326
101326
101326
101327
101327
101327
101327
101328
101328
101328
101328
101328
101328
101328
101327
101327
101327
101327
101326
101326
101326
101326
101325
101326
101325
101325
101325
101325
101325
101325
101325
101325
101326
101326
101326
101326
101327
101327
101327
101327
101327
101327
101328
101328
101328
101328
101327
101327
101327
101327
101326
101326
101326
101326
101325
101325
101325
101325
101325
101325
101325
101325
101325
101325
101325
101326
101326
101326
101326
101327
101327
101327
101328
101328
101328
101329
177065
175701
176438
176293
175855
175182
174324
172504
171825
168892
168386
166273
167460
167083
166815
164015
161869
161738
162315
163664
168316
172956
170696
171276
170441
174811
170561
165829
165218
159043
158227
157661
165044
166077
165633
169039
174612
171333
169051
166851
166240
166378
163887
159249
154976
152620
138939
135205
135327
133232
137990
137717
139061
139673
139511
139026
138958
138220
138170
138793
139571
140695
141427
141465
141458
138200
137813
136420
131486
132929
127897
128322
127321
124977
125879
122923
123894
120797
120101
118123
115129
116551
114424
114400
113833
112680
113000
111644
111840
110924
110448
110118
109214
109421
108134
108508
107445
107339
106969
106465
106495
105724
105960
105112
105307
104645
104674
104204
104049
103773
103369
103339
102737
102969
102494
102522
102382
102182
102221
101987
102032
101900
101791
101812
101659
101714
101564
101604
101507
101518
101455
101470
101420
101426
101405
101391
101393
101374
101372
101366
101356
101353
101349
101340
101341
101333
101334
101331
101328
101329
101327
101327
101325
101326
101325
101325
101325
101325
101324
101325
101324
101325
101325
101325
101325
101325
101325
101326
101326
101326
101326
101326
101327
101327
101327
101327
101327
101327
101326
101326
101326
101326
101326
101325
101325
101325
101325
101325
101324
101325
101324
101324
101324
101325
101325
101325
101325
101325
101325
101326
101326
101326
101326
101326
101327
101327
101327
101327
101327
101327
101326
101326
101326
101326
101325
101325
101325
101325
101325
101325
101324
101325
101324
101324
101324
101325
101325
101325
101325
101325
101325
101326
101326
101326
101326
101326
101327
101327
101327
101327
101327
101327
101326
101326
101326
101326
101325
101325
101325
101325
101325
101325
101324
101325
101324
101324
101324
101325
101325
101325
101325
101325
101325
101326
101326
101326
101326
101326
101327
101327
101327
101327
101327
101327
101327
101326
101326
101326
101326
101325
101325
101325
101325
101325
101325
101324
101324
101324
101325
101325
101325
101325
101325
101325
101325
101326
101326
101326
101326
101326
101327
101327
101327
101327
101327
101327
101326
101326
101326
101326
101325
101325
101325
101325
101325
101325
101324
101325
101324
101324
101324
101325
101325
101325
101325
101325
101325
101326
101326
101326
101326
101326
101327
101327
101327
101327
101327
101326
101326
101326
101326
101326
101326
101325
101325
101325
101325
101325
101325
101324
101324
101324
101324
101324
101325
101325
101325
101325
101325
101325
101326
101326
101326
101326
101326
101327
101327
101327
101327
101327