/*--------------------------------*- C++ -*----------------------------------*\
| =========                 |                                                 |
| \\      /  F ield         | OpenFOAM: The Open Source CFD Toolbox           |
|  \\    /   O peration     | Version:  2.1.1                                 |
|   \\  /    A nd           | Web:      www.OpenFOAM.org                      |
|    \\/     M anipulation  |                                                 |
\*---------------------------------------------------------------------------*/
FoamFile
{
    version     2.0;
    format      ascii;
    class       volScalarField;
    location    "0.001450000";
    object      rhoEu;
}
// * * * * * * * * * * * * * * * * * * * * * * * * * * * * * * * * * * * * * //

dimensions      [1 -1 -2 0 0 0 0];

internalField   nonuniform List<scalar> 
12384
(
-125512
-116524
-107250
-102028
-100924
-100370
-98774.6
-96330.3
-95688
-96709.7
-96905.6
-100301
-99408.8
-100720
-95748.7
-95989
-95355.5
-91389.2
-88592.4
-89075.5
-87919.1
-90275.9
-90371.3
-93305.8
-96588.4
-97908.2
-98027.1
-97453.8
-97045.1
-96399
-95495.8
-94303.5
-94620.7
-93981.2
-94431.2
-93765.3
-94420.8
-94407.1
-96083.3
-96848.7
-98986.2
-99114.9
-98256
-97619.2
-104729
-104668
-104546
-104320
-104054
-103654
-103187
-102780
-102367
-102166
-102138
-102254
-102556
-103510
-103607
-104182
-104540
-104505
-104649
-104668
-104711
-104772
-104923
-105179
-105457
-105770
-106146
-106204
-106418
-106472
-107563
-107556
-107551
-107541
-107524
-107521
-107506
-107509
-107500
-107502
-107507
-107504
-107519
-107519
-107532
-107541
-107542
-107556
-107560
-107561
-107575
-107570
-107584
-107579
-107592
-107585
-107594
-107592
-107596
-107596
-107511
-107508
-107510
-107510
-107506
-107508
-107504
-107505
-107501
-107502
-107497
-107499
-107496
-107497
-107494
-107495
-107495
-107492
-107492
-107489
-107491
-107489
-107491
-107489
-107490
-107488
-107489
-107489
-107488
-107489
-107488
-107487
-107488
-107487
-107486
-107488
-107488
-107487
-107487
-107488
-107487
-107487
-107488
-107487
-107487
-107488
-107488
-107488
-107486
-107487
-107488
-107487
-107487
-107488
-107487
-107487
-107487
-107487
-107488
-107488
-107488
-107487
-107488
-107488
-107487
-107488
-107487
-107488
-107487
-107487
-107486
-107487
-107488
-107488
-107488
-107488
-107488
-107488
-107486
-107487
-107488
-107487
-107487
-107488
-107487
-107487
-107487
-107488
-107487
-107488
-107488
-107487
-107487
-107488
-107486
-107488
-107488
-107488
-107487
-107487
-107486
-107487
-107488
-107488
-107488
-107488
-107488
-107488
-107486
-107487
-107488
-107487
-107487
-107488
-107488
-107487
-107487
-107487
-107488
-107488
-107487
-107488
-107487
-107487
-107486
-107488
-107488
-107488
-107487
-107487
-107486
-107487
-107488
-107488
-107488
-107488
-107488
-107488
-107486
-107487
-107488
-107487
-107487
-107488
-107488
-107486
-107487
-107487
-107488
-107488
-107487
-107487
-107488
-107487
-107486
-107487
-107488
-107487
-107487
-107488
-107487
-107486
-107488
-107488
-107488
-107487
-107488
-107488
-107487
-107487
-107488
-107488
-107487
-107488
-107488
-107486
-107487
-107488
-107487
-107488
-107488
-107488
-107487
-107488
-107486
-107488
-107488
-107488
-107487
-107487
-107486
-107487
-107488
-107488
-107488
-107488
-107488
-107488
-107486
-107487
-107488
-107487
-107487
-107488
-107488
-107486
-107487
-107487
-107488
-107488
-107488
-107487
-107487
-107488
-107486
-107488
-107488
-107487
-107488
-107487
-107486
-107487
-107487
-107488
-107488
-107487
-107488
-107488
-107487
-107486
-107487
-107488
-107487
-107487
-107488
-107486
-107488
-107487
-107487
-107488
-107488
-107488
-107487
-107487
-107486
-107488
-107487
-107488
-107488
-107488
-107486
-107487
-107488
-107488
-107485
-107487
-107485
-107487
-107488
-107488
-107488
-107488
-107487
-107488
-107487
-107486
-107487
-107487
-107487
-107487
-138267
-143429
-123046
-105725
-101105
-100223
-97653.7
-96022.9
-95114.9
-95959
-97354.3
-98659.3
-100131
-100167
-95641.7
-94200.6
-90120
-88970.9
-88801.5
-90926.5
-93981.9
-93611.8
-92677.8
-89956
-90407.9
-93116
-96227.9
-97466.5
-96904.7
-95626.6
-94872.2
-94705.3
-95009.8
-94103.4
-94400.2
-94050.7
-94375.8
-94981
-96148.1
-96874.1
-97876.9
-98107.9
-97700.3
-97387.8
-105014
-104897
-104728
-104569
-104306
-103953
-103542
-103090
-102721
-102529
-102188
-102378
-102662
-102995
-103633
-103947
-104373
-104541
-104634
-104665
-104729
-104815
-104956
-105146
-105508
-105692
-106043
-106278
-106329
-106478
-107558
-107552
-107542
-107532
-107520
-107510
-107503
-107497
-107497
-107495
-107503
-107503
-107515
-107519
-107526
-107538
-107545
-107551
-107564
-107561
-107574
-107574
-107580
-107584
-107585
-107590
-107591
-107592
-107595
-107593
-107511
-107512
-107515
-107507
-107511
-107507
-107505
-107506
-107501
-107503
-107498
-107501
-107495
-107499
-107495
-107493
-107496
-107490
-107495
-107489
-107494
-107487
-107494
-107487
-107491
-107489
-107486
-107491
-107487
-107488
-107487
-107486
-107490
-107485
-107490
-107484
-107490
-107485
-107490
-107485
-107490
-107486
-107489
-107489
-107486
-107490
-107485
-107490
-107485
-107490
-107485
-107490
-107484
-107490
-107484
-107489
-107486
-107485
-107488
-107486
-107487
-107486
-107490
-107485
-107488
-107489
-107485
-107490
-107485
-107490
-107485
-107491
-107485
-107490
-107486
-107490
-107485
-107490
-107485
-107490
-107485
-107490
-107485
-107490
-107484
-107490
-107485
-107490
-107486
-107487
-107487
-107487
-107487
-107490
-107485
-107490
-107485
-107490
-107484
-107490
-107485
-107490
-107485
-107490
-107486
-107490
-107485
-107490
-107485
-107490
-107485
-107490
-107484
-107490
-107484
-107489
-107486
-107485
-107488
-107486
-107486
-107488
-107485
-107490
-107484
-107490
-107484
-107490
-107485
-107490
-107485
-107490
-107485
-107490
-107486
-107490
-107485
-107490
-107485
-107490
-107485
-107490
-107484
-107490
-107484
-107489
-107486
-107485
-107487
-107486
-107487
-107487
-107488
-107485
-107489
-107485
-107490
-107485
-107490
-107484
-107490
-107485
-107490
-107485
-107489
-107485
-107490
-107485
-107489
-107486
-107486
-107489
-107485
-107490
-107485
-107490
-107485
-107490
-107486
-107487
-107486
-107488
-107484
-107490
-107484
-107490
-107484
-107490
-107484
-107490
-107485
-107490
-107485
-107490
-107485
-107490
-107485
-107490
-107485
-107490
-107484
-107490
-107484
-107490
-107484
-107489
-107486
-107485
-107487
-107486
-107487
-107486
-107490
-107488
-107485
-107490
-107485
-107490
-107485
-107490
-107485
-107490
-107485
-107489
-107486
-107486
-107489
-107485
-107491
-107485
-107490
-107485
-107490
-107485
-107490
-107485
-107488
-107489
-107486
-107487
-107486
-107487
-107484
-107490
-107484
-107490
-107484
-107491
-107484
-107491
-107484
-107491
-107485
-107490
-107484
-107490
-107485
-107490
-107484
-107490
-107484
-107490
-107484
-107490
-107484
-107489
-107487
-107485
-107487
-107486
-104134
-118606
-96572.5
-87576.1
-94534.1
-95143.2
-97474.4
-95893.6
-95605.6
-95011.7
-96932.3
-96885.2
-99120.3
-99364.7
-92208
-89658.2
-87677.6
-91051.8
-108412
-115145
-117015
-115390
-114806
-109452
-91463.7
-87960.1
-91774.5
-96266.2
-96404.5
-95517.5
-94690.7
-94783.4
-95054.4
-94863.5
-95094.9
-94182.1
-94971.5
-95355
-96647.9
-96759.3
-97555.8
-97782.5
-97602.4
-97237
-105176
-105172
-105138
-104920
-104650
-104264
-103811
-103346
-102914
-102389
-102310
-102293
-102453
-102619
-103334
-103666
-104350
-104468
-104813
-104849
-104971
-105080
-105207
-105439
-105639
-105839
-106111
-106241
-106380
-106424
-107539
-107516
-107521
-107519
-107507
-107507
-107509
-107511
-107521
-107523
-107532
-107541
-107545
-107558
-107560
-107572
-107582
-107582
-107596
-107595
-107602
-107604
-107606
-107611
-107611
-107615
-107616
-107617
-107619
-107618
-107539
-107535
-107534
-107536
-107531
-107533
-107529
-107528
-107525
-107525
-107523
-107522
-107522
-107518
-107519
-107517
-107517
-107516
-107516
-107515
-107514
-107512
-107513
-107513
-107513
-107511
-107513
-107511
-107513
-107512
-107511
-107512
-107510
-107511
-107510
-107512
-107510
-107511
-107509
-107512
-107510
-107512
-107510
-107510
-107510
-107509
-107511
-107510
-107512
-107510
-107512
-107509
-107511
-107510
-107512
-107510
-107511
-107512
-107511
-107512
-107511
-107512
-107510
-107512
-107510
-107511
-107511
-107510
-107510
-107510
-107512
-107510
-107511
-107510
-107511
-107510
-107511
-107509
-107511
-107509
-107511
-107509
-107511
-107510
-107512
-107509
-107511
-107510
-107511
-107511
-107512
-107511
-107511
-107511
-107511
-107511
-107511
-107510
-107511
-107510
-107512
-107510
-107511
-107509
-107511
-107510
-107511
-107510
-107512
-107510
-107512
-107509
-107511
-107510
-107512
-107510
-107511
-107511
-107511
-107512
-107511
-107510
-107511
-107510
-107511
-107511
-107511
-107510
-107511
-107510
-107512
-107510
-107511
-107509
-107511
-107510
-107511
-107510
-107512
-107510
-107512
-107509
-107511
-107510
-107512
-107510
-107511
-107512
-107511
-107512
-107511
-107511
-107510
-107511
-107510
-107512
-107510
-107511
-107509
-107512
-107510
-107512
-107510
-107511
-107509
-107511
-107509
-107511
-107510
-107511
-107512
-107509
-107511
-107510
-107512
-107510
-107511
-107510
-107511
-107511
-107512
-107510
-107512
-107510
-107511
-107510
-107511
-107510
-107511
-107510
-107512
-107510
-107511
-107509
-107511
-107510
-107511
-107510
-107512
-107510
-107512
-107509
-107511
-107510
-107512
-107510
-107511
-107512
-107511
-107512
-107511
-107512
-107511
-107511
-107511
-107511
-107511
-107510
-107511
-107510
-107512
-107510
-107512
-107510
-107511
-107511
-107510
-107512
-107510
-107512
-107510
-107511
-107510
-107511
-107511
-107511
-107510
-107511
-107512
-107511
-107511
-107511
-107512
-107510
-107511
-107510
-107511
-107510
-107511
-107510
-107511
-107510
-107511
-107510
-107511
-107509
-107511
-107509
-107511
-107510
-107512
-107510
-107510
-107510
-107512
-107509
-107510
-107512
-107510
-107511
-40460.3
-58426.3
-61483
-69556.5
-91469.8
-110930
-104610
-105288
-102641
-96794.8
-95151.9
-96310.8
-97758.4
-98297.7
-87321.5
-85240.6
-96916.5
-131427
-169053
-164745
-172935
-164786
-162392
-165103
-141595
-121212
-106734
-93051.6
-93289.7
-94616.9
-93665.7
-94198.6
-94785.1
-95632.4
-94917
-94591.4
-94922.5
-95934.3
-96426.8
-96751.8
-96868.7
-96814.7
-96705.9
-96996.9
-105476
-105430
-105297
-105045
-104684
-104315
-103800
-103393
-102845
-102485
-102127
-101861
-101909
-102053
-102568
-103062
-103698
-104232
-104531
-104840
-104974
-105117
-105311
-105475
-105635
-105889
-106064
-106164
-106368
-106340
-107488
-107442
-107450
-107451
-107453
-107453
-107461
-107476
-107483
-107507
-107509
-107530
-107534
-107549
-107557
-107563
-107576
-107579
-107587
-107597
-107592
-107607
-107599
-107614
-107606
-107614
-107612
-107611
-107616
-107615
-107532
-107537
-107538
-107530
-107534
-107530
-107529
-107527
-107525
-107523
-107522
-107520
-107519
-107518
-107516
-107514
-107516
-107512
-107516
-107511
-107514
-107509
-107514
-107509
-107513
-107511
-107508
-107512
-107508
-107510
-107509
-107508
-107511
-107507
-107511
-107508
-107511
-107507
-107510
-107507
-107510
-107506
-107510
-107510
-107506
-107510
-107506
-107510
-107507
-107510
-107506
-107510
-107507
-107511
-107508
-107510
-107507
-107507
-107509
-107509
-107509
-107508
-107511
-107507
-107508
-107511
-107507
-107511
-107507
-107510
-107507
-107511
-107507
-107510
-107506
-107510
-107507
-107511
-107507
-107510
-107506
-107510
-107507
-107511
-107508
-107511
-107507
-107511
-107508
-107510
-107509
-107508
-107507
-107511
-107507
-107511
-107507
-107511
-107507
-107511
-107507
-107511
-107506
-107510
-107506
-107510
-107506
-107510
-107506
-107510
-107506
-107510
-107507
-107511
-107508
-107510
-107507
-107507
-107509
-107509
-107509
-107509
-107506
-107510
-107507
-107511
-107507
-107511
-107506
-107510
-107506
-107510
-107506
-107510
-107507
-107510
-107506
-107510
-107506
-107510
-107506
-107510
-107507
-107511
-107508
-107510
-107507
-107507
-107509
-107509
-107509
-107509
-107510
-107507
-107511
-107507
-107511
-107507
-107510
-107506
-107511
-107507
-107510
-107506
-107510
-107506
-107510
-107507
-107509
-107507
-107507
-107510
-107507
-107511
-107508
-107511
-107507
-107511
-107508
-107509
-107509
-107509
-107506
-107511
-107507
-107511
-107507
-107511
-107506
-107510
-107506
-107510
-107506
-107510
-107506
-107510
-107506
-107510
-107506
-107510
-107506
-107510
-107507
-107511
-107508
-107510
-107508
-107507
-107509
-107509
-107509
-107508
-107510
-107510
-107507
-107512
-107507
-107511
-107506
-107510
-107506
-107510
-107506
-107510
-107507
-107507
-107509
-107506
-107510
-107506
-107511
-107507
-107511
-107508
-107512
-107507
-107510
-107510
-107508
-107510
-107509
-107509
-107506
-107511
-107507
-107512
-107507
-107511
-107506
-107510
-107506
-107511
-107507
-107511
-107507
-107511
-107507
-107511
-107507
-107511
-107506
-107510
-107507
-107511
-107507
-107510
-107507
-107507
-107509
-107509
14452.1
5845.49
14724.1
13622.3
-15525
-47698.5
-74753.1
-98414.8
-124457
-121680
-104516
-96286.2
-95898.9
-97016.7
-84817.3
-91231.7
-132385
-149512
-149245
-149170
-147451
-153135
-150991
-150502
-144358
-146868
-153238
-133280
-103120
-90912.5
-93203.5
-93202.5
-94141.4
-95565.5
-95373
-94642.5
-95074.4
-95472
-95975.1
-96451.4
-96040.3
-95668
-95869.4
-95577.6
-105310
-105381
-105311
-104908
-104269
-103921
-103403
-103046
-102516
-102173
-101746
-101461
-101342
-101491
-101739
-102371
-102958
-103819
-104109
-104695
-104813
-105207
-105242
-105463
-105647
-105785
-105966
-106148
-106207
-106338
-107470
-107340
-107357
-107368
-107371
-107389
-107403
-107420
-107443
-107458
-107486
-107497
-107517
-107528
-107543
-107554
-107562
-107574
-107576
-107588
-107588
-107597
-107598
-107601
-107605
-107603
-107608
-107609
-107608
-107611
-107538
-107532
-107532
-107532
-107529
-107530
-107526
-107526
-107522
-107521
-107519
-107518
-107517
-107514
-107515
-107513
-107512
-107511
-107511
-107510
-107509
-107508
-107509
-107508
-107508
-107506
-107508
-107505
-107507
-107506
-107506
-107506
-107504
-107506
-107504
-107506
-107505
-107507
-107504
-107506
-107504
-107506
-107505
-107505
-107506
-107505
-107506
-107505
-107507
-107504
-107506
-107504
-107507
-107505
-107506
-107505
-107506
-107506
-107506
-107505
-107505
-107506
-107505
-107506
-107505
-107505
-107506
-107505
-107506
-107504
-107506
-107505
-107506
-107505
-107506
-107505
-107506
-107505
-107507
-107505
-107506
-107504
-107507
-107505
-107506
-107505
-107506
-107505
-107506
-107505
-107505
-107506
-107506
-107505
-107506
-107505
-107507
-107505
-107506
-107504
-107506
-107505
-107506
-107505
-107506
-107505
-107506
-107505
-107507
-107504
-107506
-107504
-107507
-107505
-107506
-107505
-107506
-107506
-107506
-107506
-107506
-107505
-107506
-107504
-107506
-107504
-107507
-107505
-107506
-107504
-107506
-107505
-107506
-107505
-107506
-107505
-107506
-107505
-107507
-107504
-107506
-107504
-107507
-107505
-107506
-107505
-107506
-107506
-107506
-107506
-107506
-107506
-107505
-107506
-107505
-107507
-107505
-107508
-107504
-107506
-107504
-107507
-107505
-107506
-107505
-107506
-107505
-107506
-107505
-107506
-107505
-107505
-107507
-107505
-107506
-107504
-107506
-107504
-107506
-107505
-107505
-107505
-107507
-107505
-107507
-107504
-107507
-107505
-107507
-107504
-107506
-107505
-107506
-107505
-107506
-107505
-107506
-107505
-107507
-107504
-107506
-107504
-107507
-107505
-107506
-107505
-107506
-107506
-107506
-107506
-107505
-107506
-107505
-107505
-107506
-107504
-107507
-107505
-107506
-107504
-107506
-107505
-107506
-107505
-107506
-107506
-107505
-107506
-107505
-107506
-107504
-107506
-107505
-107506
-107504
-107506
-107505
-107505
-107506
-107505
-107506
-107505
-107507
-107505
-107506
-107504
-107507
-107506
-107508
-107505
-107507
-107505
-107507
-107505
-107507
-107505
-107507
-107505
-107507
-107505
-107506
-107504
-107507
-107506
-107507
-107505
-107506
-107506
-107506
-107507
51917.8
50139.7
56935
50646.2
38632.8
8639.27
-23036.8
-73297.8
-107533
-126403
-139937
-125093
-97918.1
-96134
-89140.2
-108239
-156527
-137875
-136219
-138844
-141538
-143092
-143550
-142756
-140889
-139965
-142593
-146651
-136650
-107002
-92736.8
-93470.5
-93338.8
-94719.7
-95466.7
-95245.2
-94752.3
-94925.5
-95011.3
-95812.5
-95134.2
-95177.9
-94745.7
-94305.1
-105349
-105485
-105048
-104045
-103089
-102769
-102322
-102283
-102169
-101819
-101344
-101003
-100769
-100811
-101060
-101539
-102300
-103055
-103790
-104557
-104578
-105151
-105193
-105489
-105523
-105757
-105821
-106055
-106088
-106166
-107436
-107212
-107211
-107240
-107282
-107298
-107335
-107355
-107394
-107417
-107452
-107472
-107494
-107513
-107523
-107543
-107547
-107565
-107567
-107578
-107582
-107587
-107593
-107593
-107601
-107599
-107601
-107605
-107603
-107604
-107530
-107535
-107532
-107531
-107531
-107526
-107528
-107522
-107523
-107518
-107519
-107515
-107516
-107512
-107513
-107510
-107510
-107508
-107508
-107507
-107507
-107506
-107506
-107505
-107505
-107505
-107504
-107505
-107504
-107504
-107503
-107503
-107503
-107503
-107504
-107503
-107504
-107502
-107504
-107502
-107503
-107502
-107503
-107503
-107502
-107503
-107502
-107503
-107502
-107503
-107502
-107503
-107502
-107504
-107503
-107504
-107503
-107503
-107503
-107503
-107504
-107503
-107504
-107503
-107503
-107503
-107503
-107503
-107502
-107503
-107502
-107503
-107502
-107503
-107502
-107503
-107502
-107503
-107502
-107503
-107502
-107504
-107502
-107504
-107502
-107504
-107503
-107504
-107503
-107503
-107503
-107503
-107503
-107503
-107503
-107503
-107503
-107503
-107502
-107503
-107502
-107503
-107502
-107503
-107502
-107503
-107502
-107503
-107502
-107503
-107502
-107503
-107502
-107504
-107503
-107504
-107503
-107503
-107503
-107503
-107503
-107503
-107502
-107504
-107503
-107504
-107502
-107503
-107503
-107503
-107502
-107503
-107502
-107503
-107502
-107503
-107502
-107503
-107502
-107503
-107502
-107503
-107502
-107504
-107503
-107504
-107503
-107503
-107503
-107503
-107503
-107503
-107503
-107502
-107504
-107502
-107504
-107502
-107504
-107502
-107503
-107502
-107503
-107502
-107503
-107502
-107503
-107502
-107503
-107503
-107502
-107504
-107502
-107504
-107503
-107503
-107503
-107503
-107503
-107504
-107503
-107503
-107502
-107504
-107502
-107504
-107502
-107503
-107502
-107503
-107502
-107503
-107502
-107503
-107502
-107503
-107502
-107503
-107502
-107503
-107502
-107503
-107502
-107504
-107503
-107503
-107503
-107503
-107503
-107503
-107504
-107503
-107503
-107503
-107503
-107504
-107503
-107503
-107502
-107503
-107502
-107503
-107502
-107503
-107503
-107503
-107503
-107502
-107503
-107502
-107503
-107502
-107503
-107503
-107503
-107503
-107503
-107503
-107503
-107504
-107503
-107503
-107502
-107503
-107502
-107503
-107502
-107503
-107503
-107503
-107502
-107504
-107502
-107503
-107502
-107504
-107503
-107503
-107502
-107503
-107502
-107503
-107503
-107504
-107503
-107503
-107502
-107502
-107504
-107503
56689.3
55524.9
54207.5
52764.4
42877.3
27901.8
-5330.54
-60263.3
-103170
-118785
-128163
-139211
-109300
-95744.9
-94182.1
-121998
-138632
-132506
-134569
-134475
-136185
-139760
-139902
-137680
-136721
-137079
-141168
-144926
-150225
-139289
-107019
-93050.2
-92888.4
-93345.7
-94802.3
-95495.9
-94699.3
-94123.4
-93872.8
-94275.6
-94171.1
-94169.4
-93573.2
-90547.5
-105349
-104876
-103176
-101378
-100155
-99810
-100226
-100853
-101258
-101257
-100969
-100552
-100211
-100151
-100381
-100840
-101450
-102419
-103393
-103949
-104467
-104969
-105036
-105335
-105413
-105559
-105682
-105853
-105949
-105804
-107235
-106860
-106925
-107033
-107122
-107185
-107237
-107291
-107324
-107367
-107402
-107432
-107469
-107479
-107510
-107517
-107534
-107547
-107555
-107564
-107575
-107573
-107587
-107580
-107594
-107585
-107593
-107590
-107595
-107593
-107532
-107528
-107530
-107525
-107526
-107525
-107520
-107521
-107515
-107516
-107512
-107512
-107509
-107508
-107506
-107505
-107504
-107503
-107503
-107502
-107501
-107499
-107500
-107499
-107499
-107498
-107498
-107497
-107498
-107498
-107497
-107497
-107496
-107497
-107496
-107498
-107497
-107498
-107496
-107497
-107497
-107497
-107497
-107497
-107497
-107497
-107497
-107497
-107497
-107497
-107497
-107496
-107497
-107497
-107497
-107496
-107496
-107497
-107497
-107497
-107497
-107497
-107496
-107496
-107497
-107497
-107497
-107497
-107496
-107497
-107497
-107497
-107497
-107497
-107497
-107497
-107497
-107497
-107498
-107497
-107497
-107496
-107497
-107497
-107497
-107496
-107497
-107496
-107497
-107497
-107497
-107497
-107497
-107496
-107497
-107497
-107497
-107497
-107496
-107496
-107497
-107497
-107497
-107497
-107497
-107497
-107497
-107497
-107497
-107497
-107497
-107496
-107497
-107497
-107497
-107496
-107496
-107497
-107497
-107497
-107498
-107497
-107497
-107496
-107497
-107497
-107498
-107497
-107497
-107497
-107497
-107497
-107497
-107497
-107497
-107497
-107497
-107497
-107497
-107497
-107497
-107496
-107497
-107497
-107497
-107496
-107496
-107497
-107497
-107497
-107497
-107497
-107497
-107497
-107496
-107498
-107497
-107498
-107496
-107497
-107497
-107497
-107497
-107497
-107497
-107497
-107497
-107497
-107497
-107497
-107497
-107496
-107497
-107497
-107498
-107497
-107497
-107497
-107497
-107497
-107497
-107497
-107497
-107496
-107498
-107496
-107498
-107497
-107497
-107497
-107497
-107497
-107497
-107497
-107497
-107497
-107497
-107497
-107497
-107497
-107497
-107496
-107497
-107497
-107497
-107496
-107496
-107497
-107497
-107497
-107497
-107497
-107496
-107496
-107497
-107497
-107497
-107497
-107496
-107497
-107497
-107497
-107497
-107497
-107497
-107497
-107496
-107497
-107496
-107497
-107496
-107496
-107497
-107497
-107497
-107497
-107496
-107497
-107497
-107497
-107497
-107497
-107497
-107496
-107498
-107496
-107497
-107496
-107497
-107496
-107497
-107496
-107497
-107496
-107497
-107496
-107497
-107496
-107497
-107496
-107498
-107496
-107498
-107497
-107498
-107497
-107498
-107497
-107498
-107497
54335
54616.4
48920.3
38678.6
29862.9
15057.2
-41920.9
-99272.6
-117542
-123274
-130337
-137275
-107587
-96649.9
-102941
-159817
-140652
-131126
-127762
-126375
-126038
-128037
-130721
-133481
-134655
-137227
-138879
-141501
-145139
-151772
-135232
-105322
-92512
-92490.4
-93403.6
-94394.3
-94373.3
-93324.2
-92801.7
-93150.9
-93126.5
-92978.3
-91706.7
-87373
-102531
-100469
-97533
-95609.9
-94925
-95396.4
-97124.5
-98722.2
-100030
-100546
-100607
-100220
-99845.4
-99630.4
-99787.8
-100150
-100781
-101785
-102657
-103387
-104329
-104527
-104986
-105182
-105360
-105474
-105638
-105669
-105656
-105527
-106405
-106127
-106339
-106635
-106873
-107014
-107110
-107194
-107250
-107312
-107353
-107395
-107433
-107456
-107485
-107500
-107518
-107532
-107540
-107553
-107559
-107568
-107572
-107576
-107580
-107581
-107586
-107583
-107585
-107580
-107519
-107523
-107521
-107525
-107521
-107520
-107520
-107515
-107516
-107510
-107511
-107506
-107508
-107503
-107505
-107500
-107502
-107499
-107498
-107496
-107497
-107496
-107496
-107495
-107495
-107495
-107493
-107493
-107493
-107493
-107492
-107492
-107492
-107492
-107493
-107493
-107492
-107493
-107493
-107492
-107492
-107492
-107493
-107493
-107493
-107493
-107493
-107493
-107492
-107492
-107492
-107493
-107493
-107492
-107493
-107493
-107492
-107492
-107492
-107492
-107492
-107492
-107492
-107492
-107493
-107493
-107492
-107493
-107493
-107492
-107492
-107492
-107493
-107493
-107493
-107493
-107493
-107493
-107492
-107492
-107492
-107493
-107493
-107492
-107493
-107493
-107492
-107492
-107492
-107492
-107492
-107492
-107492
-107492
-107493
-107493
-107492
-107493
-107493
-107492
-107492
-107492
-107493
-107493
-107493
-107493
-107493
-107493
-107492
-107492
-107492
-107493
-107493
-107492
-107493
-107493
-107492
-107492
-107492
-107492
-107492
-107492
-107492
-107492
-107493
-107493
-107492
-107493
-107493
-107492
-107492
-107492
-107493
-107493
-107493
-107493
-107493
-107493
-107492
-107492
-107492
-107493
-107493
-107492
-107493
-107493
-107492
-107492
-107492
-107492
-107492
-107492
-107492
-107492
-107493
-107493
-107492
-107493
-107493
-107492
-107492
-107492
-107493
-107493
-107493
-107493
-107493
-107493
-107492
-107492
-107492
-107493
-107493
-107492
-107493
-107493
-107492
-107492
-107492
-107492
-107492
-107492
-107492
-107492
-107493
-107493
-107492
-107493
-107493
-107492
-107492
-107492
-107493
-107493
-107493
-107493
-107493
-107493
-107492
-107492
-107492
-107493
-107493
-107492
-107493
-107493
-107492
-107492
-107492
-107492
-107492
-107492
-107492
-107492
-107492
-107493
-107492
-107493
-107493
-107492
-107492
-107492
-107493
-107493
-107493
-107493
-107493
-107493
-107492
-107492
-107492
-107493
-107493
-107492
-107493
-107493
-107492
-107492
-107492
-107492
-107492
-107492
-107492
-107492
-107493
-107492
-107492
-107493
-107492
-107492
-107493
-107493
-107493
-107493
-107493
-107493
-107493
-107493
-107492
-107492
-107493
-107493
-107492
-107492
-107492
-107492
-107492
-107493
-107493
-107492
49044.3
42584.3
31098
25649.6
23716.9
-729.578
-50063.6
-83160.5
-92453.6
-98584.2
-112500
-121184
-127856
-107796
-120251
-121674
-110993
-146522
-140357
-130465
-123552
-119819
-119749
-121442
-123988
-128931
-134580
-137411
-137805
-139880
-141646
-145395
-151422
-138485
-108954
-91451.7
-91973.4
-93124.5
-93013.6
-92537.9
-91853.7
-91731.8
-92258.6
-91257
-87674.2
-69074.1
-77589.6
-85501.1
-88943.3
-87560.9
-86732.6
-86490.9
-88025.1
-90674.7
-93859.9
-96623.7
-98629.2
-99764.5
-100061
-99928.8
-99520.1
-99253.5
-99248.2
-99594.6
-100229
-101242
-101782
-102974
-103758
-104147
-104731
-104804
-105024
-105161
-105149
-104995
-104401
-102301
-103698
-104964
-104794
-105183
-105678
-106192
-106565
-106797
-106978
-107074
-107166
-107238
-107289
-107349
-107380
-107422
-107448
-107472
-107494
-107508
-107525
-107534
-107543
-107554
-107554
-107564
-107560
-107568
-107559
-107562
-107545
-107534
-107520
-107536
-107496
-107516
-107521
-107517
-107517
-107514
-107510
-107513
-107505
-107507
-107502
-107503
-107497
-107499
-107494
-107494
-107493
-107491
-107491
-107490
-107490
-107488
-107488
-107487
-107487
-107486
-107487
-107486
-107486
-107485
-107485
-107484
-107484
-107485
-107484
-107484
-107484
-107485
-107485
-107485
-107485
-107485
-107485
-107485
-107485
-107485
-107485
-107485
-107485
-107485
-107485
-107485
-107485
-107485
-107485
-107484
-107484
-107484
-107484
-107484
-107485
-107484
-107484
-107484
-107484
-107485
-107484
-107484
-107484
-107484
-107484
-107485
-107485
-107485
-107485
-107485
-107485
-107485
-107485
-107485
-107485
-107485
-107485
-107485
-107485
-107485
-107485
-107485
-107485
-107484
-107484
-107484
-107485
-107484
-107484
-107484
-107484
-107485
-107484
-107484
-107484
-107484
-107484
-107485
-107485
-107485
-107485
-107485
-107485
-107485
-107485
-107485
-107485
-107485
-107485
-107485
-107485
-107485
-107485
-107484
-107485
-107484
-107485
-107484
-107485
-107484
-107484
-107484
-107484
-107485
-107484
-107484
-107484
-107484
-107485
-107485
-107485
-107485
-107485
-107485
-107485
-107485
-107485
-107485
-107485
-107485
-107485
-107485
-107485
-107485
-107485
-107484
-107485
-107484
-107485
-107484
-107485
-107484
-107484
-107484
-107484
-107485
-107484
-107484
-107484
-107485
-107484
-107485
-107485
-107485
-107485
-107485
-107485
-107485
-107485
-107485
-107485
-107485
-107485
-107485
-107485
-107485
-107485
-107485
-107484
-107484
-107484
-107484
-107485
-107484
-107484
-107484
-107484
-107485
-107484
-107484
-107484
-107484
-107485
-107485
-107485
-107485
-107485
-107485
-107485
-107485
-107485
-107485
-107485
-107485
-107485
-107485
-107485
-107485
-107485
-107484
-107485
-107484
-107484
-107484
-107485
-107484
-107484
-107484
-107484
-107485
-107484
-107484
-107484
-107484
-107484
-107485
-107485
-107485
-107485
-107485
-107485
-107485
-107485
-107485
-107485
-107485
-107485
-107485
-107485
-107485
-107485
-107485
-107484
-107484
-107484
-107484
-107485
-107484
-107484
-107484
-107484
-107485
-107484
-107485
-107485
-107484
-107485
-107485
-107485
-107485
-107485
-107485
-107485
-107485
-107485
-107485
-107485
-107485
-107485
-107485
-107485
-107485
-107485
-107485
-107485
-107484
-107485
-107485
-107484
-107485
-107485
-107484
28795.8
30577
25437.8
23603.5
23621.2
21090.2
13784.7
-10295.4
-31470.2
-53303.7
-74351.3
-94500.9
-114488
-131721
-125931
-123861
-132379
-136713
-132612
-125793
-122131
-118814
-118376
-118770
-122409
-130488
-136938
-138073
-138471
-138201
-140894
-143192
-146025
-149114
-141547
-109002
-89527.7
-91618.3
-91944.4
-91128.5
-90756.7
-90853.8
-90775.9
-89526.8
-86811.8
-71866.7
-67427.8
-68952.1
-70478.6
-71928
-74106.3
-77565.9
-82400.8
-87533.3
-91953.6
-95289.5
-97499.4
-98829.7
-99385.2
-99431.1
-99157.1
-98855.4
-98721.9
-99043.4
-99599.3
-100553
-101241
-102302
-103293
-103690
-104393
-104591
-104721
-104926
-104838
-104788
-104371
-103094
-103124
-103655
-104103
-104841
-105603
-106234
-106585
-106809
-106954
-107033
-107129
-107175
-107258
-107299
-107352
-107394
-107423
-107453
-107472
-107490
-107509
-107516
-107534
-107535
-107548
-107549
-107553
-107557
-107550
-107555
-107541
-107538
-107516
-107530
-107500
-107518
-107518
-107511
-107517
-107506
-107509
-107505
-107501
-107504
-107497
-107499
-107493
-107493
-107490
-107490
-107487
-107487
-107485
-107486
-107484
-107484
-107482
-107482
-107482
-107481
-107481
-107482
-107481
-107480
-107481
-107480
-107480
-107480
-107480
-107479
-107479
-107480
-107479
-107479
-107480
-107480
-107480
-107480
-107480
-107480
-107480
-107480
-107480
-107480
-107480
-107480
-107480
-107480
-107479
-107479
-107480
-107479
-107479
-107480
-107480
-107479
-107480
-107480
-107479
-107480
-107480
-107479
-107479
-107480
-107479
-107479
-107479
-107480
-107480
-107480
-107480
-107480
-107480
-107480
-107480
-107480
-107480
-107480
-107480
-107479
-107479
-107479
-107480
-107479
-107479
-107480
-107480
-107479
-107480
-107480
-107479
-107480
-107480
-107479
-107479
-107480
-107479
-107479
-107480
-107480
-107480
-107480