/*--------------------------------*- C++ -*----------------------------------*\
| =========                 |                                                 |
| \\      /  F ield         | OpenFOAM: The Open Source CFD Toolbox           |
|  \\    /   O peration     | Version:  2.1.1                                 |
|   \\  /    A nd           | Web:      www.OpenFOAM.org                      |
|    \\/     M anipulation  |                                                 |
\*---------------------------------------------------------------------------*/
FoamFile
{
    version     2.0;
    format      ascii;
    class       volScalarField;
    location    "0.000700000";
    object      H2O;
}
// * * * * * * * * * * * * * * * * * * * * * * * * * * * * * * * * * * * * * //

dimensions      [0 0 0 0 0 0 0];

internalField   nonuniform List<scalar> 
12384
(
0.00070777
0.000316794
5.58868e-05
1.82542e-06
3.95739e-08
8.55135e-10
1.52571e-11
2.63972e-13
4.38585e-15
6.79267e-17
9.59065e-19
1.15292e-20
1.21485e-22
1.28114e-24
1.99904e-38
2.81117e-39
2.35267e-41
1.67488e-43
1.03135e-45
5.6889e-48
2.90414e-50
1.37508e-52
6.10359e-55
2.55282e-57
1.01846e-59
3.92775e-62
1.50657e-64
5.80311e-67
2.2874e-69
9.05186e-72
3.66058e-74
1.4504e-76
5.82417e-79
2.28182e-81
9.01846e-84
3.51373e-86
1.38801e-88
5.54474e-91
2.30686e-93
1.0081e-95
4.69205e-98
2.32513e-100
1.20177e-102
6.35016e-105
1.4507e-113
2.16715e-115
1.34003e-117
9.70641e-120
7.87335e-122
6.34957e-124
4.80315e-126
3.34752e-128
2.17006e-130
1.31204e-132
7.54555e-135
4.13239e-137
2.19953e-139
1.13834e-141
5.81208e-144
2.9099e-146
1.42818e-148
6.77776e-151
3.09987e-153
1.35394e-155
5.5893e-158
2.11131e-160
7.20314e-163
2.25695e-165
6.41544e-169
3.31892e-172
3.75204e-175
7.53843e-178
1.46752e-180
1.93469e-184
1.22382e-199
2.69118e-197
7.28708e-200
1.01617e-202
1.04108e-205
8.75214e-209
6.43023e-212
4.27003e-215
2.60387e-218
1.51391e-221
8.52028e-225
4.68946e-228
2.55434e-231
1.46492e-234
8.48545e-238
4.36662e-241
1.82422e-244
6.78146e-248
2.33915e-251
7.82097e-255
2.52763e-258
8.13974e-262
2.60262e-265
8.39535e-269
2.68941e-272
8.85664e-276
2.97562e-279
1.02394e-282
3.36784e-286
2.63482e-290
1.94558e-313
3.3235e-311
7.30606e-314
8.79018e-317
7.78005e-320
0
0
0
0
0
0
0
0
0
0
0
0
0
0
0
0
0
0
0
0
0
0
0
0
0
0
0
0
0
0
0
0
0
0
0
0
0
0
0
0
0
0
0
0
0
0
0
0
0
0
0
0
0
0
0
0
0
0
0
0
0
0
0
0
0
0
0
0
0
0
0
0
0
0
0
0
0
0
0
0
0
0
0
0
0
0
0
0
0
0
0
0
0
0
0
0
0
0
0
0
0
0
0
0
0
0
0
0
0
0
0
0
0
0
0
0
0
0
0
0
0
0
0
0
0
0
0
0
0
0
0
0
0
0
0
0
0
0
0
0
0
0
0
0
0
0
0
0
0
0
0
0
0
0
0
0
0
0
0
0
0
0
0
0
0
0
0
0
0
0
0
0
0
0
0
0
0
0
0
0
0
0
0
0
0
0
0
0
0
0
0
0
0
0
0
0
0
0
0
0
0
0
0
0
0
0
0
0
0
0
0
0
0
0
0
0
0
0
0
0
0
0
0
0
0
0
0
0
0
0
0
0
0
0
0
0
0
0
0
0
0
0
0
0
0
0
0
0
0
0
0
0
0
0
0
0
0
0
0
0
0
0
0
0
0
0.0105282
0.00594736
0.000844954
4.08218e-05
5.76139e-07
2.51035e-08
3.06311e-10
3.0462e-12
2.76421e-14
3.14433e-16
3.90343e-18
4.88485e-20
5.41054e-22
5.14694e-24
3.133e-36
4.87349e-37
4.08962e-39
2.91248e-41
1.74307e-43
9.37021e-46
4.62345e-48
2.16417e-50
9.23301e-53
3.74586e-55
1.4177e-57
5.15752e-60
1.88157e-62
7.19801e-65
2.90111e-67
1.21196e-69
5.07632e-72
2.075e-74
8.51252e-77
3.37371e-79
1.33895e-81
5.21236e-84
1.98804e-86
7.65445e-89
2.88257e-91
1.10969e-93
4.39463e-96
1.7706e-98
7.66196e-101
3.50938e-103
4.56339e-111
6.26307e-113
2.52263e-115
1.20435e-117
7.14041e-120
4.89083e-122
3.48322e-124
2.41622e-126
1.59406e-128
9.95009e-131
5.95515e-133
3.42519e-135
1.93212e-137
1.07036e-139
5.9018e-142
3.22491e-144
1.73855e-146
9.19667e-149
4.75457e-151
2.377e-153
1.12852e-155
4.88288e-158
1.85101e-160
6.22029e-163
1.93154e-165
1.26951e-168
1.64546e-171
3.45652e-174
7.14783e-177
1.67685e-180
2.67792e-195
1.85746e-193
4.79754e-196
6.69974e-199
6.89496e-202
5.80618e-205
4.25752e-208
2.80824e-211
1.70779e-214
9.77007e-218
5.37888e-221
2.87428e-224
1.52573e-227
8.28429e-231
4.59976e-234
2.35511e-237
1.0372e-240
4.00541e-244
1.42986e-247
4.88617e-251
1.62603e-254
5.3228e-258
1.73194e-261
5.62858e-265
1.83174e-268
6.03071e-272
2.02203e-275
6.87597e-279
2.31912e-282
3.15704e-286
5.28335e-309
2.89118e-307
5.96594e-310
6.86339e-313
5.94539e-316
4.26477e-319
5.43472e-323
0
0
0
0
0
0
0
0
0
0
0
0
0
0
0
0
0
0
0
0
0
0
0
0
0
0
0
0
0
0
0
0
0
0
0
0
0
0
0
0
0
0
0
0
0
0
0
0
0
0
0
0
0
0
0
0
0
0
0
0
0
0
0
0
0
0
0
0
0
0
0
0
0
0
0
0
0
0
0
0
0
0
0
0
0
0
0
0
0
0
0
0
0
0
0
0
0
0
0
0
0
0
0
0
0
0
0
0
0
0
0
0
0
0
0
0
0
0
0
0
0
0
0
0
0
0
0
0
0
0
0
0
0
0
0
0
0
0
0
0
0
0
0
0
0
0
0
0
0
0
0
0
0
0
0
0
0
0
0
0
0
0
0
0
0
0
0
0
0
0
0
0
0
0
0
0
0
0
0
0
0
0
0
0
0
0
0
0
0
0
0
0
0
0
0
0
0
0
0
0
0
0
0
0
0
0
0
0
0
0
0
0
0
0
0
0
0
0
0
0
0
0
0
0
0
0
0
0
0
0
0
0
0
0
0
0
0
0
0
0
0
0
0
0
0
0
0
0
0
0
0
0
0
0
0
0
0
0
0
0
0
0
0
0.0158554
0.0131816
0.0045056
0.000865284
8.92363e-06
1.5012e-06
1.56689e-08
1.40969e-10
2.63535e-13
3.52511e-16
4.36722e-19
1.46877e-21
1.51308e-23
2.06193e-25
3.921e-34
7.31032e-35
6.23962e-37
4.18391e-39
2.26327e-41
1.06339e-43
4.90722e-46
2.01637e-48
8.22515e-51
3.11119e-53
1.07082e-55
3.70411e-58
1.17374e-60
4.31264e-63
1.62348e-65
7.10653e-68
2.80562e-70
1.19764e-72
4.63789e-75
1.87166e-77
7.32653e-80
2.85464e-82
1.07678e-84
4.19611e-87
1.46852e-89
5.71129e-92
2.16753e-94
7.37592e-97
2.88704e-99
8.60411e-102
4.44934e-109
6.29444e-111
1.59934e-113
5.85268e-116
2.36255e-118
1.01414e-120
4.55958e-123
2.18866e-125
1.11688e-127
6.17227e-130
3.60348e-132
2.26469e-134
1.47895e-136
9.93865e-139
6.67698e-141
4.46868e-143
2.93956e-145
1.93657e-147
1.25215e-149
7.75534e-152
4.4859e-154
2.34517e-156
1.04302e-158
3.75803e-161
1.23643e-163
3.87673e-166
1.04222e-168
2.50898e-171
5.39527e-174
1.09029e-177
1.49707e-191
2.33791e-190
5.36411e-193
6.94777e-196
6.72803e-199
5.38338e-202
3.76139e-205
2.35945e-208
1.36373e-211
7.36247e-215
3.78376e-218
1.86706e-221
9.09044e-225
4.42824e-228
2.18114e-231
1.00661e-234
4.11566e-238
1.5214e-241
5.40203e-245
1.89463e-248
6.62486e-252
2.29406e-255
7.89478e-259
2.69219e-262
9.15763e-266
3.12131e-269
1.06696e-272
3.62317e-276
1.22211e-279
1.40181e-283
3.67259e-305
4.56177e-304
8.37563e-307
8.71265e-310
6.88945e-313
4.58986e-316
2.7643e-319
9.88131e-323
0
0
0
0
0
0
0
0
0
0
0
0
0
0
0
0
0
0
0
0
0
0
0
0
0
0
0
0
0
0
0
0
0
0
0
0
0
0
0
0
0
0
0
0
0
0
0
0
0
0
0
0
0
0
0
0
0
0
0
0
0
0
0
0
0
0
0
0
0
0
0
0
0
0
0
0
0
0
0
0
0
0
0
0
0
0
0
0
0
0
0
0
0
0
0
0
0
0
0
0
0
0
0
0
0
0
0
0
0
0
0
0
0
0
0
0
0
0
0
0
0
0
0
0
0
0
0
0
0
0
0
0
0
0
0
0
0
0
0
0
0
0
0
0
0
0
0
0
0
0
0
0
0
0
0
0
0
0
0
0
0
0
0
0
0
0
0
0
0
0
0
0
0
0
0
0
0
0
0
0
0
0
0
0
0
0
0
0
0
0
0
0
0
0
0
0
0
0
0
0
0
0
0
0
0
0
0
0
0
0
0
0
0
0
0
0
0
0
0
0
0
0
0
0
0
0
0
0
0
0
0
0
0
0
0
0
0
0
0
0
0
0
0
0
0
0
0
0
0
0
0
0
0
0
0
0
0
0
0
0
0
0
0.157756
0.151301
0.0668993
0.0179689
0.00393154
0.000867565
1.6245e-05
2.06742e-07
3.56782e-10
4.32183e-13
4.9641e-16
5.38051e-19
5.22946e-22
5.21871e-25
1.62839e-30
3.43554e-31
3.13402e-33
2.13134e-35
1.14512e-37
5.38114e-40
2.39241e-42
1.00078e-44
4.0865e-47
1.56524e-49
5.7228e-52
1.95198e-54
6.32873e-57
2.14951e-59
7.91492e-62
3.35584e-64
1.34881e-66
5.82921e-69
2.22448e-71
9.27382e-74
3.46223e-76
1.37332e-78
5.07378e-81
1.9197e-83
6.90692e-86
2.60296e-88
9.20551e-91
3.42244e-93
1.18766e-95
4.01795e-98
2.74226e-105
3.55554e-107
8.62615e-110
2.95741e-112
1.12895e-114
4.45453e-117
1.81751e-119
7.56523e-122
3.28358e-124
1.48921e-126
7.16806e-129
3.69006e-131
2.03303e-133
1.18604e-135
7.22249e-138
4.54998e-140
2.9333e-142
1.91742e-144
1.26345e-146
8.18622e-149
5.14238e-151
2.9985e-153
1.51931e-155
6.07954e-158
2.08527e-160
6.71689e-163
2.08435e-165
6.10306e-168
1.34698e-170
3.97891e-174
3.58493e-187
9.56527e-187
1.97948e-189
2.36133e-192
2.15298e-195
1.65258e-198
1.1141e-201
6.76203e-205
3.76097e-208
1.94708e-211
9.50478e-215
4.42623e-218
1.98322e-221
8.60926e-225
3.63552e-228
1.49794e-231
6.03031e-235
2.37532e-238
9.16061e-242
3.46418e-245
1.28562e-248
4.69118e-252
1.68492e-255
5.96932e-259
2.08896e-262
7.23754e-266
2.48742e-269
8.49928e-273
2.84312e-276
4.65421e-280
1.10602e-300
2.3105e-300
3.84678e-303
3.68609e-306
2.70276e-309
1.68934e-312
9.5064e-316
4.97178e-319
1.92686e-322
0
0
0
0
0
0
0
0
0
0
0
0
0
0
0
0
0
0
0
0
0
0
0
0
0
0
0
0
0
0
0
0
0
0
0
0
0
0
0
0
0
0
0
0
0
0
0
0
0
0
0
0
0
0
0
0
0
0
0
0
0
0
0
0
0
0
0
0
0
0
0
0
0
0
0
0
0
0
0
0
0
0
0
0
0
0
0
0
0
0
0
0
0
0
0
0
0
0
0
0
0
0
0
0
0
0
0
0
0
0
0
0
0
0
0
0
0
0
0
0
0
0
0
0
0
0
0
0
0
0
0
0
0
0
0
0
0
0
0
0
0
0
0
0
0
0
0
0
0
0
0
0
0
0
0
0
0
0
0
0
0
0
0
0
0
0
0
0
0
0
0
0
0
0
0
0
0
0
0
0
0
0
0
0
0
0
0
0
0
0
0
0
0
0
0
0
0
0
0
0
0
0
0
0
0
0
0
0
0
0
0
0
0
0
0
0
0
0
0
0
0
0
0
0
0
0
0
0
0
0
0
0
0
0
0
0
0
0
0
0
0
0
0
0
0
0
0
0
0
0
0
0
0
0
0
0
0
0
0
0
0
0.23144
0.236571
0.22852
0.173645
0.056349
0.0221567
0.00509081
0.0002064
5.61683e-07
8.36761e-10
1.09395e-12
1.28487e-15
1.35566e-18
1.25971e-21
3.75662e-27
8.99149e-28
1.00299e-29
7.30905e-32
4.09237e-34
2.00063e-36
9.07161e-39
3.92576e-41
1.65875e-43
6.63855e-46
2.56675e-48
9.20575e-51
3.09932e-53
1.01176e-55
3.58169e-58
1.50036e-60
6.24149e-63
2.79667e-65
1.10203e-67
4.70223e-70
1.76769e-72
7.14668e-75
2.62959e-77
9.96546e-80
3.5877e-82
1.32792e-84
4.7617e-87
1.72042e-89
6.01796e-92
2.07397e-94
1.54883e-101
1.92183e-103
4.91285e-106
1.66646e-108
6.1418e-111
2.37887e-113
9.36402e-116
3.7565e-118
1.53843e-120
6.44986e-123
2.80103e-125
1.2611e-127
5.95102e-130
2.93918e-132
1.51563e-134
8.19996e-137
4.57642e-139
2.65678e-141
1.57564e-143
9.4962e-146
5.71848e-148
3.32406e-150
1.77857e-152
8.06464e-155
3.02448e-157
1.01845e-159
3.2633e-162
1.00925e-164
2.88523e-167
1.02338e-170
9.85908e-183
3.84113e-183
6.5789e-186
6.68593e-189
5.32147e-192
3.65711e-195
2.25702e-198
1.27268e-201
6.63752e-205
3.23354e-208
1.48798e-211
6.52812e-215
2.75717e-218
1.12842e-221
4.50173e-225
1.75581e-228
6.71254e-232
2.51674e-235
9.26709e-239
3.35109e-242
1.19203e-245
4.17197e-249
1.43971e-252
4.90207e-256
1.65064e-259
5.50315e-263
1.82064e-266
5.9879e-270
1.92845e-273
3.13925e-277
3.96279e-296
1.16054e-296
1.58334e-299
1.29472e-302
8.27325e-306
4.57042e-309
2.29652e-312
1.08087e-315
4.85553e-319
1.28457e-322
0
0
0
0
0
0
0
0
0
0
0
0
0
0
0
0
0
0
0
0
0
0
0
0
0
0
0
0
0
0
0
0
0
0
0
0
0
0
0
0
0
0
0
0
0
0
0
0
0
0
0
0
0
0
0
0
0
0
0
0
0
0
0
0
0
0
0
0
0
0
0
0
0
0
0
0
0
0
0
0
0
0
0
0
0
0
0
0
0
0
0
0
0
0
0
0
0
0
0
0
0
0
0
0
0
0
0
0
0
0
0
0
0
0
0
0
0
0
0
0
0
0
0
0
0
0
0
0
0
0
0
0
0
0
0
0
0
0
0
0
0
0
0
0
0
0
0
0
0
0
0
0
0
0
0
0
0
0
0
0
0
0
0
0
0
0
0
0
0
0
0
0
0
0
0
0
0
0
0
0
0
0
0
0
0
0
0
0
0
0
0
0
0
0
0
0
0
0
0
0
0
0
0
0
0
0
0
0
0
0
0
0
0
0
0
0
0
0
0
0
0
0
0
0
0
0
0
0
0
0
0
0
0
0
0
0
0
0
0
0
0
0
0
0
0
0
0
0
0
0
0
0
0
0
0
0
0
0
0
0
0.239114
0.239257
0.238057
0.230796
0.198181
0.170944
0.0618506
0.00956313
0.000297692
7.2752e-07
1.2552e-09
1.90718e-12
2.45053e-15
2.47526e-18
4.00311e-24
9.79003e-25
1.4046e-26
1.17811e-28
7.13218e-31
3.71783e-33
1.77718e-35
7.98824e-38
3.50032e-40
1.48121e-42
5.88651e-45
2.29208e-47
7.92225e-50
2.62123e-52
8.64724e-55
3.43125e-57
1.45143e-59
6.6359e-62
2.73939e-64
1.19227e-66
4.66876e-69
1.88422e-71
7.01844e-74
2.68136e-76
9.56208e-79
3.53942e-81
1.27652e-83
4.58853e-86
1.61694e-88
5.53629e-91
4.6162e-98
5.7887e-100
1.49081e-102
4.95682e-105
1.80947e-107
6.82855e-110
2.64813e-112
1.03859e-114
4.15979e-117
1.69118e-119
7.05853e-122
3.00374e-124
1.31823e-126
5.9486e-129
2.76929e-131
1.33318e-133
6.65981e-136
3.42662e-138
1.82754e-140
9.90366e-143
5.50502e-145
3.05542e-147
1.63791e-149
8.01455e-152
3.34349e-154
1.20076e-156
4.00553e-159
1.2781e-161
3.85352e-164
4.72e-167
2.44447e-178
1.45346e-179
2.03072e-182
1.73802e-185
1.18723e-188
7.16355e-192
3.97657e-195
2.06027e-198
1.00112e-201
4.58275e-205
1.98763e-208
8.22864e-212
3.27666e-215
1.26418e-218
4.75356e-222
1.75001e-225
6.32488e-229
2.24801e-232
7.86256e-236
2.70785e-239
9.18619e-243
3.07225e-246
1.01384e-249
3.30588e-253
1.06652e-256
3.41071e-260
1.08299e-263
3.42031e-267
1.05963e-270
1.69042e-274
1.35826e-291
5.66445e-293
6.10031e-296
4.1641e-299
2.28829e-302
1.10749e-305
4.93778e-309
2.08252e-312
8.44659e-316
3.33e-319
4.44659e-323
0
0
0
0
0
0
0
0
0
0
0
0
0
0
0
0
0
0
0
0
0
0
0
0
0
0
0
0
0
0
0
0
0
0
0
0
0
0
0
0
0
0
0
0
0
0
0
0
0
0
0
0
0
0
0
0
0
0
0
0
0
0
0
0
0
0
0
0
0
0
0
0
0
0
0
0
0
0
0
0
0
0
0
0
0
0
0
0
0
0
0
0
0
0
0
0
0
0
0
0
0
0
0
0
0
0
0
0
0
0
0
0
0
0
0
0
0
0
0
0
0
0
0
0
0
0
0
0
0
0
0
0
0
0
0
0
0
0
0
0
0
0
0
0
0
0
0
0
0
0
0
0
0
0
0
0
0
0
0
0
0
0
0
0
0
0
0
0
0
0
0
0
0
0
0
0
0
0
0
0
0
0
0
0
0
0
0
0
0
0
0
0
0
0
0
0
0
0
0
0
0
0
0
0
0
0
0
0
0
0
0
0
0
0
0
0
0
0
0
0
0
0
0
0
0
0
0
0
0
0
0
0
0
0
0
0
0
0
0
0
0
0
0
0
0
0
0
0
0
0
0
0
0
0
0
0
0
0
0
0.239289
0.238848
0.238188
0.237452
0.232584
0.22919
0.215593
0.0910565
0.0112947
0.000226898
5.88685e-07
1.40852e-09
2.42636e-12
2.74094e-15
1.97156e-21
3.73869e-22
7.24312e-24
7.67509e-26
5.48291e-28
3.22601e-30
1.71872e-32
8.32505e-35
3.94332e-37
1.75391e-39
7.57376e-42
3.0963e-44
1.1755e-46
4.07502e-49
1.30936e-51
4.7995e-54
2.03932e-56
9.45044e-59
4.12737e-61
1.84228e-63
7.56931e-66
3.14711e-68
1.19225e-70
4.63616e-73
1.64499e-75
6.05626e-78
2.18866e-80
7.79186e-83
2.78846e-85
9.69596e-88
8.68538e-95
9.55699e-97
2.77476e-99
9.54972e-102
3.4112e-104
1.29112e-106
4.87162e-109
1.89902e-111
7.45229e-114
2.995e-116
1.22377e-118
5.10084e-121
2.15757e-123
9.39001e-126
4.10792e-128
1.87448e-130
8.58796e-133
4.11952e-135
1.99426e-137
9.98868e-140
5.06832e-142
2.63244e-144
1.35757e-146
6.71475e-149
3.02332e-151
1.18719e-153
4.17698e-156
1.38547e-158
4.35827e-161
8.63982e-164
6.36971e-174
5.81063e-176
6.40598e-179
4.57854e-182
2.66074e-185
1.38778e-188
6.80612e-192
3.19027e-195
1.4307e-198
6.12498e-202
2.50244e-205
9.78656e-209
3.682e-212
1.3409e-215
4.75435e-219
1.64971e-222
5.62233e-226
1.88674e-229
6.24171e-233
2.03711e-236
6.56077e-240
2.08616e-243
6.5535e-247
2.03619e-250
6.2652e-254
1.91244e-257
5.80157e-261
1.75236e-264
5.20218e-268
8.20979e-272
5.28824e-287
3.08843e-289
2.46971e-292
1.3653e-295
6.33562e-299
2.65616e-302
1.04342e-305
3.92405e-309
1.43215e-312
5.11932e-316
1.80201e-319
0
0
0
0
0
0
0
0
0
0
0
0
0
0
0
0
0
0
0
0
0
0
0
0
0
0
0
0
0
0
0
0
0
0
0
0
0
0
0
0
0
0
0
0
0
0
0
0
0
0
0
0
0
0
0
0
0
0
0
0
0
0
0
0
0
0
0
0
0
0
0
0
0
0
0
0
0
0
0
0
0
0
0
0
0
0
0
0
0
0
0
0
0
0
0
0
0
0
0
0
0
0
0
0
0
0
0
0
0
0
0
0
0
0
0
0
0
0
0
0
0
0
0
0
0
0
0
0
0
0
0
0
0
0
0
0
0
0
0
0
0
0
0
0
0
0
0
0
0
0
0
0
0
0
0
0
0
0
0
0
0
0
0
0
0
0
0
0
0
0
0
0
0
0
0
0
0
0
0
0
0
0
0
0
0
0
0
0
0
0
0
0
0
0
0
0
0
0
0
0
0
0
0
0
0
0
0
0
0
0
0
0
0
0
0
0
0
0
0
0
0
0
0
0
0
0
0
0
0
0
0
0
0
0
0
0
0
0
0
0
0
0
0
0
0
0
0
0
0
0
0
0
0
0
0
0
0
0
0
0.238347
0.237837
0.238587
0.2408
0.245657
0.24329
0.239024
0.238592
0.0887134
0.00900455
6.52737e-05
2.27235e-07
5.52177e-10
8.12318e-13
4.946e-19
5.04052e-20
1.26238e-21
1.72128e-23
1.56151e-25
1.11514e-27
6.84223e-30
3.76798e-32
1.92643e-34
9.12343e-37
4.19912e-39
1.7681e-41
7.23428e-44
2.67616e-46
8.6453e-49
2.88803e-51
1.21795e-53
5.71552e-56
2.60467e-58
1.18366e-60
5.09076e-63
2.16514e-65
8.44779e-68
3.32732e-70
1.1903e-72
4.3906e-75
1.55152e-77
5.638e-80
1.99969e-82
7.10654e-85
7.38064e-92
7.86069e-94
2.21775e-96
7.72676e-99
2.78711e-101
1.04106e-103
3.87301e-106
1.47699e-108
5.70708e-111
2.25871e-113
9.09932e-116
3.75657e-118
1.55747e-120
6.69101e-123
2.83062e-125
1.25759e-127
5.46738e-130
2.51401e-132
1.13991e-134
5.41934e-137
2.5702e-139
1.25865e-141
6.19426e-144
3.02964e-146
1.42133e-148
6.08895e-151
2.30273e-153
8.01557e-156
2.63772e-158
7.12611e-161
1.35075e-169
1.88287e-172
1.52939e-175
8.99557e-179
4.43687e-182
1.98863e-185
8.50497e-189
3.55147e-192
1.45181e-195
5.77112e-199
2.21565e-202
8.19174e-206
2.91959e-209
1.00674e-212
3.3747e-216
1.10516e-219
3.55091e-223
1.12303e-226
3.50338e-230
1.07936e-233
3.28614e-237
9.89152e-241
2.94537e-244
8.68373e-248
2.53791e-251
7.36515e-255
2.12633e-258
6.11915e-262
1.73718e-265
2.77539e-269
1.82593e-282
1.47208e-285
7.95004e-289
3.41531e-292
1.3088e-295
4.69029e-299
1.6103e-302
5.37405e-306
1.76005e-309
5.69313e-313
1.82635e-316
5.79687e-320
0
0
0
0
0
0
0
0
0
0
0
0
0
0
0
0
0
0
0
0
0
0
0
0
0
0
0
0
0
0
0
0
0
0
0
0
0
0
0
0
0
0
0
0
0
0
0
0
0
0
0
0
0
0
0
0
0
0
0
0
0
0
0
0
0
0
0
0
0
0
0
0
0
0
0
0
0
0
0
0
0
0
0
0
0
0
0
0
0
0
0
0
0
0
0
0
0
0
0
0
0
0
0
0
0
0
0
0
0
0
0
0
0
0
0
0
0
0
0
0
0
0
0
0
0
0
0
0
0
0
0
0
0
0
0
0
0
0
0
0
0
0
0
0
0
0
0
0
0
0
0
0
0
0
0
0
0
0
0
0
0
0
0
0
0
0
0
0
0
0
0
0
0
0
0
0
0
0
0
0
0
0
0
0
0
0
0
0
0
0
0
0
0
0
0
0
0
0
0
0
0
0
0
0
0
0
0
0
0
0
0
0
0
0
0
0
0
0
0
0
0
0
0
0
0
0
0
0
0
0
0
0
0
0
0
0
0
0
0
0
0
0
0
0
0
0
0
0
0
0
0
0
0
0
0
0
0
0
0.23676
0.237749
0.243058
0.250028
0.251093
0.250112
0.248014
0.248972
0.250185
0.0751224
0.0073858
3.66202e-05
1.42258e-07
3.28309e-10
1.24116e-12
6.97676e-15
9.8733e-17
1.12685e-18
1.14091e-20
9.83529e-23
8.02912e-25
6.24523e-27
4.64002e-29
3.30867e-31
2.26852e-33
1.4859e-35
9.57219e-38
5.8705e-40
3.581e-42
2.10164e-44
1.19231e-46
6.55932e-49
3.42589e-51
1.72949e-53
8.34002e-56
3.94587e-58
1.76966e-60
7.77472e-63
3.19927e-65
1.25944e-67
4.69621e-70
1.67587e-72
6.01583e-75
2.19262e-77
8.02105e-80
2.9409e-82
1.18817e-84
5.48225e-87
3.58665e-89
2.09514e-91
8.39757e-94
3.49055e-96
1.25404e-98
4.82176e-101
1.72427e-103
6.56844e-106
2.45016e-108
9.62237e-111
3.79993e-113
1.56631e-115
6.40788e-118
2.76855e-120
1.14733e-122
5.11437e-125
2.13051e-127
9.72372e-130
4.10526e-132
1.92338e-134
8.4118e-137
4.00027e-139
1.84427e-141
8.78716e-144
4.10633e-146
1.83738e-148
7.47505e-151
2.75906e-153
9.54654e-156
3.1436e-158
9.01955e-161
2.35092e-163
6.76573e-166
4.59339e-169
2.58179e-172
1.22843e-175
5.15964e-179
1.99915e-182
7.44837e-186
2.74742e-189
1.01307e-192
3.7109e-196
1.33441e-199
4.66678e-203
1.58053e-206
5.18394e-210
1.65104e-213
5.1265e-217
1.55835e-220
4.65498e-224
1.3704e-227
3.98431e-231
1.14557e-234
3.26036e-238
9.19283e-242
2.5705e-245
7.13739e-249
1.9713e-252
5.42647e-256
1.49202e-259
4.1058e-263
1.10551e-266
1.66842e-270
7.35757e-275
1.6129e-278
5.68855e-282
1.91427e-285
6.14425e-289
1.90814e-292
5.78926e-296
1.72852e-299
5.10805e-303
1.50059e-306
4.39603e-310
1.28675e-313
3.76673e-317
1.07509e-320
0
0
0
0
0
0
0
0
0
0
0
0
0
0
0
0
0
0
0
0
0
0
0
0
0
0
0
0
0
0
0
0
0
0
0
0
0
0
0
0
0
0
0
0
0
0
0
0
0
0
0
0
0
0
0
0
0
0
0
0
0
0
0
0
0
0
0
0
0
0
0
0
0
0
0
0
0
0
0
0
0
0
0
0
0
0
0
0
0
0
0
0
0
0
0
0
0
0
0
0
0
0
0
0
0
0
0
0
0
0
0
0
0
0
0
0
0
0
0
0
0
0
0
0
0
0
0
0
0
0
0
0
0
0
0
0
0
0
0
0
0
0
0
0
0
0
0
0
0
0
0
0
0
0
0
0
0
0
0
0
0
0
0
0
0
0
0
0
0
0
0
0
0
0
0
0
0
0
0
0
0
0
0
0
0
0
0
0
0
0
0
0
0
0
0
0
0
0
0
0
0
0
0
0
0
0
0
0
0
0
0
0
0
0
0
0
0
0
0
0
0
0
0
0
0
0
0
0
0
0
0
0
0
0
0
0
0
0
0
0
0
0
0
0
0
0
0
0
0
0
0
0
0
0
0
0
0
0
0
0
0
0
0
0
0
0
0
0
0
0
0
0
0
0
0
0.238284
0.243615
0.250532
0.250517
0.250276
0.251021
0.250707
0.250563
0.250737
0.129988
0.0164943
0.000504677
1.44934e-06
5.12923e-09
2.53138e-11
1.44759e-13
9.26522e-16
5.54508e-18
3.22655e-20
1.91078e-22
1.25439e-24
8.88352e-27
6.65737e-29
5.07138e-31
3.83358e-33
2.85918e-35
2.09172e-37
1.48569e-39
1.03509e-41
6.96568e-44
4.52014e-46
2.84762e-48
1.72538e-50
1.01468e-52
5.76908e-55
3.18801e-57
1.70585e-59
8.8829e-62
4.49201e-64
2.20229e-66
1.0544e-68
4.87e-71
2.20726e-73
9.72474e-76
4.21444e-78
1.78967e-80
7.64675e-83
3.22669e-85
1.3209e-87
5.33313e-90
2.11242e-92
8.31263e-95
3.25076e-97
1.28219e-99
5.09948e-102
2.07121e-104
8.58954e-107
3.65769e-109
1.59789e-111
7.13826e-114
3.25283e-116
1.50316e-118
7.02001e-121
3.30432e-123
1.5615e-125
7.41218e-128
3.51436e-130
1.66744e-132
7.86732e-135
3.70043e-137
1.72964e-139
8.03561e-142
3.69257e-144
1.66372e-146
7.13565e-149
2.81671e-151
1.02669e-153
3.53155e-156
1.16111e-158
3.67441e-161
1.13006e-163
3.31206e-166
1.52186e-169
6.29972e-173
2.35799e-176
8.17086e-180
2.71369e-183
8.93826e-187
2.97924e-190
1.00507e-193
3.38752e-197
1.12401e-200
3.63542e-204
1.1414e-207
3.47898e-211
1.03205e-214
2.99072e-218
8.49902e-222
2.37701e-225
6.56208e-229
1.79218e-232
4.85048e-236
1.30263e-239
3.47555e-243
9.22476e-247
2.43937e-250
6.43762e-254
1.69851e-257
4.48782e-261
1.18882e-264
3.11604e-268
8.06814e-272
2.12374e-275
5.6813e-279
1.51828e-282
4.04763e-286
1.07605e-289
2.85462e-293
7.56898e-297
2.00992e-300
5.35565e-304
1.43394e-307
3.86013e-311
1.04457e-314
2.83868e-318
6.47226e-322
0
0
0
0
0
0
0
0
0
0
0
0
0
0
0
0
0
0
0
0
0
0
0
0
0
0
0
0
0
0
0
0
0
0
0
0
0
0
0
0
0
0
0
0
0
0
0
0
0
0
0
0
0
0
0
0
0
0
0
0
0
0
0
0
0
0
0
0
0
0
0
0
0
0
0
0
0
0
0
0
0
0
0
0
0
0
0
0
0
0
0
0
0
0
0
0
0
0
0
0
0
0
0
0
0
0
0
0
0
0
0
0
0
0
0
0
0
0
0
0
0
0
0
0
0
0
0
0
0
0
0
0
0
0
0
0
0
0
0
0
0
0
0
0
0
0
0
0
0
0
0
0
0
0
0
0
0
0
0
0
0
0
0
0
0
0
0
0
0
0
0
0
0
0
0
0
0
0
0
0
0
0
0
0
0
0
0
0
0
0
0
0
0
0
0
0
0
0
0
0
0
0
0
0
0
0
0
0
0
0
0
0
0
0
0
0
0
0
0
0
0
0
0
0
0
0
0
0
0
0
0
0
0
0
0
0
0
0
0
0
0
0
0
0
0
0
0
0
0
0
0
0
0
0
0
0
0
0
0
0
0
0
0
0
0
0
0
0
0
0
0
0
0
0
0.248711
0.250574
0.248986
0.247359
0.248291
0.249791
0.250842
0.250554
0.250609
0.250724
0.0351979
0.00185093
6.79684e-06
2.67138e-08
1.13464e-10
5.04643e-13
2.20788e-15
9.00268e-18
3.5403e-20
1.44702e-22
6.23183e-25
2.99072e-27
1.62936e-29
1.00098e-31
6.56682e-34
4.49085e-36
3.07855e-38
2.09526e-40
1.40472e-42
9.15095e-45
5.79565e-47
3.55137e-49
2.11209e-51
1.21595e-53
6.82426e-56
3.70591e-58
1.96966e-60
1.01438e-62
5.1226e-65
2.50794e-67
1.21217e-69
5.68705e-72
2.76002e-74
1.28433e-76
6.08798e-79
2.79829e-81
1.15925e-83
4.61988e-86
1.77335e-88
6.68824e-91
2.52849e-93
9.53893e-96
3.64206e-98
1.40427e-100
5.51191e-103
2.21223e-105
9.09091e-108
3.85077e-110
1.67712e-112
7.50987e-115
3.44364e-117
1.6077e-119
7.61976e-122
3.64735e-124
1.7604e-126
8.54071e-129
4.15657e-131
2.0218e-133
9.80434e-136
4.72684e-138
2.26068e-140
1.07396e-142
5.06939e-145
2.368e-147
1.07759e-149
4.64873e-152
1.85299e-154
6.83006e-157
2.37682e-159
7.91641e-162
2.54618e-164
7.02113e-167
2.66522e-170
8.82271e-174
2.78956e-177
9.17599e-181
3.22522e-184
1.17318e-187
4.23456e-191
1.48003e-194
4.96973e-198
1.60508e-201
5.01205e-205
1.52305e-208
4.53266e-212
1.32799e-215
3.84407e-219
1.10145e-222
3.12602e-226
8.78748e-230
2.44664e-233
6.74958e-237
1.84683e-240
5.02038e-244
1.35875e-247
3.67014e-251
9.91781e-255
2.68702e-258
7.30999e-262
1.99812e-265
5.48257e-269
1.50759e-272
4.14341e-276
1.13391e-279
3.08034e-283
8.2912e-287
2.21077e-290
5.84812e-294
1.53902e-297
4.04347e-301
1.06437e-304
2.81528e-308
7.49602e-312
2.0102e-315
5.42015e-319
0
0
0
0
0
0
0
0
0
0
0
0
0
0
0
0
0
0
0
0
0
0
0
0
0
0
0
0
0
0
0
0
0
0
0
0
0
0
0
0
0
0
0
0
0
0
0
0
0
0
0
0
0
0
0
0
0
0
0
0
0
0
0
0
0
0
0
0
0
0
0
0
0
0
0
0
0
0
0
0
0
0
0
0
0
0
0
0
0
0
0
0
0
0
0
0
0
0
0
0
0
0
0
0
0
0
0
0
0
0
0
0
0
0
0
0
0
0
0
0
0
0
0
0
0
0
0
0
0
0
0
0
0
0
0
0
0
0
0
0
0
0
0
0
0
0
0
0
0
0
0
0
0
0
0
0
0
0
0
0
0
0
0
0
0
0
0
0
0
0
0
0
0
0
0
0
0
0
0
0
0
0
0
0
0
0
0
0
0
0
0
0
0
0
0
0
0
0
0
0
0
0
0
0
0
0
0
0
0
0
0
0
0
0
0
0
0
0
0
0
0
0
0
0
0
0
0
0
0
0
0
0
0
0
0
0
0
0
0
0
0
0
0
0
0
0
0
0
0
0
0
0
0
0
0
0
0
0
0
0
0
0
0
0
0
0
0
0
0
0
0
0
0
0
0
0.249788
0.24741
0.245426
0.245364
0.2464
0.248279
0.249368
0.249884
0.250176
0.249837
0.032421
0.00145675
4.858e-06
1.65809e-08
5.95126e-11
2.1944e-13
7.46595e-16
2.3632e-18
7.22014e-21
2.23533e-23
7.31936e-26
2.5181e-28
9.50447e-31
4.12147e-33
2.10037e-35
1.22636e-37
7.69643e-40
4.99296e-42
3.20537e-44
2.02728e-46
1.24611e-48
7.437e-51
4.305e-53
2.4165e-55
1.3244e-57
6.99474e-60
3.64102e-62
1.82104e-64
9.00467e-67
4.28276e-69
2.01448e-71
9.15339e-74
4.12205e-76
1.814e-78
7.87493e-81
3.36529e-83
1.39923e-85
5.69699e-88
2.23703e-90
8.71572e-93
3.3541e-95
1.29566e-97
5.00518e-100
1.96999e-102
7.84958e-105
3.22492e-107
1.35618e-109
5.90053e-112
2.6363e-114
1.20916e-116
5.65669e-119
2.68656e-121
1.29066e-123
6.25088e-126
3.04851e-128
1.49378e-130
7.34595e-133
3.61614e-135
1.7772e-137
8.71157e-140
4.25108e-142
2.07025e-144
1.00199e-146
4.78806e-149
2.23116e-151
9.94202e-154
4.07824e-156
1.52951e-158
5.36739e-161
1.79439e-163
5.6845e-166
3.05021e-169
1.42222e-172
5.91386e-176
2.27495e-179
8.38299e-183
3.03862e-186
1.09853e-189
3.96496e-193
1.41911e-196
4.99656e-200
1.7216e-203
5.79585e-207
1.90882e-210
6.16741e-214
1.96134e-217
6.15781e-221
1.91321e-224
5.89276e-228
1.80156e-231
5.47292e-235
1.65392e-238
4.97841e-242
1.49476e-245
4.48344e-249
1.34524e-252
4.04186e-256
1.21671e-259
3.66932e-263
1.10784e-266
3.34404e-270
1.00751e-273
3.02388e-277
9.02019e-281
2.66841e-284
7.81516e-288
2.26392e-291
6.48744e-295
1.84148e-298
5.1912e-302
1.45849e-305
4.10001e-309
1.15743e-312
3.28977e-316
9.37243e-320
0
0
0
0
0
0
0
0
0
0
0
0
0
0
0
0
0
0
0
0
0
0
0
0
0
0
0
0
0
0
0
0
0
0
0
0
0
0
0
0
0
0
0
0
0
0
0
0
0
0
0
0
0
0
0
0
0
0
0
0
0
0
0
0
0
0
0
0
0
0
0
0
0
0
0
0
0
0
0
0
0
0
0
0
0
0
0
0
0
0
0
0
0
0
0
0
0
0
0
0
0
0
0
0
0
0
0
0
0
0
0
0
0
0
0
0
0
0
0
0
0
0
0
0
0
0
0
0
0
0
0
0
0
0
0
0
0
0
0
0
0
0
0
0
0
0
0
0
0
0
0
0
0
0
0
0
0
0
0
0
0
0
0
0
0
0
0
0
0
0
0
0
0
0
0
0
0
0
0
0
0
0
0
0
0
0
0
0
0
0
0
0
0
0
0
0
0
0
0
0
0
0
0
0
0
0
0
0
0
0
0
0
0
0
0
0
0
0
0
0
0
0
0
0
0
0
0
0
0
0
0
0
0
0
0
0
0
0
0
0
0
0
0
0
0
0
0
0
0
0
0
0
0
0
0
0
0
0
0
0
0
0
0
0
0
0
0
0
0
0
0
0
0
0
0
0.246495
0.244471
0.243924
0.244318
0.244325
0.245234
0.126843
0.0903257
0.0883946
0.0483678
0.00856028
0.000149027
3.98408e-07
1.38084e-09
4.38871e-12
1.22333e-14
2.91476e-17
6.18509e-20
1.3386e-22
3.06296e-25
8.49289e-28
2.80737e-30
1.11208e-32
5.29905e-35
2.91205e-37
1.74692e-39
1.08571e-41
6.8803e-44
4.24945e-46
2.61643e-48
1.54317e-50
8.96856e-53
5.00615e-55
2.73563e-57
1.44782e-59
7.45176e-62
3.75395e-64
1.829e-66
8.77888e-69
4.06435e-71
1.85733e-73
8.23322e-76
3.60428e-78
1.54528e-80
6.50071e-83
2.70824e-85
1.09764e-87
4.43608e-90
1.72559e-92
6.75717e-95
2.59722e-97
1.01135e-99
3.94172e-102
1.57421e-104
6.40665e-107
2.69111e-109
1.16416e-111
5.18917e-114
2.37654e-116
1.11107e-118
5.28007e-121
2.53914e-123
1.23097e-125
6.01404e-128
2.95095e-130
1.45561e-132
7.18627e-135
3.55302e-137
1.74956e-139
8.59158e-142
4.19782e-144
2.04559e-146
9.92787e-149
4.77376e-151
2.25162e-153
1.01888e-155
4.25282e-158
1.6103e-160
5.6323e-163
1.85876e-165
1.25259e-168
7.39265e-172
3.82455e-175
1.76949e-178
7.53373e-182
3.04092e-185
1.19345e-188
4.62664e-192
1.78052e-195
6.78488e-199
2.54777e-202
9.39598e-206
3.40088e-209
1.21e-212
4.24352e-216
1.47138e-219
5.0569e-223
1.72578e-226
5.85457e-230
1.9754e-233
6.63149e-237
2.21558e-240
7.36946e-244
2.44124e-247
8.05635e-251
2.64891e-254
8.6764e-258
2.82997e-261
9.18608e-265
2.96541e-268
9.51165e-272
3.02956e-275
9.57777e-279
3.00406e-282
9.34634e-286
2.88444e-289
8.83179e-293
2.68388e-296
8.09912e-300
2.42879e-303
7.24457e-307
2.15165e-310
6.37074e-314
1.88283e-317
5.37049e-321
0
0
0
0
0
0
0
0
0
0
0
0
0
0
0
0
0
0
0
0
0
0
0
0
0
0
0
0
0
0
0
0
0
0
0
0
0
0
0
0
0
0
0
0
0
0
0
0
0
0
0
0
0
0
0
0
0
0
0
0
0
0
0
0
0
0
0
0
0
0
0
0
0
0
0
0
0
0
0
0
0
0
0
0
0
0
0
0
0
0
0
0
0
0
0
0
0
0
0
0
0
0
0
0
0
0
0
0
0
0
0
0
0
0
0
0
0
0
0
0
0
0
0
0
0
0
0
0
0
0
0
0
0
0
0
0
0
0
0
0
0
0
0
0
0
0
0
0
0
0
0
0
0
0
0
0
0
0
0
0
0
0
0
0
0
0
0
0
0
0
0
0
0
0
0
0
0
0
0
0
0
0
0
0
0
0
0
0
0
0
0
0
0
0
0
0
0
0
0
0
0
0
0
0
0
0
0
0
0
0
0
0
0
0
0
0
0
0
0
0
0
0
0
0
0
0
0
0
0
0
0
0
0
0
0
0
0
0
0
0
0
0
0
0
0
0
0
0
0
0
0
0
0
0
0
0
0
0
0
0
0
0
0
0
0
0
0
0
0
0
0
0
0
0
0
0.242093
0.242901
0.243234
0.24342
0.11762
0.0413135
0.0128909
0.00642243
0.00684889
0.00388437
0.000453036
1.36803e-06
3.58928e-09
9.20401e-12
2.37086e-14
5.95851e-17
1.38875e-19
3.16943e-22
7.4615e-25
2.0058e-27
6.39679e-30
2.49943e-32
1.16484e-34
6.22994e-37
3.63586e-39
2.19899e-41
1.34237e-43
8.19369e-46
4.88602e-48
2.89458e-50
1.64537e-52
9.24522e-55
4.97766e-57
2.63902e-59
1.34695e-61
6.74229e-64
3.27582e-66
1.5541e-68
7.20235e-71
3.25036e-73
1.43998e-75
6.24996e-78
2.6673e-80
1.12001e-82
4.61026e-85
1.88349e-87
7.4947e-90
2.99993e-92
1.15764e-94
4.54254e-97
1.74424e-99
6.86947e-102
2.70376e-104
1.10233e-106
4.57727e-109
1.97469e-111
8.74289e-114
3.99155e-116
1.86035e-118
8.83101e-121
4.23985e-123
2.05523e-125
1.00228e-127
4.91972e-130
2.42216e-132
1.19817e-134
5.9189e-137
2.92817e-139
1.43995e-141
7.06512e-144
3.44581e-146
1.67666e-148
8.12071e-151
3.90539e-153
1.84238e-155
8.3654e-158
3.54656e-160
1.35978e-162
4.75139e-165
6.29395e-168
2.59718e-171
1.48088e-174
7.98841e-178
3.91996e-181
1.78309e-184
7.7075e-188
3.23391e-191
1.33478e-194
5.44536e-198
2.1936e-201
8.7021e-205
3.39371e-208
1.30127e-211
4.91353e-215
1.83118e-218
6.75003e-222
2.46491e-225
8.9253e-229
3.20591e-232
1.14248e-235
4.03966e-239
1.41744e-242
4.93656e-246
1.70692e-249
5.86089e-253
1.99857e-256
6.76797e-260
2.27566e-263
7.59529e-267
2.51565e-270
8.26589e-274
2.69401e-277
8.7092e-281
2.79291e-284
8.88643e-288
2.80629e-291
8.79933e-295
2.74088e-298
8.48568e-302
2.6127e-305
8.00512e-309
2.44232e-312
7.42468e-316
2.24662e-319
0
0
0
0
0
0
0
0
0
0
0
0
0
0
0
0
0
0
0
0
0
0
0
0
0
0
0
0
0
0
0
0
0
0
0
0
0
0
0
0
0
0
0
0
0
0
0
0
0
0
0
0
0
0
0
0
0
0
0
0
0
0
0
0
0
0
0
0
0
0
0
0
0
0
0
0
0
0
0
0
0
0
0
0
0
0
0
0
0
0
0
0
0
0
0
0
0
0
0
0
0
0
0
0
0
0
0
0
0
0
0
0
0
0
0
0
0
0
0
0
0
0
0
0
0
0
0
0
0
0
0
0
0
0
0
0
0
0
0
0
0
0
0
0
0
0
0
0
0
0
0
0
0
0
0
0
0
0
0
0
0
0
0
0
0
0
0
0
0
0
0
0
0
0
0
0
0
0
0
0
0
0
0
0
0
0
0
0
0
0
0
0
0
0
0
0
0
0
0
0
0
0
0
0
0
0
0
0
0
0
0
0
0
0
0
0
0
0
0
0
0
0
0
0
0
0
0
0
0
0
0
0
0
0
0
0
0
0
0
0
0
0
0
0
0
0
0
0
0
0
0
0
0
0
0
0
0
0
0
0
0
0
0
0
0
0
0
0
0
0
0
0
0
0
0
0
0.104826
0.0611048
0.0372709
0.0223078
0.00782211
0.00163578
0.000167898
8.25323e-05
7.77537e-05
3.52108e-05
2.87751e-06
7.27489e-09
1.6538e-11
3.83966e-14
9.30444e-17
2.26719e-19
5.50018e-22
1.37442e-24
3.80715e-27
1.22125e-29
4.79846e-32
2.28973e-34
1.25075e-36
7.27981e-39
4.37374e-41
2.63375e-43
1.56677e-45
9.22442e-48
5.33932e-50
3.03016e-52
1.67143e-54
9.04507e-57
4.7181e-59
2.41802e-61
1.19434e-63
5.79781e-66
2.71987e-68
1.25401e-70
5.61532e-73
2.47809e-75
1.06784e-77
4.54676e-80
1.89449e-82
7.81471e-85
3.1514e-87
1.26652e-89
4.97473e-92
1.96364e-94
7.56552e-97
2.96771e-99
1.14682e-101
4.57187e-104
1.82925e-106
7.62365e-109
3.24082e-111
1.43298e-113
6.48162e-116
3.01296e-118
1.42326e-120
6.81535e-123
3.29343e-125
1.60204e-127
7.83257e-130
3.85057e-132
1.8969e-134
9.386e-137
4.63351e-139
2.29055e-141
1.1256e-143
5.52698e-146
2.69609e-148
1.31328e-150
6.35073e-153
3.04501e-155
1.43123e-157
6.49805e-160
2.76946e-162
1.05868e-164
2.67323e-167
1.07938e-170
4.93452e-174
2.59004e-177
1.36423e-180
6.78897e-184
3.18397e-187
1.42951e-190
6.2445e-194
2.68146e-197
1.13595e-200
4.74428e-204
1.94998e-207
7.88046e-211
3.13283e-214
1.22692e-217
4.74174e-221
1.81111e-224
6.84334e-228
2.55936e-231
9.47619e-235
3.47395e-238
1.26115e-241
4.53491e-245
1.61569e-248
5.70511e-252