/*--------------------------------*- C++ -*----------------------------------*\
| =========                 |                                                 |
| \\      /  F ield         | OpenFOAM: The Open Source CFD Toolbox           |
|  \\    /   O peration     | Version:  2.1.1                                 |
|   \\  /    A nd           | Web:      www.OpenFOAM.org                      |
|    \\/     M anipulation  |                                                 |
\*---------------------------------------------------------------------------*/
FoamFile
{
    version     2.0;
    format      ascii;
    class       volScalarField;
    location    "0.000700000";
    object      H2O2;
}
// * * * * * * * * * * * * * * * * * * * * * * * * * * * * * * * * * * * * * //

dimensions      [0 0 0 0 0 0 0];

internalField   nonuniform List<scalar> 
12384
(
6.76893e-10
2.78384e-10
4.75232e-11
1.48557e-12
3.15183e-14
7.06756e-16
1.22381e-17
2.01163e-19
3.28115e-21
5.24467e-23
7.22099e-25
8.574e-27
8.8656e-29
9.24294e-31
1.49192e-44
2.10401e-45
1.74393e-47
1.2348e-49
7.51364e-52
4.1629e-54
2.11015e-56
1.00102e-58
4.4437e-61
1.86023e-63
7.42897e-66
2.85405e-68
1.09451e-70
4.20603e-73
1.72193e-75
6.49492e-78
2.74746e-80
1.03366e-82
4.33722e-85
1.61706e-87
6.66597e-90
2.56988e-92
1.01814e-94
4.03901e-97
1.68459e-99
7.32747e-102
3.41641e-104
1.69441e-106
8.76317e-109
4.46798e-111
1.02895e-119
1.53885e-121
9.51243e-124
6.89119e-126
5.58782e-128
4.50654e-130
3.40904e-132
2.37468e-134
1.53986e-136
9.29929e-139
5.35074e-141
2.9244e-143
1.55714e-145
8.04233e-148
4.10907e-150
2.0538e-152
1.00871e-154
4.78169e-157
2.18791e-159
9.55036e-162
3.94332e-164
1.48908e-166
5.08021e-169
1.59154e-171
4.52358e-175
2.34005e-178
2.64529e-181
5.31446e-184
1.03448e-186
1.36211e-190
8.61628e-206
1.89707e-203
5.13724e-206
7.16431e-209
7.34012e-212
6.17116e-215
4.53417e-218
3.01126e-221
1.83635e-224
1.06778e-227
6.00959e-231
3.30781e-234
1.80185e-237
1.03347e-240
5.98665e-244
3.08075e-247
1.2869e-250
4.78372e-254
1.64996e-257
5.51654e-261
1.78271e-264
5.74066e-268
1.83538e-271
5.9199e-275
1.89625e-278
6.24441e-282
2.0979e-285
7.21856e-289
2.37406e-292
1.85503e-296
1.3698e-319
2.34274e-317
5.15063e-320
6.42285e-323
0
0
0
0
0
0
0
0
0
0
0
0
0
0
0
0
0
0
0
0
0
0
0
0
0
0
0
0
0
0
0
0
0
0
0
0
0
0
0
0
0
0
0
0
0
0
0
0
0
0
0
0
0
0
0
0
0
0
0
0
0
0
0
0
0
0
0
0
0
0
0
0
0
0
0
0
0
0
0
0
0
0
0
0
0
0
0
0
0
0
0
0
0
0
0
0
0
0
0
0
0
0
0
0
0
0
0
0
0
0
0
0
0
0
0
0
0
0
0
0
0
0
0
0
0
0
0
0
0
0
0
0
0
0
0
0
0
0
0
0
0
0
0
0
0
0
0
0
0
0
0
0
0
0
0
0
0
0
0
0
0
0
0
0
0
0
0
0
0
0
0
0
0
0
0
0
0
0
0
0
0
0
0
0
0
0
0
0
0
0
0
0
0
0
0
0
0
0
0
0
0
0
0
0
0
0
0
0
0
0
0
0
0
0
0
0
0
0
0
0
0
0
0
0
0
0
0
0
0
0
0
0
0
0
0
0
0
0
0
0
0
0
0
0
0
0
0
0
0
0
0
0
0
0
0
0
0
0
0
0
0
0
0
0
0
0
7.69382e-09
6.1545e-09
8.31573e-10
3.99551e-11
5.71592e-13
2.05851e-14
3.07516e-16
3.60802e-18
3.63068e-20
4.03816e-22
4.86603e-24
5.33117e-26
5.63621e-28
5.43176e-30
3.21056e-42
4.86627e-43
4.38304e-45
3.26987e-47
2.02731e-49
1.14119e-51
5.71349e-54
2.72698e-56
1.16031e-58
4.69593e-61
1.72844e-63
6.17229e-66
2.19584e-68
8.04656e-71
3.11731e-73
1.26775e-75
5.12554e-78
2.08229e-80
7.93791e-83
3.13305e-85
1.19933e-87
4.564e-90
1.76238e-92
6.48577e-95
2.4648e-97
9.47779e-100
3.63972e-102
1.51768e-104
6.44158e-107
2.782e-109
3.84722e-117
5.60857e-119
2.25197e-121
1.06815e-123
6.29892e-126
4.27567e-128
3.04383e-130
2.10047e-132
1.38186e-134
8.62419e-137
5.12764e-139
2.94827e-141
1.65762e-143
9.17592e-146
5.06578e-148
2.76094e-150
1.48791e-152
7.84196e-155
4.05626e-157
2.0229e-159
9.6039e-162
4.13449e-164
1.56348e-166
5.22409e-169
1.61623e-171
1.05698e-174
1.36594e-177
2.85843e-180
5.88023e-183
1.25166e-186
1.99915e-201
1.52819e-199
3.96539e-202
5.56078e-205
5.74205e-208
4.85132e-211
3.5779e-214
2.36838e-217
1.44786e-220
8.30696e-224
4.59122e-227
2.45563e-230
1.30935e-233
7.1327e-237
3.9784e-240
2.03379e-243
8.92779e-247
3.43107e-250
1.22321e-253
4.16628e-257
1.38476e-260
4.50946e-264
1.46317e-267
4.728e-271
1.53256e-274
5.02142e-278
1.67832e-281
5.68578e-285
1.90751e-288
2.35695e-292
3.94392e-315
2.37844e-313
4.92922e-316
5.69737e-319
4.94066e-322
0
0
0
0
0
0
0
0
0
0
0
0
0
0
0
0
0
0
0
0
0
0
0
0
0
0
0
0
0
0
0
0
0
0
0
0
0
0
0
0
0
0
0
0
0
0
0
0
0
0
0
0
0
0
0
0
0
0
0
0
0
0
0
0
0
0
0
0
0
0
0
0
0
0
0
0
0
0
0
0
0
0
0
0
0
0
0
0
0
0
0
0
0
0
0
0
0
0
0
0
0
0
0
0
0
0
0
0
0
0
0
0
0
0
0
0
0
0
0
0
0
0
0
0
0
0
0
0
0
0
0
0
0
0
0
0
0
0
0
0
0
0
0
0
0
0
0
0
0
0
0
0
0
0
0
0
0
0
0
0
0
0
0
0
0
0
0
0
0
0
0
0
0
0
0
0
0
0
0
0
0
0
0
0
0
0
0
0
0
0
0
0
0
0
0
0
0
0
0
0
0
0
0
0
0
0
0
0
0
0
0
0
0
0
0
0
0
0
0
0
0
0
0
0
0
0
0
0
0
0
0
0
0
0
0
0
0
0
0
0
0
0
0
0
0
0
0
0
0
0
0
0
0
0
0
0
0
0
0
0
0
0
0
0
0
4.37027e-10
4.83279e-10
8.18049e-11
1.65597e-11
1.85628e-13
3.06679e-14
2.76144e-16
2.34611e-18
6.13022e-21
1.1327e-23
1.46358e-26
8.4317e-29
1.46892e-30
3.19144e-32
3.04821e-42
6.11917e-43
5.42123e-45
3.56581e-47
1.9097e-49
8.586e-52
4.0915e-54
1.61565e-56
6.67192e-59
2.61672e-61
8.43722e-64
3.16744e-66
9.42554e-69
3.56892e-71
1.29799e-73
6.06865e-76
2.37643e-78
1.02805e-80
4.13029e-83
1.6064e-85
6.86595e-88
2.6003e-90
1.02717e-92
4.17864e-95
1.38473e-97
5.69114e-100
2.36485e-102
7.01582e-105
3.22123e-107
7.61874e-110
2.62108e-117
5.11988e-119
1.31594e-121
4.9344e-124
1.99262e-126
8.75631e-129
3.9688e-131
1.95175e-133
9.98486e-136
5.6435e-138
3.29381e-140
2.10295e-142
1.38101e-144
9.39967e-147
6.35983e-149
4.28021e-151
2.79997e-153
1.84601e-155
1.1879e-157
7.37387e-160
4.25119e-162
2.20587e-164
9.72637e-167
3.46631e-169
1.12753e-171
3.49981e-174
9.34423e-177
2.22716e-179
4.7183e-182
6.57955e-186
9.03752e-200
2.0444e-198
4.7575e-201
6.22471e-204
6.07178e-207
4.90266e-210
3.46924e-213
2.19836e-216
1.28411e-219
6.99291e-223
3.61721e-226
1.79109e-229
8.79864e-233
4.33097e-236
2.15392e-239
9.91723e-243
4.01298e-246
1.46857e-249
5.18612e-253
1.81018e-256
6.30307e-260
2.16066e-263
7.37314e-267
2.48428e-270
8.35231e-274
2.81677e-277
9.56363e-281
3.21508e-284
1.0685e-287
8.45973e-292
2.21711e-313
3.98871e-312
7.42413e-315
7.80524e-318
6.22029e-321
4.94066e-324
0
0
0
0
0
0
0
0
0
0
0
0
0
0
0
0
0
0
0
0
0
0
0
0
0
0
0
0
0
0
0
0
0
0
0
0
0
0
0
0
0
0
0
0
0
0
0
0
0
0
0
0
0
0
0
0
0
0
0
0
0
0
0
0
0
0
0
0
0
0
0
0
0
0
0
0
0
0
0
0
0
0
0
0
0
0
0
0
0
0
0
0
0
0
0
0
0
0
0
0
0
0
0
0
0
0
0
0
0
0
0
0
0
0
0
0
0
0
0
0
0
0
0
0
0
0
0
0
0
0
0
0
0
0
0
0
0
0
0
0
0
0
0
0
0
0
0
0
0
0
0
0
0
0
0
0
0
0
0
0
0
0
0
0
0
0
0
0
0
0
0
0
0
0
0
0
0
0
0
0
0
0
0
0
0
0
0
0
0
0
0
0
0
0
0
0
0
0
0
0
0
0
0
0
0
0
0
0
0
0
0
0
0
0
0
0
0
0
0
0
0
0
0
0
0
0
0
0
0
0
0
0
0
0
0
0
0
0
0
0
0
0
0
0
0
0
0
0
0
0
0
0
0
0
0
0
0
0
0
0
0
0
0
0
1.21806e-07
8.03943e-08
1.13758e-08
8.79535e-10
1.57623e-10
5.74256e-11
9.19352e-13
6.82448e-15
7.18844e-18
7.5175e-21
7.99289e-24
7.13017e-27
6.88274e-30
8.21697e-33
5.70716e-38
1.33428e-38
1.08637e-40
6.70438e-43
3.24383e-45
1.3063e-47
5.43773e-50
2.10817e-52
8.06255e-55
2.94364e-57
1.00637e-59
3.23504e-62
9.93043e-65
3.33022e-67
1.16722e-69
4.84289e-72
1.87862e-74
8.04995e-77
2.93788e-79
1.22584e-81
4.11757e-84
1.61685e-86
5.95157e-89
2.23646e-91
7.94059e-94
3.04158e-96
1.04225e-98
4.01115e-101
1.35279e-103
4.45286e-106
3.17192e-113
4.43405e-115
1.08455e-117
3.63338e-120
1.39467e-122
5.14126e-125
2.09962e-127
8.69575e-130
3.7669e-132
1.70615e-134
8.19602e-137
4.21533e-139
2.31947e-141
1.35146e-143
8.22567e-146
5.17388e-148
3.33954e-150
2.1782e-152
1.43821e-154
9.3076e-157
5.85216e-159
3.41268e-161
1.72931e-163
6.92225e-166
2.37362e-168
7.64846e-171
2.37295e-173
6.94611e-176
1.53151e-178
4.3529e-182
3.92252e-195
1.08768e-194
2.25376e-197
2.68797e-200
2.45061e-203
1.88172e-206
1.26791e-209
7.69884e-213
4.27965e-216
2.21675e-219
1.08152e-222
5.03922e-226
2.25669e-229
9.80095e-233
4.13694e-236
1.70523e-239
6.86186e-243
2.70426e-246
1.04235e-249
3.94395e-253
1.46278e-256
5.34107e-260
1.91733e-263
6.79683e-267
2.37762e-270
8.24078e-274
2.83207e-277
9.67365e-281
3.23242e-284
5.09189e-288
1.21014e-308
2.62691e-308
4.37997e-311
4.19552e-314
3.07736e-317
1.9234e-320
9.88131e-324
0
0
0
0
0
0
0
0
0
0
0
0
0
0
0
0
0
0
0
0
0
0
0
0
0
0
0
0
0
0
0
0
0
0
0
0
0
0
0
0
0
0
0
0
0
0
0
0
0
0
0
0
0
0
0
0
0
0
0
0
0
0
0
0
0
0
0
0
0
0
0
0
0
0
0
0
0
0
0
0
0
0
0
0
0
0
0
0
0
0
0
0
0
0
0
0
0
0
0
0
0
0
0
0
0
0
0
0
0
0
0
0
0
0
0
0
0
0
0
0
0
0
0
0
0
0
0
0
0
0
0
0
0
0
0
0
0
0
0
0
0
0
0
0
0
0
0
0
0
0
0
0
0
0
0
0
0
0
0
0
0
0
0
0
0
0
0
0
0
0
0
0
0
0
0
0
0
0
0
0
0
0
0
0
0
0
0
0
0
0
0
0
0
0
0
0
0
0
0
0
0
0
0
0
0
0
0
0
0
0
0
0
0
0
0
0
0
0
0
0
0
0
0
0
0
0
0
0
0
0
0
0
0
0
0
0
0
0
0
0
0
0
0
0
0
0
0
0
0
0
0
0
0
0
0
0
0
0
0
0
0
0
0
3.10288e-07
2.70099e-07
3.1464e-07
1.4069e-07
1.08291e-08
4.34339e-09
1.24589e-09
4.05008e-11
6.14165e-14
5.56974e-17
6.06341e-20
5.25591e-23
4.55777e-26
4.02889e-29
7.16777e-34
2.2034e-34
2.11586e-36
1.29487e-38
6.24813e-41
2.67706e-43
1.03514e-45
4.09492e-48
1.59643e-50
5.89859e-53
2.13173e-55
7.1853e-58
2.35821e-60
6.90774e-63
2.39901e-65
9.90445e-68
4.00363e-70
1.80574e-72
6.83616e-75
2.96821e-77
1.06376e-79
4.3824e-82
1.57078e-84
5.86494e-87
2.09338e-89
7.66278e-92
2.67365e-94
9.70459e-97
3.30686e-99
1.14507e-101
9.23887e-109
1.15262e-110
2.90505e-113
9.89395e-116
3.60114e-118
1.39531e-120
5.45027e-123
2.18361e-125
8.90032e-128
3.72496e-130
1.61161e-132
7.25027e-135
3.40931e-137
1.68373e-139
8.64625e-142
4.6853e-144
2.60144e-146
1.51431e-148
8.94969e-151
5.40012e-153
3.24884e-155
1.88846e-157
1.01079e-159
4.58135e-162
1.71908e-164
5.78621e-167
1.85446e-169
5.73706e-172
1.63909e-174
5.80779e-178
5.59187e-190
2.18198e-190
3.73719e-193
3.79962e-196
3.02423e-199
2.07723e-202
1.28281e-205
7.22848e-209
3.77271e-212
1.83635e-215
8.45785e-219
3.70732e-222
1.56721e-225
6.41012e-229
2.55881e-232
9.9742e-236
3.81563e-239
1.42939e-242
5.26745e-246
1.90291e-249
6.7756e-253
2.36908e-256
8.18358e-260
2.78431e-263
9.38161e-267
3.12659e-270
1.03456e-273
3.40388e-277
1.09558e-280
1.78156e-284
2.24744e-303
6.59284e-304
8.99305e-307
7.35807e-310
4.70007e-313
2.5962e-316
1.30512e-319
5.92879e-323
0
0
0
0
0
0
0
0
0
0
0
0
0
0
0
0
0
0
0
0
0
0
0
0
0
0
0
0
0
0
0
0
0
0
0
0
0
0
0
0
0
0
0
0
0
0
0
0
0
0
0
0
0
0
0
0
0
0
0
0
0
0
0
0
0
0
0
0
0
0
0
0
0
0
0
0
0
0
0
0
0
0
0
0
0
0
0
0
0
0
0
0
0
0
0
0
0
0
0
0
0
0
0
0
0
0
0
0
0
0
0
0
0
0
0
0
0
0
0
0
0
0
0
0
0
0
0
0
0
0
0
0
0
0
0
0
0
0
0
0
0
0
0
0
0
0
0
0
0
0
0
0
0
0
0
0
0
0
0
0
0
0
0
0
0
0
0
0
0
0
0
0
0
0
0
0
0
0
0
0
0
0
0
0
0
0
0
0
0
0
0
0
0
0
0
0
0
0
0
0
0
0
0
0
0
0
0
0
0
0
0
0
0
0
0
0
0
0
0
0
0
0
0
0
0
0
0
0
0
0
0
0
0
0
0
0
0
0
0
0
0
0
0
0
0
0
0
0
0
0
0
0
0
0
0
0
0
0
0
0
0
0
2.40169e-07
2.38767e-07
2.57615e-07
3.0508e-07
2.23375e-07
1.31995e-07
3.6578e-08
6.25919e-09
1.38218e-10
2.12105e-13
2.46541e-16
2.75705e-19
2.54586e-22
2.11922e-25
3.09344e-30
9.79809e-31
1.26076e-32
8.91691e-35
4.46179e-37
1.97224e-39
8.17691e-42
3.24134e-44
1.27497e-46
4.91161e-49
1.77637e-51
6.51999e-54
2.11369e-56
6.75709e-59
2.14655e-61
8.29413e-64
3.23385e-66
1.47514e-68
5.79543e-71
2.54627e-73
9.55173e-76
3.85653e-78
1.39309e-80
5.26712e-83
1.83366e-85
6.76668e-88
2.37279e-90
8.49246e-93
2.90509e-95
9.68942e-98
9.48983e-105
1.17531e-106
3.02778e-109
9.76107e-112
3.56627e-114
1.31785e-116
5.10655e-119
1.98004e-121
7.90186e-124
3.19485e-126
1.32899e-128
5.62871e-131
2.4671e-133
1.10698e-135
5.15954e-138
2.46708e-140
1.23636e-142
6.31626e-145
3.38339e-147
1.82463e-149
1.01709e-151
5.63425e-154
3.02375e-156
1.4792e-158
6.17154e-161
2.21673e-163
7.39515e-166
2.35913e-168
7.10722e-171
8.45632e-174
4.38098e-185
2.67942e-186
3.74885e-189
3.20807e-192
2.19101e-195
1.32233e-198
7.33845e-202
3.80305e-205
1.84758e-208
8.45978e-212
3.66867e-215
1.51901e-218
6.04871e-222
2.33416e-225
8.77565e-229
3.23118e-232
1.16757e-235
4.15022e-239
1.45118e-242
4.9985e-246
1.69538e-249
5.67079e-253
1.87095e-256
6.10233e-260
1.96813e-263
6.29607e-267
1.9995e-270
6.31359e-274
1.95427e-277
3.02854e-281
2.43428e-298
1.04425e-299
1.12619e-302
7.68562e-306
4.2241e-309
2.04424e-312
9.11223e-316
3.84423e-319
1.58101e-322
0
0
0
0
0
0
0
0
0
0
0
0
0
0
0
0
0
0
0
0
0
0
0
0
0
0
0
0
0
0
0
0
0
0
0
0
0
0
0
0
0
0
0
0
0
0
0
0
0
0
0
0
0
0
0
0
0
0
0
0
0
0
0
0
0
0
0
0
0
0
0
0
0
0
0
0
0
0
0
0
0
0
0
0
0
0
0
0
0
0
0
0
0
0
0
0
0
0
0
0
0
0
0
0
0
0
0
0
0
0
0
0
0
0
0
0
0
0
0
0
0
0
0
0
0
0
0
0
0
0
0
0
0
0
0
0
0
0
0
0
0
0
0
0
0
0
0
0
0
0
0
0
0
0
0
0
0
0
0
0
0
0
0
0
0
0
0
0
0
0
0
0
0
0
0
0
0
0
0
0
0
0
0
0
0
0
0
0
0
0
0
0
0
0
0
0
0
0
0
0
0
0
0
0
0
0
0
0
0
0
0
0
0
0
0
0
0
0
0
0
0
0
0
0
0
0
0
0
0
0
0
0
0
0
0
0
0
0
0
0
0
0
0
0
0
0
0
0
0
0
0
0
0
0
0
0
0
0
0
0
0
2.37028e-07
2.47205e-07
2.57425e-07
2.61623e-07
2.76568e-07
2.59568e-07
2.96675e-07
1.07649e-07
1.35738e-08
1.99982e-10
4.00499e-13
7.52834e-16
9.19441e-19
6.44898e-22
2.39445e-27
3.03076e-28
6.28207e-30
8.86259e-32
6.9427e-34
3.98451e-36
2.01614e-38
9.13127e-41
4.12298e-43
1.73405e-45
7.16119e-48
2.82604e-50
1.02979e-52
3.49003e-55
1.1031e-57
3.99578e-60
1.62243e-62
7.51689e-65
3.20637e-67
1.43085e-69
5.76823e-72
2.39323e-74
8.90553e-77
3.4645e-79
1.19246e-81
4.37766e-84
1.55958e-86
5.38756e-89
1.91394e-91
6.49062e-94
6.62092e-101
7.20059e-103
2.05441e-105
7.04541e-108
2.48341e-110
9.386e-113
3.50713e-115
1.36728e-117
5.33111e-120
2.14059e-122
8.72481e-125
3.62669e-127
1.53318e-129
6.65621e-132
2.90805e-134
1.32561e-136
6.05785e-139
2.90653e-141
1.40362e-143
7.03453e-146
3.56365e-148
1.8519e-150
9.54228e-153
4.72133e-155
2.12539e-157
8.34772e-160
2.93703e-162
9.74185e-165
3.06477e-167
6.10701e-170
4.50238e-180
4.08553e-182
4.50423e-185
3.21924e-188
1.87059e-191
9.75665e-195
4.78446e-198
2.24276e-201
1.00569e-204
4.30581e-208
1.75901e-211
6.87941e-215
2.58797e-218
9.42565e-222
3.34168e-225
1.15962e-228
3.9517e-232
1.32625e-235
4.38719e-239
1.43201e-242
4.61183e-246
1.46651e-249
4.60668e-253
1.43144e-256
4.40427e-260
1.34458e-263
4.07933e-267
1.23211e-270
3.65826e-274
5.80302e-278
3.73795e-293
2.17152e-295
1.73644e-298
9.59959e-302
4.45434e-305
1.86737e-308
7.33469e-312
2.75857e-315
1.00669e-318
3.60668e-322
0
0
0
0
0
0
0
0
0
0
0
0
0
0
0
0
0
0
0
0
0
0
0
0
0
0
0
0
0
0
0
0
0
0
0
0
0
0
0
0
0
0
0
0
0
0
0
0
0
0
0
0
0
0
0
0
0
0
0
0
0
0
0
0
0
0
0
0
0
0
0
0
0
0
0
0
0
0
0
0
0
0
0
0
0
0
0
0
0
0
0
0
0
0
0
0
0
0
0
0
0
0
0
0
0
0
0
0
0
0
0
0
0
0
0
0
0
0
0
0
0
0
0
0
0
0
0
0
0
0
0
0
0
0
0
0
0
0
0
0
0
0
0
0
0
0
0
0
0
0
0
0
0
0
0
0
0
0
0
0
0
0
0
0
0
0
0
0
0
0
0
0
0
0
0
0
0
0
0
0
0
0
0
0
0
0
0
0
0
0
0
0
0
0
0
0
0
0
0
0
0
0
0
0
0
0
0
0
0
0
0
0
0
0
0
0
0
0
0
0
0
0
0
0
0
0
0
0
0
0
0
0
0
0
0
0
0
0
0
0
0
0
0
0
0
0
0
0
0
0
0
0
0
0
0
0
0
0
0
0
2.52188e-07
2.59823e-07
2.52413e-07
2.18384e-07
1.41195e-07
1.87012e-07
2.13576e-07
2.51654e-07
1.01661e-07
1.08877e-08
8.01815e-11
2.37861e-13
4.21256e-16
3.91524e-19
2.45092e-25
8.08987e-27
1.12818e-28
1.89406e-30
3.75832e-32
5.44116e-34
4.94689e-36
3.50547e-38
2.0491e-40
1.04306e-42
4.99359e-45
2.13963e-47
8.85485e-50
3.31504e-52
1.06657e-54
3.5681e-57
1.50428e-59
7.06699e-62
3.21431e-64
1.46012e-66
6.28123e-69
2.66167e-71
1.02374e-73
4.03768e-76
1.42341e-78
5.2768e-81
1.83646e-83
6.66133e-86
2.33238e-88
8.24311e-91
8.79032e-98
9.35081e-100
2.64504e-102
9.19623e-105
3.29721e-107
1.2241e-109
4.55031e-112
1.72901e-114
6.67711e-117
2.63653e-119
1.06192e-121
4.37793e-124
1.81434e-126
7.79065e-129
3.29232e-131
1.46254e-133
6.3498e-136
2.91907e-138
1.32227e-140
6.28494e-143
2.97847e-145
1.45856e-147
7.17692e-150
3.50948e-152
1.6466e-154
7.05333e-157
2.66736e-159
9.28344e-162
3.05469e-164
8.25935e-167
1.56555e-175
2.18045e-178
1.77129e-181
1.04194e-184
5.13931e-188
2.30356e-191
9.85201e-195
4.11399e-198
1.68177e-201
6.68527e-205
2.56662e-208
9.48929e-212
3.38202e-215
1.1662e-218
3.90921e-222
1.28021e-225
4.11331e-229
1.30091e-232
4.05827e-236
1.25033e-239
3.80662e-243
1.14582e-246
3.41184e-250
1.00591e-253
2.93979e-257
8.53128e-261
2.4629e-264
7.08688e-268
2.01178e-271
3.21671e-275
2.1163e-288
1.70475e-291
9.20745e-295
3.95587e-298
1.51604e-301
5.43307e-305
1.86536e-308
6.22524e-312
2.03882e-315
6.59494e-319
2.12448e-322
0
0
0
0
0
0
0
0
0
0
0
0
0
0
0
0
0
0
0
0
0
0
0
0
0
0
0
0
0
0
0
0
0
0
0
0
0
0
0
0
0
0
0
0
0
0
0
0
0
0
0
0
0
0
0
0
0
0
0
0
0
0
0
0
0
0
0
0
0
0
0
0
0
0
0
0
0
0
0
0
0
0
0
0
0
0
0
0
0
0
0
0
0
0
0
0
0
0
0
0
0
0
0
0
0
0
0
0
0
0
0
0
0
0
0
0
0
0
0
0
0
0
0
0
0
0
0
0
0
0
0
0
0
0
0
0
0
0
0
0
0
0
0
0
0
0
0
0
0
0
0
0
0
0
0
0
0
0
0
0
0
0
0
0
0
0
0
0
0
0
0
0
0
0
0
0
0
0
0
0
0
0
0
0
0
0
0
0
0
0
0
0
0
0
0
0
0
0
0
0
0
0
0
0
0
0
0
0
0
0
0
0
0
0
0
0
0
0
0
0
0
0
0
0
0
0
0
0
0
0
0
0
0
0
0
0
0
0
0
0
0
0
0
0
0
0
0
0
0
0
0
0
0
0
0
0
0
0
0
2.75306e-07
2.62069e-07
1.81896e-07
4.99744e-08
2.72024e-08
5.79493e-08
1.0566e-07
8.48283e-08
5.46911e-08
1.90116e-08
4.16284e-09
4.1237e-11
1.81601e-13
3.54462e-16
1.44443e-18
8.66594e-21
5.4354e-23
8.97563e-26
2.73869e-28
1.91629e-30
2.24245e-32
3.08412e-34
3.30885e-36
3.11632e-38
2.48744e-40
1.84712e-42
1.36719e-44
1.02929e-46
6.58649e-49
4.18716e-51
2.57647e-53
1.44276e-55
7.94827e-58
4.11439e-60
2.03308e-62
9.84443e-65
4.5363e-67
1.99879e-69
8.59855e-72
3.35673e-74
1.30944e-76
4.73931e-79
1.76359e-81
7.79899e-84
3.16067e-86
1.27906e-88
3.29734e-91
1.45467e-93
8.31177e-96
4.84986e-98
2.11556e-100
8.78122e-103
3.29193e-105
1.2617e-107
4.60042e-110
1.75772e-112
6.60134e-115
2.6068e-117
1.03205e-119
4.27345e-122
1.75315e-124
7.59304e-127
3.15922e-129
1.40786e-131
5.89072e-134
2.68527e-136
1.13731e-138
5.32501e-141
2.33257e-143
1.10883e-145
5.11606e-148
2.43713e-150
1.1394e-152
5.0983e-155
2.07456e-157
7.65807e-160
2.64673e-162
8.46839e-165
2.36686e-167
6.16914e-170
1.82248e-172
1.27353e-175
7.16535e-179
3.40946e-182
1.4318e-185
5.54565e-189
2.06607e-192
7.61975e-196
2.81009e-199
1.02926e-202
3.70145e-206
1.29431e-209
4.3841e-213
1.43781e-216
4.57979e-220
1.42193e-223
4.3226e-227
1.29107e-230
3.80123e-234
1.10506e-237
3.17776e-241
9.04247e-245
2.54993e-248
7.12952e-252
1.98018e-255
5.46961e-259
1.5061e-262
4.14143e-266
1.13834e-269
2.97806e-273
4.37814e-277
1.93073e-281
4.34445e-285
1.57713e-288
5.31247e-292
1.70531e-295
5.29461e-299
1.60588e-302
4.79451e-306
1.41668e-309
4.16232e-313
1.21927e-316
3.56913e-320
9.88131e-324
0
0
0
0
0
0
0
0
0
0
0
0
0
0
0
0
0
0
0
0
0
0
0
0
0
0
0
0
0
0
0
0
0
0
0
0
0
0
0
0
0
0
0
0
0
0
0
0
0
0
0
0
0
0
0
0
0
0
0
0
0
0
0
0
0
0
0
0
0
0
0
0
0
0
0
0
0
0
0
0
0
0
0
0
0
0
0
0
0
0
0
0
0
0
0
0
0
0
0
0
0
0
0
0
0
0
0
0
0
0
0
0
0
0
0
0
0
0
0
0
0
0
0
0
0
0
0
0
0
0
0
0
0
0
0
0
0
0
0
0
0
0
0
0
0
0
0
0
0
0
0
0
0
0
0
0
0
0
0
0
0
0
0
0
0
0
0
0
0
0
0
0
0
0
0
0
0
0
0
0
0
0
0
0
0
0
0
0
0
0
0
0
0
0
0
0
0
0
0
0
0
0
0
0
0
0
0
0
0
0
0
0
0
0
0
0
0
0
0
0
0
0
0
0
0
0
0
0
0
0
0
0
0
0
0
0
0
0
0
0
0
0
0
0
0
0
0
0
0
0
0
0
0
0
0
0
0
0
0
0
0
0
0
0
0
0
0
0
0
0
0
0
0
0
0
0
2.5781e-07
1.76167e-07
2.61242e-08
4.83424e-09
3.70827e-09
1.07202e-08
3.20276e-08
4.03142e-08
3.06263e-08
1.0352e-08
1.56465e-09
6.57417e-11
2.77728e-13
2.61267e-15
1.41334e-17
4.01437e-20
7.19671e-23
1.05788e-25
2.1431e-28
1.04481e-30
8.46466e-33
8.88818e-35
8.36109e-37
7.32689e-39
7.08134e-41
6.15918e-43
4.88218e-45
3.80242e-47
2.78795e-49
1.9338e-51
1.45987e-53
9.43191e-56
6.18716e-58
3.74197e-60
2.23473e-62
1.24715e-64
7.10768e-67
3.64677e-69
1.98208e-71
9.58147e-74
4.80398e-76
2.23364e-78
1.05242e-80
4.66446e-83
2.11245e-85
9.18393e-88
3.613e-90
1.42956e-92
5.3764e-95
2.05311e-97
8.87311e-100
3.41634e-102
1.40578e-104
5.48357e-107
2.24336e-109
9.11177e-112
3.82362e-114
1.63453e-116
7.18197e-119
3.2182e-121
1.47569e-123
6.81418e-126
3.21097e-128
1.50433e-130
7.17581e-133
3.3884e-135
1.61824e-137
7.64514e-140
3.62292e-142
1.69948e-144
7.95796e-147
3.69283e-149
1.69771e-151
7.64765e-154
3.27987e-156
1.29459e-158
4.71733e-161
1.62437e-163
5.17555e-166
1.63784e-168
5.19756e-171
1.52179e-173
6.99418e-177
2.89538e-180
1.08358e-183
3.75362e-187
1.24632e-190
4.10485e-194
1.36818e-197
4.61562e-201
1.55568e-204
5.16193e-208
1.6695e-211
5.24153e-215
1.59771e-218
4.73966e-222
1.37343e-225
3.90314e-229
1.09164e-232
3.01355e-236
8.23042e-240
2.22751e-243
5.98232e-247
1.59625e-250
4.23773e-254
1.12099e-257
2.95873e-261
7.80668e-265
2.06203e-268
5.46805e-272
1.38897e-275
3.5963e-279
9.76757e-283
2.61031e-286
6.97767e-290
1.86033e-293
4.94454e-297
1.31133e-300
3.47616e-304
9.23048e-308
2.45952e-311
6.58506e-315
1.77272e-318
4.79244e-322
0
0
0
0
0
0
0
0
0
0
0
0
0
0
0
0
0
0
0
0
0
0
0
0
0
0
0
0
0
0
0
0
0
0
0
0
0
0
0
0
0
0
0
0
0
0
0
0
0
0
0
0
0
0
0
0
0
0
0
0
0
0
0
0
0
0
0
0
0
0
0
0
0
0
0
0
0
0
0
0
0
0
0
0
0
0
0
0
0
0
0
0
0
0
0
0
0
0
0
0
0
0
0
0
0
0
0
0
0
0
0
0
0
0
0
0
0
0
0
0
0
0
0
0
0
0
0
0
0
0
0
0
0
0
0
0
0
0
0
0
0
0
0
0
0
0
0
0
0
0
0
0
0
0
0
0
0
0
0
0
0
0
0
0
0
0
0
0
0
0
0
0
0
0
0
0
0
0
0
0
0
0
0
0
0
0
0
0
0
0
0
0
0
0
0
0
0
0
0
0
0
0
0
0
0
0
0
0
0
0
0
0
0
0
0
0
0
0
0
0
0
0
0
0
0
0
0
0
0
0
0
0
0
0
0
0
0
0
0
0
0
0
0
0
0
0
0
0
0
0
0
0
0
0
0
0
0
0
0
0
0
0
0
0
0
0
0
0
0
0
0
0
0
0
0
0
7.31789e-08
1.47007e-08
1.1963e-09
3.30273e-10
6.54024e-10
2.76592e-09
1.09206e-08
1.4575e-08
1.54992e-08
6.77864e-09
6.6278e-10
3.52425e-11
1.17789e-13
6.45134e-16
2.86379e-18
8.73325e-21
1.81428e-23
3.01668e-26
6.1601e-29
2.20127e-31
9.9492e-34
5.77724e-36
3.725e-38
2.59962e-40
1.86031e-42
1.38762e-44
9.92467e-47
7.12589e-49
4.89905e-51
3.54914e-53
2.3493e-55
1.50679e-57
9.14524e-60
5.46632e-62
3.14387e-64
1.71589e-66
9.52437e-69
4.85952e-71
2.55809e-73
1.25353e-75
6.20311e-78
2.94987e-80
1.47633e-82
6.88451e-85
3.3744e-87
1.56545e-89
6.10285e-92
2.36346e-94
8.47351e-97
3.18156e-99
1.21792e-101
4.60934e-104
1.78348e-106
6.89049e-109
2.73346e-111
1.10229e-113
4.54819e-116
1.93671e-118
8.46206e-121
3.80054e-123
1.75014e-125
8.17382e-128
3.89281e-130
1.86274e-132
9.02324e-135
4.37682e-137
2.13596e-139
1.03747e-141
5.04444e-144
2.42961e-146
1.16295e-148
5.52539e-151
2.60837e-153
1.21842e-155
5.54274e-158
2.39029e-160
9.52487e-163
3.50986e-165
1.22693e-167
4.08651e-170
1.3085e-172
3.60894e-175
1.37033e-178
4.53769e-182
1.43505e-185
4.72156e-189
1.65999e-192
6.03878e-196
2.17984e-199
7.61956e-203
2.55864e-206
8.26409e-210
2.58048e-213
7.84148e-217
2.33355e-220
6.83686e-224
1.97907e-227
5.67087e-231
1.60942e-234
4.52418e-238
1.25952e-241
3.4745e-245
9.5062e-249
2.58395e-252
6.99164e-256
1.88808e-259
5.10091e-263
1.38157e-266
3.75754e-270
1.02687e-273
2.83017e-277
7.78225e-281
2.1293e-284
5.82847e-288
1.5837e-291
4.26427e-295
1.13729e-298
3.00918e-302
7.92114e-306
2.08129e-309
5.47909e-313
1.44935e-316
3.85915e-320
9.88131e-324
0
0
0
0
0
0
0
0
0
0
0
0
0
0
0
0
0
0
0
0
0
0
0
0
0
0
0
0
0
0
0
0
0
0
0
0
0
0
0
0
0
0
0
0
0
0
0
0
0
0
0
0
0
0
0
0
0
0
0
0
0
0
0
0
0
0
0
0
0
0
0
0
0
0
0
0
0
0
0
0
0
0
0
0
0
0
0
0
0
0
0
0
0
0
0
0
0
0
0
0
0
0
0
0
0
0
0
0
0
0
0
0
0
0
0
0
0
0
0
0
0
0
0
0
0
0
0
0
0
0
0
0
0
0
0
0
0
0
0
0
0
0
0
0
0
0
0
0
0
0
0
0
0
0
0
0
0
0
0
0
0
0
0
0
0
0
0
0
0
0
0
0
0
0
0
0
0
0
0
0
0
0
0
0
0
0
0
0
0
0
0
0
0
0
0
0
0
0
0
0
0
0
0
0
0
0
0
0
0
0
0
0
0
0
0
0
0
0
0
0
0
0
0
0
0
0
0
0
0
0
0
0
0
0
0
0
0
0
0
0
0
0
0
0
0
0
0
0
0
0
0
0
0
0
0
0
0
0
0
0
0
0
0
0
0
0
0
0
0
0
0
0
0
0
0
0
2.60613e-09
3.47138e-10
1.17062e-10
9.68123e-11
1.87731e-10
6.50136e-10
1.66532e-09
4.22367e-09
4.77137e-09
2.43955e-09
1.73076e-10
5.17422e-12
1.35739e-14
4.92421e-17
1.75929e-19
5.38877e-22
1.13932e-24
2.27236e-27
4.71225e-30
1.24906e-32
4.12439e-35
1.50473e-37
6.12647e-40
2.88907e-42
1.55943e-44
9.66047e-47
6.30236e-49
4.76787e-51
3.19821e-53
2.13072e-55
1.32964e-57
8.36497e-60
4.84727e-62
2.83175e-64
1.57686e-66
8.37015e-69
4.51186e-71
2.24179e-73
1.14418e-75
5.44113e-78
2.60175e-80
1.19461e-82
5.42586e-85
2.40001e-87
1.04986e-89
4.47252e-92
1.83361e-94
7.34695e-97
2.76893e-99
1.08438e-101
4.13815e-104
1.61175e-106
6.21101e-109
2.46772e-111
9.82873e-114
4.07021e-116
1.7119e-118
7.47761e-121
3.35265e-123
1.53766e-125
7.23373e-128
3.42776e-130
1.65637e-132
8.00134e-135
3.92047e-137
1.91634e-139
9.45714e-142
4.64475e-144
2.2871e-146
1.11975e-148
5.46633e-151
2.66077e-153
1.28763e-155
6.15083e-158
2.86524e-160
1.27626e-162
5.23386e-165
1.96311e-167
6.90149e-170
2.30724e-172
7.29592e-175
3.91441e-178
1.82551e-181
7.59282e-185
2.92128e-188
1.07669e-191
3.90324e-195
1.41125e-198
5.0937e-202
1.82313e-205
6.41881e-209
2.21168e-212
7.44558e-216
2.45209e-219
7.92236e-223
2.51948e-226
7.91027e-230
2.45782e-233
7.57012e-237
2.31443e-240
7.03084e-244
2.12478e-247
6.39547e-251
1.92011e-254
5.75834e-258
1.72748e-261
5.18928e-265
1.56175e-268
4.70901e-272
1.42188e-275
4.29977e-279
1.29546e-282
3.88107e-286
1.15758e-289
3.42508e-293
1.00336e-296
2.90716e-300
8.33225e-304
2.36547e-307
6.6689e-311
1.87368e-314
5.26728e-318
1.48714e-321
0
0
0
0
0
0
0
0
0
0
0
0
0
0
0
0
0
0
0
0
0
0
0
0
0
0
0
0
0
0
0
0
0
0
0
0
0
0
0
0
0
0
0
0
0
0
0
0
0
0
0
0
0
0
0
0
0
0
0
0
0
0
0
0
0
0
0
0
0
0
0
0
0
0
0
0
0
0
0
0
0
0
0
0
0
0
0
0
0
0
0
0
0
0
0
0
0
0
0
0
0
0
0
0
0
0
0
0
0
0
0
0
0
0
0
0
0
0
0
0
0
0
0
0
0
0
0
0
0
0
0
0
0
0
0
0
0
0
0
0
0
0
0
0
0
0
0
0
0
0
0
0
0
0
0
0
0
0
0
0
0
0
0
0
0
0
0
0
0
0
0
0
0
0
0
0
0
0
0
0
0
0
0
0
0
0
0
0
0
0
0
0
0
0
0
0
0
0
0
0
0
0
0
0
0
0
0
0
0
0
0
0
0
0
0
0
0
0
0
0
0
0
0
0
0
0
0
0
0
0
0
0
0
0
0
0
0
0
0
0
0
0
0
0
0
0
0
0
0
0
0
0
0
0
0
0
0
0
0
0
0
0
0
0
0
0
0
0
0
0
0
0
0
0
0
0
0
2.23082e-10
6.38467e-11
3.92936e-11
4.65922e-11
4.91714e-11
8.9121e-11
9.44458e-11
1.49339e-10
2.44731e-10
1.33716e-10
1.4097e-11
1.12069e-13
2.3239e-16
7.78508e-19
2.28994e-21
4.65459e-24
9.43628e-27
1.65367e-29
3.15726e-32
6.30949e-35
1.76079e-37
5.91964e-40
2.40233e-42
1.19828e-44
6.82568e-47
4.20238e-49
2.68251e-51
1.71481e-53
1.05938e-55
6.74011e-58
3.8974e-60
2.35126e-62
1.29606e-64
7.24842e-67
3.82902e-69
1.99651e-71
1.00663e-73
4.95771e-76
2.38219e-78
1.11348e-80
5.07985e-83
2.2796e-85
9.97071e-88
4.29996e-90
1.80469e-92
7.52829e-95
2.98057e-97
1.21789e-99
4.56239e-102
1.82203e-104
6.83608e-107
2.71114e-109
1.03726e-111
4.20994e-114
1.69429e-116
7.18967e-119
3.09677e-121
1.3854e-123
6.35341e-126
2.97217e-128
1.41551e-130
6.81287e-133
3.30613e-135
1.61828e-137
7.93648e-140
3.92291e-142
1.93371e-144
9.58415e-147
4.70753e-149
2.31797e-151
1.1305e-153
5.51634e-156
2.67658e-158
1.28696e-160
6.07259e-163
2.74772e-165
1.14707e-167
4.33796e-170
1.52024e-172
5.01689e-175
3.37437e-178
1.99377e-181
1.03136e-184
4.77195e-188
2.03175e-191
8.2019e-195
3.21912e-198
1.24796e-201
4.80252e-205
1.83008e-208
6.87235e-212
2.53452e-215
9.17419e-219
3.26423e-222
1.14486e-225
3.96968e-229
1.36421e-232
4.65548e-236
1.57924e-239
5.32847e-243
1.78868e-246
5.97609e-250
1.98773e-253
6.58479e-257
2.17292e-260
7.14397e-264
2.33986e-267
7.63159e-271
2.47747e-274
7.98858e-278
2.56725e-281
8.17706e-285
2.58015e-288
8.10196e-292
2.52042e-295
7.77866e-299
2.38192e-302
7.23886e-306
2.1846e-309
6.55132e-313
1.95407e-316
5.80379e-320
1.4822e-323
0
0
0
0
0
0
0
0
0
0
0
0
0
0
0
0
0
0
0
0
0
0
0
0
0
0
0
0
0
0
0
0
0
0
0
0
0
0
0
0
0
0
0
0
0
0
0
0
0
0
0
0
0
0
0
0
0
0
0
0
0
0
0
0
0
0
0
0
0
0
0
0
0
0
0
0
0
0
0
0
0
0
0
0
0
0
0
0
0
0
0
0
0
0
0
0
0
0
0
0
0
0
0
0
0
0
0
0
0
0
0
0
0
0
0
0
0
0
0
0
0
0
0
0
0
0
0
0
0
0
0
0
0
0
0
0
0
0
0
0
0
0
0
0
0
0
0
0
0
0
0
0
0
0
0
0
0
0
0
0
0
0
0
0
0
0
0
0
0
0
0
0
0
0
0
0
0
0
0
0
0
0
0
0
0
0
0
0
0
0
0
0
0
0
0
0
0
0
0
0
0
0
0
0
0
0
0
0
0
0
0
0
0
0
0
0
0
0
0
0
0
0
0
0
0
0
0
0
0
0
0
0
0
0
0
0
0
0
0
0
0
0
0
0
0
0
0
0
0
0
0
0
0
0
0
0
0
0
0
0
0
0
0
0
0
0
0
0
0
0
0
0
0
0
0
0
0
1.37866e-11
2.02285e-11
2.35402e-11
2.54025e-11
1.20698e-11
7.46896e-12
3.25719e-12
2.82813e-12
4.47722e-12
2.4929e-12
1.557e-13
3.30162e-16
7.28404e-19
1.54118e-21
3.88455e-24
9.54059e-27
2.1656e-29
4.85242e-32
1.09287e-34
2.9171e-37
9.18913e-40
3.60655e-42
1.69581e-44
9.1798e-47
5.39136e-49
3.27005e-51
1.99696e-53
1.19512e-55
7.15185e-58
4.19489e-60
2.37242e-62
1.33623e-64
7.15522e-67
3.81401e-69
1.93295e-71
9.73264e-74
4.69078e-76
2.23804e-78
1.02953e-80
4.6615e-83
2.05338e-85
8.92354e-88
3.79357e-90
1.58965e-92
6.53155e-95
2.66359e-97
1.04969e-99
4.23427e-102
1.60857e-104
6.36718e-107
2.41138e-109
9.58069e-112
3.7216e-114
1.5306e-116
6.29056e-119
2.7299e-121
1.20142e-123
5.50037e-126
2.55599e-128
1.21543e-130
5.82743e-133
2.82641e-135
1.37812e-137
6.76655e-140
3.33023e-142
1.64792e-144
8.12816e-147
4.02696e-149
1.97565e-151
9.70624e-154
4.72713e-156
2.30115e-158
1.11402e-160
5.35925e-163
2.52757e-165
1.14805e-167
4.86643e-170
1.86564e-172
6.52009e-175
8.63707e-178
3.56307e-181
2.032e-184
1.0961e-187
5.37839e-191
2.44645e-194
1.05746e-197
4.43689e-201
1.83128e-204
7.47079e-208
3.00956e-211
1.1939e-214
4.65618e-218
1.78534e-221
6.74131e-225
2.51239e-228
9.26107e-232
3.38183e-235
1.22455e-238
4.39852e-242
1.56746e-245
5.5423e-249
1.94467e-252
6.77283e-256
2.34188e-259
8.04107e-263
2.74208e-266
9.28611e-270
3.12244e-273
1.04219e-276
3.45121e-280
1.13429e-283
3.69684e-287
1.1948e-290
3.8323e-294
1.21931e-297
3.85037e-301
1.20729e-304
3.76045e-308
1.16422e-311
3.58456e-315
1.09827e-318
3.35965e-322
0
0
0
0
0
0
0
0
0
0
0
0
0
0
0
0
0
0
0
0
0
0
0
0
0
0
0
0
0
0
0
0
0
0
0
0
0
0
0
0
0
0
0
0
0
0
0
0
0
0
0
0
0
0
0
0
0
0
0
0
0
0
0
0
0
0
0
0
0
0
0
0
0
0
0
0
0
0
0
0
0
0
0
0
0
0
0
0
0
0
0
0
0
0
0
0
0
0
0
0
0
0
0
0
0
0
0
0
0
0
0
0
0
0
0
0
0
0
0
0
0
0
0
0
0
0
0
0
0
0
0
0
0
0
0
0
0
0
0
0
0
0
0
0
0
0
0
0
0
0
0
0
0
0
0
0
0
0
0
0
0
0
0
0
0
0
0
0
0
0
0
0
0
0
0
0
0
0
0
0
0
0
0
0
0
0
0
0
0
0
0
0
0
0
0
0
0
0
0
0
0
0
0
0
0
0
0
0
0
0
0
0
0
0
0
0
0
0
0
0
0
0
0
0
0
0
0
0
0
0
0
0
0
0
0
0
0
0
0
0
0
0
0
0
0
0
0
0
0
0
0
0
0
0
0
0
0
0
0
0
0
0
0
0
0
0
0
0
0
0
0
0
0
0
0
0
0
0
8.00277e-12
5.64508e-12
3.70207e-12
2.2905e-12
9.92996e-13
2.56694e-13
2.73996e-14
1.382e-14
1.32562e-14
5.85973e-15
4.38534e-16
1.05387e-18
2.35283e-21
5.50119e-24
1.3495e-26
3.3218e-29
7.94615e-32
1.98305e-34
5.30497e-37
1.68989e-39
6.62427e-42
3.16064e-44
1.74283e-46
1.01979e-48
6.17573e-51
3.70704e-53
2.19485e-55
1.26788e-57
7.38015e-60
4.08982e-62
2.26719e-64
1.21588e-66
6.32914e-69
3.24213e-71
1.59392e-73
7.75357e-76
3.60835e-78
1.67147e-80
7.41513e-83
3.28377e-85
1.40308e-87
5.98155e-90
2.47848e-92
1.02119e-94
4.09718e-97
1.6461e-99
6.41826e-102
2.53751e-104
9.6895e-107
3.81187e-109
1.46051e-111
5.83348e-114
2.31623e-116
9.68358e-119
4.08675e-121
1.81308e-123
8.15412e-126
3.8002e-128
1.78809e-130
8.57364e-133
4.13724e-135
2.01228e-137
9.83622e-140
4.83425e-142
2.3804e-144
1.17768e-146
5.80709e-149
2.87089e-151
1.40886e-153
6.91858e-156
3.37052e-158
1.64258e-160
7.93513e-163
3.80607e-165
1.78809e-167
8.11909e-170
3.45998e-172
1.32262e-174
3.33975e-177
1.34845e-180
6.16457e-184
3.23561e-187
1.70428e-190
8.4811e-194
3.97758e-197
1.78576e-200
7.80072e-204
3.34975e-207
1.41904e-210
5.92661e-214
2.43594e-217
9.8445e-221
3.91357e-224
1.53268e-227