/*--------------------------------*- C++ -*----------------------------------*\
| =========                 |                                                 |
| \\      /  F ield         | OpenFOAM: The Open Source CFD Toolbox           |
|  \\    /   O peration     | Version:  2.1.1                                 |
|   \\  /    A nd           | Web:      www.OpenFOAM.org                      |
|    \\/     M anipulation  |                                                 |
\*---------------------------------------------------------------------------*/
FoamFile
{
    version     2.0;
    format      ascii;
    class       volScalarField;
    location    "0.000700000";
    object      HO2;
}
// * * * * * * * * * * * * * * * * * * * * * * * * * * * * * * * * * * * * * //

dimensions      [0 0 0 0 0 0 0];

internalField   nonuniform List<scalar> 
12384
(
6.78639e-09
2.67262e-09
4.47301e-10
1.37687e-11
2.88085e-13
6.71164e-15
1.13733e-16
1.79273e-18
2.90168e-20
4.6617e-22
6.36052e-24
7.56945e-26
7.87928e-28
8.24845e-30
1.35253e-43
1.9147e-44
1.57826e-46
1.11366e-48
6.71671e-51
3.74626e-53
1.8884e-55
9.0093e-58
3.99667e-60
1.67271e-62
6.68384e-65
2.55504e-67
9.85825e-70
3.76851e-72
1.56018e-74
5.83965e-77
2.49238e-79
9.31928e-82
3.93997e-84
1.46171e-86
6.06457e-89
2.34011e-91
9.27541e-94
3.68382e-96
1.53586e-98
6.6826e-101
3.11733e-103
1.54455e-105
7.99158e-108
4.05029e-110
9.43574e-119
1.41193e-120
8.72909e-123
6.32394e-125
5.12837e-127
4.13662e-129
3.12946e-131
2.18022e-133
1.41397e-135
8.54033e-138
4.91503e-140
2.68706e-142
1.43107e-144
7.39419e-147
3.77822e-149
1.88905e-151
9.27723e-154
4.39872e-156
2.0125e-158
8.786e-161
3.62738e-163
1.36982e-165
4.67293e-168
1.46384e-170
4.16044e-174
2.15207e-177
2.43273e-180
4.88712e-183
9.51236e-186
1.25126e-189
7.91508e-205
1.74441e-202
4.72415e-205
6.58861e-208
6.75047e-211
5.67575e-214
4.17037e-217
2.76987e-220
1.68922e-223
9.82312e-227
5.52869e-230
3.04325e-233
1.65781e-236
9.5092e-240
5.50879e-243
2.83483e-246
1.18408e-249
4.4013e-253
1.51799e-256
5.07518e-260
1.63999e-263
5.28081e-267
1.68825e-270
5.4449e-274
1.74399e-277
5.74279e-281
1.92932e-284
6.63812e-288
2.18302e-291
1.70407e-295
1.25831e-318
2.15418e-316
4.73641e-319
5.68175e-322
0
0
0
0
0
0
0
0
0
0
0
0
0
0
0
0
0
0
0
0
0
0
0
0
0
0
0
0
0
0
0
0
0
0
0
0
0
0
0
0
0
0
0
0
0
0
0
0
0
0
0
0
0
0
0
0
0
0
0
0
0
0
0
0
0
0
0
0
0
0
0
0
0
0
0
0
0
0
0
0
0
0
0
0
0
0
0
0
0
0
0
0
0
0
0
0
0
0
0
0
0
0
0
0
0
0
0
0
0
0
0
0
0
0
0
0
0
0
0
0
0
0
0
0
0
0
0
0
0
0
0
0
0
0
0
0
0
0
0
0
0
0
0
0
0
0
0
0
0
0
0
0
0
0
0
0
0
0
0
0
0
0
0
0
0
0
0
0
0
0
0
0
0
0
0
0
0
0
0
0
0
0
0
0
0
0
0
0
0
0
0
0
0
0
0
0
0
0
0
0
0
0
0
0
0
0
0
0
0
0
0
0
0
0
0
0
0
0
0
0
0
0
0
0
0
0
0
0
0
0
0
0
0
0
0
0
0
0
0
0
0
0
0
0
0
0
0
0
0
0
0
0
0
0
0
0
0
0
0
0
0
0
0
0
0
0
1.24539e-07
9.62397e-08
1.33186e-08
6.42665e-10
9.18966e-12
3.38149e-13
4.92966e-15
5.5225e-17
5.05904e-19
5.18824e-21
6.02298e-23
5.97544e-25
6.1544e-27
6.07609e-29
5.12951e-41
7.82013e-42
6.93351e-44
5.10525e-46
3.11669e-48
1.70786e-50
8.41159e-53
3.85237e-55
1.60923e-57
6.30513e-60
2.24124e-62
7.82349e-65
2.6954e-67
9.6016e-70
3.61568e-72
1.44335e-74
5.64539e-77
2.30437e-79
8.38557e-82
3.32772e-84
1.2454e-86
4.70761e-89
1.82932e-91
6.58529e-94
2.51236e-96
9.68084e-99
3.64729e-101
1.55291e-103
6.51041e-106
2.70217e-108
3.97486e-116
6.00052e-118
2.40502e-120
1.13704e-122
6.68508e-125
4.51686e-127
3.21428e-129
2.21281e-131
1.45323e-133
9.07574e-136
5.37511e-138
3.09385e-140
1.73571e-142
9.61982e-145
5.31309e-147
2.89505e-149
1.5594e-151
8.2059e-154
4.2458e-156
2.11477e-158
1.00405e-160
4.31015e-163
1.62753e-165
5.42006e-168
1.67316e-170
1.09096e-173
1.40733e-176
2.93824e-179
6.02517e-182
1.20209e-185
1.92016e-200
1.56593e-198
4.07486e-201
5.72877e-204
5.92754e-207
5.01797e-210
3.71356e-213
2.46337e-216
1.51059e-219
8.68138e-223
4.80906e-226
2.5735e-229
1.37575e-232
7.50842e-236
4.19883e-239
2.14457e-242
9.39665e-246
3.60125e-249
1.2829e-252
4.36128e-256
1.44854e-259
4.70282e-263
1.52339e-266
4.90596e-270
1.5865e-273
5.18307e-277
1.72905e-280
5.84429e-284
1.95431e-287
2.26391e-291
3.78792e-314
2.43704e-312
5.06408e-315
5.87001e-318
5.10864e-321
4.94066e-324
0
0
0
0
0
0
0
0
0
0
0
0
0
0
0
0
0
0
0
0
0
0
0
0
0
0
0
0
0
0
0
0
0
0
0
0
0
0
0
0
0
0
0
0
0
0
0
0
0
0
0
0
0
0
0
0
0
0
0
0
0
0
0
0
0
0
0
0
0
0
0
0
0
0
0
0
0
0
0
0
0
0
0
0
0
0
0
0
0
0
0
0
0
0
0
0
0
0
0
0
0
0
0
0
0
0
0
0
0
0
0
0
0
0
0
0
0
0
0
0
0
0
0
0
0
0
0
0
0
0
0
0
0
0
0
0
0
0
0
0
0
0
0
0
0
0
0
0
0
0
0
0
0
0
0
0
0
0
0
0
0
0
0
0
0
0
0
0
0
0
0
0
0
0
0
0
0
0
0
0
0
0
0
0
0
0
0
0
0
0
0
0
0
0
0
0
0
0
0
0
0
0
0
0
0
0
0
0
0
0
0
0
0
0
0
0
0
0
0
0
0
0
0
0
0
0
0
0
0
0
0
0
0
0
0
0
0
0
0
0
0
0
0
0
0
0
0
0
0
0
0
0
0
0
0
0
0
0
0
0
0
0
0
0
5.94924e-09
6.59259e-09
1.01609e-09
2.07427e-10
2.35195e-12
3.88313e-13
3.43325e-15
2.88822e-17
7.83744e-20
1.50811e-22
1.96033e-25
1.19976e-27
2.2056e-29
4.99728e-31
3.41824e-41
6.9329e-42
6.17191e-44
4.04923e-46
2.16561e-48
9.68125e-51
4.64042e-53
1.82371e-55
7.54939e-58
2.97806e-60
9.51691e-63
3.61455e-65
1.06691e-67
4.13654e-70
1.49563e-72
7.08487e-75
2.77023e-77
1.2033e-79
4.86222e-82
1.88348e-84
8.15904e-87
3.08232e-89
1.22551e-91
5.02195e-94
1.65169e-96
6.84233e-99
2.87739e-101
8.38374e-104
3.92943e-106
9.00998e-109
2.89198e-116
6.01205e-118
1.54831e-120
5.82745e-123
2.35381e-125
1.03805e-127
4.71094e-130
2.32502e-132
1.18998e-134
6.74803e-137
3.93836e-139
2.52055e-141
1.65636e-143
1.12979e-145
7.65041e-148
5.15448e-150
3.36928e-152
2.22182e-154
1.42898e-156
8.87269e-159
5.11343e-161
2.65059e-163
1.16742e-165
4.15433e-168
1.34925e-170
4.18218e-173
1.11554e-175
2.65511e-178
5.61298e-181
7.32117e-185
1.0057e-198
2.43203e-197
5.67099e-200
7.4305e-203
7.25529e-206
5.86566e-209
4.15787e-212
2.63833e-215
1.54328e-218
8.41384e-222
4.35588e-225
2.15784e-228
1.06124e-231
5.23071e-235
2.60455e-238
1.19885e-241
4.84476e-245
1.77068e-248
6.24862e-252
2.17968e-255
7.58549e-259
2.59682e-262
8.85154e-266
2.9776e-269
9.99493e-273
3.3658e-276
1.14169e-279
3.83269e-283
1.27106e-286
9.41335e-291
2.46722e-312
4.74493e-311
8.84892e-314
9.31708e-317
7.43322e-320
4.94066e-323
0
0
0
0
0
0
0
0
0
0
0
0
0
0
0
0
0
0
0
0
0
0
0
0
0
0
0
0
0
0
0
0
0
0
0
0
0
0
0
0
0
0
0
0
0
0
0
0
0
0
0
0
0
0
0
0
0
0
0
0
0
0
0
0
0
0
0
0
0
0
0
0
0
0
0
0
0
0
0
0
0
0
0
0
0
0
0
0
0
0
0
0
0
0
0
0
0
0
0
0
0
0
0
0
0
0
0
0
0
0
0
0
0
0
0
0
0
0
0
0
0
0
0
0
0
0
0
0
0
0
0
0
0
0
0
0
0
0
0
0
0
0
0
0
0
0
0
0
0
0
0
0
0
0
0
0
0
0
0
0
0
0
0
0
0
0
0
0
0
0
0
0
0
0
0
0
0
0
0
0
0
0
0
0
0
0
0
0
0
0
0
0
0
0
0
0
0
0
0
0
0
0
0
0
0
0
0
0
0
0
0
0
0
0
0
0
0
0
0
0
0
0
0
0
0
0
0
0
0
0
0
0
0
0
0
0
0
0
0
0
0
0
0
0
0
0
0
0
0
0
0
0
0
0
0
0
0
0
0
0
0
0
0
0
2.08329e-06
1.32735e-06
1.76529e-07
1.21563e-08
2.15014e-09
8.30124e-10
1.31028e-11
9.1386e-14
9.06397e-17
9.30638e-20
9.79509e-23
8.45667e-26
8.14506e-29
9.96695e-32
7.75268e-37
1.83023e-37
1.47308e-39
8.98677e-42
4.28991e-44
1.68689e-46
6.98353e-49
2.69077e-51
1.02336e-53
3.71736e-56
1.26294e-58
4.09798e-61
1.24574e-63
4.17116e-66
1.44859e-68
5.99399e-71
2.30716e-73
9.89067e-76
3.57494e-78
1.49532e-80
5.04378e-83
1.98044e-85
7.28842e-88
2.73788e-90
9.71582e-93
3.72718e-95
1.27366e-97
4.92044e-100
1.65443e-102
5.42929e-105
3.89988e-112
5.4252e-114
1.32897e-116
4.43252e-119
1.70327e-121
6.32288e-124
2.5824e-126
1.06907e-128
4.63039e-131
2.09707e-133
1.00721e-135
5.18035e-138
2.84999e-140
1.66068e-142
1.0108e-144
6.3574e-147
4.1045e-149
2.67676e-151
1.76779e-153
1.14401e-155
7.19355e-158
4.19513e-160
2.1258e-162
8.50977e-165
2.91788e-167
9.40263e-170
2.91713e-172
8.53877e-175
1.88246e-177
5.32786e-181
4.80118e-194
1.33694e-193
2.77062e-196
3.30434e-199
3.01253e-202
2.31329e-205
1.55862e-208
9.46443e-212
5.26083e-215
2.72511e-218
1.32948e-221
6.19486e-225
2.77407e-228
1.20485e-231
5.08541e-235
2.09626e-238
8.43505e-242
3.32442e-245
1.28132e-248
4.84841e-252
1.79812e-255
6.56595e-259
2.35692e-262
8.35564e-266
2.9228e-269
1.01307e-272
3.48157e-276
1.18918e-279
3.97312e-283
6.2324e-287
1.48121e-307
3.22887e-307
5.38447e-310
5.15754e-313
3.78312e-316
2.3645e-319
1.33398e-322
0
0
0
0
0
0
0
0
0
0
0
0
0
0
0
0
0
0
0
0
0
0
0
0
0
0
0
0
0
0
0
0
0
0
0
0
0
0
0
0
0
0
0
0
0
0
0
0
0
0
0
0
0
0
0
0
0
0
0
0
0
0
0
0
0
0
0
0
0
0
0
0
0
0
0
0
0
0
0
0
0
0
0
0
0
0
0
0
0
0
0
0
0
0
0
0
0
0
0
0
0
0
0
0
0
0
0
0
0
0
0
0
0
0
0
0
0
0
0
0
0
0
0
0
0
0
0
0
0
0
0
0
0
0
0
0
0
0
0
0
0
0
0
0
0
0
0
0
0
0
0
0
0
0
0
0
0
0
0
0
0
0
0
0
0
0
0
0
0
0
0
0
0
0
0
0
0
0
0
0
0
0
0
0
0
0
0
0
0
0
0
0
0
0
0
0
0
0
0
0
0
0
0
0
0
0
0
0
0
0
0
0
0
0
0
0
0
0
0
0
0
0
0
0
0
0
0
0
0
0
0
0
0
0
0
0
0
0
0
0
0
0
0
0
0
0
0
0
0
0
0
0
0
0
0
0
0
0
0
0
0
0
0
3.63478e-06
2.85136e-06
3.84217e-06
2.24632e-06
1.68064e-07
6.75083e-08
1.98386e-08
6.46147e-10
9.32106e-13
8.06916e-16
8.63394e-19
7.21859e-22
6.09441e-25
5.31999e-28
1.14741e-32
3.58534e-33
3.4081e-35
2.05952e-37
9.8175e-40
4.16185e-42
1.58411e-44
6.22709e-47
2.41712e-49
8.87166e-52
3.22521e-54
1.07674e-56
3.52463e-59
1.03632e-61
3.59307e-64
1.48067e-66
5.96817e-69
2.69438e-71
1.01566e-73
4.4216e-76
1.57657e-78
6.51025e-81
2.3298e-83
8.67854e-86
3.09983e-88
1.13315e-90
3.94296e-93
1.43235e-95
4.86642e-98
1.68581e-100
1.38039e-107
1.72288e-109
4.33653e-112
1.47741e-114
5.37149e-117
2.08127e-119
8.12511e-122
3.25451e-124
1.32613e-126
5.5485e-129
2.39988e-131
1.07953e-133
5.07471e-136
2.50649e-138
1.28662e-140
6.97456e-143
3.871e-145
2.25398e-147
1.33186e-149
8.0371e-152
4.83536e-154
2.81058e-156
1.50449e-158
6.81861e-161
2.55879e-163
8.61208e-166
2.76025e-168
8.53954e-171
2.43959e-173
8.6431e-177
8.32121e-189
3.24759e-189
5.56232e-192
5.65553e-195
4.50141e-198
3.09164e-201
1.90942e-204
1.07585e-207
5.6156e-211
2.73308e-214
1.25894e-217
5.51769e-221
2.33277e-224
9.54066e-228
3.80875e-231
1.48454e-234
5.67954e-238
2.12742e-241
7.84051e-245
2.8321e-248
1.00854e-251
3.52592e-255
1.21811e-258
4.14403e-262
1.39642e-265
4.65361e-269
1.53987e-272
5.06666e-276
1.63064e-279
2.65131e-283
3.34436e-302
9.81264e-303
1.33847e-305
1.09521e-308
6.99551e-312
3.86409e-315
1.94261e-318
9.14021e-322
0
0
0
0
0
0
0
0
0
0
0
0
0
0
0
0
0
0
0
0
0
0
0
0
0
0
0
0
0
0
0
0
0
0
0
0
0
0
0
0
0
0
0
0
0
0
0
0
0
0
0
0
0
0
0
0
0
0
0
0
0
0
0
0
0
0
0
0
0
0
0
0
0
0
0
0
0
0
0
0
0
0
0
0
0
0
0
0
0
0
0
0
0
0
0
0
0
0
0
0
0
0
0
0
0
0
0
0
0
0
0
0
0
0
0
0
0
0
0
0
0
0
0
0
0
0
0
0
0
0
0
0
0
0
0
0
0
0
0
0
0
0
0
0
0
0
0
0
0
0
0
0
0
0
0
0
0
0
0
0
0
0
0
0
0
0
0
0
0
0
0
0
0
0
0
0
0
0
0
0
0
0
0
0
0
0
0
0
0
0
0
0
0
0
0
0
0
0
0
0
0
0
0
0
0
0
0
0
0
0
0
0
0
0
0
0
0
0
0
0
0
0
0
0
0
0
0
0
0
0
0
0
0
0
0
0
0
0
0
0
0
0
0
0
0
0
0
0
0
0
0
0
0
0
0
0
0
0
0
0
0
0
2.37498e-06
2.35111e-06
2.6139e-06
3.58595e-06
3.33659e-06
2.10673e-06
5.91887e-07
1.00291e-07
2.29284e-09
3.46488e-12
3.93871e-15
4.29926e-18
3.84132e-21
3.11502e-24
5.11693e-29
1.57397e-29
2.05762e-31
1.47687e-33
7.44389e-36
3.29423e-38
1.36346e-40
5.38964e-43
2.11531e-45
8.14194e-48
2.93203e-50
1.08619e-52
3.50665e-55
1.11606e-57
3.5325e-60
1.361e-62
5.3482e-65
2.43871e-67
9.54379e-70
4.19545e-72
1.56954e-74
6.33476e-77
2.28408e-79
8.63122e-82
2.99977e-84
1.10731e-86
3.87686e-89
1.38635e-91
4.73362e-94
1.57362e-96
1.57403e-103
1.94783e-105
5.01743e-108
1.61367e-110
5.89556e-113
2.17532e-115
8.42809e-118
3.26554e-120
1.30266e-122
5.26504e-125
2.18936e-127
9.26905e-130
4.06249e-132
1.82179e-134
8.49475e-137
4.0588e-139
2.0354e-141
1.03926e-143
5.56941e-146
3.00271e-148
1.6742e-150
9.27365e-153
4.97737e-155
2.43496e-157
1.01591e-159
3.64913e-162
1.21738e-164
3.8835e-167
1.16987e-169
1.38784e-172
7.19026e-184
4.4102e-185
6.1713e-188
5.28101e-191
3.6067e-194
2.17678e-197
1.208e-200
6.26046e-204
3.04138e-207
1.39263e-210
6.03922e-214
2.50057e-217
9.95729e-221
3.84253e-224
1.44464e-227
5.31922e-231
1.92204e-234
6.83208e-238
2.38886e-241
8.2284e-245
2.79083e-248
9.33504e-252
3.07983e-255
1.00455e-258
3.23979e-262
1.03644e-265
3.29159e-269
1.03932e-272
3.21677e-276
4.97039e-280
3.99524e-297
1.7188e-298
1.85393e-301
1.26517e-304
6.95361e-308
3.36516e-311
1.49999e-314
6.32829e-318
2.5642e-321
0
0
0
0
0
0
0
0
0
0
0
0
0
0
0
0
0
0
0
0
0
0
0
0
0
0
0
0
0
0
0
0
0
0
0
0
0
0
0
0
0
0
0
0
0
0
0
0
0
0
0
0
0
0
0
0
0
0
0
0
0
0
0
0
0
0
0
0
0
0
0
0
0
0
0
0
0
0
0
0
0
0
0
0
0
0
0
0
0
0
0
0
0
0
0
0
0
0
0
0
0
0
0
0
0
0
0
0
0
0
0
0
0
0
0
0
0
0
0
0
0
0
0
0
0
0
0
0
0
0
0
0
0
0
0
0
0
0
0
0
0
0
0
0
0
0
0
0
0
0
0
0
0
0
0
0
0
0
0
0
0
0
0
0
0
0
0
0
0
0
0
0
0
0
0
0
0
0
0
0
0
0
0
0
0
0
0
0
0
0
0
0
0
0
0
0
0
0
0
0
0
0
0
0
0
0
0
0
0
0
0
0
0
0
0
0
0
0
0
0
0
0
0
0
0
0
0
0
0
0
0
0
0
0
0
0
0
0
0
0
0
0
0
0
0
0
0
0
0
0
0
0
0
0
0
0
0
0
0
0
0
2.33591e-06
2.46592e-06
2.59894e-06
2.69494e-06
3.13136e-06
3.13197e-06
3.90973e-06
1.57105e-06
2.00985e-07
3.25664e-09
6.65442e-12
1.25308e-14
1.51806e-17
1.03701e-20
3.04446e-26
2.89897e-27
6.27794e-29
1.06829e-30
9.59319e-33
5.89791e-35
3.0899e-37
1.43722e-39
6.55797e-42
2.79424e-44
1.16332e-46
4.61098e-49
1.69767e-51
5.76267e-54
1.82386e-56
6.61332e-59
2.71524e-61
1.25812e-63
5.37128e-66
2.39701e-68
9.67417e-71
4.01335e-73
1.49562e-75
5.81644e-78
2.00647e-80
7.36227e-83
2.62811e-85
9.08456e-88
3.2302e-90
1.09632e-92
1.11826e-99
1.21632e-101
3.47314e-104
1.19103e-106
4.20159e-109
1.58793e-111
5.93757e-114
2.31465e-116
9.02906e-119
3.62533e-121
1.47795e-123
6.14369e-126
2.59759e-128
1.12772e-130
4.92806e-133
2.24641e-135
1.02691e-137
4.927e-140
2.38004e-142
1.19277e-144
6.04366e-147
3.14055e-149
1.6184e-151
8.00732e-154
3.60476e-156
1.41579e-158
4.98132e-161
1.65225e-163
5.19797e-166
1.03562e-168
7.63508e-179
6.92925e-181
7.63939e-184
5.46e-187
3.17262e-190
1.65478e-193
8.11472e-197
3.80385e-200
1.70571e-203
7.30291e-207
2.98339e-210
1.16679e-213
4.38937e-217
1.59865e-220
5.66771e-224
1.96679e-227
6.70235e-231
2.2494e-234
7.44096e-238
2.42878e-241
7.82195e-245
2.48729e-248
7.81321e-252
2.42781e-255
7.46989e-259
2.28048e-262
6.91873e-266
2.08972e-269
6.20456e-273
9.8407e-277
6.33878e-292
3.68299e-294
2.94508e-297
1.62814e-300
7.55479e-304
3.16716e-307
1.24401e-310
4.6787e-314
1.70742e-317
6.10171e-321
0
0
0
0
0
0
0
0
0
0
0
0
0
0
0
0
0
0
0
0
0
0
0
0
0
0
0
0
0
0
0
0
0
0
0
0
0
0
0
0
0
0
0
0
0
0
0
0
0
0
0
0
0
0
0
0
0
0
0
0
0
0
0
0
0
0
0
0
0
0
0
0
0
0
0
0
0
0
0
0
0
0
0
0
0
0
0
0
0
0
0
0
0
0
0
0
0
0
0
0
0
0
0
0
0
0
0
0
0
0
0
0
0
0
0
0
0
0
0
0
0
0
0
0
0
0
0
0
0
0
0
0
0
0
0
0
0
0
0
0
0
0
0
0
0
0
0
0
0
0
0
0
0
0
0
0
0
0
0
0
0
0
0
0
0
0
0
0
0
0
0
0
0
0
0
0
0
0
0
0
0
0
0
0
0
0
0
0
0
0
0
0
0
0
0
0
0
0
0
0
0
0
0
0
0
0
0
0
0
0
0
0
0
0
0
0
0
0
0
0
0
0
0
0
0
0
0
0
0
0
0
0
0
0
0
0
0
0
0
0
0
0
0
0
0
0
0
0
0
0
0
0
0
0
0
0
0
0
0
0
2.5509e-06
2.64907e-06
2.52216e-06
2.05791e-06
1.15421e-06
1.63109e-06
2.16231e-06
2.47144e-06
1.19127e-06
1.34194e-07
1.21242e-09
3.77978e-12
6.94232e-15
6.49952e-18
1.95684e-24
3.77344e-26
4.00619e-28
7.17935e-30
2.05101e-31
4.27267e-33
4.39865e-35
3.6234e-37
2.3167e-39
1.24784e-41
6.28858e-44
2.75943e-46
1.17957e-48
4.46193e-51
1.47088e-53
4.93452e-56
2.11218e-58
9.93537e-61
4.57612e-63
2.08357e-65
9.03843e-68
3.84239e-70
1.5033e-72
5.91137e-75
2.10994e-77
7.7872e-80
2.74062e-82
9.98036e-85
3.5282e-87
1.25686e-89
1.23584e-96
1.33978e-98
3.81531e-101
1.34423e-103
4.85556e-106
1.81125e-108
6.74069e-111
2.56785e-113
9.92433e-116
3.92551e-118
1.58162e-120
6.52821e-123
2.70665e-125
1.16279e-127
4.91777e-130
2.18513e-132
9.49348e-135
4.36571e-137
1.97813e-139
9.40512e-142
4.45785e-144
2.18327e-146
1.07424e-148
5.25355e-151
2.46473e-153
1.05582e-155
3.993e-158
1.3899e-160
4.57387e-163
1.23558e-165
2.34201e-174
3.2649e-177
2.65193e-180
1.5598e-183
7.69333e-187
3.44818e-190
1.47472e-193
6.15806e-197
2.51736e-200
1.00068e-203
3.84182e-207
1.4204e-210
5.0624e-214
1.74563e-217
5.85153e-221
1.91628e-224
6.15706e-228
1.94727e-231
6.07467e-235
1.87155e-238
5.69799e-242
1.71514e-245
5.10712e-249
1.50572e-252
4.40062e-256
1.27708e-259
3.68699e-263
1.06105e-266
3.01227e-270
4.81215e-274
3.16591e-287
2.55259e-290
1.37853e-293
5.92205e-297
2.2694e-300
8.13272e-304
2.79218e-307
9.31831e-311
3.05182e-314
9.87157e-318
3.16696e-321
0
0
0
0
0
0
0
0
0
0
0
0
0
0
0
0
0
0
0
0
0
0
0
0
0
0
0
0
0
0
0
0
0
0
0
0
0
0
0
0
0
0
0
0
0
0
0
0
0
0
0
0
0
0
0
0
0
0
0
0
0
0
0
0
0
0
0
0
0
0
0
0
0
0
0
0
0
0
0
0
0
0
0
0
0
0
0
0
0
0
0
0
0
0
0
0
0
0
0
0
0
0
0
0
0
0
0
0
0
0
0
0
0
0
0
0
0
0
0
0
0
0
0
0
0
0
0
0
0
0
0
0
0
0
0
0
0
0
0
0
0
0
0
0
0
0
0
0
0
0
0
0
0
0
0
0
0
0
0
0
0
0
0
0
0
0
0
0
0
0
0
0
0
0
0
0
0
0
0
0
0
0
0
0
0
0
0
0
0
0
0
0
0
0
0
0
0
0
0
0
0
0
0
0
0
0
0
0
0
0
0
0
0
0
0
0
0
0
0
0
0
0
0
0
0
0
0
0
0
0
0
0
0
0
0
0
0
0
0
0
0
0
0
0
0
0
0
0
0
0
0
0
0
0
0
0
0
0
0
2.86518e-06
2.67806e-06
1.59177e-06
2.42553e-07
9.84476e-08
3.00182e-07
7.29652e-07
5.40631e-07
2.73939e-07
9.82338e-08
3.28505e-08
4.7268e-10
2.45258e-12
5.60579e-15
2.22114e-17
1.12649e-19
4.45046e-22
3.03094e-25
5.46823e-28
3.59311e-30
4.67061e-32
8.3342e-34
1.06915e-35
1.12438e-37
9.39793e-40
7.20394e-42
5.99588e-44
4.64279e-46
3.30235e-48
2.06385e-50
1.32209e-52
7.48624e-55
4.22748e-57
2.21304e-59
1.10756e-61
5.40769e-64
2.52737e-66
1.11421e-68
4.88089e-71
1.90503e-73
7.54383e-76
2.7517e-78
1.03844e-80
4.92838e-83
2.18331e-85
9.46807e-88
1.92162e-90
8.34975e-93
4.55884e-95
2.65317e-97
1.19861e-99
4.96919e-102
1.89523e-104
7.25147e-107
2.66728e-109
1.01935e-111
3.84332e-114
1.51946e-116
6.02616e-119
2.4981e-121
1.02608e-123
4.44707e-126
1.85292e-128
8.2582e-131
3.46113e-133
1.57714e-135
6.69166e-138
3.13177e-140
1.37332e-142
6.52817e-145
3.0132e-147
1.43536e-149
6.71266e-152
3.00341e-154
1.22228e-156
4.5121e-159
1.5589e-161
4.94381e-164
1.37021e-166
3.57142e-169
1.06394e-171
7.50116e-175
4.22173e-178
2.00884e-181
8.43565e-185
3.26696e-188
1.21711e-191
4.48853e-195
1.6554e-198
6.06312e-202
2.1805e-205
7.6244e-209
2.58264e-212
8.46978e-216
2.69794e-219
8.37635e-223
2.54641e-226
7.60535e-230
2.23927e-233
6.5096e-237
1.87202e-240
5.32663e-244
1.50214e-247
4.19984e-251
1.16658e-254
3.22238e-258
8.87391e-262
2.44018e-265
6.70487e-269
1.73857e-272
2.53458e-276
1.11773e-280
2.53618e-284
9.28936e-288
3.12999e-291
1.00476e-294
3.11932e-298
9.46018e-302
2.82438e-305
8.34515e-309
2.45197e-312
7.18238e-316
2.1026e-319
5.92879e-323
0
0
0
0
0
0
0
0
0
0
0
0
0
0
0
0
0
0
0
0
0
0
0
0
0
0
0
0
0
0
0
0
0
0
0
0
0
0
0
0
0
0
0
0
0
0
0
0
0
0
0
0
0
0
0
0
0
0
0
0
0
0
0
0
0
0
0
0
0
0
0
0
0
0
0
0
0
0
0
0
0
0
0
0
0
0
0
0
0
0
0
0
0
0
0
0
0
0
0
0
0
0
0
0
0
0
0
0
0
0
0
0
0
0
0
0
0
0
0
0
0
0
0
0
0
0
0
0
0
0
0
0
0
0
0
0
0
0
0
0
0
0
0
0
0
0
0
0
0
0
0
0
0
0
0
0
0
0
0
0
0
0
0
0
0
0
0
0
0
0
0
0
0
0
0
0
0
0
0
0
0
0
0
0
0
0
0
0
0
0
0
0
0
0
0
0
0
0
0
0
0
0
0
0
0
0
0
0
0
0
0
0
0
0
0
0
0
0
0
0
0
0
0
0
0
0
0
0
0
0
0
0
0
0
0
0
0
0
0
0
0
0
0
0
0
0
0
0
0
0
0
0
0
0
0
0
0
0
0
0
0
0
0
0
0
0
0
0
0
0
0
0
0
0
0
0
2.57636e-06
1.48276e-06
9.61484e-08
8.61141e-09
5.80865e-09
2.67848e-08
1.21623e-07
1.55751e-07
1.15474e-07
3.26907e-08
5.21763e-09
2.56783e-10
1.37084e-12
2.07679e-14
1.1677e-16
2.26387e-19
2.40466e-22
1.9546e-25
2.51533e-28
1.16763e-30
9.98835e-33
1.2748e-34
1.27944e-36
1.15759e-38
1.29786e-40
1.19411e-42
9.72413e-45
7.78558e-47
5.77903e-49
4.071e-51
3.05813e-53
2.02128e-55
1.40592e-57
8.67107e-60
5.34447e-62
3.00356e-64
1.77786e-66
9.0405e-69
5.11792e-71
2.45861e-73
1.26057e-75
5.9034e-78
2.82773e-80
1.26058e-82
5.81271e-85
2.55688e-87
9.75108e-90
3.76652e-92
1.36353e-94
5.06903e-97
2.29068e-99
8.74102e-102
3.68725e-104
1.43232e-106
5.94409e-109
2.41313e-111
1.01963e-113
4.36419e-116
1.92388e-118
8.63208e-121
3.96926e-123
1.83242e-125
8.66765e-128
4.05397e-130
1.94173e-132
9.15071e-135
4.38609e-137
2.06851e-139
9.82638e-142
4.60382e-144
2.1586e-146
1.00108e-148
4.60411e-151
2.07395e-153
8.89438e-156
3.51068e-158
1.2791e-160
4.40636e-163
1.38607e-165
4.38634e-168
1.40991e-170
4.12636e-173
1.89668e-176
7.85185e-180
2.93835e-183
1.01774e-186
3.37889e-190
1.11283e-193
3.70912e-197
1.25129e-200
4.21745e-204
1.39941e-207
4.52598e-211
1.42096e-214
4.33145e-218
1.28493e-221
3.72335e-225
1.05815e-228
2.95946e-232
8.16971e-236
2.23127e-239
6.03876e-243
1.62182e-246
4.3276e-250
1.149e-253
3.03982e-257
8.02364e-261
2.11709e-264
5.59127e-268
1.4833e-271
3.71988e-275
9.63135e-279
2.64955e-282
7.07784e-286
1.8922e-289
5.04497e-293
1.34078e-296
3.55543e-300
9.42409e-304
2.5024e-307
6.66779e-311
1.78519e-314
4.80583e-318
1.29939e-321
0
0
0
0
0
0
0
0
0
0
0
0
0
0
0
0
0
0
0
0
0
0
0
0
0
0
0
0
0
0
0
0
0
0
0
0
0
0
0
0
0
0
0
0
0
0
0
0
0
0
0
0
0
0
0
0
0
0
0
0
0
0
0
0
0
0
0
0
0
0
0
0
0
0
0
0
0
0
0
0
0
0
0
0
0
0
0
0
0
0
0
0
0
0
0
0
0
0
0
0
0
0
0
0
0
0
0
0
0
0
0
0
0
0
0
0
0
0
0
0
0
0
0
0
0
0
0
0
0
0
0
0
0
0
0
0
0
0
0
0
0
0
0
0
0
0
0
0
0
0
0
0
0
0
0
0
0
0
0
0
0
0
0
0
0
0
0
0
0
0
0
0
0
0
0
0
0
0
0
0
0
0
0
0
0
0
0
0
0
0
0
0
0
0
0
0
0
0
0
0
0
0
0
0
0
0
0
0
0
0
0
0
0
0
0
0
0
0
0
0
0
0
0
0
0
0
0
0
0
0
0
0
0
0
0
0
0
0
0
0
0
0
0
0
0
0
0
0
0
0
0
0
0
0
0
0
0
0
0
0
0
0
0
0
0
0
0
0
0
0
0
0
0
0
0
0
4.09374e-07
4.16065e-08
1.22045e-09
1.98829e-10
5.21872e-10
3.92452e-09
2.70531e-08
3.84049e-08
4.31599e-08
1.5145e-08
1.13322e-09
6.27511e-11
2.0882e-13
1.2944e-15
5.80411e-18
1.55419e-20
2.38558e-23
2.68758e-26
4.19618e-29
1.45837e-31
6.67447e-34
4.36695e-36
2.99923e-38
2.17698e-40
1.59495e-42
1.2163e-44
8.8062e-47
6.39538e-49
4.46567e-51
3.17329e-53
2.16859e-55
1.44461e-57
8.86262e-60
5.44623e-62
3.17268e-64
1.74453e-66
9.90624e-69
5.04521e-71
2.71827e-73
1.33346e-75
6.68758e-78
3.21044e-80
1.62943e-82
7.63518e-85
3.79207e-87
1.77391e-89
6.73443e-92
2.58827e-94
8.9728e-97
3.37526e-99
1.29958e-101
4.93974e-104
1.92228e-106
7.45458e-109
2.97168e-111
1.20221e-113
4.9757e-116
2.12327e-118
9.30067e-121
4.18132e-123
1.9304e-125
9.01582e-128
4.30415e-130
2.05927e-132
9.99663e-135
4.84815e-137
2.36994e-139
1.1512e-141
5.60316e-144
2.69889e-146
1.29276e-148
6.14186e-151
2.90042e-153
1.35474e-155
6.16284e-158
2.6572e-160
1.05875e-162
3.90099e-165
1.36629e-167
4.55073e-170
1.45435e-172
4.01159e-175
1.52339e-178
5.04527e-182
1.59574e-185
5.25076e-189
1.84625e-192
6.71661e-196
2.42459e-199
8.47545e-203
2.8461e-206
9.19274e-210
2.87042e-213
8.72253e-217
2.59569e-220
7.60488e-224
2.20141e-227
6.30803e-231
1.79024e-234
5.03246e-238
1.40097e-241
3.86463e-245
1.05732e-248
2.87389e-252
7.77532e-256
2.0995e-259
5.67149e-263
1.53591e-266
4.17682e-270
1.14135e-273
3.15169e-277
8.6663e-281
2.36663e-284
6.47877e-288
1.76057e-291
4.74124e-295
1.26463e-298
3.34645e-302
8.80991e-306
2.31489e-309
6.09429e-313
1.61215e-316
4.29294e-320
9.88131e-324
0
0
0
0
0
0
0
0
0
0
0
0
0
0
0
0
0
0
0
0
0
0
0
0
0
0
0
0
0
0
0
0
0
0
0
0
0
0
0
0
0
0
0
0
0
0
0
0
0
0
0
0
0
0
0
0
0
0
0
0
0
0
0
0
0
0
0
0
0
0
0
0
0
0
0
0
0
0
0
0
0
0
0
0
0
0
0
0
0
0
0
0
0
0
0
0
0
0
0
0
0
0
0
0
0
0
0
0
0
0
0
0
0
0
0
0
0
0
0
0
0
0
0
0
0
0
0
0
0
0
0
0
0
0
0
0
0
0
0
0
0
0
0
0
0
0
0
0
0
0
0
0
0
0
0
0
0
0
0
0
0
0
0
0
0
0
0
0
0
0
0
0
0
0
0
0
0
0
0
0
0
0
0
0
0
0
0
0
0
0
0
0
0
0
0
0
0
0
0
0
0
0
0
0
0
0
0
0
0
0
0
0
0
0
0
0
0
0
0
0
0
0
0
0
0
0
0
0
0
0
0
0
0
0
0
0
0
0
0
0
0
0
0
0
0
0
0
0
0
0
0
0
0
0
0
0
0
0
0
0
0
0
0
0
0
0
0
0
0
0
0
0
0
0
0
0
3.63737e-09
2.12369e-10
5.03045e-11
3.91973e-11
9.16875e-11
5.17562e-10
1.96723e-09
6.69471e-09
8.17451e-09
3.22663e-09
1.7457e-10
4.60291e-12
1.15495e-14
4.27283e-17
1.52458e-19
4.41853e-22
7.54116e-25
1.30692e-27
2.28236e-30
5.82697e-33
1.92813e-35
7.14808e-38
2.96224e-40
1.42175e-42
7.76221e-45
4.86548e-47
3.20078e-49
2.7538e-51
1.74321e-53
1.28164e-55
7.56646e-58
4.90145e-60
2.84565e-62
1.69838e-64
9.53198e-67
5.08605e-69
2.7832e-71
1.38406e-73
7.15317e-76
3.41507e-78
1.6418e-80
7.604e-83
3.45997e-85
1.54058e-87
6.7497e-90
2.88255e-92
1.17606e-94
4.69271e-97
1.74129e-99
6.84386e-102
2.60464e-104
1.01897e-106
3.9285e-109
1.56677e-111
6.25184e-114
2.59599e-116
1.09359e-118
4.78478e-121
2.14927e-123
9.85877e-126
4.6495e-128
2.20114e-130
1.06632e-132
5.1456e-135
2.5268e-137
1.234e-139
6.10001e-142
2.99432e-144
1.47596e-146
7.22372e-149
3.5284e-151
1.71705e-153
8.31111e-156
3.96936e-158
1.84905e-160
8.23472e-163
3.37684e-165
1.26661e-167
4.45604e-170
1.48969e-172
4.70745e-175
2.52553e-178
1.17788e-181
4.89966e-185
1.88523e-188
6.94884e-192
2.51925e-195
9.10891e-199
3.28773e-202
1.17675e-205
4.14298e-209
1.42753e-212
4.80571e-216
1.58267e-219
5.1133e-223
1.62615e-226
5.10556e-230
1.5864e-233
4.8861e-237
1.49385e-240
4.53804e-244
1.37145e-247
4.12791e-251
1.23929e-254
3.71637e-258
1.11483e-261
3.34864e-265
1.0077e-268
3.03822e-272
9.17419e-276
2.77621e-279
8.36433e-283
2.50413e-286
7.46861e-290
2.20998e-293
6.47465e-297
1.87612e-300
5.37756e-304
1.52673e-307
4.30442e-311
1.20937e-314
3.39979e-318
9.58487e-322
0
0
0
0
0
0
0
0
0
0
0
0
0
0
0
0
0
0
0
0
0
0
0
0
0
0
0
0
0
0
0
0
0
0
0
0
0
0
0
0
0
0
0
0
0
0
0
0
0
0
0
0
0
0
0
0
0
0
0
0
0
0
0
0
0
0
0
0
0
0
0
0
0
0
0
0
0
0
0
0
0
0
0
0
0
0
0
0
0
0
0
0
0
0
0
0
0
0
0
0
0
0
0
0
0
0
0
0
0
0
0
0
0
0
0
0
0
0
0
0
0
0
0
0
0
0
0
0
0
0
0
0
0
0
0
0
0
0
0
0
0
0
0
0
0
0
0
0
0
0
0
0
0
0
0
0
0
0
0
0
0
0
0
0
0
0
0
0
0
0
0
0
0
0
0
0
0
0
0
0
0
0
0
0
0
0
0
0
0
0
0
0
0
0
0
0
0
0
0
0
0
0
0
0
0
0
0
0
0
0
0
0
0
0
0
0
0
0
0
0
0
0
0
0
0
0
0
0
0
0
0
0
0
0
0
0
0
0
0
0
0
0
0
0
0
0
0
0
0
0
0
0
0
0
0
0
0
0
0
0
0
0
0
0
0
0
0
0
0
0
0
0
0
0
0
0
0
1.14435e-10
2.14028e-11
1.14435e-11
1.34402e-11
1.50383e-11
3.50881e-11
4.83387e-11
1.02364e-10
1.93206e-10
1.03964e-10
9.03163e-12
5.5601e-14
1.09062e-16
3.62028e-19
1.04225e-21
1.74244e-24
3.42782e-27
5.76535e-30
1.06379e-32
2.04751e-35
5.71636e-38
1.93319e-40
7.90425e-43
3.99148e-45
2.29762e-47
1.42548e-49
9.1762e-52
5.89035e-54
3.48946e-56
2.33882e-58
1.29864e-60
7.93943e-63
4.37052e-65
2.46607e-67
1.30451e-69
6.83736e-72
3.45467e-74
1.71053e-76
8.22362e-79
3.86904e-81
1.76191e-83
7.97304e-86
3.48072e-88
1.51053e-90
6.32412e-93
2.6484e-95
1.04072e-97
4.26882e-100
1.58151e-102
6.3574e-105
2.36955e-107
9.4595e-110
3.60173e-112
1.47017e-114
5.90352e-117
2.51398e-119
1.08209e-121
4.84999e-124
2.22513e-126
1.04181e-128
4.96471e-131
2.39113e-133
1.16077e-135
5.68652e-138
2.78873e-140
1.37969e-142
6.79932e-145
3.37297e-147
1.65624e-149
8.16145e-152
3.98011e-154
1.94288e-156
9.42768e-159
4.53348e-161
2.13942e-163
9.68082e-166
4.04157e-168
1.52778e-170
5.35791e-173
1.76814e-175
1.18843e-178
7.02482e-182
3.63372e-185
1.68131e-188
7.15858e-192
2.88994e-195
1.13428e-198
4.39727e-202
1.69219e-205
6.4484e-209
2.42155e-212
8.93075e-216
3.23271e-219
1.15024e-222
4.03429e-226
1.39886e-229
4.80713e-233
1.64045e-236
5.56467e-240
1.87755e-243
6.30249e-247
2.10571e-250
7.00384e-254
2.32019e-257
7.65624e-261
2.51709e-264
8.24409e-268
2.68881e-271
8.72908e-275
2.81353e-278
9.04798e-282
2.88193e-285
9.08707e-289
2.85466e-292
8.8801e-296
2.74066e-299
8.39246e-303
2.55061e-306
7.69758e-310
2.30842e-313
6.88527e-317
2.04494e-320
4.94066e-324
0
0
0
0
0
0
0
0
0
0
0
0
0
0
0
0
0
0
0
0
0
0
0
0
0
0
0
0
0
0
0
0
0
0
0
0
0
0
0
0
0
0
0
0
0
0
0
0
0
0
0
0
0
0
0
0
0
0
0
0
0
0
0
0
0
0
0
0
0
0
0
0
0
0
0
0
0
0
0
0
0
0
0
0
0
0
0
0
0
0
0
0
0
0
0
0
0
0
0
0
0
0
0
0
0
0
0
0
0
0
0
0
0
0
0
0
0
0
0
0
0
0
0
0
0
0
0
0
0
0
0
0
0
0
0
0
0
0
0
0
0
0
0
0
0
0
0
0
0
0
0
0
0
0
0
0
0
0
0
0
0
0
0
0
0
0
0
0
0
0
0
0
0
0
0
0
0
0
0
0
0
0
0
0
0
0
0
0
0
0
0
0
0
0
0
0
0
0
0
0
0
0
0
0
0
0
0
0
0
0
0
0
0
0
0
0
0
0
0
0
0
0
0
0
0
0
0
0
0
0
0
0
0
0
0
0
0
0
0
0
0
0
0
0
0
0
0
0
0
0
0
0
0
0
0
0
0
0
0
0
0
0
0
0
0
0
0
0
0
0
0
0
0
0
0
0
0
2.44682e-12
4.4538e-12
5.31028e-12
5.80662e-12
2.74322e-12
2.21883e-12
1.04506e-12
1.11682e-12
2.0662e-12
1.16513e-12
5.69476e-14
1.11753e-16
2.33218e-19
4.18804e-22
1.05119e-24
2.57319e-27
5.81453e-30
1.2994e-32
2.91003e-35
7.76069e-38
2.44067e-40
9.58525e-43
4.51216e-45
2.4458e-47
1.43767e-49
8.72548e-52
5.32918e-54
3.18393e-56
1.90595e-58
1.1198e-60
6.32961e-63
3.56968e-65
1.9113e-67
1.01981e-69
5.16708e-72
2.60449e-74
1.2546e-76
5.99389e-79
2.75534e-81
1.24926e-83
5.49826e-86
2.39286e-88
1.0164e-90
4.26389e-93
1.75043e-95
7.14803e-98
2.81195e-100
1.13646e-102
4.30787e-105
1.70818e-107
6.45795e-110
2.57023e-112
9.9678e-115
4.10617e-117
1.68566e-119
7.32289e-122
3.22113e-124
1.47541e-126
6.85537e-129
3.26076e-131
1.56332e-133
7.58403e-136
3.69762e-138
1.81606e-140
8.93643e-143
4.42358e-145
2.18139e-147
1.08111e-149
5.3029e-152
2.60597e-154
1.26905e-156
6.17863e-159
2.99111e-161
1.4391e-163
6.7872e-166
3.08303e-168
1.30687e-170
5.00991e-173
1.751e-175
2.31952e-178
9.56806e-182
5.45692e-185
2.94353e-188
1.44433e-191
6.56974e-195
2.83969e-198
1.19148e-201
4.9177e-205
2.00619e-208
8.08183e-212
3.2061e-215
1.25038e-218
4.79438e-222
1.81031e-225
6.74681e-229
2.48698e-232
9.08154e-236
3.28843e-239
1.18118e-242
4.20926e-246
1.48832e-249
5.22216e-253
1.81877e-256
6.28888e-260
2.15934e-263
7.36364e-267
2.49374e-270
8.38521e-274
2.79879e-277
9.26768e-281
3.0462e-284
9.928e-288
3.20843e-291
1.02916e-294
3.27442e-298
1.03399e-301
3.24207e-305
1.00983e-308
3.12641e-312
9.62594e-316
2.94928e-319
8.89318e-323
0
0
0
0
0
0
0
0
0
0
0
0
0
0
0
0
0
0
0
0
0
0
0
0
0
0
0
0
0
0
0
0
0
0
0
0
0
0
0
0
0
0
0
0
0
0
0
0
0
0
0
0
0
0
0
0
0
0
0
0
0
0
0
0
0
0
0
0
0
0
0
0
0
0
0
0
0
0
0
0
0
0
0
0
0
0
0
0
0
0
0
0
0
0
0
0
0
0
0
0
0
0
0
0
0
0
0
0
0
0
0
0
0
0
0
0
0
0
0
0
0
0
0
0
0
0
0
0
0
0
0
0
0
0
0
0
0
0
0
0
0
0
0
0
0
0
0
0
0
0
0
0
0
0
0
0
0
0
0
0
0
0
0
0
0
0
0
0
0
0
0
0
0
0
0
0
0
0
0
0
0
0
0
0
0
0
0
0
0
0
0
0
0
0
0
0
0
0
0
0
0
0
0
0
0
0
0
0
0
0
0
0
0
0
0
0
0
0
0
0
0
0
0
0
0
0
0
0
0
0
0
0
0
0
0
0
0
0
0
0
0
0
0
0
0
0
0
0
0
0
0
0
0
0
0
0
0
0
0
0
0
0
0
0
0
0
0
0
0
0
0
0
0
0
0
0
0
0
1.73008e-12
1.26739e-12
8.41504e-13
5.23338e-13
2.40475e-13
6.82425e-14
7.40011e-15
3.75268e-15
3.61105e-15
1.58869e-15
1.17384e-16
2.79632e-19
6.22456e-22
1.45605e-24
3.57681e-27
8.81123e-30
2.10545e-32
5.2533e-35
1.40027e-37
4.45699e-40
1.74652e-42
8.33376e-45
4.60041e-47
2.69291e-49
1.63252e-51
9.79494e-54
5.7962e-56
3.34143e-58
1.94613e-60
1.06959e-62
5.92572e-65
3.17952e-67
1.65401e-69
8.4795e-72
4.16498e-74
2.028e-76
9.42833e-79
4.37157e-81
1.9375e-83
8.58713e-86
3.66601e-88
1.56396e-90
6.47553e-93
2.66953e-95
1.07036e-97
4.30245e-100
1.67634e-102
6.63107e-105
2.53e-107
9.95869e-110
3.81283e-112
1.52357e-114
6.04585e-117
2.52858e-119
1.06663e-121
4.73353e-124
2.12815e-126
9.92019e-129
4.66665e-131
2.23789e-133
1.07979e-135
5.25223e-138
2.56721e-140
1.26181e-142
6.21264e-145
3.07393e-147
1.51557e-149
7.49328e-152
3.67683e-154
1.80571e-156
8.79623e-159
4.28698e-161
2.07088e-163
9.93338e-166
4.66662e-168
2.11897e-170
9.03e-173
3.45186e-175
8.7164e-178
3.51927e-181
1.60887e-184
8.44448e-188
4.44792e-191
2.21345e-194
1.03809e-197
4.66055e-201
2.03586e-204
8.74236e-208
3.70346e-211
1.54674e-214
6.3574e-218
2.56927e-221
1.02138e-224
4.00003e-228
1.54595e-231
5.90477e-235