/*--------------------------------*- C++ -*----------------------------------*\
| =========                 |                                                 |
| \\      /  F ield         | OpenFOAM: The Open Source CFD Toolbox           |
|  \\    /   O peration     | Version:  2.1.1                                 |
|   \\  /    A nd           | Web:      www.OpenFOAM.org                      |
|    \\/     M anipulation  |                                                 |
\*---------------------------------------------------------------------------*/
FoamFile
{
    version     2.0;
    format      ascii;
    class       volScalarField;
    location    "0.000700000";
    object      O;
}
// * * * * * * * * * * * * * * * * * * * * * * * * * * * * * * * * * * * * * //

dimensions      [0 0 0 0 0 0 0];

internalField   nonuniform List<scalar> 
12384
(
1.18586e-06
4.99136e-07
8.59941e-08
2.7421e-09
5.84644e-11
1.31588e-12
2.28888e-14
3.78489e-16
6.24087e-18
9.74942e-20
1.36152e-21
1.63008e-23
1.71526e-25
1.80747e-27
2.88972e-41
4.07815e-42
3.39123e-44
2.4051e-46
1.46756e-48
8.14208e-51
4.13253e-53
1.96587e-55
8.72146e-58
3.648e-60
1.45628e-62
5.59245e-65
2.15399e-67
8.25986e-70
3.26772e-72
1.29293e-74
5.23561e-77
2.07569e-79
8.33915e-82
3.2728e-84
1.29282e-86
5.03874e-89
1.99173e-91
7.96281e-94
3.31204e-96
1.44742e-98
6.74122e-101
3.33718e-103
1.72578e-105
9.12486e-108
2.09141e-116
3.12619e-118
1.93328e-120
1.40041e-122
1.13603e-124
9.16308e-127
6.93203e-129
4.83169e-131
3.1327e-133
1.89419e-135
1.08962e-137
5.96829e-140
3.17747e-142
1.64489e-144
8.39947e-147
4.20619e-149
2.06433e-151
9.7981e-154
4.48101e-156
1.95739e-158
8.07979e-161
3.0521e-163
1.04119e-165
3.2621e-168
9.27213e-172
4.79646e-175
5.42225e-178
1.08935e-180
2.12049e-183
2.79255e-187
1.76648e-202
3.88864e-200
1.05302e-202
1.46851e-205
1.50456e-208
1.26493e-211
9.29392e-215
6.17221e-218
3.76401e-221
2.18862e-224
1.23179e-227
6.77993e-231
3.6932e-234
2.11822e-237
1.22704e-240
6.31432e-244
2.63769e-247
9.80495e-251
3.38191e-254
1.13071e-257
3.65404e-261
1.17666e-264
3.76204e-268
1.21342e-271
3.88686e-275
1.27996e-278
4.30021e-282
1.47965e-285
4.86636e-289
3.80313e-293
2.80828e-316
4.80221e-314
1.05576e-316
1.27029e-319
1.13635e-322
0
0
0
0
0
0
0
0
0
0
0
0
0
0
0
0
0
0
0
0
0
0
0
0
0
0
0
0
0
0
0
0
0
0
0
0
0
0
0
0
0
0
0
0
0
0
0
0
0
0
0
0
0
0
0
0
0
0
0
0
0
0
0
0
0
0
0
0
0
0
0
0
0
0
0
0
0
0
0
0
0
0
0
0
0
0
0
0
0
0
0
0
0
0
0
0
0
0
0
0
0
0
0
0
0
0
0
0
0
0
0
0
0
0
0
0
0
0
0
0
0
0
0
0
0
0
0
0
0
0
0
0
0
0
0
0
0
0
0
0
0
0
0
0
0
0
0
0
0
0
0
0
0
0
0
0
0
0
0
0
0
0
0
0
0
0
0
0
0
0
0
0
0
0
0
0
0
0
0
0
0
0
0
0
0
0
0
0
0
0
0
0
0
0
0
0
0
0
0
0
0
0
0
0
0
0
0
0
0
0
0
0
0
0
0
0
0
0
0
0
0
0
0
0
0
0
0
0
0
0
0
0
0
0
0
0
0
0
0
0
0
0
0
0
0
0
0
0
0
0
0
0
0
0
0
0
0
0
0
0
0
0
0
0
0
3.19535e-06
4.33179e-06
5.42164e-07
2.63189e-08
3.88213e-10
1.06516e-11
2.13645e-13
3.3915e-15
4.60954e-17
5.92519e-19
7.52579e-21
9.11578e-23
9.95075e-25
9.55441e-27
2.44242e-39
3.52622e-40
3.59734e-42
2.92181e-44
1.97398e-46
1.258e-48
6.66637e-51
3.58735e-53
1.5926e-55
6.89931e-58
2.66891e-60
9.8464e-63
3.65379e-65
1.37767e-67
5.4606e-70
2.26174e-72
9.31416e-75
3.81653e-77
1.49715e-79
5.96671e-82
2.28559e-84
8.78458e-87
3.38428e-89
1.25873e-91
4.76893e-94
1.84011e-96
7.09013e-99
2.94366e-101
1.25156e-103
5.43173e-106
7.64952e-114
1.10821e-115
4.45078e-118
2.11336e-120
1.24699e-122
8.47718e-125
6.0341e-127
4.16912e-129
2.74323e-131
1.71359e-133
1.0195e-135
5.87038e-138
3.301e-140
1.83084e-142
1.01031e-144
5.51592e-147
2.97175e-149
1.56793e-151
8.10974e-154
4.04642e-156
1.92118e-158
8.27668e-161
3.13069e-163
1.04685e-165
3.24014e-168
2.12031e-171
2.74106e-174
5.73871e-177
1.1813e-179
2.54583e-183
4.06618e-198
3.07e-196
7.96163e-199
1.11592e-201
1.15183e-204
9.7277e-208
7.1693e-211
4.74372e-214
2.89817e-217
1.66223e-220
9.18284e-224
4.91096e-227
2.61716e-230
1.42516e-233
7.94483e-237
4.06222e-240
1.78388e-243
6.85958e-247
2.44588e-250
8.33399e-254
2.77038e-257
9.0273e-261
2.93002e-264
9.47438e-268
3.07254e-271
1.0073e-274
3.368e-278
1.14152e-281
3.83214e-285
4.79385e-289
8.02185e-312
4.77813e-310
9.89722e-313
1.14331e-315
9.92973e-319
7.16395e-322
0
0
0
0
0
0
0
0
0
0
0
0
0
0
0
0
0
0
0
0
0
0
0
0
0
0
0
0
0
0
0
0
0
0
0
0
0
0
0
0
0
0
0
0
0
0
0
0
0
0
0
0
0
0
0
0
0
0
0
0
0
0
0
0
0
0
0
0
0
0
0
0
0
0
0
0
0
0
0
0
0
0
0
0
0
0
0
0
0
0
0
0
0
0
0
0
0
0
0
0
0
0
0
0
0
0
0
0
0
0
0
0
0
0
0
0
0
0
0
0
0
0
0
0
0
0
0
0
0
0
0
0
0
0
0
0
0
0
0
0
0
0
0
0
0
0
0
0
0
0
0
0
0
0
0
0
0
0
0
0
0
0
0
0
0
0
0
0
0
0
0
0
0
0
0
0
0
0
0
0
0
0
0
0
0
0
0
0
0
0
0
0
0
0
0
0
0
0
0
0
0
0
0
0
0
0
0
0
0
0
0
0
0
0
0
0
0
0
0
0
0
0
0
0
0
0
0
0
0
0
0
0
0
0
0
0
0
0
0
0
0
0
0
0
0
0
0
0
0
0
0
0
0
0
0
0
0
0
0
0
0
0
0
0
3.37413e-09
5.09522e-09
3.55919e-10
7.79723e-11
9.51679e-13
1.5576e-13
1.19691e-15
9.30227e-18
3.39775e-20
9.87898e-23
1.35304e-25
1.50438e-27
4.98927e-29
1.91993e-30
5.03387e-42
1.11422e-42
1.03059e-44
6.62908e-47
3.50682e-49
1.495e-51
7.4899e-54
2.82596e-56
1.19139e-58
4.91266e-61
1.45947e-63
6.08097e-66
1.68147e-68
7.63001e-71
2.64842e-73
1.36662e-75
5.29402e-78
2.35389e-80
9.85727e-83
3.71554e-85
1.74431e-87
6.48116e-90
2.67502e-92
1.13876e-94
3.59362e-97
1.55412e-99
6.94744e-102
1.84141e-104
9.6089e-107
1.86369e-109
3.33055e-117
1.17963e-118
3.07597e-121
1.18504e-123
4.7925e-126
2.15966e-128
9.875e-131
4.97672e-133
2.55356e-135
1.4753e-137
8.60913e-140
5.58334e-142
3.68324e-144
2.54056e-146
1.72837e-148
1.17095e-150
7.62244e-153
5.0315e-155
3.22632e-157
2.00622e-159
1.1538e-161
5.94794e-164
2.6034e-166
9.18829e-169
2.95832e-171
9.09728e-174
2.41327e-176
5.69745e-179
1.18955e-181
9.19538e-186
1.26421e-199
5.15379e-198
1.21605e-200
1.60653e-203
1.57779e-206
1.28476e-209
9.19628e-213
5.88009e-216
3.46634e-219
1.90169e-222
9.89061e-226
4.91168e-229
2.43062e-232
1.20657e-235
6.04692e-239
2.77902e-242
1.11523e-245
4.04789e-249
1.42306e-252
4.94725e-256
1.71655e-259
5.83378e-263
1.97619e-266
6.58825e-270
2.19173e-273
7.31937e-277
2.46935e-280
8.22203e-284
2.69318e-287
1.1824e-291
3.10152e-313
1.00544e-311
1.89661e-314
2.01429e-317
1.61708e-320
9.88131e-324
0
0
0
0
0
0
0
0
0
0
0
0
0
0
0
0
0
0
0
0
0
0
0
0
0
0
0
0
0
0
0
0
0
0
0
0
0
0
0
0
0
0
0
0
0
0
0
0
0
0
0
0
0
0
0
0
0
0
0
0
0
0
0
0
0
0
0
0
0
0
0
0
0
0
0
0
0
0
0
0
0
0
0
0
0
0
0
0
0
0
0
0
0
0
0
0
0
0
0
0
0
0
0
0
0
0
0
0
0
0
0
0
0
0
0
0
0
0
0
0
0
0
0
0
0
0
0
0
0
0
0
0
0
0
0
0
0
0
0
0
0
0
0
0
0
0
0
0
0
0
0
0
0
0
0
0
0
0
0
0
0
0
0
0
0
0
0
0
0
0
0
0
0
0
0
0
0
0
0
0
0
0
0
0
0
0
0
0
0
0
0
0
0
0
0
0
0
0
0
0
0
0
0
0
0
0
0
0
0
0
0
0
0
0
0
0
0
0
0
0
0
0
0
0
0
0
0
0
0
0
0
0
0
0
0
0
0
0
0
0
0
0
0
0
0
0
0
0
0
0
0
0
0
0
0
0
0
0
0
0
0
0
0
0
5.6315e-05
2.29861e-05
7.56619e-07
1.26834e-08
1.77923e-09
1.2014e-09
1.63675e-11
6.24445e-14
3.55627e-17
3.15667e-20
3.02159e-23
1.85867e-26
1.77349e-29
2.84825e-32
5.83851e-37
1.49394e-37
1.09527e-39
6.03295e-42
2.50742e-44
7.68052e-47
3.06504e-49
1.12869e-51
4.11075e-54
1.43622e-56
4.62014e-59
1.57285e-61
4.43433e-64
1.46301e-66
4.6926e-69
1.88586e-71
6.74251e-74
2.88481e-76
9.40202e-79
4.0142e-81
1.26298e-83
4.95189e-86
1.82013e-88
6.8228e-91
2.41248e-93
9.32458e-96
3.14164e-98
1.23608e-100
4.09574e-103
1.32417e-105
9.86232e-113
1.43392e-114
3.57578e-117
1.13054e-119
4.40237e-122
1.60014e-124
6.53802e-127
2.70084e-129
1.16888e-131
5.29115e-134
2.53901e-136
1.30586e-138
7.17879e-141
4.18332e-143
2.54628e-145
1.6008e-147
1.03462e-149
6.74204e-152
4.45727e-154
2.88364e-156
1.814e-158
1.0581e-160
5.36175e-163
2.14685e-165
7.36007e-168
2.3722e-170
7.35894e-173
2.15373e-175
4.74568e-178
1.31592e-181
1.18594e-194
3.3706e-194
6.98964e-197
8.33523e-200
7.59887e-203
5.83614e-206
3.93119e-209
2.38764e-212
1.32682e-215
6.87466e-219
3.35298e-222
1.56278e-225
6.99633e-229
3.03939e-232
1.28259e-235
5.28797e-239
2.12737e-242
8.3865e-246
3.2315e-249
1.22311e-252
4.53476e-256
1.65642e-259
5.9444e-263
2.108e-266
7.3724e-270
2.55582e-273
8.78325e-277
2.99951e-280
1.00159e-283
1.53937e-287
3.65865e-308
8.13978e-308
1.3584e-310
1.30093e-313
9.54408e-317
5.96485e-320
3.45846e-323
0
0
0
0
0
0
0
0
0
0
0
0
0
0
0
0
0
0
0
0
0
0
0
0
0
0
0
0
0
0
0
0
0
0
0
0
0
0
0
0
0
0
0
0
0
0
0
0
0
0
0
0
0
0
0
0
0
0
0
0
0
0
0
0
0
0
0
0
0
0
0
0
0
0
0
0
0
0
0
0
0
0
0
0
0
0
0
0
0
0
0
0
0
0
0
0
0
0
0
0
0
0
0
0
0
0
0
0
0
0
0
0
0
0
0
0
0
0
0
0
0
0
0
0
0
0
0
0
0
0
0
0
0
0
0
0
0
0
0
0
0
0
0
0
0
0
0
0
0
0
0
0
0
0
0
0
0
0
0
0
0
0
0
0
0
0
0
0
0
0
0
0
0
0
0
0
0
0
0
0
0
0
0
0
0
0
0
0
0
0
0
0
0
0
0
0
0
0
0
0
0
0
0
0
0
0
0
0
0
0
0
0
0
0
0
0
0
0
0
0
0
0
0
0
0
0
0
0
0
0
0
0
0
0
0
0
0
0
0
0
0
0
0
0
0
0
0
0
0
0
0
0
0
0
0
0
0
0
0
0
0
0
0
0.000705205
0.000644142
0.000639413
7.06194e-05
8.16528e-07
3.34054e-07
1.25655e-07
3.32769e-09
2.34088e-12
1.1763e-15
1.06444e-18
6.02392e-22
4.17749e-25
3.41197e-28
5.87609e-32
2.40649e-32
1.94928e-34
9.45713e-37
3.80108e-39
1.40486e-41
4.19031e-44
1.54506e-46
5.65355e-49
1.91931e-51
7.03468e-54
2.11882e-56
6.6776e-59
1.80914e-61
6.19505e-64
2.52222e-66
9.95378e-69
4.52101e-71
1.65073e-73
7.31164e-76
2.50683e-78
1.05303e-80
3.70634e-83
1.35838e-85
4.85055e-88
1.7544e-90
5.96017e-93
2.17747e-95
7.21303e-98
2.50894e-100
2.26589e-107
2.83859e-109
7.0678e-112
2.41474e-114
8.69775e-117
3.37046e-119
1.30877e-121
5.23423e-124
2.1262e-126
8.87839e-129
3.8297e-131
1.72127e-133
8.06942e-136
3.98743e-138
2.0399e-140
1.10825e-142
6.12795e-145
3.5765e-147
2.10866e-149
1.27361e-151
7.66001e-154
4.45187e-156
2.38437e-158
1.08017e-160
4.05588e-163
1.36449e-165
4.37447e-168
1.35373e-170
3.86514e-173
1.36804e-176
1.31638e-188
5.14498e-189
8.8121e-192
8.96336e-195
7.13431e-198
4.89745e-201
3.02654e-204
1.70417e-207
8.90146e-211
4.32884e-214
1.99565e-217
8.73924e-221
3.69788e-224
1.51151e-227
6.03757e-231
2.35194e-234
9.0035e-238
3.36983e-241
1.24286e-244
4.48525e-248
1.59871e-251
5.58414e-255
1.93095e-258
6.56442e-262
2.21339e-265
7.37354e-269
2.44028e-272
8.03218e-276
2.58358e-279
4.19655e-283
5.29022e-302
1.55464e-302
2.1202e-305
1.73582e-308
1.10835e-311
6.12156e-315
3.07885e-318
1.44761e-321
0
0
0
0
0
0
0
0
0
0
0
0
0
0
0
0
0
0
0
0
0
0
0
0
0
0
0
0
0
0
0
0
0
0
0
0
0
0
0
0
0
0
0
0
0
0
0
0
0
0
0
0
0
0
0
0
0
0
0
0
0
0
0
0
0
0
0
0
0
0
0
0
0
0
0
0
0
0
0
0
0
0
0
0
0
0
0
0
0
0
0
0
0
0
0
0
0
0
0
0
0
0
0
0
0
0
0
0
0
0
0
0
0
0
0
0
0
0
0
0
0
0
0
0
0
0
0
0
0
0
0
0
0
0
0
0
0
0
0
0
0
0
0
0
0
0
0
0
0
0
0
0
0
0
0
0
0
0
0
0
0
0
0
0
0
0
0
0
0
0
0
0
0
0
0
0
0
0
0
0
0
0
0
0
0
0
0
0
0
0
0
0
0
0
0
0
0
0
0
0
0
0
0
0
0
0
0
0
0
0
0
0
0
0
0
0
0
0
0
0
0
0
0
0
0
0
0
0
0
0
0
0
0
0
0
0
0
0
0
0
0
0
0
0
0
0
0
0
0
0
0
0
0
0
0
0
0
0
0
0
0
0
0.000575871
0.000571493
0.000616971
0.00061901
0.000196228
5.91695e-05
1.17291e-05
2.0481e-06
3.28446e-08
2.8311e-11
2.04337e-14
1.55472e-17
9.20182e-21
5.79726e-24
1.53459e-27
7.17255e-28
7.81209e-30
4.30044e-32
1.65142e-34
5.78608e-37
1.99665e-39
6.72817e-42
2.34655e-44
8.00724e-47
2.60072e-49
9.86242e-52
2.9483e-54
8.8338e-57
2.62322e-59
9.60174e-62
3.67475e-64
1.67056e-66
6.23903e-69
2.76511e-71
9.94047e-74
4.00525e-76
1.40162e-78
5.24397e-81
1.77498e-83
6.54749e-86
2.225e-88
7.88687e-91
2.60031e-93
8.27445e-96
1.04796e-102
1.28212e-104
3.30126e-107
1.02895e-109
3.76057e-112
1.35779e-114
5.25377e-117
2.01184e-119
7.98732e-122
3.20967e-124
1.32887e-126
5.59491e-129
2.44933e-131
1.09039e-133
5.10044e-136
2.41482e-138
1.21836e-140
6.16897e-143
3.32495e-145
1.78349e-147
9.97862e-150
5.51727e-152
2.96516e-154
1.45052e-156
6.05226e-159
2.17456e-161
7.25508e-164
2.3138e-166
6.96281e-169
7.94171e-172
4.11651e-183
2.6233e-184
3.67759e-187
3.1465e-190
2.14841e-193
1.29704e-196
7.19547e-200
3.73027e-203
1.81173e-206
8.2986e-210
3.59813e-213
1.49008e-216
5.93352e-220
2.29036e-223
8.60935e-227
3.17055e-230
1.14534e-233
4.07171e-237
1.4232e-240
4.90299e-244
1.66254e-247
5.56192e-251
1.83449e-254
5.98557e-258
1.92971e-261
6.17592e-265
1.96182e-268
6.19283e-272
1.91452e-275
2.84424e-279
2.28733e-296
1.02242e-297
1.10483e-300
7.53733e-304
4.14347e-307
2.00503e-310
8.9346e-314
3.77084e-317
1.52864e-320
4.94066e-324
0
0
0
0
0
0
0
0
0
0
0
0
0
0
0
0
0
0
0
0
0
0
0
0
0
0
0
0
0
0
0
0
0
0
0
0
0
0
0
0
0
0
0
0
0
0
0
0
0
0
0
0
0
0
0
0
0
0
0
0
0
0
0
0
0
0
0
0
0
0
0
0
0
0
0
0
0
0
0
0
0
0
0
0
0
0
0
0
0
0
0
0
0
0
0
0
0
0
0
0
0
0
0
0
0
0
0
0
0
0
0
0
0
0
0
0
0
0
0
0
0
0
0
0
0
0
0
0
0
0
0
0
0
0
0
0
0
0
0
0
0
0
0
0
0
0
0
0
0
0
0
0
0
0
0
0
0
0
0
0
0
0
0
0
0
0
0
0
0
0
0
0
0
0
0
0
0
0
0
0
0
0
0
0
0
0
0
0
0
0
0
0
0
0
0
0
0
0
0
0
0
0
0
0
0
0
0
0
0
0
0
0
0
0
0
0
0
0
0
0
0
0
0
0
0
0
0
0
0
0
0
0
0
0
0
0
0
0
0
0
0
0
0
0
0
0
0
0
0
0
0
0
0
0
0
0
0
0
0
0
0.000562786
0.000587454
0.000613104
0.000610137
0.000477733
0.000394033
0.000337946
8.86811e-05
1.09767e-05
1.12201e-07
1.60082e-10
2.17221e-13
1.70569e-16
6.31105e-20
3.75504e-24
5.75776e-25
1.18013e-26
1.48308e-28
9.50135e-31
4.51555e-33
1.9796e-35
7.73429e-38
3.25076e-40
1.25672e-42
4.87762e-45
1.83978e-47
6.7849e-50
2.19002e-52
6.6818e-55
2.35814e-57
9.48647e-60
4.39592e-62
1.81973e-64
8.11662e-67
3.20379e-69
1.32253e-71
4.83688e-74
1.87682e-76
6.24331e-79
2.26667e-81
8.01786e-84
2.61757e-86
9.24127e-89
2.98509e-91
3.94458e-98
4.21118e-100
1.17547e-102
4.00293e-105
1.38909e-107
5.23339e-110
1.9347e-112
7.5374e-115
2.91744e-117
1.16905e-119
4.75266e-122
1.96588e-124
8.31317e-127
3.59197e-129
1.56897e-131
7.13771e-134
3.25681e-136
1.563e-138
7.5359e-141
3.77978e-143
1.91281e-145
9.94603e-148
5.12219e-150
2.53529e-152
1.14129e-154
4.48387e-157
1.57775e-159
5.23317e-162
1.64665e-164
3.30939e-167
2.43986e-177
2.19462e-179
2.41963e-182
1.7293e-185
1.00463e-188
5.24012e-192
2.56918e-195
1.20443e-198
5.40006e-202
2.31231e-205
9.44466e-209
3.69398e-212
1.38941e-215
5.06109e-219
1.79404e-222
6.22642e-226
2.12149e-229
7.12123e-233
2.35542e-236
7.68972e-240
2.47636e-243
7.87506e-247
2.47354e-250
7.68729e-254
2.36507e-257
7.22196e-261
2.19145e-264
6.61861e-268
1.96559e-271
3.14467e-275
2.02561e-290
1.16647e-292
9.32721e-296
5.15662e-299
2.39245e-302
1.0029e-305
3.93846e-309
1.4814e-312
5.4053e-316
1.93264e-319
6.91692e-323
0
0
0
0
0
0
0
0
0
0
0
0
0
0
0
0
0
0
0
0
0
0
0
0
0
0
0
0
0
0
0
0
0
0
0
0
0
0
0
0
0
0
0
0
0
0
0
0
0
0
0
0
0
0
0
0
0
0
0
0
0
0
0
0
0
0
0
0
0
0
0
0
0
0
0
0
0
0
0
0
0
0
0
0
0
0
0
0
0
0
0
0
0
0
0
0
0
0
0
0
0
0
0
0
0
0
0
0
0
0
0
0
0
0
0
0
0
0
0
0
0
0
0
0
0
0
0
0
0
0
0
0
0
0
0
0
0
0
0
0
0
0
0
0
0
0
0
0
0
0
0
0
0
0
0
0
0
0
0
0
0
0
0
0
0
0
0
0
0
0
0
0
0
0
0
0
0
0
0
0
0
0
0
0
0
0
0
0
0
0
0
0
0
0
0
0
0
0
0
0
0
0
0
0
0
0
0
0
0
0
0
0
0
0
0
0
0
0
0
0
0
0
0
0
0
0
0
0
0
0
0
0
0
0
0
0
0
0
0
0
0
0
0
0
0
0
0
0
0
0
0
0
0
0
0
0
0
0
0
0.00059754
0.000615181
0.000603552
0.000501533
0.000251303
0.000323544
0.000371278
0.000413097
0.000149748
1.59164e-05
7.82936e-08
1.7973e-10
1.96127e-13
9.82916e-17
4.85632e-22
1.50471e-23
1.93993e-25
3.33545e-27
7.21763e-29
1.06163e-30
9.61136e-33
6.47259e-35
3.59066e-37
1.75522e-39
8.04298e-42
3.34195e-44
1.34912e-46
4.94661e-49
1.55605e-51
5.16049e-54
2.09962e-56
9.81856e-59
4.342e-61
1.96303e-63
8.2587e-66
3.4947e-68
1.32463e-70
5.30734e-73
1.79946e-75
6.77644e-78
2.28826e-80
8.12463e-83
2.76723e-85
9.39399e-88
1.30561e-94
1.32968e-96
3.68581e-99
1.24261e-101
4.48346e-104
1.64271e-106
6.07878e-109
2.29575e-111
8.83723e-114
3.47383e-116
1.39709e-118
5.73876e-121
2.37455e-123
1.01781e-125
4.29297e-128
1.90475e-130
8.26605e-133
3.79408e-135
1.72051e-137
8.16677e-140
3.87501e-142
1.89613e-144
9.33724e-147
4.56565e-149
2.14249e-151
9.17792e-154
3.47007e-156
1.2072e-158
3.97076e-161
1.07735e-163
2.04219e-172
2.83429e-175
2.30343e-178
1.35551e-181
6.68706e-185
2.99778e-188
1.28219e-191
5.35433e-195
2.18881e-198
8.70118e-202
3.34058e-205
1.23507e-208
4.40173e-212
1.51786e-215
5.08784e-219
1.66622e-222
5.35341e-226
1.69316e-229
5.2818e-233
1.62738e-236
4.9543e-240
1.49124e-243
4.44025e-247
1.30915e-250
3.82553e-254
1.1101e-257
3.20423e-261
9.21527e-265
2.61525e-268
4.19581e-272
2.76063e-285
2.216e-288
1.19734e-291
5.14627e-295
1.97278e-298
7.07046e-302
2.42773e-305
8.1021e-309
2.65351e-312
8.58358e-316
2.75363e-319
8.89318e-323
0
0
0
0
0
0
0
0
0
0
0
0
0
0
0
0
0
0
0
0
0
0
0
0
0
0
0
0
0
0
0
0
0
0
0
0
0
0
0
0
0
0
0
0
0
0
0
0
0
0
0
0
0
0
0
0
0
0
0
0
0
0
0
0
0
0
0
0
0
0
0
0
0
0
0
0
0
0
0
0
0
0
0
0
0
0
0
0
0
0
0
0
0
0
0
0
0
0
0
0
0
0
0
0
0
0
0
0
0
0
0
0
0
0
0
0
0
0
0
0
0
0
0
0
0
0
0
0
0
0
0
0
0
0
0
0
0
0
0
0
0
0
0
0
0
0
0
0
0
0
0
0
0
0
0
0
0
0
0
0
0
0
0
0
0
0
0
0
0
0
0
0
0
0
0
0
0
0
0
0
0
0
0
0
0
0
0
0
0
0
0
0
0
0
0
0
0
0
0
0
0
0
0
0
0
0
0
0
0
0
0
0
0
0
0
0
0
0
0
0
0
0
0
0
0
0
0
0
0
0
0
0
0
0
0
0
0
0
0
0
0
0
0
0
0
0
0
0
0
0
0
0
0
0
0
0
0
0
0.000651817
0.000625817
0.000423811
9.38177e-05
4.40784e-05
0.000101589
0.000189072
0.000152011
9.45558e-05
3.18316e-05
7.37596e-06
6.94992e-08
2.582e-10
2.95046e-13
1.59505e-15
1.3126e-17
1.05425e-19
1.5061e-22
3.71882e-25
2.53568e-27
3.12626e-29
4.80897e-31
5.51183e-33
5.37374e-35
4.36201e-37
3.27753e-39
2.52278e-41
1.68737e-43
1.25696e-45
7.39407e-48
4.66877e-50
2.64401e-52
1.48316e-54
7.7436e-57
3.87448e-59
1.88484e-61
8.81619e-64
3.88323e-66
1.69655e-68
6.64637e-71
2.61851e-73
9.56915e-76
3.60872e-78
1.39045e-80
5.86413e-83
2.44305e-85
6.7631e-88
2.95282e-90
1.64957e-92
9.58258e-95
4.28817e-97
1.77697e-99
6.75537e-102
2.58424e-104
9.5031e-107
3.62778e-109
1.36895e-111
5.40525e-114
2.14503e-116
8.8843e-119
3.64919e-121
1.58096e-123
6.58521e-126
2.93562e-128
1.23004e-130
5.60579e-133
2.37942e-135
1.11344e-137
4.88442e-140
2.32218e-142
1.0719e-144
5.10634e-147
2.38833e-149
1.06853e-151
4.34875e-154
1.60533e-156
5.5471e-159
1.76577e-161
4.91125e-164
1.28011e-166
3.80006e-169
2.6692e-172
1.50206e-175
7.14727e-179
3.0014e-182
1.16243e-185
4.33069e-189
1.59713e-192
5.89022e-196
2.15739e-199
7.75861e-203
2.71295e-206
9.18952e-210
3.01374e-213
9.59974e-217
2.98049e-220
9.06061e-224
2.70616e-227
7.96775e-231
2.31627e-234
6.66095e-238
1.89534e-241
5.3449e-245
1.4944e-248
4.15078e-252
1.14654e-255
3.15726e-259
8.68183e-263
2.38585e-266
6.20963e-270
9.08478e-274
4.00632e-278
9.05857e-282
3.30552e-285
1.11363e-288
3.57485e-292
1.10986e-295
3.3661e-299
1.00497e-302
2.96941e-306
8.72459e-310
2.55566e-313
7.48136e-317
2.1897e-320
4.94066e-324
0
0
0
0
0
0
0
0
0
0
0
0
0
0
0
0
0
0
0
0
0
0
0
0
0
0
0
0
0
0
0
0
0
0
0
0
0
0
0
0
0
0
0
0
0
0
0
0
0
0
0
0
0
0
0
0
0
0
0
0
0
0
0
0
0
0
0
0
0
0
0
0
0
0
0
0
0
0
0
0
0
0
0
0
0
0
0
0
0
0
0
0
0
0
0
0
0
0
0
0
0
0
0
0
0
0
0
0
0
0
0
0
0
0
0
0
0
0
0
0
0
0
0
0
0
0
0
0
0
0
0
0
0
0
0
0
0
0
0
0
0
0
0
0
0
0
0
0
0
0
0
0
0
0
0
0
0
0
0
0
0
0
0
0
0
0
0
0
0
0
0
0
0
0
0
0
0
0
0
0
0
0
0
0
0
0
0
0
0
0
0
0
0
0
0
0
0
0
0
0
0
0
0
0
0
0
0
0
0
0
0
0
0
0
0
0
0
0
0
0
0
0
0
0
0
0
0
0
0
0
0
0
0
0
0
0
0
0
0
0
0
0
0
0
0
0
0
0
0
0
0
0
0
0
0
0
0
0
0
0
0
0
0
0
0
0
0
0
0
0
0
0
0
0
0
0.00062763
0.000408168
4.6632e-05
5.80465e-06
4.05638e-06
1.51343e-05
5.39865e-05
6.39392e-05
5.18452e-05
1.47454e-05
2.3098e-06
1.15283e-07
5.07292e-10
5.06918e-12
2.75796e-14
7.71351e-17
1.20357e-19
1.37804e-22
2.2105e-25
1.04859e-27
8.78118e-30
1.02814e-31
9.98942e-34
8.90219e-36
9.23978e-38
8.27364e-40
6.66845e-42
5.28367e-44
3.89631e-46
2.76492e-48
1.80458e-50
1.1933e-52
8.25502e-55
5.08649e-57
3.12842e-59
1.75924e-61
1.04049e-63
5.28958e-66
2.99483e-68
1.44075e-70
7.37205e-73
3.46672e-75
1.6562e-77
7.40708e-80
3.40811e-82
1.50161e-84
5.76549e-87
2.24678e-89
8.21726e-92
3.08076e-94
1.37933e-96
5.2837e-99
2.2192e-101
8.63784e-104
3.58058e-106
1.45286e-108
6.14285e-111
2.62715e-113
1.15847e-115
5.19637e-118
2.38842e-120
1.10278e-122
5.21241e-125
2.43963e-127
1.16778e-129
5.50706e-132
2.63961e-134
1.24535e-136
5.91762e-139
2.77282e-141
1.30065e-143
6.03175e-146
2.77462e-148
1.24993e-150
5.3605e-153
2.11592e-155
7.70948e-158
2.65556e-160
8.38134e-163
2.65234e-165
8.4972e-168
2.48712e-170
1.14318e-173
4.73249e-177
1.77105e-180
6.13447e-184
2.03669e-187
6.70787e-191
2.23577e-194
7.54247e-198
2.54217e-201
8.43526e-205
2.72816e-208
8.56522e-212
2.61089e-215
7.74526e-219
2.24435e-222
6.37824e-226
1.78389e-229
4.9245e-233
1.34495e-236
3.64002e-240
9.77594e-244
2.60854e-247
6.92562e-251
1.8322e-254
4.83605e-258
1.27601e-261
3.37008e-265
8.93949e-269
2.24935e-272
5.82393e-276
1.59683e-279
4.26611e-283
1.14048e-286
3.04072e-290
8.08141e-294
2.14306e-297
5.68058e-301
1.50838e-304
4.01918e-308
1.07607e-311
2.89684e-315
7.83914e-319
2.12448e-322
0
0
0
0
0
0
0
0
0
0
0
0
0
0
0
0
0
0
0
0
0
0
0
0
0
0
0
0
0
0
0
0
0
0
0
0
0
0
0
0
0
0
0
0
0
0
0
0
0
0
0
0
0
0
0
0
0
0
0
0
0
0
0
0
0
0
0
0
0
0
0
0
0
0
0
0
0
0
0
0
0
0
0
0
0
0
0
0
0
0
0
0
0
0
0
0
0
0
0
0
0
0
0
0
0
0
0
0
0
0
0
0
0
0
0
0
0
0
0
0
0
0
0
0
0
0
0
0
0
0
0
0
0
0
0
0
0
0
0
0
0
0
0
0
0
0
0
0
0
0
0
0
0
0
0
0
0
0
0
0
0
0
0
0
0
0
0
0
0
0
0
0
0
0
0
0
0
0
0
0
0
0
0
0
0
0
0
0
0
0
0
0
0
0
0
0
0
0
0
0
0
0
0
0
0
0
0
0
0
0
0
0
0
0
0
0
0
0
0
0
0
0
0
0
0
0
0
0
0
0
0
0
0
0
0
0
0
0
0
0
0
0
0
0
0
0
0
0
0
0
0
0
0
0
0
0
0
0
0
0
0
0
0
0
0
0
0
0
0
0
0
0
0
0
0
0.000158571
2.3788e-05
1.07025e-06
2.1446e-07
5.08487e-07
2.99784e-06
1.54396e-05
2.13286e-05
2.38649e-05
9.57337e-06
7.34872e-07
4.31447e-08
1.49898e-10
8.81536e-13
3.92473e-15
1.12031e-17
1.98049e-20
2.64054e-23
4.58078e-26
1.60539e-28
7.34263e-31
4.60976e-33
3.07645e-35
2.19524e-37
1.59277e-39
1.20561e-41
8.72081e-44
6.30585e-46
4.44868e-48
2.77177e-50
1.89581e-52
1.27572e-54
7.80825e-57
4.83121e-59
2.81081e-61
1.55466e-63
8.82443e-66
4.51121e-68
2.43745e-70
1.19657e-72
6.01661e-75
2.8995e-77
1.4717e-79
6.92927e-82
3.4361e-84
1.61619e-86
6.13532e-89
2.37404e-91
8.23633e-94
3.11324e-96
1.1978e-98
4.56697e-101
1.7751e-103
6.90566e-106
2.75161e-108
1.11426e-110
4.61777e-113
1.96947e-115
8.63699e-118
3.88086e-120
1.79277e-122
8.37133e-125
3.99699e-127
1.91231e-129
9.28805e-132
4.50401e-134
2.20272e-136
1.07091e-138
5.21102e-141
2.51156e-143
1.20349e-145
5.71702e-148
2.70081e-150
1.26138e-152
5.7392e-155
2.47447e-157
9.86004e-160
3.63304e-162
1.27216e-164
4.23728e-167
1.35445e-169
3.73604e-172
1.41873e-175
4.69861e-179
1.48607e-182
4.88988e-186
1.71933e-189
6.25488e-193
2.25791e-196
7.89274e-200
2.65042e-203
8.56067e-207
2.67306e-210
8.12281e-214
2.41723e-217
7.08202e-221
2.05005e-224
5.87432e-228
1.66715e-231
4.68645e-235
1.30465e-238
3.59894e-242
9.84635e-246
2.67633e-249
7.24091e-253
1.95522e-256
5.28179e-260
1.43039e-263
3.88991e-267
1.06296e-270
2.9346e-274
8.06937e-278
2.20409e-281
6.03375e-285
1.63963e-288
4.41546e-292
1.17772e-295
3.11646e-299
8.20431e-303
2.15576e-306
5.67532e-310
1.50131e-313
3.99764e-317
1.07212e-320
4.94066e-324
0
0
0
0
0
0
0
0
0
0
0
0
0
0
0
0
0
0
0
0
0
0
0
0
0
0
0
0
0
0
0
0
0
0
0
0
0
0
0
0
0
0
0
0
0
0
0
0
0
0
0
0
0
0
0
0
0
0
0
0
0
0
0
0
0
0
0
0
0
0
0
0
0
0
0
0
0
0
0
0
0
0
0
0
0
0
0
0
0
0
0
0
0
0
0
0
0
0
0
0
0
0
0
0
0
0
0
0
0
0
0
0
0
0
0
0
0
0
0
0
0
0
0
0
0
0
0
0
0
0
0
0
0
0
0
0
0
0
0
0
0
0
0
0
0
0
0
0
0
0
0
0
0
0
0
0
0
0
0
0
0
0
0
0
0
0
0
0
0
0
0
0
0
0
0
0
0
0
0
0
0
0
0
0
0
0
0
0
0
0
0
0
0
0
0
0
0
0
0
0
0
0
0
0
0
0
0
0
0
0
0
0
0
0
0
0
0
0
0
0
0
0
0
0
0
0
0
0
0
0
0
0
0
0
0
0
0
0
0
0
0
0
0
0
0
0
0
0
0
0
0
0
0
0
0
0
0
0
0
0
0
0
0
0
0
0
0
0
0
0
0
0
0
0
0
2.80347e-06
2.28622e-07
6.11912e-08
4.79256e-08
1.02622e-07
5.04004e-07
1.56856e-06
4.91005e-06
5.6882e-06
2.42481e-06
1.45961e-07
4.45066e-09
1.14827e-11
4.24383e-14
1.51586e-16
4.46568e-19
8.28213e-22
1.50145e-24
2.79638e-27
7.25527e-30
2.39818e-32
8.84838e-35
3.63944e-37
1.73343e-39
9.42267e-42
5.88944e-44
3.87366e-46
3.1928e-48
1.87876e-50
1.4743e-52
8.23733e-55
5.36108e-57
3.11908e-59
1.86959e-61
1.05064e-63
5.62962e-66
3.0824e-68
1.5404e-70
7.95872e-73
3.82033e-75
1.83419e-77
8.54894e-80
3.8827e-82
1.73977e-84
7.61041e-87
3.26584e-89
1.33365e-91
5.33479e-94
1.98262e-96
7.80556e-99
2.97463e-101
1.16501e-103
4.50176e-106
1.79483e-108
7.18285e-111
2.98013e-113
1.25814e-115
5.50505e-118
2.47442e-120
1.13523e-122
5.35603e-125
2.53542e-127
1.22866e-129
5.92849e-132
2.91283e-134
1.42258e-136
7.03534e-139
3.45501e-141
1.70377e-143
8.33982e-146
4.07587e-148
1.9833e-150
9.60342e-153
4.58622e-155
2.13679e-157
9.51572e-160
3.90245e-162
1.46373e-164
5.14949e-167
1.72151e-169
5.44019e-172
2.91865e-175
1.36123e-178
5.66233e-182
2.17867e-185
8.03044e-189
2.91138e-192
1.05267e-195
3.79947e-199
1.35991e-202
4.78784e-206
1.64972e-209
5.55373e-213
1.82901e-216
5.90919e-220
1.87926e-223
5.90024e-227
1.83332e-230
5.64662e-234
1.72637e-237
5.24438e-241
1.58492e-244
4.77042e-248
1.43219e-251
4.29483e-255
1.28836e-258
3.86988e-262
1.16456e-265
3.51115e-269
1.06022e-272
3.20826e-276
9.66605e-280
2.89392e-283
8.63117e-287
2.55399e-290
7.48248e-294
2.16815e-297
6.2146e-301
1.76437e-304
4.97441e-308
1.39761e-311
3.92897e-315
1.10908e-318
3.16202e-322
0
0
0
0
0
0
0
0
0
0
0
0
0
0
0
0
0
0
0
0
0
0
0
0
0
0
0
0
0
0
0
0
0
0
0
0
0
0
0
0
0
0
0
0
0
0
0
0
0
0
0
0
0
0
0
0
0
0
0
0
0
0
0
0
0
0
0
0
0
0
0
0
0
0
0
0
0
0
0
0
0
0
0
0
0
0
0
0
0
0
0
0
0
0
0
0
0
0
0
0
0
0
0
0
0
0
0
0
0
0
0
0
0
0
0
0
0
0
0
0
0
0
0
0
0
0
0
0
0
0
0
0
0
0
0
0
0
0
0
0
0
0
0
0
0
0
0
0
0
0
0
0
0
0
0
0
0
0
0
0
0
0
0
0
0
0
0
0
0
0
0
0
0
0
0
0
0
0
0
0
0
0
0
0
0
0
0
0
0
0
0
0
0
0
0
0
0
0
0
0
0
0
0
0
0
0
0
0
0
0
0
0
0
0
0
0
0
0
0
0
0
0
0
0
0
0
0
0
0
0
0
0
0
0
0
0
0
0
0
0
0
0
0
0
0
0
0
0
0
0
0
0
0
0
0
0
0
0
0
0
0
0
0
0
0
0
0
0
0
0
0
0
0
0
0
0
1.27945e-07
2.84158e-08
1.54487e-08
1.79074e-08
2.00029e-08
4.30092e-08
5.36534e-08
1.01415e-07
1.84781e-07
9.82324e-08
9.58394e-09
6.68906e-11
1.3396e-13
4.4654e-16
1.29746e-18
2.31435e-21
4.57947e-24
7.81618e-27
1.45509e-29
2.86705e-32
7.97315e-35
2.69191e-37
1.09692e-39
5.49348e-42
3.1501e-44
1.95092e-46
1.25529e-48
8.07859e-51
4.60708e-53
3.2077e-55
1.73322e-57
1.05776e-59
5.8565e-62
3.30564e-64
1.75485e-66
9.20383e-69
4.66503e-71
2.31515e-73
1.11345e-75
5.26551e-78
2.39319e-80
1.09024e-82
4.74731e-85
2.07454e-87
8.66237e-90
3.64776e-92
1.43537e-94
5.8859e-97
2.18978e-99
8.79241e-102
3.28958e-104
1.31275e-106
5.01513e-109
2.04606e-111
8.24141e-114
3.50826e-116
1.51227e-118
6.78387e-121
3.1121e-123
1.45851e-125
6.94877e-128
3.34854e-130
1.6256e-132
7.96545e-135
3.90752e-137
1.93358e-139
9.53462e-142
4.72971e-144
2.32482e-146
1.14517e-148
5.58986e-151
2.72828e-153
1.32421e-155
6.36889e-158
3.00548e-160
1.36013e-162
5.67822e-165
2.14653e-167
7.52792e-170
2.48429e-172
1.66974e-175
9.87008e-179
5.10547e-182
2.36229e-185
1.0058e-188
4.06047e-192
1.5937e-195
6.17832e-199
2.37758e-202
9.06024e-206
3.40237e-209
1.2548e-212
4.54208e-216
1.61612e-219
5.66834e-223
1.96545e-226
6.7542e-230
2.3049e-233
7.81858e-237
2.63803e-240
8.85523e-244
2.9586e-247
9.84064e-251
3.25995e-254
1.07573e-257
3.5366e-261
1.15832e-264
3.77785e-268
1.22646e-271
3.95304e-275
1.27127e-278
4.04922e-282
1.27674e-285
4.01087e-289
1.24768e-292
3.85071e-296
1.17917e-299
3.5837e-303
1.08154e-306
3.24341e-310
9.67406e-314
2.87329e-317
8.50781e-321
4.94066e-324
0
0
0
0
0
0
0
0
0
0
0
0
0
0
0
0
0
0
0
0
0
0
0
0
0
0
0
0
0
0
0
0
0
0
0
0
0
0
0
0
0
0
0
0
0
0
0
0
0
0
0
0
0
0
0
0
0
0
0
0
0
0
0
0
0
0
0
0
0
0
0
0
0
0
0
0
0
0
0
0
0
0
0
0
0
0
0
0
0
0
0
0
0
0
0
0
0
0
0
0
0
0
0
0
0
0
0
0
0
0
0
0
0
0
0
0
0
0
0
0
0
0
0
0
0
0
0
0
0
0
0
0
0
0
0
0
0
0
0
0
0
0
0
0
0
0
0
0
0
0
0
0
0
0
0
0
0
0
0
0
0
0
0
0
0
0
0
0
0
0
0
0
0
0
0
0
0
0
0
0
0
0
0
0
0
0
0
0
0
0
0
0
0
0
0
0
0
0
0
0
0
0
0
0
0
0
0
0
0
0
0
0
0
0
0
0
0
0
0
0
0
0
0
0
0
0
0
0
0
0
0
0
0
0
0
0
0
0
0
0
0
0
0
0
0
0
0
0
0
0
0
0
0
0
0
0
0
0
0
0
0
0
0
0
0
0
0
0
0
0
0
0
0
0
0
0
3.86878e-09
6.52226e-09
7.72415e-09
8.43795e-09
3.97828e-09
2.95485e-09
1.37664e-09
1.37201e-09
2.46916e-09
1.39994e-09
7.54382e-11
1.51838e-13
3.22124e-16
6.10869e-19
1.53153e-21
3.75379e-24
8.48608e-27
1.89954e-29
4.28477e-32
1.14439e-34
3.60713e-37
1.41539e-39
6.6525e-42
3.59678e-44
2.11196e-46
1.2823e-48
7.83355e-51
4.70675e-53
2.81501e-55
1.66722e-57
9.43754e-60
5.32893e-62
2.8602e-64
1.52494e-66
7.7491e-69
3.90251e-71
1.8854e-73
9.00453e-76
4.14896e-78
1.8827e-80
8.2964e-83
3.61776e-85
1.53727e-87
6.46838e-90
2.65373e-92
1.08722e-94
4.28395e-97
1.73054e-99
6.58523e-102
2.60799e-104
9.89715e-107
3.93373e-109
1.53122e-111
6.2984e-114
2.5937e-116
1.12553e-118
4.9613e-121
2.27125e-123
1.05668e-125
5.02411e-128
2.41024e-130
1.16938e-132
5.70113e-135
2.80111e-137
1.37822e-139
6.82522e-142
3.36699e-144
1.66851e-146
8.19089e-149
4.02442e-151
1.96093e-153
9.54769e-156
4.62301e-158
2.2243e-160
1.0492e-162
4.76566e-165
2.02031e-167
7.74463e-170
2.70692e-172
3.58578e-175
1.47915e-178
8.43601e-182
4.5505e-185
2.23284e-188
1.01564e-191
4.38997e-195
1.84196e-198
7.60245e-202
3.10144e-205
1.2494e-208
4.95641e-212
1.933e-215
7.41181e-219
2.79862e-222
1.04301e-225
3.84471e-229
1.40395e-232
5.08371e-236
1.82603e-239
6.50724e-243
2.30084e-246
8.07311e-250
2.8117e-253
9.72221e-257
3.3382e-260
1.13837e-263
3.85515e-267
1.2963e-270
4.32674e-274
1.43271e-277
4.70922e-281
1.5348e-284
4.96e-288
1.59101e-291
5.06203e-295
1.59849e-298
5.01203e-302
1.56113e-305
4.83323e-309
1.48811e-312
4.55937e-316
1.39104e-319
4.44659e-323
0
0
0
0
0
0
0
0
0
0
0
0
0
0
0
0
0
0
0
0
0
0
0
0
0
0
0
0
0
0
0
0
0
0
0
0
0
0
0
0
0
0
0
0
0
0
0
0
0
0
0
0
0
0
0
0
0
0
0
0
0
0
0
0
0
0
0
0
0
0
0
0
0
0
0
0
0
0
0
0
0
0
0
0
0
0
0
0
0
0
0
0
0
0
0
0
0
0
0
0
0
0
0
0
0
0
0
0
0
0
0
0
0
0
0
0
0
0
0
0
0
0
0
0
0
0
0
0
0
0
0
0
0
0
0
0
0
0
0
0
0
0
0
0
0
0
0
0
0
0
0
0
0
0
0
0
0
0
0
0
0
0
0
0
0
0
0
0
0
0
0
0
0
0
0
0
0
0
0
0
0
0
0
0
0
0
0
0
0
0
0
0
0
0
0
0
0
0
0
0
0
0
0
0
0
0
0
0
0
0
0
0
0
0
0
0
0
0
0
0
0
0
0
0
0
0
0
0
0
0
0
0
0
0
0
0
0
0
0
0
0
0
0
0
0
0
0
0
0
0
0
0
0
0
0
0
0
0
0
0
0
0
0
0
0
0
0
0
0
0
0
0
0
0
0
0
0
2.54101e-09
1.85038e-09
1.22635e-09
7.61996e-10
3.47183e-10
9.89338e-11
1.07467e-11
5.45212e-12
5.24925e-12
2.30534e-12
1.71609e-13
4.10036e-16
9.14289e-19
2.1339e-21
5.22737e-24
1.28395e-26
3.08007e-29
7.68912e-32
2.06773e-34
6.59341e-37
2.58496e-39
1.23366e-41
6.79478e-44
3.97056e-46
2.40334e-48
1.44283e-50
8.54823e-53
4.95286e-55
2.88016e-57
1.58885e-59
8.76985e-62
4.73219e-64
2.46153e-66
1.26409e-68
6.21415e-71
3.02771e-73
1.41104e-75
6.53726e-78
2.90682e-80
1.28778e-82
5.51449e-85
2.35391e-87
9.76267e-90
4.03114e-92
1.61887e-94
6.51406e-97
2.54498e-99
1.00678e-101
3.85459e-104
1.51633e-106
5.82548e-109
2.32709e-111
9.26427e-114
3.87043e-116
1.63795e-118
7.25912e-121
3.27226e-123
1.52367e-125
7.18071e-128
3.44177e-130
1.66168e-132
8.08407e-135
3.95147e-137
1.94275e-139
9.56622e-142
4.73442e-144
2.33527e-146
1.15475e-148
5.66939e-151
2.78443e-153
1.3572e-155
6.61345e-158
3.19622e-160
1.53294e-162
7.20339e-165
3.27071e-167
1.3939e-169
5.32847e-172
1.34552e-174
5.43262e-178
2.48358e-181
1.30356e-184
6.86618e-188
3.41689e-191
1.6025e-194
7.19445e-198
3.14274e-201
1.34955e-204
5.71699e-208