/*--------------------------------*- C++ -*----------------------------------*\
| =========                 |                                                 |
| \\      /  F ield         | OpenFOAM: The Open Source CFD Toolbox           |
|  \\    /   O peration     | Version:  2.1.1                                 |
|   \\  /    A nd           | Web:      www.OpenFOAM.org                      |
|    \\/     M anipulation  |                                                 |
\*---------------------------------------------------------------------------*/
FoamFile
{
    version     2.0;
    format      ascii;
    class       volScalarField;
    location    "0.000700000";
    object      sL;
}
// * * * * * * * * * * * * * * * * * * * * * * * * * * * * * * * * * * * * * //

dimensions      [0 1 -1 0 0 0 0];

internalField   nonuniform List<scalar> 
12384
(
2.07103
2.11889
2.14302
2.14295
2.14985
2.11723
2.13248
2.15869
2.16097
2.17012
2.17186
2.16377
2.14228
2.12987
2.12528
2.12217
2.12389
2.12523
2.12595
2.12387
2.12256
2.12088
2.12159
2.12251
2.12226
2.12183
2.11868
2.11906
2.11325
2.11163
2.11048
2.10454
2.10494
2.0981
2.09942
2.09303
2.09402
2.08926
2.09092
2.08819
2.08864
2.08996
2.08996
2.09077
2.06993
2.06989
2.06959
2.06961
2.06934
2.06919
2.06911
2.0687
2.06869
2.06794
2.06799
2.06663
2.0666
2.06512
2.06539
2.06418
2.06462
2.06383
2.06415
2.06368
2.06387
2.06368
2.06378
2.06376
2.06378
2.06382
2.06382
2.06385
2.06387
2.06435
2.06435
2.06388
2.06385
2.06381
2.06382
2.06377
2.06374
2.06371
2.06369
2.06365
2.06363
2.06362
2.06359
2.06354
2.06351
2.06352
2.06355
2.06358
2.06362
2.06363
2.06364
2.06369
2.06371
2.06375
2.06377
2.06382
2.06382
2.06385
2.06387
2.06435
2.06435
2.06389
2.06384
2.06381
2.06381
2.06378
2.06375
2.06371
2.06369
2.06365
2.06364
2.06362
2.06357
2.06353
2.06353
2.06351
2.06355
2.06357
2.06362
2.06364
2.06365
2.06369
2.06371
2.06374
2.06377
2.06381
2.06381
2.06384
2.06389
2.06435
2.06435
2.06389
2.06385
2.06383
2.06383
2.06376
2.06375
2.06371
2.06369
2.06363
2.06363
2.06361
2.06358
2.06355
2.06352
2.06352
2.06355
2.06358
2.06362
2.06363
2.06364
2.06369
2.06371
2.06375
2.06377
2.06381
2.06382
2.06385
2.06387
2.06435
2.06435
2.06389
2.06384
2.06381
2.06381
2.06377
2.06375
2.06371
2.06369
2.06365
2.06364
2.06362
2.06357
2.06356
2.06352
2.06352
2.06354
2.06357
2.06361
2.06363
2.06364
2.0637
2.06372
2.06375
2.06378
2.06381
2.06383
2.06384
2.06388
2.06435
2.06435
2.06389
2.06385
2.06382
2.06382
2.06377
2.06374
2.06371
2.06368
2.06366
2.06364
2.06362
2.06357
2.06355
2.06351
2.06351
2.06355
2.06358
2.06362
2.06363
2.06364
2.06369
2.06371
2.06375
2.06376
2.06381
2.06382
2.06385
2.06387
2.06435
2.06436
2.06387
2.06386
2.06382
2.06382
2.06377
2.06374
2.06371
2.06369
2.06366
2.06364
2.06362
2.06357
2.06355
2.06351
2.06352
2.06355
2.06358
2.06362
2.06363
2.06364
2.06369
2.06371
2.06375
2.06376
2.06382
2.06382
2.06385
2.06387
2.06435
2.06436
2.06388
2.06384
2.06383
2.06382
2.06377
2.06374
2.06371
2.06368
2.06364
2.06363
2.06362
2.06358
2.06355
2.06352
2.06352
2.06353
2.06357
2.06362
2.06364
2.06365
2.06367
2.06371
2.06375
2.06376
2.06383
2.06383
2.06386
2.06389
2.06435
2.06435
2.06387
2.06385
2.06381
2.06382
2.06377
2.06374
2.0637
2.06368
2.06366
2.06364
2.06362
2.06358
2.06355
2.06351
2.06351
2.06354
2.06358
2.06362
2.06363
2.06364
2.06369
2.06371
2.06375
2.06377
2.06382
2.06382
2.06385
2.06387
2.06435
2.06435
2.06389
2.06385
2.06381
2.06382
2.06378
2.06374
2.06372
2.06367
2.06365
2.06363
2.06362
2.06358
2.06355
2.06351
2.06352
2.06354
2.06357
2.06362
2.06364
2.06366
2.06367
2.06372
2.06375
2.06377
2.06382
2.06381
2.06385
2.06389
2.06435
2.06436
2.06388
2.06386
2.06383
2.06382
2.06377
2.06375
2.06371
2.06368
2.06365
2.06364
2.06362
2.06357
2.06355
2.06353
2.06352
2.06357
2.0636
2.0636
2.06361
2.06363
2.06368
2.06371
2.06374
2.06378
2.06382
2.06381
2.06384
2.06388
2.06436
0.905806
1.16491
1.19577
1.20818
1.22337
1.07159
1.22717
1.42066
1.67256
1.81973
1.87629
1.98266
2.00317
1.97235
1.25687
1.22989
1.30573
1.35914
1.4134
1.49921
1.54075
1.63865
1.67231
1.7346
1.78573
1.81911
1.8602
1.89169
1.92161
1.94017
1.97238
1.96261
2.00169
1.99055
2.01323
2.01385
2.0093
2.02394
2.02161
2.01847
2.03252
2.01685
2.02721
2.05411
1.9971
1.96716
1.96892
1.97151
1.97425
1.97786
1.97832
1.97995
1.98155
1.98042
1.9839
1.98198
1.98422
1.98187
1.98192
1.98117
1.98186
1.98275
1.98249
1.9834
1.98332
1.98557
1.98673
1.98935
1.99106
1.99336
1.99472
1.99646
1.99885
2.04098
2.04097
1.99883
1.99671
1.99478
1.99322
1.99172
1.989
1.98737
1.98486
1.98355
1.98166
1.98125
1.9791
1.97757
1.97535
1.97613
1.97766
1.98
1.98061
1.9822
1.98274
1.98524
1.98652
1.98925
1.99106
1.99332
1.99479
1.99649
1.99894
2.04092
2.041
1.99887
1.99689
1.99471
1.99336
1.99186
1.98921
1.98745
1.9849
1.98353
1.98161
1.98116
1.97898
1.97713
1.97611
1.97552
1.97804
1.97925
1.98122
1.98152
1.98348
1.98476
1.98733
1.98902
1.99175
1.99323
1.99459
1.99681
1.99886
2.04099
2.04097
1.99907
1.99694
1.9947
1.99339
1.99101
1.9894
1.98684
1.98556
1.98307
1.98217
1.98072
1.97944
1.97749
1.97543
1.97616
1.97777
1.98008
1.98065
1.98223
1.98279
1.98531
1.98659
1.98928
1.99108
1.99337
1.99479
1.99648
1.99888
2.04097
2.04098
1.99887
1.99679
1.99457
1.99319
1.99168
1.98893
1.98727
1.98469
1.98342
1.98144
1.98114
1.97929
1.97845
1.97609
1.97588
1.97662
1.97902
1.98019
1.98201
1.98345
1.98607
1.98733
1.98975
1.99139
1.99368
1.99502
1.99693
1.99918
2.04093
2.04098
1.99889
1.99659
1.99488
1.99283
1.99141
1.98856
1.98708
1.9846
1.98361
1.98176
1.98143
1.97941
1.97807
1.97548
1.97586
1.97739
1.97997
1.98067
1.98229
1.98282
1.98531
1.98655
1.98925
1.99102
1.99333
1.99473
1.99644
1.99887
2.04097
2.04101
1.99933
1.99664
1.99499
1.99272
1.9913
1.98854
1.98717
1.98475
1.98376
1.98189
1.9815
1.97942
1.97798
1.97545
1.97595
1.97746
1.97995
1.98062
1.98224
1.98278
1.98527
1.98654
1.98926
1.99103
1.99332
1.99475
1.99646
1.9989
2.04094
2.04097
1.99892
1.99652
1.99465
1.99319
1.99074
1.98908
1.9864
1.9853
1.98294
1.98245
1.98078
1.9802
1.97805
1.9766
1.97537
1.977
1.9787
1.98123
1.98236
1.98371
1.98552
1.98705
1.98964
1.9913
1.99368
1.99491
1.99716
1.99906
2.04102
2.04089
1.9989
1.99631
1.99471
1.99257
1.99124
1.98852
1.98714
1.9847
1.98377
1.98194
1.98159
1.97957
1.97824
1.9756
1.97581
1.97724
1.97983
1.98058
1.98219
1.98279
1.98532
1.98664
1.98932
1.99114
1.9934
1.99487
1.99654
1.99891
2.04097
2.04098
1.99889
1.99673
1.99475
1.99322
1.99161
1.98879
1.98714
1.98456
1.98341
1.9815
1.98121
1.97921
1.97808
1.97551
1.97549
1.97778
1.97926
1.98135
1.98166
1.98353
1.98464
1.98718
1.98877
1.99155
1.99304
1.9946
1.99659
1.99878
2.04097
2.04091
1.99887
1.99622
1.99471
1.99237
1.99111
1.98829
1.98703
1.98452
1.98374
1.98182
1.98155
1.97955
1.97866
1.97602
1.97561
1.97711
1.97999
1.98071
1.982
1.98263
1.98509
1.98641
1.98914
1.99091
1.99323
1.99474
1.99645
1.99894
2.04094
0.225005
0.23317
0.167903
0.171066
0.178924
0.177424
0.165757
0.161788
0.189755
0.213954
0.217946
0.276138
0.351396
0.438679
0.118327
0.12161
0.123413
0.122465
0.121989
0.119966
0.121484
0.119693
0.120263
0.121965
0.119006
0.122777
0.119861
0.122859
0.121101
0.124632
0.124173
0.124992
0.127093
0.125054
0.130304
0.128605
0.131523
0.134526
0.130837
0.13459
0.141533
0.131434
0.143416
0.127001
0.109428
0.122612
0.12321
0.124508
0.124534
0.125831
0.12629
0.1277
0.127851
0.129218
0.129198
0.130193
0.130541
0.131382
0.131839
0.132225
0.131854
0.131911
0.131601
0.131747
0.131533
0.131048
0.130497
0.129808
0.129104
0.128491
0.128078
0.127487
0.126621
0.110291
0.110302
0.126617
0.127437
0.128035
0.128471
0.129022
0.129806
0.130443
0.131119
0.131681
0.132106
0.132338
0.132934
0.133643
0.134309
0.134147
0.133433
0.132751
0.132387
0.132069
0.131792
0.131135
0.130593
0.129836
0.129113
0.128468
0.128063
0.127467
0.126607
0.110292
0.110303
0.126612
0.127403
0.12803
0.128496
0.128942
0.129749
0.130422
0.131124
0.131689
0.132128
0.132371
0.132978
0.133777
0.134044
0.134242
0.133456
0.132852
0.132351
0.132148
0.13171
0.131159
0.130465
0.1298
0.12899
0.128533
0.128081
0.127429
0.126624
0.110303
0.110293
0.126473
0.127395
0.128039
0.128505
0.12913
0.129787
0.130483
0.131029
0.131704
0.132072
0.132371
0.132905
0.133643
0.134291
0.134134
0.133392
0.132723
0.132373
0.132062
0.131779
0.131112
0.130569
0.129824
0.129108
0.128468
0.128062
0.127466
0.126619
0.110291
0.110303
0.126624
0.127433
0.128098
0.128528
0.129018
0.129825
0.130483
0.131179
0.13173
0.132179
0.132376
0.132823
0.133287
0.133983
0.134215
0.133831
0.133108
0.132609
0.132156
0.131639
0.13085
0.130318
0.12966
0.129008
0.128404
0.127938
0.127358
0.126428
0.110292
0.110306
0.126616
0.127468
0.128018
0.128588
0.129146
0.129943
0.130553
0.131183
0.13165
0.132043
0.132281
0.132812
0.133466
0.134266
0.134259
0.13355
0.132776
0.132363
0.132036
0.131762
0.131112
0.130578
0.129833
0.129127
0.128488
0.128081
0.127482
0.126628
0.110292
0.110294
0.126464
0.127408
0.128053
0.128614
0.129175
0.129922
0.130511
0.131119
0.1316
0.132006
0.132265
0.132821
0.133501
0.134275
0.134221
0.133516
0.132773
0.132383
0.132053
0.131776
0.131125
0.130585
0.129832
0.12912
0.128481
0.128074
0.127476
0.126618
0.110292
0.11029
0.126576
0.127482
0.12805
0.128563
0.129208
0.129898
0.130606
0.131113
0.131701
0.131985
0.132334
0.132686
0.133286
0.133965
0.134292
0.133845
0.133144
0.13235
0.131933
0.13152
0.131013
0.130445
0.12971
0.129043
0.12842
0.127971
0.12733
0.12649
0.110298
0.110292
0.12662
0.127506
0.128139
0.128647
0.129187
0.129918
0.130524
0.131134
0.13159
0.131982
0.13223
0.132764
0.133403
0.134221
0.134277
0.133605
0.132821
0.132401
0.132072
0.131781
0.131108
0.130559
0.12981
0.129089
0.128449
0.128033
0.127446
0.126605
0.11029
0.110302
0.126631
0.127444
0.128053
0.128475
0.129057
0.129878
0.13053
0.131213
0.131727
0.132143
0.132358
0.132868
0.133436
0.134265
0.134281
0.133552
0.132864
0.132306
0.132079
0.131681
0.131178
0.130514
0.129875
0.129081
0.12852
0.128094
0.127479
0.126655
0.110303
0.110297
0.126628
0.127521
0.128141
0.128699
0.129243
0.129979
0.130574
0.13118
0.131619
0.132013
0.132263
0.132756
0.133248
0.134068
0.134369
0.133672
0.132747
0.132338
0.132142
0.131823
0.131195
0.130636
0.129879
0.129173
0.128492
0.128085
0.127492
0.126621
0.110292
1.256
0.782818
0.416783
0.243003
0.231722
0.295751
0.275338
0.216786
0.175954
0.164654
0.159709
0.153139
0.152342
0.158074
0.222938
0.23457
0.221753
0.212481
0.203923
0.194965
0.187679
0.180256
0.17456
0.17074
0.165868
0.163871
0.160074
0.159299
0.156204
0.155001
0.152946
0.152578
0.150197
0.150331
0.148974
0.148091
0.147762
0.147159
0.14601
0.147489
0.144678
0.147821
0.145221
0.142854
0.146847
0.148009
0.148395
0.147312
0.147571
0.146675
0.146759
0.14631
0.146138
0.146023
0.145847
0.145773
0.145656
0.145558
0.145518
0.145384
0.145501
0.145311
0.145493
0.145392
0.145474
0.145484
0.145491
0.145521
0.145495
0.145528
0.14551
0.145485
0.145396
0.142094
0.142107
0.145405
0.145518
0.1455
0.145494
0.145524
0.145479
0.145516
0.145468
0.145513
0.145465
0.145512
0.145466
0.145507
0.145469
0.145504
0.145467
0.145512
0.145464
0.145513
0.145459
0.145516
0.14547
0.145522
0.145488
0.145522
0.145518
0.145488
0.14539
0.142097
0.142105
0.145393
0.145521
0.145491
0.145521
0.145516
0.145482
0.145519
0.145469
0.145513
0.145464
0.145512
0.145467
0.145501
0.14549
0.14547
0.145508
0.145465
0.145512
0.145461
0.145513
0.145466
0.145518
0.14548
0.145519
0.145517
0.145491
0.145522
0.145391
0.142105
0.142108
0.145397
0.145514
0.145489
0.145526
0.145484
0.145517
0.145471
0.145513
0.145467
0.145511
0.145477
0.14549
0.145505
0.145469
0.145503
0.145467
0.145511
0.145463
0.145512
0.145459
0.145515
0.14547
0.145522
0.145489
0.145524
0.145516
0.145486
0.145394
0.142095
0.142104
0.14539
0.145522
0.145493
0.145514
0.145521
0.145479
0.145517
0.145465
0.145512
0.14546
0.145512
0.145465
0.14551
0.145467
0.145503
0.145467
0.145508
0.145468
0.145509
0.145477
0.145513
0.145479
0.145515
0.145485
0.145526
0.145491
0.145501
0.145406
0.142092
0.142107
0.145405
0.145516
0.145509
0.145493
0.145526
0.145474
0.145516
0.145463
0.145513
0.145464
0.145514
0.145466
0.145509
0.145469
0.145503
0.145467
0.145511
0.145465
0.145513
0.14546
0.145516
0.14547
0.145522
0.145489
0.145525
0.145515
0.145486
0.145394
0.142096
0.14209
0.145416
0.145489
0.145524
0.145488
0.145524
0.145474
0.145517
0.145466
0.145514
0.145465
0.145514
0.145467
0.145509
0.145469
0.145503
0.145467
0.145511
0.145465
0.145513
0.14546
0.145516
0.14547
0.145522
0.145488
0.145524
0.145516
0.145487
0.145391
0.142097
0.142091
0.145405
0.145496
0.145491
0.14553
0.145484
0.145519
0.145467
0.145514
0.145461
0.145514
0.145464
0.145513
0.145468
0.145505
0.145468
0.145504
0.145466
0.145511
0.14548
0.14549
0.145508
0.145477
0.145515
0.145483
0.145523
0.145485
0.145516
0.145409
0.142106
0.142098
0.145396
0.145485
0.145523
0.14549
0.145527
0.145476
0.145518
0.145466
0.145514
0.145465
0.145514
0.145467
0.14551
0.145469
0.145503
0.145467
0.145511
0.145464
0.145512
0.145461
0.145515
0.145472
0.145522
0.14549
0.145523
0.145517
0.145485
0.145395
0.142094
0.142105
0.14539
0.145524
0.145502
0.145496
0.145526
0.145476
0.145516
0.145464
0.145512
0.145462
0.145512
0.145465
0.145509
0.145472
0.145476
0.145507
0.145466
0.145512
0.145464
0.145514
0.145465
0.145517
0.145476
0.145526
0.145494
0.145502
0.145522
0.145394
0.142107
0.142098
0.145405
0.145486
0.145523
0.145484
0.145525
0.145471
0.145516
0.145461
0.145515
0.14546
0.145515
0.145464
0.145512
0.145467
0.1455
0.145471
0.145514
0.145472
0.145518
0.145472
0.145527
0.145481
0.145534
0.1455
0.14553
0.145524
0.145491
0.145392
0.142095
4.05576
4.36457
3.36248
0.902683
0.421714
0.42653
0.514873
0.489588
0.375368
0.298127
0.272183
0.241041
0.218135
0.211591
0.48367
0.549127
0.508806
0.467427
0.435871
0.407825
0.38497
0.365565
0.350609
0.337487
0.330449
0.321133
0.317725
0.311071
0.307385
0.304634
0.299436
0.30067
0.293745
0.296818
0.288923
0.292013
0.287966
0.285598
0.284492
0.282834
0.278914
0.279625
0.275977
0.27663
0.288528
0.289387
0.287172
0.287812
0.285898
0.285963
0.284815
0.284618
0.283928
0.28366
0.283115
0.283
0.282487
0.282495
0.281884
0.282143
0.281402
0.281799
0.281308
0.281476
0.281349
0.281346
0.281399
0.281338
0.28142
0.281355
0.281392
0.281435
0.281345
0.281196
0.281111
0.281335
0.281335
0.281397
0.281399
0.281319
0.281414
0.281313
0.281422
0.281296
0.281427
0.281294
0.281426
0.281337
0.281425
0.281338
0.281431
0.281309
0.281424
0.281281
0.281426
0.281284
0.281427
0.281317
0.281414
0.281358
0.281382
0.281438
0.281349
0.281197
0.281099
0.281342
0.281315
0.2814
0.281347
0.281332
0.281399
0.281315
0.28142
0.281289
0.281425
0.281296
0.281418
0.281353
0.281356
0.281418
0.281323
0.281424
0.281286
0.281425
0.281281
0.28142
0.281303
0.2814
0.281325
0.281348
0.2814
0.281324
0.281342
0.2811
0.281142
0.281329
0.281346
0.281423
0.281324
0.281417
0.281309
0.281427
0.281298
0.281427
0.281315
0.281405
0.281367
0.281361
0.281418
0.28133
0.281425
0.281308
0.281418
0.281281
0.281426
0.281284
0.281427
0.281317
0.281415
0.281358
0.281375
0.281431
0.281344
0.281196
0.2811
0.281342
0.281327
0.281401
0.281355
0.281325
0.2814
0.281302
0.28142
0.281274
0.281425
0.281273
0.281424
0.281309
0.281417
0.28133
0.281419
0.281324
0.281413
0.281331
0.281417
0.281327
0.281415
0.281318
0.281419
0.28134
0.281424
0.28139
0.281348
0.281169
0.281101
0.281335
0.281346
0.281352
0.281394
0.281303
0.281419
0.281288
0.281425
0.281275
0.281433
0.281289
0.281433
0.281331
0.281431
0.281339
0.281432
0.281309
0.281424
0.281282
0.281426
0.281284
0.281427
0.281311
0.281415
0.281351
0.281383
0.281431
0.281344
0.281196
0.281179
0.281326
0.281424
0.281341
0.281434
0.281305
0.281422
0.281291
0.281428
0.281275
0.281433
0.281295
0.281432
0.281331
0.281431
0.281338
0.281432
0.281309
0.281424
0.281282
0.281426
0.281284
0.281427
0.281311
0.281415
0.281358
0.281382
0.281438
0.281343
0.281196
0.281206
0.281373
0.281432
0.281432
0.281342
0.281433
0.281304
0.281434
0.281278
0.281427
0.281282
0.281425
0.281302
0.281425
0.281325
0.281418
0.281344
0.281412
0.281341
0.281394
0.281385
0.281336
0.281414
0.281309
0.281408
0.281313
0.281415
0.281313
0.281325
0.281119
0.281206
0.281349
0.281452
0.281342
0.281441
0.281307
0.28143
0.281286
0.281427
0.28127
0.281433
0.281289
0.281432
0.281331
0.281432
0.281338
0.281432
0.281316
0.281424
0.281288
0.281427
0.281291
0.281427
0.281318
0.281414
0.281358
0.281376
0.281431
0.281344
0.281196
0.281103
0.281343
0.281345
0.281405
0.281368
0.281328
0.281421
0.281306
0.281428
0.281276
0.281433
0.281289
0.281433
0.28133
0.28143
0.281416
0.281345
0.28144
0.281296
0.281439
0.281277
0.281428
0.281296
0.28142
0.281318
0.281399
0.281404
0.281344
0.281348
0.28111
0.281201
0.281339
0.281455
0.281336
0.281451
0.2813
0.281444
0.281279
0.281439
0.281259
0.281445
0.281276
0.28145
0.281326
0.281443
0.281354
0.281449
0.28134
0.281443
0.281298
0.281437
0.281299
0.281438
0.28133
0.281415
0.281359
0.281378
0.281428
0.281338
0.281192
4.20451
4.23732
4.39897
3.34009
1.1659
0.867739
0.746181
0.824664
0.761888
0.599078
0.490394
0.423228
0.36407
0.330724
1.0317
1.2332
1.13959
1.01782
0.905988
0.825678
0.76081
0.712653
0.671335
0.641272
0.610664
0.598854
0.57754
0.566625
0.555562
0.54819
0.535596
0.534826
0.51881
0.521774
0.508919
0.509007
0.500447
0.497647
0.491349
0.490691
0.483661
0.482606
0.475523
0.469414
0.512287
0.508622
0.508752
0.49999
0.500265
0.494581
0.494393
0.491408
0.490466
0.489063
0.488194
0.486995
0.486682
0.485239
0.485598
0.483865
0.484745
0.482972
0.484078
0.48289
0.483595
0.483125
0.483409
0.483354
0.483378
0.483418
0.483434
0.483377
0.483179
0.476133
0.476214
0.483064
0.483413
0.48338
0.483333
0.483392
0.483325
0.483389
0.483339
0.483404
0.483372
0.483404
0.483405
0.483456
0.483422
0.483455
0.483405
0.483428
0.483362
0.483394
0.483347
0.483378
0.483326
0.48339
0.483319
0.483399
0.483442
0.483392
0.483172
0.476132
0.476214
0.483069
0.48342
0.483361
0.483399
0.483381
0.483324
0.483397
0.483338
0.483403
0.483363
0.483403
0.483396
0.483474
0.483378
0.48342
0.483445
0.483396
0.483402
0.483362
0.483394
0.48333
0.483388
0.483324
0.483381
0.48339
0.483369
0.48342
0.483078
0.476215
0.476161
0.483056
0.483403
0.483373
0.483402
0.483312
0.483373
0.483334
0.483386
0.483364
0.483407
0.483393
0.483388
0.483473
0.48342
0.483446
0.483405
0.483428
0.483354
0.483393
0.483347
0.483378
0.483326
0.48339
0.483319
0.483416
0.483433
0.483375
0.483172
0.476133
0.476215
0.483079
0.48343
0.483377
0.483374
0.483379
0.483316
0.483387
0.483329
0.483385
0.483354
0.483384
0.483379
0.483427
0.483387
0.483437
0.483397
0.483429
0.483372
0.483424
0.483413
0.48339
0.483343
0.483384
0.483322
0.483404
0.483372
0.483386
0.483088
0.476152
0.476214
0.483087
0.48342
0.483364
0.483317
0.483382
0.483323
0.483378
0.48333
0.483386
0.483364
0.483411
0.483406
0.483463
0.483423
0.483472
0.483422
0.483436
0.483371
0.483402
0.483356
0.483378
0.483326
0.48339
0.483328
0.483415
0.483433
0.483384
0.483173
0.476134
0.476199
0.483113
0.48336
0.483438
0.483349
0.483382
0.48332
0.483371
0.48333
0.483387
0.483372
0.483412
0.483406
0.483463
0.483423
0.483463
0.483414
0.483436
0.483371
0.483394
0.483356
0.483377
0.483326
0.48339
0.483328
0.483416
0.483441
0.483384
0.483173
0.476133
0.476153
0.483179
0.483403
0.483374
0.483422
0.483331
0.483383
0.483326
0.483369
0.483347
0.483394
0.483362
0.483428
0.483396
0.483446
0.483404
0.483455
0.483407
0.48343
0.483368
0.483391
0.483393
0.483349
0.483382
0.483309
0.483394
0.483361
0.483393
0.483036
0.476206
0.476134
0.483175
0.483387
0.483448
0.48336
0.483385
0.483328
0.483371
0.48333
0.483385
0.483363
0.483411
0.483406
0.483463
0.483423
0.483464
0.483414
0.483437
0.483371
0.483402
0.483356
0.483387
0.483335
0.483391
0.48332
0.483408
0.483441
0.483375
0.483173
0.476133
0.476216
0.483097
0.48344
0.483389
0.483315
0.483392
0.483325
0.483387
0.48333
0.483394
0.483372
0.483411
0.483405
0.483463
0.483428
0.483442
0.483472
0.483414
0.483418
0.483373
0.483394
0.483338
0.483388
0.483333
0.4834
0.483333
0.483397
0.483438
0.483096
0.476213
0.476145
0.483165
0.483384
0.483452
0.483365
0.483385
0.483331
0.483379
0.483334
0.483396
0.483373
0.483434
0.48344
0.483502
0.48349
0.483527
0.483488
0.483501
0.483442
0.483464
0.483402
0.483432
0.483369
0.483428
0.483347
0.483377
0.483432
0.483355
0.483123
0.476101
4.06538
4.21754
4.38958
4.19928
2.30465
1.53044
1.5283
1.14509
1.24151
1.11855
0.957422
0.828845
0.68451
0.540486
1.81993
2.09856
2.06444
1.88581
1.68276
1.52696
1.42433
1.33227
1.2785
1.22301
1.18661
1.15618
1.13485
1.11435
1.10037
1.09062
1.07264
1.07279
1.05387
1.05389
1.03973
1.03804
1.02578
1.02571
1.0054
1.00276
0.994704
0.974411
0.970499
0.954941
1.04784
1.0388
1.026
1.02341
1.01414
1.01315
1.00661
1.0067
1.00244
1.0018
1.00022
0.998283
0.998043
0.996274
0.99556
0.994837
0.993338
0.993515
0.992053
0.992471
0.991507
0.991858
0.991352
0.991566
0.991465
0.991601
0.991612
0.991608
0.991672
0.99515
0.995145
0.991582
0.991599
0.99159
0.991506
0.991516
0.991437
0.991475
0.991415
0.991468
0.991394
0.991422
0.99135
0.991413
0.991347
0.991403
0.991338
0.99141
0.99136
0.991441
0.991415
0.991452
0.991409
0.991476
0.991446
0.991542
0.991615
0.991586
0.991682
0.995148
0.995146
0.991582
0.991566
0.991587
0.991535
0.991506
0.991422
0.991466
0.991404
0.991468
0.991394
0.991422
0.991338
0.991404
0.991376
0.991334
0.991401
0.991349
0.99142
0.991395
0.991455
0.991405
0.991453
0.991423
0.991504
0.991524
0.991587
0.991566
0.991582
0.995147
0.995177
0.991638
0.991635
0.991588
0.99155
0.99146
0.991487
0.991422
0.991461
0.991428
0.991457
0.991359
0.991367
0.991408
0.991334
0.991403
0.991337
0.991411
0.99136
0.991442
0.991415
0.991453
0.991409
0.991476
0.991446
0.991553
0.991614
0.991594
0.991662
0.995148
0.995147
0.991582
0.991567
0.991588
0.991522
0.991504
0.991427
0.991452
0.991403
0.991454
0.991393
0.991409
0.991348
0.9914
0.991334
0.991413
0.991346
0.991414
0.99137
0.991441
0.99143
0.991455
0.991421
0.99148
0.99148
0.991572
0.991594
0.991614
0.991652
0.995174
0.995148
0.991584
0.991586
0.991597
0.991507
0.991512
0.991437
0.991452
0.991426
0.991453
0.991396
0.99142
0.991361
0.991402
0.991347
0.991414
0.991348
0.991412
0.991361
0.991442
0.991416
0.991452
0.99141
0.991476
0.991447
0.991564
0.991615
0.991596
0.991673
0.995149
0.995166
0.991649
0.991605
0.991632
0.991524
0.991511
0.991437
0.991451
0.991415
0.991453
0.991397
0.991421
0.991361
0.991402
0.991347
0.991414
0.991338
0.991411
0.991361
0.991442
0.991416
0.991452
0.99141
0.991476
0.991446
0.991553
0.991605
0.991597
0.991672
0.995149
0.995171
0.991676
0.991609
0.991587
0.99156
0.991472
0.991474
0.99142
0.991449
0.991415
0.991429
0.991361
0.991409
0.991338
0.991413
0.991345
0.991416
0.991349
0.991429
0.991378
0.991422
0.991459
0.991433
0.991481
0.991471
0.991562
0.991586
0.991594
0.991592
0.995155
0.99515
0.991651
0.991606
0.991622
0.99153
0.9915
0.991435
0.991438
0.991414
0.991452
0.991396
0.99142
0.991362
0.991402
0.991347
0.991415
0.991338
0.991421
0.991361
0.991443
0.991417
0.991464
0.99141
0.991478
0.991447
0.991553
0.991616
0.991595
0.991663
0.995148
0.995148
0.991595
0.991582
0.99158
0.991504
0.991521
0.991442
0.991463
0.991414
0.991465
0.991404
0.991419
0.991371
0.991411
0.99135
0.991347
0.991403
0.991359
0.99141
0.991404
0.991454
0.991423
0.991461
0.991435
0.991523
0.991503
0.991585
0.991587
0.99159
0.995154
0.995182
0.991666
0.99163
0.991635
0.991572
0.991516
0.991479
0.991447
0.991447
0.991445
0.99143
0.991419
0.991372
0.991392
0.991345
0.991382
0.991311
0.991345
0.991317
0.991396
0.991364
0.991401
0.991347
0.99141
0.991383
0.991468
0.991522
0.991495
0.991591
0.995108
4.22209
4.33541
4.36981
4.05575
1.79148
1.94666
1.74464
2.25788
1.52281
1.63398
1.47494
1.27415
1.01954
0.778857
2.26009
2.53873
2.64783
2.60451
2.44106
2.26833
2.13837
2.03836
1.9576
1.8958
1.82621
1.7938
1.74382
1.72827
1.69192
1.68649
1.65331
1.65145
1.62352
1.61915
1.601
1.59403
1.5665
1.57653
1.53859
1.5529
1.51976
1.50811
1.48151
1.45906
1.64723
1.60649
1.59452
1.56592
1.56138
1.5468
1.54385
1.53633
1.53418
1.52921
1.52831
1.52489
1.52367
1.52225
1.52009
1.51937
1.51759
1.51655
1.51595
1.51502
1.51472
1.51432
1.5145
1.51421
1.5144
1.51431
1.51418
1.51381
1.51353
1.51609
1.51611
1.5135
1.51382
1.51411
1.51422
1.51434
1.51439
1.51441
1.51441
1.51444
1.51445
1.51444
1.51441
1.51443
1.51441
1.51442
1.5144
1.51442
1.51441
1.51445
1.51442
1.51439
1.51437
1.5144
1.5143
1.51425
1.51414
1.51376
1.51356
1.51607
1.51611
1.51352
1.5138
1.5141
1.51429
1.51434
1.51441
1.51441
1.51441
1.51444
1.51445
1.51444
1.5144
1.51442
1.51439
1.51441
1.51441
1.5144
1.51443
1.51444
1.51443
1.5144
1.5144
1.5144
1.51433
1.51426
1.51412
1.51381
1.51353
1.51612
1.51607
1.5135
1.51384
1.5141
1.51425
1.51431
1.5144
1.51438
1.51442
1.51444
1.51447
1.51442
1.51441
1.51443
1.5144
1.51442
1.5144
1.51442
1.51441
1.51444
1.51442
1.51439
1.51437
1.5144
1.5143
1.51425
1.51415
1.51377
1.51354
1.51607
1.51612
1.51352
1.51381
1.51412
1.51425
1.51433
1.51439
1.51439
1.51439
1.51442
1.51442
1.51442
1.51439
1.51441
1.51438
1.51442
1.5144
1.51442
1.51446
1.51448
1.51448
1.51442
1.51441
1.5144
1.51431
1.51425
1.51408
1.51379
1.51348
1.51603
1.51614
1.51352
1.51383
1.51412
1.51423
1.51434
1.51438
1.51439
1.51439
1.51444
1.51443
1.51445
1.51442
1.51443
1.51441
1.51443
1.51441
1.51443
1.51442
1.51445
1.51443
1.5144
1.51438
1.51441
1.51431
1.51426
1.51415
1.51378
1.51355
1.51608
1.51614
1.51352
1.51381
1.51414
1.51423
1.51433
1.51438
1.51439
1.51439
1.51443
1.51444
1.51445
1.51442
1.51443
1.51441
1.51443
1.51441
1.51443
1.51442
1.51445
1.51442
1.5144
1.51437
1.51441
1.51431
1.51426
1.51414
1.51377
1.51356
1.51608
1.51605
1.51355
1.5138
1.51409
1.51425
1.51428
1.51439
1.51436
1.51439
1.51439
1.51443
1.51441
1.51441
1.51439
1.51442
1.5144
1.51443
1.51441
1.51446
1.51446
1.51445
1.51444
1.5144
1.51441
1.51432
1.51426
1.5141
1.51381
1.5135
1.5161
1.51607
1.51353
1.51378
1.51413
1.51423
1.51432
1.51438
1.51439
1.51439
1.51442
1.51443
1.51444
1.51442
1.51443
1.51441
1.51443
1.51441
1.51443
1.51442
1.51445
1.51443
1.51441
1.51438
1.51441
1.51431
1.51426
1.51415
1.51377
1.51354
1.51607
1.51612
1.51353
1.51382
1.51412
1.51424
1.51434
1.5144
1.5144
1.5144
1.51444
1.51444
1.51444
1.51443
1.51442
1.51441
1.51441
1.51442
1.51442
1.51444
1.51444
1.51444
1.5144
1.51441
1.51439
1.51434
1.51423
1.51412
1.5138
1.51349
1.51609
1.51614
1.51354
1.5138
1.51413
1.51422
1.51434
1.51437
1.51441
1.5144
1.51446
1.51444
1.51448
1.51446
1.51447
1.51445
1.51446
1.51443
1.51441
1.51443
1.51446
1.51446
1.51444
1.51442
1.51437
1.51429
1.51419
1.51406
1.51357
1.51316
1.51555
4.53452
4.43114
4.30802
3.07536
2.08644
2.09983
2.37449
2.08161
2.28106
1.9125
2.11237
1.97579
1.73843
1.3222
1.46247
1.79332
2.24417
2.67704
2.82261
2.82467
2.79135
2.73108
2.67916
2.63652
2.61054
2.5734
2.54327
2.50343
2.48811
2.4667
2.44968
2.44179
2.42626
2.41878
2.40703
2.40161
2.38638
2.38644
2.36746
2.36539
2.3494
2.33783
2.31832
2.30245
2.27487
2.24639
2.32486
2.34231
2.37728
2.38227
2.34985
2.35293
2.33271
2.33594
2.32394
2.32482
2.31865
2.318
2.31511
2.31405
2.31239
2.31157
2.30981
2.30944
2.30715
2.30774
2.30474
2.30556
2.30368
2.30364
2.30302
2.30304
2.30249
2.30264
2.30242
2.30239
2.30282
2.3132
2.32234
2.32233
2.31322
2.30277
2.3024
2.30238
2.30244
2.30257
2.30257
2.30263
2.30257
2.3026
2.30257
2.30262
2.30257
2.3026
2.30256
2.30259
2.30257
2.30261
2.30257
2.30261
2.30256
2.30262
2.30257
2.30262
2.3025
2.30248
2.30237
2.30234
2.30276
2.3132
2.32233
2.32233
2.31324
2.30278
2.30242
2.30238
2.30247
2.30258
2.30259
2.30263
2.30258
2.30261
2.30258
2.30262
2.30257
2.30259
2.30259
2.30255
2.3026
2.30257
2.30262
2.30257
2.30261
2.30258
2.30263
2.30259
2.30258
2.30248
2.30238
2.30241
2.30277
2.31324
2.32233
2.32233
2.31321
2.30276
2.30239
2.30235
2.30247
2.30251
2.30262
2.30258
2.30262
2.30257
2.30261
2.30259
2.3026
2.30259
2.30256
2.3026
2.30257
2.30261
2.30257
2.30261
2.30256
2.30262
2.30258
2.30263
2.3025
2.30248
2.30238
2.30235
2.30277
2.3132
2.32233
2.32233
2.31324
2.30278
2.30241
2.30238
2.30247
2.30258
2.30258
2.30263
2.30258
2.30261
2.30257
2.30262
2.30257
2.30261
2.30256
2.3026
2.30258
2.30261
2.3026
2.3026
2.30258
2.30262
2.3026
2.30262
2.30251
2.30247
2.30237
2.30237
2.30275
2.3132
2.32233
2.32233
2.31323
2.30277
2.30239
2.3024
2.30244
2.30256
2.30257
2.30263
2.30257
2.3026
2.30256
2.30261
2.30256
2.30259
2.30255
2.30258
2.30257
2.3026
2.30257
2.30261
2.30256
2.30262
2.30258
2.30263
2.30251
2.30248
2.30236
2.30235
2.30277
2.31321
2.32233
2.32233
2.31321
2.30277
2.30237
2.30239
2.30241
2.30257
2.30257
2.30263
2.30257
2.30261
2.30256
2.30261
2.30257
2.3026
2.30255
2.30259
2.30257
2.3026
2.30257
2.30261
2.30256
2.30262
2.30258
2.30263
2.30251
2.30248
2.30236
2.30234
2.30277
2.31321
2.32233
2.32232
2.31319
2.30276
2.30238
2.30235
2.30246
2.30249
2.30262
2.30257
2.30262
2.30256
2.30261
2.30257
2.30261
2.30257
2.3026
2.30256
2.3026
2.30258
2.30262
2.30259
2.30259
2.30261
2.30262
2.30263
2.30254
2.30248
2.30237
2.30242
2.30278
2.31322
2.32233
2.32233
2.3132
2.30277
2.30233
2.30239
2.30239
2.30256
2.30257
2.30263
2.30257
2.3026
2.30256
2.30261
2.30256
2.30259
2.30255
2.30259
2.30257
2.3026
2.30257
2.30261
2.30256
2.30262
2.30258
2.30262
2.30251
2.30249
2.30238
2.30235
2.30277
2.3132
2.32233
2.32233
2.31324
2.30277
2.30239
2.30238
2.30247
2.30256
2.30257
2.30263
2.30257
2.3026
2.30256
2.30261
2.30256
2.3026
2.30255
2.30255
2.30259
2.30256
2.30261
2.30255
2.3026
2.30256
2.30262
2.30256
2.30255
2.30242
2.30239
2.30239
2.30277
2.31324
2.32233
2.32233
2.31321
2.30279
2.30235
2.30238
2.30239
2.30256
2.30257
2.30262
2.30253
2.30257
2.30251
2.30256
2.30252
2.30254
2.30251
2.30255
2.30255
2.30259
2.30257
2.3026
2.30258
2.30261
2.3026
2.30259
2.30252
2.30255
2.30245
2.30242
2.30278
2.31309
2.32191
2.31377
4.65006
4.54564
3.31609
2.29924
2.32564
2.2193
2.77083
2.94249
2.72995
2.10199
2.30754
2.59111
2.56425
2.27739
2.23483
2.41447
2.68139
2.84383
2.84634
2.83301
2.83784
2.83602
2.83962
2.83732
2.83193
2.82004
2.80542
2.78557
2.78036
2.76203
2.75545
2.75266
2.7425
2.73979
2.73184
2.73002
2.7173
2.72154
2.70451
2.7067
2.69778
2.6907
2.68369
2.67738
2.6677
2.65844
2.67092
2.67712
2.68334
2.69037
2.67628
2.67909
2.66902
2.67044
2.66278
2.66424
2.65913
2.65944
2.65701
2.65658
2.65521
2.65533
2.65346
2.6541
2.6518