/*--------------------------------*- C++ -*----------------------------------*\
| =========                 |                                                 |
| \\      /  F ield         | OpenFOAM: The Open Source CFD Toolbox           |
|  \\    /   O peration     | Version:  2.1.1                                 |
|   \\  /    A nd           | Web:      www.OpenFOAM.org                      |
|    \\/     M anipulation  |                                                 |
\*---------------------------------------------------------------------------*/
FoamFile
{
    version     2.0;
    format      ascii;
    class       volScalarField;
    location    "0.005650000";
    object      O2;
}
// * * * * * * * * * * * * * * * * * * * * * * * * * * * * * * * * * * * * * //

dimensions      [0 0 0 0 0 0 0];

internalField   nonuniform List<scalar> 
12384
(
0.00746314
0.00939976
0.0116018
0.0123501
0.0121064
0.0116511
0.0112176
0.0110183
0.0107786
0.0105287
0.00996522
0.00792541
0.00354196
0.00623059
0.0449847
0.0389967
0.0324307
0.0287834
0.0277464
0.0275
0.0274348
0.0273858
0.0272996
0.0272573
0.02738
0.0275645
0.0278635
0.028227
0.0285003
0.0286485
0.0289535
0.0288683
0.0292421
0.0290645
0.0291489
0.0294681
0.0295336
0.0298208
0.0303434
0.031363
0.0339442
0.0385501
0.0419755
0.0445717
0.00276145
0.0119619
0.0217011
0.0221432
0.020804
0.0193807
0.0173425
0.0160752
0.0147032
0.0138086
0.0131504
0.0124448
0.0125993
0.0120686
0.0123673
0.0118695
0.0121069
0.0120091
0.0120055
0.0120608
0.0121995
0.0124435
0.0128945
0.0135368
0.0129721
0.00777275
0.00515259
0.0117654
0.0125067
0.00871488
0.00118919
0.00131031
0.00210549
0.00247838
0.00248865
0.00253363
0.00253696
0.00259965
0.00262923
0.00259058
0.00264794
0.00265287
0.00266136
0.00259655
0.00263889
0.00253373
0.00248616
0.00229268
0.00249706
0.00251657
0.00264979
0.00261702
0.00252805
0.00232201
0.00234513
0.00444025
0.00549399
0.00447927
0.00330917
0.00315937
0.000135401
0.000143699
0.000179812
0.000277641
0.000345529
0.000396054
0.00029828
0.000532499
0.000759473
0.000723673
0.0010441
0.000929849
0.00114625
0.00126022
0.00114086
0.00134632
0.00111177
0.00114508
0.000836387
0.000594549
0.00036623
0.000216444
0.00274033
0.00801435
0.0080875
0.00614649
0.00458565
0.00370173
0.00360534
0.00365386
4.01265e-05
3.79164e-05
7.34718e-06
4.42133e-06
1.07252e-05
1.46418e-05
3.07089e-05
3.43721e-05
3.85157e-05
6.14641e-05
7.08778e-05
7.65736e-05
9.33752e-05
8.66636e-05
0.000100916
9.50014e-05
8.44648e-05
7.54683e-05
8.34061e-05
6.77239e-05
6.84125e-05
6.20907e-05
5.83169e-05
6.07545e-05
5.32902e-05
4.24842e-05
3.2018e-05
4.43196e-05
0.000150625
0.000326181
0.000483941
0.000496791
0.001568
0.00216227
0.00180368
0.00113615
0.000246486
0.000243848
0.000227731
0.000217066
0.00021387
0.000215692
0.000219752
0.000223431
0.000244368
0.000256343
0.000261797
3.87443e-05
4.00584e-05
2.87789e-06
9.14386e-05
0.000156724
-2.65293e-05
0.000173514
0.00692856
0.0217818
0.0215574
0.0164202
0.0128875
0.0110184
0.00277566
0.00216698
-1.48066e-07
4.97834e-05
5.52934e-05
3.96046e-05
3.16909e-05
2.10054e-05
2.26436e-05
1.70473e-05
2.21316e-05
1.51778e-05
2.09379e-05
1.28594e-05
1.54976e-05
2.1473e-05
2.18012e-05
1.81639e-05
2.28296e-05
1.26244e-05
1.48077e-05
1.4696e-05
2.51983e-05
-6.48302e-06
0.000129529
0.000145105
0.000141643
0.000184796
0.00018879
0.000182714
0.000260531
0.000300981
0.000280607
0.000230187
0.000195351
0.000174648
0.000113859
0.000142811
0.000129013
0.000121061
0.000112894
0.000103688
0.00013715
0.000126683
0.000142087
0.000173685
0.00017054
0.000202198
0.000216967
0.00031442
0.000348065
5.71302e-05
1.71132e-06
2.30319e-06
9.93405e-07
1.98582e-06
2.49697e-06
2.49226e-06
2.61388e-06
2.27532e-06
0.00415658
0.00113965
0.000271383
9.74218e-05
2.00783e-05
-1.74304e-05
-4.81574e-05
-1.18716e-05
2.14216e-05
3.81712e-05
2.33973e-05
4.04854e-05
5.94706e-05
7.54019e-05
8.7136e-05
6.69483e-05
9.44163e-05
0.000110108
0.000118287
0.000143732
0.000170825
0.00024777
9.13824e-05
3.25245e-05
2.47687e-05
2.73736e-05
3.23662e-05
1.8021e-05
2.04524e-05
2.07615e-05
5.1761e-05
2.61693e-05
9.95507e-06
1.02727e-05
1.38788e-05
2.16108e-05
2.10357e-05
2.2794e-05
1.55831e-05
2.40846e-05
1.55107e-05
1.54255e-05
1.80234e-05
1.28301e-05
2.02747e-05
2.06037e-05
2.26626e-05
1.90888e-05
2.36349e-05
1.99734e-05
2.92794e-05
4.24166e-06
1.60974e-05
1.6492e-05
1.39952e-05
1.28738e-05
1.20856e-05
1.28256e-05
1.3838e-05
1.6109e-05
0.000104652
7.09131e-05
1.46509e-05
2.14889e-05
1.71975e-06
4.95805e-06
2.80858e-06
6.49046e-06
8.21471e-06
8.7282e-06
9.83901e-06
1.0376e-05
9.83245e-06
9.78775e-06
9.9233e-06
8.60433e-06
8.3317e-06
7.10581e-06
6.6088e-06
5.28249e-06
4.87671e-06
5.17233e-06
3.63007e-06
4.24378e-06
4.01922e-06
3.89956e-06
4.75857e-06
6.77923e-06
1.21927e-05
0.0224937
0.0884265
0.0848825
0.0853918
0.0881447
0.0889506
0.0334499
7.27837e-07
3.26083e-07
3.07629e-07
2.74381e-07
2.42637e-07
2.60346e-07
2.46655e-07
2.01966e-07
1.58546e-07
1.37486e-07
9.24578e-08
1.29662e-07
1.23065e-07
1.04911e-07
1.02059e-07
1.09061e-07
1.06662e-07
1.14054e-07
5.56406e-08
1.87703e-07
4.01419e-07
9.88552e-07
1.10225e-05
0.0583593
0.0241809
0.0227609
0.0175031
0.0120825
0.00872789
0.00776236
0.0073488
0.00735515
0.0077361
0.00844527
0.00946685
0.00899199
0.00486438
0.0053201
0.0441517
0.0356533
0.0281101
0.0246501
0.0243729
0.0248649
0.0255408
0.0262036
0.0270034
0.0280024
0.0291195
0.0302717
0.0314087
0.0320157
0.0325928
0.0324654
0.0324429
0.0321037
0.0319086
0.0315723
0.0312202
0.0310171
0.030533
0.0302433
0.0300052
0.030578
0.0324189
0.0359489
0.0401026
0.046289
0.00324068
0.0159913
0.0231389
0.0211423
0.0169173
0.0142214
0.0123963
0.0111305
0.010067
0.00967419
0.00950456
0.00950508
0.00958046
0.00992073
0.00988645
0.0102544
0.00993508
0.00988679
0.0102008
0.0101304
0.0103966
0.0107925
0.0114177
0.0122837
0.0128712
0.0106045
0.00597664
0.00386629
0.00404804
0.00365871
0.00121008
0.0014658
0.00231197
0.00249714
0.00250668
0.00251229
0.00247117
0.00240473
0.00240296
0.00243312
0.0024712
0.00251404
0.00254174
0.00260552
0.00260398
0.00259241
0.00268702
0.00271591
0.00275182
0.00285347
0.00286839
0.00283926
0.00267374
0.00249478
0.00229704
0.0028933
0.00322362
0.00248099
0.00187095
0.00220153
0.00013615
0.000263962
0.000637733
0.00161543
0.00204494
0.00219812
0.00225125
0.00227463
0.00224874
0.00243988
0.00245386
0.00260592
0.0026933
0.00280924
0.00294763
0.00305174
0.00303928
0.00281029
0.00240164
0.00189596
0.00112832
0.000356349
0.00108345
0.00406643
0.00741177
0.00377742
0.00258173
0.00206221
0.00204732
0.00251821
8.41452e-05
2.36115e-05
1.56337e-05
2.01679e-05
3.20588e-05
5.01554e-05
6.20981e-05
8.09116e-05
0.000103524
0.000133138
0.000150826
0.00016319
-4.49624e-05
4.19695e-05
1.21278e-05
3.55279e-05
-2.28034e-05
0.000127691
0.000118313
0.000106312
0.000104225
9.08113e-05
9.09852e-05
8.19769e-05
7.07815e-05
5.51169e-05
3.38987e-05
3.58951e-05
5.67765e-05
4.30448e-05
0.000287733
0.000838395
0.001819
0.00119412
0.000219543
0.000116778
9.49349e-05
0.000109924
0.000134979
0.000201241
0.000232622
0.000137557
0.00042894
0.000718713
0.000800415
0.000810906
0.000861145
0.000873434
0.000772231
0.000792755
0.000809799
0.000752965
0.000449938
0.000156285
0.00154155
0.00803295
0.0190437
0.0242246
0.0210121
0.0147562
0.000207217
6.56147e-05
1.90927e-05
1.41662e-05
1.38752e-05
1.98687e-05
2.41312e-05
1.64008e-05
2.19036e-05
2.30624e-05
2.68935e-05
2.37799e-05
2.56612e-05
2.02721e-05
2.21617e-05
2.38906e-05
2.7331e-05
1.82039e-05
2.24398e-05
2.12184e-05
1.89112e-05
1.60045e-05
1.8305e-05
5.11188e-05
0.000106486
0.000167809
0.000189259
0.000182091
0.0001822
0.000194152
0.000339385
0.000245714
7.54193e-05
9.20388e-05
9.00821e-05
9.28054e-05
3.88046e-05
6.25092e-05
8.12209e-05
0.000133802
0.000128957
0.000129296
0.000128748
0.000117449
0.000123586
9.44287e-05
9.76523e-05
0.000151505
0.000178703
0.000202926
0.000325671
0.000149468
1.37268e-05
2.19662e-06
6.80242e-06
9.17405e-06
1.64358e-05
1.54157e-05
8.70485e-06
4.13007e-06
0.00193603
0.000135868
6.60195e-05
6.0108e-05
6.16991e-05
6.27797e-05
7.27469e-05
1.22209e-05
0.00012535
0.000141594
0.000186039
0.000184512
0.000200218
0.00018367
0.000178721
0.000194265
0.000189507
0.00019717
0.000185276
0.000172496
0.000158874
0.000215647
0.000167036
8.01928e-05
2.54456e-05
2.39083e-05
1.11379e-05
1.76964e-05
-1.24824e-06
1.47168e-05
3.10268e-05
8.75103e-06
1.68923e-05
2.59641e-05
2.91604e-05
3.69164e-05
3.05027e-05
3.58402e-05
3.14344e-05
3.3698e-05
3.2133e-05
3.27763e-05
2.98903e-05
3.29351e-05
3.19231e-05
2.92595e-05
3.17379e-05
2.91229e-05
2.32023e-05
2.54258e-05
2.25846e-05
2.63232e-05
2.08669e-05
1.56042e-05
8.14298e-06
4.2998e-06
7.17917e-06
8.96066e-06
1.21995e-05
1.42204e-05
2.27995e-05
1.63596e-05
1.28444e-05
9.4602e-06
7.10319e-06
6.8311e-06
1.05036e-05
5.56726e-06
2.31979e-05
2.77866e-05
3.23608e-05
3.54953e-05
-1.20802e-06
-1.27604e-05
-2.07435e-05
2.65091e-05
2.18976e-05
1.29303e-05
5.65355e-06
8.07851e-06
7.20706e-06
6.58944e-06
5.99484e-06
4.20902e-06
4.47558e-06
4.94274e-06
4.0466e-06
5.96591e-06
1.01411e-05
0.00062562
0.0213194
0.0109472
0.0289509
0.0654732
0.0282556
2.62079e-06
2.86796e-07
3.28353e-07
3.16762e-07
2.95127e-07
2.81767e-07
2.77602e-07
2.35529e-07
1.91336e-07
1.61254e-07
8.15083e-08
1.34002e-07
1.05545e-07
9.42221e-08
4.82311e-08
6.60302e-08
6.40676e-08
8.46105e-08
8.86123e-08
1.15099e-07
2.13122e-07
5.60629e-07
1.47324e-06
1.1621e-05
0.0538294
0.0255805
0.017491
0.00846333
0.00618433
0.00546609
0.00572841
0.0061025
0.0060492
0.0058016
0.0060535
0.00748132
0.00885555
0.00679814
0.00519708
0.0425525
0.0314274
0.0233654
0.0212112
0.0223276
0.023969
0.025474
0.027293
0.0291016
0.0311172
0.0330079
0.0342537
0.0348234
0.0348219
0.0345403
0.0342411
0.0333074
0.0333269
0.0321042
0.0326414
0.0312711
0.0313758
0.0303043
0.0303306
0.029686
0.0300443
0.0312683
0.0342107
0.0384076
0.0448551
0.00401544
0.0187397
0.0220707
0.016311
0.0119923
0.0108982
0.0102307
0.00964585
0.00914654
0.00879754
0.00872086
0.0088391
0.00961545
0.00992871
0.0103722
0.00976973
0.00960422
0.00921956
0.00910662
0.00925538
0.0095908
0.00984769
0.0104557
0.0110421
0.0119604
0.0117777
0.00826425
0.00425536
0.00302872
0.0029792
0.00122027
0.00162438
0.00232209
0.0024914
0.00245319
0.00233878
0.00222435
0.00215122
0.00220568
0.00232863
0.00247663
0.0026658
0.00283577
0.00292778
0.00304315
0.00305812
0.00314068
0.00309616
0.0032132
0.00326552
0.00326701
0.003151
0.00297757
0.00268417
0.00228498
0.00231248
0.0025674
0.0017575
0.00113522
0.00172222
0.000220464
0.00108676
0.00213845
0.00177948
0.00110428
0.000852037
0.000797811
0.000974928
0.00132098
0.00153929
0.00196685
0.00211373
0.00241793
0.00261996
0.00284015
0.00313209
0.00327626
0.00342675
0.00341914
0.00308612
0.00220586
0.00115113
0.00059127
0.00183558
0.00449479
0.0033645
0.00188997
0.00101162
0.0012115
0.00211838
7.28694e-05
1.35702e-05
1.8171e-05
3.44284e-05
6.65167e-05
7.62047e-05
8.78087e-05
0.000108765
0.000135999
-3.36581e-06
4.71543e-05
0.000121444
7.6909e-05
0.000104031
5.42362e-05
8.09952e-05
5.90767e-05
-1.29847e-05
0.000105375
0.000102314
9.47061e-05
8.72322e-05
8.9684e-05
8.53442e-05
7.82487e-05
6.98323e-05
4.37658e-05
3.71264e-05
4.03872e-05
6.85657e-05
0.000412355
0.00111715
0.00113509
0.00015084
4.41099e-05
4.73873e-05
0.000134435
0.000204875
0.00046282
0.00135683
0.00172877
0.0017951
0.00164154
0.00141352
0.00114348
0.000802929
0.00073719
0.000584781
0.000665874
0.000896064
0.00105514
0.00107765
0.000984991
0.000571274
0.000592564
0.00181697
0.00626101
0.0156637
0.0233851
0.0184141
6.86778e-05
1.35813e-05
1.27155e-05
2.19436e-05
2.62568e-05
4.88075e-05
4.914e-05
5.25913e-05
4.6593e-05
4.77869e-05
3.44187e-05
3.68963e-05
2.92534e-05
3.00315e-05
2.36215e-05
2.35456e-05
2.69826e-05
2.4171e-05
2.60336e-05
2.88311e-05
2.68252e-05
1.9803e-05
1.4234e-05
2.39899e-05
6.79831e-05
0.000149849
0.000205636
0.000184902
0.000134348
0.000168434
0.00016473
8.78787e-05
7.3857e-05
7.99599e-05
4.70265e-05
0.000131944
0.000212704
0.00030965
0.000352836
0.000346037
0.000573033
0.000659183
0.000560992
0.000356151
0.000339734
0.000300661
0.000227103
0.000191456
0.000180603
0.000155108
0.000237126
0.000306015
6.78457e-05
6.86049e-06
5.01066e-06
2.00219e-05
4.42038e-05
3.85405e-05
-2.29866e-07
1.07234e-05
0.000225161
6.39255e-05
4.73718e-05
5.22901e-05
5.5834e-05
-5.27881e-05
0.000148624
0.000245054
0.000410237
0.00102089
0.0014559
0.00171348
0.00190083
0.00201689
0.00201842
0.00175368
0.00162017
0.00118259
0.00057511
0.00028538
0.000226022
0.000209109
0.000247705
6.02766e-05
5.53733e-05
2.05674e-05
9.86788e-06
2.11076e-06
7.73452e-06
-2.93349e-06
-9.46589e-06
1.93492e-06
3.26553e-05
3.71764e-05
4.23789e-05
3.67128e-05
4.12786e-05
4.26906e-05
4.74655e-05
1.00374e-05
6.91025e-05
0.000103552
9.60155e-05
8.15895e-05
8.02691e-05
7.3475e-05
1.27705e-05
4.96769e-05
4.22858e-05
3.71252e-05
2.73973e-05
2.23784e-05
1.72947e-05
1.74086e-05
4.78583e-06
5.38513e-06
5.29316e-06
4.01767e-06
7.20895e-06
1.1207e-05
1.24813e-05
5.38325e-06
9.51836e-06
5.95485e-06
8.27964e-06
-7.81642e-07
2.49926e-05
3.47344e-05
-7.25978e-06
1.96991e-05
4.53823e-05
9.18439e-05
0.000111177
0.000145773
0.000158021
0.000146929
9.48814e-05
3.19024e-05
1.33157e-05
3.03169e-06
2.23292e-06
9.88618e-06
1.77929e-05
1.47728e-05
-1.68003e-06
7.68573e-06
4.30372e-06
5.65548e-06
8.20945e-06
3.68073e-05
1.00786e-05
5.21192e-06
0.000523029
0.025059
7.4185e-06
3.47993e-07
3.599e-07
3.50028e-07
3.62863e-07
3.92679e-07
3.87925e-07
3.84601e-07
3.82136e-07
3.796e-07
3.56457e-07
2.80186e-07
1.93759e-07
5.43825e-08
1.08741e-07
8.75955e-08
6.29385e-08
7.70372e-08
5.26656e-08
1.75409e-07
1.24747e-07
1.84402e-07
3.76013e-07
2.57041e-06
1.55471e-05
0.0528605
0.023174
0.0113271
0.00626661
0.0059111
0.00684351
0.00791168
0.00930171
0.00997544
0.00889946
0.00709332
0.00657082
0.00813928
0.00755517
0.00537161
0.0408509
0.0271047
0.0190932
0.0178301
0.0198321
0.0221055
0.0245949
0.0275505
0.0307206
0.0335775
0.0353051
0.0356766
0.035221
0.0341209
0.0324616
0.0309701
0.0297629
0.0290518
0.0286034
0.0285119
0.0286992
0.0288339
0.0286544
0.0287453
0.0288319
0.0292196
0.0303459
0.0330317
0.0371307
0.0438423
0.00530582
0.019545
0.0189274
0.0110608
0.00875057
0.00965554
0.00987767
0.00925329
0.00825407
0.00760518
0.00749358
0.00804982
0.0092057
0.00961268
0.00934939
0.00861173
0.00755445
0.00682994
0.00663902
0.00711888
0.00806168
0.00904006
0.00968382
0.0104043
0.011121
0.0116789
0.00952014
0.00558257
0.00302578
0.00274372
0.00121232
0.00155084
0.00229847
0.00248316
0.00232401
0.00212066
0.00200928
0.00207643
0.00220782
0.00247837
0.00283711
0.00324972
0.00365547
0.00440768
0.00503408
0.00519097
0.00499083
0.00464564
0.00443762
0.0043571
0.00429244
0.0040512
0.00327031
0.00294695
0.00248912
0.00214823
0.0020897
0.00133003
0.000709293
0.00155076
0.000922637
0.00186473
0.000753024
0.000426188
0.000371986
0.00037817
0.000227665
0.00090042
0.00142776
0.0019097
0.00228423
0.00250614
0.00272411
0.00287099
0.00296616
0.00300905
0.00320982
0.00341889
0.00359586
0.00370219
0.00314039
0.00199328
0.000840663
0.000760359
0.00240815
0.00256228
0.00112685
0.000253064
0.000518724
0.00180999
6.30091e-05
1.41159e-05
3.40042e-05
6.96346e-05
8.53082e-05
9.2895e-05
9.66704e-05
-1.19554e-05
7.37632e-05
6.43191e-05
0.000100803
0.00011501
5.59519e-05
3.58508e-05
2.10695e-05
5.08583e-07
0.000112733
0.000101103
0.000105476
9.13929e-05
8.47025e-05
8.40681e-05
8.71665e-05
9.28087e-05
8.91905e-05
8.14466e-05
5.25866e-05
3.75354e-05
3.62891e-05
5.67269e-05
0.000488357
0.000997602
0.000170793
1.34725e-05
4.41188e-06
0.000111493
0.000239701
0.00138575
0.0022177
0.00238019
0.00217331
0.0015739
0.000678998
0.000262925
0.000202864
0.000170788
0.000161917
0.000153391
0.000167912
0.000224407
6.49052e-05
0.000663913
0.00104227
0.000992443
0.000553706
0.000789096
0.00186915
0.00607876
0.0194839
0.0202192
2.05736e-05
7.97077e-06
2.53647e-05
5.10492e-05
6.64717e-05
6.19204e-05
5.77779e-05
5.09989e-05
4.40456e-05
3.423e-05
2.99634e-05
2.78516e-05
2.43074e-05
1.95354e-05
1.86839e-05
1.92699e-05
1.61756e-05
2.27636e-05
1.96378e-05
2.49335e-05
2.81522e-05
2.53705e-05
1.63249e-05
1.35589e-05
3.57868e-05
6.81879e-06
0.000159757
0.00014647
0.000118351
0.000146898
8.04383e-05
6.53328e-05
7.33861e-05
6.0884e-05
0.000190179
0.000330506
0.000417708
0.00116023
0.00173306
0.00224395
0.00251855
0.00263711
0.00266454
0.0025178
0.00214099
0.00148435
0.000557881
0.00034235
0.000266701
0.000203879
0.000191062
0.000302189
0.000163975
1.77366e-05
6.87641e-06
2.24428e-05
4.56776e-05
3.76372e-05
3.96456e-05
2.53924e-05
6.4181e-05
5.25805e-05
4.70613e-05
5.97946e-05
7.16538e-05
0.000105694
0.000276622
0.00103093
0.00177561
0.00216687
0.00230301
0.00286955
0.00338913
0.00381689
0.00376724
0.00409578
0.00353023
0.0024994
0.00206109
0.00108866
-4.66243e-05
0.000265622
0.000252317
0.00022239
8.61827e-05
2.3137e-05
1.68313e-05
1.79852e-05
1.42419e-05
1.66326e-05
-1.85737e-06
1.79588e-05
4.00937e-05
3.48148e-05
3.70893e-05
3.79272e-05
5.37027e-05
4.54416e-05
0.000186081
0.000173984
0.000883046
0.00141221
0.00154617
0.00152703
0.00115879
0.000556066
0.00022058
0.000145062
3.39088e-05
4.90108e-05
3.76738e-05
2.85249e-05
1.86316e-05
1.93424e-05
5.87682e-06
5.0155e-06
4.90526e-06
4.88605e-06
2.71769e-06
6.19669e-06
3.77169e-06
9.04707e-06
6.99867e-06
7.70575e-06
-1.64817e-06
2.0773e-05
3.37215e-05
4.06724e-05
4.58333e-05
4.42395e-05
4.88384e-05
4.14455e-06
6.42252e-05
0.000114802
0.000168568
0.000137578
0.00016696
4.78847e-05
1.53268e-05
5.78488e-06
1.40049e-05
5.76678e-06
0.000151797
0.000174633
6.55861e-05
1.39519e-05
7.47518e-06
5.548e-06
7.80279e-06
2.82291e-05
1.1135e-06
9.69478e-07
6.41222e-05
0.000107321
8.22129e-07
3.77825e-07
3.80059e-07
4.09543e-07
4.31808e-07
5.49922e-07
4.88246e-07
6.7923e-07
5.68797e-07
6.56722e-07
4.04233e-07
4.75157e-07
3.57941e-07
2.33671e-07
7.25254e-08
1.1944e-07
8.72391e-08
8.56112e-08
3.21519e-07
1.1584e-06
2.79343e-06
7.76659e-07
2.32766e-06
3.15693e-06
3.00054e-05
0.058343
0.0209078
0.00965752
0.00718834
0.00792976
0.00970878
0.0112353
0.0129405
0.0145535
0.0138079
0.0093777
0.0068264
0.00761616
0.00780673
0.00557726
0.0389161
0.0232136
0.0153491
0.0146521
0.0163273
0.0190938
0.0228334
0.0274927
0.0321443
0.0353299
0.0361059
0.0354427
0.033444
0.0307065
0.0277701
0.0258423
0.0244631
0.0240828
0.0239234
0.0244496
0.0248331
0.025384
0.0260559
0.0265181
0.0271705
0.0282348
0.0295071
0.0323052
0.0364716
0.0433165
0.0064872
0.0191188
0.0144651
0.00685815
0.00710188
0.00945622
0.00973458
0.00862748
0.00707387
0.0060626
0.00619177
0.00734192
0.00900548
0.00923259
0.008681
0.00753388
0.00627024
0.00558279
0.00499359
0.00547083
0.00671337
0.00818431
0.00931165
0.0102222
0.0107153
0.0113197
0.0101668
0.00634142
0.00308375
0.00275305
0.00117754
0.00147169
0.00227631
0.00242833
0.00214434
0.00204746
0.00200177
0.00208223
0.00224281
0.00269423
0.00324008
0.00441007
0.00605519
0.00740514
0.00805329
0.00801249
0.00774222
0.00687962
0.00619817
0.00560477
0.00531471
0.00508283
0.00429502
0.0031758
0.00265672
0.00218669
0.00178126
0.00119574
0.000631935
0.00147369
0.00223583
0.000411424
0.000324216
0.000274486
0.000347581
0.00021969
0.0011562
0.00186556
0.00243162
0.00276149
0.00297646
0.00308508
0.00317689
0.00314927
0.0031745
0.0031106
0.00304441
0.003268
0.00349184
0.00380528
0.00367758
0.0027885
0.00146334
0.000737996
0.00121943
0.00149517
0.000410155
0.000417337
0.000107608
0.00165058
4.68083e-05
1.96115e-05
5.7819e-05
8.52445e-05
9.04718e-05
9.69371e-05
0.000101762
6.26798e-05
0.000116912
0.00010199
8.14184e-05
2.64869e-05
8.00331e-06
0.000103157
0.000103728
0.000105612
9.92875e-05
9.68381e-05
0.000103427
8.31867e-05
8.41396e-05
7.83458e-05
7.55838e-05
7.88634e-05
8.63771e-05
8.23026e-05
6.88398e-05
4.69758e-05
3.72432e-05
5.12922e-05
0.000489561
2.20405e-05
-3.81219e-06
-1.04648e-05
5.73337e-05
0.000203014
0.00121704
0.00229173
0.0028477
0.00213495
0.00109398
0.000261085
0.000175328
0.000104103
8.95832e-05
7.25743e-05
4.58664e-05
3.60033e-05
3.24936e-05
4.89503e-05
0.000147464
0.000239442
0.000595013
0.000972753
0.000785994
0.000534424
0.000943164
0.00222047
0.0146273
0.0203608
1.88297e-05
1.40421e-05
3.32619e-05
7.53986e-05
6.72656e-05
6.38113e-05
5.23431e-05
4.37103e-05
3.6133e-05
2.7765e-05
2.56451e-05
1.96854e-05
1.79808e-05
1.12777e-05
1.10932e-05
1.11414e-05
1.06948e-05
7.93022e-06
1.59283e-05
1.55581e-05
2.44175e-05
2.60838e-05
2.04642e-05
2.2058e-05
2.81559e-05
4.79292e-05
6.54022e-05
8.82493e-05
7.0261e-05
0.000121902
6.09005e-05
5.90374e-05
9.07181e-05
0.000184262
0.000342702
0.000700571
0.00157621
0.00232136
0.00292468
0.003641
0.00471477
0.00529201
0.00534131
0.00514133
0.00434265
0.00311398
0.00239359
0.00121436
0.000400439
0.000257048
0.00018061
0.000278723
0.000258449
3.86345e-05
1.01947e-05
2.59763e-05
2.37703e-06
1.87172e-05
4.46445e-05
1.55674e-05
5.06035e-05
5.61454e-05
5.25e-05
6.63679e-05
2.57668e-05
0.000222259
0.00088236
0.00171863
0.00220324
0.00244677
0.00298281
0.00375298
0.00407921
0.00427937
0.00444222
0.00447364
0.00476723
0.00472612
0.00350863
0.00218573
0.00107274
0.000310378
0.000280257
0.000263428
6.44092e-05
4.49021e-05
1.12888e-05
1.70715e-05
2.2671e-05
-9.192e-07
1.14059e-05
2.38768e-05
3.69422e-05
3.91003e-05
3.6278e-05
5.55791e-05
9.18571e-05
0.000289061
0.00159893
0.00307138
0.00719383
0.00974338
0.0112889
0.010898
0.00904768
0.00508163
0.0020812
0.000836168
0.000201229
5.65244e-05
4.54386e-05
3.55786e-05
2.68032e-05
3.47565e-06
8.79767e-06
5.43085e-06
5.39889e-06
4.90194e-06
4.62146e-06
3.15188e-06
3.02876e-06
7.18819e-06
6.81781e-06
1.05632e-05
1.56852e-05
3.13624e-05
3.62911e-05
3.46005e-05
2.64013e-05
2.75917e-05
2.48649e-05
3.15263e-05
3.61296e-05
4.29477e-05
7.90648e-05
0.000154945
-1.33164e-05
8.1978e-05
1.81884e-05
8.71932e-06
2.57976e-05
0.000172385
0.0023206
0.00410071
0.00099166
-1.87074e-05
1.08969e-05
6.52545e-06
7.73548e-06
2.48247e-05
1.14094e-06
2.8837e-07
2.2975e-05
4.65118e-06
5.03916e-07
4.04885e-07
4.29638e-07
4.9155e-07
5.04306e-07
9.94864e-07
1.37608e-06
1.42341e-06
1.52618e-06
9.4722e-07
1.34453e-06
8.21582e-07
2.67524e-07
3.84138e-07
2.03063e-07
4.99366e-08
1.09624e-07
8.80083e-08
4.43764e-07
6.80848e-07
1.0526e-05
4.65231e-06
5.46562e-06
4.84561e-06
0.00011833
0.0648508
0.0206755
0.0101986
0.00997545
0.0115502
0.0119185
0.0131642
0.0151453
0.0172345
0.0169214
0.0116962
0.00716981
0.00742463
0.0078294
0.00576578
0.0372926
0.0196666
0.0117495
0.0104905
0.0127498
0.0162032
0.0212011
0.027969
0.0337255
0.036462
0.0361903
0.034148
0.0308211
0.0270504
0.0242692
0.0223349
0.0208871
0.0202154
0.0203153
0.021253
0.0218558
0.0227946
0.0236648
0.0246183
0.025607
0.026658
0.0288067
0.0318561
0.036029
0.0432268
0.0067175
0.0179075
0.00988192
0.00387318
0.00565195
0.00942
0.00971171
0.0081886
0.00612084
0.00471971
0.00484859
0.00652696
0.00843078
0.00891876
0.008273
0.00740366
0.0063578
0.00589412
0.00550557
0.00542376
0.00654057
0.00828212
0.00938684
0.010193
0.0105242
0.0110448
0.0100259
0.00645881
0.00318385
0.00278686
0.00111033
0.00139499
0.00228218
0.00233712
0.00207112
0.0019748
0.00200598
0.0020632
0.0022417
0.00281225
0.00353512
0.00567774
0.00743858
0.00917479
0.00995778
0.0100984
0.00921644
0.00825476
0.00739548
0.00650638
0.00616108
0.0058313
0.00510416
0.00345241
0.00275611
0.00221515
0.00168315
0.00101787
0.00061117
0.0014723
0.0015801
0.000297468
0.000212478
0.000270726
0.000430647
0.0010766
0.00194447
0.00254553
0.0029108
0.00309295
0.00323463
0.00332188
0.00335801
0.00334288
0.00323448
0.00326098
0.00312515
0.00324159
0.00333346
0.0037131
0.00388081
0.00325306
0.00201809
0.000998161
0.000781085
0.000705705
0.000146914
0.000408442
0.000140583
0.00159894
4.20319e-05
3.31391e-05
7.84767e-05
-9.82181e-06
9.32154e-05
9.99861e-05
1.28143e-05
3.03161e-05
0.00010101
3.30545e-05
2.14229e-06
8.30952e-05
8.7566e-05
9.92722e-05
0.000103126
9.95324e-05
0.000110003
9.28052e-05
8.19238e-05
8.02714e-05
7.97403e-05
7.87787e-05
7.96827e-05
8.823e-05
8.83827e-05
7.72134e-05
6.80302e-05
4.48806e-05
3.76921e-05
5.0586e-05
0.000276518
0.000155836
5.79289e-05
5.93439e-05
9.13998e-05
0.000186461
0.00157052
0.0022049
0.00214852
0.0013221
0.000262175
0.000170463
0.000103796
0.000108833
0.000116538
6.24931e-05
5.87233e-05
2.91616e-05
8.19146e-05
7.62057e-05
3.51822e-05
0.000144854
-2.05706e-05
0.000749619
0.000820673
0.000464197
0.000534423
0.00147861
0.0123539
0.0201009
1.31776e-05
2.7555e-05
6.36133e-05
7.97655e-05
7.06213e-05
6.10502e-05
4.62648e-05
3.83411e-05
2.84898e-05
1.94733e-05
1.97198e-05
1.58236e-05
1.5541e-05
1.46626e-05
1.47275e-05
1.47342e-05
1.63314e-05
1.60727e-05
1.71524e-05
1.44951e-05
1.56756e-05
2.54339e-05
2.24959e-05
2.36463e-05
2.22951e-05
3.94059e-05
6.35673e-05
1.0812e-05
3.68751e-05
9.58814e-05
4.69052e-05
5.67634e-05
9.9548e-05
0.000290695
0.000436891
0.00141247
0.00229948
0.00302982
0.00447452
0.00632332
0.00775067
0.00846595
0.00852382
0.0078763
0.00699868
0.00580604
0.00359439
0.0024315
0.000910732
0.000324544
0.000209358
0.000250906
0.000286856
7.74238e-05
1.54603e-05
1.96586e-05
2.09705e-05
2.60862e-05
3.29496e-05
2.37556e-05
4.92298e-05
5.7894e-05
6.99254e-05
7.08835e-05
0.000111363
-2.64571e-05
0.00128651
0.00190296
0.002226
0.00261338
0.00384115
0.00440415
0.0046006
0.00433933
0.00422185
0.00423314
0.00472327
0.00513921
0.00498713
0.00279215
0.00177191
0.000300501
0.000287848
0.000259882
0.000172778
6.83849e-05
2.78859e-05
2.60228e-05
4.81359e-05
1.53986e-05
1.63962e-05
2.16197e-05
3.32961e-05
3.61513e-05
3.8335e-05
1.77291e-05
0.00025574
0.00154181
0.00489016
0.0109846
0.0161242
0.019734
0.0215183
0.0218003
0.0187577
0.0150253
0.00838284
0.00253395
0.000838657
0.000191314
-1.94129e-06
3.86872e-05
3.35478e-05
1.724e-05
1.16358e-05
1.33169e-06
1.2302e-06
5.41699e-06
4.63495e-06
1.75039e-06
8.90743e-06
7.12832e-06
8.13802e-06
5.52172e-06
1.9965e-05
2.5975e-05
2.36725e-05
1.99287e-05
6.55858e-06
7.74949e-06
6.80089e-06
1.48797e-05
6.58303e-06
2.30482e-05
3.59166e-05
5.4127e-05
0.000143851
0.000106705
2.34057e-05
1.20716e-05
2.62119e-05
0.000355793
0.00453778
0.00538375
0.0011609
-1.46995e-05
5.40931e-06
7.19349e-06
8.11186e-06
2.28354e-05
1.5223e-06
4.88638e-07
9.36097e-06
7.57834e-07
2.41875e-07
4.47688e-07
4.50638e-07
5.35404e-07
1.01064e-06
1.53498e-06
4.3611e-06
5.15186e-06
6.40275e-06
4.51031e-06
3.18774e-06
1.69332e-06
9.9542e-07
4.78949e-07
3.28974e-07
1.62674e-07
9.2707e-08
8.80394e-08
2.57907e-07
6.02411e-07
1.90036e-06
1.15647e-05
5.88144e-06
8.4105e-06
0.0019147
0.0712567
0.0217103
0.0130699
0.0147286
0.0149849
0.0134345
0.0149972
0.0177348
0.0191268
0.0179701
0.0122068
0.00788555
0.00761644
0.00787652
0.00596859
0.0352725
0.0155815
0.00852422
0.00790489
0.0101927
0.0139178
0.0198848
0.0287125
0.0350114
0.0369724
0.0357866
0.0327807
0.0291571
0.0255957
0.0229351
0.0204357
0.0186312
0.0177125
0.017434
0.0178213
0.0187225
0.0194404
0.0212487
0.0226628
0.0241466
0.0258096
0.0283243
0.0321146
0.0364195
0.0432523
0.00726953
0.0160942
0.00613423
0.00286904
0.00482521
0.00956002
0.00992433
0.0081367
0.0055222
0.00411208
0.00398588
0.0051101
0.0074192
0.00853304
0.00827226
0.0077785
0.00708739
0.00690924
0.00694607
0.00731043
0.00787843
0.00891942
0.00987238
0.0102907
0.0104732
0.010603
0.00933762
0.00613006
0.00320456
0.0028479
0.00103058
0.00142446
0.00234468
0.00224747
0.00198544
0.00202082
0.00202951
0.00202757
0.00217664
0.00272209
0.00350046
0.00560982
0.00757094
0.00935436
0.0102639
0.0104248
0.00989193
0.00861
0.00778874
0.00712213
0.00682148
0.00642654
0.0054626
0.00362107
0.00273258
0.00216441
0.00160193
0.00094873
0.000645013
0.00164107
0.000449825
0.000168821
0.000177564
0.000318158
0.000431188
0.00110242
0.00191422
0.00248038
0.00288025
0.00321525
0.00343218
0.0034987
0.00343708
0.00341618
0.00340636
0.0033028
0.00314503
0.00317512
0.00318359
0.00367942
0.00389855
0.00348007
0.00250984
0.00124389
0.00082777
0.000368862
0.000440985
0.000416683
0.000226583
0.00154135
4.43048e-05
4.8945e-05
8.8841e-05
-6.87366e-06
-9.68781e-06
-2.62817e-05
1.04093e-06
2.52506e-05
5.25822e-05
8.18699e-05
7.26417e-05
7.73778e-05
9.19909e-05
9.86544e-05
9.94391e-05
0.000107237
0.000104086
8.93391e-05
8.24841e-05
8.22583e-05
9.61451e-05
8.10484e-05
8.86814e-05
7.8672e-05
9.01804e-05
7.92388e-05
7.00229e-05
4.58204e-05
3.22594e-05
4.99623e-05
-8.91039e-05
5.79564e-05
5.36047e-05
5.51423e-05
9.98697e-05
-7.90958e-05
0.00131379
0.00198305
0.0019109
0.00082304
0.000223578
0.000113899
0.000123156
0.000132083
0.000129674
5.76415e-05
3.55534e-05
2.44708e-05
8.87605e-05
7.3606e-05
7.3617e-05
9.28464e-05
0.000227838
0.000490447
0.000769473
0.000431275
0.000353077
0.00123315
0.0128762
0.0197386
1.51858e-05
3.69615e-05
7.84977e-05
8.53056e-05
7.1209e-05
5.30482e-05
3.8646e-05
2.35946e-05
1.90058e-05
1.86594e-05
1.47051e-05
9.89745e-06
9.64328e-06
8.00152e-06
1.07338e-05
1.21171e-05
1.32332e-05
1.46543e-05
1.53631e-05
1.79901e-05
1.88296e-05
2.22674e-05
2.47225e-05
2.56539e-05
2.03102e-05
3.07997e-05
5.05614e-05
5.77444e-05
6.85958e-05
4.81324e-05
3.25441e-05
6.6624e-05
0.000185183
0.000368794
0.000854219
0.00179409
0.00270136
0.00354128
0.00599852
0.00830037
0.0106669
0.011838
0.0114511
0.0103192
0.00863767
0.00745364
0.00562906
0.00310557
0.00167735
0.000380645
0.000260696
0.000249714
0.000289832
8.05743e-05
2.27601e-05
1.51174e-05
1.66401e-05
5.48146e-06
3.76917e-05
2.94408e-05
5.53894e-05
6.66895e-05
8.03436e-05
7.21921e-05
0.000129706
0.000196166
0.00132911
0.0018101
0.00225729
0.00300278
0.00438821
0.00476742
0.00449542
0.00416767
0.00404019
0.00408085
0.00444528
0.00507004
0.00530718
0.00391744
0.00223002
0.000735386
0.000292324
0.000292664
0.00021242
-5.91417e-05
5.1409e-05
5.82676e-05
5.97067e-05
1.38054e-05
-9.90317e-07
-6.55714e-06
2.24064e-05
3.0425e-05
4.7305e-05
8.00511e-05
9.87765e-05
0.00254163
0.00838126
0.01593
0.0209457
0.0247944
0.0265842
0.0267722
0.0254834
0.0217984
0.01554
0.00715734
0.00209253
-6.17583e-06
9.45874e-05
4.34907e-05
3.22176e-05
1.80247e-05
1.36772e-05
5.0014e-06
4.38688e-06
1.48393e-06
4.94087e-06
1.54958e-06
8.91359e-06
7.37077e-06
8.29729e-06
7.4698e-06
1.93593e-05
2.40708e-05
7.29421e-06
-4.78018e-07
-2.24636e-06
-1.94861e-07
1.19692e-05
3.07506e-05
2.59959e-06
4.29104e-06
1.7824e-05