/*--------------------------------*- C++ -*----------------------------------*\
| =========                 |                                                 |
| \\      /  F ield         | OpenFOAM: The Open Source CFD Toolbox           |
|  \\    /   O peration     | Version:  2.1.1                                 |
|   \\  /    A nd           | Web:      www.OpenFOAM.org                      |
|    \\/     M anipulation  |                                                 |
\*---------------------------------------------------------------------------*/
FoamFile
{
    version     2.0;
    format      ascii;
    class       volScalarField;
    location    "0.005650000";
    object      OH;
}
// * * * * * * * * * * * * * * * * * * * * * * * * * * * * * * * * * * * * * //

dimensions      [0 0 0 0 0 0 0];

internalField   nonuniform List<scalar> 
12384
(
0.010373
0.0105181
0.010378
0.0102892
0.0102211
0.0102191
0.0102228
0.0101769
0.0101706
0.0101014
0.0101328
0.00992515
0.0097036
0.0104685
0.00347811
0.00361492
0.00402529
0.00449813
0.00472564
0.00481915
0.00486299
0.00494224
0.00501313
0.00512038
0.00519951
0.00532435
0.00535325
0.0054954
0.00544062
0.00568059
0.00555549
0.00589908
0.0057482
0.0061109
0.00600162
0.00628813
0.00622864
0.00641645
0.00630535
0.00609747
0.00554203
0.00490862
0.00458159
0.00448134
0.00378333
0.00495105
0.00487643
0.00491974
0.00506591
0.00522417
0.00539124
0.00550619
0.00565083
0.0057028
0.00578806
0.00576285
0.0057685
0.00572235
0.00567286
0.00566556
0.00559812
0.00560583
0.00551451
0.00552986
0.00550027
0.00551969
0.00551543
0.00546304
0.00534285
0.00494284
0.00463005
0.00510877
0.00520798
0.00513992
0.00293421
0.00324932
0.00359008
0.00367708
0.00359248
0.00360871
0.00359789
0.00364737
0.00366931
0.003662
0.00367406
0.00366
0.00365443
0.0035709
0.00356353
0.00346027
0.0033988
0.00320795
0.00333801
0.0033449
0.00345887
0.00350862
0.00351748
0.00348022
0.00348243
0.00392638
0.00395475
0.0038425
0.00371937
0.00362745
0.00142777
0.00145464
0.0016066
0.00187209
0.00208044
0.00220524
0.00233985
0.0023708
0.00256213
0.00243473
0.00265257
0.00254381
0.00269531
0.00276261
0.00267889
0.00290088
0.00273198
0.00292115
0.00275081
0.0027784
0.00257288
0.00244579
0.00372323
0.00489894
0.00490401
0.00462631
0.00442157
0.00423366
0.00419065
0.00420735
0.00132354
0.00103761
0.000828886
0.000748708
0.00079472
0.000821237
0.000940351
0.00101092
0.00108709
0.00124036
0.0013435
0.00142341
0.00152344
0.00152746
0.00156609
0.00152917
0.00146422
0.00136643
0.00141595
0.00124052
0.00127934
0.00116783
0.00117412
0.0011596
0.0011042
0.000987366
0.000867259
0.000998069
0.00160093
0.00200375
0.00193582
0.00186403
0.00231843
0.00267666
0.00246797
0.00218923
0.00179611
0.00167926
0.00163664
0.00160669
0.0015966
0.00160047
0.00161028
0.00161888
0.00165888
0.00169606
0.00171206
0.00171758
0.0017211
0.00176238
0.00182616
0.00188966
0.00187123
0.00200315
0.00368108
0.00356915
0.00368481
0.00394473
0.00400873
0.00404957
0.00330995
0.00303305
0.00191859
0.00126003
0.001081
0.000962191
0.000903029
0.000818021
0.000831785
0.000741441
0.000785351
0.00068354
0.0007362
0.0006623
0.000686414
0.000740941
0.000744033
0.000751085
0.000791445
0.000751749
0.000769778
0.000768936
0.000851105
0.00121793
0.00163542
0.00167268
0.00165697
0.0016995
0.0017088
0.00169403
0.00173204
0.00185979
0.00182979
0.00173601
0.00165395
0.00160557
0.00150625
0.00152388
0.00148517
0.00146163
0.00143556
0.00140627
0.00143906
0.00147022
0.00145288
0.00160267
0.00159059
0.00173241
0.00176368
0.0020145
0.00209147
0.00112744
0.000324701
0.000309889
0.000300845
0.00033352
0.000350375
0.000350147
0.000328876
0.000308021
0.00443044
0.00288598
0.00190202
0.00146655
0.00127749
0.00118426
0.00110144
0.00110613
0.00111417
0.00108459
0.00103309
0.00101586
0.00101938
0.00107147
0.0010631
0.00109615
0.00118279
0.00129737
0.00137884
0.00158403
0.00171554
0.00190327
0.00141916
0.000993863
0.000938531
0.000958394
0.000996163
0.000952785
0.000970083
0.000972507
0.00102439
0.000855398
0.000782115
0.000784518
0.000810719
0.0008208
0.00081527
0.000786988
0.000725048
0.000761113
0.000645881
0.000682319
0.000639288
0.000620018
0.000661927
0.000695322
0.000715096
0.000755607
0.000794878
0.000806527
0.000880345
0.000741624
0.000695941
0.000684999
0.000640549
0.000620579
0.000606406
0.000619405
0.00063715
0.000663907
0.00142012
0.000953624
0.000571865
0.000627485
0.000471002
0.000403376
0.000381979
0.000437067
0.000475071
0.000486464
0.000510974
0.000512837
0.000510947
0.000499049
0.000502163
0.000471017
0.000464448
0.000435465
0.000423571
0.000392195
0.000382438
0.000373155
0.00035292
0.000367331
0.000362083
0.000380427
0.000399362
0.000443739
0.000578284
0.00304517
0.000452578
0.000535202
0.000519003
0.000450451
0.00042317
0.00254199
0.00018077
0.000130978
0.000127818
0.000121805
0.000116028
0.000114197
0.000111237
0.00010268
9.42272e-05
8.98158e-05
8.10241e-05
8.27432e-05
8.02837e-05
7.43622e-05
7.34092e-05
7.5776e-05
7.53911e-05
7.80482e-05
7.46703e-05
9.63217e-05
0.000135192
0.000199393
0.00050514
0.00136873
0.00922239
0.00936982
0.00979353
0.0100925
0.0101409
0.0101397
0.010164
0.0101868
0.0101297
0.0101222
0.0101563
0.0100813
0.0099393
0.010412
0.00348978
0.00383137
0.00453558
0.00502193
0.00512392
0.0051562
0.00515615
0.00522768
0.00535706
0.00544043
0.00549633
0.00555086
0.00553392
0.00560994
0.00557921
0.00575687
0.00572026
0.00605401
0.00601557
0.0063924
0.00638753
0.00671808
0.00671849
0.00688816
0.0067621
0.00653321
0.00596444
0.005261
0.00475741
0.00439575
0.00397755
0.00497803
0.00480321
0.00499652
0.00530659
0.00550315
0.00572198
0.0058865
0.0058997
0.00582549
0.00574909
0.00566613
0.00562516
0.00561473
0.00556092
0.00556152
0.00549985
0.00543769
0.00546037
0.00545601
0.00545565
0.00546035
0.00548278
0.00546672
0.00540766
0.00525651
0.00472997
0.00440012
0.00452447
0.00439962
0.00296187
0.00330886
0.0035545
0.00353219
0.00346583
0.00349457
0.00347729
0.00347803
0.00348811
0.00351411
0.00353665
0.00354231
0.00353441
0.00353331
0.00349743
0.00340618
0.0034529
0.00339801
0.00339871
0.00347503
0.00350875
0.00354167
0.00351674
0.00349542
0.00347799
0.00365506
0.00367854
0.0032643
0.00297732
0.00312533
0.00143302
0.00187557
0.00265719
0.00324392
0.00346671
0.00350433
0.00350853
0.00344086
0.00344918
0.00344579
0.00348978
0.00351276
0.00357012
0.00363053
0.00375831
0.00379964
0.00387559
0.00380727
0.00366338
0.00345956
0.00306542
0.00261952
0.00289748
0.00440563
0.00480118
0.00426692
0.00366793
0.00340012
0.00341352
0.00363999
0.00132282
0.000939559
0.000832826
0.000814892
0.000946989
0.00107729
0.00119697
0.0013574
0.00153521
0.00174428
0.00187342
0.00196847
0.00181344
0.00187617
0.00180194
0.00173931
0.00160696
0.0016818
0.00162508
0.00152334
0.00153887
0.00142547
0.00143026
0.00137235
0.00126427
0.00111831
0.000918452
0.000899662
0.00109531
0.00134104
0.00180388
0.00196502
0.00247029
0.00220653
0.00160715
0.00136735
0.00131295
0.00135236
0.00141603
0.0015593
0.00164438
0.00174326
0.00187899
0.00199577
0.0020374
0.00203044
0.00207485
0.00208072
0.00205725
0.00207835
0.00211789
0.00211063
0.0020199
0.00195024
0.00263977
0.00378156
0.00374197
0.00350023
0.00370484
0.00394815
0.00168033
0.00116402
0.000747204
0.00066738
0.000687491
0.000779419
0.000844225
0.00083599
0.000874699
0.000834718
0.000865264
0.000798359
0.000814568
0.000768429
0.000784883
0.000799926
0.000829697
0.000796032
0.000830626
0.000821228
0.000803155
0.00077988
0.000797707
0.00105268
0.00150202
0.00164545
0.00163649
0.00161397
0.00161819
0.00165511
0.00199647
0.00178487
0.00141876
0.00138266
0.00136971
0.00138904
0.00133771
0.00139008
0.00142986
0.00149797
0.00147836
0.00147696
0.00147544
0.00144466
0.00146556
0.00145953
0.00146716
0.00161683
0.00168098
0.00179211
0.00204144
0.0016645
0.000658711
0.000340498
0.000504282
0.000649709
0.000753576
0.000738977
0.000562474
0.000422419
0.00331497
0.00155865
0.0011854
0.00114729
0.0011609
0.0011667
0.0012171
0.0011607
0.0013418
0.00137722
0.00144083
0.00140735
0.00146365
0.00140033
0.00138241
0.0014426
0.00144755
0.0015087
0.00155712
0.00158374
0.00161229
0.00182066
0.00179157
0.00132099
0.00094441
0.000937236
0.00091153
0.000958417
0.00090166
0.000939799
0.000892077
0.000776185
0.000835541
0.000899511
0.000920143
0.000938366
0.0008855
0.000893881
0.000823894
0.000843808
0.000803235
0.00078907
0.000781336
0.000790745
0.000780118
0.000775275
0.000800161
0.000803704
0.000787153
0.0008079
0.000825418
0.000858516
0.000774572
0.00066948
0.000537201
0.000469152
0.000494504
0.000528189
0.000589549
0.000627808
0.000642951
0.000567118
0.000552671
0.000491305
0.000450646
0.000444682
0.000525538
0.000549316
0.00068995
0.000735915
0.000781885
0.000800932
0.000741818
0.000698284
0.00067043
0.000701965
0.000651944
0.000553915
0.000474888
0.000448069
0.000425565
0.000409688
0.000394398
0.00036678
0.000372885
0.00038375
0.000383656
0.00042583
0.000517789
0.00173543
0.00311093
0.0033437
0.00278389
0.001075
0.00282153
0.000296182
0.000134435
0.000131509
0.0001293
0.000125201
0.000122567
0.000121476
0.000114067
0.000106255
0.000100614
8.65178e-05
8.61377e-05
7.71219e-05
7.00699e-05
5.90363e-05
6.02026e-05
5.97729e-05
6.68222e-05
6.86827e-05
7.81542e-05
0.000101994
0.000157135
0.000234362
0.000512183
0.00155603
0.00909744
0.0098979
0.010131
0.00991746
0.00991525
0.00992591
0.0101662
0.010381
0.0104401
0.0102873
0.0101655
0.0100473
0.00996924
0.0103423
0.00353723
0.00420617
0.00504106
0.0053982
0.00535559
0.00532981
0.0053529
0.00546319
0.00545502
0.00544734
0.00537069
0.00535749
0.00532685
0.00543425
0.00547319
0.00570591
0.0057871
0.006055
0.00612519
0.00640875
0.00650392
0.00683485
0.00696574
0.00720445
0.00718132
0.00697671
0.00643685
0.00565736
0.00498936
0.00441969
0.00439214
0.00498447
0.00492612
0.00523756
0.00547612
0.00571449
0.00584258
0.00581604
0.00571535
0.00552707
0.00547451
0.0054154
0.00550161
0.0055213
0.00547794
0.00543953
0.00540143
0.00528826
0.00520815
0.00521206
0.00527488
0.0053258
0.00538533
0.00542922
0.00541704
0.00532907
0.0050231
0.00452936
0.00400845
0.00403841
0.0029762
0.00333348
0.00346509
0.00347393
0.00343018
0.00339664
0.00334343
0.00335593
0.00339961
0.00348246
0.00356502
0.00365676
0.00373006
0.0037446
0.00376512
0.00371485
0.00372072
0.00361577
0.00369648
0.0037011
0.00370283
0.00365679
0.00360828
0.00351637
0.00341474
0.00343268
0.00342548
0.0029489
0.00265874
0.00291483
0.00177033
0.00298335
0.00357215
0.00336879
0.00298288
0.00276224
0.00270041
0.00269004
0.00286842
0.00289987
0.00313798
0.00318431
0.00338986
0.00349421
0.00361555
0.0038396
0.00394108
0.00407856
0.00415971
0.00406369
0.00365145
0.00307186
0.00266682
0.00327656
0.00443082
0.00406414
0.00330919
0.00286357
0.00296555
0.00341841
0.00124456
0.000869832
0.000848145
0.000961246
0.00119665
0.00129139
0.00139903
0.00156246
0.0017553
0.00176687
0.00186577
0.00191486
0.00179973
0.00176292
0.00164256
0.00162061
0.00157533
0.0014025
0.00151635
0.00147699
0.00144977
0.00140107
0.00145452
0.00142922
0.00138603
0.00125846
0.00103271
0.000910357
0.000937477
0.00118909
0.00179814
0.00209595
0.00217281
0.00141239
0.00117126
0.00118092
0.00136848
0.00156301
0.00189457
0.00233227
0.00252133
0.0025535
0.00247478
0.00236708
0.00223065
0.00208491
0.00201045
0.00195935
0.00200492
0.00210034
0.00219163
0.00224489
0.00221764
0.00207033
0.00212931
0.00277353
0.00364635
0.00380349
0.00352528
0.00384108
0.00118747
0.000656685
0.000643784
0.000811853
0.000959083
0.00110913
0.00110858
0.00109475
0.00105084
0.000998542
0.000920775
0.000878149
0.000842534
0.000816722
0.00079578
0.000795735
0.000826047
0.000842877
0.00085791
0.000880956
0.000865721
0.000810106
0.000765788
0.000841157
0.00118253
0.00153799
0.00163072
0.00156983
0.00148471
0.00158188
0.00157983
0.00135202
0.00127664
0.00131756
0.00136008
0.0015604
0.00175083
0.00195556
0.00206153
0.00215981
0.00226669
0.00230001
0.0022324
0.00214712
0.0020215
0.00192984
0.00178662
0.00170929
0.00169004
0.00168312
0.00187134
0.00199488
0.001205
0.000494534
0.000552583
0.000974774
0.00112778
0.00109189
0.000843533
0.000639987
0.00178329
0.00114689
0.00109274
0.00113138
0.00115114
0.00109103
0.0014669
0.00169032
0.00189734
0.0021977
0.00230191
0.00244002
0.0025307
0.00260546
0.00260751
0.00244097
0.00236293
0.00229567
0.00201373
0.0018405
0.0017257
0.00173855
0.00190281
0.00154973
0.00115039
0.000914279
0.000906008
0.000924129
0.000959369
0.000895063
0.000707205
0.000784584
0.000949458
0.000979069
0.000981151
0.000934611
0.000938762
0.000947824
0.000964463
0.000990942
0.00104821
0.00116544
0.00113646
0.00108494
0.00108066
0.00106291
0.000925177
0.000970717
0.00092001
0.000875877
0.000823156
0.000823248
0.00078896
0.00070143
0.000478061
0.000434556
0.000431348
0.000434664
0.000494959
0.000570617
0.000521304
0.000470906
0.000492416
0.000425526
0.000476585
0.000489438
0.000708459
0.000807111
0.000789104
0.00087697
0.000960427
0.00107265
0.00113844
0.00123813
0.00128486
0.0012428
0.00104503
0.000750522
0.000558151
0.000446103
0.000437488
0.000521253
0.000607647
0.000574616
0.000436151
0.000449099
0.000389383
0.000418995
0.000475238
0.000878299
0.000506142
0.000409383
0.00167732
0.00294581
0.000430847
0.000142824
0.000136928
0.000135183
0.000136943
0.000141707
0.000144863
0.000144508
0.000144143
0.000143472
0.000135114
0.00012161
0.000106168
8.16132e-05
7.81692e-05
6.77993e-05
5.93651e-05
6.43475e-05
7.40984e-05
9.37542e-05
0.00010782
0.000148219
0.000213597
0.000294151
0.000558463
0.00160354
0.00935332
0.0101863
0.00978621
0.00956378
0.00924584
0.0092142
0.0096159
0.0103904
0.0108464
0.0107945
0.0103808
0.0101238
0.00998561
0.010319
0.00363688
0.00462337
0.00548981
0.00567662
0.0056917
0.00573427
0.0057661
0.00575583
0.00556551
0.0053691
0.00523979
0.00525226
0.00535334
0.00566052
0.00593825
0.00642359
0.00658935
0.00700436
0.00697742
0.00722508
0.00714602
0.0073329
0.0073078
0.00754931
0.00750832
0.00738005
0.00684871
0.00602618
0.00520056
0.00451239
0.00444313
0.00492509
0.00503128
0.00525423
0.00530554
0.00564395
0.00586203
0.0057998
0.00551984
0.00533782
0.00528391
0.0053018
0.00546194
0.00547874
0.0054639
0.00527203
0.00516292
0.00502429
0.00498293
0.00499631
0.00500425
0.0051451
0.00524958
0.005325
0.00535885
0.00534418
0.00519925
0.00467214
0.00398985
0.00389591
0.00298465
0.00326749
0.00343394
0.00346153
0.00337282
0.00328855
0.00326346
0.00332486
0.00341521
0.00358251
0.00376938
0.00398852
0.00418006
0.00429328
0.00433646
0.00424079
0.00412806
0.00407351
0.00389849
0.00386356
0.00384663
0.00383956
0.00372968
0.00359942
0.00345262
0.00336358
0.00328256
0.00283722
0.00253147
0.00284244
0.00293488
0.0034696
0.00284965
0.00233183
0.00219528
0.00217018
0.00233653
0.00258548
0.00290879
0.00309453
0.00334215
0.00344139
0.00358441
0.0036825
0.00374648
0.00377239
0.00394681
0.00407415
0.00419622
0.00435284
0.00410102
0.0035443
0.00286738
0.00273101
0.00356411
0.00364361
0.00290622
0.00244551
0.00258832
0.00324828
0.00117449
0.000873169
0.000960598
0.0012192
0.00133355
0.00140809
0.00145574
0.00152147
0.00171567
0.00177296
0.00174807
0.00169005
0.00154619
0.00150183
0.00147819
0.00144246
0.00156642
0.00149166
0.00155148
0.00143333
0.00142505
0.00142249
0.00144393
0.00148178
0.00145868
0.00137288
0.00113595
0.000947382
0.000903122
0.00109719
0.0018159
0.00204265
0.00146361
0.00108439
0.00106158
0.0012979
0.0016379
0.0023278
0.00276365
0.00285558
0.00275173
0.00246601
0.00205679
0.00174013
0.00160604
0.00152231
0.00150376
0.00147657
0.0015102
0.00162752
0.00171898
0.00201558
0.00222096
0.00221843
0.00206543
0.00222972
0.00280482
0.00362721
0.00368929
0.0036894
0.000862653
0.000565982
0.000864782
0.00112723
0.00122904
0.00119517
0.00113432
0.00105221
0.000997942
0.000885254
0.000849979
0.0007984
0.000766801
0.000723721
0.000716416
0.000722251
0.000735352
0.000791487
0.000808109
0.000849851
0.00087538
0.000853651
0.000781989
0.000759513
0.000931685
0.00115877
0.00150276
0.00146225
0.0013864
0.00152262
0.00130046
0.00122098
0.00127386
0.00139176
0.00169822
0.00201006
0.00227982
0.0026415
0.00291306
0.00315996
0.0032973
0.00334505
0.00336595
0.00327067
0.0031274
0.00278882
0.00243875
0.00207234
0.00190105
0.00174711
0.00176551
0.00198508
0.00164115
0.000724712
0.000580657
0.000988758
0.0011353
0.001083
0.00109552
0.000864396
0.00114814
0.00109181
0.00114286
0.00118538
0.0012301
0.00140313
0.0017819
0.00225409
0.00259997
0.0028063
0.00277613
0.00304568
0.00298667
0.00302118
0.00301568
0.00305491
0.00299087
0.00295589
0.00280608
0.00237721
0.00190984
0.00183339
0.00184967
0.00184928
0.001359
0.000929884
0.000893743
0.000961044
0.00099742
0.000953678
0.000761368
0.000894565
0.0010034
0.00096059
0.00093852
0.000942434
0.00103992
0.00116522
0.0015123
0.00178391
0.00212304
0.00236893
0.00237479
0.00236542
0.00216018
0.00184128
0.001554
0.00134308
0.00105924
0.000979418
0.00088029
0.000832306
0.000795283
0.0007353
0.00049745
0.000421355
0.000417347
0.000416769
0.000410045
0.000475635
0.000452825
0.000481395
0.000448474
0.000464013
0.000481776
0.000693703
0.000816552
0.000883131
0.000933229
0.000935066
0.000961914
0.000897804
0.00102777
0.00115318
0.00132492
0.001442
0.00131908
0.000866414
0.000580027
0.000476386
0.000566345
0.000766887
0.00128323
0.00134927
0.000980231
0.000595591
0.000459237
0.000416688
0.000466253
0.000740519
0.000227352
0.000197303
0.000928182
0.00109238
0.000193763
0.000140192
0.000140289
0.000145156
0.000152209
0.000170914
0.000174841
0.000192898
0.000194257
0.000190901
0.000167306
0.000159107
0.00013546
0.000113296
8.48851e-05
7.90883e-05
6.80281e-05
6.82258e-05
0.000124179
0.000212291
0.000303838
0.000312104
0.000346276
0.000341611
0.000728833
0.00136943
0.00970989
0.0102857
0.00960124
0.00903675
0.00845211
0.00837506
0.00883956
0.00965275
0.0107727
0.0111809
0.0106735
0.0102325
0.0100611
0.0102949
0.00375701
0.00492464
0.00570696
0.00587709
0.00607096
0.0062929
0.00622801
0.00596119
0.00553103
0.00521615
0.00515858
0.00531997
0.0057482
0.00640768
0.00704066
0.00761306
0.00787123
0.00820677
0.00813545
0.00826771
0.00800756
0.00806051
0.00778331
0.00786118
0.00780869
0.00770084
0.00719859
0.00628918
0.0053659
0.00452693
0.00474224
0.00506093
0.00509721
0.00494837
0.0052856
0.00577269
0.00588712
0.00568137
0.00533914
0.00511125
0.00514725
0.0052061
0.00546365
0.00537621
0.00542561
0.00508961
0.00489055
0.00476257
0.00461093
0.00473394
0.00488793
0.00493734
0.00507974
0.00525374
0.00532178
0.00531395
0.00524493
0.00474699
0.00399342
0.00386846
0.00297646
0.00321394
0.00340194
0.00343473
0.00329671
0.00326729
0.00327873
0.00334292
0.00343852
0.00370018
0.00398334
0.00439107
0.00453986
0.00461663
0.00469191
0.00454916
0.00455136
0.0042868
0.00417568
0.00403868
0.0039793
0.00396075
0.0038761
0.0036867
0.00347529
0.00334548
0.00318549
0.00285473
0.00254428
0.00283552
0.00370067
0.00269969
0.0020938
0.00196878
0.00210054
0.00233707
0.00280886
0.00313152
0.00347783
0.00362736
0.00383939
0.00390394
0.0040734
0.00406197
0.00409942
0.00403919
0.00396386
0.00408133
0.00417095
0.00439261
0.004351
0.00395755
0.00322021
0.00272938
0.00294217
0.00307874
0.00252149
0.00229444
0.00235926
0.00316508
0.00109368
0.000909611
0.00113351
0.00135184
0.00138827
0.00143529
0.00148812
0.00158835
0.00170705
0.00165667
0.00152266
0.00139149
0.00135207
0.00149758
0.00153106
0.00154906
0.00154853
0.00154069
0.00158678
0.00146983
0.00152784
0.00144252
0.00142403
0.00144241
0.00148657
0.00141695
0.00125269
0.00102316
0.000911253
0.00105455
0.00180606
0.00157748
0.00103354
0.00102206
0.00114338
0.00152481
0.00222314
0.00278479
0.00292819
0.00271966
0.00223691
0.00173423
0.00153984
0.00141294
0.00138344
0.00134215
0.00127005
0.00124496
0.00123332
0.00126489
0.00145714
0.00166624
0.00198356
0.00219112
0.0021253
0.00206623
0.00232068
0.00298765
0.00375287
0.00361998
0.00074324
0.000691402
0.00105488
0.00129144
0.0012314
0.00117842
0.0010943
0.000995824
0.000937352
0.000832246
0.000816287
0.000726049
0.000711676
0.000650726
0.000649793
0.000650679
0.000646535
0.000667524
0.000735081
0.000776575
0.000845963
0.000858539
0.000814166
0.00078579
0.000835867
0.00102389
0.001241
0.00130103
0.0012511
0.00145365
0.00119328
0.00117915
0.00137377
0.00168648
0.00204124
0.00242129
0.00284486
0.00322866
0.00354257
0.00379249
0.00385364
0.00386407
0.00386373
0.0038891
0.00384504
0.0036235
0.00333166
0.00272474
0.00222755
0.00187417
0.00174074
0.0019251
0.00187247
0.000993451
0.000630597
0.000889585
0.000857916
0.000908356
0.00108214
0.000884916
0.00104484
0.00116032
0.001229
0.00122807
0.0012057
0.0016576
0.00217494
0.00261314
0.00283828
0.00295898
0.00306712
0.00317951
0.00306027
0.00313251
0.00309833
0.00309208
0.00316376
0.00318052
0.00322646
0.00294656
0.0024072
0.0019394
0.00187518
0.00188368
0.00147737
0.00107786
0.000852033
0.000952474
0.00104617
0.000904926
0.000852445
0.000936483
0.000980111
0.000955732
0.000930826
0.00105729
0.00130137
0.00184628
0.00266034
0.00336314
0.00366535
0.00381407
0.00373651
0.00366507
0.00361149
0.00331271
0.0027306
0.00206525
0.00151937
0.00112749
0.000947485
0.000861604
0.000818927
0.000679448
0.000548982
0.000436191
0.000434951
0.000417258
0.000407465
0.000418013
0.000445367
0.00045264
0.000444484
0.000526955
0.000646612
0.000796016
0.000867603
0.000884176
0.000856631
0.000868563
0.00084629
0.000860534
0.000867161
0.000905122
0.00102914
0.00127319
0.00135164
0.000995973
0.000611191
0.000508471
0.000695579
0.00135907
0.00277278
0.00298744
0.00198927
0.000748878
0.000525465
0.000438208
0.000464804
0.000706551
0.000211061
0.00015607
0.000664116
0.00039699
0.000159476
0.000144499
0.000148708
0.00016183
0.000176285
0.000222527
0.000264621
0.000297604
0.000302968
0.000274801
0.000261928
0.000206961
0.000154612
0.000139955
0.000108054
8.09561e-05
7.60018e-05
6.9097e-05
0.000141091
0.000309986
0.000517058
0.000502568
0.000415437
0.000381877
0.00113562
0.00109535
0.00978738
0.0100564
0.00928803
0.00839331
0.00812941
0.0082522
0.00874009
0.00961968
0.0106016
0.0113825
0.0107358
0.010339
0.0100611
0.0103272
0.00386029
0.00523729
0.00587322
0.00610588
0.00640849
0.0067136
0.00655646
0.00600113
0.00537888
0.00514862
0.00516393
0.00563084
0.00638959
0.00731341
0.00794607
0.00852946
0.00875868
0.00905224
0.0090104
0.00907673
0.00881445
0.00869166
0.00838962
0.00821939
0.00810944
0.00795259
0.0074281
0.00646894
0.00541046
0.00457085
0.00470032
0.00510488
0.00514425
0.00449172
0.00510215
0.00585157
0.00597778
0.0057036
0.00527961
0.00496336
0.00494198
0.00512799
0.00537107
0.00537238
0.00525893
0.00508847
0.00475217
0.00466016
0.00450915
0.00453602
0.00471626
0.00495095
0.00502748
0.00512856
0.00523287
0.00528272
0.00524861
0.00478014
0.00404291
0.00387062
0.00294431
0.00315082
0.00340674
0.00339678
0.0032818
0.0032743
0.0032973
0.003335
0.00343273
0.00375193
0.00413033
0.00451087
0.00458312
0.00479963
0.00485775
0.00471721
0.00470248
0.00449564
0.004373
0.00423206
0.00409878
0.00406439
0.00395281
0.00379599
0.00350777
0.00334449
0.00315872
0.00283537
0.00254843
0.0028265
0.00337765
0.00203583
0.00182817
0.00195322
0.00230604
0.00277519
0.00321637
0.00353354
0.00380439
0.00395075
0.00416628
0.00434106
0.00444412
0.00450783
0.00444178
0.00444674
0.00425844
0.00425035
0.00415454
0.00437002
0.0044631
0.00416755
0.00357
0.00288166
0.00273114
0.00266786
0.0023246
0.00224822
0.00231385
0.00312844
0.00106136
0.00100135
0.0012845
0.00131133
0.0014073
0.00145616
0.00137085
0.00149515
0.00157239
0.00140038
0.00124384
0.0013371
0.00139656
0.00150634
0.00153442
0.00155087
0.00162155
0.00157219
0.00157603
0.00157403
0.00157306
0.00150626
0.0015094
0.0015062
0.00150326
0.00143107
0.00128317
0.00104072
0.00091488
0.00104921
0.00169352
0.00138212
0.00107783
0.00109038
0.00123461
0.00167808
0.00237927
0.00271488
0.0026939
0.00230373
0.00173627
0.00152975
0.00141581
0.00143473
0.00145642
0.00138371
0.00137776
0.00130698
0.00130633
0.00126418
0.00123602
0.00144697
0.00168607
0.00206512
0.00212826
0.00201431
0.00210335
0.00259294
0.00373496
0.00361282
0.000676705
0.000913339
0.00124641
0.00131951
0.00125472
0.00115851
0.00105011
0.000955419
0.000879041
0.000765364
0.000734548
0.000650569
0.000644775
0.000626797
0.000628096
0.000628201
0.000660857
0.000655452
0.000685542
0.000723799
0.000777377
0.000853506
0.000829524
0.000798957
0.000787296
0.000928632
0.00112719
0.00108742
0.00115866
0.00138781
0.00110026
0.00116266
0.00148655
0.00194257
0.00228878
0.00275865
0.00321454
0.00361128
0.00389489
0.00406654
0.00421853
0.00429198
0.00429144
0.00416592
0.0041117
0.00399149
0.00387754
0.00334059
0.00266924
0.00203375
0.00180969
0.00185073
0.00194135
0.00127157
0.000710336
0.0007766
0.000796881
0.000874152
0.00100057
0.000938823
0.00106773
0.00126633
0.00133694
0.00125552
0.00136283
0.00176634
0.00236632
0.00272073
0.00283623
0.00307425
0.00323987
0.00318874
0.00325177
0.0031222
0.00310179
0.00308839
0.00321878
0.00324124
0.00333929
0.00324449
0.00281474
0.00204435
0.00188797
0.00186347
0.00166375
0.00123592
0.000964574
0.00100525
0.00115166
0.000940348
0.00088905
0.000924504
0.000954063
0.000931472
0.000944928
0.00110031
0.00176201
0.00269061
0.00366549
0.00387274
0.00397217
0.00369604
0.0036649
0.00359407
0.00366801
0.00364945
0.00362744
0.00302566
0.00210238
0.00149266
0.000953973
0.000887799
0.000844485
0.000742202
0.000598929
0.000417237
0.000415642
0.000435687
0.000407802
0.000391398
0.000478151
0.000451301
0.000473548
0.000551523
0.000721679
0.000811212
0.000836849
0.000860961
0.000823138
0.000833081
0.000825772
0.000825464
0.000758746
0.000789159
0.000839346
0.000939194
0.00123109
0.00108993
0.000668178
0.000545167
0.000719815
0.00166724
0.00315551
0.00319884
0.00211619
0.000761129
0.000509997
0.000452952
0.000473099
0.000685838
0.000240922
0.000170676
0.000488848
0.000248366
0.000140693
0.000151624
0.000155651
0.000179128
0.000232576
0.000303279
0.000441357
0.000496626
0.000529705
0.000479687
0.000384821
0.000295063
0.000223192
0.000160336
0.000130092
0.000100762
8.09792e-05
6.89887e-05
0.000110168
0.000308195
0.000474101
0.000541653
0.000424597
0.000456725
0.00252882
0.000883611
0.00962445
0.00986073
0.00894094
0.00816669
0.00819685
0.00868378
0.00922629
0.00986961
0.0106675
0.0112326
0.0107985
0.0103189
0.0101332
0.0102796
0.00398038
0.00543383
0.0058402
0.00602661
0.00658
0.0070251
0.00676963
0.00592826
0.00523265
0.00506728
0.00527516
0.00595792
0.00688256
0.00763964
0.00828474
0.00882078
0.0090466
0.00935888
0.00928761
0.00948385
0.00924926
0.00920542
0.00882018
0.00865459
0.00837223
0.00815409
0.00756136
0.00648414
0.00545771
0.00451045
0.00495244
0.00511593
0.00481096
0.00411333
0.00511287
0.00593679
0.00610391
0.00572643
0.00517214
0.00475171
0.00466075
0.00493182
0.00524724
0.00534313
0.00520883
0.00512022
0.00479769
0.00471578
0.00455855
0.00469079
0.0047264
0.00484102
0.00504075
0.00507775
0.00520498
0.00524507
0.00514876
0.00471182
0.00403099
0.00388172
0.00290002
0.00313736
0.00341413
0.00336817
0.00328011
0.00332585
0.00332386
0.00331026
0.00340003
0.00370379
0.00410054
0.00443588
0.00454407
0.0047935
0.00472918
0.00471143
0.00478536
0.00454694
0.00441898
0.00429531
0.0042212
0.00413766
0.00396805
0.00379647
0.00348608
0.00331271
0.00312238
0.00281465
0.00255957
0.00294156
0.00243294
0.00173097
0.00173937
0.00203012
0.00230293
0.00278324
0.00320573
0.00355711
0.00384997
0.00417359
0.00445462
0.00463007
0.00468816
0.00475481
0.00477928
0.00467714
0.00442825
0.00432228
0.00416004
0.00442156
0.00447678
0.00429543
0.00384418
0.00305832
0.00277522
0.00248701
0.00233103
0.00226856
0.00235848
0.00310675
0.00107832
0.00110858
0.00137898
0.00131842
0.00131086
0.00126774
0.0013374
0.00138509
0.00136825
0.00130484
0.00123939
0.00130171
0.00143086
0.00150549
0.00151264
0.00160037
0.00159
0.00161741
0.00165302
0.00159064
0.00166459
0.00158036
0.0015649
0.00150364
0.00151685
0.00144457
0.00129636
0.00104711
0.000904264
0.00107589
0.00150465
0.00114254
0.00104449
0.00105541
0.00125674
0.00152851
0.0022277
0.00258729
0.00256483
0.00205392
0.00163016
0.00143144
0.00146552
0.00148896
0.00148766
0.00137363
0.00132063
0.00129546
0.0013589
0.00124808
0.0012461
0.00131475
0.00163827
0.00193776
0.00209769
0.00199065
0.00199477
0.00246638
0.00370343
0.00353962
0.000708616
0.00108351
0.00134119
0.00135752
0.00125875
0.00113488
0.000993788
0.000885359
0.0008058
0.0007147
0.00063937
0.000529545
0.000524256
0.000490729
0.000546576
0.000574744
0.000597589
0.000626498
0.000641037
0.000701513
0.000760114
0.00082858
0.000846899
0.000815546
0.000770791
0.000857274
0.00101978
0.00107842
0.00116816
0.00127251
0.00100373
0.00122836
0.00169415
0.00211019
0.002485
0.00294118
0.0034386
0.00383759
0.00405323
0.00428429
0.00431588
0.00419525
0.00415804
0.00419163
0.00425336
0.00412199
0.00409625
0.00366691
0.00304815
0.00216689
0.0018834
0.001847
0.00194306
0.00142752
0.000807377
0.000706456
0.000729977
0.000815372
0.00103219
0.000976958
0.00115224
0.00142633
0.00140071
0.00126139
0.00140666
0.00185283
0.00238586
0.00264722
0.00284922
0.00321684
0.0032022
0.00326844
0.00312198
0.00308163
0.00308947
0.00308273
0.0031559
0.00331184
0.00338676
0.00339314
0.00301873
0.00228215
0.00186013
0.00190905
0.00175424
0.00117766
0.0011228
0.00121125
0.00122304
0.000930902
0.000837993
0.000798313
0.000872817
0.000884327
0.000988422
0.00127429
0.00196574
0.00317342
0.00391571
0.0038437
0.00373293
0.00336222
0.00330289
0.00322631
0.00329658
0.00352926
0.00361496
0.00359719
0.00277499
0.00168363
0.00118754
0.000929544
0.000830878
0.000746343
0.000634686
0.00048194
0.000471199
0.000420316
0.000418787
0.000387666
0.000478224
0.000456611
0.000494355
0.00061207
0.000756625
0.000841589
0.000826146
0.000842815
0.0009042
0.000916012
0.000927499
0.000959107
0.00079704
0.000744013
0.000745929
0.000771331
0.000865574
0.00111446
0.000733029
0.000565235
0.000658783
0.00125776
0.00222884
0.00220231
0.00136878
0.000802616
0.000505709
0.000476412
0.000497469
0.000725131
0.00028524
0.000167022
0.000355835
0.000226432
0.000141663
0.000151772
0.000159879
0.00020279
0.000279403
0.000456797
0.000669512
0.000814581
0.000905803
0.000754882
0.000594894
0.000416365
0.000265595
0.000190073
0.000141946
0.000115413
9.09441e-05
7.63006e-05
7.84385e-05
0.000278455
0.000540513