/*--------------------------------*- C++ -*----------------------------------*\
| =========                 |                                                 |
| \\      /  F ield         | OpenFOAM: The Open Source CFD Toolbox           |
|  \\    /   O peration     | Version:  2.1.1                                 |
|   \\  /    A nd           | Web:      www.OpenFOAM.org                      |
|    \\/     M anipulation  |                                                 |
\*---------------------------------------------------------------------------*/
FoamFile
{
    version     2.0;
    format      ascii;
    class       volScalarField;
    location    "0.005650000";
    object      omegaC_burn;
}
// * * * * * * * * * * * * * * * * * * * * * * * * * * * * * * * * * * * * * //

dimensions      [1 -3 -1 0 0 0 0];

internalField   nonuniform List<scalar> 
12384
(
163283
248151
280754
304036
323357
336300
341069
332890
317169
294632
266241
228356
175995
118183
263004
346322
397761
421238
434199
443549
447302
452182
453954
462509
476562
500646
528237
560794
587063
616479
625183
644487
634709
649052
635981
650877
631268
631487
601772
568197
493402
368927
244080
207312
438809
473794
505233
538844
565341
588482
607461
611447
608138
608970
617145
644454
680636
725848
768829
812086
836008
842714
818075
793025
777908
767074
752985
731975
702987
662081
567417
413971
292949
300240
470075
552926
613113
663662
689392
713324
719799
741246
784678
845659
913248
984368
1.04429e+06
1.0891e+06
1.11099e+06
1.11387e+06
1.10009e+06
1.06564e+06
1.06782e+06
1.05058e+06
1.03996e+06
1.01449e+06
971083
909576
834441
753185
658343
548517
470500
488748
528131
576109
632007
710407
796179
877628
955796
1.01274e+06
1.07572e+06
1.09177e+06
1.13676e+06
1.12518e+06
1.14593e+06
1.14173e+06
1.10937e+06
1.11609e+06
1.08531e+06
1.09896e+06
1.0674e+06
1.04089e+06
988227
930129
824961
717114
632882
531761
422258
379343
396582
414111
353740
430411
500652
549698
591772
622956
648723
657024
660479
667957
692299
736733
794956
863772
932481
997508
1.05062e+06
1.07808e+06
1.09263e+06
1.05287e+06
1.01018e+06
957072
941203
918460
902478
870413
820463
703428
553336
458273
346428
403548
473889
514602
542561
562955
606427
686226
774459
869591
951884
1.02526e+06
1.07558e+06
1.10616e+06
1.1154e+06
1.11748e+06
1.10041e+06
1.08463e+06
1.06685e+06
1.04167e+06
996528
931388
841728
749674
690608
640566
612487
581442
529452
476508
367610
367640
434230
520666
618038
714041
812692
898642
976070
1.02905e+06
1.07916e+06
1.07294e+06
1.09997e+06
1.06912e+06
1.07225e+06
1.08705e+06
1.07107e+06
1.08783e+06
1.06879e+06
1.05119e+06
1.00846e+06
946606
851759
708756
581522
530891
508973
485538
473551
478371
438189
587067
690423
789231
887351
984886
1.07325e+06
1.14404e+06
1.19462e+06
1.2191e+06
1.22543e+06
1.2089e+06
1.17257e+06
1.17381e+06
1.14306e+06
1.15225e+06
1.12653e+06
1.11298e+06
1.07545e+06
1.02333e+06
929810
795727
620340
549939
510562
474889
446892
426574
396203
365541
437511
518620
678227
841663
991767
1.12762e+06
1.24234e+06
1.32267e+06
1.34889e+06
1.28872e+06
1.1949e+06
1.06625e+06
969638
988013
891936
1.09407e+06
1.08643e+06
1.20323e+06
1.19949e+06
1.16631e+06
1.05334e+06
925373
792061
709752
676730
659068
651545
655179
660677
660044
498354
608906
818383
1.00317e+06
1.16496e+06
1.29344e+06
1.39308e+06
1.42782e+06
1.3985e+06
1.39385e+06
1.14321e+06
1.27709e+06
1.09041e+06
1.1299e+06
1.10368e+06
1.27266e+06
1.28134e+06
1.3726e+06
1.34572e+06
1.27036e+06
1.12453e+06
938461
797606
734707
689046
671914
680653
707977
718567
686907
379119
466679
600939
685065
704003
699092
708646
724638
739281
751729
753521
740961
725253
711940
716317
740044
782412
833397
887322
937644
969847
983534
956404
927847
904551
878343
834451
752273
590972
297307
99260
140936
147648
144465
164576
358348
561402
669629
750910
797988
828001
850077
880423
899376
890963
858948
807172
737642
662240
575995
493750
420923
346031
268324
196013
134406
89275.4
58456.2
43564.2
27256.9
226420
206582
228789
255973
283812
308663
327326
339048
341296
334679
317032
285822
242403
237601
276696
275749
322385
342537
348241
346382
342050
345733
363899
405298
466176
541383
612306
672623
690499
723887
692830
760700
731750
824300
811314
875455
846304
829781
752494
657798
539890
417979
303725
313170
478846
464309
508471
529456
533558
521215
498675
478881
467986
480235
512695
569591
633727
700949
741263
750917
727658
675137
643970
627764
643260
678359
722637
740166
714825
641375
524934
393217
302407
445363
551850
480289
508001
517208
506635
513410
551471
629761
711568
746259
694305
554453
392931
261882
171262
90889.8
77062.8
52847.7
51544.5
76417.4
123858
231981
423742
660142
731977
610219
471370
389275
401557
639767
522665
433662
540289
648653
722084
721571
676098
502576
432367
251473
222999
135365
113078
97392.8
108855
104854
164209
224555
340886
508494
666515
787220
776483
592929
461755
426220
405260
390954
411096
518203
482177
388487
441784
466927
477401
470620
459957
452736
459424
491610
546025
623357
715408
811224
898436
940784
933144
857056
815170
635575
702260
613853
691480
748963
763205
773797
739009
663296
489151
606954
406632
301136
333705
345042
372130
464097
594091
693287
669828
512603
313764
163988
84914.3
46616.2
30475.6
20176.8
20744.5
20616.9
26146.3
38913.9
74263.2
143172
314860
586763
657584
539776
431541
382904
362469
601071
488671
294299
351754
469762
599388
719607
803071
763894
682897
428856
363946
190372
170586
124124
134238
164626
213084
280705
394522
504605
620313
720014
758277
681531
530674
422817
368888
358790
391162
547687
582522
491160
578002
689655
776413
777553
667086
497705
341231
221102
140523
105779
95536.9
94223.7
118993
186582
238638
413099
525514
705620
807365
816726
629011
436591
398925
406133
399149
388311
378152
475972
545264
445859
563253
692783
808375
846407
720776
450575
193979
64380.9
16248.6
2933.96
1746.38
628.822
473.077
1165.73
2289.12
13847.9
63881
198242
452881
833944
866822
595833
475784
465328
458673
461849
487936
689826
592059
544610
724449
865597
876246
721680
456889
261446
82820
45103.8
14331.2
5677.68
4696.78
3931.87
3662.52
6651.07
16196.4
46701.3
115200
276964
588831
887119
748601
542166
546933
563407
566239
570014
590964
748076
541806
358933
463261
544651
610422
665650
703095
696375
675230
648160
629415
616210
614210
593894
587897
576270
592367
589570
596634
525214
446434
359590
289043
273346
336181
444620
586328
721013
662679
676315
224557
221764
225875
231505
396417
641047
682009
722431
695760
645433
600639
587365
568491
567389
605708
619547
626189
612068
555212
476608
388408
315167
264594
222922
176067
127054
88223.4
60224.9
42429.3
35844.6
276263
242399
262180
282522
301846
316894
327864
332992
336225
331958
325203
305979
276319
284687
310071
303453
333952
343232
344109
342896
348000
367991
406182
462915
525442
586611
629019
667725
676811
714541
710205
764034
752438
821306
811140
855500
825520
806703
744272
671953
576513
470930
361639
401760
513760
496506
517685
522172
514227
501142
494594
503923
530406
569567
608819
643895
672517
702005
712510
730984
729791
700936
655694
634634
643253
651744
676627
707562
711635
678548
598376
476571
366600
536446
592935
504222
503535
502703
514059
571444
651436
721338
739646
720043
666090
580804
480189
366858
270785
178049
137807
82042.3
96289.2
90294.3
110548
158019
261632
442486
663891
682286
559305
430377
405557
708952
526557
516484
623947
706778
743796
721408
664192
525291
444554
295372
241352
161279
149770
122504
113219
142550
156647
211630
298576
398268
513953
642030
736783
740300
574004
441221
383794
382545
432741
580430
552363
428244
462033
468970
466782
460288
462091
477850
511136
562931
628197
705422
784328
848701
883088
880019
873000
787187
774705
671627
699405
633054
742283
757948
791590
761585
725351
697837
591711
701652
458984
326860
341448
357913
434877
570491
666329
597158
387431
210468
114038
69574.6
50270.3
43978.1
39270.8
38848.5
30583.2
30872.9
32630.3
34318.8
43545.2
68500.5
124533
288218
538436
619526
526306
429432
381767
644617
556649
330144
426389
562513
689332
777600
810076
721727
648782
411309
351054
177844
176579
118177
136984
156400
206982
285760
352821
453758
543653
611382
686619
727729
662344
523031
405225
349866
391980
578486
672849
565199
664442
761001
775406
671884
503311
347208
220599
129959
87872.6
65564
51935.8
61169.5
81452.8
134586
207743
324566
455004
576892
699863
802626
787355
580613
415077
368000
374621
404039
418735
520087
618511
519012
640666
780896
860979
748934
468153
208931
62756.7
23484.1
3241.38
1098.27
541.619
337.657
267.372
306.457
354.341
5096.33
14772.1
84197.9
211592
473759
850870
812809
570070
432461
394304
441347
497368
707032
646000
684404
854079
893001
757986
551180
336074
178564
62747.4
39852.7
7871.47
6073.82
3250.76
1757.62
1687.19
4092.35
8856.49
23839.5
55099.4
118687
257784
572030
862105
698974
530230
495158
506743
565749
635771
777180
624277
451298
547323
624400
689105
680139
637661
583520
531212
495603
473842
449664
432030
439244
465922
480913
489203
494111
526247
547052
504811
475185
378504
335309
377608
462575
526737
659521
693715
781575
311826
252894
288570
398474
631459
687151
711871
674644
639564
621950
630827
611664
602768
630287
618478
621301
636992
622401
612451
567380
482058
381776
295003
203658
140108
98435.2
71341.6
53612.9
41965.1
38143.9
306650
269651
287958
306939
322393
329097
324303
319598
317474
321010
323382
322862
309366
320394
350848
348537
356856
349536
341229
340249
359046
395638
449662
513548
569713
610944
636205
670052
689694
731486
739134
782433
777273
811709
796685
809354
779857
766117
717428
666632
593748
505932
404374
453547
542973
541433
531797
515808
493528
486220
506362
549325
602109
653698
685619
702292
704535
705537
703634
695824
700133
705278
707822
695781
664448
670886
676334
685014
697764
688670
638117
538020
423390
586915
632900
550820
517196
505370
546140
638332
712886
726126
697416
667789
626149
595087
556610
486215
438295
341135
263406
243954
165395
159839
159693
180129
219885
327103
539430
692226
637766
498114
422743
741116
535143
587250
696607
748047
754674
705249
671818
559334
513813
388095
360562
284009
260903
246189
224844
220227
264333
275724
304533
395822
440563
543518
632328
734394
713885
562863
442864
409091
448998
614664
608573
476675
482145
471476
456597
459810
475450
514107
566463
638952
717243
786950
830734
852691
867912
875186
880215
840772
886173
816653
818530
804485
815179
832309
823842
805249
745324
705818
660313
764767
510146
359401
355153
397188
518260
639945
555469
313053
172227
124478
114171
143614
198077
240182
263689
260109
266112
231859
191305
141845
95216.7
77282.3
86933.2
150385
354642
590704
607309
490421
412590
670641
591959
363981
502749
647882
759541
804168
790632
675293
612540
426265
372655
255228
217188
172424
168820
178276
237700
298376
376054
438506
502635
560326
605818
675459
712842
637366
498621
391447
400525
595150
729769
625771
732083
769803
667849
506327
367092
260484
175908
126594
95128
71083.5
64017.4
54829.4
79606.9
98478.9
197745
270960
424858
519356
624114
721495
818907
736278
531402
381951
354262
414899
441104
543255
668302
558408
694569
847396
803897
503973
223776
88158.7
34702.7
20589.4
2794.43
4973.4
1092.74
754.572
581.645
454.017
550.978
1954.07
8544.95
33684.1
114626
276078
576450
886471
747331
520591
377408
433658
497532
707925
717539
791603
905913
822289
611853
427767
255357
139128
68516.4
26341.3
8149.31
3515.77
1006.12
872.189
1324.78
1822.16
5523.83
16858.4
35429.6
72069
137293
305542
658829
844617
649536
464141
437748
541984
655132
777638
711836
539127
629460
688078
672177
621782
569335
558690
586643
601494
598678
553830
485887
381089
339870
341953
341895
373531
437972
537860
544663
550214
447905
390352
434370
482357
560262
611989
697741
814300
353279
254401
412860
569329
693229
712769
688895
657175
661652
692033
692479
690877
722003
702508
679170
677341
636623
630754
619829
601533
557371
462461
372138
252996
142621
89174.8
65654.9
52888.6
45501.5
39211.3
328025
292922
314629
336322
346385
337345
315420
293971
289926
302469
321998
336360
343437
347476
393277
397760
382489
354976
336227
340881
373863
423486
488105
550328
593828
620129
640739
655336
652388
656934
647392
660676
657574
683653
680700
704129
692124
697338
673389
644298
594458
525355
436771
482659
585831
600126
563313
515762
481411
482579
522059
588315
661647
714395
745051
744793
739719
716659
711518
676265
639845
613935
594137
619842
651792
653120
660876
681569
690735
684431
652556
572472
462674
616950
676703
612721
546069
527687
591173
689260
724521
676304
616738
594083
572558
583092
590134
559382
589395
523453
538987
420835
357885
288018
249819
233538
229200
271934
427030
651102
676409
542574
440686
756187
568207
649934
744173
767646
739633
697316
660937
585090
596355
530744
580567
537979
602393
566396
565999
511248
467616
452887
402153
437565
424695
503396
559547
650363
738116
674154
529551
454305
466014
632704
662837
526686
503569
469992
453200
462787
493973
547387
621484
706985
781137
822119
842680
861967
877500
872561
863599
836107
824129
784689
809940
813739
829867
841177
865036
832842
775991
710619
690622
800758
561724
388295
375969
447750
592485
592592
336042
169298
137380
161145
275537
427481
550744
610847
625853
608971
572555
548469
523839
438189
310247
169440
108617
123137
243218
496363
639336
538390
441604
688351
609742
404033
571912
722890
801114
791747
768127
654428
646728
493664
536077
363401
371269
280619
284999
296743
280944
349820
398530
458181
498468
521764
555852
607252
684808
688396
578857
451540
416693
604537
779370
671104
765711
709612
534405
396828
295902
246943
215702
184434
138318
102053
87672.6
93054.9
104638
113376
200665
245209
408055
475953
575645
637842
758148
815746
652751
461642
368259
432260
452875
558044
714932
575136
744196
874759
631680
291984
102023
59574.3
37663.1
29591.6
15346.8
20521.9
4654.22
5833.6
2466.12
1861.08
2101.77
2186.88
7476.74
25524.2
59610.5
174547
378435
726187
858800
661133
460444
452664
494629
710969
830941
857181
896242
704200
485420
325160
198386
136593
59231.5
29328.6
9175.44
6694.56
3118.64
1621.24
1107.07
2313.1
3284.86
10207.5
24546.6
51711.1
84944.6
165158
389958
754921
784540
542181
401901
512030
655743
767159
798491
611554
682559
695251
627401
602692
659950
722705
768155
801481
785713
748509
678461
566625
392287
276479
251199
276387
353622
478941
556417
546623
476201
456523
428149
535157
553572
602261
674971
818817
392593
284339
527750
674619
719633
711849
676625
696164
718972
751129
779738
831755
824049
800941
791548
719921
681479
649652
616462
618761
593084
515731
433473
317336
166266
92153.6
66648.1
56435
51718.9
40685.8
339045
305451
333894
358167
363082
340398
300027
266946
261589
287518
321534
350805
374197
376408
434919
447353
407823
361077
331861
343744
388381
446665
514792
572001
602835
624415
622824
606753
574489
553678
524651
512956
499531
516209
532317
569178
589979
611794
618448
611154
583029
532920
460661
500630
618772
642531
600769
521976
467851
477672
537328
620915
707940
762772
778056
776146
760496
745052
718566
699660
630973
555305
465594
459693
534565
611089
639837
653974
671334
678693
658114
592312
491090
633770
728061
679957
590548
562574
633985
720399
703252
606100
525457
504257
512412
542062
527394
578776
632223
586457
575838
570300
569123
497791
364901
307888
247712
263703
385179
620806
690173
558122
448739
759131
637620
697415
772458
755213
716779
668963
637372
615073
649200
648775
689423
700510
697309
692130
691225
716665
699981
681920
546268
521706
462690
473153
548902
586728
717730
729177
600378
497383
477489
640986
714595
579315
523123
471560
452292
470448
510376
578644
667347
754307
802144
834836
858706
878488
870498
851869
818348
738875
646960
566426
573743
655931
758324
829737
862329
858969
796475
713691
691038
810888
613704
418883
408479
502601
631288
467778
229043
129884
133757
249723
479797
640909
697299
715168
721189
732581
729606
735838
713401
683186
585402
355088
184084
130142
208262
446604
647222
562220
462519
700359
624382
453813
636634
777998
826143
774173
738058
651891
670952
589654
624614
535670
560806
522370
482696
446561
456544
422633
443640
489557
502243
522493
520631
563837
647336
699958
625550
493727
431237
609719
824421
699906
766161
618128
429314
312660
271392
285228
280147
276421
281884
277203
256943
199406
196980
174821
235580
262262
401701
437411
565541
555800
693044
814122
737158
536412
416586
458808
459145
571917
782429
589401
788997
859729
457641
170552
58940.4
59850.1
39987
51522.4
60852.9
43892.9
53786.2
32536.6
20080.4
10331.7
13139.7
6152.8
10913.2
23944.6
60742.7
96746.7
287717
555804
834966
759062
554297
489936
491306
702936
955894
888217
873080
593066
364873
238940
185405
94782.4
61625.9
24069.7
37210.6
15785.3
16921.5
10314.1
6974.32
4242.01
4075.08
9495
17063.9
44515.5
59082.6
104580
239549
575589
815209
660171
439107
488773
647951
758677
875257
663780
706822
675439
644288
693185
778704
864739
883431
892083
891847
853543
804061
711171
575671
342573
229341
223790
300365
434319
539276
548462
467466
457396
506131
548758
573695
577533
652798
784489
433693
332803
590853
712102
728139
714952
687186
733175
785527
828634
862598
857558
846700
855499
825231
795760
745345
663140
638260
630527
616675
543473
453193
361005
198918
101134
71971.9
63485.2
59696.3
43242.8
344046
315782
350038
375768
375423
343710
291933
252293
253880
287021
328081
364775
403588
401867
487158
494210
431326
363672
326509
343206
397477
459801
529975
579854
607741
615811
598276
563111
526703
492001
453757
427423
397490
404973
426424
474699
507846
547947
564791
575720
562094
528673
473682
505661
670786
683921
640134
534510
463554
470048
539978
634859
731273
791549
802595
782897
772952
761067
723227
723367
661235
613117
501421
433632
479024
562001
621937
641980
664077
668257
652708
594175
503663
631695
792538
737465
638422
601645
664290
736789
676189
537145
459561
441409
441908
444384
453519
551568
595935
559397
465952
449192
546228
555938
451396
343770
252455
263604
379534
619273
685002
542838
443267
748224
759762
743865
771561
734266
669736
632995
615570
632071
658044
692895
696697
653940
587270
512974
478463
532964
631140
708896
657108
633197
501291
506908
554760
567747
702164
742651
638563
525404
482629
646777
773072
631011
543644
474873
458105
476048
527540
601409
700533
774560
813155
843172
872828
875681
860257
849764
787271
682643
564928
410250
399848
540389
690078
803607
862169
866601
799001
705594
699611
787351
671251
452277
445900
562262
634929
431344
198940
115875
134431
298558
531974
655491
692250
696104
695069
632835
544541
590036
701590
737734
721997
510485
294701
165738
217905
446883
640924
571460
472518
696129
647355
512204
703086
822129
816738
764549
672676
643894
670048
612978
661627
598530
622794
582575
602128
598716
571132
550804
500560
522313
518218
525149
519431
539004
619667
692581
640956
509097
435521
613225
872207
722694
743341
521679
346926
257381
273512
318264
336676
389571
427786
414101
401420
362959
351388
273733
329550
290315
423771
418593
536817
525638
616824
783848
777079
580685
462016
481776
462651
593380
865438
620338
830879
816181
343757
109100
46294.3
48524
36164.4
76818.4
63223.9
137244
160372
172738
139120
59796.8
38882.1
28853.2
20818.3
29199.5
56122.5
94854.8
180621
482904
766502
800176
615584
528702
492254
716508
1.07374e+06
902970
800167
456628
270611
198322
128547
57839.8
40484.9
34167
64360.6
35992.4
50029.1
25588
17222.5
18141.9
8060.36
14421.7
14555.2
39736
45841.6
79708.8
148393
407113
749626
735501
507316
486660
625307
761735
936943
697290
715825
677714
698698
801688
873994
904443
925370
917132
914572
917529
873794
805924
709873
544020
275112
214073
244259
401749
527933
557892
529296
519896
571479
603152
570742
585504
648107
740652
474505
359063
619163
728714
731186
708169
723081
770624
817911
857001
818805
764136
737003
762305
809914
833001
777827
705350
658543
646205
636669
567910
449230
379010
238032
120304
86877.3
80990
75097.5
56859.1
346014
314350
354587
383418
380694
343433
297057
265064
270093
303876
339115
378018
428664
436585
527689
542445
453802
367300
318184
338651
398053
462774
532358
583154
606964
608806
585663
562289
530443
507236
473821
453670
428061
425779
432413
458466
481928
510582
530408
539723
537488
513590
479150
515558
708373
726624
673728
539571
453347
453587
526709
634535
745615
799844
813058
795228
761434
765319
712705
727842
661978
675549
609200
581506
561901
589800
624486
633795
659554
662729
645179
587728
508623
625708
861412
760245
675072
616400
672907
743199
669236
505528
414678
390293
388674
355669
376815
403538
520391
559967
573297
539819
569452
541107
414770
317076
250850
271441
414266
641097
661036
513345
437611
740668
978250
782274
760484
682246
623390
583868
568741
596705
653413
709437
707059
671425
588258
494074
395253
406051
522201
659589
667938
695189
542755
559877
562776
605366
703865
747461
644069
528694
475148
646902
834323
683290
557883
473902
454622
479101
535102
620243
716544
786221
826291
867195
871127
872823
873420
852364
804191
730152
630939
523813
509155
597863
722647
818566
872883
851750
784077
699761
709057
751237
736283
493317
485388
612880
657785
434705
159199
80758.7
91941.1
263951
515899
630990
652844
680455
702049
620624
495371
510598
641507
735310
741470
603310
335135
214007
255929
509478
644321
570519
450638
692263
732673
609023
776284
852079
793563
713609
628737
606432
638595
630411
634065
610808
578524
483871
468891
555296
606414
606418
548698
548874
531122
519784
520305
527779
610385
690912
636001
499126
440123
648067
955735
765867
714394
442172
283889
228978
252845
300399
349827
407651
494087
487267
451798
493509
506535
372000
407385
331908
450628
407356
529219
500043
577816
746131
788489
589907
473327
483681
486943
676081
972069
685003
878683
782389
291919
91403.4
38957.9
29812
41621.5
48150.4
53583.3
135059
259671
376124
326296
180539
124173
49606.8
48039.4
39434.3
52644.5
102079
165597
375895
752105
796238
637553
541413
504831
765776
1.14995e+06
916507
785899
392862
212268
136411
82054.5
25201.9
48340
27866
62670.6
112102
274380
286235
104851
52075.8
18159
28095.1
17370
42315.9
43216.6
70727.5
116777
341152
700604
773175
567469
510614
606716
801116
981763
712505
712494
689686
757743
859283
901204
877294
843877
847772
883338
921543
922865
868356
801350
706403
482772
257987
265632
427236
570036
629458
599259
593589
606367
603249
568347
602019
649344
683370
510590
354631
622226
735670
736616
708286
734808
805227
837356
827046
723064
598819
525416
608347
734476
811726
798381
746736
682732
648472
655182
582273
443900
376067
272957
149458
122222
124991
120478
107930
343059
306879
353791
388838
385430
350698
316104
305880
321398
348331
383678
422421
480453
502697
623135
660757
607940
584375
479166
370002
305195
325631
387520
451745
525486
575308
602427
603136
600014
592212
590676
579807
565478
549378
524722
513459
499880
500084
497602
505001
507049
509703
502836
488477
470312
477465
605317
769139
853004
765243
709831
546890
442115
434168
503494
608582
736144
808938
796512
787220
760367
736045
696838
711588
637034
663990
604746
627643
620753
631249
636907
643225
665337
653076
624874
561081
499065
514555
739900
1.0092e+06
757269
717378
692581
626733
661078
746766
691663
518690
402475
362336
348832
297808
296902
253205
341294
354481
446497
441986
423706
366846
307003
240098
229935
296069
481150
680198
645774
582906
679954
820714
1.07605e+06
1.18033e+06
751872
733263
676396
617844
561482
516142
480877
525260
584853
692995
704882
727333
679543
632513
566193
547148
581443
675952
661552
718460
572583
629043
589150
661027
727078
743553
625897
513982
459397
482648
805888
990582
881333
723618
581823
486521
462942
483316
541529
625478
727638
791672
835990
856706
874211
880800
869199
865288
870640
819865
773527
723181
716948
755313
810382
867660
876492
849490
739104
675778
725252
683900
800587
918916
675026
573930
569343
657558
691437
484007
155938
60516.9
57057
176813
398318
547465
579370
615044
670985
723556
699312
698617
730265
770929
733309
533675
286623
277358
366610
583233
640421
528707
416700
573331
919370
1.04045e+06
785987
768827
840568
858629
762905
637116
591434
556737
573761
563669
618389
572961
618659
576377
534978
568855
601652
602996
561917
548501
542317
519876
521624
538409
623512
705668
638026
537369
638751
749816
881242
949014
758844
767060
628109
367509
237444
195317
219816
261691
317526
356693
454937
486028
468663
489270
527621
437804
445679
370618
458612
419225
514408
482932
553330
736769
782164
567401
446204
529432
659121
796192
980914
1.06818e+06
903125
825044
917070
757213
294581
82748.9
40868.4
19371.1
38770.5
18350.9
39045.3
42325.9
116435
204092
230325
154321
130296
62898.8
54537.4
63213.1
47847.6
126185
150986
399832
707395
779081
593134
560567
655167
810534
1.09782e+06
1.10014e+06
786860
899882
718162
328621
162941
113048
39193.9
27953.5
19871
13337.5
51369.6
86308.2
251441
301070
150463
89214.7
35826.6
42808.2
25620.1
50767.9
46603.4
66401.4
116540
327822
683098
777438
607409
553826
611983
631925
793988
847225
763114
714442
716649
698746
794716
888477
882563
790475
687370
670603
764587
882704
939855
921968
857515
788471
677278
424545
315236
414023
566675
635087
663045
656882
643594
625202
616978
642815
667921
604210
565538
559728
403811
366279
605964
736692
741317
718217
738822
799365
841441
803517
669937
508283
398241
535392
699431
797483
813459
770047
687978
662253
670964
590765
436807
361053
291950
190210
187102
199114
199835
230644
95516.2
43110.5
330690
290982
344722
387215
385893
359922
338757
337426
354081
371888
396373
431686
499149
555504
587457
602019
643911
591480
494291
375097
295702
309111
368127
432702
505906
565613
587592
605478
612333
633230
644312
663153
663997
658624
629226
602480
569121
552642
530946
516748
500469
487270
475732
465294
461330
473199
493807
727309
855000
797296
710501
541485
430371
408352
467206
567668
698977
809532
798778
731553
713741
707012
651269
676084
601962
634801
570761
611472
595465
630875
633164
659331
662109
634707
584926
516947
488400
552102
705772
734543
567684
670346
699591
613112
621479
724540
743951
580987
424918
360761
337444
282247
258905
175209
187496
165924
205869
189124
206964
192495
176237
190317
222430
344449
550722
686295
701694
713110
683053
653557
648703
667348
704879
679420
642824
564559
492229
440391
405254
406374
471375
582372
640392
691775
692798
714116
699490
711823
672501
724488
665076
670403
608010
689404
630932
709077
757780
730330
595004
487972
449676
513090
676094
824699
862246
735097
590630
495140
465558
483583
536957
621232
722615
797722
833174
863418
874298
873095
859189
876679
890163
894075
892636
889639
886607
878086
902050
888147
863168
761290
705102
720871
750245
643825
609498
631749
701552
614203
605095
673828
723264
597329
211915
49256.4
39353
78903.5
249235
391009
463263
502522
556131
590966
694047
722054
739428
674847
513046
380466
336251
337759
470748
630139
590235
447451
521447
773637
829173
845237
800447
788758
857910
865057
754570
616159
531914
515146
529796
471325
495705
492223
500795
503434
558023
588276
563768
550818
511233
523232
541603
514052
514039
545619
635316
706349
660757
592067
649776
713153
733004
728387
757060
781817
638497
363292
221864
178779
184273
221348
245854
295016
313275
404184
444417
477096
480414
398086
420214
409850
460802
435866
501493
477388
543556
746229
768354
554826
453063
538785
655349
760007
816126
818599
781521
779991
916319
849604
381743
96525.2
50572.8
18271.8
23306.5
8594.32
17407.1
12245.1
26131.7
35846.4
49997.2
47124.5
77348.9
37150
66001.8
42845.2
81456.5
107631
204414
418954
741215
728230
606026
615867
681439
704135
674986
672784
773006
924742
838253
349271
160938
80670.1
57220.4
18057.8
8684.96
5770.45
20209.9
20173
46421.2
71585.1
59236.3
71204.6
30936.4
46442.7
34896.9
67177.6
53574.9
75718.6
143202
391988
733797
767658
629220
613180
655011
657469
592233
613235
719149
686167
674258
686351
801413
900678
873680
721915
533567
513958
668070
836152
942546
943747
904287
853844
769501
635029
499843
453201
593821
646593
648899
656641
658944
643418
651737
653159
635306
524197
351207
339578
367897
368062
581378
733123
741125
724573
739203
782824
838809
818088
717665
615262
574059
653971
762678
822604
820126
756309
696834
679216
665890
586180
424882
335305
295809
192144
179865
196844
218569
197058
52453.6
37204.4
319484
268701
329758
381799
386338
369836
360978
361969
371529
387930
406900
423288
471231
532194
537895
558901
621058
552728
471576
350822
274137
288923
341574
400269
475871
540548
576216
592528
617346
636329
665178
692613
722030
734213
735980
711943
676635
640758
603035
575190
544733
521627
503083
497515
502730
527241
614494
803132
850440
814378
683531
515004
414706
386202
423155
511735
638799
776578
812430
708984
601466
624853
568816
561594
544893
598376
531663
579135
579669
598897
636255
664394
654955
614287
554911
513907
555270
674009
747205
590694
519051
669810
691354
568891
542497
649220
769134
694324
502884
382160
344741
289835
263572
167419
152512
97432
104600
112040
103774
118605
136321
176349
270054
408883
559198
640999
650321
611768
586159
573340
579527
624671
632486
618330
571222
533559
455975
402682
333452
293146
355523
387377
467633
530092
505669
559816
552133
606335
541402
617865
644792
572462
636297
692580
673432
749914
773108
698713
568995
479472
482004
584426
730350
818540
852909
713605
577685
485267
456624
471906
518243
597404
706642
786170
834657
856098
866286
857627
853541
828844
832527
861162
897450
904663
912216
911965
863726
839563
765064
729675
709566
755850
720766
646795
625887
656311
704860
614353
599921
657326
733848
712668
369018
56496.7
29493.8
29850.7
91708.1
211952
277911
315975
314003
367669
352698
397147
400300
359782
338583
363255
330297
416480
541336
569211
544377
651845
797173
842906
834103
804378
745342
749756
848821
902956
782375
618666
533118
445315
447689
444344
380607
322720
330310
295202
330702
331281
356524
405966
460539
501635
505220
508372
531197
569826
651322
718185
683988
627863
632103
645915
643962
659472
721931
782291
706946
438083
240979
164049
154499
165790
194091
193811
232300
203112
253429
255913
309422
307523
404625