/*--------------------------------*- C++ -*----------------------------------*\
| =========                 |                                                 |
| \\      /  F ield         | OpenFOAM: The Open Source CFD Toolbox           |
|  \\    /   O peration     | Version:  2.1.1                                 |
|   \\  /    A nd           | Web:      www.OpenFOAM.org                      |
|    \\/     M anipulation  |                                                 |
\*---------------------------------------------------------------------------*/
FoamFile
{
    version     2.0;
    format      ascii;
    class       volScalarField;
    location    "0.005650000";
    object      Tu;
}
// * * * * * * * * * * * * * * * * * * * * * * * * * * * * * * * * * * * * * //

dimensions      [0 0 0 1 0 0 0];

internalField   nonuniform List<scalar> 
12384
(
946.392
914.158
893.893
883.6
880.091
882.104
884.286
881.708
882.314
878.088
883.146
899.186
1013.08
974.723
473.614
438.663
438.116
460.343
475.454
482.488
485.97
493.308
499.143
508.995
516.932
529.837
534.16
550.41
545.991
570.585
559.743
592.698
580.062
614.473
603.5
635.082
628.551
651.215
644.641
636.765
607.505
580.215
577.786
589.027
434.426
444.813
462.235
468.328
476.133
483.588
493.991
502.74
515.67
519.659
526.574
523.914
524.645
519.646
515.541
514.371
506.773
507.434
498.349
500.289
497.375
499.425
499.75
495.788
483.395
460.244
452.574
459.568
469.331
472.282
420.455
455.862
451.188
439.969
425.891
426.143
424.188
428.094
429.744
430.462
428.942
425.69
423.413
412.715
409.456
397.631
390.068
371.548
377.262
376.727
386.873
398.926
409.356
419.215
417.442
381.931
373.83
371.858
369.16
367.123
362.542
367.235
377.102
387.144
394.611
393.637
396.324
384.643
393.917
376.291
388.073
376.337
385.234
387.511
381.7
401.172
390.604
420.622
416.661
438.163
428.1
418.798
428.274
456.73
456.482
445.003
438.797
436.843
437.454
436.35
389.717
419.748
414.168
398.821
402.906
398.069
409.441
418.861
432.837
449.173
466.136
479.93
489.216
492.082
488.704
481.473
470.529
451.784
457.002
421.085
431.17
403.499
414.462
408.824
404.891
386.113
365.706
374.077
390.906
387.581
319.032
307.39
270
270
270.677
297.641
318.71
333.305
340.272
342.247
340.998
338.631
335.243
331.737
328.965
328.401
326.406
327.481
327.578
333.716
337.77
344.554
354.083
360.003
328.871
328.928
341.602
349.728
354.215
356.414
343.972
354.151
359.974
369.887
377.826
383.211
388.573
376.467
381.331
355.138
364.857
334.804
346.348
330.392
335.108
347.386
347.296
359.144
367.182
370.766
374.838
375.253
379.545
397.371
417.172
417.713
411.688
406.174
405.88
405.927
334.52
347.588
359.706
372.996
382.321
388.244
390.401
389.159
386.033
382.731
376.754
370.847
364.849
375.985
365.518
388.07
383.098
401.497
395.877
408.193
402.652
405.375
396.238
398.317
400.513
404.254
405.815
407.524
402.477
399.961
450.791
422.165
405.047
398.577
399.743
398.536
391.298
379.998
366.123
346.365
333.75
315.232
306.56
303.615
289.013
310.913
311.544
351.663
359.648
399.579
413.818
418.774
432.93
416.741
410.706
416.363
427.028
433.01
437.569
438.982
368.678
387.346
397.792
397.599
398.293
386.027
382.854
365.319
354.153
348.682
317.23
333.718
307.703
312.677
305.625
328.722
329.395
359.951
369.335
378.78
385.987
394.995
393.209
387.14
380.196
377.23
372.166
371.892
369.951
368.977
270
270
274.484
270
302.635
325.203
332.577
329.048
327.375
318.435
317.69
306.555
310.141
300.432
304.583
297.573
300.19
295.599
298.04
292.982
297.453
289.533
294.122
300.817
297.256
312.413
313.862
321.563
306.009
270
281.547
283.453
280.82
277.134
272.18
270
383.354
412.439
410.304
410.014
409.934
407.138
409.885
405.168
403.981
406.5
404.179
404.292
406.049
400.124
400.54
400.555
394.274
393.607
392.501
383.539
363.063
333.455
270
270
821.834
825.63
843.214
871.584
900.492
921.928
932.103
933.543
920.669
904.52
886.919
883.864
963.193
988.072
467
440.85
459.524
489.281
497.729
503.037
505.756
516.296
528.377
542.665
555.216
567.731
574.09
585.177
585.661
602.034
597.559
626.418
620.419
653.671
648.562
678.561
674.883
689.239
678.753
666.31
633.79
598.337
579.012
589.039
428.708
453.011
462.176
471.162
484.147
499.798
518.482
533.384
538.23
535.041
528.263
520.721
515.995
512.49
505.282
502.819
498.484
492.281
491.924
489.515
491.696
492.127
494.721
494.489
488.713
473.119
454.869
449.169
456.43
465.259
423.726
453.872
431.566
414.512
402.874
408.653
409.426
414.625
416.738
418.807
419.469
416.129
411.951
406.356
398.702
381.962
382.119
365.969
362.544
367.839
373.304
383.77
395.113
408.368
420.964
400.607
371.892
365.938
370.057
367.618
366.356
392.275
419.974
435.537
438.043
431.41
429.691
413.871
417.934
400.236
407.964
396.479
399.464
399.037
410.484
409.177
424.221
431.142
441.104
448.377
444.102
431.209
424.499
441.844
452.025
435.925
430.33
429.309
430.365
430.928
400.325
415.51
408.447
388.559
399.747
399.648
416.639
435.363
460.544
485.626
502.763
514.459
512.589
506.828
497.347
482.311
472.661
461.133
458.33
437.516
451.79
434.684
443.572
441.667
426.938
406.862
376.78
366.943
378.762
395.422
313.394
288.753
270
292.723
331.22
351.805
359.494
357.077
350.221
340.694
330.145
320.174
313.422
309.107
307.575
303.86
308.078
307.75
310.303
312.287
320.401
326.911
337.999
350.359
345.157
329.948
334.607
335.742
341.423
350.207
379.679
389.266
397.654
406.355
411.523
413.465
411.36
399.924
397.941
374.521
379.99
356.866
361.576
352.515
356.839
361.171
368.261
371.507
379.044
380.45
380.211
377.637
378.273
386.174
402.261
395.297
380.047
375.994
380.09
385.918
364.032
381.215
396.271
406.375
409.61
409.003
404.471
398.983
392.827
384.92
377.364
374.972
374.651
372.875
378.804
390.912
390.281
408.092
406.237
411.07
407.248
410.113
403.074
404.83
418.533
431.643
434.415
434.184
423.645
415.213
429.833
396.046
391.712
403.088
408.488
402.654
389.598
370.936
349.186
329.889
306.928
285.932
287.279
270.829
270.668
286.989
294.731
322.349
351.642
376.851
392.649
412.441
435.68
428.994
412.786
421.128
435.569
446.481
450.402
448.633
385.61
405.009
406.773
403.106
396.475
385.885
373.241
363.667
337.362
338.03
317.024
306.377
311.734
306.552
303.809
310.445
322.964
338.837
351.266
363.069
375.061
389.074
397.477
388.713
377.141
372.01
368.218
365.254
364.393
362.077
270
270
282.464
294.414
323.968
322.338
321.408
313.281
307.441
300.54
294.71
286.995
283.66
275.794
277.554
273.108
279.613
278.492
287.139
283.753
287.793
286.665
288.404
290.792
299.559
308.726
314.391
321.161
316.793
270
270
270
270
270
270
316.292
409.684
411.141
412.187
414.029
416.826
420.369
417.011
415.601
417.335
412.58
411.598
411.294
408.406
410.926
408.318
405.526
406.52
399.841
396.722
381.915
355.813
327.92
270
270
820.285
851.785
906.387
937.911
951.382
947.489
957.308
973.113
982.449
966.449
928.99
887.55
927.712
985.277
459.22
449.395
484.835
506.666
508.26
514.476
523.452
539.854
551.378
564.179
570.815
578.285
579.025
590.065
590.556
609.549
608.583
635.285
630.033
661.57
658.495
690.139
692.077
714.466
707.876
697.315
663.66
620.311
586.592
585.636
440.452
458.81
470.265
478.027
496.951
517.881
531.469
533.564
527.734
513.091
508.174
501.615
503.272
502.034
494.805
495.27
489.548
481.844
473.945
473.018
475.791
479.661
483.605
488.007
488.122
480.189
463.225
449.279
449.884
457.459
425.469
449.905
416.957
406.055
401.276
406.516
407.359
414.565
418.005
422.152
423.615
423.14
421.158
414.354
407.706
395.814
387.366
369.562
374.531
369.435
370.116
373.978
382.738
393.792
410.201
410.972
388.771
376.051
381.891
372.926
394.18
434.552
449.843
443.505
431.587
417.972
411.443
396.953
398.141
385.681
389.901
382.798
390.988
391.227
392.604
408.909
414.673
426.491
442.109
453.731
453.032
443.408
425.536
426.606
440.052
434.555
427.753
424.317
425.309
427.428
407.813
411.208
400.941
390.332
404.033
413.127
431.679
452.607
477.482
493.73
496.636
487.467
473.413
461.154
450.42
444.277
445.144
432.153
439.938
428.692
436.071
432.172
452.179
451.599
450.618
427.716
396.096
368.93
369.868
388.339
302.333
279.162
292.321
341.499
357.331
358.426
348.422
330.326
313.011
301.868
295.385
293.644
296.025
301.815
306.311
312.259
309.155
310.62
311.004
309.482
309.469
314.794
321.292
334.276
345.5
341.51
333.43
333.669
334.251
342.726
389.639
395.894
407.771
420.284
422.136
416.883
410.724
395.208
393.754
369.735
371.287
348.327
354.738
343.234
351.672
354.946
363.284
374.114
376.828
382.627
384.388
379.933
375.434
376.483
385.658
384.351
369.556
365.32
371.028
379.431
387.627
404.06
411.692
411.501
406.382
398.622
391.135
384.952
376.999
368.774
365.91
362.486
358.69
364.103
369.801
381.731
391.19
401.447
409.848
411.788
410.823
409.602
406.595
406.035
424.258
442.644
443.328
443.487
436.858
426.622
400.411
383.912
410.661
422.374
412.965
392.256
368.837
345.075
320.828
310.447
277.179
276.305
270
270
270
270
270
311.475
325.523
360.517
379.366
394.729
418.95
430.658
421.731
419.514
439.368
453.091
456.632
455.962
410.936
411.825
408.109
400.261
389.551
379.129
364.949
352.801
332.541
334.211
303.177
310.251
298.019
290.391
291.504
303.773
313.045
328.307
339.744
349.419
358.777
372.491
387.982
389.768
376.831
373.351
372.014
369.843
364.376
360.985
270
278.664
305.791
312.12
323.737
314.472
309.649
305.721
302.035
297.109
292.024
283.263
274.529
270
270
270
270
270
278.626
283.736
282.409
283.813
279.507
280.482
289.709
305.773
310.948
320.69
319.571
287.728
297.682
311.068
270
270
288.542
392.896
414.599
413.903
420.319
428.123
435.414
432.619
433.248
435.696
427.53
424.438
420.954
412.575
411.031
407.309
405.627
404.642
392.049
382.107
373.017
354.141
331.828
315.134
270
270
826.909
881.899
926.606
916.419
870.818
841.516
851.71
901.942
952.389
983.826
963.086
911.153
912.219
980.464
456.309
461.137
504.735
518.146
526.077
540.661
555.933
566.679
572.05
574.364
574.898
578.744
583.806
603.887
615.486
646.776
651.127
681.536
675.56
697.213
691.918
711.253
706.195
728.657
726.543
721.691
689.094
642.792
595.751
585.921
432.348
456.639
463.943
475.255
490.602
516.348
536.617
536.153
517.61
505.091
500.381
497.521
502.647
500.775
500.259
485.998
484.275
476.111
473.556
469.647
460.551
465.708
472.773
477.614
481.23
480.876
469.139
452.09
446.687
451.767
427.807
444.595
413.822
404.62
402.742
406.476
410.144
415.258
420.23
426.566
428.542
431.283
430.504
423.304
421.868
406.676
396.483
393.622
374.269
371.417
371.121
374.019
376.485
384.175
400.065
412.861
405.647
392.935
393.78
376.114
439.811
451.596
438.272
423.612
414.765
401.167
402.809
389.256
396.023
386.457
395.653
391.517
398.253
402.72
406.182
406.1
420.511
426.428
432.59
453.087
455.299
451.859
433.493
422.23
428.202
428.938
421.684
415.075
417.605
423.514
410
411.407
396.563
403.719
407.658
423.618
432.018
458.678
468.266
470.613
455.58
442.665
433.195
432.532
438.266
442.66
448.609
443.148
462.167
442.746
452.96
453.217
456.297
464.578
461.733
447.898
413.738
379.554
367.602
386.378
295.607
283.858
330.104
354.535
357.48
343.369
317.71
296.007
285.384
284.214
289.387
303.981
322.581
337.914
350.445
355.817
363.358
359.047
351.011
338.56
323.18
314.07
313.533
320.206
335.092
343.855
342.178
333.305
331.339
335.126
395.656
409.568
425.151
424.606
420.483
412.015
403.446
385.953
384.34
362.061
362.549
348.801
346.735
341.502
342.559
346.413
355.775
364.196
373.854
377.803
380.86
380.938
374.821
371.252
375.274
377.864
368.273
363.928
366.359
376.3
409.1
415.392
412.648
404.304
393.715
385.601
379.593
374.927
370.055
368.739
366.006
362.223
364.103
360.054
370.806
369.472
390.703
392.676
408.237
409.902
411.237
408.671
406.281
405.094
420.892
439.807
439.97
437.313
437.196
429.224
381.94
399.342
437.646
429.299
400.933
370.74
343.584
324.446
309.046
302.361
271.088
290.522
270
270
270
270
272.159
289.128
316.899
339.148
363.847
384.635
398.742
423.267
423.567
414.342
429.662
446.666
455.123
450.086
416.901
416.396
409.211
396.316
383.395
373.372
359.197
350.847
338.857
324.857
310.426
300.188
284.121
285.396
288.563
290.706
304.271
320.093
330.146
340.087
346.929
357.78
374.64
385.746
377.75
374.84
377.449
374.557
369.43
360.276
273.793
297.846
318.985
322.268
316.934
315.023
316.92
321.337
329.284
332.587
329.669
317.802
300.659
279.098
270
270
270
270
276.364
286.696
282.785
280.22
270.323
270
281.699
294.956
312.071
316.785
321.315
299.311
325.848
339.757
270
270
367.445
414.772
417.912
423.359
435.105
444.625
444.061
446.574
451.651
443.709
440.98
437.99
426.796
422.815
412.295
404.994
402.788
391.9
366.797
340.59
320.906
315.037
315.005
307.875
270
270
841.956
898.381
892.818
826.313
764.748
749.664
774.529
831.53
909.381
968.312
979.584
930.646
913.177
974.546
453.51
473.851
518.687
533.332
552.009
574.027
585.938
583.637
578.402
572.994
573.453
582.757
605.648
642.498
672.382
710.883
722.036
747.42
740.417
756.861
738.186
748.514
731.503
741.682
741.627
738.829
710.025
659.008
604.64
582.592
456.306
468.182
463.705
473.703
504.704
531.618
540.024
530.18
509.884
496.469
499.145
494.26
504.35
493.536
502.673
476.272
467.487
459.638
447.592
456.396
461.938
452.789
456.174
470.175
477.549
477.409
470.421
452.312
442.177
447.707
429.57
442.187
410.194
404.565
405.603
409.474
413.18
418.188
420.943
428.207
431.451
436.339
435.038
427.625
430.634
411.944
415.526
392.28
387.653
377.704
374.316
375.9
375.383
377.779
389.051
408.207
412.652
409.129
403.568
382.791
461.59
440.649
423.451
415.887
407.406
403.797
403.556
396.195
408.942
403.806
422.143
422.919
444.377
443.217
447.601
443.405
434.839
438.598
435.984
450.763
454.412
459.01
442.823
423.432
419.84
420.439
415.07
410.798
412.389
422.468
412.188
410.585
401.071
411.681
414.601
423.545
432.433
448.564
449.153
437.762
422.988
420.536
423.403
437.894
451.425
459.974
471.183
475.711
486.625
478.512
495.283
474.829
471.909
471.677
476.164
460.608
429.586
389.339
369.291
384.227
292.664
303.293
350.318
359.028
349.888
320.29
293.525
278.64
278.328
286.549
310.214
337.399
362.475
379.452
387.727
390.476
386.757
387.135
385.067
373.897
355.507
330.654
315.686
315.699
325.471
337.67
345.838
340.462
324.561
326.852
402.608
422.615
430.941
425.487
413.25
406.004
401.554
384.13
384.36
361.497
369.876
344.29
350.306
338.425
342.516
346.662
345.349
355.754
363.393
373.12
377.84
377.684
374.949
369.313
368.831
370.717
367.511
363.636
363.507
372.158
420.4
417.19
408.395
396.299
384.997
379.056
372.904
373.425
373.626
371.234
364.885
359.636
358.895
364.493
368.661
368.831
386.727
386.376
405.158
405.332
410.522
405.75
404.828
402.355
415.413
434.084
432.307
429.004
427.182
424.364
385.534
428.76
456.122
425.345
382.193
352.773
324.833
319.257
305.494
299.802
290.434
292.905
270
278.97
270
270
279.103
282.458
304.065
333.183
348.271
370.705
388.498
404.756
419.74
417.332
418.752
440.728
452.32
451.006
420.667
420.643
407.365
389.723
377.846
368.634
360.915
357.954
341.198
331.215
318.349
319.42
313.035
301.783
292.106
296.854
294.306
308.239
320.638
332.784
337.711
345.64
360.099
375.887
376.768
375.168
378.228
377.398
371.804
362.835
282.956
314.082
325.361
324.275
321.905
327.996
346.179
365.085
378.077
386.62
382.158
369.423
348.344
321.12
287.221
270
270
270
274.512
286.502
286.411
277.885
270
271.496
270.618
293.018
307.2
317.055
319.916
305.094
338.845
350.89
284.337
316.317
402.471
421.279
424.853
438.167
445.4
448.863
454.41
462.737
455.981
453.804
452.067
439.338
437.714
429.214
418.852
410.659
400.048
391.883
360.383
315.289
302.832
302.701
312.056
302.644
270
270
847.628
879.579
825.657
749.15
726.076
732.135
768.983
832.238
896.087
960.353
977.735
943.261
912.539
973.622
451.617
484.473
530.518
552.022
577.224
605.364
604.975
590.424
575.893
570.532
574.348
600.964
640.93
692.622
725.569
760.874
769.822
789.653
786.582
798.912
782.618
781.32
764.411
759.197
756.084
752.12
722.668
670.656
610.09
585.996
447.675
468.262
464.252
466.425
499.781
540.598
549.908
537.155
513.938
493.799
490.98
494.588
500.199
495.74
487.85
478.611
449.838
445.733
431.762
434.847
441.897
452.583
450.987
456.544
466.676
473.721
470.345
454.474
442.739
445.176
430.073
437.376
410.865
406.141
409.655
414.693
416.128
417.852
419.789
427.309
432.556
435.362
424.806
430.156
431.878
414.908
416.011
401.801
396.214
389.53
378.331
379.354
375.008
376.071
385.177
405.316
416.521
416.622
406.296
380.98
457.994
426.87
419.28
410.154
408.665
405.238
406.349
408.573
423.118
430.662
455.211
474.755
486.203
496.474
492.388
491.757
474.044
467.317
445.396
453.36
456.892
456.917
454.498
427.754
420.113
415.71
409.616
406.336
408.137
420.212
411.839
412.449
407.298
419.829
415.704
424.456
425.96
433.802
424.361
415.026
407.288
416.827
432.796
454.4
460.752
473.417
487.923
494.906
512.815
516.721
516.214
499.462
498.837
488.157
483.209
470.361
438.871
396.419
368.768
383.723
295.039
328.38
360.01
363.697
336.617
305.168
283.879
272.91
276.513
298.781
335.501
366.888
383.228
388.8
389.517
392.621
395.301
396.814
394.276
392.046
381.309
351.467
326.566
314.65
321.159
334.314
346.311
341.537
319.852
324.744
413.77
434.408
430.813
423.224
415.489
405.146
400.267
386.248
385.91
366.59
365.954
346.325
349.593
342.601
340.669
338.948
349.351
347.38
354.689
366.001
372.092
376.945
373.16
368.99
367.42
369.557
368.21
364.583
363.387
374.243
423.669
415.101
404.335
391.358
379.793
372.974
373.199
376.955
373.719
373.658
375.852
376.035
374.8
365.725
371.266
369.174
382.573
383.935
401.937
398.164
412.057
399.698
403.373
399.39
410.621
425.666
428.363
422.796
420.985
421.634
399.648
464.756
463.206
418.683
367.582
339.801
316.584
319.446
299.878
306.358
299.489
284.89
290.9
273.591
274.823
270
284.41
283.459
300.182
321.696
353.131
352.346
378.846
395.015
408.008
414.571
420.639
432.145
445.573
437.214
426.44
427.422
408.01
383.444
371.419
366.881
369.037
351.613
348.326
327.664
346.409
322.624
328.371
321.445
315.287
304.047
296.044
304.516
310.194
329.359
330.537
337.911
349.655
368.036
375.653
373.43
375.27
376.684
375.773
360.663
291.863
323.058
330.197
328.998
336.558
357.243
381.848
408.877
420.928
424.088
421.828
409.626
391.567
362.258
325.658
284.072
270
270
274.969
287.284
290.891
287.208
288.368
283.018
279.355
290.322
308.799
314.702
317.956
300.285
344.639
351.474
305.593
354.901
416.598
428.443
431.201
447.629
454.201
459.617
468.497
462.436
463.15
463.62
450.175
449.455
442.088
431.194
427.991
418.016
405.154
393.436
369.026
314.67
300.009
307.808
311.052
287.229
270
270.609
841.13
852.462
784.91
728.297
729.473
766.108
804.952
850.965
901.94
947.5
969.667
937.509
917.311
966.644
454.419
494.109
542.497
564.667
597.586
628.342
616.369
588.678
572.305
567.159
581.186
618.966
669.083
709.845
744.952
773.465
785.932
810.876
803.91
821.576
804.923
806.272
783.604
781.87
767.554
761.593
728.915
672.94
611.539
579.173
472.225
469.767
468.509
480.014
507.605
548.888
561.765
539.201
507.83
492.875
485.768
486.757
497.773
495.916
482.15
478.861
447.399
441.669
421.463
433.573
431.149
432.818
446.329
451.811
464.022
468.336
464.41
448.919
438.351
441.752
428.833
432.787
408.379
409.143
414.324
419.746
418.917
416.394
419.707
426.382
429.16
427.104
420.348
426.439
417.752
414.629
421.548
401.708
396.851
390.633
384.698
381.215
372.661
373.93
383.203
403.966
417.019
418.757
405.211
386.985
441.28
422.888
412.737
409.931
403.797
404.532
406.861
416.562
431.991
458.133
485.034
504.189
514.9
525.125
529.142
520.632
495.769
480.911
455.605
464.573
456.453
459.606
462.553
432.994
424.124
412.594
409.21
406.596
408.485
421.507
416.094
414.062
418.102
419.655
419.598
415.997
421.639
415.292
406.216
402.009
405.63
423.173
443.152
457.147
461.352
481.298
487.008
519.384
535.388
521.65
529.311
516.723
507.677
497.85
487.834
473.462
440.656
395.008
372.052
393.878
300.363
345.417
368.772
362.092
332.533
305.608
283.829
274.031
279.639
307.764
345.515
372.284
381.784
381.078
386.026
392.985
393.115
395.157
402.898
397.71
394.784
364.988
339.201
318.929
320.344
332.833
343.657
343.183
316.83
313.269
422.535
441.413
432.691
425.032
416.409
410.84
395.101
391.295
384.522
366.213
365.063
342.347
348.684
333.62
339.219
337.573
339.661
347.896
348.734
360.234
368.213
374.347
373.619
368.834
366.619
367.54
366.907
364.942
366.045
383.664
424.605
413.934
401.742
386.336
376.113
370.392
376.983
377.68
375.199
377.754
371.918
358.46
354.383
356.681
368.489
365.297
385.761
379.125
400.624
393.436
406.381
399.047
397.944
398.363
407.165
420.231
422.466
420.293
419.929
420.686
422.473
494.174
466.094
411.874
358.641
331.693
315.371
312.035
299.579
309.927
285.971
293.132
271.732
270
272.942
273.658
277.396
292.468
302.329
320.16
343.172
356.289
360.405
389.026
401.615
410.082
417.561
436.888
441.797
438.779
440.489
432.079
398.813
372.706
366.545
368.121
361.104
341.012
339.79
331.551
334.286
309.476
313.599
300.275
304.244
314.758
299.328
308.549
304.169
324.752
324.713
333.573
338.937
357.528
370.216
372.161
373.545
377.355
375.061
361.203
295.668
329.084
336.463
339.688
355.98
387.061
416.968
435.937
454.024
453.269
446.143
439.58
420.434
395.728
361.384
315.673
272.672
270
270
286.047
292.341
290.076
290.28
293.022
290.441
302.499
308.97
315.269
315.542
299.375
340.957
358.755
325.235
376.531
422.514
432.665
441.22
451.578
458.201
470.537
471.233
474.539
479.073
466.234
464.748
456.351
442.494
435.733
431.46
427.096
411.83
400.255
384.987
318.732
288.864
297.939
298.238
270
270
280.256
837.485
817.78
746.388
719.737
750.834
801.534
843.477
868.105
900.169
934.571
941.334
922.766
921.31
961.518
448.314
500.346
545.823
565.526
606.88
653.205
624.211
588.35
568.337
567.997
585.327
627.556
656.807
688.666
706.231
743.644
759.602
795.292
804.874
819.477
812.296
812.989
797.349
790.971
782.174
760.369
724.696
664.782
606.296
581.008
475.539
475.829
461.665
478.449
511.52
550.023
566.669
554.953
514.456
487.701
483.088
480.606
485.652
495.143
480.443
481.904
451.514
449.777
421.052
431.652
424.782
431.161
444.351
447.317
460.601
464.813
459.943
445.916
438.5
442.764
428.764
428.451
410.768
413.071
422.383
424.098
421.535
417.136
418.135
423.955
427.036
420.094
417.352
409.948
413.233
406.265
410.313
399.585
396.628
392.654
383.754
378.331
372.028
371.85
384.166
404.063
416.598
413.62
396.178
387.555
435.499
418.064
411.644
403.971
401.163
399.371
402.086
416.229
439.422
471.113
493.875
519.003
517.642
532.06
527.972
529.456
489.738
492.948
453.873
472.454
458.364
467.152
462.115
441.451
426.996
415.121
408.79
408.41
412.836
425.99
416.8
419.271
424.289
426.663
418.838
416.042
411.263
404.738
396.059
397.905
410.422
433.517
444.33
456.142
461.374
470.143
494.796
532.726
526.733
522.819
533.797
521.18
515.389
500.292
489.827
465.778
432.395
393.794
378.021
395.486
308.431
359.391
376.725
365.044
342.333
311.809
281.409
270
274.188
309.042
350.499
371.326
375.227
378.389
389.912
401.205
411.042
409.691
414.889
408.004
395.972
375.975
342.794
325.372
322.213
336.512
346.39
340.159
307.976
302.985
436.579
447.958
438.99
428.989
417.912
411.482
397.98
392.641
385.13
373.218
357.927
347.789
342.403
334.453
336.961
337.968
337.201
343.748
347.803
357.31
367.185
370.606
374.044
368.455
366.935
367.282
365.971
364.539
388.708
400.359
433.586
419.743
401.551
382.419
373.492
371.388
375.804
376.718
376.45
375.921
374.633
360.345
361.612
352.722
369.545
361.708
384.759
377.843
399.556
387.344
403.37
395.528
395.532
395.149
405.265
415.434
419.4
434.027
452.534
441.974
451.991
525.799
475.923
410.968
356.819
329.68
312.385
304.995
308.442
293.678
284.933
281.771
270
270
270
271.681
290.408
289.005
310.278
323.498
332.703
353.158
358.119
372.071
400.064
405.594
418.72
425.065
431.022
424.412
450.047
437.738
401.264
369.897
360.6
358.013
348.483
325.402
344.365
314.135
322.807
311.683
318.153
316.44
307.089
312.488
301.667
315.698
304.107
324.22
322.435
330.876
334.088
353.796
368.5
373.328
374.251
376.307
378.014
364.852
298.296
332.925
341.413
350.41
375.439
409.588
440.265
458.883
466.954
478.058
475.433
459.854
444.238
419.527
390.793
351.223
299.37
270
272.145
290.039
303.582
305.823
297.852
296.368
298.952
306.787
308.377
313.784
310.004
292.244
324.569
370.429
337.446
388.076
426.64
434.21
445.614
458.402
462.466
474.066
476.127
486.266
484.163
482.135
473.622
459.232
444.588
438.997
436.071
430.037
418.84
404.843
396.28
327.359
271.636
270.612
270
270
270
294.617
836.707
791.587
732.551
729.892
783.7
834.745
861.382
884.783
900.591
914.548
927.597
923.156
942.689
906.185
689.478
488.194
467.378
509.421
543.057
561.138
633.328
673.873
632.158
584.928
568.368
564.132
582.705
608.21
623.864
624.53
638.054
652.485
679.663
719.698
753.769
788.135
795.93
800.994
794.043
787.593
773.973
748.925
704.77
653.603
602.02
575.863
556.718
520.05
490.159
483.211
474.127
473.801
509.078
559.399
574.859
564.539
529.977
488.59
471.823
473.459
474.728
480.612
477.535
481.404
457.628
459.006
432.368
434.004
429.932
437.089
445.442
448.209
461.771
459.95
453.121
441.899
435.203
441.643
444.424
420.501
418.213
418.338
407.492
417.928
426.985
430.112
425.239
418.983
417.854
421.739
424.697
416.497
412.205
396.946
403.63
393.233
397.84
390.748
385.469
382.989
379.191
372.06
367.682
372.584
388.286
408.514
418.154
420.334
418.823
407.684
398.987
404.452
406.72
404.956
402.177
400.684
396.105
393.841
393.73
411.749
434.031
472.148
485.687
511.793
507.336
522.238
509.861
514.291
478.993
490.943
454.086
480.367
460.106
475.413
460.449
447.282
430.461
418.147
414.335
408.107
419.09
424.859
424.035
420.915
421.148
423.544
430.835
424.511
420.601
410.864
407.165
394.259
393.594
398.682
413.702
430.185
446.234
452.021
449.258
463.256
493.514
509.769
526.31
521.699
520.36
521.087
505.222
498.194
481.906
459.5
418.339
385.767
380.826
403.37
336.827
302.553
328.257
373.654
379.107
371.766
356.252
324.689
285.486
270
270
301.217
339.124
365.403
370.016
371.397
378.148
398.717
405.2
411.409
407.063
407.025
398.001
371.084
333.726
330.949
335.298
342.74
348.188
318.098
294.954
300.194
431.425
438.849
443.665
447.803
442.098
432.362
419.608
408.309
405.718
393.741
386.363
374.822
365.954
344.819
346.546
335.765
330.44
333.07
333.975
341.735
349.89
357.73
369.39
371.362
374.501
370.434
369.507
370.898
378.902
406.179
414.674
411.171
408.347
408
412.236
402.583
392.479
377.435
371.092
369.674
374.475
375.703
377.51
373.343
373.513
358.431
359.918
354.369
368.724
367.449
386.01
379.015
396.091
384.695
397.913
392.113
392.123
394.029
404.969
415.047
425.386
483.223
513.066
507.006
509.429
497.533
510.969
530.859
476.752
412.755
358.964
327.372
316.642
297.55
310.914
280.54
290.64
270
270.739
270
270
270.339
289.433
291.726
306.135
332.066
323.491
353.559
347.393
371.336
388.711
408.564
417.805
429.279
421.39
431.844
437.315
446.073
452.456
429.512
394.013
359.984
350.474
349.881
331.22
333.05
314.931
304.986
322.314
307.728
313.028
304.465
300.757
311.703
307.877
319.168
310.204
324.602
322.672
326.714
332.8
350.906
366.287
373.348
375.446
378.703
376.019
361.447
355.525
346.09
318.856
331.271
348.094
359.039
389.372
425.804
453.21
471.785
486.387
485.166
485.664
480.246
461.069
440.68
410.796
372.256
326.78
281.092
271.762
283.382
301.461
311.795
316.097
312.345
309.39
311.291
312.988
314.711
307.162
288.797
270
270
273.893
370.18
351.567
388.884
427.827
436.342
445.12
457.025
467.149
474.372
477.245
492.397
485.074
481.968
474.598
458.61
447.878
445.002
436.114
430.946
428.123
410.313
404.22
342.331
270
270
270
270
270
270
458.998
487.283
824.256
773.726
729.055
734.975
810.331
864.543
886.649
901.153
908.886
889.363
886.489
903.759
937.392
903.772
726.374
512.467
476.962
501.9
517.65
536.716
647.526
700.778
644.89
589.33
565.702
564.326
567.835
585.713
578.554
578.808
566.948
578.233
582.194
613.215
642.254
696.298
721.975
747.931
750.06
750.16
734.907
709.57
677.7
637.9
602.311
584.883
554.029
521.457
493.464
483.286
478.292
481.317
492.693
546.963
583.802
579.543
546.552
502.95
467.604
453.479
457.584
461.702
458.442
471.711
457.116
465.162
444.916
448.819
439.002
446.447
444.519
452.026
459.669
454.345
449.991
440.694
441.668
444.069
439.511
415.705
415.449
410.478
411.703
419.88
435.683
437.262
432.26
422.517
418.099
420.53
423.927
417.968
412.658
390.308
389.631
379.244
383.526
373.867
377.04
371.231
366.661
366.199
367.055
377.941
397.075
412.119
419.007
416.512
402.813
396.723
394.8
395.877
401.076
399.761
402.624
398.269
391.45
388.562
389.111
399.669
424.802
458.567
477.413
495.166
493.156
500.305
491.066
497.464
468.685
484.587
465.561
476.835
463.573
484.199
459.175
450.081
432.823
426.568
416.94
417.369
430.29
434.318
428.772
422.629
426.999
433.354
433.913
426.778
422.86
411.447
402.506
393.456
391.256
401.117
413.638
432.619
441.958
444.896
443.382
453.778
465.799
487.179
507.331
519.216
513.913
505.297
506.036
487.231
467.118
429.1
402.853
389.047
397.918
386.968
330.836
323.313
359.526
383.189
384.621
385.73
374.216
344.925
298.806
270
270
284.859
322.611
349.625
365.169
370.674
376.676
378.615
397.305
401.325
403.855
395.958
372.033
349.946
344.887
340.152
339.226
346.801
335.289
305.758
312.473
375.731
442.94
446.536
454.768
456.609
448.458
436.247
425.099
412.422
406.533
400.392
393.98
376.078
371.6
357.307
344.189
336.89
336.659
343.052
343.043
349.763
352.519
360.715
374.115
374.431
374.393
371.215
370.478
370.944
383.395
407.546
408.498
404.057
404.502
405.696
412.78
406.231
394.673
379.567
371.334
369.788
372.495
376.248
375.569
379.226
372.981
375.709
371.359
372.094
379.611
374.837
381.952
383.228
393.301
382.558
393.487
389.142
388.739
392.624
402.839
412.732
435.751
515.003
559.996
556.634
558.944
566.258
580.364
559.316
502.94
433.556
368.674
330.359
323.26
298.491
303.265
277.216
286.144
270
274.509
270
270
270
292.748
285.373
314.327
312.575
331.899
339.779
350.442
364.457
388.894
397.999
414.91
413.453
414.03
431.712
458.121
466.737
468.4
452.027
413.862
360.57
343.555
338.218
342.79
313.98
302.253
295.829
313.967
300.266
307.479
307.876
301.921
318.85
306.52
318.404
311.721
328.042
322.304
325.761
333.873
353.862
369.208
377.188
379.739
377.992
373.831
354.374
338.975
337.921
326.732
328.087
345.503
362.963
395.144
432.453
459.286
476.583
490.285
499.73
495.8
488.528
474.113