/*--------------------------------*- C++ -*----------------------------------*\
| =========                 |                                                 |
| \\      /  F ield         | OpenFOAM: The Open Source CFD Toolbox           |
|  \\    /   O peration     | Version:  2.1.1                                 |
|   \\  /    A nd           | Web:      www.OpenFOAM.org                      |
|    \\/     M anipulation  |                                                 |
\*---------------------------------------------------------------------------*/
FoamFile
{
    version     2.0;
    format      ascii;
    class       volScalarField;
    location    "0.005050000";
    object      fH;
}
// * * * * * * * * * * * * * * * * * * * * * * * * * * * * * * * * * * * * * //

dimensions      [0 0 0 0 0 0 0];

internalField   nonuniform List<scalar> 
12384
(
0.0344296
0.0328012
0.0313079
0.0303897
0.0299555
0.0298505
0.0300156
0.0304453
0.0310984
0.032273
0.0342502
0.0362131
0.0347488
0.026616
0.0225212
0.0230041
0.0231764
0.0232904
0.0235018
0.0237881
0.0240966
0.0243388
0.0244601
0.0245178
0.0244942
0.0244338
0.0243404
0.0242511
0.0241682
0.0240759
0.0239964
0.0239301
0.0238771
0.0238336
0.0237985
0.0237645
0.0237261
0.0236947
0.023658
0.0236372
0.023436
0.0226211
0.0235366
0.023653
0.0301531
0.0305062
0.0305932
0.0304779
0.029977
0.0295021
0.0301016
0.0314775
0.0319688
0.0317484
0.0311247
0.0306135
0.030371
0.0303648
0.0304617
0.0305517
0.030666
0.0306729
0.0307722
0.0307489
0.0308815
0.0308862
0.0311418
0.0310802
0.0312381
0.0311935
0.0311298
0.0304981
0.0272704
0.025051
0.0310207
0.0298827
0.0285292
0.0279609
0.0281995
0.028795
0.029875
0.0306205
0.031521
0.0317619
0.0320504
0.0322298
0.0322174
0.0323457
0.0321091
0.0321467
0.0318893
0.031817
0.0314497
0.0314086
0.0310215
0.0307437
0.0304809
0.0301268
0.0298274
0.0295129
0.0291499
0.0287345
0.0281644
0.0279724
0.0332953
0.0337076
0.0334123
0.0332549
0.0331937
0.0331101
0.0330079
0.0329338
0.0328906
0.0328388
0.0327816
0.032707
0.0326239
0.0325232
0.03242
0.0322803
0.0321679
0.0320738
0.0320121
0.0319209
0.031835
0.0317571
0.0316103
0.0314133
0.0311579
0.0308453
0.028869
0.0272927
0.0274074
0.0275832
0.0313121
0.0335004
0.0355912
0.0364139
0.0365065
0.0366877
0.0365926
0.0368012
0.0367519
0.0368502
0.0368607
0.0368901
0.0369339
0.0369387
0.0369328
0.0368841
0.0368254
0.0368088
0.0367065
0.0366768
0.0366318
0.0366874
0.0367223
0.0367862
0.0368387
0.0368914
0.0368944
0.036168
0.0312031
0.0296222
0.0303324
0.0327057
0.0325847
0.030452
0.0295221
0.0289692
0.0286652
0.028392
0.0280878
0.02764
0.0272622
0.0270456
0.0269154
0.0268133
0.0266475
0.0263846
0.0260463
0.0256951
0.0253872
0.0251621
0.0250045
0.0249466
0.0249383
0.025062
0.0253645
0.0257984
0.0263617
0.0271039
0.0277963
0.0278574
0.0253914
0.0257502
0.0282495
0.0318519
0.0341571
0.0346317
0.0346776
0.0345317
0.0347107
0.034595
0.0348751
0.034801
0.0350206
0.0349778
0.0350715
0.0350196
0.0351228
0.0351192
0.0351028
0.0350438
0.0349041
0.0346791
0.0341106
0.0331345
0.0323574
0.032452
0.0335656
0.0342885
0.0342195
0.0337227
0.0292465
0.0307218
0.0317145
0.0322685
0.0326773
0.0330794
0.0335377
0.0341051
0.034818
0.0353784
0.0360659
0.036561
0.0370381
0.0371094
0.0376935
0.0375991
0.0379628
0.0379841
0.037875
0.0376104
0.037075
0.0372556
0.0399603
0.0434638
0.0457324
0.0464481
0.0466048
0.0464674
0.0455126
0.0448238
0.0268909
0.0269747
0.0275434
0.0285336
0.0294659
0.0302067
0.0307494
0.0311797
0.0314885
0.0316166
0.031753
0.0318413
0.0320224
0.0320556
0.0323388
0.0324818
0.0326913
0.0330281
0.0333615
0.0338616
0.0347486
0.0361041
0.0374718
0.03764
0.0374077
0.0372935
0.0371711
0.0370236
0.0369073
0.0368403
0.0335445
0.0346023
0.0363668
0.0380996
0.0393544
0.0402683
0.0406972
0.0411439
0.0410609
0.041479
0.0412618
0.0417576
0.0415795
0.0419369
0.0419043
0.0419727
0.0423198
0.0425477
0.0428547
0.0431015
0.0433696
0.0433941
0.0424964
0.0399315
0.039126
0.0396656
0.0399013
0.0396911
0.0393436
0.0392716
0.0269439
0.0350384
0.0424642
0.0408794
0.0367543
0.0340517
0.0328877
0.0327217
0.0330422
0.033633
0.0342274
0.0347518
0.0352027
0.0355272
0.0360483
0.036508
0.0371754
0.0374737
0.0377046
0.0376189
0.0372913
0.0366464
0.0361357
0.0354195
0.0346514
0.0341791
0.0339259
0.0354025
0.0330136
0.0197561
0.0168891
0.0168641
0.0171036
0.0173828
0.0181732
0.0216665
0.0457067
0.0563531
0.0541959
0.053846
0.0535656
0.0539099
0.0539736
0.0539555
0.053856
0.0535819
0.0531183
0.052382
0.0511457
0.0491004
0.04661
0.0440896
0.0429067
0.0433047
0.0424578
0.0397692
0.0338248
0.0252278
0.0187957
0.0176558
0.0275577
0.0264594
0.0260704
0.026018
0.0263454
0.0266596
0.0268754
0.0268677
0.0271538
0.0278825
0.0302815
0.0340998
0.0350372
0.028741
0.0225453
0.0231389
0.0233558
0.0238159
0.02448
0.0251251
0.0254904
0.0257027
0.0255763
0.0253812
0.0250633
0.0247892
0.0245764
0.0244286
0.0243209
0.0242386
0.0241643
0.0240901
0.0240172
0.0239363
0.0238528
0.0237751
0.0237096
0.0236641
0.0236354
0.0236312
0.0235637
0.0230248
0.022696
0.0222546
0.0300468
0.0303351
0.0302742
0.0300535
0.0296509
0.0299702
0.0314499
0.0322679
0.0313623
0.0290517
0.0270834
0.026382
0.0265581
0.0271151
0.0277297
0.0281944
0.0284674
0.0284666
0.0284501
0.0283493
0.0282884
0.0283344
0.0285466
0.0289102
0.0294431
0.0299782
0.030461
0.0306155
0.0295261
0.0273269
0.0307321
0.0290787
0.0280366
0.0281336
0.029502
0.0317141
0.0336398
0.0340697
0.0336039
0.0334604
0.0333281
0.0331718
0.0333274
0.0328222
0.0328989
0.0323308
0.0325666
0.032158
0.0323653
0.032083
0.0319972
0.0317265
0.0313362
0.0308422
0.0303109
0.0298132
0.0293813
0.0289733
0.0284826
0.0282346
0.0333958
0.0338133
0.0336135
0.0335878
0.0332641
0.0327443
0.0325219
0.0324021
0.0323288
0.0322425
0.0321222
0.0319956
0.0318774
0.0317686
0.0316427
0.0315081
0.0314073
0.0312964
0.0312084
0.031124
0.0311175
0.0311703
0.0312299
0.0312335
0.031125
0.0309913
0.0303129
0.0289118
0.0276872
0.0278513
0.0317837
0.0343829
0.0361865
0.036776
0.0369256
0.0370465
0.0372695
0.0374743
0.0376545
0.0378921
0.0380268
0.0381074
0.0380726
0.0378849
0.0374443
0.0369591
0.0365226
0.0362075
0.0360043
0.0359313
0.0359135
0.0359913
0.0361202
0.0363202
0.0365328
0.0367553
0.0369002
0.0366133
0.0340259
0.0315077
0.0314067
0.0329277
0.0313558
0.0295157
0.0293604
0.0301084
0.0302147
0.0292402
0.028319
0.0278207
0.0283124
0.0295117
0.0309309
0.0319025
0.0322446
0.0319394
0.0308432
0.0290763
0.0272719
0.0258647
0.0248649
0.0241913
0.0240248
0.0240958
0.0244509
0.0251399
0.0259855
0.0268854
0.027701
0.0279389
0.0301494
0.0321177
0.0346563
0.0351692
0.0349832
0.0349896
0.0353701
0.0358236
0.0361762
0.0363453
0.0363142
0.0362209
0.0361851
0.0360485
0.0360774
0.0361721
0.0363123
0.0364761
0.0365946
0.0366886
0.036698
0.03634
0.0356071
0.0345094
0.0332748
0.0325157
0.032571
0.0333314
0.0341951
0.0340464
0.0372831
0.0378919
0.037712
0.0372421
0.0365141
0.0356473
0.0347018
0.0338532
0.0330683
0.0324964
0.0320172
0.0317485
0.0316123
0.0316224
0.0321173
0.0324594
0.0333701
0.0343613
0.0355108
0.0364014
0.0366812
0.0368114
0.0379223
0.0398804
0.0412545
0.0419767
0.0433081
0.0448318
0.046036
0.0459933
0.0281247
0.0293751
0.0313345
0.0322235
0.0323252
0.0320947
0.0316536
0.031206
0.0307675
0.0304524
0.0301962
0.0299868
0.0299241
0.0299005
0.0299697
0.0301531
0.0304987
0.0310358
0.0317143
0.0325554
0.0336617
0.0350954
0.0367988
0.0376615
0.037533
0.0373224
0.0371207
0.0369504
0.0367603
0.0365698
0.0348949
0.0366743
0.0392812
0.040535
0.0405489
0.0400037
0.0391114
0.0382152
0.0376099
0.0370068
0.0369648
0.0369169
0.037319
0.0377735
0.0383662
0.0390684
0.0397983
0.0405962
0.0414281
0.0422138
0.0428919
0.0433131
0.0430719
0.0416004
0.0392748
0.0388475
0.03889
0.038614
0.0382328
0.0382185
0.0339258
0.0402171
0.0406244
0.0355381
0.0329767
0.0328476
0.0342936
0.0362871
0.0381547
0.0395218
0.0405322
0.0413447
0.0420374
0.0426987
0.0432103
0.0434854
0.043466
0.0431694
0.0428431
0.0424591
0.0424322
0.0423963
0.0421431
0.0414403
0.0395948
0.0372306
0.0351391
0.0352752
0.0346784
0.0262602
0.0167907
0.0186023
0.0230513
0.0267734
0.031892
0.0401829
0.0534217
0.0562796
0.0553848
0.0559245
0.056359
0.0566728
0.0566653
0.0566056
0.0565657
0.0566508
0.056861
0.0571157
0.0572297
0.056438
0.0538243
0.0476609
0.0410905
0.0388307
0.0420292
0.0440946
0.0423486
0.0336701
0.022422
0.0178109
0.0256046
0.0254604
0.026
0.02745
0.0290202
0.03014
0.0302036
0.0296215
0.0281592
0.0271375
0.0277847
0.0311424
0.0344946
0.0302837
0.0226564
0.0234804
0.0240404
0.0248723
0.0257962
0.0265923
0.0267842
0.0266664
0.0261183
0.0255449
0.0250098
0.0246914
0.0245626
0.0245225
0.0245261
0.0245556
0.0245975
0.0246299
0.0246148
0.0245554
0.0244591
0.0242998
0.0241039
0.0239154
0.0237627
0.0236773
0.0236274
0.0233532
0.0226309
0.0218309
0.0299159
0.0296854
0.0293296
0.0293784
0.0295196
0.0308921
0.0322901
0.031744
0.0285618
0.0260053
0.0244176
0.0241982
0.0248145
0.025955
0.0269635
0.0275342
0.027679
0.0276092
0.0274568
0.0273527
0.0271731
0.0271188
0.0270688
0.0272058
0.0275896
0.0282635
0.0291033
0.0299033
0.0299293
0.028481
0.0303599
0.02842
0.0278505
0.0290622
0.0317424
0.0341686
0.0347327
0.0338289
0.0319132
0.0314299
0.0313882
0.0314692
0.0311342
0.0309366
0.0302931
0.0302144
0.0297351
0.0299043
0.0298273
0.0300735
0.0303057
0.0305309
0.0306157
0.0305615
0.0302566
0.029859
0.0294775
0.0291554
0.0287701
0.0284567
0.0335211
0.0340907
0.0339584
0.0334484
0.0321954
0.0315731
0.0315165
0.0314345
0.0312463
0.0309988
0.030761
0.0305903
0.0304736
0.0303969
0.0303291
0.0302839
0.0302022
0.0301384
0.0300603
0.030045
0.0300542
0.0301719
0.0304139
0.0307144
0.0308899
0.0309159
0.0307739
0.0300642
0.0286867
0.0281379
0.0321966
0.0351522
0.0366476
0.0370796
0.0372602
0.0372506
0.03737
0.0374379
0.0379171
0.0384387
0.0388903
0.0390213
0.0387135
0.0379566
0.0366984
0.0357216
0.0351773
0.0348911
0.0348378
0.034898
0.0350292
0.0351898
0.035436
0.0357212
0.0360529
0.0364272
0.0368084
0.0368203
0.0356226
0.0328333
0.0320978
0.0322905
0.0305889
0.03069
0.0324868
0.0327725
0.0299001
0.0281335
0.0282966
0.0305369
0.0336465
0.0359509
0.0370756
0.0376532
0.037994
0.0382695
0.0382896
0.0375272
0.0351024
0.0317
0.0283855
0.0258998
0.0244774
0.0239951
0.0241551
0.0248501
0.0259351
0.0269648
0.0277707
0.0280082
0.0327076
0.035261
0.0360283
0.035414
0.0358334
0.0365689
0.0373384
0.037798
0.0378564
0.0374639
0.0367863
0.0361414
0.0356753
0.0352937
0.0353677
0.0354311
0.0356469
0.0359851
0.0364348
0.0369707
0.0373912
0.037618
0.0372317
0.0362729
0.0348744
0.0334354
0.0325407
0.0326237
0.0336537
0.0340776
0.0382692
0.0365706
0.0344891
0.0326881
0.0313009
0.0302792
0.0295338
0.0289598
0.0286252
0.0283934
0.0283729
0.0282549
0.0283323
0.0283417
0.028522
0.0288041
0.0293725
0.0303309
0.0318171
0.0336103
0.0351265
0.0359878
0.0366627
0.0376317
0.0384863
0.0387729
0.0394916
0.0414418
0.0442426
0.0457282
0.0290938
0.0324525
0.0327864
0.0317942
0.0308609
0.0302598
0.0298256
0.0296326
0.0293702
0.0293449
0.0291014
0.0290213
0.0288158
0.0287512
0.0285913
0.0284727
0.028554
0.02877
0.0293855
0.030425
0.0318346
0.0335943
0.0356268
0.0372689
0.0376936
0.037501
0.0373278
0.0372093
0.0368816
0.0364691
0.0356135
0.0397256
0.040881
0.03961
0.0376187
0.035668
0.0344026
0.032989
0.0326185
0.0317205
0.03182
0.0313588
0.0318698
0.0321033
0.0329796
0.034079
0.0352746
0.036749
0.0383366
0.0399764
0.0414925
0.0426825
0.0431668
0.0427497
0.0410238
0.0394411
0.038776
0.0383336
0.0380429
0.0379271
0.0386483
0.040178
0.0359396
0.0331343
0.0338748
0.0364821
0.0392078
0.0409182
0.0416978
0.0423052
0.0429428
0.0436152
0.0441969
0.0444924
0.0444685
0.0437685
0.0420769
0.039807
0.0379446
0.0365832
0.036601
0.0375981
0.0399611
0.0417878
0.0422006
0.0406529
0.0376007
0.0359853
0.0356641
0.0299742
0.0180423
0.0266457
0.0379128
0.0413225
0.0451787
0.0521777
0.0565885
0.0563844
0.0561723
0.0559695
0.055227
0.0542592
0.0537042
0.05326
0.0533361
0.0536705
0.054292
0.0551779
0.0563853
0.0577586
0.0584856
0.0558161
0.0469507
0.0366646
0.0347029
0.0390005
0.0424436
0.0375526
0.0249758
0.0180019
0.0252403
0.0258137
0.0280677
0.0310772
0.0324462
0.0327447
0.0326354
0.03223
0.0307506
0.0283829
0.0272053
0.0291656
0.0334881
0.0310542
0.0228689
0.0240156
0.0248946
0.0259838
0.0271323
0.0279507
0.0279764
0.0273859
0.026393
0.0254794
0.0249737
0.0247864
0.0247771
0.0248128
0.0249204
0.0250922
0.0252887
0.0254385
0.0254937
0.0254001
0.0252209
0.0249664
0.0246939
0.0243884
0.0240975
0.0238662
0.0237298
0.023535
0.0228276
0.0217581
0.0296642
0.0287088
0.02828
0.0287972
0.0299566
0.0318822
0.0327906
0.0309175
0.027694
0.0254757
0.0239089
0.0238381
0.0246556
0.0260379
0.0270159
0.0274007
0.027464
0.0274341
0.0275226
0.0274524
0.0274871
0.0272816
0.0271177
0.0268873
0.0268554
0.0270862
0.0278302
0.0288831
0.0296429
0.0288775
0.0300256
0.028081
0.0280759
0.0305018
0.0338556
0.0355037
0.0343684
0.0323231
0.030541
0.0303235
0.030568
0.030599
0.0300519
0.0297922
0.0291766
0.0291917
0.0289361
0.028911
0.028805
0.0288186
0.0289272
0.0290469
0.0292888
0.0295077
0.0295967
0.0295086
0.0293468
0.0291831
0.0289367
0.0286035
0.0336465
0.0343355
0.0339872
0.03225
0.0310313
0.0311627
0.0310388
0.0306438
0.0302203
0.0299087
0.0297208
0.0296671
0.0296862
0.0297078
0.0297493
0.0297424
0.0297397
0.0296735
0.0296439
0.0295574
0.0294867
0.0294722
0.0296335
0.0300212
0.0304204
0.0306657
0.0307503
0.0304631
0.0294194
0.0285014
0.0324955
0.0356346
0.0370448
0.03727
0.0371534
0.0367571
0.0363333
0.0362351
0.036691
0.0377062
0.038756
0.0391021
0.0383541
0.0366548
0.0350212
0.0342325
0.0340589
0.0343018
0.0346638
0.0349932
0.0352514
0.0354543
0.035604
0.0357433
0.0359313
0.0362308
0.0366681
0.0369189
0.0362404
0.0336349
0.0322499
0.0317896
0.0314218
0.0335344
0.0342894
0.0301337
0.028107
0.0287803
0.0320588
0.0356293
0.0372902
0.0375638
0.0372928
0.037005
0.0371319
0.0377305
0.0387904
0.039863
0.0398048
0.0379245
0.0339933
0.0296627
0.0263162
0.0246276
0.024363
0.0251138
0.0263243
0.0273173
0.0279605
0.0280796
0.0343131
0.0362777
0.0360232
0.0362428
0.0373789
0.0386309
0.0396754
0.0398521
0.0392266
0.0381186
0.0369758
0.0360367
0.0355868
0.0356529
0.0358858
0.036104
0.0362961
0.0365469
0.0367697
0.0371053
0.0376296
0.0381688
0.0383438
0.0378245
0.0365674
0.0348394
0.033155
0.0324458
0.0331172
0.0339545
0.0348383
0.0323046
0.0305207
0.0294314
0.0288008
0.0283896
0.0281514
0.0280598
0.0280925
0.0283219
0.028464
0.0285904
0.0286041
0.0284868
0.0283643
0.028273
0.028171
0.0283748
0.0291995
0.0308222
0.0328337
0.0344994
0.0355903
0.0363795
0.0369797
0.0371072
0.03757
0.039125
0.0428035
0.045282
0.0309375
0.0334229
0.0311677
0.0303291
0.0303832
0.0306268
0.0308107
0.0307749
0.0306167
0.0303296
0.0300278
0.0296922
0.0294176
0.0291461
0.0289344
0.0287244
0.0285805
0.0284946
0.0284648
0.0289091
0.0300493
0.0318697
0.0341407
0.0363291
0.0374884
0.0376542
0.0374633
0.0372216
0.0368416
0.0364486
0.0371134
0.0415267
0.03904
0.0363021
0.034189
0.0324997
0.0312692
0.030189
0.0294871
0.0289431
0.0286369
0.0286618
0.0287189
0.0289597
0.0293874
0.0301801
0.0312906
0.0327635
0.0346468
0.0368894
0.0391743
0.041173
0.0425762
0.0430122
0.0423889
0.0410782
0.039986
0.0392185
0.0384178
0.0378544
0.040835
0.0379223
0.0338502
0.0340651
0.0369775
0.0396204
0.0405796
0.0407123
0.0406764
0.0409556
0.0415938
0.0425506
0.0435314
0.0440673
0.0434883
0.0412661
0.0375952
0.0343742
0.0316857
0.0299907
0.0289433
0.0295644
0.0324855
0.0371395
0.0409797
0.0419585
0.0396379
0.0370836
0.0363939
0.0317612
0.0212541
0.0387993
0.0499441
0.0514014
0.0538322
0.0569767
0.056899
0.0561434
0.0551552
0.0535074
0.0516304
0.0503749
0.0495734
0.0497262
0.0501923
0.0509494
0.05171
0.0524944
0.0535392
0.0552044
0.0574452
0.0588599
0.0558194
0.0429056
0.0339816
0.0367026
0.0405744
0.0375796
0.0256432
0.0180895
0.0251872
0.0268093
0.0308388
0.0330662
0.0328429
0.0319113
0.0312208
0.0311898
0.030916
0.0292654
0.0273357
0.0282141
0.0325111
0.0313583
0.023153
0.024651
0.0257349
0.0270209
0.0283941
0.0292149
0.0290822
0.0281049
0.0265632
0.0254557
0.0250569
0.0250051
0.0249939
0.0250259
0.0252508
0.0256291
0.02609
0.0264313
0.0265494
0.0264048
0.0260402
0.0256063
0.0252025
0.0248539
0.0244926
0.0241395
0.023884
0.0236461
0.0229763
0.0217928
0.0293566
0.0279902
0.0276067
0.0286803
0.0305806
0.032704
0.0332566
0.0315073
0.029356
0.0267939
0.0241341
0.0239274
0.0249032
0.0263582
0.0271493
0.0274117
0.0275999
0.0277918
0.0280338
0.0283399
0.0284328
0.0283574
0.0280724
0.02754
0.0271072
0.0267969
0.0270594
0.0280137
0.0291929
0.0289993
0.0298128
0.0279613
0.0285894
0.0319499
0.035453
0.0364014
0.0342273
0.0317378
0.0300011
0.0300844
0.0303612
0.0301675
0.0296129
0.0293783
0.0292314
0.0291549
0.0290742
0.0289798
0.0288522
0.0287468
0.028631
0.0285964
0.0286113
0.0287082
0.0288238
0.0289374
0.0290355
0.0291082
0.0290243
0.0286936
0.0337377
0.034529
0.0334548
0.030887
0.0308582
0.0310148
0.030349
0.0296861
0.0293882
0.0293892
0.0295217
0.0296972
0.0298387
0.0299324
0.0299671
0.0299533
0.0298954
0.0298446
0.0297325
0.0295989
0.029401
0.0292136
0.0291759
0.0294687
0.0299495
0.030342
0.0305676
0.0304946
0.0297514
0.0287263
0.032779
0.0359581
0.0372456
0.0373199
0.0368527
0.0362106
0.0357262
0.035415
0.035315
0.0362387
0.0378867
0.0386835
0.0373625
0.0352942
0.0339504
0.0337636
0.0343962
0.0351541
0.0356729
0.0360364
0.0361843
0.036228
0.0362182
0.036156
0.0361318
0.0362395
0.0366011
0.0369599
0.0364376
0.0340293
0.0322217
0.0320127
0.0335085
0.0354804
0.0323143
0.0290788
0.0295229
0.0323385
0.0353877
0.0369815
0.0365704
0.035296
0.0344173
0.0342947
0.0345859
0.0350425
0.0359639
0.0377107
0.0395903
0.0399051
0.0377126
0.0332544
0.0285885
0.0256497
0.0249158
0.025616
0.0267604
0.0276411
0.0281706
0.0281485
0.0353449
0.0366613
0.0366462
0.0377163
0.0393358
0.0413252
0.0416628
0.0407166
0.0389565
0.0372364
0.0362489
0.0358501
0.0360092
0.03652
0.0369983
0.037546
0.0377634
0.0380053
0.0381036
0.0380949
0.0382643
0.0386552
0.0391159
0.0389994
0.0380068
0.0361914
0.0339498
0.0325384
0.0328837
0.0338638
0.0306752
0.0298858
0.029331
0.0289295
0.0286495
0.0285672
0.0287119
0.0290865
0.0295096
0.0298937
0.0299527
0.0299758
0.0297249
0.0296163
0.0292866
0.0289698
0.0286219
0.0282472
0.0282038
0.0290691
0.0307607
0.0327498
0.0343378
0.0353935
0.0359709
0.036153
0.0365397
0.0382548
0.0421039
0.044928
0.0323066
0.0318555
0.0306862
0.0318201
0.0325012
0.0325714
0.0321588
0.0316077
0.030889
0.030246
0.0296836
0.029239
0.0290105
0.0287828
0.0287088
0.0286876
0.028686
0.0285778
0.0284654
0.0284213
0.0289269
0.0303635
0.0326745
0.0351054
0.0369023
0.0375544
0.0375261
0.0372189
0.0367371
0.0363079
0.0392426
0.0406287
0.0365643
0.0343309
0.0325181
0.0308984
0.0295775
0.0284684
0.0276698
0.0270528
0.0267851
0.0266805
0.0268647
0.0270791
0.0274465
0.0279411
0.0287182
0.0298129
0.0315786
0.0338439
0.0365243
0.0391715
0.0412964
0.0425403
0.0427257
0.0421364
0.041218
0.0402077
0.0389318
0.0378818
0.0403377
0.0356383
0.0336582
0.0362258
0.0390411
0.0400162
0.0395907
0.0390349
0.038882
0.0391356
0.0398058
0.0409218
0.0422895
0.0432578
0.0425325
0.0392288
0.0350431
0.0322154
0.0301837
0.0279184
0.026592
0.0262183
0.0281959
0.0326809
0.0389485
0.0420836
0.0406728
0.0380039
0.0370443
0.0325515
0.0256888
0.0483634
0.0560292
0.0569094
0.0576742
0.057409
0.0565177
0.0549639
0.0526869
0.0499791
0.0477127
0.0462396
0.0459702
0.0461536
0.0474121
0.0490502
0.0505074
0.0514395
0.0520096
0.0530384
0.0552744
0.0581069
0.0589675
0.0506488
0.0361125
0.0356985
0.0387586
0.0363663
0.0252542
0.0180169
0.0252255
0.0282181
0.0325391
0.0329738
0.031265
0.0293826
0.0282341
0.028128
0.0288331
0.0285092
0.0271977
0.027739
0.0318407
0.031408
0.0234713
0.0252663
0.0264847
0.0279281
0.0293824
0.0300212
0.0298127
0.0286269
0.0266187
0.0254206
0.0252369
0.0251411
0.0250386
0.0251035
0.0255084
0.0261654
0.0268888
0.0273516
0.0274716
0.0272822
0.0267831
0.0261282
0.0255353
0.025131
0.0247933
0.0243899
0.0240457
0.0237273
0.0230401
0.021845
0.0291323
0.0277209
0.0274815
0.0288638
0.031154
0.033372
0.0340464
0.0331925
0.0318809
0.0286698
0.0248324
0.0241918
0.0252683
0.0266717
0.027278
0.0275454
0.027876
0.0284069
0.028796
0.0292267
0.0292889
0.0292393
0.0289553
0.0282498
0.0275625
0.0269323
0.0267347
0.0274369
0.0288023
0.0289803
0.0296586
0.0279668
0.029316
0.0333059
0.0366082
0.0371186
0.0342417
0.031135
0.0296995
0.0300835
0.0301413
0.0297555
0.0294347
0.0293655
0.0292088
0.0291285
0.0289163
0.0288541
0.0288059
0.0287627
0.0286331
0.02847
0.0283243
0.0282457
0.028252
0.0284047
0.0286755
0.0289639
0.0290215
0.028749
0.0338432
0.0344585
0.032262
0.030474
0.0310083
0.0303571
0.029392
0.0291324
0.0292507
0.0295797
0.0299042
0.0301724
0.0302721
0.0303554
0.0303323
0.0303236
0.0302636
0.0301662
0.030044
0.0298362
0.0295474
0.0292049
0.0289921
0.0291575
0.0296409
0.0300761
0.0303646
0.030413
0.0298637
0.0288377
0.0328716
0.0362024
0.0374668
0.0374388
0.0371919
0.0371089
0.0369506
0.0359237
0.0349806
0.0351233
0.0369074
0.0381447
0.0367284
0.034627
0.0338944
0.0345003
0.0355078
0.036171
0.0364637
0.036585
0.036613
0.0366053
0.0365436
0.0364657
0.036351
0.036327
0.0366232
0.0369894
0.0364548
0.0341164
0.0322219
0.0327785
0.035338
0.0356403
0.0316141
0.0306243
0.0325215
0.0348938
0.0368091
0.0367411
0.0346678
0.0331721
0.0333389
0.0340891
0.0345646
0.0348107
0.0351595
0.0363841
0.0385592
0.0399454
0.0389305
0.0350398
0.0299076
0.0263669
0.0254793
0.0260087
0.0269451
0.0278141
0.028323
0.0282016
0.0359949
0.0369919
0.0374407
0.0394324
0.0421508
0.0431078
0.0418036
0.0389835
0.0367094
0.0355002
0.0353104
0.0357553
0.0365899
0.0375295
0.0384343
0.0391485
0.0394878
0.0396732
0.0396154
0.039415
0.0392277
0.0393566
0.039783
0.0398574
0.0390856
0.0372067
0.0344508
0.0325443
0.0328314
0.0338319
0.0296677
0.0297433
0.0295074
0.0291639
0.0290014
0.0292359
0.0298129
0.0304479
0.0308004
0.0307669
0.0303262
0.0297271
0.0291844
0.0289879
0.0289402
0.0289783
0.0288494
0.028486
0.0280649
0.0282408
0.0294002
0.0312338
0.0330813
0.0344059
0.0351242
0.0354015
0.0359805
0.0377876
0.0421564
0.0446677
0.0324195
0.031068
0.0328575
0.0339313
0.0338327
0.0331718
0.0321448
0.0311394
0.030001
0.0292209
0.0287055
0.0284653
0.0284004
0.0283529
0.0282551
0.028201
0.0283385
0.0284685
0.0284851
0.0283816
0.0284805
0.0294373
0.0314374
0.0339173
0.0360903
0.0372328
0.0374061
0.0370072
0.0364882
0.0364116
0.0401467
0.0383501
0.035451
0.0334061
0.0314324
0.0297916
0.0283731
0.0273267
0.0263104
0.0258342
0.0253616
0.0252523
0.0253916
0.0256589
0.0261283
0.026613
0.0272775
0.0280874
0.0295116
0.0314529
0.0342175
0.037091
0.0396681
0.0415549
0.0423858
0.042301
0.0417174
0.0407347
0.0391322
0.0378859
0.0391872
0.0344294
0.034542
0.0379651
0.039562
0.0392227
0.0383034
0.0378697
0.0378417
0.0379942
0.0383927
0.0393085
0.040907
0.0425163
0.0422363
0.03852
0.0344924
0.032945
0.0316079
0.0290298
0.0263746
0.0258249
0.0271673
0.0318391
0.0389856
0.0424181
0.0410905
0.0386238
0.0377289
0.0327062
0.0301972
0.0532867
0.058676
0.0589317
0.0582929
0.0572816
0.0557145
0.0531784
0.0497256
0.0464564
0.0435308
0.0420315
0.0411573
0.0420563
0.0439335
0.0467564
0.0494253
0.0511786
0.051593
0.0517724
0.0534085
0.056986
0.0594375
0.0566364
0.040098
0.0338734
0.0361206
0.0333937
0.0235214
0.0177655
0.0253065
0.02921
0.0328253
0.0319576
0.0296938
0.0281949
0.0271708
0.0264781
0.0266705
0.026975
0.0266907
0.0274813
0.0314973
0.0313642
0.0238186
0.0258413
0.0271431
0.028663
0.0299402
0.0303025
0.0300487
0.02887
0.0265042
0.0254042
0.0253495
0.0252194
0.0250072
0.0251414
0.0256899
0.0265354
0.027336
0.0277523
0.0277586
0.0274734
0.0269261
0.0262031
0.0255719
0.0252341
0.0249785
0.0245947
0.0241747
0.0237629
0.0230113
0.0218858
0.0291101
0.0277964
0.0276613
0.0291665
0.0316018
0.0338101
0.0347836
0.0348037
0.0337581
0.0301817
0.0254338
0.0244739
0.0256244
0.0269232
0.0273501
0.0277211
0.0283335
0.0289826
0.0292791
0.0295027
0.0295672
0.0295832
0.0293962
0.0286053
0.0278618
0.0270606
0.0266258
0.0271395
0.0285802
0.0289437
0.0295281
0.028168
0.0301972
0.0345576
0.0374818
0.0376035
0.0338122
0.0303856
0.0296008
0.0301494
0.029908
0.029514
0.0294504
0.0292341
0.0288069
0.0284899
0.0282473
0.0281928
0.028259
0.0282699
0.0282543
0.0281627
0.0279932
0.0278784
0.0277991
0.0279836
0.0284072
0.028893
0.0290364
0.0287277
0.0338775
0.0340305
0.0311484
0.0306673
0.030587
0.0294464
0.0290463
0.0291515
0.0295153
0.029853
0.0301428
0.0303581
0.0304187
0.0304549
0.0304714
0.0305037
0.0304747
0.0304051
0.0302035
0.0299667
0.0295823
0.0292183
0.0289601
0.0290739
0.0295117
0.0299074
0.0302039
0.030302
0.0298566
0.0288622
0.0331125
0.0362965
0.0375555
0.0378294
0.0382604
0.0392089
0.0392969
0.0376433
0.0353669
0.0345124
0.0360268
0.037721
0.0365309
0.034547
0.0343391
0.0352926
0.0361484
0.0365304
0.036684
0.0367507
0.0367221
0.0366601
0.0366232
0.0365477
0.0364436
0.0364533
0.0367715
0.0369631
0.0362164
0.0340646
0.0323979
0.0341166
0.0368552
0.0356877
0.0330453
0.0336961
0.0354862
0.0371297
0.0378609
0.0358234
0.0327309
0.0322844
0.0335608
0.0346031
0.0348656
0.0349626
0.0353368
0.0363784
0.0383962
0.0397584
0.0387079
0.0347598
0.0297609
0.0265326
0.0258315
0.0261379
0.026939
0.0279437
0.0284653
0.0282134
0.0364188
0.0374257
0.0389605
0.0422337
0.0437013
0.0429923
0.0399761
0.0365638
0.0350812
0.0346041
0.0350784
0.0360166
0.0373332
0.038844
0.0401779
0.0411259
0.0414268
0.0414226
0.0410983
0.0406536
0.0401825
0.0400619
0.0403507
0.0405344
0.0398207
0.0377161
0.0343217
0.0323483
0.0329783
0.0338331
0.0299851
0.030044
0.0295522
0.02923
0.0292918
0.0299223
0.0307025
0.0312493
0.0311781
0.0304718
0.0292996
0.0280711
0.0274123
0.0271003
0.0274217
0.0280049
0.0283844
0.0283612
0.0280155
0.0279071
0.0286613
0.0302292
0.0320759
0.0335402
0.0343731
0.0348904
0.0357135
0.0386774
0.0425724
0.0440404
0.0320244
0.0324596
0.0347482
0.0349506
0.0343336
0.0331855
0.0316963
0.0303667
0.0290365
0.0284683
0.0282572
0.028411
0.0285897
0.0286807
0.0285475
0.0282981
0.0282114
0.0283626
0.0285004
0.0284313
0.0283825
0.0289774
0.0306116
0.0330438
0.0353218
0.0367795
0.0371165
0.0367164
0.036149
0.036809
0.040145
0.0371969
0.0349545
0.0327782
0.0309268
0.0293364
0.0279105
0.0267265
0.0256618
0.0250051
0.0244897
0.0243236
0.0244327
0.0246926
0.0252297
0.0257286
0.0264623
0.0270926
0.0282993
0.0298858
0.0324852
0.035286
0.0381455
0.0403568
0.0416963
0.0419648
0.0415585
0.0406727
0.0389406
0.037813
0.0380839
0.0339938
0.0358061
0.038786
0.0393685
0.0383392
0.0376245
0.0374449
0.0374075
0.0375138
0.0377125
0.0381454
0.0394004
0.0415255
0.0422909
0.0386446
0.0350829
0.0344433
0.0341392
0.0318534
0.0290732
0.0274619
0.0302022
0.035419
0.0410176
0.0427701
0.0411132
0.0391272
0.0377616
0.032105
0.0334652
0.05619
0.0596526
0.0594575
0.0583569
0.0568734
0.0545956
0.0512408
0.0470749
0.0431045
0.0400586
0.0378342
0.0374041
0.0382822
0.0408049
0.0443222
0.0482439
0.0510615
0.0517653
0.051161
0.0518786
0.0558901
0.0597144
0.0594695
0.0451558
0.0323937
0.0322483
0.0295621
0.0213054
0.0171382
0.0253137
0.0294775
0.0326669
0.0313474
0.0293737
0.0283621
0.027521
0.0266329
0.0260029
0.0259598
0.0262364
0.0275151
0.0316589
0.0311656
0.0241271
0.0264512
0.027739
0.0291701
0.0300496
0.0299274
0.0299066
0.0290257
0.0263953
0.0253241
0.0254558
0.0252675
0.0249515
0.0250785
0.0256851
0.026544
0.0272616
0.0275769
0.0273748
0.026881
0.026264
0.0257623
0.025392
0.0252437
0.0250993
0.0247376
0.0242519
0.0237582
0.0229451
0.0219485
0.0290805
0.0282462
0.0281862
0.0294076
0.031632
0.0337927
0.0351524
0.035296
0.0345045
0.0310563
0.0258568
0.0246745
0.0259542
0.0271111
0.0273465
0.0279585
0.0287995
0.0292243
0.0292366
0.0291758
0.0293446
0.0295553
0.0294324
0.0286233
0.0278425
0.0269739
0.0265461
0.0270589
0.0284664
0.0288883
0.0296549
0.0283969
0.0309392
0.0355495
0.038068
0.0374568
0.0328952
0.0295789
0.0296894
0.030194
0.0296436
0.0294402
0.0293682
0.0288007
0.0280887
0.0276347
0.0273857
0.0272889
0.0273406
0.0275616
0.0276469
0.0276398
0.0275956
0.027497
0.0274615
0.0277657
0.0283706
0.0289663
0.0290194
0.0287172
0.0338497
0.0331525
0.0307396
0.0308717
0.0297925
0.0290607
0.0290319
0.0293432
0.0296043
0.0298346
0.0300312
0.0301709
0.0302757
0.0302572
0.030312
0.0303679
0.0303927
0.0303055
0.0300758
0.0297874
0.0294788
0.0291527
0.0289876
0.0291508
0.029514
0.0298398
0.0301074
0.0301789
0.0297211
0.0287711
0.0330663
0.0364309
0.0378049
0.0383621
0.0394448
0.040598
0.0407643
0.0391307
0.0359832
0.0341066
0.0353873
0.0375869
0.0366264
0.0347249
0.0346974
0.0356164
0.0363072
0.0366428
0.0368336
0.0368271
0.0367182
0.0366391
0.0365675
0.0365279
0.0365314
0.0366798
0.0369607
0.0368242
0.0357656
0.0339308
0.0325688
0.035205
0.038051
0.0368473
0.0359168
0.0370533
0.0381777
0.0388712
0.0382105
0.034319
0.0313926
0.0320676
0.0339286
0.0345794
0.0344326
0.0346737
0.0356613
0.0370939
0.0385211
0.0387515
0.0367296
0.0327433
0.0286532
0.0263815
0.0259646
0.0262305
0.0271435
0.0282224
0.0285024
0.0281144
0.0367544
0.0380336
0.0410942
0.043586
0.0439854
0.0419609
0.0384605
0.0355968
0.0343
0.0342558
0.0349441
0.0361696
0.0380007
0.0398862
0.0412276
0.0420566
0.042351
0.0420505
0.0417075
0.0411892
0.0407334
0.040629
0.0410461
0.041143
0.0401649
0.0370798
0.0334279
0.0323127
0.0332582
0.0336752
0.0302807
0.030021
0.0294844
0.0293825
0.0296965
0.0304438
0.0311907
0.0315748
0.0311042
0.0299588
0.0284026
0.0271559
0.026222
0.0259746
0.0262058
0.0270078
0.0277364
0.0279526
0.0277574
0.0276568
0.0283496
0.0297248
0.0315221
0.032947
0.0338519
0.0345205
0.0362924
0.0404348
0.0412982
0.0406834
0.0323049
0.0345418
0.035891
0.035726
0.0347433
0.0331716
0.0313653
0.0297757
0.0285847
0.028182
0.0283453
0.0287751
0.029091
0.0291796
0.0290498
0.0285663
0.0283552
0.0284677
0.0286204
0.0285254
0.0283663
0.0287738
0.0302867
0.0325728
0.0348132
0.0363462
0.0366989
0.036036
0.0367883
0.0386251
0.039718
0.0366221
0.0347859
0.0328753
0.0311427
0.0295813
0.0280911
0.0267986
0.025629
0.0248099
0.0242673
0.0240943
0.0241131
0.0242661
0.0248338
0.0252886
0.0259928
0.0265018
0.0276445
0.0289738
0.0314827
0.0340959
0.037062
0.0393188
0.0408817
0.0413734
0.0410357
0.0401599
0.0383948
0.0376744
0.0374507
0.0341134
0.0367223
0.039144
0.0388604
0.037728
0.0371499
0.0367747
0.0366262
0.0370754
0.037604
0.0377521
0.0381836
0.0402368
0.0422987