/*--------------------------------*- C++ -*----------------------------------*\
| =========                 |                                                 |
| \\      /  F ield         | OpenFOAM: The Open Source CFD Toolbox           |
|  \\    /   O peration     | Version:  2.1.1                                 |
|   \\  /    A nd           | Web:      www.OpenFOAM.org                      |
|    \\/     M anipulation  |                                                 |
\*---------------------------------------------------------------------------*/
FoamFile
{
    version     2.0;
    format      ascii;
    class       volScalarField;
    location    "0.005050000";
    object      G;
}
// * * * * * * * * * * * * * * * * * * * * * * * * * * * * * * * * * * * * * //

dimensions      [0 0 0 0 0 0 0];

internalField   nonuniform List<scalar> 
12384
(
1
1
1
1
1
1
1
1
1
1
1
1
1
1
1
1
0.999969
0.999594
0.998711
0.998206
0.998101
0.998465
0.998498
0.998486
0.997834
0.99653
0.993716
0.989116
0.982517
0.972008
0.962564
0.954801
0.944323
0.952223
0.946701
0.959141
0.965336
0.972242
0.984229
0.994496
0.999814
1
1
1
0.999999
0.999978
0.999896
0.999751
0.999794
0.99971
0.999695
0.999552
0.999537
0.999343
0.999311
0.999018
0.999031
0.99835
0.997784
0.9949
0.993994
0.990187
0.98403
0.993784
0.993725
0.995792
0.999635
0.99983
0.999956
0.999998
1
1
1
1
1
1
0.999943
0.998586
0.997603
0.996909
0.998737
0.9992
0.999615
0.999715
0.999834
0.999679
0.998506
0.998894
0.970274
0.964709
0.918689
0.697977
0.556427
0.521168
0.477723
0.463134
0.469647
0.495237
0.562134
0.604276
0.748952
0.946757
0.999995
1
0.999999
0.999992
0.999972
0.999938
0.999883
0.999719
0.999478
0.998623
0.997184
0.992608
0.984627
0.967626
0.950928
0.919376
0.914995
0.899848
0.905177
0.909416
0.928273
0.916707
0.95681
0.957387
0.983161
0.988839
0.997047
0.999574
0.999998
1
1
1
1
1
1
1
1
1
1
1
1
0.999999
0.999999
0.999998
0.999995
0.99998
0.99994
0.999792
0.999497
0.99864
0.997616
0.996177
0.995426
0.996418
0.997786
0.998912
0.999519
0.999834
0.999977
0.999999
1
1
1
1
1
0.999989
0.999641
0.998729
0.994471
0.995401
0.992836
0.993751
0.992378
0.990569
0.986464
0.978386
0.963393
0.94283
0.913466
0.882232
0.828792
0.769837
0.760063
0.760025
0.762547
0.774191
0.801562
0.841744
0.890962
0.945871
0.997829
0.999999
1
1
1
0.999999
0.999998
0.999993
0.999977
0.999944
0.999847
0.999299
0.998635
0.995521
0.993817
0.986628
0.987848
0.987295
0.992634
0.99389
0.996038
0.996913
0.998701
0.999375
0.999832
0.999948
0.999981
0.999994
0.999999
1
1
1
1
1
0.999995
0.999817
0.998326
0.994403
0.988182
0.968677
0.966265
0.920398
0.937693
0.884738
0.926496
0.910823
0.969083
0.968601
0.991311
0.9947
0.997541
0.999009
0.999537
0.999846
0.999952
0.999983
0.99999
0.999999
1
1
1
1
1
1
0.999999
0.999993
0.999962
0.999814
0.999141
0.996486
0.990386
0.974976
0.951028
0.928864
0.900355
0.894328
0.908841
0.917952
0.912789
0.916611
0.92632
0.943043
0.968337
0.979886
0.983411
0.996039
0.99977
0.999947
0.999972
0.99998
0.999986
0.999969
1
1
0.999999
0.999996
0.999979
0.999855
0.998171
0.992929
0.981262
0.875971
0.896093
0.586638
0.719901
0.599032
0.612049
0.621583
0.775637
0.768134
0.865272
0.916342
0.929868
0.949562
0.970754
0.982072
0.992893
0.998961
0.999867
0.999979
0.999989
0.999971
1
0.999997
0.999998
0.999958
0.998892
0.991863
0.984552
0.978644
0.983793
0.989977
0.991774
0.995536
0.997171
0.997622
0.998
0.997591
0.997117
0.995794
0.993889
0.991805
0.991108
0.991036
0.989668
0.989439
0.986215
0.988761
0.995578
0.999954
1
1
1
1
1
1
1
1
1
1
0.999997
0.999945
0.999842
0.999403
0.99911
0.998023
0.99734
0.997807
0.998804
0.999588
0.999922
0.999993
1
1
1
1
1
1
1
1
1
1
1
1
1
1
1
1
1
1
1
1
1
1
1
1
1
0.999998
0.999801
0.998952
0.998646
0.999163
0.999756
0.999906
0.999886
0.999677
0.998421
0.992541
0.97436
0.939086
0.892286
0.823283
0.760749
0.688344
0.609048
0.542156
0.500393
0.44238
0.423926
0.377584
0.36759
0.370558
0.474275
0.822276
0.998341
1
1
1
0.999997
0.999977
0.999722
0.997969
0.995442
0.993361
0.989756
0.98507
0.976034
0.960921
0.929462
0.861441
0.772006
0.61815
0.522264
0.369145
0.310074
0.356922
0.234628
0.389328
0.522654
0.582986
0.779544
0.918666
0.978371
0.998757
0.999995
1
1
0.998834
0.922566
0.707351
0.755118
0.874652
0.967465
0.984689
0.995444
0.997249
0.998061
0.997462
0.988039
0.914969
0.774149
0.398507
0.139584
0.0925743
0.0159267
0.0191679
0.00920626
0.0113306
0.00997003
0.0226149
0.0304345
0.0590524
0.0912985
0.198272
0.664985
0.998776
0.999999
0.999885
0.999804
0.999673
0.998902
0.99602
0.981358
0.939267
0.825393
0.653614
0.448262
0.285652
0.166141
0.107795
0.0679812
0.0550743
0.0524795
0.0521773
0.0615388
0.0943741
0.125764
0.218768
0.349599
0.496669
0.701062
0.885741
0.97944
0.999182
1
1
1
0.999999
0.999945
0.999419
0.997502
0.994391
0.991384
0.990004
0.993182
0.99443
0.997667
0.998122
0.998367
0.996235
0.988677
0.958597
0.893732
0.785066
0.674253
0.580375
0.510363
0.512645
0.521258
0.596028
0.685127
0.780488
0.886523
0.973114
0.99779
0.999996
1
0.999997
0.998372
0.965006
0.887458
0.973499
0.986333
0.992223
0.987998
0.981772
0.96643
0.941142
0.902926
0.832827
0.723919
0.56653
0.365171
0.155324
0.0513745
0.0146662
0.00409591
0.001342
0.00194276
0.00349707
0.00760796
0.0199355
0.0534446
0.144794
0.519884
0.998295
1
1
1
0.999999
0.999997
0.999968
0.999327
0.988733
0.935565
0.789189
0.617908
0.463498
0.311875
0.236052
0.155772
0.133083
0.104584
0.115422
0.125451
0.17326
0.252966
0.400081
0.58519
0.776157
0.915092
0.981335
0.998168
0.999937
1
1
0.999997
0.999712
0.996993
0.975533
0.892757
0.697418
0.497491
0.254033
0.143353
0.0596545
0.0305614
0.0129747
0.0101546
0.0106704
0.0211015
0.0286931
0.095914
0.192571
0.34177
0.521341
0.722721
0.896104
0.977306
0.996782
0.999182
0.999797
0.999924
0.999984
0.999996
1
0.999999
1
0.999989
0.998788
0.963123
0.751625
0.408211
0.171799
0.0560287
0.0216452
0.00660887
0.00265028
0.00149431
0.000761119
0.000915964
0.000881936
0.00162731
0.00349533
0.0101152
0.0354623
0.111153
0.295165
0.530264
0.791659
0.971392
0.99682
0.998409
0.998589
0.997012
0.999058
0.999998
1
0.999997
0.999479
0.981176
0.851001
0.554246
0.222576
0.0858205
0.0102511
0.00342422
0.000615259
0.0004413
0.000379831
0.000425709
0.000582545
0.000928026
0.0033276
0.0182953
0.0542459
0.133179
0.340341
0.592594
0.815725
0.942786
0.98363
0.997686
0.999615
0.999461
0.999778
0.999708
0.999997
0.999929
0.985271
0.852081
0.749211
0.771905
0.878151
0.918673
0.951264
0.977164
0.989835
0.995679
0.997693
0.996521
0.989242
0.959781
0.893872
0.79297
0.683406
0.595009
0.586221
0.565873
0.589916
0.592531
0.576954
0.615576
0.843635
0.981673
0.999318
1
0.999927
0.999943
0.99916
0.999233
0.996339
0.987443
0.888034
0.717613
0.549243
0.443534
0.370055
0.337832
0.361046
0.417926
0.531049
0.670041
0.804697
0.916031
0.978807
0.997777
0.99997
1
1
1
1
1
1
1
1
1
1
1
1
1
1
1
1
1
1
1
1
1
1
1
0.999874
0.998705
0.998353
0.999428
0.999907
0.999974
0.999952
0.999779
0.998564
0.993567
0.983739
0.977701
0.973788
0.971047
0.96232
0.95254
0.932315
0.918096
0.88285
0.86415
0.817993
0.774008
0.699119
0.596801
0.462716
0.38793
0.531721
0.917199
0.999997
0.999998
0.999999
0.999992
0.999885
0.99882
0.995863
0.994616
0.991737
0.981391
0.961446
0.89375
0.785611
0.691986
0.619896
0.563231
0.522245
0.449333
0.393261
0.402432
0.39597
0.313064
0.516789
0.474389
0.588235
0.732824
0.826617
0.92289
0.986884
0.999571
1
1
0.980976
0.795689
0.716679
0.909864
0.974685
0.992662
0.994843
0.996405
0.994854
0.990594
0.958179
0.863273
0.481792
0.27812
0.142081
0.0115093
0.0243783
0.00334185
0.00327439
0.00305043
0.00373144
0.00571595
0.0134054
0.0297476
0.0469794
0.0717089
0.0980543
0.311162
0.962904
0.999998
0.999834
0.999826
0.999138
0.991563
0.947306
0.855133
0.701177
0.548991
0.399997
0.282499
0.187852
0.125024
0.0820217
0.0596064
0.0470682
0.0312874
0.0319753
0.0328064
0.0520533
0.08416
0.15065
0.287344
0.397158
0.577651
0.738867
0.908554
0.985231
0.99953
1
1
0.999962
0.999623
0.998135
0.994714
0.988272
0.983961
0.977361
0.98066
0.977723
0.982762
0.977185
0.97033
0.942873
0.897794
0.819669
0.745773
0.646016
0.581752
0.526496
0.525433
0.522004
0.57296
0.608592
0.684786
0.753738
0.81648
0.91349
0.984691
0.999959
1
0.999605
0.965741
0.962418
0.993226
0.998891
0.991925
0.982954
0.980892
0.991266
0.993319
0.986046
0.960697
0.917693
0.866612
0.820358
0.784321
0.739853
0.623462
0.367768
0.123285
0.0272744
0.00539121
0.00563174
0.010935
0.0253243
0.058519
0.118782
0.27998
0.991726
0.999998
1
0.999999
0.999997
0.999979
0.999566
0.993294
0.949616
0.866281
0.713016
0.605307
0.440892
0.359083
0.236956
0.193394
0.140515
0.141845
0.120198
0.136058
0.169095
0.219503
0.324373
0.466476
0.644313
0.811822
0.93322
0.986855
0.999118
0.999987
1
0.999925
0.993908
0.977094
0.907791
0.741259
0.526347
0.336516
0.163701
0.0863795
0.0490178
0.0213111
0.0114447
0.00935819
0.006245
0.0132219
0.0159532
0.0426643
0.0989117
0.201303
0.344783
0.501386
0.678843
0.842217
0.957635
0.991919
0.99905
0.999797
0.999963
0.999983
0.999999
0.999965
0.999981
0.999038
0.954846
0.703095
0.352948
0.141068
0.0523228
0.0151789
0.00553283
0.00182444
0.000917313
0.000472977
0.000301646
0.000204045
0.000164427
0.000175516
0.000229446
0.00052214
0.00344059
0.0201233
0.0912234
0.253386
0.453977
0.768422
0.938841
0.984267
0.996326
0.994374
0.996559
0.999995
0.999998
0.999883
0.988618
0.862127
0.540968
0.26395
0.0488851
0.0160546
0.000990503
0.000528409
0.000241663
0.000191686
0.000160973
0.00020907
0.000322624
0.000553279
0.0011668
0.00543986
0.0154548
0.0581997
0.143336
0.288455
0.543726
0.772434
0.921085
0.987732
0.998454
0.998582
0.999121
0.999809
0.999878
0.980409
0.772794
0.698365
0.782137
0.862192
0.875184
0.881654
0.906814
0.920589
0.940377
0.962498
0.971493
0.971484
0.950086
0.913761
0.839942
0.758217
0.66609
0.603121
0.623752
0.69534
0.738018
0.759921
0.756846
0.696402
0.760352
0.932687
0.99807
0.999998
0.999994
1
0.999984
0.997824
0.968975
0.87356
0.688567
0.561184
0.45512
0.400153
0.350825
0.366887
0.39076
0.437558
0.501026
0.598439
0.701592
0.80809
0.911565
0.977071
0.998429
1
1
1
1
1
1
1
1
1
1
1
1
1
1
1
1
1
1
1
1
1
1
0.999993
0.997817
0.9963
0.998592
0.999888
0.999986
0.999985
0.999881
0.99864
0.989633
0.972096
0.972743
0.984258
0.990502
0.992589
0.993034
0.993001
0.990881
0.989802
0.982987
0.975733
0.963022
0.946874
0.912046
0.836155
0.678232
0.468826
0.415208
0.720966
0.9999
0.999989
0.999981
0.999864
0.998712
0.994723
0.992816
0.99419
0.992927
0.981951
0.928072
0.720292
0.59671
0.481925
0.491089
0.45984
0.506677
0.453446
0.490615
0.494854
0.450892
0.532181
0.614083
0.587255
0.723861
0.759534
0.802742
0.889492
0.960453
0.996209
1
0.999999
0.908971
0.719677
0.849048
0.974255
0.994375
0.996595
0.995821
0.992168
0.978645
0.933767
0.697871
0.54413
0.23036
0.0753746
0.0428568
0.0202885
0.00605088
0.00297987
0.00266874
0.00272409
0.00308882
0.00411427
0.0107852
0.021967
0.0410611
0.0629491
0.0773474
0.163797
0.90763
0.999995
0.99939
0.9997
0.996172
0.939802
0.821857
0.664074
0.530364
0.433967
0.392239
0.359057
0.333087
0.297666
0.24656
0.171379
0.113603
0.0940869
0.0506983
0.0509993
0.051379
0.0918441
0.136914
0.246419
0.372659
0.52823
0.666259
0.835651
0.952626
0.995144
0.999988
1
0.999492
0.998425
0.995927
0.991647
0.986905
0.977803
0.974745
0.963913
0.960359
0.948199
0.923326
0.854597
0.760828
0.672527
0.642677
0.646461
0.72177
0.763142
0.808934
0.792532
0.806737
0.801881
0.81096
0.80284
0.809634
0.815047
0.864608
0.956333
0.999884
0.999996
0.989953
0.956244
0.995467
0.998765
0.986458
0.952566
0.96632
0.992804
0.994362
0.979196
0.921347
0.830873
0.744822
0.695128
0.684664
0.702949
0.741428
0.784064
0.780125
0.630114
0.315288
0.0786264
0.0166138
0.027715
0.0594528
0.10582
0.139789
0.203758
0.98297
0.999993
0.999998
0.999996
0.999982
0.999777
0.99538
0.965431
0.875511
0.796898
0.697541
0.56721
0.513352
0.390665
0.322874
0.234631
0.210155
0.141991
0.153575
0.150924
0.213189
0.259215
0.334381
0.448766
0.615393
0.765843
0.899176
0.972901
0.996694
0.999888
0.999999
0.999892
0.960206
0.879362
0.74256
0.593368
0.429849
0.339012
0.203385
0.139432
0.116442
0.0508049
0.0551999
0.0271594
0.0200078
0.0277742
0.031975
0.0493959
0.0824965
0.144126
0.242612
0.370143
0.514508
0.680478
0.850822
0.957742
0.994314
0.999234
0.999878
0.999955
0.999996
0.999874
0.99978
0.963692
0.704499
0.398931
0.22198
0.115066
0.0492246
0.021932
0.0113115
0.0057441
0.00284969
0.00155608
0.000910037
0.000610116
0.000456894
0.000400893
0.000395715
0.000418497
0.000576941
0.00474816
0.0276109
0.104773
0.29626
0.524279
0.764704
0.943764
0.989975
0.992303
0.995975
0.999993
0.999989
0.996207
0.88467
0.539289
0.199765
0.063779
0.00963138
0.00218705
0.000557035
0.000270694
0.000165845
0.000111219
9.6896e-05
0.000107364
0.00016738
0.000329916
0.000714293
0.00157174
0.00901569
0.034271
0.0650172
0.15988
0.323223
0.518505
0.751861
0.917852
0.981984
0.994361
0.997877
0.999821
0.986914
0.754409
0.617536
0.727318
0.802392
0.790451
0.786546
0.790795
0.767102
0.777857
0.81407
0.831842
0.857579
0.847132
0.797715
0.700023
0.634999
0.512561
0.484079
0.429004
0.45644
0.62365
0.802017
0.858162
0.85807
0.80151
0.745595
0.87843
0.998245
0.999985
1
1
0.999545
0.979039
0.878263
0.732104
0.585503
0.517027
0.455302
0.441975
0.46138
0.453897
0.491712
0.535375
0.571723
0.598224
0.649836
0.71675
0.799267
0.912086
0.987459
0.999908
1
1
1
1
1
1
1
1
1
1
1
1
1
1
1
1
1
1
1
1
1
0.999906
0.99035
0.994437
0.999294
0.999978
0.999997
0.99999
0.999833
0.996713
0.976163
0.952728
0.976813
0.990433
0.994487
0.996641
0.997841
0.998981
0.999274
0.999433
0.998927
0.99804
0.99471
0.988952
0.977207
0.946002
0.835126
0.587618
0.382805
0.538169
0.999458
0.999959
0.999753
0.998803
0.994344
0.989907
0.991446
0.996444
0.996835
0.989746
0.887784
0.593268
0.443724
0.393909
0.419666
0.432563
0.508232
0.498213
0.592822
0.527212
0.638394
0.67063
0.718171
0.78458
0.835984
0.828714
0.85936
0.881175
0.930492
0.985442
0.999999
0.999992
0.766706
0.701786
0.921842
0.991754
0.997772
0.998322
0.994877
0.982079
0.912157
0.793072
0.40063
0.33019
0.152713
0.0856449
0.0331919
0.0575788
0.00800274
0.0162797
0.00742182
0.00695916
0.00685358
0.0081425
0.0178445
0.0207998
0.0466658
0.0577385
0.0607817
0.103941
0.848593
0.999969
0.997656
0.999057
0.965673
0.832067
0.670307
0.542827
0.488635
0.518418
0.570328
0.630439
0.675083
0.691727
0.677644
0.628303
0.544925
0.379194
0.313471
0.167261
0.14942
0.126898
0.185301
0.27965
0.388077
0.528037
0.642721
0.796151
0.916385
0.986038
0.999925
0.999997
0.996704
0.995254
0.992728
0.990953
0.988238
0.986452
0.974023
0.958996
0.935383
0.910301
0.833538
0.6846
0.538825
0.508465
0.618084
0.804499
0.898846
0.945728
0.96265
0.978824
0.97779
0.973997
0.964002
0.941358
0.888386
0.837292
0.834679
0.914986
0.99982
0.999979
0.952978
0.983226
0.998478
0.992114
0.956668
0.962539
0.990071
0.991699
0.96925
0.853168
0.648959
0.500448
0.47046
0.496243
0.54699
0.609164
0.688522
0.781287
0.834403
0.860703
0.722462
0.337128
0.0731059
0.0687475
0.134892
0.179518
0.160549
0.174423
0.977566
0.999985
0.999993
0.999981
0.999882
0.998114
0.970419
0.893478
0.783353
0.772987
0.688086
0.667911
0.625633
0.534646
0.456883
0.425798
0.353269
0.348075
0.289064
0.270374
0.285387
0.333477
0.424046
0.491665
0.630349
0.769622
0.892562
0.966626
0.994043
0.999587
0.999998
0.999674
0.872091
0.74532
0.625318
0.531231
0.507043
0.452561
0.465741
0.372597
0.417664
0.243629
0.221699
0.160952
0.113452
0.105162
0.115118
0.112502
0.138413
0.163394
0.214031
0.297715
0.423361
0.574618
0.759763
0.916664
0.986308
0.99827
0.999811
0.999887
0.99999
0.999824
0.995409
0.796846
0.53179
0.352482
0.215199
0.104969
0.0524592
0.0308805
0.0179194
0.0102341
0.00613382
0.00398453
0.00271045
0.00200498
0.0015721
0.00134547
0.00111625
0.000933018
0.000798211
0.00159026
0.00839576
0.0692068
0.196517
0.339406
0.658163
0.850632
0.962204
0.98647
0.996337
0.999995
0.999869
0.958933
0.626777
0.249791
0.0613117
0.0194808
0.0041408
0.00206185
0.000524225
0.000343342
0.000230735
0.00017561
0.000139784
0.000144784
0.000175395
0.000288683
0.000540479
0.00131207
0.00374164
0.014887
0.0471713
0.114715
0.18817
0.346727
0.565348
0.769683
0.929519
0.983117
0.996586
0.998778
0.822837
0.49609
0.61525
0.729118
0.73548
0.718515
0.698491
0.649086
0.633494
0.633761
0.60647
0.62436
0.647844
0.645297
0.545742
0.460687
0.413608
0.461835
0.47105
0.590439
0.633765
0.654539
0.827091
0.912939
0.900139
0.826015
0.733041
0.831255
0.998935
0.999973
1
0.999979
0.995095
0.924414
0.78787
0.631156
0.569399
0.517032
0.568887
0.573615
0.588252
0.654423
0.666944
0.68081
0.688357
0.671512
0.64197
0.644066
0.704134
0.827019
0.950711
0.998238
1
1
1
1
1
1
1
1
1
1
1
1
1
1
1
1
1
1
1
1
1
0.9995
0.974325
0.993735
0.999613
0.999993
0.999998
0.999992
0.999828
0.993667
0.957064
0.939817
0.976801
0.990701
0.994406
0.997155
0.999059
0.999873
0.999977
0.999994
0.999989
0.999959
0.999663
0.99817
0.9937
0.978904
0.913609
0.671525
0.364639
0.402855
0.998694
0.999813
0.998582
0.996046
0.989549
0.987899
0.993945
0.998331
0.999519
0.995083
0.849098
0.516789
0.401614
0.343431
0.409346
0.432332
0.553879
0.551879
0.632211
0.626764
0.772739
0.794896
0.86887
0.913555
0.905858
0.915839
0.911093
0.882452
0.904158
0.96764
0.999999
0.999981
0.654096
0.706478
0.965213
0.997317
0.999413
0.99926
0.993531
0.956567
0.803494
0.602202
0.232394
0.290638
0.106537
0.177429
0.0471812
0.15388
0.0476152
0.0828724
0.0611745
0.047421
0.0589186
0.0374045
0.0384717
0.0459389
0.0549877
0.0515792
0.057693
0.0665478
0.839308
0.999817
0.986973
0.991175
0.930964
0.80564
0.617398
0.487124
0.531879
0.648756
0.752521
0.822159
0.880324
0.91484
0.939645
0.947404
0.931765
0.883777
0.742284
0.619405
0.398392
0.321721
0.32005
0.366733
0.454653
0.563589
0.660577
0.776457
0.892905
0.972378
0.999826
0.999976
0.983598
0.985366
0.988184
0.992851
0.996716
0.995311
0.987321
0.957488
0.919668
0.863515
0.74764
0.532184
0.420605
0.505158
0.755525
0.906842
0.961485
0.97817
0.990798
0.996796
0.999583
0.999454
0.996161
0.983554
0.933239
0.842211
0.808318
0.87703
0.999861
0.999855
0.917648
0.991267
0.996751
0.98648
0.974331
0.987916
0.990132
0.975335
0.868383
0.561281
0.322705
0.328701
0.466154
0.602577
0.685273
0.734155
0.804253
0.8557
0.913679
0.910917
0.877283
0.547335
0.155282
0.124744
0.222251
0.254824
0.165844
0.146252
0.980083
0.999968
0.999955
0.999903
0.99921
0.984571
0.89725
0.803188
0.747021
0.74734
0.749679
0.716944
0.761283
0.707308
0.76248
0.7443
0.761484
0.663319
0.63516
0.553178
0.462112
0.454606
0.562218
0.573282
0.672074
0.795144
0.900028
0.966892
0.992123
0.9991
0.999998
0.999119
0.78371
0.657541
0.568921
0.569653
0.613126
0.684277
0.690226
0.672234
0.693527
0.506613
0.455836
0.369134
0.285811
0.239297
0.305205
0.275555
0.247599
0.259938
0.251659
0.290606
0.390186
0.534314
0.727294
0.898949
0.981558
0.998324
0.999726
0.999734
0.99998
0.999655
0.953854
0.715038
0.484805
0.278928
0.1483
0.0629098
0.0376862
0.0227811
0.0156968
0.0122427
0.0114041
0.0119371
0.0119929
0.0107902
0.00833679
0.00621668
0.00437616
0.00287827
0.00173767
0.00120627
0.0120833
0.0508762
0.136775
0.383268
0.594661
0.802952
0.964912
0.990623
0.996682
0.999996
0.998304
0.856598
0.368187
0.0919986
0.0202344
0.00694515
0.0045379
0.00169945
0.00133855
0.000741142
0.00081024
0.000730957
0.000583691
0.000521767
0.000476046
0.000584073
0.000774656
0.00149816
0.00293451
0.0143248
0.0407032
0.0825743
0.146792
0.274062
0.427821
0.644471
0.854979
0.963657
0.995148
0.993213
0.495582
0.417791
0.617622
0.682342
0.684565
0.683273
0.643321
0.630874
0.602019
0.497782
0.470657
0.476491
0.498377
0.463295
0.385629
0.302887
0.374682
0.462444
0.579367
0.752071
0.933029
0.908009
0.927838
0.954048
0.925869
0.821999
0.722723
0.822741
0.999762
0.999977
1
0.999773
0.981165
0.877011
0.712546
0.609601
0.574487
0.614919
0.677163
0.728564
0.816059
0.834527
0.863133
0.842783
0.797551
0.750105
0.680013
0.62089
0.632346
0.727383
0.894532
0.992847
1
1
1
1
1
1
1
1
1
1
1
1
1
1
1
1
1
1
1
1
1
0.998281
0.955717
0.993713
0.999791
0.999997
0.999999
0.999995
0.999922
0.99473
0.964023
0.951073
0.980176
0.989185
0.992689
0.996788
0.999422
0.999976
0.999999
1
1
1
0.999986
0.999664
0.997713
0.989374
0.941089
0.695533
0.32641
0.311742
0.998368
0.999516
0.994621
0.993068
0.988022
0.990862
0.996094
0.999445
0.999838
0.995045
0.861966
0.510979
0.383365
0.369178
0.415498
0.486631
0.614265
0.591495
0.675271
0.744198
0.880238
0.942805
0.982053
0.980196
0.967022
0.964653
0.932133
0.888865
0.881267
0.944926
0.999999
0.999906
0.544529
0.775171
0.980221
0.999396
0.999892
0.99964
0.991631
0.92147
0.704511
0.425388
0.204868
0.277808
0.0901055
0.254496
0.073516
0.3026
0.110355
0.34967
0.26542
0.24805
0.272199
0.120306
0.124248
0.0585157
0.0569361
0.0539677
0.0454536
0.0536619
0.85431
0.999355
0.972952
0.977251
0.865762
0.714936
0.570232
0.551812
0.610476
0.686713
0.769059
0.840022
0.917219
0.958778
0.983566
0.992624
0.996763
0.996721
0.989117
0.919961
0.815826
0.579113
0.569412
0.471731
0.562998
0.61361
0.692015
0.781326
0.879803
0.960726
0.999741
0.999935
0.957343
0.974262
0.986127
0.997417
0.999521
0.999627
0.996145
0.972169
0.903002
0.850572
0.672088
0.463234
0.385634
0.597249
0.814573
0.920088
0.945666
0.975894
0.992418
0.999627
0.999995
0.999998
0.999582
0.990539
0.942196
0.829536
0.781296
0.857549
0.999939
0.999534
0.913153
0.990156
0.995269
0.992562
0.993944
0.994377
0.98866
0.948997
0.710895
0.285906
0.207837
0.332192
0.574304
0.725073
0.839064
0.901612
0.929588
0.949465
0.95837
0.942189
0.900174
0.552765
0.168974
0.166033
0.317088
0.322843
0.171112
0.150153
0.985813
0.999933
0.999728
0.999528
0.993011
0.930046
0.790877
0.742183
0.680578
0.725371
0.719448
0.767702
0.754222
0.818742
0.851794
0.944267
0.976147
0.985958
0.937601
0.845187
0.699257
0.605248
0.671538
0.66911
0.724403
0.820627
0.914438
0.969349
0.990377
0.998628
0.999998
0.997729
0.734349
0.575625
0.523686
0.556917
0.647387
0.727565
0.750811
0.701001
0.723675
0.588826
0.529409
0.603065
0.664842
0.629803
0.603098
0.563117
0.394275
0.374815
0.336237
0.328124
0.408119
0.553201
0.741453
0.907832
0.987052
0.998693
0.999615
0.999194
0.999971
0.998774
0.893537
0.622536
0.351601
0.168579
0.0884736
0.0289051
0.0179231
0.0108374
0.0198622
0.0216817
0.0429693
0.0554167
0.0965664
0.114138
0.104419
0.0548477
0.0232038
0.0101138
0.00440724
0.00569111
0.0131952
0.0457708
0.191738
0.386423
0.598877
0.866555
0.972372
0.990181
0.998567
0.999993
0.987024
0.674387
0.18653
0.0338927
0.00704934
0.00270271
0.00227701
0.000707638
0.00340051
0.00191348
0.00409647
0.00764231
0.00746089
0.00529838
0.00300464
0.00238532
0.00192695
0.00263412
0.00399853
0.0130213
0.0309196
0.0966901
0.150519
0.237992
0.377867
0.582886
0.786769
0.947569
0.994693
0.963098
0.198504
0.344214
0.5707
0.636981
0.679179
0.698817
0.746617
0.740519
0.6341
0.526962
0.407044
0.352223
0.365315
0.372784
0.28455
0.263828
0.348987
0.505445
0.618828
0.804646
0.967665
0.981416
0.97553
0.950061
0.904638
0.805152
0.71962
0.816269
0.999978
0.999993
0.999997
0.998921
0.965354
0.837073
0.684219
0.610012
0.647423
0.705475
0.789161
0.896554
0.934855
0.975542
0.976774
0.960332
0.898344
0.806657
0.720589
0.644934
0.586853
0.63955
0.85252
0.983019
0.999985
1
1
1
1
1
1
1
1
1
1
1
1
1
1
1
1
1
1
1
1
0.995491
0.941537
0.994726
0.999858
0.999998
0.999996
0.999996
0.999973
0.995552
0.961337
0.948586
0.977344
0.986958
0.989449
0.995135
0.999262
0.999979
1
1
1
1
0.999998
0.99988
0.998825
0.992331
0.945155
0.667018
0.277763
0.264672
0.997846
0.998369
0.985889
0.991178
0.991064
0.993264
0.997885
0.999643
0.999786
0.993126
0.882571
0.536
0.449054
0.40774
0.456544
0.608253
0.650619
0.64896
0.752661
0.794931
0.958502
0.995934
0.999683
0.998287
0.993449
0.976954
0.932239
0.884483
0.861781
0.932469
1
0.999935
0.526117
0.835252
0.992304
0.999815
0.999993
0.999819
0.988514
0.899152
0.631605
0.322506
0.215992
0.24878
0.101759
0.227388
0.0764645
0.262666
0.143689
0.386952
0.406487
0.437231
0.364546
0.184171
0.139027
0.0517372
0.0540757
0.0398771
0.0317121
0.0572614
0.8826
0.9961
0.896831
0.935336
0.885893
0.67677
0.536463
0.534945
0.562311
0.62517
0.696033
0.801742
0.874462
0.945319
0.979307
0.996445
0.999135
0.999547
0.999104
0.988471
0.938041
0.741757
0.732814
0.556764
0.670382
0.643844
0.737993
0.800307
0.884921
0.949907
0.999723
0.999536
0.900539
0.944247
0.982822
0.998577
0.99997
0.999988
0.999513
0.980622
0.921967
0.844129
0.679271
0.432462
0.395044
0.599017
0.828713
0.880422
0.927936
0.953673
0.984351
0.998037
0.999919
0.999901
0.998012
0.970781
0.912184
0.79124
0.764017
0.861045
0.999975
0.998958
0.874061
0.989664
0.997686
0.998694
0.998764
0.997119
0.986783
0.913528
0.535574
0.141718
0.172358
0.408908
0.643384
0.811599
0.952701
0.990625
0.994932
0.984555
0.979783
0.928332
0.831825
0.356711
0.135085
0.209054
0.399013
0.275657
0.139652
0.188722
0.987904
0.999834
0.998783
0.997654
0.971223
0.843813
0.699709
0.648608
0.631151
0.66128
0.679137
0.726555
0.704834
0.767931
0.816616
0.902428
0.984345
0.998196
0.977603
0.92274
0.829739
0.668509
0.703685
0.730099
0.755736
0.841532
0.923686
0.966972
0.989115
0.998673
0.999998
0.993769
0.677474
0.47127
0.415883
0.466651
0.545126
0.614178
0.633519
0.589359
0.537297
0.499036
0.414466
0.584642
0.695134
0.873799
0.829952
0.760451
0.559739
0.431332
0.390532
0.394122
0.447879
0.591123
0.779904
0.937286
0.991104
0.99902
0.998894
0.998329
0.999925
0.995363
0.799833
0.468542
0.225664
0.106779
0.0413606
0.0125863
0.0113583
0.0100058
0.0171356
0.027784
0.0585765
0.075956
0.142891
0.358205
0.57642
0.341957
0.0990874
0.0285766
0.00947163
0.0103027
0.0191625
0.104396
0.230449
0.40919
0.702304
0.904034
0.978359
0.994482
0.999106
0.999962
0.938375
0.473341
0.0930088
0.0134493
0.00265207
0.00071742
0.00058307
0.000260265
0.00158126
0.0011255
0.00782885
0.0324895
0.0952654
0.0660149
0.0233492
0.0101503
0.00517481
0.0052411
0.00636327
0.0135093
0.0355542
0.124274
0.165133
0.263856
0.386524
0.545058
0.748577
0.938093
0.995329
0.924469
0.12959
0.341926
0.552191
0.633224
0.674194
0.781717
0.861052
0.853004
0.76829
0.598936
0.421704
0.325114
0.346029
0.369742
0.287597
0.231491
0.353364
0.532595
0.694724
0.819381
0.944053
0.956579
0.949735
0.907965
0.837223
0.764879
0.754163
0.866096
1
0.999962
0.999987
0.99773
0.953306
0.819459
0.675858
0.679155
0.684799
0.810245
0.878392
0.969111
0.991515
0.999593
0.999358
0.989705
0.937307
0.831497
0.736855
0.629369
0.578688
0.611966
0.811296
0.974331
0.999904
1
1
1
1
1
1
1
1
1
1
1
1
1
1
1
1
1
1
1
1
1
1
0.874635
0.882513
0.988216
0.999693
0.999981
0.999987
0.999999
0.999996
0.998518
0.983249
0.970403
0.981756
0.98627
0.986688
0.991083
0.997997
0.999872
0.999998
1
1
1
0.999995
0.999878
0.998893
0.991663
0.926184
0.579053
0.235508
0.274995
0.82251
0.999376
0.992511
0.860772
0.951416
0.98714
0.992559
0.99446
0.997551
0.999341
0.999332
0.992009
0.884638
0.633562
0.531262
0.489661
0.597315
0.675076
0.726771
0.766996
0.74523
0.83303
0.979592
0.998354
0.999842
0.998648
0.993206
0.964937
0.916442
0.860733
0.847321
0.950515
0.999874
1
0.999969
0.877492
0.554728
0.874695
0.996246
0.999978
0.999999
0.999872
0.987146
0.885972
0.61376
0.279947
0.278369
0.156116
0.0919342
0.130693
0.0376542
0.0820367
0.0539315
0.093348
0.122753
0.117966
0.109193
0.0742612
0.0578789
0.0309137
0.0386378
0.024571
0.0309492
0.110108
0.547061
0.968376
0.787097
0.403168
0.648034
0.836579
0.743625
0.59629
0.486385
0.411891
0.405359
0.414053
0.474865
0.548004
0.674008
0.777042
0.878705
0.92885
0.97104
0.980183
0.974758
0.937463
0.869877
0.704516
0.704936
0.58597
0.69746
0.682941
0.777318
0.826884
0.898459
0.946528
0.966923
0.998973
0.998848
0.799472
0.852056
0.935739
0.984852
0.999347
0.999997
1
0.999929
0.991297
0.934499
0.877191
0.715993
0.476985
0.40672
0.6231
0.777154
0.830001
0.851443
0.898439
0.927916
0.974914
0.989183
0.985592
0.972173
0.898888
0.818956
0.754869
0.770524
0.88414
0.99292
0.999616
0.990223
0.724965
0.864205
0.987762
0.99897
0.99981
0.999714
0.998264
0.985577
0.89257
0.408183
0.108225
0.166399
0.4239
0.587105
0.744032
0.910933
0.979105
0.99249
0.974072
0.948496
0.790462
0.510214
0.159457
0.112365
0.278533
0.281181
0.192547
0.130786
0.265263
0.871669
0.998922
0.994915
0.909911
0.976791
0.97716
0.905056
0.730637
0.597298
0.566115
0.520655
0.602637
0.57192
0.634467
0.570709
0.618578
0.564026
0.666777
0.727578
0.830514
0.794191
0.792095
0.741904
0.656352
0.691378
0.720848
0.77716
0.85769
0.923499
0.959841
0.988906
0.99691
0.995181
0.993756
0.989171
0.841382
0.561338
0.343111
0.271784
0.273723
0.353433
0.394451
0.414447
0.384372
0.314985
0.282512
0.217517
0.235475
0.292065
0.418809
0.535947
0.54559
0.47793
0.420188
0.396758
0.438951
0.511289
0.645987
0.836515
0.955237
0.991845
0.994031
0.988595
0.938151
0.831606
0.906338
0.808413
0.287522
0.284769
0.212008
0.129573
0.0563083
0.0184163
0.00770465
0.00632236
0.00364511
0.0105223
0.012377
0.0197679
0.0184457
0.0509785
0.122784
0.230385
0.198645
0.0890134
0.0309042
0.0146774
0.0173897
0.0674935
0.146814
0.273831
0.534841
0.772315
0.930502
0.987017
0.997024
0.986213
0.996836
0.985897
0.786382
0.65899
0.28006
0.0480611
0.00683373
0.000916064
0.000169922
0.00011883
0.000102897
0.000168305
0.000259611
0.00100221
0.00465317
0.025142
0.041969
0.0252644
0.0130211
0.00719621
0.00772606
0.00942604
0.0203883
0.0599586
0.149311
0.226316
0.317787
0.407005
0.548473
0.748351
0.93841
0.989296
0.996853
0.95213
0.155415
0.0563987
0.277805
0.489656
0.57111
0.766746
0.915305
0.97732
0.969464
0.894051
0.73233
0.523344
0.364216
0.353278
0.432494
0.358369
0.252035
0.328975
0.506982
0.643036
0.743341
0.810526
0.852602
0.82692
0.808372
0.754108
0.762241
0.818204
0.878023
0.958845
0.872412
0.8137
0.99526
0.999939
0.996657
0.94981
0.825775
0.72679
0.712465
0.743818
0.876683
0.935629
0.990571
0.999408
0.999999
0.999952
0.99371
0.952596
0.83035
0.725242
0.64356
0.562466
0.586276
0.811671
0.975914
0.999824
1
1
1
0.999988
0.999826
1
1
1
1
1
1
1
1
1
1
1
1
1
1
1
1
1
1
0.999965
0.856395
0.830067
0.984561
0.999498
0.999969
0.999996
1
0.999999
0.999734
0.99086
0.977989
0.983474
0.988013
0.984948
0.984938
0.992199
0.998251
0.999823
0.999975
0.999993
0.999983
0.999933
0.999596
0.997959
0.983807
0.869368
0.454609
0.212673
0.318883
0.709775
0.94325
0.927353
0.915117
0.97272
0.983177
0.980926