/*--------------------------------*- C++ -*----------------------------------*\
| =========                 |                                                 |
| \\      /  F ield         | OpenFOAM: The Open Source CFD Toolbox           |
|  \\    /   O peration     | Version:  2.1.1                                 |
|   \\  /    A nd           | Web:      www.OpenFOAM.org                      |
|    \\/     M anipulation  |                                                 |
\*---------------------------------------------------------------------------*/
FoamFile
{
    version     2.0;
    format      ascii;
    class       volScalarField;
    location    "0.005050000";
    object      k;
}
// * * * * * * * * * * * * * * * * * * * * * * * * * * * * * * * * * * * * * //

dimensions      [0 2 -2 0 0 0 0];

internalField   nonuniform List<scalar> 
12384
(
33.3509
219.076
322.909
419.307
485.645
522.738
491.193
411.897
324.203
243.238
165.959
92.5037
35.4612
8.67217
201.538
463.5
698.243
870.468
1011.36
1122.25
1203.32
1271.66
1345.49
1449.13
1599.61
1811.36
2081.22
2399.84
2735.05
3071.79
3343.49
3520.19
3542.97
3376.64
3172.64
2933.91
2680.04
2359.9
1900.75
1273.87
619.785
219.86
92.6055
51.2176
735.09
1051.46
1248.77
1415.19
1558.6
1732.97
1930.27
2111.86
2253.16
2284.04
2273.67
2267.05
2359.26
2614.14
3050.04
3617.3
4276.21
4944.66
5509.16
5878.56
5860.8
5613.23
5228.68
4773.89
4086.91
3148.82
1970.66
840.655
229.326
79.9285
620.003
1141.27
1645.54
2156.41
2632.88
3090.89
3644.37
3996.57
4398.91
4417.99
4402.54
4381.77
4498.53
4789.1
5321.3
5924.85
6791.34
7483.83
8376.17
8968.61
9460.56
9531.26
9189.3
8466.1
7591.46
6442.88
4754.93
2410.99
606.928
266.765
1178.23
1919.76
2465.1
2853.49
3163.82
3470.66
3815.16
4314.96
4984.34
5897.76
6946.06
8110.01
9186.27
10143.2
10721.6
11120.8
10827.4
10695
10285.6
10068.2
9783.01
9290.82
8453.41
7266.98
5709.98
3771.46
1455.66
359.158
247.068
300.524
237.459
515.506
814.51
1062.94
1258.8
1460.38
1723.87
2018.53
2157.34
2241.27
2320.42
2501.04
2851.28
3401.11
4086.3
4944.33
5935.78
7042.15
8153.95
9023.66
9762.67
9334.55
8741.65
7738.29
6838.94
5762.09
4373.77
2784.5
1323.1
697.771
249.714
393.207
578.984
748.447
900.172
1047.29
1203.12
1332.34
1428.51
1513.43
1622.05
1806.16
2073.83
2394.27
2672.02
2810.3
2792.22
2634.81
2506.42
2425.81
2370.84
2344.07
2326.43
2308.61
2261.7
2161.94
1985.48
1677.94
1160.19
532.686
230.251
312.384
665.679
1263.26
1838.55
2269.12
2613.84
3004.64
3569.88
4358.41
5286.49
6376.32
7216.83
7975.79
8038.08
7309.24
6577.3
5958.89
5471.81
4991.32
4427.96
3795.48
3137.55
2565.5
2129.42
1827.86
1604.42
1394.12
1099.11
771.014
253.341
323.995
689.825
1272.91
1958.33
2728.04
3596.14
4524.23
5534.41
6410.05
7297.75
7653.48
7859.64
7580.79
7262.34
7046.41
6674.16
6298.14
5781.71
5133.19
4344.55
3530.83
2767.61
2212.25
1749.22
1313.88
896.007
533.096
272.85
142.248
487.212
612.763
1078.7
1576.58
2096.12
2742.26
3572.85
4630.8
5855.72
7125.61
8473.99
9566.07
10227.3
10826.5
9956.34
9641.34
9404.96
9260.79
8996.98
8516.3
7728.46
6656.1
5359.56
4116.02
3205.97
2638.72
2238.82
1878.65
1699.86
1846.55
513.388
869.941
1369.16
1860.37
2527.16
3568.41
4925.74
6622.84
8178.98
9738.35
10589.8
11207.4
10867.6
10801.2
10536.7
10334.8
10130.3
9974.8
9800.06
9494.87
8994.48
8275.37
7287.85
5935.47
4465.17
3073.23
2218.33
1792.49
1704.1
2018.22
169.648
453.431
1122.01
1702.71
2102.58
2329.4
2413.16
2402.48
2367.57
2328.92
2245.34
2122.73
2016.48
1994.2
2088.63
2310
2630.16
3060.34
3469.08
3931.91
4050.76
4133.96
4024.53
3957.48
3731.15
3285.56
2473.03
1310.74
303.621
17.0126
4.0925
12.7866
28.4562
31.6108
49.0894
122.64
413.052
1181.34
2135.35
3016.67
3708.58
4314.59
4906.09
5702.45
6265.34
6144.17
5397.28
4358.13
3144.25
2005.16
1000.06
292.405
29.8095
4.53361
1.77189
1.01837
0.648742
0.469389
0.30723
0.185179
128.788
403.096
565.657
771.43
1009.98
1259.47
1468.43
1601.93
1613.7
1499.56
1244.88
877.473
480.919
146.102
228.862
309.095
438.443
580.339
702.17
773.647
796.266
820.205
871.778
992.816
1216.94
1595.99
2158.15
2919.4
3860.16
4956.37
6111.79
7222.02
8148.6
8824.17
9133.67
9012.79
8544.64
7775.17
6733.4
5366.51
3682.04
1900.47
606.744
185.523
694.701
398.411
452.59
630.116
990.317
1498.68
1921.79
2057.1
1928.68
1672.04
1587.2
1762.52
2278.89
3211.71
4707.73
6850.33
9643.46
12966.5
16467.9
19724.4
22005.1
23083.3
22514.9
20580.3
17437.2
13527.9
9278.73
5352.61
2347.17
663.691
819.668
1950.26
3704.41
5739.59
7488.81
8704.13
9111.13
8523.88
7577.79
6553.3
5767.26
5504.53
5975.74
7276.3
9528.07
12379.4
15761.4
19125.9
21947.4
23840.4
24369.7
23689.1
21843.3
19188.7
16122.8
12890.7
9591.42
6330.24
3420.96
1624.56
1209.71
1751.89
1998.06
2113.19
2244.23
2614.27
3384.61
4817.02
7004.8
10050.1
13883.9
18298.7
22994.4
27565.6
31516.5
34460.6
36149.4
36377.9
35393.6
33503.5
30713.7
27165.8
23029
18387
13430.7
8696.61
4834.44
2314.54
838.888
628.386
574.677
1699.24
3302.45
4964.41
6262.42
7005.7
7029.02
6554.76
5732.73
4802.12
3997.37
3479.96
3356.98
3692.29
4562.42
6023.16
8152.2
10913.3
14158.9
17582.9
20658.4
23163.2
24471.1
24272.2
22951.7
20429.9
16432.9
10721.8
4703.32
1933.43
439.006
583.845
933.842
1197.3
1331.33
1352.56
1329.9
1329.16
1419.02
1752.11
2534.83
4096.41
6622.26
9921.08
13514.8
16612
18563.3
19125.8
18513.3
17156
15501.1
13777.7
12073.6
10474.7
9024.37
7685.26
6350.68
4857.97
3141.79
1781.14
862.476
758.357
964.1
1116.77
1301.24
1748.01
2878.02
5204.3
8954.34
14041.8
20131.4
26887.4
33828.7
40257.1
45878.7
49585.2
50721.6
49345.8
45692.7
40138
33298
25951.2
18802.8
12591.9
7875.55
4723.45
2815.56
1738.44
1131.78
1422.2
1043.57
1383.28
2235.75
3942.69
6775.16
10858.8
16026.1
22011.4
28565
35399.9
42253.9
48551.3
53577.4
56310.5
55926.6
52934.3
47101
39723.3
31632.8
23488.3
15668.6
9439.03
5359.71
3192.22
2182.6
1678.96
1330.64
1043.47
809.066
738.807
1339.33
743.272
1004.14
1869.96
3612.03
6416.23
10209.2
14883.3
20241.2
26190.4
32343.2
38503.8
44043.1
48474.6
51142
51287.6
49143
45427.9
40357.8
34208.8
27107.6
19341.6
12224.8
7048.7
3990.43
2558.37
1719.91
1367.56
1559.95
2340.53
1320.18
810.441
1266.6
2769.84
5877.31
10753.4
17159.3
24982
33809.2
43329.3
52709.8
60812
66603.8
69162.9
68586.7
64864.2
58660.7
50954.5
42532.2
34073.9
25688.7
17801.1
11421.5
7098.45
4421.6
2983.9
2122.76
1607.33
1868.06
2741.1
869.792
547.053
1027.64
1788.35
2675.82
3501.52
4052.61
4241.75
4156.36
3839.22
3312.83
2712.81
2251.86
2029.99
2243.43
2994.69
4312.08
6216.17
8619.99
11126.5
13283.1
14558.8
14549.2
13580.2
11864.9
9708.12
7188.66
4553.66
2267.11
663.768
30.8267
99.9795
222.029
388.026
770.911
2127.18
5698.67
11622.2
18477.7
24833.9
29582.1
32600.2
33466.1
32053.6
28677.1
24037.9
18878.7
13910
9570.54
6078.55
3385.14
1405.22
185.243
16.827
5.62039
3.20185
1.98109
1.16464
0.644199
0.319557
262.419
597.766
748.574
906.3
1063.54
1219.03
1361.12
1470.15
1527.1
1522.09
1425.9
1188.36
807.549
292.436
345.889
419.729
582.153
755.377
891.249
969.82
1021.49
1108.19
1250.98
1464.02
1740.33
2133.29
2664.85
3323.43
4110.58
4996.67
5936.95
6831.97
7594.64
8143.74
8395.59
8356.86
8066.1
7643.68
7109.85
6335.27
5093.86
3318.2
1473.27
429.578
796.57
409.031
490.371
746.97
1210.36
1701.4
1915.69
1812.19
1603.6
1576.35
2006.67
2801.81
3863.08
5224.49
7012.63
9253.23
11883
14824
17789.6
20501.5
22381.8
23165.6
22615
20980.4
18514
15450.6
11864.8
7975.36
4266.71
1566.73
1040.15
2764.88
4601
6326.98
7402.2
7884.5
7797.15
7468.97
7189.65
7137.05
7515.99
8426.23
9926.71
11924.3
14313.1
16900.5
19516.1
22179.6
24307.3
25780.8
26071.5
25312
23443.3
20890.3
18026.2
15118.3
12094
8893.07
5524.84
3337.22
1244.87
1801.99
1813.08
2000.69
2573.02
3744.72
5600.6
8188.96
11300.7
14706.7
18307.8
21987.9
25618.5
28960.3
31779.8
33702.1
34733.5
34773.3
33880.3
32110.2
29716.3
26861.8
23736.7
20269.7
16365.7
12055.4
7838.89
4330.21
2011.6
1206.71
919.57
2714.73
4366.58
5800.22
6822.21
7454.28
7651.84
7495.22
7063.19
6482.74
5934.41
5582.17
5545.95
5815.73
6385.16
7291.25
8624.49
10439.7
12660.9
15111.1
17405.9
19380.9
20567.7
21011
20828.8
20366
18873
14798.7
8207.43
3337.11
628.852
952.94
1340.41
1547.59
1625.03
1663.13
1725.51
1861.11
2145.3
2900.69
4652.28
7766.69
11788.9
15913.8
19612.3
22339.9
23553.6
23089.9
21155.1
18393.8
15500.5
12856.3
10616.7
8806.83
7444.42
6500.21
5829.87
5128.87
3978.45
2359.42
1618.44
1047.45
1209.49
1363
1727.7
2777.03
5031.46
8489.77
12602.3
17108.2
21841.9
26842.4
32070.8
37147.1
41937.7
45642.4
47761.9
47774.5
45803.1
42033.8
36750
30537.2
23858.1
17313
11602.9
7253.73
4300.26
2491.27
1509.6
1776.14
1919.37
2932.59
4264.09
6433.04
9341.82
12887.5
16874.1
21315.6
26131.8
31373
36788
42250.4
46893
50156.3
51232
49783.9
46386.1
41509.2
35904.5
29718.2
22813
15832.7
9934.9
5887.77
3444.06
2222.45
1606.52
1245.35
999.347
1003.07
1763.99
1016.61
1577.48
2953.68
5051.48
7676.15
10703.9
14194.2
18176.9
22695.7
27535.9
32473.6
37076.7
40865.3
43557.2
44952.9
44671.9
43040.8
40568.8
37280.2
33021.5
27035.5
19721.2
12720.8
7450.12
4139.73
2271.83
1404.32
1577.31
2702.58
1723.14
1188.11
2262.07
5152.99
9654.55
15086.9
21051.6
27590.3
34657.6
42090.5
49524.6
56230
61892.9
64847.9
65130.5
62686
58261.5
52330.5
45867
39368.7
32692.7
25524.3
18346.4
12236.2
7770.07
4796.47
2914.83
1923.97
1973.56
3338.12
1351.87
1003.16
1912.08
3226.65
4691.39
6051.12
7037.76
7530.56
7582.39
7175.73
6436.66
5516.33
4665.91
4072.3
4007.77
4586.11
5478.83
6493.08
7677.38
8958.55
10240
11104.6
11338.8
10868
9974
8822.2
7389.08
5529.41
3374.76
1289.34
84.0253
206.87
414.663
930.055
2564.96
6422.13
12563.8
19552
25857.5
30536.6
33631.2
35228.3
35355.5
33773.3
30610.8
26510.6
22079.4
17637.2
13393.8
9485.59
6001.33
3090.89
751.006
52.8314
10.647
4.51775
2.48449
1.45382
0.836236
0.425499
395.819
785.219
915.057
1024.13
1082.09
1108.44
1144.85
1212.99
1310.22
1416.11
1498.59
1460.56
1200.16
455.975
513.438
627.938
831.62
1006.12
1087.29
1118.45
1201.35
1423.86
1745.1
2077.91
2422.94
2834.95
3354.04
3891.38
4460.06
5009.89
5579.28
6114.3
6605.56
6987.51
7196.92
7229.5
7116.49
6960.57
6826.09
6596.45
5939.45
4502.06
2479.16
733.468
923.936
502.505
675.173
1090.03
1619.45
1963.26
1877.15
1553.45
1385.39
1764.38
2790.36
4164.45
5620.13
7289.24
9220.19
11324.7
13502.1
15658.9
17675
19372.7
20575.8
21017.1
20572.8
19330.7
17543
15452.6
12904.8
9746.51
6059.26
2341.61
1306.98
3938.44
5433.99
6502.82
6766.93
6609.86
6444.28
6781.94
7651.81
8953.71
10740.9
12736.8
14769.5
16499.5
17876.9
19018.7
19985.4
21111
22134.8
22995.6
23046.1
22590.3
21405.2
19768.3
17839.2
15837.1
13661.4
11037
7648.23
4635.7
1355.97
2037.78
1744.91
2099.15
3363.3
5612.8
8700.02
12185.6
15467.3
18275.2
20623.2
22675.4
24515.3
26173.2
27571.1
28571.8
29164.4
28915.4
28095.9
26755.4
25124.3
23279.5
21397.7
19350.8
16906.6
13743
10006.4
6187.06
3153.26
1963.75
1313.8
4074.55
5495.84
6447.02
7026.31
7444.07
7729.46
7862.24
7909.94
7851.81
7780.55
7874.77
8240.66
8666.93
8999.72
9329.78
9817.86
10599.3
11664.8
12882.6
14064.7
15191.1
16100.3
16761.2
17423.7
18475.6
19280.7
17488.8
11476.9
4367.38
858.467
1506.44
1818.16
1902.1
1927.73
2022.79
2234.56
2598.62
3339.09
5282.08
9333.92
14827.1
19744.9
23215.5
25453.2
26765.8
26939.6
25788.9
23186.4
19575.8
15705.7
12193.8
9345.68
7212.58
5774.17
5022.52
4862.15
4979.75
4682.25
2684.28
2284.12
1340.21
1472.89
1738.19
2587.19
4665.55
7936.6
11433.1
14432.4
17026.9
19513.6
22258.9
25333.2
28615.3
32035.7
34959.3
37250.3
38494.4
38431.2
37044.2
34316.6
30276.1
25197.7
19477
13835.1
9066.59
5542.4
3260.83
1980.74
2058
2615.27
5179.96
6694.83
8519.13
10414.5
12419.8
14560.5
17038.9
19942.1
23459.2
27403.2
31697.4
35615.3
38698.7
40499.2
40515.1
39324.9
37026.4
34186.5
30816.2
26317.4
20586.9
14438.4
9180.96
5430.44
3285.73
2136.29
1520.64
1192.52
1198.89
2012.28
1386.26
2472.74
4294.93
6316.4
8328.22
10397.8
12685.6
15364.6
18498.8
22004.4
25802.6
29387.5
32495
34938.3
36297.4
36665.3
36434.8
35867.7
35210.7
34106.7
31345.7
26015.9
18962.5
12206.5
7116.22
3867.07
2099.18
1775.49
2912.35
1988.09
1710.51
4016.52
8662.66
14274.7
19531.5
24074.3
28221.9
32345.7
36831.4
41713.6
46428.4
50711.9
53733.8
54870.8
53874.2
51408.1
47716.2
43529.2
39393.4
35199
30321.5
24444.4
18198.4
12564.1
8143.7
5041.06
3124.06
2385.98
3827.61
1797.69
1940.58
3571.73
5635.35
7809.79
9744.79
11084.8
11762.4
11863.8
11416.2
10586.5
9428.66
8123.38
7021.83
6574.03
6913.42
7288.73
7269.83
7017.3
6767.2
6776.03
7000.52
7311.59
7438.78
7438.9
7321.95
6970.57
6045.62
4285.41
1596.39
174.879
385.472
895.426
2336.21
5793.79
11762.1
18939.3
25254.4
29660.3
32157.1
33369.1
33565.2
32852.4
31010.5
28583.7
25873.6
23006.8
19884.4
16441.1
12628.2
8661.17
4977.11
1817.17
148.671
19.7675
6.49031
3.22633
1.98334
1.26531
0.558274
498.848
925.383
1039.8
1097.93
1046.46
942.118
867.465
891.469
1028.85
1257.99
1534.23
1739.58
1681.9
633.432
715.074
927.502
1110.54
1194.89
1152.31
1122.26
1285.48
1710.29
2208.61
2634.68
3033.96
3504.18
4051.64
4480.83
4784.52
4910.04
4972.55
5009.49
5113.29
5277.56
5484.22
5686.41
5871.63
6063.96
6327.65
6581.81
6485.08
5509.29
3544.66
1012.06
1052.71
648.585
909.904
1417.39
1908.23
2041.84
1689.94
1260.28
1285.33
2150.63
3698.54
5438.07
7176.3
9038.15
11010.6
12841.5
14382.6
15515.6
16309.5
16766.5
17085.8
17054.5
16827.5
16163
15259.9
14251.9
12933.9
10915.1
7781.36
2872.47
1612.61
5535.72
6334.07
6512.18
5905.66
5298.82
5393.17
6624.72
8835.29
11577.8
14728.1
17346.2
19128.3
19540.2
19076.9
18200.5
17345.4
16867.6
16682
16815.1
16936.1
17020.1
16882.7
16545
15981.1
15340.2
14372.7
12680.5
9645.3
5451.19
1553.46
2401.21
1783.59
2419.3
4534.37
7878.94
11932.1
15623.5
18113.7
19476.3
19979.1
20023.2
19889.5
19764.3
19801.1
19892.2
20021.1
20084.5
19963.1
19605.5
19087.9
18454.1
17756.9
16987.3
15863.5
13999.6
11194.7
7598.22
4131.23
2604.14
1791.23
5876.39
6802.96
7016.95
6911.76
6889.83
7118.5
7594.85
8257.7
8868.95
9420.4
10154
11098.7
11799.6
11904
11665.8
11329.1
11166.7
10978.3
10692
10286.9
10125.3
10581.3
11793.9
13671.8
16389.6
19302.3
19674.7
14462.3
4813.33
1146
2276.66
2379.33
2272.91
2248.12
2434.88
2837.78
3532.49
5183.52
9378.31
16414.5
22999
26271.2
26631.1
25633.9
24500.8
23738.1
22644
20840.1
18152.1
14805.4
11381.5
8408.85
6155.73
4610.01
3900.77
4074.31
4882.35
5424.9
2852.59
2850.76
1677.3
1800.25
2331.55
3984.96
7175.11
10764.7
13372.2
14670.3
15291.4
15849
16708.2
17867
19212.5
20776.5
22423.5
24295.9
26005.9
27503.5
28339.8
28253.6
26738.6
23698.8
19376.8
14452.1
9884.06
6262.54
3824.56
2436.53
2281.94
3299.41
7437.73
8578.7
9466.7
10063.4
10646.6
11399.1
12513.5
14079.1
16088
18436.4
21074.2
23737
26055.6
27831
28885.2
29346.2
29342.4
29097.4
28283.6
26294.2
22503.6
17153.1
11613
7074.92
4171.4
2552.92
1720.54
1346.78
1337.18
2188.08
1812.47
3472.88
5581.61
7490.98
9128.71
10637.4
12153
13874.6
15733.2
17706.2
19722.9
21683.1
23482.8
25011.5
26441.1
27422
28317.8
29321.5
30583.5
31892.4
32040.1
29398.3
23630.9
16585.8
10296.2
5776.68
3064.47
2049.71
3088.25
2144.02
2411.09
6372.42
12916.5
19462.7
23979.8
26378.3
27301.8
27866.7
28598.6
30181.2
32439.4
35185.9
37990.7
39964.9
40845
40567.7
39325
37606.8
35715.4
33796.9
31314.1
27567.7
22464.1
16816.5
11613.4
7489.51
4600.76
2965.07
4179.62
2378.21
3466.46
5924.83
8805.37
11632.8
13832.6
15161.3
15803.3
15958.6
15775.4
15236.9
14104.3
12389.7
10614.4
9632.35
9591.39
9387.76
8322.84
6753.59
5150.11
3972.14
3548.07
3888.13
4572.55
5335.2
6056.65
6585.97
6448.25
5052.27
1594.26
309.287
652.501
1674.14
4297.46
9461.22
16653.8
23533.8
28191.8
30296.9
30511.8
29749.9
28392.9
26725
25027.8
23774.2
22879
22062
20733.1
18536.7
15215.3
11059.4
6760.18
2994.29
379.052
34.3506
8.99542
4.17502
2.70533
1.96595
0.71718
573.416
1004.43
1114.28
1132.51
1001.35
795.647
625.114
601.787
758.373
1092.09
1551.34
2019.66
2231.71
832.689
944.817
1302.37
1362.31
1289.78
1101.66
1034.96
1310.5
1924.22
2544.37
3020.64
3487.35
4067.17
4687.95
5042.05
5078.33
4757.49
4259.46
3756.47
3431.11
3379.51
3593.83
4008.42
4507.29
5086.11
5754.17
6453.93
6879.36
6396.68
4648.62
1262.84
1197.11
825.844
1096.93
1594.57
1987.17
1939.78
1440.18
1031.45
1329.7
2625.77
4453.43
6378.84
8279.93
10235.8
12186
13673.3
14477.4
14445
13806
12824.6
12044.5
11526.3
11601
11791.9
12165.2
12423.1
12470.5
11725
9406.3
3090.59
1937.69
7492.52
7277.55
6395.33
4957.9
4054.4
4537.69
6747.29
10307.3
14351.7
18521.7
21158.1
21887.1
20503.7
18118.5
15524.9
13296.1
11679.9
10640.2
10252.1
10248.6
10682.6
11501.3
12481
13450.9
14267.4
14651.6
14004.7
11450.6
5732.83
1848.57
2851.77
1940.56
2957.4
5839.81
10073.8
14547.3
17745.3
19066.5
18937.2
17848.8
16226.3
14493.8
12998
11900.2
11296.3
11086.9
11355.5
11859.5
12547.2
13149.7
13733.5
14116.3
14419.8
14313.5
13527.2
11646.6
8500.13
4896.82
2982.87
2309.55
7998.05
8230.59
7509.24
6501.43
5842.24
5938.32
6784.88
8115.95
9437.12
10602.2
12043
13658
14707.5
14719.6
14058.9
13105.3
12114.4
10760.8
8917.76
6703.45
5056.25
5148.18
7268.41
10605.4
15107.1
19905.9
21748.9
16782.3
4554.48
1510.15
3334.41
3062.92
2663.14
2546.05
2803.32
3407.04
4573.84
7630.78
14664.8
23689.1
28938.2
28681.7
25073.3
20620.4
17220.4
15545.9
15016
14823.1
14033.2
12360.3
10068.1
7645.51
5536.97
3961.08
3247.23
3658.38
5003.19
6108.72
2772.14
3376.21
2132.11
2282.79
3342.13
6035.09
10066.1
13399.4
14919.4
14667.5
13896.1
13326.1
13050.6
12695.3
12095.4
11387
11043.1
11728.2
13818.3
16535.9
19203.6
21240.2
21884
20741.1
17883.1
13947.1
9928.14
6534.8
4192.78
2857.72
2432.14
4178.51
9136.53
9827.04
9959.1
9662.03
9490.51
9625.94
10127.1
10808.5
11434
11896.6
12185.2
12517.5
13118.7
14519.9
16434.7
18566.3
20605.7
22475.3
23767
23858.9
21871
17711.7
12532.5
7799.49
4555.9
2731.24
1846.4
1498.02
1426.92
2370.36
2346.36
4547.92
7010.83
9153.58
10840.4
12168
13176.1
14116.4
14676.1
14967.5
14841
14545.6
14404.9
14702.2
15705.7
17381
19510
22015.2
24901.2
27908.3
30136.6
29838.5
25839.9
19334.3
12568.1
7206.91
3797.94
2292.01
3178
2279.22
3493.41
9311.79
17860.4
25163.1
28670.9
28767.2
26612.3
23972.4
21187.3
19445.7
18811.3
19441.9
21570.4
24092.3
26473.8
28282.6
29373
29843
29884.4
29755.4
29087.8
27330.1
23894.3
19104.9
13934.5
9350.25
5820.47
3443.72
4386.7
3123.55
5609.54
8862.38
12398.3
15330
17011.9
17638
17931.7
18326.6
18908.4
19336.7
18824.9
16941.6
14349
12615.7
12105
11401.5
9590.92
7089.84
4494.96
2503.93
1530.49
1783.31
2839.43
4148.12
5458.8
6537.62
6804.79
5521.1
1159.64
465.789
999.611
2651.44
6368
12639.8
20064.8
25887.3
28580
28421.5
26431.8
23687.4
20779.1
18444.8
17194.5
17421.3
18588.7
19953.1
20554.8
19727.6
17094.2
12974.1
8241.88
3996.5
811.954
61.7247
12.0427
5.72962
3.91945
3.21346
0.993006
619.137
1016.75
1131.69
1140.36
984.296
745.24
530.277
466.219
604.114
981.243
1571.2
2271.52
2797.41
1085.56
1224.34
1724.33
1560.51
1301.14
992.19
925.828
1298.74
2023.98
2682.6
3175.78
3710.91
4456
5185.89
5522.23
5358.22
4673.11
3707.44
2728.66
2027.17
1789.23
2028.59
2625.65
3393.91
4304.53
5323.5
6418.61
7270.12
7192.43
5671.24
1429.57
1368.05
1017.44
1193.95
1597.01
1886.56
1747.81
1233.63
935.204
1497.83
2997.01
4903.73
6851.09
8770.47
10725.8
12597
13767.2
13848.4
12723.8
10748.3
8529.37
6790.71
6013.91
6522.27
7698.5
9280.95
10748.9
11997.6
12355.1
10741.9
2889.86
2280.77
9569.52
8122.15
6123.92
4002.96
3002.09
3913.93
7029.02
11616.9
16669.6
21421.2
23640.4
23129.6
20234.3
16755
13188.7
10348.1
8123.37
6591.02
5790.37
5590.82
6130.69
7580.14
9589.53
11757.3
13728.8
15135
15154.6
12732.8
5446.15
2275.65
3294.3
2196.57
3640.56
7150.32
11864.1
16413.5
19020.2
19518.4
18466.4
16460.5
13786.8
11050.7
8620.4
6754.37
5619.23
5142.05
5487.73
6328.29
7708.69
9016.49
10397.3
11529.9
12497.1
13014.6
12890.1
11622.2
8842.93
5349.09
3118.19
2854.38
10312.5
9723.7
7967.31
5952.32
4542.11
4379.12
5549.39
7503.26
9408.66
11081.5
13090.8
15445.5
16986.5
17171.7
16349.4
15051.2
13464.9
11256.1
8266.24
4978.96
2469.77
2461.58
5213.32
9764.45
15846.7
21603.7
23340.9
17816.8
3926.01
1980.6
4749.68
3859.54
3033.99
2753.64
3044.28
3872.82
5655.87
10287.1
19800
29038.2
31595.4
27919.7
21303.6
14744.1
10161.8
8055.46
8004.74
8945.47
9744.93
9747.86
8799.56
7117.53
5214.87
3661.02
3018.47
3701.52
5416.51
6604.03
2572.48
3993.2
2861.49
3116.89
5040.58
8848.79
13211.3
16137.3
16826.2
15461.2
13888.6
12840.3
11979.6
10642.4
8602.32
6122.95
4141.09
3771.53
5718.82
8989.51
12584
15806.5
17737.8
17853.5
16121.3
13079.9
9613.69
6564.42
4464.44
3240.46
2485.59
5451.72
10217.2
10908.2
10819.1
10220.5
9827.47
9852.01
10150.4
10348.6
10052.9
9172.18
7686.76
6016.64
4699.88
4927.98
6855.39
9921.82
13233.1
16554.8
19209.3
20618.8
19822.4
16759.1
12135.5
7625.92
4422.72
2659.49
1893.12
1646.12
1468.94
2687
3118.02
5985.48
9032.77
11716.7
13802.1
15170.5
15844.6
16141.1
15536.1
14377.9
12314.9
10146.8
7949.36
6459.82
6545.67
8470.63
11746.2
15444.2
19561.3
23681.2
27174.9
28254.7
25766.3
20183.6
13540.1
7824.98
4064.33
2376.62
3231.35
2557.64
5212.23
13189.9
23532.1
31508.3
34397.8
32739
28349.9
23364.7
17952.1
13477.5
10169.5
8673.89
9166.09
11357.8
14432.9
17570.4
20268.5
22345.6
23755.9
24744
25159.3
24661.4
22693.1
19143.5
14666.1
10255.5
6530.42
3717.29
4415.5
4015.87
8315.75
12173.9
15935.9
18208.4
18552.1
17786
17247.7
17695.5
19438.5
21621.8
22505.1
20952
17554.4
14844.5
13821
12807.7
10828.6
8016.91
5006.53
2560.85
1220.91
1361.91
2628.38
4196.58
5714.96
6828.84
6953.85
5484.5
722.32
645.713
1414.06
3574.34
8014.68
14755.5
21758.5
26186
27058.3
25002.9
21310.6
16969.9
12881.3
10029.6
9486.97
11297
14421.7
17663.9
19908
20270.9
18243.5
14238.5
9260.16
4711.34
1371.5
131.055
18.096
9.81552
7.93704
7.82697
3.35888
635.968
960.687
1096.77
1125.92
1007.17
810.965
606.59
492.883
554.86
902.669
1574.82
2484.32
3386.98
1404.29
1569.77
2138.3
1642.98
1213.24
862.018
832.744
1251.43
1966.45
2608.67
3104.32
3717.78
4614.94
5478.68
5866.19
5634.29
4797.92
3576.66
2296.13
1361.06
995.017
1224.55
1886.69
2775.76
3869.59
5112.48
6476.42
7602.66
7773.16
6456.19
1592.17
1683.15
1281.36
1222.59
1484.39
1705.41
1573.94
1156.78
1017.46
1702.99
3191.64
5003.87
6810.59
8594.23
10451.6
12224.5
13205.3
12797.9
10986
8153.22
5264.21
3140.53
2479.57
3362.55
5188.14
7519.96
9834.82
11872.1
12796.6
11448.7
2363.02
2508.81
11851.3
8869.33
5784.58
3192.17
2215.06
3493.46
7238.62
12307.1
18002
23011.7
24832.4
23638.3
20269.2
16863.5
13292.7
10504.9
7891.48
6036.78
4787.75
4380.1
5101.7
7036.57
9537.74
12225.4
14647.9
16252.4
16062.5
13158.9
5158.56
2842.96
3872.56
2551.45
4433.69
8393.82
13469.2
18008.6
20392.3
20729
19642.8
17485
14489.7
11353.8
8318.67
5873.74
4151.9
3319.04
3408.56
4310.56
5871.38
7484.32
9191.36
10644.7
11818.8
12491.5
12496.2
11268.5
8567.46
5404.33
3136.49
3461.42
12631.9
11055.7
8306.65
5402.48
3334.85
2850.34
4140.02
6509.89
8749.33
10660.4
12993.5
15972.5
18203.9
18842.4
18271.8
17072
15518.3
13112.7
9802.45
6270.61
3805.43
3969.12
7103.5
12359.4
18857.1
23864.4
23904.6
17123.1
3413.27
2504.02
6610.71
4648.65
3210.92
2724.12
3052.82
4167.75
6635.54
12476.1
23503.1
31877
32097.4
26394.5
18612.2
11407.6
6399.34
4097.06
4212.68
5519.29
7211.65
8314.43
8215.76
6912.91
5092.55
3665.26
3320.81
4355.27
6055.77
6706.07
2387.8
4923.65
3875.68
4210.72
7244.83
12092.7
16816.1
19402.5
19415.6
17398.9
15447.6
14296.9
13312.4
11758.4
9285.67
6236.17
3521.83
2304.75
3718.03
6604.36
10145.9
13499.1
15657.2
16128
14890.8
12392.5
9363.2
6640.19
4680.39
3469.01
2459.83
7718.19
11191.8
12484.5
12571.4
12043.1
11689
11829.3
12258.7
12402
11875.8
10538.7
8369.12
5849.76
3554.98
2605.72
3469.71
6040.21
9487.16
13197.3
16337.9
18116.7
17790
15325.1
11169.2
7039.7
4114.62
2560.51
1941.98
1804.95
1708.64
3729.53
4791.95
8325.56
12059
15479.7
18109.3
19588.1
20085.3
19900.8
18498.8
16341.1
13023.5
9695.01
6211.51
3694.55
2396.11
3643.75
6992.16
11299.8
16030.8
20607
24561.9
26100.1
24499.3
19648.2
13240.8
7481.24
3816.46
2323.85
3263.19
3713.69
8259.74
18068.9
30123.9
38856.8
41701.6
39239.8
33772.8
27470.7
20492.8
14240.4
8682.21
5169.1
3555.05
4727.16
7402.16
10926.4
14233.5
16979.5
18892.2
20246
21061.1
21095.4
20014.9
17567.5
14067.5
10263.2
6721.08
3775.6
4180.25
4992.89
11398.5
15519
19010.9
19980.1
18291.9
15405.8
13415.3
13784.5
16824.8
21178.7
24142.6
23580.5
19577.4
15765.6
14245.2
13235.1
11599.7
9238.33
6565.38
4280.72
2975.75
3035.41
4122.3
5463.4
6641.43
7218.99
6730.41
4874.27
421.468
778.319
1742.06
4248.74
9057.59
15693
21838.7
24918
24572.5
21311.8
16580.4
11418.7
6848.55
3879.69
4133.56
7279.86
11725.7
16106.8
19346.8
20430.9
18739.6
14773.8
9702.05
5044.5
1792.19
242.68
28.5299
22.9911
27.5616
36.1035
27.8753
619.466
847.543
1019.67
1102.58
1072.72
965.268
810.845
675.296
658.448
944.747
1634.92
2674.81
3817.18
4046.17
3128.35
3117.43
3327.91
2732.65
1848.06
1237.58
886.448
868.935
1202.92
1799.65
2364.75
2816.22
3462.57
4458.41
5490.58
6030.53
5904.51
5166.36
3991.09
2708.53
1713.73
1237.97
1359.88
1948.06
2796.23
3893.76
5173.73
6616.57
7846.06
8213.66
7206.67
4453
2314.3
2523.11
3107.04
1959.36
1452.4
1417.57
1570.52
1521.59
1263.21
1246.64
1899.71
3211.21
4790.63
6308.23
7815.02
9482.39
11198.5
12216.3
11720.9
9737.82
6870.28
4099.98
2267.27
1932.65
2983.12
4949.45
7445.69
9997.52
12198.9
13082.5
11398.9
4787.78
2381.14
3365.21
9057.41
13142.3
9081.49
5282.52
2557.01
1778.13
3362.84
7198.17
12170.8
18238.8
23498
25591
24613.9
22323.1
19988.1
17421.7
15142.8
12647.5
10654.3
9154.34
8784.93
9480.14
10995.5
12946.8
15049.6
16846.9
17781.9
16633.1
12659
7073.38
4233.16
6854.19
8928.26
4932.75
3681.9
5741.62
9843.97
15115.4
19846.9
22642.1
23610.7
23231.5
21776.8
19252.3
16345.8
13185.9
10306.8
7960.36
6439.5
6088.94
6593.95
7799.83
9114.37
10537.5
11737.6
12583.1
12845.4
12252.9
10376.5
7540.53
5305.1
5156.85
4145.39
4259.98
11739.9
14738
11980.9
8373.66
4904.21
2508.18
1769.92
2916.53
5314.59
7548.76
9359.55
11747.6
15231.8
18317.5
19627.2
19622.9
19071.1
18258.5
16716.4
14242.6
11485.8
9669.42
10185.2
13255.6
18043.7
23142.1
25644
22849.7
14768.3
5432.89
2898.07
4196.79
8605.63
8457.62
5441.03
3299.41
2505.9
2801.28
4153.16
7151.44
13836.8
25165.5
32542.3
31502.5
25602.8
18552
12004.7
7039.28
4355.56
4084.72
5317.53
7226.88
8518.66
8424.55
7056.87
5307.28
4182.13
4252.08
5376.73
6546.69
6464.78
4815.04
6843.56
9401.66
12876.6
7516.81
7334.48
10485.5
15560.6
20446.5
23000.6
22811.4
20439.6
18360.6
17310.9
16701
15720.4
13912.3
11464.6
9067.01
7705.32
8192.81
9852.61
12177.1
14423.9
15758.6
15793.1
14474.4
12138
9400.1
6976.76
5276.66
4642.44
5887.19
8339.87
9915.59
9667.53
12979.8
15020.8
15471.8
15003.6
14689.2
15053.6
15842.6
16390.3
16353.3
15298.7
13371.3
10826.5
8409.41
6922.93
7030.29
8391.38
10769.2
13573.3
16000.1
17275.3
16701.2
14283.3
10444.3
6732.13
4162.72
2906.85
2823.34
4134.93
6520.83
7042.94
9123
12061.9
11108.5
12947.7
16310.8
20098
23288.5
25089.5
25760.6
25429.9
23837
21314.9
17641.8
13800.2
9789.87
6701.99
4729.59
5092.39
7503.88
11245.2
15583.9
19776.1
23264.8
24530.3
23022.4
18485.6
12288.4
6708.57
3395.53
3112.03
5529.54
6099.91
8815.73
13304.5
15114.8
24025.5
36592.5
46406.7
50352.6
48212.4
42809.7
36300.7
29083.2
22252.9
15477.2
10237.2
6285.76
5663.48
7209.32
9959.6
12746.6
15002.3
16516.3
17492.3
18075.3
18062.1
17300.4
15509.8
12870.9
9745.77
6536.82
3627.57
2671.25
3880.2
5311.57
12096.8
14305.9
18375.3
21290.3
20799.1
16945.3
11758.5
8026.24
7998.25
12133.6
18461.6
23586.6
24306.4
20033.1
15144.5
13184.8
12444.5
11592.3
10298.4
8660.5
7191.31
6347.86
6278.93
6816.43
7428.6
7685.33
7224.96
5849.48
3707.38
1157.51
1039.01
1227.94
1296.44
2174.27
4695.19
9310.76
15391
20629.7
22768
21898.8
18205
13296.3
8218.66
4037.67
1658.07
2801.85
6493.76
11230.6
15759.5
19174.8
20346.1
18554.6
14515.6
9484.37
4936.83
1923.48
390.009
57.6354
68.5923
116.458
165.22
171.48
20.6816
1.67809
574.603
699.371
898.83
1050.33
1131.32
1129.63
1048.9
928.093
859.673
1063.52
1693.21
2716.17
3831.83
4752.19
3754.08
3620.52
4163.31
3157.34
2038.25
1373.56
1038.27
958.408
1144.85
1560.12
2005.56
2395.72
3020.88
4039.55
5173.28
5938.92
6102.72
5725.13
4929.81
3950.32
3083.25
2553.24
2494.53
2854.11
3489.31
4358.3
5436.67
6720.87
7899.85
8446.85
7896.49
6067.73
3897.41
3513.35
3393.68
2565.22
2124.31
1934.33
1972.32
1939.63
1728.74
1672.72
2115.5
3114.1
4351.69
5460.08
6598.6
8046.22
9753.77
10967.4
10816.3
9350.51
7246.13
5242.1
4007.32
3978.9
5022.29
6759.69
8864.35
10944.5
12580.1
12925.5
10845.2
6285.49
3762.26
6031.47
13701.4
11940
8230.15
4582.82
2162.78
1725.25
3395.27
6789.14
11285.9
17505.6
23286.1
26474.7
26966.1
26836.9
26390.9
25774.8
24830.8
23424.4
21733.2
20141.6
18842.8
18263.6
18162.9
18448.9
19041.7
19406.9
18870.6
16290.4
11997.9
8944.13
9934.98
12079.3
10631.2
5846.05
4976.53
7054.91
11180.1
16665.1
21805.2
25497.1
27711.9
28762.1
28625.8
27318.6
25278.8
22728.8
20119.9
17724.8
15774.8
14602.6
13922.2
13909.1
14081.7
14561.4
14929.6
14908.6
14089.7
12235
9421.61
6593.67
5048.47
5114.36
5252.28
7554.82
16627.3
15978.4
12122.4
8016.13
4461.87
2207.56
1515.51
2385.01
4297.08
6097.04
7488.12
9605.17
13328.4
17216
19477.5
20269.7
20674
21214
21494.5
21038.5
20080.7
19371.8
19788.6
21645.8
24414.4
26570.8
25750.3
20424
12077.1
5190.76
3093.26
6035.37
12001.6
8876.48
5555.51
3081.95
2039.16
2246.93
3704.96
6883.09
13700.4
24720.9
31674.2
30838.4
26348.9
21285.1
16473.8
12382.7
9649.67
8896.88
9475.82
10291.7
10407.8
9427.04
7687.25
6095.45
5372.29
5698.93
6613.42
7188.24
6905.24
7101.39
11076.9
17121.9
16496.6
9930.99
9602.07
12724.4
17961.3
23307.8
26327.2
26370.7
24017.3
21913.2
21146.6
21270.4
21535.5
21235.5
20349.4
19050.5
17873.1
17242.8
17177.2
17498
17791.7
17538.9
16498.7
14633.9
12285.8
9993.65
8347.78
7581.15
7530.93
7957.55
8357.97
9234.05
12301.7
15933.9
18400.4
19003.6
18572.9
18179
18704.8
19877
21147.1
21990.9
22026.5
21139.2
19557.4
17726.9
16178.7
15523.9
15739.2
16636.1
17819.2
18667.2
18555.8
16981
14110.9
10442.9
7227
5252.09
4999.2
7052.96
11231.5
15466
17737.8
17292.2
14492.9
13498.2
15529.3
19301.7
23904.8
28068.3
30771.9
32074.9
32124.1
31201.9
29271.2
26371
22887
19258.3
16035.6
13937.8
13437.2
14385.1
16416.9
19219.7
21987.8
24134.6
24353
22147.9
17434.7
11574.1
6836.28
5102.94
7466.04
12270.1
15670.9
15862.5
13997.2
16668
26268.4
39752
51743.3
58080.7
57929.8
54102.9
48726.7
42652