/*--------------------------------*- C++ -*----------------------------------*\
| =========                 |                                                 |
| \\      /  F ield         | OpenFOAM: The Open Source CFD Toolbox           |
|  \\    /   O peration     | Version:  2.1.1                                 |
|   \\  /    A nd           | Web:      www.OpenFOAM.org                      |
|    \\/     M anipulation  |                                                 |
\*---------------------------------------------------------------------------*/
FoamFile
{
    version     2.0;
    format      ascii;
    class       volScalarField;
    location    "0.005050000";
    object      O2;
}
// * * * * * * * * * * * * * * * * * * * * * * * * * * * * * * * * * * * * * //

dimensions      [0 0 0 0 0 0 0];

internalField   nonuniform List<scalar> 
12384
(
0.00167104
0.00272746
0.00398713
0.00563622
0.00634431
0.00656561
0.00625729
0.0055056
0.00429803
0.00296403
0.00175617
0.00144395
0.00247679
0.0184711
0.0479171
0.0440067
0.0426774
0.0417996
0.0400974
0.0377751
0.0352845
0.0333824
0.0324286
0.0319708
0.032153
0.0326226
0.0333612
0.0340565
0.0347021
0.0354234
0.0360428
0.036602
0.0370244
0.037374
0.0376765
0.0379484
0.0382648
0.0385292
0.0388202
0.0390139
0.0406412
0.0472415
0.0398036
0.0388629
0.00201405
0.00151932
0.00134523
0.00146364
0.00213372
0.00279191
0.00215721
0.000485769
0.000345864
0.000162162
0.00091148
0.00146454
0.00180357
0.00180389
0.00168206
0.00163647
0.00152171
0.00153478
0.00137167
0.00155006
0.00136204
0.00142157
0.00118352
0.00137399
0.00111816
0.0014112
0.00146414
0.00265677
0.0135971
0.0280649
0.00112254
0.00276196
0.00587236
0.00799731
0.00702363
0.00454605
0.0025184
0.00160973
0.000500521
7.21435e-05
0.000564953
0.000473584
0.000400323
0.000399544
0.000293124
0.000284913
0.000289242
3.49759e-05
0.000437416
0.000447497
0.000818968
0.00104521
0.00127703
0.00158206
0.00180505
0.0020623
0.00241729
0.0040725
0.00695307
0.0078886
0.000171826
0.00012851
0.000169036
0.000213318
0.000223701
0.00025447
0.000261676
0.000242354
0.000243952
0.000263209
0.000259297
0.000275765
0.000282577
0.000269937
0.000296915
0.000308829
0.000326071
0.000343173
0.000370752
0.000359705
0.000432026
0.000130581
0.000409495
0.00064838
0.000999482
0.00146597
0.00496924
0.0129552
0.0124197
0.0114184
0.000492515
0.000208015
0.000125011
6.87755e-05
6.32924e-05
6.34148e-05
6.96129e-05
4.61313e-05
5.70971e-05
4.26113e-05
5.0604e-05
3.48569e-05
3.5996e-05
3.08683e-05
3.16952e-05
4.77374e-05
5.20692e-05
4.68816e-05
5.40112e-05
5.39193e-05
6.07798e-05
4.44207e-05
5.16569e-05
5.61782e-05
4.3273e-05
4.77564e-05
6.2629e-05
0.000101912
0.000981528
0.00311768
0.00155119
0.000211665
0.000217002
0.00126782
0.00210357
0.00300946
0.00422114
0.00548827
0.00680095
0.00934239
0.0117868
0.0132009
0.0140623
0.0147166
0.0157547
0.0176675
0.0201848
0.022787
0.0250948
0.0268879
0.0281246
0.0285868
0.0286532
0.0276646
0.0252657
0.0219664
0.0176856
0.0125596
0.00809487
0.00825617
0.025197
0.0226069
0.00709079
0.000458219
7.54812e-05
1.81615e-06
-3.0407e-05
-7.38863e-06
-4.51483e-05
5.95317e-06
8.98763e-05
8.90737e-05
8.61489e-05
8.2064e-05
7.59655e-05
7.41906e-05
7.54729e-05
7.11399e-05
7.39487e-05
7.27724e-05
8.39844e-05
1.10373e-05
7.1771e-05
0.000252713
0.000385314
0.000344443
0.000167244
7.21925e-05
9.1384e-05
0.000252672
0.00249335
0.000957628
-8.32755e-05
0.000202304
0.000162711
0.000134293
0.000106254
3.95134e-05
4.92653e-05
3.61962e-05
2.93995e-05
1.88952e-05
1.28391e-05
1.48709e-05
2.58563e-06
2.66591e-06
2.11316e-05
2.12874e-05
2.31158e-05
7.78463e-06
2.39719e-05
1.90298e-05
8.01132e-06
3.31935e-06
1.82005e-06
1.39346e-06
1.03901e-06
8.982e-07
1.1571e-06
1.3845e-06
0.0150022
0.01452
0.0110733
0.0062561
0.00329471
0.0022623
0.00144258
0.000890301
0.00044011
0.000319788
8.13409e-05
0.000359386
0.000326963
0.000313021
0.00028833
0.000272909
0.000232226
0.000189317
0.000151704
0.000100017
7.16172e-05
4.10217e-05
1.17377e-05
5.70619e-06
1.68164e-05
2.66711e-05
2.33718e-05
2.69003e-05
2.55561e-05
2.37486e-05
7.8552e-05
-5.14212e-05
2.76547e-05
1.92259e-05
1.16777e-05
5.19169e-06
1.11748e-06
6.65353e-06
8.02161e-07
3.76931e-06
4.38298e-06
2.19182e-06
2.70522e-06
2.36284e-06
2.30318e-06
2.28641e-06
2.33033e-06
2.03902e-06
2.23886e-06
2.17789e-06
1.97284e-06
2.1516e-06
2.84056e-06
7.01348e-06
1.00895e-05
6.71371e-06
6.98911e-06
7.03339e-06
1.04757e-05
1.12223e-05
0.0136243
2.67615e-05
2.53522e-06
-8.86649e-07
1.10146e-05
2.2041e-06
0.000104572
0.000104192
8.96748e-05
6.20582e-05
2.00356e-05
3.42109e-05
2.99283e-05
2.65274e-05
2.24602e-05
1.18873e-05
5.16465e-06
3.47043e-06
1.10722e-06
-5.64895e-06
7.67321e-08
1.33268e-05
1.81426e-05
3.02327e-05
-3.86857e-05
-6.79351e-06
1.00712e-05
3.1852e-05
0.000102967
0.0710232
0.0948063
0.0949883
0.0929848
0.0906756
0.0841637
0.0552806
1.38531e-06
2.23315e-07
3.24288e-07
2.66782e-07
3.12026e-07
2.79078e-07
3.09889e-07
2.92866e-07
3.17821e-07
2.83312e-07
3.26872e-07
3.93325e-07
4.21299e-07
7.34861e-07
1.02357e-06
9.46216e-07
3.02766e-06
2.08733e-06
2.82765e-06
5.53768e-06
2.98924e-05
0.0263095
0.0790509
0.0884512
0.0137101
0.0191323
0.0216564
0.0219706
0.0198922
0.0180847
0.0169946
0.0170385
0.0156024
0.0120176
0.00569843
0.00189715
0.00216918
0.00976165
0.0477449
0.0429724
0.041276
0.0375432
0.0322753
0.0272143
0.0244924
0.0229977
0.0239198
0.0253287
0.0277317
0.0298837
0.0315256
0.0326643
0.0334983
0.0341297
0.0347003
0.035267
0.0358265
0.0365034
0.0371549
0.0378028
0.0383283
0.0387173
0.0389685
0.039036
0.0396069
0.0439641
0.046608
0.0502009
0.00212565
0.00166749
0.00168675
0.00202061
0.00256022
0.00225979
0.000548255
0.000300265
0.000667135
0.00329634
0.0132644
0.0178647
0.0166101
0.0131155
0.00935513
0.0071786
0.00613381
0.00615409
0.00631917
0.00701689
0.007122
0.00729143
0.00661729
0.00509627
0.00397445
0.00328664
0.00252887
0.00237242
0.00436824
0.0134067
0.00156483
0.00371942
0.00777179
0.00721936
0.00283371
0.000132093
0.000214263
0.000124736
0.000347265
0.000365372
0.000369594
0.000390511
0.000284009
0.000323937
0.000284691
0.000275477
0.000211268
0.000248379
0.000182682
0.000211058
0.000201342
0.000118049
0.000428634
0.000982106
0.00145488
0.00194368
0.00228042
0.00304288
0.0053954
0.00672534
0.000149748
0.000122547
0.000147297
0.000148559
0.000193233
0.000279778
0.000277267
0.000297891
0.000321577
0.000329696
0.00033213
0.000338859
0.000351146
0.000125666
0.000230446
0.00040747
0.000561465
0.000709512
0.000723109
0.00094975
0.000876079
0.000963588
0.000881103
0.000923336
0.00102333
0.00127007
0.00217183
0.00485114
0.0105037
0.00956309
-4.94435e-05
5.15395e-05
9.40987e-05
6.59408e-05
4.66275e-05
2.55413e-05
1.8163e-05
1.26377e-05
-3.54528e-06
3.17737e-05
3.04771e-05
2.83272e-05
2.8391e-05
2.72187e-05
1.92055e-05
2.59277e-05
3.67941e-05
4.34395e-05
5.20637e-05
5.85033e-05
6.30959e-05
6.32492e-05
6.81794e-05
6.59995e-05
5.80279e-05
6.16918e-05
4.97014e-05
7.91719e-05
0.000171963
0.00055499
0.000409114
0.000175952
0.000335347
0.00202868
0.00203559
0.00155084
0.00150279
0.00267785
0.00621448
0.00844373
0.00648525
0.00278652
0.001086
0.000435273
0.000382522
0.000423542
0.00113407
0.00313789
0.0118643
0.0215487
0.0292536
0.0346251
0.0359558
0.0353888
0.03255
0.0270427
0.0205439
0.014005
0.00873446
0.00780494
0.00223723
0.000447036
-6.71151e-05
9.17015e-05
9.93887e-05
9.65235e-05
9.12518e-05
7.24983e-05
6.15597e-05
4.95631e-05
4.99981e-05
5.21282e-05
5.77921e-05
6.19617e-05
5.17275e-05
4.81155e-05
4.74884e-05
4.36843e-05
3.67945e-05
3.61312e-05
3.76492e-05
4.22784e-05
6.82583e-05
2.80029e-05
0.000192969
0.000338633
0.000341122
0.000236594
4.379e-05
0.000173722
1.34304e-05
1.62294e-05
8.94375e-06
1.34039e-05
3.55815e-05
5.42249e-05
8.78752e-06
8.22624e-05
0.000182099
0.00024768
0.000292583
6.86883e-05
0.000239636
0.000132186
0.000315662
0.00025996
0.000187113
2.13619e-05
7.43285e-05
5.01482e-05
4.00055e-05
3.36894e-05
2.41388e-05
1.13739e-05
6.64492e-06
5.00743e-06
2.89074e-06
2.04247e-06
1.34876e-06
1.01897e-06
0.0081242
0.00342494
0.000593106
0.000322317
0.000280222
0.000279316
9.1238e-05
0.000609892
0.000950716
0.00123605
0.00148958
0.00166132
0.00171546
0.00176501
0.00169509
0.00150756
0.00122509
0.000754348
2.44745e-05
0.00020374
0.000126139
5.88906e-05
2.16525e-05
1.75534e-06
5.35652e-06
1.78684e-05
1.38868e-05
1.35062e-05
2.05937e-05
2.0605e-05
6.41335e-05
3.02793e-05
1.45519e-05
6.93081e-07
5.30122e-06
5.91883e-06
1.10698e-05
1.49289e-05
6.40948e-06
1.30802e-05
9.2549e-06
1.48005e-05
1.09491e-05
7.55052e-06
8.18222e-06
6.51923e-06
4.88715e-06
2.85061e-06
3.47588e-06
3.00935e-06
2.12495e-06
2.49032e-06
2.17544e-06
4.24055e-06
8.82641e-06
1.06463e-05
1.26636e-05
1.49377e-05
1.58824e-05
1.64957e-05
3.53587e-05
2.61877e-06
2.29185e-06
2.97556e-05
0.000107652
0.000100225
1.12351e-05
1.77519e-05
1.2207e-05
7.90448e-06
1.74027e-06
4.35876e-06
3.41911e-06
2.66441e-06
2.09188e-06
1.96264e-06
2.01609e-06
2.567e-06
3.16727e-06
2.88791e-06
2.95876e-06
3.59321e-06
3.66314e-06
4.55726e-06
6.39471e-06
4.4568e-06
3.61126e-05
3.59713e-05
-1.91232e-05
0.0185386
0.0955611
0.0805988
0.0438316
0.0148111
0.00019739
5.06646e-06
3.17107e-07
2.25829e-07
1.64738e-07
9.15234e-08
2.14019e-07
1.90328e-07
2.03517e-07
1.83312e-07
1.85143e-07
1.97583e-07
2.0197e-07
1.92593e-07
1.85017e-07
2.03557e-07
3.03899e-07
6.07361e-07
5.31544e-06
1.06257e-05
4.53847e-06
1.0619e-06
3.2069e-06
6.20902e-05
0.0490734
0.0871725
0.0246495
0.0255309
0.0220969
0.014085
0.0080034
0.00603232
0.00598313
0.00705851
0.0112124
0.0157256
0.0123578
0.00414677
0.00196494
0.00672377
0.0468661
0.0402597
0.035727
0.0292028
0.0222607
0.0166687
0.0156565
0.016374
0.0201427
0.0241843
0.0281723
0.0306313
0.0316336
0.0319681
0.0319547
0.0317513
0.0314581
0.0312182
0.0313322
0.0317766
0.0324969
0.0336811
0.035156
0.0366578
0.0378908
0.0386177
0.0390635
0.041302
0.0471513
0.0536649
0.00224973
0.00237179
0.00280247
0.00282807
0.00275102
0.00117074
0.000298127
0.000220465
0.00536836
0.0206359
0.0327611
0.0344736
0.0296457
0.0210612
0.0141696
0.0107374
0.00996184
0.010453
0.0115994
0.0123513
0.0133448
0.0140345
0.0142478
0.0135371
0.0114497
0.00815351
0.00468803
0.00346493
0.00360365
0.00788446
0.00205403
0.00630582
0.00845286
0.00333989
6.34473e-05
0.000106921
7.22555e-06
0.000239786
0.000905414
0.00101325
0.00104489
0.000662589
0.00106517
0.0011094
0.00182691
0.00180878
0.00198955
0.00197968
0.00189181
0.00159548
0.0014556
0.00115604
0.00110257
0.00123745
0.00153455
0.00193748
0.00228225
0.00250558
0.00404598
0.00561898
0.00011851
7.85269e-05
0.000111476
0.00017835
0.000326641
0.000206337
0.000308417
0.000436884
0.000725615
0.00104798
0.00134893
0.00153123
0.00164393
0.00168566
0.00182588
0.0018508
0.00185184
0.00193555
0.00202325
0.00214527
0.00218526
0.00212689
0.00196605
0.00161536
0.0013838
0.0013576
0.00152025
0.0025739
0.00577232
0.00819136
0.000394736
0.000130505
6.62211e-05
3.57133e-05
3.55644e-05
1.44513e-05
2.10819e-05
2.12431e-05
3.45665e-05
2.64933e-05
2.1321e-05
1.82511e-05
1.78801e-05
2.13925e-05
3.21764e-05
4.78107e-05
6.11638e-05
6.78979e-05
7.50493e-05
7.51722e-05
8.42587e-05
8.38755e-05
8.52858e-05
8.66579e-05
8.23669e-05
7.23749e-05
4.73351e-05
6.23043e-05
0.000115909
0.000373542
0.000276362
0.000233904
0.00102753
0.000989337
0.000210676
0.000232674
0.00212929
0.00719775
0.00659285
0.00157492
0.000168496
7.92603e-05
4.23052e-05
-9.08569e-06
4.34787e-05
4.29528e-05
4.00656e-05
2.04925e-05
9.37478e-05
3.42695e-05
0.00591852
0.0212623
0.0323402
0.0361934
0.0349142
0.0293591
0.0209272
0.0134805
0.00797326
0.00743186
0.000333444
9.42935e-05
6.72198e-05
9.127e-05
6.73545e-05
3.78468e-05
1.07752e-05
7.98916e-06
3.30561e-05
1.27118e-05
4.06821e-05
5.20903e-05
7.12619e-05
8.11589e-05
7.87124e-05
6.91769e-05
6.64481e-05
5.76885e-05
4.67268e-05
3.32693e-05
2.1972e-05
4.93806e-06
2.07612e-05
5.39449e-05
9.71917e-05
0.000175919
0.000346279
0.00035175
0.000170135
9.97383e-05
1.49899e-05
3.06601e-05
8.29208e-06
0.000292456
0.000679698
0.00195824
0.0028736
0.00389911
0.00527348
0.00624304
0.00623413
0.00670884
0.00639858
0.00632548
0.00571462
0.0045259
0.00310148
0.00194763
8.04905e-05
0.00014433
8.15848e-05
5.86243e-05
2.98922e-05
1.34744e-05
1.82326e-05
1.63777e-05
1.25835e-05
6.32756e-06
5.97292e-07
1.26221e-06
0.00363549
0.000288042
0.000213636
-0.000149203
0.000874721
0.00146658
0.00187167
0.0019738
0.00217233
0.00214186
0.00235299
0.00266145
0.00357097
0.0038483
0.00455907
0.00507888
0.00472691
0.0037911
0.00213962
0.00126966
0.00025861
0.000121414
4.48868e-05
1.82871e-05
4.13443e-06
7.12941e-06
8.47461e-06
1.08011e-05
1.48578e-05
2.2293e-05
5.30775e-05
1.09272e-05
-3.6145e-07
1.28618e-05
6.90495e-06
4.81565e-05
1.38781e-05
0.00014142
0.000148413
4.11633e-05
-5.13362e-05
0.000431365
0.000191147
0.00018132
0.000125716
5.82353e-05
3.06732e-05
1.11633e-05
8.36018e-06
4.76886e-06
3.81071e-06
2.71251e-06
2.48363e-06
2.77381e-06
8.08824e-07
8.39616e-06
1.28698e-05
1.5642e-05
1.72288e-05
1.79523e-05
7.59691e-06
2.86642e-06
1.98008e-05
7.40801e-05
4.81066e-05
1.96254e-05
8.9049e-06
1.8741e-06
5.48988e-06
3.85029e-06
3.34721e-06
1.80114e-06
6.77382e-07
-2.67834e-07
9.72167e-07
1.64846e-06
3.85776e-06
5.35186e-06
1.39478e-05
1.63398e-05
1.62516e-05
2.94343e-06
5.43925e-06
4.81331e-06
3.80199e-06
2.54191e-06
-2.26893e-06
2.60937e-05
2.70056e-05
0.00146975
0.0852431
0.0156534
1.22423e-05
4.49062e-06
1.8649e-06
4.20906e-07
2.10757e-07
2.42036e-07
-4.21217e-09
1.62267e-07
2.29716e-07
2.75926e-07
3.67937e-07
4.15699e-07
3.98795e-07
3.38834e-07
2.7472e-07
1.65803e-07
2.05797e-07
1.57508e-07
1.2476e-07
1.27279e-07
7.31065e-07
1.54658e-05
-6.54254e-06
1.19811e-05
3.28621e-06
3.04751e-06
0.0283506
0.0856037
0.0269683
0.0232886
0.0113258
0.00422233
0.00282527
0.00278117
0.00283105
0.00312799
0.00519289
0.0104608
0.0153659
0.00751855
0.00256294
0.00542387
0.0451682
0.0359236
0.0290081
0.020856
0.0134197
0.00893218
0.00890529
0.0121103
0.0181922
0.0246433
0.0284526
0.0299137
0.0300536
0.0298442
0.0290843
0.0278602
0.0264241
0.0254426
0.0251042
0.0256904
0.0268634
0.0287909
0.0307732
0.0330279
0.0352055
0.0370456
0.0381899
0.0398098
0.0455397
0.0542533
0.00250661
0.0046785
0.00660161
0.00446119
0.00222854
0.00034181
0.000225375
0.00107721
0.00930563
0.024535
0.0367906
0.0373465
0.0308884
0.0205027
0.0139119
0.0117113
0.0113719
0.0117773
0.0113787
0.0118003
0.0117867
0.0131994
0.0140768
0.0156109
0.0157753
0.0144027
0.0100079
0.00569138
0.00399273
0.0062451
0.00249532
0.0076327
0.00747827
0.00163441
0.000153132
0.000125268
0.000107095
0.000706161
0.00255949
0.00281788
0.00216776
0.00175505
0.00244517
0.00238938
0.00287706
0.00275901
0.00343164
0.00335981
0.00376073
0.0036889
0.00322579
0.0026994
0.002356
0.00221827
0.00216525
0.00231819
0.00248631
0.00254825
0.00330326
0.00496055
0.000122021
6.2111e-05
0.000107818
0.000308809
0.00087319
0.000674903
0.000946467
0.00147168
0.00214345
0.0026387
0.00295142
0.00310616
0.00309283
0.00300188
0.0028137
0.00268842
0.00265318
0.00253734
0.00253589
0.00260221
0.00279855
0.00293431
0.00291601
0.00251185
0.00203144
0.00172717
0.00157703
0.00200156
0.00349571
0.00658437
0.000366055
0.000116259
3.44463e-05
3.60289e-05
2.50377e-05
5.5718e-05
5.89482e-05
5.89184e-05
4.15583e-05
1.3728e-05
2.02874e-05
1.58851e-05
1.79419e-05
2.59073e-05
6.15903e-05
1.12677e-05
5.95488e-05
4.87672e-05
2.22404e-06
0.000107648
0.000104805
0.000104206
0.000105024
9.78984e-05
9.21182e-05
9.02289e-05
6.11133e-05
5.57428e-05
9.02158e-05
0.000228886
0.000256483
-4.10675e-05
0.000187353
0.000117284
5.83505e-05
0.00187747
0.007244
0.00453634
0.000419779
8.55309e-05
2.45151e-05
1.43561e-05
2.08155e-05
2.61219e-05
4.00322e-05
1.73052e-05
3.06956e-05
1.85472e-05
1.9276e-05
3.7909e-05
9.75974e-05
0.00234959
0.0181798
0.0311362
0.0332524
0.0272505
0.01797
0.01115
0.00713071
0.00705707
3.1913e-06
6.04585e-05
7.11239e-05
5.38907e-05
1.06077e-05
2.38245e-05
1.27093e-05
1.20924e-05
1.80532e-05
2.60166e-05
2.96953e-05
6.24892e-05
6.6862e-05
6.25898e-05
5.66288e-05
5.2051e-05
4.57075e-05
3.47978e-05
2.76973e-05
3.00559e-05
3.10199e-06
2.34693e-05
2.33485e-05
2.73935e-05
3.45546e-05
9.56075e-05
0.000244733
0.000391097
0.000267719
0.000182085
7.93004e-05
0.000341026
0.00167711
0.00308582
0.00476159
0.00642706
0.00743733
0.00771716
0.00755288
0.00662242
0.00587207
0.00546274
0.00529428
0.0057954
0.00644054
0.00687687
0.00741329
0.00665068
0.00355153
0.00133149
0.000279574
2.60146e-05
6.41992e-05
4.69829e-05
2.55982e-05
2.49065e-05
8.82189e-06
1.53477e-05
3.39354e-06
1.44041e-06
0.00100629
0.000155758
0.000647131
0.00144813
0.00133806
0.00100801
0.000857425
0.00079517
0.000999045
0.00126456
0.00153639
0.00185287
0.00209565
0.00235299
0.00306851
0.00399029
0.00462382
0.0049935
0.00512428
0.00318169
0.00166153
0.00026543
6.55242e-05
3.34914e-05
8.95308e-06
1.5055e-06
3.64971e-06
1.0573e-05
1.85612e-05
2.36651e-05
6.19736e-06
8.41925e-06
1.40189e-05
4.13864e-05
3.31184e-05
0.000200026
0.000335503
0.00142291
0.00203521
0.00301922
0.00438806
0.0042989
0.00407038
0.00301382
0.00220342
0.00149333
0.000469456
0.000133563
1.81748e-05
1.1016e-05
7.42624e-06
4.03598e-06
2.90827e-06
2.23606e-06
3.18548e-06
5.21364e-06
6.35807e-06
9.97321e-06
1.39347e-05
1.71582e-05
-5.64804e-07
1.06964e-05
2.24018e-05
3.75387e-05
7.98359e-06
1.05333e-05
3.81174e-06
4.53861e-06
5.27335e-06
7.15587e-07
5.35895e-06
4.23887e-06
1.77373e-06
1.56862e-06
1.66602e-06
4.65678e-06
2.27029e-07
-1.45812e-05
-4.28937e-05
0.00176117
0.0033641
0.00217054
0.000195181
1.17646e-05
-7.45806e-07
3.83781e-06
5.1939e-06
2.59808e-06
1.55789e-05
-0.000217416
0.0586781
9.65701e-06
6.2947e-07
2.80629e-07
2.96171e-07
2.10001e-07
2.27043e-07
3.90898e-08
2.05715e-07
4.75631e-07
4.24663e-07
9.17513e-07
1.08661e-06
1.06754e-06
9.19542e-07
5.98305e-07
1.80435e-07
5.22115e-07
3.84005e-07
1.81983e-07
1.63819e-07
1.02159e-07
8.7013e-08
2.6646e-06
2.2511e-05
2.14649e-05
3.29754e-06
6.75872e-06
0.0231534
0.0848813
0.0274289
0.0173246
0.00459245
0.00246282
0.00271114
0.00344345
0.0044917
0.00452672
0.00501393
0.00782477
0.0147566
0.0107945
0.00305294
0.00482062
0.042892
0.0309288
0.0226577
0.0139319
0.00698389
0.00406848
0.00427975
0.00837947
0.0169965
0.0248187
0.0278057
0.0282921
0.0284882
0.0283441
0.0266809
0.0242207
0.0212755
0.0191224
0.0183741
0.0192296
0.0216012
0.0243621
0.026995
0.0295881
0.0322507
0.0348878
0.0369243
0.0388979
0.0443341
0.053964
0.00280413
0.0077558
0.00996925
0.00495915
0.00148609
0.000235467
0.000193245
0.000347523
0.00269226
0.0150213
0.0349833
0.0366281
0.0289725
0.0181836
0.0131503
0.0117718
0.0106876
0.00967819
0.00858384
0.00751202
0.0072276
0.00765126
0.00904352
0.0119496
0.0143743
0.0161646
0.0146114
0.00924958
0.00468252
0.00571528
0.00269111
0.00809305
0.00535465
0.000430216
0.00010001
7.23037e-05
0.000121547
0.000465333
0.00338816
0.00294362
0.00231153
0.00215407
0.00290655
0.00290151
0.00293114
0.0027655
0.00300252
0.00300481
0.00368376
0.00402669
0.00453069
0.00467009
0.00462855
0.00430616
0.00380322
0.00344048
0.00301122
0.00266581
0.00293184
0.00451978
0.000112284
-4.70912e-07
0.000170648
0.00102615
0.00100931
0.000907056
0.00189748
0.0029902
0.00366298
0.00391958
0.00392213
0.00375716
0.00358347
0.00343043
0.00322297
0.00305643
0.00283488
0.00275863
0.00260343
0.00267679
0.00285913
0.00320905
0.00343621
0.00320466
0.00267133
0.00219287
0.00188703
0.00198108
0.00301693
0.00559519
0.000317227
9.8285e-05
1.66492e-05
2.31144e-05
3.4253e-05
7.41454e-05
9.73457e-05
0.000105691
0.000101634
6.35928e-05
2.84339e-05
1.71236e-05
1.41557e-05
5.61288e-05
4.85964e-05
9.46213e-05
1.46081e-05
0.000115129
0.000117612
0.000105058
0.00010779
9.96635e-05
0.000100959
0.00010614
0.000103923
0.000100534
7.91658e-05
5.9645e-05
8.14106e-05
0.000142507
0.000249933
0.000243001
9.73714e-05
6.08578e-05
0.000271408
0.00311648
0.00265807
0.000361602
9.25792e-05
4.26965e-05
5.81065e-05
0.000104686
-3.76599e-06
8.0853e-05
3.42909e-05
0.000102977
7.59594e-05
2.02115e-05
2.23309e-05
1.87675e-05
-3.85503e-06
0.00018149
0.00501182
0.0231157
0.0288334
0.0233541
0.0148399
0.00900988
0.0062443
0.00673786
9.2683e-05
5.22724e-05
4.32155e-05
-3.0771e-06
1.8118e-05
9.80543e-06
8.27683e-06
5.99482e-06
1.90314e-05
2.13652e-05
5.23034e-05
6.2452e-05
5.66679e-05
3.69705e-05
2.45735e-05
1.80614e-05
3.71791e-06
2.1887e-05
2.16027e-05
2.1508e-05
2.29908e-05
2.14252e-05
1.78966e-05
1.72928e-05
2.67032e-05
5.12228e-05
0.000109757
0.00038532
0.000318388
0.000189957
0.00156127
0.00263974
0.00324061
0.00416604
0.00527758
0.00564731
0.00500867
0.00346675
0.00289559
0.00256581
0.00233024
0.00232458
0.00265481
0.00273554
0.00319002
0.00404591
0.00554325
0.00723055
0.00746484
0.00385773
0.0013996
0.000317083
3.20029e-05
6.72051e-05
5.69108e-05
5.44449e-05
4.12894e-05
2.05807e-05
4.50682e-06
1.55154e-06
0.000301799
0.000315065
0.00104208
-8.98884e-05
0.000163653
0.000140572
0.000165006
0.000114139
0.000774672
0.0013479
0.00187744
0.00227011
0.00275862
0.00374396
0.00407915
0.00417394
0.00417797
0.00465392
0.00513635
0.00530938
0.00318701
0.00140807
0.000216727
5.81143e-05
1.86257e-05
1.23246e-05
4.76702e-06
1.29505e-05
2.15925e-05
2.31861e-05
1.41583e-05
4.03986e-06
2.77018e-05
-2.70908e-05
0.000226368
0.000750574
0.00212106
0.00519615
0.00899957
0.0129826
0.0147635
0.0154626
0.0142523
0.0128399
0.0103993
0.00747383
0.0040428
0.00179897
0.000174646
4.62566e-05
1.6241e-05
7.43843e-06
4.19469e-06
2.95898e-06
2.44088e-06
3.56889e-06
4.71861e-06
4.39031e-06
1.03807e-05
1.64875e-05
2.8952e-06
2.45287e-05
4.49964e-05
2.61005e-05
1.42319e-05
6.37861e-06
1.18825e-05
1.63908e-05
1.77724e-05
1.47311e-05
8.87049e-06
2.33974e-06
3.55654e-06
2.21501e-06
2.46942e-06
6.8885e-06
4.22192e-05
0.000197846
0.00152764
0.00774205
0.0161603
0.0189681
0.00653677
0.00016741
1.0797e-05
4.16814e-06
3.92712e-07
1.11463e-05
5.22077e-06
0.00015011
0.0228121
8.69559e-07
3.25702e-08
1.86502e-07
1.74535e-07
2.08364e-07
2.51625e-07
2.92401e-07
6.25799e-07
1.08955e-06
1.63131e-06
2.94986e-06
3.05597e-06
3.22135e-06
1.84551e-06
1.50139e-06
8.4772e-07
5.47858e-07
1.47057e-07
3.36062e-07
1.24863e-07
1.30385e-07
1.11347e-07
4.63337e-07
2.18817e-05
3.42662e-05
1.12229e-05
1.8872e-05
0.0261098
0.0854727
0.0270662
0.0107368
0.00259017
0.00260379
0.00448898
0.00829451
0.0118441
0.0119181
0.00921102
0.0101726
0.01546
0.0126415
0.00334239
0.0047667
0.0403282
0.0260728
0.017122
0.00862816
0.00368249
0.00281497
0.00324335
0.0063055
0.0166661
0.0250654
0.0263874
0.0272966
0.0282011
0.0278242
0.0250116
0.0207496
0.0165736
0.0142497
0.0137698
0.0146433
0.0171937
0.0210252
0.0248335
0.0275839
0.0300381
0.0330036
0.0356144
0.0382349
0.0438124
0.0535269
0.00295748
0.00912024
0.0107511
0.00415076
0.000784502
0.000156188
9.96396e-05
0.000165827
0.000287454
0.00475273
0.0294971
0.0345183
0.0260945
0.0160605
0.0124463
0.011103
0.00918934
0.00705735
0.00533094
0.00406541
0.00397923
0.00424221
0.00535696
0.00830636
0.0118228
0.0154538
0.0164629
0.0124071
0.00608114
0.00576321
0.00299
0.00810366
0.0030044
0.000240983
5.7509e-05
2.92016e-05
0.000100708
0.00143945
0.0037753
0.00278217
0.00255388
0.00262958
0.00322581
0.00289293
0.00318897
0.00281839
0.00384727
0.00372024
0.00400467
0.00409466
0.0046062
0.00537738
0.00596639
0.00634988
0.00638983
0.00578532
0.00458351
0.00329396
0.00293917
0.00429169
6.65554e-05
9.02652e-07
0.000254475
0.00139992
0.000908268
0.00186791
0.00335126
0.004108
0.0043568
0.00412041
0.0037809
0.00342564
0.00330569
0.00319928
0.00315865
0.00298885
0.00285049
0.0026607
0.00258209
0.00256211
0.00280379
0.00327732
0.00397268
0.00362889
0.00310493
0.00260805
0.00220958
0.00214327
0.00283257
0.00509901
0.000267968
6.99351e-05
1.35118e-05
6.38112e-06
3.95907e-05
3.49591e-05
5.36761e-05
8.37946e-05
0.000113418
9.60993e-05
2.43825e-05
2.22912e-05
2.37109e-05
-3.75975e-05
7.85637e-05
3.91163e-05
0.000121098
0.000104939
0.000103662
8.65368e-05
9.57403e-05
0.000103638
0.000101233
0.000115353
0.000107886
0.000108111
6.88544e-05
6.38912e-05
8.05933e-05
0.000116583
0.000257763
0.000182707
5.72025e-05
5.6928e-05
0.000138384
0.00133827
0.000290148
9.8327e-05
4.63998e-05
3.98039e-05
-5.90649e-05
0.000253147
0.000233335
0.000106451
4.71688e-05
0.000113502
0.000100517
5.80661e-05
3.21458e-05
2.0163e-05
2.87155e-05
9.40475e-05
0.00204867
0.0177463
0.0243932
0.02037
0.0136464
0.00777132
0.00559568
0.00651573
7.16476e-05
3.6015e-05
9.92217e-06
1.69192e-05
7.78469e-06
3.69949e-06
7.07491e-06
1.7272e-05
3.39513e-05
7.35725e-05
7.74813e-05
7.05163e-05
4.18676e-05
2.15091e-05
1.96024e-05
1.47693e-05
1.18197e-05
1.30524e-05
1.09713e-05
1.16544e-05
1.51188e-05
1.78083e-05
1.33702e-05
1.40155e-05
1.75984e-05
1.83417e-05
2.99813e-05
0.000361301
0.000343796
0.000208939
0.00305196
0.0028149
0.00297371
0.00328024
0.00378701
0.00325009
0.00258794
0.00178528
0.00134041
0.001505
0.00195908
0.00266909
0.00322323
0.00370075
0.00390597
0.00397965
0.00458802
0.00618662
0.00807961
0.00735105
0.00328648
0.000859732
0.0002469
2.00478e-05
7.76526e-05
7.04265e-05
5.48012e-05
5.87417e-06
4.19086e-06
1.71221e-06
0.000267782
0.000643647
0.000138576
6.66515e-05
5.35627e-05
0.000108669
0.000156476
0.000535771
0.00157516
0.00227518
0.0040761
0.00513644
0.00542486
0.00565074
0.00607084
0.00630155
0.00570066
0.00512785
0.00504179
0.00549058
0.00505269
0.00236586
0.000385449
7.47793e-05
4.26892e-05
1.30918e-05
1.27212e-05
2.09703e-05
2.8835e-05
2.36666e-05
5.64319e-06
2.15412e-05
6.35474e-05
0.0001156
0.000293297
0.00194247
0.00572237
0.0113408
0.0181409
0.0217375
0.0253104
0.0261383
0.0250848
0.0230525
0.0194835
0.0159238
0.0115047
0.0068109
0.00201319
0.000302042
9.63741e-06
1.48834e-05
6.67507e-06
3.76157e-06
3.40996e-06
3.53961e-06
4.27738e-06
7.59018e-07
1.02418e-05
1.56721e-05
5.34737e-06
7.07324e-06
-2.81777e-05
1.68336e-05
1.34603e-05
1.66181e-05
2.54902e-05
2.72534e-05
2.73603e-05
2.49348e-05
1.86317e-05
1.27788e-05
9.237e-07
3.3716e-06
3.21826e-06
1.05216e-05
-1.2712e-05
0.000136715
-3.84147e-06
0.00290709
0.017755
0.0218841
0.012433
0.000235226
1.00058e-05
3.77515e-06
4.38361e-06
8.9726e-06
-3.63264e-06
0.00013124
0.00121561
3.35439e-07
1.3407e-07
1.04924e-07
1.63769e-07
2.24913e-07
1.94473e-07
5.48595e-07
1.25117e-06
2.77111e-06
5.01996e-06
1.20569e-05
1.39905e-05
1.09456e-05
3.1813e-06
2.64403e-06
1.39008e-06
5.10779e-07
3.09975e-07
2.87531e-07
2.94436e-07
1.34347e-07
9.66813e-08
1.62566e-07
3.4291e-06
3.82264e-05
2.09511e-05
6.43367e-05
0.0400693
0.0875314
0.0265521
0.00736228
0.00251052
0.00326162
0.00768328
0.0122236
0.0166
0.0196038
0.018313
0.0166346
0.0179419
0.0139163
0.00376769
0.0048729
0.0375244
0.0218436
0.013055
0.00557167
0.00283091
0.00237206
0.00289298
0.00552009
0.01741
0.025205
0.0256135
0.026659
0.0284785
0.0275474
0.0238063
0.0182961
0.0142932
0.0122232
0.0123232
0.0137781
0.0165393
0.0205635
0.0246028
0.0267985
0.028706
0.0314855
0.0346214
0.0379395
0.0440392
0.0531707
0.002951
0.00854663
0.0095338
0.00304614
0.00040129
0.000133215
6.38464e-05
5.81374e-05
0.000120606
0.0018228
0.0248512
0.0323196
0.0235113
0.0145272
0.0121207
0.0101221
0.00726081
0.0045336
0.00373749
0.00350527
0.00349116
0.0036872
0.00407506
0.00670454
0.0100865
0.0146801
0.0170767
0.014094
0.00696043
0.00595355
0.00305263
0.00727321
0.00205651
-2.84576e-05
3.61298e-06
2.29287e-05
0.000213495
0.00270097
0.00383137
0.00261484
0.0027371
0.00301778
0.00324745
0.00301777
0.00471756
0.00550964
0.00688452
0.00664492
0.00659865
0.00635351
0.00637107
0.00683973
0.00746395
0.00808106
0.00837131
0.00761848
0.00579669
0.00359978
0.0028848
0.00438691
9.45557e-05
9.27227e-05
0.000749707
0.00126719
0.00149823
0.00320708
0.00432737
0.00441042
0.00409818
0.00371038
0.00336231
0.00311233
0.00306699
0.00305406
0.00295695
0.00289037
0.00281636
0.00269442
0.00253249
0.0026882
0.00290899
0.00347064
0.00414058
0.00389256
0.00331924
0.00284033
0.00249085
0.00231928
0.00282769
0.00496031
0.000241076
7.85148e-05
9.64252e-06
4.1993e-05
4.26004e-05
3.32258e-05
3.23013e-05
1.58956e-05
0.00010379
3.48082e-05
5.73926e-05
2.53721e-06
2.84454e-05
1.12172e-06
7.30245e-05
0.000116004
9.62202e-05
8.44976e-05
9.45353e-05
9.13439e-05
9.87504e-05
0.000107215
0.000116323
0.000119197
0.000120165
0.000104847
6.99304e-05
6.54189e-05
8.92993e-05
0.000126456
0.000229389
7.00034e-05
3.39089e-05
6.02942e-05
0.00019723
0.000146246
7.05774e-05
1.93088e-05
3.6223e-05
7.91539e-05
0.00029975
0.000348656
0.000196407
3.76892e-05
0.000106236
9.91293e-05
8.41274e-05
5.06049e-05
2.98088e-05
1.69173e-05
2.77643e-05
9.94089e-05
0.00218232
0.0164189
0.0217171
0.0194223
0.0137292
0.00725463
0.00502019
0.00649397
6.10429e-05
2.00683e-05
2.32424e-05
6.45539e-06
2.39803e-06
4.85644e-06
1.03542e-05
3.86795e-05
9.57508e-05
3.25078e-05
9.32867e-05
5.29509e-05
1.44796e-05
1.7035e-05
8.75189e-06
7.04422e-06
6.9001e-06
6.60988e-06
7.47206e-06
4.16318e-06
8.35355e-06
1.23793e-05
1.01642e-05
3.725e-06
1.09408e-05
3.14285e-06
7.06093e-05
0.000416693
0.000337068
0.000159462
0.00264019
0.00239845
0.00285401
0.003185
0.00312388
0.00242708
0.00147201
0.000812847
0.000961085
0.0018484
0.00318472
0.00764187
0.0112854
0.0131613
0.0111118
0.00790369
0.00651532
0.00661167
0.00825618
0.00876845
0.0055721
0.00221332
0.00042861
0.000178616
3.66942e-05
9.50734e-05
6.64622e-05
1.71509e-05
3.58833e-06
1.42717e-06
0.000302208
0.000195339
4.35816e-05
4.00104e-05
4.60656e-06
0.000108124
4.76604e-05
0.00123017
0.00262717
0.00522812
0.00617754
0.00554899
0.00472393
0.00430526
0.00481727
0.00590855
0.0062749
0.0055949
0.00498844
0.00528055
0.00559552
0.0032247
0.00127329
0.000196966
5.91165e-05
3.02949e-05
1.41995e-05
2.80075e-05
2.90159e-05
1.92681e-05
7.66993e-06
3.11047e-06
6.97895e-05
0.000197682
0.000746385
0.00234979
0.0076878
0.0152297
0.0230418
0.0281266
0.032236
0.0335556
0.0326831
0.0306043
0.026313
0.0225235
0.016899
0.0127378
0.00583446
0.00169843
0.000148307
3.15656e-05
1.18676e-05
2.77024e-06
3.78321e-06
3.67298e-06
4.30603e-06
3.10995e-06
1.03983e-05
-3.53428e-06
8.88009e-06
1.38821e-05
3.16992e-05
1.61891e-05
1.46427e-05
2.44385e-05
6.67009e-06
2.33634e-05
2.5909e-05
5.55357e-06
4.28475e-06
1.97686e-05
9.32045e-06
4.48765e-06
3.09306e-06
9.13367e-06
3.80012e-05
1.32019e-06
3.04176e-05
0.000210424
0.00262915
0.0105191
0.00146023
3.80151e-05