/*--------------------------------*- C++ -*----------------------------------*\
| =========                 |                                                 |
| \\      /  F ield         | OpenFOAM: The Open Source CFD Toolbox           |
|  \\    /   O peration     | Version:  2.1.1                                 |
|   \\  /    A nd           | Web:      www.OpenFOAM.org                      |
|    \\/     M anipulation  |                                                 |
\*---------------------------------------------------------------------------*/
FoamFile
{
    version     2.0;
    format      ascii;
    class       volScalarField;
    location    "0.000350000";
    object      mut;
}
// * * * * * * * * * * * * * * * * * * * * * * * * * * * * * * * * * * * * * //

dimensions      [1 -1 -1 0 0 0 0];

internalField   nonuniform List<scalar> 
12384
(
1.26262e-05
1.82926e-05
2.53387e-05
2.73424e-05
2.15016e-05
1.99692e-05
5.71344e-05
1.83366e-05
1.09422e-05
9.16401e-06
1.09719e-05
1.32304e-05
1.38399e-05
1.40031e-05
3.37695e-05
2.39749e-05
1.71091e-05
1.32992e-05
1.11132e-05
9.74496e-06
9.24098e-06
9.1999e-06
9.9161e-06
1.14701e-05
1.54405e-05
2.41423e-05
4.13976e-05
7.44249e-05
0.000131555
0.000138494
0.00013839
0.000138436
0.000138391
0.000138409
0.000138411
0.000138415
0.000138416
0.000138415
0.000138414
0.000138412
0.000138412
0.000138412
0.000138411
0.000138407
0.000138407
0.000138411
0.000138412
0.000138412
0.000138412
0.000138413
0.000138413
0.000138413
0.000138414
0.000138413
0.000138413
0.000138413
0.000138413
0.000138413
0.000138414
0.000138414
0.000138413
0.000138413
0.000138413
0.000138413
0.000138414
0.000138414
0.000138413
0.000138413
0.000138413
0.000138412
0.000138412
0.000138412
0.000138411
0.000138407
0.000138407
0.000138411
0.000138412
0.000138412
0.000138412
0.000138413
0.000138413
0.000138413
0.000138414
0.000138413
0.000138413
0.000138413
0.000138413
0.000138414
0.000138414
0.000138414
0.000138413
0.000138413
0.000138413
0.000138413
0.000138413
0.000138414
0.000138413
0.000138413
0.000138413
0.000138412
0.000138413
0.000138412
0.000138411
0.000138407
0.000138408
0.000138411
0.000138412
0.000138412
0.000138412
0.000138413
0.000138413
0.000138413
0.000138414
0.000138413
0.000138413
0.000138413
0.000138413
0.000138414
0.000138414
0.000138414
0.000138414
0.000138413
0.000138413
0.000138413
0.000138414
0.000138414
0.000138414
0.000138413
0.000138413
0.000138412
0.000138412
0.000138412
0.000138411
0.000138408
0.000138407
0.000138411
0.000138412
0.000138412
0.000138412
0.000138413
0.000138413
0.000138414
0.000138414
0.000138414
0.000138413
0.000138413
0.000138413
0.000138414
0.000138414
0.000138414
0.000138413
0.000138413
0.000138413
0.000138413
0.000138413
0.000138414
0.000138414
0.000138413
0.000138413
0.000138412
0.000138413
0.000138412
0.000138411
0.000138407
0.000138408
0.000138411
0.000138412
0.000138412
0.000138412
0.000138413
0.000138413
0.000138414
0.000138414
0.000138414
0.000138413
0.000138413
0.000138413
0.000138414
0.000138414
0.000138414
0.000138414
0.000138413
0.000138413
0.000138413
0.000138414
0.000138414
0.000138414
0.000138413
0.000138413
0.000138412
0.000138412
0.000138412
0.000138411
0.000138407
0.000138407
0.000138411
0.000138412
0.000138412
0.000138412
0.000138413
0.000138413
0.000138414
0.000138414
0.000138414
0.000138413
0.000138413
0.000138413
0.000138414
0.000138414
0.000138414
0.000138413
0.000138413
0.000138413
0.000138413
0.000138413
0.000138414
0.000138414
0.000138413
0.000138413
0.000138412
0.000138413
0.000138412
0.000138411
0.000138407
0.000138407
0.000138411
0.000138412
0.000138412
0.000138412
0.000138413
0.000138413
0.000138414
0.000138414
0.000138414
0.000138413
0.000138413
0.000138413
0.000138414
0.000138414
0.000138414
0.000138413
0.000138413
0.000138413
0.000138413
0.000138413
0.000138414
0.000138413
0.000138413
0.000138413
0.000138412
0.000138413
0.000138412
0.000138411
0.000138407
0.000138407
0.000138411
0.000138412
0.000138413
0.000138412
0.000138413
0.000138413
0.000138413
0.000138414
0.000138413
0.000138413
0.000138413
0.000138413
0.000138413
0.000138414
0.000138414
0.000138414
0.000138413
0.000138413
0.000138413
0.000138413
0.000138414
0.000138414
0.000138413
0.000138413
0.000138412
0.000138412
0.000138412
0.000138411
0.000138407
0.000138407
0.000138411
0.000138412
0.000138412
0.000138412
0.000138413
0.000138413
0.000138414
0.000138414
0.000138414
0.000138413
0.000138413
0.000138413
0.000138414
0.000138414
0.000138414
0.000138413
0.000138413
0.000138413
0.000138413
0.000138414
0.000138414
0.000138414
0.000138413
0.000138413
0.000138412
0.000138412
0.000138412
0.000138411
0.000138407
0.000138408
0.000138411
0.000138412
0.000138412
0.000138412
0.000138413
0.000138413
0.000138414
0.000138414
0.000138414
0.000138413
0.000138413
0.000138413
0.000138414
0.000138414
0.000138414
0.000138414
0.000138413
0.000138413
0.000138413
0.000138414
0.000138414
0.000138414
0.000138413
0.000138413
0.000138412
0.000138412
0.000138412
0.000138411
0.000138408
0.000138407
0.000138411
0.000138412
0.000138412
0.000138412
0.000138414
0.000138414
0.000138415
0.000138414
0.000138415
0.000138413
0.000138414
0.000138413
0.000138414
0.000138413
0.000138413
0.000138413
0.000138413
0.000138413
0.000138413
0.000138413
0.000138413
0.000138413
0.000138412
0.000138412
0.000138411
0.000138411
0.000138411
0.00013841
0.000138407
6.3456e-06
1.34244e-05
1.53925e-05
1.65182e-05
1.81605e-05
1.18895e-05
2.16642e-05
3.13684e-05
2.55424e-05
1.4583e-05
1.09132e-05
8.32623e-06
7.11666e-06
5.83892e-06
1.38319e-05
1.32653e-05
1.19734e-05
1.0599e-05
9.48336e-06
8.70586e-06
8.2518e-06
8.06008e-06
8.26296e-06
9.46843e-06
1.14408e-05
1.65664e-05
2.8044e-05
5.49809e-05
0.000114601
0.000218963
0.000424469
0.000781024
0.000929291
0.000906907
0.000877061
0.000880229
0.00091808
0.000963515
0.000932344
0.000887358
0.000864488
0.000863393
0.000864498
0.000138591
0.000138591
0.000871959
0.000882961
0.000882701
0.000880674
0.000889508
0.000922258
0.000969711
0.0010054
0.0010601
0.00109183
0.00108657
0.00108257
0.00108345
0.00108944
0.00108996
0.00108495
0.00108418
0.00108384
0.00108431
0.00105672
0.000998211
0.000967444
0.000924088
0.000893904
0.000880552
0.000877515
0.00087909
0.000870938
0.000138591
0.000138591
0.00087121
0.000881536
0.000878542
0.00088189
0.000891841
0.000926003
0.000968046
0.000999962
0.00105929
0.00108546
0.00108313
0.00108263
0.0010846
0.00108899
0.00108944
0.00108494
0.00108252
0.00107606
0.00107246
0.00104604
0.000997215
0.000960138
0.000919928
0.000893477
0.000880717
0.000877359
0.000878203
0.000871696
0.000138591
0.000138591
0.000872526
0.000882757
0.000879794
0.000882617
0.0008931
0.000925871
0.000967402
0.000999737
0.00105782
0.0010797
0.00107987
0.00108099
0.00108401
0.00108904
0.00108918
0.00108416
0.00107748
0.00107437
0.00107336
0.00105025
0.000997184
0.000964696
0.000923505
0.000895309
0.00088134
0.0008774
0.000881722
0.000872646
0.000138591
0.000138591
0.000871588
0.000881319
0.000880558
0.000882196
0.00088998
0.00092365
0.000966912
0.00100181
0.0010587
0.00109035
0.00108564
0.00108483
0.00108468
0.00108956
0.00108974
0.00108469
0.00108298
0.00107875
0.00107984
0.00105403
0.000997248
0.000963935
0.00092263
0.000894416
0.000880618
0.0008777
0.000879924
0.000871802
0.000138591
0.000138591
0.000872329
0.000880488
0.000876388
0.000880938
0.000895098
0.000922118
0.000963063
0.000996921
0.00104781
0.00107112
0.00107314
0.00107664
0.00108397
0.00108904
0.00108917
0.00108325
0.00108282
0.00108483
0.00109071
0.00106079
0.00100481
0.000968824
0.000921872
0.000889437
0.000880716
0.000882385
0.000882384
0.000871801
0.000138591
0.000138591
0.000869602
0.00087597
0.000876028
0.000880526
0.000891095
0.000917095
0.000959719
0.00100107
0.00104847
0.00107225
0.00108272
0.0010844
0.00108477
0.00108937
0.00109042
0.00108443
0.00108267
0.00107712
0.00107437
0.00104773
0.000996482
0.000961358
0.000920649
0.000893608
0.000880859
0.000877564
0.000878067
0.000871388
0.000138591
0.000138591
0.000871528
0.000877017
0.000876108
0.000880508
0.000892439
0.000919889
0.0009626
0.000997303
0.00104796
0.00107706
0.00108644
0.00108487
0.00108412
0.00108922
0.001091
0.00108401
0.00108166
0.00107487
0.00107085
0.00104464
0.000996836
0.000959884
0.000919701
0.000893228
0.000880929
0.000877537
0.000877609
0.000871254
0.000138591
0.000138591
0.000870322
0.000875456
0.000876756
0.000880383
0.000891096
0.000918014
0.000960014
0.00100138
0.0010463
0.00107432
0.00108341
0.00108568
0.00108449
0.00108971
0.00108983
0.00108312
0.00108294
0.0010841
0.00108615
0.00105997
0.00100473
0.000968735
0.00092221
0.000889755
0.000881207
0.000882516
0.000882211
0.000872584
0.000138591
0.000138591
0.000870596
0.000874959
0.000874794
0.000880506
0.000891313
0.00091681
0.000959706
0.00100183
0.00104871
0.00107124
0.00108258
0.00108481
0.00108456
0.00108955
0.00109059
0.00108402
0.001083
0.00107952
0.00107992
0.00105426
0.000996087
0.000966375
0.000924227
0.000894712
0.000880597
0.000878231
0.000881049
0.000872059
0.000138591
0.000138591
0.000870916
0.000878457
0.000876078
0.000880796
0.000893168
0.000918566
0.000958933
0.000996735
0.00104411
0.00106769
0.00107282
0.00107821
0.00108494
0.00109013
0.00109036
0.00108494
0.00108162
0.001077
0.00107141
0.00104666
0.000997562
0.000958452
0.000917814
0.000892523
0.000881141
0.00087686
0.000877716
0.000870344
0.000138591
0.000138591
0.000869616
0.000878142
0.000882292
0.00089371
0.000917451
0.000955448
0.00100092
0.00101831
0.0010429
0.0010427
0.00105624
0.0010815
0.00108444
0.00108935
0.00109415
0.00108334
0.00108822
0.00110337
0.00112495
0.00108076
0.00103834
0.00100308
0.00095445
0.000917551
0.000894506
0.000885678
0.000883581
0.000876144
0.00013859
4.07421e-06
1.08148e-05
1.30952e-05
1.56657e-05
2.183e-05
1.7258e-05
3.04523e-05
4.03176e-05
6.73731e-05
2.21368e-05
1.03192e-05
6.99412e-06
5.77833e-06
4.85075e-06
1.09e-05
1.1076e-05
1.11602e-05
1.10838e-05
1.08024e-05
1.05656e-05
1.0255e-05
1.02057e-05
1.03878e-05
1.09989e-05
1.30627e-05
1.73922e-05
2.75713e-05
5.30413e-05
0.000131539
0.000299695
0.000512216
0.000812479
0.00107059
0.00128583
0.00140474
0.00123452
0.00104337
0.000925535
0.000879349
0.000883598
0.000892784
0.000871242
0.000830405
0.000180431
0.000180431
0.000825481
0.000856175
0.000869451
0.000888973
0.000934154
0.000989519
0.00103744
0.00109948
0.00118752
0.00124371
0.0012768
0.00132343
0.00135815
0.00139492
0.00139451
0.00135868
0.00132451
0.00128
0.00123473
0.00118065
0.00109254
0.00102872
0.000975336
0.000927377
0.000888639
0.000873984
0.000857875
0.000824525
0.000180431
0.000180431
0.000824393
0.000857333
0.000873068
0.000889925
0.000929837
0.00098333
0.00102967
0.00109863
0.00117948
0.00123969
0.00127352
0.00132418
0.00135687
0.00139693
0.00139427
0.00135931
0.00131417
0.00127146
0.00122974
0.00117589
0.00108172
0.00102368
0.00096862
0.000922099
0.000888593
0.000875908
0.00085816
0.000825452
0.000180431
0.000180431
0.00082469
0.000855482
0.00087307
0.000890593
0.000930096
0.000982305
0.00102759
0.00109501
0.00117693
0.00123801
0.00126869
0.00132056
0.0013559
0.00139947
0.00139773
0.00135133
0.00131935
0.0012677
0.00123718
0.00117317
0.00108946
0.00102073
0.00097638
0.000926288
0.000892461
0.000876166
0.000855935
0.000824611
0.000180431
0.000180431
0.000824841
0.000855854
0.000870138
0.000887754
0.000933796
0.000986624
0.00103515
0.00109846
0.0011901
0.00124503
0.00127662
0.00132312
0.00135575
0.00139592
0.00139353
0.00135992
0.00131899
0.00127517
0.00123239
0.00117767
0.00108523
0.00102499
0.00097324
0.000926671
0.00089014
0.000875345
0.000857559
0.000824699
0.000180431
0.000180431
0.000824971
0.000856582
0.000876613
0.000891872
0.000924032
0.000974071
0.00101959
0.00108794
0.00117185
0.00123618
0.0012669
0.00131859
0.00134985
0.00139692
0.00139603
0.00136077
0.00132397
0.00127441
0.00124101
0.00118699
0.00110003
0.00103805
0.000988355
0.000935214
0.000888324
0.000869656
0.000856373
0.000824628
0.000180431
0.000180431
0.000827383
0.000862012
0.000877102
0.00088819
0.000918315
0.00097188
0.00102265
0.00108794
0.00116308
0.00122835
0.00127332
0.00132789
0.00135872
0.00139681
0.00139466
0.00136278
0.00131724
0.0012728
0.00123117
0.0011767
0.0010831
0.00102394
0.000969662
0.000923199
0.000888752
0.000876074
0.000859226
0.000825443
0.000180431
0.000180431
0.000828459
0.000860216
0.000875382
0.000888423
0.000920025
0.000973068
0.00102194
0.00108873
0.00116615
0.0012338
0.00127935
0.00132918
0.00135858
0.00139739
0.00139587
0.00136224
0.00131473
0.00127204
0.0012299
0.00117587
0.00108228
0.00102398
0.000968034
0.000921213
0.000888024
0.00087626
0.000859326
0.000826016
0.000180431
0.000180431
0.000827374
0.000861373
0.000876356
0.000886822
0.000920699
0.000968844
0.00102661
0.0010831
0.00117013
0.00122441
0.00128133
0.00132601
0.0013623
0.00139213
0.0013978
0.00135612
0.00132188
0.0012747
0.0012411
0.00118409
0.00110067
0.00103817
0.000987777
0.000935267
0.000888184
0.000869144
0.000856105
0.000825662
0.000180431
0.000180431
0.000831273
0.000862347
0.000878261
0.000889157
0.000916954
0.000970813
0.00102194
0.00108684
0.00116121
0.00122669
0.00127363
0.0013299
0.00136075
0.00139706
0.00139429
0.00136163
0.00131784
0.00127525
0.00123516
0.00118004
0.00108769
0.00102577
0.000975614
0.000928665
0.0008905
0.000874465
0.000856767
0.000824368
0.000180431
0.000180431
0.000826104
0.000857886
0.000876756
0.00088919
0.000918293
0.000970333
0.00101998
0.00108717
0.00116857
0.00123372
0.00126471
0.0013193
0.00135362
0.0013975
0.00139554
0.00135817
0.00132309
0.0012661
0.00123455
0.00116809
0.00108714
0.00102051
0.00097063
0.000918211
0.000888513
0.000876865
0.000860202
0.000826685
0.000180431
0.000180431
0.000835124
0.000861803
0.000867435
0.000873615
0.000894588
0.000943201
0.000996812
0.0010707
0.00116074
0.00125555
0.00131307
0.00137026
0.00140357
0.00142629
0.00144378
0.00136681
0.00131505
0.0012744
0.00125813
0.00118205
0.00107971
0.00101452
0.00095692
0.000913515
0.000877018
0.000862312
0.000844091
0.000816126
0.00018043
5.51598e-07
1.27453e-06
3.09797e-05
2.79762e-05
4.79058e-05
4.90052e-05
5.874e-05
6.19695e-05
5.532e-05
2.69181e-05
1.09828e-05
5.531e-06
4.61261e-06
3.95914e-06
7.81306e-06
7.9791e-06
8.30347e-06
8.60091e-06
8.8381e-06
9.02808e-06
8.99789e-06
9.00944e-06
9.00207e-06
9.19991e-06
1.00514e-05
1.20538e-05
1.68465e-05
2.92071e-05
6.18506e-05
0.000155321
0.000442005
0.0010964
0.00165903
0.0016588
0.00165887
0.00165883
0.00165886
0.00165885
0.00165887
0.00165886
0.00165885
0.0016588
0.00163005
0.000178521
0.000178521
0.00163005
0.0016588
0.00165886
0.00165885
0.00165887
0.00165886
0.00165887
0.00165886
0.00165887
0.00165887
0.00165887
0.00165887
0.00165888
0.00165888
0.00165888
0.00165888
0.00165888
0.00165886
0.00165888
0.00165886
0.00165887
0.00165885
0.00165886
0.00165885
0.00165886
0.00165885
0.0016588
0.00163006
0.000178521
0.000178521
0.00163005
0.0016588
0.00165885
0.00165885
0.00165887
0.00165885
0.00165887
0.00165885
0.00165887
0.00165886
0.00165888
0.00165887
0.00165888
0.00165888
0.00165888
0.00165887
0.00165888
0.00165886
0.00165888
0.00165885
0.00165887
0.00165884
0.00165886
0.00165885
0.00165886
0.00165885
0.0016588
0.00163006
0.00017852
0.000178521
0.00163005
0.0016588
0.00165885
0.00165885
0.00165887
0.00165885
0.00165887
0.00165885
0.00165887
0.00165886
0.00165888
0.00165886
0.00165888
0.00165887
0.00165887
0.00165888
0.00165886
0.00165888
0.00165885
0.00165887
0.00165885
0.00165887
0.00165885
0.00165887
0.00165885
0.00165885
0.0016588
0.00163005
0.000178521
0.000178521
0.00163005
0.00165881
0.00165885
0.00165886
0.00165886
0.00165887
0.00165886
0.00165887
0.00165887
0.00165887
0.00165887
0.00165887
0.00165888
0.00165888
0.00165888
0.00165887
0.00165888
0.00165886
0.00165888
0.00165885
0.00165887
0.00165885
0.00165886
0.00165885
0.00165886
0.00165885
0.0016588
0.00163006
0.000178521
0.000178521
0.00163005
0.0016588
0.00165885
0.00165885
0.00165886
0.00165885
0.00165887
0.00165884
0.00165887
0.00165885
0.00165888
0.00165886
0.00165888
0.00165887
0.00165888
0.00165888
0.00165887
0.00165887
0.00165887
0.00165887
0.00165887
0.00165886
0.00165886
0.00165886
0.00165886
0.00165885
0.00165881
0.00163005
0.000178521
0.000178521
0.00163005
0.0016588
0.00165885
0.00165884
0.00165886
0.00165884
0.00165887
0.00165884
0.00165887
0.00165885
0.00165888
0.00165886
0.00165888
0.00165887
0.00165888
0.00165887
0.00165888
0.00165886
0.00165888
0.00165885
0.00165887
0.00165884
0.00165886
0.00165885
0.00165886
0.00165885
0.0016588
0.00163006
0.00017852
0.000178521
0.00163005
0.0016588
0.00165885
0.00165884
0.00165886
0.00165884
0.00165887
0.00165884
0.00165887
0.00165886
0.00165887
0.00165887
0.00165888
0.00165887
0.00165888
0.00165887
0.00165888
0.00165886
0.00165888
0.00165885
0.00165887
0.00165884
0.00165886
0.00165885
0.00165886
0.00165885
0.0016588
0.00163006
0.00017852
0.000178521
0.00163005
0.0016588
0.00165885
0.00165886
0.00165885
0.00165886
0.00165884
0.00165887
0.00165885
0.00165888
0.00165886
0.00165888
0.00165887
0.00165888
0.00165887
0.00165888
0.00165887
0.00165888
0.00165887
0.00165887
0.00165886
0.00165886
0.00165886
0.00165886
0.00165886
0.00165885
0.00165881
0.00163005
0.000178521
0.000178521
0.00163005
0.0016588
0.00165885
0.00165884
0.00165886
0.00165884
0.00165887
0.00165884
0.00165887
0.00165885
0.00165888
0.00165887
0.00165888
0.00165887
0.00165888
0.00165887
0.00165888
0.00165886
0.00165888
0.00165885
0.00165887
0.00165885
0.00165886
0.00165885
0.00165886
0.00165885
0.0016588
0.00163005
0.000178521
0.000178521
0.00163005
0.0016588
0.00165885
0.00165884
0.00165886
0.00165884
0.00165887
0.00165884
0.00165887
0.00165885
0.00165888
0.00165886
0.00165888
0.00165887
0.00165888
0.00165888
0.00165887
0.00165888
0.00165885
0.00165887
0.00165884
0.00165887
0.00165884
0.00165886
0.00165884
0.00165885
0.0016588
0.00163005
0.000178521
0.000178521
0.00163005
0.00165881
0.00165885
0.00165885
0.00165887
0.00165885
0.00165887
0.00165885
0.00165888
0.00165885
0.00165888
0.00165888
0.00165888
0.00165889
0.00165888
0.00165888
0.00165886
0.00165888
0.00165887
0.00165885
0.00165886
0.00165884
0.00165886
0.00165885
0.00165885
0.00165885
0.0016588
0.00163
0.00017852
6.27089e-07
9.27008e-07
2.91605e-06
2.241e-05
4.50106e-05
6.01856e-05
7.6913e-05
8.12824e-05
6.03396e-05
3.35494e-05
1.14355e-05
5.18148e-06
4.03564e-06
3.56386e-06
5.98562e-06
6.03257e-06
6.38466e-06
6.74179e-06
7.25329e-06
7.69876e-06
7.95361e-06
8.10807e-06
8.12224e-06
8.19976e-06
8.34622e-06
9.11963e-06
1.13066e-05
1.65705e-05
3.00251e-05
6.75774e-05
0.000196725
0.000640874
0.00161248
0.0016126
0.00161245
0.00161249
0.00161246
0.00161249
0.00161249
0.00161249
0.00161249
0.00161244
0.00158426
0.000172802
0.000172802
0.00158426
0.00161243
0.00161249
0.00161249
0.00161248
0.00161249
0.00161248
0.00161249
0.00161248
0.00161249
0.0016125
0.0016125
0.0016125
0.00161249
0.00161249
0.0016125
0.0016125
0.00161249
0.00161249
0.00161248
0.00161249
0.00161248
0.00161249
0.00161248
0.00161249
0.00161249
0.00161243
0.00158427
0.000172802
0.000172802
0.00158426
0.00161243
0.00161249
0.00161248
0.00161249
0.00161249
0.00161249
0.00161248
0.00161248
0.00161249
0.0016125
0.0016125
0.0016125
0.0016125
0.00161249
0.0016125
0.0016125
0.00161249
0.00161249
0.00161248
0.00161249
0.00161248
0.00161249
0.00161248
0.00161249
0.00161249
0.00161243
0.00158427
0.000172803
0.000172802
0.00158426
0.00161243
0.00161249
0.00161249
0.00161249
0.00161249
0.00161249
0.00161248
0.00161249
0.00161249
0.0016125
0.0016125
0.0016125
0.0016125
0.0016125
0.0016125
0.0016125
0.0016125
0.00161249
0.00161249
0.00161248
0.00161249
0.00161248
0.00161249
0.00161248
0.00161249
0.00161243
0.00158426
0.000172802
0.000172802
0.00158426
0.00161243
0.00161249
0.00161249
0.00161248
0.00161249
0.00161249
0.00161248
0.00161248
0.00161249
0.0016125
0.0016125
0.0016125
0.0016125
0.00161249
0.0016125
0.0016125
0.00161249
0.00161249
0.00161248
0.00161249
0.00161248
0.00161249
0.00161248
0.00161249
0.00161249
0.00161243
0.00158427
0.000172803
0.000172802
0.00158426
0.00161243
0.00161249
0.00161248
0.00161249
0.00161248
0.00161249
0.00161248
0.00161249
0.00161249
0.0016125
0.0016125
0.0016125
0.0016125
0.0016125
0.0016125
0.00161249
0.0016125
0.00161249
0.00161249
0.00161249
0.00161249
0.00161249
0.00161248
0.00161248
0.00161249
0.00161243
0.00158426
0.000172802
0.000172802
0.00158426
0.00161243
0.00161249
0.00161248
0.00161249
0.00161248
0.00161249
0.00161248
0.00161249
0.00161249
0.0016125
0.0016125
0.0016125
0.0016125
0.0016125
0.0016125
0.0016125
0.00161249
0.00161249
0.00161248
0.00161249
0.00161248
0.00161249
0.00161248
0.00161249
0.00161249
0.00161243
0.00158427
0.000172803
0.000172802
0.00158425
0.00161243
0.00161249
0.00161248
0.00161249
0.00161248
0.00161249
0.00161248
0.00161249
0.00161249
0.0016125
0.0016125
0.0016125
0.0016125
0.0016125
0.0016125
0.0016125
0.00161249
0.00161249
0.00161248
0.00161249
0.00161248
0.00161249
0.00161248
0.00161249
0.00161249
0.00161243
0.00158427
0.000172803
0.000172803
0.00158427
0.00161243
0.00161249
0.00161249
0.00161248
0.00161249
0.00161248
0.00161249
0.00161248
0.00161249
0.00161249
0.00161249
0.0016125
0.0016125
0.0016125
0.0016125
0.0016125
0.0016125
0.00161249
0.00161249
0.00161248
0.00161249
0.00161249
0.00161249
0.00161248
0.00161249
0.00161243
0.00158426
0.000172802
0.000172802
0.00158425
0.00161243
0.00161249
0.00161248
0.00161249
0.00161248
0.00161249
0.00161248
0.00161249
0.00161249
0.0016125
0.0016125
0.0016125
0.0016125
0.0016125
0.0016125
0.0016125
0.00161249
0.00161249
0.00161248
0.00161249
0.00161248
0.00161249
0.00161248
0.00161249
0.00161249
0.00161243
0.00158427
0.000172802
0.000172802
0.00158426
0.00161243
0.00161249
0.00161248
0.00161249
0.00161248
0.00161249
0.00161248
0.00161249
0.00161249
0.0016125
0.0016125
0.0016125
0.0016125
0.0016125
0.0016125
0.00161249
0.0016125
0.00161249
0.00161249
0.00161248
0.00161249
0.00161248
0.00161249
0.00161248
0.00161249
0.00161243
0.00158426
0.000172802
0.000172802
0.00158426
0.00161243
0.00161249
0.00161249
0.00161249
0.00161248
0.00161249
0.00161249
0.00161249
0.00161249
0.0016125
0.0016125
0.0016125
0.0016125
0.0016125
0.0016125
0.00161249
0.00161249
0.0016125
0.00161249
0.00161249
0.00161249
0.00161249
0.00161248
0.00161249
0.00161249
0.00161243
0.00158428
0.000172803
3.55528e-07
5.75473e-07
2.48267e-06
3.21469e-06
2.17784e-05
2.74253e-05
7.95989e-05
8.9548e-05
7.04667e-05
3.03238e-05
1.36698e-05
6.27113e-06
3.72463e-06
3.38891e-06
4.79396e-06
4.77492e-06
5.15907e-06
5.6303e-06
6.30861e-06
7.23042e-06
7.43898e-06
7.62198e-06
7.63855e-06
7.54724e-06
7.56353e-06
7.80254e-06
8.77396e-06
1.12219e-05
1.70505e-05
3.27778e-05
8.9747e-05
0.000245616
0.000590582
0.00146484
0.00156528
0.00156514
0.00156518
0.00156517
0.00156518
0.00156519
0.00156518
0.00156512
0.00153855
0.000167148
0.000167148
0.00153855
0.00156512
0.00156517
0.00156518
0.00156518
0.00156518
0.00156518
0.00156518
0.00156518
0.00156518
0.00156519
0.00156518
0.00156518
0.00156517
0.00156518
0.00156518
0.00156518
0.00156518
0.00156518
0.00156518
0.00156518
0.00156518
0.00156518
0.00156518
0.00156518
0.00156517
0.00156512
0.00153855
0.000167148
0.000167148
0.00153855
0.00156512
0.00156517
0.00156518
0.00156518
0.00156518
0.00156518
0.00156518
0.00156518
0.00156518
0.00156519
0.00156518
0.00156518
0.00156518
0.00156518
0.00156518
0.00156518
0.00156519
0.00156518
0.00156518
0.00156518
0.00156518
0.00156518
0.00156518
0.00156518
0.00156517
0.00156512
0.00153855
0.000167148
0.000167148
0.00153855
0.00156512
0.00156517
0.00156518
0.00156518
0.00156518
0.00156518
0.00156518
0.00156518
0.00156518
0.00156519
0.00156518
0.00156518
0.00156518
0.00156518
0.00156518
0.00156518
0.00156519
0.00156518
0.00156518
0.00156518
0.00156518
0.00156518
0.00156518
0.00156518
0.00156517
0.00156512
0.00153855
0.000167148
0.000167148
0.00153855
0.00156512
0.00156517
0.00156518
0.00156518
0.00156518
0.00156518
0.00156518
0.00156518
0.00156518
0.00156518
0.00156518
0.00156518
0.00156518
0.00156518
0.00156518
0.00156518
0.00156519
0.00156518
0.00156518
0.00156518
0.00156518
0.00156518
0.00156518
0.00156518
0.00156517
0.00156512
0.00153855
0.000167148
0.000167148
0.00153855
0.00156512
0.00156517
0.00156518
0.00156518
0.00156518
0.00156518
0.00156518
0.00156518
0.00156518
0.00156519
0.00156518
0.00156518
0.00156518
0.00156517
0.00156518
0.00156518
0.00156518
0.00156518
0.00156518
0.00156518
0.00156518
0.00156518
0.00156518
0.00156518
0.00156517
0.00156512
0.00153855
0.000167148
0.000167148
0.00153855
0.00156512
0.00156517
0.00156518
0.00156518
0.00156518
0.00156518
0.00156518
0.00156518
0.00156518
0.00156519
0.00156518
0.00156518
0.00156518
0.00156518
0.00156518
0.00156518
0.00156519
0.00156518
0.00156518
0.00156518
0.00156518
0.00156518
0.00156518
0.00156518
0.00156517
0.00156512
0.00153855
0.000167148
0.000167148
0.00153855
0.00156512
0.00156517
0.00156518
0.00156518
0.00156518
0.00156518
0.00156518
0.00156518
0.00156518
0.00156518
0.00156518
0.00156518
0.00156518
0.00156518
0.00156518
0.00156518
0.00156519
0.00156518
0.00156518
0.00156518
0.00156518
0.00156518
0.00156518
0.00156518
0.00156517
0.00156512
0.00153855
0.000167148
0.000167148
0.00153855
0.00156512
0.00156517
0.00156518
0.00156518
0.00156518
0.00156518
0.00156518
0.00156518
0.00156518
0.00156519
0.00156518
0.00156518
0.00156518
0.00156518
0.00156518
0.00156518
0.00156518
0.00156518
0.00156518
0.00156518
0.00156518
0.00156518
0.00156518
0.00156518
0.00156517
0.00156512
0.00153855
0.000167148
0.000167148
0.00153855
0.00156512
0.00156517
0.00156518
0.00156518
0.00156518
0.00156518
0.00156518
0.00156518
0.00156518
0.00156519
0.00156518
0.00156518
0.00156518
0.00156518
0.00156518
0.00156518
0.00156519
0.00156518
0.00156518
0.00156518
0.00156518
0.00156518
0.00156518
0.00156518
0.00156517
0.00156512
0.00153855
0.000167148
0.000167148
0.00153855
0.00156512
0.00156517
0.00156518
0.00156518
0.00156518
0.00156518
0.00156518
0.00156518
0.00156518
0.00156519
0.00156518
0.00156518
0.00156518
0.00156517
0.00156518
0.00156518
0.00156519
0.00156518
0.00156518
0.00156518
0.00156518
0.00156518
0.00156518
0.00156518
0.00156517
0.00156512
0.00153855
0.000167148
0.000167148
0.00153856
0.00156512
0.00156518
0.00156518
0.00156519
0.00156518
0.00156518
0.00156519
0.00156518
0.00156518
0.00156519
0.00156518
0.00156518
0.00156517
0.00156518
0.00156518
0.00156518
0.00156519
0.00156519
0.00156519
0.00156519
0.00156519
0.00156519
0.00156519
0.00156519
0.00156518
0.00156513
0.0015386
0.000167147
2.19027e-07
3.9667e-07
2.13388e-06
2.00733e-06
2.46451e-06
8.54149e-06
4.42761e-05
7.15659e-05
7.17451e-05
3.62007e-05
1.73085e-05
8.04577e-06
3.53875e-06
3.10654e-06
3.88959e-06
3.76678e-06
4.3758e-06
5.18021e-06
6.06817e-06
7.10524e-06
8.18395e-06
7.84326e-06
7.51503e-06
7.18605e-06
6.89832e-06
6.89969e-06
7.20631e-06
8.24683e-06
1.08742e-05
1.73355e-05
3.38508e-05
9.74511e-05
0.000300242
0.00121676
0.00147748
0.00147757
0.00147751
0.00147751
0.00147752
0.00147752
0.00147752
0.00147747
0.00145174
0.000156299
0.000156299
0.00145174
0.00147746
0.00147751
0.00147752
0.00147753
0.00147753
0.00147753
0.00147753
0.00147753
0.00147753
0.00147753
0.00147752
0.00147752
0.00147752
0.00147752
0.00147752
0.00147752
0.00147753
0.00147753
0.00147753
0.00147753
0.00147753
0.00147753
0.00147753
0.00147752
0.00147751
0.00147746
0.00145174
0.000156299
0.000156299
0.00145174
0.00147746
0.00147751
0.00147752
0.00147753
0.00147753
0.00147753
0.00147753
0.00147753
0.00147753
0.00147753
0.00147752
0.00147752
0.00147752
0.00147752
0.00147752
0.00147752
0.00147753
0.00147753
0.00147753
0.00147753
0.00147754
0.00147753
0.00147753
0.00147752
0.00147751
0.00147746
0.00145174
0.000156299
0.000156299
0.00145174
0.00147746
0.00147751
0.00147752
0.00147753
0.00147753
0.00147753
0.00147753
0.00147753
0.00147753
0.00147753
0.00147752
0.00147752
0.00147752
0.00147752
0.00147752
0.00147752
0.00147753
0.00147753
0.00147753
0.00147753
0.00147753
0.00147753
0.00147753
0.00147752
0.00147751
0.00147746
0.00145174
0.000156299
0.000156299
0.00145174
0.00147746
0.00147751
0.00147752
0.00147753
0.00147753
0.00147753
0.00147753
0.00147753
0.00147753
0.00147753
0.00147752
0.00147752
0.00147752
0.00147752
0.00147752
0.00147752
0.00147753
0.00147753
0.00147753
0.00147753
0.00147753
0.00147753
0.00147753
0.00147752
0.00147751
0.00147746
0.00145174
0.000156299
0.000156299
0.00145174
0.00147746
0.00147751
0.00147752
0.00147753
0.00147754
0.00147753
0.00147753
0.00147753
0.00147753
0.00147753
0.00147752
0.00147752
0.00147752
0.00147752
0.00147752
0.00147752
0.00147753
0.00147753
0.00147752
0.00147753
0.00147753
0.00147753
0.00147753
0.00147752
0.00147751
0.00147746
0.00145174
0.000156299
0.000156299
0.00145174
0.00147746
0.00147751
0.00147752
0.00147753
0.00147754
0.00147753
0.00147753
0.00147753
0.00147753
0.00147753
0.00147752
0.00147752
0.00147752
0.00147752
0.00147752
0.00147752
0.00147753
0.00147753
0.00147753
0.00147753
0.00147753
0.00147753
0.00147753
0.00147752
0.00147751
0.00147746
0.00145174
0.000156299
0.000156299
0.00145174
0.00147746
0.00147751
0.00147752
0.00147753
0.00147754
0.00147753
0.00147753
0.00147753
0.00147753
0.00147753
0.00147752
0.00147752
0.00147752
0.00147752
0.00147752
0.00147752
0.00147753
0.00147753
0.00147753
0.00147753
0.00147754
0.00147753
0.00147753
0.00147752
0.00147751
0.00147746
0.00145174
0.000156299
0.000156299
0.00145174
0.00147746
0.00147751
0.00147752
0.00147753
0.00147753
0.00147754
0.00147753
0.00147753
0.00147753
0.00147753
0.00147752
0.00147752
0.00147752
0.00147752
0.00147752
0.00147752
0.00147753
0.00147753
0.00147752
0.00147753
0.00147753
0.00147753
0.00147753
0.00147752
0.00147751
0.00147746
0.00145174
0.000156299
0.000156299
0.00145174
0.00147746
0.00147751
0.00147752
0.00147753
0.00147754
0.00147753
0.00147753
0.00147753
0.00147753
0.00147753
0.00147752
0.00147752
0.00147752
0.00147752
0.00147752
0.00147752
0.00147753
0.00147753
0.00147753
0.00147753
0.00147753
0.00147753
0.00147753
0.00147752
0.00147751
0.00147746
0.00145174
0.000156299
0.000156299
0.00145174
0.00147746
0.00147751
0.00147752
0.00147753
0.00147754
0.00147753
0.00147753
0.00147753
0.00147753
0.00147753
0.00147752
0.00147752
0.00147752
0.00147752
0.00147752