/*--------------------------------*- C++ -*----------------------------------*\
| =========                 |                                                 |
| \\      /  F ield         | OpenFOAM: The Open Source CFD Toolbox           |
|  \\    /   O peration     | Version:  2.1.1                                 |
|   \\  /    A nd           | Web:      www.OpenFOAM.org                      |
|    \\/     M anipulation  |                                                 |
\*---------------------------------------------------------------------------*/
FoamFile
{
    version     2.0;
    format      ascii;
    class       volScalarField;
    location    "0.003300000";
    object      fH;
}
// * * * * * * * * * * * * * * * * * * * * * * * * * * * * * * * * * * * * * //

dimensions      [0 0 0 0 0 0 0];

internalField   nonuniform List<scalar> 
12384
(
0.0226819
0.0219327
0.0212761
0.0200333
0.01944
0.0183835
0.0182497
0.0184018
0.0196015
0.02153
0.0248815
0.0269419
0.0276254
0.0272557
0.0198835
0.0197069
0.0199497
0.0205692
0.0212209
0.0217505
0.0221791
0.0224308
0.0225627
0.0226582
0.022777
0.0227805
0.0227246
0.0224901
0.0222266
0.0220352
0.0219348
0.0218214
0.0213836
0.0206784
0.0197862
0.0189113
0.0183309
0.0181746
0.01834
0.0197947
0.0220316
0.025925
0.0282754
0.0286814
0.0252184
0.0259758
0.0258713
0.0255344
0.0254952
0.0256934
0.0260396
0.0266964
0.0274094
0.0280763
0.0286807
0.0294229
0.0299525
0.0303539
0.0304929
0.0304848
0.0304464
0.0302809
0.0300408
0.0296786
0.029288
0.0290602
0.0288795
0.0279421
0.0256389
0.0226915
0.0205812
0.0202215
0.0214047
0.0250402
0.0291808
0.0297101
0.0294922
0.0298052
0.0303284
0.0307672
0.0307803
0.0303911
0.0298204
0.0292887
0.0288507
0.0286499
0.0284311
0.0287062
0.0282637
0.0286538
0.0285893
0.0286269
0.0288285
0.028762
0.0290947
0.0288886
0.0297092
0.0299987
0.0312533
0.0320346
0.031826
0.0279472
0.0233306
0.0247328
0.0281617
0.0298921
0.0303474
0.0314225
0.0314861
0.0325245
0.0327468
0.032882
0.0327784
0.0315974
0.031166
0.0303103
0.0296165
0.0292728
0.0284438
0.0279869
0.0275218
0.027001
0.0269615
0.0270793
0.0272961
0.0278886
0.0279245
0.0273437
0.0250116
0.02063
0.0201767
0.0224835
0.025837
0.0263705
0.0220598
0.0224948
0.0232245
0.0244123
0.026022
0.0271027
0.0280916
0.0288782
0.0292789
0.0293556
0.0292335
0.028365
0.0260459
0.0225913
0.019876
0.0191903
0.0195634
0.020036
0.0200799
0.0197663
0.0190836
0.0186823
0.0186899
0.0192418
0.019745
0.0202716
0.0219439
0.0231586
0.0237066
0.0235214
0.0224544
0.0239069
0.0295234
0.03759
0.0439683
0.0481798
0.0489924
0.0497888
0.0473192
0.0429733
0.0357382
0.0273598
0.0220951
0.0197602
0.018814
0.0183181
0.018018
0.0182038
0.0176869
0.0169544
0.0167782
0.0168549
0.0174557
0.0177618
0.0177851
0.017968
0.0186551
0.0192029
0.019246
0.0192524
0.0210087
0.0211323
0.0212609
0.0216937
0.0221527
0.0227027
0.0234804
0.0239718
0.0245304
0.0245719
0.0250791
0.0251734
0.0249877
0.0245037
0.0240653
0.0221177
0.0188111
0.0172983
0.0172271
0.0171081
0.017307
0.0173204
0.017664
0.0173307
0.017206
0.0172521
0.0176599
0.0182967
0.0191747
0.0197113
0.0191973
0.0181813
0.0179165
0.0175296
0.0173312
0.0172878
0.017313
0.0176426
0.0185737
0.0187143
0.0193427
0.0198377
0.0206646
0.0213755
0.0220705
0.0229926
0.023503
0.0241504
0.0243214
0.0245439
0.024203
0.0243102
0.0237641
0.0240482
0.0242501
0.0249599
0.0256108
0.0265594
0.0265834
0.0263212
0.0210375
0.0215119
0.0218622
0.0210085
0.0204118
0.019379
0.0192022
0.0189789
0.018736
0.0190325
0.0189027
0.0191076
0.0197582
0.0201447
0.0216793
0.0222716
0.023744
0.0244329
0.0254392
0.0263018
0.026607
0.0272479
0.0271603
0.0271429
0.0265918
0.0261585
0.0257663
0.0277476
0.0275286
0.027914
0.0170917
0.0171193
0.0172207
0.0173231
0.0171764
0.0169768
0.0172407
0.0169006
0.0176602
0.0174696
0.0181213
0.0179581
0.0190528
0.0189241
0.0198405
0.019882
0.0204412
0.0207843
0.0211327
0.0216443
0.0220409
0.0224774
0.0229743
0.0232479
0.0238241
0.0253429
0.0256176
0.0258656
0.0254655
0.0253906
0.0249221
0.0241416
0.0245763
0.0256844
0.0265708
0.0279847
0.0288989
0.0289781
0.0289754
0.0289738
0.0289714
0.0289692
0.0289661
0.0289634
0.0289612
0.0289612
0.0289633
0.0289661
0.0289693
0.0289713
0.0289731
0.0289747
0.0289764
0.028978
0.0289797
0.028981
0.0289827
0.0289841
0.0289893
0.0290651
0.0290648
0.0289897
0.028984
0.0289822
0.0289807
0.0289791
0.0289779
0.0289763
0.028975
0.0289734
0.028972
0.0289699
0.0289672
0.0289641
0.0289617
0.0289613
0.0289629
0.028966
0.0289689
0.028971
0.0289729
0.0289748
0.0289765
0.0289782
0.0289799
0.0289813
0.0289827
0.0289841
0.0289897
0.0290648
0.0228932
0.0252874
0.0279898
0.0287806
0.0277274
0.0257915
0.023023
0.020667
0.0188683
0.0189324
0.0211459
0.0245429
0.0271104
0.0266685
0.0188559
0.0194882
0.0211941
0.0226945
0.0234977
0.0238117
0.0237792
0.0236719
0.0235557
0.0235597
0.0237815
0.0242209
0.0247543
0.0252103
0.0254027
0.0253716
0.0252999
0.0250057
0.0239794
0.0225797
0.0210648
0.0196941
0.0185399
0.0180312
0.0183749
0.0201201
0.0229611
0.0264342
0.0284568
0.028588
0.0251768
0.0253359
0.0246473
0.0242076
0.0239578
0.0240667
0.0242494
0.0247369
0.0256633
0.0268468
0.0283184
0.0298205
0.0311434
0.0323638
0.033177
0.0334361
0.0332176
0.0331452
0.0325337
0.031525
0.0299886
0.0285996
0.0281499
0.0275078
0.0253129
0.0221953
0.020614
0.0209726
0.0230034
0.0258204
0.0291899
0.0296687
0.029603
0.0303504
0.0307941
0.0301479
0.0287563
0.027146
0.0257838
0.0248909
0.024455
0.0243424
0.0244876
0.0247331
0.0251682
0.0256706
0.0262515
0.0267573
0.0271896
0.0274461
0.0276291
0.0277173
0.0279895
0.0285021
0.0296103
0.0309462
0.0315517
0.028785
0.0236947
0.024542
0.0277543
0.0295263
0.0308965
0.0321825
0.033566
0.033935
0.0329501
0.031099
0.029046
0.0276855
0.0270575
0.0261978
0.0261569
0.0258014
0.0255478
0.0253376
0.0247629
0.0244966
0.0238695
0.0239643
0.024321
0.0256321
0.0260482
0.0259338
0.023766
0.0204287
0.0202512
0.0226752
0.0256112
0.0265657
0.0219157
0.0226028
0.0246177
0.027206
0.0293464
0.0294964
0.029475
0.0277794
0.0258342
0.0242382
0.0233158
0.0217015
0.0207327
0.0216986
0.0269945
0.0309142
0.035091
0.036318
0.0351586
0.0319855
0.0269024
0.0224855
0.0198002
0.0187268
0.0189585
0.0197805
0.0218215
0.0230394
0.0235751
0.0241908
0.0241868
0.0291407
0.0420816
0.0530839
0.0594091
0.0588861
0.0560984
0.0547091
0.0472988
0.0407398
0.0321567
0.0245821
0.0204264
0.0190808
0.0186827
0.0188475
0.0190931
0.0190684
0.0183003
0.0176349
0.0170153
0.0168789
0.0169933
0.0172988
0.0176116
0.0182606
0.0187906
0.0195318
0.0203219
0.0205322
0.0207597
0.0209101
0.0215005
0.0226313
0.0245834
0.0262174
0.0282485
0.0289907
0.0288826
0.0281109
0.0270328
0.0261542
0.0253865
0.0246693
0.0240322
0.0218175
0.0184397
0.0174383
0.0179339
0.0185418
0.0186819
0.0201928
0.019458
0.0184229
0.0178468
0.0168472
0.0167743
0.0174729
0.0186289
0.0194538
0.0195693
0.0202651
0.0206531
0.020651
0.0195748
0.0182126
0.0172866
0.0161903
0.0158673
0.0156511
0.0156406
0.0156828
0.0158667
0.0164792
0.0168675
0.0175799
0.0182194
0.0188558
0.0194373
0.0196843
0.0197224
0.019291
0.0189853
0.0186981
0.0189917
0.0195011
0.0210022
0.0221802
0.0242947
0.0240144
0.0198732
0.0204391
0.0203435
0.0181945
0.0173677
0.0161461
0.0159761
0.0159485
0.0153988
0.0149979
0.0146438
0.0146816
0.0144366
0.0145433
0.0142927
0.0149467
0.0151103
0.0156695
0.0173968
0.018997
0.0225385
0.0217211
0.0221044
0.0217093
0.0205043
0.0188652
0.019047
0.0223406
0.024181
0.0263155
0.0158158
0.0162017
0.0161146
0.015857
0.0161855
0.0163157
0.0158113
0.0162305
0.0157617
0.0160314
0.0158171
0.0168099
0.0162871
0.0171063
0.0166917
0.0174578
0.0170391
0.0175268
0.017142
0.0172163
0.0169653
0.0170174
0.0170051
0.0173043
0.0168634
0.0170709
0.0179535
0.0182577
0.017888
0.0186986
0.0147722
0.0145825
0.0152291
0.0153379
0.0163272
0.0174217
0.0194455
0.0221528
0.0250106
0.0262341
0.0262027
0.026197
0.0261468
0.026124
0.0260936
0.0260931
0.0261224
0.0261473
0.0261962
0.0262041
0.0262412
0.0262454
0.0262812
0.0262838
0.0263199
0.0263201
0.026355
0.0263587
0.026454
0.0279423
0.0278881
0.0264672
0.026355
0.0263527
0.026317
0.0263169
0.0262781
0.0262788
0.0262422
0.0262437
0.0262066
0.0262025
0.0261564
0.0261345
0.0260941
0.0261014
0.0261093
0.0261573
0.0261791
0.0262164
0.0262216
0.02626
0.026263
0.0263009
0.0263041
0.0263391
0.0263444
0.0263725
0.0264652
0.0278905
0.0333391
0.040189
0.0476893
0.0490282
0.0468902
0.0440531
0.0389593
0.0328904
0.0256511
0.0206677
0.0187646
0.0206505
0.0241011
0.0245347
0.0184819
0.0205254
0.0226544
0.0237505
0.0241197
0.0241322
0.0239784
0.0237054
0.0232708
0.022761
0.0224018
0.0224641
0.0231547
0.0243464
0.0257067
0.027091
0.0278431
0.0280954
0.027423
0.0257449
0.023331
0.0206784
0.0186569
0.0178785
0.0183748
0.0203639
0.0236089
0.0271228
0.0284161
0.0284937
0.0250664
0.0245586
0.0238428
0.0237015
0.0239898
0.024192
0.024182
0.0240767
0.0243061
0.0248787
0.0259991
0.027695
0.0295926
0.0317116
0.0337325
0.035388
0.0364277
0.0369626
0.0367978
0.035525
0.0325047
0.0290505
0.0275814
0.0267715
0.0245921
0.0217949
0.0209012
0.0220166
0.0245292
0.0264588
0.0291322
0.0297316
0.0299762
0.0306797
0.0302028
0.0278118
0.0252173
0.023267
0.0223596
0.0221321
0.0222572
0.0225315
0.0228213
0.023056
0.0235168
0.0238977
0.0244533
0.0250451
0.0255929
0.0260487
0.0262847
0.026568
0.0265461
0.0269515
0.027998
0.0296571
0.0306236
0.027595
0.0230893
0.0246565
0.0269482
0.0287063
0.0307837
0.0334555
0.0337509
0.0322222
0.0300435
0.0275828
0.0265185
0.025824
0.0251903
0.024815
0.0245246
0.0242557
0.0240907
0.0238181
0.0235726
0.0231712
0.0225754
0.0219756
0.0218405
0.0226965
0.0236507
0.0232511
0.02129
0.0202582
0.0216467
0.0239955
0.02558
0.0261625
0.0217334
0.0233792
0.0275704
0.0312866
0.0321174
0.0303402
0.0268982
0.0227914
0.0203573
0.01993
0.0211643
0.0255188
0.03438
0.0422487
0.0442724
0.0436948
0.0422243
0.0424747
0.04472
0.0460834
0.044472
0.038215
0.0285109
0.0214083
0.0190148
0.0185377
0.020436
0.0221417
0.0230534
0.0227637
0.0284593
0.0414701
0.0561797
0.062303
0.0629652
0.0626335
0.0604124
0.0584404
0.0478364
0.0383876
0.0290234
0.0227371
0.0204622
0.0204085
0.0217627
0.0232201
0.0237779
0.023309
0.0220752
0.0207314
0.0189993
0.0180657
0.0174521
0.017355
0.0175846
0.0181168
0.0189232
0.019708
0.0201501
0.0197851
0.0204506
0.0207991
0.0219397
0.0246878
0.0285791
0.0325598
0.0346732
0.0350059
0.0338177
0.031238
0.0290221
0.027038
0.0256051
0.0247505
0.023897
0.0211772
0.0182859
0.0189549
0.020726
0.022233
0.0232305
0.0226984
0.0227912
0.0211203
0.0192355
0.0176935
0.0163323
0.0163796
0.0174591
0.0183111
0.0208584
0.0268726
0.0312772
0.0336162
0.0312454
0.0308384
0.0273936
0.0242021
0.0217223
0.0192665
0.0184849
0.0171302
0.0169327
0.0153158
0.0157318
0.0145865
0.0148401
0.0145421
0.014554
0.0146181
0.0148904
0.0146797
0.0145824
0.0145953
0.0139919
0.0149132
0.0151961
0.0178243
0.0200005
0.0212422
0.0192254
0.0191205
0.018132
0.0160061
0.0161002
0.0168263
0.0171664
0.0182551
0.0195986
0.021465
0.0223908
0.0209776
0.0187481
0.0170121
0.0154888
0.0142878
0.0131027
0.0127405
0.012711
0.0127691
0.0140759
0.0143744
0.0147038
0.0148226
0.0144089
0.0138996
0.0136221
0.0150016
0.0185878
0.0207943
0.0152392
0.0162623
0.0165477
0.0171543
0.017659
0.0186085
0.0183621
0.0185058
0.0172021
0.0165269
0.0157444
0.0158311
0.0149963
0.0150172
0.0146504
0.0146851
0.0143717
0.0141382
0.0139022
0.0134593
0.013316
0.0128257
0.0127103
0.0120953
0.0118445
0.0115706
0.0114515
0.0114905
0.0117352
0.0116924
0.0103983
0.0115547
0.0107306
0.0102047
0.00977508
0.0095255
0.00943867
0.00946532
0.00954355
0.00954443
0.00957278
0.00966163
0.0096755
0.00971079
0.00973043
0.00972999
0.00971182
0.00967831
0.00965033
0.00962963
0.0096141
0.00959715
0.00958298
0.0095676
0.00955273
0.00953816
0.00952483
0.00950769
0.00943135
0.00815098
0.00815026
0.00943059
0.009511
0.00953065
0.00954218
0.00955631
0.00956893
0.00958342
0.00959513
0.00961
0.00962439
0.00964439
0.00966965
0.00970339
0.00972478
0.0097332
0.00971428
0.00968606
0.00965346
0.00963582
0.00961722
0.00960059
0.00958363
0.00956915
0.00955189
0.00953805
0.00952167
0.00950925
0.00943295
0.00814895
0.0549186
0.0592341
0.0615738
0.0605163
0.0578704
0.0543923
0.0500183
0.0448133
0.036828
0.0276688
0.0208264
0.0192356
0.0215844
0.0241904
0.0201811
0.0225171
0.024104
0.0249246
0.0252657
0.0253305
0.0252118
0.024989
0.0247025
0.0240733
0.0230402
0.0219993
0.0216954
0.0222856
0.0238226
0.0258872
0.0278629
0.0293703
0.0298452
0.028999
0.0261846
0.0219937
0.0187903
0.0177006
0.0180861
0.0197022
0.0227362
0.0265988
0.028078
0.0276277
0.0248349
0.0239031
0.0232976
0.0236318
0.0247169
0.0259018
0.0262281
0.0260036
0.0255044
0.025239
0.0256425
0.0267488
0.0284452
0.0308696
0.0337773
0.0364464
0.0385479
0.0396498
0.0397541
0.0386452
0.034854
0.0297357
0.0270336
0.0260821
0.0239979
0.0214833
0.0209693
0.0225039
0.025036
0.0266402
0.0292008
0.0298587
0.0303767
0.0304144
0.0278517
0.0242282
0.0217881
0.0210343
0.0212495
0.0217798
0.0224046
0.0230012
0.023428
0.0235191
0.02351
0.0236123
0.0238758
0.0242508
0.0246308
0.0250401
0.0254179
0.02562
0.0256651
0.0259482
0.0269277
0.0286642
0.0292381
0.0261949
0.0226636
0.0247469
0.026217
0.0277925
0.0309134
0.0333152
0.0330619
0.0305816
0.0281192
0.0268918
0.0254072
0.0238007
0.0226514
0.0221006
0.0222037
0.0223822
0.0227101
0.023137
0.0232495
0.023012
0.022438
0.0213941
0.0206295
0.0208285
0.0213025
0.0207578
0.020202
0.0211354
0.0229153
0.0240351
0.0244465
0.0247272
0.0219034
0.0250576
0.0313572
0.0341664
0.0323731
0.0276384
0.0224151
0.0195464
0.0203206
0.0252891
0.0355811
0.0461274
0.047701
0.0449905
0.0397512
0.0341911
0.0309395
0.0301411
0.0326786
0.0394055
0.0468536
0.0493754
0.0431589
0.0322041
0.0230531
0.0193841
0.0190262
0.0212824
0.0217287
0.0205034
0.0365645
0.0521275
0.0578704
0.0580753
0.060172
0.0617656
0.0622347
0.0594245
0.045622
0.0353741
0.0264245
0.0225686
0.0220996
0.0241103
0.0265938
0.0279832
0.0280377
0.0272197
0.0260099
0.0243153
0.0222826
0.0201447
0.0185252
0.0176381
0.0174319
0.0178241
0.0184267
0.0190171
0.0194377
0.0179173
0.01999
0.0208734
0.0237754
0.0290181
0.0349107
0.0371566
0.0367377
0.0355998
0.0336676
0.0310586
0.028259
0.0264014
0.0250862
0.0241554
0.022455
0.0194231
0.0192832
0.0221372
0.0257833
0.0287714
0.0298804
0.0309858
0.0283876
0.0286789
0.0247285
0.0211491
0.0176247
0.0159966
0.0159095
0.0168586
0.0236471
0.0353115
0.0465322
0.0500823
0.049111
0.0495794
0.0484808
0.0468458
0.0463948
0.0427624
0.0424796
0.0394399
0.0367547
0.032786
0.0285365
0.0247202
0.0211769
0.0189928
0.0172409
0.0158996
0.014841
0.014191
0.0136738
0.0133809
0.0130268
0.01293
0.0131511
0.0141404
0.0160522
0.0182367
0.017246
0.0175919
0.0166134
0.0163715
0.0179283
0.0211173
0.0239228
0.0287782
0.0366791
0.0415146
0.0429873
0.0404906
0.0372137
0.0324821
0.0273549
0.0223671
0.0187466
0.0163687
0.0140554
0.0139111
0.0127911
0.0126403
0.0124072
0.012189
0.0119305
0.011759
0.0117379
0.0120454
0.0141249
0.0160499
0.016126
0.0175164
0.0200552
0.023186
0.0258271
0.0270724
0.0312553
0.0286717
0.028668
0.0242684
0.0218063
0.0177363
0.0173045
0.0154719
0.0154927
0.0143959
0.0145636
0.0138888
0.013809
0.0134725
0.0132535
0.0130048
0.0128172
0.0124904
0.0125812
0.0130055
0.0130865
0.0129328
0.0124683
0.0118129
0.016119
0.0192664
0.0177015
0.0163929
0.0150599
0.0134423
0.0122631
0.0114667
0.0106119
0.0101152
0.00974415
0.00904788
0.00878654
0.0087764
0.00877935
0.00877927
0.00877993
0.00877512
0.00877498
0.00877115
0.00877217
0.00876849
0.00876975
0.00876609
0.0087673
0.00876368
0.00876461
0.00875964
0.00874178
0.00850891
0.00851238
0.00874219
0.00876008
0.00876526
0.00876387
0.00876761
0.00876624
0.00876991
0.00876844
0.00877207
0.00877079
0.00877474
0.00877445
0.00877951
0.00877911
0.00878198
0.00877816
0.00877798
0.00877312
0.00877405
0.00877029
0.0087714
0.00876769
0.00876895
0.00876514
0.00876626
0.00876215
0.00876224
0.00874118
0.00851277
0.0670527
0.0660615
0.0622402
0.0597354
0.0579663
0.0539056
0.0495611
0.0453435
0.0409304
0.0354286
0.0286959
0.02243
0.020214
0.0216273
0.0227453
0.0243552
0.0255745
0.0259789
0.0258382
0.0254364
0.0250797
0.0249356
0.0248902
0.024761
0.0242257
0.0231299
0.0218012
0.0212747
0.0218058
0.0235126
0.026027
0.0288235
0.0311232
0.0313768
0.0285708
0.0231152
0.0189924
0.0176302
0.0173401
0.0178779
0.0200978
0.0240741
0.0272882
0.0271347
0.0246711
0.0235369
0.0228875
0.0235564
0.0253355
0.0275915
0.0288584
0.0289375
0.0282402
0.0276704
0.0277976
0.0287992
0.0307617
0.0331899
0.0360039
0.0381986
0.0398264
0.0402253
0.039613
0.037754
0.0335414
0.0286851
0.0264784
0.0255356
0.0235034
0.021076
0.0201266
0.0214987
0.0241615
0.0264627
0.0290887
0.0301952
0.0305411
0.0284569
0.02404
0.0213292
0.0207721
0.0212554
0.0221063
0.022761
0.0231879
0.0235586
0.0238962
0.0240074
0.0238122
0.0236548
0.0237939
0.0240948
0.0244073
0.0248323
0.0251213
0.0252031
0.0251878
0.0253801
0.0263263
0.0276261
0.0271132
0.023416
0.0223343
0.025619
0.0255445
0.0272051
0.0310658
0.0337918
0.0323311
0.0294963
0.0278574
0.0257221
0.0232778
0.021445
0.0202408
0.0195517
0.0195352
0.0200859
0.0210279
0.0221506
0.0229105
0.0232392
0.0227734
0.0212051
0.0201357
0.0197586
0.0196578
0.0196268
0.0202151
0.0215633
0.0223803
0.0227309
0.0228139
0.0231266
0.0222718
0.0272172
0.0344017
0.0349026
0.0302957
0.0240048
0.0202329
0.0199897
0.0266442
0.0397443
0.0484488
0.0492822
0.0451642
0.0405805
0.0350901
0.0297666
0.0266263
0.0260297
0.0275272
0.0319135
0.0420864
0.0512369
0.0530132
0.0449295
0.0322011
0.0225322
0.0187467
0.0195776
0.0203694
0.0191076
0.0430226
0.054314
0.0523465
0.0533127
0.0590333
0.061416
0.0606305
0.054725
0.0413626
0.0312169
0.0253532
0.0235653
0.0248102
0.0271346
0.0287779
0.0293797
0.0293697
0.0294173
0.0294506
0.0291064
0.0274249
0.0244741
0.0212503
0.0189674
0.0177802
0.0174158
0.0175553
0.0181433
0.0179038
0.0160106
0.0196161
0.021305
0.0264416
0.0335157
0.0369477
0.0364697
0.0342556
0.0319173
0.0296653
0.0280339
0.0262488
0.0249331
0.0239307
0.0230262
0.0205444
0.0192229
0.0219822
0.0289171
0.0343344
0.0386273
0.0406158
0.0418821
0.042939
0.0392954
0.0368488
0.029891
0.0244708
0.0183099
0.0154842
0.0151092
0.0249694
0.0430747
0.055552
0.0605951
0.0619948
0.0605712
0.0612104
0.0605087
0.0591088
0.0578027
0.0581077
0.0578563
0.0595797
0.0593723
0.0595121
0.0557289
0.0515195
0.0441465
0.0368251
0.0303704
0.0242053
0.0196233
0.0170506
0.0152146
0.014153
0.0129354
0.0126699
0.0126899
0.013696
0.0161773
0.0166341
0.0165259
0.0168519
0.0195984
0.0245075
0.0311724
0.0369625
0.0432678
0.0498179
0.0546742
0.0561252
0.056418
0.0560204
0.0536965
0.0511655
0.0455455
0.0372395
0.0278491
0.0222308
0.0212596
0.0160632
0.0147039
0.0138657
0.0132442
0.0126804
0.0122765
0.0118708
0.0115693
0.0121871
0.0131984
0.0173368
0.0217585
0.0276127
0.0365541
0.0444646
0.0437076
0.0475982
0.0453882
0.0451911
0.0416607
0.0349031
0.0295522
0.023473
0.0205215
0.0177127
0.0174659
0.016179
0.0165322
0.0154094
0.0155887
0.015249
0.0155561
0.0154969
0.0159702
0.0169398
0.0179035
0.0183782
0.0192287
0.0169594
0.0151573
0.0202259
0.0261322
0.0248483
0.0227288
0.0202795
0.0187635
0.0174102
0.0161915
0.0150654
0.0138176
0.0127388
0.0121053
0.0113909
0.0109661
0.0109334
0.0109393
0.0109339
0.0109401
0.0109331
0.0109397
0.0109325
0.0109395
0.0109324
0.0109397
0.0109324
0.0109397
0.0109319
0.0109355
0.0109312
0.010903
0.0109061
0.0109292
0.0109385
0.010931
0.0109392
0.0109314
0.0109394
0.0109318
0.0109394
0.0109318
0.0109394
0.0109323
0.0109398
0.0109332
0.0109401
0.0109335
0.0109401
0.0109332
0.0109395
0.0109324
0.0109393
0.0109322
0.0109396
0.0109323
0.0109396
0.010932
0.0109386
0.0109309
0.0109283
0.0109053
0.0685235
0.0587521
0.0506454
0.0502348
0.0509715
0.0481491
0.0427919
0.0380525
0.0347593
0.0314908
0.0280116
0.0243441
0.0210831
0.0211234
0.0241157
0.0256209
0.0263525
0.0258983
0.0249237
0.0241752
0.0238393
0.0237545
0.023922
0.0241417
0.024191
0.0236085
0.0223271
0.0210777
0.0205634
0.0213141
0.0235685
0.0272881
0.0315561
0.0329982
0.0293128
0.022961
0.0186294
0.0165877
0.0155945
0.0152286
0.0163456
0.0201738
0.025252
0.0261132
0.0245633
0.0232911
0.0225652
0.0237982
0.0263336
0.0292152
0.0311832
0.0316568
0.0314255
0.0311995
0.0319066
0.0333527
0.0350269
0.036602
0.0378072
0.0384081
0.0380552
0.0368246
0.0349521
0.032212
0.0287665
0.0265443
0.0260278
0.0250995
0.0223463
0.0198771
0.0190194
0.0199001
0.022519
0.0259368
0.0293285
0.0305267
0.0293359
0.0246677
0.0214068
0.0208885
0.0217526
0.0231347
0.0240117
0.0243928
0.0243582
0.02414
0.0240325
0.0240574
0.0241062
0.0241413
0.024251
0.024373
0.0245502
0.0246133
0.0243815
0.0240347
0.0237534
0.0238265
0.0244491
0.0251677
0.0239967
0.0218232
0.0227542
0.0260316
0.0251806
0.0268692
0.0321311
0.0339034
0.0316427
0.0297603
0.0282673
0.0259496
0.0234853
0.0213604
0.0200461
0.019328
0.0192683
0.0196304
0.0203304
0.0216135
0.022796
0.0234063
0.0226513
0.0208451
0.0195393
0.0190665
0.0190336
0.0193991
0.0202617
0.0215423
0.022829
0.0240976
0.0247396
0.0237286
0.0236093
0.0312493
0.0365448
0.0337921
0.0269517
0.0216086
0.0199739
0.0238467
0.0355508
0.046651
0.0496418
0.0473212
0.0452741
0.0427214
0.0375874
0.0310127
0.0266904
0.0259161
0.0270658
0.0301829
0.0392516
0.0506859
0.057047
0.0530785
0.0412652
0.028061
0.0194615
0.0186005
0.0186778
0.0171796
0.0470988
0.0517119
0.0470844
0.0513766
0.0575435
0.0576126
0.050686
0.0457531
0.0344673
0.0279676
0.0255103
0.0255015
0.026943
0.0281285
0.0285218
0.0290219
0.0304404
0.0325612
0.0344296
0.0353163
0.0345612
0.0323276
0.0281336
0.0228531
0.0193706
0.0176151
0.0172171
0.0170089
0.0167416
0.0151053
0.0196445
0.023957
0.0328235
0.0367866
0.0348236
0.0316485
0.0284124
0.026362
0.0249444
0.0241675
0.0237199
0.0233183
0.022495
0.0206779
0.0197913
0.0220709
0.0304274
0.0392899
0.0453679
0.0493664
0.0511334
0.0512886
0.0515991
0.0500243
0.0476876
0.0455094
0.0377434
0.02679
0.0175663
0.0158562
0.0258417
0.0446969
0.0600907
0.0667099
0.0666213
0.0645676
0.061391
0.056899
0.0517291
0.0495372
0.0483598
0.049757
0.0530085
0.0560733
0.060757
0.0639532
0.0643163
0.0635544
0.0608594
0.0554719
0.0474966
0.0391627
0.0306547
0.0234083
0.0185194
0.0153988
0.0135846
0.0127533
0.0129763
0.0145924
0.0157126
0.0164591
0.0194801
0.0267828
0.0363965
0.0430357
0.0471193
0.0501177
0.0512844
0.0522471
0.0520406
0.0532658
0.0554392
0.0564283
0.0579516
0.0577479
0.0572513
0.0503032
0.0406256
0.0358828
0.0240026
0.0214342
0.0196667
0.0177312
0.0161535
0.0147409
0.013777
0.0127129
0.0119173
0.0123489
0.0183955
0.0261473
0.0406039
0.047214
0.0472409
0.0490189
0.0489511
0.050225
0.0529699
0.0546829
0.0515322
0.0457329
0.037771
0.029694
0.0259666
0.0221586
0.0212017
0.0192111
0.0204931
0.0195157
0.0199806
0.020383
0.0213602
0.0219683
0.0231564
0.0246498
0.0251535
0.0244001
0.0252133
0.0206017
0.0237883
0.0311308
0.0306044
0.0293909
0.0268756
0.0246696
0.0231604
0.0218424
0.0205141
0.0193553
0.0180048
0.0168482
0.0153631
0.0144784
0.0137696
0.0137269
0.0137399
0.013741
0.0137389
0.0137407
0.0137387
0.0137405
0.0137388
0.0137408
0.0137391
0.013741
0.0137384
0.0137359
0.0137211
0.013517
0.0135127
0.0137219
0.0137387
0.0137382
0.0137402
0.0137383
0.0137401
0.0137384
0.0137401
0.0137384
0.0137402
0.0137388
0.0137409
0.0137394
0.0137415
0.0137396
0.0137413
0.0137394
0.0137409
0.0137391
0.0137407
0.0137391
0.013741
0.0137394
0.0137413
0.0137389
0.0137399
0.0137361
0.0137183
0.0135126
0.0628037
0.0442583
0.0370421
0.0392711
0.041403
0.0379444
0.0327321
0.0291569
0.0272538
0.0254458
0.0237793
0.0228211
0.0218938
0.0211334
0.0248262
0.0264008
0.0263092
0.0250831
0.024177
0.0237526
0.0236965
0.0235644
0.0235099
0.0235962
0.0236225
0.0232709
0.0222782
0.0208497
0.0197686
0.0197935
0.0218465
0.0265509
0.0326779
0.0337153
0.0291427
0.0218229
0.0172764
0.0151162
0.0141888
0.0137505
0.0142791
0.0166577
0.0221563
0.0251017
0.0245983
0.0233082
0.0228298
0.0244759
0.0270108
0.0300607
0.0322053
0.0331656
0.0335177
0.0340471
0.0346735
0.0351086
0.03504
0.0341326
0.0323658
0.0311479
0.0301066
0.0292337
0.0280005
0.0268596
0.0261413
0.0257959
0.0251782
0.0225417
0.0199782
0.0188958
0.01896
0.0196457
0.0215006
0.0252236
0.0295442
0.0299377
0.0257543
0.0218348
0.0211426
0.022506
0.0247869
0.0269129
0.0282224
0.0284859
0.0279194
0.0269928
0.0260094
0.0250888
0.0244434
0.0239534
0.0239177
0.0236599
0.0236289
0.0233122
0.023074
0.0228676
0.0227697
0.0226489
0.0226963
0.0225036
0.021524
0.0212708
0.0238901
0.0261855
0.0248172
0.0280959
0.0330466
0.0340144
0.0319516
0.0310645
0.030125
0.028486
0.0254035
0.0224014
0.0204643
0.0198089
0.019971
0.0203073
0.0208118
0.0218058
0.0226922
0.0227435
0.0216161
0.0199957
0.0189685
0.0186929
0.0190441
0.0203879
0.0231969
0.0271926
0.0304847
0.0325089
0.0331086
0.0283112
0.0263405
0.0352311
0.0369417
0.0314537
0.0247244
0.0208775
0.021368
0.0278951
0.0409878
0.0491345
0.0491836
0.0476018
0.0472384
0.0458626
0.0423474
0.0356346
0.0282361
0.0261272
0.0272713
0.0292691
0.0373713
0.0508967
0.0581991
0.0564395
0.048014
0.0329906
0.0212345
0.0177419
0.0169451
0.0153385
0.0481211
0.0460667
0.0435299
0.048157
0.0500608
0.0469726
0.0402817
0.0339892
0.0294202
0.0268977
0.0264635
0.0272369
0.0283201
0.0283635
0.0280415
0.0288007
0.030957
0.0337988
0.0371305
0.0400521
0.0413899
0.0402715
0.0373781
0.0307263
0.0242248
0.0194067
0.0176075
0.0167437
0.0159756
0.0148265
0.0206774
0.0270443
0.0354537
0.0363143
0.0307221
0.0251765
0.0238941
0.0234032
0.0228221
0.0223464
0.0219578
0.0213574
0.020408
0.0201525
0.0225527
0.0311912
0.0431502
0.0513159
0.0549541
0.055513
0.0559781
0.0556805
0.0547866
0.0550822
0.0550742
0.0548117
0.0520993
0.04303
0.0305414
0.0158421
0.0244258
0.043582
0.0581788
0.0641157
0.0657624
0.0645707
0.0583972
0.0482722
0.0441615
0.0398702
0.0399466
0.0399067
0.0402093
0.042833
0.0484054
0.0556359
0.062379
0.0673713
0.0692435
0.0680061
0.0656274
0.0613456
0.0539579
0.0431151
0.0315135
0.0231002
0.0171008
0.014371
0.013099
0.0137145
0.0157247
0.0173194
0.0233776
0.036398
0.0463347
0.0490582
0.0504259
0.0494142
0.0479751
0.0437249
0.0395458
0.036557
0.0367068
0.0374501
0.041109
0.0476485
0.0569072
0.0620025
0.0601022
0.0539618
0.0399229
0.0334527
0.0297869
0.0254068
0.0225684
0.0197512
0.0175805
0.0156491
0.0132512
0.012257
0.0208027
0.0326405
0.0402403
0.0422523
0.039673
0.0377865
0.0336454
0.0425115
0.0448095
0.0551903
0.0571782
0.0569104
0.0525169
0.0456941
0.037641
0.0331259
0.028805
0.0281207
0.0253058
0.027455
0.0266636
0.0283218
0.0275959
0.030562
0.0306464
0.0310201
0.0310061
0.0310898
0.0300038
0.0256583
0.0285375
0.0324946
0.035129
0.0361153
0.0327608
0.0304052
0.0279553
0.0271039
0.0257745
0.0249653
0.0238454
0.0225475
0.0213854
0.020033
0.0191864
0.0187164
0.018679
0.0186926
0.0186888
0.0186928
0.018689
0.0186932
0.0186894
0.0186939
0.0186903
0.0186943
0.0186894
0.0186873
0.0186889
0.0187539
0.0187476
0.0186909
0.0186918
0.0186891
0.0186936
0.018689
0.0186937
0.0186886
0.0186932
0.0186882
0.0186925
0.0186881
0.018692
0.0186883
0.0186916
0.0186883
0.0186912
0.0186881
0.0186917
0.0186882
0.0186926
0.0186886
0.0186935
0.0186893
0.0186944
0.0186896
0.0186921
0.0186865
0.0186859
0.0187449
0.0553355
0.0332408
0.0283985
0.0308277
0.0304871
0.026924
0.0242638
0.0235768
0.0234739
0.0231285
0.0233825
0.0241992
0.023696
0.0223019
0.0252128
0.0267172
0.0260301
0.0249036
0.0246406
0.0257701
0.0260294
0.0251803
0.0241291
0.0234781
0.0229798
0.0224116
0.0214013
0.0200451
0.018892
0.0193064
0.0218912
0.0285519
0.0348136
0.0329554
0.0251848
0.0181492
0.0149172
0.0144151
0.0149459
0.0151075
0.0146764
0.0151002
0.0190548
0.023865
0.0237781
0.0229147
0.0232946
0.0248537
0.0265456
0.0286274
0.0305694
0.0316804
0.0320193
0.0314098
0.0299661
0.0281187
0.0264783
0.0253556
0.0247566
0.0243718
0.0242463
0.0243108
0.0243497
0.0245018
0.0242674
0.0234917
0.0210116
0.0195734
0.0202938
0.0212235
0.0218033
0.0217806
0.0221452
0.024643
0.0297393
0.0280951
0.0230275
0.0213952
0.0228071
0.0262218
0.0301274
0.0331247
0.0343364
0.0339362
0.0327582
0.0314562
0.0303734
0.0295448
0.0290126
0.0285261
0.0281751
0.0277942
0.0276192
0.0272684
0.027026
0.0264724
0.0253439
0.0240716
0.0227137
0.0216077
0.0207788
0.0217131
0.0246627
0.0255981
0.0247132
0.0289942
0.0341541
0.0341205
0.0325257
0.0329015
0.0330925
0.0310756
0.0276856
0.0239803
0.0210066
0.0199197
0.0199884
0.0206185
0.021108
0.0214671
0.0214751
0.0208499
0.0198055
0.0190571
0.0189973
0.020083
0.0230416
0.0281513
0.0340439
0.0389348
0.0412784
0.0422755
0.0410796
0.0372804
0.0293561
0.0375253
0.0353587
0.0287824
0.0234503
0.0208692
0.0228732
0.0314486
0.0439162
0.0496998
0.0487194
0.0476324
0.0478752
0.0475519
0.0460059
0.0414806
0.0319679
0.0263878
0.0274003
0.028586
0.03526
0.0490351
0.0589348
0.0574865
0.0510546
0.0357879
0.0223311
0.0179023
0.0174476
0.0205802
0.0467317
0.0408089
0.03766
0.039423
0.0379154
0.0340642
0.0316417
0.0284047
0.0275902
0.0273114
0.0275773
0.0287558
0.0293811
0.0292533
0.0288259
0.0291722
0.0307459
0.0336507
0.0372909
0.0416317
0.0443973
0.04539
0.0431517
0.0387659
0.0314172
0.0238865
0.0191941
0.0170542
0.0157071
0.014911
0.0236148
0.0298541
0.0365186
0.031225
0.024423
0.0219158
0.0213712
0.0211906
0.0211234
0.0208817
0.0204711
0.0200099
0.0202
0.0228891
0.0310845
0.0440586
0.0530383
0.0563376
0.0553373
0.0543481
0.0534838
0.0530956
0.0523005
0.052302
0.0537253
0.054995
0.0576778
0.0545382
0.043298
0.0200688
0.0260701
0.0361544
0.0438921
0.049723
0.0571032
0.0619615
0.0553937
0.0505292
0.0457715
0.0426387
0.0415988
0.0421635
0.041527
0.0415622
0.0431774
0.0475242
0.0534303
0.0600619
0.0649142
0.0681403
0.0687655
0.0692837
0.0667182
0.0643324
0.0579927
0.0445553
0.0290796
0.0187349
0.013769
0.0129444
0.016377
0.0191525
0.0270547
0.0417624
0.0500998
0.0505199
0.0488107
0.0439188
0.0414447
0.0353075
0.0321561
0.0308957
0.0294252
0.0281362
0.0280784
0.0297974
0.0377436
0.0517321
0.0638138
0.0632611
0.0560345
0.0489757
0.0423218
0.0362954
0.0318667
0.0276508
0.0239391
0.0209078
0.0156746
0.012557
0.0216435
0.0321807
0.0424126
0.0372329
0.0314215
0.0256046
0.0285762
0.0288535
0.0376177
0.0443409
0.0557382
0.0603402
0.0607319
0.0568614
0.0519948
0.0453266
0.0412279
0.0368492
0.0374553
0.0338261
0.0362393
0.0352622
0.0377944
0.0380952
0.039902
0.039797
0.0394139
0.0378034
0.0365237
0.0290132
0.0334514
0.0352569
0.0391901