/*--------------------------------*- C++ -*----------------------------------*\
| =========                 |                                                 |
| \\      /  F ield         | OpenFOAM: The Open Source CFD Toolbox           |
|  \\    /   O peration     | Version:  2.1.1                                 |
|   \\  /    A nd           | Web:      www.OpenFOAM.org                      |
|    \\/     M anipulation  |                                                 |
\*---------------------------------------------------------------------------*/
FoamFile
{
    version     2.0;
    format      ascii;
    class       volScalarField;
    location    "0.003300000";
    object      H2;
}
// * * * * * * * * * * * * * * * * * * * * * * * * * * * * * * * * * * * * * //

dimensions      [0 0 0 0 0 0 0];

internalField   nonuniform List<scalar> 
12384
(
0.00100414
0.000787778
0.000623479
0.000354608
0.000261831
0.000108218
7.38857e-05
2.95033e-05
1.99176e-05
2.31106e-05
0.000123515
0.000347185
0.000475619
0.000406852
9.73725e-06
8.80389e-06
1.01174e-05
1.43461e-05
2.04606e-05
2.71716e-05
3.41857e-05
3.8241e-05
4.24179e-05
4.49844e-05
4.74165e-05
4.56391e-05
4.31528e-05
3.94274e-05
3.52325e-05
3.21224e-05
3.82566e-05
4.76945e-05
5.21389e-05
5.06954e-05
3.36279e-05
1.90861e-05
8.18701e-06
4.03792e-06
3.66145e-06
9.37455e-06
3.23494e-05
0.000214552
0.000767414
0.000959647
0.000209338
0.000450792
0.000438351
0.000372643
0.000379208
0.000404891
0.00047833
0.000636202
0.000841052
0.00112691
0.00140162
0.00188359
0.00226845
0.00258857
0.00266692
0.00263693
0.00256057
0.00241478
0.0021798
0.00184969
0.00148286
0.00120597
0.000982948
0.00057418
0.000178431
4.15886e-05
1.39871e-05
1.12928e-05
2.15249e-05
0.000128904
0.00116447
0.00162829
0.00143542
0.00171102
0.00216596
0.00254826
0.00255778
0.00221567
0.00171659
0.00125488
0.000976247
0.000896997
0.000805454
0.000934256
0.000738709
0.000915838
0.000883845
0.000902841
0.000989107
0.000962092
0.00111017
0.00101573
0.00164222
0.00189954
0.00298871
0.00369347
0.00347989
0.000574403
5.79625e-05
0.000112094
0.000696218
0.00175474
0.00214767
0.00311523
0.00310001
0.00417879
0.00439857
0.00453888
0.00443318
0.00326077
0.00287813
0.00214521
0.0015316
0.00124547
0.000793373
0.000601262
0.000451224
0.00035353
0.000344823
0.000366373
0.000407877
0.000549602
0.000564687
0.000417693
0.000127497
1.42723e-05
1.09093e-05
3.73521e-05
0.000190991
0.000239389
3.01149e-05
3.68863e-05
5.237e-05
9.12741e-05
0.000197042
0.000346297
0.000603277
0.000965356
0.0012289
0.00131755
0.00120965
0.000759497
0.000216593
3.94531e-05
9.26886e-06
5.81833e-06
7.17454e-06
9.63597e-06
9.93949e-06
8.44933e-06
5.63779e-06
4.56364e-06
4.70213e-06
6.34023e-06
9.33125e-06
1.20368e-05
3.08859e-05
5.68378e-05
7.22476e-05
6.75235e-05
2.79546e-05
5.57134e-05
0.00136706
0.00931711
0.0158644
0.0202082
0.021058
0.0218811
0.0193294
0.0148516
0.00742865
0.000405817
3.03235e-05
8.48393e-06
4.83881e-06
3.42978e-06
2.83698e-06
3.16569e-06
2.35368e-06
1.3599e-06
1.22073e-06
1.29715e-06
2.07951e-06
2.58179e-06
2.61914e-06
3.79775e-06
5.95296e-06
8.40859e-06
1.15257e-05
0.0165013
2.61513e-05
2.73936e-05
2.90959e-05
3.42502e-05
4.40782e-05
5.78892e-05
8.3322e-05
9.53128e-05
0.000131771
0.000134027
0.000138257
0.000142874
0.000159587
0.000128029
9.557e-05
3.38045e-05
5.00179e-06
1.74713e-06
1.57028e-06
1.41653e-06
1.71119e-06
1.55468e-06
2.69115e-06
7.13677e-06
1.56552e-05
2.00475e-05
2.62281e-05
3.57266e-05
6.33326e-05
8.78677e-05
0.000153158
9.71555e-05
8.75485e-05
8.67911e-05
0.000101225
0.000123945
0.00013089
9.80921e-05
1.96996e-05
7.85323e-06
1.05762e-05
1.45406e-05
2.20214e-05
2.87686e-05
4.04912e-05
5.32752e-05
8.19208e-05
0.000102336
0.000117128
0.000141425
0.000126169
0.000128881
0.000107091
0.00010778
0.000117369
0.000153706
0.000191142
0.000257988
0.000246471
0.000223636
1.87223e-05
2.31376e-05
2.89514e-05
1.83462e-05
1.26255e-05
6.92458e-06
6.23499e-06
5.2654e-06
5.21446e-06
8.76561e-06
7.32017e-06
6.69023e-06
8.81642e-06
1.2724e-05
2.24778e-05
3.71253e-05
7.19676e-05
0.000105889
0.000169432
0.000245987
0.000298263
0.000483363
0.000470728
0.000460862
0.000332095
0.000378174
0.000401287
0.000983355
0.000887713
0.000932517
1.42448e-06
1.45184e-06
1.59524e-06
1.73465e-06
1.55159e-06
1.30899e-06
1.55286e-06
1.21748e-06
2.1233e-06
1.73091e-06
2.76451e-06
2.57675e-06
5.51544e-06
5.06589e-06
8.98193e-06
9.25086e-06
1.17332e-05
1.5232e-05
1.79355e-05
2.25053e-05
2.82333e-05
3.48478e-05
4.35105e-05
5.03348e-05
0.000126121
0.000548105
0.000819822
0.000967794
0.000689733
0.000619987
0.0249213
0.0241019
0.0245688
0.0256833
0.0265702
0.0279845
0.0288989
0.0289781
0.0289754
0.0289738
0.0289714
0.0289692
0.0289661
0.0289634
0.0289612
0.0289612
0.0289633
0.0289661
0.0289693
0.0289713
0.0289731
0.0289747
0.0289764
0.028978
0.0289797
0.028981
0.0289827
0.0289841
0.0289893
0.0290651
0.0290648
0.0289897
0.028984
0.0289822
0.0289807
0.0289791
0.0289779
0.0289763
0.028975
0.0289734
0.028972
0.0289699
0.0289672
0.0289641
0.0289617
0.0289613
0.0289629
0.028966
0.0289689
0.028971
0.0289729
0.0289748
0.0289765
0.0289782
0.0289799
0.0289813
0.0289827
0.0289841
0.0289897
0.0290648
0.00119979
0.00188667
0.00301501
0.00315207
0.00251574
0.00152429
0.000654607
0.000225543
4.69161e-05
1.47594e-05
1.95134e-05
0.000106962
0.000378828
0.000296516
5.20409e-06
7.67771e-06
2.13431e-05
6.11982e-05
9.87824e-05
0.000108709
0.000102729
9.83724e-05
9.84583e-05
0.000102097
0.000119217
0.000154431
0.000203498
0.000241613
0.000267499
0.000262374
0.000267158
0.000289209
0.000226185
0.000145627
8.47971e-05
3.57795e-05
1.30985e-05
4.32551e-06
3.7356e-06
1.10234e-05
5.10628e-05
0.000258547
0.000821808
0.000884717
0.000198128
0.000368182
0.00025594
0.000218331
0.00019095
0.000207378
0.000246438
0.000328088
0.0005184
0.000828171
0.00145086
0.00238382
0.00338701
0.00437982
0.00512942
0.00534554
0.00512927
0.00504844
0.00445653
0.00349913
0.00226186
0.00118141
0.000803664
0.000449568
0.000148875
3.34991e-05
1.42517e-05
1.75474e-05
4.9231e-05
0.000192594
0.00117614
0.00159357
0.00153531
0.00218648
0.00257261
0.00200487
0.000927266
0.000379975
0.00019125
0.000123303
0.000102805
9.84033e-05
0.000106371
0.000120484
0.000141294
0.000191513
0.000244076
0.000326008
0.000406139
0.000454611
0.000486866
0.000503521
0.000615903
0.000839085
0.00154874
0.0027195
0.00323967
0.000939742
6.83845e-05
0.000103083
0.000442317
0.00137796
0.0026213
0.00382443
0.00522001
0.00559251
0.00460567
0.00280981
0.00103203
0.000472954
0.000356379
0.000228093
0.000224429
0.000194555
0.000171428
0.000153046
0.000116808
0.000103338
7.37157e-05
7.6548e-05
9.39761e-05
0.000176704
0.000214943
0.000204027
7.06429e-05
1.23125e-05
1.13095e-05
4.04371e-05
0.000170384
0.000262576
2.74539e-05
3.87626e-05
0.000103415
0.000372605
0.0012665
0.0013973
0.00138482
0.00047993
0.000193672
9.04658e-05
5.8555e-05
2.5345e-05
1.53909e-05
2.47119e-05
0.000339999
0.00264226
0.00677421
0.00801686
0.00684159
0.00363638
0.000327107
3.81302e-05
9.21739e-06
4.87204e-06
5.59179e-06
9.50148e-06
2.89965e-05
5.34159e-05
6.87892e-05
9.20886e-05
6.61297e-05
0.0010198
0.0139294
0.0252619
0.0317736
0.0312468
0.0283796
0.0269499
0.0193083
0.0125512
0.00381014
0.000102803
1.20336e-05
5.55388e-06
4.46824e-06
4.97915e-06
5.7295e-06
5.73758e-06
3.48585e-06
2.30895e-06
1.41522e-06
1.31778e-06
1.413e-06
1.86865e-06
2.36351e-06
4.03289e-06
6.55707e-06
9.78735e-06
1.64203e-05
1.69751e-05
2.15153e-05
2.38281e-05
3.14005e-05
5.61211e-05
0.000139071
0.000297817
0.000783723
0.00110762
0.00105933
0.000699604
0.000378829
0.000235892
0.00016586
0.000116207
8.38026e-05
2.77851e-05
3.81117e-06
1.91127e-06
2.64621e-06
3.9842e-06
4.40079e-06
1.10363e-05
6.60222e-06
2.89681e-06
6.85348e-06
9.55476e-06
1.50659e-05
2.35163e-05
4.16339e-05
5.40696e-05
0.000117518
0.000145164
0.000150778
0.000155243
0.000133425
0.0001072
9.10762e-05
4.23459e-05
1.07936e-05
3.26232e-06
3.2338e-06
2.85079e-06
2.38229e-06
4.23916e-06
4.27003e-06
7.18562e-06
9.17227e-06
1.39527e-05
1.59875e-05
2.14651e-05
2.07826e-05
1.67456e-05
1.37292e-05
1.16668e-05
1.26204e-05
1.43708e-05
2.84655e-05
4.31314e-05
9.96074e-05
8.3179e-05
9.68488e-06
1.26883e-05
1.21718e-05
3.18586e-06
1.92621e-06
7.26472e-07
6.3342e-07
8.97217e-07
9.01264e-07
9.5651e-07
7.46099e-07
6.10917e-07
5.36711e-07
6.29856e-07
5.26346e-07
1.00476e-06
1.02034e-06
2.08589e-06
5.04068e-06
1.16382e-05
6.0355e-05
3.95949e-05
5.18831e-05
4.31907e-05
2.11768e-05
1.79238e-05
2.94417e-05
0.000123925
0.00024948
0.000533292
5.48262e-07
7.41413e-07
6.64251e-07
5.73006e-07
7.14989e-07
8.12253e-07
5.27659e-07
6.94056e-07
3.99797e-07
5.89662e-07
5.22492e-07
1.15407e-06
7.22857e-07
1.42269e-06
1.09244e-06
1.93011e-06
1.36279e-06
2.00928e-06
1.4376e-06
1.48617e-06
1.2809e-06
1.30349e-06
1.30193e-06
1.61645e-06
4.10194e-06
1.76818e-05
5.77683e-05
6.56361e-05
4.91517e-05
5.19741e-05
0.0137289
0.012943
0.0137086
0.013873
0.0151949
0.0167433
0.0191944
0.0221515
0.0250101
0.026234
0.0262027
0.026197
0.0261468
0.026124
0.0260936
0.0260931
0.0261224
0.0261473
0.0261962
0.0262041
0.0262412
0.0262454
0.0262812
0.0262838
0.0263199
0.0263201
0.026355
0.0263587
0.026454
0.0279423
0.0278881
0.0264672
0.026355
0.0263527
0.026317
0.0263169
0.0262781
0.0262788
0.0262422
0.0262437
0.0262066
0.0262025
0.0261564
0.0261345
0.0260941
0.0261014
0.0261093
0.0261573
0.0261791
0.0262164
0.0262216
0.02626
0.026263
0.0263009
0.0263041
0.0263391
0.0263444
0.0263725
0.0264652
0.0278905
0.00655965
0.0121646
0.0192927
0.0206551
0.0185494
0.0157399
0.010831
0.00543828
0.00106911
0.000119113
1.55477e-05
1.47871e-05
8.47176e-05
0.000106189
4.13493e-06
1.43202e-05
5.79874e-05
8.62113e-05
9.27056e-05
8.88874e-05
8.08432e-05
7.11667e-05
6.00004e-05
4.56476e-05
4.10412e-05
4.70415e-05
7.97271e-05
0.000160683
0.000338641
0.000696114
0.00100204
0.00116712
0.00100236
0.000622056
0.000271171
7.2794e-05
1.54981e-05
5.05255e-06
3.72387e-06
1.22841e-05
6.82634e-05
0.000390671
0.00080429
0.000833089
0.000190195
0.00022645
0.00014479
0.000110277
0.000120996
0.000146814
0.000157062
0.00017092
0.00022543
0.000338414
0.000587687
0.00114139
0.00222645
0.00379322
0.00563127
0.00719253
0.00819791
0.00871866
0.00855945
0.00730791
0.00441137
0.00150955
0.000635935
0.000312075
0.00010812
2.69956e-05
1.69564e-05
3.03211e-05
0.000104057
0.000249317
0.00111539
0.0016423
0.0018558
0.0024726
0.00205339
0.000517413
0.000139271
5.70492e-05
3.62224e-05
3.26754e-05
3.50708e-05
3.99943e-05
4.66285e-05
5.41508e-05
6.71355e-05
7.83013e-05
0.000106622
0.000136228
0.000183359
0.000225189
0.000245328
0.000287892
0.000280352
0.000356947
0.000613637
0.00158601
0.00242879
0.000462418
5.15409e-05
0.000109381
0.000272893
0.000812228
0.00252725
0.00510702
0.00540311
0.00387262
0.00186855
0.000449062
0.000248314
0.000189732
0.000132631
0.000118968
0.000103845
9.28585e-05
8.40601e-05
7.33206e-05
6.62776e-05
5.45692e-05
3.96233e-05
2.97647e-05
2.75341e-05
4.14343e-05
6.73961e-05
5.613e-05
2.02903e-05
1.13831e-05
2.36908e-05
7.58708e-05
0.000167206
0.000220103
2.45167e-05
5.7501e-05
0.000445879
0.00297588
0.00376979
0.0021555
0.000319612
4.13261e-05
1.17995e-05
9.66666e-06
1.93463e-05
0.000165342
0.00604763
0.014085
0.0161464
0.0155429
0.0140356
0.0142902
0.016591
0.0180008
0.0163641
0.00995702
0.000835766
2.20973e-05
5.75786e-06
4.41828e-06
1.29212e-05
3.43136e-05
5.32152e-05
4.58377e-05
0.000700957
0.013305
0.028452
0.0347662
0.0354488
0.0351129
0.0328243
0.0307912
0.0198628
0.0101346
0.00102475
4.09185e-05
1.20858e-05
1.20256e-05
2.56615e-05
5.52388e-05
7.08863e-05
5.92876e-05
3.17371e-05
1.58905e-05
5.62093e-06
3.01172e-06
2.08159e-06
1.96068e-06
2.82602e-06
4.17978e-06
7.17362e-06
1.13143e-05
1.49405e-05
1.19344e-05
1.75493e-05
2.23871e-05
4.04343e-05
0.000150308
0.000953188
0.00423182
0.00631897
0.00668077
0.00546795
0.00290279
0.00107595
0.000380072
0.000183141
0.00011865
7.46491e-05
1.90054e-05
3.24421e-06
5.2014e-06
1.48134e-05
3.32714e-05
5.51819e-05
4.15101e-05
4.11418e-05
1.79583e-05
5.62595e-06
4.9912e-06
8.07342e-06
1.32296e-05
2.30366e-05
3.27777e-05
0.000185809
0.00068795
0.0030819
0.00530638
0.00319575
0.00291696
0.000969219
0.000400673
0.000128053
1.80106e-05
1.01049e-05
5.47451e-06
5.52281e-06
1.68784e-06
3.13019e-06
1.40911e-06
2.0799e-06
1.60607e-06
1.69872e-06
1.7142e-06
2.05916e-06
1.80103e-06
1.49826e-06
1.40416e-06
8.93171e-07
1.43558e-06
1.39456e-06
5.84733e-06
1.62695e-05
2.94128e-05
6.29851e-06
5.97909e-06
3.0966e-06
6.36815e-07
6.76178e-07
1.24461e-06
1.54221e-06
3.82998e-06
1.18437e-05
2.5113e-05
3.65813e-05
1.71092e-05
5.09359e-06
2.59656e-06
1.16848e-06
6.8016e-07
4.20985e-07
3.28799e-07
3.20577e-07
3.89865e-07
8.68136e-07
9.12913e-07
1.15592e-06
1.42885e-06
8.57117e-07
1.41811e-06
1.39356e-06
4.83959e-06
3.11242e-05
6.45524e-05
3.31224e-07
7.90443e-07
1.01791e-06
1.48159e-06
2.28937e-06
4.09928e-06
3.41487e-06
4.85419e-06
3.04313e-06
2.38096e-06
2.34262e-06
1.85631e-06
4.92212e-07
2.80052e-07
2.00588e-07
2.03311e-07
1.54597e-07
1.3636e-07
1.27311e-07
1.31917e-07
1.28443e-07
9.80261e-08
1.59447e-07
6.50195e-08
2.69522e-07
4.10118e-07
1.26454e-06
2.37235e-06
2.28879e-06
3.41654e-06
0.00657077
0.00597372
0.00568381
0.00550636
0.00576935
0.00606742
0.00672813
0.00751102
0.00875051
0.00935487
0.00957274
0.00966163
0.0096755
0.00971079
0.00973043
0.00972999
0.00971182
0.00967831
0.00965033
0.00962963
0.0096141
0.00959715
0.00958298
0.0095676
0.00955273
0.00953816
0.00952483
0.00950769
0.00943135
0.00815098
0.00815026
0.00943059
0.009511
0.00953065
0.00954218
0.00955631
0.00956893
0.00958342
0.00959513
0.00961
0.00962439
0.00964439
0.00966965
0.00970339
0.00972478
0.0097332
0.00971428
0.00968606
0.00965346
0.00963582
0.00961722
0.00960059
0.00958363
0.00956915
0.00955189
0.00953805
0.00952167
0.00950925
0.00943295
0.00814895
0.0265082
0.0309783
0.0334975
0.0324512
0.0297707
0.026207
0.021749
0.016505
0.00880659
0.00177665
0.000116746
1.56138e-05
2.35041e-05
8.90759e-05
1.51484e-05
5.04009e-05
8.86198e-05
0.000127993
0.000150024
0.000156091
0.000145068
0.000130924
0.000116554
8.53832e-05
5.23792e-05
3.11546e-05
2.90507e-05
5.09913e-05
0.000138396
0.000427596
0.00106205
0.00197384
0.00243868
0.00196112
0.00085478
0.000148505
1.92954e-05
4.56169e-06
2.98028e-06
8.72017e-06
4.28949e-05
0.00028903
0.00065048
0.000483398
0.000180679
0.000116794
5.77682e-05
6.6901e-05
0.0001281
0.000258706
0.000319163
0.000306298
0.000275787
0.000267767
0.00038872
0.000670581
0.00137238
0.00306455
0.00563348
0.00819994
0.0102812
0.0113861
0.0114904
0.0103774
0.00661585
0.00200674
0.000510839
0.000224975
7.92281e-05
2.24341e-05
1.76204e-05
3.83462e-05
0.000128982
0.000283786
0.00117734
0.00175151
0.00220557
0.00223704
0.000534286
8.96805e-05
2.67776e-05
1.82296e-05
2.03294e-05
2.70706e-05
3.74974e-05
5.15815e-05
6.41098e-05
6.69777e-05
6.71143e-05
7.01154e-05
7.75553e-05
9.62536e-05
0.000115262
0.000135026
0.000166021
0.000184082
0.00018677
0.000212235
0.000349213
0.000896977
0.00121077
0.000228155
4.07069e-05
0.000114728
0.000181001
0.000428903
0.00261203
0.00496441
0.00471332
0.00232935
0.000616298
0.00031168
0.0001474
6.97821e-05
4.00242e-05
3.17324e-05
3.34978e-05
3.7033e-05
4.22941e-05
5.42446e-05
5.71508e-05
4.99845e-05
3.72267e-05
2.1474e-05
1.42536e-05
1.61223e-05
2.05304e-05
1.53719e-05
1.10936e-05
1.8817e-05
4.58007e-05
7.77058e-05
9.74216e-05
0.000111124
2.72003e-05
0.00012634
0.00304166
0.00583072
0.00402785
0.000461558
3.60502e-05
7.36302e-06
1.15315e-05
0.000141033
0.00726821
0.0180732
0.0196809
0.0168969
0.0115225
0.00585811
0.00266714
0.00198263
0.0043479
0.0111679
0.0188065
0.0214142
0.0150371
0.0038642
5.44332e-05
7.34907e-06
5.84054e-06
2.11497e-05
2.73498e-05
1.359e-05
0.00827389
0.0242848
0.0302022
0.0304182
0.0325769
0.0342209
0.0347018
0.0318053
0.0175795
0.00705719
0.000244308
3.80564e-05
3.05122e-05
8.05813e-05
0.000271815
0.000587698
0.000615156
0.000400496
0.000216216
9.73867e-05
3.61398e-05
1.13052e-05
4.33607e-06
2.39719e-06
2.46417e-06
3.50544e-06
4.88594e-06
7.57236e-06
9.10276e-06
3.74324e-06
1.38868e-05
2.1059e-05
9.28338e-05
0.00110875
0.00658416
0.00886438
0.00843904
0.00728381
0.0053391
0.00283886
0.00075736
0.000255105
0.000134502
8.49969e-05
3.64593e-05
6.69417e-06
6.14875e-06
3.13512e-05
0.000185404
0.000920252
0.00175597
0.00272252
0.000761428
0.000866971
0.000109491
1.77419e-05
3.31022e-06
5.72209e-06
7.71074e-06
1.56506e-05
0.000269767
0.00700904
0.0185221
0.0221822
0.0211728
0.0216494
0.0205158
0.0188268
0.0183747
0.0146414
0.0143506
0.0112224
0.00846609
0.00443331
0.000776441
0.000102382
2.63418e-05
1.39133e-05
6.37396e-06
3.91128e-06
2.09759e-06
1.303e-06
1.00241e-06
7.33109e-07
4.8565e-07
4.53717e-07
4.14299e-07
8.3463e-07
2.58699e-06
8.73479e-06
1.70215e-06
2.23322e-06
1.08933e-06
9.09013e-07
2.76006e-06
1.90494e-05
7.46652e-05
0.000905501
0.00838754
0.013352
0.0148674
0.0122966
0.00893368
0.00413432
0.000396499
4.95868e-05
9.65922e-06
3.31517e-06
8.52711e-07
9.55031e-07
3.87305e-07
3.97362e-07
3.00598e-07
2.69925e-07
1.84791e-07
3.264e-07
3.20529e-07
9.41873e-07
2.94855e-06
1.04437e-05
6.67293e-07
2.0341e-06
1.03413e-05
5.49624e-05
0.000190996
0.000364568
0.00294133
0.000846198
0.000901825
0.000145436
6.83084e-05
1.51838e-05
1.20115e-05
2.66729e-06
1.54333e-06
3.39951e-07
4.98651e-07
1.92613e-07
3.54712e-07
1.90679e-07
2.41443e-07
1.61763e-07
2.03407e-07
3.68905e-07
3.24097e-07
1.88185e-06
1.78928e-06
4.64013e-06
4.44416e-06
4.05429e-06
6.88662e-07
6.35462e-06
2.44068e-06
9.34031e-07
2.76904e-07
6.96474e-08
4.57314e-08
4.99643e-08
0.0050042
0.00645277
0.00759792
0.00888455
0.00878653
0.0087764
0.00877935
0.00877927
0.00877993
0.00877512
0.00877498
0.00877115
0.00877217
0.00876849
0.00876975
0.00876609
0.0087673
0.00876368
0.00876461
0.00875964
0.00874178
0.00850891
0.00851238
0.00874219
0.00876008
0.00876526
0.00876387
0.00876761
0.00876624
0.00876991
0.00876844
0.00877207
0.00877079
0.00877474
0.00877445
0.00877951
0.00877911
0.00878198
0.00877816
0.00877798
0.00877312
0.00877405
0.00877029
0.0087714
0.00876769
0.00876895
0.00876514
0.00876626
0.00876215
0.00876224
0.00874118
0.00851277
0.0391625
0.0382196
0.0343061
0.031754
0.0299252
0.0257581
0.0213037
0.0170418
0.0126748
0.00758166
0.00241224
0.000253962
2.43576e-05
2.44287e-05
6.97291e-05
0.00010157
0.000178972
0.000215534
0.000202764
0.000165888
0.000135751
0.000128557
0.000126227
0.00011959
9.28655e-05
5.49834e-05
2.9036e-05
2.7348e-05
4.7885e-05
0.000142827
0.000497422
0.00161872
0.0034186
0.00371452
0.0018496
0.000255294
2.32449e-05
4.66798e-06
1.84744e-06
2.6714e-06
1.09162e-05
8.52743e-05
0.000417071
0.000388138
0.000123662
8.0602e-05
4.60996e-05
6.59005e-05
0.000152289
0.000572796
0.00119276
0.00121974
0.000889583
0.000703083
0.000805823
0.00134766
0.0028608
0.00502957
0.00774719
0.00992573
0.0115661
0.0119656
0.0113488
0.00946868
0.00532469
0.00120096
0.000336458
0.000170415
6.41145e-05
1.86729e-05
1.08209e-05
2.25146e-05
8.59089e-05
0.000250311
0.0010701
0.00204131
0.00234495
0.000796191
8.01328e-05
2.09305e-05
1.57358e-05
2.02947e-05
3.21483e-05
4.36492e-05
5.59589e-05
6.70735e-05
7.72837e-05
8.40168e-05
7.51697e-05
7.11614e-05
7.49012e-05
8.87908e-05
0.000103496
0.000124437
0.000138565
0.000144626
0.000141118
0.000159696
0.000244789
0.000473345
0.000374821
6.0905e-05
3.55498e-05
0.000174728
0.000156995
0.00037856
0.00274908
0.00544913
0.00397786
0.00138592
0.000493552
0.000173535
5.33638e-05
2.11048e-05
1.10936e-05
7.57606e-06
7.67521e-06
1.07293e-05
1.84505e-05
3.30499e-05
4.72941e-05
5.6275e-05
4.30956e-05
1.96825e-05
1.0775e-05
8.71921e-06
8.15275e-06
7.95893e-06
1.10684e-05
2.27062e-05
3.55426e-05
4.12034e-05
4.25288e-05
5.10496e-05
3.32267e-05
0.000381472
0.00606717
0.00657631
0.0021272
7.82371e-05
1.12629e-05
9.877e-06
0.000277209
0.0115195
0.0204537
0.0213165
0.0170916
0.0123813
0.00676755
0.00165001
0.000265457
0.00020018
0.000431805
0.00356611
0.0139202
0.0233198
0.0251644
0.0168636
0.00386438
4.08842e-05
4.90894e-06
8.19035e-06
1.21773e-05
5.89475e-06
0.0148982
0.0265393
0.0245203
0.0255144
0.0314059
0.0338609
0.0330482
0.026965
0.0131916
0.00292997
0.000146062
6.29821e-05
0.000114188
0.00036785
0.000927738
0.00132817
0.00132426
0.00138099
0.0014072
0.00111985
0.000445373
0.000107135
2.10975e-05
5.65994e-06
2.6274e-06
2.49109e-06
2.81013e-06
4.29156e-06
3.67596e-06
8.97516e-07
9.98881e-06
2.80521e-05
0.000311685
0.00517173
0.00865217
0.00816696
0.00590357
0.00358759
0.00160522
0.00065944
0.000241432
0.000127088
7.51143e-05
4.83638e-05
1.29688e-05
5.96941e-06
2.88046e-05
0.000982489
0.00599965
0.0103817
0.0124247
0.0137276
0.0148169
0.0110681
0.00856133
0.00172213
9.19155e-05
2.92653e-06
4.4003e-06
5.36575e-06
0.000384797
0.0149638
0.0278204
0.0330168
0.0344582
0.0329915
0.0336461
0.0329264
0.0314848
0.0301383
0.0304521
0.0301929
0.0319691
0.0317552
0.0318991
0.028001
0.0236665
0.0160644
0.00853769
0.00214014
9.40763e-05
1.73633e-05
7.22993e-06
2.41872e-06
1.23882e-06
5.27051e-07
3.8727e-07
3.53755e-07
7.5842e-07
2.92797e-06
1.11951e-06
1.02676e-06
1.271e-06
8.00866e-06
0.000104862
0.00291339
0.00867728
0.0151556
0.021908
0.0269091
0.0284049
0.0287046
0.0282973
0.0259039
0.0232916
0.0174995
0.00895655
0.000544439
5.82572e-05
3.74891e-05
3.27314e-06
1.49822e-06
9.13635e-07
5.15817e-07
4.21711e-07
4.30036e-07
4.62467e-07
5.48132e-07
1.06063e-06
2.24109e-06
1.70274e-06
2.5738e-05
0.000463733
0.0082605
0.016386
0.0156086
0.0196186
0.0173357
0.0171252
0.0134838
0.00659304
0.00179794
0.000200537
6.79426e-05
1.52317e-05
7.61215e-06
2.47184e-06
3.26687e-06
8.60705e-07
1.58544e-06
8.94998e-07
1.89333e-06
1.38236e-06
3.33994e-06
1.03966e-05
1.5729e-05
3.42888e-05
5.43964e-05
3.89198e-05
1.90355e-05
1.50861e-05
0.000275789
0.000150193
4.34886e-05
1.19735e-05
4.95767e-06
1.97223e-06
7.52776e-07
3.64896e-07
3.51465e-07
2.67638e-07
0.00301687
0.0099584
0.010966
0.0109334
0.0109393
0.0109339
0.0109401
0.0109331
0.0109397
0.0109325
0.0109395
0.0109324
0.0109397
0.0109324
0.0109397
0.0109319
0.0109355
0.0109312
0.010903
0.0109061
0.0109292
0.0109385
0.010931
0.0109392
0.0109314
0.0109394
0.0109318
0.0109394
0.0109318
0.0109394
0.0109323
0.0109398
0.0109332
0.0109401
0.0109335
0.0109401
0.0109332
0.0109395
0.0109324
0.0109393
0.0109322
0.0109396
0.0109323
0.0109396
0.010932
0.0109386
0.0109309
0.0109283
0.0109053
0.0408525
0.0307838
0.0224704
0.0220309
0.0227731
0.0198799
0.0145136
0.00994033
0.00697443
0.00427501
0.00182307
0.000446606
5.10591e-05
1.91606e-05
0.000120334
0.00018318
0.000249975
0.000208589
0.000128287
9.14452e-05
7.55385e-05
7.3286e-05
7.80018e-05
8.99448e-05
9.20082e-05
6.85245e-05
3.9462e-05
2.57587e-05
2.53007e-05
4.89218e-05
0.000169759
0.000919893
0.00375474
0.00513613
0.0022972
0.000222836
1.75087e-05
1.38231e-06
4.82563e-07
3.51136e-07
9.01941e-07
1.13391e-05
0.000148042
0.000225965
0.000118517
6.03068e-05
3.97503e-05
7.2388e-05
0.00024447
0.00129216
0.00304615
0.00345437
0.00326005
0.00307645
0.00370785
0.00513065
0.00675991
0.00833227
0.00951708
0.0101348
0.00977656
0.00854198
0.00667114
0.00400245
0.00119411
0.00036259
0.000242217
0.000133847
3.61653e-05
9.55826e-06
5.58832e-06
9.57701e-06
3.8609e-05
0.000203518
0.00127686
0.00232815
0.00128683
0.000110818
2.16344e-05
1.68457e-05
2.63316e-05
5.36888e-05
8.02272e-05
9.93361e-05
9.83247e-05
8.79994e-05
8.37725e-05
8.5607e-05
8.86644e-05
9.0288e-05
9.61095e-05
0.000101547
0.000110587
0.000113405
0.000101245
8.41689e-05
7.26023e-05
7.42082e-05
0.000102199
0.000136511
7.79565e-05
2.71671e-05
4.24478e-05
0.000214629
0.000134346
0.000309055
0.00378455
0.00556127
0.00327923
0.0016205
0.000685238
0.000194199
5.92824e-05
2.00773e-05
9.90421e-06
6.32975e-06
6.22463e-06
8.20542e-06
1.19207e-05
2.39266e-05
4.35774e-05
6.02205e-05
4.02664e-05
1.61322e-05
7.537e-06
5.60141e-06
5.49522e-06
6.7058e-06
1.13034e-05
2.24292e-05
4.30523e-05
8.01187e-05
0.000111809
6.81022e-05
6.42514e-05
0.00295041
0.00825128
0.00545583
0.000341866
2.37342e-05
1.00393e-05
7.35903e-05
0.00723729
0.0186143
0.0216928
0.0193159
0.0172143
0.0145907
0.00931439
0.00275447
0.000282722
0.000191351
0.000343801
0.00201453
0.0110152
0.0227569
0.0293132
0.0252417
0.0130881
0.000645852
7.53453e-06
4.3251e-06
4.57761e-06
1.56686e-06
0.0190987
0.0238672
0.0190965
0.0235212
0.0298701
0.0299409
0.0228017
0.0177169
0.00613701
0.000580184
0.000159062
0.000157905
0.000328545
0.000635837
0.000814344
0.00104062
0.0022657
0.00422388
0.00610217
0.00699781
0.00623601
0.00399068
0.000686922
4.87946e-05
8.10169e-06
2.94837e-06
2.0487e-06
1.92406e-06
1.61078e-06
4.03972e-07
1.03933e-05
7.92419e-05
0.00448079
0.00849737
0.00649528
0.0033508
0.000805793
0.000253339
0.000131291
9.1167e-05
7.11849e-05
5.84819e-05
3.75319e-05
1.43584e-05
8.7717e-06
3.05877e-05
0.00223514
0.0110624
0.0173193
0.0214422
0.0232641
0.023424
0.0237446
0.0221206
0.0197125
0.017467
0.00947429
0.000277939
3.77626e-06
8.54591e-06
0.000410457
0.0166298
0.0324982
0.0393134
0.0392221
0.0371079
0.0338361
0.029207
0.0238854
0.0216251
0.0204114
0.0218514
0.0252013
0.0283541
0.0331824
0.036474
0.0368476
0.0360623
0.0332856
0.0277357
0.019518
0.0109348
0.00239016
6.60598e-05
1.0988e-05
2.78964e-06
8.71285e-07
4.86267e-07
4.85308e-07
1.48019e-06
5.17045e-07
9.51854e-07
7.28947e-06
0.00031269
0.00809978
0.0149153
0.0191246
0.0222121
0.0234141
0.0244132
0.0242003
0.025461
0.0276991
0.0287086
0.0302839
0.0300607
0.0295502
0.0223892
0.0124253
0.00758132
0.000130745
4.39541e-05
2.0679e-05
9.97627e-06
4.83112e-06
2.22976e-06
1.75139e-06
1.07114e-06
8.55402e-07
1.40729e-06
3.54128e-06
0.000216501
0.0124115
0.0192206
0.0192485
0.021081
0.0210124
0.0223272
0.0251374
0.0269071
0.0236394
0.017659
0.00949088
0.00205563
0.000572131
0.000124493
4.34191e-05
1.22548e-05
2.61454e-05
1.09095e-05
1.90683e-05
2.33185e-05
3.92178e-05
8.16939e-05
0.000131695
0.000312179
0.000345062
0.000358211
0.000449109
0.000184688
7.48046e-05
0.00280856
0.0024226
0.00136347
0.000332277
0.000113796
5.33548e-05
2.68961e-05
1.25783e-05
6.34152e-06
4.50086e-06
3.74806e-06
1.73065e-06
0.0112219
0.0137694
0.0137269
0.0137399
0.013741
0.0137389
0.0137407
0.0137387
0.0137405
0.0137388
0.0137408
0.0137391
0.013741
0.0137384
0.0137359
0.0137211
0.013517
0.0135127
0.0137219
0.0137387
0.0137382
0.0137402
0.0137383
0.0137401
0.0137384
0.0137401
0.0137384
0.0137402
0.0137388
0.0137409
0.0137394
0.0137415
0.0137396
0.0137413
0.0137394
0.0137409
0.0137391
0.0137407
0.0137391
0.013741
0.0137394
0.0137413
0.0137389
0.0137399
0.0137361
0.0137183
0.0135126
0.0349674
0.0159802
0.00890593
0.0110641
0.0131395
0.00978019
0.0051776
0.00268421
0.00163443
0.000659615
0.000187878
7.80564e-05
3.519e-05
1.93045e-05
0.000151822
0.000254126
0.000252265
0.000135996
9.13614e-05
7.31486e-05
7.16921e-05
6.78774e-05
6.63856e-05
6.88044e-05
6.93079e-05
6.16796e-05
4.5883e-05
2.88218e-05
2.0317e-05
2.42511e-05
7.81694e-05
0.000679257
0.00475926
0.00577432
0.00217325
0.000130191
5.23632e-06
3.08484e-07
1.33777e-07
8.70811e-08
1.50179e-07
1.1467e-06
3.3695e-05
0.000135975
0.000106848
5.74779e-05
4.49694e-05
0.000102712
0.000360489
0.00206249
0.00394292
0.0049026
0.00526781
0.00578535
0.00637836
0.00683311
0.00676944
0.00586893
0.00415609
0.00304428
0.00217511
0.00140889
0.000763146
0.000429073
0.000288023
0.00023062
0.000143373
3.93323e-05
1.01192e-05
5.22322e-06
5.42404e-06
8.25145e-06
2.24962e-05
0.000138429
0.00146203
0.00181029
0.000186455
2.74483e-05
1.92131e-05
3.8706e-05
0.000118295
0.000340407
0.0007014
0.000817954
0.000572881
0.000359192
0.000215935
0.000136009
0.000104337
7.87961e-05
7.7716e-05
7.07256e-05
6.95934e-05
6.05571e-05
5.39502e-05
4.76439e-05
4.46873e-05
4.13898e-05
4.18311e-05
3.83846e-05
2.26982e-05
2.04022e-05
7.4748e-05
0.000228595
0.000119654
0.000652026
0.00470741
0.00568169
0.00360579
0.00280433
0.00196909
0.000799984
0.000151093
3.53052e-05
1.20879e-05
8.77009e-06
9.82928e-06
1.16744e-05
1.60213e-05
2.67761e-05
4.0949e-05
4.16425e-05
2.31407e-05
9.84229e-06
5.27489e-06
4.47439e-06
5.49031e-06
1.19301e-05
5.32177e-05
0.000379948
0.00228212
0.00416477
0.00476769
0.000719515
0.000235893
0.00691141
0.00865594
0.00314456
0.000114773
1.70754e-05
2.17843e-05
0.000569614
0.0128043
0.0211822
0.0212362
0.0196167
0.0192451
0.0178267
0.0142053
0.00732275
0.000684883
0.000209693
0.000379412
0.00120498
0.00909191
0.0229747
0.0305045
0.0286925
0.0200348
0.00465395
1.98745e-05
2.42639e-06
1.32178e-06
3.84966e-07
0.020156
0.0180476
0.015433
0.0202024
0.022164
0.0189781
0.0120805
0.00565645
0.00136112
0.000332726
0.000242802
0.000383468
0.00071313
0.000732693
0.000602411
0.000942345
0.00271739
0.00546822
0.00884817
0.0118421
0.0132175
0.0120676
0.00910066
0.00254116
9.46198e-05
7.46128e-06
2.34754e-06
1.60474e-06
8.66436e-07
3.33198e-07
1.55732e-05
0.000375121
0.00713811
0.00801565
0.0025366
0.000141899
7.81376e-05
6.44315e-05
4.71473e-05
3.68727e-05
2.96319e-05
2.103e-05
1.21431e-05
1.0762e-05
3.86565e-05
0.00290635
0.0150343
0.0234522
0.0271994
0.0277747
0.0282534
0.0279467
0.027027
0.0273324
0.027324
0.0270554
0.024263
0.014916
0.00227686
3.66329e-06
0.00018425
0.0154881
0.0305264
0.0366425
0.0383378
0.0371108
0.030751
0.020321
0.016083
0.0116656
0.0117436
0.0117029
0.012014
0.0147148
0.0204583
0.0279041
0.0348528
0.0399934
0.0419204
0.0406457
0.0381961
0.0337864
0.0261768
0.015002
0.00314154
5.64635e-05
6.01535e-06
1.40201e-06
7.07787e-07
8.22744e-07
5.17783e-07
1.73793e-06
5.88145e-05
0.00810142
0.0183152
0.0211238
0.0225336
0.0214877
0.0199949
0.0156244
0.0113248
0.00826346
0.00841533
0.00917445
0.0129264
0.0196503
0.02919
0.0344379
0.032473
0.0261517
0.0116977
0.00515073
0.00184299
0.000247655
8.96162e-05
2.94187e-05
1.24749e-05
6.35605e-06
1.64494e-06
9.99138e-07
2.22347e-05
0.00429514
0.0120389
0.014107
0.0114533
0.0095174
0.0053142
0.0143674
0.0167422
0.0274174
0.0294719
0.0291696
0.0246437
0.0175934
0.0093609
0.00496262
0.00150502
0.000932813
0.000182336
0.000556817
0.000309063
0.000856321
0.00054577
0.00257945
0.00267038
0.00299116
0.00301044
0.00299284
0.00216194
0.000316158
0.000896636
0.00415792
0.00680674
0.00781299
0.00442248
0.00221869
0.000575081
0.000356547
0.00018348
0.000118265
6.98794e-05
5.34613e-05
3.18398e-05
2.39128e-05
0.0153689
0.0187144
0.018679
0.0186926
0.0186888
0.0186928
0.018689