/*--------------------------------*- C++ -*----------------------------------*\
| =========                 |                                                 |
| \\      /  F ield         | OpenFOAM: The Open Source CFD Toolbox           |
|  \\    /   O peration     | Version:  2.1.1                                 |
|   \\  /    A nd           | Web:      www.OpenFOAM.org                      |
|    \\/     M anipulation  |                                                 |
\*---------------------------------------------------------------------------*/
FoamFile
{
    version     2.0;
    format      ascii;
    class       volScalarField;
    location    "0.003300000";
    object      OH;
}
// * * * * * * * * * * * * * * * * * * * * * * * * * * * * * * * * * * * * * //

dimensions      [0 0 0 0 0 0 0];

internalField   nonuniform List<scalar> 
12384
(
0.0156402
0.0142652
0.0128593
0.00980653
0.00850785
0.00516895
0.00411993
0.00223633
0.00159232
0.00152393
0.00295145
0.00354397
0.00359994
0.00357478
0.000980803
0.000930421
0.00100171
0.00120088
0.00142819
0.00163404
0.00180757
0.00190727
0.00200334
0.00207813
0.0021296
0.00207704
0.00202983
0.00193878
0.00183618
0.00175946
0.00197938
0.00231687
0.00256776
0.00267242
0.0021955
0.00162717
0.000986406
0.000635609
0.000585408
0.000962576
0.00176793
0.00342537
0.00356994
0.00347523
0.00406005
0.00563177
0.00563267
0.00541551
0.00553634
0.00551169
0.00578429
0.00613641
0.00616426
0.00634285
0.00608068
0.00593478
0.00547119
0.00535518
0.00505514
0.00487073
0.00457097
0.00453032
0.00437489
0.00432842
0.00424155
0.00382481
0.00309852
0.00348256
0.00321264
0.00198087
0.00118232
0.00106185
0.00146046
0.00297715
0.00297723
0.00269181
0.00280027
0.00263747
0.002339
0.00209221
0.00207596
0.00228057
0.00259289
0.00289954
0.00313737
0.00325807
0.00336557
0.00329373
0.0034633
0.00333582
0.00334438
0.00334093
0.00325069
0.00328703
0.00312303
0.00322794
0.0027612
0.00262255
0.00189819
0.00151999
0.00153899
0.00347132
0.00223535
0.00281716
0.00369262
0.0024644
0.00212228
0.00145593
0.00133718
0.00127547
0.00115773
0.00120704
0.00120218
0.00157404
0.00178516
0.00232594
0.00267357
0.00292926
0.0032789
0.00349921
0.00355507
0.00351358
0.00350086
0.0035063
0.00352968
0.00349865
0.00348133
0.00353996
0.00296497
0.00119102
0.0010393
0.00186771
0.00321523
0.00339168
0.0016856
0.00184965
0.00212438
0.00259335
0.00315172
0.0033275
0.00325427
0.00302022
0.00282312
0.00288228
0.00294399
0.0033135
0.00336163
0.00192307
0.000950097
0.000748323
0.00083145
0.000963861
0.000981149
0.000902824
0.000736206
0.000654121
0.000666593
0.000794342
0.000963015
0.00110809
0.00173144
0.00225241
0.00249144
0.00242265
0.00163731
0.00218179
0.00228207
0.000725964
0.000344953
0.000186163
9.61249e-05
8.04796e-05
0.000138039
0.000239951
0.000704555
0.00343134
0.00168706
0.000905539
0.000673915
0.000564936
0.000507984
0.000545337
0.000454659
0.000337609
0.000315316
0.000327918
0.000425602
0.000482068
0.000486251
0.000568012
0.000728081
0.000879877
0.000896814
0.000195613
0.00158209
0.00161381
0.00166296
0.00181398
0.00199527
0.00227031
0.00259298
0.00279269
0.00302376
0.00303446
0.00312243
0.00316215
0.00318396
0.00298424
0.00274813
0.0018044
0.000689096
0.000386993
0.000366107
0.000345206
0.000382111
0.000361522
0.000517047
0.00101043
0.00171725
0.00199809
0.00227926
0.00270298
0.00365256
0.00430628
0.00668525
0.00538806
0.00509127
0.00517258
0.00581735
0.0066733
0.00690029
0.0055557
0.00178036
0.000927536
0.00111901
0.00127309
0.00158223
0.00174179
0.00203645
0.00222957
0.0027325
0.00295143
0.00310122
0.00336446
0.00334633
0.00330759
0.00315901
0.00313723
0.0031615
0.00332864
0.0033969
0.00342211
0.00326835
0.00324426
0.00136337
0.00152712
0.00167759
0.00134824
0.00113793
0.000827123
0.000786311
0.000706276
0.000706552
0.000969971
0.00086964
0.000812815
0.000926072
0.00114647
0.00148253
0.00188601
0.0024304
0.00284702
0.00331919
0.00367778
0.00372763
0.00409292
0.00414235
0.00426623
0.00404889
0.00502565
0.0056437
0.00673824
0.00652848
0.00593329
0.000346954
0.000351464
0.000369507
0.000384699
0.000365088
0.000327892
0.000363481
0.000312517
0.000425631
0.000380183
0.000495776
0.000476013
0.000726218
0.000690186
0.000933354
0.000948494
0.00108816
0.00122131
0.00131558
0.00148922
0.00162329
0.00178164
0.00197
0.00206777
0.00365755
0.0078411
0.0100711
0.0108809
0.00914791
0.00863479
1.61672e-07
8.32249e-06
1.54342e-06
2.25907e-07
1.36368e-07
5.00934e-08
6.82379e-09
8.7393e-11
1.83238e-11
7.0455e-13
2.87123e-16
8.09749e-19
1.2988e-22
7.95256e-27
3.66428e-31
1.44088e-35
5.35903e-40
2.06079e-44
8.2807e-49
3.29179e-53
1.23508e-57
4.30456e-62
1.40157e-66
4.33553e-71
1.30308e-75
3.89334e-80
1.17779e-84
3.64415e-89
1.15289e-93
3.58537e-98
8.17044e-117
1.92547e-119
1.86661e-123
1.2508e-127
7.21111e-132
3.82767e-136
1.91319e-140
9.08651e-145
4.11936e-149
1.79286e-153
7.53945e-158
3.09037e-162
1.24621e-166
8.30744e-172
8.56224e-177
1.50708e-181
3.97154e-186
1.19039e-190
3.44976e-195
8.80945e-200
1.94541e-204
3.79972e-209
6.75151e-214
1.11236e-218
1.71945e-223
2.50745e-228
3.47409e-233
4.59285e-238
5.44532e-243
1.83311e-248
0.0174271
0.0186846
0.0189544
0.0169558
0.0163893
0.0144481
0.011254
0.00698704
0.00289275
0.00136764
0.00139028
0.00280922
0.00355766
0.00352675
0.000705872
0.00087
0.00145738
0.00253161
0.00308643
0.00317534
0.00309509
0.00303487
0.0030506
0.00313943
0.0033949
0.0037473
0.00414459
0.00437089
0.00444425
0.00442042
0.00455649
0.00505423
0.00504722
0.00444006
0.00359131
0.00229372
0.00130439
0.000666629
0.000590765
0.00105068
0.00216079
0.00356825
0.0033789
0.00335147
0.00382956
0.00568092
0.00488057
0.00474226
0.00451705
0.00471407
0.0050815
0.00567872
0.00660672
0.00719345
0.00752347
0.0070011
0.00651265
0.00574181
0.00542438
0.00511097
0.00500215
0.00484322
0.00485603
0.00494366
0.00525349
0.00504569
0.00420537
0.00356112
0.00310498
0.00178104
0.00119168
0.00131344
0.00210427
0.00324587
0.00298958
0.00272125
0.00275351
0.00233313
0.00208131
0.00242246
0.00313994
0.00351959
0.00325675
0.00294381
0.00277471
0.0027465
0.00282257
0.0029622
0.00313703
0.00334175
0.00353231
0.00362856
0.00365581
0.00367893
0.00367815
0.00368605
0.00356062
0.0033489
0.00278285
0.00206302
0.0016877
0.00312787
0.00239871
0.0027425
0.00340162
0.00233948
0.00167988
0.00114729
0.000930612
0.000874363
0.00116073
0.00177611
0.00292144
0.00350187
0.00346086
0.0033854
0.00337241
0.00328245
0.00319716
0.00313562
0.0028859
0.00276623
0.00248528
0.00252935
0.00267903
0.00319749
0.00334077
0.00329673
0.00243609
0.00111595
0.00106098
0.00194352
0.00313914
0.00341037
0.00161673
0.00189716
0.00271597
0.00338688
0.00268564
0.00260145
0.00264245
0.00344157
0.0032484
0.00265352
0.00225393
0.00157858
0.00123432
0.00155702
0.00342229
0.00184937
0.00115828
0.00113507
0.00107413
0.00138967
0.00344727
0.00189443
0.000951733
0.000680716
0.000737304
0.000971984
0.00168584
0.00219868
0.00244
0.0027018
0.0022966
0.00247341
0.000347855
0.00011219
7.05013e-05
3.97299e-05
3.5065e-05
4.31424e-05
0.000138125
0.000324119
0.00138119
0.00272055
0.00109752
0.000728571
0.000645291
0.000685448
0.000744272
0.000746073
0.000570881
0.000450311
0.000346634
0.00033126
0.000346626
0.00040268
0.000458003
0.000607326
0.000765379
0.000960134
0.00124776
0.00128703
0.00143417
0.00150433
0.00172038
0.00223529
0.00310036
0.00376245
0.00370212
0.00341001
0.00344759
0.00365191
0.00365892
0.00350754
0.00324911
0.00291539
0.00262597
0.00164436
0.000594974
0.000404346
0.000485651
0.000606593
0.000639093
0.00104669
0.000800357
0.000523337
0.000949742
0.00125241
0.00167385
0.00214307
0.00286996
0.00322602
0.00535652
0.00598703
0.00582595
0.00603558
0.00595871
0.00571465
0.00546925
0.00351482
0.0014335
0.000628403
0.000625363
0.000578597
0.000508524
0.000718705
0.0007053
0.000944606
0.00107
0.00132465
0.00142501
0.00166679
0.00162553
0.00146814
0.00130064
0.00119925
0.00123511
0.00132075
0.0017865
0.00209802
0.00281081
0.00269174
0.000978002
0.0011403
0.00111226
0.000548199
0.00040822
0.000236255
0.000219033
0.000269377
0.000277804
0.000299467
0.000255627
0.000221688
0.000208895
0.000228392
0.000209862
0.000305014
0.000320105
0.000473212
0.000770774
0.00123552
0.00252414
0.00214981
0.00239105
0.00232238
0.0015934
0.00163944
0.00224697
0.00425974
0.00545323
0.00621818
0.000198458
0.000237987
0.000225538
0.000204501
0.000233445
0.000248897
0.000193078
0.000228805
0.0001712
0.000206845
0.000191647
0.000302548
0.000233056
0.000346363
0.000293398
0.000406244
0.000336612
0.000414571
0.000348449
0.000355537
0.000322958
0.000326154
0.000326089
0.000371834
0.000721405
0.00182992
0.00389145
0.00418743
0.00353261
0.00346102
3.32974e-05
5.01959e-05
5.70933e-05
5.77291e-05
6.2386e-05
4.93816e-05
2.6627e-05
1.9378e-07
8.79588e-08
9.80943e-09
3.01576e-12
2.66143e-14
3.15543e-18
1.84328e-22
8.58007e-27
3.3759e-31
1.16809e-35
3.84662e-40
1.31755e-44
4.74557e-49
1.72976e-53
6.05648e-58
2.0099e-62
6.27938e-67
1.88025e-71
5.45218e-76
1.57344e-80
4.57436e-85
1.36717e-89
4.0838e-94
3.35802e-112
6.93442e-115
6.01014e-119
3.56956e-123
1.83338e-127
8.88554e-132
4.14611e-136
1.88901e-140
8.33091e-145
3.58027e-149
1.48932e-153
6.06351e-158
2.41267e-162
9.52057e-167
1.25022e-171
2.42325e-176
6.67038e-181
2.03702e-185
5.94346e-190
1.5231e-194
3.33816e-199
6.46191e-204
1.13451e-208
1.86116e-213
2.86931e-218
4.20131e-223
5.84127e-228
7.77514e-233
9.51654e-238
4.64687e-243
0.0181696
0.0127139
0.00728406
0.00623704
0.00601459
0.00674057
0.00838699
0.0111868
0.0112146
0.00463662
0.00143395
0.00121373
0.00261246
0.00279933
0.000623085
0.00120475
0.00243086
0.00277523
0.00274896
0.00266492
0.00259764
0.00246492
0.0022831
0.00208606
0.00199487
0.00217361
0.00280356
0.00377223
0.00484526
0.00576411
0.0062936
0.00648727
0.00715467
0.00737317
0.00604898
0.00337372
0.00143724
0.000737349
0.000589686
0.00111839
0.00241812
0.0036288
0.00339668
0.00334149
0.00376879
0.00455867
0.00380627
0.00323922
0.00338548
0.00366657
0.00383558
0.00414262
0.0047387
0.00566776
0.0067534
0.00754212
0.00719192
0.006234
0.00509434
0.00444829
0.00403299
0.00385431
0.00382432
0.00404332
0.00466249
0.00558204
0.00462841
0.00350717
0.00280831
0.00162062
0.00129235
0.00169986
0.00276478
0.00345195
0.0029728
0.00265757
0.00252151
0.0021441
0.00239472
0.00353633
0.00306258
0.00222932
0.00184876
0.00176277
0.00182553
0.00195169
0.00208732
0.00221258
0.00241421
0.00259163
0.00284152
0.00310178
0.00330318
0.00345954
0.00352281
0.00359427
0.00356716
0.00360355
0.00352955
0.00274011
0.00219938
0.00354221
0.00213912
0.00280272
0.00310091
0.00272178
0.0017343
0.00092036
0.000835851
0.00130354
0.00226828
0.00345947
0.00336673
0.00321004
0.00300496
0.00290112
0.00276307
0.00268748
0.0026055
0.0024889
0.00237837
0.00219285
0.00193159
0.00168725
0.00163188
0.00197469
0.00238571
0.00221068
0.00141282
0.00106542
0.00153004
0.00250434
0.00312477
0.00331804
0.00154453
0.00221122
0.00345217
0.0016828
0.00137363
0.00223502
0.00339743
0.00196362
0.00108654
0.000972989
0.00138032
0.0031474
0.000915706
0.000514692
0.00058745
0.000822056
0.000952497
0.000986135
0.000825535
0.000638611
0.00044234
0.000482752
0.00331208
0.00148768
0.000750243
0.000646878
0.00115602
0.00181816
0.00219005
0.00208275
0.00280622
0.000298419
6.59982e-05
3.143e-05
2.81742e-05
1.84671e-05
2.08299e-05
2.78485e-05
0.000127446
0.000467862
0.00294261
0.00195009
0.00110297
0.00109818
0.00157953
0.00219668
0.00243903
0.00227388
0.00173949
0.00125854
0.000738254
0.000529245
0.00042597
0.000413024
0.000480988
0.000602301
0.000803792
0.00102688
0.00118319
0.00105347
0.00132099
0.00146301
0.00193721
0.00320647
0.00368139
0.00164203
0.000906655
0.000996174
0.0011128
0.00196169
0.00318258
0.00366125
0.00329179
0.00292306
0.00250124
0.00136254
0.000549167
0.000701388
0.00120717
0.00176693
0.00219254
0.00197702
0.00195909
0.00131795
0.000728614
0.00077825
0.00115532
0.00158283
0.00211985
0.0025356
0.00647498
0.0065183
0.0034562
0.00206518
0.0041862
0.00479792
0.00760764
0.00756114
0.00472113
0.00162336
0.00112413
0.000823322
0.000829878
0.000423501
0.000608847
0.000385068
0.000494826
0.000422142
0.000439153
0.000438156
0.000487733
0.000451292
0.000403647
0.000384135
0.000297573
0.000389493
0.000382655
0.000812177
0.00135495
0.00178485
0.000791185
0.000766161
0.000538386
0.000219577
0.000228852
0.000318818
0.000367151
0.000618292
0.00114742
0.00159693
0.00184431
0.00128375
0.000698717
0.000505521
0.000326537
0.000248675
0.00019175
0.000164532
0.000172257
0.000183333
0.000310499
0.000298665
0.000337638
0.00041056
0.000284063
0.000426908
0.000425835
0.000896109
0.00240035
0.0032528
0.000147994
0.000245869
0.000282353
0.000356277
0.000447119
0.000614376
0.000561678
0.000696691
0.00057435
0.000515691
0.000535669
0.000459275
0.000193968
0.000132668
0.00010917
0.000109962
9.34412e-05
9.00485e-05
8.39763e-05
8.78359e-05
8.75581e-05
7.44114e-05
0.000103022
5.97643e-05
0.000159431
0.000211747
0.00045226
0.000704411
0.000675153
0.000881452
1.19417e-05
1.90398e-05
1.18975e-05
9.88031e-06
8.13139e-06
7.49613e-06
6.50588e-06
5.23459e-06
1.88428e-06
2.11398e-07
2.36423e-11
6.37245e-13
5.54337e-17
2.48592e-21
1.25289e-25
5.16128e-30
1.61502e-34
4.09822e-39
9.74765e-44
2.42995e-48
6.44551e-53
1.71875e-57
4.43144e-62
1.07868e-66
2.48644e-71
5.50444e-76
1.20318e-80
2.68064e-85
5.47966e-90
9.12078e-96
2.09553e-111
1.581e-113
1.34827e-117
7.00188e-122
3.14318e-126
1.35732e-130
5.81492e-135
2.50241e-139
1.06973e-143
4.54201e-148
1.89623e-152
7.83136e-157
3.20603e-161
1.312e-165
5.27081e-170
1.66395e-174
5.55295e-179
1.72913e-183
4.85222e-188
1.18537e-192
2.42077e-197
4.30123e-202
6.90814e-207
1.04234e-211
1.48829e-216
2.03828e-221
2.66178e-226
3.35463e-231
3.52471e-236
3.99845e-242
0.00561785
0.00378008
0.00254314
0.00234485
0.00243538
0.00299005
0.00386568
0.00555135
0.00863988
0.0116202
0.00449636
0.00140839
0.00153728
0.00264985
0.00127265
0.00224265
0.00267562
0.00301062
0.00315251
0.0031761
0.00313389
0.00303392
0.00290726
0.00263578
0.00217275
0.00173169
0.00171981
0.00230708
0.00370764
0.00548136
0.00660383
0.00675189
0.00719388
0.00841609
0.00860044
0.00472995
0.00164525
0.000695638
0.000524621
0.000925155
0.00201895
0.00356245
0.00350562
0.00365433
0.00377895
0.00328854
0.00223915
0.00237836
0.00306196
0.00387512
0.0042126
0.00425196
0.0044301
0.00466554
0.00542353
0.00627453
0.00664295
0.00572771
0.00454198
0.0034893
0.00297322
0.00272445
0.00268298
0.00287466
0.00356524
0.00499146
0.00460808
0.0033869
0.0025614
0.00149616
0.00131731
0.00189893
0.00298026
0.00346971
0.0029447
0.00257897
0.00230021
0.00227251
0.0035175
0.00264421
0.00161416
0.00133994
0.0014189
0.00162572
0.00188571
0.00216317
0.00236239
0.0024097
0.00241548
0.00246319
0.00257885
0.00274831
0.00291541
0.00308313
0.00322829
0.00329196
0.00329061
0.00338169
0.00357749
0.00322338
0.00292792
0.00338818
0.0019548
0.00285672
0.00305423
0.00317393
0.00171076
0.000923542
0.00104697
0.00192774
0.00324747
0.00334717
0.00301961
0.00240568
0.00193305
0.00173516
0.00177961
0.00187324
0.00200235
0.00219373
0.00223641
0.00212073
0.00187082
0.0014591
0.00119017
0.00125966
0.0014231
0.0012308
0.00104989
0.0013578
0.00204223
0.00251921
0.00268518
0.00280276
0.00160994
0.00292534
0.00166295
0.000923038
0.00133343
0.00347923
0.00183367
0.000845142
0.00107114
0.00303107
0.000745439
0.000365157
0.000393954
0.000464631
0.000654989
0.00118639
0.0019821
0.00244704
0.00151779
0.000737301
0.000456274
0.000299135
0.000272786
0.00148878
0.00222032
0.000855065
0.000757391
0.00145504
0.00164381
0.00117124
0.000718163
8.98162e-05
3.67739e-05
2.5455e-05
2.42022e-05
1.60834e-05
1.79224e-05
2.541e-05
0.000170541
0.000763946
0.00340977
0.00187824
0.00169289
0.00253696
0.00344183
0.0034454
0.0034401
0.00357487
0.00338328
0.00274047
0.00185852
0.00106782
0.000639817
0.000461624
0.000448982
0.000542982
0.000661536
0.000828144
0.000931611
0.000564302
0.0011407
0.0014004
0.00268912
0.0033521
0.000953878
0.000597718
0.000665477
0.000837009
0.001219
0.00210056
0.0035638
0.00355196
0.0030544
0.00259415
0.00184134
0.000808819
0.000774878
0.0017159
0.00318919
0.00307064
0.00249873
0.00189301
0.00326766
0.00304884
0.00277394
0.00130454
0.000598608
0.000947087
0.00114521
0.00172218
0.00611147
0.00140511
0.000150127
9.08932e-05
0.000151483
0.00018453
0.000212538
0.000274933
0.000193495
0.000197002
0.000197186
0.000325422
0.000471957
0.00106219
0.00297546
0.00265447
0.00167514
0.00131543
0.000920162
0.000697632
0.000498151
0.000387095
0.000324912
0.000271135
0.000210866
0.000201811
0.000195686
0.000292512
0.000533713
0.00102957
0.000382623
0.00044171
0.000294238
0.000265598
0.000500515
0.00137087
0.00249489
0.00298608
0.00054949
0.000263305
0.000227423
0.000316482
0.000502249
0.00125093
0.00336889
0.00224544
0.00105863
0.000623587
0.000306326
0.000332367
0.000193378
0.000196488
0.000167399
0.000159618
0.000126535
0.000182866
0.000180807
0.000358953
0.000691572
0.00138354
0.000226206
0.000418063
0.00100957
0.00219874
0.00322245
0.00350198
0.00166623
0.00297377
0.00332865
0.00375784
0.00308476
0.00158733
0.00141475
0.000590437
0.000392749
0.000154733
0.000196847
0.000110906
0.000163967
0.000111294
0.000134036
0.000102652
0.00011956
0.000189883
0.000172896
0.000535397
0.000521986
0.000961175
0.00100735
0.000978125
0.000231924
0.000794618
0.000465497
0.00026979
0.000135673
5.73662e-05
4.75467e-05
5.13659e-05
2.50231e-05
1.41736e-05
6.26471e-06
9.6382e-08
2.2251e-12
5.92256e-17
2.41952e-21
1.17418e-25
3.99128e-30
1.04155e-34
2.40747e-39
5.65351e-44
1.46917e-48
4.00978e-53
1.08922e-57
2.79543e-62
6.8164e-67
1.57209e-71
3.55993e-76
8.09922e-81
1.82161e-85
1.00668e-90
7.89257e-106
7.53761e-109
5.23687e-113
2.49806e-117
1.04495e-121
4.25207e-126
1.72552e-130
7.16177e-135
2.97942e-139
1.24635e-143
5.12033e-148
2.08549e-152
8.30805e-157
3.29338e-161
1.28778e-165
5.06864e-170
1.85651e-174
5.99342e-179
1.70974e-183
4.15636e-188
8.21066e-193
1.39259e-197
2.09751e-202
2.9911e-207
4.06378e-212
5.36789e-217
6.79649e-222
8.36591e-227
9.26252e-232
3.16908e-237
0.00183428
0.00152794
0.00171374
0.00175042
0.0020214
0.002568
0.00366505
0.00507666
0.00705719
0.00988627
0.0122773
0.00642
0.00173951
0.00155889
0.00275582
0.00277837
0.0032655
0.00339781
0.00335119
0.00321339
0.0030788
0.00301568
0.00299472
0.00293489
0.00270039
0.0022139
0.00168995
0.00170392
0.00233559
0.00389962
0.00593371
0.00691922
0.006866
0.00772428
0.00913658
0.00597737
0.00183033
0.000704968
0.000398802
0.00049045
0.00104503
0.00263359
0.00360786
0.0035946
0.00300675
0.00268965
0.00205691
0.00237323
0.00312836
0.00421902
0.00433927
0.00425769
0.00443326
0.00487705
0.00528928
0.00540047
0.00480894
0.00400683
0.00309537
0.00273913
0.00243196
0.00243094
0.00251256
0.00265639
0.00341238
0.00489631
0.0041874
0.00319419
0.0023428
0.001357
0.00103676
0.00149845
0.00260732
0.0034543
0.00296263
0.00237335
0.00218943
0.00326018
0.00255913
0.00143962
0.00124687
0.00141662
0.00174868
0.00202918
0.00222295
0.00240175
0.00256678
0.00264021
0.0025363
0.00247803
0.00253442
0.0026856
0.00280698
0.00298837
0.0031098
0.00313507
0.00312563
0.00318216
0.00348645
0.0035822
0.00352437
0.00228604
0.00182953
0.00318399
0.00303183
0.00343207
0.00164545
0.00091759
0.00120128
0.00254872
0.00331509
0.00309549
0.00213508
0.00143602
0.00104729
0.000858988
0.000866694
0.00103338
0.00135126
0.00177277
0.00208051
0.00221738
0.00201222
0.0013923
0.00103309
0.000921321
0.000890319
0.000879474
0.00104733
0.00150099
0.00182172
0.00196101
0.00198758
0.0021172
0.00175901
0.00343767
0.000868852
0.000804823
0.00230937
0.0025413
0.0010591
0.000983012
0.00341595
0.000546621
0.000358668
0.000308805
0.000303029
0.000411151
0.00078982
0.00253093
0.00335255
0.00318264
0.00340467
0.00144493
0.000494086
0.000321848
0.000201765
0.000193114
0.00154786
0.00198253
0.000683272
0.000898185
0.0011109
0.000758919
0.000311346
5.67119e-05
4.98127e-05
4.50009e-05
2.29489e-05
1.65768e-05
2.29906e-05
4.61549e-05
0.000300536
0.00179179
0.00304315
0.00229852
0.00282045
0.00344502
0.00308959
0.00282003
0.00284832
0.00289318
0.0028611
0.00311397
0.00363839
0.00284152
0.00145585
0.000743223
0.000487454
0.000452468
0.000480492
0.000613021
0.000557753
0.000252481
0.000963282
0.00161572
0.00371055
0.00124839
0.00068158
0.000734319
0.00100665
0.00172095
0.00289643
0.00365364
0.00350352
0.00299131
0.00250396
0.00207682
0.00113703
0.000760884
0.00165279
0.00300512
0.000885601
0.000440073
0.000317665
0.000275715
0.000234879
0.000398668
0.000578821
0.00229044
0.00257956
0.00053255
0.000812717
0.000959722
0.0064299
0.000190967
2.77912e-05
1.52071e-05
1.30053e-05
1.50466e-05
2.33553e-05
1.67507e-05
2.0023e-05
2.47862e-05
2.48677e-05
2.56944e-05
2.15669e-05
2.22888e-05
2.23061e-05
3.33427e-05
5.77661e-05
0.000163574
0.000500522
0.00202217
0.00277021
0.00146729
0.00097894
0.000545929
0.000378207
0.000221716
0.000184527
0.000171624
0.000271678
0.000593386
0.000299387
0.000284365
0.000323188
0.000884688
0.00278794
0.00192078
0.000576161
0.000212231
9.44932e-05
5.31166e-05
4.0289e-05
3.85375e-05
4.03919e-05
5.63673e-05
9.97228e-05
0.000186164
0.00057014
0.00369787
0.00265499
0.00220735
0.000665295
0.000422368
0.000321892
0.000229058
0.000204851
0.000213991
0.000226788
0.000255484
0.000392519
0.000606398
0.000380199
0.00158288
0.00352873
0.000654465
0.00020456
0.000209923
0.000124318
0.00019989
0.000270476
0.00055473
0.0014957
0.00483824
0.00513196
0.00347016
0.00159446
0.00103194
0.000532876
0.000604352
0.000270294
0.000394182
0.000283395
0.000446932
0.000365301
0.00066649
0.00130492
0.00160434
0.00262224
0.00328784
0.00321805
0.00225744
0.00118408
0.00361997
0.00312212
0.00204081
0.00110334
0.000687058
0.000412995
0.000240251
0.00015923
0.00016261
0.000143416
0.000100799
7.16743e-06
7.9656e-11
1.84724e-15
7.3496e-20
2.68513e-24
7.23346e-29
1.60494e-33
3.53495e-38
8.61683e-43
2.36856e-47
6.58427e-52
1.77829e-56
4.46511e-61
1.07099e-65
2.44677e-70
5.63881e-75
1.3064e-79
1.36009e-84
2.68426e-99
7.41518e-103
4.55953e-107
2.03685e-111
8.23782e-116
3.18489e-120
1.25931e-124
5.04378e-129
2.08986e-133
8.62612e-138
3.58733e-142
1.45512e-146
5.8761e-151
2.31234e-155
9.11579e-160
3.5491e-164
1.40596e-168
5.35228e-173
1.5388e-177
3.61928e-182
6.86528e-187
1.07516e-191
1.49279e-196
1.92312e-201
2.42522e-206
2.95469e-211
3.55577e-216
4.12927e-221
4.51932e-226
2.22773e-231
0.000979174
0.00160687
0.00258272
0.00291864
0.00291094
0.00369785
0.00552652
0.00810096
0.0101667
0.0115593
0.0108452
0.0073975
0.00259226
0.0013756
0.0032555
0.00328081
0.00352777
0.00337538
0.00301606
0.00269729
0.00253837
0.00250466
0.00257787
0.00268563
0.0027003
0.00242472
0.00195417
0.00166805
0.00173445
0.00246841
0.00434267
0.00690736
0.00694403
0.00733169
0.00908182
0.00560519
0.00156285
0.000341708
0.000183732
0.00015337
0.000264771
0.00106813
0.00313941
0.00342187
0.00297835
0.00229411
0.00193769
0.00247096
0.00347747
0.00350412
0.00326452
0.003227
0.00331703
0.00343931
0.00341346
0.0032793
0.0028933
0.00269161
0.00241635
0.00230514
0.00226741
0.00230058
0.00257266
0.00328703
0.00460898
0.00428659
0.00361506
0.00303741
0.00184896
0.000969308
0.000734381
0.000969016
0.00190558
0.00328865
0.00281767
0.0021776
0.00282983
0.00282281
0.00146553
0.00128832
0.00160448
0.00218055
0.00257281
0.00274117
0.00273843
0.00265267
0.0026253
0.00264643
0.00267859
0.00269173
0.00274574
0.00278785
0.00286886
0.00289075
0.00277903
0.00263121
0.00248798
0.00250872
0.00276674
0.00305447
0.0025399
0.00162195
0.00200046
0.00334918
0.00301151
0.00335728
0.00138891
0.000890327
0.0014498
0.00242141
0.00320712
0.00317106
0.00222766
0.00139525
0.000981059
0.000789686
0.000782528
0.00089566
0.00109642
0.0015437
0.00201825
0.00227159
0.0019415
0.00125841
0.000857209
0.000733574
0.000725171
0.000811198
0.00105987
0.0014898
0.00199661
0.00253437
0.00280933
0.00238285
0.0023185
0.00173679
0.000623628
0.00103568
0.0034919
0.00153781
0.000994885
0.00248811
0.000766299
0.000332428
0.00026742
0.000229808
0.000223373
0.000260016
0.000537564
0.00191775
0.0033963
0.00316219
0.00335719
0.00230516
0.000566442
0.000307785
0.00015783
0.000155965
0.000330481
0.00352557
0.00086225
0.000635584
0.000655606
0.000366972
0.000182289
5.4948e-05
0.000103794
5.88568e-05
2.71488e-05
2.75517e-05
8.62332e-05
0.000155996
0.000924502
0.00344845
0.0030806
0.00307347
0.00340491
0.00331528
0.00318661
0.00301966
0.00228633
0.001418
0.000989423
0.000840754
0.000986926
0.00150194
0.00353936
0.00213274
0.000883365
0.000492659
0.000413823
0.000389284
0.000349686
0.000159325
0.000982657
0.00259947
0.00137899
0.000671161
0.00088799
0.001759
0.0034125
0.00355996
0.00305926
0.00269577
0.00246159
0.00225144
0.00187208
0.00119021
0.00092263
0.00170022
0.0022033
0.00040004
0.000165291
9.7172e-05
7.74371e-05
7.61865e-05
7.08164e-05
8.95786e-05
0.000113582
0.000153742
0.000385193
0.00323097
0.000648955
0.00122795
0.0056643
0.000192723
1.64267e-05
7.71013e-06
7.84874e-06
1.00939e-05
1.51032e-05
2.66628e-05
5.31862e-05
7.38529e-05
8.33106e-05
7.26775e-05
4.65686e-05
3.21994e-05
1.71905e-05
1.26221e-05
1.25613e-05
1.33717e-05
2.00261e-05
3.68457e-05
0.000104543
0.00035643
0.00187303
0.00240995
0.00117913
0.000583377
0.000296663
0.000213503
0.000212685
0.00040119
0.000191439
0.00027186
0.000844674
0.0034969
0.000670588
0.000242055
0.000134622
0.000109014
9.77146e-05
6.45338e-05
6.68447e-05
5.99695e-05
4.38373e-05
5.84248e-05
3.90839e-05
7.92138e-05
7.59239e-05
0.000193039
0.00054918
0.00101327
0.00368684
0.00242521
0.0016991
0.00120995
0.000843631
0.000543826
0.000490912
0.00037531
0.000336686
0.000461531
0.000571927
0.00328719
0.000333335
0.000141458
0.000139781
0.00011133
0.000110776
8.84718e-05
0.000139098
8.84746e-05
0.000253584
0.000522936
0.001599
0.00574792
0.00696501
0.00436923
0.00242901
0.00119398
0.00187101
0.00109948
0.00150191
0.00166776
0.00212517
0.00338562
0.00405774
0.00584755
0.00583568
0.00668809
0.0070121
0.00678437
0.00253349
0.00199953
0.00225956
0.00293365
0.00352045
0.00287354
0.00216555
0.00160937
0.00112135
0.000796025
0.000681104
0.000642574
0.000445788
8.76404e-05
1.16659e-09
4.60034e-14
1.1838e-18
3.2779e-23
7.24167e-28
1.49204e-32
3.39572e-37
9.1268e-42
2.63494e-46
7.44908e-51
1.97183e-55
4.89178e-60
1.15074e-64
2.66174e-69
6.16814e-74
7.63861e-79
3.161e-93
4.87113e-97
2.71745e-101
1.16566e-105
4.51703e-110
1.68829e-114
6.38623e-119
2.48876e-123
1.00551e-127
4.14028e-132
1.71695e-136
7.04945e-141
2.859e-145
1.13893e-149
4.49191e-154
1.75745e-158
6.91112e-163
2.74052e-167
1.075e-171
2.56066e-176
4.62547e-181
6.78815e-186
8.5123e-191
9.91344e-196
1.12443e-200
1.25566e-205
1.39044e-210
1.51618e-215
1.5621e-220
6.96842e-226
0.00123988
0.0037633
0.00686677
0.00625887
0.00552594
0.00681239
0.0101079
0.0123348
0.0117172
0.00820575
0.00456174
0.00291706
0.00189535
0.00138151
0.00337829
0.00354104
0.00352229
0.00308158
0.00269508
0.00250176
0.00248027
0.0024202
0.00239743
0.00243488
0.00244049
0.00233068
0.00215587
0.00181683
0.0015802
0.00177709
0.00318715
0.00676376
0.00656084
0.00719227
0.00915306
0.00444264
0.000788613
0.000143442
8.67545e-05
6.70699e-05
9.2433e-05
0.000303939
0.00179424
0.00307333
0.00278368
0.0022292
0.00204394
0.00276422
0.00355218
0.00336616
0.00262181
0.00256914
0.00279868
0.00272986
0.00258692
0.00268308
0.0028069
0.00288632
0.00327784
0.00351979
0.00387472
0.00408904
0.00440956
0.00427234
0.00397425
0.00365899
0.00311581
0.00192701
0.000999927
0.000705932
0.000721744
0.000897703
0.00149736
0.00304824
0.00268322
0.0024873
0.00322236
0.00162982
0.00137614
0.00191109
0.00290141
0.00353178
0.00339076
0.00329044
0.00353168
0.00356609
0.00338041
0.00307941
0.00280617
0.00258935
0.00257189
0.00246588
0.00244591
0.00230453
0.00220289
0.0021004
0.00205265
0.00198096
0.00198851
0.00190031
0.00150467
0.0014202
0.0025055
0.00340011
0.00291203
0.00346953
0.00122491
0.00102855
0.00146189
0.00191062
0.00236112
0.00320714
0.00306521
0.00181002
0.00110287
0.000921348
0.000981086
0.00108154
0.00125652
0.00161121
0.00195851
0.00197421
0.00151594
0.000980301
0.000707597
0.000645424
0.00072427
0.00109319
0.00215261
0.00345859
0.00215684
0.00131089
0.00117315
0.00325898
0.00337276
0.000766973
0.000587405
0.00169731
0.00286712
0.00130054
0.00147677
0.00357544
0.000337438
0.000202021
0.000183403
0.000150185
0.000144211
0.000170001
0.000273597
0.000747073
0.00328122
0.00322265
0.00335191
0.00275638
0.000549826
0.000299609
0.000127552
0.000139954
0.000175484
0.00129052
0.00139852
0.00046254
0.000330801
0.000161001
0.000133674
0.000116548
0.00016826
8.82032e-05
7.26425e-05
0.000112355
0.000354452
0.00103497
0.00278628
0.00349495
0.00339783
0.00342674
0.00320796
0.00319298
0.00337196
0.00310179
0.00200271
0.00113752
0.000623599
0.000408951
0.00031781
0.000395933
0.000607769
0.00224931
0.00273112
0.000861032
0.00045605
0.000348728
0.000246416
0.000140143
0.00124884
0.00361655
0.000800823
0.000730712
0.00224734
0.00314398
0.00258852
0.00237685
0.00209999
0.00187353
0.00168556
0.0014415
0.00110604
0.00103111
0.0019017
0.00180012
0.000230019
7.55704e-05
4.78602e-05
4.44216e-05
4.1275e-05
4.40595e-05
4.89552e-05
4.42826e-05
4.49466e-05
4.27448e-05
6.11735e-05
0.000187415
0.00186839
0.000712616
0.00426819
0.000155868
2.32005e-05
1.05837e-05
8.51019e-06
1.04264e-05
2.33424e-05
8.40302e-05
0.000157435
0.000292986
0.000298511
0.000294311
0.000280384
0.000187827
8.33986e-05
3.44648e-05
1.48952e-05
8.42578e-06
6.81321e-06
8.59048e-06
1.11878e-05
1.90557e-05
4.75331e-05
0.000197986
0.00140461
0.00227839
0.000873422
0.000394426
0.000270414
0.000283452
0.000191491
0.000385225
0.00224421
0.000649573
0.000152172
0.000103025
8.86731e-05
0.000115355
0.000178806
0.000212204
0.000391329
0.000650404
0.000627887
0.000541146
0.000371147
0.000239426
9.81757e-05
7.72796e-05
0.000111322
0.000158811
0.000824344
0.00181089
0.00371556
0.00442473
0.00340112
0.00212471
0.00141145
0.00101955
0.000488097
0.000372729
0.00156738
0.00126044
0.000340058
0.000280104
0.000420292
0.000529633
0.00117751
0.000347667
0.000189748
0.000134294
8.98399e-05
0.000193626
0.000291539
0.000841824
0.0019793
0.00401842
0.00656113
0.00523666
0.00362116
0.00450815
0.00369583
0.00412276
0.00400697
0.00398675
0.00413316
0.00418826
0.00453849
0.00357883
0.00462058
0.0049097
0.00353104
0.00145214