/*--------------------------------*- C++ -*----------------------------------*\
| =========                 |                                                 |
| \\      /  F ield         | OpenFOAM: The Open Source CFD Toolbox           |
|  \\    /   O peration     | Version:  2.1.1                                 |
|   \\  /    A nd           | Web:      www.OpenFOAM.org                      |
|    \\/     M anipulation  |                                                 |
\*---------------------------------------------------------------------------*/
FoamFile
{
    version     2.0;
    format      ascii;
    class       volScalarField;
    location    "0.003300000";
    object      omega;
}
// * * * * * * * * * * * * * * * * * * * * * * * * * * * * * * * * * * * * * //

dimensions      [0 0 -1 0 0 0 0];

internalField   nonuniform List<scalar> 
12384
(
1856.81
3950.88
6089.23
6493.05
7484.89
7814.09
8068.26
8009.86
6575.36
6310.5
4526.82
3579.71
2619.83
1768.07
3515.42
11653.5
24186.6
38401.2
50385
58776.7
65942.9
70954.5
75869.8
77707
77456.3
74220.1
70488.9
68725.1
65842.3
59303.6
51877.4
44818.2
33960.1
28130.6
25513.7
24050.8
20804.9
22642.5
20487
15227
11406.2
7597.28
4820.39
2490.35
20933.4
39932.5
50511.1
58763.6
64583.1
68734.4
71652.4
72890.5
73863.9
74803.1
73996.5
74085.2
72464.5
70645.5
68302.9
64355.9
61921.4
60266.7
54560.9
49865.9
43760.2
35415.3
31655.7
27474.6
23511.2
21247.6
17540
13533.9
9490.8
4500.35
30885.2
51886.9
65335.5
75698.5
81697.8
88324.1
95596.1
104307
114120
123706
130208
131854
124449
115891
110872
109346
108282
106704
103758
98866.4
90360.7
79373.5
65446.3
50657.6
36185.8
24268.3
15575.6
9912.23
6736.37
3378.93
35599.3
59375
77507.8
85709.4
88216.5
92264.2
95620.9
102578
107486
115076
118575
122962
122507
123968
123149
122650
120914
116811
111305
99007.3
86317
73150.3
63172.8
54066.6
40473.3
34622.3
23215.2
17244.3
12512
4001.25
7214.87
16465.7
26903.4
37400.4
46312.7
47988.7
48696.6
48852.4
47552.9
53162.3
54241.3
60894.7
63311
67288.4
70756.8
71924.8
78241.7
69236.8
64666.2
52265.4
43911.5
36026.8
30506.7
24723
20480.2
17545.9
13787.9
9088.29
4633.83
1944.59
10183.1
21086.3
42344.1
57116.2
72456.8
81568.8
84439.5
80267.3
74099.9
64970.1
53984.8
43654.5
33155.4
24425.9
18958.7
19468.8
25749.7
37087.8
47980.4
62720.2
56856
51137
17399.7
10957.9
5450.86
3513.44
2406.33
1790.8
1556.37
749.59
1581.12
2047.84
3041.46
3633.1
4579.87
4218.26
4111.23
3272.48
2641.16
2246.37
1983.44
1877.62
1857.94
1864.52
1788.37
1687.55
1716.99
1933.48
2237.65
2542.68
2751.42
2896.66
2827.66
3000.58
2891.14
2905.92
2656.63
2349.54
1915.53
1236.33
909.987
1115.14
1222.9
1344.58
1383.07
1383.95
1480.74
1532.13
1531.13
1668.45
1758.38
1926.46
1950.71
1966.69
1889.99
1825.69
1732.42
1699.13
1650.9
1606.07
1528.9
1502.44
1444.78
1404.43
1386.12
1356.54
1353.5
1368.06
1348.68
1303.15
1267.26
1357.07
1402.31
1350.37
1344.71
1247.6
1315.13
1138.32
1076.49
1056.66
1093.59
1143.09
1178.02
1164.47
1231.99
1200.13
1238.38
1228.24
1217.95
1232.69
1228.67
1245.08
1285.87
1263.53
1336.04
1149.04
1102.09
1052.64
1042.43
1069.05
917.583
958.741
990.457
1003.45
1016.91
935.418
971.65
897.69
949.128
865.547
910.341
902.658
1037.73
984.258
1049.35
1048.83
1047.4
1081.83
1061.49
1094.78
1089.48
1085.09
1126.55
1117.35
963.753
883.169
820.032
806.686
829.078
823.423
608.442
610.753
609.167
611.898
613.705
614.324
615.557
615.214
614.664
614.596
614.535
614.51
614.511
614.502
614.505
614.506
614.501
614.508
614.509
614.52
614.513
614.527
614.519
614.531
614.522
614.527
614.515
614.514
614.521
614.495
614.544
614.511
614.52
614.514
614.533
614.514
614.539
614.513
614.538
614.511
614.532
614.508
614.518
614.501
614.503
614.497
614.497
614.502
614.511
614.506
614.522
614.511
614.529
614.515
614.53
614.517
614.523
614.51
614.504
614.543
3357.08
132878
163989
173436
178220
176176
168756
162479
154007
148427
139783
128479
111783
3327.62
10171
163054
280137
391610
495371
597044
700603
800634
890865
964008
1.01041e+06
1.02795e+06
1.01274e+06
973138
914791
842487
763572
682872
602271
530437
464870
403799
349428
301967
263572
223808
192386
162680
133173
5447.79
41369.4
291454
365900
409200
430418
433474
431096
431038
432282
433177
430499
423741
412201
398817
382120
365862
352516
346141
342343
338795
330578
315327
297245
278310
259352
241183
219767
189583
155268
10051.3
54845.3
263244
313936
352909
381097
409572
456896
541219
656273
789071
930757
1.06786e+06
1.18705e+06
1.26708e+06
1.29507e+06
1.27825e+06
1.22572e+06
1.15254e+06
1.07345e+06
1.00173e+06
935132
875747
806589
726090
626030
509987
385881
270908
182277
12267.3
64696
424127
536727
622062
667570
686140
684334
670481
651782
628562
609836
597769
600577
613509
629055
637321
641031
631469
617035
576148
536808
497828
463717
421262
373492
337173
302038
272415
243203
13688.7
16177
225748
310674
377852
423621
444578
449123
462430
500261
559439
617866
674073
704969
711845
713870
710894
717942
686283
614436
536126
468994
420120
376641
352223
335156
327145
308239
267710
211481
5229.17
30415.4
393167
576862
667405
688960
663275
665478
703190
746489
817667
905095
983864
1.03172e+06
1.05916e+06
1.07055e+06
1.08314e+06
1.11512e+06
1.14783e+06
1.13477e+06
1.08005e+06
966351
815095
651230
537273
458508
406065
377767
384476
343802
1626.34
1930.79
226156
327615
406305
479382
543590
590488
619520
625462
604689
573687
523375
476436
424703
382538
348405
336869
346760
364450
387229
413939
439546
488147
529718
606443
653179
663580
611749
482375
1717.6
1334.24
488665
589725
662578
731247
820810
904186
981173
1.03503e+06
1.03331e+06
1.00601e+06
972029
929015
877111
822436
766676
715857
668258
616530
574256
530469
499412
469169
444367
424596
399999
383091
367739
329660
1241.1
1223.91
248670
265356
276973
280191
302778
320730
341146
380018
448657
521587
561353
572679
574936
562587
544821
516886
503865
472603
453490
418094
416719
446342
498216
538175
552335
538627
467232
333752
1038.33
904.413
433165
434552
425777
420083
399495
426571
423956
455989
455657
478991
466740
485876
473915
498708
491826
510382
502078
510536
500857
498846
490289
492584
503835
515726
493714
444303
359538
252734
755.95
605.408
131277
112668
98238.7
75423.5
48053
22284.3
5911.08
1058.91
241.443
172.326
171.565
171.62
171.639
171.664
171.667
171.642
171.621
171.559
171.534
171.505
171.49
171.455
171.445
171.42
171.426
171.408
171.465
178.062
612.985
612.958
178.152
171.465
171.417
171.439
171.44
171.454
171.46
171.484
171.498
171.528
171.55
171.612
171.645
171.676
171.665
171.643
171.601
171.569
171.529
171.511
171.475
171.454
171.422
171.414
171.404
171.412
171.477
178.363
612.921
5238.58
183702
213793
227687
232379
231750
224931
215729
204405
195471
187350
176935
164187
6992.37
20308.2
237082
376120
482705
571197
652344
731155
805249
872903
932439
980544
1.01347e+06
1.02419e+06
1.01058e+06
973860
917668
843072
755873
665140
576802
498257
428518
368120
316947
275313
241601
215046
193819
164566
7514.87
51436.2
359513
420075
461933
489781
497118
487165
480287
476380
473648
470650
463034
450958
435563
419006
403622
391397
383161
376807
367644
356031
339429
319520
298840
279931
261632
241048
216883
187697
13152.8
64099.4
313005
347761
375761
401967
451965
545420
663409
777710
879063
971936
1.06351e+06
1.15768e+06
1.23559e+06
1.27331e+06
1.27247e+06
1.23282e+06
1.16304e+06
1.07855e+06
991427
910442
835276
762917
689082
607531
517188
417346
317299
240464
19150.3
71605.9
480345
562518
640140
708494
750372
767236
767533
759504
746799
729314
709091
696539
698741
701370
703607
700866
684809
657930
622033
588324
566468
543702
510893
475838
442609
417004
392896
358630
26009.7
23367.5
270101
364504
439149
494011
526150
550096
611732
723805
843172
931476
966873
950798
924581
933131
959127
971945
946769
886898
817519
736737
626205
501893
413100
367907
351555
343520
321170
259237
4072.72
53554.5
498643
689764
793057
838756
852430
904088
960481
1.03254e+06
1.11203e+06
1.18556e+06
1.24079e+06
1.27084e+06
1.2902e+06
1.30068e+06
1.32932e+06
1.39066e+06
1.43362e+06
1.40707e+06
1.31439e+06
1.17201e+06
999681
831372
712311
632246
574623
540938
532577
486237
1894.65
2574.87
274403
367406
433115
490486
541888
579550
602426
616202
618261
619467
607379
589252
559694
523616
478133
443385
436596
454209
482298
509309
534181
571805
619131
651267
673339
662779
617064
504055
1927.97
1706.57
569181
678365
752050
824710
903593
998286
1.07231e+06
1.13631e+06
1.14133e+06
1.09701e+06
1.0397e+06
975734
909152
838580
768987
701606
642198
592880
551621
517754
493697
478823
465854
455903
448870
446150
451592
450073
1181.21
1256.49
364655
382631
393494
407426
440651
476158
515759
577933
676643
760778
774542
741528
684297
630788
579081
539497
513962
491480
475821
456647
443157
454465
487611
512633
520142
498377
438936
341988
911.521
1069.92
599950
594701
572664
554749
537649
553709
577968
602367
621232
628466
623093
620048
617135
620560
624173
625817
624435
623382
619602
613881
605456
598148
590527
574729
531307
459285
405495
349132
679.003
644.54
314752
284672
262515
226116
182475
133115
77678.7
32460.7
7251.91
858.483
184.343
165.314
165.246
165.208
165.209
165.246
165.309
165.341
165.393
165.408
165.451
165.461
165.501
165.511
165.55
165.556
165.622
170.857
593.751
593.608
170.874
165.643
165.558
165.557
165.521
165.512
165.472
165.462
165.42
165.405
165.356
165.324
165.26
165.227
165.197
165.238
165.275
165.336
165.361
165.408
165.425
165.468
165.481
165.521
165.536
165.571
165.625
170.853
593.61
7098.89
216000
251896
270927
279378
281684
281878
281158
275079
263218
246027
228692
212122
13663.5
36173.3
329000
451203
533562
603841
668716
727827
778216
819402
853266
880813
906326
928091
939355
933952
905552
850427
775150
688027
596829
515860
444100
382398
327954
283332
249633
226063
215115
196590
9349.14
64892.2
412332
474207
551274
600768
610760
586090
560700
543595
527863
517417
507651
495470
480625
464023
447989
432366
416491
398566
378144
359101
342528
325956
308448
293916
279025
262333
244436
219860
18379.5
72273.6
358962
379025
401069
435305
516460
636925
741259
811144
846294
852046
842649
846959
891055
953135
990611
995975
968108
918336
856982
796367
737177
680877
625553
567243
503713
430246
355377
299443
32522.2
73882.2
501613
573393
651597
730401
799121
846637
879678
898614
901450
883667
850283
812761
780059
755797
749673
742600
725303
691443
660408
638019
630445
618794
594257
565028
539833
520624
504350
470032
48141.2
40318.3
328914
418678
488125
551500
608757
685712
816075
968121
1.09214e+06
1.14571e+06
1.13614e+06
1.10411e+06
1.11e+06
1.1509e+06
1.18357e+06
1.17019e+06
1.09838e+06
992906
932671
918204
872591
748284
585028
461245
396866
371747
354342
303563
6404.88
76915.5
581022
779578
922827
1.03899e+06
1.1229e+06
1.23875e+06
1.32186e+06
1.40642e+06
1.47497e+06
1.51879e+06
1.55556e+06
1.57617e+06
1.58365e+06
1.58298e+06
1.60825e+06
1.65513e+06
1.67334e+06
1.61561e+06
1.49937e+06
1.33374e+06
1.15061e+06
987100
869857
784318
719838
675136
643757
577513
4093.29
3576.57
303714
385589
438501
487450
534406
571146
596908
611572
623770
639834
649217
655173
646749
615977
558752
508559
493780
506237
526708
548678
570116
597558
628980
649024
641703
630414
603104
533215
2605.37
2112.08
655686
760159
846002
942503
1.04766e+06
1.16528e+06
1.28188e+06
1.36772e+06
1.39182e+06
1.34717e+06
1.26326e+06
1.16983e+06
1.06456e+06
954446
848959
756084
678066
618577
572250
537518
512520
497629
491190
481911
484259
486244
502922
519077
1125.67
1281.72
471399
500780
523376
566210
623126
672454
741013
857150
1.02835e+06
1.17267e+06
1.21111e+06
1.16695e+06
1.05165e+06
908353
759062
643747
574794
532786
517481
499969
493664
497267
517761
541934
549767
529660
481292
416572
857.545
1337.64
769043
763678
734392
700269
670205
670734
691893
726272
757372
772172
770470
757411
734832
725010
725264
730771
733866
736314
736141
737610
735837
730682
715577
678919
608174
536744
505850
489763
684.319
1182.57
483697
469308
436693
385755
340754
300016
241704
169227
91721.7
29739.4
3205.99
273.295
164.983
164.935
164.935
164.929
164.932
164.933
164.939
164.941
164.946
164.948
164.954
164.958
164.966
164.968
165.053
171.321
593.462
593.571
171.292
165.037
164.958
164.955
164.951
164.951
164.948
164.948
164.944
164.943
164.938
164.935
164.929
164.928
164.925
164.929
164.929
164.936
164.939
164.946
164.948
164.954
164.957
164.964
164.966
164.974
165.047
171.302
593.559
10072
253110
289430
307469
315891
320318
326820
336916
347765
347861
331819
306006
278716
28355.9
57666.8
403892
496605
565245
630470
685921
729221
759670
781183
797233
809076
820184
834518
849737
861979
857256
822862
761230
682950
599175
521950
452320
388992
333759
286590
252663
232917
235659
237176
15104.7
72008.7
451081
539421
681486
757875
751180
697460
641743
603011
576149
556335
540911
526526
510425
490742
469342
445225
416514
384764
356130
337953
328581
320160
311461
305015
298632
291959
285254
269477
28576.9
82321.7
419547
426746
442637
490320
596170
714683
797400
847447
860865
826645
743841
630590
552790
576046
629797
668250
675356
664141
648488
632138
614906
593275
568141
536826
499224
452129
403018
370755
50240.3
80777.9
522289
583801
674231
768543
859956
947662
1.02117e+06
1.07862e+06
1.10689e+06
1.09561e+06
1.04736e+06
967360
884865
813065
777470
761424
749278
722485
711933
705780
708319
697754
673512
643716
623207
610864
600297
572054
73861.9
64475.9
391491
468666
540208
624861
720399
844853
994053
1.13478e+06
1.22914e+06
1.26446e+06
1.24868e+06
1.24947e+06
1.30424e+06
1.37985e+06
1.41596e+06
1.39177e+06
1.29033e+06
1.11682e+06
967093
925305
942059
913891
796577
633472
498312
433267
403963
349110
7759.78
101654
673031
917991
1.15427e+06
1.38197e+06
1.54865e+06
1.69128e+06
1.75416e+06
1.80275e+06
1.83204e+06
1.85194e+06
1.87607e+06
1.8961e+06
1.90007e+06
1.88734e+06
1.86592e+06
1.8488e+06
1.81657e+06
1.7383e+06
1.60605e+06
1.44635e+06
1.28064e+06
1.13197e+06
1.01267e+06
926108
862885
816653
766962
677963
9518.24
5891.9
330516
404809
454203
501434
545838
577921
599517
620243
642516
670109
693612
715905
723150
694148
628395
570428
545315
548786
560343
571535
584048
595517
620324
629282
624330
619778
613175
583483
3617.08
2493.67
695596
800764
884849
981444
1.08832e+06
1.20877e+06
1.3273e+06
1.42002e+06
1.45425e+06
1.42166e+06
1.35169e+06
1.26272e+06
1.16142e+06
1.05761e+06
960091
864581
776929
695936
627680
576577
541492
523080
513166
501156
506755
507335
520625
539377
1130.19
1449.01
565734
607318
653383
722358
784489
837300
913651
1.05083e+06
1.23643e+06
1.38964e+06
1.4487e+06
1.40811e+06
1.28787e+06
1.12951e+06
953289
793764
671563
596775
565123
535280
529648
528471
540205
561288
575668
570744
542547
498449
899.194
1694.3
955071
957004
916535
855112
803307
791787
815515
842827
881887
901382
907181
897256
869141
837430
818451
815619
822809
825856
828979
828978
829932
833645
802587
734685
650859
584114
549857
517979
739.041
1485.02
563119
556555
496748
431055
376814
336181
298548
254402
201189
134114
59290.3
8634.61
451.872
165.118
165.013
165.023
165.012
165.026
165.016
165.028
165.016
165.028
165.015
165.028
165.016
165.031
165.099
171.446
595.86
595.791
171.436
165.089
165.031
165.016
165.03
165.018
165.031
165.02
165.032
165.019
165.03
165.015
165.024
165.011
165.022
165.01
165.024
165.014
165.029
165.019
165.03
165.018
165.03
165.018
165.032
165.022
165.108
171.432
595.791
12366.1
288155
327452
343672
349945
354216
364032
383052
410059
432119
435055
409132
367234
47770.8
85391.7
450587
524926
594807
662858
706712
728685
734326
733441
734778
738791
748685
760465
773881
787082
792833
777775
733890
667220
587774
510050
441060
378317
325763
285199
257328
247070
266862
286522
23087
78307
483910
635681
821995
896826
846305
755105
673527
620373
587603
562167
541292
520542
496489
469418
437855
402448
363792
330241
312454
311367
313757
313751
313320
318210
325810
333949
340469
339807
45163.9
95999.3
508430
502029
514424
577131
691850
804855
894910
964662
1.00264e+06
996700
942043
839126
715483
613853
562879
539977
523036
514390
519009
526055
531885
533582
532006
524291
510293
487766
462790
451904
73486.6
87768.2
546369
613429
708652
816888
932717
1.05408e+06
1.17994e+06
1.28314e+06
1.33891e+06
1.34065e+06
1.28572e+06
1.17619e+06
1.04435e+06
921966
840764
803464
793922
788981
800575
801731
794901
771333
736259
702378
682062
675575
670978
649922
102959
102029
452482
526617
614955
728673
854750
989111
1.12214e+06
1.2321e+06
1.31425e+06
1.33332e+06
1.32485e+06
1.36692e+06
1.47527e+06
1.58563e+06
1.63374e+06
1.62176e+06
1.52954e+06
1.32857e+06
1.08889e+06
910670
878691
926845
910993
796802
645831
535483
484306
426792
25229.2
144214
836045
1.16381e+06
1.50951e+06
1.81249e+06
2.01183e+06
2.11297e+06
2.12624e+06
2.12393e+06
2.11759e+06
2.12103e+06
2.13183e+06
2.13558e+06
2.11767e+06
2.07427e+06
2.00584e+06
1.92454e+06
1.8328e+06
1.72978e+06
1.61459e+06
1.4829e+06
1.34915e+06
1.22085e+06
1.11272e+06
1.0346e+06
982043
945641
894101
804977
14305.7
11097
382954
447076
493848
537445
572592
602401
625899
652398
685338
726439
768129
804156
808381
762688
684384
621688
593326
586214
585128
584339
593460
609991
633862
648071
644714
646812
634829
603766
4625.9
2983
721966
806511
862710
937750
1.0367e+06
1.1369e+06
1.24151e+06
1.32029e+06
1.34449e+06
1.33388e+06
1.28532e+06
1.21971e+06
1.14046e+06
1.04867e+06
953620
867551
791278
719087
656394
605868
565207
536578
517594
506271
507024
507247
515570
524763
1190.8
1699.18
642157
699988
764966
835089
871942
895799
960396
1.0834e+06
1.24071e+06
1.36368e+06
1.43782e+06
1.42577e+06
1.35091e+06
1.20191e+06
1.04177e+06
882420
751711
662944
618897
582054
568838
560004
563600
584239
602170
608782
600741
575203
1041.57
2085.25
1.1475e+06
1.15029e+06
1.08208e+06
986484
934078
928574
969265
997144
1.02364e+06
1.04626e+06
1.0553e+06
1.04386e+06
1.01575e+06
976486
933714
903986
897044
899182
900181
902966
904115
897449
857334
769107
680844
617539
553086
474252
789.258
1675.23
631315
620330
526830
448956
391217
348761
314649
278032
243628
202934
141458
71352.4
13737.6
509.46
165.138
165.054
165.048
165.058
165.051
165.06
165.051
165.059
165.049
165.057
165.047
165.058
165.136
171.419
598.373
598.376
171.409
165.125
165.059
165.051
165.06
165.053
165.062
165.055
165.064
165.056
165.061
165.051
165.056
165.046
165.055
165.046
165.056
165.051
165.061
165.055
165.062
165.054
165.06
165.053
165.062
165.057
165.14
171.424
598.368
17404.5
326402
362123
374449
379858
385830
397483
422332
468151
523862
560245
546522
473012
70727.6
114067
475357
549524
631197
699282
724532
717978
694799
673231
662198
663922
676690
694094
712442
729106
740941
736157
700996
640753
566996
490914
421569
362178
316444
285907
269874
272374
304195
344590
36679.9
83388.1
539056
750936
919238
940223
848688
734839
648664
597484
564586
537446
511629
482583
449721
412881
373341
334955
303896
288071
290982
302240
308047
308861
315298
333718
357788
383312
403339
418952
65207.6
120194
645123
616224
618434
687044
800099
911455
1.01051e+06
1.09274e+06
1.14644e+06
1.16762e+06
1.15279e+06
1.09859e+06
1.00772e+06
891445
768366
663509
582266
531005
511493
511963
522048
531449
542201
548403
546787
536314
522309
523597
95532.8
105253
600041
663480
762851
874776
1.008e+06
1.16467e+06
1.33173e+06
1.47275e+06
1.55221e+06
1.5706e+06
1.52984e+06
1.42466e+06
1.28363e+06
1.13504e+06
1.01507e+06
944410
921388
919773
924562
909173
881578
843746
799902
763887
742497
735094
725953
697763
137003
132355
514915
607834
725742
859397
984005
1.1008e+06
1.20857e+06
1.30128e+06
1.35283e+06
1.33574e+06
1.33062e+06
1.4161e+06
1.57659e+06
1.72673e+06
1.79561e+06
1.80254e+06
1.74136e+06
1.55492e+06
1.2675e+06
975749
820475
865339
937570
901011
785690
661742
588639
520872
57911.2
192614
1.09085e+06
1.49705e+06
1.88991e+06
2.20844e+06
2.38296e+06
2.41406e+06
2.39603e+06
2.3532e+06
2.32331e+06
2.30019e+06
2.28033e+06
2.24856e+06
2.19129e+06
2.10844e+06
2.00631e+06
1.89182e+06
1.773e+06
1.657e+06
1.5493e+06
1.45052e+06
1.35181e+06
1.25619e+06
1.1691e+06
1.10844e+06
1.07624e+06
1.06588e+06
1.03138e+06
957584
18078.7
26065.7
459328
527726
579857
611708
639874
667302
700415
743833
791097
841737
889873
918662
902021
831759
746166
686188
650003
628639
613072
611410
619874
640735
669230
695201
694327
685371
655557
625062
7058.77
3947.61
700743
760556
796917
851436
925741
1.01652e+06
1.1011e+06
1.16437e+06
1.20556e+06
1.22592e+06
1.21869e+06
1.19472e+06
1.14105e+06
1.05251e+06
949854
856351
776780
710137
654156
606433
567557
537605
516622
500189
495437
490282
490534
500030
1338.33
1952.5
670277
768200
842025
890369
905923
892587
913794
987525
1.0895e+06
1.17935e+06
1.245e+06
1.26569e+06
1.24596e+06
1.16357e+06
1.05968e+06
929512
810169
722465
675925
639524
621625
610687
606644
612953
627499
644385
657643
654742
1328.7
2505.01
1.35752e+06
1.2845e+06
1.17651e+06
1.07668e+06
1.06003e+06
1.11172e+06
1.15984e+06
1.18948e+06
1.20515e+06
1.22501e+06
1.22374e+06
1.20714e+06
1.17711e+06
1.13411e+06
1.08504e+06
1.02953e+06
984877
965707
960667
954774
945065
929249
877631
786760
698145
613162
506341
384461
1110.25
2076.63
713051
683984
570319
477599
421833
383117
347402
308227
272186
233459
194524
133111
66130
11489.4
362.27
165.138
165.088
165.094
165.09
165.094
165.09
165.092
165.087
165.089
165.083
165.088
165.17
171.572
603.467
603.454
171.57
165.159
165.089
165.085
165.093
165.089
165.095
165.092
165.097
165.093
165.096
165.09
165.091
165.087
165.091
165.088
165.093
165.092
165.096
165.094
165.098
165.093
165.096
165.09
165.095
165.094
165.174
171.582
603.452
23867.7
362844
389930
399112
404303
412126
425428
459366
530082
638044
746799
783269
650227
116409
137436
507192
578189
668350
732946
740154
713028
670340
632831
610129
606855
621617
646729
673404
696891
712610
710342
676733
616151
538306
461867
396603
345567
310453
294007
291008
302208
338272
413783
55070.3
121621
635269
824650
916356
869782
762158
664005
603032
566363
539873
516279
490951
462519
430117
394903
360359
331531
312750
306715
309500
312343
310539
309802
326146
366327
412537
454697
478747
508118
92559.1
148705
805124
725619
724755
798796
904228
1.00508e+06
1.09614e+06
1.17154e+06
1.2244e+06
1.25057e+06
1.24813e+06
1.21522e+06
1.14872e+06
1.05166e+06
941379
825377
731505
653374
611317
591007
588777
594718
599975
599715
594131
582421
573026
578524
120666
133721
687541
735948
826890
939954
1.08036e+06
1.25318e+06
1.43663e+06
1.59348e+06
1.6983e+06
1.72783e+06
1.70894e+06
1.64088e+06
1.53532e+06
1.41142e+06
1.28953e+06
1.19102e+06
1.1248e+06
1.08996e+06
1.06281e+06
1.02819e+06
984885
934665
880739
840324
826534
828602
820731
738939
176079
160631
605188
723998
855249
983309
1.09163e+06
1.18934e+06
1.28085e+06
1.35652e+06
1.35271e+06
1.28462e+06
1.2673e+06
1.38304e+06
1.59544e+06
1.79358e+06
1.89553e+06
1.92643e+06
1.90049e+06
1.75284e+06
1.44862e+06
1.10176e+06
842735
819469
924105
954671
893373
788070
703046
638128
112772
247361
1.38363e+06
1.81346e+06
2.21191e+06
2.50149e+06
2.63099e+06
2.61312e+06
2.5662e+06
2.4996e+06
2.43191e+06
2.36468e+06
2.29631e+06
2.21818e+06
2.12037e+06
2.01502e+06
1.91009e+06
1.80422e+06
1.69453e+06
1.58655e+06
1.49269e+06
1.41501e+06
1.34183e+06
1.27067e+06
1.20696e+06
1.16935e+06
1.16647e+06
1.1953e+06
1.20988e+06
1.17366e+06
49328.8
75774.6
583987
649472
693780
724097
761880
803317
850447
906763
964264
1.02351e+06
1.06407e+06
1.06888e+06
1.02148e+06
928557
837551
757406
698908
662141
647939
658880
685327
727822
761264
784368
779751
761423
710237
655203
10227.9
7117.64
659854
702349
715549
740846
809821
907263
1.01004e+06
1.10297e+06
1.17582e+06
1.22077e+06
1.2485e+06
1.24788e+06
1.21857e+06
1.13429e+06
1.01312e+06
886861
776323
697000
634525
591990
557732
528198
506715
491236
485701
479434
477729
493831
1611.54
2389.95
662053
799513
896868
970092
1.01196e+06
1.02467e+06
1.02999e+06
1.04648e+06
1.10949e+06
1.15857e+06
1.20408e+06
1.21692e+06
1.20453e+06
1.15175e+06
1.0752e+06
965499
866801
789082
742834
715161
694196
676821
669249
677749
692786
711151
730512
742143
1531.11
3166.75
1.5102e+06
1.32171e+06
1.19193e+06
1.25829e+06
1.40189e+06
1.51808e+06
1.52525e+06
1.48531e+06
1.44114e+06
1.41148e+06
1.38917e+06
1.36678e+06
1.33668e+06
1.29527e+06
1.24307e+06
1.17966e+06
1.11321e+06
1.05127e+06
1.01662e+06
994507
969577
936780
882572
796229
695606
590932
465159
330932
1600.39
2370.84
838665
813674
651729
530640
463581
417153
389383
351336
302296
258443
223222
176671
112331
46770
3817.5
198.555
165.14
165.138
165.135
165.138
165.136
165.136
165.133
165.134
165.131
165.134
165.215
171.519
608.809
608.811
171.519
165.205
165.136
165.133
165.138
165.135
165.14
165.137
165.141
165.138
165.14
165.135
165.136
165.133
165.135
165.133
165.137
165.136
165.139
165.138
165.141
165.139
165.14
165.137
165.139
165.142
165.219
171.534
608.791
32888.8
390504
408199
416580
422833
429049
440339
476879
564552
733308
955466
1.14207e+06
1.17465e+06
870950
169460
185342
761871
661918
655402
718380
765657
758506
722452
677350
636917
607737
602078
618392
646830
674941
698061
710246
701380
660542
591886
515116
446864
391440
350631
326559
321898
326728
342528
384798
484219
465129
125570
144795
543782
712030
806286
812549
736311
654106
606610
584692
570393
558099
546265
533272
516961
495366
468662
436363
404811
379242
364358
357417
356262
359033
374239
423416
513427
586806
634082
657474
671045
549292
187971
269860
1.10688e+06
1.02544e+06
870739
846086
905329
988307
1.07147e+06
1.14841e+06
1.21495e+06
1.26542e+06
1.2975e+06
1.30747e+06
1.29524e+06
1.26078e+06
1.20257e+06
1.13306e+06
1.0505e+06
975264
892159
813212
734147
677823
671895
681806
684710
676824
658355
642381
630784
512964
186750
219531
823686
842664
852418
909616
996412
1.12222e+06
1.2855e+06
1.47596e+06
1.64857e+06
1.77368e+06
1.82174e+06
1.81165e+06
1.77055e+06
1.70744e+06
1.6279e+06
1.53245e+06
1.43656e+06
1.34514e+06
1.27172e+06
1.21881e+06
1.17055e+06
1.10974e+06
1.05539e+06
1.01327e+06
987456
991919
1.02038e+06
1.05971e+06
1.04033e+06
804644
196919
197746
763600
806004
876516
977543
1.08177e+06
1.17021e+06
1.25009e+06
1.33784e+06
1.39762e+06
1.34249e+06
1.21803e+06
1.16791e+06
1.28906e+06
1.53957e+06
1.78026e+06
1.91623e+06
1.96806e+06
1.97804e+06
1.88639e+06
1.61148e+06
1.25666e+06
956167
833626
912783
995445
990450
928365
883208
866533
734332
240452
328502
1.53584e+06
1.76069e+06
2.07295e+06
2.40578e+06
2.65511e+06
2.74578e+06
2.69929e+06
2.62934e+06
2.53285e+06
2.42568e+06
2.32002e+06
2.20668e+06
2.09209e+06
1.97966e+06
1.87968e+06
1.79236e+06
1.70731e+06
1.62762e+06
1.54975e+06
1.46906e+06
1.40385e+06
1.34642e+06
1.29471e+06
1.24907e+06
1.22752e+06
1.25227e+06
1.32186e+06
1.39435e+06
1.4213e+06
971894
131934
134656
666811
743862
759483
800132
860679
918970
973206
1.0312e+06
1.09215e+06
1.15365e+06
1.21088e+06
1.24472e+06
1.23381e+06
1.17616e+06
1.08951e+06
971623
853997
762319
713853
717247
760388
836495
901546
949040
960022
947173
910701
856797
806316
737907
25911
15765.3
434219
641647
668466
683607
701315
761930
866110
1.00572e+06
1.14387e+06
1.27725e+06
1.36155e+06
1.40371e+06
1.40881e+06
1.38648e+06
1.29731e+06
1.15234e+06
983329
829277
715531
634322
585691
552681
528818
511417
497641
494796
498852
519694
580593
580894
7239.44
7552.38
383686
668445
815535
954692
1.10317e+06
1.23574e+06
1.33291e+06
1.40675e+06
1.46588e+06
1.53777e+06
1.59791e+06
1.62898e+06
1.60507e+06
1.51347e+06
1.38882e+06
1.22685e+06
1.0868e+06
961943
885073
831943
807947
791549
775018
764395
765814
776504
804153
853953
937788
917200
4825.04
3809.21
761108
1.34264e+06
1.43644e+06
1.68053e+06
2.06047e+06
2.35782e+06
2.37536e+06
2.17715e+06
1.97305e+06
1.81032e+06
1.67474e+06
1.58072e+06
1.51461e+06
1.46567e+06
1.42867e+06
1.39237e+06
1.33524e+06
1.25684e+06
1.17119e+06
1.08488e+06
1.02429e+06
974944
927441
861366
787586
693970
591876
502573
436903
405795
1754.99
1700.08
844396
1.03358e+06
913293
735964
607445
521920
473574
432053
391549
351334
307998
257261
205453
147228
78350.2
16982.7
451.633
165.289
165.182
165.184
165.189
165.194
165.202
165.211
165.228
165.248
165.279
165.319
165.576
178.748
618.338
618.329
178.809
165.563
165.306
165.276
165.247
165.228
165.21
165.204
165.195
165.191
165.186
165.185
165.181
165.18
165.177
165.179
165.18
165.186
165.191
165.201
165.211
165.228
165.248
165.282
165.325
165.392
165.474
165.573
165.9
179.754
618.324
617.942
43561.3
403162
418550
430149
439695
447935
455497
475658
535096
676898
903300
1.14709e+06
1.32476e+06
1.35874e+06
1.23068e+06
1.04337e+06
816971
692752
711997
767376
800926
785298
751423
715058
681495
657791
655752
670024
695660
716800
729529
724917
697638
642272
572504
506963
449954
405356
375006
363309
365538
372811
383163
418313
509421
607002
588507
627522
670016
700877
707446
678610
642430
623776
621814
626453
632213
637815
643662
648361
645480
633555
613223
581504
546352
517344
503673
508345
532318
567593
627718
732438
871446
1.00116e+06
1.08236e+06
1.13334e+06
1.18161e+06
1.24209e+06
1.47396e+06
1.60647e+06
1.48635e+06
1.16588e+06
1.00135e+06
963078
995095
1.05283e+06
1.11666e+06
1.1794e+06
1.23907e+06
1.2912e+06
1.33278e+06
1.36145e+06
1.3769e+06
1.38192e+06
1.37561e+06
1.36109e+06
1.33602e+06
1.30773e+06
1.2556e+06
1.17752e+06
1.06671e+06
957281
870132
847867
836409
816148
786300
754276
743240
784229
892502
1.00347e+06
1.05555e+06
968531
956387
978806
1.03046e+06
1.12044e+06
1.2565e+06
1.43016e+06
1.61734e+06
1.76192e+06
1.84738e+06
1.86713e+06
1.84251e+06
1.79583e+06
1.74253e+06
1.68544e+06
1.61065e+06
1.52652e+06
1.44113e+06
1.37172e+06
1.32036e+06
1.27747e+06
1.23629e+06
1.20737e+06
1.19492e+06
1.20095e+06
1.22272e+06
1.2472e+06
1.24707e+06
1.19476e+06
1.10933e+06
1.04107e+06
994268
970667
1.00544e+06
1.06648e+06
1.13718e+06
1.20628e+06
1.27411e+06
1.36532e+06
1.41976e+06
1.33403e+06
1.16825e+06
1.08224e+06
1.18515e+06
1.42818e+06
1.68593e+06
1.84793e+06
1.91013e+06
1.95183e+06
1.92568e+06
1.74508e+06
1.42175e+06
1.11163e+06
930742
947476
1.04686e+06
1.0835e+06
1.06187e+06
1.07817e+06
1.20488e+06
1.49766e+06
1.80861e+06
2.07593e+06
2.04632e+06
2.02361e+06
2.23233e+06
2.46875e+06
2.64612e+06
2.6888e+06
2.63868e+06
2.54357e+06
2.42817e+06
2.30344e+06
2.16602e+06
2.0325e+06
1.90551e+06
1.79624e+06
1.71259e+06
1.647e+06
1.59365e+06
1.54273e+06