/*--------------------------------*- C++ -*----------------------------------*\
| =========                 |                                                 |
| \\      /  F ield         | OpenFOAM: The Open Source CFD Toolbox           |
|  \\    /   O peration     | Version:  2.1.1                                 |
|   \\  /    A nd           | Web:      www.OpenFOAM.org                      |
|    \\/     M anipulation  |                                                 |
\*---------------------------------------------------------------------------*/
FoamFile
{
    version     2.0;
    format      ascii;
    class       volScalarField;
    location    "0.003300000";
    object      rhoUnburned;
}
// * * * * * * * * * * * * * * * * * * * * * * * * * * * * * * * * * * * * * //

dimensions      [1 -3 0 0 0 0 0];

internalField   nonuniform List<scalar> 
12384
(
1.72426
1.70734
1.71794
1.7291
1.8104
1.94449
2.18153
2.76185
4.0704
6.11673
5.99929
5.84246
5.75051
5.75429
6.03255
6.01544
5.95321
5.86062
5.78662
5.72969
5.6961
5.72587
5.64589
5.54416
5.54753
5.6841
5.61624
5.55276
5.48445
5.49012
4.72783
4.04231
3.52263
3.2033
3.24225
3.56319
4.36297
5.64533
6.26849
5.76127
5.29809
4.87756
4.59431
4.43593
5.4662
3.91739
3.69922
3.67036
3.54429
3.47855
3.34054
3.19969
3.11064
2.98449
2.93463
2.85043
2.86595
2.85519
2.93103
3.0581
3.23139
3.33836
3.53587
3.73704
4.01448
4.63711
6.02876
6.12835
6.19933
6.41256
6.55363
6.71666
6.71826
6.55909
5.77003
5.73915
5.83594
5.77478
5.88062
5.94883
6.0247
6.08663
6.07223
5.93096
5.78554
5.43012
5.28638
4.87099
5.01952
4.67344
4.85011
4.73064
4.78812
4.70416
4.92935
4.76687
5.16247
5.00648
5.35645
5.37527
5.75663
6.23081
6.8048
6.98181
8.86101
9.42745
9.88538
9.39836
8.93174
6.84069
7.59117
6.63963
6.98786
6.46529
6.66829
6.0563
6.31031
5.74373
6.05459
5.79348
6.1402
6.22026
6.30682
6.31991
6.22909
6.18088
6.20533
6.16047
6.55337
6.78839
7.11281
7.06135
6.92079
6.92301
7.34101
7.57123
7.93285
8.18804
8.37733
8.20168
7.74362
6.85151
6.63188
5.7176
5.80727
6.0261
6.04218
6.778
7.2601
8.02409
8.48314
8.57942
8.37375
7.86587
7.241
6.76203
6.09628
5.88412
5.11261
5.3908
5.30224
5.24483
5.23591
5.04555
11.2002
11.4645
11.0795
7.27912
6.29121
6.41513
6.47317
7.14544
4.81712
5.65773
6.38376
7.26816
7.60209
7.69567
7.33363
7.18061
7.08109
6.55038
6.81321
6.47098
6.53505
6.04259
5.83049
5.40213
5.39746
4.92151
4.70087
4.68958
4.56612
3.20936
3.44658
3.67568
3.73044
3.81804
4.1497
4.07311
4.25875
4.24253
4.47898
4.51393
4.82416
4.83543
4.80516
4.58607
4.72048
5.28422
6.45413
7.02387
7.89591
8.38023
7.64653
9.85769
9.09458
7.34781
6.4331
5.93591
5.48376
5.00047
4.53917
4.19201
5.44056
5.30108
5.51667
5.364
5.49684
5.69311
5.73729
5.35486
5.1997
6.47905
6.44832
6.5032
6.52052
6.71269
6.77556
7.09113
6.5805
6.59783
6.39365
6.16562
5.99193
6.07171
6.07934
6.31585
6.53926
6.90735
7.26613
7.8981
8.37606
8.37698
5.82471
5.81885
5.75101
5.97509
5.79445
6.39842
5.82276
7.70266
7.95584
7.27564
7.38998
7.76998
8.14891
7.79148
8.42716
8.18688
8.38141
8.01024
7.78934
7.52095
7.4731
6.75167
6.52088
6.3612
6.61148
5.97636
5.54118
5.35481
5.41869
5.7578
7.66203
7.50252
7.40451
7.64756
7.13036
8.40453
8.33328
9.31751
9.22931
10.4996
10.0945
9.17947
7.44498
7.92498
7.52203
7.37713
7.90341
7.46734
8.21098
7.99863
8.47392
8.86041
8.62748
8.93969
7.02625
5.65051
5.83464
5.80034
5.87817
6.22469
1.49904
1.54976
1.45615
1.32499
1.1777
1.01053
0.890063
0.86555
0.865045
0.865045
0.865831
0.866006
0.86604
0.866065
0.866081
0.866078
0.866065
0.86604
0.866009
0.865992
0.865983
0.865966
0.865953
0.865939
0.865928
0.865912
0.865902
0.865889
0.865846
0.86522
0.865219
0.865843
0.865885
0.865903
0.865913
0.86593
0.86594
0.865956
0.865966
0.865979
0.865991
0.866009
0.866034
0.866061
0.866076
0.866084
0.866067
0.866045
0.866023
0.866006
0.86599
0.865974
0.865956
0.865946
0.865931
0.865914
0.865903
0.865894
0.865846
0.865224
1.55008
1.49666
1.39137
1.43184
1.45287
1.52588
1.6997
1.93791
2.61114
3.95577
6.15052
5.97683
5.82358
5.82649
5.97126
5.91333
5.67486
4.4609
4.19854
4.28097
4.38052
4.41482
4.35398
4.23011
4.05072
3.8654
3.68387
3.62563
3.59877
3.60026
3.46566
3.14907
2.94281
2.83374
2.86968
3.22512
3.92178
5.36589
6.43302
5.9866
5.35917
5.20359
5.07741
4.75986
5.54237
3.70786
3.76476
3.7193
3.71274
3.55061
3.34402
3.09633
2.85197
2.6699
2.50058
2.38224
2.29168
2.24656
2.22035
2.24667
2.32439
2.36781
2.47772
2.66192
2.98309
3.56136
4.59016
6.06142
6.20684
6.42543
6.60697
6.66968
6.60289
6.51927
5.62398
5.6918
5.71667
5.82256
5.91242
6.00551
6.14094
6.24634
6.26006
6.15689
5.93791
5.6684
5.4707
5.00108
5.14668
4.85606
4.89182
4.85996
4.88481
4.83214
4.96984
4.95142
5.1978
5.14838
5.45262
5.37036
5.75447
6.16011
6.72098
6.89681
10.1419
10.7562
9.97506
9.39513
8.02575
7.57877
6.98782
7.06443
7.03009
6.7723
6.76294
6.33989
6.33424
6.02389
6.02822
5.95096
6.21491
6.2893
6.51893
6.42769
6.44901
6.34103
6.28426
6.35825
6.58338
6.94033
7.10997
7.07576
6.9374
6.94295
7.59608
7.49034
7.66813
7.65625
7.49006
7.49609
7.2908
7.20999
6.55717
6.36594
6.35005
6.52456
6.55043
6.96169
7.13757
7.3253
5.25177
4.69682
5.45174
6.98578
6.77818
6.48979
6.25925
5.75355
5.4632
5.16148
5.22351
5.2799
5.14238
5.41009
11.3509
10.9888
7.32124
6.0175
5.31517
6.41425
6.425
6.60862
4.87031
5.73279
6.6415
7.38127
7.68397
7.6772
7.27788
7.10518
6.89944
6.45656
6.57293
6.38309
6.23648
6.00109
5.82337
5.46728
5.26912
4.93145
4.6891
4.61054
4.46287
4.5073
3.93991
3.88016
4.22152
4.08114
4.20399
4.0507
4.11882
4.25713
4.25256
4.50222
4.74596
4.822
4.82611
5.26608
5.56276
6.15231
7.08215
7.61003
7.88488
7.77427
7.78592
6.97974
8.61443
10.7753
7.21703
5.95953
5.11077
4.77842
4.54075
4.48651
5.47996
5.79095
5.8866
5.96408
5.73715
5.86345
5.85595
5.4755
4.89534
5.02287
5.0293
5.01773
5.19744
5.07618
5.25417
5.2776
5.35467
5.36053
5.46911
5.31015
5.38587
5.41166
5.55953
5.61502
5.84654
6.11138
6.44742
7.03998
7.55086
7.55475
6.01626
6.03636
6.06308
6.11356
6.06164
6.66711
5.97201
7.20282
6.34202
6.14502
5.84783
6.03319
5.9561
6.10188
5.99807
6.08656
6.08283
6.05316
6.30857
6.33498
6.82203
6.70703
6.54382
6.42483
6.53922
6.07294
5.69713
5.80297
5.83097
5.86676
7.75709
7.48011
7.37625
7.12817
7.84086
7.96916
9.01603
9.42362
10.6518
10.4444
9.62845
9.26349
9.9626
8.05353
8.26789
7.72782
8.22368
8.02546
8.34716
8.6488
8.87165
9.36339
9.1499
9.28668
7.04162
6.37293
6.6127
6.67558
6.93007
6.60071
2.85275
3.01602
2.93299
2.74025
2.51031
2.19682
1.75068
1.24964
0.976298
0.890722
0.889674
0.889067
0.890071
0.890321
0.890587
0.890591
0.890333
0.890114
0.889686
0.889613
0.889289
0.889251
0.888939
0.888913
0.888598
0.888594
0.888289
0.888258
0.887422
0.874603
0.875063
0.887305
0.888285
0.888307
0.888619
0.888624
0.888962
0.888959
0.889279
0.889267
0.889591
0.889633
0.890035
0.890232
0.890584
0.890522
0.890451
0.89003
0.889838
0.889512
0.889464
0.889129
0.889101
0.888771
0.88874
0.888436
0.888386
0.888139
0.887327
0.875043
1.28728
1.19545
1.16885
1.13588
1.20542
1.1966
1.33565
1.45039
1.79755
2.42436
3.80468
6.3174
6.09331
6.05802
5.87434
5.69226
4.60505
4.89482
5.31406
5.57005
5.58712
5.66569
5.69502
5.65808
5.48588
5.03308
4.39797
3.8447
3.39615
3.01517
2.78122
2.6374
2.50647
2.43474
2.52003
2.92921
3.75854
5.01116
6.47287
6.10657
5.75572
5.13055
5.0679
5.27837
5.31138
4.02445
4.3595
4.84063
4.80296
4.55138
4.2734
3.89334
3.46508
3.10066
2.7917
2.5492
2.3781
2.2503
2.15324
2.08567
2.05093
2.03835
2.06715
2.1701
2.49345
3.13361
4.21934
6.10984
6.26787
6.43428
6.54918
6.64681
6.50518
6.45441
6.03009
5.93655
5.96085
5.90973
5.99029
6.1477
6.33024
6.42635
6.39389
6.27278
5.98811
5.64536
5.55122
5.14998
5.13528
4.93632
5.01779
4.91171
5.00899
4.948
5.12363
5.0796
5.3407
5.25563
5.44576
5.59873
5.70709
6.33809
6.68449
6.73856
10.895
10.3216
9.91164
8.40314
8.5587
7.34003
7.76291
7.12995
7.35735
6.9008
6.87702
6.28186
6.48354
5.95272
6.12633
6.09013
6.15923
6.33335
6.46836
6.55469
6.56811
6.58209
6.59058
6.61129
6.94795
7.00008
7.10858
6.94731
6.97855
6.97594
7.57223
7.56197
7.21908
6.97761
6.84757
6.72341
7.32437
7.4521
7.36795
6.97356
6.64857
6.4996
5.98802
3.82792
3.23982
3.15649
3.32312
3.29098
3.02605
2.97312
3.4045
5.61591
5.4899
6.00148
5.39907
5.19271
5.36271
5.14361
5.52892
5.22823
10.8535
8.29132
6.15999
6.2105
6.07785
7.17313
6.11011
6.24817
4.86421
5.80102
6.93852
7.47604
7.67727
7.40891
7.02445
6.61171
6.61283
5.97813
6.27233
5.80766
5.96825
5.83178
5.7357
5.38434
5.17399
4.84587
4.65516
4.54008
4.52227
4.53798
3.77851
3.78312
3.78722
3.9023
3.75441
3.72724
3.89691
3.87442
4.16717
4.42288
4.68056
4.71419
5.1885
5.69006
6.4823
7.31054
7.72983
7.62269
7.28455
7.05962
6.79579
6.63213
7.46378
8.15232
9.99437
7.38627
5.38821
4.62613
4.46361
4.47623
5.60128
6.88777
7.81107
8.1132
7.48011
7.28166
6.73161
6.05402
5.86506
5.8007
5.82924
5.51422
5.28314
5.13305
4.97095
4.81989
4.77671
4.76482
4.75453
4.74717
4.77326
4.81559
4.90503
4.99395
5.08694
5.28692
5.59927
6.12795
6.61748
6.75831
5.84228
5.92733
6.02988
6.48156
6.15497
6.93178
6.00066
7.43851
6.81343
7.6522
7.98813
8.02835
7.54642
6.56887
6.08987
5.75147
5.49764
5.4801
5.47913
5.48316
5.58026
5.80986
5.80249
5.67536
5.72888
5.62781
5.69431
5.96905
6.07477
6.33337
8.0485
7.42103
7.2505
7.40781
7.08614
8.18388
7.98067
8.38249
7.04641
6.99212
6.56355
6.93922
7.33402
8.9638
8.25791
8.71141
8.19089
8.21015
7.889
7.22826
6.93543
6.75802
6.48455
6.19865
6.23888
5.92389
6.6646
7.08874
7.27551
6.97987
4.02877
4.16397
4.00212
3.87772
3.66636
3.54896
3.38419
3.0639
2.29595
1.59215
1.14015
1.06299
1.06204
1.06258
1.06242
1.06242
1.06264
1.06307
1.06341
1.06368
1.06387
1.06409
1.06426
1.06446
1.06464
1.06483
1.06499
1.06521
1.06617
1.08257
1.08257
1.06617
1.06517
1.06491
1.06478
1.06459
1.06444
1.06425
1.06411
1.06392
1.06375
1.06349
1.06318
1.06275
1.06249
1.06238
1.06262
1.06297
1.06339
1.0636
1.06384
1.06404
1.06426
1.06443
1.06466
1.06482
1.06504
1.06519
1.06615
1.0826
1.04797
1.06754
1.09998
1.14365
1.15636
1.19825
1.20354
1.26122
1.41089
1.76892
2.52194
4.16573
6.2692
6.09725
4.88769
4.79573
5.44166
5.45291
5.48709
5.46429
5.49685
5.50762
5.57322
5.62391
5.72201
5.78941
5.39399
4.59917
3.7817
3.16542
2.74274
2.46449
2.25322
2.14084
2.23386
2.73254
3.59504
5.02355
6.627
6.22225
5.97756
5.40764
5.35835
5.22626
5.10154
4.85112
6.47093
6.59638
5.94921
5.12066
4.76259
4.56861
4.1708
3.82168
3.36742
3.03255
2.74561
2.49952
2.28468
2.13702
2.03144
1.97099
1.96195
2.02163
2.32761
3.08412
4.16656
6.07362
6.19552
6.47054
6.52248
6.55468
6.50641
6.4078
5.9613
6.01345
5.98167
6.04551
6.16278
6.39818
6.51311
6.50543
6.35984
6.17936
5.96817
5.57628
5.36952
5.22644
5.05061
5.00619
4.98889
5.11196
5.04235
5.13072
5.20924
5.2286
5.42046
5.46577
5.50267
5.71844
5.94407
6.33181
6.76155
6.54248
9.69001
9.64497
8.50544
8.73683
8.00875
8.16345
7.6633
7.80452
7.50132
7.33433
7.07695
6.57812
6.52357
6.02447
6.09223
6.08286
6.17233
6.37963
6.59163
6.65154
6.79749
6.77351
6.76735
6.90236
6.9753
7.00448
7.00266
6.97016
7.08743
7.10604
7.62964
7.34981
6.83
6.45434
6.59368
6.99231
7.20037
7.69994
7.54959
6.99107
5.97821
3.28317
2.96335
3.33489
4.23647
5.52309
6.92714
6.99436
6.07976
4.20971
2.95163
2.83602
4.42014
5.2776
4.99534
5.29876
5.16462
5.63319
5.356
6.08487
8.06397
6.89744
7.30709
8.59994
7.4352
7.55774
5.91509
5.7459
5.0917
6.09626
6.91975
7.56546
7.50603
7.1297
6.62225
6.30635
6.14032
5.72804
5.6648
5.59498
5.49232
5.52069
5.42503
5.35616
5.14564
4.76083
4.74986
4.67652
4.53016
4.68772
4.29253
4.87388
4.60056
4.44402
4.24534
4.09067
4.12486
4.22999
4.43417
4.56542
4.64984
5.24025
5.83633
6.67741
7.38828
7.69616
7.64075
7.33185
7.00514
6.75539
6.57768
6.60303
6.39096
7.29577
7.5681
8.7719
8.10471
5.1711
4.50894
4.14206
6.00284
8.38656
10.3316
10.418
9.30765
8.36444
8.11639
7.6138
8.41184
9.833
9.57691
8.6937
8.65861
8.56158
8.61534
9.06481
7.03554
5.76035
5.18789
4.91267
4.76821
4.70138
4.7021
4.75873
4.8852
4.9498
5.13213
5.3336
5.73273
6.02381
6.53753
6.50936
6.62359
6.43075
6.32562
6.40986
6.83742
7.58262
7.31332
6.99994
6.17296
6.37442
7.00481
7.2961
7.85588
7.09984
6.41561
5.9632
5.51778
5.45036
5.39095
5.40308
5.34804
5.33062
5.34658
5.42859
5.54266
5.96301
6.09218
6.33078
7.44845
7.56947
6.91031
6.35313
6.78196
6.36779
7.15609
8.24527
7.56718
6.41188
5.90781
5.5262
5.71813
5.83402
6.09583
6.55198
6.34544
6.59196
6.02736
6.30156
5.898
6.14923
5.94674
5.69813
5.7838
5.91333
6.00903
6.4012
6.86723
6.9493
5.69914
6.15848
5.97165
6.1706
6.56352
7.15145
6.29783
5.89686
4.09793
3.48193
2.71492
1.42358
1.08421
1.07228
1.07429
1.0744
1.07441
1.07445
1.07447
1.0745
1.07451
1.07454
1.07454
1.07457
1.07457
1.0746
1.0746
1.07465
1.07488
1.07789
1.07783
1.07488
1.07464
1.07459
1.07459
1.07457
1.07456
1.07454
1.07454
1.07451
1.07451
1.07448
1.07447
1.07442
1.07441
1.07439
1.07442
1.07444
1.07449
1.07449
1.07452
1.07452
1.07455
1.07456
1.07459
1.07459
1.07462
1.07464
1.0749
1.07783
1.06252
1.12642
1.19759
1.22671
1.23819
1.24239
1.26609
1.27585
1.31403
1.4137
1.65699
2.31211
4.27601
6.29945
4.0136
5.40957
5.36491
5.38716
5.38288
5.4341
5.42608
5.44995
5.46888
5.53328
5.62144
5.68759
5.70339
5.11681
4.32922
3.6186
3.06218
2.57074
2.15845
1.9603
2.05994
2.57035
3.46944
4.92339
6.56057
6.52382
5.92038
5.66809
5.44441
5.45639
6.08707
5.58805
6.57806
6.14829
6.02646
4.78561
4.07606
4.12727
4.23093
3.99461
3.6156
3.24158
2.8583
2.53966
2.30812
2.14222
2.04766
2.01784
2.05464
2.19695
2.64982
3.56087
4.68962
6.03124
6.24847
6.42173
6.63413
6.56487
6.51379
6.44624
6.3177
6.20442
6.16164
6.19072
6.46752
6.56271
6.58584
6.48579
6.34785
6.08897
5.95131
5.63525
5.34144
5.18845
5.23403
5.06425
5.14005
5.06205
5.21855
5.22823
5.23307
5.44169
5.41441
5.57634
5.69848
5.95812
6.18954
6.58272
6.61258
6.48827
7.99915
7.27939
8.32831
7.53603
8.23784
7.93349
8.09126
7.83774
8.07887
7.82714
7.54517
7.11647
6.60019
6.26152
6.08489
6.18858
6.31879
6.42002
6.46397
6.69805
6.89711
7.02873
7.11006
7.19656
7.2428
7.12502
7.15401
7.1868
7.17934
7.27964
7.59012
7.11278
6.42598
6.30124
6.2523
6.48243
6.96136
7.21832
6.93653
4.49678
2.94411
2.91132
3.77151
4.82635
6.19724
6.84943
7.57921
8.02557
7.65386
6.57212
3.83207
2.53498
2.46467
4.44573
4.6286
4.98226
5.87501
5.82165
6.43715
6.22075
7.29589
7.59769
9.03517
9.07564
8.11671
7.57693
4.97926
6.01889
5.40432
6.41504
7.06304
7.42286
7.33884
6.95329
6.49432
6.16235
5.97275
5.37703
5.49856
4.94493
5.2172
5.12471
5.25783
5.20294
5.18386
4.90973
4.95809
4.65303
4.81167
4.85684
5.08855
4.5043
4.72046
4.05531
3.80027
3.97887
4.0407
4.25869
4.46768
4.61622
5.21764
5.80114
6.6672
7.22427
7.49961
7.6656
7.3454
6.75337
6.42029
6.17885
6.12885
5.74919
5.89773
6.18566
6.33208
8.30534
8.69178
9.95053
4.81278
4.58705
6.47495
11.2771
12.466
11.673
11.2187
10.6642
9.3562
10.1289
10.1685
9.49777
8.69113
8.55084
7.99269
7.8782
7.50354
7.11175
7.27524
7.25129
7.89926
8.32748
7.56481
5.84433
4.95092
4.77376
4.76205
4.83347
4.96737
5.13828
5.30946
5.57426
6.24489
6.49906
6.7407
6.61523
6.05958
5.58777
6.17734
6.47679
5.96553
5.47027
5.21688
5.33374
5.31897
5.86863
5.4033
6.03137
6.88754
7.54831
6.3966
6.27948
5.70392
5.54506
5.47741
5.45073
5.43188
5.44991
5.52075
5.73546
6.00023
6.21116
8.2831
6.99377
6.49057
5.56686
4.76972
5.76623
5.49185
5.65128
5.2046
5.08431
5.54483
5.54305
5.40526
5.41947
5.42882
5.69538
5.83545
5.97826
6.32913
6.02398
6.1889
5.96463
6.0648
5.88075
5.83483
5.90396
5.92842
5.71843
6.35241
6.21476
5.08075
4.54226
4.78518
5.43579
5.65934
5.86489
6.28469
6.85758
7.38934
6.21015
5.91467
4.94297
2.04332
1.07446
1.04491
1.04744
1.0475
1.04743
1.04751
1.04743
1.04752
1.04744
1.04752
1.04744
1.04752
1.04743
1.04752
1.04748
1.04753
1.04787
1.04784
1.04755
1.04745
1.04753
1.04744
1.04753
1.04744
1.04753
1.04744
1.04753
1.04744
1.04752
1.04744
1.04751
1.04743
1.04751
1.04743
1.04751
1.04744
1.04752
1.04744
1.04752
1.04744
1.04753
1.04744
1.04753
1.04745
1.04754
1.04758
1.04786
1.15515
1.29171
1.39541
1.38029
1.31886
1.32395
1.35817
1.40342
1.44572
1.56009
1.85791
2.3489
3.65366
6.3537
4.27914
5.36436
5.32114
5.33576
5.36996
5.36956
5.40274
5.35807
5.35151
5.34756
5.43278
5.63327
5.56473
5.06291
4.51931
3.99064
3.43952
2.78155
2.1304
1.86417
2.02236
2.64958
3.62507
5.8562
6.69864
6.40327
6.09953
5.8829
5.57192
5.62056
6.07465
6.39699
6.27121
6.26116
5.84641
4.48922
3.48758
3.36255
3.4169
3.4405
3.1438
2.80375
2.56384
2.38313
2.25939
2.23923
2.299
2.45314
2.67101
3.04337
3.71899
4.48562
5.35308
6.09519
6.26665
6.46393
6.4999
6.74895
6.5558
6.47803
6.44442
6.32727
6.30256
6.50905
6.58798
6.54537
6.40464
6.27175
6.11171
6.02497
5.86323
5.76788
5.50591
5.39542
5.24065
5.25147
5.14792
5.2814
5.21174
5.26883
5.44951
5.46176
5.61471
5.8203
6.02122
6.26588
6.49498
6.66733
6.55311
6.14377
6.90725
7.72826
6.62877
7.55956
7.32147
7.812
7.49454
7.89052
8.06313
8.20521
7.96831
7.35289
6.96582
6.53473
6.55322
6.52034
6.53313
6.73209
6.92173
6.98436
7.07555
7.19521
7.25557
7.31419
7.27786
7.24787
7.14107
7.12897
7.10309
7.20587
7.41944
6.69873
6.17884
6.16465
6.38681
6.60754
6.51622
6.2726
5.60038
3.28875
2.96937
3.65068
4.32151
5.06893
5.57466
6.28396
7.17954
7.80667
7.82551
6.82902
4.498
2.57332
2.09519
2.58275
4.1769
5.25776
5.94317
6.8045
6.62595
6.9679
7.19037
9.3944
9.44628
9.08769
8.05691
7.52198
5.11701
5.9891
5.64442
6.35733
7.22634
7.27299
7.25477
6.94987
6.60154
6.19728
5.78927
5.10993
5.00348
4.71236
4.67608
4.77906
4.79724
4.99995
4.92585
4.97002
4.78874
5.01404
4.92353
5.08937
4.91914
5.22256
4.44161
4.7917
4.89022
4.73022
4.90997
4.99381
4.89641
5.34646
5.87349
6.44229
7.04375
7.28633
7.34268
7.0737
6.52954
6.11606
5.86692
5.67249
5.4899
5.39593
5.60907
5.63038
6.14908
6.49369
8.10622
8.94177
7.78649
4.40448
6.84637
10.1745
11.2106
10.2317
10.2216
10.2205
9.8835
10.1264
9.91694
9.3647
9.54103
9.09527
9.02019
8.68571
8.21734
7.7311
6.97284
6.71168
6.28517
6.75318
7.1382
7.70616
8.29355
7.52275
5.48116
4.96063
4.87176
5.03655
5.22308
5.41234
7.26122
7.14174
6.88036
6.20706
5.60938
5.47775
5.48396
5.28751
5.20101
5.70073
5.52517
5.22097
5.39785
4.71077
5.03845
4.26202
4.48935
4.85351
5.64489
6.46101
6.24335
6.24295
6.09262
5.83163
5.66265
5.59918
5.588
5.6666
5.82472
6.03553
7.96872
7.33261
5.74706
4.776
4.87025
4.44279
5.4404
5.4406
4.35957
4.61856
4.22793
4.51097
4.81004
5.11999
5.22045
5.2793
5.84293
6.14376
6.18605
6.73921
6.408
6.3251
6.41209
5.7571
5.94773
5.66808
5.71764
5.72303
5.53626
5.83359
5.10878
4.50193
5.27291
5.15169
6.0283
5.81061
6.71337
7.04618
7.64291
8.2378
7.07781
6.38222
6.02048
2.64181
1.04139
1.01097
1.01446
1.01441
1.01444
1.01442
1.01445
1.01442
1.01444
1.01442
1.01444
1.01441
1.01445
1.01447
1.01464
1.01698
1.01703
1.01463
1.01444
1.01445
1.01442
1.01445
1.01442
1.01445
1.01443
1.01445
1.01443
1.01445
1.01442
1.01444
1.01442
1.01444
1.01442
1.01444
1.01442
1.01444
1.01442
1.01445
1.01442
1.01444
1.01442
1.01445
1.01443
1.01448
1.01468
1.01703
1.24962
1.52336
1.63224
1.53282
1.47297
1.51157
1.61419
1.65435
1.79895
2.33119
3.32362
4.28379
5.34105
6.27492
4.60782
5.35115
5.35249
5.39844
5.40746
5.38955
5.33893
5.38374
5.37145
5.37408
5.46774
5.53148
5.00077
4.55236
4.26487
4.01888
3.61275
2.8699
2.0442
1.82035
2.04891
2.80965
4.13461
6.53784
6.51954
6.14527
6.26001
6.00896
5.7959
5.61454
6.64654
6.73652
6.3497
6.22379
5.81371
4.06434
3.37648
3.14738
2.99608
2.87332
2.73405
2.63426
2.60857
2.74967
3.06712
3.37062
3.65086
3.99414
4.27274
4.55955
4.82396
5.18558
5.94589
6.27576
6.38393
6.53797
6.4599
6.66829
6.61699
6.52769
6.58519
6.42498
6.53949
6.58153
6.54035
6.30668
6.12872
5.95218
5.87744
5.77399
5.74336
5.66051
5.69813
5.45404
5.43765
5.37724
5.40604
5.31046
5.41628
5.48169
5.45033
5.66017
5.76012
6.04279
6.29283
6.53838
6.64037
6.55582
6.33703
6.15402
6.17522
5.63451
6.07641
5.68349
6.321
6.14096
6.67551
6.6493
7.08145
7.65515
7.75018
7.64959
7.06659
6.90637
6.69749
6.71592
6.88786
6.99513
7.14504
7.41522
7.43884
7.45073
7.46584
7.41078
7.20063
6.89137
6.68433
6.49549
6.44639
6.80782
7.02618
6.30506
6.00493
6.09926
6.21865
6.03285
5.81699
5.40062
4.82037
3.23078
3.43262
4.24545
4.5395
4.74479
5.05742
5.81491
6.86184
7.90929
8.01485
7.22989
5.46171
2.4879
2
2.17027
3.56154
5.44583
6.83725
6.95651
7.30244
6.87041
7.84544
9.92866
9.87757
9.40118
8.30161
7.42695
5.60197
5.69522
6.2918
6.3408
7.01948
7.25192
7.21632
7.17955
6.75133
6.30346
5.80425
4.9966
4.91772
4.42144
4.54066
4.39793
4.68594
4.80458
5.18005
5.282
5.37945
5.00382
5.08739
4.99061
5.54148
5.2071
5.16919
4.65519
4.87577
5.11216
4.97436
4.93412
5.34836
5.7441
6.45599
6.79104
7.08747
7.14337
6.89943
6.42527
5.76204
5.42916
5.29226
5.22686
5.2069
5.08887
5.27955
5.82666
5.69534
6.48126
6.56985
8.02623
8.84308
5.65458
7.26821
11.2679
10.0376
10.3957
10.0576
9.59786
9.46171
9.53608
9.22026
9.69577
8.99219
9.46909
9.5166
9.65541
9.42432
8.64709
7.94967
6.81798
6.17659
5.86636
6.01876
6.25446
6.72991
7.37909
8.29702
7.39146
5.36862
4.99791
5.02678
5.31165
7.51463
7.48517
6.97116
5.99995
5.35235
5.44969
5.27221
5.23896
4.77491
5.74087
5.93553
5.63538
6.00074
5.81448
5.58972
4.50821
4.16166
3.89338
3.91407
4.53801
5.2942
6.17144
6.35779
6.34263
6.03383
5.84196
5.74578
5.62564
5.74635
5.81608
7.37071
7.06249
6.14942
4.93019
4.80621
5.27013
4.95124
5.04793
5.88295
4.23809
4.36695
4.01343
4.21995
4.31803
4.6518
4.88825
5.07709
5.70396
6.45388
6.3641
7.17385
6.43846
6.78813
5.65859
5.59625
5.6038
5.52925
5.62592
5.69133
5.45969
4.38293
4.89869
4.7151
5.51867
5.53257
6.42566
6.32979
7.38246
7.15455
8.14682
7.7774
7.37674
7.19135
6.38344
2.5701
0.989055
0.957791
0.960922
0.960907
0.96087
0.960905
0.960864
0.960902
0.960859
0.960893
0.960854
0.960899
0.960924
0.960907
0.960241
0.960302
0.960884
0.960876
0.960901
0.960859
0.960904
0.96086
0.96091
0.960864
0.960913
0.960873
0.960917
0.960879
0.960914
0.960883
0.960914
0.960888
0.960917
0.960881
0.960916
0.960875
0.960912
0.960865
0.960904
0.960855
0.960902
0.960878
0.960931
0.96094
0.960337
1.35648
1.74256
1.8177
1.75763
1.81692
1.93384
1.93634
1.96019
2.41978
3.81729
4.97667
4.97214
5.47883
5.79496
4.70863
5.17439
5.12385
5.10618
4.65935
4.12139
3.91134
4.04368
4.30091
4.51835
4.47515
4.34379
4.07795
3.91421
3.92866
3.86789
3.52094
2.61
1.83317
1.85726
2.37272
3.69106
6.02584
6.55276
5.86921
6.03724
5.97726
6.04206
5.81719
5.85428
6.7497
6.73714
6.5528
6.24869
5.86938
5.09744
3.99417
3.53447
3.41605
3.35779
3.54802
4.1106
4.67936
5.21729
5.84829
6.14628
6.11467
6.07961
5.98009
5.90833
6.10161
6.21419
6.4693
6.44447
6.44473
6.28317
6.31585
6.42008
6.59767
6.62283
6.58535
6.59077
6.64726
6.52153
6.24926
5.96384
5.67993
5.54989
5.44878
5.47073
5.45767
5.4963
5.44484
5.61256
5.49208
5.45351
5.34103
5.31521
5.22376
5.30191
5.27239
5.49805
5.67045
6.03522
6.34978
6.51791
6.57808
6.4883
6.18755
5.90169
6.15405
6.29853
5.78539
6.16459
5.86976
5.73481
4.98397
5.25545
5.5579
5.97099
6.74918
7.15769
7.33013
7.09928
7.09348
7.16631
7.26067
7.51685
7.65711
7.63187
7.59828
7.46227
7.17261
6.82658
6.51304
6.22205
5.97045
5.84664
5.78176
6.13045
6.69218
6.02413
5.9807
6.01448
6.18788
5.75321
5.48292
4.89121
4.33062
3.42782
4.13646
4.2718
4.41424
4.4284
4.83815
5.2833
6.68905
7.87559
8.10961
7.37276
5.61527
2.79803
1.91585
1.94143
2.67199
6.04934
6.68106
7.81715
7.68694
6.44248
8.44709
10.601
10.6977
10.0142
9.40291
6.67082
6.68022
6.01219
6.34412
6.62848
6.68665
7.02223
7.3626
7.23736
7.06935
6.46829
5.96107
5.29183
5.16994
4.5569
4.26515
4.45047
4.15346
4.32077
4.50449
4.72314
4.90547
5.11571
5.15994
5.49231
5.40387
5.5085
5.1716
5.88101
6.00451
6.01335
5.79318
5.82748
5.77314
6.38833
6.79864
6.96427
7.03305
6.77507
6.2798
5.51119
5.18342
5.05516
5.05085
5.15905
5.16524
5.05788
5.74348
5.63282
6.24044
6.15345
6.70844
6.88627
8.28806
7.89473
7.56873
11.1965
11.5171
9.16863
8.24085
8.21797
8.55257
7.83614
8.6464
7.67551
8.44274
8.1996
8.64058
9.07405
9.09188
9.22474
8.43366
7.66051
6.55505
5.9409
5.62429
5.54971
5.38374
5.54173
6.27113
7.31045
8.20364
6.30844
5.32018
5.32611
7.81301
7.74468
7.06995
6.04827
5.37565
5.17065
5.43621
5.56116
4.75021
4.18351
4.78383
5.34795
5.16881
5.95033
5.21689
5.28938
4.82987
4.07851
3.53155
3.72282
4.20577
4.62008
5.33682
5.88295
6.29846
6.03004
5.84852
5.69763
5.69836
5.67463
6.5354
5.88087
3.90613
4.99266
4.57054
4.21469
4.06976
5.76753
5.22296
5.19742
4.18008
4.03669
3.92048
4.06017
4.08753
4.297
4.4755
4.60661
4.85187
5.83158
5.50183
6.14948
5.32059
5.27431
4.96681
4.98622
5.06449
5.48226
7.29841
6.35557
3.69698
4.27879
5.20428
5.23103
5.85879
5.95457
6.59399
6.60725
7.51948
7.30316
8.43754
8.14041
7.5972
7.70862
6.58059
1.81708
0.921283
0.909071
0.911316
0.911328
0.911333
0.911328
0.911335
0.911327
0.911342
0.911347
0.911379
0.911436
0.911407
0.910584
0.910628
0.91138
0.911406
0.911383
0.911355
0.911347
0.911331
0.911338
0.911331
0.911335
0.911333
0.911336
0.911331
0.911336
0.911328
0.911335
0.911331
0.911336
0.911327
0.911332
0.911327
0.911332
0.911323
0.911335
0.911334
0.911367
0.911403
0.911494
0.911585
0.910817
1.44574
1.91146
2.00517
2.0828
2.18763
2.20471
2.12081
2.15336
2.69425
4.03985
4.71383
4.46533
4.37815
4.33459
4.95231
5.04044
4.98042
5.25919
4.9237
4.21237
3.33056
2.62577
2.53719
2.89538
3.1966
3.44495
3.53719
3.56748
3.56773
3.66192
3.76709
3.6542
3.01293
2.01104
1.79339
2.13552
3.24178
5.52555
6.22441
6.0139
5.38355
5.34555
5.64909
5.89485
6.29151
6.12394
6.59634
6.91105
6.84808
6.83626
6.64867
6.39894
6.13248
5.84981
5.74154
5.66538
5.82809
5.77732
6.01287
6.28712
6.23651
6.25765
6.31416
6.28606
6.29723
6.36401
6.34414
6.45505
6.44207
6.60224
6.51717
6.33853
5.91838
5.93278
5.89224
6.10465
6.39352
6.58969
6.25505
5.9097
6.45645
6.51902
6.52484
6.21344
5.90658
5.53005
5.32724
5.21413
5.25009
5.28102
5.40964
5.47313
5.6439
5.6291
5.72945
5.6757
5.64878
5.56511
5.47711
5.37355
5.305
5.44934
5.4989
5.91675
6.14879
6.44775
6.53363
6.39739
6.24926
6.06491
5.7875
5.41853
5.74172
5.27981
5.28675
5.18125
5.33537
4.76639
4.89965
4.27586
4.39189
4.76545
5.29444
6.11033
6.86364
7.35325
7.30952
7.37076
7.51497
7.709
7.79159
7.68259
7.35562
6.89452
6.26779
6.00516
5.76825
5.57809
5.54206
5.54677
5.4448
5.43705
5.4276
5.07269
5.40668
5.63647
5.78552
6.12126
6.02303
5.78805
5.41935
4.77089
4.20449
3.68579
4.0585
4.04908
4.25711
4.35004
4.69672
4.29673
5.49892
7.71348
7.83559
7.18696
5.58557
3.51873
1.8649
1.90799
2.4799
6.05842
7.44073
7.40952
6.86365
6.26998
5.76862
5.21428
8.80946
10.7905
11.3168
11.0463
9.75514
6.32005
7.34683
5.98999
6.38562
6.30311
6.5603
6.9875
7.11959
7.48084
7.16708
6.88758
5.97072
5.99077
5.10328
4.7967
4.82586
4.32734
4.80372
4.85346
5.08563
5.45171
5.79896
5.94779
5.60078
5.31705
5.17788
5.61982
5.48441
5.54988
5.55768
5.87792
6.40832
6.22459
5.93114
5.85188
6.01267
6.63964
6.96747
7.22125
6.98441
6.31321
5.67792
5.22991
5.0386
4.99182
5.1115
4.93131
5.03652
5.14589
5.48493
6.10956
6.19904
6.7406
6.6164
6.94639
6.60168
8.04383
8.92958
9.1958
9.21342
10.2146
9.14177
10.3706
10.1211
8.51044
7.21043
7.93789
6.34764
7.07773
6.44212
6.74344
7.30685
7.63731
8.51396
8.39126
8.30591
7.45709
6.91868
5.7658
5.72647
5.11105
5.33593
5.34845
4.70869
4.71177
5.08976
6.04425
7.85886
5.51944
5.71471
4.52998
4.82919
6.22798
7.1263
6.33871
5.48057
5.21755
4.97324
5.36466
5.30627
4.65225
3.49167
3.2869
3.38732
4.10091
4.22997
5.36087
4.81294
4.88773
3.89094
3.65113
3.59274
3.83529
4.09297
4.4734
4.80776
5.38283
5.58997
5.76194
5.73367
5.65783
4.01095
3.18496
5.20334
6.16064
4.80565
4.58484
3.49239
3.44202
4.58771
4.40649
5.75508
4.84941
4.56734
3.90303
3.85042
3.87886
3.94622
3.91875
4.10505
4.15667
4.32546
4.3739
4.97192
4.7767
5.10327
4.74481
4.68514
4.65445
5.26955
5.7547
5.19584
5.56251
5.46159
5.46736
4.73541
5.09271
4.99612
5.58949
5.58385
6.0965
6.08226
6.76055
6.73285
7.66692
7.52911
7.82632
8.20626
6.59515
6.9002
2.46841
0.861995
0.846824
0.842494
0.842986
0.842994
0.842979
0.842995
0.842984
0.843013
0.843015
0.843047
0.84306
0.842756
0.839557
0.836514
0.83651
0.839578
0.842728
0.84303
0.843055
0.843021
0.84302
0.842984
0.843001
0.842983
0.843001
0.842983
0.842998
0.842983
0.842989
0.842977
0.842984
0.842975
0.842984
0.842977
0.842995
0.842983
0.843007
0.842989
0.843024
0.843015
0.843058
0.843071
0.843086
0.842772
0.839611
0.836712
0.83903
1.51033
2.05442
2.23809
2.33889
2.28767
2.18544
2.10419
2.14535
2.52476
3.91535
5.28771
5.26253
5.078
4.97455
4.87359
4.83822
4.59728
4.68473
4.30478
3.46791
2.44076
1.86705
1.8323
2.1395
2.59806
2.98087
3.17624
3.31037
3.37495
3.45532
3.35382
2.91212
2.08136
1.82897
2.11536
3.25139
5.22575
6.55447
5.58475
5.30826
5.13562
5.28394
5.2416
5.74485
6.34986
6.3363
6.5776
6.84566
6.85067
6.83595
6.74321
6.65576
6.40682
6.15212
6.02206
6.01284
5.92413
6.04016
5.92871
6.02963
6.24988
6.21462
6.24115
6.25978
6.34054
6.35291
6.53853
6.54509
6.71808
6.59228
6.38284
6.05487
6.07527
5.8595
5.89173
6.01522
6.35899
6.68605
6.38649
6.32962
6.55964
6.44574
6.23436
5.9263
5.47395
5.2436
5.11157
5.10549
5.14294
5.32006
5.41242
5.62453
5.69545
5.89195
6.04016
6.08791
5.95602
5.76102
5.55862
5.51085
5.30789
5.38415
5.44686
5.65182
6.03737
6.25188
6.38742
6.31408
6.28977
6.12711
5.97509
5.683
5.48566
5.42978
5.33753
5.43931
4.96798
4.94827
4.41974
4.57078
4.46972
4.59938
4.84163
5.12625
5.92366
6.47667
7.05236
7.14785
7.11653
7.0678
7.06151
6.71407
6.26205
5.75137
5.58896
5.42411
5.37352
5.57879
5.56381
5.42351
5.29114
5.27038
5.07293
5.10174
5.58258
5.61131
6.00111
6.01113
6.17086
5.72138
5.59729
4.76866
4.32967
3.85497
4.03485
4.0068
4.23439
4.37948
4.50114
4.10057
4.31966
7.22787
7.51309
6.83826
5.58878
4.5951
1.97123
1.88601
2.55575
5.3559
6.92853
7.69487
7.48317
5.8834
6.8464
7.81768
9.37879
10.9589
11.6149
11.155
9.53498
7.20921
7.0874
6.40547
6.48429
6.0777
6.12502
6.70739
7.07932
7.22143
7.47996
6.9179
6.7476
5.87512
5.9159
5.53888
4.91267
4.97866
4.29415
4.3119
4.46376
4.74711
5.04951
5.52251
6.23292
6.44472
6.24514
6.35287
5.93415
6.15141
6.48793
7.08991
6.95063
6.83145
6.63808
6.57238
6.76774
7.05169
7.14289
6.97032
6.54542
5.86425
5.32137
4.97621
4.92018
5.03243
4.8319
4.79438
4.62412
4.85739
5.4169
5.74098
6.39939
6.56032
6.94338
6.84234
7.01501
6.54826
7.72573
8.6218
11.499
10.8645
11.4175
9.28119
7.96194
7.74984
7.98988
6.46983
7.01862
6.34604
6.09557
6.63116
6.06049
6.87006
6.70842
7.46924
7.23327
7.12169
6.25238
6.26693
4.97534
4.63129
4.3999
4.40362
4.8006
4.7422