/*--------------------------------*- C++ -*----------------------------------*\
| =========                 |                                                 |
| \\      /  F ield         | OpenFOAM: The Open Source CFD Toolbox           |
|  \\    /   O peration     | Version:  2.1.1                                 |
|   \\  /    A nd           | Web:      www.OpenFOAM.org                      |
|    \\/     M anipulation  |                                                 |
\*---------------------------------------------------------------------------*/
FoamFile
{
    version     2.0;
    format      ascii;
    class       volScalarField;
    location    "0.003300000";
    object      sL;
}
// * * * * * * * * * * * * * * * * * * * * * * * * * * * * * * * * * * * * * //

dimensions      [0 1 -1 0 0 0 0];

internalField   nonuniform List<scalar> 
12384
(
12.7573
11.5038
10.3152
8.05669
7.16478
4.93386
4.16123
2.49358
1.45552
0.78208
0.997346
1.12479
1.16699
1.14634
0.677483
0.666462
0.683565
0.726049
0.770491
0.806532
0.835432
0.850935
0.887637
0.930263
0.938613
0.89093
0.873096
0.859916
0.844853
0.832364
1.06839
1.43312
1.83252
2.18746
2.02574
1.70854
1.12713
0.695299
0.574995
0.678862
0.838912
1.10518
1.25709
1.29094
1.96977
3.2542
3.25054
3.09579
3.20793
3.14224
3.33643
3.65516
3.77154
4.21265
4.26928
4.70041
4.66735
4.9398
4.71247
4.4856
4.09188
3.88401
3.4825
3.10986
2.67657
2.03739
1.22284
1.16964
1.03595
0.848565
0.710993
0.684573
0.759554
0.989163
1.24966
1.27727
1.26268
1.281
1.30109
1.3185
1.31574
1.29521
1.26859
1.2483
1.23195
1.23669
1.23186
1.26728
1.23531
1.27466
1.26173
1.27001
1.27804
1.27879
1.28493
1.28253
1.30471
1.32736
1.36832
1.40078
1.37369
1.16659
0.878608
0.959385
1.80725
1.53852
1.4438
1.23195
1.24406
1.35335
1.33389
1.37402
1.35687
1.33141
1.30512
1.29191
1.24826
1.25513
1.19911
1.18555
1.14639
1.11511
1.10926
1.11494
1.13016
1.16442
1.16555
1.13541
0.987434
0.708893
0.673739
0.819345
1.02502
1.05544
0.786967
0.808983
0.846299
0.911035
0.997867
1.06088
1.12462
1.1944
1.2206
1.25863
1.25069
1.1955
1.06544
0.832423
0.652757
0.597952
0.613839
0.64032
0.645964
0.634641
0.603032
0.586951
0.59981
0.639364
0.691398
0.719086
0.832232
0.914172
0.950254
0.945519
0.744656
0.822641
1.11028
2.7532
3.26961
3.00902
1.56981
1.53173
1.6611
1.61328
1.47418
1.09925
0.783274
0.63735
0.584892
0.55723
0.540531
0.560863
0.524546
0.485309
0.473644
0.485461
0.526468
0.55397
0.555885
0.577438
0.629847
0.666202
0.672509
1.21167
0.839645
0.837719
0.844422
0.870966
0.888225
0.930099
0.97452
1.00867
1.03508
1.03543
1.05409
1.05978
1.04948
1.02693
0.993273
0.845964
0.601709
0.498637
0.483235
0.471655
0.490896
0.467407
0.669784
1.42882
2.21593
2.46844
2.64454
2.91974
3.51788
3.92871
5.62441
4.87871
4.67428
4.7289
5.07563
5.51743
5.63809
4.95989
2.00874
0.950052
1.04345
1.04596
1.14505
1.05718
1.13871
1.01858
1.29982
1.30196
1.37216
1.53483
1.64027
1.5704
1.59005
1.50792
1.4737
1.38714
1.31404
1.17171
1.02671
1.01261
0.757284
0.788287
0.81302
0.751495
0.716952
0.637415
0.638021
0.590326
0.655665
0.91922
0.825689
0.694308
0.668602
0.817955
0.741942
0.948248
0.978465
1.17654
1.3478
1.5046
1.50031
1.87023
1.89198
2.05718
1.78492
2.80588
3.46366
4.73731
4.46802
3.99554
0.477572
0.481291
0.48834
0.491665
0.489721
0.462259
0.478387
0.448592
0.493028
0.469881
0.511418
0.510073
0.598054
0.58349
0.645687
0.650618
0.675685
0.704948
0.712488
0.748115
0.762211
0.781965
0.815702
0.825338
2.13042
5.61592
7.72852
8.50838
6.882
6.40464
2.76287
2.76958
2.61275
2.62661
2.44831
2.24292
2.07328
2.05483
2.05412
2.0541
2.0546
2.05455
2.05427
2.05403
2.05383
2.05384
2.05401
2.05426
2.05458
2.05475
2.05489
2.05504
2.0552
2.05534
2.05548
2.05561
2.05575
2.05588
2.05634
2.0631
2.06307
2.05636
2.05587
2.05571
2.05558
2.05543
2.05532
2.05517
2.05506
2.05493
2.0548
2.05462
2.05436
2.05409
2.05389
2.05385
2.054
2.05427
2.05452
2.05471
2.05487
2.05505
2.05521
2.05535
2.0555
2.05565
2.05577
2.05589
2.05639
2.06309
14.4854
16.8009
19.4183
17.6794
15.8718
12.468
9.00563
5.8812
2.9688
1.40342
0.756401
0.977329
1.13523
1.10964
0.612705
0.654642
0.798382
1.33091
1.54234
1.50503
1.45426
1.43792
1.48829
1.57105
1.71808
1.88447
2.06662
2.11983
2.14638
2.13026
2.27125
2.8222
3.14979
3.1119
2.90255
2.14967
1.45011
0.772875
0.574322
0.694578
0.897945
1.12278
1.24432
1.26495
1.71838
3.41326
2.81375
2.83491
2.67792
2.84247
3.11533
3.50968
4.20503
4.77716
5.69051
6.3634
7.18489
7.53088
7.99807
7.86189
7.4623
7.14559
6.53945
5.62509
4.45783
3.08243
1.96971
1.14828
1.01666
0.81662
0.711812
0.733407
0.863062
1.03665
1.25657
1.27783
1.27324
1.30439
1.32111
1.28714
1.21253
1.12184
1.04302
0.992793
0.97316
0.975094
0.991034
1.02479
1.04648
1.08995
1.1243
1.15635
1.18061
1.19821
1.20208
1.208
1.21197
1.24165
1.28647
1.35352
1.36181
1.21402
0.903475
0.950342
1.30155
1.17573
1.24414
1.25875
1.34923
1.37342
1.36273
1.28797
1.19352
1.13234
1.09863
1.06395
1.0618
1.05177
1.03619
1.02677
0.983495
0.964509
0.919217
0.927509
0.948671
1.03072
1.05714
1.04816
0.910824
0.693028
0.678613
0.830731
1.0115
1.06569
0.77291
0.817631
0.934265
1.08086
1.19469
1.20126
1.20833
1.12455
1.03671
0.947476
0.889049
0.782801
0.720509
0.772209
1.08419
1.27184
2.56185
3.25184
2.36154
1.32662
1.08902
0.833344
0.667382
0.609574
0.630517
0.692342
0.826586
0.905268
0.945243
0.974994
0.839228
1.09516
2.55592
3.08075
3.48861
2.26235
1.51547
1.51551
1.65946
1.59159
1.34777
0.938781
0.678877
0.595911
0.577789
0.59097
0.609897
0.616725
0.566299
0.52817
0.492461
0.487829
0.497886
0.523239
0.547231
0.597121
0.638656
0.690615
0.749192
0.762139
0.799828
0.813799
0.840541
0.924912
1.05154
1.16604
1.28335
1.31865
1.31244
1.25271
1.17832
1.12234
1.07314
1.01026
0.960912
0.800909
0.567285
0.49861
0.524539
0.562645
0.571994
0.676972
0.606968
0.522353
1.2439
1.80811
2.25172
2.58351
2.99898
3.1208
4.68994
5.06728
4.86835
5.03345
5.12412
5.01662
4.85427
3.69099
2.15589
1.22331
1.22099
1.14554
0.996315
1.20612
1.09927
1.26371
1.25574
1.38353
1.34879
1.5313
1.47041
1.42069
1.31635
1.28917
1.24235
1.21846
1.23886
1.16851
1.16061
1.14898
0.67697
0.713173
0.706443
0.56779
0.516944
0.434611
0.434044
0.534491
0.655982
0.771624
0.726851
0.63737
0.650416
0.676741
0.677801
0.780101
0.814209
0.97674
1.09343
1.30878
1.4615
1.42223
1.49496
1.61289
1.22746
1.77536
2.32989
3.13898
3.63886
3.96244
0.403301
0.428156
0.424457
0.412735
0.422921
0.429194
0.390907
0.410272
0.375492
0.392258
0.387073
0.44535
0.409771
0.473985
0.447245
0.498011
0.46756
0.497996
0.471958
0.47289
0.455928
0.453962
0.455437
0.488878
1.15088
2.31195
3.83977
4.02131
3.59082
3.46601
1.17512
1.15273
1.26164
1.2658
1.48846
1.66648
1.89941
1.90174
1.78981
1.79528
1.79027
1.78892
1.78437
1.78211
1.77902
1.77897
1.78195
1.78446
1.7894
1.7902
1.79395
1.79436
1.79797
1.79823
1.80187
1.80188
1.8054
1.80575
1.81532
1.96014
1.95502
1.81664
1.80539
1.80517
1.80157
1.80156
1.79766
1.79774
1.79404
1.79421
1.79046
1.79005
1.78539
1.78317
1.77908
1.77983
1.78062
1.78549
1.78768
1.79146
1.79197
1.79585
1.79614
1.79996
1.80028
1.8038
1.80433
1.80717
1.81645
1.95526
26.3238
28.6179
26.9251
25.5555
23.3114
22.3208
19.6183
15.6097
8.93249
3.95853
1.53278
0.720457
0.946127
0.974017
0.590795
0.742224
1.24193
1.18445
1.03921
0.966423
0.954939
0.935009
0.909466
0.906319
0.937917
1.08384
1.41271
1.8641
2.46052
3.28427
3.99203
4.3555
4.83544
4.9577
4.29224
2.84262
1.56595
0.904884
0.573135
0.708031
0.926205
1.16603
1.24242
1.23622
1.68519
2.5538
2.0863
1.62804
1.67323
1.85501
2.00489
2.3146
2.77573
3.45301
4.30282
5.32402
6.35033
7.446
8.13885
8.88705
9.18869
9.39158
9.12563
8.34451
6.23067
3.92722
2.17475
1.10549
0.970963
0.79121
0.731206
0.800094
0.960269
1.07558
1.23618
1.27005
1.28092
1.31607
1.29053
1.1622
1.00699
0.884383
0.8281
0.816608
0.832078
0.86011
0.881796
0.910304
0.941178
0.973513
1.00613
1.04835
1.07876
1.10921
1.11592
1.13506
1.12242
1.14994
1.20044
1.28203
1.32287
1.14377
0.867353
0.961624
0.994089
1.09169
1.19096
1.33207
1.33647
1.3231
1.21757
1.11528
1.05082
1.02397
0.988559
0.983725
0.960088
0.959711
0.94441
0.928802
0.911433
0.880774
0.839658
0.799551
0.790339
0.844217
0.903555
0.878036
0.746982
0.681039
0.765969
0.915098
1.00835
1.042
0.762023
0.863035
1.11259
1.29872
1.33853
1.26824
1.07332
0.830004
0.681348
0.661917
0.746133
1.01947
1.45641
3.25694
4.8771
5.76247
5.69517
5.92196
6.2562
5.74145
3.95321
1.56034
1.22741
0.778611
0.634544
0.609592
0.73069
0.850531
0.897855
0.889476
1.06689
2.01407
2.7515
2.46497
2.40128
1.68843
1.4773
1.49037
1.6596
1.55632
1.19619
0.825462
0.680935
0.682151
0.774676
0.875858
0.910536
0.899831
0.812709
0.737905
0.621937
0.564894
0.527946
0.528273
0.547656
0.589676
0.648524
0.704863
0.735326
0.709839
0.785685
0.808455
0.890216
1.07381
1.32747
1.5299
1.59649
1.6091
1.54397
1.42042
1.29521
1.17963
1.07208
1.00194
0.922836
0.732828
0.547401
0.589353
0.704724
0.803542
0.872689
0.845217
0.828314
0.715202
0.576263
1.05413
1.80051
2.24787
2.58258
2.79203
5.30077
4.45071
4.29528
4.33077
5.25232
5.56256
5.77005
5.54441
3.72979
1.67197
1.27317
1.20936
1.25707
0.963285
1.17802
0.995521
1.14867
1.06932
1.09794
1.08476
1.12564
1.09711
1.03129
0.991217
0.902234
0.959137
0.913522
1.0247
1.08997
1.15404
0.639022
0.630454
0.565256
0.428656
0.438447
0.471268
0.506196
0.665061
0.988335
0.898905
0.850315
0.720373
0.63822
0.756364
0.739403
0.771674
0.763243
0.727589
0.774617
0.770453
0.951537
0.863223
0.884564
1.04094
0.826901
1.15815
1.17275
1.65757
2.56828
2.74983
0.368723
0.432319
0.450967
0.484311
0.518849
0.560309
0.547941
0.72105
0.857252
0.916294
1.09016
0.951202
0.528039
0.350233
0.336172
0.333759
0.321644
0.350668
0.343746
0.416261
0.435195
0.430371
0.548376
0.439177
0.768489
0.883765
1.20153
1.4354
1.42496
1.58972
0.42066
0.395102
0.357494
0.355534
0.357821
0.371499
0.395711
0.413869
0.397695
0.308246
0.213193
0.204033
0.204839
0.206925
0.208058
0.208033
0.20699
0.205075
0.203484
0.20231
0.201432
0.200476
0.199679
0.198814
0.197981
0.197166
0.196423
0.195467
0.191246
0.127626
0.127595
0.191204
0.195652
0.196747
0.19739
0.198182
0.198888
0.199703
0.200362
0.201201
0.202015
0.203147
0.204582
0.206509
0.207735
0.208219
0.207133
0.205519
0.203662
0.202662
0.201609
0.20067
0.199716
0.198903
0.197934
0.197161
0.196247
0.195555
0.191335
0.127537
28.1938
25.2195
21.8135
20.7923
19.9178
20.15
20.2736
20.4147
17.3223
10.033
3.78314
1.368
0.781518
0.951423
0.911911
1.11637
0.980864
1.01939
1.03922
1.0441
1.03559
1.02133
1.00119
0.959906
0.890754
0.821356
0.907483
1.26107
1.97999
3.04643
4.35502
5.58616
6.61181
7.17928
6.1956
3.58675
1.75817
0.888367
0.552385
0.66254
0.863626
1.12197
1.209
1.19072
1.76372
1.59379
0.884695
0.902779
1.15423
1.56081
1.78965
1.87492
2.14944
2.41291
3.04994
3.79234
4.76377
5.90907
7.36749
8.15107
8.94071
9.27508
9.26479
8.80507
6.9196
3.88933
2.12693
1.08191
0.936719
0.770508
0.73655
0.832908
0.990898
1.08779
1.24289
1.27288
1.29878
1.29795
1.16362
0.944827
0.788758
0.740839
0.757931
0.796468
0.842221
0.892189
0.927493
0.93796
0.943373
0.952106
0.969956
0.989435
1.01652
1.03881
1.05993
1.07076
1.06606
1.08187
1.13797
1.22532
1.24603
1.0652
0.838448
0.973226
0.980905
1.06058
1.23493
1.31686
1.33103
1.22955
1.1274
1.05867
0.983344
0.893152
0.828767
0.806288
0.814501
0.838634
0.858136
0.886189
0.890269
0.869352
0.827817
0.760425
0.708439
0.721611
0.751647
0.71431
0.677999
0.736144
0.847446
0.916806
0.938476
0.95464
0.77132
0.967782
1.30754
1.42722
1.35779
1.12338
0.81176
0.6249
0.675322
0.99221
1.49113
3.73767
4.69592
4.08301
3.02731
2.16031
1.5264
1.49901
1.89242
3.16646
4.75961
4.22313
1.91006
1.41301
0.915578
0.662877
0.642107
0.77908
0.817125
0.716709
2.21143
2.41687
1.98176
1.4562
1.78211
1.39394
1.46186
1.50129
1.6517
1.48085
1.05856
0.813058
0.785386
0.916365
1.07678
1.16467
1.17395
1.14533
1.07724
0.97598
0.848413
0.706543
0.602745
0.547192
0.537984
0.572456
0.612782
0.653692
0.68645
0.580033
0.731669
0.774365
0.978502
1.30886
1.57711
1.64258
1.63129
1.59718
1.5206
1.40436
1.25363
1.1182
1.01717
0.932902
0.810163
0.616706
0.608973
0.791435
1.01917
1.19086
1.25089
1.30042
1.18336
1.1667
0.944434
0.705157
0.813471
1.62755
1.87738
2.34539
4.35699
3.87201
2.27163
2.19539
2.97171
3.64399
3.62819
3.89635
2.6138
1.56139
1.44568
1.44965
1.40768
1.30321
1.12286
0.908925
1.06851
1.33699
1.33852
1.27476
1.15483
1.07114
0.995228
0.925964
0.82078
0.806522
0.790603
0.894554
1.00093
1.19863
0.501872
0.5235
0.462375
0.45082
0.546931
0.747744
0.916208
1.16538
1.55861
1.53485
1.58199
1.55279
1.47491
1.33668
1.08091
1.2529
1.11138
1.10116
0.944936
1.01123
0.81732
0.8297
0.782765
0.778295
0.709531
0.840534
0.833827
1.11407
1.49663
2.03422
0.424194
0.503819
0.670285
0.881447
1.02801
1.11318
1.28728
1.17229
1.56123
2.08173
2.2877
1.99199
1.90331
1.22374
0.868143
0.511414
0.598058
0.447217
0.612819
0.498432
0.604025
0.517491
0.591041
0.821419
0.77388
1.33653
1.32452
1.74345
1.76503
1.67117
0.445062
0.634071
0.538652
0.455467
0.373193
0.289584
0.372872
0.44854
0.483987
0.470953
0.417875
0.235914
0.157955
0.156888
0.15715
0.157151
0.157184
0.156946
0.156938
0.156749
0.156799
0.156617
0.156678
0.156498
0.156557
0.156379
0.156425
0.156179
0.155298
0.144046
0.144211
0.155318
0.156201
0.156456
0.156389
0.156572
0.156506
0.156686
0.156615
0.156794
0.156731
0.156926
0.156912
0.157163
0.157144
0.157286
0.157097
0.157087
0.156847
0.156892
0.156707
0.156761
0.156578
0.156639
0.156451
0.156506
0.156305
0.156308
0.155268
0.144229
20.6144
18.79
18.528
17.8845
18.2335
18.4146
19.3886
19.7715
19.7146
17.3903
11.6586
4.90922
1.41554
0.783511
1.52297
0.98911
1.06277
1.0864
1.07795
1.05154
1.03011
1.02026
1.01662
1.00617
0.969422
0.897675
0.844062
1.02335
1.46358
2.27521
3.47407
5.30758
7.60021
8.96433
7.74307
4.30282
1.89294
0.91529
0.507875
0.541397
0.693884
0.958795
1.16108
1.15113
1.12469
1.19856
0.857114
0.91135
1.02408
1.7727
2.46626
2.42159
2.24207
2.4401
2.90787
3.57576
4.66461
5.93082
7.01007
8.17899
8.63716
8.99372
8.74061
7.76273
5.40207
2.9582
1.70742
1.03588
0.90436
0.745352
0.680436
0.76936
0.937349
1.07651
1.22255
1.28115
1.29882
1.19485
0.931236
0.758279
0.722332
0.755281
0.812839
0.861666
0.892984
0.926
0.958149
0.971499
0.956411
0.952561
0.958997
0.981357
0.995285
1.02239
1.03964
1.03682
1.03723
1.04265
1.09517
1.15988
1.12258
0.890009
0.821419
1.0266
0.981579
1.09432
1.24573
1.37267
1.29772
1.18745
1.10231
0.993057
0.845057
0.738532
0.669691
0.634117
0.642865
0.685267
0.750024
0.819287
0.864732
0.882702
0.852097
0.747327
0.675679
0.649247
0.641375
0.637967
0.673763
0.760304
0.810592
0.831708
0.836885
0.853723
0.794679
1.09647
1.43522
1.45598
1.28266
0.92795
0.680227
0.66003
1.07017
2.49713
4.53646
4.34701
2.86574
2.11024
1.46704
1.23617
1.05064
1.00618
1.09688
1.34102
3.0393
5.16136
4.2097
1.69659
1.45171
0.88223
0.608315
0.662805
0.699767
0.624083
2.59805
2.03307
1.44097
1.43217
1.40677
1.39607
1.53321
1.54515
1.61246
1.31875
0.993013
0.876878
0.953315
1.09604
1.19864
1.24246
1.24986
1.27884
1.27502
1.28437
1.17828
1.00271
0.787164
0.636877
0.559661
0.542201
0.550143
0.595961
0.575964
0.453939
0.684218
0.817194
1.14736
1.54347
1.66305
1.63653
1.57077
1.4624
1.34172
1.24282
1.11017
1.00874
0.91928
0.848822
0.689134
0.604871
0.781345
1.19678
1.43359
1.53975
1.56757
1.5987
1.59626
1.54994
1.4963
1.19519
0.903159
0.561367
1.54113
1.77407
4.36064
1.71374
1.32601
1.32092
1.30859
1.48019
1.93637
1.52354
1.39232
1.37525
1.39764
1.40421
1.40453
1.41169
1.42348
1.4821
1.51156
1.53594
1.43297
1.21512
1.16166
1.34078
1.4206
1.19194
1.06253
0.849851
0.789524
0.750251
0.884944
1.10163
0.469306
0.459231
0.475324
0.646727
0.972414
1.35583
1.50807
1.67756
1.74001
1.83954
1.5715
1.56157
1.56556
1.67765
2.33748
2.06325
2.01867
1.56749
1.75078
1.65258
1.25902
1.07153
0.991816
0.863736
0.847241
0.889022
0.917258
0.960883
1.16919
1.42599
0.484431
0.776891
1.13943
1.52978
1.67087
1.60547
1.62218
2.09914
2.81429
3.63662
3.49575
3.95426
3.54499
3.02593
2.00755
1.4405
1.00687
1.02495
0.638268
0.848868
0.702101
0.95296
0.81517
1.25394
1.84012
1.9616
2.8124
3.16756
3.4586
2.83375
0.727813
1.13371
1.04203
0.879819
0.711916
0.609399
0.515659
0.434071
0.425006
0.606479
0.667879
0.729942
0.519322
0.288909
0.282686
0.28336
0.282996
0.283413
0.282939
0.283385
0.282902
0.28337
0.282896
0.283381
0.282896
0.283384
0.282859
0.283103
0.282812
0.280925
0.281134
0.28268
0.283304
0.282798
0.283347
0.282827
0.283361
0.282849
0.283359
0.282856
0.283362
0.28289
0.283389
0.282945
0.283413
0.282969
0.283409
0.282945
0.283374
0.282894
0.283358
0.282884
0.283375
0.282887
0.283374
0.282864
0.283308
0.282792
0.282619
0.281079
16.2688
16.6571
16.6554
17.546
17.9548
18.5963
18.417
18.0394
16.8745
14.0652
9.36525
5.23819
1.96591
0.749979
1.47573
1.06555
1.1115
1.08352
1.02228
0.975037
0.952318
0.948743
0.959739
0.974197
0.974221
0.929908
0.924332
1.05548
1.29592
1.75868
2.65978
4.5519
8.17525
10.431
8.32432
4.01926
1.71649
0.556807
0.402928
0.385119
0.454558
0.700059
1.03472
1.08525
1.13735
0.934997
0.844947
0.922855
1.09071
1.77847
3.12596
3.53212
3.43658
3.38013
4.01052
5.02975
5.86676
6.69056
7.29442
7.2693
6.96639
6.09327
5.23239
4.05158
2.68791
1.79823
1.28153
1.0076
0.830449
0.668273
0.612883
0.663824
0.83418
1.04497
1.22989
1.29134
1.23556
0.968342
0.762651
0.73063
0.788955
0.880149
0.939872
0.966207
0.969338
0.958861
0.960547
0.967184
0.975977
0.977309
0.98806
0.990785
1.0049
1.00632
0.985138
0.963048
0.939295
0.937856
0.970399
1.00648
0.928244
0.787658
0.849333
1.06155
0.987518
1.06067
1.34755
1.3759
1.30185
1.20414
1.14132
1.00598
0.858404
0.727034
0.650324
0.616478
0.619474
0.650237
0.694343
0.77741
0.851835
0.88479
0.833186
0.71828
0.634682
0.603228
0.600182
0.621716
0.676008
0.756505
0.8388
0.916572
0.955853
0.892265
0.879899
1.30774
1.49855
1.42742
1.10576
0.775038
0.672464
0.923941
1.50751
3.59707
3.95919
2.80251
2.14588
1.64472
1.5529
1.3149
1.06572
1.00474
1.0676
1.2561
2.30857
4.79337
4.668
3.48839
1.70138
1.21368
0.652864
0.581772
0.589413
0.491701
2.61587
1.43403
1.4556
1.44703
1.42585
1.44509
1.63114
1.59831
1.47581
1.1626
0.997525
0.995694
1.07712
1.1493
1.1818
1.22289
1.30944
1.43572
1.50994
1.55516
1.53417
1.44554
1.23848
0.902001
0.670647
0.553667
0.531916
0.513668
0.498597
0.395571
0.690262
0.965872
1.4889
1.58426
1.52991
1.42058
1.24907
1.12631
1.04219
0.975424
0.930683
0.887519
0.819936
0.701499
0.645128
0.792565
1.27731
1.55145
1.60386
1.60364
1.60266
1.60583
1.59205
1.60198
1.58503
1.57008
1.4442
1.02543
0.893942
1.97609
3.53015
2.23003
1.30418
1.24874
1.2543
1.27874
1.3229
1.36839
1.41818
1.44987
1.44839
1.45624
1.43593
1.41984
1.38264
1.35872
1.38203
1.40172
1.45639
1.49906
1.53957
1.48053
1.22903
1.06109
1.32701
1.20935
0.948222
0.848224
0.829729
1.02297
0.402497
0.446694
0.63443
1.1021
1.52414
1.62577
1.6255
2.21028
2.20151
1.58101
1.59262
1.60053
1.56554
2.31524
1.8744
3.38662
3.15215
3.57525
3.14789
2.74892
2.09511
1.80847
1.62375
1.58783
1.46615
1.2486
1.25967
1.13767
1.08222
1.25245
0.552297
1.03263
1.59152
1.66792
1.662
1.68503
1.76409
1.60984
3.49661
2.95468
4.83067
5.08801
5.71279
5.15518
4.72157
3.2972
1.87988
1.12894
1.55652
0.951254
1.2635
1.30659
1.46466
2.50173
2.7078
3.86737
3.71986
4.69628
4.82194
5.56456
0.95958
1.40984
1.34212
1.28821
1.11372
0.989858
0.869842
0.778647
0.684411
0.633485
0.800028
1.00665
1.01017
1.03024
0.508156
0.497516
0.499348
0.499438
0.499257
0.499414
0.499243
0.499397
0.499254
0.49942
0.499279
0.499444
0.499219
0.499001
0.497725
0.480231
0.47987
0.497795
0.499244
0.499195
0.49937
0.499208
0.499365
0.499211
0.499357
0.499215
0.499371
0.499245
0.499427
0.499302
0.499479
0.499316
0.499469
0.499307
0.499435
0.499275
0.499412
0.499272
0.499443
0.4993
0.499464
0.499255
0.499346
0.499013
0.497478
0.47986
16.1865
15.8381
14.7779
16.1989
17.065
15.7387
13.8765
12.1675
9.95955
5.81502
2.78004
1.64728
1.01378
0.752376
1.3563
1.11307
1.1145
1.031
0.973696
0.947395
0.945496
0.935434
0.932461
0.937989
0.936288
0.951513
1.12448
1.27734
1.38268
1.58883
2.25422
4.27815
8.99556
11.1704
8.21946
3.39608
1.13586
0.377857
0.326774
0.307545
0.334384
0.474548
0.831268
1.02406
0.960328
0.878802
0.858931
0.966083
1.13009
2.25672
3.07949
3.68413
4.35551
4.7177
5.16686
5.56136
5.72888
5.13315
4.15907
3.42169
2.90559
2.43917
2.08987
1.7992
1.57562
1.37677
1.04115
0.842714
0.676107
0.604414
0.610023
0.64924
0.76825
1.00149
1.23509
1.26003
1.03221
0.790091
0.74698
0.839489
0.987241
1.11918
1.19456
1.21273
1.18349
1.13515
1.07605
1.02902
0.989425
0.960432
0.956993
0.944062
0.938229
0.915696
0.901343
0.881037
0.872007
0.856186
0.852225
0.833719
0.769219
0.755057
0.925935
1.07051
0.988112
1.19794
1.40836
1.45972
1.35509
1.32467
1.26106
1.18181
0.997696
0.802225
0.680634
0.641627
0.661557
0.685781
0.722225
0.784605
0.836049
0.836689
0.763186
0.657042
0.593248
0.576308
0.597539
0.681584
0.86
1.10233
1.27504
1.36754
1.39165
1.16545
1.05068
1.46488
1.51589
1.34111
0.980125
0.74114
0.778357
1.19592
1.64714
3.02699
2.79648
1.95501
1.68548
1.67442
1.64363
1.50001
1.15848
1.01385
1.07335
1.19881
1.59158
4.6982
4.52312
4.07664
2.42461
1.43591
0.746597
0.525787
0.472793
0.385987
2.24154
1.44271
1.44213
1.45429
1.4838
1.53105
1.58992
1.45918
1.24054
1.1051
1.05819
1.09375
1.15093
1.15418
1.15116
1.2076
1.3323
1.48874
1.58158
1.66632
1.67122
1.67021
1.60215
1.37299
0.984599
0.663801
0.54451
0.497281
0.447814
0.380566
0.741361
1.15832
1.53005
1.5803
1.37079
1.04888
0.972267
0.941351
0.888649
0.845534
0.801391
0.754789
0.688456
0.671243
0.826875
1.31572
1.60417
1.60358
1.57835
1.57723
1.57282
1.58481
1.57939
1.54762
1.55407
1.51735
1.53794
1.50157
1.20833
1.34325
2.52613
1.40337
1.35755
1.27663
1.26229
1.29208
1.37435
1.44838
1.46508
1.42103
1.44449
1.42869
1.4312
1.44615
1.45321
1.42632
1.37214
1.34514
1.34455
1.37718
1.4037
1.45231
1.51533
1.52765
1.26504
1.04474
1.27984
1.04854
0.940387
0.90218
0.400444
0.492885
0.87655
1.50365
1.63336
1.62053
1.62773
1.96834
2.69316
1.70307
1.56627
1.52601
1.62137
1.53789
2.10541
3.57847
3.67177
4.21558
4.72844
4.09706
4.13177
3.08839
2.8677
2.37487
2.31178
2.02706
1.83885
1.72982
1.2832
1.14347
1.10801
1.46264
1.56206
1.65308
1.63516
1.57262
1.486
2.47424
1.77093
3.99616
3.50001
5.52477
5.56975
7.05361
6.63835
6.47241
5.24122
3.34936
1.59304
2.32862
1.41606
2.27405
1.76757
3.91055
4.18158
4.6552
5.0959
3.92397
4.16655
2.77746
1.28389
1.44516
1.54904
1.527
1.42112
1.28076
1.16234
1.08165
1.0144
0.942177
0.884574
1.26337
1.20847
1.62686
1.78842
0.999752
0.982621
0.985366
0.984933
0.985367
0.984966
0.985409
0.985007
0.985481
0.985095
0.985523
0.985008
0.984779
0.984946
0.991883
0.991206
0.985154
0.985259
0.984968
0.985447
0.984957
0.985455
0.98491
0.985406
0.984878
0.985338
0.984859
0.98528
0.984886
0.985244
0.984888
0.985192
0.984862
0.985256
0.984879
0.985342
0.984916
0.985443
0.984989
0.985533
0.985014
0.985283
0.984691
0.984624
0.990917
16.1296
12.9133
11.1665
12.311
11.1688
8.96054
7.58315
7.23779
4.94091
2.1442
1.30829
1.26225
0.996345
0.841128
1.39867
1.25108
1.22021
1.14679
1.30319
1.67109
1.81398
1.63132
1.39312
1.26108
1.32158
1.3842
1.54452
1.58646
1.50072
1.65392
2.38588
5.51561
11.2517
10.5706
5.6333
1.54329
0.400655
0.338988
0.375976
0.382999
0.359306
0.382687
0.628784
0.938679
0.907302
0.854314
0.882769
0.987583
1.10151
1.48129
2.28996
2.87288
3.05995
3.40079
3.0754
2.22736
1.71012
1.37001
1.07941
0.961067
0.954388
0.959447
1.00322
1.02736
0.980496
0.904355
0.74017
0.649006
0.694943
0.758267
0.794733
0.790765
0.809494
0.963818
1.24443
1.16126
0.863572
0.763478
0.860296
1.07891
1.30026
1.43454
1.48151
1.4672
1.42519
1.36996
1.32304
1.2746
1.25315
1.22954
1.21549
1.19482
1.18937
1.166
1.15282
1.11146
1.03715
0.94612
0.851832
0.777284
0.723217
0.784896
0.977919
1.04414
0.981487
1.21874
1.458
1.44006
1.39867
1.42038
1.46579
1.36565
1.18066
0.945742
0.735856
0.657668
0.658346
0.701767
0.732691
0.753369
0.751859
0.707927
0.641092
0.595745
0.592609
0.661705
0.851483
1.15599
1.42097
1.54193
1.58191
1.59614
1.59074
1.51758
1.22087
1.52716
1.48352
1.2183
0.902263
0.747784
0.887041
1.40111
1.70144
2.44332
1.77637
1.70372
1.69268
1.69278
1.66694
1.69066
1.33768
1.0293
1.07767
1.16093
1.50361
3.52757
4.47647
5.84606
4.26011
1.49334
0.819046
0.523229
0.498724
0.711986
2.00814
1.40604
1.36327
1.40875
1.40614
1.41635
1.32603
1.19877
1.14155
1.11772
1.13163
1.18034
1.19936
1.19653
1.18114
1.21947
1.31605
1.4663
1.56967
1.67187
1.70747
1.69418
1.71239
1.65362
1.42328
0.980296
0.659112
0.513921
0.43014
0.378525
0.93862
1.29631
1.55585
1.3421
0.968726
0.810074
0.780591
0.767881
0.765346
0.733419
0.698957
0.665844
0.676556
0.85093
1.31693
1.62147
1.60371
1.57682
1.58951
1.59349
1.60329
1.61173
1.57779
1.58421
1.53946
1.53073
1.47642
1.50191
1.49305
0.968258
2.63545
1.47996
1.39931
1.45605
1.42654
1.36758
1.42617
1.49901
1.48289
1.51379
1.4788
1.49076
1.47198
1.45748
1.46622
1.46304
1.45394
1.41216
1.39204
1.37165
1.37716
1.37278
1.42067
1.44676
1.49319
1.53593
1.16011
1.03985
0.732901
0.618119
0.460039
0.599683
1.0889
1.58125
1.61597
1.62761
1.62429
1.62807
2.41155
3.4276
2.22482
1.62006
1.85457
1.18665
2.23448
2.54206
3.61921
5.21541
5.30265
5.30851
4.76922
4.88782
3.82219
3.42505
2.99528
3.31329
2.98181
2.70116
1.82322
1.15105
1.64156
2.30181
3.8852
1.57821
1.52531
1.22448
2.44696
1.22957
2.889
2.74701
4.57308
4.59227
5.89426
6.08089
7.35471
7.39232
7.78901
7.2062
5.95817
2.70239
3.78826
2.46452
4.05866
4.09739
5.78498
5.45007
5.32836
4.21267
1.45796
1.21979
1.56817
1.5829
1.60065
1.61826
1.57054
1.50284
1.43765
1.31602
1.28033
1.2244
1.19104
1.09096
1.71226
1.50622
2.50422
2.17504
1.55466
1.53629
1.53861
1.53869
1.5386
1.53866
1.53861
1.53867
1.53852
1.53845
1.53806
1.53739
1.53773
1.5473
1.54676
1.53802
1.53771
1.538
1.53832
1.53843
1.5386
1.53856
1.53863
1.53858
1.53861
1.53859
1.53865
1.5386
1.53868
1.53861
1.53865
1.5386
1.53867
1.53862
1.53869
1.53864
1.53871
1.53859
1.53857
1.5382
1.53777
1.53671
1.53565
1.54455
16.5933
10.0055
7.89873
7.44526
6.06068
5.52447
5.53965
5.38863
3.80372
1.8713
1.47215
1.6443
1.68029
1.73402
1.18253
1.13653
1.26348
1.18744
1.28316
1.64305
2.62014
4.24132
4.52573
3.37708
2.64481
2.10069
1.94936
1.8583
1.81675
1.67392
1.63224
2.01607
3.86465
9.61952
11.6754
7.59272
2.21564
0.536421
0.395637
0.517498
0.677098
0.692456
0.575844
0.447127
0.543897
0.840698
0.792956
0.762421
0.809687
0.843807
0.918021
0.950521
0.975438
1.01292
1.02401
1.01515
0.975338
0.923284
0.87749
0.838286
0.831034
0.833319
0.831269
0.828258
0.817913
0.808043
0.804945
0.795669
0.760794
0.697032
0.692512
0.895451
1.13926
1.18323
1.1554
1.02868
0.910647
0.928825
1.08983
1.2866
1.19772
0.967946
0.794117
0.848813
1.10102
1.37419
1.52938
1.57648
1.57598
1.54492
1.48956
1.41258
1.3255
1.24726
1.16771
1.10425
1.05576
1.02459
1.01348
1.02925
1.07503
1.13175
1.14719
1.05306
0.926561
0.792241
0.753203
0.869492
0.969188
0.90975
0.894601
0.969994
1.13292
1.41797
1.51222
1.48533
1.46121
1.53411
1.54491
1.53055
1.39541
1.16734
0.904551
0.730487
0.645572
0.641472
0.650967
0.650769
0.639816
0.630234
0.633773
0.705802
0.900124
1.2531
1.51753
1.58707
1.60544
1.61719
1.61618
1.60428
1.59337
1.57202
1.53466
1.53583
1.52069
1.53613
1.38869
1.10508
0.856173
0.762895
0.969117
1.49364
1.7138
1.97724
1.71874
1.72436
1.7051
1.6983
1.7057
2.38126
1.92858
1.07715
1.07132
1.16968
1.4171
2.31074
6.21636
5.6912
6.0237
1.46704
0.806289
0.655865
1.21544
1.57575
1.60706
1.63966
1.46921
1.30882
1.18839
1.17605
1.14325
1.18008
1.1382
1.16117
1.14663
1.18177
1.20965
1.25361
1.27964
1.2935
1.30943
1.3284
1.36845
1.42644
1.5517
1.64338
1.66637
1.70281
1.66728
1.66448
1.60909
1.36484
0.908212
0.595653
0.438798
0.384016
0.611996
1.05934
1.24364
1.4029
1.47513
1.16196
0.81191
0.740274
0.737851
0.728727
0.714171
0.68514
0.670636
0.701767
0.850761
1.26188
1.60441
1.61151
1.58968
1.6056
1.61585
1.63397
1.62874
1.62739
1.60889
1.57836
1.57371
1.54254
1.53663
1.48295
1.4587
1.50121
1.12055
1.09996
1.05571
1.23226
1.37811
1.39767
1.43514
1.47266
1.50462
1.48178
1.55642
1.5376
1.56685
1.56035
1.53462
1.52174
1.4877
1.49394
1.47753
1.45912
1.42333
1.42517
1.38744
1.38384
1.36011
1.37305
1.43577
1.47307
1.58428
1.55592
0.890892
0.853779
0.348789
0.566076
0.943496
0.901267
1.04041
1.53115
1.6224
1.62725
1.64631
1.63052
1.60581
2.0449
3.8649
4.73483
4.37078
2.79111
3.37536
2.25722
3.36897
4.07573
6.40061
5.50108
6.0702
5.29107
5.87803
5.55997
5.59138
4.46339
4.32502
3.78288
3.10913
1.6058
2.0349
5.90902
2.81061
1.8639
3.03369
1.56571
3.47185
3.17959
1.2333
3.05114
2.08237
3.88849
3.97833
5.55402
5.53263
6.23717
6.30799
7.27104
7.35191
8.15099
7.72367
7.29024
3.97385
4.79094
3.61
5.08733
4.92742
5.91187
2.934
1.61804
1.64161
1.58692
1.5153
1.54326
1.60794
1.63822
1.65412
1.61886
1.61812
1.58705
1.57013
1.53275
1.49365
1.45512
1.42463
1.71363
1.45586
2.88687
2.15154
3.48875
2.30615
2.29356
2.28741
2.2881
2.28792
2.28805
2.2879
2.288
2.28772
2.28771
2.28739
2.28727
2.29012
2.3197
2.34714
2.34717
2.31951
2.29037
2.28754
2.28731
2.28764
2.28764
2.28799
2.28784
2.28802
2.28784
2.28801
2.28788
2.28803
2.28796
2.28807
2.28801
2.2881
2.28801
2.28809
2.28791
2.28802
2.28779
2.28796
2.28763
2.28772
2.28729
2.28717
2.28702
2.28996
2.31921
2.34536
2.32452
16.5286
7.80605
5.39155
5.01082
5.23208
6.07872
5.63352
5.339
3.98561
1.81637
1.05805
1.13292
1.23851
1.27145
1.36785
1.37632
1.5549
1.49027
1.65213
2.40517
4.86032
8.11786
8.36367
6.46486
4.28978
3.05198
2.54092
2.21605
2.13335
2.1115
2.55894
4.17736
8.90897
11.3323
7.95271
2.43242
0.648179
0.456051
0.716611
0.890507
0.93479
0.924898
0.876059
0.680447
0.55841
0.695488
0.756575
0.77415
0.842305
0.909568
0.913393
0.862896
0.835267
0.809125
0.780752
0.760647
0.756709
0.761892
0.782598
0.824433
0.851768
0.876949
0.877347
0.866451
0.847625
0.826196
0.781546
0.734898
0.71721
0.811234
1.0719
1.28167
1.30766
1.28101
1.22367
1.13481
1.01908
1.0721
1.25502
1.2023
1.01304
0.835497
0.837008
1.0423
1.34639
1.53346
1.59384
1.60374
1.58885
1.5346
1.46178
1.37643
1.29567
1.21296
1.1384
1.07949
1.02377
0.984723
0.979128
0.975824
1.0237
1.08005
1.12065
1.08467
0.95757
0.840528
0.822315
0.902596
0.910498
0.862304
0.922863
1.11518
1.34443
1.49982
1.5274
1.47209
1.52411
1.56309
1.61453
1.58775
1.53005
1.37638
1.17083
0.969886
0.839172
0.751779
0.733074
0.745349
0.813561
0.960703