/*--------------------------------*- C++ -*----------------------------------*\
| =========                 |                                                 |
| \\      /  F ield         | OpenFOAM: The Open Source CFD Toolbox           |
|  \\    /   O peration     | Version:  2.1.1                                 |
|   \\  /    A nd           | Web:      www.OpenFOAM.org                      |
|    \\/     M anipulation  |                                                 |
\*---------------------------------------------------------------------------*/
FoamFile
{
    version     2.0;
    format      ascii;
    class       volScalarField;
    location    "0.003300000";
    object      Tu;
}
// * * * * * * * * * * * * * * * * * * * * * * * * * * * * * * * * * * * * * //

dimensions      [0 0 0 1 0 0 0];

internalField   nonuniform List<scalar> 
12384
(
1310.73
1271.43
1227.94
1125.15
1088.82
926.348
850.998
622.816
427.036
270
270
270
270
270
270
270
270
270
270
270
270
270
274.258
280.581
280.266
271.348
270
270
270
270
314.717
373.109
437.54
507.244
508.471
489.499
400.366
309.56
270
270
270
270
270
270
418.442
531.493
528.678
514.297
522.291
509.331
523.554
536.725
534.433
559.389
554.261
576.501
566.207
581.133
564.812
549.637
521.48
507.85
479.082
452.699
418.691
358.882
270
270
270
270
270
270
270
270
270
270
270
270
270
270
270
270
270
270
270
270
270
270
270
270
270
270
270
270
270
270
270
270
270
270
270
270
270
270
367.105
321.026
308.894
270
270
270
270
270
270
270
270
270
270
270
270
270
270
270
270
270
270
270
270
270
270
270
270
270
270
270
270
270
270
270
270
270
270
270
270
270
270
270
270
270
270
270
270
270
270
270
270
270
270
270
270
270
270
270
270
270
270
270
270
399.778
431.365
410.196
270
270
270
270
270
270
270
270
270
270
270
270
270
270
270
270
270
270
270
270
270
270
270
376.008
270
270
270
270
270
270
270
270
270
270
270
270
270
270
270
270
270
270
270
270
270
270
354.826
543.709
704.276
741.156
742.3
748.662
785.543
804.825
1089.27
1061.49
1057.85
1090.97
1161.41
1236.07
1258.25
1132.12
609.281
364.409
367.604
362.396
364.976
336.247
339.074
305.977
344.117
333.016
344.145
359.038
379.983
368.48
378.863
363.512
356.147
335.015
317.288
287.283
270
270
270
270
270
270
270
270
270
270
300.187
359.98
334.835
295.057
276.447
306.621
270
302.238
289.918
314.134
328.827
341.945
337.666
375.821
379.197
402.376
373.341
507.14
582.993
658.965
640.115
586.367
270
270
270
270
270
270
270
270
270
270
270
270
270
270
270
270
270
270
270
270
270
270
270
270
491.51
815.432
972.092
1024.49
905.874
875.128
443.207
458.203
431.079
410.332
375.204
330.461
297.997
292.931
292.879
292.875
292.981
293.002
293.002
293.002
293.001
293.002
293.002
293.001
293.004
293.003
293.002
293.002
293.003
293.002
293.001
293.003
293.002
293.001
293.001
293
293
293
293.002
293.002
293.002
293.001
293.002
293.001
293.001
293.003
293.002
293.003
293.002
293.002
293.004
293.003
293.004
293.003
293.002
293.002
293.002
293.002
293.003
293.002
293.002
293.004
293.003
293.002
293.003
293.002
1390.04
1374.53
1365.3
1261.01
1214.4
1114.59
1028.76
896.096
669.923
433.414
270
270
270
270
270
270
275.163
343.66
361.08
352.047
345.859
345.068
353.834
364.876
380.306
393.5
406.035
405.253
405.875
403.523
420.198
484.303
538.266
566.036
585.992
533.121
458.176
330.986
270
270
270
270
270
270
382.94
560.074
503.032
514.494
497.316
513.423
534.074
560.71
601.029
621.918
659.248
676.941
706.689
709.461
725.852
716.496
697.862
680.211
653.212
610.105
550.675
461.527
361.093
270
270
270
270
270
270
270
270
270
270
270
270
270
270
270
270
270
270
270
270
270
270
270
270
270
270
270
270
270
270
270
270
270
270
270
270
270
308.003
278.612
279.723
270
270
270
270
270
270
270
270
270
270
270
270
270
270
270
270
270
270
270
270
270
270
270
270
270
270
270
270
270
270
270
270
270
270
270
270
270
270
270
270
270
270
270
379.859
429.125
357.261
270
270
270
270
270
270
270
270
270
270
270
270
270
370.877
417.332
457.75
355.961
270
270
270
270
270
270
270
270
270
270
270
270
270
270
270
270
270
270
270
270
270
270
270
270
270
270
270
270
270
270
270
270
270
270
270
270
270
270
270
270
270
270
270
270
270
270
270
270
475.716
630.735
715.28
730.458
733.871
716.597
948.072
960.817
916.825
939.275
1006.1
1089.51
1145.69
1048.05
764.338
534.229
533.692
502.737
458.085
489.198
449.403
464.204
442.736
450.653
426.822
453.669
441.73
442.221
431.604
433.895
417.268
400.568
372.444
340.506
310.152
311.928
270
270
270
270
270
270
270
320.226
380.573
431.561
427.027
391.252
402.024
409.663
419.815
433.852
436.791
466.47
437.541
438.49
386.734
397.089
398.095
430.335
388.231
534.676
633.775
632.552
634.904
622.064
270
270
270
270
270
270
270
270
270
270
270
270
270
270
270
270
270
270
270
270
270
270
270
270
488.693
741.592
949.201
955.102
914.01
837.505
520.076
528.982
525.327
515.538
519.097
504.734
466.052
387.667
314.474
293.255
293.018
292.921
292.999
293.007
293.005
293.005
293.006
293.004
293.006
293.005
293.006
293.005
293.006
293.005
293.006
293.005
293.007
293.004
293.006
293.007
293.006
293.006
293.005
293.007
293.005
293.006
293.005
293.006
293.005
293.007
293.006
293.006
293.005
293.007
293.006
293.007
293.006
293.007
293.006
293.007
293.006
293.007
293.006
293.007
293.006
293.007
293.006
293.008
293.007
293.009
1456.93
1428.14
1356.14
1309.31
1238.54
1203.59
1142.3
1063.61
923.376
714.8
461.734
270
270
270
270
273.026
330.945
307.709
281.839
270.355
270
270
270.792
276.05
285.596
308.976
348.897
389.233
434.265
491.627
538.643
563.85
611.607
654.439
662.197
593.816
475.333
366.456
270
270
270
270
270
270
381.799
479.864
436.823
379.657
382.653
399.357
416.045
453.094
497.229
551.853
600.474
645.443
678.879
712.806
724.418
746.248
754.852
761.384
749.571
719.258
634.986
523.994
387.469
270
270
270
270
270
270
270
270
270
270
270
270
270
270
270
270
270
270
270
270
270
270
270
270
270
270
270
270
270
270
270
270
270
270
270
270
270
270
270
270
270
270
270
270
270
270
270
270
270
270
270
270
270
270
270
270
270
270
270
270
270
270
270
270
270
270
270
270
270
270
270
270
270
270
270
270
270
270
270
270
407.006
510.871
570.239
569.757
581.194
593.89
559.637
447.954
270
270
270
270
270
270
270
270
270
270
323.379
391.512
379.368
375.092
307.917
270
270
270
270
270
270
270
270
270
270
270
270
270
270
270
270
270
270
270
270
270
270
270
270
270
270
270
270
270
270
270
270
270
270
270
270
270
270
270
270
270
270
270
270
270
270
270
270
270
433.403
650.284
728.295
725.293
714.663
951.902
673.371
591.605
572.119
672.35
700.313
774.484
841.506
730.738
504.111
450.343
473.776
482.844
470.07
510.179
510.272
545.261
536.62
544.885
537.725
535.463
537.475
522.172
509.234
510.982
485.594
461.006
402.246
365.622
353.571
270
270
270
270
270
270
270
307.031
361.652
307.171
282.516
271.499
289.231
357.843
397.214
454.856
513.994
519.892
542.919
537.477
531.464
486.341
478.629
525.65
472.551
618.735
646.945
699.85
695.052
633.875
270
270
270
270
270
270
270
317.169
388.196
422.368
502.115
464.548
357.13
279.517
270
270
270
291.312
293.051
342.998
360.197
372.142
445.155
413.567
615.251
707.777
874.991
983.545
947.022
1012.11
484.655
386.809
410.153
445.229
478.431
511.806
539.971
548.967
513.024
421.915
315.21
292.898
292.875
292.987
292.996
292.995
292.995
292.995
292.996
292.995
292.996
292.996
292.996
292.996
292.996
292.996
292.996
292.995
292.995
292.994
292.994
292.995
292.995
292.995
292.995
292.996
292.995
292.996
292.996
292.996
292.996
292.996
292.996
292.996
292.997
292.997
292.997
292.997
292.997
292.997
292.996
292.996
292.997
292.997
292.996
292.997
292.997
292.996
292.997
292.994
1406.26
1340.72
1241.91
1202.81
1155.17
1150.23
1138.31
1143.05
1078.58
927.244
691.344
420.678
270
270
312.334
312.567
271.85
270
270
270
270
270
270
270
270
270
290.093
339.926
413.245
492.746
570.849
631.101
688.424
738.215
736.194
636.97
503.862
367.762
270
270
270
270
270
270
385.686
373.6
272.215
270
299.137
341.365
364.04
374.795
411.406
441.976
499.944
545.143
593.117
632.464
683.802
702.153
726.486
736.813
736.447
720.537
649.823
510.826
390.347
272.324
270
270
270
270
270
270
270
270
270
270
270
270
270
270
270
270
270
270
270
270
270
270
270
270
270
270
270
270
270
270
270
270
270
270
270
270
270
270
270
270
270
270
270
270
270
270
270
270
270
270
270
270
270
270
270
270
270
270
270
270
270
270
270
270
270
270
270
270
270
270
270
270
270
270
270
270
270
434.808
492.307
459.659
393.892
343.008
300.387
302.746
326.555
403.986
494.917
458.78
295.778
270
270
270
270
270
270
270
353.817
359.786
327.39
275.252
312.732
270
270
270
270
270
270
270
270
270
270
270
270
270
270
270
270
270
270
270
270
270
270
270
270
270
270
270
270
270
270
270
270
270
270
270
270
270
270
270
270
270
270
270
270
270
270
270
270
270
270
270
363.344
618.125
671.131
706.538
737.345
522.523
367.176
358.367
423.418
480.248
480.402
492.574
387.443
291.728
270
270
270
270
270
270
341.597
439.797
493.417
530.834
547.966
556.656
559.748
552.356
534.102
534.517
516.531
503.756
453.146
431.479
270
270
270
270
270
270
270
270
284.754
270.096
270
270
270
270
270
355.109
401.691
472.949
529.656
561.057
556.524
571.82
565.204
582.591
564.194
656.677
647.71
758.353
719.319
731.124
270
270
270
270
270
270
270
272.975
322.012
440.21
523.746
617.286
623.455
556.043
452.453
359.056
373.132
339.407
416.682
379.656
437.302
409.374
452.693
585.866
556.721
754.204
753.945
910.953
982.069
1035.15
270
270
270
270
270
270
354.311
444.193
514.91
539.339
520.749
388.55
294.562
292.758
292.988
292.999
293
293
293
293
293
292.999
292.999
292.999
292.998
293
293
292.999
293
292.999
292.999
293
292.999
292.999
292.999
292.999
292.999
292.999
292.999
292.999
293
292.999
293
293
293
293
293
293
293
293
293
293
293
292.999
292.999
293
293.001
293
292.999
292.999
1233.23
1162.86
1134.59
1097.2
1101.7
1088.81
1112.38
1121.14
1132.63
1094.91
983.154
743.538
406.119
270
369.346
270.302
270
270
270
270
270
270
270
270
270
270
277.128
318.331
381.687
455.924
529.892
622.599
724.808
794.408
780.819
672.624
519.814
374.2
270
270
270
270
270
270
296.457
324.022
270
270
270
345.365
404.701
399.669
386.679
412.837
453.917
497.323
553.044
608.576
644.026
692.859
707.807
723.31
713.822
675.098
574.063
449.814
348.818
270
270
270
270
270
270
270
270
270
270
270
270
270
270
270
270
270
270
270
270
270
270
270
270
270
270
270
270
270
270
270
270
270
270
270
270
270
270
270
270
270
270
270
270
270
270
270
270
270
270
270
270
270
270
270
270
270
270
270
270
270
270
270
270
270
270
270
270
270
270
270
270
270
270
270
270
354.82
485.931
470.727
369.551
314.863
270
270
270
270
270
270
389.007
511.716
454.745
270
270
270
270
270
270
270
375.063
328.932
270
270
270
270
270
270
270
270
270
270
270
270
270
270
270
270
270
270
270
270
270
270
270
270
270
270
270
270
270
270
270
270
270
270
270
270
270
270
270
270
270
270
270
270
270
270
270
270
270
270
270
270
270
270
270
279.448
620.216
698.352
707.125
308.171
270
274.144
270
286.14
337.706
292.865
277.792
270
270
270
270
270
270
270
270
270
270
270
317.213
427.289
518.861
539.033
555.145
551.773
546.234
527.528
523.522
475.757
270
270
270
270
270
270
270
289.796
290.084
300.152
270
270
270
272.389
341.604
317.995
324.337
333.352
437.462
442.717
528.025
539.916
560.673
546.719
575.802
628.763
679.461
732.573
768.225
774.894
270
270
270
270
270
270
270
315.758
376.411
449.879
460.514
549.493
635.846
674.39
628.18
528.286
470.039
448.817
365.391
430.814
393.902
463.471
429.033
527.759
629.457
606.956
744.647
763.697
955.992
981.892
270
270
270
270
270
270
270
270
285.281
405.313
491.736
535.12
454.847
299.389
292.703
293.002
293
293.001
293
293.001
293.001
293.001
292.999
293
293
293.001
293
293
293
293
293
293
293
293
293
293
293
292.999
293
293
293.001
293
293
293.001
293.001
293.001
293.002
293.001
293.001
293.001
293.002
293.001
293.001
293
293.001
293
293.001
293
293
293
1081.7
1047.59
1023.82
1056.75
1069.29
1086.7
1082.78
1095.98
1086.06
1029.43
882.632
712.98
469.408
270
342.861
270
270
270
270
270
270
270
270
270
270
270
285.607
328.358
379.476
434.98
497.811
596.068
752.304
842.86
799.518
651.647
501.737
302.922
270
270
270
270
270
270
302.788
278.415
270
270
270
331.128
434.984
463.635
461.332
456.836
495.861
551.329
588.108
624.454
650.063
644.502
631.335
590.61
551.568
496.703
423.354
358.088
300.582
270
270
270
270
270
270
270
270
270
270
270
270
270
270
270
270
270
270
270
270
270
270
270
270
270
270
270
270
270
270
270
270
270
270
270
270
270
270
270
270
270
270
270
270
270
270
270
270
270
270
270
270
270
270
270
270
270
270
270
270
270
270
270
270
270
270
270
270
270
270
270
270
270
270
270
270
420.258
444.051
364.645
315.168
270.434
270
270
270
270
270
270
337.221
490.187
489.564
413.635
270
270
270
270
270
270
375.51
270
270
270
270
270
270
270
270
270
270
270
270
270
270
270
270
270
270
270
270
270
270
270
270
270
270
270
270
270
270
270
270
270
270
270
270
270
270
270
270
270
270
270
270
270
270
270
270
270
270
270
270
270
270
270
270
270
390.041
695.253
588.932
356.285
270
270
270
270
270
270
270
270
270
270
270
270
270
270
270
270
270
270
270
270
270
314.323
452.761
537.42
551.219
566.656
546.564
525.559
270
270
270
270
270
270
270
335.208
333.031
270
270
270
270
344.507
302.624
431.162
414.414
442.76
415.752
399.903
450.524
462.635
477.85
534.821
578.775
592.871
660.133
703.965
754.288
787.828
270
270
270
270
270
270
283.894
270
430.188
392.434
527.391
544.844
606.591
647.203
691.563
653.194
497.434
410.547
448.991
347.249
404.181
404.071
408.635
554.715
547.231
644.98
615.893
745.26
746.209
1015.67
270
270
270
270
270
270
270
270
270
272.104
338.815
428.234
486.904
497.201
299.705
292.563
293.003
292.999
293
293
293
293
293
292.999
293
293
293
292.999
293
292.999
292.999
293
292.999
292.999
292.999
292.999
293
293
292.999
293
293
292.999
292.999
293
293
292.999
293
293
293
293
293
293
293
292.999
292.999
293
293
292.999
292.999
292.998
1048.52
994.817
991.464
1027.64
1046.1
1015.03
1002.88
998.012
935.705
726.129
506.019
390.12
307.989
270
318.019
270
270.064
270
270
270
270
270
270
270
270
278.02
320.704
370.277
411.22
444.993
489.469
587.32
778.879
869.418
797.159
622.442
431.332
270
270
270
270
270
270
270
270
270
270
270
270
372.163
425.236
460.944
504.875
528.096
550.606
569.76
580.175
550.951
502.122
459.923
428.208
395.635
373.86
354.899
335.857
315.291
274.631
270
270
270
270
270
270
270
270
270
270
270
270
270
270
270
270
270
270
270
270
270
270
270
270
270
270
270
270
270
270
270
270
270
270
270
270
270
270
270
270
270
270
270
270
270
270
270
270
270
270
270
270
270
270
270
270
270
270
270
270
270
270
270
270
270
270
270
270
270
270
270
270
270
270
270
270
375.456
359.283
292.187
270
270
270
270
270
270
270
270
276.929
491.946
480.86
454.924
332.068
270
270
270
270
270
344.145
270
270
270
270
270
270
270
270
270
270
270
270
270
270
270
270
270
270
270
270
270
270
270
270
270
270
270
270
270
270
270
270
270
270
270
270
270
270
270
270
270
270
270
270
270
270
270
270
270
270
270
270
270
270
270
270
270
270
560.651
514.551
270
270
270
270
270
270
270
270
270
270
270
270
270
270
270
270
270
270
270
270
270
270
270
270
316.603
490.304
543.81
581.587
530.548
270
270
270
270
270
270
270
308.905
366.132
275.971
270
270
280.756
270
312.92
436.594
453.591
503.212
539.249
485.664
494.373
442.198
458.397
468.941
519.497
550.728
596.945
672.692
715.653
747.448
362.228
286.143
272.895
270
270
270
270
346.474
283.925
473.127
439.122
584.139
579.179
669.845
668.188
698.847
676.037
530.277
377.246
433.634
322.161
411.291
360.137
539.394
564.275
592.855
633.675
544.019
605.673
556.518
270
270
270
270
270
270
270
270
270
270
270
350.429
360.446
469.948
483.396
298.929
292.585
293.007
293
293
293.001
293.001
293
293
293
293
293
293
293
293
293
292.999
293
293
293
293
293
293
293.001
293.001
293
293
293
293
293.001
293.001
293.001
293.001
293.001
293
293
293
293
293
293
292.999
293
292.999
293
293
1014.5
957.779
976.429
975.145
927.539
893.981
885.449
885.331
712.081
448.239
334.932
316.745
281.399
270
320.349
285.737
287.485
288.408
313.552
347.261
360.594
349.429
331.711
320.652
338.508
357.727
400.301
437.106
453.493
468.964
504.377
641.836
858.82
852.606
724.819
484.512
286.942
270
270
270
270
270
270
270
270
270
270
270
270
300.871
367.749
412.384
422.211
452.803
444.079
386.965
347.588
317.735
283.4
270
270
270
276.641
278.386
274.471
270
270
270
270
270
270
270
270
270
270
270
270
270
270
270
270
270
270
270
270
270
270
270
270
270
270
270
270
270
270
270
270
270
270
270
270
270
270
270
270
270
270
270
270
270
270
270
270
270
270
270
270
270
270
270
270
270
270
270
270
270
270
270
270
270
270
270
270
270
270
270
270
270
270
270
270
270
270
329.312
272.627
270
270
270
270
277.289
270
270
270
270
270
421.156
485.639
561.108
461.489
270
270
270
270
270
323.098
270
270
270
270
270
270
270
270
270
270
270
270
270
270
270
270
270
270
270
270
270
270
270
270
270
270
270
270
270
270
270
270
270
270
270
270
270
270
270
270
270
270
270
270
270
270
270
270
270
270
270
270
270
270
270
270
270
270
348.728
497.313
292.794
270
270
270
270
270
270
270
270
270
270
270
270
270
270
270
270
270
270
270
270
270
270
270
270
270
389.471
467.646
461.553
278.838
270
270
270
270
270
270
270
346.537
438.538
349.263
292.922
332.977
270
385.203
420.585
448.921
555.428
582.02
587.518
535.333
543.099
469.289
457.616
449.527
531.146
571.357
615.728
697.133
723.651
432.552
372.047
453.261
270
292.061
287.391
402.901
270
394.981
371.327
516.139
525.499
621.217
622.505
692.082
689.826
724.099
713.602
635.028
414.046
487.693
374.434
495.429
499.723
608.838
589.938
583.923
533.59
270
270
270
270
270
270
270
270
270
270
270
270
270
270
353.259
337.451
479.091
411.533
294.658
292.683
292.997
292.999
292.999
292.999
292.998
292.999
292.998
292.998
292.999
292.999
292.999
292.999
292.999
292.999
292.999
292.999
292.998
292.999
292.999
292.998
292.999
292.999
292.999
292.999
292.999
292.998
292.999
292.999
292.999
292.999
292.999
292.999
292.999
292.999
292.999
292.999
292.999
292.999
292.999
292.998
292.998
292.999
1021.39
948.681
940.837
894.383
829.089
817.22
819.953
800.118
639.282
421.592
345.786
345.534
344.499
351.879
275.726
270
282.699
270
293.364
343.281
424.784
517.634
530.291
471.279
446.939
426.06
435.926
446.815
468.949
476.602
475.393
489.967
569.205
793.316
881.655
779.229
557.959
324.952
270
270
270
270
270
270
270
270
270
270
270
270
270
270
270
270
270
270
270
270
270
270
270
270
270
270
270
270
270
270
270
270
270
270
270
270
270
270
270
270
270
270
270
270
270
270
270
270
270
270
270
270
270
270
270
270
270
270
270
270
270
270
270
270
270
270
270
270
270
270
270
270
270
270
270
270
270
270
270
270
270
270
270
270
270
270
270
270
270
270
270
270
270
270
270
270
270
270
270
270
270
270
270
270
270
270
270
270
270
270
270
270
270
270
270
290.357
270
270
270
270
270.839
334.017
311.771
270
270
270
270
334.377
590.877
553.295
569.546
270
270
270
270
270
270
270
270
270
270
270
270
270
270
270
270
270
270
270
270
270
270
270
270
270
270
270
270
270
270
270
270
270
270
270
270
270
270
270
270
270
270
270
270
270
270
270
270
270
270
270
270
270
270
270
270
270
270
270
270
270
270
270
270
270
270
270
270
270
270
334.138
308.39
270
270
270
270
270
270
270
270
270
270
270
270
270
270
270
270
270
270
270
270
270
270
270
270
270
270
270
270
450.725
311.927
460.48
457.008
338.646
270
270
270
270
270
275.203
273.862
331.17
482.79
547.307
519
394.134
465.854
413.099
542.463
523.318
629.436
597.21
644.609
584.096
616.04
585.481
588.82
528.27
547.345
558.327
608.538
689.344
852.662
933.051
553.513
322.74
419.594
270
438.948
445.226
286.872
465.708
335.845
460.863
465.007
592.297
600.242
651.465
650.608
703.386
694.528
738.349
716.713
694.388
483.609
536.715
449.043
553.8
545.182
611.889
411.978
270
270
270
270
270
270
270
270
270
270
270
270
270
270
270
270
300.468
276.903
421.129
362.869
458.439
298.931
293.613
292.925
293.001
293
293
293
293
293
293
293
293
293
293
292.997
292.997
293
292.999
293
292.999
293
293
293
292.999
293
293
293
292.999
292.999
293
293
293
293
293
293
293
293
293
293
292.999
293
293
293
292.999
292.999
292.999
292.995
292.996
1020.79
932.625
889.543
843.276
804.944
806.242
783.241
792.526
664.736
421.248
303.033
285.648
277.201
270
278.769
275.055
298.289
295.659
329.025
408.581
556.337
689.965
696.601
622.86
536.141
493.827
491.115
489.559
500.392
500.103
516.949
579.259
765.751
867.885
785.379
566.162
348.507
270
270
270
270
270
270
270
270
270
270
270
270
270
270
270
270
270
270
270
270
270
270
270
270
270
270
270
270
270
270
270
270
270
270
270
270
270
270
270
270
270
270
270
270
270
270
270
270
270
270
270
270
270
270
270
270
270
270
270
270
270
270
270
270
270
270
270
270
270
270
270
270
270
270
270
270
270
270
270
270
270
270
270
270
270
270
270
270
270
270
270
270
270
270
270
270
270
270
270
270
270
270
270
270
270
270
270
270
270
270
270
270
270
270
270
270
278.026
270
270
270
270
282.701
341.154
378.462
270
270
270
270
270
554.391
663.556
518.295
335.829
270
270
270
270
270
270
270
270
270
270
270
270
270
270
270
270
270
270
270
270
270
270
270
270
270
270
270
270
270
270
270
270
270
270
270
270
270
270
270
270
270
270
270
270
270
270
270
270
270
270
270
270
270
270
270
270
270
270
270
270
270
270
270
270
270
270
270
270
270
270
270
270
270
270
270
270
270
270
270
270
270
270
270
270
270
270
270
275.144
270
270
270
270
270
270
270
270
270
270
270
270
270
270
405.929
481.216
445.198
309.375
270
270
270
270
270
270
270
356.522
459.097
572.318
591.917
589.202
608.817
607.472
598.397
658.292
632.788
711.044
656.032
672.762
612.598
607.728
563.075
565.804
570.335
584.012
721.338
815.071
764.999
635.712
494.726
427.717
278.244
270
426.67
270
459.659
379.46
556.121
563.641
665.436
665.929
694.284
677.585
703.936
704.419
766.583
723.598
704.927
453.682
551.269
442.304
540.927
313.488
270
270
270
270
270
270
270
270
270
270
270
270
270
270
270
270
323.04
295.467
405.703
373.811
468.937
375.542
346.78
289.271
293.113
292.991
292.999
292.999
292.999
292.999
292.999
292.999
292.999
292.999
292.999
292.999
292.998
292.998
292.998
292.999
292.998
292.999
292.999
292.999
292.999
292.999
292.998
292.999
292.999
292.999
292.998
292.999
292.998
292.998
292.998
292.998
292.999
292.999
292.999
292.999
292.998
292.998
292.998
292.998
292.998
292.998
292.998
292.997
292.998
292.997
1023.5
922.614
873.049
841.328
839.21
882.68
814.77
818.158
690.708
458.998
274.324
270
270
270
270
270
292.926
307.014
324.82
418.792
615.357
779.19
824.96
744.595
677.97
609.679
576.602
569.295
578.608
604.825
691.302
798.624
833.979
755.538
551.517
373.12
270
270
270
270
270
270
270
270
270
270
270
270
270
270
270
270
270
270
270
270
270
270
270
270
270
270
270
270
270
270
270
270
270
270
270
270
270
270
270
270
270
270
270
270
270
270
270
270
270
270
270
270
270
270
270
270
270
270
270
270
270
270
270
270
270
270
270
270
270
270
270
270
270
270
270
270
270
270
270
270
270
270
270
270
270
270
270
270
270
270
270
270
270
270
270
270
270
270
270
270
270
270
270
270
270
270
270
270
270
270
270
270
270
270
270
270
270
288.422
270
270
270
310.119
297.61
340.448
394.921
287.402
270
270
270
270
529.883
563.055
601.203
298.499
270
270
270
270
270
270
270
270
288.808
270
270
270
270
270
270
270
270
270
270
270
270
270
270
270
270
270
270
270
270
270
270
270
270
270
270
270
270
270
270
270
270
270
270
270
270
270
270
270
270
270
270
270
270
270
270
270
270
270
270
270
270
270
270
270
270
270
270
270
270
270
270
270
270
270
270
270
270
270
270
270
270
270
270
270
270
270
270
270
270
270
270
270
270
270
270
270
270
270
270
270
270
270
270
270
317.085
409.409
357.937
321.96
270
270
270
270
270
270
270
392.196
649.01
765.092
758.179
652.703
647.084
636.58
736.056
710.381
763.74
716.054
700.78
635.359
618.99
553.945
558.15
588.756
562.839
509.829
492.898
385.675
450.682
270
270
270
270
336.349
270
536.755
532.655
660.423
656.756
715.531
713.248
729.974
699.006
734.18
737.025
762.607
722.408
683.343
435.198
353.173
270
270
270
270
270
270
270
270
270
270
270
270
270
270
270
277.093
270
342.356
306.492
402.18
382.306
479.532
425.203
560.111
403.91
296.358
292.399
293.013
293
293.001
293.001
293.001
293.001
293.001
293.001
293
293
293
293
293
293
293
293
293.001
293
293
293
293
293
293
293
293
293
292.999
293
293
293.001
293
293
293
293
293
293.001
293
293.001
293
293
293
292.999
292.999
293
292.999
1041.43
926.491
879.875
882.455
975.046
955.585
837.698
815.844
711.163
526.87
295.592
270
270
270
270
270
270
306.536
307.573
373.47
555.897
774.558
865.561
866.45
838.148
808.814
794.922
790.285
790.934
804.649
807.205
772.291
662.343
508.994
379.846
300.409
270
270
270
270
270
270
270
270
270
270
270
270
270
270
270
270
270
270
270
270
270
270
270
270
270
270
270
270
270
270
270
270
270
270
270
270
270
270
270
270
270
270
270
270
270
270
270
270
270
270
270
270
270
270
270
270
270
270
270
270
270
270
270
270
270
270
270
270
270
270
270
270
270
270
270
270
270
270
270
270
270
270
270
270
270
270
270
270
270
270
270
270
270
270
270
270
270
270
270
270
270
270
270
270
270
270
270
270
270
270
270
270
270
270
270
270
270
270
270
272.5
285.14
316.345
322.733
340.653
391.291
366.304
270
270
270
270
418.309
612.823
477.878
431.284
294.961
270
270
270
270
270
296.792
370.386
401.902
398.568
302.548
292.757
270
270
270
270
270
270
270
270
270
272.036
274.203
270
270
270
270
270
270
270
270
270
270
270
270
270
270
270
270
270
270
270
270
270
270
270
270
270
270
270
270
270
270
270
270
270
270
270
270
270
270
270
270
270
270
270
270
270
270
270
332.517
363.441
400.387
356.133
315.494
270
270
270
270
270
270
270
270
270
270
270
270
308.28
270
270
270
270
270
270
270
270
270
270
270
270
270
270
270
270
270
270
270
278.189
270
270
270
270
270
270
270
270
618.271
684.708
728.4
639.916
636.101
700.947
696.839
774.042
747.574
765.103
720.165
707.612
637.942
620.238
550.929
520.763
558.964
546.563
462.875
502.383
270
345.835
270
270
270
270
472.077
412.551
626.631
647.365
721.361
714.358
733.121
701.782
731.176
714.327
753.45
747.215
762.992
599.396
292.197
270
270
270
270
270
270
270
270
270
270
270
270
270
270
270
293.453
278.463
347.951
326.893
398.41
379.429
470.995
446.269
531.133
427.545
394.111
290.014
293.387
292.965
293.001
293
293
292.999
292.999
292.999
293
292.999
292.999
292.999
292.999
292.999
293
292.999
292.999
293
292.999
292.999
292.999
292.999
292.999
293
292.999
292.999
292.999
292.999
292.999
292.999
292.999
292.999
292.999
292.999
292.999
292.999
292.999
292.999
292.999
292.999
292.999
292.999
292.999
292.998
292.999
292.998
1061.81
939.092
930.787
967.121
1005.04
965.538
796.088
783.626
681.269
562.197
338.488
270
270
270
270
270
270
295.272
307.226
306.967
439.213
626.103
806.945
873
879.412
872.88
869.312
847.32
810.149
741.589
656.045
552.767
448.363
369.615
331.404
305.984
270
270
270
270
270
270
270
270
270
270
270
270
270
270
270
270
270
270
270
270
270
270
270
270
270
270
270
270
270
270
270
270
270
300.2
270
270
270
270
270
270
270
270
270
270
270
270
270
270
270
270
270
270
270
270
270
270
270
270
270
270
270
270
270
270
270
270
270
270
270
270
270
270
270
270
270
270
270
270
270
270
270
270
270
270
270
270
270
270
270
270
270
270
270
270
270
270
270
270
270
270
270
270
270
270
270
270
270
270
270
270
270
270
270
270
270
270
270
270
270
270
297.319
304.973
325.29
326.024
379.382
427.137
270
270
270
270
435.529
408.493
571.703
452.268
274.065
293.322
270
281.689
289.163
328.998
386.397
427.426
453.653
415.533
415.626
370.468
365.747
328.757
321.943
277.177
270
270
270
270
270
347.793
342.913
347.037
310.858
277.599
270
270
270
270
270
270
270
270
270
270
270
270
270
270
270
270
270
270
270
270
270
270
270
270
270
270
270
270
270
270
270
270
270
270
270
270
270
270
270
270
270
270
270
270
319.509
498.828
578.271
602.658
556.933
494.116
432.246
380.768
347.761
288.897
270
270
270
270
270
270
270
325.409
305.203
270
270
270
270
270
270
270
270
270
270
270
270
270
270
270
270
270
270
270
270
270
270
270
270
270
270
270
318.941
352.665
609.85
643.65
631.245
684.815
774.921
738.624
775.615
727.965
749.063
688.856
692.065
603.944
602.821
487.181
512.712
525.299
548.699
442.634
460.081
270
316.713
270
270
317.434
270
521.352
481.6
650.359
626.346
721.147
653.547
683.778
628.963
670.457
629.913
748.819
564.699
478.518
270
270
270
270
270
270
270
270
270
270
270
270
270
270
270
300.646
285.06
351.209
332.756
402.356
383.59
459.841
441.131
514.71
466.9
562.612
477.729
295.769
292.255
293.013
293.001
293.002
293.002
293.001
293.001
293.001
293.001
293.002
293.001
293.002
293.002
293.002
293.001
293.002
293.002
293.002
293.002
293.001
293.001
293.001
293.001
293.001
293.002
293.002
293.002
293.002
293.002
293.002
293.001
293.002
293.002
293.001
293.001
293.001
293.002
293.001
293.001
293.001
293.001
293.001
293
293.001
293.001
293.001
1089.11
978.531
989.624
1028.55
964.532
919.892
712.67
699.834
581.272
489.725
316.416
270
270
270
270
270
270
316.543
366.493
270
337.593
423.609
584.156
656.312
687.94
696.756
692.715
670.513
613.248
540.944
453.579
404.051
352.266
367.672
386.807
380.816
270
270
270
270
270
270
270
270
270
270
270
270
270
270
270
270
270
270
270
270
270
270
270
270
270
270
270
270
270
270
270
291.27
351.155
354.365
342.674
270
270
270
270
270
270
270
270
270
270
270
270
270
270
270
270
270
270
270
270
270
270
270
270
270
270
270
270
270
270
270
270
270
270
270
270
270
270
270
270
270
270
270
270
270
270
270
270
270
270
270
270
270
270
270
270
270
270
270
270
270
270
270
270
270
270
270
270
270
270
270
270
270
270
270
270
270
270
270
270
270
270
270
270
270
270
270
290.09
305.705
354.753
449.697
368.134
270
270
270
343.153
519.728
465.511
371.376
349.508
275.426
287.141
296.117
308.913
317.633
336.407
357.544
348.959
341.898
318.37
317.065
300.049
313.384
297.187
315.809
310.746
301.332
278.57
346.129
331.468
371.268
429.415
413.72
417.551
406.182
419.689
379.584
315.569
270
270
270
270
270
270
270
270
270
270
270
270
270
270
270
270
270
270
270
270
270
270
270
270
270
270
270
270
270
270
270
270
270
270
270
270
270
317.144
283.836
325.253
346.061
407.628
553.405
655.936
685.186
653.345
596.59
540.745
469.085
477.578
339.095
361.235
270
270