/*--------------------------------*- C++ -*----------------------------------*\
| =========                 |                                                 |
| \\      /  F ield         | OpenFOAM: The Open Source CFD Toolbox           |
|  \\    /   O peration     | Version:  2.1.1                                 |
|   \\  /    A nd           | Web:      www.OpenFOAM.org                      |
|    \\/     M anipulation  |                                                 |
\*---------------------------------------------------------------------------*/
FoamFile
{
    version     2.0;
    format      ascii;
    class       volScalarField;
    location    "0.003300000";
    object      Xi;
}
// * * * * * * * * * * * * * * * * * * * * * * * * * * * * * * * * * * * * * //

dimensions      [0 0 0 0 0 0 0];

internalField   nonuniform List<scalar> 
12384
(
1.87963
3.02237
4.05451
4.6653
5.40174
6.62063
7.45341
9.81311
11.8468
16.7878
11.4854
8.91928
6.61782
4.11696
11.5873
28.6363
48.2381
65.5661
77.5263
84.6935
90.4449
94.6642
96.9825
95.9637
95.2824
95.3068
92.6074
91.4084
89.1632
83.1555
64.243
48.0027
33.5935
26.2961
25.5334
27.1658
31.4368
45.1194
47.0741
34.2076
24.4294
15.4356
10.0356
5.30422
24.7758
28.6645
33.6548
38.4765
40.1962
42.3622
42.0178
40.2139
39.7201
37.5358
36.8472
34.8706
34.451
32.801
32.9539
32.6268
33.6072
34.0615
33.8877
34.0134
33.8816
34.3463
43.3475
40.1385
38.3024
39.7362
37.9938
32.1861
23.5239
11.7407
41.72
60.3605
72.2298
79.7452
83.9534
88.468
94.1478
101.534
109.787
117.115
122.006
121.489
116.025
106.692
105.284
101.075
101.605
99.6842
97.5032
93.7436
88.2049
79.712
69.4663
56.6227
43.9962
32.4263
24.0079
19.1387
17.0092
9.63924
41.4429
66.385
84.3836
97.5905
98.4285
92.4114
97.4671
98.6012
103.736
108.799
113.143
114.855
117.657
116.265
119.837
119.206
121.461
120.408
116.849
106.892
95.5785
83.0471
74.5065
67.2661
59.2195
63.2371
48.7912
35.3707
24.8036
10.5712
19.2809
34.8869
49.2515
60.7597
68.0839
67.3513
65.2714
61.8165
59.5758
62.0063
63.2349
71.1514
77.9653
95.1
113.578
122.706
130.229
116.641
109.864
93.5784
83.1171
71.7794
61.5243
50.6489
41.2148
36.4089
28.218
19.7647
11.7015
5.13191
27.6356
44.8331
63.3934
44.7426
46.8605
53.1497
76.3956
75.9695
64.2898
61.3565
58.3221
60.2571
59.4011
52.9387
45.5266
47.3909
58.9985
74.6421
94.2672
118.531
111.82
100.568
43.1644
29.5426
17.7032
12.3218
8.62361
6.34658
4.46243
1.30381
3.3929
5.55601
8.25016
9.45654
11.4698
10.4011
10.0165
8.02107
6.45568
5.25778
4.40691
3.90785
3.83643
3.84368
4.07391
4.89989
7.00072
8.90995
10.476
11.8323
12.0641
13.5948
11.1695
7.83427
6.12416
5.77596
5.20631
4.52236
3.59352
2.45244
2.09012
2.44677
2.64436
2.77173
2.77167
2.71931
2.80383
2.93749
3.87558
5.57935
5.57419
6.02471
5.81563
5.98612
5.56373
5.50168
4.64615
4.41168
4.11934
3.75687
3.49207
3.41205
3.33291
3.23735
3.24729
3.12754
3.11668
3.17671
3.28344
3.07915
3.2194
3.1797
3.08131
3.21832
3.23053
3.53745
3.53108
3.96411
3.97871
3.54188
3.73727
4.02559
4.14234
3.86527
4.02013
3.66636
3.54538
3.25188
2.95467
2.7948
2.64433
2.42548
2.47512
2.41554
2.80966
2.2976
2.14027
1.89319
1.88888
1.97703
4.2871
4.35261
4.34379
4.46741
4.37803
4.53931
4.68468
4.7057
4.72707
4.68494
4.59132
4.27109
3.86707
3.86072
3.67633
3.59317
3.61213
3.45398
3.53137
3.39916
3.43116
3.39775
3.32033
3.3185
2.41308
1.83603
1.73907
1.7006
1.76955
1.82338
1.00003
1.00169
1.00032
1.00004
1.00002
1.00001
1
1
1
1
1
1
1
1
1
1
1
1
1
1
1
1
1
1
1
1
1
1
1
1
1
1
1
1
1
1
1
1
1
1
1
1
1
1
1
1
1
1
1
1
1
1
1
1
1
1
1
1
1
1
2.51447
2.94832
3.64124
4.26034
5.04982
5.99453
7.30482
9.11428
12.5275
18.0813
22.7799
15.359
9.74023
8.5153
27.0155
50.5043
74.6678
71.6507
78.8522
92.3288
107.197
120.049
128.276
132.268
130.222
125.22
117.513
112.888
107.595
101.853
90.8984
72.9982
61.6412
55.2285
50.942
53.441
59.4134
76.8568
81.2586
60.9073
40.7496
26.656
16.0758
11.1836
43.769
36.6163
47.0495
50.7861
53.9135
51.687
48.1488
44.3619
39.6568
36.5463
32.7189
30.0854
27.4342
25.8867
24.2412
23.7016
23.819
24.1007
25.318
27.6142
31.4463
38.1544
47.8579
62.0718
61.0176
62.5738
59.279
46.5107
30.0323
20.7695
63.2045
60.7377
67.602
71.7553
74.5389
79.5725
89.8315
108.191
131.841
156.624
179.012
197.29
210.541
214.253
218.307
211.226
203.297
191.802
180.454
169.335
161.201
152.955
145.503
133.243
118.489
97.5433
75.8728
54.5425
37.4951
25.3945
78.4746
102.213
114.698
124.748
122.472
121.329
119.084
120.234
122.503
121.209
120.596
119.281
120.687
123.072
127.673
130.436
135.25
135.973
137.011
129.656
121.631
109.72
101.12
93.0653
88.8026
89.2824
76.394
55.8024
38.5629
25.9557
35.2762
45.7782
64.0958
76.897
85.0667
90.8595
92.1866
99.1558
108.631
123.829
138.286
157.44
168.306
162.97
135.209
122.822
79.96
65.7815
72.2091
89.0501
82.9635
78.8622
74.0884
65.5248
55.7207
46.7396
37.1146
27.5657
17.2202
12.7686
58.0182
72.8279
65.6157
67.0124
63.4136
81.078
101.793
106.768
101.519
113.077
134.203
168.669
195.575
195.659
182.736
179.74
200.813
232.174
264.535
276.255
266.443
224.348
150.473
80.0495
51.9122
30.1543
16.6044
10.5712
6.98329
4.03846
5.49971
5.31995
7.57575
9.54344
11.0473
11.1244
10.6005
9.79432
8.69882
7.68365
6.91319
6.3762
6.03527
5.76845
5.29266
5.18814
5.7805
6.2219
6.42185
6.55626
6.79239
6.21895
7.07169
8.12823
5.43506
4.50661
3.8203
3.18089
2.55196
3.43992
2.73942
1.76115
1.92724
2.06795
2.16492
2.33184
2.54392
3.00756
3.90718
5.13015
5.22458
5.35343
5.55723
4.82026
4.70405
4.13163
3.85823
3.44566
3.2186
2.82361
2.64248
2.48129
2.37363
2.2349
2.12116
2.02137
1.93174
1.90433
1.93141
3.04111
3.58279
2.14171
2.25727
2.44455
2.49584
2.67988
2.67068
2.60192
2.47727
2.50868
2.69332
2.89483
2.94244
2.89803
2.85548
2.65402
2.54071
2.32822
2.17052
1.98651
1.85542
1.81462
1.84729
1.89463
2.09764
1.87433
1.69918
1.5239
1.43937
2.08597
4.76485
2.66056
2.5752
2.51212
2.45171
2.43743
2.55637
2.59373
2.7341
2.72991
2.69626
2.56918
2.64597
2.47885
2.53868
2.45306
2.51873
2.46736
2.51339
2.52254
2.54075
2.54213
2.50764
2.45889
1.86003
1.53581
1.37193
1.35344
1.38928
2.18751
1.12851
1.05817
1.05049
1.04896
1.03402
1.01953
1.00701
1.00004
1.00002
1
1
1
1
1
1
1
1
1
1
1
1
1
1
1
1
1
1
1
1
1
1
1
1
1
1
1
1
1
1
1
1
1
1
1
1
1
1
1
1
1
1
1
1
1
1
1
1
1
1
1
2.51196
3.26277
4.45341
5.27068
6.22064
6.71483
7.39993
8.27564
10.5884
15.352
23.1545
30.4484
19.2346
16.2457
45.597
75.6107
75.2778
92.7338
114.244
132.476
146.024
159.648
172.642
181.577
183.919
171.596
146.478
122.089
100.215
80.4628
67.026
58.3218
49.6477
43.5452
41.8568
46.7729
58.2682
71.5188
83.2493
63.3046
44.5914
30.3356
20.7197
14.6822
51.5243
48.3125
61.2031
76.824
79.2804
74.8093
69.1869
61.9568
54.455
47.1241
40.8941
35.4421
31.2036
27.6411
25.377
23.4196
22.3568
21.7231
21.8881
22.7477
26.6304
34.1566
46.6461
66.8126
67.1159
69.0524
64.4913
52.3074
37.6624
24.7437
72.5023
65.8911
70.3057
72.8343
77.343
90.5037
114.556
144.306
168.928
186.488
197.831
206.101
216.382
220.356
221.797
217.112
210.255
197.213
185.069
171.25
161.206
149.29
141.396
128.411
113.915
95.7418
76.4887
61.8959
49.2273
34.7975
98.9708
111.114
117.507
117.927
127.77
130.68
140.714
145.245
149.483
147.567
146.843
141.433
141.992
140.208
143.035
144.396
145.61
145.944
145.344
143.104
137.436
128.585
119.445
114.694
117.814
113.859
98.5175
79.9307
66.1417
42.035
46.5266
59.4665
72.0782
80.9206
89.7116
98.2428
114.133
143.677
180.941
203.612
203.191
174.843
137.926
79.3704
62.5753
58.545
60.4903
58.191
52.5305
51.0883
58.1514
89.283
80.0174
80.2867
70.2499
59.1227
44.9674
30.8959
19.7315
10.9849
76.8072
69.6754
72.89
87.0672
92.7676
117.061
128.443
135.383
131.533
149.037
184.28
227.892
246.353
233.448
208.344
201.916
223.161
241.363
261.934
260.76
260.692
231.322
183.278
138.034
110.312
82.3945
53.8743
31.1568
15.4231
6.22246
7.33053
7.44191
10.679
12.8102
12.9983
12.0021
10.6902
8.97746
7.88617
7.46456
7.75974
8.07757
8.31111
8.01409
7.53447
7.38388
7.6678
7.27714
6.96139
6.87852
6.75884
6.88694
7.22863
8.03683
9.13747
6.39759
4.48804
3.63181
3.07982
3.91697
3.03844
2.08748
2.36084
2.57276
2.53671
2.61227
2.7343
2.89415
3.54151
5.03168
5.64974
5.5803
5.20059
5.45681
4.61731
4.52225
3.895
3.66266
3.33774
3.09677
2.8342
2.67372
2.58223
2.47001
2.4112
2.27039
2.2394
2.16035
2.25665
3.14285
3.86641
2.33559
2.46048
2.70069
2.69314
2.76845
2.79519
2.74737
2.5195
2.86711
3.13203
3.37319
3.45305
3.0606
2.93603
2.74588
2.63632
2.60037
2.46809
2.40372
2.18202
2.18392
2.16891
2.12716
2.31752
2.08155
2.00998
1.77101
1.59307
2.39065
6.22621
2.91921
2.79013
2.62921
2.48421
2.42663
2.46298
2.33218
2.21261
2.19385
2.06929
2.14738
2.56612
3.01075
3.00548
3.04779
3.05984
2.96755
2.96995
2.75261
2.69167
2.68835
2.46972
2.62381
2.15998
1.97602
1.76584
1.65909
1.65579
2.8968
2.20748
1.41149
1.42018
1.4107
1.36389
1.32334
1.25968
1.2012
1.09678
1.03606
1.00002
1
1
1
1
1
1
1
1
1
1
1
1
1
1
1
1
1
1
1
1
1
1
1
1
1
1
1
1
1
1
1
1
1
1
1
1
1
1
1
1
1
1
1
1
1
1
1
1
1
2.70235
4.35269
6.29558
7.64638
8.63502
9.09072
9.37102
9.64408
10.6282
13.9502
21.7972
33.9894
37.9866
26.8528
53.7731
74.7282
98.8195
109.082
118.982
128.678
138.757
147.588
155.731
164.547
175.736
187.441
178.288
146.398
110.496
83.0895
63.7587
51.0079
42.0134
35.8182
34.9091
42.6256
57.1465
75.9523
89.2656
69.419
50.4353
36.0008
27.239
17.5467
59.1119
70.5546
113.688
128.088
117.924
98.2979
86.2671
79.9561
71.1715
64.0128
54.3465
46.7433
39.8997
34.182
29.0836
26.4976
24.3059
23.0244
22.3267
22.2239
24.9543
34.4112
48.0282
70.0706
72.6444
76.4636
72.6262
61.9267
49.387
31.3517
78.8187
72.5258
74.1579
77.2425
87.6431
113.217
147.513
171.585
180.228
179.832
173.705
164.863
161.081
166.02
174.845
180.275
180.606
177.039
168.568
159.389
149.775
140.371
132.694
122.822
110.078
95.9526
82.6424
75.0588
71.0298
50.7169
99.6808
114.133
113.287
121.367
129.748
146.411
159.066
170.175
178.521
187.207
189.921
183.828
175.713
164.374
158.342
154.366
153.312
153.179
151.938
153.318
155.228
152.152
146.334
145.733
143.593
131.659
116.995
107.145
98.8155
69.5967
69.234
76.3208
78.9689
84.9782
97.8665
119.401
157.294
209.207
227.156
198.753
158.154
83.8521
70.6254
78.4044
100.161
130.746
163.837
158.488
125.069
83.692
61.7015
62.3313
91.7927
90.6946
88
82.6153
66.2403
44.9259
28.0801
17.8507
63.8008
70.2918
100.03
140.732
135.192
163.698
165.065
171.944
172.07
197.881
247.856
291.434
293.47
261.748
230.556
221.148
231.008
240.262
244.842
244.181
237.367
227.238
208.826
191.965
171.314
142.198
111.79
74.3748
36.226
13.6107
10.5554
11.3805
15.1345
16.3803
15.9737
14.8932
13.1656
11.5832
10.9525
11.0306
11.7436
12.2213
12.2307
11.7154
11.0362
10.7462
9.66168
8.27325
7.4552
7.10631
6.9993
6.88421
7.20474
7.40502
8.03378
8.81087
7.50877
4.68776
4.05937
5.09374
3.69953
2.57221
3.61172
4.08011
3.88429
3.80996
4.16705
4.39825
5.72909
7.82691
8.05876
7.63594
7.2665
6.87096
6.54798
6.38887
5.01139
3.92614
3.48544
3.21172
3.04255
2.88118
2.75567
2.65977
2.61309
2.53231
2.48028
2.39276
2.48858
3.3999
5.41772
2.94319
3.13481
3.21793
3.17632
3.05227
3.02485
2.98163
2.86393
3.13058
3.24769
3.3383
3.37063
3.35251
3.35097
2.80428
2.60037
2.41399
2.39082
2.28872
2.36674
2.31006
2.32637
2.35809
2.47108
2.33974
2.26809
2.00842
1.84869
2.80454
6.8937
3.35361
2.9256
2.5383
2.35608
2.22243
2.15579
2.28147
2.12335
1.95889
1.90021
1.93709
1.93772
2.14217
2.35128
2.7878
2.61903
2.8836
2.55032
2.71768
2.50711
2.63268
2.49671
2.21782
2.1952
1.80467
1.71689
1.60107
1.61243
2.85812
3.96588
1.77764
1.81993
1.88191
1.97011
2.10567
1.92878
1.84416
1.42154
1.32427
1.2645
1.04559
1.00001
1
1
1
1
1
1
1
1
1
1
1
1
1
1
1
1
1
1
1
1
1
1
1
1
1
1
1
1
1
1
1
1
1
1
1
1
1
1
1
1
1
1
1
1
1
1
1
3.59418
6.39748
8.618
10.1016
10.7579
11.1772
11.3893
11.7994
12.3507
13.4945
16.3535
24.3546
44.1277
51.0748
55.8846
91.3037
99.6417
109.097
119.732
130.278
138.791
144.619
148.601
152.259
157.411
165.633
173.084
154.798
125.086
95.1865
71.2978
51.8728
38.3026
31.3177
30.8948
39.1767
56.1477
77.0456
96.3467
81.5714
61.686
48.4075
38.4806
25.595
83.5923
89.9412
128.15
147.383
149.142
105.156
80.2075
75.4481
74.9561
68.3206
59.3961
50.9998
42.4304
35.6703
31.0463
27.2772
25.2407
23.4603
22.5721
23.0049
27.72
39.454
54.3761
72.5746
77.2756
84.1457
86.5684
78.7547
67.7619
43.6088
88.5687
82.0728
81.7537
87.616
109.615
142.935
168.564
178.258
178.08
172.742
162.762
145.561
123.811
110.099
117.202
126.92
134.005
134.153
133.166
129.17
125.619
123.805
119.809
115.865
107.996
99.2878
93.427
96.4846
93.6585
67.8619
102.697
109.034
113.598
118.461
137.975
157.616
178.225
198.582
226.903
246.611
254.628
249.43
228.25
203.038
179.449
165.721
158.673
155.36
153.517
163.903
172.268
177.568
176.595
172.483
161.357
146.912
139.171
134.948
130.514
101.906
96.4292
86.7106
82.5899
91.4618
110.775
148.909
200.955
232.513
196.303
119.693
80.1779
80.1953
105.571
136.058
183.178
211.149
232.599
227.051
191.164
147.927
82.5053
57.7579
62.7454
103.794
95.9883
101.048
102.867
76.905
54.0997
22.1643
69.8345
89.2338
143.398
173.73
195.296
210.66
197.775
211.958
212.803
250.268
299.041
324.624
310.537
283.425
262.113
249.996
246.617
237.797
233.101
214.393
207.869
202.757
207.323
209.53
205.526
188.374
165.726
122.287
80.3193
28.9037
16.5878
17.4948
20.9176
21.3621
22.0629
22.2642
20.8574
19.5033
18.9615
19.0005
19.9271
20.1189
19.7535
18.5067
17.7968
16.0451
12.2368
9.15665
8.13293
7.77726
7.60063
7.35667
7.27987
7.45199
7.29085
7.9283
8.40716
9.8397
5.24871
7.3661
4.14611
4.166
5.50318
6.21722
6.86803
7.08707
6.81472
8.60849
9.88177
10.3677
10.1178
9.71171
8.91289
8.0405
7.06383
6.12123
5.38529
4.7346
4.35384
4.14793
3.71124
3.05653
2.69051
2.6221
2.53205
2.61766
2.58622
2.6134
2.65122
3.72263
6.36028
3.75024
3.85243
3.61311
3.28337
3.03958
3.10153
3.14801
3.28052
3.45132
3.88287
3.99869
3.91009
3.64848
2.92783
2.80064
2.55032
2.52798
2.21492
2.16539
2.21123
2.26219
2.26406
2.34596
2.37709
2.34676
2.28528
2.21539
2.12313
3.40259
8.27302
3.41812
2.92151
2.48031
2.24942
2.25116
2.20434
2.07836
1.92474
1.82935
1.87058
1.8086
1.83127
1.86438
2.02121
2.18767
2.41277
2.39205
2.78347
2.49511
2.62537
2.34722
2.45571
2.09576
1.81325
1.69655
1.51812
1.47176
1.46398
2.37186
3.04902
1.61674
1.61582
1.65543
1.71201
1.7556
1.81552
1.89201
1.90928
1.74917
1.76161
1.60074
1.17775
1.00002
1
1
1
1
1
1
1
1
1
1
1
1
1
1
1
1
1
1
1
1
1
1
1
1
1
1
1
1
1
1
1
1
1
1
1
1
1
1
1
1
1
1
1
1
1
1
4.49888
8.85635
11.3915
12.2267
12.5022
12.6732
13.3624
14.3786
15.9151
18.5693
23.8246
31.856
51.8779
76.9478
76.827
92.3953
100.583
113.114
127.734
138.012
143.89
145.291
144.89
144.331
145.504
151.669
153.314
141.733
125.497
104.485
80.1663
55.3439
35.9704
28.1495
29.0766
40.0852
58.6241
102.56
110.823
101.959
86.7221
72.6241
56.7259
36.2038
88.477
111.557
144.043
166.59
160.533
112.396
72.4257
61.4016
58.3822
56.4721
48.9374
41.2123
36.2662
32.169
29.1729
27.6563
26.6953
26.8858
27.5383
31.0083
39.9249
51.5127
63.8558
74.3565
84.1418
96.6922
103.51
101.632
90.833
62.1425
99.2933
95.3756
95.8549
111.662
139.309
163.457
175.039
177.753
180.018
181.67
179.403
172.831
156.762
137.282
120.16
112.582
108.828
107.388
105.699
107.152
110.502
113.035
115.592
116.233
113.644
109.829
111.254
116.744
110.288
87.4835
106.089
115.83
108.239
122.713
141.229
166.156
187.043
220.738
256.894
289.715
304.612
297.626
272.952
238.836
208.907
182.289
167.424
163.822
169.095
185.549
198.537
202.7
198.008
187.531
172.332
158.481
148.182
140.793
136.611
127.155
127.958
87.592
87.6985
102.22
135.783
186.778
223.877
206.275
164.159
95.5904
88.9027
110.408
135.065
171.596
192.703
222.935
255.576
256.417
222.507
169.312
97.0287
56.5681
57.3555
69.8277
103.136
111.078
133.288
124.503
101.266
60.8181
89.1346
135.005
176.958
213.417
237.929
251.947
229.761
242.183
253.922
295.629
329.055
330.855
317.2
301.356
288.346
271.072
248.444
221.491
204.756
188.425
176.491
168.846
168.66
185.517
200.747
206.406
191.062
162.127
117.162
42.139
26.1472
27.9585
29.4105
34.1795
37.7202
38.5223
38.5468
37.6978
37.5321
39.2566
40.3829
40.1258
39.074
37.3454
32.5739
22.5016
13.8011
10.8508
9.7896
9.43626
9.29127
9.32086
9.38939
9.17803
8.87138
8.24512
8.15547
8.71144
8.54374
8.21435
5.084
4.33517
6.59501
7.46716
8.21534
8.94887
9.72656
10.6476
11.5161
11.7187
11.8817
11.2312
10.4645
9.38048
8.20701
7.06518
6.00226
5.21567
4.4775
3.97602
3.57052
3.31443
3.26365
3.09714
2.54193
2.45116
2.5211
2.56412
2.70896
4.24968
8.7179
4.62593
4.22662
3.55634
3.22516
3.1958
3.28341
3.07813
3.29226
4.11449
4.33214
4.45121
4.46943
3.63244
3.60329
2.57588
2.36199
2.08343
2.03217
2.04799
2.09866
2.12187
2.11706
2.08183
2.12078
2.21448
2.19382
2.27556
2.42878
3.9593
9.06572
3.6821
3.00041
2.7304
2.57577
2.47748
2.47285
2.56828
1.97888
2.0802
1.82064
1.8054
1.75346
1.7786
1.77724
1.88916
2.17011
2.51119
2.25579
2.63281
2.36799
2.31192
2.20831
1.83989
1.72324
1.51991
1.48251
1.40617
1.39198
1.91815
2.76517
1.60049
1.5902
1.55695
1.59805
1.60932
1.65542
1.68229
1.73024
1.76369
1.66425
1.61593
1.7147
1.20862
1.00002
1
1
1
1
1
1
1
1
1
1
1
1
1
1
1
1
1
1
1
1
1
1
1
1
1
1
1
1
1
1
1
1
1
1
1
1
1
1
1
1
1
1
1
1
1
5.69249
11.692
14.5808
14.6437
14.5561
15.6797
17.6074
20.0251
24.5118
37.1725
61.7345
84.1448
102.95
102.536
100.923
93.5128
104.068
121.937
136.404
142.136
141.226
138.987
136.447
134.946
136.356
137.774
126.036
117.657
112.777
104.351
84.3094
55.3103
32.7305
26.2337
28.4485
42.711
72.2424
125.882
125.099
121.576
117.273
106.654
83.025
52.4694
102.909
129.576
160.315
174.244
161.804
97.0959
71.0114
57.5449
48.8097
44.3468
40.3105
37.0624
34.8256
35.2876
37.699
39.2997
39.9391
41.3171
43.6219
48.3189
54.1646
59.963
71.7936
82.791
98.1122
110.824
116.769
118.413
113.071
83.5421
117.546
117.127
125.143
144.044
160.974
168.467
169.074
169.051
171.845
175.545
179.977
181.813
180.719
172.403
160.499
145.315
130.255
118.22
111.015
109.858
111.124
115.635
118.762
123.546
126.4
128.583
132.721
130.821
117.661
105.818
118.815
109.671
109.831
118.859
140.941
159.53
186.534
213.997
255.527
302.037
332.282
334.047
306.168
275.611
242.564
212.782
195.414
192.293
202.093
220.591
228.758
225.785
213.553
190.519
161.49
137.114
124.925
118.557
117.237
134.559
139.737
89.1039
96.8702
120.404
163.505
208.465
218.802
183.19
156.011
105.245
109.14
137.088
158.324
175.243
193.923
218.164
261.666
281.913
251.49
198.064
130.113
53.7179
54.3552
62.8129
89.9304
119.182
155.037
168.224
164.464
127.2
121.632
171.479
219.766
255.049
274.698
280.92
265.827
279.186
306.694
323.313
334.637
328.56
316.396
309.922
298.22
275.675
244.824
210.487
189.623
168.931
159.36
148.77
144.509
148.266
168.988
196.353
204.551
182.881
154.677
50.8904
48.3059
45.9887
51.0463
56.754
63.649
72.0773
71.4757
71.7148
78.2342
84.5344
92.3098
95.1454
94.1308
85.0396
60.1661
34.568
22.4675
16.6552
14.5354
13.9977
14.5967
14.9318
14.5447
13.8334
12.4026
11.26
9.79
8.63072
8.7862
13.8659
7.17969
6.56808
7.61789
8.97561
9.88226
10.5513
11.2208
12.1769
12.9571
13.9268
13.8606
13.7224
12.9906
11.6032
9.70241
7.91954
6.59421
5.52472
4.74737
4.13282
3.69245
3.31562
3.01934
2.82667
2.84618
2.82304
2.39571
2.42917
2.58384
4.97766
9.97236
5.38416
4.42208
3.58598
3.42687
3.51888
3.5526
3.48733
3.23724
4.27099
4.70588
5.02702
4.92995
5.03415
3.98363
2.88014
2.48772
2.12125
1.90239
1.91683
1.86788
1.98157
1.9661
2.01391
1.98399
2.03017
2.0841
2.16883
2.57446
4.7973
7.53229
4.00809
3.5808
3.16855
2.99175
3.10579
3.22612
2.62413
2.91209
2.10059
2.16501
1.87515
1.85499
1.73312
1.73786
1.71569
1.75787
1.92833
2.3681
2.08669
2.4186
2.04806
2.16862
1.68637
1.59037
1.49096
1.41116
1.42123
1.39435
2.1523
2.35576
1.66853
1.59661
1.55043
1.53931
1.56352
1.57216
1.59577
1.593
1.62211
1.63701
1.52853
1.57872
1.57377
1.1445
1.00021
1
1
1
1
1
1
1
1
1
1
1
1
1
1
1
1
1
1
1
1
1
1
1
1
1
1
1
1
1
1
1
1
1
1
1
1
1
1
1
1
1
1
1
1
7.17249
15.7259
19.0274
18.7544
20.3134
23.6511
26.6798
29.2537
41.6423
81.3522
125.808
135.258
147.161
137.819
114.494
91.9461
102.734
119.085
117.35
101.011
92.8863
94.3524
99.7579
103.657
101.016
100.142
96.3201
96.9405
102.074
97.838
78.8573
46.0483
27.5678
25.9794
33.8942
64.4177
128.952
131.406
117.471
116.534
124.572
133.309
119.665
74.7869
140.892
150.148
169.362
171.553
155.1
117.292
79.7033
63.7249
58.1628
52.7001
54.2936
63.7131
71.6841
77.6667
84.1644
83.844
78.603
74.8006
71.7586
71.4845
74.522
77.9386
87.4269
98.07
105.145
110.213
117.158
122.415
129.653
110.894
137.154
146.43
156.718
165.798
166.342
159.924
154.156
154.036
157.632
163.5
168.754
172.392
172.031
169.482
159.144
147.865
133.6
123.092
112.684
108.884
107.007
110.267
116.732
125.716
134.577
141.317
145.174
136.696
124.266
126.651
142.532
122.507
115.122
128.63
143.821
158.793
171.057
199.657
235.278
280.196
330.361
351.058
341.586
312.464
287.019
264.994
250.52
248.717
255.89
259.455
252.24
228.565
189.877
152.211
129.527
120.727
118.331
117.802
117.27
136.502
147.343
97.1237
112.529
143.375
188.215
221.285
212.869
171.169
153.32
118.262
138.672
141.821
154.043
173.355
195.282
207.48
252.813
298.895
275.942
225.134
149.064
65.7114
51.8735
50.1376
65.5336
130.706
168.772
201.873
199.496
150.492
157.979
214.54
269.108
299.897
324.33
315.296
324.008
330.957
335.735
334.258
324.762
313.638
306.193
296.241
286.637
266.718
240.701
209.334
186.28
162.639
148.807
142.31
132.9
130.189
136.977
163.882
199.701
220.152
235.184
109.193
93.4365
73.8392
76.774
94.2122
116.16
129.581
133.262
139.263
146.738
159.085
172.51
178.185
171.028
136.116
89.6552
61.387
45.2688
33.0374
27.6694
27.3668
29.0483
29.4482
28.8477
24.7436
21.105
17.0317
14.4419
11.3219
9.71354
22.6859
10.5717
8.50726
9.84255
10.0861
10.8786
12.1269
13.6065
14.2965
16.1281
16.324
17.4323
17.2148
17.0194
15.5404
12.7443
9.92203
7.525
5.93394
4.86383
4.15236
3.69567
3.35209
3.02508
2.79763
2.63967
2.5592
2.74259
2.6434
2.98187
6.7752
11.1253
6.0967
4.83526
4.13643
4.31715
4.9239
5.66685
6.13236
5.1708
4.55294
5.56209
6.55065
5.86212
7.165
4.6717
3.95877
2.92795
2.2395
1.99831
1.90688
1.90976
1.85665
1.93849
1.95775
2.00725
1.92451
1.97054
2.06632
2.49991
5.22702
7.31915
4.15658
2.71065
3.63008
3.86728
4.60277
3.53693
4.59471
2.94604
2.77182
2.17446
2.09534
1.91145
1.8671
1.75103
1.72223
1.66661
1.65401
1.67849
2.02853
1.81517
2.00904
1.71162
1.65736
1.48372
1.43451
1.37435
1.3612
1.60404
2.68757
2.43157
1.69722
1.67892
1.597
1.55337
1.53497
1.52923
1.53644
1.53761
1.5323
1.54886
1.57332
1.45748
1.53943
1.50105
1.07898
1.00001
1
1
1
1
1
1
1
1
1
1
1
1
1
1
1
1
1
1
1
1
1
1
1
1
1
1
1
1
1
1
1
1
1
1
1
1
1
1
1
1
1
1
1
8.94512
20.197
24.6329
26.4333
30.3389
32.5334
33.1007
35.9958
51.7374
99.8759
142.687
152.679
156.312
128.661
147.584
161.622
133.077
117.567
110.262
100.58
78.4645
57.3371
52.7785
60.1506
66.9474
74.1787
77.3515
81.3292
85.3137
92.1882
96.1373
86.3515
58.4279
31.8999
26.0814
30.716
56.8561
119.451
131.616
108.085
91.3449
91.4938
106.087
134.837
148.873
126.067
154.323
176.788
140.671
155.459
162.191
160.423
146.952
130.618
121.963
118.566
119.442
120.709
122.937
124.59
121.868
117.693
112.948
106.591
100.972
96.5977
93.8158
93.5831
95.9694
102.01
106.039
102.381
104.911
112.883
121.453
134.293
150.56
141.808
173.969
205.719
202.058
194.881
188.037
175.117
158.707
147.438
145.238
148.614
154.575
161.2
168.64
175.214
181.505
184.107
184.708
182.233
175.663
168.572
157.535
144.705
129.824
119.138
118.509
128.355
139.741
152.724
154.565
140.265
133.941
145.596
189.842
202.579
164.502
127.543
123.79
131.413
143.832
150.633
167.51
182.882
210.144
246.945
292.856
333.963
357.453
353.757
338.66
324.544
313.358
302.018
288.784
262.897
221.417
174.67
147.331
137.468
133.145
132.851
136.683
143.928
148.408
139.007
144.193
143.186
121.321
118.973
134.44
167.22
206.031
229.928
209.521
169.165
154.441
132.767
134.823
130.469
144.628
168.614
191.032
166.871
203.101
300.274
291.377
242.218
171.524
96.1804
44.0984
50.0786
55.6161
143.289
197.766
214.515
157.123
128.311
162.257
198.565
227.208
271.655
325.881
362.316
385.502
356.636
367.615
342.175
337.821
320.042
307.425
293.075
279.768
269.98
257.157
245.141
227.084
213.01
187.141
166.811
154.918
141.952
140.231
135.834
136.933
153.144
198.878
258.579
315.339
273.643
175.043
135.151
120.512
102.505
101.77
125.197
164.085
179.452
184.916
193.669
206.598
224.112
237.992
237.331
209.335
156.588
121.612
101.886
84.2151
67.7391
58.0137
56.1909
59.2062
61.9223
58.7797
51.8489
40.5347
31.1928
23.6349
18.5429
14.5667
20.2128
42.1929
29.9144
19.4356
13.8332
12.7748
13.7611
14.4379
15.1729
16.4802
19.4432
20.208
22.7776
23.4786
24.6741
24.6751
22.6958
18.7743
13.7871
9.72787
6.94608
5.36786
4.25258
3.75896
3.34824
3.12579
2.92446
2.69055
2.57735
2.49678
2.60961
3.63972
7.63005
27.6892
21.3351
10.4063
7.96107
6.84197
5.93532
7.22874
9.36502
11.5155
13.6313
14.9664
13.6413
9.43912
7.93198
7.32233
7.75092
5.77007
5.55858
3.73215
2.91158
2.17037
2.07741
1.93276
1.94679
1.84324
1.82924
1.80318
1.89967
1.92601
2.06959
2.4375
4.33625
8.19378
4.21592
4.31321
4.64994
3.68928
5.41494
4.35234
4.86268
7.36188
4.24125
4.38719
2.91106
2.56922
2.11593
2.02039
1.8981
1.85249
1.75526
1.71988
1.6344
1.60864
1.57348
1.76651
1.64282
1.7132
1.53651
1.49461
1.39343
1.49932
1.59759
1.55003
1.6467
2.66541
2.44623
1.78675
1.7728
1.70955
1.65932
1.59493
1.55372
1.51949
1.50352
1.48855
1.48812
1.48196
1.43557
1.48952
1.34641
1.47576
1.08226
1.0001
1
1
1
1
1
1
1
1
1
1
1
1
1
1
1
1
1
1
1
1
1
1
1
1
1
1
1
1
1
1
1
1
1
1
1
1
1
1
1
1
1
1
1
1
1
1
1
10.9793
24.5524
31.7201
34.3854
34.3747
32.2227
33.7853
36.0586
47.6796
94.7628
166.866
192.441
203.977
206.165
184.837
161
119.942
106.731
101.153
83.7086
55.229
38.9577
36.6455
41.6938
52.0953
62.417
69.8368
76.8721
81.2156
83.644
76.18
56.8253
34.6736
28.1442
32.2187
59.4864
118.794
137.886
99.6826
86.1255
84.0204
86.3348
90.4459
113.03
149.996
154.514
145.99
147.211
146.736
145.772
147.377
147.67
143.868
142.343
144.627
147.599
148.902
150.002
148.404
145.781
143.729
139.187
135.733
130.953
126.432
122.887
124.836
130.496
138.622
136.444
126.369
127.543
143.4
158.26
171.451
187.559
211.007
220.725
231.278
263.092
257.687
230.384
201.746
171.903
150.389
143.51
144.751
149.344
155.585
164.822
174.197
184.527
193.011
202.396
209.902
215.163
217.518
217.404
209.716
199.292
178.039
158.768
144.589
146.319
157.62
167.641
166.191
152.95
151.436
165.526
180.796
181.598
160.948
137.272
134.125
140.371
141.255
148.753
156.489
175.767
196.538
222.684
252.997
283.35
310.398
327.377
329.561
319.849
295.146
259.324
220.823
188.382
171.142
160.615
155.563
152.324
152.098
156.78
160.892
163.908
164.045
159.917
150.674
145.309
142.008
142.038
159.935
186.131
217.812
229.594
211.258
170.182
157.564
138.932
130.283
123.06
135.958
160.84
177.583
157.691
153.5
277.205
296.894
252.256
192.267
135.834
51.0843
44.369
62.7356
121.547
196.176
185.058
178.195
206.188
258.008
298.326
294.047
317.984
362.005
386.875
389.444
361.767
355.117
330.479
314.982
292.041
271.694
260.563
246.405
234.28
227.393
217.472
212.638
202.211
193.342
178.265
160.744
153.48
141.73
138.211
139.536
151.318
182.922
243.467
319.191
353.942
239.421
157.994
130.381
110.635
121.254
171.089
199.13
210.192
217.602
228.026
242.809
256.236
260.268
242.451
199.06
162.588
143.645
128.481
115.141
104.726
96.7047
98.6744
105.325
112.375
113.573
100.822
81.8805
60.0876
43.4
31.6922
24.8433
23.2402
26.9984
31.1829
35.8473
32.6111
28.0262
23.2198
21.0428
21.8094
23.9832
25.7007
30.5013
33.5055
36.57
39.3203
37.5189
34.4023
27.1126
19.8383
13.1412
8.82708
6.2245
4.86983
3.90463
3.41623
3.13496
2.99674
2.95225
2.89409
2.90782
3.00287
3.23862
6.00494
12.4676
18.4987
15.03
11.7906
10.4882
12.0061
13.1645
15.248
18.5411
21.6897
25.687
28.1945
28.731
22.5103
15.5814
10.0166
7.75275
6.40482
4.94576
3.55098
2.73935
2.24872
2.1634
1.96498
1.95595
1.87615
1.90608
1.89078
1.97175
2.05315
2.30709
3.46763
5.61536
5.62154
5.0979
5.26033
6.40193
7.51094
11.5752
12.2445
7.56919
8.75886
4.24479
3.95429
2.67338
2.40449
2.06759
1.95637
1.85328
1.81272
1.7376
1.68115
1.57821
1.55754
1.51819
1.71952
1.5441
1.61347
1.471
1.72565
1.68667
1.6234
1.58102
1.6234
1.72183
1.77444
1.77053
1.73241
1.70009
1.64551
1.61198
1.56603
1.53688
1.49925
1.48313
1.46102
1.37289
1.40392
1.29839
1.34166
1.30902
1.49727
1.03787
1
1
1
1
1
1
1
1
1
1
1
1
1
1
1
1
1
1
1
1
1
1
1
1
1
1
1
1
1
1
1
1
1
1
1
1
1
1
1
1
1
1
1
1
1
1
1
12.1406
27.7519
36.3985
34.8104
27.8196
24.6087
28.6186
33.5962
44.547
80.6149
174.619
199.67
198.192
185.912
159.705
135.058
105.779
97.9699
102.133
82.4369
49.1969
33.7152
30.4146
33.6606
38.5144
46.4319
53.4707
58.2855
58.6019
53.9076
42.7521
33.8223
31.0673
36.5891
66.3089
117.197
142.553
109.318
86.1345
89.184
91.137
96.0444
94.1787
103.085
126.046
151.55
139.515
126.014
123.069
127.158
136.208
144.931
153.22
159.238
165.245
169.083
172.027
169.439
165.716
161.013
161.197
165.591
170.753
172.803
175.183
177.719
181.883
185.333
176.673
159.996
153.214
163.956
183.823
206.13
225.569
244.116
257.459
267.503
281.559
296.521
276.566
236.896
199.517
169.006
151.711
145.829
146.838
150.4
157.937
165.862
174.652
181.292
189.355
198.563
208.692
220.598
232.274
241.963
243.09
246.607
231.348
216.079
197.182
190.737
190.975
192.37
188.058
183.885
188.185
195.129
191.052
175.236
157.144
141.729
140.679
141.09
140.74
138.565
145.908
158.758
177.943
198.17
217.655
232.703
236.697
240.089
231.005
216.042
202.059
190.751
183.579
181.024
178.365
177.672
174.324
176.201
180.594
181.858
183.173
185.949
186.29
180.668
173.972
169.384
165.695
169.93
179.87
198.599
217.83
229.911
208.674
176.593
158.997
136.264
132.673
124.526
130.252
130.551
157.516
149.537
133.824
227.009
291.506
258.62
211.216
162.888
65.6748
56.7977
60.662
146.141
204.272
199.279
190.537
227.707
261.825
288.193
297.531
302.511
291.443
322.81
321.098
307.587
301.307
283.216
264.497
245.714
230.573
212.795
203.476
197.532
193.405
191.308
186.982
186.776
182.77
177.002
170.414
159.992
158.519
155.396
154.172
160.326
179.229
220.827
270.814
304.995
184.44
127.782
117.255
111.505
145.717
188.043
207.768
215.666
223.41
233.95
246.05
253.224
246.522
218.502
186.482
168.553
153.661
141.496
132.067
129.588
132.058
144.18
160.529
169.669
175.34
167.62
142.519
109.427
76.6334
54.4747
40.899
35.6967
34.7969
38.2678
39.559
41.7666
43.3598
38.2177
33.9156
33.4177
34.5148
38.9017
43.4145
49.4771
56.5861
58.0743
58.2041