/*--------------------------------*- C++ -*----------------------------------*\
| =========                 |                                                 |
| \\      /  F ield         | OpenFOAM: The Open Source CFD Toolbox           |
|  \\    /   O peration     | Version:  2.1.1                                 |
|   \\  /    A nd           | Web:      www.OpenFOAM.org                      |
|    \\/     M anipulation  |                                                 |
\*---------------------------------------------------------------------------*/
FoamFile
{
    version     2.0;
    format      ascii;
    class       volScalarField;
    location    "0.007350000";
    object      cSound;
}
// * * * * * * * * * * * * * * * * * * * * * * * * * * * * * * * * * * * * * //

dimensions      [0 1 -1 0 0 0 0];

internalField   nonuniform List<scalar> 
12384
(
1136.68
1133.67
1130.86
1128.38
1126.69
1126.47
1127.61
1129.48
1132.44
1135.87
1140.12
1143.39
1145.71
1150.08
1084.82
1088.26
1087.97
1089.48
1092.7
1095.09
1098.95
1103.82
1108.87
1111.94
1113.43
1113.83
1113.56
1112.82
1111.68
1110.16
1108.53
1106.77
1105.58
1104.85
1104.44
1104.6
1104.7
1104.6
1104.75
1104.51
1105.69
1106.12
1094.17
1061.16
1121.16
1125.27
1127.54
1128.08
1127.79
1127.51
1126.75
1126.3
1125.73
1125.32
1124.62
1124.5
1123.95
1123.79
1123.5
1123.33
1122.96
1122.88
1122.48
1122.38
1122.28
1122.65
1122.47
1123.37
1123.51
1124.31
1125.27
1126.05
1123.11
1121.44
1115.46
1119.32
1121.61
1121.22
1120.51
1119.76
1119.28
1119.3
1119.14
1119.62
1119.56
1120.09
1120.33
1120.71
1121.03
1121.3
1121.53
1121.71
1121.79
1121.79
1121.69
1121.55
1121.59
1121.74
1121.91
1122.15
1122.12
1122.07
1122.34
1121.48
1128.64
1127.09
1126.78
1126.81
1127.11
1127.12
1127.19
1126.53
1125.99
1124.59
1123.81
1122.16
1121.23
1119.88
1119.61
1119.05
1119.49
1120.02
1120.84
1121.95
1122.73
1122.91
1119.94
1118.34
1119.26
1120.06
1120.39
1120.25
1119.65
1118.55
1128.53
1126.69
1127.45
1127.83
1129.06
1130.55
1131.97
1132.84
1134.17
1134.59
1134.56
1134.44
1134.16
1133.63
1132.82
1131.85
1130.95
1129.88
1128.9
1128.25
1127.9
1127.52
1127.48
1127.26
1127.42
1127.51
1127.44
1127.83
1128.75
1129.08
1107.78
1112.09
1110.55
1110.68
1111.76
1113.49
1114.78
1115.08
1114.84
1114.28
1113.34
1112.41
1111.38
1109.9
1108.95
1107.5
1107.26
1105.61
1105.33
1106.02
1105.8
1106.59
1106.95
1107.61
1107.8
1093.64
1064.48
1068.65
1073.98
1077.15
1113.55
1126.04
1130.86
1133.84
1136.07
1136.89
1137.03
1136.88
1136.24
1135.3
1135.06
1134.84
1134.25
1133.87
1135.35
1134.7
1136.49
1136.33
1136.65
1136.55
1134.01
1126.24
1124.1
1125.11
1125.66
1126.78
1127.85
1128.87
1129.51
1129.68
1138.35
1139.15
1139.41
1139.42
1139.13
1138.43
1137.23
1136.01
1135
1134.15
1133.3
1133.07
1133.94
1135.01
1136.28
1137.02
1137.1
1139.85
1144.23
1144.54
1144.54
1144.45
1144.71
1145.14
1145.46
1145.74
1146.02
1145.95
1145.87
1146.54
1138.4
1138.27
1138.16
1138.24
1138.32
1138.1
1137.31
1136.42
1135.15
1134.77
1133.13
1133.61
1133.2
1134.45
1135.25
1135.88
1136.83
1140.05
1144.17
1144.62
1143.99
1143.8
1144.16
1144.39
1144.96
1145.44
1145.13
1145.2
1144.9
1145.2
1138.21
1137.35
1138.1
1138.02
1139.12
1138.84
1139.17
1138.56
1139.21
1138.64
1140.03
1140.41
1141.72
1142.29
1147.25
1152.46
1152.61
1151.81
1150.64
1150.13
1149.7
1149.45
1149.35
1149.31
1149.4
1149.33
1149.55
1149.59
1150.32
1151.64
1136.19
1134.4
1144.53
1151.74
1149.98
1148.19
1147.04
1146.52
1145.8
1145.48
1145.21
1144.88
1144.84
1144.36
1144.35
1144.1
1143.44
1143.82
1142.63
1143.38
1141.54
1142.21
1140.47
1140.77
1139.92
1140.18
1140.22
1142.01
1141.78
1137.25
1143.73
1143.41
1143.78
1145.27
1146.97
1145.49
1160.28
1188.07
1190.81
1191.51
1191.9
1192.2
1192
1192.7
1192.33
1192.96
1192.6
1192.82
1192.49
1192.3
1192.01
1191.69
1191.29
1190.48
1189.82
1188.71
1187.49
1183
1173.82
1179.34
1127.05
1121.33
1114.63
1110.79
1110.35
1111.48
1113.93
1116.11
1119.03
1123.43
1130.03
1138.46
1144.73
1149.96
1085.46
1088.3
1088.13
1089.67
1093.04
1099.09
1108.82
1118.03
1123.32
1124.42
1123.34
1121.55
1118.5
1114.36
1109.29
1103.95
1100.13
1098.11
1097.38
1097.31
1097.62
1097.72
1099.07
1100.2
1101.7
1102.98
1104.31
1106.11
1101.91
1079.89
1121.7
1126.18
1128.19
1128.55
1127.89
1126.89
1125.54
1124.72
1123.73
1123.06
1122.33
1121.97
1121.7
1121.82
1121.7
1121.84
1121.4
1121.53
1120.88
1120.65
1120.5
1120.26
1120.74
1121.17
1122.2
1123.27
1124.36
1125.59
1125.18
1123.31
1116.8
1120.34
1121.37
1120.02
1119.05
1118.4
1118.05
1117.84
1117.72
1118.04
1117.79
1117.94
1118.22
1118.76
1119.45
1120.2
1120.76
1121.02
1120.94
1120.61
1120.2
1119.93
1119.63
1119.78
1120.37
1121.18
1121.3
1121.81
1122.22
1122.06
1128.63
1126.7
1126.38
1126.68
1127.31
1127.75
1126.98
1125.71
1123.76
1122.1
1119.94
1117.5
1116.56
1114.91
1114.45
1114.36
1114.88
1115.91
1117.57
1119.71
1120.91
1122.27
1121.55
1119.31
1119.75
1121.22
1121.26
1120.87
1121.17
1121.9
1128.25
1126.71
1127.76
1129.81
1133.85
1138.43
1141.75
1143.46
1143.15
1142.02
1140.44
1138.98
1137.9
1136.77
1134.93
1133.05
1131.35
1129.8
1128.91
1128.35
1127.84
1127.47
1127.6
1127.87
1127.59
1127.49
1127.65
1127.73
1128.35
1128.99
1108.28
1112.12
1112.35
1116.34
1121.14
1123.94
1124.28
1122.79
1121
1118.64
1116
1113.33
1111.33
1109.29
1108.83
1107.04
1106.41
1106.09
1105.77
1105.69
1105.63
1106.17
1106.65
1106.89
1107.55
1102.68
1083.51
1067.97
1078
1084.22
1112.39
1127.28
1133.48
1137.37
1138.67
1138.1
1137.31
1136.1
1134.83
1134.64
1134
1132.94
1133.23
1133.36
1133.81
1134.51
1135.73
1136.03
1136.78
1136.81
1136.66
1132.46
1125.86
1122.68
1123.33
1124.71
1127.16
1129.57
1131.36
1131.81
1138.17
1139.07
1139.31
1138.86
1137.81
1136.15
1134.44
1132.85
1131.95
1130.1
1130.11
1130.22
1130.63
1131.41
1133.09
1134.97
1136.05
1137.6
1140.98
1143.84
1143.74
1143.55
1143.6
1144
1144.72
1145.17
1145.81
1146.61
1146.7
1146.52
1137.46
1137.39
1138.57
1139.33
1139.22
1138.03
1136.43
1134.42
1132.55
1130.54
1129.83
1129.4
1129.45
1130.48
1131.21
1132.71
1134.27
1137.39
1142.44
1144.59
1143.12
1142.46
1142.83
1144.12
1145.43
1147.41
1147.88
1147.53
1146.42
1146
1138.01
1138.12
1138.53
1139.22
1139.02
1138.62
1137.13
1136.37
1135.28
1135.68
1135.85
1136.9
1138.72
1140.24
1143.17
1147.71
1151.77
1151.53
1149.77
1148.68
1148.45
1148.3
1148.57
1148.59
1149.11
1149.13
1149.39
1149.35
1150.12
1151.68
1138.35
1143.52
1150.46
1150.92
1148.96
1148.05
1147.46
1147.24
1147.15
1146.8
1146.56
1145.97
1145.61
1145.23
1145.42
1145.49
1145.32
1145.96
1145.33
1145.16
1143.45
1143.04
1141.3
1140.66
1140.1
1139.24
1139.49
1140.78
1141.76
1138.3
1145.27
1141.68
1140.04
1145.35
1146.54
1154.68
1178.9
1191.2
1192.44
1193.57
1194.37
1194.77
1195.15
1194.86
1195.33
1194.77
1194.62
1194.1
1193.19
1192.39
1192.04
1192.12
1191.95
1191.81
1191.12
1190.28
1188.35
1182.18
1172.98
1179.11
1117.5
1107.49
1102.81
1104.58
1110.21
1115.85
1121.34
1123.95
1124.19
1123.11
1124.12
1130.57
1141.42
1149.71
1085.88
1088.29
1088.05
1089.19
1092.9
1102.49
1115.99
1125.64
1128.11
1126.94
1124.94
1122.25
1117.86
1110.18
1101.27
1096.01
1094.09
1094.47
1095.55
1096.45
1096.94
1097.06
1096.77
1097.54
1098.77
1100.3
1102.19
1104.84
1105.18
1090.2
1121.94
1126.84
1128.93
1129.36
1128.5
1127.3
1126.29
1125.5
1124.46
1123.74
1121.65
1120.52
1119.91
1120.45
1120.85
1121.34
1121.09
1121.3
1120.93
1120.64
1120.12
1119.85
1119.79
1119.65
1120.36
1121.29
1123.09
1124.54
1125.35
1124.19
1117.36
1120.69
1120.51
1119.25
1118.7
1119.03
1119.83
1120.7
1120.01
1119.63
1118.6
1117.84
1118.18
1118.92
1119.99
1120.91
1121.15
1120.74
1119.91
1118.98
1118.16
1117.57
1117.41
1117.64
1118.1
1118.87
1120.08
1120.88
1121.67
1122.26
1128.63
1126.43
1126
1126.75
1128.27
1127.78
1126.18
1123.54
1121.11
1118.28
1116.12
1113.57
1113.23
1111.04
1110.63
1110.13
1110.19
1111.11
1112.86
1115.29
1118.25
1120.31
1121.62
1120.73
1119.47
1119.53
1118.18
1116.17
1117.06
1119.39
1127.92
1126.56
1128.24
1132.44
1139.29
1145.7
1148.99
1148.68
1145.81
1141.39
1138.02
1135.63
1134.94
1134.24
1132.77
1131.07
1129.7
1129.24
1129.2
1129.21
1129.41
1129.41
1129.07
1128.99
1129.08
1128.34
1127.73
1127.7
1128.03
1128.76
1108.39
1112.83
1116.22
1123.7
1129.54
1130.08
1127.37
1124.16
1122.08
1118.41
1114.24
1111.08
1109.7
1108.35
1108.05
1106.93
1107.54
1106.94
1106.73
1106.95
1106.71
1106.87
1106.31
1106.82
1106.87
1106.23
1096.4
1077.91
1073.45
1084.29
1112.43
1127.09
1137.29
1138.96
1137.49
1135.93
1134.81
1133.97
1134.3
1134.38
1133.53
1133.99
1134.08
1134.07
1134.68
1134.53
1135.49
1135.58
1136.57
1136.84
1137.12
1135.71
1130.37
1123.68
1121.64
1122.77
1126.17
1129.42
1132.33
1133.03
1138.36
1139.4
1139.27
1138.06
1135.95
1133.85
1131.95
1129.78
1127.51
1126.32
1125.17
1124.71
1125.74
1127.42
1129.68
1131.66
1133.51
1135.08
1137.7
1141.18
1143.42
1143.13
1142.96
1143.31
1143.71
1143.79
1144.52
1146.1
1146.99
1146.61
1136.72
1138.51
1140.26
1140.5
1139.45
1137.05
1134.27
1131.27
1128.98
1125.69
1123.82
1123.17
1123.35
1124.69
1126.41
1128.66
1131.53
1134.14
1139.25
1143.75
1143.14
1141.72
1141.37
1142.88
1144.17
1147.41
1149.3
1151.18
1148.82
1146.96
1137.91
1138.05
1139.4
1138.99
1138.35
1135.9
1134.43
1132.19
1131.83
1130.68
1131.94
1132.87
1134.38
1137.11
1139.3
1143.26
1148.85
1151.55
1149.72
1148.57
1148.26
1148.29
1148.56
1149.09
1149.75
1150.28
1150.15
1149.58
1150.11
1151.79
1141.93
1148.82
1151.78
1150.55
1149.54
1150.21
1151.12
1151.65
1151.81
1151.55
1150.58
1149.29
1147.84
1146.78
1145.99
1146.19
1146.4
1147.12
1145.99
1144.86
1141.99
1141.05
1139.07
1139.56
1138.58
1138.74
1138.36
1139.75
1141.3
1138.59
1151.62
1142
1137.52
1145.79
1152.38
1171.91
1188.9
1193.11
1194.26
1195.22
1195.37
1195.07
1194.65
1194.94
1195.05
1195.64
1195.26
1195.31
1193.66
1191.73
1190.03
1189.48
1188.53
1187.59
1187.56
1186.81
1182.88
1175.61
1170.78
1180.72
1103.53
1098.62
1102.88
1112.77
1121.67
1126.95
1130.8
1134.29
1136.24
1133.02
1127.81
1128.18
1137.74
1149.02
1086.18
1088.23
1087.63
1088.11
1091.58
1102.89
1117.87
1127.7
1130.1
1129.74
1127.5
1123.62
1117.49
1106.07
1096.04
1093.25
1094.82
1097.93
1100.49
1102.31
1103.11
1102.93
1101.89
1100.14
1098.75
1099.21
1100.45
1103.14
1105.73
1094.98
1121.96
1127.07
1129.78
1130.61
1130.4
1129.21
1128.59
1127.45
1126.33
1124.07
1121.84
1119.57
1118.72
1119.63
1120.6
1121.45
1121.48
1121.49
1121.27
1120.1
1119.72
1119.16
1118.96
1118.98
1119.26
1119.72
1121.19
1123.55
1125.04
1124.92
1117.53
1120.45
1119.96
1119.07
1119.59
1121.49
1123.12
1123.82
1123.19
1121.06
1119.32
1118.02
1118.51
1120
1121.29
1121.61
1120.9
1119.45
1117.83
1116.44
1115.31
1114.54
1114.16
1114.6
1115.34
1116.89
1118.39
1119.51
1120.97
1122.23
1128.67
1126.25
1125.72
1127.92
1128.91
1127.46
1124.47
1121.51
1118.31
1116.03
1113.66
1111.8
1110.53
1108.61
1107.99
1107.49
1107.48
1108.12
1109.34
1111.42
1114.5
1118.01
1120.34
1121.15
1120.63
1119.45
1117.35
1113.02
1113.7
1117.06
1127.74
1126.34
1128.3
1133.77
1142.18
1148.69
1150.34
1149.47
1143.92
1137.95
1133.77
1131.74
1131.84
1131.39
1130.25
1129.37
1129.4
1130.2
1131.32
1132.49
1133.52
1133.63
1133.22
1131.77
1130.8
1130.05
1128.62
1127.66
1127.86
1128.48
1108.43
1114.13
1120.21
1129.5
1134.03
1131.89
1126.44
1122.54
1121.04
1116.49
1111.81
1109.6
1109.14
1108.44
1108.85
1109.38
1109.87
1109.38
1109.76
1109.11
1108.75
1108.49
1107.43
1106.7
1106.72
1107.09
1102.36
1088.54
1075.25
1082.75
1115.7
1131.59
1139.08
1136.88
1134.64
1134.01
1133.98
1134.77
1135.83
1135.38
1136.19
1136.88
1136.76
1136.77
1136.5
1136.26
1136.56
1136.12
1136.73
1136.72
1137.32
1136.86
1133.74
1126.87
1121.68
1121.54
1125.2
1129.76
1133.08
1133.9
1139.51
1139.88
1138.67
1136.26
1133.84
1131.39
1128.62
1125.78
1123.45
1122.31
1121.32
1121.22
1121.5
1122.79
1125.31
1128.2
1131.43
1132.81
1134.54
1138.23
1141.63
1142.7
1142.97
1142.97
1143.02
1142.56
1142.71
1144.51
1146.98
1146.88
1137.45
1139.79
1141.39
1140.87
1138.72
1135.18
1131.39
1127.88
1123.8
1120.92
1119.02
1117.64
1117.96
1119.1
1121.29
1123.96
1127.18
1131.52
1136.04
1142.2
1143.43
1141.95
1141.46
1141.7
1143.22
1147.35
1150.17
1152.45
1150.86
1148.47
1138.43
1139.06
1139.56
1138.34
1135.31
1132.5
1129.32
1128.09
1125.35
1125.08
1125.06
1128.04
1130.41
1133.8
1136.51
1139.95
1146.1
1151.08
1150.01
1148.54
1148.25
1148.12
1148.28
1148.66
1149.55
1150.44
1151.05
1150.53
1150.76
1151.89
1144.29
1151.1
1152.1
1151.37
1152.41
1154.26
1155.99
1157
1157.55
1156.91
1155.91
1153.59
1151.39
1148.5
1146.27
1145.51
1146.04
1146.36
1145.47
1143.11
1139.35
1137.99
1135.78
1136.13
1136.15
1137.22
1137.53
1138.8
1140.81
1138.38
1157.4
1142.32
1136.16
1148.52
1163.3
1184
1192.88
1194.34
1195.07
1194.87
1194
1193.31
1193.01
1192.88
1193.08
1194.45
1195.12
1196.08
1195.24
1192.78
1188.78
1185.08
1182.09
1177.06
1173.86
1172.79
1172.19
1170.62
1171.74
1185.68
1094.15
1099
1112.07
1121.91
1125.49
1126.21
1127.42
1130.58
1136.23
1139.42
1134.99
1129.65
1135.76
1148.43
1086.28
1088.15
1086.95
1086.24
1088.6
1099.44
1115.28
1127.04
1130.76
1131.4
1129.85
1124.83
1116.33
1101.67
1093.01
1094.15
1098.87
1103.1
1106.07
1107.78
1108.48
1108.3
1107.25
1105.01
1101.8
1099.23
1099.61
1101.76
1105.48
1097.3
1121.7
1126.87
1130.2
1131.82
1131.64
1131.97
1130.23
1128.14
1125.08
1123.49
1121.84
1119.17
1118.11
1119.82
1121.11
1121.97
1121.63
1121.54
1119.73
1118.79
1117.89
1117.87
1117.8
1117.87
1118.3
1118.74
1119.86
1122.19
1124.57
1124.96
1117.25
1120.25
1119.63
1119.18
1120.6
1123.08
1124.72
1124.75
1124.27
1121.44
1119.17
1117.94
1118.84
1120.8
1122
1121.4
1119.36
1117.32
1115.48
1113.71
1112.22
1111.29
1110.6
1111.6
1112.63
1114.67
1116.36
1118.18
1120.19
1121.98
1128.7
1126.18
1126.14
1129.47
1128.59
1126.11
1123.27
1119.4
1116.78
1114.4
1111.97
1109.92
1107.97
1105.88
1105.69
1105.19
1105.5
1105.87
1107.12
1108.44
1111.63
1115.02
1119.2
1120.64
1120.58
1119.81
1117.5
1112.29
1113.61
1116.92
1127.6
1126.17
1127.84
1132.77
1141.11
1147.72
1149.53
1146.3
1140.16
1134.72
1131.45
1129.71
1130.34
1129.84
1128.81
1129.12
1130.8
1132.88
1135.21
1137.02
1137.69
1137.91
1137.6
1136.23
1133.49
1131.57
1130.01
1128.13
1127.52
1128.27
1108.42
1115.41
1123.2
1133.15
1136.3
1132.28
1125.03
1121.19
1119.89
1113.99
1110.2
1109.3
1108.83
1109.52
1111.14
1111.23
1111.91
1112.36
1112.39
1112.5
1111.09
1110.51
1109.23
1107.48
1106.9
1106.87
1104.77
1093.84
1079.37
1083.13
1123.61
1138.79
1137.5
1134.28
1133.19
1133.88
1134.89
1136.28
1136.8
1137.38
1138.67
1137.84
1138.13
1138.47
1139.04
1138.44
1137.95
1137.56
1137.33
1136.81
1137.37
1137.09
1135.52
1130.08
1123.39
1121.6
1124.67
1130.43
1134.31
1134.71
1140.42
1139.64
1137.18
1134.63
1132.18
1128.85
1125.7
1122.13
1120.37
1118.27
1116.77
1117
1118.09
1119.83
1121.59
1124.35
1128.08
1131.49
1132.93
1135.72
1139.28
1141.43
1141.94
1142.13
1141.73
1141.19
1141.06
1142.9
1146.09
1147.24
1139.21
1141.29
1142.28
1140.97
1137.27
1133.03
1128.75
1124.17
1119.85
1117.18
1114.94
1114.26
1113.79
1114.86
1116.77
1119.63
1123.43
1127.83
1133.45
1139.77
1142.95
1142.56
1141.71
1140.86
1143.42
1148.99
1151.63
1153.25
1152.79
1149.55
1138.88
1139.71
1138.56
1135.62
1132.16
1127.72
1124.13
1120.16
1118.99
1117.83
1119.33
1122.13
1125.41
1129.8
1134.1
1137.93
1144.34
1150.88
1150.08
1148.69
1148.11
1147.73
1147.4
1147.44
1148.09
1149.1
1150.76
1151.77
1151.71
1152.67
1145.53
1152.15
1152.76
1153.25
1155.94
1158.53
1160.64
1162.3
1162.67
1162.51
1161.02
1159.12
1155.69
1151.93
1148.08
1145.54
1144.72
1145.88
1144.85
1142.1
1137.96
1137.02
1133.53
1133.99
1133.9
1135.82
1136.45
1138.54
1140.51
1138.08
1162.44
1144.56
1134.98
1152.19
1172.24
1189.79
1194.3
1194.93
1194.74
1193.28
1191.5
1189.96
1189.18
1189.43
1190.34
1191.48
1193.18
1195.16
1196.3
1195.34
1189.94
1182.73
1177.92
1170.41
1169.04
1170.22
1172.7
1174.11
1181.11
1192.6
1094.21
1107.21
1119.62
1122.88
1122.4
1121.44
1120.96
1122.3
1128.8
1137.57
1138.2
1131.73
1135.24
1148.06
1086.27
1088.04
1086.18
1084.23
1084.36
1092.18
1107.08
1120.57
1128.07
1130.86
1130.61
1125.16
1114.45
1097.78
1092.6
1097.02
1103.2
1107.08
1108.83
1109.83
1110.75
1111.56
1110.99
1109.15
1105.5
1101.53
1099.47
1100.99
1104.86
1098.4
1121.04
1126.3
1129.98
1132.15
1132.13
1132.37
1129.92
1126.59
1123.08
1122.25
1121.36
1118.09
1118.26
1120.72
1121.79
1122.43
1121.77
1119.93
1117.81
1116.81
1116.32
1115.88
1116.42
1116.68
1117.28
1117.93
1118.9
1120.96
1124.11
1124.92
1116.81
1120.02
1119.68
1119.44
1120.62
1122.84
1124.03
1123.22
1123.35
1121.49
1118.75
1117.65
1119.48
1121.68
1122.13
1120.25
1117.71
1115.39
1113.18
1111.11
1108.68
1107.52
1107.24
1107.91
1109.41
1112.54
1114.6
1117.13
1119.38
1121.73
1128.6
1126.29
1126.86
1129.37
1127.19
1125.55
1121.63
1118.14
1115.67
1113.02
1110.28
1107.84
1105.08
1103.86
1103.08
1103.26
1103.14
1104.09
1105.08
1106.54
1109.34
1112.78
1117.27
1119.79
1120.67
1120.41
1118.33
1112.09
1115.37
1118.12
1127.72
1126.04
1127.13
1129.86
1135.94
1141.71
1143.53
1140.42
1134.98
1131.53
1129.73
1129.08
1129.67
1128.76
1128.63
1130.19
1133.06
1136.31
1139.33
1141.34
1142.58
1142.39
1141.09
1139.46
1136.65
1133.33
1130.91
1128.79
1127.39
1127.94
1108.33
1116.61
1125.38
1135.07
1137.6
1132.87
1123.5
1120.33
1118.7
1112.29
1109.55
1108.92
1108.79
1111.16
1111.9
1112.92
1114.84
1115.4
1115.28
1115.19
1113.88
1112
1110.71
1108.64
1106.68
1106.84
1105.93
1096.89
1083.54
1085.05
1131.31
1140.63
1134.76
1132.82
1133.17
1134.29
1135.65
1137.14
1137.37
1138.94
1139.63
1139.25
1140.14
1140.47
1139.89
1140.08
1140.15
1138.23
1138.86
1137.05
1137.37
1137.24
1136.51
1132.02
1125.38
1122.59
1125.61
1131.77
1135.61
1135.6
1140.98
1138.89
1136.01
1133.46
1130.76
1126.81
1123.49
1118.93
1116.44
1113.24
1111.97
1111.51
1113.06
1114.86
1118.7
1121.35
1125.58
1129.21
1131.33
1133.68
1137.29
1139.45
1140.61
1140.82
1140.7
1140.13
1140.04
1141.94
1145.66
1147.27
1140.16
1142.61
1142.86
1140.7
1135.87
1131.01
1125.98
1121.1
1116.99
1114.05
1110.44
1108.79
1108.89
1110.12
1112.81
1116.2
1120.55
1125.25
1131.33
1137.24
1142.28
1142.69
1141.66
1140.51
1145.13
1151.39
1153.49
1154.31
1153.24
1149.56
1139.82
1139.07
1136.28
1132.17
1127.79
1123.33
1117.75
1112.19
1107.74
1107.34
1109.56
1113.8
1122.08
1125.77
1132.03
1136.63
1143.89
1150.69
1149.99
1148.75
1148.22
1147.65
1147.34
1146.9
1146.75
1147.09
1148.54
1150.86
1152.66
1153.17
1145.75
1152.75
1153.85
1155.33
1158.93
1162.05
1164.54
1165.53
1166.17
1165.73
1165.22
1162.83
1159.83
1155.59
1150.91
1146.41
1144.3
1144.81
1144.74
1141.88
1137.94
1137.04
1133.82
1133.06
1133.49
1134.98
1136.32
1138.56
1140.17
1137.1
1167.22
1150.07
1134.13
1154.41
1177.29
1192.13
1194.93
1194.76
1193.54
1191.07
1188.44
1187.14
1186.14
1185.79
1186.88
1188.96
1190.65
1193.46
1195.75
1196.68
1193.47
1183.68
1176.08
1169.4
1169.86
1180.04
1185.94
1189.06
1194.2
1195.29
1099.63
1114.8
1120.95
1122.1
1122.67
1122.85
1121.58
1121.09
1125.01
1134.73
1139.13
1133.21
1135.68
1148.38
1086.25
1088.12
1085.42
1082.77
1080.56
1083.72
1094.56
1108.86
1119.4
1126.65
1129.81
1124.35
1112.02
1094.72
1093.42
1100.52
1106.56
1108.77
1109.46
1111
1112.87
1113.8
1114.01
1112.33
1108.29
1103.3
1100.02
1100.68
1104.62
1098.75
1120.09
1124.67
1128.49
1131.06
1131.78
1130.64
1127.39
1123.68
1121.66
1121.9
1120.48
1117.09
1118.91
1121.86
1122.34
1122.87
1120.14
1118.22
1115.57
1115.28
1114.55
1114.83
1115.08
1115.79
1116.38
1117.12
1118.22
1120.18
1123.76
1124.81
1116.47
1119.83
1119.81
1119.32
1120.21
1121.66
1122.37
1121.67
1121.9
1120.75
1118.09
1117.69
1120.21
1122.42
1121.9
1118.62
1116.33
1113.9
1111.47
1108.03
1105.59
1103.98
1103.61
1104.85
1106.71
1110.08
1113.42
1116.21
1118.84
1121.63
1128.66
1125.98
1127.48
1128.78
1126.44
1124.15
1120.64
1117.13
1114.92
1111.87
1108.77
1105.89
1103.08
1102.43
1102.5
1101.73
1101.84
1102.77
1103.62
1105.06
1107.75
1111.59
1115.78
1119.26
1120.6
1120.41
1118
1112.25
1117.91
1119.97
1127.69
1125.79
1126.77
1127.95
1130.59
1133.78
1134.61
1132.48
1130.64
1129.58
1128.66
1128.49
1129.4
1127.88
1128.79
1131.84
1135.62
1139.54
1143.2
1146.28
1147.57
1147.12
1144.85
1141.88
1138.72
1134.86
1131.57
1128.91
1127.43
1127.45
1108.15
1117.51
1126.68
1136
1138.3
1133.39
1121.98
1119.95
1117.89
1111.34
1109.05
1108.56
1109.25
1111.95
1111.88
1114.97
1116.8
1117.51
1117.53
1117.31
1115.74
1113.45
1111.55
1109.37
1106.88
1106.81
1105.82
1098.17
1087.2
1087.72
1136.02
1138.14
1133.11
1132.8
1133.17
1134.19
1136.38
1136.96
1137.75
1140.36
1139.6
1141.04
1141.6
1141.62
1141.62
1140.57
1141.47
1139.31
1139.43
1138.03
1137.93
1137.09
1137.03
1133.37
1126.92
1124.36
1127.59
1134.03
1137.19
1136.29
1140.48
1138.17
1135.42
1132.9
1129.73
1125.77
1121.45
1116.75
1113.96
1110.31
1109.57
1109.92
1110.28
1113.19
1116.21
1119.62
1123.24
1127.68
1130.66
1132.93
1136.2
1138.33
1139.2
1139.76
1140.15
1140.17
1140
1141.68
1145.78
1147.31
1141.67
1144.24
1144.2
1140.31
1134.66
1129.91
1124.23
1119.14
1114.89
1111.49
1108.51
1108.28
1108.07
1108.94
1111
1113.82
1118.52
1123.33
1130.01
1135.83
1140.8
1142.06
1141.43
1141.39
1148.4
1153.51
1155.64
1155.21
1152.43
1150.49
1138.91
1137.3
1133.73
1129.33
1123.75
1117.48
1110.64
1102.84
1100.4
1098.61
1102.88
1106.68
1117.72
1123.32
1130.1
1135.87
1144.05
1150.79
1150.15
1148.96
1148.7
1148.55
1148.35
1147.95
1147.36
1146.83
1146.57
1147.86
1150.96
1152.66
1145.28
1152.52
1154.63
1156.84
1160.98
1164.49
1166.36
1167.45
1167.57
1167.57
1166.65
1165.33
1162.48
1158.86
1153.43
1148.29
1144.41
1143.91
1144.54
1142.54
1138.36
1138.01
1135.58
1135.26
1134.34
1135.97
1137.16
1139.33
1139.77
1136.22
1172
1159.72
1134.16
1152.92
1178.3
1192.72
1195.14
1194.51
1192.38
1189.11
1186.14
1183.93
1181.95
1181.85
1183.06
1186.25
1189.02
1192.35
1194
1196.56
1196.98
1187.04
1174.38
1169.98
1167.2
1185.49
1195.99
1197.49
1195.32
1191.05
1105.39
1118.35
1121.86
1127.37
1133.89
1135.97
1133.6
1129.85
1129.23
1135.84
1139.1
1133.74
1136.57
1148.59
1085.4
1088.65
1085.29
1082.07
1078.25
1076.98
1082.18
1093.64
1107.01
1120.29
1127.64
1122.91
1109.9
1093.48
1094.57
1103.68
1108.05
1108.74
1109.31
1112.66
1116.05
1117.84
1116.9
1114.88
1110.11
1104.57
1100.23
1100.82
1105.27
1098.36
1119.15
1123.04
1125.96
1127.96
1128.31
1126.63
1123.85
1121.35
1120.99
1121.2
1119.28
1116.09
1120.68
1122.66
1122.95
1122.51
1118.42
1116.58
1114.4
1114.29
1113.55
1113.79
1114.38
1115.24
1115.82
1116.52
1117.67
1119.93
1123.67
1124.67
1115.82
1119.19
1119.96
1119.57
1119.7
1120.46
1120.79
1120.97
1121.38
1119.62
1117.51
1118.22
1121.37
1122.78
1121.25
1117.58
1115.44
1112.82
1109.28
1105.64
1102.44
1101.31
1101.04
1102.84
1104.83
1108.66
1112.73
1115.7
1118.71
1121.67
1128.3
1127
1128.67
1126.44
1125.23
1123.65
1119.74
1116.81
1114.12
1111.16
1107.46
1104.68
1102.59
1102.21
1101.95
1102.27
1101.7
1102.84
1102.31
1104.8
1106.74
1111.1
1115.2
1119.05
1120.46
1120.73
1117.04
1114.89
1121.21
1122.78
1128.57
1125.89
1126.38
1126.76
1127.62
1128.28
1128.6
1128.46
1128.51
1128.51
1128.19
1128.39
1129.11
1127.5
1129.91
1133.38
1137.51
1141.83
1146.19
1148.08
1148.58
1148.23
1146
1143.23
1139.47
1135.52
1131.85
1128.86
1127.43
1127.49
1107.86
1117.95
1126.92
1136
1138.31
1132.88
1120.85
1119.97
1117.54
1110.98
1108.7
1108.22
1109.26
1111.73
1112.17
1115.91
1117.48
1118.96
1119.1
1118.33
1116.3
1114.21
1111.82
1109.13
1106.97
1106.77
1105.81
1098.5
1088.71
1090.03
1137.88
1136.63
1133.2
1132.52
1132.95
1134.08
1136.13
1136.41
1138.73
1140.06
1139.74
1141.31
1141.55
1141.36
1142.42
1141.15
1142.03
1140.31
1140.06
1138.26
1138.38
1137.19
1137.12
1133.93
1128.27
1125.65
1130.44
1136.73
1138.08
1137.1
1139.5
1137.79
1135.37
1132.64
1129.51
1125.28
1120.9
1115.63
1112.91
1108.86
1108.07
1107.72
1109.34
1111.02
1115.01
1118.87
1122.72
1126.16
1130.03
1132.16
1134.81
1137.02
1139.07
1139.57
1141.6
1141.94
1140.73
1142.31
1146.48
1147.6
1142.79
1147.66
1145.64
1139.68
1133.83
1129.01
1123.33
1118.22
1114.45
1110.44
1107.45
1106.91
1106.43
1107.2
1110.12
1112.74
1117.2
1122.26
1129.16
1134.84
1139.62
1141.78
1140.13
1143.67
1151.14
1154.74
1155.29
1152.51
1150.28
1149.38
1137.63
1135.54
1132.17
1127.7
1120.34
1112.58
1105.3
1099.02
1096.2
1094.93
1099.29
1102.8
1115.25
1122.2
1129.78
1135.78
1144.89
1150.86
1150.03
1149.46
1149.39
1149.63
1149.98
1149.5
1149.01
1148.05
1147.32
1147.02
1147.62
1150.25
1144.68
1151.29
1155.04
1157.33
1161.95
1165.3
1167.2
1168.56
1168.32
1167.99
1167.56
1165.98
1164.2
1160.23
1155.61
1149.8
1145.42
1142.96
1144.21
1143.33
1139.2
1138.69
1137.54
1137.67
1136.83
1137.84
1138.59
1139.75
1138.62
1135.47
1173.63
1172.73
1138.61
1147.63
1176.05
1192.46
1195.08
1194.33
1191.7
1187.95
1184.78
1181.83
1179.16
1179.38
1180.18
1183.87
1188.33
1191.02
1193.56
1195.89
1198.09
1191.78
1173.25
1169.61
1158.53
1173.97
1191.51
1191.47
1181.46
1162.79
1109.97
1119.81
1126.81
1138.78
1145.79
1144.89
1142.05
1138.71
1135.9
1138.21
1137.79
1134.55
1141.06
1145.26
1123.19
1098.3
1085.59
1089.2
1085.37
1081.57
1077.43
1074.62
1075.76
1082.61
1096.01
1114.08
1124.51
1120.95
1107.91
1092.82
1095.78
1105.33
1108.4
1108.53
1109.63
1114.46
1118.45
1119.99
1118.78
1115.76
1110.19
1104.39
1099.97
1101.49
1105.6
1098.19
1094.9
1104.51
1117.34
1121.46
1123.19
1124.15
1124.08
1122.33
1120.83
1120.51
1120.53
1120.3
1117.39
1116.3
1122.11
1123.36
1123.22
1121.73
1117.04
1115.91
1113.65
1113.77
1113.15
1113.47
1114.24
1114.87
1115.65
1116.15
1117.47
1120.06
1123.77
1124.3
1121.48
1118.01
1115.48
1118.36
1120
1120.11
1119.98
1120.2
1120.44
1120.92
1120.33
1118.35
1117.36
1119.14
1122.55
1123.22
1120.24
1117.14
1114.96
1112.29
1107.46
1104.22
1101.28
1100.57
1100.11
1102.12
1104.29
1108.32
1112.58
1115.67
1118.9
1122.5
1126.23
1126.42
1127.92
1126.76
1126.51
1124.38
1124.2
1122.46
1119.66
1116.14
1114.09
1110.57
1107.25
1103.77
1102.97
1101.76
1101.66
1101.62
1101.48
1102.56
1102.27
1105.04
1106.74
1111.4
1115.55
1119.14
1120.37
1119.42
1116.91
1121.02
1124.59
1127
1129.54
1130.33
1128.19
1125.43
1125.71
1126.47
1126.8
1127.14
1127.35
1127.62
1127.97
1127.91
1127.97
1128.76
1128.78
1127.73
1131.02
1134.32
1138.33
1142.38
1146.33
1148.03
1148.51
1147.42
1145.29
1142.59
1138.86
1134.97
1131.46
1128.4
1127.1
1127.42
1121.36
1109.96
1107.74
1118.04
1126.81
1135.2
1137.84
1131.02
1120.05
1120.24
1117.87
1111.18
1108.19
1108.24
1108.82
1110.88
1111.56
1115.31
1116.73
1118.44
1118.48
1117.08
1115.55
1113.93
1111.17
1108.34
1106.78
1106.89
1105.33
1097.53
1090.02
1107.46
1141.79
1141.92
1139.1
1136.45
1134.09
1132.04
1132.24
1134.16
1135.12
1135.86
1138.57
1139.19
1139.65
1141.11
1141.47
1141.48
1142.43
1141.26
1141.92
1140.75
1140.24
1138.68
1138.5
1137.27
1137.02
1133.86
1128.67
1129.26
1135.91
1138.89
1138.71
1138.66
1140.07
1140.73
1139.76
1138.81
1135.68
1133.15
1130.08
1125.84
1121.62
1116.47
1113.44
1109.84
1107.98
1108.6
1109.49
1111.67
1114.65
1119.18
1122.72
1126.15
1129.54
1132.19
1134.46
1138.41
1138.68
1140.34
1143.85
1143.44
1142.56
1144.87
1147.66
1144.47
1140.7
1141.61
1146.9
1151.27
1146.52
1138.99
1133.4
1129.26
1123.4
1119.16
1114.23
1111.06
1107.91
1107.48
1107.16
1107.76
1109.21
1113.58
1116.98
1122.51
1129
1134.6
1138.9
1140.85
1139.96
1147.43
1152.05
1153.1
1150.79
1148.69
1148.06
1146.01
1144.35
1142.8
1138.29
1135.77
1131.42
1126.05
1118.89
1111.13
1104.27
1097.52
1095.36
1094.82
1099.62
1103.3
1115.74
1122.73
1130.24
1137.34
1146.98
1150.75
1150.03
1150.05
1150.53
1150.63
1151.44
1151.28
1150.48
1149.63
1148.51
1147.71
1147.77
1147.72
1147.18
1147.88
1147.14
1148.76
1153.06
1156.97
1161.46
1165.28
1167.51
1168.3
1167.68
1167.94
1167.32
1166.8
1164.4
1161.18
1156.39
1150.93
1146.24
1143.01
1142.87
1144.26
1140.36
1139.08
1138.01
1138.89
1138.1
1139.05
1138.63
1138.63
1136.96
1134.96
1140.5
1154.23
1171.31
1183.44
1167.47
1147.72
1166.38
1189.3
1194.97
1194.47
1191.86
1188.18
1184.67
1181.68
1178.84
1178.67
1180.12
1183.75
1187.42
1191.13
1194.3
1195.18
1197.77
1196.24
1173.92
1164.22
1152.31
1154.37
1168.37
1166.14
1150.15
1138.97
1219.62
1246.27
1111.14
1121.97
1134.67
1148.12
1149.29
1145.2
1142
1140.28
1138.73
1138.05
1135.67
1135.84
1143.64
1144.17
1124.16
1098.08
1086.41
1089.41
1086.63
1082.46
1077.98
1074.73
1074.59
1078.33
1090.75
1109.94
1121.92
1118.92
1106.81
1092.83
1096.37
1105.97
1108.55
1108.05
1109.18
1113.93
1117.59
1119.03
1118.13
1114.1
1108.77
1102.58
1100.5
1102.61
1105.87
1097.55
1097.25
1109.33
1116.47
1119.68
1121.05
1121.25
1120.75
1120.12
1119.69
1118.96
1118.28
1117.99
1114.87
1117.39
1123.13
1123.79
1123.67
1121.05
1117.07
1115.6
1113.82
1113.57
1113.45
1113.65
1114.38
1114.75
1115.54
1116.14
1117.79
1121.11
1124.03
1124.36
1121.31
1117.34
1114.96
1117.55
1119.46
1120.25
1120.31
1120.31
1120.67
1120.44
1119.44
1117.57
1117.36
1120.65
1123.78
1122.92
1119.76
1116.92
1114.92
1112.25
1107.3
1104.21
1101.59
1100.81
1100.69
1102.75
1104.89
1108.82
1113.07
1116.2
1120.38
1125.24
1126.85
1127.17
1127.06
1126.09
1124.8
1123.52
1123.19
1122.65
1119.08
1116.41
1114.07
1111.4
1107.13
1104.61
1103.08
1101.94
1101.58
1102.13
1101.94
1102.74
1102.8
1105.66
1108.02
1112.58
1116.85
1119.5
1120.43
1118.09
1118.63
1122.58
1125.19
1127.27
1129.42
1129.87
1128.47
1125.86
1125.53
1125.82
1126.25
1126.58
1126.91
1127.16
1127.4
1127.49
1128.04
1128.97
1128.33
1128.2
1131.31
1134.39
1137.6
1141.1
1144.04
1146.24
1146.34
1145.25
1143.37
1140.25
1136.64
1133.29
1130.18
1128.08
1127.51
1127.8
1116.99
1107.43
1107.72
1118.47
1126.76
1134.08
1136.64
1128.5
1119.62
1120.49
1118.91
1111.77
1108.25
1107.67
1108.29
1109.77
1110.39
1112.91
1113.96
1115.25
1115.59
1115.68
1114.48
1112.33
1109.53
1107.52
1107.19
1106.87
1103.77
1096.81
1096.78
1124.98
1146.01
1144.62
1142.12
1139.97
1135.98
1131.97
1131.98
1133.47
1133.83
1135.87
1137.89
1137.74
1139.25
1140.59
1141.03
1141.04
1141.66
1140.97
1142.34
1140.13
1140.26
1138.67
1138.48
1137.36
1136.79
1132.85
1129.05
1133.89
1138.89
1139.09
1139.28
1140.16
1140.51
1140.87
1139.42
1139.11
1136.38
1133.73
1131.48
1126.85
1123.52
1118.35
1115.69
1112.43
1110.04
1109.91
1111.58
1113.33
1116.9
1120.36
1123.51
1126.94
1130.13
1132.39
1135.21
1138.22
1138.24
1142.75
1145.5
1145.59
1144.62
1145.82
1145.65
1142.34
1141.28
1145.74
1151.66
1154.18
1147.77
1139.25
1133.78
1129.94
1125.08
1119.82
1115.73
1112.91
1109.44
1108.19
1107.99
1109.12
1110.4
1114.63
1118.54
1123.47
1129.97
1134.95
1138.74
1139.68
1141.88
1149.1
1150.13
1148.53
1148.34
1149.7
1153.16
1154.43
1149.51
1143.66
1138.45