/*--------------------------------*- C++ -*----------------------------------*\
| =========                 |                                                 |
| \\      /  F ield         | OpenFOAM: The Open Source CFD Toolbox           |
|  \\    /   O peration     | Version:  2.1.1                                 |
|   \\  /    A nd           | Web:      www.OpenFOAM.org                      |
|    \\/     M anipulation  |                                                 |
\*---------------------------------------------------------------------------*/
FoamFile
{
    version     2.0;
    format      ascii;
    class       volScalarField;
    location    "0.002850000";
    object      c;
}
// * * * * * * * * * * * * * * * * * * * * * * * * * * * * * * * * * * * * * //

dimensions      [0 0 0 0 0 0 0];

internalField   nonuniform List<scalar> 
12384
(
1
1
1
1
1
1
1
1
1
1
1
1
1
0.0937688
0.183357
1
1
1
1
1
1
1
1
1
1
1
1
1
1
1
1
1
1
1
1
1
1
1
1
1
0.239871
0.0344459
0.000852184
2.68336e-05
1
1
1
1
1
1
1
1
1
1
1
1
1
1
1
1
1
1
1
1
1
1
1
1
1
1
1
0.129081
0.0894906
0.00980664
1
1
1
1
1
1
1
1
1
1
1
1
1
1
1
1
1
1
1
1
1
1
1
1
1
1
0.269471
0.231499
0.136466
0.0378302
0.210476
1
1
1
1
1
1
1
1
1
1
1
1
1
1
1
1
1
1
1
0.343271
0.109829
0.0861708
0.0691007
0.0154152
0.00207379
3.87353e-05
5.98616e-06
1.24138e-06
5.55121e-08
9.23696e-09
6.04731e-06
0.0112618
0.0859138
0.125628
0.156055
0.149797
0.155289
0.16879
0.15813
0.125089
0.138829
0.12287
0.136016
0.129387
0.14488
0.130443
0.130337
0.0996722
0.0542312
0.00653582
0.000839216
0.00015049
1.08128e-06
6.78197e-08
5.17433e-10
3.80167e-12
2.86211e-14
2.36873e-16
3.03605e-18
7.17589e-28
1.79806e-24
7.29104e-21
8.69712e-18
2.29633e-15
2.92611e-13
1.34875e-11
3.04259e-10
4.74893e-10
6.31853e-11
1.15758e-12
1.24526e-15
6.62771e-19
2.11258e-22
5.33229e-26
8.04704e-30
9.8771e-34
9.25919e-38
9.0479e-42
8.29017e-46
6.83495e-50
5.43365e-54
4.33637e-58
3.35023e-62
2.4586e-66
1.7836e-70
1.2381e-74
8.64359e-79
5.88636e-83
4.03341e-87
2.19179e-102
4.69372e-105
4.58804e-109
3.7208e-113
2.75729e-117
1.93325e-121
1.30782e-125
8.66416e-130
5.67807e-134
3.72107e-138
2.46205e-142
1.66049e-146
1.15446e-150
8.31659e-155
6.25972e-159
4.88785e-163
3.78858e-167
3.6633e-173
4.02299e-179
1.86498e-184
2.22165e-189
2.99078e-194
4.71167e-199
4.17322e-204
2.14328e-209
8.95762e-215
3.86753e-220
2.22861e-225
2.70332e-230
1.08098e-234
2.16074e-255
1.4245e-259
2.04229e-264
2.05362e-269
1.71404e-274
1.29536e-279
9.35337e-285
6.74387e-290
5.03695e-295
4.02561e-300
3.50116e-305
3.37299e-310
3.68882e-315
4.60469e-320
0
0
0
0
0
0
0
0
0
0
0
0
0
0
0
0
0
0
0
0
0
0
0
0
0
0
0
0
0
0
0
0
0
0
0
0
0
0
0
0
0
0
0
0
0
0
0
0
0
0
0
0
0
0
0
0
0
0
0
0
0
0
0
0
0
0
0
0
0
0
0
0
0
0
0
0
0
0
0
0
0
0
0
0
0
0
0
0
0
0
0
0
0
0
0
0
0
0
0
0
0
0
0
0
0
0
0
0
0
0
0
0
0
0
0
0
0
0
0
0
0
0
0
0
0
0
0
0
0
0
0
0
0
0
0
0
1
1
1
1
1
1
1
1
1
1
1
1
1
0.0640628
1
1
1
1
1
1
1
1
1
1
1
1
1
1
1
1
1
1
1
1
1
1
1
1
1
1
1
0.425714
0.0254389
0.000177701
1
1
1
1
1
1
1
1
1
1
1
1
1
1
1
1
1
1
1
1
1
1
1
1
1
1
1
1
1
0.0421559
1
1
1
1
1
1
1
1
1
1
1
1
1
1
1
1
1
1
1
1
1
1
1
1
1
1
1
1
1
0.0975793
1
1
1
1
1
1
1
1
1
1
1
1
1
1
1
1
1
1
1
1
1
1
1
1
0.276039
0.031682
0.00358421
0.000769112
0.000128398
3.96692e-06
1.26765e-06
0.00484447
0.166361
1
1
1
1
1
1
1
1
1
1
1
1
1
1
1
1
1
0.0655708
0.0168781
0.0103791
0.000102879
2.10633e-05
8.60113e-08
3.64379e-10
1.77137e-12
1.19744e-14
1.08293e-16
7.55322e-25
6.51044e-21
4.70487e-17
5.6652e-14
9.98592e-12
2.22653e-09
6.35613e-08
2.20652e-06
3.9077e-06
7.91601e-07
9.94955e-09
1.69904e-11
8.66751e-15
2.88399e-18
7.31756e-22
1.06231e-25
9.90138e-30
7.92621e-34
4.09275e-38
3.05092e-42
1.78475e-46
1.03255e-50
5.76583e-55
3.34929e-59
1.97643e-63
1.19018e-67
7.18731e-72
4.3651e-76
2.64445e-80
1.65765e-84
3.27738e-98
7.01945e-101
5.34201e-105
3.57639e-109
2.275e-113
1.37288e-117
8.23304e-122
4.91225e-126
3.05341e-130
1.97629e-134
1.38507e-138
1.01188e-142
7.9044e-147
6.23472e-151
5.15823e-155
4.22524e-159
3.6012e-163
2.80456e-167
3.87493e-173
2.45112e-178
2.89955e-183
4.9232e-188
7.80952e-193
6.28749e-198
2.91621e-203
1.07842e-208
3.94913e-214
1.80175e-219
1.524e-224
3.37408e-229
6.83356e-250
3.17678e-254
4.06574e-259
3.82423e-264
3.0596e-269
2.25021e-274
1.60102e-279
1.14929e-284
8.59615e-290
6.87375e-295
5.95332e-300
5.65373e-305
5.98636e-310
7.10679e-315
9.4159e-320
0
0
0
0
0
0
0
0
0
0
0
0
0
0
0
0
0
0
0
0
0
0
0
0
0
0
0
0
0
0
0
0
0
0
0
0
0
0
0
0
0
0
0
0
0
0
0
0
0
0
0
0
0
0
0
0
0
0
0
0
0
0
0
0
0
0
0
0
0
0
0
0
0
0
0
0
0
0
0
0
0
0
0
0
0
0
0
0
0
0
0
0
0
0
0
0
0
0
0
0
0
0
0
0
0
0
0
0
0
0
0
0
0
0
0
0
0
0
0
0
0
0
0
0
0
0
0
0
0
0
0
0
0
0
0
1
1
1
1
1
1
1
1
1
1
1
1
0.362773
0.0236643
1
1
1
1
1
1
1
1
1
1
1
1
1
1
1
1
1
1
1
1
1
1
1
1
1
1
1
0.273259
0.0127007
0.000121365
1
1
1
1
1
1
1
1
1
1
1
1
1
1
1
1
1
1
1
1
1
1
1
1
1
1
1
1
1
0.0871084
1
1
1
1
1
1
1
1
1
1
1
1
1
1
1
1
1
1
1
1
1
1
1
1
1
1
1
1
1
0.148162
1
1
1
1
1
1
1
1
1
1
1
1
1
1
1
1
1
1
1
1
1
1
1
1
1
0.123716
0.0476385
0.0213466
0.00469301
0.000346032
8.14613e-07
0.00296345
0.124587
1
1
1
1
1
1
1
1
1
1
1
1
1
1
1
1
1
1
1
0.99428
0.0102769
0.00921067
2.17997e-05
5.37635e-08
2.04038e-10
9.73082e-13
6.78534e-15
3.16255e-21
8.94448e-17
5.64403e-13
4.07832e-10
4.55339e-08
8.82132e-06
0.000173603
0.00504469
0.00812415
0.00289971
3.80129e-05
1.25093e-07
6.59446e-11
2.97144e-14
1.13847e-17
2.82258e-21
4.41649e-25
3.5501e-29
1.97151e-33
8.78995e-38
1.58896e-42
8.85895e-47
1.96384e-51
6.99487e-56
2.32003e-60
1.22325e-64
5.83848e-69
3.82802e-73
1.58331e-77
6.18056e-82
5.89461e-94
1.31029e-96
7.70439e-101
4.49663e-105
2.53856e-109
1.35071e-113
7.60215e-118
4.35872e-122
2.93261e-126
2.02325e-130
1.58906e-134
1.20163e-138
9.96563e-143
7.8442e-147
6.68837e-151
5.35217e-155
4.62704e-159
3.76819e-163
3.32435e-167
3.01564e-172
3.49846e-177
8.47628e-182
1.19419e-186
8.43124e-192
3.49483e-197
1.14078e-202
3.54962e-208
1.28209e-213
7.49669e-219
9.60022e-224
1.97659e-244
6.19785e-249
5.77668e-254
4.37876e-259
3.03103e-264
2.02268e-269
1.34581e-274
9.18892e-280
6.58628e-285
5.03651e-290
4.1506e-295
3.71898e-300
3.65369e-305
3.9421e-310
4.65982e-315
6.04539e-320
0
0
0
0
0
0
0
0
0
0
0
0
0
0
0
0
0
0
0
0
0
0
0
0
0
0
0
0
0
0
0
0
0
0
0
0
0
0
0
0
0
0
0
0
0
0
0
0
0
0
0
0
0
0
0
0
0
0
0
0
0
0
0
0
0
0
0
0
0
0
0
0
0
0
0
0
0
0
0
0
0
0
0
0
0
0
0
0
0
0
0
0
0
0
0
0
0
0
0
0
0
0
0
0
0
0
0
0
0
0
0
0
0
0
0
0
0
0
0
0
0
0
0
0
0
0
0
0
0
0
0
0
0
0
1
1
1
1
1
1
1
1
1
1
1
0.999627
0.270791
0.0132947
1
1
1
1
1
1
1
1
1
1
1
1
1
1
1
1
1
1
1
1
1
1
1
1
1
1
1
0.196215
0.00770717
0.000101737
1
1
1
1
1
1
1
1
1
1
1
1
1
1
1
1
1
1
1
1
1
1
1
1
1
1
1
1
1
0.122395
1
1
1
1
1
1
1
1
1
1
1
1
1
1
1
1
1
1
1
1
1
1
1
1
1
1
1
1
1
1
1
1
1
1
1
1
1
1
1
1
1
1
1
1
1
1
1
1
1
1
1
1
1
1
1
1
0.979118
0.97324
0.0149134
0.00286725
1.66732e-05
0.000209068
0.00997413
0.0867457
0.210328
1
1
1
1
1
1
1
1
1
1
1
1
1
1
1
1
1
1
0.975707
1
0.00652728
1.28159e-05
2.31602e-08
1.08164e-10
9.33558e-13
7.41338e-17
2.49314e-12
4.47845e-09
2.02726e-06
6.33954e-05
0.0112578
0.046063
0.145013
0.176157
0.104965
0.0304348
0.000855529
4.56349e-07
1.84561e-10
6.54591e-14
1.91385e-17
5.26592e-21
1.02547e-24
1.20091e-28
8.36289e-33
4.00127e-37
1.24322e-41
3.50636e-46
9.14336e-51
3.87147e-55
1.49747e-59
8.63095e-64
4.29004e-68
2.14895e-72
8.78038e-77
1.30707e-88
2.28192e-91
1.26963e-95
7.69892e-100
4.22196e-104
2.32778e-108
1.25498e-112
7.43852e-117
4.75305e-121
3.39203e-125
2.5347e-129
1.97546e-133
1.55801e-137
1.24914e-141
1.01849e-145
8.29999e-150
6.95686e-154
5.78498e-158
4.98511e-162
4.25349e-166
4.75934e-171
1.78164e-175
1.99221e-180
1.20466e-185
4.42016e-191
1.26826e-196
3.34949e-202
9.61362e-208
3.91797e-213
3.05406e-218
7.41063e-239
1.71836e-243
1.12594e-248
6.241e-254
3.27294e-259
1.705e-264
9.09355e-270
5.08918e-275
3.04874e-280
1.98695e-285
1.42469e-290
1.13179e-295
9.99981e-301
9.86915e-306
1.09321e-310
1.36472e-315
1.90709e-320
0
0
0
0
0
0
0
0
0
0
0
0
0
0
0
0
0
0
0
0
0
0
0
0
0
0
0
0
0
0
0
0
0
0
0
0
0
0
0
0
0
0
0
0
0
0
0
0
0
0
0
0
0
0
0
0
0
0
0
0
0
0
0
0
0
0
0
0
0
0
0
0
0
0
0
0
0
0
0
0
0
0
0
0
0
0
0
0
0
0
0
0
0
0
0
0
0
0
0
0
0
0
0
0
0
0
0
0
0
0
0
0
0
0
0
0
0
0
0
0
0
0
0
0
0
0
0
0
0
0
0
0
0
1
1
1
1
1
1
1
1
1
1
1
1
0.998914
0.0522908
1
1
1
1
1
1
1
1
1
1
1
1
1
1
1
1
1
1
1
1
1
1
1
1
1
1
1
0.134798
0.0121976
0.000406165
1
1
1
1
1
1
1
1
1
1
1
1
1
1
1
1
1
1
1
1
1
1
1
1
1
1
1
1
1
0.166919
1
1
1
1
1
1
1
1
1
1
1
1
1
1
1
1
1
1
1
1
1
1
1
1
1
1
1
1
1
1
1
1
1
1
1
1
1
1
1
1
1
1
1
1
1
1
1
1
1
1
1
1
1
1
1
1
1
0.989567
0.12724
0.0125171
0.00116222
0.0134187
0.0184641
0.0345528
0.170331
1
1
1
1
1
1
1
1
1
1
1
1
1
1
1
1
1
1
1
1
0.0122423
0.000101419
7.64856e-07
8.27722e-09
1.31043e-10
2.16253e-12
4.67438e-08
1.93987e-05
0.00365587
0.035003
0.12607
0.39838
1
1
0.561165
0.318171
0.0653173
0.00271649
1.22071e-06
4.1578e-10
1.17435e-13
2.54049e-17
6.44047e-21
1.37421e-24
2.02426e-28
1.85559e-32
1.14525e-36
4.43864e-41
1.49182e-45
5.28048e-50
2.46751e-54
1.22307e-58
6.92766e-63
3.40749e-67
1.63961e-71
2.26568e-83
3.64393e-86
2.22463e-90
1.3337e-94
7.52587e-99
4.1344e-103
2.31371e-107
1.35153e-111
8.90786e-116
6.23609e-120
4.79272e-124
3.66356e-128
2.95306e-132
2.31827e-136
1.91783e-140
1.53021e-144
1.2928e-148
1.05446e-152
9.07606e-157
7.59982e-161
6.68115e-165
3.8901e-169
3.25625e-174
1.67291e-179
5.4232e-185
1.37316e-190
3.10885e-196
7.23203e-202
2.12805e-207
9.61499e-213
3.79082e-233
7.17146e-238
2.95213e-243
1.15612e-248
4.5306e-254
1.83368e-259
7.81966e-265
3.57984e-270
1.7855e-275
9.82593e-281
6.01976e-286
4.13399e-291
3.19676e-296
2.79942e-301
2.79195e-306
3.19296e-311
4.2146e-316
6.08689e-321
0
0
0
0
0
0
0
0
0
0
0
0
0
0
0
0
0
0
0
0
0
0
0
0
0
0
0
0
0
0
0
0
0
0
0
0
0
0
0
0
0
0
0
0
0
0
0
0
0
0
0
0
0
0
0
0
0
0
0
0
0
0
0
0
0
0
0
0
0
0
0
0
0
0
0
0
0
0
0
0
0
0
0
0
0
0
0
0
0
0
0
0
0
0
0
0
0
0
0
0
0
0
0
0
0
0
0
0
0
0
0
0
0
0
0
0
0
0
0
0
0
0
0
0
0
0
0
0
0
0
0
0
1
1
1
1
1
1
1
1
1
1
1
0.999998
1
0.121556
1
1
1
1
1
1
1
1
1
1
1
1
1
1
1
1
1
1
1
1
1
1
1
1
1
1
1
1
0.243167
0.00985247
1
1
1
1
1
1
1
1
1
1
1
1
1
1
1
1
1
1
1
1
1
1
1
1
1
1
1
1
1
0.307301
1
1
1
1
1
1
1
1
1
1
1
1
1
1
1
1
1
1
1
1
1
1
1
1
1
1
1
1
1
1
1
1
1
1
1
1
1
1
1
1
1
1
1
1
1
1
1
1
1
1
1
1
1
1
1
1
1
1
0.976387
0.0417347
0.0420098
0.983946
0.976005
0.982969
0.999826
1
1
1
1
1
1
1
1
1
1
1
1
1
1
1
1
1
1
1
1
0.966472
0.0255243
0.000258615
9.5568e-07
8.95616e-09
3.50582e-08
0.000364249
0.035185
0.116559
0.272813
0.543166
0.996461
1
1
1
1
0.499698
0.0951731
0.00534174
2.31634e-06
7.01805e-10
1.54012e-13
2.69208e-17
5.96162e-21
1.27599e-24
2.21535e-28
2.53333e-32
2.02226e-36
1.00719e-40
4.34122e-45
1.8275e-49
1.10571e-53
5.61894e-58
3.45699e-62
1.57609e-66
1.97501e-78
3.14589e-81
1.9374e-85
1.20174e-89
6.81946e-94
3.91246e-98
2.20939e-102
1.3454e-106
8.83131e-111
6.40999e-115
4.88083e-119
3.84898e-123
3.06291e-127
2.46182e-131
2.00386e-135
1.62417e-139
1.34928e-143
1.10886e-147
9.39161e-152
7.85949e-156
6.79595e-160
5.8214e-164
4.8122e-168
2.17972e-173
6.27398e-179
1.41628e-184
2.78631e-190
5.35402e-196
1.17068e-201
3.05451e-207
2.64062e-227
3.24232e-232
8.99932e-238
2.49714e-243
7.31491e-249
2.31976e-254
8.07954e-260
3.10833e-265
1.32867e-270
6.34832e-276
3.39753e-281
2.04405e-286
1.3887e-291
1.06972e-296
9.38696e-302
9.47382e-307
1.11114e-311
1.51956e-316
2.20847e-321
0
0
0
0
0
0
0
0
0
0
0
0
0
0
0
0
0
0
0
0
0
0
0
0
0
0
0
0
0
0
0
0
0
0
0
0
0
0
0
0
0
0
0
0
0
0
0
0
0
0
0
0
0
0
0
0
0
0
0
0
0
0
0
0
0
0
0
0
0
0
0
0
0
0
0
0
0
0
0
0
0
0
0
0
0
0
0
0
0
0
0
0
0
0
0
0
0
0
0
0
0
0
0
0
0
0
0
0
0
0
0
0
0
0
0
0
0
0
0
0
0
0
0
0
0
0
0
0
0
0
0
1
1
1
1
1
1
1
1
1
1
1
1
0.999449
0.300767
1
1
1
1
1
1
1
1
1
1
1
1
1
1
1
1
1
1
1
1
1
1
1
1
1
1
1
0.999787
0.20997
0.0103641
1
1
1
1
1
1
1
1
1
1
1
1
1
1
1
1
1
1
1
1
1
1
1
1
1
1
1
1
1
1
1
1
1
1
1
1
1
1
1
1
1
1
1
1
1
1
1
1
1
1
1
1
1
1
1
1
1
1
1
1
1
1
1
1
1
1
1
1
1
1
1
1
1
1
1
1
1
1
1
1
1
1
1
1
1
1
1
1
1
0.0795889
0.0875284
0.992836
1
1
1
1
1
1
1
1
1
1
1
1
1
1
1
1
1
1
1
1
1
1
1
1
0.960786
0.0902553
0.00113521
6.87713e-07
1.54705e-06
0.00416371
0.421671
1
1
1
1
1
1
1
1
1
0.597819
0.123468
0.00845316
3.40551e-06
8.1591e-10
1.44074e-13
2.12257e-17
4.21964e-21
8.79439e-25
1.65791e-28
2.29867e-32
2.35441e-36
1.46184e-40
7.92066e-45
4.46384e-49
2.87096e-53
1.66644e-57
9.59927e-62
8.72988e-74
1.1567e-76
8.54313e-81
5.40436e-85
3.23292e-89
1.86479e-93
1.12563e-97
6.95093e-102
4.84512e-106
3.52819e-110
2.81141e-114
2.20858e-118
1.81696e-122
1.45258e-126
1.20373e-130
9.72937e-135
8.12554e-139
6.66475e-143
5.62612e-147
4.69498e-151
4.02236e-155
3.42646e-159
2.99279e-163
2.5468e-167
6.76757e-173
1.37485e-178
2.36734e-184
3.80572e-190
6.28817e-196
1.0521e-201
2.45748e-221
2.36453e-226
3.50299e-232
6.16256e-238
1.27534e-243
3.08489e-249
8.74237e-255
2.87061e-260
1.0639e-265
4.44612e-271
2.09009e-276
1.10201e-281
6.585e-287
4.47186e-292
3.46475e-297
3.08562e-302
3.1943e-307
3.86837e-312
5.39015e-317
7.06514e-322
0
0
0
0
0
0
0
0
0
0
0
0
0
0
0
0
0
0
0
0
0
0
0
0
0
0
0
0
0
0
0
0
0
0
0
0
0
0
0
0
0
0
0
0
0
0
0
0
0
0
0
0
0
0
0
0
0
0
0
0
0
0
0
0
0
0
0
0
0
0
0
0
0
0
0
0
0
0
0
0
0
0
0
0
0
0
0
0
0
0
0
0
0
0
0
0
0
0
0
0
0
0
0
0
0
0
0
0
0
0
0
0
0
0
0
0
0
0
0
0
0
0
0
0
0
0
0
0
0
0
1
1
1
1
1
1
1
1
1
1
1
1
1
1
1
1
1
1
1
1
1
1
1
1
1
1
1
1
1
1
1
1
1
1
1
1
1
1
1
1
1
0.998924
0.115971
0.0291902
1
1
1
1
1
1
1
1
1
1
1
1
1
1
1
1
1
1
1
1
1
1
1
1
1
1
1
1
1
1
1
1
1
1
1
1
1
1
1
1
1
1
1
1
1
1
1
1
1
1
1
1
1
1
1
1
1
1
1
1
1
1
1
1
1
1
1
1
1
1
1
1
1
1
1
1
1
1
1
1
1
1
1
1
1
1
1
1
0.998704
0.15771
0.100185
0.990763
1
1
1
1
1
1
1
1
1
1
1
1
1
1
1
1
1
1
1
1
1
1
1
1
1
0.0425905
0.000821727
1.48408e-05
4.48191e-05
0.00885971
0.949771
1
1
1
1
1
1
1
1
1
1
0.657292
0.140193
0.0105379
3.3382e-06
6.33949e-10
9.36799e-14
1.2194e-17
2.27247e-21
4.54585e-25
8.74016e-29
1.35228e-32
1.53155e-36
1.15398e-40
8.19156e-45
5.64154e-49
4.01953e-53
2.51646e-57
1.9075e-69
2.51927e-72
1.67924e-76
1.05292e-80
6.42594e-85
3.89498e-89
2.44231e-93
1.63062e-97
1.19863e-101
9.28699e-106
7.57247e-110
6.15078e-114
5.11058e-118
4.16758e-122
3.46408e-126
2.83336e-130
2.36251e-134
1.94863e-138
1.63783e-142
1.36763e-146
1.16385e-150
9.87384e-155
8.54567e-159
7.39041e-163
6.36645e-167
1.20638e-172
1.80343e-178
2.4197e-184
3.07366e-190
3.59292e-196
2.8639e-215
4.05645e-221
5.83101e-227
9.3372e-233
1.72299e-238
3.6915e-244
9.24272e-250
2.7278e-255
9.07728e-261
3.34994e-266
1.3917e-271
6.5285e-277
3.49891e-282
2.12688e-287
1.45434e-292
1.12918e-297
1.00741e-302
1.04438e-307
1.26753e-312
1.67269e-317
1.58101e-322
0
0
0
0
0
0
0
0
0
0
0
0
0
0
0
0
0
0
0
0
0
0
0
0
0
0
0
0
0
0
0
0
0
0
0
0
0
0
0
0
0
0
0
0
0
0
0
0
0
0
0
0
0
0
0
0
0
0
0
0
0
0
0
0
0
0
0
0
0
0
0
0
0
0
0
0
0
0
0
0
0
0
0
0
0
0
0
0
0
0
0
0
0
0
0
0
0
0
0
0
0
0
0
0
0
0
0
0
0
0
0
0
0
0
0
0
0
0
0
0
0
0
0
0
0
0
0
0
0
1
1
1
1
1
1
1
1
1
1
1
1
1
1
1
1
1
1
1
1
1
1
1
1
1
1
1
1
1
1
1
1
1
1
1
1
1
1
1
1
1
1
1
0.999999
0.99977
1
1
1
1
1
1
1
1
1
1
1
1
1
1
1
1
1
1
1
1
1
1
1
1
1
1
1
1
1
1
1
1
1
1
1
1
1
1
1
1
1
1
1
1
1
1
1
1
1
1
1
1
1
1
1
1
1
1
1
1
1
1
1
1
1
1
1
1
1
1
1
1
1
1
1
1
1
1
1
1
1
1
1
1
1
1
1
1
1
1
1
1
1
1
1
1
0.991441
1
1
0.981557
0.999581
1
1
1
1
1
1
1
1
1
1
1
1
1
1
1
1
1
1
1
1
1
1
1
1
1
1
0.141327
0.00938854
0.000396567
0.000829779
0.00707265
0.0508475
0.964782
1
1
1
1
1
1
1
1
1
1
1
0.656337
0.130815
0.00821945
1.93264e-06
2.94544e-10
3.79414e-14
4.72034e-18
8.77739e-22
1.67739e-25
3.12543e-29
4.79668e-33
5.87915e-37
5.49524e-41
5.06505e-45
4.40895e-49
3.54516e-53
2.90199e-57
2.66223e-61
2.58876e-65
2.60573e-69
2.54198e-73
2.39981e-77
2.22914e-81
2.01355e-85
1.82348e-89
1.61724e-93
1.44532e-97
1.26151e-101
1.09399e-105
9.30706e-110
7.89954e-114
6.62147e-118
5.55197e-122
4.62327e-126
3.86346e-130
3.22062e-134
2.70197e-138
2.26799e-142
1.92035e-146
1.63068e-150
1.39945e-154
1.20757e-158
1.05448e-162
9.05142e-167
1.18005e-172
1.28419e-178
1.22607e-184
1.02268e-190
7.83282e-197
5.80885e-203
4.17231e-209
3.19865e-215
2.8677e-221
3.09372e-227
4.06349e-233
6.51998e-239
1.2759e-244
3.02662e-250
8.37734e-256
2.62435e-261
9.24019e-267
3.64637e-272
1.61845e-277
8.14029e-283
4.65086e-288
3.02748e-293
2.26568e-298
1.97702e-303
2.04005e-308
2.42331e-313
3.04574e-318
1.4822e-323
0
0
0
0
0
0
0
0
0
0
0
0
0
0
0
0
0
0
0
0
0
0
0
0
0
0
0
0
0
0
0
0
0
0
0
0
0
0
0
0
0
0
0
0
0
0
0
0
0
0
0
0
0
0
0
0
0
0
0
0
0
0
0
0
0
0
0
0
0
0
0
0
0
0
0
0
0
0
0
0
0
0
0
0
0
0
0
0
0
0
0
0
0
0
0
0
0
0
0
0
0
0
0
0
0
0
0
0
0
0
0
0
0
0
0
0
0
0
0
0
0
0
0
0
0
0
0
0
0
0
0
0
0
0
0
0
0
0
1
1
1
1
1
1
1
1
1
1
1
1
1
1
1
1
1
1
1
1
1
1
1
1
1
1
1
1
1
1
1
1
1
1
1
1
1
1
1
1
1
1
1
1
1
1
1
1
1
1
1
1
1
1
1
1
1
1
1
1
1
1
1
1
1
1
1
1
1
1
1
1
1
1
1
1
1
1
1
1
1
1
1
1
1
1
1
1
1
1
1
1
1
1
1
1
1
1
1
1
1
1
1
1
1
1
1
1
1
1
1
1
1
1
1
1
1
1
1
1
1
1
1
1
1
1
1
1
1
1
1
1
1
1
1
1
1
1
1
1
1
1
1
1
1
1
1
1
1
1
1
1
1
1
1
1
1
1
1
1
1
1
1
1
1
1
1
1
1
1
1
1
1
0.265774
0.122097
0.0853793
0.137462
0.205386
0.970046
1
1
1
1
1
1
1
1
1
1
1
1
0.539565
0.0907353
0.00258051
3.47796e-07
3.61137e-11
5.29855e-15
9.86371e-19
2.07186e-22
3.75891e-26
6.39709e-30
9.47719e-34
1.08505e-37
1.15101e-41
1.2153e-45
1.26796e-49
1.27861e-53
1.27836e-57
1.26071e-61
1.22604e-65
1.19093e-69
1.13307e-73
1.08065e-77
1.01056e-81
9.45529e-86
8.68666e-90
7.98729e-94
7.20441e-98
6.45102e-102
5.6695e-106
4.95743e-110
4.27067e-114
3.66699e-118
3.11555e-122
2.64677e-126
2.23569e-130
1.89452e-134
1.60274e-138
1.36345e-142
1.16173e-146
9.97313e-151
8.60141e-155
7.48963e-159
6.57002e-163
5.66627e-167
5.53771e-173
4.76394e-179
3.71853e-185
2.70574e-191
1.90846e-197
1.31747e-203
9.59118e-210
7.90726e-216
7.5607e-222
8.55929e-228
1.16188e-233
1.90035e-239
3.67527e-245
8.20409e-251
2.08797e-256
6.0239e-262
1.9648e-267
7.22296e-273
2.98327e-278
1.38544e-283
7.2696e-289
4.33734e-294
2.96915e-299
2.36453e-304
2.21154e-309
2.42593e-314
2.92008e-319
0
0
0
0
0
0
0
0
0
0
0
0
0
0
0
0
0
0
0
0
0
0
0
0
0
0
0
0
0
0
0
0
0
0
0
0
0
0
0
0
0
0
0
0
0
0
0
0
0
0
0
0
0
0
0
0
0
0
0
0
0
0
0
0
0
0
0
0
0
0
0
0
0
0
0
0
0
0
0
0
0
0
0
0
0
0
0
0
0
0
0
0
0
0
0
0
0
0
0
0
0
0
0
0
0
0
0
0
0
0
0
0
0
0
0
0
0
0
0
0
0
0
0
0
0
0
0
0
0
0
0
0
0
0
0
0
0
0
1
1
1
1
1
1
1
1
1
1
1
1
1
1
1
1
1
1
1
1
1
1
1
1
1
1
1
1
1
1
1
1
1
1
1
1
1
1
1
1
1
1
1
1
1
1
1
1
1
1
1
1
1
1
1
1
1
1
1
1
1
1
1
1
1
1
1
1
1
1
1
1
1
1
1
1
1
1
1
1
1
1
1
1
1
1
1
1
1
1
1
1
1
1
1
1
1
1
1
1
1
1
1
1
1
1
1
1
1
1
1
1
1
1
1
1
1
1
1
1
1
1
1
1
1
1
1
1
1
1
1
1
1
1
1
1
1
1
1
1
1
1
1
1
1
1
1
1
1
1
1
1
1
1
1
1
1
1
1
1
1
1
1
1
1
1
1
1
1
1
1
1
1
0.989543
0.983074
0.990299
1
0.993984
1
1
1
1
1
1
1
1
1
1
1
1
1
1
0.324725
0.0389869
2.63769e-05
8.75011e-09
2.43282e-12
5.5781e-16
9.27575e-20
1.56631e-23
2.35702e-27
3.87202e-31
5.43445e-35
6.61361e-39
7.83764e-43
9.11134e-47
9.87683e-51
1.06113e-54
1.07633e-58
1.10429e-62
1.10549e-66
1.1181e-70
1.11046e-74
1.10107e-78
1.07499e-82
1.04314e-86
1.00393e-90
9.59386e-95
9.05587e-99
8.44347e-103
7.77587e-107
7.0794e-111
6.3821e-115
5.7033e-119
5.06624e-123
4.47675e-127
3.94551e-131
3.46893e-135
3.04875e-139
2.67952e-143
2.3593e-147
2.0828e-151
1.84699e-155
1.64691e-159
1.479e-163
1.19003e-167
8.8156e-174
6.02776e-180
3.87676e-186
2.42784e-192
1.51499e-198
1.00126e-204
7.46582e-211
6.44623e-217
6.59646e-223
8.07064e-229
1.16745e-234
1.96407e-240
3.78098e-246
8.23137e-252
2.01456e-257
5.52675e-263
1.69832e-268
5.85965e-274
2.27765e-279
1.00078e-284
4.98779e-290
2.83404e-295
1.85104e-300
1.40436e-305
1.24966e-310
1.30423e-315
1.52963e-320
0
0
0
0
0
0
0
0
0
0
0
0
0
0
0
0
0
0
0
0
0
0
0
0
0
0
0
0
0
0
0
0
0
0
0
0
0
0
0
0
0
0
0
0
0
0
0
0
0
0
0
0
0
0
0
0
0
0
0
0
0
0
0
0
0
0
0
0
0
0
0
0
0
0
0
0
0
0
0
0
0
0
0
0
0
0
0
0
0
0
0
0
0
0
0
0
0
0
0
0
0
0
0
0
0
0
0
0
0
0
0
0
0
0
0
0
0
0
0
0
0
0
0
0
0
0
0
0
0
0
0
0
0
0
0
0
0
1
1
1
1
1
1
1
1
1
1
1
1
1
1
1
1
1
1
1
1
1
1
1
1
1
1
1
1
1
1
1
1
1
1
1
1
1
1
1
1
1
1
1
1
1
1
1
1
1
1
1
1
1
1
1
1
1
1
1
1
1
1
1
1
1
1
1
1
1
1
1
1
1
1
1
1
1
1
1
1
1
1
1
1
1
1
1
1
1
1
1
1
1
1
1
1
1
1
1
1
1
1
1
1
1
1
1
1
1
1
1
1
1
1
1
1
1
1
1
1
1
1
1
1
1
1
1
1
1
1
1
1
1
1
1
1
1
1
1
1
1
1
1
1
1
1
1
1
1
1
1
1
1
1
1
1
1
1
1
1
1
1
1
1
1
1
1
1
1
1
1
1
1
1
1
1
1
1
1
1
1
1
1
1
1
1
1
1
1
1
1
1
0.577473
0.126374
0.00756572
1.98997e-06
3.55772e-10
4.91758e-14
7.20971e-18
1.23362e-21
2.64357e-25
5.08743e-29
8.20172e-33
9.85102e-37
1.09556e-40
1.20611e-44
1.32786e-48
1.50872e-52
1.65361e-56
1.80971e-60
1.89742e-64
1.94596e-68
1.96304e-72
1.95378e-76
1.94425e-80
1.92608e-84
1.90889e-88
1.87809e-92
1.83188e-96
1.76523e-100
1.68623e-104
1.59687e-108
1.50296e-112
1.4053e-116
1.30684e-120
1.20792e-124
1.11027e-128
1.0152e-132
9.24181e-137
8.38386e-141
7.58964e-145
6.86326e-149
6.21001e-153
5.62896e-157
5.11937e-161
4.67483e-165
4.49769e-171
4.43985e-177
4.46513e-183
4.58022e-189
4.79136e-195
5.21105e-201
5.9763e-207
7.24178e-213
9.32393e-219
1.28439e-224
1.90572e-230
3.0661e-236
5.37843e-242
1.03472e-247
2.19563e-253
5.17593e-259
1.36487e-264
4.05203e-270
1.36221e-275
5.21722e-281
2.28957e-286
1.15886e-291
6.81462e-297
4.68739e-302
3.79073e-307
3.61138e-312
4.0428e-317
4.44659e-322
0
0
0
0
0
0
0
0
0
0
0
0
0
0
0
0
0
0
0
0
0
0
0
0
0
0
0
0
0
0
0
0
0
0
0
0
0
0
0
0
0
0
0
0
0
0
0
0
0
0
0
0
0
0
0
0
0
0
0
0
0
0
0
0
0
0
0
0
0
0
0
0
0
0
0
0
0
0
0
0
0
0
0
0
0
0
0
0
0
0
0
0
0
0
0
0
0
0
0
0
0
0
0
0
0
0
0
0
0
0
0
0
0
0
0
0
0
0
0
0
0
0
0
0
0
0
0
0
0
0
0
0
0
0
0
0
1
1
1
1
1
1
1
1
1
1
1
1
1
1
1
1
1
1
1
1
1
1
1
1
1
1
1
1
1
1
1
1
1
1
1
1
1
1
1
1
1
1
1
1
1
1
1
1
1
1
1
1
1
1
1
1
1
1
1
1
1
1
1
1
1
1
1
1
1
1
1
1
1
1
1
1
1
1
1
1
1
1
1
1
1
1
1
1
1
1
1
1
1
1
1
1
1
1
1
1
1
1
1
1
1
1
1
1
1
1
1
1
1
1
1
1
1
1
1
1
1
1
1
1
1
1
1
1
1
1
1
1
1
1
1
1
1
1
1
1
1
1
1
1
1
1
1
1
1
1
1
1
1
1
1
1
1
1
1
1
1
1
1
1
1
1
1
1
1
1
1
1
1
1
1
1
1
1
1
1
1
1
1
1
1
1
1
1
1
1
1
1
1
0.234724
0.0271508
1.48409e-05
5.16046e-09
1.33166e-12
2.51384e-16
4.24331e-20
6.38034e-24
1.05535e-27
1.60063e-31
2.10392e-35
2.55435e-39
2.94466e-43
3.29309e-47
3.60186e-51
3.84778e-55
4.14481e-59
4.39533e-63
4.66857e-67
4.87921e-71
5.05272e-75
5.20661e-79
5.33018e-83
5.47034e-87
5.58797e-91
5.69499e-95
5.75665e-99
5.79488e-103
5.78843e-107
5.75908e-111
5.69476e-115
5.61541e-119
5.50988e-123
5.39568e-127
5.25956e-131
5.117e-135
4.95664e-139
4.79047e-143
4.61125e-147
4.42757e-151
4.23481e-155
4.03951e-159
3.83838e-163
3.41242e-167
3.12496e-173
2.69294e-179
2.22367e-185
1.79147e-191
1.45063e-197
1.21199e-203
1.06878e-209
1.02103e-215
1.08873e-221
1.33177e-227
1.90483e-233
3.19854e-239
6.25798e-245
1.40777e-250
3.59886e-256
1.03654e-261
3.34836e-267
1.21111e-272
4.9093e-278
2.23548e-283
1.14774e-288
6.6676e-294
4.39822e-299
3.30889e-304
2.86835e-309
2.904e-314
3.37936e-319
0
0
0
0
0
0
0
0
0
0
0
0
0
0
0
0
0
0
0
0
0
0
0
0
0
0
0
0
0
0
0
0
0
0
0
0
0
0
0
0
0
0
0
0
0
0
0
0
0
0
0
0
0
0
0
0
0
0
0
0
0
0
0
0
0
0
0
0
0
0
0
0
0
0
0
0
0
0
0
0
0
0
0
0
0
0
0
0
0
0
0
0
0
0
0
0
0
0
0
0
0
0
0
0
0
0
0
0
0
0
0
0
0
0
0
0
0
0
0
0
0
0
0
0
0
0
0
0
0
0
0
0
0
0
0
0
1
1
1
1
1
1
1
1
1
1
1
1
1
1
1
1
1
1
1
1
1
1
1
1
1
1
1
1
1
1
1
1
1
1
1
1
1
1
1
1
1
1
1
1
1
1
1
1
1
1
1
1
1
1
1
1
1
1
1
1
1
1
1
1
1
1
1
1
1
1
1
1
1
1
1
1
1
1
1
1
1
1
1
1
1
1
1
1
1
1
1
1
1
1
1
1
1
1
1
1
1
1
1
1
1
1
1
1
1
1
1
1
1
1
1
1
1
1
1
1
1
1
1
1
1
1
1
1
1
1
1
1
1
1
1
1
1
1
1
1
1
1
1
1
1
1
1
1
1
1
1
1
1
1
1
1
1
1
1
1
1
1
1
1
1
1
1
1
1
1
1
1
1
1
1
1
1
1
1
1
1
1
1
1
1
1
1
1
1
1
1
1
1
0.327157
0.0417834
2.73716e-05
1.23507e-08
3.89572e-12
9.80699e-16
1.81516e-19
3.17061e-23
4.72912e-27
6.95181e-31
8.53191e-35
9.98203e-39
1.13215e-42
1.28777e-46
1.382e-50
1.48437e-54
1.54075e-58
1.63212e-62
1.70165e-66
1.7998e-70
1.87045e-74
1.95327e-78
2.00837e-82
2.07079e-86
2.10666e-90
2.14349e-94
2.15686e-98
2.16928e-102
2.16115e-106
2.15132e-110
2.12604e-114
2.10097e-118
2.06561e-122
2.03154e-126
1.98991e-130
1.94877e-134
1.90145e-138
1.85396e-142
1.80158e-146
1.74929e-150
1.69368e-154
1.63875e-158
1.58204e-162
1.51374e-166
1.62949e-172
1.73643e-178
1.82364e-184
1.88824e-190
1.95149e-196
2.03529e-202
2.17089e-208
2.40003e-214
2.79478e-220
3.47828e-226
4.70704e-232
7.04311e-238
1.18764e-243
2.29268e-249
5.12397e-255
1.33083e-260
4.00878e-266
1.39227e-271
5.54524e-277
2.52096e-282
1.30542e-287
7.70141e-293
5.19015e-298
4.01146e-303
3.57348e-308
3.69312e-313
4.45971e-318
2.47033e-323
0
0
0
0
0
0
0
0
0
0
0
0
0
0
0
0
0
0
0
0
0
0
0
0
0
0
0
0
0
0
0
0
0
0
0
0
0
0
0
0
0
0
0
0
0
0
0
0
0
0
0
0
0
0
0
0
0
0
0
0
0
0
0
0
0
0
0
0
0
0
0
0
0
0
0
0
0
0
0
0
0
0
0
0
0
0
0
0
0
0
0
0
0
0
0
0
0
0
0
0
0
0
0
0
0
0
0
0
0
0
0
0
0
0
0
0
0
0
0
0
0
0
0
0
0
0
0
0
0
0
0
0
0
0
0
1
1
1
1
1
1
1
1
1
1
1
1
1
1
1
1
1
1
1
1
1
1
1
1
1
1
1
1
1
1
1
1
1
1
1
1
1
1
1
1
1
1
1
1
1
1
1
1
1
1
1
1
1
1
1
1
1
1
1
1
1
1
1
1
1
1
1
1
1
1
1
1
1
1
1
1
1
1
1
1
1
1
1
1
1
1
1
1
1
1
1
1
1
1
1
1
1
1
1
1
1
1
1
1
1
1
1
1
1
1
1
1
1
1
1
1
1
1
1
1
1
1
1
1
1
1
1
1
1
1
1
1
1
1
1
1
1
1
1
1
1
1
1
1
1
1
1
1
1
1
1
1
1
1
1
1
1
1
1
1
1
1
1
1
1
1
1
1
1
1
1
1
1
1
1
1
1
1
1
1
1
1
1
1
1
1
1
1
1
1
1
1
1
0.280796
0.0420823
2.74433e-05
1.15712e-08
3.71571e-12
8.5866e-16
1.70887e-19
2.70082e-23
4.26291e-27
5.69623e-31
7.34649e-35
8.76711e-39
1.01747e-42
1.16818e-46
1.2795e-50
1.39146e-54
1.46493e-58
1.56272e-62
1.63743e-66
1.72803e-70
1.79011e-74
1.85596e-78
1.89483e-82
1.93574e-86
1.96139e-90
1.99594e-94
2.02215e-98
2.05486e-102
2.07807e-106
2.10256e-110
2.11626e-114
2.12849e-118
2.13062e-122
2.13086e-126
2.12316e-130
2.11497e-134
2.1019e-138
2.09064e-142
2.07747e-146
2.06751e-150
2.05724e-154
2.05001e-158
2.04238e-162
2.02541e-166
2.26911e-172
2.53711e-178
2.81253e-184
3.08369e-190
3.37117e-196
3.70458e-202
4.14333e-208
4.7766e-214
5.7652e-220
7.39206e-226
1.02472e-231
1.56247e-237
2.66924e-243
5.19287e-249
1.16631e-254
3.04422e-260
9.24133e-266
3.24736e-271
1.31301e-276
6.07358e-282
3.20324e-287
1.92326e-292
1.31596e-297
1.02944e-302
9.25942e-308
9.64302e-313
1.16504e-317
1.4822e-322
0
0
0
0
0
0
0
0
0
0
0
0
0
0
0
0
0
0
0
0
0
0
0
0
0
0
0
0
0
0
0
0
0
0
0
0
0
0
0
0
0
0
0
0
0
0
0
0
0
0
0
0
0
0
0
0
0
0
0
0
0
0
0
0
0
0
0
0
0
0
0
0
0
0
0
0
0
0
0
0
0
0
0
0
0
0
0
0
0
0
0
0
0
0
0
0
0
0
0
0
0
0
0
0
0
0
0
0
0
0
0
0
0
0
0
0
0
0
0
0
0
0
0
0
0
0
0
0
0
0
0
0
0
0
0
1
1
1
1
1
1
1
1
1
1
1
1
1
1
1
1
1
1
1
1
1
1
1
1
1
1
1
1
1
1
1
1
1
1
1
1
1
1
1
1
1
1
1
1
1
1
1
1
1
1
1
1
1
1
1
1
1
1
1
1
1
1
1
1
1
1
1
1
1
1
1
1
1
1
1
1
1
1
1
1
1
1
1
1
1
1
1
1
1
1
1
1
1
1
1
1
1
1
1
1
1
1
1
1
1
1
1
1
1
1
1
1
1
1
1
1
1
1
1
1
1
1
1
1
1
1
1
1
1
1
1
1
1
1
1
1
1
1
1
1
1
1
1
1
1
1
1
1
1
1
1
1
1
1
1
1
1
1
1
1
1
1
1
1
1
1
1
1
1
1
1
1
1
1
1
1
1
1
1
1
1
1
1
1
1
1
1
1
1
1
1
1
0.498611
0.141827
0.0122041
3.97758e-06
9.03451e-10
1.59012e-13
2.65946e-17
5.1613e-21
1.03893e-24
2.09852e-28
3.58891e-32
4.68e-36
5.5149e-40
5.90006e-44
6.38387e-48
6.71163e-52
7.18449e-56
7.51615e-60
7.99218e-64
8.30422e-68
8.68887e-72
8.9232e-76
9.20635e-80
9.36544e-84
9.53824e-88
9.58436e-92
9.60584e-96
9.50797e-100
9.38122e-104
9.16955e-108
8.94819e-112
8.67965e-116
8.41932e-120
8.13969e-124
7.88214e-128
7.62767e-132
7.40857e-136
7.21071e-140
7.05809e-144
6.93776e-148
6.86456e-152
6.82532e-156
6.82761e-160
6.85785e-164
5.2817e-168
3.73195e-174
2.43292e-180
1.55631e-186
1.02645e-192
7.41198e-199
6.23083e-205
6.35941e-211
7.82599e-217
1.1188e-222
1.78874e-228
3.13385e-234
5.96412e-240
1.23347e-245
2.78008e-251
6.86341e-257
1.86446e-262
5.60198e-268
1.83589e-273
6.18953e-279
2.06023e-284
6.79637e-290
2.23119e-295
7.34087e-301
2.45158e-306
8.61896e-312
3.53633e-317
8.89318e-323
0
0
0
0
0
0
0
0
0
0
0
0
0
0
0
0
0
0
0
0
0
0
0
0
0
0
0
0
0
0
0
0
0
0
0
0
0
0
0
0
0
0
0
0
0
0
0
0
0
0
0
0
0
0
0
0
0
0
0
0
0
0
0
0
0
0
0
0
0
0
0
0
0
0
0
0
0
0
0
0
0
0
0
0
0
0
0
0
0
0
0
0
0
0
0
0
0
0
0
0
0
0
0
0
0
0
0
0
0
0
0
0
0
0
0
0
0
0
0
0
0
0
0
0
0
0
0
0
0
0
0
0
0
0
0
0
1
1
1
1
1
1
1
1
1
1
1
1
1
0.0774058
0.199863
1
1
1
1
1
1
1
1
1
1
1
1
1
1
1
1
1
1
1
1
1
1
1
1
1
0.239355
0.0459431
0.000961259
2.78198e-05
1
1
1
1
1
1
1
1
1
1
1
1
1
1
1
1
1
1
1
1
1
1
1
1
1
1
1
0.133219
0.0998879
0.0103224
1
1
1
1
1
1
1
1
1
1
1
1
1
1
1
1
1
1
1
1
1
1
1
1
1
1
0.290873
0.176474
0.0736926
0.0292831
0.221332
1
1
1
1
1
1
1
1
1
1
1
1
1
1
1
1
1
1
1
0.324607
0.118642
0.0602357
0.0697836
0.0280461
0.000798784
3.62825e-05
6.56547e-06
5.78131e-07
4.36377e-08
8.51018e-09
5.55293e-06
0.00832052
0.0748239
0.134908
0.162513
0.138668
0.144361
0.141451
0.137309
0.157964
0.130142
0.132425
0.114392
0.132181
0.130458
0.156807
0.142335
0.109378
0.0530728
0.00574218
0.000595662
8.74387e-05
6.89497e-07
6.89471e-08
4.93387e-10
3.55911e-12
2.76535e-14
2.2393e-16
2.97099e-18
9.41707e-28
1.56688e-24
5.09726e-21
1.21202e-17
2.26203e-15
3.16741e-13
2.00367e-11
3.85312e-10
7.2176e-10
1.7525e-10
2.17964e-12
2.08325e-15
9.1989e-19
3.59312e-22
8.56368e-26
1.56314e-29
1.83438e-33
2.00637e-37
1.88177e-41
1.7504e-45
1.38322e-49
1.0907e-53
8.52929e-58
6.56588e-62
4.96553e-66
3.60067e-70
2.60641e-74
1.83065e-78
1.28789e-82
8.90391e-87
5.03575e-102
5.30382e-105
4.75519e-109
3.70859e-113
2.73991e-117
1.97361e-121
1.40501e-125
9.97037e-130
7.09046e-134
5.09285e-138
3.70118e-142
2.74317e-146
2.06851e-150
1.5997e-154
1.25927e-158
1.01666e-162
8.1628e-167
8.77559e-173
1.01667e-178
4.20262e-184
4.61562e-189
8.31023e-194
1.23228e-198
1.08146e-203
6.33215e-209
3.05656e-214
1.45464e-219
8.64037e-225
1.01123e-229
3.77734e-234
5.63177e-255
5.22334e-259
8.16323e-264
8.73732e-269
7.75772e-274
6.1842e-279
4.70057e-284
3.54472e-289
2.75999e-294
2.28421e-299
2.04721e-304
2.01755e-309
2.24558e-314
2.83925e-319
0
0
0
0
0
0
0
0
0
0
0
0
0
0
0
0
0
0
0
0
0
0
0
0
0
0
0
0
0
0
0
0
0
0
0
0
0
0
0
0
0
0
0
0
0
0
0
0
0
0
0
0
0
0
0
0
0
0
0
0
0
0
0
0
0
0
0
0
0
0
0
0
0
0
0
0
0
0
0
0
0
0
0
0
0
0
0
0
0
0
0
0
0
0
0
0
0
0
0
0
0
0
0
0
0
0
0
0
0
0
0
0
0
0
0
0
0
0
0
0
0
0
0
0
0
0
0
0
0
0
0
0
0
0
0
0
1
1
1
1
1
1
1
1
1
1
1
1
1
0.064038
1
1
1
1
1
1
1
1
1
1
1
1
1
1
1
1
1
1
1
1
1
1
1
1
1
1
1
1
0.0589744
0.000291794
1
1
1
1
1
1
1
1
1
1
1
1
1
1
1
1
1
1
1
1
1
1
1
1
1
1
1
1
1
0.048114
1
1
1
1
1
1
1
1
1
1
1
1
1
1
1
1
1
1
1
1
1
1
1
1
1
1
1
1
1
0.100494
1
1
1
1
1
1
1
1
1
1
1
1
1
1
1
1
1
1
1
1
1
1
1
1
0.244016
0.0316174
0.00422905
0.000678446
6.5059e-05
2.98327e-06
9.38209e-07
0.00351391
0.133829
1
1
1
1
1
1
1
1
1
1
1
1
1
1
1
1
1
0.0653533
0.0170873
0.0130873
0.000102525
2.30945e-05
8.75463e-08
3.53106e-10
1.79868e-12
1.1313e-14
8.98349e-17
7.01059e-25
2.85183e-21
2.23226e-17
6.94983e-14
9.4053e-12
1.76773e-09
1.2931e-07
3.0177e-06
4.85608e-06
1.85154e-06
2.98633e-08
3.19046e-11
1.21946e-14
4.9432e-18
1.16589e-21
1.93304e-25
2.00359e-29
1.41442e-33
1.10038e-37
6.54007e-42
4.21196e-46
2.24997e-50
1.21713e-54
6.6492e-59
3.75895e-63
2.16831e-67
1.29729e-71
7.97435e-76
4.95009e-80
3.25121e-84
7.56862e-98
7.65379e-101
4.83678e-105
3.01999e-109
1.90787e-113
1.27199e-117