/*--------------------------------*- C++ -*----------------------------------*\
| =========                 |                                                 |
| \\      /  F ield         | OpenFOAM: The Open Source CFD Toolbox           |
|  \\    /   O peration     | Version:  2.1.1                                 |
|   \\  /    A nd           | Web:      www.OpenFOAM.org                      |
|    \\/     M anipulation  |                                                 |
\*---------------------------------------------------------------------------*/
FoamFile
{
    version     2.0;
    format      ascii;
    class       volScalarField;
    location    "0.002850000";
    object      fH;
}
// * * * * * * * * * * * * * * * * * * * * * * * * * * * * * * * * * * * * * //

dimensions      [0 0 0 0 0 0 0];

internalField   nonuniform List<scalar> 
12384
(
0.0258732
0.0242939
0.0218375
0.0204484
0.019865
0.020561
0.0215017
0.0220923
0.0217412
0.0215097
0.0221991
0.0236655
0.026635
0.0280958
0.0203557
0.02035
0.0190883
0.0187843
0.0186297
0.0185981
0.0186529
0.0187194
0.0188475
0.0189063
0.018965
0.0188934
0.0188619
0.018689
0.018762
0.0185826
0.0185368
0.0183616
0.0182752
0.0181704
0.0181082
0.0180219
0.0178994
0.0176981
0.0174086
0.0183859
0.0209614
0.0248419
0.0283098
0.0293849
0.0238521
0.0254915
0.0264824
0.026675
0.0267667
0.0265671
0.0267105
0.0268978
0.0271355
0.0276003
0.0278658
0.0281599
0.0284582
0.0285405
0.0284774
0.0282987
0.0278008
0.0269806
0.0261054
0.0249192
0.0235896
0.0217033
0.0201115
0.019069
0.0186237
0.0196959
0.020826
0.0245145
0.0256035
0.0269254
0.0246558
0.0283643
0.03063
0.0311723
0.0312442
0.0308513
0.0299951
0.0290975
0.0286952
0.0286519
0.0291885
0.0298707
0.0304787
0.030603
0.0301076
0.0294769
0.0285798
0.02728
0.0265558
0.0245413
0.0222033
0.0205399
0.0193785
0.0188706
0.0193548
0.0208429
0.0222555
0.0231353
0.0259234
0.0268574
0.0223426
0.0223592
0.021627
0.0231918
0.0264424
0.0293412
0.0295781
0.0296372
0.0296729
0.0296941
0.0299058
0.0303346
0.0311484
0.03199
0.0322535
0.0315485
0.0299547
0.0291137
0.0282405
0.0275228
0.0264245
0.0250489
0.0247078
0.0217796
0.0193236
0.0181345
0.0185503
0.0211237
0.0255673
0.0271189
0.0225893
0.0208022
0.0232757
0.0267092
0.0279749
0.0286339
0.0289696
0.0292504
0.0298408
0.0300266
0.0301192
0.0304059
0.0307141
0.0311319
0.0312887
0.0314255
0.0310831
0.0309257
0.0306975
0.0288127
0.0267997
0.0220871
0.0190795
0.0176638
0.0178975
0.0189764
0.0213736
0.0239554
0.0260976
0.0267366
0.0238213
0.0221669
0.0206357
0.0198982
0.0193308
0.0190145
0.0190507
0.0196726
0.0192717
0.0195822
0.0193444
0.0186331
0.0181895
0.0177819
0.0180893
0.0182749
0.0204371
0.0210372
0.024007
0.0274463
0.0292673
0.0287043
0.0291041
0.0288747
0.0291275
0.0289459
0.0290542
0.0289997
0.0290299
0.0290581
0.0290573
0.0290123
0.0290018
0.0290248
0.0290089
0.0290184
0.0290109
0.02901
0.0290105
0.0290056
0.0290074
0.0290025
0.0290019
0.028997
0.0289965
0.0289945
0.0289964
0.0289984
0.029
0.0290025
0.0290018
0.029005
0.0290033
0.0290072
0.0290048
0.0290087
0.029006
0.0290089
0.0290095
0.0290686
0.0290685
0.0290084
0.0290043
0.0290032
0.0290015
0.0290005
0.0289987
0.0289975
0.0289957
0.0289942
0.0289924
0.0289905
0.0289871
0.0289842
0.0289818
0.0289821
0.0289836
0.0289864
0.028989
0.028991
0.0289925
0.0289941
0.0289957
0.0289973
0.0289987
0.0290001
0.0290013
0.0290028
0.0290071
0.0290685
0.0290685
0.0290076
0.0290032
0.0290011
0.0289998
0.0289983
0.0289968
0.0289953
0.0289939
0.0289926
0.0289912
0.0289894
0.028987
0.0289843
0.0289825
0.0289816
0.0289833
0.0289862
0.0289897
0.0289919
0.0289933
0.0289953
0.0289968
0.0289983
0.0289995
0.0290009
0.0290021
0.0290037
0.0290074
0.0290688
0.0290685
0.0290071
0.0290029
0.0290015
0.029
0.0289987
0.0289972
0.0289958
0.0289944
0.0289929
0.0289914
0.0289896
0.0289867
0.0289841
0.0289819
0.0289818
0.0289834
0.0289863
0.028989
0.028991
0.0289926
0.0289943
0.0289957
0.0289974
0.0289988
0.0290002
0.0290014
0.0290028
0.0290071
0.0290686
0.0290688
0.0290066
0.0290028
0.0290018
0.0290005
0.0289993
0.0289976
0.028996
0.0289944
0.0289926
0.028991
0.0289891
0.0289863
0.0289838
0.0289818
0.0289818
0.0289837
0.0289863
0.0289892
0.0289911
0.0289927
0.0289942
0.0289957
0.0289972
0.0289987
0.0289999
0.0290014
0.0290028
0.0290066
0.0290688
0.0290686
0.029007
0.0290027
0.029001
0.0289996
0.0289982
0.0289971
0.0289956
0.0289945
0.028993
0.0289917
0.0289898
0.0289873
0.0289844
0.0289822
0.0289818
0.0289833
0.0289861
0.0289888
0.0289908
0.0289925
0.0289942
0.0289958
0.0289973
0.0289989
0.0290002
0.0290015
0.0290027
0.029007
0.0290686
0.0236244
0.0198332
0.016653
0.0151061
0.0145543
0.0148709
0.0152591
0.0160101
0.0163579
0.0166696
0.0181
0.0201467
0.0239268
0.0270014
0.0203116
0.0203136
0.0194086
0.0186331
0.0182014
0.0184141
0.018976
0.0200061
0.0210379
0.0221523
0.0228331
0.0231835
0.0220547
0.0214474
0.0205753
0.0199799
0.0196953
0.0193301
0.018933
0.018495
0.0181009
0.0179096
0.0176918
0.0174431
0.0173292
0.0174769
0.0197334
0.0222418
0.0264195
0.0287676
0.0241207
0.0257328
0.026058
0.0256757
0.025124
0.0250513
0.0256865
0.0265884
0.0276635
0.0287985
0.0297205
0.0306608
0.0313327
0.0318302
0.0320037
0.0319577
0.0317075
0.0312589
0.0298275
0.0277406
0.0252407
0.0225936
0.0197164
0.0184411
0.0187933
0.0206821
0.0223129
0.0240646
0.0230039
0.0263437
0.0239839
0.0264262
0.0281522
0.0296894
0.0302298
0.0305074
0.0300667
0.0294305
0.0291605
0.0295289
0.0306632
0.0322667
0.0340206
0.0344529
0.0338924
0.0319105
0.0300518
0.0274006
0.025853
0.0239632
0.0223266
0.0206865
0.0195183
0.0190341
0.0197265
0.0211477
0.0222547
0.0228056
0.0289107
0.0268044
0.0223925
0.0223436
0.0214236
0.0222307
0.0245574
0.0265658
0.0273724
0.0280616
0.0281632
0.0283199
0.0287667
0.0298071
0.0308915
0.0321455
0.0325649
0.0321152
0.0306483
0.0295116
0.0286711
0.0282104
0.0276876
0.0271341
0.0277728
0.023062
0.0227533
0.018696
0.0166515
0.0189512
0.022504
0.0261158
0.0206488
0.0217346
0.0262018
0.0292722
0.0298781
0.0304874
0.0311336
0.0319651
0.0331446
0.0337641
0.0341042
0.0348431
0.036061
0.0372645
0.0384936
0.0396239
0.0413755
0.0417159
0.0415577
0.0388431
0.0324916
0.0284763
0.0265457
0.020658
0.0172264
0.0159417
0.0170272
0.0199864
0.0235047
0.024619
0.0158871
0.0153763
0.0160589
0.018973
0.0184228
0.0227203
0.0255532
0.0273967
0.032371
0.0332723
0.034546
0.0324389
0.0285286
0.0222203
0.0174903
0.0140889
0.0118705
0.0118496
0.0120835
0.0150786
0.0192179
0.0222925
0.0231999
0.0239819
0.0248301
0.0256085
0.0262107
0.0267639
0.0269449
0.0280209
0.0253173
0.0245615
0.0245391
0.0247179
0.0250439
0.0252159
0.0254855
0.0256356
0.0258267
0.0259417
0.0260565
0.0261309
0.0261963
0.0262018
0.0262531
0.0262648
0.0263441
0.0263911
0.0264618
0.0264976
0.0265365
0.0265691
0.0265934
0.0266277
0.0266434
0.0266728
0.0266829
0.0266938
0.0267569
0.0280413
0.0279759
0.026682
0.0265923
0.02659
0.0265612
0.0265595
0.0265243
0.0265228
0.0264868
0.0264833
0.0264445
0.0264344
0.0263798
0.0263516
0.026312
0.0263257
0.0263346
0.026387
0.0264077
0.0264477
0.0264533
0.0264936
0.0264969
0.0265362
0.0265409
0.0265766
0.0265823
0.0266106
0.0266905
0.0280243
0.0280242
0.0266886
0.0266077
0.0265749
0.0265719
0.0265361
0.0265316
0.0264945
0.0264925
0.0264563
0.0264526
0.026416
0.0263982
0.0263471
0.0263345
0.0263139
0.0263441
0.0263724
0.026431
0.026458
0.0264775
0.0265141
0.0265197
0.0265564
0.0265577
0.026592
0.0265887
0.026619
0.0266803
0.028075
0.0280193
0.0266943
0.026599
0.0265966
0.0265625
0.0265604
0.0265225
0.0265196
0.0264832
0.0264796
0.0264426
0.0264335
0.026383
0.0263554
0.0263164
0.0263257
0.0263346
0.0263855
0.0264085
0.0264482
0.026455
0.0264951
0.0264992
0.0265382
0.0265434
0.0265787
0.0265845
0.0266105
0.0266909
0.0280247
0.0280794
0.0266802
0.0266012
0.0265976
0.0265632
0.0265611
0.0265216
0.0265168
0.0264779
0.0264719
0.0264322
0.0264239
0.0263743
0.0263503
0.0263183
0.0263178
0.0263484
0.0263753
0.0264262
0.0264349
0.0264736
0.0264783
0.0265159
0.0265193
0.0265572
0.0265582
0.0265936
0.0265983
0.0266788
0.0280765
0.0280261
0.0266932
0.0265948
0.0265918
0.0265543
0.0265536
0.0265133
0.0265136
0.0264753
0.0264766
0.0264378
0.026433
0.0263849
0.0263611
0.0263191
0.0263258
0.0263347
0.0263845
0.026408
0.0264467
0.0264528
0.0264928
0.0264966
0.0265363
0.0265406
0.0265773
0.0265836
0.0266104
0.026691
0.0280265
0.0186113
0.0175554
0.017664
0.0179844
0.0187486
0.0173191
0.0162133
0.0154786
0.0156937
0.0154922
0.0148718
0.0160888
0.0195673
0.024922
0.0186199
0.0193415
0.0179842
0.017754
0.0187836
0.0206477
0.023906
0.0283692
0.0334486
0.0379051
0.0407565
0.0417358
0.0400875
0.0372144
0.0332711
0.0302102
0.0274751
0.0253779
0.0233778
0.0211873
0.0193103
0.0181554
0.0175555
0.0171388
0.0169791
0.0176464
0.018038
0.0198261
0.0239201
0.0280298
0.0241418
0.0256013
0.0252562
0.0240635
0.0233945
0.0240503
0.0256335
0.0278756
0.0301276
0.0313709
0.0323312
0.032733
0.0326091
0.0320824
0.0305166
0.0287882
0.028286
0.0293122
0.031448
0.0318094
0.0299551
0.0256003
0.0206833
0.018424
0.0187871
0.0209132
0.0227308
0.0240144
0.0246796
0.0253681
0.0233147
0.0246343
0.0259715
0.0276337
0.0287217
0.0294632
0.029685
0.0294152
0.0291028
0.0290903
0.0296675
0.0310872
0.0329093
0.0344686
0.0355689
0.0340559
0.0316919
0.0278958
0.0254567
0.0235844
0.0221493
0.020553
0.0195133
0.0187376
0.0189011
0.0194795
0.0210737
0.0244927
0.0264971
0.0265379
0.0224009
0.0221304
0.0213282
0.0214515
0.0228623
0.0241848
0.025479
0.0265397
0.0269927
0.0270847
0.0274573
0.0287814
0.0305852
0.0320661
0.032951
0.0330572
0.0320587
0.0310702
0.0298512
0.0294137
0.0297758
0.0292573
0.0284688
0.027762
0.0260623
0.020693
0.0172213
0.0164666
0.0188395
0.0209806
0.0193407
0.0230282
0.0274017
0.0291748
0.0295877
0.029666
0.0302499
0.0308868
0.0335
0.0362994
0.0382487
0.0404789
0.043022
0.0451193
0.0473411
0.049549
0.0513976
0.0512544
0.0499053
0.0483764
0.0449039
0.0352522
0.0378479
0.0310396
0.0249282
0.0156212
0.0143574
0.0154934
0.0176475
0.0178345
0.0109826
0.014119
0.0186966
0.0215061
0.0276367
0.032198
0.0364294
0.04264
0.0475234
0.0502
0.0507313
0.0507925
0.0500247
0.0468017
0.0390652
0.0289079
0.0200318
0.0143305
0.0109371
0.00946792
0.00832117
0.00906032
0.00852083
0.00951521
0.0086322
0.00967841
0.0089624
0.00995211
0.00947038
0.00929135
0.0080905
0.00894677
0.00915999
0.0090411
0.00917977
0.0090688
0.00923989
0.00911563
0.00929903
0.00916665
0.00934771
0.00922786
0.00940617
0.00931919
0.0094696
0.00936996
0.00946031
0.00933868
0.00940492
0.00930391
0.00937254
0.00928989
0.00934218
0.00928121
0.0093145
0.00927656
0.00929421
0.00927749
0.00924668
0.00808915
0.00808234
0.00924211
0.0093146
0.0093309
0.00934847
0.009361
0.00938057
0.0093936
0.00941305
0.00942863
0.00945008
0.00947152
0.00950756
0.00954324
0.00956587
0.00956633
0.00954697
0.00951564
0.00948493
0.00946543
0.009448
0.00943044
0.00941491
0.00939969
0.00938278
0.00936863
0.00935301
0.00933848
0.00927461
0.00808023
0.00807966
0.00927259
0.00934171
0.00936055
0.00937479
0.00938826
0.00940383
0.00941716
0.00943153
0.00944556
0.00946188
0.00947904
0.0095079
0.00953878
0.00956194
0.00956805
0.00955523
0.00951886
0.00947901
0.00945173
0.00943901
0.00941718
0.00939974
0.00938531
0.00937109
0.00935828
0.00934685
0.00933107
0.00926281
0.00808035
0.00808116
0.00927026
0.00933692
0.00935574
0.00936739
0.00938187
0.00939578
0.00941119
0.00942483
0.00944125
0.00945711
0.0094785
0.00950839
0.00954413
0.00956493
0.00956896
0.00954889
0.00951861
0.00948565
0.00946657
0.00944806
0.00943057
0.0094141
0.00939919
0.00938158
0.00936718
0.00935099
0.00933793
0.00927357
0.00808022
0.00808139
0.00927195
0.0093381
0.00934943
0.00936452
0.00938071
0.00939778
0.00941417
0.00943008
0.00944807
0.00946517
0.00948563
0.00951404
0.00954668
0.00956781
0.00956734
0.00954807
0.00951362
0.00948406
0.00946322
0.0094466
0.00942958
0.00941435
0.00939897
0.009383
0.00936849
0.00935409
0.00933752
0.00927352
0.0080819
0.00808132
0.00927208
0.00934095
0.00936012
0.00937257
0.00938668
0.00940035
0.00941483
0.00942752
0.00944238
0.00945781
0.00947794
0.00950461
0.00953926
0.00956192
0.00957028
0.00955093
0.00952111
0.00948767
0.00946903
0.00945031
0.00943249
0.00941548
0.00939995
0.00938257
0.00936778
0.00935121
0.00933852
0.0092745
0.0080802
0.0182081
0.0218035
0.0273167
0.0333855
0.0378541
0.0349629
0.0303432
0.0262634
0.024498
0.0208975
0.0154838
0.0128352
0.0154847
0.0215985
0.016971
0.0175646
0.0170844
0.0187804
0.0234585
0.0306787
0.0389006
0.0476823
0.0529852
0.0556824
0.0573022
0.0583727
0.0584894
0.0573748
0.0553092
0.0515045
0.0461753
0.0403973
0.0346382
0.0286591
0.023393
0.0199559
0.0180443
0.016929
0.0164776
0.0166132
0.0157961
0.0163865
0.0200389
0.0259696
0.0241653
0.0252004
0.0243654
0.0229703
0.0226604
0.0242704
0.0277005
0.0312008
0.0336684
0.0350273
0.0356237
0.0349737
0.0332722
0.029522
0.0255299
0.0229689
0.0218974
0.0222234
0.0256245
0.03028
0.0321859
0.0299804
0.0229523
0.0185421
0.0180285
0.0198467
0.0217026
0.0235535
0.0243673
0.0245479
0.0227526
0.0235812
0.0247924
0.0263
0.0276455
0.0284338
0.0288727
0.0289171
0.0285237
0.0280721
0.0278996
0.0284595
0.029966
0.0321142
0.0341782
0.034618
0.0320485
0.027918
0.0242419
0.0221671
0.0210986
0.0198952
0.018752
0.0181482
0.0179387
0.0184143
0.0195402
0.0227226
0.0247983
0.0248614
0.0223067
0.0219198
0.0209116
0.0207977
0.0218829
0.0233245
0.024847
0.025946
0.0262685
0.0260572
0.0262192
0.0279203
0.0302244
0.0318984
0.0330836
0.0338402
0.0339278
0.0331986
0.0321607
0.0303837
0.0317832
0.0335815
0.0330675
0.0310439
0.0269694
0.0204396
0.0165276
0.0146223
0.0157797
0.0164777
0.0171682
0.0230384
0.0267696
0.0290739
0.0295992
0.0295303
0.0296482
0.0300732
0.0301176
0.0342198
0.0394768
0.0443221
0.0492411
0.052175
0.0538227
0.0555172
0.0571722
0.0579636
0.0568153
0.0520671
0.0438322
0.0366247
0.0305097
0.0238339
0.0439936
0.0250392
0.0157379
0.0131185
0.0130382
0.0124383
0.0122446
0.0178277
0.0232847
0.028003
0.0330811
0.0367456
0.0441788
0.0513646
0.0569466
0.0599915
0.0597929
0.057478
0.056168
0.0572805
0.0543956
0.049096
0.0378565
0.0277499
0.020174
0.0152998
0.0122509
0.00991751
0.00949571
0.00881234
0.00933422
0.00862419
0.00909025
0.00852692
0.00888891
0.0083842
0.00887923
0.00892948
0.0088926
0.00893651
0.00883601
0.00889233
0.00878441
0.00884797
0.00874668
0.00881614
0.00872754
0.00879423
0.0087181
0.00877955
0.00871635
0.00876633
0.00871628
0.00874933
0.00871629
0.00873523
0.00871793
0.00872756
0.00871714
0.00872321
0.00871633
0.00872032
0.00871616
0.00871827
0.0087029
0.00850413
0.00850828
0.00871197
0.0087239
0.00873097
0.0087274
0.00873273
0.00872979
0.00873477
0.00873226
0.0087371
0.00873516
0.00873998
0.00873938
0.00874495
0.00874394
0.00874656
0.00874257
0.00874273
0.00873815
0.00873925
0.00873557
0.00873689
0.00873332
0.00873481
0.00873109
0.00873259
0.00872866
0.00872896
0.0087111
0.00850467
0.00850474
0.00871113
0.00872943
0.00872904
0.00873299
0.00873123
0.00873503
0.00873331
0.00873691
0.00873532
0.00873895
0.0087377
0.008742
0.0087419
0.00874579
0.0087441
0.00874526
0.00874046
0.00873972
0.00873585
0.00873472
0.00873603
0.00873232
0.00873393
0.00873019
0.00873209
0.00872835
0.00872939
0.00871125
0.00850034
0.00850447
0.00871191
0.00872679
0.00873155
0.00873001
0.00873352
0.00873205
0.00873553
0.00873406
0.00873754
0.00873628
0.00874001
0.00873979
0.00874452
0.00874396
0.00874636
0.0087427
0.00874271
0.00873818
0.00873918
0.00873557
0.0087368
0.00873328
0.00873469
0.00873104
0.0087324
0.00872854
0.00872882
0.00871122
0.00850455
0.00850066
0.00871146
0.00872744
0.00873095
0.00872967
0.00873358
0.00873204
0.00873584
0.00873427
0.00873803
0.0087367
0.00874048
0.00874011
0.0087446
0.00874392
0.00874392
0.0087447
0.0087401
0.00874033
0.0087366
0.0087379
0.00873427
0.00873579
0.00873215
0.00873365
0.00873005
0.00873125
0.00872677
0.00871174
0.00850067
0.00850406
0.00871203
0.00872696
0.00873182
0.00873022
0.00873391
0.00873229
0.00873593
0.00873422
0.00873782
0.00873629
0.00874013
0.00873952
0.00874433
0.00874369
0.00874652
0.00874286
0.00874297
0.00873838
0.00873953
0.00873589
0.00873722
0.00873362
0.00873507
0.00873138
0.00873268
0.00872877
0.00872905
0.00871121
0.00850449
0.0246623
0.0329441
0.0426103
0.0520548
0.0529457
0.04821
0.0414636
0.0360154
0.0319602
0.0265745
0.0168897
0.0115091
0.0113112
0.0178233
0.0153757
0.016478
0.0193438
0.026452
0.03743
0.0494744
0.0561583
0.0585406
0.0564386
0.051983
0.0484988
0.0479362
0.0491246
0.0528304
0.0551446
0.0550903
0.0536668
0.0508798
0.0462171
0.0393483
0.0314824
0.0243752
0.0200333
0.0173607
0.0158906
0.015263
0.0134813
0.0136082
0.0172969
0.0242608
0.0240053
0.0246227
0.0236318
0.0223639
0.0227682
0.0253699
0.0294033
0.0324838
0.0344146
0.0356199
0.0364968
0.0359003
0.0323279
0.027759
0.0241608
0.0224892
0.0215244
0.0210411
0.0219028
0.0261493
0.0315741
0.0316348
0.0253666
0.0189207
0.017222
0.0182962
0.0206036
0.022847
0.0235083
0.0236736
0.0223737
0.0228512
0.0243013
0.0259368
0.027035
0.0275584
0.0279107
0.0280273
0.0277878
0.0277479
0.028329
0.0291288
0.0297803
0.0307435
0.0325847
0.0335002
0.0315732
0.0269762
0.0231503
0.0207382
0.0192338
0.0181661
0.0174654
0.0172803
0.0175232
0.0178075
0.0183044
0.0206229
0.0235544
0.0248923
0.0220967
0.021792
0.0209897
0.0206465
0.0218105
0.0238797
0.0254422
0.0259369
0.0256358
0.0251114
0.0253524
0.0272846
0.0297739
0.0316847
0.0330301
0.0346494
0.0357206
0.0361839
0.0356501
0.0328587
0.0327503
0.0363203
0.0376734
0.0353281
0.0298486
0.0237191
0.0181515
0.0136397
0.0148309
0.0136961
0.0159348
0.0208861
0.0261014
0.0282803
0.0300768
0.0306693
0.031204
0.0316045
0.0311952
0.0326599
0.0437452
0.0512926
0.0573728
0.0597538
0.0605311
0.0607948
0.0608513
0.0608524
0.0600059
0.0574166
0.051354
0.0438537
0.0370792
0.0411301
0.0373749
0.0367146
0.021288
0.0151501
0.0119206
0.0118761
0.01528
0.02341
0.0281214
0.0326753
0.0387772
0.0465409
0.0529254
0.0621433
0.0649157
0.0675832
0.0672126
0.0660326
0.0614176
0.0592578
0.0601501
0.0582179
0.0541243
0.0439802
0.0335587
0.0253041
0.0196497
0.0157763
0.0128013
0.0120777
0.0113246
0.0117152
0.0108546
0.0112489
0.0105065
0.0107668
0.0116521
0.0117674
0.0116375
0.0114616
0.0114321
0.0112515
0.0112768
0.0111276
0.01118
0.0110441
0.011113
0.0109943
0.0110639
0.0109637
0.0110297
0.0109467
0.0110023
0.0109401
0.0109786
0.0109371
0.0109633
0.0109333
0.0109534
0.0109298
0.0109451
0.0109268
0.0109375
0.0109235
0.0109237
0.0109015
0.0109201
0.0109327
0.0109434
0.0109309
0.0109404
0.0109294
0.010938
0.0109284
0.0109366
0.0109278
0.010936
0.0109282
0.0109358
0.0109287
0.0109358
0.010929
0.0109353
0.0109284
0.0109345
0.0109277
0.0109341
0.0109274
0.0109342
0.0109272
0.0109341
0.010927
0.0109335
0.0109267
0.0109247
0.0109058
0.0109042
0.0109238
0.0109268
0.0109336
0.0109263
0.0109337
0.0109263
0.0109338
0.0109265
0.0109338
0.010927
0.010934
0.0109277
0.0109344
0.0109282
0.0109346
0.0109284
0.0109349
0.0109293
0.0109314
0.0109328
0.010927
0.0109343
0.0109265
0.0109338
0.0109262
0.0109335
0.0109258
0.0109302
0.0108999
0.0109064
0.010925
0.0109338
0.0109264
0.010934
0.0109265
0.0109339
0.0109267
0.0109338
0.0109269
0.010934
0.0109275
0.0109344
0.0109283
0.0109347
0.0109284
0.0109346
0.010928
0.0109342
0.0109272
0.010934
0.010927
0.0109341
0.0109268
0.0109339
0.0109267
0.0109332
0.0109268
0.0109248
0.0109059
0.0109013
0.0109281
0.0109281
0.0109267
0.0109341
0.0109269
0.0109343
0.010927
0.0109341
0.010927
0.0109342
0.0109275
0.0109346
0.0109284
0.0109335
0.0109337
0.0109287
0.0109347
0.0109277
0.0109343
0.0109271
0.0109342
0.0109271
0.0109344
0.0109272
0.0109345
0.0109271
0.0109303
0.0109274
0.0109024
0.0109059
0.0109249
0.0109336
0.0109261
0.0109341
0.0109264
0.0109342
0.0109266
0.0109341
0.0109266
0.0109341
0.0109271
0.0109345
0.010928
0.0109349
0.0109284
0.0109348
0.0109281
0.0109343
0.0109273
0.0109341
0.0109271
0.0109343
0.0109272
0.0109343
0.0109268
0.0109334
0.0109269
0.0109246
0.0109054
0.0354442
0.0439863
0.0569142
0.0603783
0.0521182
0.0410963
0.0343155
0.0312416
0.0273933
0.020989
0.0151471
0.0113744
0.0101645
0.0149583
0.0152067
0.0182891
0.0280855
0.0415572
0.0529957
0.0583564
0.0524579
0.0408883
0.0311178
0.0252385
0.0227152
0.0220294
0.0232381
0.0268954
0.0338813
0.0415189
0.0468364
0.0491789
0.0486071
0.0455351
0.0390557
0.0307732
0.0236109
0.0184866
0.0152864
0.0132905
0.0113922
0.0106896
0.0130949
0.0214387
0.0238859
0.0239612
0.0230208
0.0222838
0.0233727
0.0264147
0.0299171
0.032026
0.033639
0.0350239
0.0365086
0.0364642
0.0341104
0.0300226
0.0275362
0.0257124
0.0244678
0.0231996
0.0223628
0.0244179
0.0295317
0.0316758
0.0265615
0.0193755
0.0167935
0.0168333
0.0189222
0.0220467
0.0229017
0.0229866
0.0215947
0.0220229
0.0240433
0.0258407
0.0265267
0.0267158
0.0268698
0.027097
0.0276703
0.0296235
0.032809
0.0349998
0.0348101
0.0334874
0.0325152
0.0318191
0.0288075
0.0238904
0.0199826
0.0180467
0.0172953
0.0172153
0.0176796
0.0185145
0.0185586
0.0181426
0.0181691
0.0194754
0.022292
0.0253718
0.0221131
0.0217671
0.0210373
0.0211596
0.0230514
0.0253639
0.0259948
0.0253076
0.024722
0.0244138
0.0248652
0.0266538
0.0293299
0.031282
0.0327129
0.0347423
0.037269
0.0390564
0.0392339
0.0361687
0.0342929
0.0365829
0.0401277
0.0399764
0.0347926
0.0270481
0.0205229
0.0153781
0.00994032
0.0140576
0.0164302
0.020253
0.0232501
0.0289944
0.0324997
0.033412
0.033528
0.0333078
0.0313912
0.0374325
0.0493343
0.056937
0.0595652
0.0603402
0.0623465
0.0636437
0.0645239
0.0649485
0.0644247
0.0632029
0.0595456
0.05179
0.0433468
0.0429635
0.044007
0.0366829
0.0412024
0.0256865
0.0159324
0.0126548
0.0204557
0.0265839
0.0342567
0.0405648
0.0466942
0.0529118
0.0602731
0.0655783
0.067815
0.0688663
0.0697712
0.0704521
0.0672167
0.064973
0.0625934
0.0630195
0.06111
0.058285
0.0487824
0.0388143
0.0304173
0.0241029
0.0197684
0.0162473
0.0156365
0.0142619
0.0148534
0.0134455
0.0139308
0.0127438
0.0154865
0.0155344
0.0151307
0.0150429
0.0146598
0.014668
0.0143119
0.0143628
0.0140929
0.0141627
0.0139551
0.0140307
0.0138731
0.013927
0.0138323
0.0138464
0.0138064
0.0137935
0.0137853
0.0137607
0.0137674
0.0137404
0.013751
0.0137265
0.0137372
0.013715
0.0137233
0.0137035
0.013694
0.0134948
0.0135332
0.013731
0.0137315
0.0137349
0.0137273
0.0137274
0.013723
0.0137231
0.0137203
0.0137211
0.0137195
0.0137204
0.0137194
0.0137202
0.0137195
0.0137197
0.0137195
0.013719
0.0137191
0.013718
0.0137188
0.0137175
0.0137188
0.0137174
0.013719
0.0137174
0.0137185
0.0137154
0.0137001
0.0135059
0.0135042
0.0136989
0.0137159
0.0137188
0.0137169
0.0137185
0.0137165
0.0137181
0.0137163
0.0137182
0.0137166
0.0137184
0.0137171
0.0137188
0.0137172
0.013719
0.0137174
0.0137196
0.0137179
0.0137168
0.0137176
0.0137167
0.0137186
0.0137167
0.0137183
0.0137166
0.0137183
0.0137153
0.0137034
0.0135078
0.0135048
0.0137025
0.013718
0.013717
0.0137187
0.0137166
0.0137182
0.0137164
0.0137181
0.0137165
0.0137183
0.0137169
0.013719
0.0137175
0.0137192
0.0137175
0.0137191
0.0137173
0.0137187
0.0137169
0.0137185
0.0137168
0.0137187
0.0137169
0.0137188
0.0137169
0.013718
0.0137153
0.0137004
0.0135058
0.0135081
0.0137026
0.0137139
0.0137162
0.0137182
0.0137169
0.0137186
0.0137168
0.0137184
0.0137168
0.0137187
0.013717
0.0137191
0.0137175
0.0137179
0.0137182
0.0137177
0.0137192
0.0137171
0.0137188
0.0137169
0.0137185
0.0137169
0.0137188
0.0137172
0.0137191
0.0137169
0.0137148
0.0137021
0.0135083
0.0135046
0.0137022
0.0137175
0.0137167
0.0137185
0.0137167
0.0137183
0.0137166
0.0137182
0.0137167
0.0137183
0.0137171
0.0137191
0.0137178
0.0137198
0.0137181
0.0137198
0.0137179
0.0137192
0.0137175
0.0137188
0.0137173
0.0137191
0.0137176
0.0137193
0.013717
0.0137182
0.0137153
0.0136998
0.0135049
0.0459494
0.0559808
0.0648624
0.0563178
0.0385247
0.0298792
0.0273445
0.0246601
0.0187733
0.0148376
0.01373
0.0134002
0.0116271
0.0119603
0.0164122
0.0273772
0.0439227
0.0542233
0.0556004
0.0434493
0.0272588
0.0204723
0.0174339
0.0166554
0.0163931
0.0166609
0.0171859
0.0182736
0.0217234
0.027652
0.0356283
0.0427294
0.0460709
0.0458476
0.0424807
0.0353494
0.0269152
0.0193586
0.0146939
0.0118958
0.0105822
0.0106345
0.012983
0.020787
0.0233979
0.0234814
0.0226818
0.0225006
0.02441
0.0273358
0.0304706
0.0328262
0.0342052
0.03721
0.039044
0.0403391
0.0385265
0.0364983
0.031893
0.0287239
0.0267843
0.0251754
0.0241402
0.0251335
0.028805
0.0306811
0.0268713
0.0194016
0.0162773
0.0160424
0.0178278
0.0210733
0.022236
0.0222919
0.0206814
0.0208972
0.0234812
0.0254849
0.0259396
0.0259256
0.0260006
0.0265759
0.028536
0.0332412
0.0398347
0.0431024
0.0418405
0.0379069
0.0336638
0.0299354
0.0254027
0.0209044
0.018018
0.0169126
0.0171708
0.0186143
0.0207197
0.0221664
0.0219879
0.0199868
0.0188608
0.0192098
0.0215136
0.0246239
0.0220783
0.0218124
0.0217
0.0228343
0.0252272
0.0261934
0.0253349
0.0246645
0.0243976
0.0243937
0.0248388
0.0263147
0.0285961
0.0303402
0.031733
0.0340096
0.037497
0.0409343
0.0431928
0.0427999
0.0399096
0.0393596
0.0417892
0.0439921
0.0427455
0.0347053
0.0250937
0.0189898
0.0174407
0.0150859
0.0175887
0.0178935
0.0262846
0.029382
0.0307964
0.0317826
0.0330449
0.0337782
0.0338588
0.0398774
0.052427
0.0553276
0.053827
0.0524964
0.055635
0.0588959
0.062654
0.0660534
0.0673191
0.0670494
0.0651042
0.0609621
0.0541013
0.0496781
0.0531977
0.0595158
0.0388574
0.0333175
0.0254202
0.0173647
0.0227299
0.0328536
0.0433743
0.050669
0.0545652
0.057916
0.062506
0.0666949
0.0685166
0.0706189
0.0713963
0.0715434
0.0718117
0.0702995
0.0671502
0.0649699
0.06535
0.0633278
0.0613517
0.0526403
0.04378
0.0355232
0.0291269
0.0245683
0.0209375
0.0204334
0.019214
0.0192336
0.0177352
0.0174127
0.0219635
0.0218553
0.0210328
0.020446
0.0201284
0.0196799
0.0196568
0.0192846
0.0193589
0.019064
0.0191607
0.0189385
0.0190212
0.0188613
0.0189269
0.0188113
0.0188599
0.0187799
0.0188139
0.0187566
0.0187814
0.0187388
0.0187569
0.0187236
0.0187378
0.018708
0.0187179
0.0186874
0.0186868
0.0187208
0.0188092
0.0187303
0.0187338
0.018715
0.0187217
0.0187065
0.0187135
0.018701
0.0187081
0.0186977
0.0187045
0.0186962
0.0187016
0.0186956
0.0186998
0.0186952
0.0186988
0.0186947
0.0186987
0.0186945
0.0186987
0.0186945
0.018699
0.0186949
0.0186994
0.0186953
0.018698
0.0186934
0.0186943
0.0187528
0.0187494
0.0186922
0.0186945
0.0186987
0.0186951
0.0186986
0.018694
0.0186978
0.0186934
0.0186973
0.0186933
0.0186969
0.0186935
0.0186964
0.0186937
0.0186965
0.018694
0.0186973
0.0186953
0.0186937
0.0186952
0.0186941
0.0186981
0.0186942
0.0186983
0.0186945
0.018698
0.0186936
0.0186987
0.0187568
0.0187525
0.0186962
0.0186977
0.0186947
0.0186985
0.018694
0.0186977
0.0186933
0.0186972
0.0186933
0.018697
0.0186935
0.0186967
0.0186937
0.0186964
0.0186938
0.0186966
0.0186937
0.0186971
0.0186937
0.0186978
0.0186939
0.0186984
0.0186945
0.0186988
0.0186948
0.018697
0.0186934
0.0186945
0.0187527
0.0187573
0.0186963
0.0186919
0.0186936
0.0186978
0.0186945
0.0186984
0.018694
0.0186979
0.0186938
0.0186976
0.0186935
0.0186971
0.0186938
0.0186947
0.0186948
0.0186939
0.018697
0.0186936
0.0186976
0.0186937
0.0186979
0.018694
0.0186985
0.0186949
0.018699
0.0186948
0.018693
0.0186951
0.0187577
0.0187522
0.018696
0.0186974
0.0186944
0.0186986
0.0186939
0.0186985
0.0186934
0.0186979
0.018693
0.0186973
0.0186929
0.0186969
0.0186933
0.0186966
0.0186935
0.0186962
0.0186932
0.0186966
0.0186932
0.0186973
0.0186934
0.0186982
0.018694
0.018699
0.0186944
0.018697
0.0186928
0.0186929
0.0187505
0.0548833
0.0643054
0.0644366
0.0442819
0.0309482
0.0280997
0.0271797
0.021352
0.0150589
0.0141197
0.0166675
0.0190234
0.0178116
0.0153628
0.0179654
0.0374551
0.0519456
0.0524481
0.0375552
0.023165
0.0177486
0.0162771
0.0160265
0.0160221
0.016451
0.0169722
0.0174332
0.0181924
0.0200468
0.02381
0.0306382
0.0377319
0.0428106
0.0437861
0.0409589
0.0348468
0.0269492
0.0193185
0.0142566
0.011277
0.0104237
0.0116383
0.0153968
0.0202751
0.0220475
0.0230729
0.0226668
0.0233914
0.0257397
0.0295321
0.0339961
0.0373799
0.0407704
0.0436303
0.0453823
0.0456098
0.0449596
0.0405699
0.0346762
0.0292162
0.028213
0.0274084
0.0268068
0.027213
0.0288604
0.0290568
0.0242212
0.0185479
0.0162589
0.0160402
0.0174717
0.0206922
0.0216901
0.0217819
0.0197251
0.0204993
0.0233144
0.0250971
0.02537
0.025272
0.025515
0.0265033
0.0294636
0.0357661
0.042698
0.0460535
0.0448441
0.040253
0.034406
0.0287398
0.0234813
0.0197632
0.0184333
0.0188747
0.0209574
0.0233645
0.0247112
0.0257079
0.0257959
0.0235554
0.0206929
0.0196886
0.0212273
0.0240483
0.0220293
0.021986
0.022799
0.0249424
0.0262648
0.025931
0.0252107
0.0251374
0.0251833
0.0251551
0.0253276
0.0259363
0.0275181
0.0288507
0.0302378
0.0324449
0.036511
0.041296
0.0451936
0.0470788
0.0461115
0.0443271
0.0438899
0.0455463
0.047233
0.0445645
0.0351753
0.02517
0.0198605
0.0172699
0.0184183
0.0192007
0.0246399
0.0276859
0.0286554
0.0303528
0.0324998
0.0348466
0.0356556
0.0426103
0.0529601
0.0530955
0.0477012
0.0478986
0.0475204
0.049923
0.0542161
0.0596364
0.0654572
0.0688299
0.0690213
0.0672272
0.0644687
0.0615778
0.0622723
0.0589152
0.0572252
0.042513
0.0335273
0.0221455
0.0332194
0.0429947
0.0490323
0.0530941
0.056271
0.0609843
0.0652877
0.0671934
0.0697192
0.0712166
0.0721501
0.0723513
0.072347
0.0721322
0.0714766
0.0686138
0.0667838
0.0669534
0.0650478
0.063449
0.0558325
0.0482313
0.0408091
0.0341814
0.029238
0.0261007
0.0255403
0.0236625
0.0231486
0.0209388
0.0295548
0.0291249
0.0279507
0.0268649
0.026118
0.0256356
0.0252333
0.0249181
0.0247512
0.0244896
0.0244695
0.0242217
0.0242776
0.0240563
0.0241395
0.0239538
0.0240384
0.0238879
0.023967
0.0238411
0.0239155
0.0238065
0.0238748
0.0237796
0.0238363
0.0237539
0.0237937
0.0237181
0.0237374
0.0237487
0.023916
0.0238495
0.0238043
0.0238071
0.0237887
0.0237892
0.0237795
0.0237808
0.0237746
0.0237753
0.0237726
0.0237725
0.0237713
0.0237707
0.0237705
0.0237701
0.0237699
0.0237697
0.0237696
0.0237693
0.0237689
0.0237687
0.0237685
0.0237683
0.0237675
0.0237656
0.0237631
0.0237583
0.0237587
0.0238345
0.0238317
0.0237573
0.0237592
0.0237636
0.0237652
0.0237666
0.0237669
0.0237673
0.0237669
0.0237673
0.0237671
0.0237677
0.0237673
0.0237677
0.0237672
0.0237681
0.0237674
0.0237689
0.0237681
0.0237665
0.023767
0.0237675
0.0237681
0.0237672
0.0237666
0.0237647
0.0237626
0.0237585
0.0237611
0.0238394
0.0238338
0.023761
0.02376
0.0237627
0.0237652
0.0237657
0.023767
0.0237666